<?xml version="1.0"?>
<VTKFile type="UnstructuredGrid" version="0.1" byte_order="LittleEndian">
<UnstructuredGrid>
<Piece NumberOfPoints="5000" NumberOfCells="4000">
<PointData Scalars="Reaction 0">
<DataArray type="Float32" Name="Reaction 0" format="ascii">
0.451467
0.451467
0.451467
0.451467
0.451468
0.451468
0.451468
0.451468
0.451468
0.451468
0.451468
0.451469
0.451469
0.451469
0.45147
0.45147
0.45147
0.45147
0.451471
0.451471
0.451471
0.451472
0.451473
0.451473
0.451474
0.451474
0.451474
0.451475
0.451476
0.451477
0.451477
0.451477
0.451478
0.451479
0.45148
0.45148
0.451481
0.451482
0.451483
0.451484
0.451484
0.451485
0.451486
0.451487
0.451489
0.451489
0.45149
0.451491
0.451492
0.451493
0.451493
0.451495
0.451496
0.451498
0.451499
0.451499
0.4515
0.451502
0.451503
0.451505
0.451505
0.451507
0.451508
0.45151
0.451512
0.451512
0.451513
0.451515
0.451517
0.451519
0.451519
0.451521
0.451522
0.451524
0.451526
0.451526
0.451528
0.45153
0.451532
0.451534
0.451534
0.451537
0.451539
0.451541
0.451543
0.451543
0.451545
0.451548
0.45155
0.451552
0.451552
0.451555
0.451557
0.45156
0.451562
0.451562
0.451565
0.451567
0.45157
0.451572
0.451572
0.451575
0.451578
0.45158
0.451583
0.451583
0.451586
0.451589
0.451591
0.451594
0.451594
0.451597
0.4516
0.451603
0.451606
0.451606
0.451609
0.451612
0.451615
0.451618
0.451618
0.451622
0.451625
0.451628
0.451631
0.451631
0.451635
0.451638
0.451641
0.451645
0.451645
0.451648
0.451652
0.451655
0.451659
0.451659
0.451662
0.451666
0.451669
0.451673
0.451673
0.451677
0.451681
0.451684
0.451688
0.451688
0.451692
0.451696
0.4517
0.451704
0.451704
0.451708
0.451712
0.451716
0.45172
0.45172
0.451724
0.451728
0.451732
0.451736
0.451736
0.45174
0.451745
0.451749
0.451753
0.451753
0.451758
0.451762
0.451766
0.451771
0.451771
0.451775
0.45178
0.451784
0.451789
0.451789
0.451794
0.451798
0.451803
0.451808
0.451808
0.451812
0.451817
0.451822
0.451827
0.451827
0.451832
0.451837
0.451842
0.451846
0.451846
0.451851
0.451857
0.451862
0.451867
0.451867
0.451872
0.451877
0.451882
0.451887
0.451887
0.451893
0.451898
0.451903
0.451909
0.451909
0.451914
0.45192
0.451925
0.451931
0.451931
0.451936
0.451942
0.451947
0.451953
0.451953
0.451959
0.451964
0.45197
0.451976
0.451976
0.451982
0.451987
0.451993
0.451999
0.451999
0.452005
0.452011
0.452017
0.452023
0.452023
0.452029
0.452035
0.452041
0.452047
0.452047
0.452054
0.45206
0.452066
0.452072
0.452072
0.452079
0.452085
0.452091
0.452098
0.452098
0.452104
0.452111
0.452117
0.452124
0.452124
0.452131
0.452137
0.452144
0.45215
0.45215
0.452157
0.452164
0.452171
0.452178
0.452178
0.452184
0.452191
0.452198
0.452205
0.452205
0.452212
0.452219
0.452226
0.452233
0.452233
0.45224
0.452248
0.452255
0.452262
0.452262
0.452269
0.452276
0.452284
0.452291
0.452291
0.452298
0.452306
0.452313
0.452321
0.452321
0.452328
0.452336
0.452343
0.452351
0.452351
0.452359
0.452366
0.452374
0.452382
0.452382
0.45239
0.452397
0.452405
0.452413
0.452413
0.452421
0.452429
0.452437
0.452445
0.452445
0.452453
0.452461
0.452469
0.452477
0.452477
0.452485
0.452494
0.452502
0.45251
0.45251
0.452518
0.452527
0.452535
0.452543
0.452543
0.452552
0.45256
0.452569
0.452577
0.452577
0.452586
0.452595
0.452603
0.452612
0.452612
0.45262
0.452629
0.452638
0.452647
0.452647
0.452656
0.452664
0.452673
0.452682
0.452682
0.452691
0.4527
0.452709
0.452718
0.452718
0.452727
0.452737
0.452746
0.452755
0.452755
0.452764
0.452773
0.452783
0.452792
0.452792
0.452801
0.452811
0.45282
0.45283
0.45283
0.452839
0.452849
0.452858
0.452868
0.452868
0.452877
0.452887
0.452897
0.452906
0.452906
0.452916
0.452926
0.452936
0.452946
0.452946
0.452955
0.452965
0.452975
0.452985
0.452985
0.452995
0.453005
0.453015
0.453026
0.453026
0.453036
0.453046
0.453056
0.453066
0.453066
0.453077
0.453087
0.453097
0.453108
0.453108
0.453118
0.453128
0.453139
0.453149
0.453149
0.45316
0.453171
0.453181
0.453192
0.453192
0.453202
0.453213
0.453224
0.453235
0.453235
0.453245
0.453256
0.453267
0.453278
0.453278
0.453289
0.4533
0.453311
0.453322
0.453322
0.453333
0.453344
0.453355
0.453367
0.453367
0.453378
0.453389
0.4534
0.453412
0.453412
0.453423
0.453434
0.453446
0.453457
0.453457
0.453469
0.45348
0.453492
0.453503
0.453503
0.453515
0.453526
0.453538
0.45355
0.45355
0.453561
0.453573
0.453585
0.453597
0.453597
0.453609
0.453621
0.453633
0.453644
0.453644
0.453656
0.453668
0.453681
0.453693
0.453693
0.453705
0.453717
0.453729
0.453741
0.453741
0.453754
0.453766
0.453778
0.453791
0.453791
0.453803
0.453815
0.453828
0.45384
0.45384
0.453853
0.453865
0.453878
0.453891
0.453891
0.453903
0.453916
0.453929
0.453941
0.453941
0.453954
0.453967
0.45398
0.453993
0.453993
0.454006
0.454019
0.454032
0.454045
0.454045
0.454058
0.454071
0.454084
0.454097
0.454097
0.45411
0.454124
0.454137
0.45415
0.45415
0.454163
0.454177
0.45419
0.454204
0.454204
0.454217
0.454231
0.454244
0.454258
0.454258
0.454271
0.454285
0.454298
0.454312
0.454312
0.454326
0.45434
0.454353
0.454367
0.454367
0.454381
0.454395
0.454409
0.454423
0.454423
0.454437
0.454451
0.454465
0.454479
0.454479
0.454493
0.454507
0.454521
0.454536
0.454536
0.45455
0.454564
0.454578
0.454593
0.454593
0.454607
0.454622
0.454636
0.45465
0.45465
0.454665
0.45468
0.454694
0.454709
0.454709
0.454723
0.454738
0.454753
0.454768
0.454768
0.454782
0.454797
0.454812
0.454827
0.454827
0.454842
0.454857
0.454872
0.454887
0.454887
0.454902
0.454917
0.454932
0.454947
0.454947
0.454962
0.454977
0.454993
0.455008
0.455008
0.455023
0.455039
0.455054
0.455069
0.455069
0.455085
0.4551
0.455116
0.455131
0.455131
0.455147
0.455163
0.455178
0.455194
0.455194
0.45521
0.455225
0.455241
0.455257
0.455257
0.455273
0.455289
0.455305
0.455321
0.455321
0.455337
0.455353
0.455369
0.455385
0.455385
0.455401
0.455417
0.455433
0.455449
0.455449
0.455466
0.455482
0.455498
0.455514
0.455514
0.455531
0.455547
0.455564
0.45558
0.45558
0.455597
0.455613
0.45563
0.455646
0.455646
0.455663
0.45568
0.455696
0.455713
0.455713
0.45573
0.455747
0.455764
0.45578
0.45578
0.455797
0.455814
0.455831
0.455848
0.455848
0.455865
0.455882
0.4559
0.455917
0.455917
0.455934
0.455951
0.455968
0.455986
0.455986
0.456003
0.45602
0.456038
0.456055
0.456055
0.456072
0.45609
0.456107
0.456125
0.456125
0.456143
0.45616
0.456178
0.456195
0.456195
0.456213
0.456231
0.456249
0.456267
0.456267
0.456284
0.456302
0.45632
0.456338
0.456338
0.456356
0.456374
0.456392
0.45641
0.45641
0.456428
0.456446
0.456465
0.456483
0.456483
0.456501
0.456519
0.456538
0.456556
0.456556
0.456574
0.456593
0.456611
0.45663
0.45663
0.456648
0.456667
0.456685
0.456704
0.456704
0.456723
0.456741
0.45676
0.456779
0.456779
0.456798
0.456816
0.456835
0.456854
0.456854
0.456873
0.456892
0.456911
0.45693
0.45693
0.456949
0.456968
0.456987
0.457006
0.457006
0.457026
0.457045
0.457064
0.457083
0.457083
0.457103
0.457122
0.457141
0.457161
0.457161
0.45718
0.4572
0.457219
0.457239
0.457239
0.457258
0.457278
0.457298
0.457317
0.457317
0.457337
0.457357
0.457377
0.457396
0.457396
0.457416
0.457436
0.457456
0.457476
0.457476
0.457496
0.457516
0.457536
0.457556
0.457556
0.457576
0.457596
0.457617
0.457637
0.457637
0.457657
0.457677
0.457698
0.457718
0.457718
0.457738
0.457759
0.457779
0.4578
0.4578
0.45782
0.457841
0.457861
0.457882
0.457882
0.457903
0.457923
0.457944
0.457965
0.457965
0.457986
0.458006
0.458027
0.458048
0.458048
0.458069
0.45809
0.458111
0.458132
0.458132
0.458153
0.458174
0.458195
0.458217
0.458217
0.458238
0.458259
0.45828
0.458302
0.458302
0.458323
0.458344
0.458366
0.458387
0.458387
0.458409
0.45843
0.458452
0.458473
0.458473
0.458495
0.458516
0.458538
0.45856
0.45856
0.458581
0.458603
0.458625
0.458647
0.458647
0.458669
0.458691
0.458713
0.458735
0.458735
0.458757
0.458779
0.458801
0.458823
0.458823
0.458845
0.458867
0.458889
0.458912
0.458912
0.458934
0.458956
0.458978
0.459001
0.459001
0.459023
0.459046
0.459068
0.459091
0.459091
0.459113
0.459136
0.459158
0.459181
0.459181
0.459204
0.459226
0.459249
0.459272
0.459272
0.459295
0.459318
0.45934
0.459363
0.459363
0.459386
0.459409
0.459432
0.459455
0.459455
0.459478
0.459502
0.459525
0.459548
0.459548
0.459571
0.459594
0.459618
0.459641
0.459641
0.459664
0.459688
0.459711
0.459735
0.459735
0.459758
0.459782
0.459805
0.459829
0.459829
0.459852
0.459876
0.4599
0.459923
0.459923
0.459947
0.459971
0.459995
0.460019
0.460019
0.460043
0.460067
0.460091
0.460115
0.460115
0.460139
0.460163
0.460187
0.460211
0.460211
0.460235
0.460259
0.460283
0.460308
0.460308
0.460332
0.460356
0.460381
0.460405
0.460405
0.46043
0.460454
0.460479
0.460503
0.460503
0.460528
0.460552
0.460577
0.460602
0.460602
0.460626
0.460651
0.460676
0.460701
0.460701
0.460725
0.46075
0.460775
0.4608
0.4608
0.460825
0.46085
0.460875
0.4609
0.4609
0.460925
0.460951
0.460976
0.461001
0.461001
0.461026
0.461052
0.461077
0.461102
0.461102
0.461128
0.461153
0.461178
0.461204
0.461204
0.461229
0.461255
0.461281
0.461306
0.461306
0.461332
0.461358
0.461383
0.461409
0.461409
0.461435
0.461461
0.461487
0.461512
0.461512
0.461538
0.461564
0.46159
0.461616
0.461616
0.461642
0.461669
0.461695
0.461721
0.461721
0.461747
0.461773
0.4618
0.461826
0.461826
0.461852
0.461879
0.461905
0.461931
0.461931
0.461958
0.461984
0.462011
0.462038
0.462038
0.462064
0.462091
0.462118
0.462144
0.462144
0.462171
0.462198
0.462225
0.462251
0.462251
0.462278
0.462305
0.462332
0.462359
0.462359
0.462386
0.462413
0.46244
0.462468
0.462468
0.462495
0.462522
0.462549
0.462576
0.462576
0.462604
0.462631
0.462658
0.462686
0.462686
0.462713
0.462741
0.462768
0.462796
0.462796
0.462823
0.462851
0.462879
0.462906
0.462906
0.462934
0.462962
0.462989
0.463017
0.463017
0.463045
0.463073
0.463101
0.463129
0.463129
0.463157
0.463185
0.463213
0.463241
0.463241
0.463269
0.463297
0.463325
0.463354
0.463354
0.463382
0.46341
0.463438
0.463467
0.463467
0.463495
0.463524
0.463552
0.463581
0.463581
0.463609
0.463638
0.463666
0.463695
0.463695
0.463724
0.463752
0.463781
0.46381
0.46381
0.463839
0.463867
0.463896
0.463925
0.463925
0.463954
0.463983
0.464012
0.464041
0.464041
0.46407
0.464099
0.464129
0.464158
0.464158
0.464187
0.464216
0.464245
0.464275
0.464275
0.464304
0.464334
0.464363
0.464392
0.464392
0.464422
0.464451
0.464481
0.464511
0.464511
0.46454
0.46457
0.4646
0.464629
0.464629
0.464659
0.464689
0.464719
0.464749
0.464749
0.464779
0.464808
0.464838
0.464868
0.464868
0.464898
0.464929
0.464959
0.464989
0.464989
0.465019
0.465049
0.465079
0.46511
0.46511
0.46514
0.46517
0.465201
0.465231
0.465231
0.465262
0.465292
0.465323
0.465353
0.465353
0.465384
0.465414
0.465445
0.465476
0.465476
0.465507
0.465537
0.465568
0.465599
0.465599
0.46563
0.465661
0.465692
0.465723
0.465723
0.465754
0.465785
0.465816
0.465847
0.465847
0.465878
0.465909
0.46594
0.465972
0.465972
0.466003
0.466034
0.466066
0.466097
0.466097
0.466129
0.46616
0.466191
0.466223
0.466223
0.466255
0.466286
0.466318
0.466349
0.466349
0.466381
0.466413
0.466445
0.466476
0.466476
0.466508
0.46654
0.466572
0.466604
0.466604
0.466636
0.466668
0.4667
0.466732
0.466732
0.466764
0.466796
0.466829
0.466861
0.466861
0.466893
0.466925
0.466958
0.46699
0.46699
0.467022
0.467055
0.467087
0.46712
0.46712
0.467152
0.467185
0.467218
0.46725
0.46725
0.467283
0.467316
0.467348
0.467381
0.467381
0.467414
0.467447
0.46748
0.467513
0.467513
0.467546
0.467579
0.467612
0.467645
0.467645
0.467678
0.467711
0.467744
0.467777
0.467777
0.46781
0.467844
0.467877
0.46791
0.46791
0.467944
0.467977
0.468011
0.468044
0.468044
0.468078
0.468111
0.468145
0.468178
0.468178
0.468212
0.468246
0.468279
0.468313
0.468313
0.468347
0.468381
0.468415
0.468448
0.468448
0.468482
0.468516
0.46855
0.468584
0.468584
0.468618
0.468653
0.468687
0.468721
0.468721
0.468755
0.468789
0.468824
0.468858
0.468858
0.468892
0.468927
0.468961
0.468996
0.468996
0.46903
0.469065
0.469099
0.469134
0.469134
0.469168
0.469203
0.469238
0.469272
0.469272
0.469307
0.469342
0.469377
0.469412
0.469412
0.469447
0.469482
0.469517
0.469552
0.469552
0.469587
0.469622
0.469657
0.469692
0.469692
0.469727
0.469762
0.469798
0.469833
0.469833
0.469868
0.469904
0.469939
0.469975
0.469975
0.47001
0.470045
0.470081
0.470117
0.470117
0.470152
0.470188
0.470224
0.470259
0.470259
0.470295
0.470331
0.470367
0.470402
0.470402
0.470438
0.470474
0.47051
0.470546
0.470546
0.470582
0.470618
0.470654
0.470691
0.470691
0.470727
0.470763
0.470799
0.470836
0.470836
0.470872
0.470908
0.470945
0.470981
0.470981
0.471017
0.471054
0.47109
0.471127
0.471127
0.471164
0.4712
0.471237
0.471274
0.471274
0.47131
0.471347
0.471384
0.471421
0.471421
0.471458
0.471495
0.471532
0.471569
0.471569
0.471606
0.471643
0.47168
0.471717
0.471717
0.471754
0.471791
0.471828
0.471866
0.471866
0.471903
0.47194
0.471978
0.472015
0.472015
0.472053
0.47209
0.472128
0.472165
0.472165
0.472203
0.47224
0.472278
0.472316
0.472316
0.472353
0.472391
0.472429
0.472467
0.472467
0.472505
0.472543
0.472581
0.472619
0.472619
0.472657
0.472695
0.472733
0.472771
0.472771
0.472809
0.472847
0.472885
0.472924
0.472924
0.472962
0.473
0.473039
0.473077
0.473077
0.473116
0.473154
0.473193
0.473231
0.473231
0.47327
0.473308
0.473347
0.473386
0.473386
0.473424
0.473463
0.473502
0.473541
0.473541
0.47358
0.473618
0.473657
0.473696
0.473696
0.473735
0.473774
0.473814
0.473853
0.473853
0.473892
0.473931
0.47397
0.474009
0.474009
0.474049
0.474088
0.474127
0.474167
0.474167
0.474206
0.474246
0.474285
0.474325
0.474325
0.474364
0.474404
0.474444
0.474483
0.474483
0.474523
0.474563
0.474603
0.474642
0.474642
0.474682
0.474722
0.474762
0.474802
0.474802
0.474842
0.474882
0.474922
0.474962
0.474962
0.475003
0.475043
0.475083
0.475123
0.475123
0.475164
0.475204
0.475244
0.475285
0.475285
0.475325
0.475366
0.475406
0.475447
0.475447
0.475487
0.475528
0.475568
0.475609
0.475609
0.47565
0.475691
0.475731
0.475772
0.475772
0.475813
0.475854
0.475895
0.475936
0.475936
0.475977
0.476018
0.476059
0.4761
0.4761
0.476141
0.476183
0.476224
0.476265
0.476265
0.476306
0.476348
0.476389
0.476431
0.476431
0.476472
0.476513
0.476555
0.476597
0.476597
0.476638
0.47668
0.476721
0.476763
0.476763
0.476805
0.476847
0.476888
0.47693
0.47693
0.476972
0.477014
0.477056
0.477098
0.477098
0.47714
0.477182
0.477224
0.477266
0.477266
0.477308
0.477351
0.477393
0.477435
0.477435
0.477477
0.47752
0.477562
0.477605
0.477605
0.477647
0.47769
0.477732
0.477775
0.477775
0.477817
0.47786
0.477903
0.477945
0.477945
0.477988
0.478031
0.478074
0.478116
0.478116
0.478159
0.478202
0.478245
0.478288
0.478288
0.478331
0.478374
0.478417
0.478461
0.478461
0.478504
0.478547
0.47859
0.478634
0.478634
0.478677
0.47872
0.478764
0.478807
0.478807
0.478851
0.478894
0.478938
0.478981
0.478981
0.479025
0.479068
0.479112
0.479156
0.479156
0.4792
0.479243
0.479287
0.479331
0.479331
0.479375
0.479419
0.479463
0.479507
0.479507
0.479551
0.479595
0.479639
0.479683
0.479683
0.479728
0.479772
0.479816
0.47986
0.47986
0.479905
0.479949
0.479994
0.480038
0.480038
0.480083
0.480127
0.480172
0.480216
0.480216
0.480261
0.480306
0.48035
0.480395
0.480395
0.48044
0.480485
0.480529
0.480574
0.480574
0.480619
0.480664
0.480709
0.480754
0.480754
0.480799
0.480844
0.48089
0.480935
0.480935
0.48098
0.481025
0.481071
0.481116
0.481116
0.481161
0.481207
0.481252
0.481298
0.481298
0.481343
0.481389
0.481434
0.48148
0.48148
0.481526
0.481571
0.481617
0.481663
0.481663
0.481709
0.481754
0.4818
0.481846
0.481846
0.481892
0.481938
0.481984
0.48203
0.48203
0.482076
0.482122
0.482169
0.482215
0.482215
0.482261
0.482307
0.482354
0.4824
0.4824
0.482447
0.482493
0.482539
0.482586
0.482586
0.482632
0.482679
0.482726
0.482772
0.482772
0.482819
0.482866
0.482913
0.482959
0.482959
0.483006
0.483053
0.4831
0.483147
0.483147
0.483194
0.483241
0.483288
0.483335
0.483335
0.483382
0.483429
0.483477
0.483524
0.483524
0.483571
0.483618
0.483666
0.483713
0.483713
0.483761
0.483808
0.483856
0.483903
0.483903
0.483951
0.483998
0.484046
0.484094
0.484094
0.484141
0.484189
0.484237
0.484285
0.484285
0.484333
0.484381
0.484429
0.484477
0.484477
0.484525
0.484573
0.484621
0.484669
0.484669
0.484717
0.484765
0.484814
0.484862
0.484862
0.48491
0.484958
0.485007
0.485055
0.485055
0.485104
0.485152
0.485201
0.485249
0.485249
0.485298
0.485347
0.485395
0.485444
0.485444
0.485493
0.485542
0.485591
0.485639
0.485639
0.485688
0.485737
0.485786
0.485835
0.485835
0.485884
0.485933
0.485983
0.486032
0.486032
0.486081
0.48613
0.48618
0.486229
0.486229
0.486278
0.486328
0.486377
0.486427
0.486427
0.486476
0.486526
0.486575
0.486625
0.486625
0.486675
0.486724
0.486774
0.486824
0.486824
0.486874
0.486923
0.486973
0.487023
0.487023
0.487073
0.487123
0.487173
0.487223
0.487223
0.487273
0.487324
0.487374
0.487424
0.487424
0.487474
0.487525
0.487575
0.487625
0.487625
0.487676
0.487726
0.487777
0.487827
0.487827
0.487878
0.487928
0.487979
0.48803
0.48803
0.48808
0.488131
0.488182
0.488233
0.488233
0.488284
0.488335
0.488385
0.488436
0.488436
0.488487
0.488539
0.48859
0.488641
0.488641
0.488692
0.488743
0.488794
0.488846
0.488846
0.488897
0.488948
0.489
0.489051
0.489051
0.489103
0.489154
0.489206
0.489257
0.489257
0.489309
0.489361
0.489412
0.489464
0.489464
0.489516
0.489568
0.489619
0.489671
0.489671
0.489723
0.489775
0.489827
0.489879
0.489879
0.489931
0.489983
0.490036
0.490088
0.490088
0.49014
0.490192
0.490245
0.490297
0.490297
0.490349
0.490402
0.490454
0.490507
0.490507
0.490559
0.490612
0.490664
0.490717
0.490717
0.49077
0.490822
0.490875
0.490928
0.490928
0.490981
0.491034
0.491087
0.49114
0.49114
0.491193
0.491246
0.491299
0.491352
0.491352
0.491405
0.491458
0.491511
0.491565
0.491565
0.491618
0.491671
0.491725
0.491778
0.491778
0.491831
0.491885
0.491938
0.491992
0.491992
0.492046
0.492099
0.492153
0.492207
0.492207
0.49226
0.492314
0.492368
0.492422
0.492422
0.492476
0.49253
0.492584
0.492638
0.492638
0.492692
0.492746
0.4928
0.492854
0.492854
0.492908
0.492963
0.493017
0.493071
0.493071
0.493126
0.49318
0.493234
0.493289
0.493289
0.493343
0.493398
0.493453
0.493507
0.493507
0.493562
0.493617
0.493671
0.493726
0.493726
0.493781
0.493836
0.493891
0.493946
0.493946
0.494001
0.494056
0.494111
0.494166
0.494166
0.494221
0.494276
0.494331
0.494387
0.494387
0.494442
0.494497
0.494553
0.494608
0.494608
0.494663
0.494719
0.494774
0.49483
0.49483
0.494886
0.494941
0.494997
0.495053
0.495053
0.495108
0.495164
0.49522
0.495276
0.495276
0.495332
0.495388
0.495444
0.4955
0.4955
0.495556
0.495612
0.495668
0.495724
0.495724
0.49578
0.495837
0.495893
0.495949
0.495949
0.496006
0.496062
0.496119
0.496175
0.496175
0.496232
0.496288
0.496345
0.496401
0.496401
0.496458
0.496515
0.496572
0.496628
0.496628
0.496685
0.496742
0.496799
0.496856
0.496856
0.496913
0.49697
0.497027
0.497084
0.497084
0.497141
0.497199
0.497256
0.497313
0.497313
0.49737
0.497428
0.497485
0.497542
0.497542
0.4976
0.497657
0.497715
0.497773
0.497773
0.49783
0.497888
0.497946
0.498003
0.498003
0.498061
0.498119
0.498177
0.498235
0.498235
0.498293
0.498351
0.498409
0.498467
0.498467
0.498525
0.498583
0.498641
0.498699
0.498699
0.498757
0.498816
0.498874
0.498932
0.498932
0.498991
0.499049
0.499108
0.499166
0.499166
0.499225
0.499283
0.499342
0.499401
0.499401
0.499459
0.499518
0.499577
0.499636
0.499636
0.499695
0.499754
0.499813
0.499872
0.499872
0.499931
0.49999
0.500049
0.500108
0.500108
0.500167
0.500226
0.500286
0.500345
0.500345
0.500404
0.500464
0.500523
0.500583
0.500583
0.500642
0.500702
0.500761
0.500821
0.500821
0.50088
0.50094
0.501
0.50106
0.50106
0.50112
0.501179
0.501239
0.501299
0.501299
0.501359
0.501419
0.501479
0.501539
0.501539
0.5016
0.50166
0.50172
0.50178
0.50178
0.50184
0.501901
0.501961
0.502022
0.502022
0.502082
0.502143
0.502203
0.502264
0.502264
0.502324
0.502385
0.502446
0.502506
0.502506
0.502567
0.502628
0.502689
0.50275
0.50275
0.502811
0.502872
0.502933
0.502994
0.502994
0.503055
0.503116
0.503177
0.503238
0.503238
0.5033
0.503361
0.503422
0.503484
0.503484
0.503545
0.503606
0.503668
0.503729
0.503729
0.503791
0.503853
0.503914
0.503976
0.503976
0.504038
0.5041
0.504161
0.504223
0.504223
0.504285
0.504347
0.504409
0.504471
0.504471
0.504533
0.504595
0.504657
0.504719
0.504719
0.504782
0.504844
0.504906
0.504969
0.504969
0.505031
0.505093
0.505156
0.505218
0.505218
0.505281
0.505343
0.505406
0.505469
0.505469
0.505531
0.505594
0.505657
0.50572
0.50572
0.505783
0.505846
0.505908
0.505971
0.505971
0.506034
0.506098
0.506161
0.506224
0.506224
0.506287
0.50635
0.506413
0.506477
0.506477
0.50654
0.506603
0.506667
0.50673
0.50673
0.506794
0.506857
0.506921
0.506985
0.506985
0.507048
0.507112
0.507176
0.50724
0.50724
0.507303
0.507367
0.507431
0.507495
0.507495
0.507559
0.507623
0.507687
0.507751
0.507751
0.507815
0.50788
0.507944
0.508008
0.508008
0.508072
0.508137
0.508201
0.508266
0.508266
0.50833
0.508395
0.508459
0.508524
0.508524
0.508589
0.508653
0.508718
0.508783
0.508783
0.508847
0.508912
0.508977
0.509042
0.509042
0.509107
0.509172
0.509237
0.509302
0.509302
0.509367
0.509433
0.509498
0.509563
0.509563
0.509628
0.509694
0.509759
0.509824
0.509824
0.50989
0.509955
0.510021
0.510087
0.510087
0.510152
0.510218
0.510284
0.510349
0.510349
0.510415
0.510481
0.510547
0.510613
0.510613
0.510679
0.510745
0.510811
0.510877
0.510877
0.510943
0.511009
0.511075
0.511142
0.511142
0.511208
0.511274
0.511341
0.511407
0.511407
0.511473
0.51154
0.511606
0.511673
0.511673
0.51174
0.511806
0.511873
0.51194
0.51194
0.512006
0.512073
0.51214
0.512207
0.512207
0.512274
0.512341
0.512408
0.512475
0.512475
0.512542
0.512609
0.512676
0.512744
0.512744
0.512811
0.512878
0.512946
0.513013
0.513013
0.513081
0.513148
0.513216
0.513283
0.513283
0.513351
0.513418
0.513486
0.513554
0.513554
0.513622
0.513689
0.513757
0.513825
0.513825
0.513893
0.513961
0.514029
0.514097
0.514097
0.514165
0.514233
0.514302
0.51437
0.51437
0.514438
0.514506
0.514575
0.514643
0.514643
0.514712
0.51478
0.514849
0.514917
0.514917
0.514986
0.515054
0.515123
0.515192
0.515192
0.515261
0.515329
0.515398
0.515467
0.515467
0.515536
0.515605
0.515674
0.515743
0.515743
0.515812
0.515881
0.515951
0.51602
0.51602
0.516089
0.516159
0.516228
0.516297
0.516297
0.516367
0.516436
0.516506
0.516575
0.516575
0.516645
0.516715
0.516784
0.516854
0.516854
0.516924
0.516994
0.517064
0.517133
0.517133
0.517203
0.517273
0.517343
0.517413
0.517413
0.517484
0.517554
0.517624
0.517694
0.517694
0.517765
0.517835
0.517905
0.517976
0.517976
0.518046
0.518117
0.518187
0.518258
0.518258
0.518328
0.518399
0.51847
0.51854
0.51854
0.518611
0.518682
0.518753
0.518824
0.518824
0.518895
0.518966
0.519037
0.519108
0.519108
0.519179
0.51925
0.519322
0.519393
0.519393
0.519464
0.519536
0.519607
0.519678
0.519678
0.51975
0.519821
0.519893
0.519965
0.519965
0.520036
0.520108
0.52018
0.520251
0.520251
0.520323
0.520395
0.520467
0.520539
0.520539
0.520611
0.520683
0.520755
0.520827
0.520827
0.520899
0.520972
0.521044
0.521116
0.521116
0.521188
0.521261
0.521333
0.521406
0.521406
0.521478
0.521551
0.521623
0.521696
0.521696
0.521769
0.521841
0.521914
0.521987
0.521987
0.52206
0.522133
0.522206
0.522279
0.522279
0.522352
0.522425
0.522498
0.522571
0.522571
0.522644
0.522717
0.522791
0.522864
0.522864
0.522937
0.523011
0.523084
0.523158
0.523158
0.523231
0.523305
0.523378
0.523452
0.523452
0.523526
0.5236
0.523673
0.523747
0.523747
0.523821
0.523895
0.523969
0.524043
0.524043
0.524117
0.524191
0.524265
0.524339
0.524339
0.524414
0.524488
0.524562
0.524637
0.524637
0.524711
0.524785
0.52486
0.524935
0.524935
0.525009
0.525084
0.525158
0.525233
0.525233
0.525308
0.525383
0.525457
0.525532
0.525532
0.525607
0.525682
0.525757
0.525832
0.525832
0.525907
0.525983
0.526058
0.526133
0.526133
0.526208
0.526284
0.526359
0.526434
0.526434
0.52651
0.526585
0.526661
0.526736
0.526736
0.526812
0.526888
0.526963
0.527039
0.527039
0.527115
0.527191
0.527267
0.527343
0.527343
0.527419
0.527495
0.527571
0.527647
0.527647
0.527723
0.527799
0.527875
0.527952
0.527952
0.528028
0.528104
0.528181
0.528257
0.528257
0.528334
0.52841
0.528487
0.528564
0.528564
0.52864
0.528717
0.528794
0.528871
0.528871
0.528947
0.529024
0.529101
0.529178
0.529178
0.529255
0.529332
0.52941
0.529487
0.529487
0.529564
0.529641
0.529718
0.529796
0.529796
0.529873
0.529951
0.530028
0.530106
0.530106
0.530183
0.530261
0.530339
0.530416
0.530416
0.530494
0.530572
0.53065
0.530727
0.530727
0.530805
0.530883
0.530961
0.531039
0.531039
0.531118
0.531196
0.531274
0.531352
0.531352
0.53143
0.531509
0.531587
0.531666
0.531666
0.531744
0.531822
0.531901
0.53198
0.53198
0.532058
0.532137
0.532216
0.532294
0.532294
0.532373
0.532452
0.532531
0.53261
0.53261
0.532689
0.532768
0.532847
0.532926
0.532926
0.533005
0.533085
0.533164
0.533243
0.533243
0.533323
0.533402
0.533481
0.533561
0.533561
0.53364
0.53372
0.5338
0.533879
0.533879
0.533959
0.534039
0.534119
0.534198
0.534198
0.534278
0.534358
0.534438
0.534518
0.534518
0.534598
0.534679
0.534759
0.534839
0.534839
0.534919
0.534999
0.53508
0.53516
0.53516
0.535241
0.535321
0.535402
0.535482
0.535482
0.535563
0.535644
0.535724
0.535805
0.535805
0.535886
0.535967
0.536048
0.536128
0.536128
0.536209
0.536291
0.536372
0.536453
0.536453
0.536534
0.536615
0.536696
0.536778
0.536778
0.536859
0.53694
0.537022
0.537103
0.537103
0.537185
0.537266
0.537348
0.53743
0.53743
0.537511
0.537593
0.537675
0.537757
0.537757
0.537839
0.537921
0.538003
0.538085
0.538085
0.538167
0.538249
0.538331
0.538413
0.538413
0.538496
0.538578
0.53866
0.538743
0.538743
0.538825
0.538908
0.53899
0.539073
0.539073
0.539155
0.539238
0.539321
0.539404
0.539404
0.539486
0.539569
0.539652
0.539735
0.539735
0.539818
0.539901
0.539984
0.540067
0.540067
0.540151
0.540234
0.540317
0.5404
0.5404
0.540484
0.540567
0.540651
0.540734
0.540734
0.540818
0.540901
0.540985
0.541069
0.541069
0.541152
0.541236
0.54132
0.541404
0.541404
0.541488
0.541572
0.541656
0.54174
0.54174
0.541824
0.541908
0.541992
0.542077
0.542077
0.542161
0.542245
0.54233
0.542414
0.542414
0.542499
0.542583
0.542668
0.542752
0.542752
0.542837
0.542922
0.543006
0.543091
0.543091
0.543176
0.543261
0.543346
0.543431
0.543431
0.543516
0.543601
0.543686
0.543771
0.543771
0.543857
0.543942
0.544027
0.544113
0.544113
0.544198
0.544284
0.544369
0.544455
0.544455
0.54454
0.544626
0.544712
0.544797
0.544797
0.544883
0.544969
0.545055
0.545141
0.545141
0.545227
0.545313
0.545399
0.545485
0.545485
0.545571
0.545658
0.545744
0.54583
0.54583
0.545916
0.546003
0.546089
0.546176
0.546176
0.546262
0.546349
0.546436
0.546522
0.546522
0.546609
0.546696
0.546783
0.54687
0.54687
0.546957
0.547044
0.547131
0.547218
0.547218
0.547305
0.547392
0.547479
0.547566
0.547566
0.547654
0.547741
0.547829
0.547916
0.547916
0.548003
0.548091
0.548179
0.548266
0.548266
0.548354
0.548442
0.54853
0.548617
0.548617
0.548705
0.548793
0.548881
0.548969
0.548969
0.549057
0.549145
0.549234
0.549322
0.549322
0.54941
0.549498
0.549587
0.549675
0.549675
0.549764
0.549852
0.549941
0.550029
0.550029
0.550118
0.550207
0.550295
0.550384
0.550384
0.550473
0.550562
0.550651
0.55074
0.55074
0.550829
0.550918
0.551007
0.551096
0.551096
0.551186
0.551275
0.551364
0.551454
0.551454
0.551543
0.551632
0.551722
0.551812
0.551812
0.551901
0.551991
0.552081
0.55217
0.55217
0.55226
0.55235
0.55244
0.55253
0.55253
0.55262
0.55271
0.5528
0.55289
0.55289
0.55298
0.553071
0.553161
0.553251
0.553251
0.553342
0.553432
0.553523
0.553613
0.553613
0.553704
0.553794
0.553885
0.553976
0.553976
0.554067
0.554157
0.554248
0.554339
0.554339
0.55443
0.554521
0.554612
0.554704
0.554704
0.554795
0.554886
0.554977
0.555069
0.555069
0.55516
0.555251
0.555343
0.555434
0.555434
0.555526
0.555618
0.555709
0.555801
0.555801
0.555893
0.555985
0.556076
0.556168
0.556168
0.55626
0.556352
0.556444
0.556536
0.556536
0.556629
0.556721
0.556813
0.556905
0.556905
0.556998
0.55709
0.557183
0.557275
0.557275
0.557368
0.55746
0.557553
0.557646
0.557646
0.557738
0.557831
0.557924
0.558017
0.558017
0.55811
0.558203
0.558296
0.558389
0.558389
0.558482
0.558575
0.558669
0.558762
0.558762
0.558855
0.558949
0.559042
0.559135
0.559135
0.559229
0.559322
0.559415
0.559507
0.559507
0.5596
0.55969
0.559778
0.559865
0.559865
0.559946
0.560019
0.560084
0.560142
0.560142
0.560198
0.560253
0.560307
0.56036
0.56036
0.560413
0.560466
0.560519
0.560571
0.560571
0.560624
0.560674
0.560724
0.560772
0.560772
0.560817
0.560858
0.560895
0.560928
0.560928
0.560957
0.560985
0.56101
0.561034
0.561034
0.561058
0.56108
0.561103
0.561125
0.561125
0.561147
0.561168
0.561189
0.561208
0.561208
0.561227
0.561244
0.56126
0.561274
0.561274
0.561287
0.561299
0.561309
0.561318
0.561318
0.561326
0.561334
0.561341
0.561348
0.561348
0.561355
0.561362
0.561368
0.561374
0.561374
0.561379
0.561384
0.561389
0.561393
0.561393
0.561397
0.5614
0.561403
0.561406
0.561406
0.561408
0.56141
0.561412
0.561413
0.561413
0.561414
0.561415
0.561416
0.561417
0.561417
0.561418
0.561418
0.561419
0.561419
0.561419
0.561419
0.56142
0.56142
0.56142
0.56142
0.56142
0.56142
0.56142
0.56142
0.56142
0.56142
0.561419
0.561419
0.561419
0.561419
0.561418
0.561418
0.561417
0.561417
0.561417
0.561416
0.561416
0.561416
0.561415
0.561415
0.561415
0.561415
0.561414
0.561414
0.561414
0.561414
0.561413
0.561413
0.561412
0.561412
0.561412
0.561412
0.561411
0.561411
0.561411
0.561411
0.56141
0.56141
0.56141
0.56141
0.56141
0.561409
0.561409
0.561409
0.561409
0.561409
0.561409
0.561409
0.561409
0.561409
0.561409
0.561408
0.561408
0.561408
0.561408
0.561408
0.561408
0.561408
0.561408
0.561408
0.561408
0.561408
0.561408
0.561408
0.561408
0.561408
0.561408
0.561408
0.561408
0.561408
0.561408
0.561408
0.561408
0.561408
0.561408
0.561409
0.561409
0.561409
0.561409
0.561409
0.561409
0.561409
0.561409
0.561409
0.561409
0.56141
0.56141
0.56141
0.56141
0.56141
0.56141
0.56141
0.56141
0.561411
0.561411
0.561411
0.561411
0.561411
0.561411
0.561411
0.561411
0.561412
0.561412
0.561412
0.561412
0.561412
0.561412
0.561413
0.561413
0.561413
0.561413
0.561413
0.561413
0.561414
0.561414
0.561414
0.561414
0.561414
0.561414
0.561414
0.561415
0.561415
0.561415
0.561415
0.561415
0.561415
0.561416
0.561416
0.561416
0.561416
0.561416
0.561416
0.561417
0.561417
0.561417
0.561417
0.561417
0.561417
0.561418
0.561418
0.561418
0.561418
0.561418
0.561418
0.561418
0.561419
0.561419
0.561419
0.561419