<?xml version="1.0"?>
<VTKFile type="UnstructuredGrid" version="0.1" byte_order="LittleEndian">
<UnstructuredGrid>
<Piece NumberOfPoints="5000" NumberOfCells="4000">
<PointData Scalars="Reaction 0">
<DataArray type="Float32" Name="Reaction 0" format="ascii">
0.544925
0.544925
0.544925
0.544926
0.544926
0.544926
0.544926
0.544926
0.544927
0.544927
0.544927
0.544928
0.544929
0.544929
0.54493
0.54493
0.544931
0.544932
0.544933
0.544934
0.544934
0.544935
0.544936
0.544938
0.544939
0.544939
0.544941
0.544942
0.544944
0.544945
0.544945
0.544947
0.544949
0.54495
0.544952
0.544952
0.544954
0.544956
0.544959
0.544961
0.544961
0.544963
0.544965
0.544968
0.54497
0.54497
0.544973
0.544975
0.544978
0.544981
0.544981
0.544983
0.544986
0.544989
0.544992
0.544992
0.544995
0.544999
0.545002
0.545005
0.545005
0.545008
0.545012
0.545015
0.545019
0.545019
0.545023
0.545026
0.54503
0.545034
0.545034
0.545038
0.545042
0.545046
0.54505
0.54505
0.545054
0.545059
0.545063
0.545067
0.545067
0.545072
0.545076
0.545081
0.545086
0.545086
0.54509
0.545095
0.5451
0.545105
0.545105
0.54511
0.545115
0.54512
0.545126
0.545126
0.545131
0.545136
0.545142
0.545147
0.545147
0.545153
0.545158
0.545164
0.54517
0.54517
0.545176
0.545182
0.545188
0.545194
0.545194
0.5452
0.545206
0.545213
0.545219
0.545219
0.545225
0.545232
0.545238
0.545245
0.545245
0.545252
0.545258
0.545265
0.545272
0.545272
0.545279
0.545286
0.545293
0.545301
0.545301
0.545308
0.545315
0.545323
0.54533
0.54533
0.545338
0.545345
0.545353
0.545361
0.545361
0.545368
0.545376
0.545384
0.545392
0.545392
0.5454
0.545409
0.545417
0.545425
0.545425
0.545434
0.545442
0.545451
0.545459
0.545459
0.545468
0.545477
0.545485
0.545494
0.545494
0.545503
0.545512
0.545521
0.54553
0.54553
0.54554
0.545549
0.545558
0.545568
0.545568
0.545577
0.545587
0.545596
0.545606
0.545606
0.545616
0.545626
0.545636
0.545646
0.545646
0.545656
0.545666
0.545676
0.545686
0.545686
0.545697
0.545707
0.545718
0.545728
0.545728
0.545739
0.54575
0.54576
0.545771
0.545771
0.545782
0.545793
0.545804
0.545815
0.545815
0.545826
0.545838
0.545849
0.54586
0.54586
0.545872
0.545883
0.545895
0.545907
0.545907
0.545918
0.54593
0.545942
0.545954
0.545954
0.545966
0.545978
0.545991
0.546003
0.546003
0.546015
0.546028
0.54604
0.546053
0.546053
0.546065
0.546078
0.546091
0.546103
0.546103
0.546116
0.546129
0.546142
0.546155
0.546155
0.546169
0.546182
0.546195
0.546209
0.546209
0.546222
0.546236
0.546249
0.546263
0.546263
0.546277
0.54629
0.546304
0.546318
0.546318
0.546332
0.546346
0.546361
0.546375
0.546375
0.546389
0.546403
0.546418
0.546432
0.546432
0.546447
0.546462
0.546476
0.546491
0.546491
0.546506
0.546521
0.546536
0.546551
0.546551
0.546566
0.546582
0.546597
0.546612
0.546612
0.546628
0.546643
0.546659
0.546675
0.546675
0.54669
0.546706
0.546722
0.546738
0.546738
0.546754
0.54677
0.546786
0.546803
0.546803
0.546819
0.546835
0.546852
0.546868
0.546868
0.546885
0.546902
0.546919
0.546935
0.546935
0.546952
0.546969
0.546986
0.547003
0.547003
0.547021
0.547038
0.547055
0.547073
0.547073
0.54709
0.547108
0.547125
0.547143
0.547143
0.547161
0.547179
0.547197
0.547215
0.547215
0.547233
0.547251
0.547269
0.547287
0.547287
0.547306
0.547324
0.547342
0.547361
0.547361
0.54738
0.547398
0.547417
0.547436
0.547436
0.547455
0.547474
0.547493
0.547512
0.547512
0.547532
0.547551
0.54757
0.54759
0.54759
0.547609
0.547629
0.547648
0.547668
0.547668
0.547688
0.547708
0.547728
0.547748
0.547748
0.547768
0.547788
0.547808
0.547829
0.547829
0.547849
0.54787
0.54789
0.547911
0.547911
0.547931
0.547952
0.547973
0.547994
0.547994
0.548015
0.548036
0.548057
0.548078
0.548078
0.5481
0.548121
0.548143
0.548164
0.548164
0.548186
0.548207
0.548229
0.548251
0.548251
0.548273
0.548295
0.548317
0.548339
0.548339
0.548361
0.548383
0.548406
0.548428
0.548428
0.54845
0.548473
0.548496
0.548518
0.548518
0.548541
0.548564
0.548587
0.54861
0.54861
0.548633
0.548656
0.548679
0.548703
0.548703
0.548726
0.548749
0.548773
0.548797
0.548797
0.54882
0.548844
0.548868
0.548892
0.548892
0.548916
0.54894
0.548964
0.548988
0.548988
0.549012
0.549037
0.549061
0.549086
0.549086
0.54911
0.549135
0.54916
0.549184
0.549184
0.549209
0.549234
0.549259
0.549284
0.549284
0.549309
0.549335
0.54936
0.549385
0.549385
0.549411
0.549437
0.549462
0.549488
0.549488
0.549514
0.54954
0.549565
0.549592
0.549592
0.549618
0.549644
0.54967
0.549696
0.549696
0.549723
0.549749
0.549776
0.549802
0.549802
0.549829
0.549856
0.549883
0.54991
0.54991
0.549937
0.549964
0.549991
0.550018
0.550018
0.550046
0.550073
0.5501
0.550128
0.550128
0.550156
0.550183
0.550211
0.550239
0.550239
0.550267
0.550295
0.550323
0.550351
0.550351
0.550379
0.550408
0.550436
0.550465
0.550465
0.550493
0.550522
0.550551
0.550579
0.550579
0.550608
0.550637
0.550666
0.550695
0.550695
0.550724
0.550754
0.550783
0.550812
0.550812
0.550842
0.550872
0.550901
0.550931
0.550931
0.550961
0.550991
0.551021
0.551051
0.551051
0.551081
0.551111
0.551141
0.551172
0.551172
0.551202
0.551233
0.551263
0.551294
0.551294
0.551325
0.551355
0.551386
0.551417
0.551417
0.551448
0.55148
0.551511
0.551542
0.551542
0.551573
0.551605
0.551636
0.551668
0.551668
0.5517
0.551732
0.551763
0.551795
0.551795
0.551827
0.55186
0.551892
0.551924
0.551924
0.551956
0.551989
0.552021
0.552054
0.552054
0.552087
0.552119
0.552152
0.552185
0.552185
0.552218
0.552251
0.552284
0.552317
0.552317
0.552351
0.552384
0.552418
0.552451
0.552451
0.552485
0.552518
0.552552
0.552586
0.552586
0.55262
0.552654
0.552688
0.552722
0.552722
0.552757
0.552791
0.552826
0.55286
0.55286
0.552895
0.552929
0.552964
0.552999
0.552999
0.553034
0.553069
0.553104
0.553139
0.553139
0.553175
0.55321
0.553245
0.553281
0.553281
0.553316
0.553352
0.553388
0.553424
0.553424
0.55346
0.553496
0.553532
0.553568
0.553568
0.553604
0.55364
0.553677
0.553713
0.553713
0.55375
0.553787
0.553823
0.55386
0.55386
0.553897
0.553934
0.553971
0.554008
0.554008
0.554046
0.554083
0.55412
0.554158
0.554158
0.554195
0.554233
0.554271
0.554309
0.554309
0.554347
0.554385
0.554423
0.554461
0.554461
0.554499
0.554538
0.554576
0.554614
0.554614
0.554653
0.554692
0.554731
0.554769
0.554769
0.554808
0.554847
0.554886
0.554926
0.554926
0.554965
0.555004
0.555044
0.555083
0.555083
0.555123
0.555163
0.555202
0.555242
0.555242
0.555282
0.555322
0.555362
0.555403
0.555403
0.555443
0.555483
0.555524
0.555564
0.555564
0.555605
0.555646
0.555687
0.555727
0.555727
0.555768
0.55581
0.555851
0.555892
0.555892
0.555933
0.555975
0.556016
0.556058
0.556058
0.5561
0.556141
0.556183
0.556225
0.556225
0.556267
0.556309
0.556352
0.556394
0.556394
0.556436
0.556479
0.556521
0.556564
0.556564
0.556607
0.556649
0.556692
0.556735
0.556735
0.556778
0.556822
0.556865
0.556908
0.556908
0.556952
0.556995
0.557039
0.557083
0.557083
0.557126
0.55717
0.557214
0.557258
0.557258
0.557303
0.557347
0.557391
0.557436
0.557436
0.55748
0.557525
0.557569
0.557614
0.557614
0.557659
0.557704
0.557749
0.557794
0.557794
0.557839
0.557885
0.55793
0.557976
0.557976
0.558021
0.558067
0.558113
0.558159
0.558159
0.558205
0.558251
0.558297
0.558343
0.558343
0.558389
0.558436
0.558482
0.558529
0.558529
0.558576
0.558622
0.558669
0.558716
0.558716
0.558763
0.558811
0.558858
0.558905
0.558905
0.558953
0.559
0.559048
0.559095
0.559095
0.559143
0.559191
0.559239
0.559287
0.559287
0.559335
0.559384
0.559432
0.55948
0.55948
0.559529
0.559577
0.559626
0.559674
0.559674
0.559723
0.559771
0.559819
0.559866
0.559866
0.559912
0.559955
0.559995
0.560031
0.560031
0.560062
0.560093
0.560123
0.560151
0.560151
0.56018
0.560208
0.560237
0.560265
0.560265
0.560294
0.560322
0.560351
0.560379
0.560379
0.560408
0.560437
0.560466
0.560495
0.560495
0.560523
0.560552
0.560581
0.56061
0.56061
0.560639
0.560668
0.560698
0.560727
0.560727
0.560756
0.560785
0.560815
0.560844
0.560844
0.560873
0.560903
0.560932
0.560962
0.560962
0.560991
0.561021
0.56105
0.56108
0.56108
0.56111
0.56114
0.561169
0.561199
0.561199
0.561229
0.561259
0.561289
0.561319
0.561319
0.561349
0.561379
0.561409
0.561439
0.561439
0.561469
0.561498
0.561528
0.561558
0.561558
0.561587
0.561615
0.561643
0.56167
0.56167
0.561695
0.561717
0.561737
0.561755
0.561755
0.561771
0.561786
0.561801
0.561815
0.561815
0.561828
0.561842
0.561855
0.561869
0.561869
0.561882
0.561895
0.561909
0.561922
0.561922
0.561935
0.561949
0.561962
0.561975
0.561975
0.561989
0.562002
0.562015
0.562029
0.562029
0.562042
0.562055
0.562069
0.562082
0.562082
0.562095
0.562109
0.562122
0.562135
0.562135
0.562149
0.562162
0.562175
0.562188
0.562188
0.562202
0.562215
0.562228
0.562242
0.562242
0.562255
0.562268
0.562282
0.562295
0.562295
0.562308
0.562321
0.562335
0.562348
0.562348
0.562361
0.562373
0.562386
0.562398
0.562398
0.56241
0.562421
0.562432
0.562441
0.562441
0.56245
0.562458
0.562465
0.562472
0.562472
0.562478
0.562483
0.562488
0.562493
0.562493
0.562497
0.562502
0.562506
0.56251
0.56251
0.562515
0.562519
0.562523
0.562528
0.562528
0.562532
0.562536
0.56254
0.562544
0.562544
0.562549
0.562553
0.562557
0.562561
0.562561
0.562565
0.562569
0.562574
0.562578
0.562578
0.562582
0.562586
0.56259
0.562594
0.562594
0.562598
0.562602
0.562606
0.56261
0.56261
0.562614
0.562618
0.562622
0.562626
0.562626
0.56263
0.562634
0.562638
0.562642
0.562642
0.562646
0.562649
0.562653
0.562656
0.562656
0.562659
0.562662
0.562664
0.562666
0.562666
0.562668
0.56267
0.562672
0.562673
0.562673
0.562674
0.562675
0.562676
0.562677
0.562677
0.562677
0.562678
0.562678
0.562679
0.562679
0.562679
0.56268
0.56268
0.56268
0.56268
0.562681
0.562681
0.562681
0.562682
0.562682
0.562682
0.562682
0.562683
0.562683
0.562683
0.562683
0.562684
0.562684
0.562684
0.562684
0.562685
0.562685
0.562685
0.562686
0.562686
0.562686
0.562686
0.562686
0.562687
0.562687
0.562687
0.562687
0.562687
0.562687
0.562687
0.562687
0.562687
0.562687
0.562687
0.562687
0.562687
0.562687
0.562687
0.562687
0.562687
0.562686
0.562686
0.562686
0.562685
0.562685
0.562685
0.562685
0.562684
0.562684
0.562684
0.562683
0.562682
0.562682
0.562681
0.562681
0.56268
0.56268
0.562679
0.562678
0.562678
0.562677
0.562677
0.562676
0.562675
0.562675
0.562674
0.562674
0.562673
0.562672
0.562672
0.562671
0.562671
0.56267
0.562669
0.562669
0.562668
0.562668
0.562667
0.562666
0.562666
0.562665
0.562665
0.562664
0.562663
0.562663
0.562662
0.562661
0.56266
0.56266
0.56266
0.562659
0.562658
0.562657
0.562656
0.562656
0.562655
0.562654
0.562654
0.562653
0.562653
0.562652
0.562652
0.562651
0.56265
0.56265
0.562649
0.562649
0.562648
0.562647
0.562647
0.562646
0.562646
0.562645
0.562644
0.562644
0.562643
0.562642
0.562642
0.562641
0.562641
0.56264
0.562639
0.562638
0.562638
0.562638
0.562637
0.562636
0.562635
0.562634
0.562634
0.562634
0.562633
0.562632
0.562631
0.562631
0.56263
0.56263
0.562629
0.562628
0.562628
0.562627
0.562626
0.562626
0.562625
0.562625
0.562624
0.562623
0.562622
0.562622
0.562622
0.562621
0.56262
0.562619
0.562619
0.562619
0.562618
0.562617
0.562617
0.562616
0.562616
0.562616
0.562615
0.562614
0.562614
0.562614
0.562613
0.562613
0.562612
0.562611
0.562611
0.562611
0.56261
0.562609
0.562609
0.562609
0.562608
0.562608
0.562607
0.562606
0.562606
0.562606
0.562605
0.562605
0.562604
0.562604
0.562603
0.562603
0.562602
0.562601
0.562601
0.562601
0.5626
0.5626
0.562599
0.562599
0.562598
0.562598
0.562597
0.562597
0.562597
0.562596
0.562595
0.562595
0.562594
0.562594
0.562594
0.562593
0.562593
0.562592
0.562592
0.562592
0.562591
0.562591
0.56259
0.56259
0.56259
0.56259
0.562589
0.562589
0.562589
0.562588
0.562588
0.562587
0.562587
0.562587
0.562586
0.562586
0.562585
0.562585
0.562585
0.562585
0.562584
0.562584
0.562583
0.562583
0.562583
0.562582
0.562582
0.562581
0.562581
0.562581
0.56258
0.56258
0.56258
0.56258
0.562579
0.562579
0.562578
0.562578
0.562578
0.562577
0.562577
0.562577
0.562576
0.562576
0.562576
0.562575
0.562575
0.562575
0.562575
0.562574
0.562574
0.562573
0.562573
0.562573
0.562573
0.562572
0.562572
0.562572
0.562572
0.562571
0.562571
0.562571
0.56257
0.56257
0.56257
0.562569
0.562569
0.562569
0.562569
0.562568
0.562568
0.562568
0.562567
0.562567
0.562567
0.562567
0.562566
0.562566
0.562566
0.562566
0.562565
0.562565
0.562565
0.562565
0.562564
0.562564
0.562563
0.562563
0.562563
0.562563
0.562562
0.562562
0.562562
0.562562
0.562561
0.562561
0.562561
0.56256
0.56256
0.56256
0.56256
0.56256
0.562559
0.562559
0.562559
0.562559
0.562558
0.562558
0.562558
0.562558
0.562557
0.562557
0.562557
0.562557
0.562556
0.562556
0.562556
0.562555
0.562555
0.562555
0.562555
0.562555
0.562554
0.562554
0.562554
0.562554
0.562553
0.562553
0.562553
0.562553
0.562552
0.562552
0.562552
0.562552
0.562551
0.562551
0.562551
0.562551
0.562551
0.56255
0.56255
0.56255
0.562549
0.562549
0.562549
0.562549
0.562549
0.562548
0.562548
0.562548
0.562548
0.562547
0.562547
0.562547
0.562547
0.562547
0.562546
0.562546
0.562546
0.562546
0.562545
0.562545
0.562545
0.562545
0.562545
0.562544
0.562544
0.562544
0.562544
0.562543
0.562543
0.562543
0.562543
0.562543
0.562542
0.562542
0.562542
0.562541
0.562541
0.562541
0.562541
0.562541
0.56254
0.56254
0.56254
0.56254
0.562539
0.562539
0.562539
0.562539
0.562539
0.562538
0.562538
0.562538
0.562538
0.562538
0.562537
0.562537
0.562537
0.562537
0.562536
0.562536
0.562536
0.562536
0.562536
0.562535
0.562535
0.562535
0.562535
0.562535
0.562534
0.562534
0.562534
0.562534
0.562533
0.562533
0.562533
0.562533
0.562533
0.562532
0.562532
0.562532
0.562532
0.562532
0.562531
0.562531
0.562531
0.562531
0.562531
0.56253
0.56253
0.56253
0.562529
0.562529
0.562529
0.562529
0.562529
0.562528
0.562528
0.562528
0.562528
0.562528
0.562527
0.562527
0.562527
0.562527
0.562527
0.562526
0.562526
0.562526
0.562526
0.562526
0.562525
0.562525
0.562525
0.562525
0.562525
0.562524
0.562524
0.562524
0.562524
0.562524
0.562523
0.562523
0.562523
0.562523
0.562523
0.562522
0.562522
0.562522
0.562522
0.562522
0.562521
0.562521
0.562521
0.562521
0.562521
0.56252
0.56252
0.56252
0.56252
0.56252
0.562519
0.562519
0.562519
0.562519
0.562519
0.562518
0.562518
0.562518
0.562518
0.562518
0.562517
0.562517
0.562517
0.562517
0.562517
0.562516
0.562516
0.562516
0.562516
0.562516
0.562515
0.562515
0.562515
0.562515
0.562515
0.562514
0.562514
0.562514
0.562514
0.562514
0.562513
0.562513
0.562513
0.562513
0.562513
0.562512
0.562512
0.562512
0.562512
0.562512
0.562512
0.562512
0.562511
0.562511
0.562511
0.562511
0.562511
0.56251
0.56251
0.56251
0.56251
0.56251
0.562509
0.562509
0.562509
0.562509
0.562509
0.562508
0.562508
0.562508
0.562508
0.562508
0.562508
0.562507
0.562507
0.562507
0.562507
0.562507
0.562506
0.562506
0.562506
0.562506
0.562506
0.562505
0.562505
0.562505
0.562505
0.562505
0.562505
0.562504
0.562504
0.562504
0.562504
0.562504
0.562503
0.562503
0.562503
0.562503
0.562503
0.562503
0.562502
0.562502
0.562502
0.562502
0.562502
0.562501
0.562501
0.562501
0.562501
0.562501
0.562501
0.562501
0.5625
0.5625
0.5625
0.5625
0.5625
0.562499
0.562499
0.562499
0.562499
0.562499
0.562499
0.562498
0.562498
0.562498
0.562498
0.562498
0.562498
0.562497
0.562497
0.562497
0.562497
0.562497
0.562496
0.562496
0.562496
0.562496
0.562496
0.562496
0.562495
0.562495
0.562495
0.562495
0.562495
0.562495
0.562495
0.562494
0.562494
0.562494
0.562494
0.562494
0.562493
0.562493
0.562493
0.562493
0.562493
0.562493
0.562492
0.562492
0.562492
0.562492
0.562492
0.562492
0.562491
0.562491
0.562491
0.562491
0.562491
0.562491
0.56249
0.56249
0.56249
0.56249
0.56249
0.56249
0.56249
0.562489
0.562489
0.562489
0.562489
0.562489
0.562489
0.562488
0.562488
0.562488
0.562488
0.562488
0.562488
0.562487
0.562487
0.562487
0.562487
0.562487
0.562487
0.562486
0.562486
0.562486
0.562486
0.562486
0.562486
0.562486
0.562485
0.562485
0.562485
0.562485
0.562485
0.562485
0.562484
0.562484
0.562484
0.562484
0.562484
0.562484
0.562484
0.562483
0.562483
0.562483
0.562483
0.562483
0.562483
0.562483
0.562482
0.562482
0.562482
0.562482
0.562482
0.562482
0.562481
0.562481
0.562481
0.562481
0.562481
0.562481
0.562481
0.56248
0.56248
0.56248
0.56248
0.56248
0.56248
0.56248
0.562479
0.562479
0.562479
0.562479
0.562479
0.562479
0.562479
0.562478
0.562478
0.562478
0.562478
0.562478
0.562478
0.562477
0.562477
0.562477
0.562477
0.562477
0.562477
0.562477
0.562477
0.562476
0.562476
0.562476
0.562476
0.562476
0.562476
0.562475
0.562475
0.562475
0.562475
0.562475
0.562475
0.562475
0.562475
0.562474
0.562474
0.562474
0.562474
0.562474
0.562474
0.562474
0.562473
0.562473
0.562473
0.562473
0.562473
0.562473
0.562473
0.562473
0.562472
0.562472
0.562472
0.562472
0.562472
0.562472
0.562472
0.562471
0.562471
0.562471
0.562471
0.562471
0.562471
0.562471
0.562471
0.56247
0.56247
0.56247
0.56247
0.56247
0.56247
0.56247
0.562469
0.562469
0.562469
0.562469
0.562469
0.562469
0.562469
0.562469
0.562468
0.562468
0.562468
0.562468
0.562468
0.562468
0.562468
0.562468
0.562467
0.562467
0.562467
0.562467
0.562467
0.562467
0.562467
0.562467
0.562466
0.562466
0.562466
0.562466
0.562466
0.562466
0.562466
0.562465
0.562465
0.562465
0.562465
0.562465
0.562465
0.562465
0.562465
0.562465
0.562464
0.562464
0.562464
0.562464
0.562464
0.562464
0.562464
0.562464
0.562464
0.562463
0.562463
0.562463
0.562463
0.562463
0.562463
0.562463
0.562462
0.562462
0.562462
0.562462
0.562462
0.562462
0.562462
0.562462
0.562462
0.562461
0.562461
0.562461
0.562461
0.562461
0.562461
0.562461
0.562461
0.562461
0.56246
0.56246
0.56246
0.56246
0.56246
0.56246
0.56246
0.56246
0.56246
0.562459
0.562459
0.562459
0.562459
0.562459
0.562459
0.562459
0.562459
0.562458
0.562458
0.562458
0.562458
0.562458
0.562458
0.562458
0.562458
0.562458
0.562457
0.562457
0.562457
0.562457
0.562457
0.562457
0.562457
0.562457
0.562457
0.562457
0.562456
0.562456
0.562456
0.562456
0.562456
0.562456
0.562456
0.562456
0.562456
0.562456
0.562455
0.562455
0.562455
0.562455
0.562455
0.562455
0.562455
0.562455
0.562455
0.562454
0.562454
0.562454
0.562454
0.562454
0.562454
0.562454
0.562454
0.562454
0.562454
0.562453
0.562453
0.562453
0.562453
0.562453
0.562453
0.562453
0.562453
0.562453
0.562453
0.562453
0.562452
0.562452
0.562452
0.562452
0.562452
0.562452
0.562452
0.562452
0.562452
0.562452
0.562451
0.562451
0.562451
0.562451
0.562451
0.562451
0.562451
0.562451
0.562451
0.562451
0.56245
0.56245
0.56245
0.56245
0.56245
0.56245
0.56245
0.56245
0.56245
0.56245
0.56245
0.562449
0.562449
0.562449
0.562449
0.562449
0.562449
0.562449
0.562449
0.562449
0.562449
0.562449
0.562449
0.562448
0.562448
0.562448
0.562448
0.562448
0.562448
0.562448
0.562448
0.562448
0.562448
0.562448
0.562447
0.562447
0.562447
0.562447
0.562447
0.562447
0.562447
0.562447
0.562447
0.562447
0.562447
0.562446
0.562446
0.562446
0.562446
0.562446
0.562446
0.562446
0.562446
0.562446
0.562446
0.562446
0.562446
0.562446
0.562445
0.562445
0.562445
0.562445
0.562445
0.562445
0.562445
0.562445
0.562445
0.562445
0.562445
0.562445
0.562444
0.562444
0.562444
0.562444
0.562444
0.562444
0.562444
0.562444
0.562444
0.562444
0.562444
0.562444
0.562444
0.562443
0.562443
0.562443
0.562443
0.562443
0.562443
0.562443
0.562443
0.562443
0.562443
0.562443
0.562443
0.562442
0.562442
0.562442
0.562442
0.562442
0.562442
0.562442
0.562442
0.562442
0.562442
0.562442
0.562442
0.562442
0.562442
0.562442
0.562441
0.562441
0.562441
0.562441
0.562441
0.562441
0.562441
0.562441
0.562441
0.562441
0.562441
0.562441
0.562441
0.562441
0.56244
0.56244
0.56244
0.56244
0.56244
0.56244
0.56244
0.56244
0.56244
0.56244
0.56244
0.56244
0.56244
0.56244
0.56244
0.562439
0.562439
0.562439
0.562439
0.562439
0.562439
0.562439
0.562439
0.562439
0.562439
0.562439
0.562439
0.562439
0.562439
0.562439
0.562438
0.562438
0.562438
0.562438
0.562438
0.562438
0.562438
0.562438
0.562438
0.562438
0.562438
0.562438
0.562438
0.562438
0.562438
0.562438
0.562438
0.562437
0.562437
0.562437
0.562437
0.562437
0.562437
0.562437
0.562437
0.562437
0.562437
0.562437
0.562437
0.562437
0.562437
0.562437
0.562437
0.562437
0.562437
0.562436
0.562436
0.562436
0.562436
0.562436
0.562436
0.562436
0.562436
0.562436
0.562436
0.562436
0.562436
0.562436
0.562436
0.562436
0.562436
0.562436
0.562436
0.562436
0.562435
0.562435
0.562435
0.562435
0.562435
0.562435
0.562435
0.562435
0.562435
0.562435
0.562435
0.562435
0.562435
0.562435
0.562435
0.562435
0.562435
0.562435
0.562435
0.562435
0.562435
0.562434
0.562434
0.562434
0.562434
0.562434
0.562434
0.562434
0.562434
0.562434
0.562434
0.562434
0.562434
0.562434
0.562434
0.562434
0.562434
0.562434
0.562434
0.562434
0.562434
0.562434
0.562434
0.562433
0.562433
0.562433
0.562433
0.562433
0.562433
0.562433
0.562433
0.562433
0.562433
0.562433
0.562433
0.562433
0.562433
0.562433
0.562433
0.562433
0.562433
0.562433
0.562433
0.562433
0.562433
0.562433
0.562433
0.562433
0.562432
0.562432
0.562432
0.562432
0.562432
0.562432
0.562432
0.562432
0.562432
0.562432
0.562432
0.562432
0.562432
0.562432
0.562432
0.562432
0.562432
0.562432
0.562432
0.562432
0.562432
0.562432
0.562432
0.562432
0.562432
0.562432
0.562432
0.562432
0.562432
0.562431
0.562431
0.562431
0.562431
0.562431
0.562431
0.562431
0.562431
0.562431
0.562431
0.562431
0.562431
0.562431
0.562431
0.562431
0.562431
0.562431
0.562431
0.562431
0.562431
0.562431
0.562431
0.562431
0.562431
0.562431
0.562431
0.562431
0.562431
0.562431
0.562431
0.562431
0.562431
0.562431
0.562431
0.562431
0.562431
0.562431
0.562431
0.56243
0.56243
0.56243
0.56243
0.56243
0.56243
0.56243
0.56243
0.56243
0.56243
0.56243
0.56243
0.56243
0.56243
0.56243
0.56243
0.56243
0.56243
0.56243
0.56243
0.56243
0.56243
0.56243
0.56243
0.56243
0.56243
0.56243
0.56243
0.56243
0.56243
0.56243
0.56243
0.56243
0.56243
0.56243
0.56243
0.56243
0.56243
0.56243
0.56243
0.56243
0.56243
0.56243
0.56243
0.56243
0.56243
0.56243
0.56243
0.56243
0.56243
0.56243
0.56243
0.56243
0.56243
0.56243
0.56243
0.562429
0.562429
0.562429
0.562429
0.562429
0.562429
0.562429
0.562429
0.562429
0.562429
0.562429
0.562429
0.562429
0.562429
0.562429
0.562429
0.562429
0.562429
0.562429
0.562429
0.562429
0.562429
0.562429
0.562429
0.562429
0.562429
0.562429
0.562429
0.562429
0.562429
0.562429
0.562429
0.562429
0.562429
0.562429
0.562429
0.562429
0.562429
0.562429
0.562429
0.562429
0.562429
0.562429
0.562429
0.562429
0.562429
0.562429
0.562429
0.562429
0.562429
0.562429
0.562429
0.562429
0.562429
0.562429
0.562429
0.562429
0.562429
0.562429
0.562429
0.562429
0.562429
0.562429
0.562429
0.562429
0.562429
0.562429
0.562429
0.562429
0.562429
0.562429
0.562429
0.562429
0.562429
0.562429
0.562429
0.562429
0.562429
0.562429
0.562429
0.562429
0.562429
0.562429
0.562429
0.562429
0.562429
0.562429
0.562429
0.562429
0.562429
0.562429
0.562429
0.562429
0.562429
0.562429
0.562429
0.562429
0.562429
0.562429
0.562429
0.562429
0.562429
0.562429
0.562429
0.562429
0.562429
0.562429
0.562429
0.562429
0.562429
0.562429
0.562429
0.562429
0.562429
0.562429
0.562429
0.562429
0.562429
0.562429
0.562429
0.562429
0.562429
0.562429
0.562429
0.562429
0.562429
0.56243
0.56243
0.56243
0.56243
0.56243
0.56243
0.56243
0.56243
0.56243
0.56243
0.56243
0.56243
0.56243
0.56243
0.56243
0.56243
0.56243
0.56243
0.56243
0.56243
0.56243
0.56243
0.56243
0.56243
0.56243
0.56243
0.56243
0.56243
0.56243
0.56243
0.56243
0.56243
0.56243
0.56243
0.56243
0.56243
0.56243
0.56243
0.56243
0.56243
0.56243
0.56243
0.56243
0.56243
0.56243
0.56243
0.56243
0.56243
0.56243
0.56243
0.56243
0.56243
0.56243
0.56243
0.56243
0.562431
0.562431
0.562431
0.562431
0.562431
0.562431
0.562431
0.562431
0.562431
0.562431
0.562431
0.562431
0.562431
0.562431
0.562431
0.562431
0.562431
0.562431
0.562431
0.562431
0.562431
0.562431
0.562431
0.562431
0.562431
0.562431
0.562431
0.562431
0.562431
0.562431
0.562431
0.562431
0.562431
0.562431
0.562431
0.562431
0.562432
0.562432
0.562432
0.562432
0.562432
0.562432
0.562432
0.562432
0.562432
0.562432
0.562432
0.562432
0.562432
0.562432
0.562432
0.562432
0.562432
0.562432
0.562432
0.562432
0.562432
0.562432
0.562432
0.562432
0.562432
0.562432
0.562432
0.562432
0.562432
0.562432
0.562433
0.562433
0.562433
0.562433
0.562433
0.562433
0.562433
0.562433
0.562433
0.562433
0.562433
0.562433
0.562433
0.562433
0.562433
0.562433
0.562433
0.562433
0.562433
0.562433
0.562433
0.562433
0.562433
0.562433
0.562433
0.562434
0.562434
0.562434
0.562434
0.562434
0.562434
0.562434
0.562434
0.562434
0.562434
0.562434
0.562434
0.562434
0.562434
0.562434
0.562434
0.562434
0.562434
0.562434
0.562434
0.562434
0.562434
0.562434
0.562435
0.562435
0.562435
0.562435
0.562435
0.562435
0.562435
0.562435
0.562435
0.562435
0.562435
0.562435
0.562435
0.562435
0.562435
0.562435
0.562435
0.562435
0.562435
0.562435
0.562436
0.562436
0.562436
0.562436
0.562436
0.562436
0.562436
0.562436
0.562436
0.562436
0.562436
0.562436
0.562436
0.562436
0.562436
0.562436
0.562436
0.562436
0.562436
0.562437
0.562437
0.562437
0.562437
0.562437
0.562437
0.562437
0.562437
0.562437
0.562437
0.562437
0.562437
0.562437
0.562437
0.562437
0.562437
0.562437
0.562437
0.562438
0.562438
0.562438
0.562438
0.562438
0.562438
0.562438
0.562438
0.562438
0.562438
0.562438
0.562438
0.562438
0.562438
0.562438
0.562438
0.562438
0.562438
0.562439
0.562439
0.562439
0.562439
0.562439
0.562439
0.562439
0.562439
0.562439
0.562439
0.562439
0.562439
0.562439
0.562439
0.562439
0.56244
0.56244
0.56244
0.56244
0.56244
0.56244
0.56244
0.56244
0.56244
0.56244
0.56244
0.56244
0.56244
0.56244
0.56244
0.562441
0.562441
0.562441
0.562441
0.562441
0.562441
0.562441
0.562441
0.562441
0.562441
0.562441
0.562441
0.562441
0.562441
0.562441
0.562442
0.562442
0.562442
0.562442
0.562442
0.562442
0.562442
0.562442
0.562442
0.562442
0.562442
0.562442
0.562442
0.562442
0.562443
0.562443
0.562443
0.562443
0.562443
0.562443
0.562443
0.562443
0.562443
0.562443
0.562443
0.562443
0.562443
0.562444
0.562444
0.562444
0.562444
0.562444
0.562444
0.562444
0.562444
0.562444
0.562444
0.562444
0.562444
0.562444
0.562445
0.562445
0.562445
0.562445
0.562445
0.562445
0.562445
0.562445
0.562445
0.562445
0.562445
0.562445
0.562446
0.562446
0.562446
0.562446
0.562446
0.562446
0.562446
0.562446
0.562446
0.562446
0.562446
0.562446
0.562447
0.562447
0.562447
0.562447
0.562447
0.562447
0.562447
0.562447
0.562447
0.562447
0.562447
0.562447
0.562448
0.562448
0.562448
0.562448
0.562448
0.562448
0.562448
0.562448
0.562448
0.562448
0.562448
0.562449
0.562449
0.562449
0.562449
0.562449
0.562449
0.562449
0.562449
0.562449
0.562449
0.562449
0.562449
0.56245
0.56245
0.56245
0.56245
0.56245
0.56245
0.56245
0.56245
0.56245
0.56245
0.56245
0.562451
0.562451
0.562451
0.562451
0.562451
0.562451
0.562451
0.562451
0.562451
0.562451
0.562452
0.562452
0.562452
0.562452
0.562452
0.562452
0.562452
0.562452
0.562452
0.562452
0.562453
0.562453
0.562453
0.562453
0.562453
0.562453
0.562453
0.562453
0.562453
0.562453
0.562453
0.562454
0.562454
0.562454
0.562454
0.562454
0.562454
0.562454
0.562454
0.562454
0.562455
0.562455
0.562455
0.562455
0.562455
0.562455
0.562455
0.562455
0.562455
0.562455
0.562456
0.562456
0.562456
0.562456
0.562456
0.562456
0.562456
0.562456
0.562456
0.562456
0.562457
0.562457
0.562457
0.562457
0.562457
0.562457
0.562457
0.562457
0.562457
0.562458
0.562458
0.562458
0.562458
0.562458
0.562458
0.562458
0.562458
0.562458
0.562458
0.562459
0.562459
0.562459
0.562459
0.562459
0.562459
0.562459
0.562459
0.56246
0.56246
0.56246
0.56246
0.56246
0.56246
0.56246
0.56246
0.56246
0.562461
0.562461
0.562461
0.562461
0.562461
0.562461
0.562461
0.562461
0.562461
0.562462
0.562462
0.562462
0.562462
0.562462
0.562462
0.562462
0.562462
0.562462
0.562463
0.562463
0.562463
0.562463
0.562463
0.562463
0.562463
0.562463
0.562464
0.562464
0.562464
0.562464
0.562464
0.562464
0.562464
0.562464
0.562464
0.562465
0.562465
0.562465
0.562465
0.562465
0.562465
0.562465
0.562465
0.562466
0.562466
0.562466
0.562466
0.562466
0.562466
0.562466
0.562466
0.562467
0.562467
0.562467
0.562467
0.562467
0.562467
0.562467
0.562467
0.562468
0.562468
0.562468
0.562468
0.562468
0.562468
0.562468
0.562468
0.562468
0.562469
0.562469
0.562469
0.562469
0.562469
0.562469
0.562469
0.56247
0.56247
0.56247
0.56247
0.56247
0.56247
0.56247
0.56247
0.562471
0.562471
0.562471
0.562471
0.562471
0.562471
0.562471
0.562472
0.562472
0.562472
0.562472
0.562472
0.562472
0.562472
0.562472
0.562473
0.562473
0.562473
0.562473
0.562473
0.562473
0.562473
0.562474
0.562474
0.562474
0.562474
0.562474
0.562474
0.562474
0.562474
0.562475
0.562475
0.562475
0.562475
0.562475
0.562475
0.562475
0.562476
0.562476
0.562476
0.562476
0.562476
0.562476
0.562477
0.562477
0.562477
0.562477
0.562477
0.562477
0.562477
0.562477
0.562478
0.562478
0.562478
0.562478
0.562478
0.562478
0.562478
0.562479
0.562479
0.562479
0.562479
0.562479
0.562479
0.562479
0.56248
0.56248
0.56248
0.56248
0.56248
0.56248
0.56248
0.562481
0.562481
0.562481
0.562481
0.562481
0.562481
0.562482
0.562482
0.562482
0.562482
0.562482
0.562482
0.562482
0.562482
0.562483
0.562483
0.562483
0.562483
0.562483
0.562483
0.562484
0.562484
0.562484
0.562484
0.562484
0.562484
0.562485
0.562485
0.562485
0.562485
0.562485
0.562485
0.562485
0.562486
0.562486
0.562486
0.562486
0.562486
0.562486
0.562486
0.562487
0.562487
0.562487
0.562487
0.562487
0.562487
0.562488
0.562488
0.562488
0.562488
0.562488
0.562488
0.562488
0.562489
0.562489
0.562489
0.562489
0.562489
0.562489
0.56249
0.56249
0.56249
0.56249
0.56249
0.56249
0.562491
0.562491
0.562491
0.562491
0.562491
0.562491
0.562492
0.562492
0.562492
0.562492
0.562492
0.562492
0.562492
0.562493
0.562493
0.562493
0.562493
0.562493
0.562493
0.562494
0.562494
0.562494
0.562494
0.562494
0.562494
0.562495
0.562495
0.562495
0.562495
0.562495
0.562496
0.562496
0.562496
0.562496
0.562496
0.562496
0.562497
0.562497
0.562497
0.562497
0.562497
0.562497
0.562497
0.562498
0.562498
0.562498
0.562498
0.562498
0.562498
0.562499
0.562499
0.562499
0.562499
0.562499
0.5625
0.5625
0.5625
0.5625
0.5625
0.5625
0.562501
0.562501
0.562501
0.562501
0.562501
0.562502
0.562502
0.562502
0.562502
0.562502
0.562502
0.562503
0.562503
0.562503
0.562503
0.562503
0.562503
0.562503
0.562504
0.562504
0.562504
0.562504
0.562504
0.562505
0.562505
0.562505
0.562505
0.562505
0.562505
0.562506
0.562506
0.562506
0.562506
0.562506
0.562507
0.562507
0.562507
0.562507
0.562507
0.562508
0.562508
0.562508
0.562508
0.562508
0.562508
0.562509
0.562509
0.562509
0.562509
0.562509
0.56251