<?xml version="1.0"?>
<VTKFile type="UnstructuredGrid" version="0.1" byte_order="LittleEndian">
<UnstructuredGrid>
<Piece NumberOfPoints="5000" NumberOfCells="4000">
<PointData Scalars="Reaction 0">
<DataArray type="Float32" Name="Reaction 0" format="ascii">
0.564737
0.564737
0.564738
0.564738
0.564738
0.564738
0.564738
0.564738
0.564738
0.564738
0.564738
0.564738
0.564738
0.564739
0.564739
0.564739
0.564739
0.564739
0.56474
0.56474
0.56474
0.56474
0.56474
0.564741
0.564741
0.564741
0.564742
0.564742
0.564742
0.564743
0.564743
0.564743
0.564744
0.564744
0.564745
0.564745
0.564745
0.564746
0.564746
0.564747
0.564747
0.564748
0.564748
0.564749
0.56475
0.56475
0.56475
0.564751
0.564752
0.564752
0.564752
0.564753
0.564754
0.564755
0.564755
0.564755
0.564756
0.564757
0.564758
0.564759
0.564759
0.56476
0.564761
0.564762
0.564763
0.564763
0.564763
0.564764
0.564765
0.564767
0.564767
0.564768
0.564769
0.56477
0.564771
0.564771
0.564772
0.564773
0.564774
0.564775
0.564775
0.564777
0.564778
0.564779
0.56478
0.56478
0.564781
0.564783
0.564784
0.564785
0.564785
0.564787
0.564788
0.564789
0.564791
0.564791
0.564792
0.564793
0.564795
0.564796
0.564796
0.564798
0.564799
0.564801
0.564802
0.564802
0.564804
0.564805
0.564807
0.564809
0.564809
0.56481
0.564812
0.564813
0.564815
0.564815
0.564817
0.564818
0.56482
0.564822
0.564822
0.564824
0.564825
0.564827
0.564829
0.564829
0.564831
0.564833
0.564834
0.564836
0.564836
0.564838
0.56484
0.564842
0.564844
0.564844
0.564846
0.564848
0.56485
0.564852
0.564852
0.564854
0.564856
0.564858
0.56486
0.56486
0.564862
0.564864
0.564866
0.564868
0.564868
0.56487
0.564872
0.564874
0.564877
0.564877
0.564879
0.564881
0.564883
0.564886
0.564886
0.564888
0.56489
0.564892
0.564895
0.564895
0.564897
0.564899
0.564902
0.564904
0.564904
0.564906
0.564909
0.564911
0.564914
0.564914
0.564916
0.564919
0.564921
0.564923
0.564923
0.564926
0.564929
0.564931
0.564934
0.564934
0.564936
0.564939
0.564941
0.564944
0.564944
0.564947
0.564949
0.564952
0.564954
0.564954
0.564957
0.56496
0.564963
0.564965
0.564965
0.564968
0.564971
0.564973
0.564976
0.564976
0.564979
0.564981
0.564983
0.564986
0.564986
0.564988
0.564989
0.564991
0.564992
0.564992
0.564993
0.564993
0.564994
0.564994
0.564994
0.564994
0.564994
0.564994
0.564993
0.564993
0.564993
0.564993
0.564992
0.564992
0.564992
0.564991
0.564991
0.564991
0.56499
0.56499
0.56499
0.564989
0.564989
0.564989
0.564989
0.564988
0.564988
0.564987
0.564987
0.564987
0.564986
0.564986
0.564985
0.564985
0.564985
0.564984
0.564984
0.564983
0.564983
0.564983
0.564982
0.564982
0.564981
0.564981
0.564981
0.56498
0.56498
0.564979
0.564979
0.564979
0.564978
0.564978
0.564977
0.564977
0.564977
0.564976
0.564976
0.564975
0.564974
0.564974
0.564974
0.564973
0.564973
0.564972
0.564972
0.564971
0.564971
0.56497
0.56497
0.56497
0.564969
0.564968
0.564968
0.564967
0.564967
0.564967
0.564966
0.564965
0.564965
0.564965
0.564964
0.564963
0.564963
0.564962
0.564962
0.564961
0.564961
0.56496
0.564959
0.564959
0.564959
0.564958
0.564957
0.564957
0.564957
0.564956
0.564955
0.564955
0.564954
0.564954
0.564953
0.564952
0.564952
0.564951
0.564951
0.56495
0.56495
0.564949
0.564948
0.564948
0.564947
0.564947
0.564946
0.564945
0.564945
0.564944
0.564944
0.564943
0.564942
0.564942
0.564941
0.564941
0.56494
0.564939
0.564939
0.564938
0.564938
0.564937
0.564936
0.564936
0.564935
0.564935
0.564934
0.564933
0.564933
0.564932
0.564931
0.564931
0.56493
0.56493
0.564929
0.564928
0.564928
0.564927
0.564927
0.564926
0.564925
0.564924
0.564924
0.564924
0.564923
0.564922
0.564921
0.56492
0.56492
0.56492
0.564919
0.564918
0.564917
0.564917
0.564916
0.564916
0.564915
0.564914
0.564914
0.564913
0.564912
0.564912
0.564911
0.564911
0.56491
0.564909
0.564908
0.564908
0.564908
0.564907
0.564906
0.564905
0.564904
0.564904
0.564902
0.564901
0.5649
0.564898
0.564898
0.564896
0.564894
0.564893
0.56489
0.56489
0.564888
0.564886
0.564883
0.564881
0.564881
0.564878
0.564876
0.564873
0.56487
0.56487
0.564867
0.564864
0.564862
0.564859
0.564859
0.564856
0.564853
0.56485
0.564847
0.564847
0.564845
0.564842
0.564839
0.564836
0.564836
0.564833
0.56483
0.564827
0.564825
0.564825
0.564822
0.564819
0.564816
0.564813
0.564813
0.56481
0.564807
0.564804
0.564801
0.564801
0.564799
0.564796
0.564793
0.56479
0.56479
0.564787
0.564784
0.564781
0.564778
0.564778
0.564775
0.564772
0.564769
0.564766
0.564766
0.564763
0.564761
0.564758
0.564755
0.564755
0.564752
0.564749
0.564746
0.564743
0.564743
0.56474
0.564737
0.564734
0.564731
0.564731
0.564728
0.564725
0.564722
0.564719
0.564719
0.564716
0.564713
0.56471
0.564707
0.564707
0.564705
0.564702
0.564699
0.564696
0.564696
0.564693
0.56469
0.564687
0.564684
0.564684
0.564681
0.564678
0.564675
0.564672
0.564672
0.564669
0.564666
0.564663
0.56466
0.56466
0.564657
0.564654
0.564651
0.564648
0.564648
0.564645
0.564642
0.564639
0.564637
0.564637
0.564634
0.564631
0.564627
0.564624
0.564624
0.564621
0.564618
0.564615
0.564612
0.564612
0.564609
0.564606
0.564602
0.564599
0.564599
0.564596
0.564593
0.564589
0.564586
0.564586
0.564583
0.564579
0.564576
0.564572
0.564572
0.564569
0.564565
0.564562
0.564558
0.564558
0.564555
0.564551
0.564548
0.564544
0.564544
0.564541
0.564537
0.564534
0.56453
0.56453
0.564527
0.564523
0.56452
0.564516
0.564516
0.564513
0.564509
0.564506
0.564502
0.564502
0.564499
0.564495
0.564492
0.564488
0.564488
0.564485
0.564482
0.564478
0.564475
0.564475
0.564471
0.564468
0.564464
0.564461
0.564461
0.564457
0.564454
0.56445
0.564447
0.564447
0.564443
0.56444
0.564437
0.564433
0.564433
0.56443
0.564426
0.564423
0.564419
0.564419
0.564416
0.564413
0.564409
0.564406
0.564406
0.564402
0.564399
0.564396
0.564392
0.564392
0.564389
0.564385
0.564382
0.564379
0.564379
0.564375
0.564372
0.564368
0.564365
0.564365
0.564362
0.564358
0.564355
0.564352
0.564352
0.564348
0.564345
0.564341
0.564338
0.564338
0.564335
0.564331
0.564328
0.564325
0.564325
0.564321
0.564318
0.564315
0.564311
0.564311
0.564308
0.564305
0.564302
0.564298
0.564298
0.564295
0.564292
0.564289
0.564285
0.564285
0.564282
0.564279
0.564276
0.564272
0.564272
0.564269
0.564266
0.564263
0.564259
0.564259
0.564256
0.564253
0.56425
0.564246
0.564246
0.564243
0.56424
0.564237
0.564234
0.564234
0.56423
0.564227
0.564224
0.564221
0.564221
0.564218
0.564215
0.564211
0.564208
0.564208
0.564205
0.564202
0.564199
0.564196
0.564196
0.564192
0.564189
0.564186
0.564183
0.564183
0.56418
0.564177
0.564174
0.564171
0.564171
0.564168
0.564164
0.564161
0.564158
0.564158
0.564155
0.564152
0.564149
0.564146
0.564146
0.564143
0.56414
0.564137
0.564134
0.564134
0.564131
0.564128
0.564125
0.564122
0.564122
0.564119
0.564115
0.564112
0.564109
0.564109
0.564106
0.564103
0.5641
0.564098
0.564098
0.564095
0.564092
0.564089
0.564086
0.564086
0.564083
0.56408
0.564077
0.564075
0.564075
0.564072
0.564069
0.564066
0.564063
0.564063
0.564061
0.564058
0.564055
0.564052
0.564052
0.56405
0.564047
0.564044
0.564041
0.564041
0.564039
0.564036
0.564033
0.56403
0.56403
0.564028
0.564025
0.564022
0.564019
0.564019
0.564017
0.564014
0.564011
0.564009
0.564009
0.564006
0.564003
0.564001
0.563998
0.563998
0.563995
0.563993
0.56399
0.563987
0.563987
0.563985
0.563982
0.563979
0.563977
0.563977
0.563974
0.563972
0.563969
0.563966
0.563966
0.563964
0.563961
0.563959
0.563956
0.563956
0.563953
0.563951
0.563948
0.563946
0.563946
0.563943
0.563941
0.563938
0.563935
0.563935
0.563933
0.56393
0.563928
0.563925
0.563925
0.563923
0.56392
0.563918
0.563915
0.563915
0.563913
0.563911
0.563908
0.563906
0.563906
0.563903
0.563901
0.563899
0.563896
0.563896
0.563894
0.563892
0.563889
0.563887
0.563887
0.563885
0.563882
0.56388
0.563878
0.563878
0.563875
0.563873
0.563871
0.563868
0.563868
0.563866
0.563864
0.563861
0.563859
0.563859
0.563857
0.563855
0.563852
0.56385
0.56385
0.563848
0.563846
0.563843
0.563841
0.563841
0.563839
0.563837
0.563834
0.563832
0.563832
0.56383
0.563828
0.563825
0.563823
0.563823
0.563821
0.563819
0.563817
0.563814
0.563814
0.563812
0.56381
0.563808
0.563806
0.563806
0.563803
0.563801
0.563799
0.563797
0.563797
0.563795
0.563793
0.563791
0.563788
0.563788
0.563786
0.563784
0.563782
0.56378
0.56378
0.563778
0.563776
0.563774
0.563772
0.563772
0.56377
0.563768
0.563766
0.563764
0.563764
0.563761
0.563759
0.563757
0.563755
0.563755
0.563753
0.563751
0.563749
0.563747
0.563747
0.563745
0.563743
0.563741
0.563739
0.563739
0.563737
0.563735
0.563733
0.563731
0.563731
0.56373
0.563728
0.563726
0.563724
0.563724
0.563722
0.56372
0.563718
0.563716
0.563716
0.563714
0.563712
0.56371
0.563708
0.563708
0.563706
0.563704
0.563702
0.5637
0.5637
0.563699
0.563697
0.563695
0.563693
0.563693
0.563691
0.563689
0.563687
0.563685
0.563685
0.563683
0.563682
0.56368
0.563678
0.563678
0.563676
0.563674
0.563672
0.56367
0.56367
0.563669
0.563667
0.563665
0.563663
0.563663
0.563661
0.56366
0.563658
0.563656
0.563656
0.563654
0.563652
0.563651
0.563649
0.563649
0.563647
0.563645
0.563643
0.563642
0.563642
0.56364
0.563638
0.563636
0.563635
0.563635
0.563633
0.563631
0.563629
0.563628
0.563628
0.563626
0.563624
0.563622
0.563621
0.563621
0.563619
0.563617
0.563616
0.563614
0.563614
0.563612
0.56361
0.563609
0.563607
0.563607
0.563605
0.563604
0.563602
0.5636
0.5636
0.563599
0.563597
0.563595
0.563594
0.563594
0.563592
0.56359
0.563588
0.563587
0.563587
0.563585
0.563584
0.563582
0.56358
0.56358
0.563579
0.563577
0.563575
0.563574
0.563574
0.563572
0.56357
0.563569
0.563567
0.563567
0.563566
0.563564
0.563562
0.563561
0.563561
0.563559
0.563558
0.563556
0.563554
0.563554
0.563553
0.563551
0.56355
0.563548
0.563548
0.563546
0.563545
0.563543
0.563542
0.563542
0.56354
0.563539
0.563537
0.563535
0.563535
0.563534
0.563532
0.563531
0.563529
0.563529
0.563528
0.563526
0.563525
0.563523
0.563523
0.563521
0.56352
0.563518
0.563517
0.563517
0.563515
0.563514
0.563512
0.563511
0.563511
0.563509
0.563508
0.563506
0.563505
0.563505
0.563503
0.563502
0.5635
0.563499
0.563499
0.563497
0.563496
0.563494
0.563493
0.563493
0.563491
0.56349
0.563488
0.563487
0.563487
0.563486
0.563484
0.563483
0.563481
0.563481
0.56348
0.563478
0.563477
0.563475
0.563475
0.563474
0.563472
0.563471
0.56347
0.56347
0.563468
0.563467
0.563465
0.563464
0.563464
0.563462
0.563461
0.56346
0.563458
0.563458
0.563457
0.563455
0.563454
0.563452
0.563452
0.563451
0.56345
0.563448
0.563447
0.563447
0.563445
0.563444
0.563443
0.563441
0.563441
0.56344
0.563439
0.563437
0.563436
0.563436
0.563434
0.563433
0.563432
0.56343
0.56343
0.563429
0.563428
0.563426
0.563425
0.563425
0.563424
0.563422
0.563421
0.563419
0.563419
0.563418
0.563417
0.563415
0.563414
0.563414
0.563413
0.563411
0.56341
0.563409
0.563409
0.563407
0.563406
0.563405
0.563403
0.563403
0.563402
0.563401
0.5634
0.563398
0.563398
0.563397
0.563396
0.563394
0.563393
0.563393
0.563392
0.56339
0.563389
0.563388
0.563388
0.563387
0.563385
0.563384
0.563383
0.563383
0.563381
0.56338
0.563379
0.563378
0.563378
0.563376
0.563375
0.563374
0.563373
0.563373
0.563371
0.56337
0.563369
0.563367
0.563367
0.563366
0.563365
0.563364
0.563362
0.563362
0.563361
0.56336
0.563359
0.563358
0.563358
0.563356
0.563355
0.563354
0.563353
0.563353
0.563351
0.56335
0.563349
0.563348
0.563348
0.563346
0.563345
0.563344
0.563343
0.563343
0.563342
0.56334
0.563339
0.563338
0.563338
0.563337
0.563336
0.563334
0.563333
0.563333
0.563332
0.563331
0.56333
0.563328
0.563328
0.563327
0.563326
0.563325
0.563324
0.563324
0.563323
0.563321
0.56332
0.563319
0.563319
0.563318
0.563317
0.563316
0.563314
0.563314
0.563313
0.563312
0.563311
0.56331
0.56331
0.563309
0.563307
0.563306
0.563305
0.563305
0.563304
0.563303
0.563302
0.563301
0.563301
0.563299
0.563298
0.563297
0.563296
0.563296
0.563295
0.563294
0.563293
0.563291
0.563291
0.56329
0.563289
0.563288
0.563287
0.563287
0.563286
0.563285
0.563284
0.563283
0.563283
0.563281
0.56328
0.563279
0.563278
0.563278
0.563277
0.563276
0.563275
0.563274
0.563274
0.563273
0.563272
0.563271
0.563269
0.563269
0.563268
0.563267
0.563266
0.563265
0.563265
0.563264
0.563263
0.563262
0.563261
0.563261
0.56326
0.563259
0.563258
0.563257
0.563257
0.563255
0.563254
0.563253
0.563252
0.563252
0.563251
0.56325
0.563249
0.563248
0.563248
0.563247
0.563246
0.563245
0.563244
0.563244
0.563243
0.563242
0.563241
0.56324
0.56324
0.563239
0.563238
0.563237
0.563236
0.563236
0.563235
0.563234
0.563233
0.563232
0.563232
0.563231
0.56323
0.563229
0.563228
0.563228
0.563227
0.563225
0.563224
0.563223
0.563223
0.563222
0.563221
0.56322
0.563219
0.563219
0.563218
0.563217
0.563216
0.563215
0.563215
0.563214
0.563213
0.563213
0.563212
0.563212
0.563211
0.56321
0.563209
0.563208
0.563208
0.563207
0.563206
0.563205
0.563204
0.563204
0.563203
0.563202
0.563201
0.5632
0.5632
0.563199
0.563198
0.563197
0.563196
0.563196
0.563195
0.563194
0.563193
0.563192
0.563192
0.563191
0.56319
0.563189
0.563188
0.563188
0.563187
0.563186
0.563186
0.563185
0.563185
0.563184
0.563183
0.563182
0.563181
0.563181
0.56318
0.563179
0.563178
0.563177
0.563177
0.563176
0.563175
0.563174
0.563173
0.563173
0.563172
0.563172
0.563171
0.56317
0.56317
0.563169
0.563168
0.563167
0.563166
0.563166
0.563165
0.563164
0.563163
0.563162
0.563162
0.563162
0.563161
0.56316
0.563159
0.563159
0.563158
0.563157
0.563156
0.563155
0.563155
0.563154
0.563154
0.563153
0.563152
0.563152
0.563151
0.56315
0.563149
0.563148
0.563148
0.563147
0.563146
0.563146
0.563145
0.563145
0.563144
0.563143
0.563142
0.563141
0.563141
0.56314
0.563139
0.563139
0.563138
0.563138
0.563137
0.563136
0.563135
0.563134
0.563134
0.563133
0.563133
0.563132
0.563131
0.563131
0.56313
0.563129
0.563128
0.563128
0.563128
0.563127
0.563126
0.563125
0.563124
0.563124
0.563123
0.563123
0.563122
0.563121
0.563121
0.56312
0.563119
0.563118
0.563118
0.563118
0.563117
0.563116
0.563115
0.563114
0.563114
0.563113
0.563113
0.563112
0.563111
0.563111
0.56311
0.563109
0.563108
0.563108
0.563108
0.563107
0.563106
0.563105
0.563104
0.563104
0.563104
0.563103
0.563102
0.563101
0.563101
0.5631
0.5631
0.563099
0.563098
0.563098
0.563097
0.563096
0.563096
0.563095
0.563095
0.563094
0.563093
0.563092
0.563092
0.563092
0.563091
0.56309
0.563089
0.563089
0.563089
0.563088
0.563087
0.563086
0.563085
0.563085
0.563085
0.563084
0.563083
0.563082
0.563082
0.563082
0.563081
0.56308
0.563079
0.563079
0.563079
0.563078
0.563077
0.563076
0.563076
0.563076
0.563075
0.563074
0.563073
0.563073
0.563072
0.563072
0.563071
0.56307
0.56307
0.563069
0.563069
0.563068
0.563067
0.563067
0.563067
0.563066
0.563065
0.563064
0.563064
0.563064
0.563063
0.563062
0.563061
0.563061
0.563061
0.56306
0.563059
0.563058
0.563058
0.563058
0.563057
0.563056
0.563055
0.563055
0.563055
0.563054
0.563053
0.563053
0.563053
0.563052
0.563051
0.56305
0.56305
0.56305
0.563049
0.563048
0.563048
0.563047
0.563047
0.563046
0.563045
0.563045
0.563044
0.563044
0.563043
0.563043
0.563042
0.563041
0.563041
0.563041
0.56304
0.563039
0.563038
0.563038
0.563038
0.563037
0.563036
0.563036
0.563036
0.563035
0.563034
0.563034
0.563033
0.563033
0.563032
0.563032
0.563031
0.56303
0.56303
0.563029
0.563029
0.563028
0.563027
0.563027
0.563027
0.563026
0.563025
0.563025
0.563025
0.563024
0.563023
0.563023
0.563022
0.563022
0.563021
0.563021
0.56302
0.563019
0.563019
0.563019
0.563018
0.563017
0.563017
0.563017
0.563016
0.563015
0.563015
0.563014
0.563014
0.563013
0.563013
0.563012
0.563011
0.563011
0.563011
0.56301
0.56301
0.563009
0.563009
0.563008
0.563008
0.563007
0.563006
0.563006
0.563006
0.563005
0.563004
0.563004
0.563004
0.563003
0.563002
0.563002
0.563001
0.563001
0.563001
0.563
0.562999
0.562999
0.562999
0.562998
0.562997
0.562997
0.562996
0.562996
0.562995
0.562995
0.562994
0.562994
0.562994
0.562993
0.562992
0.562992
0.562991
0.562991
0.562991
0.56299
0.562989
0.562989
0.562989
0.562988
0.562987
0.562987
0.562986
0.562986
0.562986
0.562985
0.562984
0.562984
0.562984
0.562983
0.562983
0.562982
0.562981
0.562981
0.562981
0.56298
0.56298
0.562979
0.562979
0.562978
0.562978
0.562977
0.562977
0.562977
0.562976
0.562975
0.562975
0.562974
0.562974
0.562974
0.562973
0.562972
0.562972
0.562972
0.562971
0.562971
0.56297
0.56297
0.56297
0.562969
0.562968
0.562968
0.562967
0.562967
0.562967
0.562966
0.562966
0.562965
0.562965
0.562964
0.562964
0.562963
0.562963
0.562963
0.562962
0.562961
0.562961
0.56296
0.56296
0.56296
0.562959
0.562959
0.562958
0.562958
0.562958
0.562957
0.562956
0.562956
0.562956
0.562955
0.562955
0.562954
0.562954
0.562954
0.562953
0.562953
0.562952
0.562951
0.562951
0.562951
0.56295
0.56295
0.562949
0.562949
0.562949
0.562948
0.562948
0.562947
0.562947
0.562946
0.562946
0.562945
0.562945
0.562945
0.562944
0.562944
0.562943
0.562943
0.562943
0.562942
0.562942
0.562941
0.562941
0.562941
0.56294
0.56294
0.562939
0.562938
0.562938
0.562938
0.562937
0.562937
0.562936
0.562936
0.562936
0.562935
0.562935
0.562934
0.562934
0.562934
0.562933
0.562933
0.562932
0.562932
0.562932
0.562931
0.562931
0.56293
0.56293
0.56293
0.562929
0.562929
0.562928
0.562928
0.562928
0.562927
0.562927
0.562926
0.562926
0.562926
0.562925
0.562925
0.562924
0.562924
0.562924
0.562923
0.562923
0.562922
0.562922
0.562922
0.562921
0.562921
0.56292
0.56292
0.56292
0.562919
0.562919
0.562918
0.562918
0.562917
0.562917
0.562917
0.562916
0.562916
0.562916
0.562915
0.562915
0.562914
0.562914
0.562914
0.562913
0.562913
0.562912
0.562912
0.562912
0.562911
0.562911
0.56291
0.56291
0.56291
0.562909
0.562909
0.562908
0.562908
0.562908
0.562907
0.562907
0.562906
0.562906
0.562906
0.562905
0.562905
0.562904
0.562904
0.562904
0.562904
0.562903
0.562903
0.562903
0.562902
0.562902
0.562901
0.562901
0.562901
0.5629
0.5629
0.562899
0.562899
0.562899
0.562898
0.562898
0.562898
0.562897
0.562897
0.562897
0.562896
0.562896
0.562895
0.562895
0.562895
0.562894
0.562894
0.562893
0.562893
0.562893
0.562893
0.562892
0.562892
0.562892
0.562891
0.562891
0.56289
0.56289
0.56289
0.562889
0.562889
0.562889
0.562888
0.562888
0.562888
0.562887
0.562887
0.562886
0.562886
0.562886
0.562885
0.562885
0.562885
0.562885
0.562884
0.562884
0.562883
0.562883
0.562883
0.562882
0.562882
0.562882
0.562881
0.562881
0.562881
0.56288
0.56288
0.562879
0.562879
0.562879
0.562879
0.562878
0.562878
0.562878
0.562877
0.562877
0.562876
0.562876
0.562876
0.562876
0.562875
0.562875
0.562874
0.562874
0.562874
0.562874
0.562873
0.562873
0.562873
0.562872
0.562872
0.562872
0.562871
0.562871
0.562871
0.56287
0.56287
0.562869
0.562869
0.562869
0.562869
0.562868
0.562868
0.562868
0.562867
0.562867
0.562867
0.562866
0.562866
0.562866
0.562865
0.562865
0.562865
0.562865
0.562864
0.562864
0.562863
0.562863
0.562863
0.562863
0.562862
0.562862
0.562861
0.562861
0.562861
0.562861
0.56286
0.56286
0.56286
0.562859
0.562859
0.562859
0.562858
0.562858
0.562858
0.562858
0.562857
0.562857
0.562857
0.562856
0.562856
0.562856
0.562855
0.562855
0.562855
0.562855
0.562854
0.562854
0.562854
0.562853
0.562853
0.562853
0.562852
0.562852
0.562852
0.562852
0.562851
0.562851
0.562851
0.56285
0.56285
0.56285
0.562849
0.562849
0.562849
0.562849
0.562848
0.562848
0.562848
0.562847
0.562847
0.562847
0.562846
0.562846
0.562846
0.562846
0.562845
0.562845
0.562845
0.562845
0.562844
0.562844
0.562843
0.562843
0.562843
0.562843
0.562842
0.562842
0.562842
0.562842
0.562841
0.562841
0.562841
0.562841
0.56284
0.56284
0.56284
0.562839
0.562839
0.562839
0.562839
0.562838
0.562838
0.562838
0.562838
0.562837
0.562837
0.562836
0.562836
0.562836
0.562836
0.562835
0.562835
0.562835
0.562835
0.562834
0.562834
0.562834
0.562834
0.562833
0.562833
0.562833
0.562832
0.562832
0.562832
0.562832
0.562831
0.562831
0.562831
0.562831
0.56283
0.56283
0.56283
0.56283
0.562829
0.562829
0.562829
0.562828
0.562828
0.562828
0.562828
0.562827
0.562827
0.562827
0.562827
0.562826
0.562826
0.562826
0.562826
0.562825
0.562825
0.562825
0.562825
0.562825
0.562824
0.562824
0.562824
0.562823
0.562823
0.562823
0.562823
0.562822
0.562822
0.562822
0.562822
0.562821
0.562821
0.562821
0.562821
0.56282
0.56282
0.56282
0.56282
0.56282
0.562819
0.562819
0.562819
0.562818
0.562818
0.562818
0.562818
0.562817
0.562817
0.562817
0.562817
0.562816
0.562816
0.562816
0.562816
0.562816
0.562815
0.562815
0.562815
0.562815
0.562814
0.562814
0.562814
0.562813
0.562813
0.562813
0.562813
0.562813
0.562812
0.562812
0.562812
0.562812
0.562811
0.562811
0.562811
0.562811
0.562811
0.56281
0.56281
0.56281
0.56281
0.562809
0.562809
0.562809
0.562809
0.562809
0.562808
0.562808
0.562808
0.562808
0.562807
0.562807
0.562807
0.562807
0.562807
0.562806
0.562806
0.562806
0.562805
0.562805
0.562805
0.562805
0.562805
0.562804
0.562804
0.562804
0.562804
0.562803
0.562803
0.562803
0.562803
0.562803
0.562802
0.562802
0.562802
0.562802
0.562802
0.562801
0.562801
0.562801
0.562801
0.562801
0.5628
0.5628
0.5628
0.5628
0.562799
0.562799
0.562799
0.562799
0.562799
0.562798
0.562798
0.562798
0.562798
0.562798
0.562797
0.562797
0.562797
0.562797
0.562797
0.562796
0.562796
0.562796
0.562796
0.562796
0.562795
0.562795
0.562795
0.562795
0.562795
0.562794
0.562794
0.562794
0.562794
0.562794
0.562793
0.562793
0.562793
0.562793
0.562793
0.562792
0.562792
0.562792
0.562792
0.562792
0.562791
0.562791
0.562791
0.562791
0.562791
0.56279
0.56279
0.56279
0.56279
0.56279
0.562789
0.562789
0.562789
0.562789
0.562789
0.562788
0.562788
0.562788
0.562788
0.562788
0.562787
0.562787
0.562787
0.562787
0.562787
0.562787
0.562786
0.562786
0.562786
0.562786
0.562786
0.562785
0.562785
0.562785
0.562785
0.562785
0.562784
0.562784
0.562784
0.562784
0.562784
0.562784
0.562783
0.562783
0.562783
0.562783
0.562783
0.562782
0.562782
0.562782
0.562782
0.562782
0.562782
0.562782
0.562781
0.562781
0.562781
0.562781
0.562781
0.56278
0.56278
0.56278
0.56278
0.56278
0.56278
0.562779
0.562779
0.562779
0.562779
0.562779
0.562779
0.562778
0.562778
0.562778
0.562778
0.562778
0.562777
0.562777
0.562777
0.562777
0.562777
0.562777
0.562776
0.562776
0.562776
0.562776
0.562776
0.562776
0.562776
0.562775
0.562775
0.562775
0.562775
0.562775
0.562775
0.562774
0.562774
0.562774
0.562774
0.562774
0.562774
0.562773
0.562773
0.562773
0.562773
0.562773
0.562773
0.562772
0.562772
0.562772
0.562772
0.562772
0.562772
0.562772
0.562771
0.562771
0.562771
0.562771
0.562771
0.562771
0.562771
0.56277
0.56277
0.56277
0.56277
0.56277
0.56277
0.562769
0.562769
0.562769
0.562769
0.562769
0.562769
0.562769
0.562768
0.562768
0.562768
0.562768
0.562768
0.562768
0.562768
0.562767
0.562767
0.562767
0.562767
0.562767
0.562767
0.562766
0.562766
0.562766
0.562766
0.562766
0.562766
0.562766
0.562766
0.562765
0.562765
0.562765
0.562765
0.562765
0.562765
0.562765
0.562764
0.562764
0.562764
0.562764
0.562764
0.562764
0.562764
0.562764
0.562763
0.562763
0.562763
0.562763
0.562763
0.562763
0.562763
0.562762
0.562762
0.562762
0.562762
0.562762
0.562762
0.562762
0.562762
0.562761
0.562761
0.562761
0.562761
0.562761
0.562761
0.562761
0.56276
0.56276
0.56276
0.56276
0.56276
0.56276
0.56276
0.56276
0.56276
0.562759
0.562759
0.562759
0.562759
0.562759
0.562759
0.562759
0.562759
0.562758
0.562758
0.562758
0.562758
0.562758
0.562758
0.562758
0.562758
0.562757
0.562757
0.562757
0.562757
0.562757
0.562757
0.562757
0.562757
0.562757
0.562756
0.562756
0.562756
0.562756
0.562756
0.562756
0.562756
0.562756
0.562756
0.562755
0.562755
0.562755
0.562755
0.562755
0.562755
0.562755
0.562755
0.562755
0.562754
0.562754
0.562754
0.562754
0.562754
0.562754
0.562754
0.562754
0.562754
0.562754
0.562753
0.562753
0.562753
0.562753
0.562753
0.562753
0.562753
0.562753
0.562753
0.562753
0.562752
0.562752
0.562752
0.562752
0.562752
0.562752
0.562752
0.562752
0.562751
0.562751
0.562751
0.562751
0.562751
0.562751
0.562751
0.562751
0.562751
0.562751
0.562751
0.562751
0.56275
0.56275
0.56275
0.56275
0.56275
0.56275
0.56275
0.56275
0.56275
0.56275
0.562749
0.562749
0.562749
0.562749
0.562749
0.562749
0.562749
0.562749
0.562749
0.562749
0.562749
0.562749
0.562748
0.562748
0.562748
0.562748
0.562748
0.562748
0.562748
0.562748
0.562748
0.562748
0.562748
0.562747
0.562747
0.562747
0.562747
0.562747
0.562747
0.562747
0.562747
0.562747
0.562747
0.562747
0.562747
0.562747
0.562746
0.562746
0.562746
0.562746
0.562746
0.562746
0.562746
0.562746
0.562746
0.562746
0.562746
0.562746
0.562745
0.562745
0.562745
0.562745
0.562745
0.562745
0.562745
0.562745
0.562745
0.562745
0.562745
0.562745
0.562745
0.562745
0.562744
0.562744
0.562744
0.562744
0.562744
0.562744
0.562744
0.562744
0.562744
0.562744
0.562744
0.562744
0.562744
0.562744
0.562743
0.562743
0.562743
0.562743
0.562743
0.562743
0.562743
0.562743
0.562743
0.562743
0.562743
0.562743
0.562743
0.562743
0.562743
0.562743
0.562742
0.562742
0.562742
0.562742
0.562742
0.562742
0.562742
0.562742
0.562742
0.562742
0.562742
0.562742
0.562742
0.562742
0.562742
0.562742
0.562742
0.562742
0.562741
0.562741
0.562741
0.562741
0.562741
0.562741
0.562741
0.562741
0.562741
0.562741
0.562741
0.562741
0.562741
0.562741
0.562741
0.562741
0.562741
0.562741
0.56274
0.56274
0.56274
0.56274
0.56274
0.56274
0.56274
0.56274
0.56274
0.56274
0.56274
0.56274
0.56274
0.56274
0.56274
0.56274
0.56274
0.56274
0.56274
0.56274
0.56274
0.56274
0.562739
0.562739
0.562739
0.562739
0.562739
0.562739
0.562739
0.562739
0.562739
0.562739
0.562739
0.562739
0.562739
0.562739
0.562739
0.562739
0.562739
0.562739
0.562739
0.562739
0.562739
0.562739
0.562739
0.562739
0.562739
0.562739
0.562738
0.562738
0.562738
0.562738
0.562738
0.562738
0.562738
0.562738
0.562738
0.562738
0.562738
0.562738
0.562738
0.562738
0.562738
0.562738
0.562738
0.562738
0.562738
0.562738
0.562738
0.562738
0.562738
0.562738
0.562738
0.562738
0.562738
0.562738
0.562738
0.562738
0.562738
0.562738
0.562738
0.562738
0.562738
0.562737
0.562737
0.562737
0.562737
0.562737
0.562737
0.562737
0.562737
0.562737
0.562737
0.562737
0.562737
0.562737
0.562737
0.562737
0.562737
0.562737
0.562737
0.562737
0.562737
0.562737
0.562737
0.562737
0.562737
0.562737
0.562737
0.562737
0.562737
0.562737
0.562737
0.562737
0.562737
0.562737
0.562737
0.562737
0.562737
0.562737
0.562737
0.562737
0.562737
0.562737
0.562737
0.562737
0.562737
0.562737
0.562737
0.562737
0.562737
0.562737
0.562737
0.562737
0.562737
0.562737
0.562737
0.562737
0.562737
0.562737
0.562737
0.562737
0.562737
0.562737
0.562737
0.562737
0.562737
0.562737
0.562737
0.562737
0.562737
0.562737
0.562737
0.562737
0.562737
0.562737
0.562737
0.562737
0.562737
0.562737
0.562737
0.562737
0.562737
0.562737
0.562737
0.562737
0.562737
0.562737
0.562737
0.562737
0.562737
0.562737
0.562737
0.562737
0.562737
0.562737
0.562737
0.562737
0.562737
0.562737
0.562737
0.562737
0.562737
0.562737
0.562737
0.562737
0.562737
0.562737
0.562737
0.562737
0.562737
0.562737
0.562737
0.562737
0.562737
0.562737
0.562737
0.562737
0.562737
0.562737
0.562737
0.562737
0.562737
0.562737
0.562737
0.562737
0.562737
0.562737
0.562737
0.562737
0.562737
0.562737
0.562737
0.562737
0.562737
0.562737
0.562737
0.562737
0.562737
0.562737
0.562737
0.562737
0.562737
0.562737
0.562737
0.562737
0.562737
0.562737
0.562737
0.562737
0.562737
0.562737
0.562737
0.562737
0.562737
0.562738
0.562738
0.562738
0.562738
0.562738
0.562738
0.562738
0.562738
0.562738
0.562738
0.562738
0.562738
0.562738
0.562738
0.562738
0.562738
0.562738
0.562738
0.562738
0.562738
0.562738
0.562738
0.562738
0.562738
0.562738
0.562738
0.562738
0.562738
0.562738
0.562738
0.562738
0.562738
0.562738
0.562738
0.562738
0.562738
0.562738
0.562739
0.562739
0.562739
0.562739
0.562739
0.562739
0.562739
0.562739
0.562739
0.562739
0.562739
0.562739
0.562739
0.562739
0.562739
0.562739
0.562739
0.562739
0.562739
0.562739
0.562739
0.562739
0.562739
0.562739
0.562739
0.56274
0.56274
0.56274
0.56274
0.56274
0.56274
0.56274
0.56274
0.56274
0.56274
0.56274
0.56274
0.56274
0.56274
0.56274
0.56274
0.56274
0.56274
0.56274
0.56274
0.56274
0.56274
0.562741
0.562741
0.562741
0.562741
0.562741
0.562741
0.562741
0.562741
0.562741
0.562741
0.562741
0.562741
0.562741
0.562741
0.562741
0.562741
0.562741
0.562741
0.562741
0.562742
0.562742
0.562742
0.562742
0.562742
0.562742
0.562742
0.562742
0.562742
0.562742
0.562742
0.562742
0.562742
0.562742
0.562742
0.562742
0.562742
0.562743
0.562743
0.562743
0.562743
0.562743
0.562743
0.562743
0.562743
0.562743
0.562743
0.562743
0.562743
0.562743
0.562743
0.562743
0.562743
0.562743
0.562744
0.562744
0.562744
0.562744
0.562744
0.562744
0.562744
0.562744
0.562744
0.562744
0.562744
0.562744
0.562744
0.562744
0.562744
0.562745
0.562745
0.562745
0.562745
0.562745
0.562745
0.562745
0.562745
0.562745
0.562745
0.562745
0.562745
0.562745
0.562746
0.562746
0.562746
0.562746
0.562746
0.562746
0.562746
0.562746
0.562746
0.562746
0.562746
0.562746
0.562746
0.562746
0.562747
0.562747
0.562747
0.562747
0.562747
0.562747
0.562747
0.562747
0.562747
0.562747
0.562747
0.562747
0.562747
0.562748
0.562748
0.562748
0.562748
0.562748
0.562748
0.562748
0.562748
0.562748
0.562748
0.562748
0.562748
0.562749
0.562749
0.562749
0.562749
0.562749
0.562749
0.562749
0.562749
0.562749
0.562749
0.562749
0.56275
0.56275
0.56275
0.56275
0.56275
0.56275
0.56275
0.56275
0.56275
0.56275
0.56275
0.56275
0.562751
0.562751
0.562751
0.562751
0.562751
0.562751
0.562751
0.562751
0.562751
0.562751
0.562752
0.562752
0.562752
0.562752
0.562752
0.562752
0.562752
0.562752
0.562752
0.562752
0.562752
0.562753
0.562753
0.562753
0.562753
0.562753
0.562753
0.562753
0.562753
0.562753
0.562754
0.562754
0.562754
0.562754
0.562754
0.562754
0.562754
0.562754
0.562754
0.562754
0.562755
0.562755
0.562755
0.562755
0.562755
0.562755
0.562755
0.562755
0.562755
0.562755
0.562756
0.562756
0.562756
0.562756
0.562756
0.562756
0.562756
0.562756
0.562757
0.562757
0.562757
0.562757
0.562757
0.562757
0.562757
0.562757
0.562757
0.562758
0.562758
0.562758
0.562758
0.562758
0.562758
0.562758
0.562758
0.562758
0.562759
0.562759
0.562759
0.562759
0.562759
0.562759
0.562759
0.562759
0.562759
0.56276
0.56276
0.56276
0.56276
0.56276
0.56276
0.56276
0.56276
0.562761
0.562761
0.562761
0.562761
0.562761
0.562761
0.562761
0.562761
0.562761
0.562762
0.562762
0.562762
0.562762
0.562762
0.562762
0.562762
0.562762
0.562763
0.562763
0.562763
0.562763
0.562763
0.562763
0.562763
0.562764
0.562764
0.562764
0.562764
0.562764
0.562764
0.562764
0.562764
0.562764
0.562765
0.562765
0.562765
0.562765
0.562765