<?xml version="1.0"?>
<VTKFile type="UnstructuredGrid" version="0.1" byte_order="LittleEndian">
<UnstructuredGrid>
<Piece NumberOfPoints="5000" NumberOfCells="4000">
<PointData Scalars="Reaction 0">
<DataArray type="Float32" Name="Reaction 0" format="ascii">
0.290839
0.290839
0.29084
0.29084
0.29084
0.29084
0.29084
0.29084
0.29084
0.29084
0.29084
0.290841
0.290841
0.290841
0.290842
0.290842
0.290842
0.290843
0.290843
0.290844
0.290844
0.290844
0.290845
0.290845
0.290846
0.290846
0.290847
0.290847
0.290848
0.290849
0.290849
0.29085
0.29085
0.290851
0.290852
0.290852
0.290853
0.290854
0.290855
0.290856
0.290856
0.290857
0.290858
0.290859
0.29086
0.29086
0.290862
0.290863
0.290864
0.290865
0.290865
0.290867
0.290868
0.290869
0.290871
0.290871
0.290872
0.290874
0.290875
0.290877
0.290877
0.290878
0.29088
0.290882
0.290883
0.290883
0.290885
0.290887
0.290889
0.29089
0.29089
0.290892
0.290894
0.290896
0.290898
0.290898
0.2909
0.290902
0.290904
0.290906
0.290906
0.290908
0.29091
0.290912
0.290914
0.290914
0.290917
0.290919
0.290921
0.290924
0.290924
0.290926
0.290928
0.290931
0.290933
0.290933
0.290936
0.290938
0.290941
0.290943
0.290943
0.290946
0.290949
0.290951
0.290954
0.290954
0.290957
0.290959
0.290962
0.290965
0.290965
0.290968
0.290971
0.290974
0.290977
0.290977
0.29098
0.290983
0.290986
0.290989
0.290989
0.290992
0.290995
0.290998
0.291002
0.291002
0.291005
0.291008
0.291012
0.291015
0.291015
0.291018
0.291022
0.291025
0.291029
0.291029
0.291032
0.291036
0.291039
0.291043
0.291043
0.291047
0.29105
0.291054
0.291058
0.291058
0.291061
0.291065
0.291069
0.291073
0.291073
0.291077
0.291081
0.291085
0.291089
0.291089
0.291093
0.291097
0.291101
0.291105
0.291105
0.291109
0.291114
0.291118
0.291122
0.291122
0.291126
0.291131
0.291135
0.291139
0.291139
0.291144
0.291148
0.291153
0.291157
0.291157
0.291162
0.291167
0.291171
0.291176
0.291176
0.29118
0.291185
0.29119
0.291195
0.291195
0.2912
0.291204
0.291209
0.291214
0.291214
0.291219
0.291224
0.291229
0.291234
0.291234
0.291239
0.291244
0.29125
0.291255
0.291255
0.29126
0.291265
0.29127
0.291276
0.291276
0.291281
0.291286
0.291292
0.291297
0.291297
0.291303
0.291308
0.291314
0.291319
0.291319
0.291325
0.291331
0.291336
0.291342
0.291342
0.291348
0.291353
0.291359
0.291365
0.291365
0.291371
0.291377
0.291383
0.291389
0.291389
0.291395
0.291401
0.291407
0.291413
0.291413
0.291419
0.291425
0.291431
0.291437
0.291437
0.291444
0.29145
0.291456
0.291463
0.291463
0.291469
0.291475
0.291482
0.291488
0.291488
0.291495
0.291501
0.291508
0.291514
0.291514
0.291521
0.291528
0.291534
0.291541
0.291541
0.291548
0.291555
0.291562
0.291568
0.291568
0.291575
0.291582
0.291589
0.291596
0.291596
0.291603
0.29161
0.291617
0.291624
0.291624
0.291632
0.291639
0.291646
0.291653
0.291653
0.291661
0.291668
0.291675
0.291683
0.291683
0.29169
0.291697
0.291705
0.291712
0.291712
0.29172
0.291728
0.291735
0.291743
0.291743
0.29175
0.291758
0.291766
0.291774
0.291774
0.291781
0.291789
0.291797
0.291805
0.291805
0.291813
0.291821
0.291829
0.291837
0.291837
0.291845
0.291853
0.291861
0.291869
0.291869
0.291878
0.291886
0.291894
0.291902
0.291902
0.291911
0.291919
0.291927
0.291936
0.291936
0.291944
0.291953
0.291961
0.29197
0.29197
0.291978
0.291987
0.291996
0.292004
0.292004
0.292013
0.292022
0.29203
0.292039
0.292039
0.292048
0.292057
0.292066
0.292075
0.292075
0.292084
0.292093
0.292102
0.292111
0.292111
0.29212
0.292129
0.292138
0.292147
0.292147
0.292157
0.292166
0.292175
0.292185
0.292185
0.292194
0.292203
0.292213
0.292222
0.292222
0.292232
0.292241
0.292251
0.29226
0.29226
0.29227
0.29228
0.292289
0.292299
0.292299
0.292309
0.292318
0.292328
0.292338
0.292338
0.292348
0.292358
0.292368
0.292378
0.292378
0.292388
0.292398
0.292408
0.292418
0.292418
0.292428
0.292438
0.292448
0.292459
0.292459
0.292469
0.292479
0.29249
0.2925
0.2925
0.29251
0.292521
0.292531
0.292542
0.292542
0.292552
0.292563
0.292573
0.292584
0.292584
0.292595
0.292605
0.292616
0.292627
0.292627
0.292638
0.292648
0.292659
0.29267
0.29267
0.292681
0.292692
0.292703
0.292714
0.292714
0.292725
0.292736
0.292747
0.292758
0.292758
0.292769
0.292781
0.292792
0.292803
0.292803
0.292814
0.292826
0.292837
0.292849
0.292849
0.29286
0.292871
0.292883
0.292894
0.292894
0.292906
0.292918
0.292929
0.292941
0.292941
0.292953
0.292964
0.292976
0.292988
0.292988
0.293
0.293011
0.293023
0.293035
0.293035
0.293047
0.293059
0.293071
0.293083
0.293083
0.293095
0.293107
0.29312
0.293132
0.293132
0.293144
0.293156
0.293168
0.293181
0.293181
0.293193
0.293205
0.293218
0.29323
0.29323
0.293243
0.293255
0.293268
0.29328
0.29328
0.293293
0.293305
0.293318
0.293331
0.293331
0.293344
0.293356
0.293369
0.293382
0.293382
0.293395
0.293408
0.293421
0.293434
0.293434
0.293446
0.29346
0.293473
0.293486
0.293486
0.293499
0.293512
0.293525
0.293538
0.293538
0.293551
0.293565
0.293578
0.293591
0.293591
0.293605
0.293618
0.293632
0.293645
0.293645
0.293659
0.293672
0.293686
0.293699
0.293699
0.293713
0.293727
0.29374
0.293754
0.293754
0.293768
0.293782
0.293795
0.293809
0.293809
0.293823
0.293837
0.293851
0.293865
0.293865
0.293879
0.293893
0.293907
0.293921
0.293921
0.293935
0.293949
0.293964
0.293978
0.293978
0.293992
0.294007
0.294021
0.294035
0.294035
0.29405
0.294064
0.294079
0.294093
0.294093
0.294108
0.294122
0.294137
0.294151
0.294151
0.294166
0.294181
0.294195
0.29421
0.29421
0.294225
0.29424
0.294255
0.29427
0.29427
0.294284
0.294299
0.294314
0.294329
0.294329
0.294344
0.29436
0.294375
0.29439
0.29439
0.294405
0.29442
0.294435
0.294451
0.294451
0.294466
0.294481
0.294497
0.294512
0.294512
0.294528
0.294543
0.294559
0.294574
0.294574
0.29459
0.294605
0.294621
0.294637
0.294637
0.294652
0.294668
0.294684
0.294699
0.294699
0.294715
0.294731
0.294747
0.294763
0.294763
0.294779
0.294795
0.294811
0.294827
0.294827
0.294843
0.294859
0.294875
0.294892
0.294892
0.294908
0.294924
0.29494
0.294957
0.294957
0.294973
0.294989
0.295006
0.295022
0.295022
0.295039
0.295055
0.295072
0.295088
0.295088
0.295105
0.295121
0.295138
0.295155
0.295155
0.295171
0.295188
0.295205
0.295222
0.295222
0.295239
0.295256
0.295273
0.295289
0.295289
0.295306
0.295324
0.295341
0.295358
0.295358
0.295375
0.295392
0.295409
0.295426
0.295426
0.295444
0.295461
0.295478
0.295495
0.295495
0.295513
0.29553
0.295548
0.295565
0.295565
0.295583
0.2956
0.295618
0.295635
0.295635
0.295653
0.295671
0.295688
0.295706
0.295706
0.295724
0.295742
0.295759
0.295777
0.295777
0.295795
0.295813
0.295831
0.295849
0.295849
0.295867
0.295885
0.295903
0.295921
0.295921
0.295939
0.295958
0.295976
0.295994
0.295994
0.296012
0.296031
0.296049
0.296067
0.296067
0.296086
0.296104
0.296123
0.296141
0.296141
0.29616
0.296178
0.296197
0.296216
0.296216
0.296234
0.296253
0.296272
0.29629
0.29629
0.296309
0.296328
0.296347
0.296366
0.296366
0.296385
0.296404
0.296423
0.296442
0.296442
0.296461
0.29648
0.296499
0.296518
0.296518
0.296537
0.296556
0.296576
0.296595
0.296595
0.296614
0.296634
0.296653
0.296672
0.296672
0.296692
0.296711
0.296731
0.29675
0.29675
0.29677
0.296789
0.296809
0.296829
0.296829
0.296848
0.296868
0.296888
0.296908
0.296908
0.296928
0.296947
0.296967
0.296987
0.296987
0.297007
0.297027
0.297047
0.297067
0.297067
0.297087
0.297107
0.297128
0.297148
0.297148
0.297168
0.297188
0.297208
0.297229
0.297229
0.297249
0.29727
0.29729
0.29731
0.29731
0.297331
0.297351
0.297372
0.297392
0.297392
0.297413
0.297434
0.297454
0.297475
0.297475
0.297496
0.297516
0.297537
0.297558
0.297558
0.297579
0.2976
0.297621
0.297642
0.297642
0.297663
0.297684
0.297705
0.297726
0.297726
0.297747
0.297768
0.297789
0.29781
0.29781
0.297832
0.297853
0.297874
0.297896
0.297896
0.297917
0.297938
0.29796
0.297981
0.297981
0.298003
0.298024
0.298046
0.298067
0.298067
0.298089
0.298111
0.298132
0.298154
0.298154
0.298176
0.298198
0.29822
0.298241
0.298241
0.298263
0.298285
0.298307
0.298329
0.298329
0.298351
0.298373
0.298395
0.298417
0.298417
0.298439
0.298462
0.298484
0.298506
0.298506
0.298528
0.298551
0.298573
0.298595
0.298595
0.298618
0.29864
0.298663
0.298685
0.298685
0.298708
0.29873
0.298753
0.298775
0.298775
0.298798
0.298821
0.298843
0.298866
0.298866
0.298889
0.298912
0.298935
0.298958
0.298958
0.29898
0.299003
0.299026
0.299049
0.299049
0.299072
0.299096
0.299119
0.299142
0.299142
0.299165
0.299188
0.299211
0.299235
0.299235
0.299258
0.299281
0.299305
0.299328
0.299328
0.299351
0.299375
0.299398
0.299422
0.299422
0.299445
0.299469
0.299493
0.299516
0.299516
0.29954
0.299564
0.299587
0.299611
0.299611
0.299635
0.299659
0.299683
0.299707
0.299707
0.299731
0.299755
0.299779
0.299803
0.299803
0.299827
0.299851
0.299875
0.299899
0.299899
0.299923
0.299948
0.299972
0.299996
0.299996
0.30002
0.300045
0.300069
0.300094
0.300094
0.300118
0.300143
0.300167
0.300192
0.300192
0.300216
0.300241
0.300265
0.30029
0.30029
0.300315
0.30034
0.300364
0.300389
0.300389
0.300414
0.300439
0.300464
0.300489
0.300489
0.300514
0.300539
0.300564
0.300589
0.300589
0.300614
0.300639
0.300664
0.300689
0.300689
0.300715
0.30074
0.300765
0.30079
0.30079
0.300816
0.300841
0.300867
0.300892
0.300892
0.300917
0.300943
0.300969
0.300994
0.300994
0.30102
0.301045
0.301071
0.301097
0.301097
0.301122
0.301148
0.301174
0.3012
0.3012
0.301226
0.301252
0.301278
0.301304
0.301304
0.301329
0.301356
0.301382
0.301408
0.301408
0.301434
0.30146
0.301486
0.301512
0.301512
0.301539
0.301565
0.301591
0.301618
0.301618
0.301644
0.30167
0.301697
0.301723
0.301723
0.30175
0.301776
0.301803
0.301829
0.301829
0.301856
0.301883
0.301909
0.301936
0.301936
0.301963
0.30199
0.302017
0.302043
0.302043
0.30207
0.302097
0.302124
0.302151
0.302151
0.302178
0.302205
0.302232
0.302259
0.302259
0.302287
0.302314
0.302341
0.302368
0.302368
0.302395
0.302423
0.30245
0.302477
0.302477
0.302505
0.302532
0.30256
0.302587
0.302587
0.302615
0.302642
0.30267
0.302698
0.302698
0.302725
0.302753
0.302781
0.302808
0.302808
0.302836
0.302864
0.302892
0.30292
0.30292
0.302948
0.302976
0.303004
0.303032
0.303032
0.30306
0.303088
0.303116
0.303144
0.303144
0.303172
0.3032
0.303229
0.303257
0.303257
0.303285
0.303313
0.303342
0.30337
0.30337
0.303399
0.303427
0.303456
0.303484
0.303484
0.303513
0.303541
0.30357
0.303598
0.303598
0.303627
0.303656
0.303685
0.303713
0.303713
0.303742
0.303771
0.3038
0.303829
0.303829
0.303858
0.303887
0.303916
0.303945
0.303945
0.303974
0.304003
0.304032
0.304061
0.304061
0.30409
0.30412
0.304149
0.304178
0.304178
0.304207
0.304237
0.304266
0.304296
0.304296
0.304325
0.304355
0.304384
0.304414
0.304414
0.304443
0.304473
0.304502
0.304532
0.304532
0.304562
0.304591
0.304621
0.304651
0.304651
0.304681
0.304711
0.304741
0.304771
0.304771
0.304801
0.304831
0.304861
0.304891
0.304891
0.304921
0.304951
0.304981
0.305011
0.305011
0.305041
0.305072
0.305102
0.305132
0.305132
0.305162
0.305193
0.305223
0.305254
0.305254
0.305284
0.305315
0.305345
0.305376
0.305376
0.305406
0.305437
0.305468
0.305498
0.305498
0.305529
0.30556
0.305591
0.305621
0.305621
0.305652
0.305683
0.305714
0.305745
0.305745
0.305776
0.305807
0.305838
0.305869
0.305869
0.3059
0.305931
0.305963
0.305994
0.305994
0.306025
0.306056
0.306088
0.306119
0.306119
0.30615
0.306182
0.306213
0.306244
0.306244
0.306276
0.306307
0.306339
0.306371
0.306371
0.306402
0.306434
0.306466
0.306497
0.306497
0.306529
0.306561
0.306593
0.306624
0.306624
0.306656
0.306688
0.30672
0.306752
0.306752
0.306784
0.306816
0.306848
0.30688
0.30688
0.306912
0.306945
0.306977
0.307009
0.307009
0.307041
0.307073
0.307106
0.307138
0.307138
0.307171
0.307203
0.307235
0.307268
0.307268
0.3073
0.307333
0.307365
0.307398
0.307398
0.307431
0.307463
0.307496
0.307529
0.307529
0.307562
0.307594
0.307627
0.30766
0.30766
0.307693
0.307726
0.307759
0.307792
0.307792
0.307825
0.307858
0.307891
0.307924
0.307924
0.307957
0.30799
0.308024
0.308057
0.308057
0.30809
0.308123
0.308157
0.30819
0.30819
0.308223
0.308257
0.30829
0.308324
0.308324
0.308357
0.308391
0.308424
0.308458
0.308458
0.308492
0.308525
0.308559
0.308593
0.308593
0.308627
0.30866
0.308694
0.308728
0.308728
0.308762
0.308796
0.30883
0.308864
0.308864
0.308898
0.308932
0.308966
0.309
0.309
0.309034
0.309069
0.309103
0.309137
0.309137
0.309171
0.309206
0.30924
0.309274
0.309274
0.309309
0.309343
0.309378
0.309412
0.309412
0.309447
0.309481
0.309516
0.309551
0.309551
0.309585
0.30962
0.309655
0.30969
0.30969
0.309724
0.309759
0.309794
0.309829
0.309829
0.309864
0.309899
0.309934
0.309969
0.309969
0.310004
0.310039
0.310074
0.310109
0.310109
0.310144
0.310179
0.310215
0.31025
0.31025
0.310285
0.310321
0.310356
0.310391
0.310391
0.310427
0.310462
0.310498
0.310533
0.310533
0.310569
0.310604
0.31064
0.310676
0.310676
0.310711
0.310747
0.310783
0.310819
0.310819
0.310854
0.31089
0.310926
0.310962
0.310962
0.310998
0.311034
0.31107
0.311106
0.311106
0.311142
0.311178
0.311214
0.31125
0.31125
0.311287
0.311323
0.311359
0.311395
0.311395
0.311432
0.311468
0.311504
0.311541
0.311541
0.311577
0.311614
0.31165
0.311687
0.311687
0.311723
0.31176
0.311797
0.311833
0.311833
0.31187
0.311907
0.311943
0.31198
0.31198
0.312017
0.312054
0.312091
0.312128
0.312128
0.312165
0.312202
0.312239
0.312276
0.312276
0.312313
0.31235
0.312387
0.312424
0.312424
0.312461
0.312498
0.312536
0.312573
0.312573
0.31261
0.312648
0.312685
0.312723
0.312723
0.31276
0.312797
0.312835
0.312873
0.312873
0.31291
0.312948
0.312985
0.313023
0.313023
0.313061
0.313098
0.313136
0.313174
0.313174
0.313212
0.31325
0.313288
0.313326
0.313326
0.313364
0.313401
0.31344
0.313478
0.313478
0.313516
0.313554
0.313592
0.31363
0.31363
0.313668
0.313707
0.313745
0.313783
0.313783
0.313821
0.31386
0.313898
0.313937
0.313937
0.313975
0.314014
0.314052
0.314091
0.314091
0.314129
0.314168
0.314207
0.314245
0.314245
0.314284
0.314323
0.314361
0.3144
0.3144
0.314439
0.314478
0.314517
0.314556
0.314556
0.314595
0.314634
0.314673
0.314712
0.314712
0.314751
0.31479
0.314829
0.314868
0.314868
0.314908
0.314947
0.314986
0.315026
0.315026
0.315065
0.315104
0.315144
0.315183
0.315183
0.315223
0.315262
0.315302
0.315341
0.315341
0.315381
0.31542
0.31546
0.3155
0.3155
0.315539
0.315579
0.315619
0.315659
0.315659
0.315699
0.315739
0.315778
0.315818
0.315818
0.315858
0.315898
0.315938
0.315978
0.315978
0.316019
0.316059
0.316099
0.316139
0.316139
0.316179
0.31622
0.31626
0.3163
0.3163
0.316341
0.316381
0.316421
0.316462
0.316462
0.316502
0.316543
0.316583
0.316624
0.316624
0.316664
0.316705
0.316746
0.316786
0.316786
0.316827
0.316868
0.316909
0.31695
0.31695
0.31699
0.317031
0.317072
0.317113
0.317113
0.317154
0.317195
0.317236
0.317277
0.317277
0.317318
0.31736
0.317401
0.317442
0.317442
0.317483
0.317524
0.317566
0.317607
0.317607
0.317648
0.31769
0.317731
0.317773
0.317773
0.317814
0.317856
0.317897
0.317939
0.317939
0.31798
0.318022
0.318064
0.318105
0.318105
0.318147
0.318189
0.318231
0.318273
0.318273
0.318314
0.318356
0.318398
0.31844
0.31844
0.318482
0.318524
0.318566
0.318608
0.318608
0.31865
0.318693
0.318735
0.318777
0.318777
0.318819
0.318861
0.318904
0.318946
0.318946
0.318988
0.319031
0.319073
0.319116
0.319116
0.319158
0.319201
0.319243
0.319286
0.319286
0.319328
0.319371
0.319414
0.319456
0.319456
0.319499
0.319542
0.319585
0.319628
0.319628
0.31967
0.319713
0.319756
0.319799
0.319799
0.319842
0.319885
0.319928
0.319971
0.319971
0.320015
0.320058
0.320101
0.320144
0.320144
0.320187
0.320231
0.320274
0.320317
0.320317
0.320361
0.320404
0.320447
0.320491
0.320491
0.320534
0.320578
0.320621
0.320665
0.320665
0.320709
0.320752
0.320796
0.32084
0.32084
0.320883
0.320927
0.320971
0.321015
0.321015
0.321059
0.321103
0.321146
0.32119
0.32119
0.321234
0.321278
0.321322
0.321367
0.321367
0.321411
0.321455
0.321499
0.321543
0.321543
0.321587
0.321632
0.321676
0.32172
0.32172
0.321765
0.321809
0.321854
0.321898
0.321898
0.321942
0.321987
0.322032
0.322076
0.322076
0.322121
0.322165
0.32221
0.322255
0.322255
0.3223
0.322344
0.322389
0.322434
0.322434
0.322479
0.322524
0.322569
0.322614
0.322614
0.322659
0.322704
0.322749
0.322794
0.322794
0.322839
0.322884
0.322929
0.322974
0.322974
0.32302
0.323065
0.32311
0.323156
0.323156
0.323201
0.323246
0.323292
0.323337
0.323337
0.323383
0.323428
0.323474
0.323519
0.323519
0.323565
0.323611
0.323656
0.323702
0.323702
0.323748
0.323793
0.323839
0.323885
0.323885
0.323931
0.323977
0.324023
0.324069
0.324069
0.324115
0.324161
0.324207
0.324253
0.324253
0.324299
0.324345
0.324391
0.324437
0.324437
0.324484
0.32453
0.324576
0.324623
0.324623
0.324669
0.324715
0.324762
0.324808
0.324808
0.324855
0.324901
0.324948
0.324994
0.324994
0.325041
0.325088
0.325134
0.325181
0.325181
0.325228
0.325274
0.325321
0.325368
0.325368
0.325415
0.325462
0.325509
0.325556
0.325556
0.325603
0.32565
0.325697
0.325744
0.325744
0.325791
0.325838
0.325885
0.325932
0.325932
0.32598
0.326027
0.326074
0.326122
0.326122
0.326169
0.326216
0.326264
0.326311
0.326311
0.326359
0.326406
0.326454
0.326501
0.326501
0.326549
0.326597
0.326644
0.326692
0.326692
0.32674
0.326787
0.326835
0.326883
0.326883
0.326931
0.326979
0.327027
0.327075
0.327075
0.327123
0.327171
0.327219
0.327267
0.327267
0.327315
0.327363
0.327411
0.327459
0.327459
0.327508
0.327556
0.327604
0.327652
0.327652
0.327701
0.327749
0.327798
0.327846
0.327846
0.327894
0.327943
0.327991
0.32804
0.32804
0.328089
0.328137
0.328186
0.328235
0.328235
0.328283
0.328332
0.328381
0.32843
0.32843
0.328479
0.328527
0.328576
0.328625
0.328625
0.328674
0.328723
0.328772
0.328821
0.328821
0.32887
0.328919
0.328969
0.329018
0.329018
0.329067
0.329116
0.329166
0.329215
0.329215
0.329264
0.329314
0.329363
0.329412
0.329412
0.329462
0.329511
0.329561
0.32961
0.32961
0.32966
0.32971
0.329759
0.329809
0.329809
0.329859
0.329908
0.329958
0.330008
0.330008
0.330058
0.330108
0.330158
0.330208
0.330208
0.330258
0.330308
0.330358
0.330408
0.330408
0.330458
0.330508
0.330558
0.330608
0.330608
0.330658
0.330709
0.330759
0.330809
0.330809
0.330859
0.33091
0.33096
0.331011
0.331011
0.331061
0.331112
0.331162
0.331213
0.331213
0.331263
0.331314
0.331364
0.331415
0.331415
0.331466
0.331517
0.331567
0.331618
0.331618
0.331669
0.33172
0.331771
0.331822
0.331822
0.331872
0.331923
0.331974
0.332026
0.332026
0.332077
0.332128
0.332179
0.33223
0.33223
0.332281
0.332332
0.332384
0.332435
0.332435
0.332486
0.332538
0.332589
0.33264
0.33264
0.332692
0.332743
0.332795
0.332846
0.332846
0.332898
0.332949
0.333001
0.333053
0.333053
0.333104
0.333156
0.333208
0.33326
0.33326
0.333311
0.333363
0.333415
0.333467
0.333467
0.333519
0.333571
0.333623
0.333675
0.333675
0.333727
0.333779
0.333831
0.333883
0.333883
0.333936
0.333988
0.33404
0.334092
0.334092
0.334145
0.334197
0.334249
0.334302
0.334302
0.334354
0.334407
0.334459
0.334512
0.334512
0.334564
0.334617
0.334669
0.334722
0.334722
0.334775
0.334827
0.33488
0.334933
0.334933
0.334986
0.335038
0.335091
0.335144
0.335144
0.335197
0.33525
0.335303
0.335356
0.335356
0.335409
0.335462
0.335515
0.335568
0.335568
0.335622
0.335675
0.335728
0.335781
0.335781
0.335834
0.335888
0.335941
0.335994
0.335994
0.336048
0.336101
0.336155
0.336208
0.336208
0.336262
0.336315
0.336369
0.336423
0.336423
0.336476
0.33653
0.336584
0.336637
0.336637
0.336691
0.336745
0.336799
0.336853
0.336853
0.336907
0.33696
0.337014
0.337068
0.337068
0.337122
0.337177
0.337231
0.337285
0.337285
0.337339
0.337393
0.337447
0.337501
0.337501
0.337556
0.33761
0.337664
0.337719
0.337719
0.337773
0.337827
0.337882
0.337936
0.337936
0.337991
0.338045
0.3381
0.338155
0.338155
0.338209
0.338264
0.338319
0.338373
0.338373
0.338428
0.338483
0.338538
0.338593
0.338593
0.338647
0.338702
0.338757
0.338812
0.338812
0.338867
0.338922
0.338977
0.339032
0.339032
0.339088
0.339143
0.339198
0.339253
0.339253
0.339308
0.339364
0.339419
0.339474
0.339474
0.33953
0.339585
0.33964
0.339696
0.339696
0.339751
0.339807
0.339862
0.339918
0.339918
0.339974
0.340029
0.340085
0.340141
0.340141
0.340196
0.340252
0.340308
0.340364
0.340364
0.34042
0.340475
0.340531
0.340587
0.340587
0.340643
0.340699
0.340755
0.340811
0.340811
0.340867
0.340924
0.34098
0.341036
0.341036
0.341092
0.341148
0.341205
0.341261
0.341261
0.341317
0.341374
0.34143
0.341487
0.341487
0.341543
0.3416
0.341656
0.341713
0.341713
0.341769
0.341826
0.341882
0.341939
0.341939
0.341996
0.342053
0.342109
0.342166
0.342166
0.342223
0.34228
0.342337
0.342394
0.342394
0.342451
0.342508
0.342565
0.342622
0.342622
0.342679
0.342736
0.342793
0.34285
0.34285
0.342907
0.342964
0.343022
0.343079
0.343079
0.343136
0.343194
0.343251
0.343308
0.343308
0.343366
0.343423
0.343481
0.343538
0.343538
0.343596
0.343653
0.343711
0.343769
0.343769
0.343826
0.343884
0.343942
0.344
0.344
0.344057
0.344115
0.344173
0.344231
0.344231
0.344289
0.344347
0.344405
0.344463
0.344463
0.344521
0.344579
0.344637
0.344695
0.344695
0.344753
0.344812
0.34487
0.344928
0.344928
0.344986
0.345045
0.345103
0.345161
0.345161
0.34522
0.345278
0.345337
0.345395
0.345395
0.345454
0.345512
0.345571
0.345629
0.345629
0.345688
0.345747
0.345806
0.345864
0.345864
0.345923
0.345982
0.346041
0.3461
0.3461
0.346158
0.346217
0.346276
0.346335
0.346335
0.346394
0.346453
0.346512
0.346571
0.346571
0.346631
0.34669
0.346749
0.346808
0.346808
0.346867
0.346927
0.346986
0.347045
0.347045
0.347105
0.347164
0.347224
0.347283
0.347283
0.347343
0.347402
0.347462
0.347521
0.347521
0.347581
0.34764
0.3477
0.34776
0.34776
0.34782
0.347879
0.347939
0.347999
0.347999
0.348059
0.348119
0.348179
0.348239
0.348239
0.348299
0.348359
0.348419
0.348479
0.348479
0.348539
0.348599
0.348659
0.348719
0.348719
0.348779
0.34884
0.3489
0.34896
0.34896
0.349021
0.349081
0.349141
0.349202
0.349202
0.349262
0.349323
0.349383
0.349444
0.349444
0.349504
0.349565
0.349626
0.349686
0.349686
0.349747
0.349808
0.349869
0.349929
0.349929
0.34999
0.350051
0.350112
0.350173
0.350173
0.350234
0.350295
0.350356
0.350417
0.350417
0.350478
0.350539
0.3506
0.350661
0.350661
0.350722
0.350784
0.350845
0.350906
0.350906
0.350967
0.351029
0.35109
0.351151
0.351151
0.351213
0.351274
0.351336
0.351397
0.351397
0.351459
0.35152
0.351582
0.351644
0.351644
0.351705
0.351767
0.351829
0.351891
0.351891
0.351952
0.352014
0.352076
0.352138
0.352138
0.3522
0.352262
0.352324
0.352386
0.352386
0.352448
0.35251
0.352572
0.352634
0.352634
0.352696
0.352758
0.35282
0.352883
0.352883
0.352945
0.353007
0.35307
0.353132
0.353132
0.353194
0.353257
0.353319
0.353382
0.353382
0.353444
0.353507
0.353569
0.353632
0.353632
0.353694
0.353757
0.35382
0.353882
0.353882
0.353945
0.354008
0.354071
0.354134
0.354134
0.354196
0.354259
0.354322
0.354385
0.354385
0.354448
0.354511
0.354574
0.354637
0.354637
0.3547
0.354764
0.354827
0.35489
0.35489
0.354953
0.355016
0.35508
0.355143
0.355143
0.355206
0.35527
0.355333
0.355397
0.355397
0.35546
0.355524
0.355587
0.355651
0.355651
0.355714
0.355778
0.355841
0.355905
0.355905
0.355969
0.356033
0.356096
0.35616
0.35616
0.356224
0.356288
0.356352
0.356416
0.356416
0.356479
0.356543
0.356607
0.356671
0.356671
0.356735
0.3568
0.356864
0.356928
0.356928
0.356992
0.357056
0.35712
0.357185
0.357185
0.357249
0.357313
0.357378
0.357442
0.357442
0.357506
0.357571
0.357635
0.3577
0.3577
0.357764
0.357829
0.357894
0.357958
0.357958
0.358023
0.358088
0.358152
0.358217
0.358217
0.358282
0.358347
0.358411
0.358476
0.358476
0.358541
0.358606
0.358671
0.358736
0.358736
0.358801
0.358866
0.358931
0.358996
0.358996
0.359061
0.359127
0.359192
0.359257
0.359257
0.359322
0.359387
0.359453
0.359518
0.359518
0.359583
0.359649
0.359714
0.35978
0.35978
0.359845
0.359911
0.359976
0.360042
0.360042
0.360107
0.360173
0.360239
0.360304
0.360304
0.36037
0.360436
0.360502
0.360568
0.360568
0.360633
0.360699
0.360765
0.360831
0.360831
0.360897
0.360963
0.361029
0.361095
0.361095
0.361161
0.361227
0.361293
0.36136
0.36136
0.361426
0.361492
0.361558
0.361625
0.361625
0.361691
0.361757
0.361824
0.36189
0.36189
0.361956
0.362023
0.362089
0.362156
0.362156
0.362222
0.362289
0.362356
0.362422
0.362422
0.362489
0.362556
0.362622
0.362689
0.362689
0.362756
0.362823
0.36289
0.362956
0.362956
0.363023
0.36309
0.363157
0.363224
0.363224
0.363291
0.363358
0.363425
0.363493
0.363493
0.36356
0.363627
0.363694
0.363761
0.363761
0.363829
0.363896
0.363963
0.364031
0.364031
0.364098
0.364165
0.364233
0.3643
0.3643
0.364368
0.364435
0.364503
0.36457
0.36457
0.364638
0.364706
0.364773
0.364841
0.364841
0.364909
0.364977
0.365044
0.365112
0.365112
0.36518
0.365248
0.365316
0.365384
0.365384
0.365452
0.36552
0.365588
0.365656
0.365656
0.365724
0.365792
0.36586
0.365928
0.365928
0.365997
0.366065
0.366133
0.366201
0.366201
0.36627
0.366338
0.366406
0.366475
0.366475
0.366543
0.366612
0.36668
0.366749
0.366749
0.366817
0.366886
0.366954
0.367023
0.367023
0.367092
0.367161
0.367229
0.367298
0.367298
0.367367
0.367436
0.367504
0.367573
0.367573
0.367642
0.367711
0.36778
0.367849
0.367849
0.367918
0.367987
0.368056
0.368125
0.368125
0.368195
0.368264
0.368333
0.368402
0.368402
0.368471
0.368541
0.36861
0.368679
0.368679
0.368749
0.368818
0.368888
0.368957
0.368957
0.369027
0.369096
0.369166
0.369235
0.369235
0.369305
0.369375
0.369444
0.369514
0.369514
0.369584
0.369653
0.369723
0.369793
0.369793
0.369863
0.369933
0.370003
0.370073
0.370073
0.370143
0.370213
0.370283
0.370353
0.370353
0.370423
0.370493
0.370563
0.370633
0.370633
0.370703
0.370774
0.370844
0.370914
0.370914
0.370984
0.371055
0.371125
0.371196
0.371196
0.371266
0.371336
0.371407
0.371478
0.371478
0.371548
0.371619
0.371689
0.37176
0.37176
0.371831
0.371901
0.371972
0.372043
0.372043
0.372114
0.372184
0.372255
0.372326
0.372326
0.372397
0.372468
0.372539
0.37261
0.37261
0.372681
0.372752
0.372823
0.372894
0.372894
0.372965
0.373036
0.373108
0.373179
0.373179
0.37325
0.373321
0.373393
0.373464
0.373464
0.373535
0.373607
0.373678
0.37375
0.37375
0.373821
0.373893
0.373964
0.374036
0.374036
0.374107
0.374179
0.374251
0.374322
0.374322
0.374394
0.374466
0.374538
0.374609
0.374609
0.374681
0.374753
0.374825
0.374897
0.374897
0.374969
0.375041
0.375113
0.375185
0.375185
0.375257
0.375329
0.375401
0.375473
0.375473
0.375545
0.375618
0.37569
0.375762
0.375762
0.375834
0.375907
0.375979
0.376051
0.376051
0.376124
0.376196
0.376269
0.376341
0.376341
0.376414
0.376486
0.376559
0.376632
0.376632
0.376704
0.376777
0.37685
0.376922
0.376922
0.376995
0.377068
0.377141
0.377214
0.377214
0.377286
0.377359
0.377432
0.377505
0.377505
0.377578
0.377651
0.377724
0.377797
0.377797
0.37787
0.377944
0.378017
0.37809
0.37809
0.378163
0.378236
0.37831
0.378383
0.378383
0.378456
0.37853
0.378603
0.378677
0.378677
0.37875
0.378824
0.378897
0.378971
0.378971
0.379044
0.379118
0.379191
0.379265
0.379265
0.379339
0.379412
0.379486
0.37956
0.37956
0.379634
0.379708
0.379781
0.379855
0.379855
0.379929
0.380003
0.380077
0.380151
0.380151
0.380225
0.380299
0.380373
0.380448
0.380448
0.380522
0.380596
0.38067
0.380744
0.380744
0.380819
0.380893
0.380967
0.381041
0.381041
0.381116
0.38119
0.381265
0.381339
0.381339
0.381414
0.381488
0.381563
0.381637
0.381637
0.381712
0.381787
0.381861
0.381936
0.381936
0.382011
0.382085
0.38216
0.382235
0.382235
0.38231
0.382385
0.38246
0.382535
0.382535
0.382609
0.382684
0.382759
0.382835
0.382835
0.38291
0.382985
0.38306
0.383135
0.383135
0.38321
0.383285
0.383361
0.383436
0.383436
0.383511
0.383586
0.383662
0.383737
0.383737
0.383813
0.383888
0.383964
0.384039
0.384039
0.384115
0.38419
0.384266
0.384341
0.384341
0.384417
0.384493
0.384568
0.384644
0.384644
0.38472
0.384796
0.384871
0.384947
0.384947
0.385023
0.385099
0.385175
0.385251
0.385251
0.385327
0.385403
0.385479
0.385555
0.385555
0.385631
0.385707
0.385783
0.38586
0.38586
0.385936
0.386012
0.386088
0.386165
0.386165
0.386241
0.386317
0.386394
0.38647
0.38647
0.386547
0.386623
0.3867
0.386776
0.386776
0.386853
0.386929
0.387006
0.387083
0.387083
0.387159
0.387236
0.387313
0.387389
0.387389
0.387466
0.387543
0.38762
0.387697
0.387697
0.387774
0.387851
0.387927
0.388004
0.388004
0.388081
0.388159
0.388236
0.388313
0.388313
0.38839
0.388467
0.388544
0.388621
0.388621
0.388699
0.388776
0.388853
0.388931
0.388931
0.389008
0.389085
0.389163
0.38924
0.38924
0.389318
0.389395
0.389473
0.38955
0.38955
0.389628
0.389705
0.389783
0.389861
0.389861
0.389938
0.390016
0.390094
0.390172
0.390172
0.390249
0.390327
0.390405
0.390483
0.390483
0.390561
0.390639
0.390717
0.390795
0.390795
0.390873
0.390951
0.391029
0.391107
0.391107
0.391185
0.391264
0.391342
0.39142
0.39142
0.391498
0.391577
0.391655
0.391733
0.391733
0.391812
0.39189
0.391968
0.392047
0.392047
0.392125
0.392204
0.392282
0.392361
0.392361
0.39244
0.392518
0.392597
0.392676
0.392676
0.392754
0.392833
0.392912
0.392991
0.392991
0.39307
0.393148
0.393227
0.393306
0.393306
0.393385
0.393464
0.393543
0.393622
0.393622
0.393701
0.39378
0.393859
0.393939
0.393939
0.394018
0.394097
0.394176
0.394255
0.394255
0.394335
0.394414
0.394493
0.394573
0.394573
0.394652
0.394731
0.394811
0.39489
0.39489
0.39497
0.395049
0.395129
0.395209
0.395209
0.395288
0.395368
0.395448
0.395527
0.395527
0.395607
0.395687
0.395767
0.395846
0.395846
0.395926
0.396006
0.396086
0.396166
0.396166
0.396246
0.396326
0.396406
0.396486
0.396486
0.396566
0.396646
0.396726
0.396806
0.396806
0.396887
0.396967
0.397047
0.397127
0.397127
0.397208
0.397288
0.397368
0.397449
0.397449
0.397529
0.39761
0.39769
0.39777
0.39777
0.397851
0.397932
0.398012
0.398093
0.398093
0.398173
0.398254
0.398335
0.398415
0.398415
0.398496
0.398577
0.398658
0.398739
0.398739
0.398819
0.3989
0.398981
0.399062
0.399062
0.399143
0.399224
0.399305
0.399386
0.399386
0.399467
0.399548
0.39963
0.399711
0.399711
0.399792
0.399873
0.399954
0.400036
0.400036
0.400117
0.400198
0.40028
0.400361
0.400361
0.400443
0.400524
0.400605
0.400687
0.400687
0.400768
0.40085
0.400932
0.401013
0.401013
0.401095
0.401177
0.401258
0.40134
0.40134
0.401422
0.401504
0.401585
0.401667
0.401667
0.401749
0.401831
0.401913
0.401995
0.401995
0.402077
0.402159
0.402241
0.402323
0.402323
0.402405
0.402487
0.402569
0.402651
0.402651
0.402734
0.402816
0.402898
0.40298
0.40298
0.403063
0.403145
0.403227
0.40331
0.40331
0.403392
0.403475
0.403557
0.40364
0.40364
0.403722
0.403805
0.403887
0.40397
0.40397
0.404053
0.404135
0.404218
0.404301
0.404301
0.404383
0.404466