<?xml version="1.0"?>
<VTKFile type="UnstructuredGrid" version="0.1" byte_order="LittleEndian">
<UnstructuredGrid>
<Piece NumberOfPoints="5000" NumberOfCells="4000">
<PointData Scalars="Reaction 0">
<DataArray type="Float32" Name="Reaction 0" format="ascii">
0.991177
0.991177
0.991177
0.991177
0.991177
0.991177
0.991177
0.991177
0.991177
0.991177
0.991177
0.991177
0.991177
0.991177
0.991177
0.991177
0.991177
0.991177
0.991177
0.991177
0.991177
0.991177
0.991177
0.991177
0.991177
0.991177
0.991177
0.991177
0.991176
0.991176
0.991176
0.991176
0.991176
0.991176
0.991176
0.991176
0.991176
0.991176
0.991176
0.991176
0.991176
0.991176
0.991176
0.991176
0.991176
0.991176
0.991176
0.991176
0.991176
0.991176
0.991176
0.991176
0.991176
0.991175
0.991175
0.991175
0.991175
0.991175
0.991175
0.991175
0.991175
0.991175
0.991175
0.991175
0.991175
0.991175
0.991175
0.991175
0.991175
0.991174
0.991174
0.991174
0.991174
0.991174
0.991174
0.991174
0.991174
0.991174
0.991174
0.991174
0.991174
0.991174
0.991174
0.991173
0.991173
0.991173
0.991173
0.991173
0.991173
0.991173
0.991173
0.991173
0.991173
0.991173
0.991172
0.991172
0.991172
0.991172
0.991172
0.991172
0.991172
0.991172
0.991172
0.991172
0.991171
0.991171
0.991171
0.991171
0.991171
0.991171
0.991171
0.991171
0.991171
0.991171
0.99117
0.99117
0.99117
0.99117
0.99117
0.99117
0.99117
0.99117
0.99117
0.991169
0.991169
0.991169
0.991169
0.991169
0.991169
0.991169
0.991169
0.991168
0.991168
0.991168
0.991168
0.991168
0.991168
0.991168
0.991167
0.991167
0.991167
0.991167
0.991167
0.991167
0.991167
0.991167
0.991166
0.991166
0.991166
0.991166
0.991166
0.991166
0.991165
0.991165
0.991165
0.991165
0.991165
0.991165
0.991165
0.991164
0.991164
0.991164
0.991164
0.991164
0.991164
0.991164
0.991163
0.991163
0.991163
0.991163
0.991163
0.991162
0.991162
0.991162
0.991162
0.991162
0.991162
0.991161
0.991161
0.991161
0.991161
0.991161
0.991161
0.99116
0.99116
0.99116
0.99116
0.99116
0.991159
0.991159
0.991159
0.991159
0.991159
0.991158
0.991158
0.991158
0.991158
0.991158
0.991157
0.991157
0.991157
0.991157
0.991157
0.991156
0.991156
0.991156
0.991156
0.991156
0.991155
0.991155
0.991155
0.991155
0.991155
0.991154
0.991154
0.991154
0.991154
0.991154
0.991153
0.991153
0.991153
0.991153
0.991153
0.991152
0.991152
0.991152
0.991152
0.991151
0.991151
0.991151
0.991151
0.991151
0.99115
0.99115
0.99115
0.99115
0.991149
0.991149
0.991149
0.991149
0.991149
0.991148
0.991148
0.991148
0.991147
0.991147
0.991147
0.991147
0.991146
0.991146
0.991146
0.991146
0.991146
0.991145
0.991145
0.991145
0.991145
0.991144
0.991144
0.991144
0.991144
0.991143
0.991143
0.991143
0.991142
0.991142
0.991142
0.991142
0.991141
0.991141
0.991141
0.991141
0.99114
0.99114
0.99114
0.99114
0.991139
0.991139
0.991139
0.991138
0.991138
0.991138
0.991138
0.991137
0.991137
0.991137
0.991137
0.991136
0.991136
0.991136
0.991136
0.991135
0.991135
0.991135
0.991134
0.991134
0.991134
0.991133
0.991133
0.991133
0.991133
0.991132
0.991132
0.991132
0.991131
0.991131
0.991131
0.99113
0.99113
0.99113
0.99113
0.991129
0.991129
0.991129
0.991128
0.991128
0.991128
0.991127
0.991127
0.991127
0.991127
0.991126
0.991126
0.991125
0.991125
0.991125
0.991125
0.991124
0.991124
0.991123
0.991123
0.991123
0.991123
0.991122
0.991122
0.991122
0.991121
0.991121
0.991121
0.99112
0.99112
0.99112
0.991119
0.991119
0.991118
0.991118
0.991118
0.991118
0.991117
0.991117
0.991117
0.991116
0.991116
0.991115
0.991115
0.991115
0.991115
0.991114
0.991114
0.991113
0.991113
0.991113
0.991112
0.991112
0.991111
0.991111
0.991111
0.991111
0.99111
0.99111
0.99111
0.991109
0.991109
0.991108
0.991108
0.991108
0.991107
0.991107
0.991106
0.991106
0.991106
0.991106
0.991105
0.991105
0.991104
0.991104
0.991104
0.991103
0.991103
0.991102
0.991102
0.991102
0.991101
0.991101
0.9911
0.9911
0.9911
0.991099
0.991099
0.991098
0.991098
0.991098
0.991097
0.991097
0.991096
0.991096
0.991096
0.991095
0.991095
0.991094
0.991094
0.991094
0.991093
0.991093
0.991092
0.991092
0.991092
0.991091
0.991091
0.99109
0.99109
0.99109
0.991089
0.991089
0.991088
0.991088
0.991088
0.991087
0.991087
0.991086
0.991086
0.991086
0.991085
0.991084
0.991084
0.991084
0.991083
0.991083
0.991082
0.991082
0.991082
0.991081
0.991081
0.99108
0.99108
0.99108
0.991079
0.991079
0.991078
0.991077
0.991077
0.991077
0.991076
0.991076
0.991075
0.991075
0.991075
0.991074
0.991074
0.991073
0.991073
0.991072
0.991072
0.991071
0.991071
0.991071
0.99107
0.99107
0.991069
0.991068
0.991068
0.991068
0.991067
0.991067
0.991066
0.991066
0.991066
0.991065
0.991064
0.991064
0.991064
0.991063
0.991063
0.991062
0.991061
0.991061
0.991061
0.99106
0.99106
0.991059
0.991059
0.991058
0.991058
0.991057
0.991057
0.991057
0.991056
0.991055
0.991055
0.991054
0.991054
0.991054
0.991053
0.991052
0.991052
0.991052
0.991051
0.99105
0.99105
0.991049
0.991049
0.991049
0.991048
0.991047
0.991047
0.991047
0.991046
0.991045
0.991045
0.991044
0.991044
0.991043
0.991043
0.991042
0.991042
0.991042
0.991041
0.99104
0.99104
0.991039
0.991039
0.991038
0.991038
0.991037
0.991036
0.991036
0.991036
0.991035
0.991034
0.991034
0.991034
0.991033
0.991032
0.991032
0.991031
0.991031
0.99103
0.99103
0.991029
0.991028
0.991028
0.991028
0.991027
0.991026
0.991026
0.991026
0.991025
0.991024
0.991024
0.991023
0.991023
0.991022
0.991022
0.991021
0.99102
0.99102
0.991019
0.991019
0.991018
0.991017
0.991017
0.991017
0.991016
0.991015
0.991015
0.991015
0.991014
0.991013
0.991012
0.991012
0.991012
0.991011
0.99101
0.99101
0.991009
0.991009
0.991008
0.991007
0.991007
0.991006
0.991006
0.991005
0.991005
0.991004
0.991003
0.991003
0.991002
0.991002
0.991001
0.991
0.991
0.990999
0.990999
0.990998
0.990997
0.990997
0.990996
0.990996
0.990995
0.990994
0.990994
0.990993
0.990993
0.990992
0.990991
0.990991
0.99099
0.99099
0.990989
0.990988
0.990988
0.990987
0.990987
0.990986
0.990985
0.990985
0.990984
0.990984
0.990983
0.990982
0.990982
0.990981
0.99098
0.99098
0.990979
0.990979
0.990978
0.990977
0.990977
0.990976
0.990976
0.990975
0.990974
0.990973
0.990973
0.990973
0.990972
0.990971
0.99097
0.990969
0.990969
0.990969
0.990968
0.990967
0.990966
0.990966
0.990965
0.990965
0.990964
0.990963
0.990963
0.990962
0.990961
0.990961
0.99096
0.99096
0.990959
0.990958
0.990957
0.990956
0.990956
0.990956
0.990955
0.990954
0.990953
0.990953
0.990952
0.990952
0.990951
0.99095
0.99095
0.990949
0.990948
0.990947
0.990946
0.990946
0.990946
0.990945
0.990944
0.990943
0.990943
0.990942
0.990941
0.990941
0.99094
0.99094
0.990939
0.990938
0.990937
0.990936
0.990936
0.990935
0.990935
0.990934
0.990933
0.990933
0.990932
0.990931
0.99093
0.990929
0.990929
0.990929
0.990928
0.990927
0.990926
0.990926
0.990925
0.990924
0.990923
0.990922
0.990922
0.990921
0.990921
0.99092
0.990919
0.990919
0.990918
0.990917
0.990916
0.990915
0.990915
0.990914
0.990913
0.990913
0.990912
0.990912
0.990911
0.99091
0.990909
0.990908
0.990908
0.990907
0.990906
0.990905
0.990904
0.990904
0.990903
0.990903
0.990902
0.990901
0.990901
0.9909
0.990899
0.990898
0.990897
0.990897
0.990896
0.990895
0.990894
0.990893
0.990893
0.990892
0.990891
0.990891
0.99089
0.99089
0.990889
0.990888
0.990887
0.990886
0.990886
0.990885
0.990884
0.990883
0.990882
0.990882
0.990881
0.99088
0.990879
0.990878
0.990878
0.990877
0.990876
0.990875
0.990874
0.990874
0.990873
0.990872
0.990871
0.99087
0.99087
0.99087
0.990869
0.990868
0.990867
0.990867
0.990866
0.990865
0.990864
0.990863
0.990863
0.990862
0.990861
0.99086
0.990859
0.990859
0.990858
0.990857
0.990856
0.990855
0.990855
0.990854
0.990853
0.990852
0.990851
0.990851
0.99085
0.990849
0.990848
0.990847
0.990847
0.990846
0.990845
0.990844
0.990843
0.990843
0.990842
0.990841
0.99084
0.990839
0.990839
0.990838
0.990837
0.990836
0.990835
0.990835
0.990834
0.990833
0.990832
0.99083
0.99083
0.990829
0.990828
0.990827
0.990826
0.990826
0.990825
0.990824
0.990823
0.990822
0.990822
0.990821
0.99082
0.990819
0.990818
0.990818
0.990817
0.990816
0.990815
0.990814
0.990814
0.990813
0.990812
0.990811
0.99081
0.99081
0.990809
0.990807
0.990806
0.990805
0.990805
0.990804
0.990803
0.990802
0.990801
0.990801
0.9908
0.990799
0.990798
0.990797
0.990797
0.990796
0.990795
0.990793
0.990792
0.990792
0.990791
0.99079
0.990789
0.990788
0.990788
0.990787
0.990786
0.990785
0.990784
0.990784
0.990783
0.990781
0.99078
0.990779
0.990779
0.990778
0.990777
0.990776
0.990775
0.990775
0.990774
0.990773
0.990772
0.99077
0.99077
0.990769
0.990768
0.990767
0.990766
0.990766
0.990765
0.990764
0.990763
0.990761
0.990761
0.99076
0.990759
0.990758
0.990757
0.990757
0.990756
0.990755
0.990753
0.990752
0.990752
0.990751
0.99075
0.990749
0.990748
0.990748
0.990747
0.990745
0.990744
0.990743
0.990743
0.990742
0.990741
0.99074
0.990739
0.990739
0.990737
0.990736
0.990735
0.990734
0.990734
0.990733
0.990732
0.99073
0.990729
0.990729
0.990728
0.990727
0.990726
0.990725
0.990725
0.990723
0.990722
0.990721
0.99072
0.99072
0.990719
0.990717
0.990716
0.990715
0.990715
0.990714
0.990713
0.990711
0.99071
0.99071
0.990709
0.990708
0.990707
0.990705
0.990705
0.990704
0.990703
0.990702
0.990701
0.990701
0.990699
0.990698
0.990697
0.990696
0.990696
0.990695
0.990693
0.990692
0.990691
0.990691
0.99069
0.990689
0.990687
0.990686
0.990686
0.990685
0.990684
0.990682
0.990681
0.990681
0.99068
0.990679
0.990677
0.990676
0.990676
0.990675
0.990674
0.990672
0.990671
0.990671
0.99067
0.990669
0.990668
0.990666
0.990666
0.990665
0.990664
0.990663
0.990661
0.990661
0.99066
0.990659
0.990657
0.990656
0.990656
0.990655
0.990654
0.990652
0.990651
0.990651
0.99065
0.990649
0.990647
0.990646
0.990646
0.990645
0.990644
0.990642
0.990641
0.990641
0.99064
0.990638
0.990637
0.990636
0.990636
0.990635
0.990633
0.990632
0.990631
0.990631
0.990629
0.990628
0.990627
0.990625
0.990625
0.990624
0.990623
0.990622
0.99062
0.99062
0.990619
0.990618
0.990616
0.990615
0.990615
0.990614
0.990612
0.990611
0.99061
0.99061
0.990608
0.990607
0.990606
0.990604
0.990604
0.990603
0.990602
0.9906
0.990599
0.990599
0.990598
0.990596
0.990595
0.990594
0.990594
0.990592
0.990591
0.99059
0.990588
0.990588
0.990587
0.990586
0.990584
0.990583
0.990583
0.990582
0.99058
0.990579
0.990578
0.990578
0.990576
0.990575
0.990574
0.990572
0.990572
0.990571
0.990569
0.990568
0.990567
0.990567
0.990565
0.990564
0.990563
0.990561
0.990561
0.99056
0.990559
0.990557
0.990556
0.990556
0.990554
0.990553
0.990552
0.99055
0.99055
0.990549
0.990547
0.990546
0.990545
0.990545
0.990543
0.990542
0.99054
0.990539
0.990539
0.990538
0.990536
0.990535
0.990533
0.990533
0.990532
0.99053
0.990529
0.990528
0.990528
0.990526
0.990525
0.990523
0.990522
0.990522
0.99052
0.990519
0.990518
0.990516
0.990516
0.990515
0.990513
0.990512
0.99051
0.99051
0.990509
0.990508
0.990506
0.990505
0.990505
0.990503
0.990502
0.9905
0.990499
0.990499
0.990497
0.990496
0.990495
0.990493
0.990493
0.990492
0.99049
0.990489
0.990487
0.990487
0.990486
0.990484
0.990483
0.990481
0.990481
0.99048
0.990479
0.990477
0.990476
0.990476
0.990474
0.990473
0.990471
0.99047
0.99047
0.990468
0.990467
0.990465
0.990464
0.990464
0.990462
0.990461
0.990459
0.990458
0.990458
0.990456
0.990455
0.990453
0.990452
0.990452
0.99045
0.990449
0.990447
0.990446
0.990446
0.990444
0.990443
0.990441
0.99044
0.99044
0.990438
0.990437
0.990435
0.990434
0.990434
0.990432
0.990431
0.990429
0.990428
0.990428
0.990426
0.990424
0.990423
0.990421
0.990421
0.99042
0.990418
0.990417
0.990415
0.990415
0.990414
0.990412
0.990411
0.990409
0.990409
0.990407
0.990406
0.990404
0.990403
0.990403
0.990401
0.9904
0.990398
0.990397
0.990397
0.990395
0.990393
0.990392
0.99039
0.99039
0.990389
0.990387
0.990386
0.990384
0.990384
0.990382
0.990381
0.990379
0.990378
0.990378
0.990376
0.990375
0.990373
0.990371
0.990371
0.99037
0.990368
0.990367
0.990365
0.990365
0.990363
0.990362
0.99036
0.990359
0.990359
0.990357
0.990355
0.990354
0.990352
0.990352
0.990351
0.990349
0.990347
0.990346
0.990346
0.990344
0.990342
0.990341
0.990339
0.990339
0.990338
0.990336
0.990334
0.990333
0.990333
0.990331
0.990329
0.990328
0.990326
0.990326
0.990325
0.990323
0.990321
0.99032
0.99032
0.990318
0.990316
0.990315
0.990313
0.990313
0.990311
0.99031
0.990308
0.990307
0.990307
0.990305
0.990303
0.990302
0.9903
0.9903
0.990298
0.990297
0.990295
0.990293
0.990293
0.990292
0.99029
0.990288
0.990287
0.990287
0.990285
0.990283
0.990282
0.99028
0.99028
0.990278
0.990277
0.990275
0.990273
0.990273
0.990272
0.99027
0.990268
0.990266
0.990266
0.990265
0.990263
0.990261
0.99026
0.99026
0.990258
0.990256
0.990255
0.990253
0.990253
0.990251
0.99025
0.990248
0.990246
0.990246
0.990244
0.990243
0.990241
0.990239
0.990239
0.990238
0.990236
0.990234
0.990232
0.990232
0.990231
0.990229
0.990227
0.990226
0.990226
0.990224
0.990222
0.99022
0.990219
0.990219
0.990217
0.990215
0.990213
0.990212
0.990212
0.99021
0.990208
0.990206
0.990205
0.990205
0.990203
0.990201
0.990199
0.990198
0.990198
0.990196
0.990194
0.990192
0.990191
0.990191
0.990189
0.990187
0.990185
0.990184
0.990184
0.990182
0.99018
0.990178
0.990177
0.990177
0.990175
0.990173
0.990171
0.99017
0.99017
0.990168
0.990166
0.990164
0.990162
0.990162
0.990161
0.990159
0.990157
0.990155
0.990155
0.990154
0.990152
0.99015
0.990148
0.990148
0.990146
0.990145
0.990143
0.990141
0.990141
0.990139
0.990137
0.990136
0.990134
0.990134
0.990132
0.99013
0.990128
0.990127
0.990127
0.990125
0.990123
0.990121
0.990119
0.990119
0.990117
0.990116
0.990114
0.990112
0.990112
0.99011
0.990108
0.990106
0.990105
0.990105
0.990103
0.990101
0.990099
0.990097
0.990097
0.990095
0.990094
0.990092
0.99009
0.99009
0.990088
0.990086
0.990084
0.990083
0.990083
0.990081
0.990079
0.990077
0.990075
0.990075
0.990073
0.990071
0.99007
0.990068
0.990068
0.990066
0.990064
0.990062
0.99006
0.99006
0.990058
0.990057
0.990055
0.990053
0.990053
0.990051
0.990049
0.990047
0.990045
0.990045
0.990043
0.990042
0.99004
0.990038
0.990038
0.990036
0.990034
0.990032
0.99003
0.99003
0.990028
0.990026
0.990025
0.990023
0.990023
0.990021
0.990019
0.990017
0.990015
0.990015
0.990013
0.990011
0.990009
0.990007
0.990007
0.990006
0.990004
0.990002
0.99
0.99
0.989998
0.989996
0.989994
0.989992
0.989992
0.98999
0.989988
0.989986
0.989984
0.989984
0.989982
0.989981
0.989979
0.989977
0.989977
0.989975
0.989973
0.989971
0.989969
0.989969
0.989967
0.989965
0.989963
0.989961
0.989961
0.989959
0.989957
0.989955
0.989953
0.989953
0.989951
0.989949
0.989947
0.989946
0.989946
0.989944
0.989942
0.98994
0.989938
0.989938
0.989936
0.989934
0.989932
0.98993
0.98993
0.989928
0.989926
0.989924
0.989922
0.989922
0.98992
0.989918
0.989916
0.989914
0.989914
0.989912
0.98991
0.989908
0.989906
0.989906
0.989904
0.989902
0.9899
0.989898
0.989898
0.989896
0.989894
0.989892
0.98989
0.98989
0.989888
0.989886
0.989884
0.989882
0.989882
0.98988
0.989878
0.989876
0.989874
0.989874
0.989872
0.98987
0.989868
0.989866
0.989866
0.989864
0.989862
0.98986
0.989858
0.989858
0.989856
0.989854
0.989852
0.98985
0.98985
0.989848
0.989846
0.989844
0.989842
0.989842
0.98984
0.989837
0.989835
0.989833
0.989833
0.989831
0.989829
0.989827
0.989825
0.989825
0.989823
0.989821
0.989819
0.989817
0.989817
0.989815
0.989813
0.989811
0.989809
0.989809
0.989807
0.989805
0.989803
0.9898
0.9898
0.989798
0.989796
0.989794
0.989792
0.989792
0.98979
0.989788
0.989786
0.989784
0.989784
0.989782
0.98978
0.989778
0.989775
0.989775
0.989773
0.989771
0.989769
0.989767
0.989767
0.989765
0.989763
0.989761
0.989759
0.989759
0.989757
0.989755
0.989752
0.98975
0.98975
0.989748
0.989746
0.989744
0.989742
0.989742
0.98974
0.989738
0.989736
0.989733
0.989733
0.989731
0.989729
0.989727
0.989725
0.989725
0.989723
0.989721
0.989719
0.989716
0.989716
0.989714
0.989712
0.98971
0.989708
0.989708
0.989706
0.989704
0.989701
0.989699
0.989699
0.989697
0.989695
0.989693
0.989691
0.989691
0.989689
0.989686
0.989684
0.989682
0.989682
0.98968
0.989678
0.989676
0.989673
0.989673
0.989671
0.989669
0.989667
0.989665
0.989665
0.989663
0.98966
0.989658
0.989656
0.989656
0.989654
0.989652
0.98965
0.989647
0.989647
0.989645
0.989643
0.989641
0.989639
0.989639
0.989636
0.989634
0.989632
0.98963
0.98963
0.989628
0.989625
0.989623
0.989621
0.989621
0.989619
0.989617
0.989614
0.989612
0.989612
0.98961
0.989608
0.989606
0.989603
0.989603
0.989601
0.989599
0.989597
0.989595
0.989595
0.989592
0.98959
0.989588
0.989586
0.989586
0.989583
0.989581
0.989579
0.989577
0.989577
0.989574
0.989572
0.98957
0.989568
0.989568
0.989565
0.989563
0.989561
0.989559
0.989559
0.989556
0.989554
0.989552
0.98955
0.98955
0.989547
0.989545
0.989543
0.98954
0.98954
0.989538
0.989536
0.989534
0.989531
0.989531
0.989529
0.989527
0.989524
0.989522
0.989522
0.98952
0.989518
0.989515
0.989513
0.989513
0.989511
0.989508
0.989506
0.989504
0.989504
0.989502
0.989499
0.989497
0.989495
0.989495
0.989492
0.98949
0.989488
0.989485
0.989485
0.989483
0.989481
0.989479
0.989476
0.989476
0.989474
0.989472
0.989469
0.989467
0.989467
0.989465
0.989462
0.98946
0.989458
0.989458
0.989455
0.989453
0.989451
0.989449
0.989449
0.989446
0.989444
0.989442
0.989439
0.989439
0.989437
0.989435
0.989432
0.98943
0.98943
0.989427
0.989425
0.989423
0.98942
0.98942
0.989418
0.989416
0.989413
0.989411
0.989411
0.989409
0.989406
0.989404
0.989402
0.989402
0.989399
0.989397
0.989394
0.989392
0.989392
0.98939
0.989387
0.989385
0.989383
0.989383
0.98938
0.989378
0.989375
0.989373
0.989373
0.989371
0.989368
0.989366
0.989363
0.989363
0.989361
0.989359
0.989356
0.989354
0.989354
0.989351
0.989349
0.989347
0.989344
0.989344
0.989342
0.989339
0.989337
0.989334
0.989334
0.989332
0.98933
0.989327
0.989325
0.989325
0.989322
0.98932
0.989317
0.989315
0.989315
0.989313
0.98931
0.989308
0.989305
0.989305
0.989303
0.9893
0.989298
0.989296
0.989296
0.989293
0.989291
0.989288
0.989286
0.989286
0.989283
0.989281
0.989278
0.989276
0.989276
0.989273
0.989271
0.989269
0.989266
0.989266
0.989264
0.989261
0.989259
0.989256
0.989256
0.989254
0.989251
0.989249
0.989246
0.989246
0.989244
0.989241
0.989239
0.989236
0.989236
0.989234
0.989231
0.989229
0.989226
0.989226
0.989224
0.989222
0.989219
0.989217
0.989217
0.989214
0.989212
0.989209
0.989207
0.989207
0.989204
0.989202
0.989199
0.989197
0.989197
0.989194
0.989191
0.989189
0.989186
0.989186
0.989184
0.989181
0.989179
0.989176
0.989176
0.989174
0.989171
0.989169
0.989166
0.989166
0.989164
0.989161
0.989159
0.989156
0.989156
0.989154
0.989151
0.989149
0.989146
0.989146
0.989144
0.989141
0.989138
0.989136
0.989136
0.989133
0.989131
0.989128
0.989126
0.989126
0.989123
0.989121
0.989118
0.989115
0.989115
0.989113
0.98911
0.989108
0.989105
0.989105
0.989103
0.9891
0.989098
0.989095
0.989095
0.989092
0.98909
0.989087
0.989085
0.989085
0.989082
0.98908
0.989077
0.989074
0.989074
0.989072
0.989069
0.989067
0.989064
0.989064
0.989061
0.989059
0.989056
0.989054
0.989054
0.989051
0.989048
0.989046
0.989043
0.989043
0.989041
0.989038
0.989035
0.989033
0.989033
0.98903
0.989028
0.989025
0.989022
0.989022
0.98902
0.989017
0.989015
0.989012
0.989012
0.989009
0.989007
0.989004
0.989001
0.989001
0.988999
0.988996
0.988994
0.988991
0.988991
0.988988
0.988986
0.988983
0.98898
0.98898
0.988978
0.988975
0.988973
0.98897
0.98897
0.988967
0.988965
0.988962
0.988959
0.988959
0.988957
0.988954
0.988951
0.988949
0.988949
0.988946
0.988943
0.988941
0.988938
0.988938
0.988935
0.988933
0.98893
0.988927
0.988927
0.988925
0.988922
0.988919
0.988917
0.988917
0.988914
0.988911
0.988909
0.988906
0.988906
0.988903
0.988901
0.988898
0.988895
0.988895
0.988893
0.98889
0.988887
0.988884
0.988884
0.988882
0.988879
0.988876
0.988874
0.988874
0.988871
0.988868
0.988866
0.988863
0.988863
0.98886
0.988857
0.988855
0.988852
0.988852
0.988849
0.988847
0.988844
0.988841
0.988841
0.988838
0.988836
0.988833
0.98883
0.98883
0.988828
0.988825
0.988822
0.988819
0.988819
0.988817
0.988814
0.988811
0.988808
0.988808
0.988806
0.988803
0.9888
0.988798
0.988798
0.988795
0.988792
0.988789
0.988787
0.988787
0.988784
0.988781
0.988778
0.988776
0.988776
0.988773
0.98877
0.988767
0.988764
0.988764
0.988762
0.988759
0.988756
0.988753
0.988753
0.988751
0.988748
0.988745
0.988742
0.988742
0.98874
0.988737
0.988734
0.988731
0.988731
0.988728
0.988726
0.988723
0.98872
0.98872
0.988717
0.988715
0.988712
0.988709
0.988709
0.988706
0.988703
0.988701
0.988698
0.988698
0.988695
0.988692
0.988689
0.988687
0.988687
0.988684
0.988681
0.988678
0.988675
0.988675
0.988672
0.98867
0.988667
0.988664
0.988664
0.988661
0.988658
0.988656
0.988653
0.988653
0.98865
0.988647
0.988644
0.988641
0.988641
0.988639
0.988636
0.988633
0.98863
0.98863
0.988627
0.988624
0.988622
0.988619
0.988619
0.988616
0.988613
0.98861
0.988607
0.988607
0.988604
0.988602
0.988599
0.988596
0.988596
0.988593
0.98859
0.988587
0.988584
0.988584
0.988581
0.988579
0.988576
0.988573
0.988573
0.98857
0.988567
0.988564
0.988561
0.988561
0.988558
0.988555
0.988552
0.98855
0.98855
0.988547
0.988544
0.988541
0.988538
0.988538
0.988535
0.988532
0.988529
0.988526
0.988526
0.988523
0.98852
0.988517
0.988515
0.988515
0.988512
0.988509
0.988506
0.988503
0.988503
0.9885
0.988497
0.988494
0.988491
0.988491
0.988488
0.988485
0.988482
0.988479
0.988479
0.988477
0.988474
0.988471
0.988468
0.988468
0.988465
0.988462
0.988459
0.988456
0.988456
0.988453
0.98845
0.988447
0.988444
0.988444
0.988441
0.988438
0.988435
0.988433
0.988433
0.98843
0.988427
0.988424
0.988421
0.988421
0.988418
0.988415
0.988412
0.988409
0.988409
0.988406
0.988403
0.9884
0.988397
0.988397
0.988394
0.988391
0.988388
0.988385
0.988385
0.988382
0.988379
0.988376
0.988373
0.988373
0.98837
0.988367
0.988364
0.988361
0.988361
0.988358
0.988355
0.988352
0.988349
0.988349
0.988346
0.988343
0.98834
0.988337
0.988337
0.988334
0.988331
0.988328
0.988325
0.988325
0.988322
0.988319
0.988316
0.988313
0.988313
0.98831
0.988307
0.988303
0.9883
0.9883
0.988297
0.988294
0.988291
0.988288
0.988288
0.988285
0.988282
0.988279
0.988276
0.988276
0.988273
0.98827
0.988267
0.988264
0.988264
0.988261
0.988258
0.988255
0.988252
0.988252
0.988248
0.988245
0.988242
0.988239
0.988239
0.988236
0.988233
0.98823
0.988227
0.988227
0.988224
0.988221
0.988218
0.988215
0.988215
0.988211
0.988208
0.988205
0.988202
0.988202
0.988199
0.988196
0.988193
0.98819
0.98819
0.988187
0.988184
0.98818
0.988177
0.988177
0.988174
0.988171
0.988168
0.988165
0.988165
0.988162
0.988159
0.988156
0.988152
0.988152
0.988149
0.988146
0.988143
0.98814
0.98814
0.988137
0.988134
0.988131
0.988127
0.988127
0.988124
0.988121
0.988118
0.988115
0.988115
0.988112
0.988109
0.988105
0.988102
0.988102
0.988099
0.988096
0.988093
0.98809
0.98809
0.988087
0.988083
0.98808
0.988077
0.988077
0.988074
0.988071
0.988068
0.988064
0.988064
0.988061
0.988058
0.988055
0.988052
0.988052
0.988049
0.988045
0.988042
0.988039
0.988039
0.988036
0.988033
0.98803
0.988026
0.988026
0.988023
0.98802
0.988017
0.988014
0.988014
0.98801
0.988007
0.988004
0.988001
0.988001
0.987998
0.987995
0.987991
0.987988
0.987988
0.987985
0.987982
0.987978
0.987975
0.987975
0.987972
0.987969
0.987966
0.987962
0.987962
0.987959
0.987956
0.987953
0.98795
0.98795
0.987946
0.987943
0.98794
0.987937
0.987937
0.987933
0.98793
0.987927
0.987924
0.987924
0.987921
0.987917
0.987914
0.987911
0.987911
0.987908
0.987904
0.987901
0.987898
0.987898
0.987895
0.987891
0.987888
0.987885
0.987885
0.987882
0.987878
0.987875
0.987872
0.987872
0.987869
0.987865
0.987862
0.987859
0.987859
0.987856
0.987852
0.987849
0.987846
0.987846
0.987842
0.987839
0.987836
0.987833
0.987833
0.987829
0.987826
0.987823
0.987819
0.987819
0.987816
0.987813
0.98781
0.987806
0.987806
0.987803
0.9878
0.987796
0.987793
0.987793
0.98779
0.987787
0.987783
0.98778
0.98778
0.987777
0.987773
0.98777
0.987767
0.987767
0.987763
0.98776
0.987757
0.987754
0.987754
0.98775
0.987747
0.987744
0.98774
0.98774
0.987737
0.987734
0.98773
0.987727
0.987727
0.987724
0.98772
0.987717
0.987714
0.987714
0.98771
0.987707
0.987704
0.9877
0.9877
0.987697
0.987694
0.98769
0.987687
0.987687
0.987684
0.98768
0.987677
0.987673
0.987673
0.98767
0.987667
0.987663
0.98766
0.98766
0.987657
0.987653
0.98765
0.987647
0.987647
0.987643
0.98764
0.987636
0.987633
0.987633
0.98763
0.987626
0.987623
0.987619
0.987619
0.987616
0.987613
0.987609
0.987606
0.987606
0.987603
0.987599
0.987596
0.987592
0.987592
0.987589
0.987585
0.987582
0.987579
0.987579
0.987575
0.987572
0.987568
0.987565
0.987565
0.987561
0.987558
0.987555
0.987551
0.987551
0.987548
0.987544
0.987541
0.987537
0.987537
0.987534
0.98753
0.987527
0.987524
0.987524
0.98752
0.987517
0.987513
0.98751
0.98751
0.987506
0.987503
0.987499
0.987496
0.987496
0.987492
0.987489
0.987486
0.987482
0.987482
0.987479
0.987475
0.987472
0.987468
0.987468
0.987465
0.987461
0.987458
0.987455
0.987455
0.987451
0.987448
0.987444
0.987441
0.987441
0.987437
0.987434
0.98743
0.987427
0.987427
0.987423
0.98742
0.987416
0.987413
0.987413
0.987409
0.987406
0.987402
0.987399
0.987399
0.987395
0.987392
0.987388
0.987385
0.987385
0.987381
0.987378
0.987374
0.987371
0.987371
0.987367
0.987364
0.98736
0.987357
0.987357
0.987353
0.98735
0.987346
0.987343
0.987343
0.987339
0.987336
0.987332
0.987329
0.987329
0.987325
0.987321
0.987318
0.987314
0.987314
0.987311
0.987307
0.987304
0.9873
0.9873
0.987297
0.987293
0.987289
0.987286
0.987286
0.987282
0.987279
0.987275
0.987272
0.987272
0.987268
0.987264
0.987261
0.987257
0.987257
0.987254
0.98725
0.987247
0.987243
0.987243
0.987239
0.987236
0.987232
0.987229
0.987229
0.987225
0.987221
0.987218
0.987214
0.987214
0.987211
0.987207
0.987203
0.9872
0.9872
0.987196
0.987193
0.987189
0.987185
0.987185
0.987182
0.987178
0.987175
0.987171
0.987171
0.987167
0.987164
0.98716
0.987157
0.987157
0.987153
0.987149
0.987146
0.987142
0.987142
0.987138
0.987135
0.987131
0.987127
0.987127
0.987124
0.98712
0.987117
0.987113
0.987113
0.987109
0.987106
0.987102
0.987098
0.987098
0.987095
0.987091
0.987087
0.987084
0.987084
0.98708
0.987076
0.987073
0.987069
0.987069
0.987065
0.987062
0.987058
0.987054
0.987054
0.987051
0.987047
0.987043
0.98704
0.98704
0.987036
0.987032
0.987029
0.987025
0.987025
0.987021
0.987018
0.987014
0.98701
0.98701
0.987007
0.987003
0.986999
0.986996
0.986996
0.986992
0.986988
0.986984
0.986981
0.986981
0.986977
0.986973
0.98697
0.986966
0.986966
0.986962
0.986959
0.986955
0.986951
0.986951
0.986947
0.986944
0.98694
0.986936
0.986936
0.986933
0.986929
0.986925
0.986921
0.986921
0.986918
0.986914
0.98691
0.986906
0.986906
0.986903
0.986899
0.986895
0.986892
0.986892
0.986888
0.986884
0.98688
0.986877
0.986877
0.986873
0.986869
0.986865
0.986862
0.986862
0.986858
0.986854
0.98685
0.986847
0.986847
0.986843
0.986839
0.986835
0.986832
0.986832
0.986828
0.986824
0.98682
0.986816
0.986816
0.986813
0.986809
0.986805
0.986801
0.986801
0.986798
0.986794
0.98679
0.986786
0.986786
0.986782
0.986779
0.986775
0.986771
0.986771
0.986767
0.986764
0.98676
0.986756
0.986756
0.986752
0.986748
0.986745
0.986741
0.986741
0.986737
0.986733
0.986729
0.986726
0.986726
0.986722
0.986718
0.986714
0.98671
0.98671
0.986706
0.986703
0.986699
0.986695
0.986695
0.986691
0.986687
0.986683
0.98668
0.98668
0.986676
0.986672
0.986668
0.986664
0.986664
0.98666
0.986657
0.986653
0.986649
0.986649
0.986645
0.986641
0.986637
0.986633
0.986633
0.98663
0.986626
0.986622
0.986618
0.986618
0.986614
0.98661
0.986606
0.986602
0.986602
0.986599
0.986595
0.986591
0.986587
0.986587
0.986583
0.986579
0.986575
0.986571
0.986571
0.986567
0.986563
0.98656
0.986556
0.986556
0.986552
0.986548
0.986544
0.98654
0.98654
0.986536
0.986532
0.986528
0.986524
0.986524
0.98652
0.986516
0.986512
0.986509
0.986509
0.986505
0.986501
0.986497
0.986493
0.986493
0.986489
0.986485
0.986481
0.986477
0.986477
0.986473
0.986469
0.986466
0.986462
0.986462
0.986458
0.986454
0.98645
0.986446
0.986446
0.986442
0.986438
0.986434
0.98643
0.98643
0.986426
0.986422
0.986418
0.986414
0.986414
0.986411
0.986407
0.986403
0.986399
0.986399
0.986395
0.986391
0.986387
0.986383
0.986383
0.986379
0.986375
0.986371
0.986367
0.986367
0.986363
0.986359
0.986355
0.986351
0.986351
0.986347
0.986343
0.986339
0.986335
0.986335
0.986331
0.986327
0.986323
0.986319
0.986319
0.986315
0.986311
0.986307
0.986303
0.986303
0.986299
0.986295
0.986291
0.986287
0.986287
0.986283
0.986279
0.986275
0.986271
0.986271
0.986267
0.986263
0.986259
0.986255
0.986255
0.986251
0.986247
0.986243
0.986239
0.986239
0.986234
0.98623
0.986226
0.986222
0.986222
0.986218
0.986214
0.98621
0.986206
0.986206
0.986202
0.986198
0.986194
0.98619
0.98619
0.986186
0.986182
0.986178
0.986174
0.986174
0.98617
0.986165
0.986161
0.986157
0.986157
0.986153
0.986149
0.986145
0.986141
0.986141
0.986137
0.986133
0.986129
0.986125
0.986125
0.986121
0.986116
0.986112
0.986108
0.986108
0.986104
0.9861
0.986096
0.986092
0.986092
0.986088
0.986084
0.98608
0.986075
0.986075
0.986071
0.986067
0.986063
0.986059
0.986059
0.986055
0.986051
0.986047
0.986043
0.986043
0.986038
0.986034
0.98603
0.986026
0.986026
0.986022
0.986018
0.986014
0.986009
0.986009
0.986005
0.986001
0.985997
0.985993
0.985993
0.985989
0.985985
0.985981
0.985976
0.985976
0.985972
0.985968
0.985964
0.98596
0.98596
0.985956
0.985951
0.985947
0.985943
0.985943
0.985939
0.985935
0.985931
0.985926
0.985926
0.985922
0.985918
0.985914
0.98591
0.98591
0.985906
0.985901
0.985897
0.985893
0.985893
0.985889
0.985885
0.985881
0.985876
0.985876
0.985872
0.985868
0.985864
0.98586
0.98586
0.985855
0.985851
0.985847
0.985843
0.985843
0.985839
0.985834
0.98583
0.985826
0.985826
0.985822
0.985818
0.985813
0.985809
0.985809
0.985805
0.985801
0.985797
0.985792
0.985792
0.985788
0.985784
0.98578
0.985775
0.985775
0.985771
0.985767
0.985763
0.985758
0.985758
0.985754
0.98575
0.985746
0.985742
0.985742
0.985737
0.985733
0.985729
0.985725
0.985725
0.98572
0.985716
0.985712
0.985708
0.985708
0.985703
0.985699
0.985695
0.98569
0.98569
0.985686
0.985682
0.985678
0.985673
0.985673
0.985669
0.985665
0.985661
0.985656
0.985656
0.985652
0.985648
0.985643
0.985639
0.985639
0.985635
0.98563
0.985626
0.985622
0.985622
0.985618
0.985613
0.985609
0.985605
0.985605
0.9856
0.985596
0.985592
0.985587
0.985587
0.985583
0.985579
0.985574
0.98557
0.98557
0.985566
0.985561
0.985557
0.985552
0.985552
0.985548
0.985544
0.985539
0.985535
0.985535
0.985531
0.985526