<?xml version="1.0"?>
<VTKFile type="UnstructuredGrid" version="0.1" byte_order="LittleEndian">
<UnstructuredGrid>
<Piece NumberOfPoints="5000" NumberOfCells="4000">
<PointData Scalars="Reaction 0">
<DataArray type="Float32" Name="Reaction 0" format="ascii">
0.999343
0.999343
0.999343
0.999343
0.999343
0.999343
0.999343
0.999343
0.999343
0.999343
0.999343
0.999343
0.999343
0.999343
0.999343
0.999343
0.999343
0.999343
0.999343
0.999343
0.999343
0.999342
0.999342
0.999342
0.999342
0.999342
0.999342
0.999342
0.999342
0.999342
0.999342
0.999342
0.999342
0.999342
0.999342
0.999342
0.999342
0.999342
0.999342
0.999342
0.999342
0.999342
0.999342
0.999342
0.999342
0.999342
0.999342
0.999342
0.999342
0.999342
0.999342
0.999342
0.999342
0.999342
0.999341
0.999341
0.999341
0.999341
0.999341
0.999341
0.999341
0.999341
0.999341
0.999341
0.999341
0.999341
0.999341
0.999341
0.999341
0.999341
0.999341
0.999341
0.999341
0.999341
0.99934
0.99934
0.99934
0.99934
0.99934
0.99934
0.99934
0.99934
0.99934
0.99934
0.99934
0.99934
0.99934
0.99934
0.99934
0.999339
0.999339
0.999339
0.999339
0.999339
0.999339
0.999339
0.999339
0.999339
0.999339
0.999339
0.999339
0.999339
0.999339
0.999338
0.999338
0.999338
0.999338
0.999338
0.999338
0.999338
0.999338
0.999338
0.999338
0.999338
0.999337
0.999337
0.999337
0.999337
0.999337
0.999337
0.999337
0.999337
0.999337
0.999337
0.999337
0.999337
0.999336
0.999336
0.999336
0.999336
0.999336
0.999336
0.999336
0.999336
0.999335
0.999335
0.999335
0.999335
0.999335
0.999335
0.999335
0.999335
0.999335
0.999335
0.999334
0.999334
0.999334
0.999334
0.999334
0.999334
0.999334
0.999334
0.999333
0.999333
0.999333
0.999333
0.999333
0.999333
0.999333
0.999333
0.999333
0.999332
0.999332
0.999332
0.999332
0.999332
0.999332
0.999332
0.999331
0.999331
0.999331
0.999331
0.999331
0.999331
0.999331
0.999331
0.99933
0.99933
0.99933
0.99933
0.99933
0.99933
0.99933
0.999329
0.999329
0.999329
0.999329
0.999329
0.999329
0.999328
0.999328
0.999328
0.999328
0.999328
0.999328
0.999328
0.999327
0.999327
0.999327
0.999327
0.999327
0.999327
0.999326
0.999326
0.999326
0.999326
0.999326
0.999326
0.999325
0.999325
0.999325
0.999325
0.999325
0.999325
0.999324
0.999324
0.999324
0.999324
0.999324
0.999324
0.999324
0.999323
0.999323
0.999323
0.999323
0.999323
0.999322
0.999322
0.999322
0.999322
0.999322
0.999322
0.999321
0.999321
0.999321
0.999321
0.999321
0.99932
0.99932
0.99932
0.99932
0.99932
0.999319
0.999319
0.999319
0.999319
0.999319
0.999319
0.999318
0.999318
0.999318
0.999318
0.999318
0.999317
0.999317
0.999317
0.999317
0.999317
0.999316
0.999316
0.999316
0.999316
0.999315
0.999315
0.999315
0.999315
0.999315
0.999314
0.999314
0.999314
0.999314
0.999314
0.999313
0.999313
0.999313
0.999313
0.999313
0.999312
0.999312
0.999312
0.999312
0.999311
0.999311
0.999311
0.999311
0.999311
0.99931
0.99931
0.99931
0.99931
0.99931
0.999309
0.999309
0.999309
0.999308
0.999308
0.999308
0.999308
0.999307
0.999307
0.999307
0.999307
0.999307
0.999306
0.999306
0.999306
0.999306
0.999305
0.999305
0.999305
0.999305
0.999304
0.999304
0.999304
0.999304
0.999304
0.999303
0.999303
0.999303
0.999302
0.999302
0.999302
0.999302
0.999301
0.999301
0.999301
0.999301
0.9993
0.9993
0.9993
0.9993
0.999299
0.999299
0.999299
0.999298
0.999298
0.999298
0.999298
0.999297
0.999297
0.999297
0.999297
0.999296
0.999296
0.999296
0.999296
0.999295
0.999295
0.999295
0.999294
0.999294
0.999294
0.999294
0.999293
0.999293
0.999293
0.999293
0.999292
0.999292
0.999292
0.999292
0.999291
0.999291
0.99929
0.99929
0.99929
0.99929
0.999289
0.999289
0.999289
0.999289
0.999288
0.999288
0.999288
0.999287
0.999287
0.999287
0.999286
0.999286
0.999286
0.999286
0.999285
0.999285
0.999285
0.999284
0.999284
0.999284
0.999283
0.999283
0.999283
0.999283
0.999282
0.999282
0.999282
0.999281
0.999281
0.999281
0.99928
0.99928
0.99928
0.99928
0.999279
0.999279
0.999278
0.999278
0.999278
0.999278
0.999277
0.999277
0.999276
0.999276
0.999276
0.999276
0.999275
0.999275
0.999275
0.999274
0.999274
0.999274
0.999273
0.999273
0.999273
0.999272
0.999272
0.999271
0.999271
0.999271
0.999271
0.99927
0.99927
0.99927
0.999269
0.999269
0.999268
0.999268
0.999268
0.999268
0.999267
0.999267
0.999266
0.999266
0.999266
0.999265
0.999265
0.999265
0.999265
0.999264
0.999264
0.999263
0.999263
0.999263
0.999262
0.999262
0.999261
0.999261
0.999261
0.999261
0.99926
0.99926
0.999259
0.999259
0.999259
0.999258
0.999258
0.999257
0.999257
0.999257
0.999256
0.999256
0.999256
0.999256
0.999255
0.999255
0.999254
0.999254
0.999254
0.999253
0.999253
0.999252
0.999252
0.999252
0.999251
0.999251
0.99925
0.99925
0.99925
0.999249
0.999249
0.999248
0.999248
0.999248
0.999247
0.999247
0.999247
0.999246
0.999246
0.999246
0.999245
0.999245
0.999244
0.999244
0.999244
0.999243
0.999243
0.999242
0.999242
0.999242
0.999241
0.999241
0.99924
0.99924
0.99924
0.999239
0.999239
0.999238
0.999238
0.999238
0.999237
0.999237
0.999236
0.999236
0.999236
0.999235
0.999234
0.999234
0.999234
0.999233
0.999233
0.999232
0.999232
0.999232
0.999231
0.999231
0.99923
0.99923
0.99923
0.999229
0.999229
0.999228
0.999228
0.999228
0.999227
0.999227
0.999226
0.999226
0.999226
0.999225
0.999224
0.999224
0.999223
0.999223
0.999223
0.999222
0.999222
0.999221
0.999221
0.999221
0.99922
0.99922
0.999219
0.999219
0.999218
0.999218
0.999217
0.999217
0.999217
0.999216
0.999216
0.999215
0.999215
0.999215
0.999214
0.999213
0.999213
0.999212
0.999212
0.999212
0.999211
0.999211
0.99921
0.99921
0.999209
0.999209
0.999208
0.999208
0.999208
0.999207
0.999207
0.999206
0.999205
0.999205
0.999205
0.999204
0.999204
0.999203
0.999203
0.999202
0.999202
0.999201
0.999201
0.999201
0.9992
0.999199
0.999199
0.999198
0.999198
0.999198
0.999197
0.999197
0.999196
0.999196
0.999195
0.999195
0.999194
0.999193
0.999193
0.999193
0.999192
0.999192
0.999191
0.999191
0.99919
0.99919
0.999189
0.999189
0.999189
0.999188
0.999187
0.999187
0.999186
0.999186
0.999186
0.999185
0.999184
0.999184
0.999184
0.999183
0.999182
0.999182
0.999181
0.999181
0.99918
0.99918
0.999179
0.999179
0.999179
0.999178
0.999177
0.999177
0.999176
0.999176
0.999175
0.999175
0.999174
0.999173
0.999173
0.999173
0.999172
0.999172
0.999171
0.999171
0.99917
0.99917
0.999169
0.999168
0.999168
0.999168
0.999167
0.999166
0.999166
0.999166
0.999165
0.999164
0.999164
0.999163
0.999163
0.999162
0.999162
0.999161
0.99916
0.99916
0.99916
0.999159
0.999158
0.999158
0.999158
0.999157
0.999156
0.999156
0.999155
0.999155
0.999154
0.999154
0.999153
0.999152
0.999152
0.999151
0.999151
0.99915
0.999149
0.999149
0.999149
0.999148
0.999147
0.999147
0.999147
0.999146
0.999145
0.999145
0.999144
0.999144
0.999143
0.999142
0.999142
0.999141
0.999141
0.99914
0.99914
0.999139
0.999138
0.999138
0.999137
0.999137
0.999136
0.999135
0.999135
0.999135
0.999134
0.999133
0.999132
0.999132
0.999132
0.999131
0.99913
0.99913
0.99913
0.999129
0.999128
0.999127
0.999127
0.999127
0.999126
0.999125
0.999124
0.999124
0.999124
0.999123
0.999122
0.999122
0.999121
0.999121
0.99912
0.999119
0.999119
0.999118
0.999118
0.999117
0.999116
0.999116
0.999115
0.999115
0.999114
0.999113
0.999113
0.999112
0.999112
0.999111
0.99911
0.99911
0.999109
0.999109
0.999108
0.999107
0.999107
0.999106
0.999106
0.999105
0.999104
0.999103
0.999103
0.999103
0.999102
0.999101
0.9991
0.9991
0.9991
0.999099
0.999098
0.999097
0.999097
0.999097
0.999096
0.999095
0.999094
0.999093
0.999093
0.999093
0.999092
0.999091
0.99909
0.99909
0.999089
0.999089
0.999088
0.999087
0.999087
0.999086
0.999085
0.999085
0.999084
0.999084
0.999083
0.999082
0.999081
0.999081
0.999081
0.99908
0.999079
0.999078
0.999077
0.999077
0.999077
0.999076
0.999075
0.999074
0.999074
0.999073
0.999073
0.999072
0.999071
0.999071
0.99907
0.999069
0.999068
0.999068
0.999068
0.999067
0.999066
0.999065
0.999064
0.999064
0.999064
0.999063
0.999062
0.999061
0.999061
0.99906
0.999059
0.999059
0.999058
0.999058
0.999057
0.999056
0.999055
0.999054
0.999054
0.999053
0.999053
0.999052
0.999051
0.999051
0.99905
0.999049
0.999048
0.999048
0.999048
0.999047
0.999046
0.999045
0.999044
0.999044
0.999043
0.999042
0.999042
0.999041
0.999041
0.99904
0.999039
0.999038
0.999037
0.999037
0.999036
0.999035
0.999035
0.999034
0.999034
0.999033
0.999032
0.999031
0.99903
0.99903
0.999029
0.999028
0.999028
0.999027
0.999027
0.999026
0.999025
0.999024
0.999023
0.999023
0.999022
0.999021
0.99902
0.99902
0.99902
0.999019
0.999018
0.999017
0.999016
0.999016
0.999015
0.999014
0.999013
0.999012
0.999012
0.999012
0.999011
0.99901
0.999009
0.999009
0.999008
0.999007
0.999006
0.999005
0.999005
0.999004
0.999003
0.999002
0.999001
0.999001
0.999001
0.999
0.998999
0.998998
0.998998
0.998997
0.998996
0.998995
0.998994
0.998994
0.998993
0.998992
0.998991
0.99899
0.99899
0.998989
0.998989
0.998988
0.998987
0.998987
0.998986
0.998985
0.998984
0.998983
0.998983
0.998982
0.998981
0.99898
0.998979
0.998979
0.998978
0.998977
0.998976
0.998975
0.998975
0.998974
0.998973
0.998972
0.998971
0.998971
0.998971
0.99897
0.998969
0.998968
0.998968
0.998967
0.998966
0.998965
0.998964
0.998964
0.998963
0.998962
0.998961
0.99896
0.99896
0.998959
0.998958
0.998957
0.998956
0.998956
0.998955
0.998954
0.998953
0.998952
0.998952
0.998951
0.99895
0.998949
0.998948
0.998948
0.998947
0.998946
0.998945
0.998944
0.998944
0.998943
0.998942
0.998941
0.99894
0.99894
0.998939
0.998938
0.998937
0.998936
0.998936
0.998935
0.998934
0.998933
0.998932
0.998932
0.998931
0.99893
0.998929
0.998928
0.998928
0.998927
0.998926
0.998925
0.998924
0.998924
0.998923
0.998922
0.998921
0.99892
0.99892
0.998919
0.998918
0.998917
0.998916
0.998916
0.998915
0.998914
0.998913
0.998912
0.998912
0.99891
0.998909
0.998908
0.998907
0.998907
0.998906
0.998905
0.998904
0.998903
0.998903
0.998902
0.998901
0.9989
0.998899
0.998899
0.998898
0.998897
0.998896
0.998895
0.998895
0.998894
0.998893
0.998892
0.998891
0.998891
0.99889
0.998888
0.998887
0.998886
0.998886
0.998885
0.998884
0.998883
0.998882
0.998882
0.998881
0.99888
0.998879
0.998878
0.998878
0.998877
0.998876
0.998875
0.998874
0.998874
0.998873
0.998871
0.99887
0.998869
0.998869
0.998868
0.998867
0.998866
0.998865
0.998865
0.998864
0.998863
0.998862
0.998861
0.998861
0.998859
0.998858
0.998857
0.998856
0.998856
0.998855
0.998854
0.998853
0.998852
0.998852
0.998851
0.99885
0.998848
0.998847
0.998847
0.998846
0.998845
0.998844
0.998843
0.998843
0.998842
0.998841
0.99884
0.998838
0.998838
0.998837
0.998836
0.998835
0.998834
0.998834
0.998833
0.998832
0.998831
0.998829
0.998829
0.998828
0.998827
0.998826
0.998825
0.998825
0.998824
0.998823
0.998821
0.99882
0.99882
0.998819
0.998818
0.998817
0.998816
0.998816
0.998815
0.998813
0.998812
0.998811
0.998811
0.99881
0.998809
0.998808
0.998807
0.998807
0.998805
0.998804
0.998803
0.998802
0.998802
0.998801
0.9988
0.998798
0.998797
0.998797
0.998796
0.998795
0.998794
0.998793
0.998793
0.998791
0.99879
0.998789
0.998788
0.998788
0.998787
0.998785
0.998784
0.998783
0.998783
0.998782
0.998781
0.99878
0.998778
0.998778
0.998777
0.998776
0.998775
0.998774
0.998774
0.998772
0.998771
0.99877
0.998769
0.998769
0.998768
0.998766
0.998765
0.998764
0.998764
0.998763
0.998762
0.99876
0.998759
0.998759
0.998758
0.998757
0.998756
0.998754
0.998754
0.998753
0.998752
0.998751
0.99875
0.99875
0.998748
0.998747
0.998746
0.998745
0.998745
0.998743
0.998742
0.998741
0.99874
0.99874
0.998738
0.998737
0.998736
0.998735
0.998735
0.998734
0.998732
0.998731
0.99873
0.99873
0.998729
0.998727
0.998726
0.998725
0.998725
0.998724
0.998722
0.998721
0.99872
0.99872
0.998719
0.998717
0.998716
0.998715
0.998715
0.998714
0.998712
0.998711
0.99871
0.99871
0.998709
0.998707
0.998706
0.998705
0.998705
0.998704
0.998702
0.998701
0.9987
0.9987
0.998699
0.998697
0.998696
0.998695
0.998695
0.998693
0.998692
0.998691
0.99869
0.99869
0.998688
0.998687
0.998686
0.998685
0.998685
0.998683
0.998682
0.998681
0.998679
0.998679
0.998678
0.998677
0.998675
0.998674
0.998674
0.998673
0.998672
0.99867
0.998669
0.998669
0.998668
0.998666
0.998665
0.998664
0.998664
0.998663
0.998661
0.99866
0.998659
0.998659
0.998657
0.998656
0.998655
0.998653
0.998653
0.998652
0.998651
0.998649
0.998648
0.998648
0.998647
0.998645
0.998644
0.998643
0.998643
0.998642
0.99864
0.998639
0.998638
0.998638
0.998636
0.998635
0.998634
0.998632
0.998632
0.998631
0.99863
0.998628
0.998627
0.998627
0.998626
0.998624
0.998623
0.998622
0.998622
0.99862
0.998619
0.998617
0.998616
0.998616
0.998615
0.998613
0.998612
0.998611
0.998611
0.998609
0.998608
0.998607
0.998605
0.998605
0.998604
0.998603
0.998601
0.9986
0.9986
0.998599
0.998597
0.998596
0.998594
0.998594
0.998593
0.998592
0.99859
0.998589
0.998589
0.998588
0.998586
0.998585
0.998583
0.998583
0.998582
0.998581
0.998579
0.998578
0.998578
0.998577
0.998575
0.998574
0.998572
0.998572
0.998571
0.99857
0.998568
0.998567
0.998567
0.998565
0.998564
0.998563
0.998561
0.998561
0.99856
0.998558
0.998557
0.998556
0.998556
0.998554
0.998553
0.998551
0.99855
0.99855
0.998549
0.998547
0.998546
0.998544
0.998544
0.998543
0.998542
0.99854
0.998539
0.998539
0.998537
0.998536
0.998534
0.998533
0.998533
0.998532
0.99853
0.998529
0.998527
0.998527
0.998526
0.998525
0.998523
0.998522
0.998522
0.99852
0.998519
0.998517
0.998516
0.998516
0.998514
0.998513
0.998512
0.99851
0.99851
0.998509
0.998507
0.998506
0.998504
0.998504
0.998503
0.998501
0.9985
0.998499
0.998499
0.998497
0.998496
0.998494
0.998493
0.998493
0.998491
0.99849
0.998488
0.998487
0.998487
0.998485
0.998484
0.998483
0.998481
0.998481
0.99848
0.998478
0.998477
0.998475
0.998475
0.998474
0.998472
0.998471
0.998469
0.998469
0.998468
0.998466
0.998465
0.998463
0.998463
0.998462
0.99846
0.998459
0.998457
0.998457
0.998456
0.998454
0.998453
0.998451
0.998451
0.99845
0.998448
0.998447
0.998446
0.998446
0.998444
0.998443
0.998441
0.99844
0.99844
0.998438
0.998437
0.998435
0.998433
0.998433
0.998432
0.99843
0.998429
0.998427
0.998427
0.998426
0.998424
0.998423
0.998421
0.998421
0.99842
0.998418
0.998417
0.998415
0.998415
0.998414
0.998412
0.998411
0.998409
0.998409
0.998408
0.998406
0.998405
0.998403
0.998403
0.998402
0.9984
0.998399
0.998397
0.998397
0.998395
0.998394
0.998392
0.998391
0.998391
0.998389
0.998388
0.998386
0.998385
0.998385
0.998383
0.998382
0.99838
0.998378
0.998378
0.998377
0.998375
0.998374
0.998372
0.998372
0.998371
0.998369
0.998368
0.998366
0.998366
0.998364
0.998363
0.998361
0.99836
0.99836
0.998358
0.998357
0.998355
0.998353
0.998353
0.998352
0.99835
0.998349
0.998347
0.998347
0.998346
0.998344
0.998342
0.998341
0.998341
0.998339
0.998338
0.998336
0.998334
0.998334
0.998333
0.998331
0.99833
0.998328
0.998328
0.998327
0.998325
0.998323
0.998322
0.998322
0.99832
0.998319
0.998317
0.998315
0.998315
0.998314
0.998312
0.998311
0.998309
0.998309
0.998307
0.998306
0.998304
0.998303
0.998303
0.998301
0.998299
0.998298
0.998296
0.998296
0.998294
0.998293
0.998291
0.99829
0.99829
0.998288
0.998286
0.998285
0.998283
0.998283
0.998281
0.99828
0.998278
0.998277
0.998277
0.998275
0.998273
0.998272
0.99827
0.99827
0.998268
0.998267
0.998265
0.998263
0.998263
0.998262
0.99826
0.998258
0.998257
0.998257
0.998255
0.998254
0.998252
0.99825
0.99825
0.998249
0.998247
0.998245
0.998244
0.998244
0.998242
0.99824
0.998239
0.998237
0.998237
0.998235
0.998234
0.998232
0.99823
0.99823
0.998229
0.998227
0.998225
0.998224
0.998224
0.998222
0.99822
0.998218
0.998217
0.998217
0.998215
0.998213
0.998212
0.99821
0.99821
0.998208
0.998207
0.998205
0.998203
0.998203
0.998201
0.9982
0.998198
0.998196
0.998196
0.998195
0.998193
0.998191
0.998189
0.998189
0.998188
0.998186
0.998184
0.998183
0.998183
0.998181
0.998179
0.998177
0.998176
0.998176
0.998174
0.998172
0.998171
0.998169
0.998169
0.998167
0.998165
0.998164
0.998162
0.998162
0.99816
0.998159
0.998157
0.998155
0.998155
0.998154
0.998152
0.99815
0.998148
0.998148
0.998147
0.998145
0.998143
0.998141
0.998141
0.99814
0.998138
0.998136
0.998135
0.998135
0.998133
0.998131
0.998129
0.998128
0.998128
0.998126
0.998124
0.998122
0.998121
0.998121
0.998119
0.998117
0.998115
0.998114
0.998114
0.998112
0.99811
0.998108
0.998107
0.998107
0.998105
0.998103
0.998101
0.9981
0.9981
0.998098
0.998096
0.998094
0.998092
0.998092
0.998091
0.998089
0.998087
0.998085
0.998085
0.998084
0.998082
0.99808
0.998078
0.998078
0.998076
0.998075
0.998073
0.998071
0.998071
0.998069
0.998067
0.998066
0.998064
0.998064
0.998062
0.99806
0.998058
0.998057
0.998057
0.998055
0.998053
0.998051
0.998049
0.998049
0.998048
0.998046
0.998044
0.998042
0.998042
0.99804
0.998039
0.998037
0.998035
0.998035
0.998033
0.998031
0.998029
0.998028
0.998028
0.998026
0.998024
0.998022
0.99802
0.99802
0.998019
0.998017
0.998015
0.998013
0.998013
0.998011
0.998009
0.998008
0.998006
0.998006
0.998004
0.998002
0.998
0.997998
0.997998
0.997996
0.997995
0.997993
0.997991
0.997991
0.997989
0.997987
0.997985
0.997984
0.997984
0.997982
0.99798
0.997978
0.997976
0.997976
0.997974
0.997972
0.997971
0.997969
0.997969
0.997967
0.997965
0.997963
0.997961
0.997961
0.997959
0.997957
0.997956
0.997954
0.997954
0.997952
0.99795
0.997948
0.997946
0.997946
0.997944
0.997942
0.997941
0.997939
0.997939
0.997937
0.997935
0.997933
0.997931
0.997931
0.997929
0.997927
0.997925
0.997924
0.997924
0.997922
0.99792
0.997918
0.997916
0.997916
0.997914
0.997912
0.99791
0.997908
0.997908
0.997906
0.997905
0.997903
0.997901
0.997901
0.997899
0.997897
0.997895
0.997893
0.997893
0.997891
0.997889
0.997887
0.997885
0.997885
0.997883
0.997882
0.99788
0.997878
0.997878
0.997876
0.997874
0.997872
0.99787
0.99787
0.997868
0.997866
0.997864
0.997862
0.997862
0.99786
0.997858
0.997856
0.997855
0.997855
0.997853
0.997851
0.997849
0.997847
0.997847
0.997845
0.997843
0.997841
0.997839
0.997839
0.997837
0.997835
0.997833
0.997831
0.997831
0.997829
0.997827
0.997825
0.997823
0.997823
0.997821
0.997819
0.997817
0.997815
0.997815
0.997814
0.997812
0.99781
0.997808
0.997808
0.997806
0.997804
0.997802
0.9978
0.9978
0.997798
0.997796
0.997794
0.997792
0.997792
0.99779
0.997788
0.997786
0.997784
0.997784
0.997782
0.99778
0.997778
0.997776
0.997776
0.997774
0.997772
0.99777
0.997768
0.997768
0.997766
0.997764
0.997762
0.99776
0.99776
0.997758
0.997756
0.997754
0.997752
0.997752
0.99775
0.997748
0.997746
0.997744
0.997744
0.997742
0.99774
0.997738
0.997736
0.997736
0.997734
0.997732
0.99773
0.997728
0.997728
0.997726
0.997724
0.997722
0.99772
0.99772
0.997718
0.997716
0.997714
0.997712
0.997712
0.99771
0.997708
0.997705
0.997703
0.997703
0.997701
0.997699
0.997697
0.997695
0.997695
0.997693
0.997691
0.997689
0.997687
0.997687
0.997685
0.997683
0.997681
0.997679
0.997679
0.997677
0.997675
0.997673
0.997671
0.997671
0.997669
0.997667
0.997665
0.997662
0.997662
0.99766
0.997658
0.997656
0.997654
0.997654
0.997652
0.99765
0.997648
0.997646
0.997646
0.997644
0.997642
0.99764
0.997638
0.997638
0.997636
0.997633
0.997631
0.997629
0.997629
0.997627
0.997625
0.997623
0.997621
0.997621
0.997619
0.997617
0.997615
0.997613
0.997613
0.997611
0.997608
0.997606
0.997604
0.997604
0.997602
0.9976
0.997598
0.997596
0.997596
0.997594
0.997592
0.99759
0.997587
0.997587
0.997585
0.997583
0.997581
0.997579
0.997579
0.997577
0.997575
0.997573
0.997571
0.997571
0.997568
0.997566
0.997564
0.997562
0.997562
0.99756
0.997558
0.997556
0.997554
0.997554
0.997551
0.997549
0.997547
0.997545
0.997545
0.997543
0.997541
0.997539
0.997536
0.997536
0.997534
0.997532
0.99753
0.997528
0.997528
0.997526
0.997524
0.997521
0.997519
0.997519
0.997517
0.997515
0.997513
0.997511
0.997511
0.997508
0.997506
0.997504
0.997502
0.997502
0.9975
0.997498
0.997495
0.997493
0.997493
0.997491
0.997489
0.997487
0.997484
0.997484
0.997482
0.99748
0.997478
0.997476
0.997476
0.997473
0.997471
0.997469
0.997467
0.997467
0.997465
0.997462
0.99746
0.997458
0.997458
0.997456
0.997454
0.997451
0.997449
0.997449
0.997447
0.997445
0.997443
0.99744
0.99744
0.997438
0.997436
0.997434
0.997432
0.997432
0.997429
0.997427
0.997425
0.997423
0.997423
0.997421
0.997418
0.997416
0.997414
0.997414
0.997412
0.99741
0.997408
0.997405
0.997405
0.997403
0.997401
0.997399
0.997396
0.997396
0.997394
0.997392
0.99739
0.997388
0.997388
0.997385
0.997383
0.997381
0.997379
0.997379
0.997376
0.997374
0.997372
0.99737
0.99737
0.997368
0.997365
0.997363
0.997361
0.997361
0.997359
0.997356
0.997354
0.997352
0.997352
0.99735
0.997347
0.997345
0.997343
0.997343
0.997341
0.997338
0.997336
0.997334
0.997334
0.997332
0.997329
0.997327
0.997325
0.997325
0.997322
0.99732
0.997318
0.997316
0.997316
0.997313
0.997311
0.997309
0.997307
0.997307
0.997304
0.997302
0.9973
0.997297
0.997297
0.997295
0.997293
0.997291
0.997288
0.997288
0.997286
0.997284
0.997281
0.997279
0.997279
0.997277
0.997274
0.997272
0.99727
0.99727
0.997268
0.997265
0.997263
0.997261
0.997261
0.997258
0.997256
0.997254
0.997251
0.997251
0.997249
0.997247
0.997244
0.997242
0.997242
0.99724
0.997237
0.997235
0.997233
0.997233
0.99723
0.997228
0.997226
0.997224
0.997224
0.997221
0.997219
0.997217
0.997214
0.997214
0.997212
0.99721
0.997207
0.997205
0.997205
0.997202
0.9972
0.997198
0.997195
0.997195
0.997193
0.997191
0.997188
0.997186
0.997186
0.997184
0.997181
0.997179
0.997177
0.997177
0.997174
0.997172
0.99717
0.997167
0.997167
0.997165
0.997163
0.99716
0.997158
0.997158
0.997155
0.997153
0.997151
0.997148
0.997148
0.997146
0.997144
0.997141
0.997139
0.997139
0.997136
0.997134
0.997132
0.997129
0.997129
0.997127
0.997125
0.997122
0.99712
0.99712
0.997117
0.997115
0.997113
0.99711
0.99711
0.997108
0.997105
0.997103
0.997101
0.997101
0.997098
0.997096
0.997093
0.997091
0.997091
0.997089
0.997086
0.997084
0.997081
0.997081
0.997079
0.997077
0.997074
0.997072
0.997072
0.997069
0.997067
0.997065
0.997062
0.997062
0.99706
0.997057
0.997055
0.997052
0.997052
0.99705
0.997048
0.997045
0.997043
0.997043
0.99704
0.997038
0.997036
0.997033
0.997033
0.997031
0.997028
0.997026
0.997023
0.997023
0.997021
0.997018
0.997016
0.997014
0.997014
0.997011
0.997009
0.997006
0.997004
0.997004
0.997001
0.996999
0.996996
0.996994
0.996994
0.996992
0.996989
0.996987
0.996984
0.996984
0.996982
0.996979
0.996977
0.996974
0.996974
0.996972
0.996969
0.996967
0.996965
0.996965
0.996962
0.99696
0.996957
0.996955
0.996955
0.996952
0.99695
0.996947
0.996945
0.996945
0.996942
0.99694
0.996937
0.996935
0.996935
0.996932
0.99693
0.996927
0.996925
0.996925
0.996922
0.99692
0.996917
0.996915
0.996915
0.996912
0.99691
0.996907
0.996905
0.996905
0.996902
0.9969
0.996897
0.996895
0.996895
0.996892
0.99689
0.996887
0.996885
0.996885
0.996882
0.99688
0.996877
0.996875
0.996875
0.996872
0.99687
0.996867
0.996865
0.996865
0.996862
0.99686
0.996857
0.996855
0.996855
0.996852
0.99685
0.996847
0.996845
0.996845
0.996842
0.996839
0.996837
0.996834
0.996834
0.996832
0.996829
0.996827
0.996824
0.996824
0.996822
0.996819
0.996817
0.996814
0.996814
0.996811
0.996809
0.996806
0.996804
0.996804
0.996801
0.996799
0.996796
0.996793
0.996793
0.996791
0.996788
0.996786
0.996783
0.996783
0.996781
0.996778
0.996775
0.996773
0.996773
0.99677
0.996768
0.996765
0.996762
0.996762
0.99676
0.996757
0.996755
0.996752
0.996752
0.996749
0.996747
0.996744
0.996742
0.996742
0.996739
0.996736
0.996734
0.996731
0.996731
0.996729
0.996726
0.996723
0.996721
0.996721
0.996718
0.996716
0.996713
0.99671
0.99671
0.996708
0.996705
0.996703
0.9967
0.9967
0.996697
0.996695
0.996692
0.99669
0.99669
0.996687
0.996684
0.996682
0.996679
0.996679
0.996677
0.996674
0.996671
0.996669
0.996669
0.996666
0.996664
0.996661
0.996658
0.996658
0.996656
0.996653
0.996651
0.996648
0.996648
0.996645
0.996643
0.99664
0.996637
0.996637
0.996635
0.996632
0.99663
0.996627
0.996627
0.996624
0.996622
0.996619
0.996616
0.996616
0.996614
0.996611
0.996608
0.996606
0.996606
0.996603
0.9966
0.996598
0.996595
0.996595
0.996592
0.99659
0.996587
0.996584
0.996584
0.996582
0.996579
0.996576
0.996574
0.996574
0.996571
0.996568
0.996566
0.996563
0.996563
0.99656
0.996558
0.996555
0.996552
0.996552
0.99655
0.996547
0.996544
0.996542
0.996542
0.996539
0.996536
0.996533
0.996531
0.996531
0.996528
0.996525
0.996523
0.99652
0.99652
0.996517
0.996515
0.996512
0.996509
0.996509
0.996506
0.996504
0.996501
0.996498
0.996498
0.996496
0.996493
0.99649
0.996487
0.996487
0.996485
0.996482
0.996479
0.996477
0.996477
0.996474
0.996471
0.996468
0.996466
0.996466
0.996463
0.99646
0.996457
0.996455
0.996455
0.996452
0.996449
0.996446
0.996444
0.996444
0.996441
0.996438
0.996436
0.996433
0.996433
0.99643
0.996427
0.996425
0.996422
0.996422
0.996419
0.996416
0.996414
0.996411
0.996411
0.996408
0.996405
0.996403
0.9964
0.9964
0.996397
0.996394
0.996391
0.996389
0.996389
0.996386
0.996383
0.99638
0.996378
0.996378
0.996375
0.996372
0.996369
0.996367
0.996367
0.996364
0.996361
0.996358
0.996355
0.996355
0.996353
0.99635
0.996347
0.996344
0.996344
0.996341
0.996339
0.996336
0.996333
0.996333
0.99633
0.996328
0.996325
0.996322
0.996322
0.996319
0.996316
0.996314
0.996311
0.996311
0.996308
0.996305
0.996302
0.996299
0.996299
0.996297
0.996294
0.996291
0.996288
0.996288
0.996285
0.996283
0.99628
0.996277
0.996277
0.996274
0.996271
0.996269
0.996266
0.996266
0.996263
0.99626
0.996257
0.996254
0.996254
0.996252
0.996249
0.996246
0.996243
0.996243
0.99624
0.996237
0.996235
0.996232
0.996232
0.996229
0.996226
0.996223
0.99622
0.99622
0.996218
0.996215
0.996212
0.996209
0.996209
0.996206
0.996203
0.9962
0.996198
0.996198
0.996195
0.996192
0.996189
0.996186
0.996186
0.996183
0.99618
0.996178
0.996175
0.996175
0.996172
0.996169
0.996166
0.996163
0.996163
0.99616
0.996157
0.996155
0.996152
0.996152
0.996149
0.996146
0.996143
0.99614
0.99614
0.996137
0.996134
0.996131
0.996129
0.996129
0.996126
0.996123
0.99612
0.996117
0.996117
0.996114
0.996111
0.996108
0.996105
0.996105
0.996102
0.9961
0.996097
0.996094
0.996094
0.996091
0.996088
0.996085
0.996082
0.996082
0.996079
0.996076
0.996073
0.99607
0.99607
0.996067
0.996064
0.996062
0.996059
0.996059
0.996056
0.996053
0.99605
0.996047
0.996047
0.996044
0.996041
0.996038
0.996035
0.996035
0.996032
0.996029
0.996026
0.996023
0.996023
0.99602
0.996017
0.996014
0.996011
0.996011
0.996008
0.996005
0.996002
0.995999
0.995999
0.995996
0.995994
0.995991
0.995988
0.995988
0.995985
0.995982
0.995979
0.995976
0.995976
0.995973
0.99597
0.995967
0.995964
0.995964
0.995961
0.995958
0.995955
0.995952
0.995952
0.995949
0.995946
0.995943
0.99594
0.99594
0.995937
0.995934
0.995932
0.995929
0.995929
0.995926
0.995923
0.99592
0.995917
0.995917
0.995914
0.995911
0.995908
0.995905
0.995905
0.995902
0.995899
0.995896
0.995893
0.995893
0.99589
0.995887
0.995884
0.995881
0.995881
0.995878
0.995875
0.995872
0.995869
0.995869
0.995866
0.995863
0.99586
0.995857
0.995857
0.995854
0.995851
0.995848
0.995845
0.995845
0.995842
0.995839
0.995836
0.995833
0.995833
0.99583
0.995827
0.995824
0.995821
0.995821
0.995817
0.995814
0.995811
0.995808
0.995808
0.995805
0.995802
0.995799
0.995796
0.995796
0.995793
0.99579
0.995787
0.995784
0.995784
0.995781
0.995778
0.995775
0.995772
0.995772
0.995769
0.995766
0.995763
0.99576
0.99576
0.995756
0.995753
0.99575
0.995747
0.995747
0.995744
0.995741
0.995738
0.995735
0.995735
0.995732
0.995729
0.995726
0.995723
0.995723
0.99572
0.995716
0.995713
0.99571
0.99571
0.995707
0.995704
0.995701
0.995698
0.995698
0.995695
0.995692
0.995689
0.995686
0.995686
0.995682
0.995679
0.995676
0.995673
0.995673
0.99567
0.995667
0.995664
0.995661
0.995661
0.995658
0.995655
0.995651
0.995648
0.995648
0.995645
0.995642
0.995639
0.995636
0.995636
0.995633
0.99563
0.995627
0.995623
0.995623
0.99562
0.995617
0.995614
0.995611
0.995611
0.995608
0.995605
0.995602
0.995598
0.995598
0.995595
0.995592
0.995589
0.995586
0.995586
0.995583
0.99558
0.995576
0.995573
0.995573
0.99557
0.995567
0.995564
0.995561
0.995561
0.995558
0.995554
0.995551
0.995548
0.995548
0.995545
0.995542
0.995539
0.995535
0.995535
0.995532
0.995529
0.995526
0.995523
0.995523
0.99552
0.995516
0.995513
0.99551
0.99551
0.995507
0.995504
0.995501
0.995497
0.995497
0.995494
0.995491
0.995488
0.995485
0.995485
0.995482
0.995478
0.995475
0.995472
0.995472
0.995469
0.995466
0.995462
0.995459
0.995459
0.995456
0.995453
0.99545
0.995446
0.995446
0.995443
0.99544
0.995437
0.995434
0.995434
0.99543
0.995427
0.995424
0.995421
0.995421
0.995418
0.995414
0.995411
0.995408
0.995408
0.995405
0.995401
0.995398
0.995395
0.995395
0.995392
0.995389
0.995385
0.995382
0.995382
0.995379
0.995376
0.995372
0.995369
0.995369
0.995366
0.995363
0.995359
0.995356
0.995356
0.995353
0.99535
0.995346
0.995343
0.995343
0.99534
0.995336
0.995333
0.99533
0.99533
0.995327
0.995323
0.99532
0.995317
0.995317
0.995314
0.99531
0.995307
0.995304
0.995304
0.9953
0.995297
0.995294
0.995291
0.995291
0.995287
0.995284
0.995281
0.995277
0.995277
0.995274
0.995271
0.995267
0.995264
0.995264
0.995261
0.995258
0.995254
0.995251
0.995251
0.995248
0.995245
0.995241
0.995238
0.995238
0.995235
0.995232
0.995228
0.995225
0.995225
0.995222
0.995218
0.995215
0.995212
0.995212
0.995209
0.995205
0.995202
0.995199
0.995199
0.995195
0.995192
0.995189
0.995186
0.995186
0.995182
0.995179
0.995176
0.995172
0.995172
0.995169
0.995166
0.995162
0.995159
0.995159
0.995156
0.995153
0.995149
0.995146
0.995146
0.995143
0.995139
0.995136
0.995133
0.995133
0.995129
0.995126
0.995123
0.995119
0.995119
0.995116
0.995113
0.995109
0.995106
0.995106
0.995103
0.995099
0.995096
0.995093
0.995093
0.995089
0.995086
0.995082
0.995079
0.995079
0.995076
0.995072
0.995069
0.995066
0.995066
0.995062
0.995059
0.995056
0.995052
0.995052
0.995049
0.995045
0.995042
0.995039
0.995039
0.995035
0.995032
0.995029
0.995025
0.995025
0.995022
0.995018
0.995015
0.995012
0.995012
0.995008
0.995005
0.995001
0.994998
0.994998
0.994995
0.994991
0.994988
0.994984
0.994984
0.994981
0.994978
0.994974
0.994971
0.994971
0.994967
0.994964
0.994961
0.994957
0.994957
0.994954
0.99495
0.994947
0.994944
0.994944
0.99494
0.994937
0.994933
0.99493
0.99493
0.994926
0.994923
0.99492
0.994916
0.994916
0.994913
0.994909
0.994906
0.994903
0.994903
0.994899
0.994896
0.994892
0.994889
0.994889
0.994885
0.994882
0.994878
0.994875
0.994875
0.994872
0.994868
0.994865
0.994861
0.994861
0.994858
0.994854
0.994851
0.994847
0.994847
0.994844
0.994841
0.994837
0.994834
0.994834
0.99483
0.994827
0.994823
0.99482
0.99482
0.994816