<?xml version="1.0"?>
<VTKFile type="UnstructuredGrid" version="0.1" byte_order="LittleEndian">
<UnstructuredGrid>
<Piece NumberOfPoints="5000" NumberOfCells="4000">
<PointData Scalars="Reaction 0">
<DataArray type="Float32" Name="Reaction 0" format="ascii">
0.983489
0.983489
0.983489
0.983489
0.983489
0.983489
0.983489
0.983489
0.983489
0.983489
0.983489
0.983489
0.983489
0.983489
0.983489
0.983489
0.983489
0.983488
0.983488
0.983488
0.983488
0.983488
0.983488
0.983488
0.983488
0.983488
0.983488
0.983488
0.983488
0.983488
0.983488
0.983488
0.983488
0.983488
0.983488
0.983488
0.983488
0.983488
0.983488
0.983488
0.983488
0.983488
0.983488
0.983488
0.983488
0.983488
0.983488
0.983488
0.983488
0.983488
0.983488
0.983488
0.983487
0.983487
0.983487
0.983487
0.983487
0.983487
0.983487
0.983487
0.983487
0.983487
0.983487
0.983487
0.983487
0.983487
0.983487
0.983487
0.983487
0.983487
0.983487
0.983487
0.983486
0.983486
0.983486
0.983486
0.983486
0.983486
0.983486
0.983486
0.983486
0.983486
0.983486
0.983486
0.983486
0.983486
0.983486
0.983485
0.983485
0.983485
0.983485
0.983485
0.983485
0.983485
0.983485
0.983485
0.983485
0.983485
0.983485
0.983484
0.983484
0.983484
0.983484
0.983484
0.983484
0.983484
0.983484
0.983484
0.983484
0.983484
0.983484
0.983483
0.983483
0.983483
0.983483
0.983483
0.983483
0.983483
0.983483
0.983483
0.983483
0.983482
0.983482
0.983482
0.983482
0.983482
0.983482
0.983482
0.983482
0.983482
0.983482
0.983481
0.983481
0.983481
0.983481
0.983481
0.983481
0.983481
0.983481
0.98348
0.98348
0.98348
0.98348
0.98348
0.98348
0.98348
0.98348
0.98348
0.983479
0.983479
0.983479
0.983479
0.983479
0.983479
0.983479
0.983479
0.983478
0.983478
0.983478
0.983478
0.983478
0.983478
0.983478
0.983477
0.983477
0.983477
0.983477
0.983477
0.983477
0.983477
0.983477
0.983476
0.983476
0.983476
0.983476
0.983476
0.983476
0.983475
0.983475
0.983475
0.983475
0.983475
0.983475
0.983475
0.983474
0.983474
0.983474
0.983474
0.983474
0.983474
0.983474
0.983473
0.983473
0.983473
0.983473
0.983473
0.983473
0.983472
0.983472
0.983472
0.983472
0.983472
0.983472
0.983471
0.983471
0.983471
0.983471
0.983471
0.98347
0.98347
0.98347
0.98347
0.98347
0.98347
0.983469
0.983469
0.983469
0.983469
0.983469
0.983468
0.983468
0.983468
0.983468
0.983468
0.983468
0.983468
0.983467
0.983467
0.983467
0.983467
0.983467
0.983466
0.983466
0.983466
0.983466
0.983466
0.983465
0.983465
0.983465
0.983465
0.983465
0.983464
0.983464
0.983464
0.983464
0.983464
0.983463
0.983463
0.983463
0.983463
0.983463
0.983462
0.983462
0.983462
0.983462
0.983462
0.983461
0.983461
0.983461
0.98346
0.98346
0.98346
0.98346
0.98346
0.983459
0.983459
0.983459
0.983459
0.983459
0.983458
0.983458
0.983458
0.983458
0.983457
0.983457
0.983457
0.983457
0.983457
0.983456
0.983456
0.983456
0.983456
0.983455
0.983455
0.983455
0.983455
0.983454
0.983454
0.983454
0.983454
0.983454
0.983453
0.983453
0.983453
0.983452
0.983452
0.983452
0.983452
0.983451
0.983451
0.983451
0.983451
0.98345
0.98345
0.98345
0.98345
0.98345
0.983449
0.983449
0.983449
0.983449
0.983448
0.983448
0.983448
0.983447
0.983447
0.983447
0.983447
0.983446
0.983446
0.983446
0.983446
0.983445
0.983445
0.983445
0.983445
0.983444
0.983444
0.983444
0.983443
0.983443
0.983443
0.983443
0.983442
0.983442
0.983442
0.983441
0.983441
0.983441
0.98344
0.98344
0.98344
0.98344
0.983439
0.983439
0.983439
0.983439
0.983438
0.983438
0.983438
0.983438
0.983437
0.983437
0.983436
0.983436
0.983436
0.983436
0.983435
0.983435
0.983435
0.983435
0.983434
0.983434
0.983433
0.983433
0.983433
0.983433
0.983432
0.983432
0.983432
0.983432
0.983431
0.983431
0.98343
0.98343
0.98343
0.98343
0.983429
0.983429
0.983428
0.983428
0.983428
0.983428
0.983427
0.983427
0.983427
0.983426
0.983426
0.983426
0.983425
0.983425
0.983425
0.983424
0.983424
0.983424
0.983424
0.983423
0.983423
0.983422
0.983422
0.983422
0.983421
0.983421
0.983421
0.98342
0.98342
0.98342
0.983419
0.983419
0.983419
0.983419
0.983418
0.983418
0.983417
0.983417
0.983417
0.983416
0.983416
0.983415
0.983415
0.983415
0.983415
0.983414
0.983414
0.983413
0.983413
0.983413
0.983412
0.983412
0.983412
0.983412
0.983411
0.983411
0.98341
0.98341
0.98341
0.983409
0.983409
0.983408
0.983408
0.983408
0.983407
0.983407
0.983407
0.983406
0.983406
0.983406
0.983405
0.983405
0.983404
0.983404
0.983404
0.983403
0.983403
0.983402
0.983402
0.983402
0.983401
0.983401
0.9834
0.9834
0.9834
0.983399
0.983399
0.983398
0.983398
0.983398
0.983397
0.983397
0.983396
0.983396
0.983396
0.983396
0.983395
0.983395
0.983395
0.983394
0.983394
0.983393
0.983393
0.983393
0.983392
0.983392
0.983391
0.983391
0.983391
0.98339
0.98339
0.983389
0.983388
0.983388
0.983388
0.983387
0.983387
0.983386
0.983386
0.983386
0.983385
0.983385
0.983384
0.983384
0.983384
0.983383
0.983383
0.983382
0.983382
0.983382
0.983381
0.983381
0.98338
0.98338
0.98338
0.983379
0.983379
0.983378
0.983378
0.983377
0.983377
0.983376
0.983376
0.983376
0.983375
0.983375
0.983374
0.983374
0.983374
0.983373
0.983373
0.983372
0.983371
0.983371
0.983371
0.98337
0.98337
0.983369
0.983369
0.983369
0.983368
0.983368
0.983367
0.983367
0.983366
0.983366
0.983365
0.983365
0.983365
0.983364
0.983364
0.983363
0.983362
0.983362
0.983362
0.983361
0.983361
0.98336
0.98336
0.98336
0.983359
0.983358
0.983358
0.983358
0.983357
0.983357
0.983356
0.983355
0.983355
0.983355
0.983354
0.983354
0.983353
0.983353
0.983353
0.983352
0.983351
0.983351
0.983351
0.98335
0.98335
0.983349
0.983348
0.983348
0.983348
0.983347
0.983347
0.983346
0.983346
0.983345
0.983345
0.983344
0.983343
0.983343
0.983343
0.983342
0.983342
0.983341
0.983341
0.98334
0.98334
0.983339
0.983338
0.983338
0.983338
0.983337
0.983337
0.983336
0.983336
0.983335
0.983335
0.983334
0.983333
0.983333
0.983333
0.983332
0.983332
0.983331
0.983331
0.98333
0.98333
0.983329
0.983328
0.983328
0.983328
0.983327
0.983326
0.983326
0.983326
0.983325
0.983324
0.983324
0.983323
0.983323
0.983322
0.983322
0.983321
0.98332
0.98332
0.98332
0.983319
0.983318
0.983318
0.983318
0.983317
0.983316
0.983316
0.983315
0.983315
0.983314
0.983314
0.983313
0.983312
0.983312
0.983312
0.983311
0.98331
0.98331
0.98331
0.983309
0.983308
0.983308
0.983307
0.983307
0.983306
0.983306
0.983305
0.983304
0.983304
0.983304
0.983303
0.983302
0.983301
0.983301
0.983301
0.9833
0.983299
0.983299
0.983299
0.983298
0.983297
0.983296
0.983296
0.983296
0.983295
0.983294
0.983294
0.983293
0.983293
0.983292
0.983292
0.983291
0.98329
0.98329
0.983289
0.983289
0.983288
0.983287
0.983287
0.983286
0.983286
0.983285
0.983284
0.983284
0.983284
0.983283
0.983282
0.983281
0.983281
0.983281
0.98328
0.983279
0.983278
0.983278
0.983278
0.983277
0.983276
0.983275
0.983275
0.983275
0.983274
0.983273
0.983272
0.983272
0.983272
0.983271
0.98327
0.983269
0.983269
0.983269
0.983268
0.983267
0.983266
0.983266
0.983266
0.983265
0.983264
0.983263
0.983263
0.983263
0.983262
0.983261
0.98326
0.98326
0.983259
0.983259
0.983258
0.983257
0.983257
0.983256
0.983256
0.983255
0.983254
0.983254
0.983253
0.983252
0.983252
0.983251
0.983251
0.98325
0.983249
0.983249
0.983248
0.983248
0.983247
0.983246
0.983245
0.983245
0.983245
0.983244
0.983243
0.983242
0.983241
0.983241
0.983241
0.98324
0.983239
0.983238
0.983238
0.983237
0.983237
0.983236
0.983235
0.983235
0.983234
0.983233
0.983232
0.983232
0.983232
0.983231
0.98323
0.983229
0.983228
0.983228
0.983228
0.983227
0.983226
0.983225
0.983225
0.983224
0.983223
0.983223
0.983222
0.983222
0.983221
0.98322
0.983219
0.983218
0.983218
0.983218
0.983217
0.983216
0.983215
0.983215
0.983214
0.983213
0.983212
0.983212
0.983212
0.983211
0.98321
0.983209
0.983208
0.983208
0.983207
0.983207
0.983206
0.983205
0.983205
0.983204
0.983203
0.983202
0.983201
0.983201
0.9832
0.9832
0.983199
0.983198
0.983198
0.983197
0.983196
0.983195
0.983194
0.983194
0.983193
0.983193
0.983192
0.983191
0.983191
0.98319
0.983189
0.983188
0.983187
0.983187
0.983186
0.983186
0.983185
0.983184
0.983184
0.983183
0.983182
0.983181
0.98318
0.98318
0.983179
0.983178
0.983177
0.983177
0.983177
0.983176
0.983175
0.983174
0.983173
0.983173
0.983172
0.983171
0.98317
0.983169
0.983169
0.983168
0.983168
0.983167
0.983166
0.983166
0.983165
0.983164
0.983163
0.983162
0.983162
0.983161
0.98316
0.983159
0.983158
0.983158
0.983157
0.983156
0.983156
0.983155
0.983155
0.983154
0.983153
0.983152
0.983151
0.983151
0.98315
0.983149
0.983148
0.983147
0.983147
0.983146
0.983145
0.983144
0.983143
0.983143
0.983142
0.983141
0.98314
0.983139
0.983139
0.983139
0.983138
0.983137
0.983136
0.983136
0.983135
0.983134
0.983133
0.983132
0.983132
0.983131
0.98313
0.983129
0.983128
0.983128
0.983127
0.983126
0.983125
0.983124
0.983124
0.983123
0.983122
0.983121
0.98312
0.98312
0.983119
0.983118
0.983117
0.983116
0.983116
0.983115
0.983114
0.983113
0.983112
0.983112
0.983111
0.98311
0.983109
0.983108
0.983108
0.983107
0.983106
0.983105
0.983104
0.983104
0.983103
0.983102
0.983101
0.9831
0.9831
0.983099
0.983098
0.983097
0.983096
0.983096
0.983095
0.983094
0.983093
0.983092
0.983092
0.983091
0.98309
0.983089
0.983088
0.983088
0.983087
0.983086
0.983085
0.983084
0.983084
0.983083
0.983082
0.983081
0.98308
0.98308
0.983079
0.983078
0.983077
0.983076
0.983076
0.983075
0.983074
0.983073
0.983072
0.983072
0.983071
0.983069
0.983068
0.983067
0.983067
0.983066
0.983065
0.983064
0.983063
0.983063
0.983062
0.983061
0.98306
0.983059
0.983059
0.983058
0.983057
0.983056
0.983055
0.983055
0.983054
0.983052
0.983051
0.98305
0.98305
0.983049
0.983048
0.983047
0.983046
0.983046
0.983045
0.983044
0.983043
0.983042
0.983042
0.983041
0.983039
0.983038
0.983037
0.983037
0.983036
0.983035
0.983034
0.983033
0.983033
0.983032
0.983031
0.98303
0.983028
0.983028
0.983027
0.983026
0.983025
0.983024
0.983024
0.983023
0.983022
0.983021
0.98302
0.98302
0.983018
0.983017
0.983016
0.983015
0.983015
0.983014
0.983013
0.983012
0.983011
0.983011
0.98301
0.983008
0.983007
0.983006
0.983006
0.983005
0.983004
0.983003
0.983002
0.983002
0.983001
0.982999
0.982998
0.982997
0.982997
0.982996
0.982995
0.982994
0.982993
0.982993
0.982992
0.98299
0.982989
0.982988
0.982988
0.982987
0.982986
0.982985
0.982983
0.982983
0.982982
0.982981
0.98298
0.982979
0.982979
0.982978
0.982977
0.982975
0.982974
0.982974
0.982973
0.982972
0.982971
0.982969
0.982969
0.982968
0.982967
0.982966
0.982965
0.982965
0.982964
0.982962
0.982961
0.98296
0.98296
0.982959
0.982958
0.982956
0.982955
0.982955
0.982954
0.982953
0.982952
0.982951
0.982951
0.982949
0.982948
0.982947
0.982946
0.982946
0.982945
0.982943
0.982942
0.982941
0.982941
0.98294
0.982938
0.982937
0.982936
0.982936
0.982935
0.982934
0.982932
0.982931
0.982931
0.98293
0.982929
0.982928
0.982926
0.982926
0.982925
0.982924
0.982923
0.982921
0.982921
0.98292
0.982919
0.982918
0.982916
0.982916
0.982915
0.982914
0.982913
0.982912
0.982912
0.98291
0.982909
0.982908
0.982907
0.982907
0.982905
0.982904
0.982903
0.982902
0.982902
0.9829
0.982899
0.982898
0.982897
0.982897
0.982895
0.982894
0.982893
0.982892
0.982892
0.98289
0.982889
0.982888
0.982886
0.982886
0.982885
0.982884
0.982883
0.982881
0.982881
0.98288
0.982879
0.982878
0.982876
0.982876
0.982875
0.982874
0.982872
0.982871
0.982871
0.98287
0.982869
0.982867
0.982866
0.982866
0.982865
0.982863
0.982862
0.982861
0.982861
0.98286
0.982858
0.982857
0.982856
0.982856
0.982854
0.982853
0.982852
0.982851
0.982851
0.982849
0.982848
0.982847
0.982845
0.982845
0.982844
0.982843
0.982841
0.98284
0.98284
0.982839
0.982837
0.982836
0.982835
0.982835
0.982833
0.982832
0.982831
0.98283
0.98283
0.982828
0.982827
0.982826
0.982824
0.982824
0.982823
0.982822
0.98282
0.982819
0.982819
0.982818
0.982816
0.982815
0.982814
0.982814
0.982812
0.982811
0.98281
0.982808
0.982808
0.982807
0.982805
0.982804
0.982803
0.982803
0.982801
0.9828
0.982799
0.982797
0.982797
0.982796
0.982795
0.982793
0.982792
0.982792
0.982791
0.982789
0.982788
0.982786
0.982786
0.982785
0.982784
0.982782
0.982781
0.982781
0.98278
0.982778
0.982777
0.982775
0.982775
0.982774
0.982773
0.982771
0.98277
0.98277
0.982769
0.982767
0.982766
0.982764
0.982764
0.982763
0.982762
0.98276
0.982759
0.982759
0.982757
0.982756
0.982755
0.982753
0.982753
0.982752
0.98275
0.982749
0.982748
0.982748
0.982746
0.982745
0.982743
0.982742
0.982742
0.982741
0.982739
0.982738
0.982736
0.982736
0.982735
0.982734
0.982732
0.982731
0.982731
0.982729
0.982728
0.982726
0.982725
0.982725
0.982724
0.982722
0.982721
0.982719
0.982719
0.982718
0.982717
0.982715
0.982714
0.982714
0.982712
0.982711
0.982709
0.982708
0.982708
0.982706
0.982705
0.982704
0.982702
0.982702
0.982701
0.982699
0.982698
0.982696
0.982696
0.982695
0.982693
0.982692
0.982691
0.982691
0.982689
0.982688
0.982686
0.982685
0.982685
0.982683
0.982682
0.98268
0.982679
0.982679
0.982677
0.982676
0.982674
0.982673
0.982673
0.982671
0.98267
0.982669
0.982667
0.982667
0.982666
0.982664
0.982663
0.982661
0.982661
0.98266
0.982658
0.982657
0.982655
0.982655
0.982654
0.982652
0.982651
0.982649
0.982649
0.982648
0.982646
0.982645
0.982643
0.982643
0.982642
0.98264
0.982639
0.982637
0.982637
0.982636
0.982634
0.982633
0.982631
0.982631
0.98263
0.982628
0.982627
0.982625
0.982625
0.982624
0.982622
0.982621
0.982619
0.982619
0.982618
0.982616
0.982615
0.982613
0.982613
0.982611
0.98261
0.982608
0.982607
0.982607
0.982605
0.982604
0.982602
0.982601
0.982601
0.982599
0.982598
0.982596
0.982595
0.982595
0.982593
0.982592
0.98259
0.982588
0.982588
0.982587
0.982585
0.982584
0.982582
0.982582
0.982581
0.982579
0.982578
0.982576
0.982576
0.982574
0.982573
0.982571
0.98257
0.98257
0.982568
0.982567
0.982565
0.982564
0.982564
0.982562
0.98256
0.982559
0.982557
0.982557
0.982556
0.982554
0.982553
0.982551
0.982551
0.982549
0.982548
0.982546
0.982545
0.982545
0.982543
0.982541
0.98254
0.982538
0.982538
0.982537
0.982535
0.982534
0.982532
0.982532
0.98253
0.982529
0.982527
0.982526
0.982526
0.982524
0.982522
0.982521
0.982519
0.982519
0.982518
0.982516
0.982514
0.982513
0.982513
0.982511
0.98251
0.982508
0.982506
0.982506
0.982505
0.982503
0.982501
0.9825
0.9825
0.982498
0.982497
0.982495
0.982493
0.982493
0.982492
0.98249
0.982488
0.982487
0.982487
0.982485
0.982484
0.982482
0.98248
0.98248
0.982479
0.982477
0.982475
0.982474
0.982474
0.982472
0.98247
0.982469
0.982467
0.982467
0.982466
0.982464
0.982462
0.982461
0.982461
0.982459
0.982457
0.982456
0.982454
0.982454
0.982452
0.982451
0.982449
0.982447
0.982447
0.982446
0.982444
0.982442
0.982441
0.982441
0.982439
0.982437
0.982436
0.982434
0.982434
0.982432
0.982431
0.982429
0.982427
0.982427
0.982426
0.982424
0.982422
0.982421
0.982421
0.982419
0.982417
0.982415
0.982414
0.982414
0.982412
0.98241
0.982409
0.982407
0.982407
0.982405
0.982404
0.982402
0.9824
0.9824
0.982399
0.982397
0.982395
0.982393
0.982393
0.982392
0.98239
0.982388
0.982387
0.982387
0.982385
0.982383
0.982381
0.98238
0.98238
0.982378
0.982376
0.982375
0.982373
0.982373
0.982371
0.982369
0.982368
0.982366
0.982366
0.982364
0.982363
0.982361
0.982359
0.982359
0.982357
0.982356
0.982354
0.982352
0.982352
0.98235
0.982349
0.982347
0.982345
0.982345
0.982343
0.982342
0.98234
0.982338
0.982338
0.982336
0.982335
0.982333
0.982331
0.982331
0.982329
0.982328
0.982326
0.982324
0.982324
0.982322
0.982321
0.982319
0.982317
0.982317
0.982315
0.982314
0.982312
0.98231
0.98231
0.982308
0.982306
0.982305
0.982303
0.982303
0.982301
0.982299
0.982297
0.982296
0.982296
0.982294
0.982292
0.98229
0.982289
0.982289
0.982287
0.982285
0.982283
0.982281
0.982281
0.982279
0.982278
0.982276
0.982274
0.982274
0.982272
0.98227
0.982269
0.982267
0.982267
0.982265
0.982263
0.982261
0.982259
0.982259
0.982258
0.982256
0.982254
0.982252
0.982252
0.98225
0.982249
0.982247
0.982245
0.982245
0.982243
0.982241
0.982239
0.982238
0.982238
0.982236
0.982234
0.982232
0.98223
0.98223
0.982229
0.982227
0.982225
0.982223
0.982223
0.982221
0.982219
0.982218
0.982216
0.982216
0.982214
0.982212
0.98221
0.982208
0.982208
0.982206
0.982205
0.982203
0.982201
0.982201
0.982199
0.982197
0.982195
0.982193
0.982193
0.982192
0.98219
0.982188
0.982186
0.982186
0.982184
0.982182
0.98218
0.982179
0.982179
0.982177
0.982175
0.982173
0.982171
0.982171
0.982169
0.982167
0.982165
0.982163
0.982163
0.982162
0.98216
0.982158
0.982156
0.982156
0.982154
0.982152
0.98215
0.982148
0.982148
0.982146
0.982144
0.982143
0.982141
0.982141
0.982139
0.982137
0.982135
0.982133
0.982133
0.982131
0.982129
0.982127
0.982125
0.982125
0.982123
0.982122
0.98212
0.982118
0.982118
0.982116
0.982114
0.982112
0.98211
0.98211
0.982108
0.982106
0.982104
0.982102
0.982102
0.9821
0.982098
0.982096
0.982094
0.982094
0.982093
0.982091
0.982089
0.982087
0.982087
0.982085
0.982083
0.982081
0.982079
0.982079
0.982077
0.982075
0.982073
0.982071
0.982071
0.982069
0.982067
0.982065
0.982063
0.982063
0.982061
0.982059
0.982057
0.982055
0.982055
0.982053
0.982051
0.982049
0.982047
0.982047
0.982045
0.982044
0.982042
0.98204
0.98204
0.982038
0.982036
0.982034
0.982032
0.982032
0.98203
0.982028
0.982026
0.982024
0.982024
0.982022
0.98202
0.982018
0.982016
0.982016
0.982014
0.982012
0.98201
0.982008
0.982008
0.982006
0.982004
0.982002
0.982
0.982
0.981998
0.981996
0.981994
0.981992
0.981992
0.98199
0.981988
0.981986
0.981984
0.981984
0.981982
0.98198
0.981978
0.981976
0.981976
0.981974
0.981971
0.981969
0.981967
0.981967
0.981965
0.981963
0.981961
0.981959
0.981959
0.981957
0.981955
0.981953
0.981951
0.981951
0.981949
0.981947
0.981945
0.981943
0.981943
0.981941
0.981939
0.981937
0.981935
0.981935
0.981933
0.981931
0.981929
0.981927
0.981927
0.981925
0.981922
0.98192
0.981918
0.981918
0.981916
0.981914
0.981912
0.98191
0.98191
0.981908
0.981906
0.981904
0.981902
0.981902
0.9819
0.981898
0.981896
0.981894
0.981894
0.981891
0.981889
0.981887
0.981885
0.981885
0.981883
0.981881
0.981879
0.981877
0.981877
0.981875
0.981873
0.981871
0.981869
0.981869
0.981866
0.981864
0.981862
0.98186
0.98186
0.981858
0.981856
0.981854
0.981852
0.981852
0.98185
0.981848
0.981845
0.981843
0.981843
0.981841
0.981839
0.981837
0.981835
0.981835
0.981833
0.981831
0.981829
0.981826
0.981826
0.981824
0.981822
0.98182
0.981818
0.981818
0.981816
0.981814
0.981812
0.981809
0.981809
0.981807
0.981805
0.981803
0.981801
0.981801
0.981799
0.981797
0.981795
0.981792
0.981792
0.98179
0.981788
0.981786
0.981784
0.981784
0.981782
0.98178
0.981777
0.981775
0.981775
0.981773
0.981771
0.981769
0.981767
0.981767
0.981764
0.981762
0.98176
0.981758
0.981758
0.981756
0.981754
0.981751
0.981749
0.981749
0.981747
0.981745
0.981743
0.981741
0.981741
0.981738
0.981736
0.981734
0.981732
0.981732
0.98173
0.981728
0.981725
0.981723
0.981723
0.981721
0.981719
0.981717
0.981714
0.981714
0.981712
0.98171
0.981708
0.981706
0.981706
0.981704
0.981701
0.981699
0.981697
0.981697
0.981695
0.981693
0.98169
0.981688
0.981688
0.981686
0.981684
0.981681
0.981679
0.981679
0.981677
0.981675
0.981673
0.98167
0.98167
0.981668
0.981666
0.981664
0.981662
0.981662
0.981659
0.981657
0.981655
0.981653
0.981653
0.98165
0.981648
0.981646
0.981644
0.981644
0.981642
0.981639
0.981637
0.981635
0.981635
0.981633
0.98163
0.981628
0.981626
0.981626
0.981624
0.981621
0.981619
0.981617
0.981617
0.981615
0.981612
0.98161
0.981608
0.981608
0.981606
0.981603
0.981601
0.981599
0.981599
0.981597
0.981594
0.981592
0.98159
0.98159
0.981588
0.981585
0.981583
0.981581
0.981581
0.981578
0.981576
0.981574
0.981572
0.981572
0.981569
0.981567
0.981565
0.981562
0.981562
0.98156
0.981558
0.981556
0.981553
0.981553
0.981551
0.981549
0.981546
0.981544
0.981544
0.981542
0.981539
0.981537
0.981535
0.981535
0.981533
0.98153
0.981528
0.981526
0.981526
0.981523
0.981521
0.981519
0.981516
0.981516
0.981514
0.981512
0.981509
0.981507
0.981507
0.981505
0.981502
0.9815
0.981498
0.981498
0.981495
0.981493
0.98149
0.981488
0.981488
0.981486
0.981483
0.981481
0.981479
0.981479
0.981476
0.981474
0.981472
0.981469
0.981469
0.981467
0.981465
0.981462
0.98146
0.98146
0.981458
0.981455
0.981453
0.981451
0.981451
0.981448
0.981446
0.981444
0.981441
0.981441
0.981439
0.981437
0.981434
0.981432
0.981432
0.98143
0.981427
0.981425
0.981422
0.981422
0.98142
0.981418
0.981415
0.981413
0.981413
0.981411
0.981408
0.981406
0.981403
0.981403
0.981401
0.981399
0.981396
0.981394
0.981394
0.981392
0.981389
0.981387
0.981384
0.981384
0.981382
0.98138
0.981377
0.981375
0.981375
0.981372
0.98137
0.981368
0.981365
0.981365
0.981363
0.98136
0.981358
0.981355
0.981355
0.981353
0.981351
0.981348
0.981346
0.981346
0.981343
0.981341
0.981339
0.981336
0.981336
0.981334
0.981331
0.981329
0.981326
0.981326
0.981324
0.981321
0.981319
0.981317
0.981317
0.981314
0.981312
0.981309
0.981307
0.981307
0.981304
0.981302
0.981299
0.981297
0.981297
0.981295
0.981292
0.98129
0.981287
0.981287
0.981285
0.981282
0.98128
0.981277
0.981277
0.981275
0.981272
0.98127
0.981267
0.981267
0.981265
0.981263
0.98126
0.981258
0.981258
0.981255
0.981253
0.98125
0.981248
0.981248
0.981245
0.981243
0.98124
0.981238
0.981238
0.981235
0.981233
0.98123
0.981228
0.981228
0.981225
0.981223
0.98122
0.981218
0.981218
0.981215
0.981213
0.98121
0.981208
0.981208
0.981205
0.981203
0.9812
0.981198
0.981198
0.981195
0.981193
0.98119
0.981188
0.981188
0.981185
0.981183
0.98118
0.981178
0.981178
0.981175
0.981173
0.98117
0.981168
0.981168
0.981165
0.981162
0.98116
0.981157
0.981157
0.981155
0.981152
0.98115
0.981147
0.981147
0.981145
0.981142
0.98114
0.981137
0.981137
0.981135
0.981132
0.981129
0.981127
0.981127
0.981124
0.981122
0.981119
0.981117
0.981117
0.981114
0.981112
0.981109
0.981107
0.981107
0.981104
0.981101
0.981099
0.981096
0.981096
0.981094
0.981091
0.981089
0.981086
0.981086
0.981083
0.981081
0.981078
0.981076
0.981076
0.981073
0.981071
0.981068
0.981065
0.981065
0.981063
0.98106
0.981058
0.981055
0.981055
0.981052
0.98105
0.981047
0.981045
0.981045
0.981042
0.98104
0.981037
0.981034
0.981034
0.981032
0.981029
0.981027
0.981024
0.981024
0.981021
0.981019
0.981016
0.981014
0.981014
0.981011
0.981008
0.981006
0.981003
0.981003
0.981
0.980998
0.980995
0.980993
0.980993
0.98099
0.980987
0.980985
0.980982
0.980982
0.98098
0.980977
0.980974
0.980972
0.980972
0.980969
0.980966
0.980964
0.980961
0.980961
0.980958
0.980956
0.980953
0.980951
0.980951
0.980948
0.980945
0.980943
0.98094
0.98094
0.980937
0.980935
0.980932
0.980929
0.980929
0.980927
0.980924
0.980921
0.980919
0.980919
0.980916
0.980913
0.980911
0.980908
0.980908
0.980906
0.980903
0.9809
0.980898
0.980898
0.980895
0.980892
0.98089
0.980887
0.980887
0.980884
0.980881
0.980879
0.980876
0.980876
0.980873
0.980871
0.980868
0.980865
0.980865
0.980863
0.98086
0.980857
0.980855
0.980855
0.980852
0.980849
0.980847
0.980844
0.980844
0.980841
0.980838
0.980836
0.980833
0.980833
0.98083
0.980828
0.980825
0.980822
0.980822
0.98082
0.980817
0.980814
0.980811
0.980811
0.980809
0.980806
0.980803
0.9808
0.9808
0.980798
0.980795
0.980792
0.98079
0.98079
0.980787
0.980784
0.980781
0.980779
0.980779
0.980776
0.980773
0.98077
0.980768
0.980768
0.980765
0.980762
0.980759
0.980757
0.980757
0.980754
0.980751
0.980748
0.980746
0.980746
0.980743
0.98074
0.980737
0.980734
0.980734
0.980732
0.980729
0.980726
0.980723
0.980723
0.98072
0.980718
0.980715
0.980712
0.980712
0.980709
0.980707
0.980704
0.980701
0.980701
0.980698
0.980695
0.980693
0.98069
0.98069
0.980687
0.980684
0.980681
0.980679
0.980679
0.980676
0.980673
0.98067
0.980668
0.980668
0.980665
0.980662
0.980659
0.980657
0.980657
0.980654
0.980651
0.980648
0.980645
0.980645
0.980643
0.98064
0.980637
0.980634
0.980634
0.980631
0.980629
0.980626
0.980623
0.980623
0.98062
0.980617
0.980615
0.980612
0.980612
0.980609
0.980606
0.980603
0.9806
0.9806
0.980598
0.980595
0.980592
0.980589
0.980589
0.980586
0.980583
0.980581
0.980578
0.980578
0.980575
0.980572
0.980569
0.980566
0.980566
0.980564
0.980561
0.980558
0.980555
0.980555
0.980552
0.980549
0.980546
0.980544
0.980544
0.980541
0.980538
0.980535
0.980532
0.980532
0.980529
0.980526
0.980523
0.980521
0.980521
0.980518
0.980515
0.980512
0.980509
0.980509
0.980506
0.980503
0.9805
0.980497
0.980497
0.980495
0.980492
0.980489
0.980486
0.980486
0.980483
0.98048
0.980477
0.980474
0.980474
0.980471
0.980468
0.980466
0.980463
0.980463
0.98046
0.980457
0.980454
0.980451
0.980451
0.980448
0.980445
0.980442
0.980439
0.980439
0.980436
0.980434
0.980431
0.980428
0.980428
0.980425
0.980422
0.980419
0.980416
0.980416
0.980413
0.98041
0.980407
0.980404
0.980404
0.980401
0.980398
0.980395
0.980392
0.980392
0.98039
0.980387
0.980384
0.980381
0.980381
0.980378
0.980375
0.980372
0.980369
0.980369
0.980366
0.980363
0.98036
0.980357
0.980357
0.980354
0.980351
0.980348
0.980345
0.980345
0.980342
0.980339
0.980336
0.980333
0.980333
0.98033
0.980327
0.980325
0.980322
0.980322
0.980319
0.980316
0.980313
0.98031
0.98031
0.980307
0.980304
0.980301
0.980298
0.980298
0.980295
0.980292
0.980289
0.980286
0.980286
0.980283
0.98028
0.980277
0.980274
0.980274
0.980271
0.980268
0.980265
0.980262
0.980262
0.980259
0.980256
0.980253
0.98025
0.98025
0.980247
0.980244
0.980241
0.980238
0.980238
0.980235
0.980232
0.980229
0.980226
0.980226
0.980223
0.98022
0.980217
0.980214
0.980214
0.980211
0.980208
0.980205
0.980201
0.980201
0.980198
0.980195
0.980192
0.980189
0.980189
0.980186
0.980183
0.98018
0.980177
0.980177
0.980174
0.980171
0.980168
0.980165
0.980165
0.980162
0.980159
0.980156
0.980153
0.980153
0.98015
0.980147
0.980144
0.980141
0.980141
0.980138
0.980135
0.980131
0.980128
0.980128
0.980125
0.980122
0.980119
0.980116
0.980116
0.980113
0.98011
0.980107
0.980104
0.980104
0.980101
0.980098
0.980095
0.980092
0.980092
0.980088
0.980085
0.980082
0.980079
0.980079
0.980076
0.980073
0.98007
0.980067
0.980067
0.980064
0.980061
0.980058
0.980054
0.980054
0.980051
0.980048
0.980045
0.980042
0.980042
0.980039
0.980036
0.980033
0.98003
0.98003
0.980026
0.980023
0.98002
0.980017
0.980017
0.980014
0.980011
0.980008
0.980004
0.980004
0.980001
0.979998
0.979995
0.979992
0.979992
0.979989
0.979986
0.979982
0.979979
0.979979
0.979976
0.979973
0.97997
0.979967
0.979967
0.979963
0.97996
0.979957
0.979954
0.979954
0.979951
0.979948
0.979944
0.979941
0.979941
0.979938
0.979935
0.979932
0.979928
0.979928
0.979925
0.979922
0.979919
0.979916
0.979916
0.979913
0.979909
0.979906
0.979903
0.979903
0.9799
0.979897
0.979894
0.97989
0.97989
0.979887
0.979884
0.979881
0.979878
0.979878
0.979875
0.979872
0.979868
0.979865
0.979865
0.979862
0.979859
0.979856
0.979852
0.979852
0.979849
0.979846
0.979843
0.97984
0.97984
0.979837
0.979833
0.97983
0.979827
0.979827
0.979824
0.979821
0.979817
0.979814
0.979814
0.979811
0.979808
0.979804
0.979801
0.979801
0.979798
0.979795
0.979792
0.979788
0.979788
0.979785
0.979782
0.979779
0.979775
0.979775
0.979772
0.979769
0.979766
0.979762
0.979762
0.979759
0.979756
0.979753
0.979749
0.979749
0.979746
0.979743
0.97974
0.979736
0.979736
0.979733
0.97973
0.979727
0.979723
0.979723
0.97972
0.979717
0.979714
0.97971
0.97971
0.979707
0.979704
0.9797
0.979697
0.979697
0.979694
0.979691
0.979687
0.979684
0.979684
0.979681
0.979677
0.979674
0.979671
0.979671
0.979668
0.979664
0.979661
0.979658
0.979658
0.979654
0.979651
0.979648
0.979645
0.979645
0.979641
0.979638
0.979635
0.979631
0.979631
0.979628
0.979625
0.979621
0.979618
0.979618
0.979615
0.979611
0.979608
0.979605
0.979605
0.979601
0.979598
0.979595
0.979591
0.979591
0.979588
0.979585
0.979582
0.979578
0.979578
0.979575
0.979572
0.979568
0.979565
0.979565
0.979562
0.979558
0.979555
0.979551
0.979551
0.979548
0.979545
0.979541
0.979538
0.979538
0.979535
0.979531
0.979528
0.979525
0.979525
0.979521
0.979518
0.979515
0.979511
0.979511
0.979508
0.979505
0.979501
0.979498
0.979498
0.979494
0.979491
0.979488
0.979484
0.979484
0.979481
0.979478
0.979474
0.979471
0.979471
0.979468
0.979464
0.979461
0.979457
0.979457
0.979454
0.979451
0.979447
0.979444
0.979444
0.97944
0.979437
0.979434
0.97943
0.97943
0.979427
0.979423
0.97942
0.979417
0.979417
0.979413
0.97941
0.979406
0.979403
0.979403
0.9794
0.979396
0.979393
0.979389
0.979389
0.979386
0.979383
0.979379
0.979376
0.979376
0.979372
0.979369
0.979366
0.979362
0.979362
0.979359
0.979355
0.979352
0.979348
0.979348
0.979345
0.979342
0.979338
0.979335
0.979335
0.979331
0.979328
0.979324
0.979321
0.979321
0.979318
0.979314
0.979311
0.979307
0.979307
0.979304
0.9793
0.979297
0.979293
0.979293
0.97929
0.979286
0.979283
0.97928
0.97928
0.979276
0.979273
0.979269
0.979266
0.979266
0.979262
0.979259
0.979255
0.979252
0.979252
0.979248
0.979245
0.979241
0.979238
0.979238
0.979234
0.979231
0.979227
0.979224
0.979224
0.97922
0.979217
0.979213
0.97921
0.97921
0.979206
0.979203
0.979199
0.979196
0.979196
0.979192
0.979189
0.979185
0.979181
0.979181
0.979178
0.979174
0.979171
0.979167
0.979167
0.979164
0.97916
0.979157
0.979153
0.979153
0.97915
0.979146
0.979143
0.979139
0.979139
0.979136
0.979132
0.979128
0.979125
0.979125
0.979121
0.979118
0.979114
0.979111
0.979111
0.979107
0.979104
0.9791
0.979097
0.979097
0.979093
0.97909
0.979086
0.979083
0.979083
0.979079
0.979076
0.979072
0.979069
0.979069
0.979065
0.979062
0.979058
0.979055
0.979055
0.979051
0.979047
0.979044
0.97904
0.97904
0.979037
0.979033
0.97903
0.979026
0.979026
0.979022
0.979019
0.979015
0.979012
0.979012
0.979008
0.979005
0.979001
0.978997
0.978997
0.978994
0.97899
0.978987
0.978983
0.978983
0.978979
0.978976
0.978972
0.978969
0.978969
0.978965
0.978961
0.978958
0.978954
0.978954
0.978951
0.978947
0.978943
0.97894
0.97894
0.978936
0.978933
0.978929
0.978925
0.978925
0.978922
0.978918
0.978914
0.978911
0.978911
0.978907
0.978904
0.9789
0.978896
0.978896
0.978893
0.978889
0.978885
0.978882
0.978882
0.978878
0.978874
0.978871
0.978867
0.978867
0.978863
0.97886
0.978856
0.978853
0.978853
0.978849
0.978845
0.978842
0.978838
0.978838
0.978834
0.978831
0.978827
0.978823
0.978823
0.97882
0.978816
0.978812
0.978809
0.978809
0.978805
0.978801
0.978798
0.978794
0.978794
0.97879
0.978787
0.978783
0.978779
0.978779
0.978775
0.978772
0.978768
0.978764
0.978764
0.978761
0.978757
0.978753
0.97875
0.97875
0.978746
0.978742
0.978739
0.978735
0.978735
0.978731
0.978727
0.978724
0.97872
0.97872
0.978716
0.978713
0.978709
0.978705
0.978705
0.978701
0.978698
0.978694
0.97869
0.97869
0.978687
0.978683
0.978679
0.978675
0.978675
0.978672
0.978668
0.978664