<?xml version="1.0"?>
<VTKFile type="UnstructuredGrid" version="0.1" byte_order="LittleEndian">
<UnstructuredGrid>
<Piece NumberOfPoints="5000" NumberOfCells="4000">
<PointData Scalars="Reaction 0">
<DataArray type="Float32" Name="Reaction 0" format="ascii">
0.650044
0.650044
0.650044
0.650044
0.650044
0.650044
0.650044
0.650044
0.650044
0.650044
0.650044
0.650044
0.650045
0.650045
0.650045
0.650045
0.650045
0.650045
0.650046
0.650046
0.650046
0.650046
0.650046
0.650046
0.650047
0.650047
0.650047
0.650047
0.650048
0.650048
0.650048
0.650048
0.650049
0.650049
0.65005
0.65005
0.65005
0.65005
0.650051
0.650051
0.650051
0.650052
0.650052
0.650053
0.650053
0.650053
0.650054
0.650054
0.650055
0.650055
0.650055
0.650056
0.650057
0.650057
0.650058
0.650058
0.650058
0.650059
0.65006
0.650061
0.650061
0.650061
0.650062
0.650063
0.650063
0.650063
0.650064
0.650065
0.650066
0.650067
0.650067
0.650067
0.650068
0.650069
0.65007
0.65007
0.650071
0.650072
0.650073
0.650073
0.650073
0.650074
0.650075
0.650076
0.650077
0.650077
0.650078
0.650079
0.65008
0.650081
0.650081
0.650082
0.650083
0.650084
0.650086
0.650086
0.650087
0.650088
0.650089
0.65009
0.65009
0.650091
0.650092
0.650094
0.650095
0.650095
0.650096
0.650097
0.650099
0.6501
0.6501
0.650101
0.650102
0.650104
0.650105
0.650105
0.650106
0.650108
0.650109
0.65011
0.65011
0.650112
0.650113
0.650115
0.650116
0.650116
0.650118
0.650119
0.65012
0.650122
0.650122
0.650123
0.650125
0.650127
0.650128
0.650128
0.65013
0.650131
0.650133
0.650134
0.650134
0.650136
0.650138
0.650139
0.650141
0.650141
0.650143
0.650144
0.650146
0.650148
0.650148
0.65015
0.650151
0.650153
0.650155
0.650155
0.650157
0.650158
0.65016
0.650162
0.650162
0.650164
0.650166
0.650168
0.65017
0.65017
0.650172
0.650173
0.650175
0.650177
0.650177
0.650179
0.650181
0.650183
0.650185
0.650185
0.650187
0.650189
0.650191
0.650194
0.650194
0.650196
0.650198
0.6502
0.650202
0.650202
0.650204
0.650206
0.650208
0.650211
0.650211
0.650213
0.650215
0.650217
0.65022
0.65022
0.650222
0.650224
0.650226
0.650229
0.650229
0.650231
0.650233
0.650236
0.650238
0.650238
0.65024
0.650243
0.650245
0.650248
0.650248
0.65025
0.650252
0.650255
0.650257
0.650257
0.65026
0.650262
0.650265
0.650267
0.650267
0.65027
0.650273
0.650275
0.650278
0.650278
0.65028
0.650283
0.650286
0.650288
0.650288
0.650291
0.650294
0.650296
0.650299
0.650299
0.650302
0.650304
0.650307
0.65031
0.65031
0.650313
0.650315
0.650318
0.650321
0.650321
0.650324
0.650327
0.65033
0.650333
0.650333
0.650335
0.650338
0.650341
0.650344
0.650344
0.650347
0.65035
0.650353
0.650356
0.650356
0.650359
0.650362
0.650365
0.650368
0.650368
0.650371
0.650374
0.650377
0.650381
0.650381
0.650384
0.650387
0.65039
0.650393
0.650393
0.650396
0.650399
0.650403
0.650406
0.650406
0.650409
0.650412
0.650416
0.650419
0.650419
0.650422
0.650426
0.650429
0.650432
0.650432
0.650436
0.650439
0.650442
0.650446
0.650446
0.650449
0.650453
0.650456
0.650459
0.650459
0.650463
0.650466
0.65047
0.650473
0.650473
0.650477
0.65048
0.650484
0.650488
0.650488
0.650491
0.650495
0.650498
0.650502
0.650502
0.650506
0.650509
0.650513
0.650517
0.650517
0.65052
0.650524
0.650528
0.650532
0.650532
0.650535
0.650539
0.650543
0.650547
0.650547
0.65055
0.650554
0.650558
0.650562
0.650562
0.650566
0.65057
0.650574
0.650578
0.650578
0.650581
0.650585
0.650589
0.650593
0.650593
0.650597
0.650601
0.650605
0.650609
0.650609
0.650613
0.650617
0.650622
0.650626
0.650626
0.65063
0.650634
0.650638
0.650642
0.650642
0.650646
0.65065
0.650655
0.650659
0.650659
0.650663
0.650667
0.650672
0.650676
0.650676
0.65068
0.650684
0.650689
0.650693
0.650693
0.650697
0.650702
0.650706
0.65071
0.65071
0.650715
0.650719
0.650724
0.650728
0.650728
0.650732
0.650737
0.650741
0.650746
0.650746
0.65075
0.650755
0.650759
0.650764
0.650764
0.650769
0.650773
0.650778
0.650782
0.650782
0.650787
0.650792
0.650796
0.650801
0.650801
0.650805
0.65081
0.650815
0.65082
0.65082
0.650824
0.650829
0.650834
0.650839
0.650839
0.650843
0.650848
0.650853
0.650858
0.650858
0.650863
0.650868
0.650872
0.650877
0.650877
0.650882
0.650887
0.650892
0.650897
0.650897
0.650902
0.650907
0.650912
0.650917
0.650917
0.650922
0.650927
0.650932
0.650937
0.650937
0.650942
0.650947
0.650952
0.650957
0.650957
0.650963
0.650968
0.650973
0.650978
0.650978
0.650983
0.650988
0.650994
0.650999
0.650999
0.651004
0.651009
0.651015
0.65102
0.65102
0.651025
0.651031
0.651036
0.651041
0.651041
0.651047
0.651052
0.651057
0.651063
0.651063
0.651068
0.651074
0.651079
0.651085
0.651085
0.65109
0.651096
0.651101
0.651107
0.651107
0.651112
0.651118
0.651123
0.651129
0.651129
0.651134
0.65114
0.651146
0.651151
0.651151
0.651157
0.651163
0.651168
0.651174
0.651174
0.65118
0.651185
0.651191
0.651197
0.651197
0.651203
0.651208
0.651214
0.65122
0.65122
0.651226
0.651232
0.651237
0.651243
0.651243
0.651249
0.651255
0.651261
0.651267
0.651267
0.651273
0.651279
0.651285
0.651291
0.651291
0.651297
0.651303
0.651309
0.651315
0.651315
0.651321
0.651327
0.651333
0.651339
0.651339
0.651345
0.651351
0.651357
0.651364
0.651364
0.65137
0.651376
0.651382
0.651388
0.651388
0.651394
0.651401
0.651407
0.651413
0.651413
0.651419
0.651426
0.651432
0.651438
0.651438
0.651445
0.651451
0.651457
0.651464
0.651464
0.65147
0.651477
0.651483
0.651489
0.651489
0.651496
0.651502
0.651509
0.651515
0.651515
0.651522
0.651528
0.651535
0.651541
0.651541
0.651548
0.651555
0.651561
0.651568
0.651568
0.651574
0.651581
0.651588
0.651594
0.651594
0.651601
0.651608
0.651614
0.651621
0.651621
0.651628
0.651635
0.651641
0.651648
0.651648
0.651655
0.651662
0.651668
0.651675
0.651675
0.651682
0.651689
0.651696
0.651703
0.651703
0.65171
0.651717
0.651724
0.65173
0.65173
0.651737
0.651744
0.651751
0.651758
0.651758
0.651765
0.651772
0.651779
0.651787
0.651787
0.651794
0.651801
0.651808
0.651815
0.651815
0.651822
0.651829
0.651836
0.651843
0.651843
0.651851
0.651858
0.651865
0.651872
0.651872
0.65188
0.651887
0.651894
0.651901
0.651901
0.651909
0.651916
0.651923
0.651931
0.651931
0.651938
0.651945
0.651953
0.65196
0.65196
0.651968
0.651975
0.651982
0.65199
0.65199
0.651997
0.652005
0.652012
0.65202
0.65202
0.652027
0.652035
0.652042
0.65205
0.65205
0.652058
0.652065
0.652073
0.65208
0.65208
0.652088
0.652096
0.652103
0.652111
0.652111
0.652119
0.652126
0.652134
0.652142
0.652142
0.65215
0.652157
0.652165
0.652173
0.652173
0.652181
0.652189
0.652196
0.652204
0.652204
0.652212
0.65222
0.652228
0.652236
0.652236
0.652244
0.652252
0.65226
0.652268
0.652268
0.652276
0.652284
0.652292
0.6523
0.6523
0.652308
0.652316
0.652324
0.652332
0.652332
0.65234
0.652348
0.652356
0.652364
0.652364
0.652372
0.652381
0.652389
0.652397
0.652397
0.652405
0.652413
0.652422
0.65243
0.65243
0.652438
0.652446
0.652455
0.652463
0.652463
0.652471
0.65248
0.652488
0.652496
0.652496
0.652505
0.652513
0.652521
0.65253
0.65253
0.652538
0.652547
0.652555
0.652564
0.652564
0.652572
0.652581
0.652589
0.652598
0.652598
0.652606
0.652615
0.652623
0.652632
0.652632
0.652641
0.652649
0.652658
0.652666
0.652666
0.652675
0.652684
0.652692
0.652701
0.652701
0.65271
0.652719
0.652727
0.652736
0.652736
0.652745
0.652754
0.652762
0.652771
0.652771
0.65278
0.652789
0.652798
0.652807
0.652807
0.652816
0.652824
0.652833
0.652842
0.652842
0.652851
0.65286
0.652869
0.652878
0.652878
0.652887
0.652896
0.652905
0.652914
0.652914
0.652923
0.652932
0.652941
0.65295
0.65295
0.652959
0.652969
0.652978
0.652987
0.652987
0.652996
0.653005
0.653014
0.653024
0.653024
0.653033
0.653042
0.653051
0.653061
0.653061
0.65307
0.653079
0.653088
0.653098
0.653098
0.653107
0.653116
0.653126
0.653135
0.653135
0.653145
0.653154
0.653163
0.653173
0.653173
0.653182
0.653192
0.653201
0.653211
0.653211
0.65322
0.65323
0.653239
0.653249
0.653249
0.653258
0.653268
0.653277
0.653287
0.653287
0.653297
0.653306
0.653316
0.653325
0.653325
0.653335
0.653345
0.653355
0.653364
0.653364
0.653374
0.653384
0.653393
0.653403
0.653403
0.653413
0.653423
0.653433
0.653442
0.653442
0.653452
0.653462
0.653472
0.653482
0.653482
0.653492
0.653502
0.653511
0.653521
0.653521
0.653531
0.653541
0.653551
0.653561
0.653561
0.653571
0.653581
0.653591
0.653601
0.653601
0.653611
0.653621
0.653632
0.653642
0.653642
0.653652
0.653662
0.653672
0.653682
0.653682
0.653692
0.653703
0.653713
0.653723
0.653723
0.653733
0.653743
0.653754
0.653764
0.653764
0.653774
0.653784
0.653795
0.653805
0.653805
0.653815
0.653826
0.653836
0.653847
0.653847
0.653857
0.653867
0.653878
0.653888
0.653888
0.653899
0.653909
0.65392
0.65393
0.65393
0.653941
0.653951
0.653962
0.653972
0.653972
0.653983
0.653993
0.654004
0.654014
0.654014
0.654025
0.654036
0.654046
0.654057
0.654057
0.654068
0.654078
0.654089
0.6541
0.6541
0.65411
0.654121
0.654132
0.654143
0.654143
0.654153
0.654164
0.654175
0.654186
0.654186
0.654197
0.654208
0.654218
0.654229
0.654229
0.65424
0.654251
0.654262
0.654273
0.654273
0.654284
0.654295
0.654306
0.654317
0.654317
0.654328
0.654339
0.65435
0.654361
0.654361
0.654372
0.654383
0.654394
0.654405
0.654405
0.654416
0.654427
0.654439
0.65445
0.65445
0.654461
0.654472
0.654483
0.654494
0.654494
0.654506
0.654517
0.654528
0.654539
0.654539
0.654551
0.654562
0.654573
0.654585
0.654585
0.654596
0.654607
0.654619
0.65463
0.65463
0.654641
0.654653
0.654664
0.654676
0.654676
0.654687
0.654699
0.65471
0.654722
0.654722
0.654733
0.654745
0.654756
0.654768
0.654768
0.654779
0.654791
0.654802
0.654814
0.654814
0.654826
0.654837
0.654849
0.65486
0.65486
0.654872
0.654884
0.654895
0.654907
0.654907
0.654919
0.654931
0.654942
0.654954
0.654954
0.654966
0.654977
0.654989
0.655001
0.655001
0.655013
0.655024
0.655036
0.655048
0.655048
0.65506
0.655071
0.655083
0.655095
0.655095
0.655106
0.655118
0.655129
0.655141
0.655141
0.655153
0.655164
0.655176
0.655187
0.655187
0.655198
0.65521
0.655221
0.655233
0.655233
0.655244
0.655255
0.655267
0.655278
0.655278
0.655289
0.655301
0.655312
0.655323
0.655323
0.655334
0.655346
0.655357
0.655368
0.655368
0.65538
0.655391
0.655402
0.655414
0.655414
0.655425
0.655436
0.655448
0.655459
0.655459
0.655471
0.655482
0.655493
0.655505
0.655505
0.655516
0.655528
0.655539
0.655551
0.655551
0.655562
0.655574
0.655585
0.655597
0.655597
0.655608
0.65562
0.655632
0.655643
0.655643
0.655655
0.655666
0.655678
0.65569
0.65569
0.655701
0.655713
0.655725
0.655736
0.655736
0.655748
0.65576
0.655771
0.655783
0.655783
0.655795
0.655807
0.655818
0.65583
0.65583
0.655842
0.655854
0.655866
0.655877
0.655877
0.655889
0.655901
0.655913
0.655925
0.655925
0.655937
0.655949
0.655961
0.655973
0.655973
0.655985
0.655997
0.656009
0.656021
0.656021
0.656033
0.656045
0.656057
0.656069
0.656069
0.656081
0.656093
0.656105
0.656117
0.656117
0.656129
0.656141
0.656153
0.656165
0.656165
0.656178
0.65619
0.656202
0.656214
0.656214
0.656226
0.656238
0.656251
0.656263
0.656263
0.656275
0.656287
0.6563
0.656312
0.656312
0.656324
0.656337
0.656349
0.656361
0.656361
0.656374
0.656386
0.656398
0.656411
0.656411
0.656423
0.656436
0.656448
0.65646
0.65646
0.656473
0.656485
0.656498
0.65651
0.65651
0.656523
0.656535
0.656548
0.65656
0.65656
0.656573
0.656586
0.656598
0.656611
0.656611
0.656623
0.656636
0.656649
0.656661
0.656661
0.656674
0.656687
0.656699
0.656712
0.656712
0.656725
0.656737
0.65675
0.656763
0.656763
0.656776
0.656788
0.656801
0.656814
0.656814
0.656827
0.656839
0.656852
0.656865
0.656865
0.656878
0.656891
0.656904
0.656917
0.656917
0.65693
0.656942
0.656955
0.656968
0.656968
0.656981
0.656994
0.657007
0.65702
0.65702
0.657033
0.657046
0.657059
0.657072
0.657072
0.657085
0.657098
0.657111
0.657124
0.657124
0.657138
0.657151
0.657164
0.657177
0.657177
0.65719
0.657203
0.657216
0.65723
0.65723
0.657243
0.657256
0.657269
0.657282
0.657282
0.657296
0.657309
0.657322
0.657336
0.657336
0.657349
0.657362
0.657375
0.657389
0.657389
0.657402
0.657415
0.657429
0.657442
0.657442
0.657456
0.657469
0.657482
0.657496
0.657496
0.657509
0.657523
0.657536
0.65755
0.65755
0.657563
0.657577
0.65759
0.657604
0.657604
0.657617
0.657631
0.657644
0.657658
0.657658
0.657672
0.657685
0.657699
0.657712
0.657712
0.657726
0.65774
0.657753
0.657767
0.657767
0.657781
0.657795
0.657808
0.657822
0.657822
0.657836
0.657849
0.657863
0.657877
0.657877
0.657891
0.657905
0.657918
0.657932
0.657932
0.657946
0.65796
0.657974
0.657988
0.657988
0.658002
0.658015
0.658029
0.658043
0.658043
0.658057
0.658071
0.658085
0.658099
0.658099
0.658113
0.658127
0.658141
0.658155
0.658155
0.658169
0.658183
0.658197
0.658211
0.658211
0.658225
0.658239
0.658254
0.658268
0.658268
0.658282
0.658296
0.65831
0.658324
0.658324
0.658338
0.658353
0.658367
0.658381
0.658381
0.658395
0.65841
0.658424
0.658438
0.658438
0.658452
0.658467
0.658481
0.658495
0.658495
0.65851
0.658524
0.658538
0.658553
0.658553
0.658567
0.658581
0.658596
0.65861
0.65861
0.658625
0.658639
0.658654
0.658668
0.658668
0.658682
0.658697
0.658711
0.658726
0.658726
0.658741
0.658755
0.65877
0.658784
0.658784
0.658799
0.658813
0.658828
0.658843
0.658843
0.658857
0.658872
0.658886
0.658901
0.658901
0.658916
0.65893
0.658945
0.65896
0.65896
0.658975
0.658989
0.659004
0.659019
0.659019
0.659034
0.659048
0.659063
0.659078
0.659078
0.659093
0.659108
0.659122
0.659137
0.659137
0.659152
0.659167
0.659182
0.659197
0.659197
0.659212
0.659227
0.659242
0.659256
0.659256
0.659271
0.659286
0.659301
0.659316
0.659316
0.659331
0.659346
0.659361
0.659376
0.659376
0.659392
0.659407
0.659422
0.659437
0.659437
0.659452
0.659467
0.659482
0.659497
0.659497
0.659512
0.659528
0.659543
0.659558
0.659558
0.659573
0.659588
0.659604
0.659619
0.659619
0.659634
0.659649
0.659665
0.65968
0.65968
0.659695
0.659711
0.659726
0.659741
0.659741
0.659757
0.659772
0.659787
0.659803
0.659803
0.659818
0.659833
0.659849
0.659864
0.659864
0.65988
0.659895
0.659911
0.659926
0.659926
0.659942
0.659957
0.659973
0.659988
0.659988
0.660004
0.660019
0.660035
0.66005
0.66005
0.660066
0.660082
0.660097
0.660113
0.660113
0.660128
0.660144
0.66016
0.660175
0.660175
0.660191
0.660207
0.660223
0.660238
0.660238
0.660254
0.66027
0.660285
0.660301
0.660301
0.660317
0.660333
0.660349
0.660364
0.660364
0.66038
0.660396
0.660412
0.660428
0.660428
0.660444
0.66046
0.660475
0.660491
0.660491
0.660507
0.660523
0.660539
0.660555
0.660555
0.660571
0.660587
0.660603
0.660619
0.660619
0.660635
0.660651
0.660667
0.660683
0.660683
0.660699
0.660715
0.660731
0.660748
0.660748
0.660764
0.66078
0.660796
0.660812
0.660812
0.660828
0.660844
0.660861
0.660877
0.660877
0.660893
0.660909
0.660925
0.660942
0.660942
0.660958
0.660974
0.660991
0.661007
0.661007
0.661023
0.661039
0.661056
0.661072
0.661072
0.661088
0.661105
0.661121
0.661138
0.661138
0.661154
0.66117
0.661187
0.661203
0.661203
0.66122
0.661236
0.661253
0.661269
0.661269
0.661286
0.661302
0.661319
0.661335
0.661335
0.661352
0.661368
0.661385
0.661401
0.661401
0.661418
0.661435
0.661451
0.661468
0.661468
0.661484
0.661501
0.661518
0.661534
0.661534
0.661551
0.661568
0.661585
0.661601
0.661601
0.661618
0.661635
0.661652
0.661668
0.661668
0.661685
0.661702
0.661719
0.661735
0.661735
0.661752
0.661769
0.661786
0.661803
0.661803
0.66182
0.661837
0.661854
0.66187
0.66187
0.661887
0.661904
0.661921
0.661938
0.661938
0.661955
0.661972
0.661989
0.662006
0.662006
0.662023
0.66204
0.662057
0.662074
0.662074
0.662091
0.662108
0.662125
0.662143
0.662143
0.66216
0.662177
0.662194
0.662211
0.662211
0.662228
0.662245
0.662263
0.66228
0.66228
0.662297
0.662314
0.662331
0.662349
0.662349
0.662366
0.662383
0.6624
0.662417
0.662417
0.662435
0.662452
0.662469
0.662486
0.662486
0.662503
0.662521
0.662538
0.662555
0.662555
0.662572
0.662589
0.662606
0.662623
0.662623
0.66264
0.662657
0.662673
0.66269
0.66269
0.662707
0.662724
0.66274
0.662757
0.662757
0.662774
0.66279
0.662807
0.662823
0.662823
0.66284
0.662856
0.662872
0.662889
0.662889
0.662905
0.662921
0.662938
0.662954
0.662954
0.66297
0.662987
0.663003
0.663019
0.663019
0.663036
0.663052
0.663068
0.663085
0.663085
0.663101
0.663117
0.663134
0.66315
0.66315
0.663166
0.663183
0.663199
0.663216
0.663216
0.663232
0.663248
0.663265
0.663281
0.663281
0.663298
0.663314
0.663331
0.663347
0.663347
0.663364
0.66338
0.663397
0.663413
0.663413
0.66343
0.663446
0.663463
0.663479
0.663479
0.663496
0.663513
0.663529
0.663546
0.663546
0.663562
0.663579
0.663596
0.663612
0.663612
0.663629
0.663646
0.663662
0.663679
0.663679
0.663696
0.663713
0.663729
0.663746
0.663746
0.663763
0.663779
0.663796
0.663813
0.663813
0.66383
0.663847
0.663863
0.66388
0.66388
0.663897
0.663914
0.663931
0.663948
0.663948
0.663965
0.663981
0.663998
0.664015
0.664015
0.664032
0.664049
0.664066
0.664083
0.664083
0.6641
0.664117
0.664134
0.664151
0.664151
0.664168
0.664185
0.664202
0.664219
0.664219
0.664236
0.664253
0.66427
0.664287
0.664287
0.664304
0.664321
0.664339
0.664356
0.664356
0.664373
0.66439
0.664407
0.664424
0.664424
0.664441
0.664459
0.664476
0.664493
0.664493
0.66451
0.664527
0.664545
0.664562
0.664562
0.664579
0.664596
0.664614
0.664631
0.664631
0.664648
0.664666
0.664683
0.6647
0.6647
0.664718
0.664735
0.664752
0.66477
0.66477
0.664787
0.664804
0.664822
0.664839
0.664839
0.664857
0.664874
0.664892
0.664909
0.664909
0.664927
0.664944
0.664961
0.664979
0.664979
0.664996
0.665014
0.665032
0.665049
0.665049
0.665067
0.665084
0.665102
0.665119
0.665119
0.665137
0.665155
0.665172
0.66519
0.66519
0.665207
0.665225
0.665243
0.66526
0.66526
0.665278
0.665296
0.665313
0.665331
0.665331
0.665349
0.665367
0.665384
0.665402
0.665402
0.66542
0.665438
0.665455
0.665473
0.665473
0.665491
0.665509
0.665527
0.665544
0.665544
0.665562
0.66558
0.665598
0.665616
0.665616
0.665634
0.665652
0.66567
0.665687
0.665687
0.665705
0.665723
0.665741
0.665759
0.665759
0.665777
0.665795
0.665813
0.665831
0.665831
0.665849
0.665867
0.665885
0.665903
0.665903
0.665921
0.665939
0.665957
0.665976
0.665976
0.665994
0.666012
0.66603
0.666048
0.666048
0.666066
0.666084
0.666102
0.666121
0.666121
0.666139
0.666157
0.666175
0.666193
0.666193
0.666212
0.66623
0.666248
0.666266
0.666266
0.666285
0.666303
0.666321
0.666339
0.666339
0.666358
0.666376
0.666394
0.666413
0.666413
0.666431
0.666449
0.666468
0.666486
0.666486
0.666504
0.666523
0.666541
0.66656
0.66656
0.666578
0.666597
0.666615
0.666633
0.666633
0.666652
0.66667
0.666689
0.666707
0.666707
0.666726
0.666744
0.666763
0.666781
0.666781
0.6668
0.666819
0.666837
0.666856
0.666856
0.666874
0.666893
0.666912
0.66693
0.66693
0.666949
0.666967
0.666986
0.667005
0.667005
0.667023
0.667042
0.667061
0.667079
0.667079
0.667098
0.667117
0.667136
0.667154
0.667154
0.667173
0.667192
0.667211
0.667229
0.667229
0.667248
0.667267
0.667286
0.667305
0.667305
0.667324
0.667342
0.667361
0.66738
0.66738
0.667399
0.667418
0.667437
0.667456
0.667456
0.667475
0.667493
0.667512
0.667531
0.667531
0.66755
0.667569
0.667588
0.667607
0.667607
0.667626
0.667645
0.667664
0.667683
0.667683
0.667702
0.667721
0.66774
0.66776
0.66776
0.667779
0.667798
0.667817
0.667836
0.667836
0.667855
0.667874
0.667893
0.667912
0.667912
0.667932
0.667951
0.66797
0.667989
0.667989
0.668008
0.668028
0.668047
0.668066
0.668066
0.668085
0.668105
0.668124
0.668143
0.668143
0.668162
0.668182
0.668201
0.66822
0.66822
0.66824
0.668259
0.668278
0.668298
0.668298
0.668317
0.668336
0.668356
0.668375
0.668375
0.668395
0.668414
0.668433
0.668453
0.668453
0.668472
0.668492
0.668511
0.668531
0.668531
0.66855
0.66857
0.668589
0.668609
0.668609
0.668628
0.668648
0.668667
0.668687
0.668687
0.668706
0.668726
0.668746
0.668765
0.668765
0.668785
0.668804
0.668824
0.668844
0.668844
0.668863
0.668883
0.668903
0.668922
0.668922
0.668942
0.668962
0.668981
0.669001
0.669001
0.669021
0.66904
0.66906
0.66908
0.66908
0.669099
0.669119
0.669139
0.669158
0.669158
0.669178
0.669198
0.669217
0.669237
0.669237
0.669256
0.669276
0.669295
0.669315
0.669315
0.669334
0.669353
0.669373
0.669392
0.669392
0.669411
0.66943
0.669449
0.669468
0.669468
0.669487
0.669506
0.669525
0.669544
0.669544
0.669563
0.669581
0.6696
0.669619
0.669619
0.669637
0.669656
0.669675
0.669693
0.669693
0.669712
0.66973
0.669749
0.669767
0.669767
0.669786
0.669804
0.669823
0.669841
0.669841
0.66986
0.669878
0.669897
0.669915
0.669915
0.669934
0.669953
0.669971
0.66999
0.66999
0.670008
0.670027
0.670045
0.670064
0.670064
0.670083
0.670101
0.67012
0.670138
0.670138
0.670157
0.670176
0.670194
0.670213
0.670213
0.670232
0.67025
0.670269
0.670288
0.670288
0.670306
0.670325
0.670344
0.670362
0.670362
0.670381
0.6704
0.670419
0.670438
0.670438
0.670456
0.670475
0.670494
0.670513
0.670513
0.670531
0.67055
0.670569
0.670588
0.670588
0.670607
0.670626
0.670645
0.670663
0.670663
0.670682
0.670701
0.67072
0.670739
0.670739
0.670758
0.670777
0.670796
0.670815
0.670815
0.670834
0.670853
0.670872
0.670891
0.670891
0.67091
0.670929
0.670948
0.670967
0.670967
0.670986
0.671005
0.671024
0.671043
0.671043
0.671062
0.671081
0.6711
0.671119
0.671119
0.671138
0.671157
0.671176
0.671196
0.671196
0.671215
0.671234
0.671253
0.671272
0.671272
0.671291
0.671311
0.67133
0.671349
0.671349
0.671368
0.671387
0.671407
0.671426
0.671426
0.671445
0.671464
0.671484
0.671503
0.671503
0.671522
0.671541
0.671561
0.67158
0.67158
0.671599
0.671619
0.671638
0.671657
0.671657
0.671677
0.671696
0.671715
0.671735
0.671735
0.671754
0.671774
0.671793
0.671812
0.671812
0.671832
0.671851
0.671871
0.67189
0.67189
0.67191
0.671929
0.671949
0.671968
0.671968
0.671988
0.672007
0.672027
0.672046
0.672046
0.672066
0.672085
0.672105
0.672124
0.672124
0.672144
0.672163
0.672183
0.672203
0.672203
0.672222
0.672242
0.672261
0.672281
0.672281
0.672301
0.67232
0.67234
0.67236
0.67236
0.672379
0.672399
0.672419
0.672438
0.672438
0.672458
0.672478
0.672498
0.672517
0.672517
0.672537
0.672557
0.672577
0.672596
0.672596
0.672616
0.672636
0.672656
0.672676
0.672676
0.672695
0.672715
0.672735
0.672755
0.672755
0.672775
0.672795
0.672814
0.672834
0.672834
0.672854
0.672874
0.672894
0.672914
0.672914
0.672934
0.672954
0.672974
0.672994
0.672994
0.673014
0.673034
0.673054
0.673074
0.673074
0.673094
0.673114
0.673134
0.673154
0.673154
0.673174
0.673194
0.673214
0.673234
0.673234
0.673254
0.673274
0.673294
0.673314
0.673314
0.673334
0.673354
0.673374
0.673395
0.673395
0.673415
0.673435
0.673455
0.673475
0.673475
0.673495
0.673516
0.673536
0.673556
0.673556
0.673576
0.673596
0.673617
0.673637
0.673637
0.673657
0.673677
0.673698
0.673718
0.673718
0.673738
0.673758
0.673779
0.673799
0.673799
0.673819
0.67384
0.67386
0.67388
0.67388
0.673901
0.673921
0.673941
0.673962
0.673962
0.673982
0.674003
0.674023
0.674043
0.674043
0.674064
0.674084
0.674105
0.674125
0.674125
0.674146
0.674166
0.674187
0.674207
0.674207
0.674227
0.674248
0.674269
0.674289
0.674289
0.67431
0.67433
0.674351
0.674371
0.674371
0.674392
0.674412
0.674433
0.674453
0.674453
0.674474
0.674495
0.674515
0.674536
0.674536
0.674557
0.674577
0.674598
0.674618
0.674618
0.674639
0.67466
0.67468
0.674701
0.674701
0.674722
0.674743
0.674763
0.674784
0.674784
0.674805
0.674825
0.674846
0.674867
0.674867
0.674888
0.674908
0.674929
0.67495
0.67495
0.674971
0.674991
0.675012
0.675033
0.675033
0.675054
0.675074
0.675095
0.675116
0.675116
0.675137
0.675157
0.675178
0.675198
0.675198
0.675219
0.675239
0.67526
0.67528
0.67528
0.675301
0.675321
0.675341
0.675362
0.675362
0.675382
0.675402
0.675422
0.675442
0.675442
0.675462
0.675482
0.675502
0.675522
0.675522
0.675541
0.675561
0.675581
0.6756
0.6756
0.67562
0.675639
0.675659
0.675679
0.675679
0.675698
0.675717
0.675737
0.675756
0.675756
0.675776
0.675795
0.675815
0.675834
0.675834
0.675853
0.675873
0.675892
0.675912
0.675912
0.675931
0.67595
0.67597
0.675989
0.675989
0.676009
0.676028
0.676048
0.676067
0.676067
0.676086
0.676106
0.676125
0.676145
0.676145
0.676164
0.676184
0.676203
0.676223
0.676223
0.676242
0.676262
0.676281
0.676301
0.676301
0.67632
0.67634
0.67636
0.676379
0.676379
0.676399
0.676418
0.676438
0.676458
0.676458
0.676477
0.676497
0.676516
0.676536
0.676536
0.676556
0.676575
0.676595
0.676615
0.676615
0.676634
0.676654
0.676674
0.676693
0.676693
0.676713
0.676733
0.676752
0.676772
0.676772
0.676792
0.676812
0.676831
0.676851
0.676851
0.676871
0.676891
0.676911
0.67693
0.67693
0.67695
0.67697
0.67699
0.67701
0.67701
0.677029
0.677049
0.677069
0.677089
0.677089
0.677109
0.677129
0.677149
0.677168
0.677168
0.677188
0.677208
0.677228
0.677248
0.677248
0.677268
0.677288
0.677308
0.677328
0.677328
0.677348
0.677368
0.677388
0.677408
0.677408
0.677428
0.677448
0.677468
0.677488
0.677488
0.677508
0.677528
0.677548
0.677568
0.677568
0.677588
0.677608
0.677628
0.677648
0.677648
0.677668
0.677688
0.677708
0.677728
0.677728
0.677748
0.677769
0.677789
0.677809
0.677809
0.677829
0.677849
0.677869
0.677889
0.677889
0.67791
0.67793
0.67795
0.67797
0.67797
0.67799
0.678011
0.678031
0.678051
0.678051
0.678071
0.678092
0.678112
0.678132
0.678132
0.678152
0.678173
0.678193
0.678213
0.678213
0.678233
0.678254
0.678274
0.678294
0.678294
0.678315
0.678335
0.678355
0.678376
0.678376
0.678396
0.678417
0.678437
0.678457
0.678457
0.678478
0.678498
0.678518
0.678539
0.678539
0.678559
0.67858
0.6786
0.678621
0.678621
0.678641
0.678662
0.678682
0.678703
0.678703
0.678723
0.678743
0.678764
0.678784
0.678784
0.678805
0.678826
0.678846
0.678867
0.678867
0.678887
0.678908
0.678928
0.678949
0.678949
0.678969
0.67899
0.679011
0.679031
0.679031
0.679052
0.679072
0.679093
0.679114
0.679114
0.679134
0.679155
0.679176
0.679196
0.679196
0.679217
0.679238
0.679258
0.679279
0.679279
0.6793
0.67932
0.679341
0.679362
0.679362
0.679383
0.679403
0.679424
0.679445
0.679445
0.679466
0.679486
0.679507
0.679528
0.679528
0.679549
0.67957
0.67959
0.679611
0.679611
0.679632
0.679653
0.679674
0.679695
0.679695
0.679715
0.679736
0.679757
0.679778
0.679778
0.679799
0.67982
0.679841
0.679862
0.679862
0.679883
0.679903
0.679924
0.679945
0.679945
0.679966
0.679987
0.680008
0.680029
0.680029
0.68005
0.680071
0.680092
0.680113
0.680113
0.680134
0.680155
0.680176
0.680197
0.680197
0.680218
0.680239
0.68026
0.680281
0.680281
0.680302
0.680323
0.680344
0.680365
0.680365
0.680386
0.680407
0.680428
0.680448
0.680448
0.680469
0.68049
0.680511
0.680531
0.680531
0.680552
0.680573
0.680593
0.680614
0.680614
0.680634
0.680655
0.680675
0.680695
0.680695
0.680716
0.680736
0.680756
0.680776
0.680776
0.680796
0.680816
0.680836
0.680856
0.680856
0.680876
0.680895
0.680915
0.680935
0.680935
0.680955
0.680974
0.680994
0.681014
0.681014
0.681033
0.681053
0.681072
0.681092
0.681092
0.681111
0.681131
0.68115
0.68117
0.68117
0.681189
0.681209
0.681229
0.681248
0.681248
0.681268
0.681287
0.681307
0.681326
0.681326
0.681346
0.681365
0.681385
0.681405
0.681405
0.681424
0.681444
0.681463
0.681483
0.681483
0.681502
0.681522
0.681542
0.681561
0.681561
0.681581
0.681601
0.68162
0.68164
0.68164
0.68166
0.681679
0.681699
0.681719
0.681719
0.681738
0.681758
0.681778
0.681797
0.681797
0.681817
0.681837
0.681857
0.681876
0.681876
0.681896
0.681916
0.681936
0.681955
0.681955
0.681975
0.681995
0.682015
0.682034
0.682034
0.682054
0.682074
0.682094
0.682114
0.682114
0.682134
0.682153
0.682173
0.682193
0.682193
0.682213
0.682233
0.682253
0.682272
0.682272
0.682292
0.682312
0.682332
0.682352
0.682352
0.682372
0.682392
0.682412
0.682432
0.682432
0.682452
0.682472
0.682492
0.682512
0.682512
0.682532
0.682551
0.682571
0.682591
0.682591
0.682611
0.682631
0.682651
0.682671
0.682671
0.682692
0.682712
0.682732
0.682752
0.682752
0.682772
0.682792
0.682812
0.682832
0.682832
0.682852
0.682872
0.682892
0.682912
0.682912
0.682932
0.682952
0.682973
0.682993
0.682993
0.683013
0.683033
0.683053
0.683073
0.683073
0.683093
0.683114
0.683134
0.683154
0.683154
0.683174
0.683194
0.683215
0.683235
0.683235
0.683255
0.683275
0.683295
0.683316
0.683316
0.683336
0.683356
0.683376
0.683397
0.683397
0.683417
0.683437
0.683458
0.683478
0.683478
0.683498
0.683518
0.683539
0.683559
0.683559
0.683579
0.6836
0.68362
0.68364
0.68364
0.683661
0.683681
0.683701
0.683722
0.683722
0.683742
0.683763
0.683783
0.683803
0.683803
0.683824
0.683844
0.683865
0.683885
0.683885
0.683906
0.683926
0.683946
0.683967
0.683967
0.683987
0.684008
0.684028
0.684049
0.684049
0.684069
0.68409
0.68411
0.684131
0.684131
0.684151
0.684172
0.684192
0.684213
0.684213
0.684234
0.684254
0.684275
0.684295
0.684295
0.684316
0.684336
0.684357
0.684378
0.684378
0.684398
0.684419
0.684439
0.68446
0.68446
0.684481
0.684501
0.684522
0.684543
0.684543
0.684563
0.684584
0.684605
0.684625
0.684625
0.684646
0.684667
0.684687
0.684708
0.684708
0.684729
0.684749
0.68477
0.684791
0.684791
0.684812
0.684832
0.684853
0.684874
0.684874
0.684894
0.684915
0.684936
0.684956
0.684956
0.684977
0.684998
0.685018
0.685039
0.685039
0.68506
0.68508
0.685101
0.685121
0.685121
0.685142
0.685162
0.685183
0.685203
0.685203
0.685223
0.685244
0.685264
0.685284
0.685284
0.685304
0.685324
0.685344
0.685364
0.685364
0.685384
0.685404
0.685424
0.685444
0.685444
0.685463
0.685483
0.685503
0.685522
0.685522
0.685542
0.685561
0.685581
0.6856
0.6856
0.685619
0.685639
0.685658
0.685677
0.685677
0.685697
0.685716
0.685735
0.685754
0.685754
0.685774
0.685793
0.685812
0.685831
0.685831
0.68585
0.685869
0.685889
0.685908
0.685908
0.685927
0.685946
0.685965
0.685985
0.685985
0.686004
0.686023
0.686042
0.686061
0.686061
0.686081
0.6861
0.686119
0.686138
0.686138
0.686158
0.686177
0.686196
0.686215
0.686215
0.686235
0.686254
0.686273
0.686293
0.686293
0.686312
0.686331
0.68635
0.68637
0.68637
0.686389
0.686408
0.686428
0.686447
0.686447
0.686466
0.686486
0.686505
0.686524
0.686524
0.686544
0.686563
0.686583
0.686602
0.686602
0.686621
0.686641
0.68666
0.68668
0.68668
0.686699
0.686718
0.686738
0.686757
0.686757
0.686777
0.686796
0.686816
0.686835
0.686835
0.686855
0.686874
0.686894
0.686913
0.686913
0.686933
0.686952
0.686972
0.686991
0.686991
0.687011
0.68703
0.68705
0.687069
0.687069
0.687089
0.687108
0.687128
0.687147
0.687147
0.687167
0.687187
0.687206
0.687226
0.687226
0.687245
0.687265
0.687285
0.687304
0.687304
0.687324
0.687343
0.687363
0.687383
0.687383
0.687402
0.687422
0.687442
0.687461
0.687461
0.687481
0.687501
0.68752
0.68754
0.68754
0.68756
0.687579
0.687599
0.687619
0.687619
0.687639
0.687658
0.687678
0.687698
0.687698
0.687718
0.687737
0.687757
0.687777
0.687777
0.687797
0.687816
0.687836
0.687856
0.687856
0.687876