<?xml version="1.0"?>
<VTKFile type="UnstructuredGrid" version="0.1" byte_order="LittleEndian">
<UnstructuredGrid>
<Piece NumberOfPoints="5000" NumberOfCells="4000">
<PointData Scalars="Reaction 0">
<DataArray type="Float32" Name="Reaction 0" format="ascii">
0.464821
0.464821
0.464821
0.464821
0.464821
0.464821
0.464822
0.464822
0.464822
0.464822
0.464822
0.464822
0.464822
0.464823
0.464823
0.464823
0.464823
0.464824
0.464824
0.464824
0.464824
0.464825
0.464825
0.464826
0.464826
0.464826
0.464827
0.464827
0.464828
0.464829
0.464829
0.464829
0.46483
0.464831
0.464831
0.464831
0.464832
0.464833
0.464833
0.464834
0.464834
0.464835
0.464836
0.464837
0.464838
0.464838
0.464839
0.46484
0.464841
0.464842
0.464842
0.464843
0.464844
0.464845
0.464846
0.464846
0.464847
0.464848
0.464849
0.464851
0.464851
0.464852
0.464853
0.464854
0.464856
0.464856
0.464857
0.464858
0.46486
0.464861
0.464861
0.464863
0.464864
0.464866
0.464867
0.464867
0.464869
0.46487
0.464872
0.464873
0.464873
0.464875
0.464877
0.464878
0.46488
0.46488
0.464882
0.464884
0.464886
0.464887
0.464887
0.464889
0.464891
0.464893
0.464895
0.464895
0.464897
0.464899
0.464901
0.464903
0.464903
0.464905
0.464907
0.464909
0.464911
0.464911
0.464913
0.464916
0.464918
0.46492
0.46492
0.464922
0.464925
0.464927
0.464929
0.464929
0.464932
0.464934
0.464936
0.464939
0.464939
0.464941
0.464944
0.464946
0.464949
0.464949
0.464951
0.464954
0.464957
0.464959
0.464959
0.464962
0.464965
0.464967
0.46497
0.46497
0.464973
0.464976
0.464978
0.464981
0.464981
0.464984
0.464987
0.46499
0.464993
0.464993
0.464996
0.464999
0.465002
0.465005
0.465005
0.465008
0.465011
0.465014
0.465017
0.465017
0.465021
0.465024
0.465027
0.46503
0.46503
0.465034
0.465037
0.46504
0.465044
0.465044
0.465047
0.46505
0.465054
0.465057
0.465057
0.465061
0.465064
0.465068
0.465071
0.465071
0.465075
0.465079
0.465082
0.465086
0.465086
0.46509
0.465093
0.465097
0.465101
0.465101
0.465105
0.465108
0.465112
0.465116
0.465116
0.46512
0.465124
0.465128
0.465132
0.465132
0.465136
0.46514
0.465144
0.465148
0.465148
0.465152
0.465156
0.46516
0.465164
0.465164
0.465169
0.465173
0.465177
0.465181
0.465181
0.465186
0.46519
0.465194
0.465199
0.465199
0.465203
0.465208
0.465212
0.465217
0.465217
0.465221
0.465226
0.46523
0.465235
0.465235
0.465239
0.465244
0.465249
0.465253
0.465253
0.465258
0.465263
0.465267
0.465272
0.465272
0.465277
0.465282
0.465287
0.465292
0.465292
0.465297
0.465302
0.465306
0.465311
0.465311
0.465316
0.465322
0.465327
0.465332
0.465332
0.465337
0.465342
0.465347
0.465352
0.465352
0.465358
0.465363
0.465368
0.465373
0.465373
0.465379
0.465384
0.465389
0.465395
0.465395
0.4654
0.465406
0.465411
0.465417
0.465417
0.465422
0.465428
0.465433
0.465439
0.465439
0.465444
0.46545
0.465456
0.465462
0.465462
0.465467
0.465473
0.465479
0.465485
0.465485
0.46549
0.465496
0.465502
0.465508
0.465508
0.465514
0.46552
0.465526
0.465532
0.465532
0.465538
0.465544
0.46555
0.465556
0.465556
0.465562
0.465569
0.465575
0.465581
0.465581
0.465587
0.465593
0.4656
0.465606
0.465606
0.465612
0.465619
0.465625
0.465632
0.465632
0.465638
0.465644
0.465651
0.465658
0.465658
0.465664
0.465671
0.465677
0.465684
0.465684
0.46569
0.465697
0.465704
0.465711
0.465711
0.465717
0.465724
0.465731
0.465738
0.465738
0.465745
0.465751
0.465758
0.465765
0.465765
0.465772
0.465779
0.465786
0.465793
0.465793
0.4658
0.465807
0.465815
0.465822
0.465822
0.465829
0.465836
0.465843
0.46585
0.46585
0.465858
0.465865
0.465872
0.46588
0.46588
0.465887
0.465894
0.465902
0.465909
0.465909
0.465917
0.465924
0.465932
0.465939
0.465939
0.465947
0.465954
0.465962
0.46597
0.46597
0.465977
0.465985
0.465993
0.466
0.466
0.466008
0.466016
0.466024
0.466032
0.466032
0.46604
0.466047
0.466055
0.466063
0.466063
0.466071
0.466079
0.466087
0.466095
0.466095
0.466103
0.466112
0.46612
0.466128
0.466128
0.466136
0.466144
0.466152
0.466161
0.466161
0.466169
0.466177
0.466186
0.466194
0.466194
0.466202
0.466211
0.466219
0.466228
0.466228
0.466236
0.466245
0.466253
0.466262
0.466262
0.46627
0.466279
0.466288
0.466296
0.466296
0.466305
0.466314
0.466322
0.466331
0.466331
0.46634
0.466349
0.466358
0.466366
0.466366
0.466375
0.466384
0.466393
0.466402
0.466402
0.466411
0.46642
0.466429
0.466438
0.466438
0.466447
0.466456
0.466466
0.466475
0.466475
0.466484
0.466493
0.466502
0.466512
0.466512
0.466521
0.46653
0.46654
0.466549
0.466549
0.466558
0.466568
0.466577
0.466587
0.466587
0.466596
0.466606
0.466615
0.466625
0.466625
0.466635
0.466644
0.466654
0.466664
0.466664
0.466673
0.466683
0.466693
0.466703
0.466703
0.466712
0.466722
0.466732
0.466742
0.466742
0.466752
0.466762
0.466772
0.466782
0.466782
0.466792
0.466802
0.466812
0.466822
0.466822
0.466832
0.466842
0.466852
0.466863
0.466863
0.466873
0.466883
0.466893
0.466904
0.466904
0.466914
0.466924
0.466935
0.466945
0.466945
0.466955
0.466966
0.466976
0.466987
0.466987
0.466997
0.467008
0.467018
0.467029
0.467029
0.46704
0.46705
0.467061
0.467072
0.467072
0.467082
0.467093
0.467104
0.467115
0.467115
0.467126
0.467136
0.467147
0.467158
0.467158
0.467169
0.46718
0.467191
0.467202
0.467202
0.467213
0.467224
0.467235
0.467246
0.467246
0.467257
0.467269
0.46728
0.467291
0.467291
0.467302
0.467314
0.467325
0.467336
0.467336
0.467347
0.467359
0.46737
0.467382
0.467382
0.467393
0.467405
0.467416
0.467428
0.467428
0.467439
0.467451
0.467462
0.467474
0.467474
0.467485
0.467497
0.467509
0.467521
0.467521
0.467532
0.467544
0.467556
0.467568
0.467568
0.46758
0.467591
0.467603
0.467615
0.467615
0.467627
0.467639
0.467651
0.467663
0.467663
0.467675
0.467687
0.467699
0.467711
0.467711
0.467724
0.467736
0.467748
0.46776
0.46776
0.467772
0.467785
0.467797
0.467809
0.467809
0.467822
0.467834
0.467847
0.467859
0.467859
0.467871
0.467884
0.467896
0.467909
0.467909
0.467922
0.467934
0.467947
0.467959
0.467959
0.467972
0.467985
0.467997
0.46801
0.46801
0.468023
0.468036
0.468048
0.468061
0.468061
0.468074
0.468087
0.4681
0.468113
0.468113
0.468126
0.468139
0.468152
0.468165
0.468165
0.468178
0.468191
0.468204
0.468217
0.468217
0.468231
0.468244
0.468257
0.46827
0.46827
0.468283
0.468297
0.46831
0.468323
0.468323
0.468337
0.46835
0.468364
0.468377
0.468377
0.468391
0.468404
0.468418
0.468431
0.468431
0.468445
0.468458
0.468472
0.468486
0.468486
0.468499
0.468513
0.468527
0.46854
0.46854
0.468554
0.468568
0.468582
0.468596
0.468596
0.46861
0.468623
0.468637
0.468651
0.468651
0.468665
0.468679
0.468693
0.468707
0.468707
0.468722
0.468736
0.46875
0.468764
0.468764
0.468778
0.468792
0.468807
0.468821
0.468821
0.468835
0.468849
0.468864
0.468878
0.468878
0.468892
0.468907
0.468921
0.468936
0.468936
0.46895
0.468965
0.468979
0.468994
0.468994
0.469009
0.469023
0.469038
0.469052
0.469052
0.469067
0.469082
0.469097
0.469111
0.469111
0.469126
0.469141
0.469156
0.469171
0.469171
0.469186
0.469201
0.469215
0.46923
0.46923
0.469245
0.46926
0.469276
0.469291
0.469291
0.469306
0.469321
0.469336
0.469351
0.469351
0.469366
0.469382
0.469397
0.469412
0.469412
0.469427
0.469443
0.469458
0.469473
0.469473
0.469489
0.469504
0.46952
0.469535
0.469535
0.469551
0.469566
0.469582
0.469597
0.469597
0.469613
0.469629
0.469644
0.46966
0.46966
0.469676
0.469691
0.469707
0.469723
0.469723
0.469739
0.469755
0.469771
0.469786
0.469786
0.469802
0.469818
0.469834
0.46985
0.46985
0.469866
0.469882
0.469898
0.469914
0.469914
0.469931
0.469947
0.469963
0.469979
0.469979
0.469995
0.470011
0.470028
0.470044
0.470044
0.47006
0.470077
0.470093
0.470109
0.470109
0.470126
0.470142
0.470159
0.470175
0.470175
0.470192
0.470208
0.470225
0.470242
0.470242
0.470258
0.470275
0.470292
0.470308
0.470308
0.470325
0.470342
0.470358
0.470375
0.470375
0.470392
0.470409
0.470426
0.470443
0.470443
0.47046
0.470477
0.470494
0.470511
0.470511
0.470528
0.470545
0.470562
0.470579
0.470579
0.470596
0.470613
0.47063
0.470648
0.470648
0.470665
0.470682
0.470699
0.470717
0.470717
0.470734
0.470751
0.470769
0.470786
0.470786
0.470804
0.470821
0.470838
0.470856
0.470856
0.470874
0.470891
0.470909
0.470926
0.470926
0.470944
0.470962
0.470979
0.470997
0.470997
0.471015
0.471033
0.47105
0.471068
0.471068
0.471086
0.471104
0.471122
0.47114
0.47114
0.471158
0.471176
0.471194
0.471212
0.471212
0.47123
0.471248
0.471266
0.471284
0.471284
0.471302
0.47132
0.471338
0.471357
0.471357
0.471375
0.471393
0.471411
0.47143
0.47143
0.471448
0.471466
0.471485
0.471503
0.471503
0.471522
0.47154
0.471559
0.471577
0.471577
0.471596
0.471614
0.471633
0.471652
0.471652
0.47167
0.471689
0.471708
0.471726
0.471726
0.471745
0.471764
0.471783
0.471802
0.471802
0.47182
0.471839
0.471858
0.471877
0.471877
0.471896
0.471915
0.471934
0.471953
0.471953
0.471972
0.471991
0.47201
0.472029
0.472029
0.472049
0.472068
0.472087
0.472106
0.472106
0.472126
0.472145
0.472164
0.472183
0.472183
0.472203
0.472222
0.472242
0.472261
0.472261
0.472281
0.4723
0.47232
0.472339
0.472339
0.472359
0.472378
0.472398
0.472417
0.472417
0.472437
0.472457
0.472477
0.472496
0.472496
0.472516
0.472536
0.472556
0.472576
0.472576
0.472595
0.472615
0.472635
0.472655
0.472655
0.472675
0.472695
0.472715
0.472735
0.472735
0.472755
0.472775
0.472795
0.472816
0.472816
0.472836
0.472856
0.472876
0.472896
0.472896
0.472917
0.472937
0.472957
0.472978
0.472978
0.472998
0.473018
0.473039
0.473059
0.473059
0.47308
0.4731
0.473121
0.473141
0.473141
0.473162
0.473183
0.473203
0.473224
0.473224
0.473245
0.473265
0.473286
0.473307
0.473307
0.473328
0.473348
0.473369
0.47339
0.47339
0.473411
0.473432
0.473453
0.473474
0.473474
0.473495
0.473516
0.473537
0.473558
0.473558
0.473579
0.4736
0.473621
0.473642
0.473642
0.473663
0.473685
0.473706
0.473727
0.473727
0.473748
0.47377
0.473791
0.473812
0.473812
0.473834
0.473855
0.473877
0.473898
0.473898
0.47392
0.473941
0.473963
0.473984
0.473984
0.474006
0.474027
0.474049
0.474071
0.474071
0.474092
0.474114
0.474136
0.474158
0.474158
0.474179
0.474201
0.474223
0.474245
0.474245
0.474267
0.474289
0.474311
0.474333
0.474333
0.474355
0.474377
0.474399
0.474421
0.474421
0.474443
0.474465
0.474487
0.474509
0.474509
0.474532
0.474554
0.474576
0.474598
0.474598
0.474621
0.474643
0.474665
0.474688
0.474688
0.47471
0.474732
0.474755
0.474777
0.474777
0.4748
0.474822
0.474845
0.474868
0.474868
0.47489
0.474913
0.474935
0.474958
0.474958
0.474981
0.475003
0.475026
0.475049
0.475049
0.475072
0.475095
0.475118
0.47514
0.47514
0.475163
0.475186
0.475209
0.475232
0.475232
0.475255
0.475278
0.475301
0.475324
0.475324
0.475347
0.475371
0.475394
0.475417
0.475417
0.47544
0.475463
0.475487
0.47551
0.47551
0.475533
0.475557
0.47558
0.475603
0.475603
0.475627
0.47565
0.475674
0.475697
0.475697
0.475721
0.475744
0.475768
0.475791
0.475791
0.475815
0.475838
0.475862
0.475886
0.475886
0.47591
0.475933
0.475957
0.475981
0.475981
0.476005
0.476028
0.476052
0.476076
0.476076
0.4761
0.476124
0.476148
0.476172
0.476172
0.476196
0.47622
0.476244
0.476268
0.476268
0.476292
0.476316
0.476341
0.476365
0.476365
0.476389
0.476413
0.476438
0.476462
0.476462
0.476486
0.47651
0.476535
0.476559
0.476559
0.476584
0.476608
0.476633
0.476657
0.476657
0.476682
0.476706
0.476731
0.476755
0.476755
0.47678
0.476805
0.476829
0.476854
0.476854
0.476879
0.476903
0.476928
0.476953
0.476953
0.476978
0.477003
0.477027
0.477052
0.477052
0.477077
0.477102
0.477127
0.477152
0.477152
0.477177
0.477202
0.477227
0.477252
0.477252
0.477278
0.477303
0.477328
0.477353
0.477353
0.477378
0.477404
0.477429
0.477454
0.477454
0.477479
0.477505
0.47753
0.477556
0.477556
0.477581
0.477606
0.477632
0.477657
0.477657
0.477683
0.477709
0.477734
0.47776
0.47776
0.477785
0.477811
0.477837
0.477862
0.477862
0.477888
0.477914
0.47794
0.477965
0.477965
0.477991
0.478017
0.478043
0.478069
0.478069
0.478095
0.478121
0.478147
0.478173
0.478173
0.478199
0.478225
0.478251
0.478277
0.478277
0.478303
0.478329
0.478355
0.478382
0.478382
0.478408
0.478434
0.47846
0.478487
0.478487
0.478513
0.478539
0.478566
0.478592
0.478592
0.478619
0.478645
0.478672
0.478698
0.478698
0.478725
0.478751
0.478778
0.478804
0.478804
0.478831
0.478858
0.478884
0.478911
0.478911
0.478938
0.478965
0.478991
0.479018
0.479018
0.479045
0.479072
0.479099
0.479126
0.479126
0.479153
0.47918
0.479207
0.479234
0.479234
0.479261
0.479288
0.479315
0.479342
0.479342
0.479369
0.479396
0.479423
0.479451
0.479451
0.479478
0.479505
0.479532
0.47956
0.47956
0.479587
0.479614
0.479642
0.479669
0.479669
0.479697
0.479724
0.479752
0.479779
0.479779
0.479807
0.479834
0.479862
0.479889
0.479889
0.479917
0.479945
0.479972
0.48
0.48
0.480028
0.480056
0.480083
0.480111
0.480111
0.480139
0.480167
0.480195
0.480223
0.480223
0.480251
0.480279
0.480307
0.480335
0.480335
0.480363
0.480391
0.480419
0.480447
0.480447
0.480475
0.480503
0.480531
0.48056
0.48056
0.480588
0.480616
0.480644
0.480673
0.480673
0.480701
0.480729
0.480758
0.480786
0.480786
0.480815
0.480843
0.480872
0.4809
0.4809
0.480929
0.480957
0.480986
0.481014
0.481014
0.481043
0.481072
0.481101
0.481129
0.481129
0.481158
0.481187
0.481216
0.481244
0.481244
0.481273
0.481302
0.481331
0.48136
0.48136
0.481389
0.481418
0.481447
0.481476
0.481476
0.481505
0.481534
0.481563
0.481592
0.481592
0.481621
0.48165
0.48168
0.481709
0.481709
0.481738
0.481767
0.481797
0.481826
0.481826
0.481855
0.481885
0.481914
0.481944
0.481944
0.481973
0.482002
0.482032
0.482061
0.482061
0.482091
0.482121
0.48215
0.48218
0.48218
0.482209
0.482239
0.482269
0.482299
0.482299
0.482328
0.482358
0.482388
0.482418
0.482418
0.482448
0.482477
0.482507
0.482537
0.482537
0.482567
0.482597
0.482627
0.482657
0.482657
0.482687
0.482717
0.482747
0.482778
0.482778
0.482808
0.482838
0.482868
0.482898
0.482898
0.482929
0.482959
0.482989
0.483019
0.483019
0.48305
0.48308
0.483111
0.483141
0.483141
0.483171
0.483202
0.483232
0.483263
0.483263
0.483293
0.483324
0.483355
0.483385
0.483385
0.483416
0.483447
0.483477
0.483508
0.483508
0.483539
0.48357
0.4836
0.483631
0.483631
0.483662
0.483693
0.483724
0.483755
0.483755
0.483786
0.483817
0.483848
0.483879
0.483879
0.48391
0.483941
0.483972
0.484003
0.484003
0.484034
0.484065
0.484097
0.484128
0.484128
0.484159
0.48419
0.484222
0.484253
0.484253
0.484284
0.484316
0.484347
0.484378
0.484378
0.48441
0.484441
0.484473
0.484504
0.484504
0.484536
0.484568
0.484599
0.484631
0.484631
0.484662
0.484694
0.484726
0.484758
0.484758
0.484789
0.484821
0.484853
0.484885
0.484885
0.484917
0.484948
0.48498
0.485012
0.485012
0.485044
0.485076
0.485108
0.48514
0.48514
0.485172
0.485204
0.485236
0.485269
0.485269
0.485301
0.485333
0.485365
0.485397
0.485397
0.48543
0.485462
0.485494
0.485526
0.485526
0.485559
0.485591
0.485624
0.485656
0.485656
0.485688
0.485721
0.485753
0.485786
0.485786
0.485818
0.485851
0.485884
0.485916
0.485916
0.485949
0.485982
0.486014
0.486047
0.486047
0.48608
0.486113
0.486145
0.486178
0.486178
0.486211
0.486244
0.486277
0.48631
0.48631
0.486343
0.486376
0.486409
0.486442
0.486442
0.486475
0.486508
0.486541
0.486574
0.486574
0.486607
0.48664
0.486674
0.486707
0.486707
0.48674
0.486773
0.486807
0.48684
0.48684
0.486873
0.486907
0.48694
0.486973
0.486973
0.487007
0.48704
0.487074
0.487107
0.487107
0.487141
0.487175
0.487208
0.487242
0.487242
0.487275
0.487309
0.487343
0.487377
0.487377
0.48741
0.487444
0.487478
0.487512
0.487512
0.487546
0.487579
0.487613
0.487647
0.487647
0.487681
0.487715
0.487749
0.487783
0.487783
0.487817
0.487851
0.487885
0.487919
0.487919
0.487954
0.487988
0.488022
0.488056
0.488056
0.48809
0.488125
0.488159
0.488193
0.488193
0.488228
0.488262
0.488296
0.488331
0.488331
0.488365
0.4884
0.488434
0.488469
0.488469
0.488503
0.488538
0.488573
0.488607
0.488607
0.488642
0.488677
0.488711
0.488746
0.488746
0.488781
0.488815
0.48885
0.488885
0.488885
0.48892
0.488955
0.48899
0.489025
0.489025
0.48906
0.489094
0.489129
0.489165
0.489165
0.4892
0.489235
0.48927
0.489305
0.489305
0.48934
0.489375
0.48941
0.489446
0.489446
0.489481
0.489516
0.489551
0.489587
0.489587
0.489622
0.489657
0.489693
0.489728
0.489728
0.489764
0.489799
0.489835
0.48987
0.48987
0.489906
0.489941
0.489977
0.490012
0.490012
0.490048
0.490084
0.490119
0.490155
0.490155
0.490191
0.490227
0.490262
0.490298
0.490298
0.490334
0.49037
0.490406
0.490442
0.490442
0.490478
0.490514
0.49055
0.490586
0.490586
0.490622
0.490658
0.490694
0.49073
0.49073
0.490766
0.490802
0.490839
0.490875
0.490875
0.490911
0.490947
0.490984
0.49102
0.49102
0.491056
0.491093
0.491129
0.491165
0.491165
0.491202
0.491238
0.491275
0.491311
0.491311
0.491348
0.491384
0.491421
0.491458
0.491458
0.491494
0.491531
0.491568
0.491604
0.491604
0.491641
0.491678
0.491715
0.491751
0.491751
0.491788
0.491825
0.491862
0.491899
0.491899
0.491936
0.491973
0.49201
0.492047
0.492047
0.492084
0.492121
0.492158
0.492195
0.492195
0.492232
0.492269
0.492306
0.492344
0.492344
0.492381
0.492418
0.492455
0.492493
0.492493
0.49253
0.492567
0.492605
0.492642
0.492642
0.49268
0.492717
0.492755
0.492792
0.492792
0.49283
0.492867
0.492905
0.492942
0.492942
0.49298
0.493018
0.493055
0.493093
0.493093
0.493131
0.493169
0.493206
0.493244
0.493244
0.493282
0.49332
0.493358
0.493396
0.493396
0.493433
0.493471
0.493509
0.493547
0.493547
0.493585
0.493623
0.493662
0.4937
0.4937
0.493738
0.493776
0.493814
0.493852
0.493852
0.493891
0.493929
0.493967
0.494005
0.494005
0.494044
0.494082
0.49412
0.494159
0.494159
0.494197
0.494236
0.494274
0.494313
0.494313
0.494351
0.49439
0.494428
0.494467
0.494467
0.494505
0.494544
0.494583
0.494622
0.494622
0.49466
0.494699
0.494738
0.494777
0.494777
0.494815
0.494854
0.494893
0.494932
0.494932
0.494971
0.49501
0.495049
0.495088
0.495088
0.495127
0.495166
0.495205
0.495244
0.495244
0.495283
0.495322
0.495361
0.495401
0.495401
0.49544
0.495479
0.495518
0.495558
0.495558
0.495597
0.495636
0.495676
0.495715
0.495715
0.495754
0.495794
0.495833
0.495873
0.495873
0.495912
0.495952
0.495991
0.496031
0.496031
0.496071
0.49611
0.49615
0.49619
0.49619
0.496229
0.496269
0.496309
0.496349
0.496349
0.496388
0.496428
0.496468
0.496508
0.496508
0.496548
0.496588
0.496628
0.496668
0.496668
0.496708
0.496748
0.496788
0.496828
0.496828
0.496868
0.496908
0.496948
0.496989
0.496989
0.497029
0.497069
0.497109
0.497149
0.497149
0.49719
0.49723
0.49727
0.497311
0.497311
0.497351
0.497392
0.497432
0.497473
0.497473
0.497513
0.497554
0.497594
0.497635
0.497635
0.497675
0.497716
0.497757
0.497797
0.497797
0.497838
0.497879
0.497919
0.49796
0.49796
0.498001
0.498042
0.498083
0.498124
0.498124
0.498164
0.498205
0.498246
0.498287
0.498287
0.498328
0.498369
0.49841
0.498451
0.498451
0.498493
0.498534
0.498575
0.498616
0.498616
0.498657
0.498698
0.49874
0.498781
0.498781
0.498822
0.498863
0.498905
0.498946
0.498946
0.498988
0.499029
0.49907
0.499112
0.499112
0.499153
0.499195
0.499236
0.499278
0.499278
0.49932
0.499361
0.499403
0.499445
0.499445
0.499486
0.499528
0.49957
0.499611
0.499611
0.499653
0.499695
0.499737
0.499779
0.499779
0.499821
0.499862
0.499904
0.499946
0.499946
0.499988
0.50003
0.500072
0.500114
0.500114
0.500157
0.500199
0.500241
0.500283
0.500283
0.500325
0.500367
0.50041
0.500452
0.500452
0.500494
0.500536
0.500579
0.500621
0.500621
0.500663
0.500706
0.500748
0.500791
0.500791
0.500833
0.500876
0.500918
0.500961
0.500961
0.501003
0.501046
0.501089
0.501131
0.501131
0.501174
0.501217
0.501259
0.501302
0.501302
0.501345
0.501388
0.50143
0.501473
0.501473
0.501516
0.501559
0.501602
0.501645
0.501645
0.501688
0.501731
0.501774
0.501817
0.501817
0.50186
0.501903
0.501946
0.501989
0.501989
0.502032
0.502076
0.502119
0.502162
0.502162
0.502205
0.502249
0.502292
0.502335
0.502335
0.502379
0.502422
0.502465
0.502509
0.502509
0.502552
0.502596
0.502639
0.502683
0.502683
0.502726
0.50277
0.502814
0.502857
0.502857
0.502901
0.502945
0.502988
0.503032
0.503032
0.503076
0.503119
0.503163
0.503207
0.503207
0.503251
0.503295
0.503339
0.503383
0.503383
0.503427
0.503471
0.503515
0.503559
0.503559
0.503603
0.503647
0.503691
0.503735
0.503735
0.503779
0.503823
0.503867
0.503912
0.503912
0.503956
0.504
0.504044
0.504089
0.504089
0.504133
0.504178
0.504222
0.504266
0.504266
0.504311
0.504355
0.5044
0.504444
0.504444
0.504489
0.504533
0.504578
0.504623
0.504623
0.504667
0.504712
0.504757
0.504801
0.504801
0.504846
0.504891
0.504936
0.50498
0.50498
0.505025
0.50507
0.505115
0.50516
0.50516
0.505205
0.50525
0.505295
0.50534
0.50534
0.505385
0.50543
0.505475
0.50552
0.50552
0.505565
0.50561
0.505655
0.505701
0.505701
0.505746
0.505791
0.505836
0.505882
0.505882
0.505927
0.505972
0.506018
0.506063
0.506063
0.506109
0.506154
0.506199
0.506245
0.506245
0.50629
0.506336
0.506382
0.506427
0.506427
0.506473
0.506518
0.506564
0.50661
0.50661
0.506655
0.506701
0.506747
0.506793
0.506793
0.506839
0.506884
0.50693
0.506976
0.506976
0.507022
0.507068
0.507114
0.50716
0.50716
0.507206
0.507252
0.507298
0.507344
0.507344
0.50739
0.507436
0.507483
0.507529
0.507529
0.507575
0.507621
0.507667
0.507714
0.507714
0.50776
0.507806
0.507853
0.507899
0.507899
0.507945
0.507992
0.508038
0.508085
0.508085
0.508131
0.508178
0.508224
0.508271
0.508271
0.508318
0.508364
0.508411
0.508458
0.508458
0.508504
0.508551
0.508598
0.508644
0.508644
0.508691
0.508738
0.508785
0.508832
0.508832
0.508879
0.508926
0.508972
0.509019
0.509019
0.509066
0.509113
0.50916
0.509208
0.509208
0.509255
0.509302
0.509349
0.509396
0.509396
0.509443
0.50949
0.509538
0.509585
0.509585
0.509632
0.50968
0.509727
0.509774
0.509774
0.509822
0.509869
0.509916
0.509964
0.509964
0.510011
0.510059
0.510106
0.510154
0.510154
0.510201
0.510249
0.510297
0.510344
0.510344
0.510392
0.51044
0.510487
0.510535
0.510535
0.510583
0.510631
0.510679
0.510726
0.510726
0.510774
0.510822
0.51087
0.510918
0.510918
0.510966
0.511014
0.511062
0.51111
0.51111
0.511158
0.511206
0.511254
0.511302
0.511302
0.511351
0.511399
0.511447
0.511495
0.511495
0.511543
0.511592
0.51164
0.511688
0.511688
0.511737
0.511785
0.511834
0.511882
0.511882
0.51193
0.511979
0.512027
0.512076
0.512076
0.512124
0.512173
0.512222
0.51227
0.51227
0.512319
0.512368
0.512416
0.512465
0.512465
0.512514
0.512563
0.512611
0.51266
0.51266
0.512709
0.512758
0.512807
0.512856
0.512856
0.512905
0.512954
0.513003
0.513052
0.513052
0.513101
0.51315
0.513199
0.513248
0.513248
0.513297
0.513346
0.513395
0.513445
0.513445
0.513494
0.513543
0.513592
0.513642
0.513642
0.513691
0.51374
0.51379
0.513839
0.513839
0.513889
0.513938
0.513987
0.514037
0.514037
0.514086
0.514136
0.514186
0.514235
0.514235
0.514285
0.514334
0.514384
0.514434
0.514434
0.514484
0.514533
0.514583
0.514633
0.514633
0.514683
0.514732
0.514782
0.514832
0.514832
0.514882
0.514932
0.514982
0.515032
0.515032
0.515082
0.515132
0.515182
0.515232
0.515232
0.515282
0.515332
0.515383
0.515433
0.515433
0.515483
0.515533
0.515583
0.515634
0.515634
0.515684
0.515734
0.515785
0.515835
0.515835
0.515886
0.515936
0.515986
0.516037
0.516037
0.516087
0.516138
0.516188
0.516239
0.516239
0.51629
0.51634
0.516391
0.516442
0.516442
0.516492
0.516543
0.516594
0.516644
0.516644
0.516695
0.516746
0.516797
0.516848
0.516848
0.516899
0.51695
0.517
0.517051
0.517051
0.517102
0.517153
0.517204
0.517255
0.517255
0.517307
0.517358
0.517409
0.51746
0.51746
0.517511
0.517562
0.517614
0.517665
0.517665
0.517716
0.517767
0.517819
0.51787
0.51787
0.517921
0.517973
0.518024
0.518076
0.518076
0.518127
0.518179
0.51823
0.518282
0.518282
0.518333
0.518385
0.518436
0.518488
0.518488
0.51854
0.518591
0.518643
0.518695
0.518695
0.518747
0.518798
0.51885
0.518902
0.518902
0.518954
0.519006
0.519058
0.51911
0.51911
0.519162
0.519214
0.519266
0.519318
0.519318
0.51937
0.519422
0.519474
0.519526
0.519526
0.519578
0.51963
0.519682
0.519735
0.519735
0.519787
0.519839
0.519891
0.519944
0.519944
0.519996
0.520048
0.520101
0.520153
0.520153
0.520206
0.520258
0.520311
0.520363
0.520363
0.520416
0.520468
0.520521
0.520573
0.520573
0.520626
0.520679
0.520731
0.520784
0.520784
0.520837
0.52089
0.520942
0.520995
0.520995
0.521048
0.521101
0.521154
0.521207
0.521207
0.521259
0.521312
0.521365
0.521418
0.521418
0.521471
0.521524
0.521578
0.521631
0.521631
0.521684
0.521737
0.52179
0.521843
0.521843
0.521896
0.52195
0.522003
0.522056
0.522056
0.522109
0.522163
0.522216
0.52227
0.52227
0.522323
0.522376
0.52243
0.522483
0.522483
0.522537
0.52259
0.522644
0.522697
0.522697
0.522751
0.522805
0.522858
0.522912
0.522912
0.522966
0.523019
0.523073
0.523127
0.523127
0.523181
0.523235
0.523288
0.523342
0.523342
0.523396
0.52345
0.523504
0.523558
0.523558
0.523612
0.523666
0.52372
0.523774
0.523774
0.523828
0.523882
0.523936
0.52399
0.52399
0.524045
0.524099
0.524153
0.524207
0.524207
0.524262
0.524316
0.52437
0.524425
0.524425
0.524479
0.524533
0.524588
0.524642
0.524642
0.524697
0.524751
0.524806
0.52486
0.52486
0.524915
0.524969
0.525024
0.525079
0.525079
0.525133
0.525188
0.525243
0.525297
0.525297
0.525352
0.525407
0.525462
0.525516
0.525516
0.525571
0.525626
0.525681
0.525736
0.525736
0.525791
0.525846
0.525901
0.525956
0.525956
0.526011
0.526066
0.526121
0.526176
0.526176
0.526231
0.526287
0.526342
0.526397
0.526397
0.526452
0.526507
0.526563
0.526618
0.526618
0.526673
0.526729
0.526784
0.52684
0.52684
0.526895
0.52695
0.527006
0.527061
0.527061
0.527117
0.527172
0.527228
0.527284
0.527284
0.527339
0.527395
0.527451
0.527506
0.527506
0.527562
0.527618
0.527674
0.527729
0.527729
0.527785
0.527841
0.527897
0.527953
0.527953
0.528009
0.528065
0.528121
0.528176
0.528176
0.528232
0.528289
0.528345
0.528401
0.528401
0.528457
0.528513
0.528569
0.528625
0.528625
0.528681
0.528738
0.528794
0.52885
0.52885
0.528906
0.528963
0.529019
0.529075
0.529075
0.529132
0.529188
0.529245
0.529301
0.529301
0.529358
0.529414
0.529471
0.529527
0.529527
0.529584
0.52964
0.529697
0.529754
0.529754
0.52981
0.529867
0.529924
0.529981
0.529981
0.530037
0.530094
0.530151
0.530208
0.530208
0.530265
0.530322
0.530379
0.530435
0.530435
0.530492
0.530549
0.530606
0.530663
0.530663
0.530721
0.530778
0.530835
0.530892
0.530892
0.530949
0.531006
0.531063
0.531121
0.531121
0.531178
0.531235
0.531292
0.53135
0.53135
0.531407
0.531465
0.531522
0.531579
0.531579
0.531637
0.531694
0.531752
0.531809
0.531809
0.531867
0.531924
0.531982
0.53204
0.53204
0.532097
0.532155
0.532213
0.53227
0.53227
0.532328
0.532386
0.532444
0.532501
0.532501
0.532559
0.532617
0.532675
0.532733
0.532733
0.532791
0.532849
0.532907
0.532965
0.532965
0.533023
0.533081
0.533139
0.533197
0.533197
0.533255
0.533313
0.533371
0.53343
0.53343
0.533488
0.533546
0.533604
0.533663
0.533663
0.533721
0.533779
0.533838
0.533896
0.533896
0.533954
0.534013
0.534071
0.53413
0.53413
0.534188
0.534247
0.534305
0.534364
0.534364
0.534422
0.534481
0.53454
0.534598
0.534598
0.534657
0.534716
0.534775
0.534833
0.534833
0.534892
0.534951
0.53501
0.535069
0.535069
0.535127
0.535186
0.535245
0.535304
0.535304
0.535363
0.535422
0.535481
0.53554
0.53554
0.535599
0.535658
0.535718
0.535777
0.535777
0.535836
0.535895
0.535954
0.536014
0.536014
0.536073
0.536132
0.536191
0.536251
0.536251
0.53631
0.53637
0.536429
0.536488
0.536488
0.536548
0.536607
0.536667
0.536726
0.536726
0.536786
0.536845
0.536905
0.536965
0.536965
0.537024
0.537084
0.537144
0.537203
0.537203
0.537263
0.537323
0.537383
0.537443
0.537443
0.537502
0.537562
0.537622
0.537682
0.537682
0.537742
0.537802
0.537862
0.537922
0.537922
0.537982
0.538042
0.538102
0.538162
0.538162
0.538222
0.538282
0.538343
0.538403
0.538403
0.538463
0.538523
0.538584
0.538644
0.538644
0.538704
0.538764
0.538825
0.538885
0.538885
0.538946
0.539006
0.539067
0.539127
0.539127
0.539188
0.539248
0.539309
0.539369
0.539369
0.53943
0.53949
0.539551
0.539612
0.539612
0.539672
0.539733
0.539794
0.539855
0.539855
0.539915
0.539976
0.540037
0.540098
0.540098
0.540159
0.54022
0.540281
0.540342
0.540342
0.540403
0.540464
0.540525
0.540586
0.540586
0.540647
0.540708
0.540769
0.54083
0.54083
0.540891
0.540953
0.541014
0.541075
0.541075
0.541136
0.541198
0.541259
0.54132
0.54132
0.541382
0.541443
0.541504
0.541566
0.541566
0.541627
0.541689
0.54175
0.541812
0.541812
0.541873
0.541935
0.541997
0.542058
0.542058
0.54212
0.542181
0.542243
0.542305
0.542305
0.542367
0.542428
0.54249
0.542552
0.542552
0.542614
0.542676
0.542738
0.5428
0.5428
0.542861
0.542923
0.542985
0.543047
0.543047
0.543109
0.543171
0.543234
0.543296
0.543296
0.543358
0.54342
0.543482
0.543544
0.543544
0.543607
0.543669
0.543731
0.543793
0.543793
0.543856
0.543918
0.54398
0.544043
0.544043
0.544105
0.544168
0.54423
0.544293
0.544293
0.544355
0.544418
0.54448
0.544543
0.544543
0.544605
0.544668
0.544731
0.544793
0.544793
0.544856
0.544919
0.544981
0.545044
0.545044
0.545107
0.54517
0.545233
0.545295
0.545295
0.545358
0.545421
0.545484
0.545547
0.545547
0.54561
0.545673
0.545736
0.545799
0.545799
0.545862
0.545925
0.545988
0.546052
0.546052
0.546115
0.546178
0.546241
0.546304
0.546304
0.546368
0.546431
0.546494
0.546558
0.546558
0.546621
0.546684
0.546748
0.546811
0.546811
0.546875
0.546938
0.547002
0.547065
0.547065
0.547129
0.547192
0.547256
0.547319
0.547319
0.547383
0.547447
0.54751
0.547574
0.547574
0.547638
0.547702
0.547765
0.547829
0.547829
0.547893
0.547957
0.548021
0.548085
0.548085
0.548149
0.548213
0.548277
0.548341
0.548341
0.548405
0.548469
0.548533
0.548597
0.548597
0.548661
0.548725
0.548789
0.548853
0.548853
0.548918
0.548982
0.549046
0.54911
0.54911
0.549175
0.549239
0.549303
0.549368
0.549368
0.549432
0.549497
0.549561
0.549626
0.549626
0.54969
0.549755
0.549819
0.549884
0.549884
0.549948
0.550013
0.550077
0.550142
0.550142
0.550207
0.550272
0.550336
0.550401
0.550401
0.550466
0.550531
0.550595
0.55066
0.55066
0.550725
0.55079
0.550855
0.55092
0.55092
0.550985
0.55105
0.551115
0.55118
0.55118
0.551245
0.55131
0.551375
0.55144
0.55144
0.551505
0.551571
0.551636
0.551701
0.551701
0.551766
0.551832
0.551897
0.551962
0.551962
0.552028
0.552093
0.552158
0.552224
0.552224
0.552289
0.552355
0.55242
0.552486
0.552486
0.552551
0.552617
0.552682
0.552748
0.552748
0.552814
0.552879
0.552945
0.553011
0.553011
0.553076
0.553142
0.553208
0.553274
0.553274
0.553339
0.553405
0.553471
0.553537
0.553537
0.553603
0.553669
0.553735
0.553801
0.553801
0.553867
0.553933
0.553999
0.554065
0.554065
0.554131
0.554197
0.554263
0.55433
0.55433
0.554396
0.554462
0.554528
0.554594
0.554594
0.554661
0.554727
0.554793