<?xml version="1.0"?>
<VTKFile type="UnstructuredGrid" version="0.1" byte_order="LittleEndian">
<UnstructuredGrid>
<Piece NumberOfPoints="80" NumberOfCells="64">
<PointData Scalars="V0">
<DataArray type="Float32" Name="V0" format="ascii">
ZONE I=5
0 0.00297952 0 
0.015625 0.00302089 0 
0.03125 0.00318046 0 
0.046875 0.00345826 0 
0.0625 0.00385426 0 
ZONE I=5
0 0.00297952 0 
0.015625 0.00302089 0 
0.03125 0.00318046 0 
0.046875 0.00345826 0 
0.0625 0.00385426 0 
ZONE I=5
0 0.00297952 0 
0.015625 0.00302089 0 
0.03125 0.00318046 0 
0.046875 0.00345826 0 
0.0625 0.00385426 0 
ZONE I=5
0 0.00297952 0 
0.015625 0.00302089 0 
0.03125 0.00318046 0 
0.046875 0.00345826 0 
0.0625 0.00385426 0 
ZONE I=5
0 0.00297952 0 
0.015625 0.00302089 0 
0.03125 0.00318046 0 
0.046875 0.00345826 0 
0.0625 0.00385426 0 
ZONE I=5
0.0625 0.00385426 0 
0.078125 0.0043812 0 
0.09375 0.00509766 0 
0.109375 0.00600364 0 
0.125 0.00709915 0 
ZONE I=5
0.0625 0.00385426 0 
0.078125 0.0043812 0 
0.09375 0.00509766 0 
0.109375 0.00600364 0 
0.125 0.00709915 0 
ZONE I=5
0.0625 0.00385426 0 
0.078125 0.0043812 0 
0.09375 0.00509766 0 
0.109375 0.00600364 0 
0.125 0.00709915 0 
ZONE I=5
0.0625 0.00385426 0 
0.078125 0.0043812 0 
0.09375 0.00509766 0 
0.109375 0.00600364 0 
0.125 0.00709915 0 
ZONE I=5
0.0625 0.00385426 0 
0.078125 0.0043812 0 
0.09375 0.00509766 0 
0.109375 0.00600364 0 
0.125 0.00709915 0 
ZONE I=5
0.125 0.00709915 0 
0.140625 0.00843587 0 
0.15625 0.0101501 0 
0.171875 0.012242 0 
0.1875 0.0147113 0 
ZONE I=5
0.125 0.00709915 0 
0.140625 0.00843587 0 
0.15625 0.0101501 0 
0.171875 0.012242 0 
0.1875 0.0147113 0 
ZONE I=5
0.125 0.00709915 0 
0.140625 0.00843587 0 
0.15625 0.0101501 0 
0.171875 0.012242 0 
0.1875 0.0147113 0 
ZONE I=5
0.125 0.00709915 0 
0.140625 0.00843587 0 
0.15625 0.0101501 0 
0.171875 0.012242 0 
0.1875 0.0147113 0 
ZONE I=5
0.125 0.00709915 0 
0.140625 0.00843587 0 
0.15625 0.0101501 0 
0.171875 0.012242 0 
0.1875 0.0147113 0 
ZONE I=5
0.1875 0.0147113 0 
0.203125 0.0176807 0 
0.21875 0.0214488 0 
0.234375 0.0260155 0 
0.25 0.0313808 0 
ZONE I=5
0.1875 0.0147113 0 
0.203125 0.0176807 0 
0.21875 0.0214488 0 
0.234375 0.0260155 0 
0.25 0.0313808 0 
ZONE I=5
0.1875 0.0147113 0 
0.203125 0.0176807 0 
0.21875 0.0214488 0 
0.234375 0.0260155 0 
0.25 0.0313808 0 
ZONE I=5
0.1875 0.0147113 0 
0.203125 0.0176807 0 
0.21875 0.0214488 0 
0.234375 0.0260155 0 
0.25 0.0313808 0 
ZONE I=5
0.1875 0.0147113 0 
0.203125 0.0176807 0 
0.21875 0.0214488 0 
0.234375 0.0260155 0 
0.25 0.0313808 0 
ZONE I=5
0.25 0.0313808 0 
0.265625 0.0378136 0 
0.28125 0.0459615 0 
0.296875 0.0558244 0 
0.3125 0.0674023 0 
ZONE I=5
0.25 0.0313808 0 
0.265625 0.0378136 0 
0.28125 0.0459615 0 
0.296875 0.0558244 0 
0.3125 0.0674023 0 
ZONE I=5
0.25 0.0313808 0 
0.265625 0.0378136 0 
0.28125 0.0459615 0 
0.296875 0.0558244 0 
0.3125 0.0674023 0 
ZONE I=5
0.25 0.0313808 0 
0.265625 0.0378136 0 
0.28125 0.0459615 0 
0.296875 0.0558244 0 
0.3125 0.0674023 0 
ZONE I=5
0.25 0.0313808 0 
0.265625 0.0378136 0 
0.28125 0.0459615 0 
0.296875 0.0558244 0 
0.3125 0.0674023 0 
ZONE I=5
0.3125 0.0674023 0 
0.328125 0.0812771 0 
0.34375 0.0988579 0 
0.359375 0.120145 0 
0.375 0.145137 0 
ZONE I=5
0.3125 0.0674023 0 
0.328125 0.0812771 0 
0.34375 0.0988579 0 
0.359375 0.120145 0 
0.375 0.145137 0 
ZONE I=5
0.3125 0.0674023 0 
0.328125 0.0812771 0 
0.34375 0.0988579 0 
0.359375 0.120145 0 
0.375 0.145137 0 
ZONE I=5
0.3125 0.0674023 0 
0.328125 0.0812771 0 
0.34375 0.0988579 0 
0.359375 0.120145 0 
0.375 0.145137 0 
ZONE I=5
0.3125 0.0674023 0 
0.328125 0.0812771 0 
0.34375 0.0988579 0 
0.359375 0.120145 0 
0.375 0.145137 0 
ZONE I=5
0.375 0.145137 0 
0.390625 0.175316 0 
0.40625 0.213417 0 
0.421875 0.259439 0 
0.4375 0.313383 0 
ZONE I=5
0.375 0.145137 0 
0.390625 0.175316 0 
0.40625 0.213417 0 
0.421875 0.259439 0 
0.4375 0.313383 0 
ZONE I=5
0.375 0.145137 0 
0.390625 0.175316 0 
0.40625 0.213417 0 
0.421875 0.259439 0 
0.4375 0.313383 0 
ZONE I=5
0.375 0.145137 0 
0.390625 0.175316 0 
0.40625 0.213417 0 
0.421875 0.259439 0 
0.4375 0.313383 0 
ZONE I=5
0.375 0.145137 0 
0.390625 0.175316 0 
0.40625 0.213417 0 
0.421875 0.259439 0 
0.4375 0.313383 0 
ZONE I=5
0.4375 0.313383 0 
0.453125 0.384894 0 
0.46875 0.443251 0 
0.484375 0.488456 0 
0.5 0.520508 0 
ZONE I=5
0.4375 0.313383 0 
0.453125 0.384894 0 
0.46875 0.443251 0 
0.484375 0.488456 0 
0.5 0.520508 0 
ZONE I=5
0.4375 0.313383 0 
0.453125 0.384894 0 
0.46875 0.443251 0 
0.484375 0.488456 0 
0.5 0.520508 0 
ZONE I=5
0.4375 0.313383 0 
0.453125 0.384894 0 
0.46875 0.443251 0 
0.484375 0.488456 0 
0.5 0.520508 0 
ZONE I=5
0.4375 0.313383 0 
0.453125 0.384894 0 
0.46875 0.443251 0 
0.484375 0.488456 0 
0.5 0.520508 0 
ZONE I=5
0.5 0.520508 0 
0.515625 0.490548 0 
0.53125 0.446874 0 
0.546875 0.389486 0 
0.5625 0.318385 0 
ZONE I=5
0.5 0.520508 0 
0.515625 0.490548 0 
0.53125 0.446874 0 
0.546875 0.389486 0 
0.5625 0.318385 0 
ZONE I=5
0.5 0.520508 0 
0.515625 0.490548 0 
0.53125 0.446874 0 
0.546875 0.389486 0 
0.5625 0.318385 0 
ZONE I=5
0.5 0.520508 0 
0.515625 0.490548 0 
0.53125 0.446874 0 
0.546875 0.389486 0 
0.5625 0.318385 0 
ZONE I=5
0.5 0.520508 0 
0.515625 0.490548 0 
0.53125 0.446874 0 
0.546875 0.389486 0 
0.5625 0.318385 0 
ZONE I=5
0.5625 0.318385 0 
0.578125 0.264305 0 
0.59375 0.218017 0 
0.609375 0.179521 0 
0.625 0.148815 0 
ZONE I=5
0.5625 0.318385 0 
0.578125 0.264305 0 
0.59375 0.218017 0 
0.609375 0.179521 0 
0.625 0.148815 0 
ZONE I=5
0.5625 0.318385 0 
0.578125 0.264305 0 
0.59375 0.218017 0 
0.609375 0.179521 0 
0.625 0.148815 0 
ZONE I=5
0.5625 0.318385 0 
0.578125 0.264305 0 
0.59375 0.218017 0 
0.609375 0.179521 0 
0.625 0.148815 0 
ZONE I=5
0.5625 0.318385 0 
0.578125 0.264305 0 
0.59375 0.218017 0 
0.609375 0.179521 0 
0.625 0.148815 0 
ZONE I=5
0.625 0.148815 0 
0.640625 0.123347 0 
0.65625 0.101623 0 
0.671875 0.083642 0 
0.6875 0.0694045 0 
ZONE I=5
0.625 0.148815 0 
0.640625 0.123347 0 
0.65625 0.101623 0 
0.671875 0.083642 0 
0.6875 0.0694045 0 
ZONE I=5
0.625 0.148815 0 
0.640625 0.123347 0 
0.65625 0.101623 0 
0.671875 0.083642 0 
0.6875 0.0694045 0 
ZONE I=5
0.625 0.148815 0 
0.640625 0.123347 0 
0.65625 0.101623 0 
0.671875 0.083642 0 
0.6875 0.0694045 0 
ZONE I=5
0.625 0.148815 0 
0.640625 0.123347 0 
0.65625 0.101623 0 
0.671875 0.083642 0 
0.6875 0.0694045 0 
ZONE I=5
0.6875 0.0694045 0 
0.703125 0.0575162 0 
0.71875 0.0473817 0 
0.734375 0.0390008 0 
0.75 0.0323736 0 
ZONE I=5
0.6875 0.0694045 0 
0.703125 0.0575162 0 
0.71875 0.0473817 0 
0.734375 0.0390008 0 
0.75 0.0323736 0 
ZONE I=5
0.6875 0.0694045 0 
0.703125 0.0575162 0 
0.71875 0.0473817 0 
0.734375 0.0390008 0 
0.75 0.0323736 0 
ZONE I=5
0.6875 0.0694045 0 
0.703125 0.0575162 0 
0.71875 0.0473817 0 
0.734375 0.0390008 0 
0.75 0.0323736 0 
ZONE I=5
0.6875 0.0694045 0 
0.703125 0.0575162 0 
0.71875 0.0473817 0 
0.734375 0.0390008 0 
0.75 0.0323736 0 
ZONE I=5
0.75 0.0323736 0 
0.765625 0.0268443 0 
0.78125 0.0221361 0 
0.796875 0.018249 0 
0.8125 0.015183 0 
ZONE I=5
0.75 0.0323736 0 
0.765625 0.0268443 0 
0.78125 0.0221361 0 
0.796875 0.018249 0 
0.8125 0.015183 0 
ZONE I=5
0.75 0.0323736 0 
0.765625 0.0268443 0 
0.78125 0.0221361 0 
0.796875 0.018249 0 
0.8125 0.015183 0 
ZONE I=5
0.75 0.0323736 0 
0.765625 0.0268443 0 
0.78125 0.0221361 0 
0.796875 0.018249 0 
0.8125 0.015183 0 
ZONE I=5
0.75 0.0323736 0 
0.765625 0.0268443 0 
0.78125 0.0221361 0 
0.796875 0.018249 0 
0.8125 0.015183 0 
ZONE I=5
0.8125 0.015183 0 
0.828125 0.0126324 0 
0.84375 0.0104705 0 
0.859375 0.00869746 0 
0.875 0.00731321 0 
ZONE I=5
0.8125 0.015183 0 
0.828125 0.0126324 0 
0.84375 0.0104705 0 
0.859375 0.00869746 0 
0.875 0.00731321 0 
ZONE I=5
0.8125 0.015183 0 
0.828125 0.0126324 0 
0.84375 0.0104705 0 
0.859375 0.00869746 0 
0.875 0.00731321 0 
ZONE I=5
0.8125 0.015183 0 
0.828125 0.0126324 0 
0.84375 0.0104705 0 
0.859375 0.00869746 0 
0.875 0.00731321 0 
ZONE I=5
0.8125 0.015183 0 
0.828125 0.0126324 0 
0.84375 0.0104705 0 
0.859375 0.00869746 0 
0.875 0.00731321 0 
ZONE I=5
0.875 0.00731321 0 
0.890625 0.00617727 0 
0.90625 0.00523585 0 
0.921875 0.00448895 0 
0.9375 0.00393658 0 
ZONE I=5
0.875 0.00731321 0 
0.890625 0.00617727 0 
0.90625 0.00523585 0 
0.921875 0.00448895 0 
0.9375 0.00393658 0 
ZONE I=5
0.875 0.00731321 0 
0.890625 0.00617727 0 
0.90625 0.00523585 0 
0.921875 0.00448895 0 
0.9375 0.00393658 0 
ZONE I=5
0.875 0.00731321 0 
0.890625 0.00617727 0 
0.90625 0.00523585 0 
0.921875 0.00448895 0 
0.9375 0.00393658 0 
ZONE I=5
0.875 0.00731321 0 
0.890625 0.00617727 0 
0.90625 0.00523585 0 
0.921875 0.00448895 0 
0.9375 0.00393658 0 
ZONE I=5
0.9375 0.00393658 0 
0.953125 0.00351789 0 
0.96875 0.00321882 0 
0.984375 0.00303936 0 
1 0.00297952 0 
ZONE I=5
0.9375 0.00393658 0 
0.953125 0.00351789 0 
0.96875 0.00321882 0 
0.984375 0.00303936 0 
1 0.00297952 0 
ZONE I=5
0.9375 0.00393658 0 
0.953125 0.00351789 0 
0.96875 0.00321882 0 
0.984375 0.00303936 0 
1 0.00297952 0 
ZONE I=5
0.9375 0.00393658 0 
0.953125 0.00351789 0 
0.96875 0.00321882 0 
0.984375 0.00303936 0 
1 0.00297952 0 
ZONE I=5
0.9375 0.00393658 0 
0.953125 0.00351789 0 
0.96875 0.00321882 0 
0.984375 0.00303936 0 
1 0.00297952 0 
</DataArray>
</PointData>
<Points>
<DataArray type="Float32" NumberOfComponents="3" format="ascii">
0 0 0
0.015625 0 0
0.03125 0 0
0.046875 0 0
0.0625 0 0
0.0625 0 0
0.078125 0 0
0.09375 0 0
0.109375 0 0
0.125 0 0
0.125 0 0
0.140625 0 0
0.15625 0 0
0.171875 0 0
0.1875 0 0
0.1875 0 0
0.203125 0 0
0.21875 0 0
0.234375 0 0
0.25 0 0
0.25 0 0
0.265625 0 0
0.28125 0 0
0.296875 0 0
0.3125 0 0
0.3125 0 0
0.328125 0 0
0.34375 0 0
0.359375 0 0
0.375 0 0
0.375 0 0
0.390625 0 0
0.40625 0 0
0.421875 0 0
0.4375 0 0
0.4375 0 0
0.453125 0 0
0.46875 0 0
0.484375 0 0
0.5 0 0
0.5 0 0
0.515625 0 0
0.53125 0 0
0.546875 0 0
0.5625 0 0
0.5625 0 0
0.578125 0 0
0.59375 0 0
0.609375 0 0
0.625 0 0
0.625 0 0
0.640625 0 0
0.65625 0 0
0.671875 0 0
0.6875 0 0
0.6875 0 0
0.703125 0 0
0.71875 0 0
0.734375 0 0
0.75 0 0
0.75 0 0
0.765625 0 0
0.78125 0 0
0.796875 0 0
0.8125 0 0
0.8125 0 0
0.828125 0 0
0.84375 0 0
0.859375 0 0
0.875 0 0
0.875 0 0
0.890625 0 0
0.90625 0 0
0.921875 0 0
0.9375 0 0
0.9375 0 0
0.953125 0 0
0.96875 0 0
0.984375 0 0
1 0 0
</DataArray>
</Points>
<Cells>
<DataArray type="Int32" Name="connectivity" format="ascii">
0 1
1 2
2 3
3 4
5 6
6 7
7 8
8 9
10 11
11 12
12 13
13 14
15 16
16 17
17 18
18 19
20 21
21 22
22 23
23 24
25 26
26 27
27 28
28 29
30 31
31 32
32 33
33 34
35 36
36 37
37 38
38 39
40 41
41 42
42 43
43 44
45 46
46 47
47 48
48 49
50 51
51 52
52 53
53 54
55 56
56 57
57 58
58 59
60 61
61 62
62 63
63 64
65 66
66 67
67 68
68 69
70 71
71 72
72 73
73 74
75 76
76 77
77 78
78 79
</DataArray>
<DataArray type="Int32" Name="offsets" format="ascii">
2
4
6
8
10
12
14
16
18
20
22
24
26
28
30
32
34
36
38
40
42
44
46
48
50
52
54
56
58
60
62
64
66
68
70
72
74
76
78
80
82
84
86
88
90
92
94
96
98
100
102
104
106
108
110
112
114
116
118
120
122
124
126
128
</DataArray>
<DataArray type="UInt8" Name="types">
3
3
3
3
3
3
3
3
3
3
3
3
3
3
3
3
3
3
3
3
3
3
3
3
3
3
3
3
3
3
3
3
3
3
3
3
3
3
3
3
3
3
3
3
3
3
3
3
3
3
3
3
3
3
3
3
3
3
3
3
3
3
3
3
</DataArray>
</Cells>
</Piece>
</UnstructuredGrid>
</VTKFile>