<?xml version="1.0"?>
<VTKFile type="UnstructuredGrid" version="0.1" byte_order="LittleEndian">
<UnstructuredGrid>
<Piece NumberOfPoints="80" NumberOfCells="64">
<PointData Scalars="V0">
<DataArray type="Float32" Name="V0" format="ascii">
ZONE I=5
0 0.0673816 0 
0.015625 0.0674749 0 
0.03125 0.0679674 0 
0.046875 0.0688589 0 
0.0625 0.0701495 0 
ZONE I=5
0 0.0673816 0 
0.015625 0.0674749 0 
0.03125 0.0679674 0 
0.046875 0.0688589 0 
0.0625 0.0701495 0 
ZONE I=5
0 0.0673816 0 
0.015625 0.0674749 0 
0.03125 0.0679674 0 
0.046875 0.0688589 0 
0.0625 0.0701495 0 
ZONE I=5
0 0.0673816 0 
0.015625 0.0674749 0 
0.03125 0.0679674 0 
0.046875 0.0688589 0 
0.0625 0.0701495 0 
ZONE I=5
0 0.0673816 0 
0.015625 0.0674749 0 
0.03125 0.0679674 0 
0.046875 0.0688589 0 
0.0625 0.0701495 0 
ZONE I=5
0.0625 0.0701495 0 
0.078125 0.0718251 0 
0.09375 0.0738367 0 
0.109375 0.076184 0 
0.125 0.0788672 0 
ZONE I=5
0.0625 0.0701495 0 
0.078125 0.0718251 0 
0.09375 0.0738367 0 
0.109375 0.076184 0 
0.125 0.0788672 0 
ZONE I=5
0.0625 0.0701495 0 
0.078125 0.0718251 0 
0.09375 0.0738367 0 
0.109375 0.076184 0 
0.125 0.0788672 0 
ZONE I=5
0.0625 0.0701495 0 
0.078125 0.0718251 0 
0.09375 0.0738367 0 
0.109375 0.076184 0 
0.125 0.0788672 0 
ZONE I=5
0.0625 0.0701495 0 
0.078125 0.0718251 0 
0.09375 0.0738367 0 
0.109375 0.076184 0 
0.125 0.0788672 0 
ZONE I=5
0.125 0.0788672 0 
0.140625 0.0818386 0 
0.15625 0.0850169 0 
0.171875 0.088402 0 
0.1875 0.0919939 0 
ZONE I=5
0.125 0.0788672 0 
0.140625 0.0818386 0 
0.15625 0.0850169 0 
0.171875 0.088402 0 
0.1875 0.0919939 0 
ZONE I=5
0.125 0.0788672 0 
0.140625 0.0818386 0 
0.15625 0.0850169 0 
0.171875 0.088402 0 
0.1875 0.0919939 0 
ZONE I=5
0.125 0.0788672 0 
0.140625 0.0818386 0 
0.15625 0.0850169 0 
0.171875 0.088402 0 
0.1875 0.0919939 0 
ZONE I=5
0.125 0.0788672 0 
0.140625 0.0818386 0 
0.15625 0.0850169 0 
0.171875 0.088402 0 
0.1875 0.0919939 0 
ZONE I=5
0.1875 0.0919939 0 
0.203125 0.0957113 0 
0.21875 0.0994547 0 
0.234375 0.103224 0 
0.25 0.107019 0 
ZONE I=5
0.1875 0.0919939 0 
0.203125 0.0957113 0 
0.21875 0.0994547 0 
0.234375 0.103224 0 
0.25 0.107019 0 
ZONE I=5
0.1875 0.0919939 0 
0.203125 0.0957113 0 
0.21875 0.0994547 0 
0.234375 0.103224 0 
0.25 0.107019 0 
ZONE I=5
0.1875 0.0919939 0 
0.203125 0.0957113 0 
0.21875 0.0994547 0 
0.234375 0.103224 0 
0.25 0.107019 0 
ZONE I=5
0.1875 0.0919939 0 
0.203125 0.0957113 0 
0.21875 0.0994547 0 
0.234375 0.103224 0 
0.25 0.107019 0 
ZONE I=5
0.25 0.107019 0 
0.265625 0.110739 0 
0.28125 0.114302 0 
0.296875 0.11771 0 
0.3125 0.120962 0 
ZONE I=5
0.25 0.107019 0 
0.265625 0.110739 0 
0.28125 0.114302 0 
0.296875 0.11771 0 
0.3125 0.120962 0 
ZONE I=5
0.25 0.107019 0 
0.265625 0.110739 0 
0.28125 0.114302 0 
0.296875 0.11771 0 
0.3125 0.120962 0 
ZONE I=5
0.25 0.107019 0 
0.265625 0.110739 0 
0.28125 0.114302 0 
0.296875 0.11771 0 
0.3125 0.120962 0 
ZONE I=5
0.25 0.107019 0 
0.265625 0.110739 0 
0.28125 0.114302 0 
0.296875 0.11771 0 
0.3125 0.120962 0 
ZONE I=5
0.3125 0.120962 0 
0.328125 0.123976 0 
0.34375 0.126737 0 
0.359375 0.129244 0 
0.375 0.131497 0 
ZONE I=5
0.3125 0.120962 0 
0.328125 0.123976 0 
0.34375 0.126737 0 
0.359375 0.129244 0 
0.375 0.131497 0 
ZONE I=5
0.3125 0.120962 0 
0.328125 0.123976 0 
0.34375 0.126737 0 
0.359375 0.129244 0 
0.375 0.131497 0 
ZONE I=5
0.3125 0.120962 0 
0.328125 0.123976 0 
0.34375 0.126737 0 
0.359375 0.129244 0 
0.375 0.131497 0 
ZONE I=5
0.3125 0.120962 0 
0.328125 0.123976 0 
0.34375 0.126737 0 
0.359375 0.129244 0 
0.375 0.131497 0 
ZONE I=5
0.375 0.131497 0 
0.390625 0.133486 0 
0.40625 0.135235 0 
0.421875 0.136741 0 
0.4375 0.138007 0 
ZONE I=5
0.375 0.131497 0 
0.390625 0.133486 0 
0.40625 0.135235 0 
0.421875 0.136741 0 
0.4375 0.138007 0 
ZONE I=5
0.375 0.131497 0 
0.390625 0.133486 0 
0.40625 0.135235 0 
0.421875 0.136741 0 
0.4375 0.138007 0 
ZONE I=5
0.375 0.131497 0 
0.390625 0.133486 0 
0.40625 0.135235 0 
0.421875 0.136741 0 
0.4375 0.138007 0 
ZONE I=5
0.375 0.131497 0 
0.390625 0.133486 0 
0.40625 0.135235 0 
0.421875 0.136741 0 
0.4375 0.138007 0 
ZONE I=5
0.4375 0.138007 0 
0.453125 0.139045 0 
0.46875 0.139829 0 
0.484375 0.140358 0 
0.5 0.140633 0 
ZONE I=5
0.4375 0.138007 0 
0.453125 0.139045 0 
0.46875 0.139829 0 
0.484375 0.140358 0 
0.5 0.140633 0 
ZONE I=5
0.4375 0.138007 0 
0.453125 0.139045 0 
0.46875 0.139829 0 
0.484375 0.140358 0 
0.5 0.140633 0 
ZONE I=5
0.4375 0.138007 0 
0.453125 0.139045 0 
0.46875 0.139829 0 
0.484375 0.140358 0 
0.5 0.140633 0 
ZONE I=5
0.4375 0.138007 0 
0.453125 0.139045 0 
0.46875 0.139829 0 
0.484375 0.140358 0 
0.5 0.140633 0 
ZONE I=5
0.5 0.140633 0 
0.515625 0.140626 0 
0.53125 0.140361 0 
0.546875 0.139836 0 
0.5625 0.139053 0 
ZONE I=5
0.5 0.140633 0 
0.515625 0.140626 0 
0.53125 0.140361 0 
0.546875 0.139836 0 
0.5625 0.139053 0 
ZONE I=5
0.5 0.140633 0 
0.515625 0.140626 0 
0.53125 0.140361 0 
0.546875 0.139836 0 
0.5625 0.139053 0 
ZONE I=5
0.5 0.140633 0 
0.515625 0.140626 0 
0.53125 0.140361 0 
0.546875 0.139836 0 
0.5625 0.139053 0 
ZONE I=5
0.5 0.140633 0 
0.515625 0.140626 0 
0.53125 0.140361 0 
0.546875 0.139836 0 
0.5625 0.139053 0 
ZONE I=5
0.5625 0.139053 0 
0.578125 0.138033 0 
0.59375 0.136757 0 
0.609375 0.135226 0 
0.625 0.13344 0 
ZONE I=5
0.5625 0.139053 0 
0.578125 0.138033 0 
0.59375 0.136757 0 
0.609375 0.135226 0 
0.625 0.13344 0 
ZONE I=5
0.5625 0.139053 0 
0.578125 0.138033 0 
0.59375 0.136757 0 
0.609375 0.135226 0 
0.625 0.13344 0 
ZONE I=5
0.5625 0.139053 0 
0.578125 0.138033 0 
0.59375 0.136757 0 
0.609375 0.135226 0 
0.625 0.13344 0 
ZONE I=5
0.5625 0.139053 0 
0.578125 0.138033 0 
0.59375 0.136757 0 
0.609375 0.135226 0 
0.625 0.13344 0 
ZONE I=5
0.625 0.13344 0 
0.640625 0.13137 0 
0.65625 0.129021 0 
0.671875 0.126393 0 
0.6875 0.123487 0 
ZONE I=5
0.625 0.13344 0 
0.640625 0.13137 0 
0.65625 0.129021 0 
0.671875 0.126393 0 
0.6875 0.123487 0 
ZONE I=5
0.625 0.13344 0 
0.640625 0.13137 0 
0.65625 0.129021 0 
0.671875 0.126393 0 
0.6875 0.123487 0 
ZONE I=5
0.625 0.13344 0 
0.640625 0.13137 0 
0.65625 0.129021 0 
0.671875 0.126393 0 
0.6875 0.123487 0 
ZONE I=5
0.625 0.13344 0 
0.640625 0.13137 0 
0.65625 0.129021 0 
0.671875 0.126393 0 
0.6875 0.123487 0 
ZONE I=5
0.6875 0.123487 0 
0.703125 0.120315 0 
0.71875 0.116956 0 
0.734375 0.113413 0 
0.75 0.109684 0 
ZONE I=5
0.6875 0.123487 0 
0.703125 0.120315 0 
0.71875 0.116956 0 
0.734375 0.113413 0 
0.75 0.109684 0 
ZONE I=5
0.6875 0.123487 0 
0.703125 0.120315 0 
0.71875 0.116956 0 
0.734375 0.113413 0 
0.75 0.109684 0 
ZONE I=5
0.6875 0.123487 0 
0.703125 0.120315 0 
0.71875 0.116956 0 
0.734375 0.113413 0 
0.75 0.109684 0 
ZONE I=5
0.6875 0.123487 0 
0.703125 0.120315 0 
0.71875 0.116956 0 
0.734375 0.113413 0 
0.75 0.109684 0 
ZONE I=5
0.75 0.109684 0 
0.765625 0.10585 0 
0.78125 0.102017 0 
0.796875 0.0981849 0 
0.8125 0.0943538 0 
ZONE I=5
0.75 0.109684 0 
0.765625 0.10585 0 
0.78125 0.102017 0 
0.796875 0.0981849 0 
0.8125 0.0943538 0 
ZONE I=5
0.75 0.109684 0 
0.765625 0.10585 0 
0.78125 0.102017 0 
0.796875 0.0981849 0 
0.8125 0.0943538 0 
ZONE I=5
0.75 0.109684 0 
0.765625 0.10585 0 
0.78125 0.102017 0 
0.796875 0.0981849 0 
0.8125 0.0943538 0 
ZONE I=5
0.75 0.109684 0 
0.765625 0.10585 0 
0.78125 0.102017 0 
0.796875 0.0981849 0 
0.8125 0.0943538 0 
ZONE I=5
0.8125 0.0943538 0 
0.828125 0.0906272 0 
0.84375 0.0870914 0 
0.859375 0.0837464 0 
0.875 0.0805922 0 
ZONE I=5
0.8125 0.0943538 0 
0.828125 0.0906272 0 
0.84375 0.0870914 0 
0.859375 0.0837464 0 
0.875 0.0805922 0 
ZONE I=5
0.8125 0.0943538 0 
0.828125 0.0906272 0 
0.84375 0.0870914 0 
0.859375 0.0837464 0 
0.875 0.0805922 0 
ZONE I=5
0.8125 0.0943538 0 
0.828125 0.0906272 0 
0.84375 0.0870914 0 
0.859375 0.0837464 0 
0.875 0.0805922 0 
ZONE I=5
0.8125 0.0943538 0 
0.828125 0.0906272 0 
0.84375 0.0870914 0 
0.859375 0.0837464 0 
0.875 0.0805922 0 
ZONE I=5
0.875 0.0805922 0 
0.890625 0.0777149 0 
0.90625 0.0751655 0 
0.921875 0.0729442 0 
0.9375 0.0710509 0 
ZONE I=5
0.875 0.0805922 0 
0.890625 0.0777149 0 
0.90625 0.0751655 0 
0.921875 0.0729442 0 
0.9375 0.0710509 0 
ZONE I=5
0.875 0.0805922 0 
0.890625 0.0777149 0 
0.90625 0.0751655 0 
0.921875 0.0729442 0 
0.9375 0.0710509 0 
ZONE I=5
0.875 0.0805922 0 
0.890625 0.0777149 0 
0.90625 0.0751655 0 
0.921875 0.0729442 0 
0.9375 0.0710509 0 
ZONE I=5
0.875 0.0805922 0 
0.890625 0.0777149 0 
0.90625 0.0751655 0 
0.921875 0.0729442 0 
0.9375 0.0710509 0 
ZONE I=5
0.9375 0.0710509 0 
0.953125 0.0695383 0 
0.96875 0.0684225 0 
0.984375 0.0677036 0 
1 0.0673816 0 
ZONE I=5
0.9375 0.0710509 0 
0.953125 0.0695383 0 
0.96875 0.0684225 0 
0.984375 0.0677036 0 
1 0.0673816 0 
ZONE I=5
0.9375 0.0710509 0 
0.953125 0.0695383 0 
0.96875 0.0684225 0 
0.984375 0.0677036 0 
1 0.0673816 0 
ZONE I=5
0.9375 0.0710509 0 
0.953125 0.0695383 0 
0.96875 0.0684225 0 
0.984375 0.0677036 0 
1 0.0673816 0 
ZONE I=5
0.9375 0.0710509 0 
0.953125 0.0695383 0 
0.96875 0.0684225 0 
0.984375 0.0677036 0 
1 0.0673816 0 
</DataArray>
</PointData>
<Points>
<DataArray type="Float32" NumberOfComponents="3" format="ascii">
0 0 0
0.015625 0 0
0.03125 0 0
0.046875 0 0
0.0625 0 0
0.0625 0 0
0.078125 0 0
0.09375 0 0
0.109375 0 0
0.125 0 0
0.125 0 0
0.140625 0 0
0.15625 0 0
0.171875 0 0
0.1875 0 0
0.1875 0 0
0.203125 0 0
0.21875 0 0
0.234375 0 0
0.25 0 0
0.25 0 0
0.265625 0 0
0.28125 0 0
0.296875 0 0
0.3125 0 0
0.3125 0 0
0.328125 0 0
0.34375 0 0
0.359375 0 0
0.375 0 0
0.375 0 0
0.390625 0 0
0.40625 0 0
0.421875 0 0
0.4375 0 0
0.4375 0 0
0.453125 0 0
0.46875 0 0
0.484375 0 0
0.5 0 0
0.5 0 0
0.515625 0 0
0.53125 0 0
0.546875 0 0
0.5625 0 0
0.5625 0 0
0.578125 0 0
0.59375 0 0
0.609375 0 0
0.625 0 0
0.625 0 0
0.640625 0 0
0.65625 0 0
0.671875 0 0
0.6875 0 0
0.6875 0 0
0.703125 0 0
0.71875 0 0
0.734375 0 0
0.75 0 0
0.75 0 0
0.765625 0 0
0.78125 0 0
0.796875 0 0
0.8125 0 0
0.8125 0 0
0.828125 0 0
0.84375 0 0
0.859375 0 0
0.875 0 0
0.875 0 0
0.890625 0 0
0.90625 0 0
0.921875 0 0
0.9375 0 0
0.9375 0 0
0.953125 0 0
0.96875 0 0
0.984375 0 0
1 0 0
</DataArray>
</Points>
<Cells>
<DataArray type="Int32" Name="connectivity" format="ascii">
0 1
1 2
2 3
3 4
5 6
6 7
7 8
8 9
10 11
11 12
12 13
13 14
15 16
16 17
17 18
18 19
20 21
21 22
22 23
23 24
25 26
26 27
27 28
28 29
30 31
31 32
32 33
33 34
35 36
36 37
37 38
38 39
40 41
41 42
42 43
43 44
45 46
46 47
47 48
48 49
50 51
51 52
52 53
53 54
55 56
56 57
57 58
58 59
60 61
61 62
62 63
63 64
65 66
66 67
67 68
68 69
70 71
71 72
72 73
73 74
75 76
76 77
77 78
78 79
</DataArray>
<DataArray type="Int32" Name="offsets" format="ascii">
2
4
6
8
10
12
14
16
18
20
22
24
26
28
30
32
34
36
38
40
42
44
46
48
50
52
54
56
58
60
62
64
66
68
70
72
74
76
78
80
82
84
86
88
90
92
94
96
98
100
102
104
106
108
110
112
114
116
118
120
122
124
126
128
</DataArray>
<DataArray type="UInt8" Name="types">
3
3
3
3
3
3
3
3
3
3
3
3
3
3
3
3
3
3
3
3
3
3
3
3
3
3
3
3
3
3
3
3
3
3
3
3
3
3
3
3
3
3
3
3
3
3
3
3
3
3
3
3
3
3
3
3
3
3
3
3
3
3
3
3
</DataArray>
</Cells>
</Piece>
</UnstructuredGrid>
</VTKFile>