<?xml version="1.0"?>
<VTKFile type="UnstructuredGrid" version="0.1" byte_order="LittleEndian">
<UnstructuredGrid>
<Piece NumberOfPoints="80" NumberOfCells="64">
<PointData Scalars="V0">
<DataArray type="Float32" Name="V0" format="ascii">
ZONE I=5
0 0.0898679 0 
0.015625 0.0898714 0 
0.03125 0.0900406 0 
0.046875 0.0903757 0 
0.0625 0.0908765 0 
ZONE I=5
0 0.0898679 0 
0.015625 0.0898714 0 
0.03125 0.0900406 0 
0.046875 0.0903757 0 
0.0625 0.0908765 0 
ZONE I=5
0 0.0898679 0 
0.015625 0.0898714 0 
0.03125 0.0900406 0 
0.046875 0.0903757 0 
0.0625 0.0908765 0 
ZONE I=5
0 0.0898679 0 
0.015625 0.0898714 0 
0.03125 0.0900406 0 
0.046875 0.0903757 0 
0.0625 0.0908765 0 
ZONE I=5
0 0.0898679 0 
0.015625 0.0898714 0 
0.03125 0.0900406 0 
0.046875 0.0903757 0 
0.0625 0.0908765 0 
ZONE I=5
0.0625 0.0908765 0 
0.078125 0.0915362 0 
0.09375 0.0923319 0 
0.109375 0.0932638 0 
0.125 0.0943318 0 
ZONE I=5
0.0625 0.0908765 0 
0.078125 0.0915362 0 
0.09375 0.0923319 0 
0.109375 0.0932638 0 
0.125 0.0943318 0 
ZONE I=5
0.0625 0.0908765 0 
0.078125 0.0915362 0 
0.09375 0.0923319 0 
0.109375 0.0932638 0 
0.125 0.0943318 0 
ZONE I=5
0.0625 0.0908765 0 
0.078125 0.0915362 0 
0.09375 0.0923319 0 
0.109375 0.0932638 0 
0.125 0.0943318 0 
ZONE I=5
0.0625 0.0908765 0 
0.078125 0.0915362 0 
0.09375 0.0923319 0 
0.109375 0.0932638 0 
0.125 0.0943318 0 
ZONE I=5
0.125 0.0943318 0 
0.140625 0.0955136 0 
0.15625 0.0967788 0 
0.171875 0.0981271 0 
0.1875 0.0995587 0 
ZONE I=5
0.125 0.0943318 0 
0.140625 0.0955136 0 
0.15625 0.0967788 0 
0.171875 0.0981271 0 
0.1875 0.0995587 0 
ZONE I=5
0.125 0.0943318 0 
0.140625 0.0955136 0 
0.15625 0.0967788 0 
0.171875 0.0981271 0 
0.1875 0.0995587 0 
ZONE I=5
0.125 0.0943318 0 
0.140625 0.0955136 0 
0.15625 0.0967788 0 
0.171875 0.0981271 0 
0.1875 0.0995587 0 
ZONE I=5
0.125 0.0943318 0 
0.140625 0.0955136 0 
0.15625 0.0967788 0 
0.171875 0.0981271 0 
0.1875 0.0995587 0 
ZONE I=5
0.1875 0.0995587 0 
0.203125 0.101043 0 
0.21875 0.102551 0 
0.234375 0.104081 0 
0.25 0.105634 0 
ZONE I=5
0.1875 0.0995587 0 
0.203125 0.101043 0 
0.21875 0.102551 0 
0.234375 0.104081 0 
0.25 0.105634 0 
ZONE I=5
0.1875 0.0995587 0 
0.203125 0.101043 0 
0.21875 0.102551 0 
0.234375 0.104081 0 
0.25 0.105634 0 
ZONE I=5
0.1875 0.0995587 0 
0.203125 0.101043 0 
0.21875 0.102551 0 
0.234375 0.104081 0 
0.25 0.105634 0 
ZONE I=5
0.1875 0.0995587 0 
0.203125 0.101043 0 
0.21875 0.102551 0 
0.234375 0.104081 0 
0.25 0.105634 0 
ZONE I=5
0.25 0.105634 0 
0.265625 0.107181 0 
0.28125 0.108695 0 
0.296875 0.110178 0 
0.3125 0.111628 0 
ZONE I=5
0.25 0.105634 0 
0.265625 0.107181 0 
0.28125 0.108695 0 
0.296875 0.110178 0 
0.3125 0.111628 0 
ZONE I=5
0.25 0.105634 0 
0.265625 0.107181 0 
0.28125 0.108695 0 
0.296875 0.110178 0 
0.3125 0.111628 0 
ZONE I=5
0.25 0.105634 0 
0.265625 0.107181 0 
0.28125 0.108695 0 
0.296875 0.110178 0 
0.3125 0.111628 0 
ZONE I=5
0.25 0.105634 0 
0.265625 0.107181 0 
0.28125 0.108695 0 
0.296875 0.110178 0 
0.3125 0.111628 0 
ZONE I=5
0.3125 0.111628 0 
0.328125 0.113023 0 
0.34375 0.114339 0 
0.359375 0.115579 0 
0.375 0.116741 0 
ZONE I=5
0.3125 0.111628 0 
0.328125 0.113023 0 
0.34375 0.114339 0 
0.359375 0.115579 0 
0.375 0.116741 0 
ZONE I=5
0.3125 0.111628 0 
0.328125 0.113023 0 
0.34375 0.114339 0 
0.359375 0.115579 0 
0.375 0.116741 0 
ZONE I=5
0.3125 0.111628 0 
0.328125 0.113023 0 
0.34375 0.114339 0 
0.359375 0.115579 0 
0.375 0.116741 0 
ZONE I=5
0.3125 0.111628 0 
0.328125 0.113023 0 
0.34375 0.114339 0 
0.359375 0.115579 0 
0.375 0.116741 0 
ZONE I=5
0.375 0.116741 0 
0.390625 0.117804 0 
0.40625 0.118751 0 
0.421875 0.119582 0 
0.4375 0.120297 0 
ZONE I=5
0.375 0.116741 0 
0.390625 0.117804 0 
0.40625 0.118751 0 
0.421875 0.119582 0 
0.4375 0.120297 0 
ZONE I=5
0.375 0.116741 0 
0.390625 0.117804 0 
0.40625 0.118751 0 
0.421875 0.119582 0 
0.4375 0.120297 0 
ZONE I=5
0.375 0.116741 0 
0.390625 0.117804 0 
0.40625 0.118751 0 
0.421875 0.119582 0 
0.4375 0.120297 0 
ZONE I=5
0.375 0.116741 0 
0.390625 0.117804 0 
0.40625 0.118751 0 
0.421875 0.119582 0 
0.4375 0.120297 0 
ZONE I=5
0.4375 0.120297 0 
0.453125 0.120878 0 
0.46875 0.121317 0 
0.484375 0.121615 0 
0.5 0.121771 0 
ZONE I=5
0.4375 0.120297 0 
0.453125 0.120878 0 
0.46875 0.121317 0 
0.484375 0.121615 0 
0.5 0.121771 0 
ZONE I=5
0.4375 0.120297 0 
0.453125 0.120878 0 
0.46875 0.121317 0 
0.484375 0.121615 0 
0.5 0.121771 0 
ZONE I=5
0.4375 0.120297 0 
0.453125 0.120878 0 
0.46875 0.121317 0 
0.484375 0.121615 0 
0.5 0.121771 0 
ZONE I=5
0.4375 0.120297 0 
0.453125 0.120878 0 
0.46875 0.121317 0 
0.484375 0.121615 0 
0.5 0.121771 0 
ZONE I=5
0.5 0.121771 0 
0.515625 0.121777 0 
0.53125 0.121639 0 
0.546875 0.121356 0 
0.5625 0.120929 0 
ZONE I=5
0.5 0.121771 0 
0.515625 0.121777 0 
0.53125 0.121639 0 
0.546875 0.121356 0 
0.5625 0.120929 0 
ZONE I=5
0.5 0.121771 0 
0.515625 0.121777 0 
0.53125 0.121639 0 
0.546875 0.121356 0 
0.5625 0.120929 0 
ZONE I=5
0.5 0.121771 0 
0.515625 0.121777 0 
0.53125 0.121639 0 
0.546875 0.121356 0 
0.5625 0.120929 0 
ZONE I=5
0.5 0.121771 0 
0.515625 0.121777 0 
0.53125 0.121639 0 
0.546875 0.121356 0 
0.5625 0.120929 0 
ZONE I=5
0.5625 0.120929 0 
0.578125 0.120361 0 
0.59375 0.119669 0 
0.609375 0.118852 0 
0.625 0.11791 0 
ZONE I=5
0.5625 0.120929 0 
0.578125 0.120361 0 
0.59375 0.119669 0 
0.609375 0.118852 0 
0.625 0.11791 0 
ZONE I=5
0.5625 0.120929 0 
0.578125 0.120361 0 
0.59375 0.119669 0 
0.609375 0.118852 0 
0.625 0.11791 0 
ZONE I=5
0.5625 0.120929 0 
0.578125 0.120361 0 
0.59375 0.119669 0 
0.609375 0.118852 0 
0.625 0.11791 0 
ZONE I=5
0.5625 0.120929 0 
0.578125 0.120361 0 
0.59375 0.119669 0 
0.609375 0.118852 0 
0.625 0.11791 0 
ZONE I=5
0.625 0.11791 0 
0.640625 0.116858 0 
0.65625 0.115717 0 
0.671875 0.114485 0 
0.6875 0.113163 0 
ZONE I=5
0.625 0.11791 0 
0.640625 0.116858 0 
0.65625 0.115717 0 
0.671875 0.114485 0 
0.6875 0.113163 0 
ZONE I=5
0.625 0.11791 0 
0.640625 0.116858 0 
0.65625 0.115717 0 
0.671875 0.114485 0 
0.6875 0.113163 0 
ZONE I=5
0.625 0.11791 0 
0.640625 0.116858 0 
0.65625 0.115717 0 
0.671875 0.114485 0 
0.6875 0.113163 0 
ZONE I=5
0.625 0.11791 0 
0.640625 0.116858 0 
0.65625 0.115717 0 
0.671875 0.114485 0 
0.6875 0.113163 0 
ZONE I=5
0.6875 0.113163 0 
0.703125 0.111769 0 
0.71875 0.110328 0 
0.734375 0.10884 0 
0.75 0.107305 0 
ZONE I=5
0.6875 0.113163 0 
0.703125 0.111769 0 
0.71875 0.110328 0 
0.734375 0.10884 0 
0.75 0.107305 0 
ZONE I=5
0.6875 0.113163 0 
0.703125 0.111769 0 
0.71875 0.110328 0 
0.734375 0.10884 0 
0.75 0.107305 0 
ZONE I=5
0.6875 0.113163 0 
0.703125 0.111769 0 
0.71875 0.110328 0 
0.734375 0.10884 0 
0.75 0.107305 0 
ZONE I=5
0.6875 0.113163 0 
0.703125 0.111769 0 
0.71875 0.110328 0 
0.734375 0.10884 0 
0.75 0.107305 0 
ZONE I=5
0.75 0.107305 0 
0.765625 0.105746 0 
0.78125 0.104194 0 
0.796875 0.102649 0 
0.8125 0.101111 0 
ZONE I=5
0.75 0.107305 0 
0.765625 0.105746 0 
0.78125 0.104194 0 
0.796875 0.102649 0 
0.8125 0.101111 0 
ZONE I=5
0.75 0.107305 0 
0.765625 0.105746 0 
0.78125 0.104194 0 
0.796875 0.102649 0 
0.8125 0.101111 0 
ZONE I=5
0.75 0.107305 0 
0.765625 0.105746 0 
0.78125 0.104194 0 
0.796875 0.102649 0 
0.8125 0.101111 0 
ZONE I=5
0.75 0.107305 0 
0.765625 0.105746 0 
0.78125 0.104194 0 
0.796875 0.102649 0 
0.8125 0.101111 0 
ZONE I=5
0.8125 0.101111 0 
0.828125 0.0996098 0 
0.84375 0.0981784 0 
0.859375 0.0968166 0 
0.875 0.0955242 0 
ZONE I=5
0.8125 0.101111 0 
0.828125 0.0996098 0 
0.84375 0.0981784 0 
0.859375 0.0968166 0 
0.875 0.0955242 0 
ZONE I=5
0.8125 0.101111 0 
0.828125 0.0996098 0 
0.84375 0.0981784 0 
0.859375 0.0968166 0 
0.875 0.0955242 0 
ZONE I=5
0.8125 0.101111 0 
0.828125 0.0996098 0 
0.84375 0.0981784 0 
0.859375 0.0968166 0 
0.875 0.0955242 0 
ZONE I=5
0.8125 0.101111 0 
0.828125 0.0996098 0 
0.84375 0.0981784 0 
0.859375 0.0968166 0 
0.875 0.0955242 0 
ZONE I=5
0.875 0.0955242 0 
0.890625 0.0943336 0 
0.90625 0.0932699 0 
0.921875 0.0923331 0 
0.9375 0.0915231 0 
ZONE I=5
0.875 0.0955242 0 
0.890625 0.0943336 0 
0.90625 0.0932699 0 
0.921875 0.0923331 0 
0.9375 0.0915231 0 
ZONE I=5
0.875 0.0955242 0 
0.890625 0.0943336 0 
0.90625 0.0932699 0 
0.921875 0.0923331 0 
0.9375 0.0915231 0 
ZONE I=5
0.875 0.0955242 0 
0.890625 0.0943336 0 
0.90625 0.0932699 0 
0.921875 0.0923331 0 
0.9375 0.0915231 0 
ZONE I=5
0.875 0.0955242 0 
0.890625 0.0943336 0 
0.90625 0.0932699 0 
0.921875 0.0923331 0 
0.9375 0.0915231 0 
ZONE I=5
0.9375 0.0915231 0 
0.953125 0.0908655 0 
0.96875 0.0903704 0 
0.984375 0.0900379 0 
1 0.0898679 0 
ZONE I=5
0.9375 0.0915231 0 
0.953125 0.0908655 0 
0.96875 0.0903704 0 
0.984375 0.0900379 0 
1 0.0898679 0 
ZONE I=5
0.9375 0.0915231 0 
0.953125 0.0908655 0 
0.96875 0.0903704 0 
0.984375 0.0900379 0 
1 0.0898679 0 
ZONE I=5
0.9375 0.0915231 0 
0.953125 0.0908655 0 
0.96875 0.0903704 0 
0.984375 0.0900379 0 
1 0.0898679 0 
ZONE I=5
0.9375 0.0915231 0 
0.953125 0.0908655 0 
0.96875 0.0903704 0 
0.984375 0.0900379 0 
1 0.0898679 0 
</DataArray>
</PointData>
<Points>
<DataArray type="Float32" NumberOfComponents="3" format="ascii">
0 0 0
0.015625 0 0
0.03125 0 0
0.046875 0 0
0.0625 0 0
0.0625 0 0
0.078125 0 0
0.09375 0 0
0.109375 0 0
0.125 0 0
0.125 0 0
0.140625 0 0
0.15625 0 0
0.171875 0 0
0.1875 0 0
0.1875 0 0
0.203125 0 0
0.21875 0 0
0.234375 0 0
0.25 0 0
0.25 0 0
0.265625 0 0
0.28125 0 0
0.296875 0 0
0.3125 0 0
0.3125 0 0
0.328125 0 0
0.34375 0 0
0.359375 0 0
0.375 0 0
0.375 0 0
0.390625 0 0
0.40625 0 0
0.421875 0 0
0.4375 0 0
0.4375 0 0
0.453125 0 0
0.46875 0 0
0.484375 0 0
0.5 0 0
0.5 0 0
0.515625 0 0
0.53125 0 0
0.546875 0 0
0.5625 0 0
0.5625 0 0
0.578125 0 0
0.59375 0 0
0.609375 0 0
0.625 0 0
0.625 0 0
0.640625 0 0
0.65625 0 0
0.671875 0 0
0.6875 0 0
0.6875 0 0
0.703125 0 0
0.71875 0 0
0.734375 0 0
0.75 0 0
0.75 0 0
0.765625 0 0
0.78125 0 0
0.796875 0 0
0.8125 0 0
0.8125 0 0
0.828125 0 0
0.84375 0 0
0.859375 0 0
0.875 0 0
0.875 0 0
0.890625 0 0
0.90625 0 0
0.921875 0 0
0.9375 0 0
0.9375 0 0
0.953125 0 0
0.96875 0 0
0.984375 0 0
1 0 0
</DataArray>
</Points>
<Cells>
<DataArray type="Int32" Name="connectivity" format="ascii">
0 1
1 2
2 3
3 4
5 6
6 7
7 8
8 9
10 11
11 12
12 13
13 14
15 16
16 17
17 18
18 19
20 21
21 22
22 23
23 24
25 26
26 27
27 28
28 29
30 31
31 32
32 33
33 34
35 36
36 37
37 38
38 39
40 41
41 42
42 43
43 44
45 46
46 47
47 48
48 49
50 51
51 52
52 53
53 54
55 56
56 57
57 58
58 59
60 61
61 62
62 63
63 64
65 66
66 67
67 68
68 69
70 71
71 72
72 73
73 74
75 76
76 77
77 78
78 79
</DataArray>
<DataArray type="Int32" Name="offsets" format="ascii">
2
4
6
8
10
12
14
16
18
20
22
24
26
28
30
32
34
36
38
40
42
44
46
48
50
52
54
56
58
60
62
64
66
68
70
72
74
76
78
80
82
84
86
88
90
92
94
96
98
100
102
104
106
108
110
112
114
116
118
120
122
124
126
128
</DataArray>
<DataArray type="UInt8" Name="types">
3
3
3
3
3
3
3
3
3
3
3
3
3
3
3
3
3
3
3
3
3
3
3
3
3
3
3
3
3
3
3
3
3
3
3
3
3
3
3
3
3
3
3
3
3
3
3
3
3
3
3
3
3
3
3
3
3
3
3
3
3
3
3
3
</DataArray>
</Cells>
</Piece>
</UnstructuredGrid>
</VTKFile>