<?xml version="1.0"?>
<VTKFile type="UnstructuredGrid" version="0.1" byte_order="LittleEndian">
<UnstructuredGrid>
<Piece NumberOfPoints="80" NumberOfCells="64">
<PointData Scalars="V0">
<DataArray type="Float32" Name="V0" format="ascii">
ZONE I=5
0 0.0807745 0 
0.015625 0.0808119 0 
0.03125 0.0811168 0 
0.046875 0.081689 0 
0.0625 0.0825285 0 
ZONE I=5
0 0.0807745 0 
0.015625 0.0808119 0 
0.03125 0.0811168 0 
0.046875 0.081689 0 
0.0625 0.0825285 0 
ZONE I=5
0 0.0807745 0 
0.015625 0.0808119 0 
0.03125 0.0811168 0 
0.046875 0.081689 0 
0.0625 0.0825285 0 
ZONE I=5
0 0.0807745 0 
0.015625 0.0808119 0 
0.03125 0.0811168 0 
0.046875 0.081689 0 
0.0625 0.0825285 0 
ZONE I=5
0 0.0807745 0 
0.015625 0.0808119 0 
0.03125 0.0811168 0 
0.046875 0.081689 0 
0.0625 0.0825285 0 
ZONE I=5
0.0625 0.0825285 0 
0.078125 0.0836233 0 
0.09375 0.0849342 0 
0.109375 0.0864614 0 
0.125 0.0882047 0 
ZONE I=5
0.0625 0.0825285 0 
0.078125 0.0836233 0 
0.09375 0.0849342 0 
0.109375 0.0864614 0 
0.125 0.0882047 0 
ZONE I=5
0.0625 0.0825285 0 
0.078125 0.0836233 0 
0.09375 0.0849342 0 
0.109375 0.0864614 0 
0.125 0.0882047 0 
ZONE I=5
0.0625 0.0825285 0 
0.078125 0.0836233 0 
0.09375 0.0849342 0 
0.109375 0.0864614 0 
0.125 0.0882047 0 
ZONE I=5
0.0625 0.0825285 0 
0.078125 0.0836233 0 
0.09375 0.0849342 0 
0.109375 0.0864614 0 
0.125 0.0882047 0 
ZONE I=5
0.125 0.0882047 0 
0.140625 0.0901259 0 
0.15625 0.0921703 0 
0.171875 0.0943379 0 
0.1875 0.0966287 0 
ZONE I=5
0.125 0.0882047 0 
0.140625 0.0901259 0 
0.15625 0.0921703 0 
0.171875 0.0943379 0 
0.1875 0.0966287 0 
ZONE I=5
0.125 0.0882047 0 
0.140625 0.0901259 0 
0.15625 0.0921703 0 
0.171875 0.0943379 0 
0.1875 0.0966287 0 
ZONE I=5
0.125 0.0882047 0 
0.140625 0.0901259 0 
0.15625 0.0921703 0 
0.171875 0.0943379 0 
0.1875 0.0966287 0 
ZONE I=5
0.125 0.0882047 0 
0.140625 0.0901259 0 
0.15625 0.0921703 0 
0.171875 0.0943379 0 
0.1875 0.0966287 0 
ZONE I=5
0.1875 0.0966287 0 
0.203125 0.098988 0 
0.21875 0.101362 0 
0.234375 0.103751 0 
0.25 0.106154 0 
ZONE I=5
0.1875 0.0966287 0 
0.203125 0.098988 0 
0.21875 0.101362 0 
0.234375 0.103751 0 
0.25 0.106154 0 
ZONE I=5
0.1875 0.0966287 0 
0.203125 0.098988 0 
0.21875 0.101362 0 
0.234375 0.103751 0 
0.25 0.106154 0 
ZONE I=5
0.1875 0.0966287 0 
0.203125 0.098988 0 
0.21875 0.101362 0 
0.234375 0.103751 0 
0.25 0.106154 0 
ZONE I=5
0.1875 0.0966287 0 
0.203125 0.098988 0 
0.21875 0.101362 0 
0.234375 0.103751 0 
0.25 0.106154 0 
ZONE I=5
0.25 0.106154 0 
0.265625 0.108518 0 
0.28125 0.110806 0 
0.296875 0.113018 0 
0.3125 0.115154 0 
ZONE I=5
0.25 0.106154 0 
0.265625 0.108518 0 
0.28125 0.110806 0 
0.296875 0.113018 0 
0.3125 0.115154 0 
ZONE I=5
0.25 0.106154 0 
0.265625 0.108518 0 
0.28125 0.110806 0 
0.296875 0.113018 0 
0.3125 0.115154 0 
ZONE I=5
0.25 0.106154 0 
0.265625 0.108518 0 
0.28125 0.110806 0 
0.296875 0.113018 0 
0.3125 0.115154 0 
ZONE I=5
0.25 0.106154 0 
0.265625 0.108518 0 
0.28125 0.110806 0 
0.296875 0.113018 0 
0.3125 0.115154 0 
ZONE I=5
0.3125 0.115154 0 
0.328125 0.117178 0 
0.34375 0.119073 0 
0.359375 0.120839 0 
0.375 0.122476 0 
ZONE I=5
0.3125 0.115154 0 
0.328125 0.117178 0 
0.34375 0.119073 0 
0.359375 0.120839 0 
0.375 0.122476 0 
ZONE I=5
0.3125 0.115154 0 
0.328125 0.117178 0 
0.34375 0.119073 0 
0.359375 0.120839 0 
0.375 0.122476 0 
ZONE I=5
0.3125 0.115154 0 
0.328125 0.117178 0 
0.34375 0.119073 0 
0.359375 0.120839 0 
0.375 0.122476 0 
ZONE I=5
0.3125 0.115154 0 
0.328125 0.117178 0 
0.34375 0.119073 0 
0.359375 0.120839 0 
0.375 0.122476 0 
ZONE I=5
0.375 0.122476 0 
0.390625 0.123965 0 
0.40625 0.12529 0 
0.421875 0.126452 0 
0.4375 0.127448 0 
ZONE I=5
0.375 0.122476 0 
0.390625 0.123965 0 
0.40625 0.12529 0 
0.421875 0.126452 0 
0.4375 0.127448 0 
ZONE I=5
0.375 0.122476 0 
0.390625 0.123965 0 
0.40625 0.12529 0 
0.421875 0.126452 0 
0.4375 0.127448 0 
ZONE I=5
0.375 0.122476 0 
0.390625 0.123965 0 
0.40625 0.12529 0 
0.421875 0.126452 0 
0.4375 0.127448 0 
ZONE I=5
0.375 0.122476 0 
0.390625 0.123965 0 
0.40625 0.12529 0 
0.421875 0.126452 0 
0.4375 0.127448 0 
ZONE I=5
0.4375 0.127448 0 
0.453125 0.12826 0 
0.46875 0.128872 0 
0.484375 0.129284 0 
0.5 0.129496 0 
ZONE I=5
0.4375 0.127448 0 
0.453125 0.12826 0 
0.46875 0.128872 0 
0.484375 0.129284 0 
0.5 0.129496 0 
ZONE I=5
0.4375 0.127448 0 
0.453125 0.12826 0 
0.46875 0.128872 0 
0.484375 0.129284 0 
0.5 0.129496 0 
ZONE I=5
0.4375 0.127448 0 
0.453125 0.12826 0 
0.46875 0.128872 0 
0.484375 0.129284 0 
0.5 0.129496 0 
ZONE I=5
0.4375 0.127448 0 
0.453125 0.12826 0 
0.46875 0.128872 0 
0.484375 0.129284 0 
0.5 0.129496 0 
ZONE I=5
0.5 0.129496 0 
0.515625 0.129493 0 
0.53125 0.129286 0 
0.546875 0.128876 0 
0.5625 0.128261 0 
ZONE I=5
0.5 0.129496 0 
0.515625 0.129493 0 
0.53125 0.129286 0 
0.546875 0.128876 0 
0.5625 0.128261 0 
ZONE I=5
0.5 0.129496 0 
0.515625 0.129493 0 
0.53125 0.129286 0 
0.546875 0.128876 0 
0.5625 0.128261 0 
ZONE I=5
0.5 0.129496 0 
0.515625 0.129493 0 
0.53125 0.129286 0 
0.546875 0.128876 0 
0.5625 0.128261 0 
ZONE I=5
0.5 0.129496 0 
0.515625 0.129493 0 
0.53125 0.129286 0 
0.546875 0.128876 0 
0.5625 0.128261 0 
ZONE I=5
0.5625 0.128261 0 
0.578125 0.127454 0 
0.59375 0.126472 0 
0.609375 0.125315 0 
0.625 0.123983 0 
ZONE I=5
0.5625 0.128261 0 
0.578125 0.127454 0 
0.59375 0.126472 0 
0.609375 0.125315 0 
0.625 0.123983 0 
ZONE I=5
0.5625 0.128261 0 
0.578125 0.127454 0 
0.59375 0.126472 0 
0.609375 0.125315 0 
0.625 0.123983 0 
ZONE I=5
0.5625 0.128261 0 
0.578125 0.127454 0 
0.59375 0.126472 0 
0.609375 0.125315 0 
0.625 0.123983 0 
ZONE I=5
0.5625 0.128261 0 
0.578125 0.127454 0 
0.59375 0.126472 0 
0.609375 0.125315 0 
0.625 0.123983 0 
ZONE I=5
0.625 0.123983 0 
0.640625 0.122489 0 
0.65625 0.12085 0 
0.671875 0.119064 0 
0.6875 0.117132 0 
ZONE I=5
0.625 0.123983 0 
0.640625 0.122489 0 
0.65625 0.12085 0 
0.671875 0.119064 0 
0.6875 0.117132 0 
ZONE I=5
0.625 0.123983 0 
0.640625 0.122489 0 
0.65625 0.12085 0 
0.671875 0.119064 0 
0.6875 0.117132 0 
ZONE I=5
0.625 0.123983 0 
0.640625 0.122489 0 
0.65625 0.12085 0 
0.671875 0.119064 0 
0.6875 0.117132 0 
ZONE I=5
0.625 0.123983 0 
0.640625 0.122489 0 
0.65625 0.12085 0 
0.671875 0.119064 0 
0.6875 0.117132 0 
ZONE I=5
0.6875 0.117132 0 
0.703125 0.115069 0 
0.71875 0.112909 0 
0.734375 0.110652 0 
0.75 0.108298 0 
ZONE I=5
0.6875 0.117132 0 
0.703125 0.115069 0 
0.71875 0.112909 0 
0.734375 0.110652 0 
0.75 0.108298 0 
ZONE I=5
0.6875 0.117132 0 
0.703125 0.115069 0 
0.71875 0.112909 0 
0.734375 0.110652 0 
0.75 0.108298 0 
ZONE I=5
0.6875 0.117132 0 
0.703125 0.115069 0 
0.71875 0.112909 0 
0.734375 0.110652 0 
0.75 0.108298 0 
ZONE I=5
0.6875 0.117132 0 
0.703125 0.115069 0 
0.71875 0.112909 0 
0.734375 0.110652 0 
0.75 0.108298 0 
ZONE I=5
0.75 0.108298 0 
0.765625 0.105883 0 
0.78125 0.103461 0 
0.796875 0.101034 0 
0.8125 0.0986003 0 
ZONE I=5
0.75 0.108298 0 
0.765625 0.105883 0 
0.78125 0.103461 0 
0.796875 0.101034 0 
0.8125 0.0986003 0 
ZONE I=5
0.75 0.108298 0 
0.765625 0.105883 0 
0.78125 0.103461 0 
0.796875 0.101034 0 
0.8125 0.0986003 0 
ZONE I=5
0.75 0.108298 0 
0.765625 0.105883 0 
0.78125 0.103461 0 
0.796875 0.101034 0 
0.8125 0.0986003 0 
ZONE I=5
0.75 0.108298 0 
0.765625 0.105883 0 
0.78125 0.103461 0 
0.796875 0.101034 0 
0.8125 0.0986003 0 
ZONE I=5
0.8125 0.0986003 0 
0.828125 0.0962156 0 
0.84375 0.0939373 0 
0.859375 0.0917656 0 
0.875 0.0897005 0 
ZONE I=5
0.8125 0.0986003 0 
0.828125 0.0962156 0 
0.84375 0.0939373 0 
0.859375 0.0917656 0 
0.875 0.0897005 0 
ZONE I=5
0.8125 0.0986003 0 
0.828125 0.0962156 0 
0.84375 0.0939373 0 
0.859375 0.0917656 0 
0.875 0.0897005 0 
ZONE I=5
0.8125 0.0986003 0 
0.828125 0.0962156 0 
0.84375 0.0939373 0 
0.859375 0.0917656 0 
0.875 0.0897005 0 
ZONE I=5
0.8125 0.0986003 0 
0.828125 0.0962156 0 
0.84375 0.0939373 0 
0.859375 0.0917656 0 
0.875 0.0897005 0 
ZONE I=5
0.875 0.0897005 0 
0.890625 0.0877994 0 
0.90625 0.0861041 0 
0.921875 0.0846148 0 
0.9375 0.0833314 0 
ZONE I=5
0.875 0.0897005 0 
0.890625 0.0877994 0 
0.90625 0.0861041 0 
0.921875 0.0846148 0 
0.9375 0.0833314 0 
ZONE I=5
0.875 0.0897005 0 
0.890625 0.0877994 0 
0.90625 0.0861041 0 
0.921875 0.0846148 0 
0.9375 0.0833314 0 
ZONE I=5
0.875 0.0897005 0 
0.890625 0.0877994 0 
0.90625 0.0861041 0 
0.921875 0.0846148 0 
0.9375 0.0833314 0 
ZONE I=5
0.875 0.0897005 0 
0.890625 0.0877994 0 
0.90625 0.0861041 0 
0.921875 0.0846148 0 
0.9375 0.0833314 0 
ZONE I=5
0.9375 0.0833314 0 
0.953125 0.0822962 0 
0.96875 0.081525 0 
0.984375 0.0810178 0 
1 0.0807745 0 
ZONE I=5
0.9375 0.0833314 0 
0.953125 0.0822962 0 
0.96875 0.081525 0 
0.984375 0.0810178 0 
1 0.0807745 0 
ZONE I=5
0.9375 0.0833314 0 
0.953125 0.0822962 0 
0.96875 0.081525 0 
0.984375 0.0810178 0 
1 0.0807745 0 
ZONE I=5
0.9375 0.0833314 0 
0.953125 0.0822962 0 
0.96875 0.081525 0 
0.984375 0.0810178 0 
1 0.0807745 0 
ZONE I=5
0.9375 0.0833314 0 
0.953125 0.0822962 0 
0.96875 0.081525 0 
0.984375 0.0810178 0 
1 0.0807745 0 
</DataArray>
</PointData>
<Points>
<DataArray type="Float32" NumberOfComponents="3" format="ascii">
0 0 0
0.015625 0 0
0.03125 0 0
0.046875 0 0
0.0625 0 0
0.0625 0 0
0.078125 0 0
0.09375 0 0
0.109375 0 0
0.125 0 0
0.125 0 0
0.140625 0 0
0.15625 0 0
0.171875 0 0
0.1875 0 0
0.1875 0 0
0.203125 0 0
0.21875 0 0
0.234375 0 0
0.25 0 0
0.25 0 0
0.265625 0 0
0.28125 0 0
0.296875 0 0
0.3125 0 0
0.3125 0 0
0.328125 0 0
0.34375 0 0
0.359375 0 0
0.375 0 0
0.375 0 0
0.390625 0 0
0.40625 0 0
0.421875 0 0
0.4375 0 0
0.4375 0 0
0.453125 0 0
0.46875 0 0
0.484375 0 0
0.5 0 0
0.5 0 0
0.515625 0 0
0.53125 0 0
0.546875 0 0
0.5625 0 0
0.5625 0 0
0.578125 0 0
0.59375 0 0
0.609375 0 0
0.625 0 0
0.625 0 0
0.640625 0 0
0.65625 0 0
0.671875 0 0
0.6875 0 0
0.6875 0 0
0.703125 0 0
0.71875 0 0
0.734375 0 0
0.75 0 0
0.75 0 0
0.765625 0 0
0.78125 0 0
0.796875 0 0
0.8125 0 0
0.8125 0 0
0.828125 0 0
0.84375 0 0
0.859375 0 0
0.875 0 0
0.875 0 0
0.890625 0 0
0.90625 0 0
0.921875 0 0
0.9375 0 0
0.9375 0 0
0.953125 0 0
0.96875 0 0
0.984375 0 0
1 0 0
</DataArray>
</Points>
<Cells>
<DataArray type="Int32" Name="connectivity" format="ascii">
0 1
1 2
2 3
3 4
5 6
6 7
7 8
8 9
10 11
11 12
12 13
13 14
15 16
16 17
17 18
18 19
20 21
21 22
22 23
23 24
25 26
26 27
27 28
28 29
30 31
31 32
32 33
33 34
35 36
36 37
37 38
38 39
40 41
41 42
42 43
43 44
45 46
46 47
47 48
48 49
50 51
51 52
52 53
53 54
55 56
56 57
57 58
58 59
60 61
61 62
62 63
63 64
65 66
66 67
67 68
68 69
70 71
71 72
72 73
73 74
75 76
76 77
77 78
78 79
</DataArray>
<DataArray type="Int32" Name="offsets" format="ascii">
2
4
6
8
10
12
14
16
18
20
22
24
26
28
30
32
34
36
38
40
42
44
46
48
50
52
54
56
58
60
62
64
66
68
70
72
74
76
78
80
82
84
86
88
90
92
94
96
98
100
102
104
106
108
110
112
114
116
118
120
122
124
126
128
</DataArray>
<DataArray type="UInt8" Name="types">
3
3
3
3
3
3
3
3
3
3
3
3
3
3
3
3
3
3
3
3
3
3
3
3
3
3
3
3
3
3
3
3
3
3
3
3
3
3
3
3
3
3
3
3
3
3
3
3
3
3
3
3
3
3
3
3
3
3
3
3
3
3
3
3
</DataArray>
</Cells>
</Piece>
</UnstructuredGrid>
</VTKFile>