<?xml version="1.0"?>
<VTKFile type="UnstructuredGrid" version="0.1" byte_order="LittleEndian">
<UnstructuredGrid>
<Piece NumberOfPoints="80" NumberOfCells="64">
<PointData Scalars="V0">
<DataArray type="Float32" Name="V0" format="ascii">
ZONE I=5
0 0.101779 0 
0.015625 0.101766 0 
0.03125 0.101794 0 
0.046875 0.101862 0 
0.0625 0.101972 0 
ZONE I=5
0 0.101779 0 
0.015625 0.101766 0 
0.03125 0.101794 0 
0.046875 0.101862 0 
0.0625 0.101972 0 
ZONE I=5
0 0.101779 0 
0.015625 0.101766 0 
0.03125 0.101794 0 
0.046875 0.101862 0 
0.0625 0.101972 0 
ZONE I=5
0 0.101779 0 
0.015625 0.101766 0 
0.03125 0.101794 0 
0.046875 0.101862 0 
0.0625 0.101972 0 
ZONE I=5
0 0.101779 0 
0.015625 0.101766 0 
0.03125 0.101794 0 
0.046875 0.101862 0 
0.0625 0.101972 0 
ZONE I=5
0.0625 0.101972 0 
0.078125 0.102122 0 
0.09375 0.102308 0 
0.109375 0.102531 0 
0.125 0.102791 0 
ZONE I=5
0.0625 0.101972 0 
0.078125 0.102122 0 
0.09375 0.102308 0 
0.109375 0.102531 0 
0.125 0.102791 0 
ZONE I=5
0.0625 0.101972 0 
0.078125 0.102122 0 
0.09375 0.102308 0 
0.109375 0.102531 0 
0.125 0.102791 0 
ZONE I=5
0.0625 0.101972 0 
0.078125 0.102122 0 
0.09375 0.102308 0 
0.109375 0.102531 0 
0.125 0.102791 0 
ZONE I=5
0.0625 0.101972 0 
0.078125 0.102122 0 
0.09375 0.102308 0 
0.109375 0.102531 0 
0.125 0.102791 0 
ZONE I=5
0.125 0.102791 0 
0.140625 0.103083 0 
0.15625 0.103402 0 
0.171875 0.103747 0 
0.1875 0.104119 0 
ZONE I=5
0.125 0.102791 0 
0.140625 0.103083 0 
0.15625 0.103402 0 
0.171875 0.103747 0 
0.1875 0.104119 0 
ZONE I=5
0.125 0.102791 0 
0.140625 0.103083 0 
0.15625 0.103402 0 
0.171875 0.103747 0 
0.1875 0.104119 0 
ZONE I=5
0.125 0.102791 0 
0.140625 0.103083 0 
0.15625 0.103402 0 
0.171875 0.103747 0 
0.1875 0.104119 0 
ZONE I=5
0.125 0.102791 0 
0.140625 0.103083 0 
0.15625 0.103402 0 
0.171875 0.103747 0 
0.1875 0.104119 0 
ZONE I=5
0.1875 0.104119 0 
0.203125 0.104512 0 
0.21875 0.104916 0 
0.234375 0.105334 0 
0.25 0.105763 0 
ZONE I=5
0.1875 0.104119 0 
0.203125 0.104512 0 
0.21875 0.104916 0 
0.234375 0.105334 0 
0.25 0.105763 0 
ZONE I=5
0.1875 0.104119 0 
0.203125 0.104512 0 
0.21875 0.104916 0 
0.234375 0.105334 0 
0.25 0.105763 0 
ZONE I=5
0.1875 0.104119 0 
0.203125 0.104512 0 
0.21875 0.104916 0 
0.234375 0.105334 0 
0.25 0.105763 0 
ZONE I=5
0.1875 0.104119 0 
0.203125 0.104512 0 
0.21875 0.104916 0 
0.234375 0.105334 0 
0.25 0.105763 0 
ZONE I=5
0.25 0.105763 0 
0.265625 0.106197 0 
0.28125 0.106627 0 
0.296875 0.107052 0 
0.3125 0.107474 0 
ZONE I=5
0.25 0.105763 0 
0.265625 0.106197 0 
0.28125 0.106627 0 
0.296875 0.107052 0 
0.3125 0.107474 0 
ZONE I=5
0.25 0.105763 0 
0.265625 0.106197 0 
0.28125 0.106627 0 
0.296875 0.107052 0 
0.3125 0.107474 0 
ZONE I=5
0.25 0.105763 0 
0.265625 0.106197 0 
0.28125 0.106627 0 
0.296875 0.107052 0 
0.3125 0.107474 0 
ZONE I=5
0.25 0.105763 0 
0.265625 0.106197 0 
0.28125 0.106627 0 
0.296875 0.107052 0 
0.3125 0.107474 0 
ZONE I=5
0.3125 0.107474 0 
0.328125 0.107883 0 
0.34375 0.108271 0 
0.359375 0.108639 0 
0.375 0.108987 0 
ZONE I=5
0.3125 0.107474 0 
0.328125 0.107883 0 
0.34375 0.108271 0 
0.359375 0.108639 0 
0.375 0.108987 0 
ZONE I=5
0.3125 0.107474 0 
0.328125 0.107883 0 
0.34375 0.108271 0 
0.359375 0.108639 0 
0.375 0.108987 0 
ZONE I=5
0.3125 0.107474 0 
0.328125 0.107883 0 
0.34375 0.108271 0 
0.359375 0.108639 0 
0.375 0.108987 0 
ZONE I=5
0.3125 0.107474 0 
0.328125 0.107883 0 
0.34375 0.108271 0 
0.359375 0.108639 0 
0.375 0.108987 0 
ZONE I=5
0.375 0.108987 0 
0.390625 0.109307 0 
0.40625 0.109593 0 
0.421875 0.109846 0 
0.4375 0.110065 0 
ZONE I=5
0.375 0.108987 0 
0.390625 0.109307 0 
0.40625 0.109593 0 
0.421875 0.109846 0 
0.4375 0.110065 0 
ZONE I=5
0.375 0.108987 0 
0.390625 0.109307 0 
0.40625 0.109593 0 
0.421875 0.109846 0 
0.4375 0.110065 0 
ZONE I=5
0.375 0.108987 0 
0.390625 0.109307 0 
0.40625 0.109593 0 
0.421875 0.109846 0 
0.4375 0.110065 0 
ZONE I=5
0.375 0.108987 0 
0.390625 0.109307 0 
0.40625 0.109593 0 
0.421875 0.109846 0 
0.4375 0.110065 0 
ZONE I=5
0.4375 0.110065 0 
0.453125 0.110246 0 
0.46875 0.110385 0 
0.484375 0.110482 0 
0.5 0.110539 0 
ZONE I=5
0.4375 0.110065 0 
0.453125 0.110246 0 
0.46875 0.110385 0 
0.484375 0.110482 0 
0.5 0.110539 0 
ZONE I=5
0.4375 0.110065 0 
0.453125 0.110246 0 
0.46875 0.110385 0 
0.484375 0.110482 0 
0.5 0.110539 0 
ZONE I=5
0.4375 0.110065 0 
0.453125 0.110246 0 
0.46875 0.110385 0 
0.484375 0.110482 0 
0.5 0.110539 0 
ZONE I=5
0.4375 0.110065 0 
0.453125 0.110246 0 
0.46875 0.110385 0 
0.484375 0.110482 0 
0.5 0.110539 0 
ZONE I=5
0.5 0.110539 0 
0.515625 0.110551 0 
0.53125 0.110521 0 
0.546875 0.110449 0 
0.5625 0.110333 0 
ZONE I=5
0.5 0.110539 0 
0.515625 0.110551 0 
0.53125 0.110521 0 
0.546875 0.110449 0 
0.5625 0.110333 0 
ZONE I=5
0.5 0.110539 0 
0.515625 0.110551 0 
0.53125 0.110521 0 
0.546875 0.110449 0 
0.5625 0.110333 0 
ZONE I=5
0.5 0.110539 0 
0.515625 0.110551 0 
0.53125 0.110521 0 
0.546875 0.110449 0 
0.5625 0.110333 0 
ZONE I=5
0.5 0.110539 0 
0.515625 0.110551 0 
0.53125 0.110521 0 
0.546875 0.110449 0 
0.5625 0.110333 0 
ZONE I=5
0.5625 0.110333 0 
0.578125 0.110176 0 
0.59375 0.109982 0 
0.609375 0.10975 0 
0.625 0.109482 0 
ZONE I=5
0.5625 0.110333 0 
0.578125 0.110176 0 
0.59375 0.109982 0 
0.609375 0.10975 0 
0.625 0.109482 0 
ZONE I=5
0.5625 0.110333 0 
0.578125 0.110176 0 
0.59375 0.109982 0 
0.609375 0.10975 0 
0.625 0.109482 0 
ZONE I=5
0.5625 0.110333 0 
0.578125 0.110176 0 
0.59375 0.109982 0 
0.609375 0.10975 0 
0.625 0.109482 0 
ZONE I=5
0.5625 0.110333 0 
0.578125 0.110176 0 
0.59375 0.109982 0 
0.609375 0.10975 0 
0.625 0.109482 0 
ZONE I=5
0.625 0.109482 0 
0.640625 0.10918 0 
0.65625 0.108852 0 
0.671875 0.108499 0 
0.6875 0.108119 0 
ZONE I=5
0.625 0.109482 0 
0.640625 0.10918 0 
0.65625 0.108852 0 
0.671875 0.108499 0 
0.6875 0.108119 0 
ZONE I=5
0.625 0.109482 0 
0.640625 0.10918 0 
0.65625 0.108852 0 
0.671875 0.108499 0 
0.6875 0.108119 0 
ZONE I=5
0.625 0.109482 0 
0.640625 0.10918 0 
0.65625 0.108852 0 
0.671875 0.108499 0 
0.6875 0.108119 0 
ZONE I=5
0.625 0.109482 0 
0.640625 0.10918 0 
0.65625 0.108852 0 
0.671875 0.108499 0 
0.6875 0.108119 0 
ZONE I=5
0.6875 0.108119 0 
0.703125 0.107721 0 
0.71875 0.107311 0 
0.734375 0.106891 0 
0.75 0.106461 0 
ZONE I=5
0.6875 0.108119 0 
0.703125 0.107721 0 
0.71875 0.107311 0 
0.734375 0.106891 0 
0.75 0.106461 0 
ZONE I=5
0.6875 0.108119 0 
0.703125 0.107721 0 
0.71875 0.107311 0 
0.734375 0.106891 0 
0.75 0.106461 0 
ZONE I=5
0.6875 0.108119 0 
0.703125 0.107721 0 
0.71875 0.107311 0 
0.734375 0.106891 0 
0.75 0.106461 0 
ZONE I=5
0.6875 0.108119 0 
0.703125 0.107721 0 
0.71875 0.107311 0 
0.734375 0.106891 0 
0.75 0.106461 0 
ZONE I=5
0.75 0.106461 0 
0.765625 0.106028 0 
0.78125 0.1056 0 
0.796875 0.105179 0 
0.8125 0.104763 0 
ZONE I=5
0.75 0.106461 0 
0.765625 0.106028 0 
0.78125 0.1056 0 
0.796875 0.105179 0 
0.8125 0.104763 0 
ZONE I=5
0.75 0.106461 0 
0.765625 0.106028 0 
0.78125 0.1056 0 
0.796875 0.105179 0 
0.8125 0.104763 0 
ZONE I=5
0.75 0.106461 0 
0.765625 0.106028 0 
0.78125 0.1056 0 
0.796875 0.105179 0 
0.8125 0.104763 0 
ZONE I=5
0.75 0.106461 0 
0.765625 0.106028 0 
0.78125 0.1056 0 
0.796875 0.105179 0 
0.8125 0.104763 0 
ZONE I=5
0.8125 0.104763 0 
0.828125 0.104362 0 
0.84375 0.103981 0 
0.859375 0.103622 0 
0.875 0.103283 0 
ZONE I=5
0.8125 0.104763 0 
0.828125 0.104362 0 
0.84375 0.103981 0 
0.859375 0.103622 0 
0.875 0.103283 0 
ZONE I=5
0.8125 0.104763 0 
0.828125 0.104362 0 
0.84375 0.103981 0 
0.859375 0.103622 0 
0.875 0.103283 0 
ZONE I=5
0.8125 0.104763 0 
0.828125 0.104362 0 
0.84375 0.103981 0 
0.859375 0.103622 0 
0.875 0.103283 0 
ZONE I=5
0.8125 0.104763 0 
0.828125 0.104362 0 
0.84375 0.103981 0 
0.859375 0.103622 0 
0.875 0.103283 0 
ZONE I=5
0.875 0.103283 0 
0.890625 0.102973 0 
0.90625 0.102695 0 
0.921875 0.102451 0 
0.9375 0.102239 0 
ZONE I=5
0.875 0.103283 0 
0.890625 0.102973 0 
0.90625 0.102695 0 
0.921875 0.102451 0 
0.9375 0.102239 0 
ZONE I=5
0.875 0.103283 0 
0.890625 0.102973 0 
0.90625 0.102695 0 
0.921875 0.102451 0 
0.9375 0.102239 0 
ZONE I=5
0.875 0.103283 0 
0.890625 0.102973 0 
0.90625 0.102695 0 
0.921875 0.102451 0 
0.9375 0.102239 0 
ZONE I=5
0.875 0.103283 0 
0.890625 0.102973 0 
0.90625 0.102695 0 
0.921875 0.102451 0 
0.9375 0.102239 0 
ZONE I=5
0.9375 0.102239 0 
0.953125 0.102064 0 
0.96875 0.10193 0 
0.984375 0.101835 0 
1 0.101779 0 
ZONE I=5
0.9375 0.102239 0 
0.953125 0.102064 0 
0.96875 0.10193 0 
0.984375 0.101835 0 
1 0.101779 0 
ZONE I=5
0.9375 0.102239 0 
0.953125 0.102064 0 
0.96875 0.10193 0 
0.984375 0.101835 0 
1 0.101779 0 
ZONE I=5
0.9375 0.102239 0 
0.953125 0.102064 0 
0.96875 0.10193 0 
0.984375 0.101835 0 
1 0.101779 0 
ZONE I=5
0.9375 0.102239 0 
0.953125 0.102064 0 
0.96875 0.10193 0 
0.984375 0.101835 0 
1 0.101779 0 
</DataArray>
</PointData>
<Points>
<DataArray type="Float32" NumberOfComponents="3" format="ascii">
0 0 0
0.015625 0 0
0.03125 0 0
0.046875 0 0
0.0625 0 0
0.0625 0 0
0.078125 0 0
0.09375 0 0
0.109375 0 0
0.125 0 0
0.125 0 0
0.140625 0 0
0.15625 0 0
0.171875 0 0
0.1875 0 0
0.1875 0 0
0.203125 0 0
0.21875 0 0
0.234375 0 0
0.25 0 0
0.25 0 0
0.265625 0 0
0.28125 0 0
0.296875 0 0
0.3125 0 0
0.3125 0 0
0.328125 0 0
0.34375 0 0
0.359375 0 0
0.375 0 0
0.375 0 0
0.390625 0 0
0.40625 0 0
0.421875 0 0
0.4375 0 0
0.4375 0 0
0.453125 0 0
0.46875 0 0
0.484375 0 0
0.5 0 0
0.5 0 0
0.515625 0 0
0.53125 0 0
0.546875 0 0
0.5625 0 0
0.5625 0 0
0.578125 0 0
0.59375 0 0
0.609375 0 0
0.625 0 0
0.625 0 0
0.640625 0 0
0.65625 0 0
0.671875 0 0
0.6875 0 0
0.6875 0 0
0.703125 0 0
0.71875 0 0
0.734375 0 0
0.75 0 0
0.75 0 0
0.765625 0 0
0.78125 0 0
0.796875 0 0
0.8125 0 0
0.8125 0 0
0.828125 0 0
0.84375 0 0
0.859375 0 0
0.875 0 0
0.875 0 0
0.890625 0 0
0.90625 0 0
0.921875 0 0
0.9375 0 0
0.9375 0 0
0.953125 0 0
0.96875 0 0
0.984375 0 0
1 0 0
</DataArray>
</Points>
<Cells>
<DataArray type="Int32" Name="connectivity" format="ascii">
0 1
1 2
2 3
3 4
5 6
6 7
7 8
8 9
10 11
11 12
12 13
13 14
15 16
16 17
17 18
18 19
20 21
21 22
22 23
23 24
25 26
26 27
27 28
28 29
30 31
31 32
32 33
33 34
35 36
36 37
37 38
38 39
40 41
41 42
42 43
43 44
45 46
46 47
47 48
48 49
50 51
51 52
52 53
53 54
55 56
56 57
57 58
58 59
60 61
61 62
62 63
63 64
65 66
66 67
67 68
68 69
70 71
71 72
72 73
73 74
75 76
76 77
77 78
78 79
</DataArray>
<DataArray type="Int32" Name="offsets" format="ascii">
2
4
6
8
10
12
14
16
18
20
22
24
26
28
30
32
34
36
38
40
42
44
46
48
50
52
54
56
58
60
62
64
66
68
70
72
74
76
78
80
82
84
86
88
90
92
94
96
98
100
102
104
106
108
110
112
114
116
118
120
122
124
126
128
</DataArray>
<DataArray type="UInt8" Name="types">
3
3
3
3
3
3
3
3
3
3
3
3
3
3
3
3
3
3
3
3
3
3
3
3
3
3
3
3
3
3
3
3
3
3
3
3
3
3
3
3
3
3
3
3
3
3
3
3
3
3
3
3
3
3
3
3
3
3
3
3
3
3
3
3
</DataArray>
</Cells>
</Piece>
</UnstructuredGrid>
</VTKFile>