<?xml version="1.0"?>
<VTKFile type="UnstructuredGrid" version="0.1" byte_order="LittleEndian">
<UnstructuredGrid>
<Piece NumberOfPoints="80" NumberOfCells="64">
<PointData Scalars="V0">
<DataArray type="Float32" Name="V0" format="ascii">
ZONE I=5
0 0.0129729 0 
0.015625 0.0130937 0 
0.03125 0.0135586 0 
0.046875 0.0143676 0 
0.0625 0.0155207 0 
ZONE I=5
0 0.0129729 0 
0.015625 0.0130937 0 
0.03125 0.0135586 0 
0.046875 0.0143676 0 
0.0625 0.0155207 0 
ZONE I=5
0 0.0129729 0 
0.015625 0.0130937 0 
0.03125 0.0135586 0 
0.046875 0.0143676 0 
0.0625 0.0155207 0 
ZONE I=5
0 0.0129729 0 
0.015625 0.0130937 0 
0.03125 0.0135586 0 
0.046875 0.0143676 0 
0.0625 0.0155207 0 
ZONE I=5
0 0.0129729 0 
0.015625 0.0130937 0 
0.03125 0.0135586 0 
0.046875 0.0143676 0 
0.0625 0.0155207 0 
ZONE I=5
0.0625 0.0155207 0 
0.078125 0.0170411 0 
0.09375 0.0190124 0 
0.109375 0.0214347 0 
0.125 0.0243078 0 
ZONE I=5
0.0625 0.0155207 0 
0.078125 0.0170411 0 
0.09375 0.0190124 0 
0.109375 0.0214347 0 
0.125 0.0243078 0 
ZONE I=5
0.0625 0.0155207 0 
0.078125 0.0170411 0 
0.09375 0.0190124 0 
0.109375 0.0214347 0 
0.125 0.0243078 0 
ZONE I=5
0.0625 0.0155207 0 
0.078125 0.0170411 0 
0.09375 0.0190124 0 
0.109375 0.0214347 0 
0.125 0.0243078 0 
ZONE I=5
0.0625 0.0155207 0 
0.078125 0.0170411 0 
0.09375 0.0190124 0 
0.109375 0.0214347 0 
0.125 0.0243078 0 
ZONE I=5
0.125 0.0243078 0 
0.140625 0.0277126 0 
0.15625 0.0317907 0 
0.171875 0.0365422 0 
0.1875 0.041967 0 
ZONE I=5
0.125 0.0243078 0 
0.140625 0.0277126 0 
0.15625 0.0317907 0 
0.171875 0.0365422 0 
0.1875 0.041967 0 
ZONE I=5
0.125 0.0243078 0 
0.140625 0.0277126 0 
0.15625 0.0317907 0 
0.171875 0.0365422 0 
0.1875 0.041967 0 
ZONE I=5
0.125 0.0243078 0 
0.140625 0.0277126 0 
0.15625 0.0317907 0 
0.171875 0.0365422 0 
0.1875 0.041967 0 
ZONE I=5
0.125 0.0243078 0 
0.140625 0.0277126 0 
0.15625 0.0317907 0 
0.171875 0.0365422 0 
0.1875 0.041967 0 
ZONE I=5
0.1875 0.041967 0 
0.203125 0.0482091 0 
0.21875 0.05544 0 
0.234375 0.0636595 0 
0.25 0.0728677 0 
ZONE I=5
0.1875 0.041967 0 
0.203125 0.0482091 0 
0.21875 0.05544 0 
0.234375 0.0636595 0 
0.25 0.0728677 0 
ZONE I=5
0.1875 0.041967 0 
0.203125 0.0482091 0 
0.21875 0.05544 0 
0.234375 0.0636595 0 
0.25 0.0728677 0 
ZONE I=5
0.1875 0.041967 0 
0.203125 0.0482091 0 
0.21875 0.05544 0 
0.234375 0.0636595 0 
0.25 0.0728677 0 
ZONE I=5
0.1875 0.041967 0 
0.203125 0.0482091 0 
0.21875 0.05544 0 
0.234375 0.0636595 0 
0.25 0.0728677 0 
ZONE I=5
0.25 0.0728677 0 
0.265625 0.0832568 0 
0.28125 0.0948792 0 
0.296875 0.107735 0 
0.3125 0.121824 0 
ZONE I=5
0.25 0.0728677 0 
0.265625 0.0832568 0 
0.28125 0.0948792 0 
0.296875 0.107735 0 
0.3125 0.121824 0 
ZONE I=5
0.25 0.0728677 0 
0.265625 0.0832568 0 
0.28125 0.0948792 0 
0.296875 0.107735 0 
0.3125 0.121824 0 
ZONE I=5
0.25 0.0728677 0 
0.265625 0.0832568 0 
0.28125 0.0948792 0 
0.296875 0.107735 0 
0.3125 0.121824 0 
ZONE I=5
0.25 0.0728677 0 
0.265625 0.0832568 0 
0.28125 0.0948792 0 
0.296875 0.107735 0 
0.3125 0.121824 0 
ZONE I=5
0.3125 0.121824 0 
0.328125 0.137278 0 
0.34375 0.153506 0 
0.359375 0.170507 0 
0.375 0.188282 0 
ZONE I=5
0.3125 0.121824 0 
0.328125 0.137278 0 
0.34375 0.153506 0 
0.359375 0.170507 0 
0.375 0.188282 0 
ZONE I=5
0.3125 0.121824 0 
0.328125 0.137278 0 
0.34375 0.153506 0 
0.359375 0.170507 0 
0.375 0.188282 0 
ZONE I=5
0.3125 0.121824 0 
0.328125 0.137278 0 
0.34375 0.153506 0 
0.359375 0.170507 0 
0.375 0.188282 0 
ZONE I=5
0.3125 0.121824 0 
0.328125 0.137278 0 
0.34375 0.153506 0 
0.359375 0.170507 0 
0.375 0.188282 0 
ZONE I=5
0.375 0.188282 0 
0.390625 0.206411 0 
0.40625 0.222168 0 
0.421875 0.235553 0 
0.4375 0.246566 0 
ZONE I=5
0.375 0.188282 0 
0.390625 0.206411 0 
0.40625 0.222168 0 
0.421875 0.235553 0 
0.4375 0.246566 0 
ZONE I=5
0.375 0.188282 0 
0.390625 0.206411 0 
0.40625 0.222168 0 
0.421875 0.235553 0 
0.4375 0.246566 0 
ZONE I=5
0.375 0.188282 0 
0.390625 0.206411 0 
0.40625 0.222168 0 
0.421875 0.235553 0 
0.4375 0.246566 0 
ZONE I=5
0.375 0.188282 0 
0.390625 0.206411 0 
0.40625 0.222168 0 
0.421875 0.235553 0 
0.4375 0.246566 0 
ZONE I=5
0.4375 0.246566 0 
0.453125 0.249727 0 
0.46875 0.250484 0 
0.484375 0.248838 0 
0.5 0.244787 0 
ZONE I=5
0.4375 0.246566 0 
0.453125 0.249727 0 
0.46875 0.250484 0 
0.484375 0.248838 0 
0.5 0.244787 0 
ZONE I=5
0.4375 0.246566 0 
0.453125 0.249727 0 
0.46875 0.250484 0 
0.484375 0.248838 0 
0.5 0.244787 0 
ZONE I=5
0.4375 0.246566 0 
0.453125 0.249727 0 
0.46875 0.250484 0 
0.484375 0.248838 0 
0.5 0.244787 0 
ZONE I=5
0.4375 0.246566 0 
0.453125 0.249727 0 
0.46875 0.250484 0 
0.484375 0.248838 0 
0.5 0.244787 0 
ZONE I=5
0.5 0.244787 0 
0.515625 0.249831 0 
0.53125 0.25238 0 
0.546875 0.252433 0 
0.5625 0.249992 0 
ZONE I=5
0.5 0.244787 0 
0.515625 0.249831 0 
0.53125 0.25238 0 
0.546875 0.252433 0 
0.5625 0.249992 0 
ZONE I=5
0.5 0.244787 0 
0.515625 0.249831 0 
0.53125 0.25238 0 
0.546875 0.252433 0 
0.5625 0.249992 0 
ZONE I=5
0.5 0.244787 0 
0.515625 0.249831 0 
0.53125 0.25238 0 
0.546875 0.252433 0 
0.5625 0.249992 0 
ZONE I=5
0.5 0.244787 0 
0.515625 0.249831 0 
0.53125 0.25238 0 
0.546875 0.252433 0 
0.5625 0.249992 0 
ZONE I=5
0.5625 0.249992 0 
0.578125 0.239499 0 
0.59375 0.226467 0 
0.609375 0.210896 0 
0.625 0.192785 0 
ZONE I=5
0.5625 0.249992 0 
0.578125 0.239499 0 
0.59375 0.226467 0 
0.609375 0.210896 0 
0.625 0.192785 0 
ZONE I=5
0.5625 0.249992 0 
0.578125 0.239499 0 
0.59375 0.226467 0 
0.609375 0.210896 0 
0.625 0.192785 0 
ZONE I=5
0.5625 0.249992 0 
0.578125 0.239499 0 
0.59375 0.226467 0 
0.609375 0.210896 0 
0.625 0.192785 0 
ZONE I=5
0.5625 0.249992 0 
0.578125 0.239499 0 
0.59375 0.226467 0 
0.609375 0.210896 0 
0.625 0.192785 0 
ZONE I=5
0.625 0.192785 0 
0.640625 0.1749 0 
0.65625 0.157724 0 
0.671875 0.141259 0 
0.6875 0.125502 0 
ZONE I=5
0.625 0.192785 0 
0.640625 0.1749 0 
0.65625 0.157724 0 
0.671875 0.141259 0 
0.6875 0.125502 0 
ZONE I=5
0.625 0.192785 0 
0.640625 0.1749 0 
0.65625 0.157724 0 
0.671875 0.141259 0 
0.6875 0.125502 0 
ZONE I=5
0.625 0.192785 0 
0.640625 0.1749 0 
0.65625 0.157724 0 
0.671875 0.141259 0 
0.6875 0.125502 0 
ZONE I=5
0.625 0.192785 0 
0.640625 0.1749 0 
0.65625 0.157724 0 
0.671875 0.141259 0 
0.6875 0.125502 0 
ZONE I=5
0.6875 0.125502 0 
0.703125 0.111097 0 
0.71875 0.0979286 0 
0.734375 0.0859975 0 
0.75 0.0753035 0 
ZONE I=5
0.6875 0.125502 0 
0.703125 0.111097 0 
0.71875 0.0979286 0 
0.734375 0.0859975 0 
0.75 0.0753035 0 
ZONE I=5
0.6875 0.125502 0 
0.703125 0.111097 0 
0.71875 0.0979286 0 
0.734375 0.0859975 0 
0.75 0.0753035 0 
ZONE I=5
0.6875 0.125502 0 
0.703125 0.111097 0 
0.71875 0.0979286 0 
0.734375 0.0859975 0 
0.75 0.0753035 0 
ZONE I=5
0.6875 0.125502 0 
0.703125 0.111097 0 
0.71875 0.0979286 0 
0.734375 0.0859975 0 
0.75 0.0753035 0 
ZONE I=5
0.75 0.0753035 0 
0.765625 0.0658122 0 
0.78125 0.057331 0 
0.796875 0.0498599 0 
0.8125 0.0433989 0 
ZONE I=5
0.75 0.0753035 0 
0.765625 0.0658122 0 
0.78125 0.057331 0 
0.796875 0.0498599 0 
0.8125 0.0433989 0 
ZONE I=5
0.75 0.0753035 0 
0.765625 0.0658122 0 
0.78125 0.057331 0 
0.796875 0.0498599 0 
0.8125 0.0433989 0 
ZONE I=5
0.75 0.0753035 0 
0.765625 0.0658122 0 
0.78125 0.057331 0 
0.796875 0.0498599 0 
0.8125 0.0433989 0 
ZONE I=5
0.75 0.0753035 0 
0.765625 0.0658122 0 
0.78125 0.057331 0 
0.796875 0.0498599 0 
0.8125 0.0433989 0 
ZONE I=5
0.8125 0.0433989 0 
0.828125 0.0377781 0 
0.84375 0.0328491 0 
0.859375 0.0286119 0 
0.875 0.0250666 0 
ZONE I=5
0.8125 0.0433989 0 
0.828125 0.0377781 0 
0.84375 0.0328491 0 
0.859375 0.0286119 0 
0.875 0.0250666 0 
ZONE I=5
0.8125 0.0433989 0 
0.828125 0.0377781 0 
0.84375 0.0328491 0 
0.859375 0.0286119 0 
0.875 0.0250666 0 
ZONE I=5
0.8125 0.0433989 0 
0.828125 0.0377781 0 
0.84375 0.0328491 0 
0.859375 0.0286119 0 
0.875 0.0250666 0 
ZONE I=5
0.8125 0.0433989 0 
0.828125 0.0377781 0 
0.84375 0.0328491 0 
0.859375 0.0286119 0 
0.875 0.0250666 0 
ZONE I=5
0.875 0.0250666 0 
0.890625 0.0220679 0 
0.90625 0.019531 0 
0.921875 0.017456 0 
0.9375 0.0158428 0 
ZONE I=5
0.875 0.0250666 0 
0.890625 0.0220679 0 
0.90625 0.019531 0 
0.921875 0.017456 0 
0.9375 0.0158428 0 
ZONE I=5
0.875 0.0250666 0 
0.890625 0.0220679 0 
0.90625 0.019531 0 
0.921875 0.017456 0 
0.9375 0.0158428 0 
ZONE I=5
0.875 0.0250666 0 
0.890625 0.0220679 0 
0.90625 0.019531 0 
0.921875 0.017456 0 
0.9375 0.0158428 0 
ZONE I=5
0.875 0.0250666 0 
0.890625 0.0220679 0 
0.90625 0.019531 0 
0.921875 0.017456 0 
0.9375 0.0158428 0 
ZONE I=5
0.9375 0.0158428 0 
0.953125 0.0146039 0 
0.96875 0.0137127 0 
0.984375 0.013169 0 
1 0.0129729 0 
ZONE I=5
0.9375 0.0158428 0 
0.953125 0.0146039 0 
0.96875 0.0137127 0 
0.984375 0.013169 0 
1 0.0129729 0 
ZONE I=5
0.9375 0.0158428 0 
0.953125 0.0146039 0 
0.96875 0.0137127 0 
0.984375 0.013169 0 
1 0.0129729 0 
ZONE I=5
0.9375 0.0158428 0 
0.953125 0.0146039 0 
0.96875 0.0137127 0 
0.984375 0.013169 0 
1 0.0129729 0 
ZONE I=5
0.9375 0.0158428 0 
0.953125 0.0146039 0 
0.96875 0.0137127 0 
0.984375 0.013169 0 
1 0.0129729 0 
</DataArray>
</PointData>
<Points>
<DataArray type="Float32" NumberOfComponents="3" format="ascii">
0 0 0
0.015625 0 0
0.03125 0 0
0.046875 0 0
0.0625 0 0
0.0625 0 0
0.078125 0 0
0.09375 0 0
0.109375 0 0
0.125 0 0
0.125 0 0
0.140625 0 0
0.15625 0 0
0.171875 0 0
0.1875 0 0
0.1875 0 0
0.203125 0 0
0.21875 0 0
0.234375 0 0
0.25 0 0
0.25 0 0
0.265625 0 0
0.28125 0 0
0.296875 0 0
0.3125 0 0
0.3125 0 0
0.328125 0 0
0.34375 0 0
0.359375 0 0
0.375 0 0
0.375 0 0
0.390625 0 0
0.40625 0 0
0.421875 0 0
0.4375 0 0
0.4375 0 0
0.453125 0 0
0.46875 0 0
0.484375 0 0
0.5 0 0
0.5 0 0
0.515625 0 0
0.53125 0 0
0.546875 0 0
0.5625 0 0
0.5625 0 0
0.578125 0 0
0.59375 0 0
0.609375 0 0
0.625 0 0
0.625 0 0
0.640625 0 0
0.65625 0 0
0.671875 0 0
0.6875 0 0
0.6875 0 0
0.703125 0 0
0.71875 0 0
0.734375 0 0
0.75 0 0
0.75 0 0
0.765625 0 0
0.78125 0 0
0.796875 0 0
0.8125 0 0
0.8125 0 0
0.828125 0 0
0.84375 0 0
0.859375 0 0
0.875 0 0
0.875 0 0
0.890625 0 0
0.90625 0 0
0.921875 0 0
0.9375 0 0
0.9375 0 0
0.953125 0 0
0.96875 0 0
0.984375 0 0
1 0 0
</DataArray>
</Points>
<Cells>
<DataArray type="Int32" Name="connectivity" format="ascii">
0 1
1 2
2 3
3 4
5 6
6 7
7 8
8 9
10 11
11 12
12 13
13 14
15 16
16 17
17 18
18 19
20 21
21 22
22 23
23 24
25 26
26 27
27 28
28 29
30 31
31 32
32 33
33 34
35 36
36 37
37 38
38 39
40 41
41 42
42 43
43 44
45 46
46 47
47 48
48 49
50 51
51 52
52 53
53 54
55 56
56 57
57 58
58 59
60 61
61 62
62 63
63 64
65 66
66 67
67 68
68 69
70 71
71 72
72 73
73 74
75 76
76 77
77 78
78 79
</DataArray>
<DataArray type="Int32" Name="offsets" format="ascii">
2
4
6
8
10
12
14
16
18
20
22
24
26
28
30
32
34
36
38
40
42
44
46
48
50
52
54
56
58
60
62
64
66
68
70
72
74
76
78
80
82
84
86
88
90
92
94
96
98
100
102
104
106
108
110
112
114
116
118
120
122
124
126
128
</DataArray>
<DataArray type="UInt8" Name="types">
3
3
3
3
3
3
3
3
3
3
3
3
3
3
3
3
3
3
3
3
3
3
3
3
3
3
3
3
3
3
3
3
3
3
3
3
3
3
3
3
3
3
3
3
3
3
3
3
3
3
3
3
3
3
3
3
3
3
3
3
3
3
3
3
</DataArray>
</Cells>
</Piece>
</UnstructuredGrid>
</VTKFile>