<?xml version="1.0"?>
<VTKFile type="UnstructuredGrid" version="0.1" byte_order="LittleEndian">
<UnstructuredGrid>
<Piece NumberOfPoints="80" NumberOfCells="64">
<PointData Scalars="V0">
<DataArray type="Float32" Name="V0" format="ascii">
ZONE I=5
0 0.0957141 0 
0.015625 0.0957031 0 
0.03125 0.0957937 0 
0.046875 0.0959859 0 
0.0625 0.0962795 0 
ZONE I=5
0 0.0957141 0 
0.015625 0.0957031 0 
0.03125 0.0957937 0 
0.046875 0.0959859 0 
0.0625 0.0962795 0 
ZONE I=5
0 0.0957141 0 
0.015625 0.0957031 0 
0.03125 0.0957937 0 
0.046875 0.0959859 0 
0.0625 0.0962795 0 
ZONE I=5
0 0.0957141 0 
0.015625 0.0957031 0 
0.03125 0.0957937 0 
0.046875 0.0959859 0 
0.0625 0.0962795 0 
ZONE I=5
0 0.0957141 0 
0.015625 0.0957031 0 
0.03125 0.0957937 0 
0.046875 0.0959859 0 
0.0625 0.0962795 0 
ZONE I=5
0.0625 0.0962795 0 
0.078125 0.0966714 0 
0.09375 0.09715 0 
0.109375 0.0977152 0 
0.125 0.0983669 0 
ZONE I=5
0.0625 0.0962795 0 
0.078125 0.0966714 0 
0.09375 0.09715 0 
0.109375 0.0977152 0 
0.125 0.0983669 0 
ZONE I=5
0.0625 0.0962795 0 
0.078125 0.0966714 0 
0.09375 0.09715 0 
0.109375 0.0977152 0 
0.125 0.0983669 0 
ZONE I=5
0.0625 0.0962795 0 
0.078125 0.0966714 0 
0.09375 0.09715 0 
0.109375 0.0977152 0 
0.125 0.0983669 0 
ZONE I=5
0.0625 0.0962795 0 
0.078125 0.0966714 0 
0.09375 0.09715 0 
0.109375 0.0977152 0 
0.125 0.0983669 0 
ZONE I=5
0.125 0.0983669 0 
0.140625 0.0990939 0 
0.15625 0.0998793 0 
0.171875 0.100723 0 
0.1875 0.101625 0 
ZONE I=5
0.125 0.0983669 0 
0.140625 0.0990939 0 
0.15625 0.0998793 0 
0.171875 0.100723 0 
0.1875 0.101625 0 
ZONE I=5
0.125 0.0983669 0 
0.140625 0.0990939 0 
0.15625 0.0998793 0 
0.171875 0.100723 0 
0.1875 0.101625 0 
ZONE I=5
0.125 0.0983669 0 
0.140625 0.0990939 0 
0.15625 0.0998793 0 
0.171875 0.100723 0 
0.1875 0.101625 0 
ZONE I=5
0.125 0.0983669 0 
0.140625 0.0990939 0 
0.15625 0.0998793 0 
0.171875 0.100723 0 
0.1875 0.101625 0 
ZONE I=5
0.1875 0.101625 0 
0.203125 0.102569 0 
0.21875 0.103536 0 
0.234375 0.104527 0 
0.25 0.10554 0 
ZONE I=5
0.1875 0.101625 0 
0.203125 0.102569 0 
0.21875 0.103536 0 
0.234375 0.104527 0 
0.25 0.10554 0 
ZONE I=5
0.1875 0.101625 0 
0.203125 0.102569 0 
0.21875 0.103536 0 
0.234375 0.104527 0 
0.25 0.10554 0 
ZONE I=5
0.1875 0.101625 0 
0.203125 0.102569 0 
0.21875 0.103536 0 
0.234375 0.104527 0 
0.25 0.10554 0 
ZONE I=5
0.1875 0.101625 0 
0.203125 0.102569 0 
0.21875 0.103536 0 
0.234375 0.104527 0 
0.25 0.10554 0 
ZONE I=5
0.25 0.10554 0 
0.265625 0.106558 0 
0.28125 0.107562 0 
0.296875 0.108552 0 
0.3125 0.109528 0 
ZONE I=5
0.25 0.10554 0 
0.265625 0.106558 0 
0.28125 0.107562 0 
0.296875 0.108552 0 
0.3125 0.109528 0 
ZONE I=5
0.25 0.10554 0 
0.265625 0.106558 0 
0.28125 0.107562 0 
0.296875 0.108552 0 
0.3125 0.109528 0 
ZONE I=5
0.25 0.10554 0 
0.265625 0.106558 0 
0.28125 0.107562 0 
0.296875 0.108552 0 
0.3125 0.109528 0 
ZONE I=5
0.25 0.10554 0 
0.265625 0.106558 0 
0.28125 0.107562 0 
0.296875 0.108552 0 
0.3125 0.109528 0 
ZONE I=5
0.3125 0.109528 0 
0.328125 0.110472 0 
0.34375 0.111365 0 
0.359375 0.11221 0 
0.375 0.113005 0 
ZONE I=5
0.3125 0.109528 0 
0.328125 0.110472 0 
0.34375 0.111365 0 
0.359375 0.11221 0 
0.375 0.113005 0 
ZONE I=5
0.3125 0.109528 0 
0.328125 0.110472 0 
0.34375 0.111365 0 
0.359375 0.11221 0 
0.375 0.113005 0 
ZONE I=5
0.3125 0.109528 0 
0.328125 0.110472 0 
0.34375 0.111365 0 
0.359375 0.11221 0 
0.375 0.113005 0 
ZONE I=5
0.3125 0.109528 0 
0.328125 0.110472 0 
0.34375 0.111365 0 
0.359375 0.11221 0 
0.375 0.113005 0 
ZONE I=5
0.375 0.113005 0 
0.390625 0.113733 0 
0.40625 0.114383 0 
0.421875 0.114954 0 
0.4375 0.115446 0 
ZONE I=5
0.375 0.113005 0 
0.390625 0.113733 0 
0.40625 0.114383 0 
0.421875 0.114954 0 
0.4375 0.115446 0 
ZONE I=5
0.375 0.113005 0 
0.390625 0.113733 0 
0.40625 0.114383 0 
0.421875 0.114954 0 
0.4375 0.115446 0 
ZONE I=5
0.375 0.113005 0 
0.390625 0.113733 0 
0.40625 0.114383 0 
0.421875 0.114954 0 
0.4375 0.115446 0 
ZONE I=5
0.375 0.113005 0 
0.390625 0.113733 0 
0.40625 0.114383 0 
0.421875 0.114954 0 
0.4375 0.115446 0 
ZONE I=5
0.4375 0.115446 0 
0.453125 0.115847 0 
0.46875 0.116152 0 
0.484375 0.116361 0 
0.5 0.116474 0 
ZONE I=5
0.4375 0.115446 0 
0.453125 0.115847 0 
0.46875 0.116152 0 
0.484375 0.116361 0 
0.5 0.116474 0 
ZONE I=5
0.4375 0.115446 0 
0.453125 0.115847 0 
0.46875 0.116152 0 
0.484375 0.116361 0 
0.5 0.116474 0 
ZONE I=5
0.4375 0.115446 0 
0.453125 0.115847 0 
0.46875 0.116152 0 
0.484375 0.116361 0 
0.5 0.116474 0 
ZONE I=5
0.4375 0.115446 0 
0.453125 0.115847 0 
0.46875 0.116152 0 
0.484375 0.116361 0 
0.5 0.116474 0 
ZONE I=5
0.5 0.116474 0 
0.515625 0.116486 0 
0.53125 0.116399 0 
0.546875 0.116213 0 
0.5625 0.11593 0 
ZONE I=5
0.5 0.116474 0 
0.515625 0.116486 0 
0.53125 0.116399 0 
0.546875 0.116213 0 
0.5625 0.11593 0 
ZONE I=5
0.5 0.116474 0 
0.515625 0.116486 0 
0.53125 0.116399 0 
0.546875 0.116213 0 
0.5625 0.11593 0 
ZONE I=5
0.5 0.116474 0 
0.515625 0.116486 0 
0.53125 0.116399 0 
0.546875 0.116213 0 
0.5625 0.11593 0 
ZONE I=5
0.5 0.116474 0 
0.515625 0.116486 0 
0.53125 0.116399 0 
0.546875 0.116213 0 
0.5625 0.11593 0 
ZONE I=5
0.5625 0.11593 0 
0.578125 0.11555 0 
0.59375 0.115085 0 
0.609375 0.114535 0 
0.625 0.113899 0 
ZONE I=5
0.5625 0.11593 0 
0.578125 0.11555 0 
0.59375 0.115085 0 
0.609375 0.114535 0 
0.625 0.113899 0 
ZONE I=5
0.5625 0.11593 0 
0.578125 0.11555 0 
0.59375 0.115085 0 
0.609375 0.114535 0 
0.625 0.113899 0 
ZONE I=5
0.5625 0.11593 0 
0.578125 0.11555 0 
0.59375 0.115085 0 
0.609375 0.114535 0 
0.625 0.113899 0 
ZONE I=5
0.5625 0.11593 0 
0.578125 0.11555 0 
0.59375 0.115085 0 
0.609375 0.114535 0 
0.625 0.113899 0 
ZONE I=5
0.625 0.113899 0 
0.640625 0.113188 0 
0.65625 0.112418 0 
0.671875 0.111588 0 
0.6875 0.110699 0 
ZONE I=5
0.625 0.113899 0 
0.640625 0.113188 0 
0.65625 0.112418 0 
0.671875 0.111588 0 
0.6875 0.110699 0 
ZONE I=5
0.625 0.113899 0 
0.640625 0.113188 0 
0.65625 0.112418 0 
0.671875 0.111588 0 
0.6875 0.110699 0 
ZONE I=5
0.625 0.113899 0 
0.640625 0.113188 0 
0.65625 0.112418 0 
0.671875 0.111588 0 
0.6875 0.110699 0 
ZONE I=5
0.625 0.113899 0 
0.640625 0.113188 0 
0.65625 0.112418 0 
0.671875 0.111588 0 
0.6875 0.110699 0 
ZONE I=5
0.6875 0.110699 0 
0.703125 0.109766 0 
0.71875 0.108807 0 
0.734375 0.107822 0 
0.75 0.106812 0 
ZONE I=5
0.6875 0.110699 0 
0.703125 0.109766 0 
0.71875 0.108807 0 
0.734375 0.107822 0 
0.75 0.106812 0 
ZONE I=5
0.6875 0.110699 0 
0.703125 0.109766 0 
0.71875 0.108807 0 
0.734375 0.107822 0 
0.75 0.106812 0 
ZONE I=5
0.6875 0.110699 0 
0.703125 0.109766 0 
0.71875 0.108807 0 
0.734375 0.107822 0 
0.75 0.106812 0 
ZONE I=5
0.6875 0.110699 0 
0.703125 0.109766 0 
0.71875 0.108807 0 
0.734375 0.107822 0 
0.75 0.106812 0 
ZONE I=5
0.75 0.106812 0 
0.765625 0.105794 0 
0.78125 0.104786 0 
0.796875 0.10379 0 
0.8125 0.102805 0 
ZONE I=5
0.75 0.106812 0 
0.765625 0.105794 0 
0.78125 0.104786 0 
0.796875 0.10379 0 
0.8125 0.102805 0 
ZONE I=5
0.75 0.106812 0 
0.765625 0.105794 0 
0.78125 0.104786 0 
0.796875 0.10379 0 
0.8125 0.102805 0 
ZONE I=5
0.75 0.106812 0 
0.765625 0.105794 0 
0.78125 0.104786 0 
0.796875 0.10379 0 
0.8125 0.102805 0 
ZONE I=5
0.75 0.106812 0 
0.765625 0.105794 0 
0.78125 0.104786 0 
0.796875 0.10379 0 
0.8125 0.102805 0 
ZONE I=5
0.8125 0.102805 0 
0.828125 0.101851 0 
0.84375 0.100944 0 
0.859375 0.100085 0 
0.875 0.0992742 0 
ZONE I=5
0.8125 0.102805 0 
0.828125 0.101851 0 
0.84375 0.100944 0 
0.859375 0.100085 0 
0.875 0.0992742 0 
ZONE I=5
0.8125 0.102805 0 
0.828125 0.101851 0 
0.84375 0.100944 0 
0.859375 0.100085 0 
0.875 0.0992742 0 
ZONE I=5
0.8125 0.102805 0 
0.828125 0.101851 0 
0.84375 0.100944 0 
0.859375 0.100085 0 
0.875 0.0992742 0 
ZONE I=5
0.8125 0.102805 0 
0.828125 0.101851 0 
0.84375 0.100944 0 
0.859375 0.100085 0 
0.875 0.0992742 0 
ZONE I=5
0.875 0.0992742 0 
0.890625 0.0985294 0 
0.90625 0.0978641 0 
0.921875 0.0972784 0 
0.9375 0.0967721 0 
ZONE I=5
0.875 0.0992742 0 
0.890625 0.0985294 0 
0.90625 0.0978641 0 
0.921875 0.0972784 0 
0.9375 0.0967721 0 
ZONE I=5
0.875 0.0992742 0 
0.890625 0.0985294 0 
0.90625 0.0978641 0 
0.921875 0.0972784 0 
0.9375 0.0967721 0 
ZONE I=5
0.875 0.0992742 0 
0.890625 0.0985294 0 
0.90625 0.0978641 0 
0.921875 0.0972784 0 
0.9375 0.0967721 0 
ZONE I=5
0.875 0.0992742 0 
0.890625 0.0985294 0 
0.90625 0.0978641 0 
0.921875 0.0972784 0 
0.9375 0.0967721 0 
ZONE I=5
0.9375 0.0967721 0 
0.953125 0.0963591 0 
0.96875 0.0960451 0 
0.984375 0.0958301 0 
1 0.0957141 0 
ZONE I=5
0.9375 0.0967721 0 
0.953125 0.0963591 0 
0.96875 0.0960451 0 
0.984375 0.0958301 0 
1 0.0957141 0 
ZONE I=5
0.9375 0.0967721 0 
0.953125 0.0963591 0 
0.96875 0.0960451 0 
0.984375 0.0958301 0 
1 0.0957141 0 
ZONE I=5
0.9375 0.0967721 0 
0.953125 0.0963591 0 
0.96875 0.0960451 0 
0.984375 0.0958301 0 
1 0.0957141 0 
ZONE I=5
0.9375 0.0967721 0 
0.953125 0.0963591 0 
0.96875 0.0960451 0 
0.984375 0.0958301 0 
1 0.0957141 0 
</DataArray>
</PointData>
<Points>
<DataArray type="Float32" NumberOfComponents="3" format="ascii">
0 0 0
0.015625 0 0
0.03125 0 0
0.046875 0 0
0.0625 0 0
0.0625 0 0
0.078125 0 0
0.09375 0 0
0.109375 0 0
0.125 0 0
0.125 0 0
0.140625 0 0
0.15625 0 0
0.171875 0 0
0.1875 0 0
0.1875 0 0
0.203125 0 0
0.21875 0 0
0.234375 0 0
0.25 0 0
0.25 0 0
0.265625 0 0
0.28125 0 0
0.296875 0 0
0.3125 0 0
0.3125 0 0
0.328125 0 0
0.34375 0 0
0.359375 0 0
0.375 0 0
0.375 0 0
0.390625 0 0
0.40625 0 0
0.421875 0 0
0.4375 0 0
0.4375 0 0
0.453125 0 0
0.46875 0 0
0.484375 0 0
0.5 0 0
0.5 0 0
0.515625 0 0
0.53125 0 0
0.546875 0 0
0.5625 0 0
0.5625 0 0
0.578125 0 0
0.59375 0 0
0.609375 0 0
0.625 0 0
0.625 0 0
0.640625 0 0
0.65625 0 0
0.671875 0 0
0.6875 0 0
0.6875 0 0
0.703125 0 0
0.71875 0 0
0.734375 0 0
0.75 0 0
0.75 0 0
0.765625 0 0
0.78125 0 0
0.796875 0 0
0.8125 0 0
0.8125 0 0
0.828125 0 0
0.84375 0 0
0.859375 0 0
0.875 0 0
0.875 0 0
0.890625 0 0
0.90625 0 0
0.921875 0 0
0.9375 0 0
0.9375 0 0
0.953125 0 0
0.96875 0 0
0.984375 0 0
1 0 0
</DataArray>
</Points>
<Cells>
<DataArray type="Int32" Name="connectivity" format="ascii">
0 1
1 2
2 3
3 4
5 6
6 7
7 8
8 9
10 11
11 12
12 13
13 14
15 16
16 17
17 18
18 19
20 21
21 22
22 23
23 24
25 26
26 27
27 28
28 29
30 31
31 32
32 33
33 34
35 36
36 37
37 38
38 39
40 41
41 42
42 43
43 44
45 46
46 47
47 48
48 49
50 51
51 52
52 53
53 54
55 56
56 57
57 58
58 59
60 61
61 62
62 63
63 64
65 66
66 67
67 68
68 69
70 71
71 72
72 73
73 74
75 76
76 77
77 78
78 79
</DataArray>
<DataArray type="Int32" Name="offsets" format="ascii">
2
4
6
8
10
12
14
16
18
20
22
24
26
28
30
32
34
36
38
40
42
44
46
48
50
52
54
56
58
60
62
64
66
68
70
72
74
76
78
80
82
84
86
88
90
92
94
96
98
100
102
104
106
108
110
112
114
116
118
120
122
124
126
128
</DataArray>
<DataArray type="UInt8" Name="types">
3
3
3
3
3
3
3
3
3
3
3
3
3
3
3
3
3
3
3
3
3
3
3
3
3
3
3
3
3
3
3
3
3
3
3
3
3
3
3
3
3
3
3
3
3
3
3
3
3
3
3
3
3
3
3
3
3
3
3
3
3
3
3
3
</DataArray>
</Cells>
</Piece>
</UnstructuredGrid>
</VTKFile>