<?xml version="1.0"?>
<VTKFile type="UnstructuredGrid" version="0.1" byte_order="LittleEndian">
<UnstructuredGrid>
<Piece NumberOfPoints="5000" NumberOfCells="4000">
<PointData Scalars="Reaction 0">
<DataArray type="Float32" Name="Reaction 0" format="ascii">
0.973108
0.973108
0.973108
0.973108
0.973108
0.973108
0.973108
0.973108
0.973108
0.973108
0.973108
0.973108
0.973108
0.973108
0.973108
0.973108
0.973108
0.973108
0.973108
0.973108
0.973108
0.973108
0.973108
0.973108
0.973108
0.973108
0.973108
0.973109
0.973109
0.973109
0.973109
0.973109
0.973109
0.973109
0.973109
0.973109
0.973109
0.973109
0.973109
0.973109
0.973109
0.973109
0.973109
0.973109
0.973109
0.973109
0.973109
0.973109
0.973109
0.973109
0.973109
0.973109
0.973109
0.973109
0.973109
0.973109
0.97311
0.97311
0.97311
0.97311
0.97311
0.97311
0.97311
0.97311
0.97311
0.97311
0.97311
0.97311
0.97311
0.97311
0.97311
0.97311
0.97311
0.97311
0.973111
0.973111
0.973111
0.973111
0.973111
0.973111
0.973111
0.973111
0.973111
0.973111
0.973111
0.973111
0.973111
0.973111
0.973111
0.973112
0.973112
0.973112
0.973112
0.973112
0.973112
0.973112
0.973112
0.973112
0.973112
0.973112
0.973112
0.973112
0.973113
0.973113
0.973113
0.973113
0.973113
0.973113
0.973113
0.973113
0.973113
0.973113
0.973113
0.973114
0.973114
0.973114
0.973114
0.973114
0.973114
0.973114
0.973114
0.973114
0.973114
0.973115
0.973115
0.973115
0.973115
0.973115
0.973115
0.973115
0.973115
0.973115
0.973116
0.973116
0.973116
0.973116
0.973116
0.973116
0.973116
0.973116
0.973116
0.973117
0.973117
0.973117
0.973117
0.973117
0.973117
0.973117
0.973117
0.973118
0.973118
0.973118
0.973118
0.973118
0.973118
0.973118
0.973118
0.973119
0.973119
0.973119
0.973119
0.973119
0.973119
0.973119
0.97312
0.97312
0.97312
0.97312
0.97312
0.97312
0.97312
0.97312
0.973121
0.973121
0.973121
0.973121
0.973121
0.973121
0.973122
0.973122
0.973122
0.973122
0.973122
0.973122
0.973123
0.973123
0.973123
0.973123
0.973123
0.973123
0.973123
0.973124
0.973124
0.973124
0.973124
0.973124
0.973124
0.973125
0.973125
0.973125
0.973125
0.973125
0.973125
0.973126
0.973126
0.973126
0.973126
0.973126
0.973126
0.973127
0.973127
0.973127
0.973127
0.973127
0.973128
0.973128
0.973128
0.973128
0.973128
0.973128
0.973128
0.973129
0.973129
0.973129
0.973129
0.973129
0.97313
0.97313
0.97313
0.97313
0.97313
0.973131
0.973131
0.973131
0.973131
0.973131
0.973132
0.973132
0.973132
0.973132
0.973132
0.973133
0.973133
0.973133
0.973133
0.973133
0.973134
0.973134
0.973134
0.973134
0.973134
0.973135
0.973135
0.973135
0.973135
0.973135
0.973136
0.973136
0.973136
0.973137
0.973137
0.973137
0.973137
0.973137
0.973138
0.973138
0.973138
0.973138
0.973138
0.973139
0.973139
0.973139
0.973139
0.97314
0.97314
0.97314
0.97314
0.97314
0.973141
0.973141
0.973141
0.973141
0.973142
0.973142
0.973142
0.973142
0.973143
0.973143
0.973143
0.973143
0.973143
0.973144
0.973144
0.973144
0.973145
0.973145
0.973145
0.973145
0.973146
0.973146
0.973146
0.973146
0.973147
0.973147
0.973147
0.973147
0.973147
0.973148
0.973148
0.973148
0.973148
0.973149
0.973149
0.973149
0.97315
0.97315
0.97315
0.97315
0.973151
0.973151
0.973151
0.973151
0.973152
0.973152
0.973152
0.973152
0.973153
0.973153
0.973153
0.973154
0.973154
0.973154
0.973155
0.973155
0.973155
0.973155
0.973156
0.973156
0.973156
0.973157
0.973157
0.973157
0.973157
0.973158
0.973158
0.973158
0.973158
0.973159
0.973159
0.97316
0.97316
0.97316
0.97316
0.973161
0.973161
0.973161
0.973161
0.973162
0.973162
0.973162
0.973162
0.973163
0.973163
0.973164
0.973164
0.973164
0.973164
0.973165
0.973165
0.973166
0.973166
0.973166
0.973166
0.973167
0.973167
0.973167
0.973167
0.973168
0.973168
0.973169
0.973169
0.973169
0.973169
0.97317
0.97317
0.97317
0.973171
0.973171
0.973171
0.973172
0.973172
0.973172
0.973173
0.973173
0.973174
0.973174
0.973174
0.973174
0.973175
0.973175
0.973175
0.973176
0.973176
0.973176
0.973177
0.973177
0.973177
0.973178
0.973178
0.973179
0.973179
0.973179
0.973179
0.97318
0.97318
0.97318
0.973181
0.973181
0.973182
0.973182
0.973182
0.973183
0.973183
0.973183
0.973184
0.973184
0.973184
0.973185
0.973185
0.973186
0.973186
0.973186
0.973187
0.973187
0.973187
0.973187
0.973188
0.973188
0.973189
0.973189
0.973189
0.97319
0.97319
0.973191
0.973191
0.973191
0.973192
0.973192
0.973193
0.973193
0.973193
0.973193
0.973194
0.973194
0.973195
0.973195
0.973195
0.973196
0.973196
0.973197
0.973197
0.973197
0.973198
0.973198
0.973199
0.973199
0.973199
0.9732
0.9732
0.973201
0.973201
0.973201
0.973202
0.973202
0.973203
0.973203
0.973203
0.973204
0.973204
0.973205
0.973205
0.973205
0.973206
0.973206
0.973207
0.973207
0.973207
0.973208
0.973208
0.973209
0.973209
0.973209
0.97321
0.97321
0.973211
0.973211
0.973211
0.973212
0.973212
0.973213
0.973213
0.973213
0.973214
0.973214
0.973215
0.973215
0.973215
0.973216
0.973217
0.973217
0.973217
0.973218
0.973218
0.973219
0.973219
0.973219
0.97322
0.97322
0.973221
0.973221
0.973221
0.973222
0.973222
0.973223
0.973224
0.973224
0.973224
0.973225
0.973225
0.973226
0.973226
0.973226
0.973227
0.973227
0.973228
0.973228
0.973229
0.973229
0.97323
0.97323
0.97323
0.973231
0.973231
0.973232
0.973233
0.973233
0.973233
0.973234
0.973234
0.973235
0.973235
0.973235
0.973236
0.973237
0.973237
0.973237
0.973238
0.973238
0.973239
0.973239
0.973239
0.97324
0.973241
0.973241
0.973242
0.973242
0.973242
0.973243
0.973244
0.973244
0.973244
0.973245
0.973245
0.973246
0.973247
0.973247
0.973247
0.973248
0.973248
0.973249
0.973249
0.97325
0.97325
0.973251
0.973251
0.973251
0.973252
0.973253
0.973253
0.973254
0.973254
0.973254
0.973255
0.973256
0.973256
0.973256
0.973257
0.973258
0.973258
0.973259
0.973259
0.973259
0.97326
0.973261
0.973261
0.973261
0.973262
0.973263
0.973263
0.973264
0.973264
0.973265
0.973265
0.973266
0.973266
0.973266
0.973267
0.973268
0.973268
0.973269
0.973269
0.97327
0.97327
0.973271
0.973272
0.973272
0.973272
0.973273
0.973274
0.973274
0.973274
0.973275
0.973276
0.973276
0.973277
0.973277
0.973278
0.973278
0.973279
0.97328
0.97328
0.97328
0.973281
0.973282
0.973282
0.973282
0.973283
0.973284
0.973284
0.973285
0.973285
0.973286
0.973286
0.973287
0.973288
0.973288
0.973288
0.973289
0.97329
0.97329
0.97329
0.973291
0.973292
0.973293
0.973293
0.973293
0.973294
0.973295
0.973295
0.973296
0.973296
0.973297
0.973297
0.973298
0.973299
0.973299
0.973299
0.9733
0.973301
0.973302
0.973302
0.973302
0.973303
0.973304
0.973304
0.973304
0.973305
0.973306
0.973307
0.973307
0.973307
0.973308
0.973309
0.97331
0.97331
0.97331
0.973311
0.973312
0.973312
0.973313
0.973313
0.973314
0.973315
0.973315
0.973316
0.973316
0.973317
0.973318
0.973318
0.973319
0.973319
0.97332
0.973321
0.973321
0.973322
0.973322
0.973323
0.973323
0.973324
0.973325
0.973325
0.973326
0.973327
0.973327
0.973328
0.973328
0.973329
0.97333
0.97333
0.973331
0.973331
0.973332
0.973333
0.973333
0.973334
0.973334
0.973335
0.973336
0.973336
0.973337
0.973337
0.973338
0.973339
0.97334
0.97334
0.97334
0.973341
0.973342
0.973343
0.973343
0.973343
0.973344
0.973345
0.973346
0.973347
0.973347
0.973347
0.973348
0.973349
0.97335
0.97335
0.97335
0.973351
0.973352
0.973353
0.973353
0.973354
0.973354
0.973355
0.973356
0.973356
0.973357
0.973358
0.973359
0.973359
0.973359
0.97336
0.973361
0.973362
0.973363
0.973363
0.973363
0.973364
0.973365
0.973366
0.973366
0.973367
0.973367
0.973368
0.973369
0.973369
0.97337
0.973371
0.973372
0.973372
0.973372
0.973373
0.973374
0.973375
0.973376
0.973376
0.973377
0.973377
0.973378
0.973379
0.973379
0.97338
0.973381
0.973382
0.973382
0.973382
0.973383
0.973384
0.973385
0.973386
0.973386
0.973387
0.973388
0.973388
0.973389
0.973389
0.97339
0.973391
0.973392
0.973393
0.973393
0.973394
0.973394
0.973395
0.973396
0.973396
0.973397
0.973398
0.973399
0.9734
0.9734
0.9734
0.973401
0.973402
0.973403
0.973403
0.973404
0.973405
0.973406
0.973407
0.973407
0.973407
0.973408
0.973409
0.97341
0.97341
0.973411
0.973412
0.973413
0.973414
0.973414
0.973415
0.973415
0.973416
0.973417
0.973417
0.973418
0.973419
0.97342
0.973421
0.973421
0.973422
0.973423
0.973424
0.973424
0.973424
0.973425
0.973426
0.973427
0.973428
0.973428
0.973429
0.97343
0.973431
0.973432
0.973432
0.973433
0.973434
0.973435
0.973435
0.973435
0.973436
0.973437
0.973438
0.973439
0.973439
0.97344
0.973441
0.973442
0.973443
0.973443
0.973444
0.973445
0.973446
0.973447
0.973447
0.973448
0.973448
0.973449
0.97345
0.97345
0.973451
0.973452
0.973453
0.973454
0.973454
0.973455
0.973456
0.973457
0.973458
0.973458
0.973459
0.97346
0.973461
0.973462
0.973462
0.973463
0.973464
0.973465
0.973466
0.973466
0.973467
0.973468
0.973468
0.973469
0.973469
0.97347
0.973471
0.973472
0.973473
0.973473
0.973474
0.973475
0.973476
0.973477
0.973477
0.973478
0.973479
0.97348
0.973481
0.973481
0.973482
0.973483
0.973484
0.973485
0.973485
0.973486
0.973487
0.973488
0.973489
0.973489
0.97349
0.973491
0.973492
0.973493
0.973493
0.973494
0.973495
0.973496
0.973497
0.973497
0.973498
0.973499
0.9735
0.973501
0.973501
0.973502
0.973503
0.973504
0.973505
0.973505
0.973506
0.973507
0.973508
0.973509
0.973509
0.97351
0.973511
0.973512
0.973513
0.973513
0.973514
0.973515
0.973516
0.973517
0.973517
0.973518
0.973519
0.97352
0.973521
0.973521
0.973523
0.973524
0.973525
0.973526
0.973526
0.973527
0.973528
0.973529
0.97353
0.97353
0.973531
0.973532
0.973533
0.973534
0.973534
0.973535
0.973536
0.973537
0.973538
0.973538
0.973539
0.97354
0.973541
0.973542
0.973542
0.973544
0.973545
0.973546
0.973547
0.973547
0.973548
0.973549
0.97355
0.973551
0.973551
0.973552
0.973553
0.973554
0.973555
0.973555
0.973556
0.973557
0.973558
0.97356
0.97356
0.973561
0.973562
0.973563
0.973564
0.973564
0.973565
0.973566
0.973567
0.973568
0.973568
0.973569
0.97357
0.973572
0.973573
0.973573
0.973574
0.973575
0.973576
0.973577
0.973577
0.973578
0.973579
0.97358
0.973581
0.973581
0.973583
0.973584
0.973585
0.973586
0.973586
0.973587
0.973588
0.973589
0.97359
0.97359
0.973591
0.973593
0.973594
0.973595
0.973595
0.973596
0.973597
0.973598
0.973599
0.973599
0.9736
0.973602
0.973603
0.973604
0.973604
0.973605
0.973606
0.973607
0.973608
0.973608
0.973609
0.973611
0.973612
0.973613
0.973613
0.973614
0.973615
0.973616
0.973617
0.973617
0.973619
0.97362
0.973621
0.973622
0.973622
0.973623
0.973624
0.973626
0.973627
0.973627
0.973628
0.973629
0.97363
0.973631
0.973631
0.973633
0.973634
0.973635
0.973636
0.973636
0.973637
0.973638
0.97364
0.973641
0.973641
0.973642
0.973643
0.973644
0.973645
0.973645
0.973647
0.973648
0.973649
0.97365
0.97365
0.973651
0.973652
0.973654
0.973655
0.973655
0.973656
0.973657
0.973658
0.97366
0.97366
0.973661
0.973662
0.973663
0.973664
0.973664
0.973666
0.973667
0.973668
0.973669
0.973669
0.97367
0.973672
0.973673
0.973674
0.973674
0.973675
0.973676
0.973678
0.973679
0.973679
0.97368
0.973681
0.973682
0.973684
0.973684
0.973685
0.973686
0.973687
0.973689
0.973689
0.97369
0.973691
0.973692
0.973693
0.973693
0.973695
0.973696
0.973697
0.973698
0.973698
0.9737
0.973701
0.973702
0.973703
0.973703
0.973705
0.973706
0.973707
0.973708
0.973708
0.97371
0.973711
0.973712
0.973713
0.973713
0.973715
0.973716
0.973717
0.973718
0.973718
0.97372
0.973721
0.973722
0.973723
0.973723
0.973725
0.973726
0.973727
0.973728
0.973728
0.97373
0.973731
0.973732
0.973733
0.973733
0.973735
0.973736
0.973737
0.973739
0.973739
0.97374
0.973741
0.973742
0.973744
0.973744
0.973745
0.973746
0.973747
0.973749
0.973749
0.97375
0.973751
0.973753
0.973754
0.973754
0.973755
0.973756
0.973758
0.973759
0.973759
0.97376
0.973762
0.973763
0.973764
0.973764
0.973766
0.973767
0.973768
0.973769
0.973769
0.973771
0.973772
0.973773
0.973775
0.973775
0.973776
0.973777
0.973779
0.97378
0.97378
0.973781
0.973783
0.973784
0.973785
0.973785
0.973787
0.973788
0.973789
0.97379
0.97379
0.973792
0.973793
0.973794
0.973796
0.973796
0.973797
0.973798
0.9738
0.973801
0.973801
0.973802
0.973804
0.973805
0.973806
0.973806
0.973808
0.973809
0.97381
0.973812
0.973812
0.973813
0.973815
0.973816
0.973817
0.973817
0.973819
0.97382
0.973821
0.973823
0.973823
0.973824
0.973825
0.973827
0.973828
0.973828
0.973829
0.973831
0.973832
0.973834
0.973834
0.973835
0.973836
0.973838
0.973839
0.973839
0.97384
0.973842
0.973843
0.973844
0.973844
0.973846
0.973847
0.973849
0.97385
0.97385
0.973851
0.973853
0.973854
0.973856
0.973856
0.973857
0.973858
0.97386
0.973861
0.973861
0.973862
0.973864
0.973865
0.973867
0.973867
0.973868
0.973869
0.973871
0.973872
0.973872
0.973874
0.973875
0.973876
0.973878
0.973878
0.973879
0.973881
0.973882
0.973883
0.973883
0.973885
0.973886
0.973888
0.973889
0.973889
0.973891
0.973892
0.973893
0.973895
0.973895
0.973896
0.973898
0.973899
0.9739
0.9739
0.973902
0.973903
0.973905
0.973906
0.973906
0.973908
0.973909
0.97391
0.973912
0.973912
0.973913
0.973915
0.973916
0.973918
0.973918
0.973919
0.973921
0.973922
0.973923
0.973923
0.973925
0.973926
0.973928
0.973929
0.973929
0.973931
0.973932
0.973934
0.973935
0.973935
0.973936
0.973938
0.973939
0.973941
0.973941
0.973942
0.973944
0.973945
0.973947
0.973947
0.973948
0.97395
0.973951
0.973953
0.973953
0.973954
0.973956
0.973957
0.973958
0.973958
0.97396
0.973961
0.973963
0.973964
0.973964
0.973966
0.973967
0.973969
0.97397
0.97397
0.973972
0.973973
0.973975
0.973976
0.973976
0.973978
0.973979
0.973981
0.973982
0.973982
0.973984
0.973985
0.973987
0.973988
0.973988
0.97399
0.973991
0.973993
0.973994
0.973994
0.973996
0.973997
0.973999
0.974
0.974
0.974002
0.974003
0.974005
0.974006
0.974006
0.974008
0.974009
0.974011
0.974012
0.974012
0.974014
0.974015
0.974017
0.974018
0.974018
0.97402
0.974021
0.974023
0.974025
0.974025
0.974026
0.974028
0.974029
0.974031
0.974031
0.974032
0.974034
0.974035
0.974037
0.974037
0.974038
0.97404
0.974041
0.974043
0.974043
0.974045
0.974046
0.974048
0.974049
0.974049
0.974051
0.974052
0.974054
0.974055
0.974055
0.974057
0.974059
0.97406
0.974062
0.974062
0.974063
0.974065
0.974066
0.974068
0.974068
0.974069
0.974071
0.974073
0.974074
0.974074
0.974076
0.974077
0.974079
0.97408
0.97408
0.974082
0.974084
0.974085
0.974087
0.974087
0.974088
0.97409
0.974091
0.974093
0.974093
0.974095
0.974096
0.974098
0.974099
0.974099
0.974101
0.974103
0.974104
0.974106
0.974106
0.974107
0.974109
0.974111
0.974112
0.974112
0.974114
0.974115
0.974117
0.974119
0.974119
0.97412
0.974122
0.974123
0.974125
0.974125
0.974127
0.974128
0.97413
0.974131
0.974131
0.974133
0.974135
0.974136
0.974138
0.974138
0.97414
0.974141
0.974143
0.974144
0.974144
0.974146
0.974148
0.974149
0.974151
0.974151
0.974153
0.974154
0.974156
0.974157
0.974157
0.974159
0.974161
0.974162
0.974164
0.974164
0.974166
0.974167
0.974169
0.974171
0.974171
0.974172
0.974174
0.974175
0.974177
0.974177
0.974179
0.97418
0.974182
0.974184
0.974184
0.974185
0.974187
0.974189
0.97419
0.97419
0.974192
0.974194
0.974195
0.974197
0.974197
0.974199
0.9742
0.974202
0.974204
0.974204
0.974205
0.974207
0.974209
0.97421
0.97421
0.974212
0.974214
0.974215
0.974217
0.974217
0.974219
0.97422
0.974222
0.974224
0.974224
0.974225
0.974227
0.974229
0.974231
0.974231
0.974232
0.974234
0.974236
0.974237
0.974237
0.974239
0.974241
0.974242
0.974244
0.974244
0.974246
0.974247
0.974249
0.974251
0.974251
0.974253
0.974254
0.974256
0.974258
0.974258
0.974259
0.974261
0.974263
0.974265
0.974265
0.974266
0.974268
0.97427
0.974271
0.974271
0.974273
0.974275
0.974277
0.974278
0.974278
0.97428
0.974282
0.974283
0.974285
0.974285
0.974287
0.974289
0.97429
0.974292
0.974292
0.974294
0.974296
0.974297
0.974299
0.974299
0.974301
0.974302
0.974304
0.974306
0.974306
0.974308
0.974309
0.974311
0.974313
0.974313
0.974315
0.974316
0.974318
0.97432
0.97432
0.974322
0.974323
0.974325
0.974327
0.974327
0.974329
0.97433
0.974332
0.974334
0.974334
0.974336
0.974338
0.974339
0.974341
0.974341
0.974343
0.974345
0.974346
0.974348
0.974348
0.97435
0.974352
0.974353
0.974355
0.974355
0.974357
0.974359
0.974361
0.974362
0.974362
0.974364
0.974366
0.974368
0.974369
0.974369
0.974371
0.974373
0.974375
0.974377
0.974377
0.974378
0.97438
0.974382
0.974384
0.974384
0.974386
0.974387
0.974389
0.974391
0.974391
0.974393
0.974395
0.974396
0.974398
0.974398
0.9744
0.974402
0.974404
0.974405
0.974405
0.974407
0.974409
0.974411
0.974413
0.974413
0.974415
0.974416
0.974418
0.97442
0.97442
0.974422
0.974424
0.974425
0.974427
0.974427
0.974429
0.974431
0.974433
0.974435
0.974435
0.974436
0.974438
0.97444
0.974442
0.974442
0.974444
0.974446
0.974447
0.974449
0.974449
0.974451
0.974453
0.974455
0.974457
0.974457
0.974458
0.97446
0.974462
0.974464
0.974464
0.974466
0.974468
0.97447
0.974471
0.974471
0.974473
0.974475
0.974477
0.974479
0.974479
0.974481
0.974483
0.974484
0.974486
0.974486
0.974488
0.97449
0.974492
0.974494
0.974494
0.974496
0.974497
0.974499
0.974501
0.974501
0.974503
0.974505
0.974507
0.974509
0.974509
0.974511
0.974513
0.974514
0.974516
0.974516
0.974518
0.97452
0.974522
0.974524
0.974524
0.974526
0.974528
0.974529
0.974531
0.974531
0.974533
0.974535
0.974537
0.974539
0.974539
0.974541
0.974543
0.974545
0.974547
0.974547
0.974548
0.97455
0.974552
0.974554
0.974554
0.974556
0.974558
0.97456
0.974562
0.974562
0.974564
0.974566
0.974568
0.974569
0.974569
0.974571
0.974573
0.974575
0.974577
0.974577
0.974579
0.974581
0.974583
0.974585
0.974585
0.974587
0.974589
0.974591
0.974593
0.974593
0.974595
0.974596
0.974598
0.9746
0.9746
0.974602
0.974604
0.974606
0.974608
0.974608
0.97461
0.974612
0.974614
0.974616
0.974616
0.974618
0.97462
0.974622
0.974624
0.974624
0.974626
0.974628
0.974629
0.974631
0.974631
0.974633
0.974635
0.974637
0.974639
0.974639
0.974641
0.974643
0.974645
0.974647
0.974647
0.974649
0.974651
0.974653
0.974655
0.974655
0.974657
0.974659
0.974661
0.974663
0.974663
0.974665
0.974667
0.974669
0.974671
0.974671
0.974673
0.974675
0.974677
0.974679
0.974679
0.974681
0.974683
0.974685
0.974687
0.974687
0.974689
0.974691
0.974693
0.974695
0.974695
0.974697
0.974699
0.974701
0.974703
0.974703
0.974705
0.974707
0.974709
0.974711
0.974711
0.974713
0.974715
0.974717
0.974719
0.974719
0.974721
0.974723
0.974725
0.974727
0.974727
0.974729
0.974731
0.974733
0.974735
0.974735
0.974737
0.974739
0.974741
0.974743
0.974743
0.974745
0.974747
0.974749
0.974751
0.974751
0.974753
0.974755
0.974757
0.974759
0.974759
0.974761
0.974763
0.974765
0.974767
0.974767
0.974769
0.974771
0.974773
0.974775
0.974775
0.974777
0.974779
0.974781
0.974784
0.974784
0.974786
0.974788
0.97479
0.974792
0.974792
0.974794
0.974796
0.974798
0.9748
0.9748
0.974802
0.974804
0.974806
0.974808
0.974808
0.97481
0.974812
0.974814
0.974816
0.974816
0.974818
0.974821
0.974823
0.974825
0.974825
0.974827
0.974829
0.974831
0.974833
0.974833
0.974835
0.974837
0.974839
0.974841
0.974841
0.974843
0.974845
0.974848
0.97485
0.97485
0.974852
0.974854
0.974856
0.974858
0.974858
0.97486
0.974862
0.974864
0.974866
0.974866
0.974868
0.974871
0.974873
0.974875
0.974875
0.974877
0.974879
0.974881
0.974883
0.974883
0.974885
0.974887
0.974889
0.974892
0.974892
0.974894
0.974896
0.974898
0.9749
0.9749
0.974902
0.974904
0.974906
0.974908
0.974908
0.974911
0.974913
0.974915
0.974917
0.974917
0.974919
0.974921
0.974923
0.974925
0.974925
0.974928
0.97493
0.974932
0.974934
0.974934
0.974936
0.974938
0.97494
0.974942
0.974942
0.974945
0.974947
0.974949
0.974951
0.974951
0.974953
0.974955
0.974957
0.97496
0.97496
0.974962
0.974964
0.974966
0.974968
0.974968
0.97497
0.974973
0.974975
0.974977
0.974977
0.974979
0.974981
0.974983
0.974985
0.974985
0.974988
0.97499
0.974992
0.974994
0.974994
0.974996
0.974998
0.975001
0.975003
0.975003
0.975005
0.975007
0.975009
0.975011
0.975011
0.975014
0.975016
0.975018
0.97502
0.97502
0.975022
0.975025
0.975027
0.975029
0.975029
0.975031
0.975033
0.975035
0.975038
0.975038
0.97504
0.975042
0.975044
0.975046
0.975046
0.975049
0.975051
0.975053
0.975055
0.975055
0.975057
0.97506
0.975062
0.975064
0.975064
0.975066
0.975068
0.975071
0.975073
0.975073
0.975075
0.975077
0.975079
0.975082
0.975082
0.975084
0.975086
0.975088
0.975091
0.975091
0.975093
0.975095
0.975097
0.975099
0.975099
0.975102
0.975104
0.975106
0.975108
0.975108
0.975111
0.975113
0.975115
0.975117
0.975117
0.975119
0.975122
0.975124
0.975126
0.975126
0.975128
0.975131
0.975133
0.975135
0.975135
0.975137
0.97514
0.975142
0.975144
0.975144
0.975146
0.975149
0.975151
0.975153
0.975153
0.975155
0.975158
0.97516
0.975162
0.975162
0.975164
0.975167
0.975169
0.975171
0.975171
0.975173
0.975176
0.975178
0.97518
0.97518
0.975182
0.975185
0.975187
0.975189
0.975189
0.975191
0.975194
0.975196
0.975198
0.975198
0.975201
0.975203
0.975205
0.975207
0.975207
0.97521
0.975212
0.975214
0.975216
0.975216
0.975219
0.975221
0.975223
0.975226
0.975226
0.975228
0.97523
0.975232
0.975235
0.975235
0.975237
0.975239
0.975242
0.975244
0.975244
0.975246
0.975249
0.975251
0.975253
0.975253
0.975255
0.975258
0.97526
0.975262
0.975262
0.975265
0.975267
0.975269
0.975272
0.975272
0.975274
0.975276
0.975279
0.975281
0.975281
0.975283
0.975285
0.975288
0.97529
0.97529
0.975292
0.975295
0.975297
0.975299
0.975299
0.975302
0.975304
0.975306
0.975309
0.975309
0.975311
0.975313
0.975316
0.975318
0.975318
0.97532
0.975323
0.975325
0.975327
0.975327
0.97533
0.975332
0.975334
0.975337
0.975337
0.975339
0.975341
0.975344
0.975346
0.975346
0.975348
0.975351
0.975353
0.975355
0.975355
0.975358
0.97536
0.975363
0.975365
0.975365
0.975367
0.97537
0.975372
0.975374
0.975374
0.975377
0.975379
0.975381
0.975384
0.975384
0.975386
0.975388
0.975391
0.975393
0.975393
0.975396
0.975398
0.9754
0.975403
0.975403
0.975405
0.975407
0.97541
0.975412
0.975412
0.975415
0.975417
0.975419
0.975422
0.975422
0.975424
0.975427
0.975429
0.975431
0.975431
0.975434
0.975436
0.975438
0.975441
0.975441
0.975443
0.975446
0.975448
0.97545
0.97545
0.975453
0.975455
0.975458
0.97546
0.97546
0.975462
0.975465
0.975467
0.97547
0.97547
0.975472
0.975474
0.975477
0.975479
0.975479
0.975482
0.975484
0.975487
0.975489
0.975489
0.975491
0.975494
0.975496
0.975499
0.975499
0.975501
0.975503
0.975506
0.975508
0.975508
0.975511
0.975513
0.975516
0.975518
0.975518
0.97552
0.975523
0.975525
0.975528
0.975528
0.97553
0.975533
0.975535
0.975537
0.975537
0.97554
0.975542
0.975545
0.975547
0.975547
0.97555
0.975552
0.975555
0.975557
0.975557
0.975559
0.975562
0.975564
0.975567
0.975567
0.975569
0.975572
0.975574
0.975577
0.975577
0.975579
0.975582
0.975584
0.975586
0.975586
0.975589
0.975591
0.975594
0.975596
0.975596
0.975599
0.975601
0.975604
0.975606
0.975606
0.975609
0.975611
0.975614
0.975616
0.975616
0.975619
0.975621
0.975624
0.975626
0.975626
0.975628
0.975631
0.975633
0.975636
0.975636
0.975638
0.975641
0.975643
0.975646
0.975646
0.975648
0.975651
0.975653
0.975656
0.975656
0.975658
0.975661
0.975663
0.975666
0.975666
0.975668
0.975671
0.975673
0.975676
0.975676
0.975678
0.975681
0.975683
0.975686
0.975686
0.975688
0.975691
0.975693
0.975696
0.975696
0.975698
0.975701
0.975703
0.975706
0.975706
0.975708
0.975711
0.975713
0.975716
0.975716
0.975718
0.975721
0.975724
0.975726
0.975726
0.975729
0.975731
0.975734
0.975736
0.975736
0.975739
0.975741
0.975744
0.975746
0.975746
0.975749
0.975751
0.975754
0.975756
0.975756
0.975759
0.975762
0.975764
0.975767
0.975767
0.975769
0.975772
0.975774
0.975777
0.975777
0.975779
0.975782
0.975784
0.975787
0.975787
0.97579
0.975792
0.975795
0.975797
0.975797
0.9758
0.975802
0.975805
0.975807
0.975807
0.97581
0.975813
0.975815
0.975818
0.975818
0.97582
0.975823
0.975825
0.975828
0.975828
0.97583
0.975833
0.975836
0.975838
0.975838
0.975841
0.975843
0.975846
0.975849
0.975849
0.975851
0.975854
0.975856
0.975859
0.975859
0.975861
0.975864
0.975867
0.975869
0.975869
0.975872
0.975874
0.975877
0.97588
0.97588
0.975882
0.975885
0.975887
0.97589
0.97589
0.975892
0.975895
0.975898
0.9759
0.9759
0.975903
0.975905
0.975908
0.975911
0.975911
0.975913
0.975916
0.975919
0.975921
0.975921
0.975924
0.975926
0.975929
0.975932
0.975932
0.975934
0.975937
0.975939
0.975942
0.975942
0.975945
0.975947
0.97595
0.975953
0.975953
0.975955
0.975958
0.97596
0.975963
0.975963
0.975966
0.975968
0.975971
0.975974
0.975974
0.975976
0.975979
0.975981
0.975984
0.975984
0.975987
0.975989
0.975992
0.975995
0.975995
0.975997
0.976
0.976003
0.976005
0.976005
0.976008
0.97601
0.976013
0.976016
0.976016
0.976018
0.976021
0.976024
0.976026
0.976026
0.976029
0.976032
0.976034
0.976037
0.976037
0.97604
0.976042
0.976045
0.976048
0.976048
0.97605
0.976053
0.976056
0.976058
0.976058
0.976061
0.976064
0.976066
0.976069
0.976069
0.976072
0.976074
0.976077
0.97608
0.97608
0.976082
0.976085
0.976088
0.97609
0.97609
0.976093
0.976096
0.976098
0.976101
0.976101
0.976104
0.976107
0.976109
0.976112
0.976112
0.976115
0.976117
0.97612
0.976123
0.976123
0.976125
0.976128
0.976131
0.976133
0.976133
0.976136
0.976139
0.976142
0.976144
0.976144
0.976147
0.97615
0.976152
0.976155
0.976155
0.976158
0.97616
0.976163
0.976166
0.976166
0.976169
0.976171
0.976174
0.976177
0.976177
0.976179
0.976182
0.976185
0.976188
0.976188
0.97619
0.976193
0.976196
0.976198
0.976198
0.976201
0.976204
0.976207
0.976209
0.976209
0.976212
0.976215
0.976218
0.97622
0.97622
0.976223
0.976226
0.976229
0.976231
0.976231
0.976234
0.976237
0.976239
0.976242
0.976242
0.976245
0.976248
0.97625
0.976253
0.976253
0.976256
0.976259
0.976261
0.976264
0.976264
0.976267
0.97627
0.976272
0.976275
0.976275
0.976278
0.976281
0.976283
0.976286
0.976286
0.976289
0.976292
0.976294
0.976297
0.976297
0.9763
0.976303
0.976306
0.976308
0.976308
0.976311
0.976314
0.976317
0.976319
0.976319
0.976322
0.976325
0.976328
0.97633
0.97633
0.976333
0.976336
0.976339
0.976342
0.976342
0.976344
0.976347
0.97635
0.976353
0.976353
0.976356
0.976358
0.976361
0.976364
0.976364
0.976367
0.976369
0.976372
0.976375
0.976375
0.976378
0.976381
0.976383
0.976386
0.976386
0.976389
0.976392
0.976395
0.976397
0.976397
0.9764
0.976403
0.976406
0.976409
0.976409
0.976411
0.976414
0.976417
0.97642
0.97642
0.976423
0.976426
0.976428
0.976431
0.976431
0.976434
0.976437
0.97644
0.976442
0.976442
0.976445
0.976448
0.976451
0.976454
0.976454
0.976457
0.976459
0.976462
0.976465
0.976465
0.976468
0.976471
0.976473
0.976476
0.976476
0.976479
0.976482
0.976485
0.976488
0.976488
0.976491
0.976493
0.976496
0.976499
0.976499
0.976502
0.976505
0.976508
0.97651
0.97651
0.976513
0.976516
0.976519
0.976522
0.976522
0.976525
0.976527
0.97653
0.976533
0.976533
0.976536
0.976539
0.976542
0.976545
0.976545
0.976547
0.97655
0.976553
0.976556
0.976556
0.976559
0.976562
0.976565
0.976568
0.976568
0.97657
0.976573
0.976576
0.976579
0.976579
0.976582
0.976585
0.976588
0.97659
0.97659
0.976593
0.976596
0.976599
0.976602
0.976602
0.976605
0.976608
0.976611
0.976614
0.976614
0.976616
0.976619
0.976622
0.976625
0.976625
0.976628
0.976631
0.976634
0.976637
0.976637
0.97664
0.976642
0.976645
0.976648
0.976648
0.976651
0.976654
0.976657
0.97666
0.97666
0.976663
0.976666
0.976669
0.976671
0.976671
0.976674
0.976677
0.97668
0.976683
0.976683
0.976686
0.976689
0.976692
0.976695
0.976695
0.976698
0.976701
0.976703
0.976706
0.976706
0.976709
0.976712
0.976715
0.976718
0.976718
0.976721
0.976724
0.976727
0.97673
0.97673
0.976733
0.976736
0.976739
0.976741
0.976741
0.976744
0.976747
0.97675
0.976753
0.976753
0.976756
0.976759
0.976762
0.976765
0.976765
0.976768
0.976771
0.976774
0.976777
0.976777
0.97678
0.976783
0.976786
0.976788
0.976788
0.976791
0.976794
0.976797
0.9768
0.9768
0.976803
0.976806
0.976809
0.976812
0.976812
0.976815
0.976818
0.976821
0.976824
0.976824
0.976827
0.97683
0.976833
0.976836
0.976836
0.976839
0.976842
0.976845
0.976848
0.976848
0.976851
0.976854
0.976857
0.97686
0.97686
0.976862
0.976865
0.976868
0.976871
0.976871
0.976874
0.976877
0.97688
0.976883
0.976883
0.976886
0.976889
0.976892
0.976895
0.976895
0.976898
0.976901
0.976904
0.976907
0.976907
0.97691
0.976913
0.976916
0.976919
0.976919
0.976922
0.976925
0.976928
0.976931
0.976931
0.976934
0.976937
0.97694
0.976943
0.976943
0.976946
0.976949
0.976952
0.976955
0.976955
0.976958
0.976961
0.976964
0.976967
0.976967
0.97697
0.976973
0.976976
0.976979
0.976979
0.976982
0.976985
0.976988
0.976991
0.976991
0.976994
0.976997
0.977
0.977003
0.977003
0.977006
0.977009
0.977012
0.977015
0.977015
0.977019
0.977022
0.977025
0.977028
0.977028
0.977031
0.977034
0.977037
0.97704
0.97704
0.977043
0.977046
0.977049
0.977052
0.977052
0.977055
0.977058
0.977061
0.977064
0.977064
0.977067
0.97707
0.977073
0.977076
0.977076
0.977079
0.977082
0.977085
0.977088
0.977088
0.977091
0.977095
0.977098
0.977101
0.977101
0.977104
0.977107
0.97711
0.977113
0.977113
0.977116
0.977119
0.977122
0.977125
0.977125
0.977128
0.977131
0.977134
0.977137
0.977137
0.97714
0.977144
0.977147
0.97715
0.97715
0.977153
0.977156
0.977159
0.977162
0.977162
0.977165
0.977168
0.977171
0.977174
0.977174
0.977177
0.97718
0.977184
0.977187
0.977187
0.97719
0.977193
0.977196
0.977199
0.977199
0.977202
0.977205
0.977208
0.977211
0.977211
0.977214
0.977218
0.977221
0.977224
0.977224
0.977227
0.97723
0.977233
0.977236
0.977236
0.977239
0.977242
0.977245
0.977249
0.977249
0.977252
0.977255
0.977258
0.977261
0.977261
0.977264
0.977267
0.97727
0.977273
0.977273
0.977277
0.97728
0.977283
0.977286
0.977286
0.977289
0.977292
0.977295
0.977298
0.977298
0.977301
0.977305
0.977308
0.977311
0.977311
0.977314
0.977317
0.97732
0.977323
0.977323
0.977326
0.97733
0.977333
0.977336
0.977336
0.977339
0.977342
0.977345
0.977348
0.977348
0.977352
0.977355
0.977358
0.977361
0.977361
0.977364
0.977367
0.97737
0.977374
0.977374
0.977377
0.97738
0.977383
0.977386
0.977386
0.977389
0.977392
0.977396
0.977399
0.977399
0.977402
0.977405
0.977408
0.977411
0.977411
0.977415
0.977418
0.977421
0.977424
0.977424
0.977427
0.97743
0.977434
0.977437
0.977437
0.97744
0.977443
0.977446
0.977449
0.977449
0.977453
0.977456
0.977459
0.977462
0.977462
0.977465
0.977468
0.977472
0.977475
0.977475
0.977478
0.977481
0.977484
0.977487
0.977487
0.977491
0.977494
0.977497
0.9775
0.9775
0.977503
0.977507
0.97751
0.977513
0.977513
0.977516
0.977519
0.977523
0.977526
0.977526
0.977529
0.977532
0.977535
0.977539
0.977539
0.977542
0.977545
0.977548
0.977551
0.977551
0.977555
0.977558
0.977561
0.977564
0.977564
0.977567
0.977571
0.977574
0.977577
0.977577
0.97758
0.977583
0.977587
0.97759
0.97759
0.977593
0.977596
0.977599