<?xml version="1.0"?>
<VTKFile type="UnstructuredGrid" version="0.1" byte_order="LittleEndian">
<UnstructuredGrid>
<Piece NumberOfPoints="5000" NumberOfCells="4000">
<PointData Scalars="Reaction 0">
<DataArray type="Float32" Name="Reaction 0" format="ascii">
0.13222
0.13222
0.132221
0.132221
0.132221
0.132221
0.132221
0.132221
0.132221
0.132221
0.132221
0.132222
0.132222
0.132222
0.132223
0.132223
0.132223
0.132223
0.132224
0.132224
0.132224
0.132225
0.132225
0.132226
0.132226
0.132226
0.132227
0.132227
0.132228
0.132229
0.132229
0.132229
0.13223
0.132231
0.132231
0.132231
0.132232
0.132233
0.132234
0.132235
0.132235
0.132236
0.132237
0.132238
0.132239
0.132239
0.13224
0.132241
0.132242
0.132243
0.132243
0.132244
0.132245
0.132246
0.132248
0.132248
0.132249
0.13225
0.132251
0.132253
0.132253
0.132254
0.132256
0.132257
0.132258
0.132258
0.13226
0.132261
0.132263
0.132264
0.132264
0.132266
0.132268
0.132269
0.132271
0.132271
0.132273
0.132274
0.132276
0.132278
0.132278
0.13228
0.132282
0.132283
0.132285
0.132285
0.132287
0.132289
0.132291
0.132293
0.132293
0.132295
0.132297
0.132299
0.132302
0.132302
0.132304
0.132306
0.132308
0.13231
0.13231
0.132313
0.132315
0.132317
0.132319
0.132319
0.132322
0.132324
0.132327
0.132329
0.132329
0.132332
0.132334
0.132337
0.132339
0.132339
0.132342
0.132344
0.132347
0.13235
0.13235
0.132353
0.132355
0.132358
0.132361
0.132361
0.132364
0.132366
0.132369
0.132372
0.132372
0.132375
0.132378
0.132381
0.132384
0.132384
0.132387
0.13239
0.132393
0.132397
0.132397
0.1324
0.132403
0.132406
0.132409
0.132409
0.132413
0.132416
0.132419
0.132423
0.132423
0.132426
0.132429
0.132433
0.132436
0.132436
0.13244
0.132443
0.132447
0.13245
0.13245
0.132454
0.132458
0.132461
0.132465
0.132465
0.132469
0.132472
0.132476
0.13248
0.13248
0.132484
0.132488
0.132492
0.132496
0.132496
0.1325
0.132503
0.132507
0.132512
0.132512
0.132516
0.13252
0.132524
0.132528
0.132528
0.132532
0.132536
0.132541
0.132545
0.132545
0.132549
0.132553
0.132558
0.132562
0.132562
0.132566
0.132571
0.132575
0.13258
0.13258
0.132584
0.132589
0.132593
0.132598
0.132598
0.132603
0.132607
0.132612
0.132617
0.132617
0.132621
0.132626
0.132631
0.132636
0.132636
0.132641
0.132645
0.13265
0.132655
0.132655
0.13266
0.132665
0.13267
0.132675
0.132675
0.13268
0.132686
0.132691
0.132696
0.132696
0.132701
0.132706
0.132711
0.132717
0.132717
0.132722
0.132727
0.132733
0.132738
0.132738
0.132743
0.132749
0.132754
0.13276
0.13276
0.132765
0.132771
0.132777
0.132782
0.132782
0.132788
0.132793
0.132799
0.132805
0.132805
0.132811
0.132816
0.132822
0.132828
0.132828
0.132834
0.13284
0.132846
0.132852
0.132852
0.132858
0.132864
0.13287
0.132876
0.132876
0.132882
0.132888
0.132894
0.1329
0.1329
0.132906
0.132913
0.132919
0.132925
0.132925
0.132931
0.132938
0.132944
0.132951
0.132951
0.132957
0.132963
0.13297
0.132976
0.132976
0.132983
0.13299
0.132996
0.133003
0.133003
0.133009
0.133016
0.133023
0.13303
0.13303
0.133036
0.133043
0.13305
0.133057
0.133057
0.133064
0.133071
0.133078
0.133084
0.133084
0.133091
0.133098
0.133106
0.133113
0.133113
0.13312
0.133127
0.133134
0.133141
0.133141
0.133148
0.133156
0.133163
0.13317
0.13317
0.133178
0.133185
0.133192
0.1332
0.1332
0.133207
0.133215
0.133222
0.13323
0.13323
0.133237
0.133245
0.133252
0.13326
0.13326
0.133268
0.133275
0.133283
0.133291
0.133291
0.133299
0.133307
0.133314
0.133322
0.133322
0.13333
0.133338
0.133346
0.133354
0.133354
0.133362
0.13337
0.133378
0.133386
0.133386
0.133394
0.133402
0.133411
0.133419
0.133419
0.133427
0.133435
0.133444
0.133452
0.133452
0.13346
0.133469
0.133477
0.133486
0.133486
0.133494
0.133503
0.133511
0.13352
0.13352
0.133528
0.133537
0.133545
0.133554
0.133554
0.133563
0.133571
0.13358
0.133589
0.133589
0.133598
0.133607
0.133616
0.133624
0.133624
0.133633
0.133642
0.133651
0.13366
0.13366
0.133669
0.133678
0.133687
0.133697
0.133697
0.133706
0.133715
0.133724
0.133733
0.133733
0.133743
0.133752
0.133761
0.133771
0.133771
0.13378
0.133789
0.133799
0.133808
0.133808
0.133818
0.133827
0.133837
0.133846
0.133846
0.133856
0.133866
0.133875
0.133885
0.133885
0.133895
0.133904
0.133914
0.133924
0.133924
0.133934
0.133944
0.133954
0.133963
0.133963
0.133973
0.133983
0.133993
0.134003
0.134003
0.134013
0.134024
0.134034
0.134044
0.134044
0.134054
0.134064
0.134074
0.134085
0.134085
0.134095
0.134105
0.134116
0.134126
0.134126
0.134136
0.134147
0.134157
0.134168
0.134168
0.134178
0.134189
0.134199
0.13421
0.13421
0.134221
0.134231
0.134242
0.134253
0.134253
0.134263
0.134274
0.134285
0.134296
0.134296
0.134307
0.134318
0.134328
0.134339
0.134339
0.13435
0.134361
0.134372
0.134383
0.134383
0.134395
0.134406
0.134417
0.134428
0.134428
0.134439
0.13445
0.134462
0.134473
0.134473
0.134484
0.134496
0.134507
0.134518
0.134518
0.13453
0.134541
0.134553
0.134564
0.134564
0.134576
0.134587
0.134599
0.134611
0.134611
0.134622
0.134634
0.134646
0.134657
0.134657
0.134669
0.134681
0.134693
0.134705
0.134705
0.134717
0.134729
0.13474
0.134752
0.134752
0.134764
0.134776
0.134789
0.134801
0.134801
0.134813
0.134825
0.134837
0.134849
0.134849
0.134862
0.134874
0.134886
0.134898
0.134898
0.134911
0.134923
0.134936
0.134948
0.134948
0.13496
0.134973
0.134985
0.134998
0.134998
0.135011
0.135023
0.135036
0.135048
0.135048
0.135061
0.135074
0.135087
0.135099
0.135099
0.135112
0.135125
0.135138
0.135151
0.135151
0.135164
0.135177
0.13519
0.135203
0.135203
0.135216
0.135229
0.135242
0.135255
0.135255
0.135268
0.135281
0.135295
0.135308
0.135308
0.135321
0.135334
0.135348
0.135361
0.135361
0.135374
0.135388
0.135401
0.135415
0.135415
0.135428
0.135442
0.135455
0.135469
0.135469
0.135483
0.135496
0.13551
0.135524
0.135524
0.135537
0.135551
0.135565
0.135579
0.135579
0.135593
0.135606
0.13562
0.135634
0.135634
0.135648
0.135662
0.135676
0.13569
0.13569
0.135704
0.135719
0.135733
0.135747
0.135747
0.135761
0.135775
0.13579
0.135804
0.135804
0.135818
0.135832
0.135847
0.135861
0.135861
0.135876
0.13589
0.135905
0.135919
0.135919
0.135934
0.135948
0.135963
0.135977
0.135977
0.135992
0.136007
0.136022
0.136036
0.136036
0.136051
0.136066
0.136081
0.136096
0.136096
0.13611
0.136125
0.13614
0.136155
0.136155
0.13617
0.136185
0.1362
0.136216
0.136216
0.136231
0.136246
0.136261
0.136276
0.136276
0.136291
0.136307
0.136322
0.136337
0.136337
0.136353
0.136368
0.136384
0.136399
0.136399
0.136414
0.13643
0.136445
0.136461
0.136461
0.136477
0.136492
0.136508
0.136524
0.136524
0.136539
0.136555
0.136571
0.136587
0.136587
0.136602
0.136618
0.136634
0.13665
0.13665
0.136666
0.136682
0.136698
0.136714
0.136714
0.13673
0.136746
0.136762
0.136778
0.136778
0.136795
0.136811
0.136827
0.136843
0.136843
0.13686
0.136876
0.136892
0.136909
0.136909
0.136925
0.136941
0.136958
0.136974
0.136974
0.136991
0.137008
0.137024
0.137041
0.137041
0.137057
0.137074
0.137091
0.137107
0.137107
0.137124
0.137141
0.137158
0.137175
0.137175
0.137192
0.137208
0.137225
0.137242
0.137242
0.137259
0.137276
0.137293
0.137311
0.137311
0.137328
0.137345
0.137362
0.137379
0.137379
0.137396
0.137414
0.137431
0.137448
0.137448
0.137466
0.137483
0.1375
0.137518
0.137518
0.137535
0.137553
0.13757
0.137588
0.137588
0.137605
0.137623
0.137641
0.137658
0.137658
0.137676
0.137694
0.137712
0.137729
0.137729
0.137747
0.137765
0.137783
0.137801
0.137801
0.137819
0.137837
0.137855
0.137873
0.137873
0.137891
0.137909
0.137927
0.137945
0.137945
0.137963
0.137981
0.138
0.138018
0.138018
0.138036
0.138055
0.138073
0.138091
0.138091
0.13811
0.138128
0.138147
0.138165
0.138165
0.138184
0.138202
0.138221
0.138239
0.138239
0.138258
0.138277
0.138295
0.138314
0.138314
0.138333
0.138352
0.138371
0.138389
0.138389
0.138408
0.138427
0.138446
0.138465
0.138465
0.138484
0.138503
0.138522
0.138541
0.138541
0.13856
0.13858
0.138599
0.138618
0.138618
0.138637
0.138656
0.138676
0.138695
0.138695
0.138714
0.138734
0.138753
0.138773
0.138773
0.138792
0.138812
0.138831
0.138851
0.138851
0.13887
0.13889
0.13891
0.138929
0.138929
0.138949
0.138969
0.138989
0.139008
0.139008
0.139028
0.139048
0.139068
0.139088
0.139088
0.139108
0.139128
0.139148
0.139168
0.139168
0.139188
0.139208
0.139228
0.139248
0.139248
0.139268
0.139289
0.139309
0.139329
0.139329
0.13935
0.13937
0.13939
0.139411
0.139411
0.139431
0.139452
0.139472
0.139493
0.139493
0.139513
0.139534
0.139554
0.139575
0.139575
0.139596
0.139616
0.139637
0.139658
0.139658
0.139679
0.139699
0.13972
0.139741
0.139741
0.139762
0.139783
0.139804
0.139825
0.139825
0.139846
0.139867
0.139888
0.139909
0.139909
0.13993
0.139952
0.139973
0.139994
0.139994
0.140015
0.140037
0.140058
0.140079
0.140079
0.140101
0.140122
0.140143
0.140165
0.140165
0.140186
0.140208
0.14023
0.140251
0.140251
0.140273
0.140294
0.140316
0.140338
0.140338
0.14036
0.140381
0.140403
0.140425
0.140425
0.140447
0.140469
0.140491
0.140513
0.140513
0.140535
0.140557
0.140579
0.140601
0.140601
0.140623
0.140645
0.140667
0.140689
0.140689
0.140712
0.140734
0.140756
0.140779
0.140779
0.140801
0.140823
0.140846
0.140868
0.140868
0.140891
0.140913
0.140936
0.140958
0.140958
0.140981
0.141003
0.141026
0.141049
0.141049
0.141071
0.141094
0.141117
0.14114
0.14114
0.141163
0.141185
0.141208
0.141231
0.141231
0.141254
0.141277
0.1413
0.141323
0.141323
0.141346
0.14137
0.141393
0.141416
0.141416
0.141439
0.141462
0.141485
0.141509
0.141509
0.141532
0.141555
0.141579
0.141602
0.141602
0.141626
0.141649
0.141673
0.141696
0.141696
0.14172
0.141743
0.141767
0.141791
0.141791
0.141814
0.141838
0.141862
0.141886
0.141886
0.141909
0.141933
0.141957
0.141981
0.141981
0.142005
0.142029
0.142053
0.142077
0.142077
0.142101
0.142125
0.142149
0.142173
0.142173
0.142197
0.142222
0.142246
0.14227
0.14227
0.142294
0.142319
0.142343
0.142368
0.142368
0.142392
0.142416
0.142441
0.142465
0.142465
0.14249
0.142514
0.142539
0.142564
0.142564
0.142588
0.142613
0.142638
0.142663
0.142663
0.142687
0.142712
0.142737
0.142762
0.142762
0.142787
0.142812
0.142837
0.142862
0.142862
0.142887
0.142912
0.142937
0.142962
0.142962
0.142987
0.143012
0.143038
0.143063
0.143063
0.143088
0.143113
0.143139
0.143164
0.143164
0.143189
0.143215
0.14324
0.143266
0.143266
0.143291
0.143317
0.143342
0.143368
0.143368
0.143394
0.143419
0.143445
0.143471
0.143471
0.143497
0.143522
0.143548
0.143574
0.143574
0.1436
0.143626
0.143652
0.143678
0.143678
0.143704
0.14373
0.143756
0.143782
0.143782
0.143808
0.143834
0.143861
0.143887
0.143887
0.143913
0.143939
0.143966
0.143992
0.143992
0.144018
0.144045
0.144071
0.144098
0.144098
0.144124
0.144151
0.144177
0.144204
0.144204
0.144231
0.144257
0.144284
0.144311
0.144311
0.144338
0.144364
0.144391
0.144418
0.144418
0.144445
0.144472
0.144499
0.144526
0.144526
0.144553
0.14458
0.144607
0.144634
0.144634
0.144661
0.144688
0.144715
0.144743
0.144743
0.14477
0.144797
0.144824
0.144852
0.144852
0.144879
0.144907
0.144934
0.144962
0.144962
0.144989
0.145017
0.145044
0.145072
0.145072
0.145099
0.145127
0.145155
0.145182
0.145182
0.14521
0.145238
0.145266
0.145294
0.145294
0.145322
0.145349
0.145377
0.145405
0.145405
0.145433
0.145461
0.145489
0.145518
0.145518
0.145546
0.145574
0.145602
0.14563
0.14563
0.145659
0.145687
0.145715
0.145743
0.145743
0.145772
0.1458
0.145829
0.145857
0.145857
0.145886
0.145914
0.145943
0.145971
0.145971
0.146
0.146029
0.146057
0.146086
0.146086
0.146115
0.146144
0.146172
0.146201
0.146201
0.14623
0.146259
0.146288
0.146317
0.146317
0.146346
0.146375
0.146404
0.146433
0.146433
0.146462
0.146492
0.146521
0.14655
0.14655
0.146579
0.146608
0.146638
0.146667
0.146667
0.146697
0.146726
0.146755
0.146785
0.146785
0.146814
0.146844
0.146874
0.146903
0.146903
0.146933
0.146962
0.146992
0.147022
0.147022
0.147052
0.147081
0.147111
0.147141
0.147141
0.147171
0.147201
0.147231
0.147261
0.147261
0.147291
0.147321
0.147351
0.147381
0.147381
0.147411
0.147441
0.147472
0.147502
0.147502
0.147532
0.147562
0.147593
0.147623
0.147623
0.147654
0.147684
0.147714
0.147745
0.147745
0.147775
0.147806
0.147837
0.147867
0.147867
0.147898
0.147929
0.147959
0.14799
0.14799
0.148021
0.148052
0.148082
0.148113
0.148113
0.148144
0.148175
0.148206
0.148237
0.148237
0.148268
0.148299
0.14833
0.148361
0.148361
0.148393
0.148424
0.148455
0.148486
0.148486
0.148518
0.148549
0.14858
0.148612
0.148612
0.148643
0.148675
0.148706
0.148738
0.148738
0.148769
0.148801
0.148832
0.148864
0.148864
0.148896
0.148927
0.148959
0.148991
0.148991
0.149023
0.149054
0.149086
0.149118
0.149118
0.14915
0.149182
0.149214
0.149246
0.149246
0.149278
0.14931
0.149342
0.149374
0.149374
0.149407
0.149439
0.149471
0.149503
0.149503
0.149536
0.149568
0.1496
0.149633
0.149633
0.149665
0.149698
0.14973
0.149763
0.149763
0.149795
0.149828
0.149861
0.149893
0.149893
0.149926
0.149959
0.149992
0.150024
0.150024
0.150057
0.15009
0.150123
0.150156
0.150156
0.150189
0.150222
0.150255
0.150288
0.150288
0.150321
0.150354
0.150387
0.15042
0.15042
0.150454
0.150487
0.15052
0.150553
0.150553
0.150587
0.15062
0.150654
0.150687
0.150687
0.150721
0.150754
0.150788
0.150821
0.150821
0.150855
0.150888
0.150922
0.150956
0.150956
0.150989
0.151023
0.151057
0.151091
0.151091
0.151125
0.151159
0.151193
0.151227
0.151227
0.151261
0.151295
0.151329
0.151363
0.151363
0.151397
0.151431
0.151465
0.151499
0.151499
0.151534
0.151568
0.151602
0.151637
0.151637
0.151671
0.151705
0.15174
0.151774
0.151774
0.151809
0.151843
0.151878
0.151913
0.151913
0.151947
0.151982
0.152017
0.152051
0.152051
0.152086
0.152121
0.152156
0.152191
0.152191
0.152226
0.152261
0.152296
0.152331
0.152331
0.152366
0.152401
0.152436
0.152471
0.152471
0.152506
0.152541
0.152577
0.152612
0.152612
0.152647
0.152682
0.152718
0.152753
0.152753
0.152789
0.152824
0.15286
0.152895
0.152895
0.152931
0.152966
0.153002
0.153038
0.153038
0.153073
0.153109
0.153145
0.153181
0.153181
0.153216
0.153252
0.153288
0.153324
0.153324
0.15336
0.153396
0.153432
0.153468
0.153468
0.153504
0.15354
0.153576
0.153613
0.153613
0.153649
0.153685
0.153721
0.153758
0.153758
0.153794
0.15383
0.153867
0.153903
0.153903
0.15394
0.153976
0.154013
0.154049
0.154049
0.154086
0.154123
0.154159
0.154196
0.154196
0.154233
0.15427
0.154307
0.154343
0.154343
0.15438
0.154417
0.154454
0.154491
0.154491
0.154528
0.154565
0.154602
0.154639
0.154639
0.154677
0.154714
0.154751
0.154788
0.154788
0.154825
0.154863
0.1549
0.154937
0.154937
0.154975
0.155012
0.15505
0.155087
0.155087
0.155125
0.155162
0.1552
0.155238
0.155238
0.155275
0.155313
0.155351
0.155389
0.155389
0.155426
0.155464
0.155502
0.15554
0.15554
0.155578
0.155616
0.155654
0.155692
0.155692
0.15573
0.155768
0.155806
0.155845
0.155845
0.155883
0.155921
0.155959
0.155998
0.155998
0.156036
0.156074
0.156113
0.156151
0.156151
0.15619
0.156228
0.156267
0.156305
0.156305
0.156344
0.156383
0.156421
0.15646
0.15646
0.156499
0.156538
0.156576
0.156615
0.156615
0.156654
0.156693
0.156732
0.156771
0.156771
0.15681
0.156849
0.156888
0.156927
0.156927
0.156966
0.157006
0.157045
0.157084
0.157084
0.157123
0.157163
0.157202
0.157241
0.157241
0.157281
0.15732
0.15736
0.157399
0.157399
0.157439
0.157478
0.157518
0.157558
0.157558
0.157597
0.157637
0.157677
0.157717
0.157717
0.157757
0.157796
0.157836
0.157876
0.157876
0.157916
0.157956
0.157996
0.158036
0.158036
0.158076
0.158117
0.158157
0.158197
0.158197
0.158237
0.158277
0.158318
0.158358
0.158358
0.158398
0.158439
0.158479
0.15852
0.15852
0.15856
0.158601
0.158641
0.158682
0.158682
0.158723
0.158763
0.158804
0.158845
0.158845
0.158885
0.158926
0.158967
0.159008
0.159008
0.159049
0.15909
0.159131
0.159172
0.159172
0.159213
0.159254
0.159295
0.159336
0.159336
0.159377
0.159419
0.15946
0.159501
0.159501
0.159543
0.159584
0.159625
0.159667
0.159667
0.159708
0.15975
0.159791
0.159833
0.159833
0.159874
0.159916
0.159958
0.159999
0.159999
0.160041
0.160083
0.160125
0.160166
0.160166
0.160208
0.16025
0.160292
0.160334
0.160334
0.160376
0.160418
0.16046
0.160502
0.160502
0.160544
0.160587
0.160629
0.160671
0.160671
0.160713
0.160756
0.160798
0.16084
0.16084
0.160883
0.160925
0.160968
0.16101
0.16101
0.161053
0.161095
0.161138
0.161181
0.161181
0.161223
0.161266
0.161309
0.161352
0.161352
0.161395
0.161437
0.16148
0.161523
0.161523
0.161566
0.161609
0.161652
0.161695
0.161695
0.161738
0.161782
0.161825
0.161868
0.161868
0.161911
0.161954
0.161998
0.162041
0.162041
0.162085
0.162128
0.162171
0.162215
0.162215
0.162258
0.162302
0.162346
0.162389
0.162389
0.162433
0.162476
0.16252
0.162564
0.162564
0.162608
0.162652
0.162695
0.162739
0.162739
0.162783
0.162827
0.162871
0.162915
0.162915
0.162959
0.163004
0.163048
0.163092
0.163092
0.163136
0.16318
0.163225
0.163269
0.163269
0.163313
0.163358
0.163402
0.163447
0.163447
0.163491
0.163536
0.16358
0.163625
0.163625
0.163669
0.163714
0.163759
0.163803
0.163803
0.163848
0.163893
0.163938
0.163983
0.163983
0.164028
0.164073
0.164118
0.164163
0.164163
0.164208
0.164253
0.164298
0.164343
0.164343
0.164388
0.164433
0.164479
0.164524
0.164524
0.164569
0.164615
0.16466
0.164705
0.164705
0.164751
0.164796
0.164842
0.164888
0.164888
0.164933
0.164979
0.165025
0.16507
0.16507
0.165116
0.165162
0.165208
0.165253
0.165253
0.165299
0.165345
0.165391
0.165437
0.165437
0.165483
0.165529
0.165575
0.165622
0.165622
0.165668
0.165714
0.16576
0.165806
0.165806
0.165853
0.165899
0.165946
0.165992
0.165992
0.166038
0.166085
0.166131
0.166178
0.166178
0.166225
0.166271
0.166318
0.166365
0.166365
0.166411
0.166458
0.166505
0.166552
0.166552
0.166599
0.166645
0.166692
0.166739
0.166739
0.166786
0.166834
0.166881
0.166928
0.166928
0.166975
0.167022
0.167069
0.167117
0.167117
0.167164
0.167211
0.167259
0.167306
0.167306
0.167353
0.167401
0.167448
0.167496
0.167496
0.167544
0.167591
0.167639
0.167687
0.167687
0.167734
0.167782
0.16783
0.167878
0.167878
0.167926
0.167973
0.168021
0.168069
0.168069
0.168117
0.168165
0.168214
0.168262
0.168262
0.16831
0.168358
0.168406
0.168454
0.168454
0.168503
0.168551
0.168599
0.168648
0.168648
0.168696
0.168745
0.168793
0.168842
0.168842
0.16889
0.168939
0.168988
0.169036
0.169036
0.169085
0.169134
0.169183
0.169232
0.169232
0.16928
0.169329
0.169378
0.169427
0.169427
0.169476
0.169525
0.169574
0.169623
0.169623
0.169673
0.169722
0.169771
0.16982
0.16982
0.16987
0.169919
0.169968
0.170018
0.170018
0.170067
0.170117
0.170166
0.170216
0.170216
0.170265
0.170315
0.170365
0.170414
0.170414
0.170464
0.170514
0.170564
0.170613
0.170613
0.170663
0.170713
0.170763
0.170813
0.170813
0.170863
0.170913
0.170963
0.171013
0.171013
0.171064
0.171114
0.171164
0.171214
0.171214
0.171265
0.171315
0.171365
0.171416
0.171416
0.171466
0.171517
0.171567
0.171618
0.171618
0.171668
0.171719
0.17177
0.17182
0.17182
0.171871
0.171922
0.171973
0.172024
0.172024
0.172074
0.172125
0.172176
0.172227
0.172227
0.172278
0.172329
0.172381
0.172432
0.172432
0.172483
0.172534
0.172585
0.172637
0.172637
0.172688
0.172739
0.172791
0.172842
0.172842
0.172894
0.172945
0.172997
0.173048
0.173048
0.1731
0.173151
0.173203
0.173255
0.173255
0.173307
0.173358
0.17341
0.173462
0.173462
0.173514
0.173566
0.173618
0.17367
0.17367
0.173722
0.173774
0.173826
0.173878
0.173878
0.173931
0.173983
0.174035
0.174087
0.174087
0.17414
0.174192
0.174244
0.174297
0.174297
0.174349
0.174402
0.174455
0.174507
0.174507
0.17456
0.174612
0.174665
0.174718
0.174718
0.174771
0.174823
0.174876
0.174929
0.174929
0.174982
0.175035
0.175088
0.175141
0.175141
0.175194
0.175247
0.1753
0.175354
0.175354
0.175407
0.17546
0.175513
0.175567
0.175567
0.17562
0.175674
0.175727
0.17578
0.17578
0.175834
0.175888
0.175941
0.175995
0.175995
0.176048
0.176102
0.176156
0.17621
0.17621
0.176263
0.176317
0.176371
0.176425
0.176425
0.176479
0.176533
0.176587
0.176641
0.176641
0.176695
0.176749
0.176804
0.176858
0.176858
0.176912
0.176966
0.177021
0.177075
0.177075
0.177129
0.177184
0.177238
0.177293
0.177293
0.177347
0.177402
0.177457
0.177511
0.177511
0.177566
0.177621
0.177675
0.17773
0.17773
0.177785
0.17784
0.177895
0.17795
0.17795
0.178005
0.17806
0.178115
0.17817
0.17817
0.178225
0.17828
0.178336
0.178391
0.178391
0.178446
0.178501
0.178557
0.178612
0.178612
0.178668
0.178723
0.178779
0.178834
0.178834
0.17889
0.178945
0.179001
0.179057
0.179057
0.179112
0.179168
0.179224
0.17928
0.17928
0.179336
0.179392
0.179448
0.179504
0.179504
0.17956
0.179616
0.179672
0.179728
0.179728
0.179784
0.17984
0.179897
0.179953
0.179953
0.180009
0.180066
0.180122
0.180179
0.180179
0.180235
0.180292
0.180348
0.180405
0.180405
0.180461
0.180518
0.180575
0.180631
0.180631
0.180688
0.180745
0.180802
0.180859
0.180859
0.180916
0.180973
0.18103
0.181087
0.181087
0.181144
0.181201
0.181258
0.181315
0.181315
0.181373
0.18143
0.181487
0.181545
0.181545
0.181602
0.181659
0.181717
0.181774
0.181774
0.181832
0.181889
0.181947
0.182005
0.182005
0.182062
0.18212
0.182178
0.182236
0.182236
0.182293
0.182351
0.182409
0.182467
0.182467
0.182525
0.182583
0.182641
0.182699
0.182699
0.182758
0.182816
0.182874
0.182932
0.182932
0.18299
0.183049
0.183107
0.183166
0.183166
0.183224
0.183282
0.183341
0.1834
0.1834
0.183458
0.183517
0.183575
0.183634
0.183634
0.183693
0.183752
0.18381
0.183869
0.183869
0.183928
0.183987
0.184046
0.184105
0.184105
0.184164
0.184223
0.184282
0.184342
0.184342
0.184401
0.18446
0.184519
0.184579
0.184579
0.184638
0.184697
0.184757
0.184816
0.184816
0.184876
0.184935
0.184995
0.185054
0.185054
0.185114
0.185174
0.185233
0.185293
0.185293
0.185353
0.185413
0.185473
0.185533
0.185533
0.185593
0.185653
0.185713
0.185773
0.185773
0.185833
0.185893
0.185953
0.186013
0.186013
0.186074
0.186134
0.186194
0.186255
0.186255
0.186315
0.186376
0.186436
0.186497
0.186497
0.186557
0.186618
0.186678
0.186739
0.186739
0.1868
0.186861
0.186921
0.186982
0.186982
0.187043
0.187104
0.187165
0.187226
0.187226
0.187287
0.187348
0.187409
0.18747
0.18747
0.187532
0.187593
0.187654
0.187715
0.187715
0.187777
0.187838
0.187899
0.187961
0.187961
0.188022
0.188084
0.188145
0.188207
0.188207
0.188269
0.18833
0.188392
0.188454
0.188454
0.188516
0.188577
0.188639
0.188701
0.188701
0.188763
0.188825
0.188887
0.188949
0.188949
0.189011
0.189074
0.189136
0.189198
0.189198
0.18926
0.189323
0.189385
0.189447
0.189447
0.18951
0.189572
0.189635
0.189697
0.189697
0.18976
0.189822
0.189885
0.189948
0.189948
0.19001
0.190073
0.190136
0.190199
0.190199
0.190262
0.190325
0.190388
0.190451
0.190451
0.190514
0.190577
0.19064
0.190703
0.190703
0.190766
0.190829
0.190893
0.190956
0.190956
0.191019
0.191083
0.191146
0.191209
0.191209
0.191273
0.191336
0.1914
0.191464
0.191464
0.191527
0.191591
0.191655
0.191719
0.191719
0.191782
0.191846
0.19191
0.191974
0.191974
0.192038
0.192102
0.192166
0.19223
0.19223
0.192294
0.192358
0.192423
0.192487
0.192487
0.192551
0.192615
0.19268
0.192744
0.192744
0.192809
0.192873
0.192938
0.193002
0.193002
0.193067
0.193131
0.193196
0.193261
0.193261
0.193325
0.19339
0.193455
0.19352
0.19352
0.193585
0.19365
0.193715
0.19378
0.19378
0.193845
0.19391
0.193975
0.19404
0.19404
0.194105
0.194171
0.194236
0.194301
0.194301
0.194367
0.194432
0.194498
0.194563
0.194563
0.194629
0.194694
0.19476
0.194825
0.194825
0.194891
0.194957
0.195023
0.195088
0.195088
0.195154
0.19522
0.195286
0.195352
0.195352
0.195418
0.195484
0.19555
0.195616
0.195616
0.195682
0.195749
0.195815
0.195881
0.195881
0.195947
0.196014
0.19608
0.196146
0.196146
0.196213
0.196279
0.196346
0.196413
0.196413
0.196479
0.196546
0.196613
0.196679
0.196679
0.196746
0.196813
0.19688
0.196947
0.196947
0.197014
0.197081
0.197148
0.197215
0.197215
0.197282
0.197349
0.197416
0.197483
0.197483
0.197551
0.197618
0.197685
0.197753
0.197753
0.19782
0.197888
0.197955
0.198023
0.198023
0.19809
0.198158
0.198225
0.198293
0.198293
0.198361
0.198429
0.198496
0.198564
0.198564
0.198632
0.1987
0.198768
0.198836
0.198836
0.198904
0.198972
0.19904
0.199109
0.199109
0.199177
0.199245
0.199313
0.199382
0.199382
0.19945
0.199518
0.199587
0.199655
0.199655
0.199724
0.199792
0.199861
0.19993
0.19993
0.199998
0.200067
0.200136
0.200205
0.200205
0.200273
0.200342
0.200411
0.20048
0.20048
0.200549
0.200618
0.200687
0.200756
0.200756
0.200826
0.200895
0.200964
0.201033
0.201033
0.201103
0.201172
0.201241
0.201311
0.201311
0.20138
0.20145
0.201519
0.201589
0.201589
0.201659
0.201728
0.201798
0.201868
0.201868
0.201938
0.202008
0.202077
0.202147
0.202147
0.202217
0.202287
0.202357
0.202427
0.202427
0.202498
0.202568
0.202638
0.202708
0.202708
0.202778
0.202849
0.202919
0.20299
0.20299
0.20306
0.20313
0.203201
0.203272
0.203272
0.203342
0.203413
0.203483
0.203554
0.203554
0.203625
0.203696
0.203767
0.203837
0.203837
0.203908
0.203979
0.20405
0.204121
0.204121
0.204193
0.204264
0.204335
0.204406
0.204406
0.204477
0.204549
0.20462
0.204691
0.204691
0.204763
0.204834
0.204906
0.204977
0.204977
0.205049
0.20512
0.205192
0.205264
0.205264
0.205335
0.205407
0.205479
0.205551
0.205551
0.205623
0.205695
0.205767
0.205839
0.205839
0.205911
0.205983
0.206055
0.206127
0.206127
0.206199
0.206271
0.206344
0.206416
0.206416
0.206488
0.206561
0.206633
0.206706
0.206706
0.206778
0.206851
0.206924
0.206996
0.206996
0.207069
0.207142
0.207214
0.207287
0.207287
0.20736
0.207433
0.207506
0.207579
0.207579
0.207652
0.207725
0.207798
0.207871
0.207871
0.207944
0.208018
0.208091
0.208164
0.208164
0.208238
0.208311
0.208384
0.208458
0.208458
0.208531
0.208605
0.208678
0.208752
0.208752
0.208826
0.208899
0.208973
0.209047
0.209047
0.209121
0.209195
0.209269
0.209343
0.209343
0.209417
0.209491
0.209565
0.209639
0.209639
0.209713
0.209787
0.209861
0.209936
0.209936
0.21001
0.210084
0.210159
0.210233
0.210233
0.210308
0.210382
0.210457
0.210531
0.210531
0.210606
0.210681
0.210755
0.21083
0.21083
0.210905
0.21098
0.211055
0.21113
0.21113
0.211205
0.21128
0.211355
0.21143
0.21143
0.211505
0.21158
0.211655
0.211731
0.211731
0.211806
0.211881
0.211957
0.212032
0.212032
0.212108
0.212183
0.212259
0.212334
0.212334
0.21241
0.212485
0.212561
0.212637
0.212637
0.212713
0.212789
0.212864
0.21294
0.21294
0.213016
0.213092
0.213168
0.213244
0.213244
0.21332
0.213397
0.213473
0.213549
0.213549
0.213625
0.213702
0.213778
0.213854
0.213854
0.213931
0.214007
0.214084
0.21416
0.21416
0.214237
0.214314
0.21439
0.214467
0.214467
0.214544
0.214621
0.214698
0.214775
0.214775
0.214851
0.214928
0.215005
0.215083
0.215083
0.21516
0.215237
0.215314
0.215391
0.215391
0.215468
0.215546
0.215623
0.2157
0.2157
0.215778
0.215855
0.215933
0.21601
0.21601
0.216088
0.216166
0.216243
0.216321
0.216321
0.216399
0.216477
0.216555
0.216632
0.216632
0.21671
0.216788
0.216866
0.216944
0.216944
0.217022
0.217101
0.217179
0.217257
0.217257
0.217335
0.217414
0.217492
0.21757
0.21757
0.217649
0.217727
0.217806
0.217884
0.217884
0.217963
0.218041
0.21812
0.218199
0.218199
0.218278
0.218356
0.218435
0.218514
0.218514
0.218593
0.218672
0.218751
0.21883
0.21883
0.218909
0.218988
0.219067
0.219147
0.219147
0.219226
0.219305
0.219384
0.219464
0.219464
0.219543
0.219623
0.219702
0.219782
0.219782
0.219861
0.219941
0.220021
0.2201
0.2201
0.22018
0.22026
0.22034
0.220419
0.220419
0.220499
0.220579
0.220659
0.220739
0.220739
0.220819
0.2209
0.22098
0.22106
0.22106
0.22114
0.22122
0.221301
0.221381
0.221381
0.221462
0.221542
0.221623
0.221703
0.221703
0.221784
0.221864
0.221945
0.222026
0.222026
0.222106
0.222187
0.222268
0.222349
0.222349
0.22243
0.222511
0.222592
0.222673
0.222673
0.222754
0.222835
0.222916
0.222997
0.222997
0.223079
0.22316
0.223241
0.223323
0.223323
0.223404
0.223485
0.223567
0.223648
0.223648
0.22373
0.223812
0.223893
0.223975
0.223975
0.224057
0.224139
0.22422
0.224302
0.224302
0.224384
0.224466
0.224548
0.22463
0.22463
0.224712
0.224794
0.224877
0.224959
0.224959
0.225041
0.225123
0.225206
0.225288
0.225288
0.22537
0.225453
0.225535
0.225618
0.225618
0.2257
0.225783
0.225866
0.225948
0.225948
0.226031
0.226114
0.226197
0.22628
0.22628
0.226363
0.226446
0.226529
0.226612
0.226612
0.226695
0.226778
0.226861
0.226944
0.226944
0.227027
0.227111
0.227194
0.227277
0.227277
0.227361
0.227444
0.227528
0.227611
0.227611
0.227695
0.227779
0.227862
0.227946
0.227946
0.22803
0.228114
0.228197
0.228281
0.228281
0.228365
0.228449
0.228533
0.228617
0.228617
0.228701
0.228785
0.22887
0.228954
0.228954
0.229038
0.229122
0.229207
0.229291
0.229291
0.229376
0.22946
0.229545
0.229629
0.229629
0.229714
0.229798
0.229883
0.229968
0.229968
0.230053
0.230137
0.230222
0.230307
0.230307
0.230392
0.230477
0.230562
0.230647
0.230647
0.230732
0.230817
0.230903
0.230988
0.230988
0.231073
0.231158
0.231244
0.231329
0.231329
0.231415
0.2315
0.231586
0.231671
0.231671
0.231757
0.231842
0.231928
0.232014
0.232014
0.2321
0.232185
0.232271
0.232357
0.232357
0.232443
0.232529
0.232615
0.232701
0.232701
0.232787
0.232874
0.23296
0.233046
0.233046
0.233132
0.233219
0.233305
0.233391
0.233391
0.233478
0.233564
0.233651
0.233737
0.233737
0.233824
0.233911
0.233997
0.234084
0.234084
0.234171
0.234258
0.234345
0.234432
0.234432
0.234519
0.234606
0.234693
0.23478
0.23478
0.234867
0.234954
0.235041
0.235129
0.235129
0.235216
0.235303
0.235391
0.235478
0.235478
0.235565
0.235653
0.235741
0.235828
0.235828
0.235916
0.236003
0.236091
0.236179
0.236179
0.236267
0.236355
0.236443
0.236531
0.236531
0.236618
0.236707
0.236795
0.236883
0.236883
0.236971
0.237059
0.237147
0.237236
0.237236
0.237324
0.237412
0.237501
0.237589
0.237589
0.237678
0.237766
0.237855
0.237943
0.237943
0.238032
0.238121
0.238209
0.238298
0.238298
0.238387
0.238476
0.238565
0.238654
0.238654
0.238743
0.238832
0.238921
0.23901
0.23901
0.239099
0.239189
0.239278
0.239367
0.239367
0.239456
0.239546
0.239635
0.239725
0.239725
0.239814
0.239904
0.239993
0.240083
0.240083
0.240173
0.240262
0.240352
0.240442
0.240442
0.240532
0.240622
0.240712
0.240802
0.240802
0.240892
0.240982
0.241072
0.241162
0.241162
0.241252
0.241343
0.241433
0.241523
0.241523
0.241614
0.241704
0.241794
0.241885
0.241885
0.241975
0.242066
0.242157
0.242247
0.242247
0.242338
0.242429
0.24252
0.24261
0.24261
0.242701
0.242792
0.242883
0.242974
0.242974
0.243065
0.243156
0.243247
0.243339
0.243339
0.24343
0.243521
0.243612
0.243704
0.243704
0.243795
0.243887
0.243978
0.24407
0.24407
0.244161
0.244253
0.244344
0.244436
0.244436
0.244528
0.24462
0.244712
0.244803
0.244803
0.244895
0.244987
0.245079
0.245171
0.245171
0.245263
0.245356
0.245448