<?xml version="1.0"?>
<VTKFile type="UnstructuredGrid" version="0.1" byte_order="LittleEndian">
<UnstructuredGrid>
<Piece NumberOfPoints="5000" NumberOfCells="4000">
<PointData Scalars="Reaction 0">
<DataArray type="Float32" Name="Reaction 0" format="ascii">
0.477772
0.477772
0.477772
0.477772
0.477772
0.477772
0.477772
0.477772
0.477773
0.477773
0.477773
0.477773
0.477774
0.477774
0.477774
0.477774
0.477775
0.477775
0.477776
0.477776
0.477776
0.477777
0.477778
0.477778
0.477779
0.477779
0.47778
0.47778
0.477781
0.477782
0.477782
0.477783
0.477784
0.477785
0.477786
0.477786
0.477787
0.477788
0.477789
0.47779
0.47779
0.477791
0.477792
0.477793
0.477795
0.477795
0.477796
0.477797
0.477799
0.4778
0.4778
0.477802
0.477803
0.477805
0.477806
0.477806
0.477808
0.477809
0.477811
0.477813
0.477813
0.477814
0.477816
0.477818
0.47782
0.47782
0.477822
0.477823
0.477825
0.477827
0.477827
0.477829
0.477831
0.477833
0.477836
0.477836
0.477838
0.47784
0.477842
0.477844
0.477844
0.477847
0.477849
0.477851
0.477854
0.477854
0.477856
0.477859
0.477861
0.477864
0.477864
0.477866
0.477869
0.477871
0.477874
0.477874
0.477877
0.47788
0.477882
0.477885
0.477885
0.477888
0.477891
0.477894
0.477897
0.477897
0.4779
0.477903
0.477906
0.477909
0.477909
0.477912
0.477915
0.477919
0.477922
0.477922
0.477925
0.477928
0.477932
0.477935
0.477935
0.477939
0.477942
0.477945
0.477949
0.477949
0.477953
0.477956
0.47796
0.477963
0.477963
0.477967
0.477971
0.477975
0.477978
0.477978
0.477982
0.477986
0.47799
0.477994
0.477994
0.477998
0.478002
0.478006
0.47801
0.47801
0.478014
0.478019
0.478023
0.478027
0.478027
0.478031
0.478036
0.47804
0.478044
0.478044
0.478049
0.478053
0.478058
0.478062
0.478062
0.478067
0.478071
0.478076
0.478081
0.478081
0.478085
0.47809
0.478095
0.4781
0.4781
0.478104
0.478109
0.478114
0.478119
0.478119
0.478124
0.478129
0.478134
0.478139
0.478139
0.478144
0.47815
0.478155
0.47816
0.47816
0.478165
0.478171
0.478176
0.478181
0.478181
0.478187
0.478192
0.478198
0.478203
0.478203
0.478209
0.478214
0.47822
0.478226
0.478226
0.478231
0.478237
0.478243
0.478249
0.478249
0.478254
0.47826
0.478266
0.478272
0.478272
0.478278
0.478284
0.47829
0.478296
0.478296
0.478302
0.478308
0.478315
0.478321
0.478321
0.478327
0.478333
0.47834
0.478346
0.478346
0.478353
0.478359
0.478365
0.478372
0.478372
0.478378
0.478385
0.478392
0.478398
0.478398
0.478405
0.478412
0.478419
0.478425
0.478425
0.478432
0.478439
0.478446
0.478453
0.478453
0.47846
0.478467
0.478474
0.478481
0.478481
0.478488
0.478495
0.478502
0.47851
0.47851
0.478517
0.478524
0.478531
0.478539
0.478539
0.478546
0.478554
0.478561
0.478569
0.478569
0.478576
0.478584
0.478591
0.478599
0.478599
0.478607
0.478614
0.478622
0.47863
0.47863
0.478638
0.478646
0.478654
0.478661
0.478661
0.478669
0.478677
0.478685
0.478694
0.478694
0.478702
0.47871
0.478718
0.478726
0.478726
0.478734
0.478743
0.478751
0.478759
0.478759
0.478768
0.478776
0.478785
0.478793
0.478793
0.478802
0.47881
0.478819
0.478828
0.478828
0.478836
0.478845
0.478854
0.478863
0.478863
0.478871
0.47888
0.478889
0.478898
0.478898
0.478907
0.478916
0.478925
0.478934
0.478934
0.478943
0.478952
0.478961
0.478971
0.478971
0.47898
0.478989
0.478999
0.479008
0.479008
0.479017
0.479027
0.479036
0.479046
0.479046
0.479055
0.479065
0.479074
0.479084
0.479084
0.479094
0.479103
0.479113
0.479123
0.479123
0.479133
0.479143
0.479153
0.479162
0.479162
0.479172
0.479182
0.479192
0.479203
0.479203
0.479213
0.479223
0.479233
0.479243
0.479243
0.479253
0.479264
0.479274
0.479284
0.479284
0.479295
0.479305
0.479316
0.479326
0.479326
0.479337
0.479347
0.479358
0.479368
0.479368
0.479379
0.47939
0.479401
0.479411
0.479411
0.479422
0.479433
0.479444
0.479455
0.479455
0.479466
0.479477
0.479488
0.479499
0.479499
0.47951
0.479521
0.479532
0.479544
0.479544
0.479555
0.479566
0.479577
0.479589
0.479589
0.4796
0.479612
0.479623
0.479635
0.479635
0.479646
0.479658
0.479669
0.479681
0.479681
0.479693
0.479704
0.479716
0.479728
0.479728
0.47974
0.479751
0.479763
0.479775
0.479775
0.479787
0.479799
0.479811
0.479823
0.479823
0.479835
0.479848
0.47986
0.479872
0.479872
0.479884
0.479897
0.479909
0.479921
0.479921
0.479934
0.479946
0.479958
0.479971
0.479971
0.479984
0.479996
0.480009
0.480021
0.480021
0.480034
0.480047
0.480059
0.480072
0.480072
0.480085
0.480098
0.480111
0.480124
0.480124
0.480137
0.48015
0.480163
0.480176
0.480176
0.480189
0.480202
0.480215
0.480228
0.480228
0.480242
0.480255
0.480268
0.480282
0.480282
0.480295
0.480309
0.480322
0.480336
0.480336
0.480349
0.480363
0.480376
0.48039
0.48039
0.480404
0.480417
0.480431
0.480445
0.480445
0.480459
0.480472
0.480486
0.4805
0.4805
0.480514
0.480528
0.480542
0.480556
0.480556
0.480571
0.480585
0.480599
0.480613
0.480613
0.480627
0.480642
0.480656
0.48067
0.48067
0.480685
0.480699
0.480714
0.480728
0.480728
0.480743
0.480757
0.480772
0.480787
0.480787
0.480801
0.480816
0.480831
0.480845
0.480845
0.48086
0.480875
0.48089
0.480905
0.480905
0.48092
0.480935
0.48095
0.480965
0.480965
0.48098
0.480995
0.481011
0.481026
0.481026
0.481041
0.481056
0.481072
0.481087
0.481087
0.481102
0.481118
0.481133
0.481149
0.481149
0.481164
0.48118
0.481196
0.481211
0.481211
0.481227
0.481243
0.481259
0.481274
0.481274
0.48129
0.481306
0.481322
0.481338
0.481338
0.481354
0.48137
0.481386
0.481402
0.481402
0.481418
0.481434
0.481451
0.481467
0.481467
0.481483
0.481499
0.481516
0.481532
0.481532
0.481548
0.481565
0.481581
0.481598
0.481598
0.481614
0.481631
0.481648
0.481664
0.481664
0.481681
0.481698
0.481715
0.481731
0.481731
0.481748
0.481765
0.481782
0.481799
0.481799
0.481816
0.481833
0.48185
0.481867
0.481867
0.481884
0.481902
0.481919
0.481936
0.481936
0.481953
0.481971
0.481988
0.482005
0.482005
0.482023
0.48204
0.482058
0.482075
0.482075
0.482093
0.48211
0.482128
0.482146
0.482146
0.482163
0.482181
0.482199
0.482217
0.482217
0.482235
0.482253
0.48227
0.482288
0.482288
0.482306
0.482324
0.482343
0.482361
0.482361
0.482379
0.482397
0.482415
0.482433
0.482433
0.482452
0.48247
0.482488
0.482507
0.482507
0.482525
0.482544
0.482562
0.482581
0.482581
0.482599
0.482618
0.482637
0.482655
0.482655
0.482674
0.482693
0.482712
0.482731
0.482731
0.482749
0.482768
0.482787
0.482806
0.482806
0.482825
0.482844
0.482863
0.482883
0.482883
0.482902
0.482921
0.48294
0.482959
0.482959
0.482979
0.482998
0.483017
0.483037
0.483037
0.483056
0.483076
0.483095
0.483115
0.483115
0.483134
0.483154
0.483174
0.483193
0.483193
0.483213
0.483233
0.483253
0.483273
0.483273
0.483293
0.483313
0.483332
0.483352
0.483352
0.483372
0.483393
0.483413
0.483433
0.483433
0.483453
0.483473
0.483493
0.483514
0.483514
0.483534
0.483554
0.483575
0.483595
0.483595
0.483616
0.483636
0.483657
0.483677
0.483677
0.483698
0.483719
0.483739
0.48376
0.48376
0.483781
0.483802
0.483822
0.483843
0.483843
0.483864
0.483885
0.483906
0.483927
0.483927
0.483948
0.483969
0.48399
0.484012
0.484012
0.484033
0.484054
0.484075
0.484097
0.484097
0.484118
0.484139
0.484161
0.484182
0.484182
0.484204
0.484225
0.484247
0.484268
0.484268
0.48429
0.484312
0.484333
0.484355
0.484355
0.484377
0.484399
0.484421
0.484443
0.484443
0.484465
0.484486
0.484508
0.484531
0.484531
0.484553
0.484575
0.484597
0.484619
0.484619
0.484641
0.484664
0.484686
0.484708
0.484708
0.484731
0.484753
0.484775
0.484798
0.484798
0.48482
0.484843
0.484866
0.484888
0.484888
0.484911
0.484934
0.484956
0.484979
0.484979
0.485002
0.485025
0.485048
0.48507
0.48507
0.485093
0.485116
0.485139
0.485163
0.485163
0.485186
0.485209
0.485232
0.485255
0.485255
0.485278
0.485302
0.485325
0.485348
0.485348
0.485372
0.485395
0.485419
0.485442
0.485442
0.485466
0.485489
0.485513
0.485537
0.485537
0.48556
0.485584
0.485608
0.485632
0.485632
0.485655
0.485679
0.485703
0.485727
0.485727
0.485751
0.485775
0.485799
0.485823
0.485823
0.485847
0.485872
0.485896
0.48592
0.48592
0.485944
0.485969
0.485993
0.486017
0.486017
0.486042
0.486066
0.486091
0.486115
0.486115
0.48614
0.486164
0.486189
0.486214
0.486214
0.486238
0.486263
0.486288
0.486313
0.486313
0.486338
0.486363
0.486388
0.486413
0.486413
0.486438
0.486463
0.486488
0.486513
0.486513
0.486538
0.486563
0.486588
0.486614
0.486614
0.486639
0.486664
0.48669
0.486715
0.486715
0.486741
0.486766
0.486792
0.486817
0.486817
0.486843
0.486868
0.486894
0.48692
0.48692
0.486946
0.486971
0.486997
0.487023
0.487023
0.487049
0.487075
0.487101
0.487127
0.487127
0.487153
0.487179
0.487205
0.487231
0.487231
0.487258
0.487284
0.48731
0.487336
0.487336
0.487363
0.487389
0.487415
0.487442
0.487442
0.487468
0.487495
0.487522
0.487548
0.487548
0.487575
0.487601
0.487628
0.487655
0.487655
0.487682
0.487709
0.487735
0.487762
0.487762
0.487789
0.487816
0.487843
0.48787
0.48787
0.487897
0.487924
0.487952
0.487979
0.487979
0.488006
0.488033
0.488061
0.488088
0.488088
0.488115
0.488143
0.48817
0.488198
0.488198
0.488225
0.488253
0.48828
0.488308
0.488308
0.488336
0.488364
0.488391
0.488419
0.488419
0.488447
0.488475
0.488503
0.488531
0.488531
0.488559
0.488587
0.488615
0.488643
0.488643
0.488671
0.488699
0.488727
0.488755
0.488755
0.488784
0.488812
0.48884
0.488869
0.488869
0.488897
0.488926
0.488954
0.488983
0.488983
0.489011
0.48904
0.489069
0.489097
0.489097
0.489126
0.489155
0.489184
0.489212
0.489212
0.489241
0.48927
0.489299
0.489328
0.489328
0.489357
0.489386
0.489415
0.489444
0.489444
0.489474
0.489503
0.489532
0.489561
0.489561
0.489591
0.48962
0.489649
0.489679
0.489679
0.489708
0.489738
0.489767
0.489797
0.489797
0.489827
0.489856
0.489886
0.489916
0.489916
0.489945
0.489975
0.490005
0.490035
0.490035
0.490065
0.490095
0.490125
0.490155
0.490155
0.490185
0.490215
0.490245
0.490275
0.490275
0.490306
0.490336
0.490366
0.490397
0.490397
0.490427
0.490457
0.490488
0.490518
0.490518
0.490549
0.490579
0.49061
0.490641
0.490641
0.490671
0.490702
0.490733
0.490764
0.490764
0.490794
0.490825
0.490856
0.490887
0.490887
0.490918
0.490949
0.49098
0.491011
0.491011
0.491042
0.491073
0.491105
0.491136
0.491136
0.491167
0.491199
0.49123
0.491261
0.491261
0.491293
0.491324
0.491356
0.491387
0.491387
0.491419
0.49145
0.491482
0.491514
0.491514
0.491545
0.491577
0.491609
0.491641
0.491641
0.491673
0.491705
0.491737
0.491769
0.491769
0.491801
0.491833
0.491865
0.491897
0.491897
0.491929
0.491961
0.491994
0.492026
0.492026
0.492058
0.492091
0.492123
0.492156
0.492156
0.492188
0.492221
0.492253
0.492286
0.492286
0.492318
0.492351
0.492384
0.492416
0.492416
0.492449
0.492482
0.492515
0.492548
0.492548
0.492581
0.492614
0.492647
0.49268
0.49268
0.492713
0.492746
0.492779
0.492812
0.492812
0.492846
0.492879
0.492912
0.492946
0.492946
0.492979
0.493012
0.493046
0.493079
0.493079
0.493113
0.493147
0.49318
0.493214
0.493214
0.493248
0.493281
0.493315
0.493349
0.493349
0.493383
0.493417
0.493451
0.493485
0.493485
0.493519
0.493553
0.493587
0.493621
0.493621
0.493655
0.493689
0.493723
0.493758
0.493758
0.493792
0.493826
0.493861
0.493895
0.493895
0.49393
0.493964
0.493999
0.494033
0.494033
0.494068
0.494102
0.494137
0.494172
0.494172
0.494207
0.494241
0.494276
0.494311
0.494311
0.494346
0.494381
0.494416
0.494451
0.494451
0.494486
0.494521
0.494556
0.494592
0.494592
0.494627
0.494662
0.494697
0.494733
0.494733
0.494768
0.494804
0.494839
0.494875
0.494875
0.49491
0.494946
0.494981
0.495017
0.495017
0.495053
0.495088
0.495124
0.49516
0.49516
0.495196
0.495232
0.495268
0.495304
0.495304
0.49534
0.495376
0.495412
0.495448
0.495448
0.495484
0.49552
0.495556
0.495593
0.495593
0.495629
0.495665
0.495702
0.495738
0.495738
0.495774
0.495811
0.495848
0.495884
0.495884
0.495921
0.495957
0.495994
0.496031
0.496031
0.496068
0.496104
0.496141
0.496178
0.496178
0.496215
0.496252
0.496289
0.496326
0.496326
0.496363
0.4964
0.496437
0.496475
0.496475
0.496512
0.496549
0.496586
0.496624
0.496624
0.496661
0.496698
0.496736
0.496773
0.496773
0.496811
0.496849
0.496886
0.496924
0.496924
0.496962
0.496999
0.497037
0.497075
0.497075
0.497113
0.497151
0.497188
0.497226
0.497226
0.497264
0.497303
0.497341
0.497379
0.497379
0.497417
0.497455
0.497493
0.497532
0.497532
0.49757
0.497608
0.497647
0.497685
0.497685
0.497724
0.497762
0.497801
0.497839
0.497839
0.497878
0.497916
0.497955
0.497994
0.497994
0.498033
0.498072
0.49811
0.498149
0.498149
0.498188
0.498227
0.498266
0.498305
0.498305
0.498344
0.498383
0.498423
0.498462
0.498462
0.498501
0.49854
0.49858
0.498619
0.498619
0.498658
0.498698
0.498737
0.498777
0.498777
0.498816
0.498856
0.498896
0.498935
0.498935
0.498975
0.499015
0.499055
0.499095
0.499095
0.499134
0.499174
0.499214
0.499254
0.499254
0.499294
0.499334
0.499374
0.499415
0.499415
0.499455
0.499495
0.499535
0.499576
0.499576
0.499616
0.499656
0.499697
0.499737
0.499737
0.499778
0.499818
0.499859
0.499899
0.499899
0.49994
0.499981
0.500022
0.500062
0.500062
0.500103
0.500144
0.500185
0.500226
0.500226
0.500267
0.500308
0.500349
0.50039
0.50039
0.500431
0.500472
0.500513
0.500555
0.500555
0.500596
0.500637
0.500679
0.50072
0.50072
0.500762
0.500803
0.500845
0.500886
0.500886
0.500928
0.500969
0.501011
0.501053
0.501053
0.501094
0.501136
0.501178
0.50122
0.50122
0.501262
0.501304
0.501346
0.501388
0.501388
0.50143
0.501472
0.501514
0.501556
0.501556
0.501599
0.501641
0.501683
0.501726
0.501726
0.501768
0.50181
0.501853
0.501895
0.501895
0.501938
0.501981
0.502023
0.502066
0.502066
0.502109
0.502151
0.502194
0.502237
0.502237
0.50228
0.502323
0.502366
0.502409
0.502409
0.502452
0.502495
0.502538
0.502581
0.502581
0.502624
0.502667
0.502711
0.502754
0.502754
0.502797
0.502841
0.502884
0.502928
0.502928
0.502971
0.503015
0.503058
0.503102
0.503102
0.503146
0.503189
0.503233
0.503277
0.503277
0.503321
0.503364
0.503408
0.503452
0.503452
0.503496
0.50354
0.503584
0.503629
0.503629
0.503673
0.503717
0.503761
0.503805
0.503805
0.50385
0.503894
0.503938
0.503983
0.503983
0.504027
0.504072
0.504116
0.504161
0.504161
0.504206
0.50425
0.504295
0.50434
0.50434
0.504384
0.504429
0.504474
0.504519
0.504519
0.504564
0.504609
0.504654
0.504699
0.504699
0.504744
0.504789
0.504834
0.50488
0.50488
0.504925
0.50497
0.505016
0.505061
0.505061
0.505106
0.505152
0.505197
0.505243
0.505243
0.505289
0.505334
0.50538
0.505426
0.505426
0.505471
0.505517
0.505563
0.505609
0.505609
0.505655
0.505701
0.505747
0.505793
0.505793
0.505839
0.505885
0.505931
0.505977
0.505977
0.506023
0.50607
0.506116
0.506162
0.506162
0.506209
0.506255
0.506302
0.506348
0.506348
0.506395
0.506441
0.506488
0.506535
0.506535
0.506581
0.506628
0.506675
0.506722
0.506722
0.506769
0.506816
0.506863
0.50691
0.50691
0.506957
0.507004
0.507051
0.507098
0.507098
0.507145
0.507192
0.50724
0.507287
0.507287
0.507334
0.507382
0.507429
0.507477
0.507477
0.507524
0.507572
0.507619
0.507667
0.507667
0.507715
0.507763
0.50781
0.507858
0.507858
0.507906
0.507954
0.508002
0.50805
0.50805
0.508098
0.508146
0.508194
0.508242
0.508242
0.50829
0.508339
0.508387
0.508435
0.508435
0.508483
0.508532
0.50858
0.508629
0.508629
0.508677
0.508726
0.508774
0.508823
0.508823
0.508872
0.50892
0.508969
0.509018
0.509018
0.509067
0.509116
0.509165
0.509214
0.509214
0.509263
0.509312
0.509361
0.50941
0.50941
0.509459
0.509508
0.509557
0.509607
0.509607
0.509656
0.509705
0.509755
0.509804
0.509804
0.509854
0.509903
0.509953
0.510003
0.510003
0.510052
0.510102
0.510152
0.510201
0.510201
0.510251
0.510301
0.510351
0.510401
0.510401
0.510451
0.510501
0.510551
0.510601
0.510601
0.510651
0.510701
0.510752
0.510802
0.510802
0.510852
0.510903
0.510953
0.511004
0.511004
0.511054
0.511105
0.511155
0.511206
0.511206
0.511256
0.511307
0.511358
0.511409
0.511409
0.511459
0.51151
0.511561
0.511612
0.511612
0.511663
0.511714
0.511765
0.511816
0.511816
0.511867
0.511919
0.51197
0.512021
0.512021
0.512072
0.512124
0.512175
0.512227
0.512227
0.512278
0.51233
0.512381
0.512433
0.512433
0.512484
0.512536
0.512588
0.51264
0.51264
0.512691
0.512743
0.512795
0.512847
0.512847
0.512899
0.512951
0.513003
0.513055
0.513055
0.513107
0.51316
0.513212
0.513264
0.513264
0.513316
0.513369
0.513421
0.513474
0.513474
0.513526
0.513579
0.513631
0.513684
0.513684
0.513737
0.513789
0.513842
0.513895
0.513895
0.513948
0.514
0.514053
0.514106
0.514106
0.514159
0.514212
0.514265
0.514318
0.514318
0.514372
0.514425
0.514478
0.514531
0.514531
0.514585
0.514638
0.514691
0.514745
0.514745
0.514798
0.514852
0.514905
0.514959
0.514959
0.515013
0.515066
0.51512
0.515174
0.515174
0.515228
0.515282
0.515336
0.515389
0.515389
0.515443
0.515498
0.515552
0.515606
0.515606
0.51566
0.515714
0.515768
0.515823
0.515823
0.515877
0.515931
0.515986
0.51604
0.51604
0.516095
0.516149
0.516204
0.516258
0.516258
0.516313
0.516368
0.516423
0.516477
0.516477
0.516532
0.516587
0.516642
0.516697
0.516697
0.516752
0.516807
0.516862
0.516917
0.516917
0.516973
0.517028
0.517083
0.517138
0.517138
0.517194
0.517249
0.517305
0.51736
0.51736
0.517416
0.517471
0.517527
0.517582
0.517582
0.517638
0.517694
0.51775
0.517805
0.517805
0.517861
0.517917
0.517973
0.518029
0.518029
0.518085
0.518141
0.518197
0.518254
0.518254
0.51831
0.518366
0.518422
0.518479
0.518479
0.518535
0.518591
0.518648
0.518704
0.518704
0.518761
0.518818
0.518874
0.518931
0.518931
0.518988
0.519044
0.519101
0.519158
0.519158
0.519215
0.519272
0.519329
0.519386
0.519386
0.519443
0.5195
0.519557
0.519614
0.519614
0.519672
0.519729
0.519786
0.519844
0.519844
0.519901
0.519958
0.520016
0.520073
0.520073
0.520131
0.520189
0.520246
0.520304
0.520304
0.520362
0.52042
0.520477
0.520535
0.520535
0.520593
0.520651
0.520709
0.520767
0.520767
0.520825
0.520884
0.520942
0.521
0.521
0.521058
0.521117
0.521175
0.521233
0.521233
0.521292
0.52135
0.521409
0.521467
0.521467
0.521526
0.521585
0.521643
0.521702
0.521702
0.521761
0.52182
0.521879
0.521938
0.521938
0.521997
0.522056
0.522115
0.522174
0.522174
0.522233
0.522292
0.522351
0.522411
0.522411
0.52247
0.522529
0.522589
0.522648
0.522648
0.522708
0.522767
0.522827
0.522886
0.522886
0.522946
0.523006
0.523065
0.523125
0.523125
0.523185
0.523245
0.523305
0.523365
0.523365
0.523425
0.523485
0.523545
0.523605
0.523605
0.523665
0.523726
0.523786
0.523846
0.523846
0.523907
0.523967
0.524028
0.524088
0.524088
0.524149
0.524209
0.52427
0.52433
0.52433
0.524391
0.524452
0.524513
0.524574
0.524574
0.524635
0.524695
0.524756
0.524818
0.524818
0.524879
0.52494
0.525001
0.525062
0.525062
0.525123
0.525185
0.525246
0.525307
0.525307
0.525369
0.52543
0.525492
0.525553
0.525553
0.525615
0.525677
0.525738
0.5258
0.5258
0.525862
0.525924
0.525986
0.526047
0.526047
0.526109
0.526171
0.526233
0.526296
0.526296
0.526358
0.52642
0.526482
0.526544
0.526544
0.526607
0.526669
0.526731
0.526794
0.526794
0.526856
0.526919
0.526982
0.527044
0.527044
0.527107
0.52717
0.527232
0.527295
0.527295
0.527358
0.527421
0.527484
0.527547
0.527547
0.52761
0.527673
0.527736
0.527799
0.527799
0.527862
0.527926
0.527989
0.528052
0.528052
0.528116
0.528179
0.528243
0.528306
0.528306
0.52837
0.528433
0.528497
0.528561
0.528561
0.528624
0.528688
0.528752
0.528816
0.528816
0.52888
0.528944
0.529008
0.529072
0.529072
0.529136
0.5292
0.529264
0.529329
0.529329
0.529393
0.529457
0.529522
0.529586
0.529586
0.52965
0.529715
0.52978
0.529844
0.529844
0.529909
0.529973
0.530038
0.530103
0.530103
0.530168
0.530233
0.530298
0.530363
0.530363
0.530428
0.530493
0.530558
0.530623
0.530623
0.530688
0.530753
0.530819
0.530884
0.530884
0.530949
0.531015
0.53108
0.531146
0.531146
0.531211
0.531277
0.531343
0.531408
0.531408
0.531474
0.53154
0.531606
0.531671
0.531671
0.531737
0.531803
0.531869
0.531935
0.531935
0.532002
0.532068
0.532134
0.5322
0.5322
0.532266
0.532333
0.532399
0.532466
0.532466
0.532532
0.532599
0.532665
0.532732
0.532732
0.532798
0.532865
0.532932
0.532999
0.532999
0.533065
0.533132
0.533199
0.533266
0.533266
0.533333
0.5334
0.533467
0.533535
0.533535
0.533602
0.533669
0.533736
0.533804
0.533804
0.533871
0.533938
0.534006
0.534073
0.534073
0.534141
0.534209
0.534276
0.534344
0.534344
0.534412
0.53448
0.534547
0.534615
0.534615
0.534683
0.534751
0.534819
0.534887
0.534887
0.534955
0.535024
0.535092
0.53516
0.53516
0.535228
0.535297
0.535365
0.535434
0.535434
0.535502
0.535571
0.535639
0.535708
0.535708
0.535777
0.535845
0.535914
0.535983
0.535983
0.536052
0.536121
0.53619
0.536259
0.536259
0.536328
0.536397
0.536466
0.536535
0.536535
0.536604
0.536674
0.536743
0.536812
0.536812
0.536882
0.536951
0.537021
0.53709
0.53709
0.53716
0.53723
0.537299
0.537369
0.537369
0.537439
0.537509
0.537579
0.537649
0.537649
0.537719
0.537789
0.537859
0.537929
0.537929
0.537999
0.538069
0.53814
0.53821
0.53821
0.53828
0.538351
0.538421
0.538492
0.538492
0.538562
0.538633
0.538703
0.538774
0.538774
0.538845
0.538916
0.538986
0.539057
0.539057
0.539128
0.539199
0.53927
0.539341
0.539341
0.539413
0.539484
0.539555
0.539626
0.539626
0.539697
0.539769
0.53984
0.539912
0.539912
0.539983
0.540055
0.540126
0.540198
0.540198
0.54027
0.540341
0.540413
0.540485
0.540485
0.540557
0.540629
0.540701
0.540773
0.540773
0.540845
0.540917
0.540989
0.541061
0.541061
0.541134
0.541206
0.541278
0.541351
0.541351
0.541423
0.541496
0.541568
0.541641
0.541641
0.541713
0.541786
0.541859
0.541932
0.541932
0.542004
0.542077
0.54215
0.542223
0.542223
0.542296
0.542369
0.542442
0.542516
0.542516
0.542589
0.542662
0.542735
0.542809
0.542809
0.542882
0.542956
0.543029
0.543103
0.543103
0.543176
0.54325
0.543324
0.543397
0.543397
0.543471
0.543545
0.543619
0.543693
0.543693
0.543767
0.543841
0.543915
0.543989
0.543989
0.544063
0.544137
0.544212
0.544286
0.544286
0.54436
0.544435
0.544509
0.544584
0.544584
0.544658
0.544733
0.544808
0.544882
0.544882
0.544957
0.545032
0.545107
0.545182
0.545182
0.545257
0.545332
0.545407
0.545482
0.545482
0.545557
0.545632
0.545707
0.545783
0.545783
0.545858
0.545933
0.546009
0.546084
0.546084
0.54616
0.546236
0.546311
0.546387
0.546387
0.546463
0.546538
0.546614
0.54669
0.54669
0.546766
0.546842
0.546918
0.546994
0.546994
0.54707
0.547146
0.547223
0.547299
0.547299
0.547375
0.547452
0.547528
0.547604
0.547604
0.547681
0.547758
0.547834
0.547911
0.547911
0.547988
0.548064
0.548141
0.548218
0.548218
0.548295
0.548372
0.548449
0.548526
0.548526
0.548603
0.54868
0.548757
0.548835
0.548835
0.548912
0.548989
0.549067
0.549144
0.549144
0.549222
0.549299
0.549377
0.549455
0.549455
0.549532
0.54961
0.549688
0.549766
0.549766
0.549844
0.549921
0.549999
0.550078
0.550078
0.550156
0.550234
0.550312
0.55039
0.55039
0.550469
0.550547
0.550625
0.550704
0.550704
0.550782
0.550861
0.550939
0.551018
0.551018
0.551097
0.551175
0.551254
0.551333
0.551333
0.551412
0.551491
0.55157
0.551649
0.551649
0.551728
0.551807
0.551886
0.551966
0.551966
0.552045
0.552124
0.552204
0.552283
0.552283
0.552363
0.552442
0.552522
0.552601
0.552601
0.552681
0.552761
0.552841
0.552921
0.552921
0.553001
0.55308
0.55316
0.553241
0.553241
0.553321
0.553401
0.553481
0.553561
0.553561
0.553642
0.553722
0.553802
0.553883
0.553883
0.553963
0.554044
0.554124
0.554205
0.554205
0.554286
0.554367
0.554447
0.554528
0.554528
0.554609
0.55469
0.554771
0.554852
0.554852
0.554933
0.555014
0.555096
0.555177
0.555177
0.555258
0.55534
0.555421
0.555503
0.555503
0.555584
0.555666
0.555747
0.555829
0.555829
0.555911
0.555992
0.556074
0.556156
0.556156
0.556238
0.55632
0.556402
0.556484
0.556484
0.556566
0.556649
0.556731
0.556813
0.556813
0.556895
0.556978
0.55706
0.557143
0.557143
0.557225
0.557308
0.557391
0.557473
0.557473
0.557556
0.557639
0.557722
0.557805
0.557805
0.557888
0.557971
0.558054
0.558137
0.558137
0.55822
0.558303
0.558386
0.55847
0.55847
0.558553
0.558637
0.55872
0.558804
0.558804
0.558887
0.558971
0.559054
0.559138
0.559138
0.559222
0.559305
0.559389
0.559473
0.559473
0.559556
0.559639
0.559721
0.559802
0.559802
0.559882
0.559958
0.56003
0.560098
0.560098
0.560162
0.560225
0.560288
0.560349
0.560349
0.560411
0.560472
0.560534
0.560595
0.560595
0.560656
0.560717
0.560779
0.56084
0.56084
0.560902
0.560963
0.561024
0.561086
0.561086
0.561147
0.561209
0.561271
0.561332
0.561332
0.561394
0.561455
0.561517
0.561579
0.561579
0.56164
0.561702
0.561764
0.561825
0.561825
0.561887
0.561948
0.562009
0.56207
0.56207
0.56213
0.562189
0.562247
0.562304
0.562304
0.562357
0.562408
0.562456
0.562501
0.562501
0.562544
0.562587
0.562628
0.562668
0.562668
0.562708
0.562748
0.562788
0.562827
0.562827
0.562867
0.562906
0.562946
0.562985
0.562985
0.563025
0.563064
0.563104
0.563143
0.563143
0.563183
0.563222
0.563262
0.563301
0.563301
0.563341
0.563381
0.56342
0.56346
0.56346
0.563499
0.563538
0.563578
0.563617
0.563617
0.563656
0.563694
0.563732
0.563769
0.563769
0.563805
0.56384
0.563874
0.563906
0.563906
0.563937
0.563967
0.563995
0.564022
0.564022
0.564047
0.564073
0.564097
0.564122
0.564122
0.564146
0.564169
0.564193
0.564217
0.564217
0.56424
0.564264
0.564287
0.56431
0.56431
0.564334
0.564357
0.564381
0.564404
0.564404
0.564428
0.564451
0.564474
0.564498
0.564498
0.564521
0.564544
0.564567
0.564591
0.564591
0.564614
0.564636
0.564659
0.564681
0.564681
0.564703
0.564724
0.564745
0.564765
0.564765
0.564784
0.564803
0.564821
0.564838
0.564838
0.564854
0.56487
0.564886
0.5649
0.5649
0.564915
0.564929
0.564943
0.564956
0.564956
0.56497
0.564983
0.564997
0.56501
0.56501
0.565023
0.565036
0.56505
0.565063
0.565063
0.565076
0.565089
0.565102
0.565116
0.565116
0.565129
0.565142
0.565155
0.565168
0.565168
0.565181
0.565193
0.565206
0.565219
0.565219
0.565231
0.565243
0.565254
0.565266
0.565266
0.565277
0.565288
0.565298
0.565308
0.565308
0.565318
0.565328
0.565337
0.565346
0.565346
0.565354
0.565363
0.565371
0.565379
0.565379
0.565386
0.565394
0.565401
0.565409
0.565409
0.565416
0.565424
0.565431
0.565438
0.565438
0.565445
0.565453
0.56546
0.565467
0.565467
0.565474
0.565481
0.565489
0.565496
0.565496
0.565503
0.56551
0.565516
0.565523
0.565523
0.56553
0.565536
0.565543
0.565549
0.565549
0.565555
0.565561
0.565567
0.565573
0.565573
0.565578
0.565583
0.565589
0.565594
0.565594
0.565599
0.565604
0.565608
0.565613
0.565613
0.565617
0.565622
0.565626
0.56563
0.56563
0.565634
0.565638
0.565642
0.565646
0.565646
0.56565
0.565654
0.565658
0.565662
0.565662
0.565666
0.56567
0.565674
0.565678
0.565678
0.565682
0.565685
0.565689
0.565693
0.565693
0.565696
0.5657
0.565703
0.565707
0.565707
0.56571
0.565713
0.565717
0.56572
0.56572
0.565723
0.565726
0.565729
0.565732
0.565732
0.565735
0.565737
0.56574
0.565743
0.565743
0.565745
0.565748
0.565751
0.565753
0.565753
0.565755
0.565758
0.56576
0.565762
0.565762
0.565765
0.565767
0.565769
0.565771
0.565771
0.565774
0.565776
0.565778
0.56578
0.56578
0.565782
0.565785
0.565787
0.565789
0.565789
0.565791
0.565793
0.565795
0.565797
0.565797
0.565799
0.5658
0.565802
0.565804
0.565804
0.565806
0.565808
0.56581
0.565811
0.565811
0.565813
0.565815
0.565816
0.565818
0.565818
0.56582
0.565821
0.565823
0.565824
0.565824
0.565826
0.565827
0.565829
0.56583
0.56583
0.565832
0.565833
0.565834
0.565836
0.565836
0.565837
0.565838
0.56584
0.565841
0.565841
0.565842
0.565844
0.565845
0.565846
0.565846
0.565848
0.565849
0.56585
0.565851
0.565851
0.565853
0.565854
0.565855
0.565856
0.565856
0.565857
0.565859
0.56586
0.565861
0.565861
0.565862
0.565863
0.565864
0.565865
0.565865
0.565867
0.565868
0.565869
0.56587
0.56587
0.565871
0.565872
0.565873
0.565874
0.565874
0.565875
0.565876
0.565877
0.565878
0.565878
0.565879
0.56588
0.565881
0.565882
0.565882
0.565883
0.565884
0.565885
0.565885
0.565885
0.565886
0.565887
0.565888
0.565889
0.565889
0.56589
0.565891
0.565892
0.565893
0.565893
0.565894
0.565895
0.565895
0.565896
0.565896
0.565897
0.565898
0.565899
0.5659
0.5659
0.565901
0.565902
0.565902
0.565903
0.565903
0.565904
0.565905
0.565906
0.565907
0.565907
0.565907
0.565908
0.565909
0.56591
0.56591
0.565911
0.565911
0.565912
0.565913
0.565913
0.565914
0.565915
0.565915
0.565916
0.565916
0.565917
0.565918
0.565918
0.565919
0.565919
0.56592
0.565921
0.565922
0.565922
0.565922
0.565923
0.565924
0.565925
0.565925
0.565925
0.565926
0.565927
0.565928
0.565928
0.565928
0.565929
0.56593
0.565931
0.565932
0.565932
0.565932
0.565933
0.565934
0.565934
0.565934
0.565935
0.565936
0.565937
0.565937
0.565937
0.565938
0.565939
0.56594
0.56594
0.56594
0.565941
0.565942
0.565942
0.565943
0.565943
0.565944
0.565945
0.565945
0.565946
0.565946
0.565947
0.565948
0.565948
0.565949
0.565949
0.56595
0.565951
0.565951
0.565952
0.565952
0.565953
0.565953
0.565954
0.565955
0.565955
0.565956
0.565956
0.565957
0.565958
0.565958
0.565958
0.565959
0.56596
0.565961
0.565961
0.565961
0.565962
0.565963
0.565963
0.565963
0.565964
0.565965
0.565966
0.565966
0.565966
0.565967
0.565968
0.565968
0.565969
0.565969
0.56597
0.565971
0.565971
0.565972
0.565972
0.565973
0.565973
0.565974
0.565975
0.565975
0.565976
0.565976
0.565977
0.565978
0.565978
0.565979
0.565979
0.56598
0.565981
0.565981
0.565981
0.565982
0.565983
0.565984
0.565984
0.565984
0.565985
0.565986
0.565986
0.565986
0.565987
0.565988
0.565989
0.565989
0.565989
0.56599
0.565991
0.565991
0.565992
0.565992
0.565993
0.565994
0.565994
0.565995
0.565995
0.565996
0.565996
0.565997
0.565998
0.565998
0.565999
0.565999
0.566
0.566001
0.566001
0.566002
0.566002
0.566003
0.566004
0.566004
0.566004
0.566005
0.566006
0.566007
0.566007
0.566007
0.566008
0.566009
0.56601
0.56601
0.56601
0.566011
0.566012
0.566012
0.566012
0.566013
0.566014
0.566015
0.566015
0.566015
0.566016
0.566017
0.566018
0.566018
0.566018
0.566019
0.56602
0.566021
0.566021
0.566021
0.566022
0.566023
0.566023
0.566024
0.566024
0.566025
0.566026
0.566026
0.566027
0.566027
0.566028
0.566029
0.566029
0.56603
0.56603
0.566031
0.566032
0.566032
0.566033
0.566033
0.566034
0.566035
0.566035
0.566036
0.566036
0.566037
0.566037
0.566038
0.566039
0.566039
0.56604
0.56604
0.566041
0.566042
0.566042
0.566043
0.566044
0.566044
0.566045
0.566045
0.566046
0.566047
0.566047
0.566048
0.566048
0.566049
0.56605
0.56605
0.566051
0.566051
0.566052
0.566053
0.566053
0.566054
0.566054
0.566055
0.566056
0.566056
0.566057
0.566057
0.566058
0.566059
0.566059
0.56606
0.56606
0.566061
0.566062
0.566062
0.566063
0.566063
0.566064
0.566065
0.566065
0.566066
0.566066
0.566067
0.566068
0.566069
0.566069
0.566069
0.56607
0.566071
0.566072
0.566072
0.566072
0.566073
0.566074
0.566075
0.566075
0.566075
0.566076
0.566077
0.566078
0.566079
0.566079
0.566079
0.56608
0.566081
0.566082