<?xml version="1.0"?>
<VTKFile type="UnstructuredGrid" version="0.1" byte_order="LittleEndian">
<UnstructuredGrid>
<Piece NumberOfPoints="5000" NumberOfCells="4000">
<PointData Scalars="Reaction 0">
<DataArray type="Float32" Name="Reaction 0" format="ascii">
0.579939
0.579939
0.579939
0.579939
0.579939
0.579939
0.579939
0.579939
0.579939
0.579939
0.579939
0.579939
0.579939
0.579939
0.579939
0.579939
0.579939
0.579939
0.579939
0.579939
0.579939
0.579939
0.579939
0.579939
0.579939
0.579939
0.579939
0.579939
0.579939
0.579939
0.579939
0.579939
0.579939
0.579939
0.579939
0.579939
0.579939
0.579939
0.579939
0.579939
0.579939
0.579939
0.579939
0.579939
0.579939
0.579939
0.579939
0.57994
0.57994
0.57994
0.57994
0.57994
0.57994
0.57994
0.57994
0.57994
0.57994
0.57994
0.57994
0.57994
0.57994
0.57994
0.57994
0.57994
0.57994
0.57994
0.579941
0.579941
0.579941
0.579941
0.579941
0.579941
0.579941
0.579941
0.579941
0.579941
0.579941
0.579941
0.579941
0.579941
0.579941
0.579942
0.579942
0.579942
0.579942
0.579942
0.579942
0.579942
0.579942
0.579942
0.579942
0.579942
0.579942
0.579943
0.579943
0.579943
0.579943
0.579943
0.579943
0.579943
0.579943
0.579943
0.579943
0.579943
0.579944
0.579944
0.579944
0.579944
0.579944
0.579944
0.579944
0.579944
0.579944
0.579944
0.579945
0.579945
0.579945
0.579945
0.579945
0.579945
0.579945
0.579945
0.579945
0.579945
0.579946
0.579946
0.579946
0.579946
0.579946
0.579946
0.579946
0.579946
0.579947
0.579947
0.579947
0.579947
0.579947
0.579947
0.579947
0.579947
0.579947
0.579948
0.579948
0.579948
0.579948
0.579948
0.579948
0.579948
0.579949
0.579949
0.579949
0.579949
0.579949
0.579949
0.579949
0.579949
0.57995
0.57995
0.57995
0.57995
0.57995
0.57995
0.579951
0.579951
0.579951
0.579951
0.579951
0.579951
0.579951
0.579952
0.579952
0.579952
0.579952
0.579952
0.579952
0.579952
0.579953
0.579953
0.579953
0.579953
0.579953
0.579953
0.579954
0.579954
0.579954
0.579954
0.579954
0.579955
0.579955
0.579955
0.579955
0.579955
0.579955
0.579956
0.579956
0.579956
0.579956
0.579956
0.579957
0.579957
0.579957
0.579957
0.579957
0.579957
0.579958
0.579958
0.579958
0.579958
0.579958
0.579959
0.579959
0.579959
0.579959
0.579959
0.57996
0.57996
0.57996
0.57996
0.57996
0.579961
0.579961
0.579961
0.579961
0.579961
0.579962
0.579962
0.579962
0.579962
0.579962
0.579963
0.579963
0.579963
0.579963
0.579963
0.579964
0.579964
0.579964
0.579964
0.579964
0.579965
0.579965
0.579965
0.579965
0.579966
0.579966
0.579966
0.579966
0.579966
0.579967
0.579967
0.579967
0.579967
0.579968
0.579968
0.579968
0.579968
0.579968
0.579969
0.579969
0.579969
0.579969
0.57997
0.57997
0.57997
0.579971
0.579971
0.579971
0.579971
0.579971
0.579972
0.579972
0.579972
0.579972
0.579973
0.579973
0.579973
0.579973
0.579974
0.579974
0.579974
0.579974
0.579975
0.579975
0.579975
0.579976
0.579976
0.579976
0.579976
0.579977
0.579977
0.579977
0.579977
0.579978
0.579978
0.579978
0.579978
0.579978
0.579979
0.579979
0.57998
0.57998
0.57998
0.57998
0.579981
0.579981
0.579981
0.579981
0.579982
0.579982
0.579982
0.579982
0.579983
0.579983
0.579983
0.579984
0.579984
0.579984
0.579984
0.579985
0.579985
0.579985
0.579986
0.579986
0.579986
0.579987
0.579987
0.579987
0.579987
0.579988
0.579988
0.579988
0.579989
0.579989
0.579989
0.57999
0.57999
0.57999
0.57999
0.579991
0.579991
0.579991
0.579992
0.579992
0.579992
0.579993
0.579993
0.579993
0.579994
0.579994
0.579994
0.579994
0.579995
0.579995
0.579996
0.579996
0.579996
0.579996
0.579997
0.579997
0.579998
0.579998
0.579998
0.579998
0.579999
0.579999
0.579999
0.58
0.58
0.580001
0.580001
0.580001
0.580001
0.580002
0.580002
0.580003
0.580003
0.580003
0.580004
0.580004
0.580004
0.580004
0.580005
0.580005
0.580006
0.580006
0.580006
0.580007
0.580007
0.580008
0.580008
0.580008
0.580008
0.580009
0.580009
0.58001
0.58001
0.58001
0.580011
0.580011
0.580012
0.580012
0.580012
0.580012
0.580013
0.580013
0.580013
0.580014
0.580014
0.580015
0.580015
0.580015
0.580016
0.580016
0.580017
0.580017
0.580017
0.580018
0.580018
0.580019
0.580019
0.580019
0.58002
0.58002
0.580021
0.580021
0.580021
0.580022
0.580022
0.580022
0.580023
0.580023
0.580023
0.580024
0.580024
0.580025
0.580025
0.580025
0.580026
0.580026
0.580027
0.580027
0.580027
0.580028
0.580028
0.580029
0.580029
0.58003
0.58003
0.580031
0.580031
0.580031
0.580032
0.580032
0.580033
0.580033
0.580033
0.580034
0.580034
0.580035
0.580035
0.580035
0.580036
0.580036
0.580037
0.580037
0.580037
0.580038
0.580038
0.580039
0.580039
0.580039
0.58004
0.580041
0.580041
0.580042
0.580042
0.580042
0.580043
0.580043
0.580044
0.580044
0.580044
0.580045
0.580046
0.580046
0.580046
0.580047
0.580047
0.580048
0.580048
0.580048
0.580049
0.580049
0.58005
0.580051
0.580051
0.580051
0.580052
0.580052
0.580053
0.580053
0.580053
0.580054
0.580055
0.580055
0.580055
0.580056
0.580056
0.580057
0.580057
0.580057
0.580058
0.580059
0.580059
0.58006
0.58006
0.58006
0.580061
0.580062
0.580062
0.580062
0.580063
0.580063
0.580064
0.580065
0.580065
0.580065
0.580066
0.580066
0.580067
0.580067
0.580068
0.580068
0.580069
0.580069
0.580069
0.58007
0.580071
0.580071
0.580072
0.580072
0.580073
0.580073
0.580074
0.580074
0.580074
0.580075
0.580076
0.580076
0.580077
0.580077
0.580078
0.580078
0.580079
0.580079
0.580079
0.58008
0.580081
0.580081
0.580082
0.580082
0.580083
0.580083
0.580084
0.580085
0.580085
0.580085
0.580086
0.580087
0.580087
0.580087
0.580088
0.580089
0.580089
0.58009
0.58009
0.580091
0.580091
0.580092
0.580093
0.580093
0.580093
0.580094
0.580095
0.580095
0.580095
0.580096
0.580097
0.580097
0.580098
0.580098
0.580099
0.580099
0.5801
0.580101
0.580101
0.580101
0.580102
0.580103
0.580103
0.580103
0.580104
0.580105
0.580106
0.580106
0.580106
0.580107
0.580108
0.580108
0.580109
0.580109
0.58011
0.58011
0.580111
0.580112
0.580112
0.580113
0.580113
0.580114
0.580115
0.580115
0.580115
0.580116
0.580117
0.580118
0.580118
0.580118
0.580119
0.58012
0.580121
0.580121
0.580121
0.580122
0.580123
0.580123
0.580123
0.580124
0.580125
0.580126
0.580126
0.580126
0.580127
0.580128
0.580129
0.580129
0.580129
0.58013
0.580131
0.580132
0.580132
0.580132
0.580133
0.580134
0.580135
0.580135
0.580135
0.580136
0.580137
0.580138
0.580138
0.580138
0.580139
0.58014
0.580141
0.580141
0.580141
0.580142
0.580143
0.580144
0.580145
0.580145
0.580145
0.580146
0.580147
0.580148
0.580148
0.580148
0.580149
0.58015
0.580151
0.580151
0.580152
0.580152
0.580153
0.580154
0.580154
0.580155
0.580156
0.580156
0.580157
0.580157
0.580158
0.580159
0.58016
0.58016
0.58016
0.580161
0.580162
0.580163
0.580164
0.580164
0.580164
0.580165
0.580166
0.580167
0.580167
0.580168
0.580169
0.580169
0.58017
0.58017
0.580171
0.580172
0.580173
0.580173
0.580173
0.580174
0.580175
0.580176
0.580177
0.580177
0.580178
0.580178
0.580179
0.58018
0.58018
0.580181
0.580182
0.580183
0.580183
0.580183
0.580184
0.580185
0.580186
0.580187
0.580187
0.580188
0.580189
0.580189
0.58019
0.58019
0.580191
0.580192
0.580193
0.580194
0.580194
0.580195
0.580195
0.580196
0.580197
0.580197
0.580198
0.580199
0.5802
0.580201
0.580201
0.580202
0.580203
0.580203
0.580204
0.580204
0.580205
0.580206
0.580207
0.580208
0.580208
0.580209
0.58021
0.580211
0.580211
0.580211
0.580212
0.580213
0.580214
0.580215
0.580215
0.580216
0.580217
0.580218
0.580219
0.580219
0.58022
0.58022
0.580221
0.580222
0.580222
0.580223
0.580224
0.580225
0.580226
0.580226
0.580227
0.580228
0.580229
0.58023
0.58023
0.580231
0.580232
0.580232
0.580233
0.580233
0.580234
0.580235
0.580236
0.580237
0.580237
0.580238
0.580239
0.58024
0.580241
0.580241
0.580242
0.580243
0.580244
0.580245
0.580245
0.580246
0.580247
0.580248
0.580248
0.580248
0.580249
0.58025
0.580251
0.580252
0.580252
0.580253
0.580254
0.580255
0.580256
0.580256
0.580257
0.580258
0.580259
0.58026
0.58026
0.580261
0.580262
0.580263
0.580264
0.580264
0.580265
0.580266
0.580267
0.580268
0.580268
0.580269
0.58027
0.580271
0.580272
0.580272
0.580273
0.580274
0.580275
0.580276
0.580276
0.580277
0.580278
0.580279
0.58028
0.58028
0.580281
0.580282
0.580283
0.580284
0.580284
0.580285
0.580286
0.580287
0.580288
0.580288
0.580289
0.58029
0.580291
0.580292
0.580292
0.580293
0.580294
0.580295
0.580296
0.580296
0.580297
0.580298
0.580299
0.5803
0.5803
0.580301
0.580302
0.580303
0.580304
0.580304
0.580305
0.580307
0.580308
0.580309
0.580309
0.58031
0.580311
0.580312
0.580313
0.580313
0.580314
0.580315
0.580316
0.580317
0.580317
0.580318
0.580319
0.58032
0.580321
0.580321
0.580322
0.580324
0.580325
0.580326
0.580326
0.580327
0.580328
0.580329
0.58033
0.58033
0.580331
0.580332
0.580333
0.580334
0.580334
0.580335
0.580336
0.580338
0.580339
0.580339
0.58034
0.580341
0.580342
0.580343
0.580343
0.580344
0.580345
0.580346
0.580347
0.580347
0.580349
0.58035
0.580351
0.580352
0.580352
0.580353
0.580354
0.580355
0.580356
0.580356
0.580357
0.580359
0.58036
0.580361
0.580361
0.580362
0.580363
0.580364
0.580365
0.580365
0.580367
0.580368
0.580369
0.58037
0.58037
0.580371
0.580372
0.580373
0.580374
0.580374
0.580376
0.580377
0.580378
0.580379
0.580379
0.58038
0.580381
0.580383
0.580384
0.580384
0.580385
0.580386
0.580387
0.580388
0.580388
0.580389
0.580391
0.580392
0.580393
0.580393
0.580394
0.580395
0.580396
0.580398
0.580398
0.580399
0.5804
0.580401
0.580402
0.580402
0.580403
0.580405
0.580406
0.580407
0.580407
0.580408
0.580409
0.580411
0.580412
0.580412
0.580413
0.580414
0.580415
0.580417
0.580417
0.580418
0.580419
0.58042
0.580421
0.580421
0.580423
0.580424
0.580425
0.580426
0.580426
0.580428
0.580429
0.58043
0.580431
0.580431
0.580432
0.580434
0.580435
0.580436
0.580436
0.580437
0.580439
0.58044
0.580441
0.580441
0.580442
0.580443
0.580445
0.580446
0.580446
0.580447
0.580448
0.58045
0.580451
0.580451
0.580452
0.580453
0.580455
0.580456
0.580456
0.580457
0.580458
0.58046
0.580461
0.580461
0.580462
0.580463
0.580465
0.580466
0.580466
0.580467
0.580469
0.58047
0.580471
0.580471
0.580472
0.580474
0.580475
0.580476
0.580476
0.580477
0.580479
0.58048
0.580481
0.580481
0.580483
0.580484
0.580485
0.580486
0.580486
0.580488
0.580489
0.58049
0.580492
0.580492
0.580493
0.580494
0.580495
0.580497
0.580497
0.580498
0.580499
0.580501
0.580502
0.580502
0.580503
0.580505
0.580506
0.580507
0.580507
0.580509
0.58051
0.580511
0.580512
0.580512
0.580514
0.580515
0.580516
0.580518
0.580518
0.580519
0.58052
0.580522
0.580523
0.580523
0.580524
0.580526
0.580527
0.580528
0.580528
0.58053
0.580531
0.580532
0.580534
0.580534
0.580535
0.580537
0.580538
0.580539
0.580539
0.580541
0.580542
0.580543
0.580545
0.580545
0.580546
0.580548
0.580549
0.58055
0.58055
0.580552
0.580553
0.580554
0.580556
0.580556
0.580557
0.580558
0.58056
0.580561
0.580561
0.580563
0.580564
0.580565
0.580567
0.580567
0.580568
0.58057
0.580571
0.580572
0.580572
0.580574
0.580575
0.580577
0.580578
0.580578
0.580579
0.580581
0.580582
0.580584
0.580584
0.580585
0.580586
0.580588
0.580589
0.580589
0.580591
0.580592
0.580593
0.580595
0.580595
0.580596
0.580598
0.580599
0.580601
0.580601
0.580602
0.580603
0.580605
0.580606
0.580606
0.580608
0.580609
0.580611
0.580612
0.580612
0.580614
0.580615
0.580616
0.580618
0.580618
0.580619
0.580621
0.580622
0.580624
0.580624
0.580625
0.580627
0.580628
0.580629
0.580629
0.580631
0.580632
0.580634
0.580635
0.580635
0.580637
0.580638
0.58064
0.580641
0.580641
0.580643
0.580644
0.580646
0.580647
0.580647
0.580649
0.58065
0.580652
0.580653
0.580653
0.580655
0.580656
0.580658
0.580659
0.580659
0.580661
0.580662
0.580664
0.580665
0.580665
0.580667
0.580668
0.58067
0.580671
0.580671
0.580673
0.580674
0.580676
0.580677
0.580677
0.580679
0.58068
0.580682
0.580683
0.580683
0.580685
0.580686
0.580688
0.580689
0.580689
0.580691
0.580692
0.580694
0.580695
0.580695
0.580697
0.580699
0.5807
0.580702
0.580702
0.580703
0.580705
0.580706
0.580708
0.580708
0.580709
0.580711
0.580712
0.580714
0.580714
0.580716
0.580717
0.580719
0.58072
0.58072
0.580722
0.580723
0.580725
0.580727
0.580727
0.580728
0.58073
0.580731
0.580733
0.580733
0.580734
0.580736
0.580738
0.580739
0.580739
0.580741
0.580742
0.580744
0.580745
0.580745
0.580747
0.580749
0.58075
0.580752
0.580752
0.580753
0.580755
0.580756
0.580758
0.580758
0.58076
0.580761
0.580763
0.580765
0.580765
0.580766
0.580768
0.580769
0.580771
0.580771
0.580773
0.580774
0.580776
0.580778
0.580778
0.580779
0.580781
0.580783
0.580784
0.580784
0.580786
0.580787
0.580789
0.580791
0.580791
0.580792
0.580794
0.580796
0.580797
0.580797
0.580799
0.580801
0.580802
0.580804
0.580804
0.580806
0.580807
0.580809
0.580811
0.580811
0.580812
0.580814
0.580815
0.580817
0.580817
0.580819
0.58082
0.580822
0.580824
0.580824
0.580826
0.580827
0.580829
0.580831
0.580831
0.580832
0.580834
0.580836
0.580837
0.580837
0.580839
0.580841
0.580842
0.580844
0.580844
0.580846
0.580847
0.580849
0.580851
0.580851
0.580852
0.580854
0.580856
0.580858
0.580858
0.580859
0.580861
0.580863
0.580864
0.580864
0.580866
0.580868
0.58087
0.580871
0.580871
0.580873
0.580875
0.580876
0.580878
0.580878
0.58088
0.580882
0.580883
0.580885
0.580885
0.580887
0.580889
0.58089
0.580892
0.580892
0.580894
0.580896
0.580897
0.580899
0.580899
0.580901
0.580903
0.580904
0.580906
0.580906
0.580908
0.58091
0.580911
0.580913
0.580913
0.580915
0.580917
0.580919
0.58092
0.58092
0.580922
0.580924
0.580926
0.580927
0.580927
0.580929
0.580931
0.580933
0.580935
0.580935
0.580936
0.580938
0.58094
0.580942
0.580942
0.580944
0.580945
0.580947
0.580949
0.580949
0.580951
0.580953
0.580954
0.580956
0.580956
0.580958
0.58096
0.580962
0.580963
0.580963
0.580965
0.580967
0.580969
0.580971
0.580971
0.580972
0.580974
0.580976
0.580978
0.580978
0.58098
0.580982
0.580983
0.580985
0.580985
0.580987
0.580989
0.580991
0.580992
0.580992
0.580994
0.580996
0.580998
0.581
0.581
0.581002
0.581004
0.581005
0.581007
0.581007
0.581009
0.581011
0.581013
0.581015
0.581015
0.581017
0.581019
0.58102
0.581022
0.581022
0.581024
0.581026
0.581028
0.58103
0.58103
0.581032
0.581034
0.581036
0.581037
0.581037
0.581039
0.581041
0.581043
0.581045
0.581045
0.581047
0.581049
0.581051
0.581053
0.581053
0.581055
0.581056
0.581058
0.58106
0.58106
0.581062
0.581064
0.581066
0.581068
0.581068
0.58107
0.581072
0.581074
0.581076
0.581076
0.581077
0.581079
0.581081
0.581083
0.581083
0.581085
0.581087
0.581089
0.581091
0.581091
0.581093
0.581095
0.581097
0.581099
0.581099
0.581101
0.581103
0.581105
0.581106
0.581106
0.581108
0.58111
0.581112
0.581114
0.581114
0.581116
0.581118
0.58112
0.581122
0.581122
0.581124
0.581126
0.581128
0.58113
0.58113
0.581132
0.581134
0.581136
0.581138
0.581138
0.58114
0.581142
0.581144
0.581146
0.581146
0.581148
0.58115
0.581152
0.581154
0.581154
0.581156
0.581158
0.58116
0.581162
0.581162
0.581164
0.581166
0.581168
0.58117
0.58117
0.581172
0.581174
0.581176
0.581178
0.581178
0.58118
0.581182
0.581184
0.581186
0.581186
0.581188
0.58119
0.581192
0.581194
0.581194
0.581196
0.581198
0.581201
0.581203
0.581203
0.581205
0.581207
0.581209
0.581211
0.581211
0.581213
0.581215
0.581217
0.581219
0.581219
0.581221
0.581223
0.581225
0.581227
0.581227
0.581229
0.581231
0.581233
0.581235
0.581235
0.581237
0.581239
0.581242
0.581244
0.581244
0.581246
0.581248
0.58125
0.581252
0.581252
0.581254
0.581256
0.581258
0.58126
0.58126
0.581263
0.581265
0.581267
0.581269
0.581269
0.581271
0.581273
0.581275
0.581277
0.581277
0.581279
0.581282
0.581284
0.581286
0.581286
0.581288
0.58129
0.581292
0.581294
0.581294
0.581296
0.581299
0.581301
0.581303
0.581303
0.581305
0.581307
0.581309
0.581311
0.581311
0.581314
0.581316
0.581318
0.58132
0.58132
0.581322
0.581324
0.581326
0.581329
0.581329
0.581331
0.581333
0.581335
0.581337
0.581337
0.581339
0.581342
0.581344
0.581346
0.581346
0.581348
0.58135
0.581352
0.581355
0.581355
0.581357
0.581359
0.581361
0.581363
0.581363
0.581365
0.581368
0.58137
0.581372
0.581372
0.581374
0.581376
0.581379
0.581381
0.581381
0.581383
0.581385
0.581388
0.58139
0.58139
0.581392
0.581394
0.581396
0.581399
0.581399
0.581401
0.581403
0.581405
0.581408
0.581408
0.58141
0.581412
0.581414
0.581417
0.581417
0.581419
0.581421
0.581423
0.581426
0.581426
0.581428
0.58143
0.581432
0.581435
0.581435
0.581437
0.581439
0.581441
0.581444
0.581444
0.581446
0.581448
0.58145
0.581453
0.581453
0.581455
0.581457
0.581459
0.581462
0.581462
0.581464
0.581466
0.581469
0.581471
0.581471
0.581473
0.581475
0.581478
0.58148
0.58148
0.581482
0.581484
0.581487
0.581489
0.581489
0.581491
0.581494
0.581496
0.581498
0.581498
0.581501
0.581503
0.581505
0.581507
0.581507
0.58151
0.581512
0.581514
0.581517
0.581517
0.581519
0.581522
0.581524
0.581526
0.581526
0.581529
0.581531
0.581533
0.581536
0.581536
0.581538
0.58154
0.581543
0.581545
0.581545
0.581547
0.58155
0.581552
0.581554
0.581554
0.581557
0.581559
0.581562
0.581564
0.581564
0.581566
0.581569
0.581571
0.581573
0.581573
0.581576
0.581578
0.58158
0.581583
0.581583
0.581585
0.581588
0.58159
0.581592
0.581592
0.581595
0.581597
0.5816
0.581602
0.581602
0.581604
0.581607
0.581609
0.581611
0.581611
0.581614
0.581616
0.581619
0.581621
0.581621
0.581623
0.581626
0.581628
0.581631
0.581631
0.581633
0.581636
0.581638
0.58164
0.58164
0.581643
0.581645
0.581648
0.58165
0.58165
0.581653
0.581655
0.581658
0.58166
0.58166
0.581663
0.581665
0.581667
0.58167
0.58167
0.581672
0.581675
0.581677
0.58168
0.58168
0.581682
0.581685
0.581687
0.58169
0.58169
0.581692
0.581695
0.581697
0.5817
0.5817
0.581702
0.581705
0.581707
0.58171
0.58171
0.581712
0.581714
0.581717
0.581719
0.581719
0.581722
0.581724
0.581727
0.581729
0.581729
0.581732
0.581734
0.581737
0.581739
0.581739
0.581742
0.581744
0.581747
0.581749
0.581749
0.581752
0.581754
0.581757
0.58176
0.58176
0.581762
0.581765
0.581767
0.58177
0.58177
0.581772
0.581775
0.581777
0.58178
0.58178
0.581782
0.581785
0.581788
0.58179
0.58179
0.581793
0.581795
0.581798
0.5818
0.5818
0.581803
0.581806
0.581808
0.581811
0.581811
0.581813
0.581816
0.581819
0.581821
0.581821
0.581824
0.581826
0.581829
0.581831
0.581831
0.581834
0.581837
0.581839
0.581842
0.581842
0.581844
0.581847
0.58185
0.581852
0.581852
0.581855
0.581857
0.58186
0.581863
0.581863
0.581865
0.581868
0.58187
0.581873
0.581873
0.581876
0.581878
0.581881
0.581884
0.581884
0.581886
0.581889
0.581891
0.581894
0.581894
0.581897
0.581899
0.581902
0.581905
0.581905
0.581907
0.58191
0.581913
0.581915
0.581915
0.581918
0.581921
0.581923
0.581926
0.581926
0.581929
0.581931
0.581934
0.581937
0.581937
0.581939
0.581942
0.581945
0.581948
0.581948
0.58195
0.581953
0.581956
0.581958
0.581958
0.581961
0.581964
0.581966
0.581969
0.581969
0.581972
0.581975
0.581977
0.58198
0.58198
0.581983
0.581985
0.581988
0.581991
0.581991
0.581994
0.581996
0.581999
0.582002
0.582002
0.582004
0.582007
0.58201
0.582013
0.582013
0.582015
0.582018
0.582021
0.582023
0.582023
0.582026
0.582029
0.582032
0.582034
0.582034
0.582037
0.58204
0.582043
0.582046
0.582046
0.582048
0.582051
0.582054
0.582057
0.582057
0.582059
0.582062
0.582065
0.582068
0.582068
0.582071
0.582073
0.582076
0.582079
0.582079
0.582082
0.582085
0.582087
0.58209
0.58209
0.582093
0.582096
0.582099
0.582101
0.582101
0.582104
0.582107
0.58211
0.582113
0.582113
0.582116
0.582118
0.582121
0.582124
0.582124
0.582127
0.58213
0.582133
0.582135
0.582135
0.582138
0.582141
0.582144
0.582147
0.582147
0.582149
0.582152
0.582155
0.582158
0.582158
0.582161
0.582164
0.582167
0.582169
0.582169
0.582172
0.582175
0.582178
0.582181
0.582181
0.582184
0.582187
0.58219
0.582193
0.582193
0.582195
0.582198
0.582201
0.582204
0.582204
0.582207
0.58221
0.582213
0.582216
0.582216
0.582219
0.582222
0.582224
0.582227
0.582227
0.58223
0.582233
0.582236
0.582239
0.582239
0.582242
0.582245
0.582248
0.582251
0.582251
0.582254
0.582257
0.58226
0.582262
0.582262
0.582265
0.582268
0.582271
0.582274
0.582274
0.582277
0.58228
0.582283
0.582286
0.582286
0.582289
0.582292
0.582295
0.582298
0.582298
0.582301
0.582304
0.582307
0.58231
0.58231
0.582313
0.582316
0.582319
0.582322
0.582322
0.582325
0.582328
0.582331
0.582334
0.582334
0.582337
0.58234
0.582343
0.582346
0.582346
0.582349
0.582352
0.582355
0.582358
0.582358
0.582361
0.582364
0.582367
0.58237
0.58237
0.582373
0.582376
0.582379
0.582382
0.582382
0.582385
0.582388
0.582391
0.582394
0.582394
0.582397
0.5824
0.582403
0.582406
0.582406
0.582409
0.582412
0.582415
0.582418
0.582418
0.582421
0.582425
0.582428
0.582431
0.582431
0.582434
0.582437
0.58244
0.582443
0.582443
0.582446
0.582449
0.582452
0.582455
0.582455
0.582458
0.582461
0.582465
0.582468
0.582468
0.582471
0.582474
0.582477
0.58248
0.58248
0.582483
0.582486
0.58249
0.582493
0.582493
0.582496
0.582499
0.582502
0.582505
0.582505
0.582508
0.582511
0.582515
0.582518
0.582518
0.582521
0.582524
0.582527
0.58253
0.58253
0.582533
0.582537
0.58254
0.582543
0.582543
0.582546
0.582549
0.582552
0.582555
0.582555
0.582559
0.582562
0.582565
0.582568
0.582568
0.582571
0.582574
0.582578
0.582581
0.582581
0.582584
0.582587
0.58259
0.582594
0.582594
0.582597
0.5826
0.582603
0.582606
0.582606
0.58261
0.582613
0.582616
0.582619
0.582619
0.582623
0.582626
0.582629
0.582632
0.582632
0.582635
0.582639
0.582642
0.582645
0.582645
0.582648
0.582652
0.582655
0.582658
0.582658
0.582661
0.582665
0.582668
0.582671
0.582671
0.582674
0.582678
0.582681
0.582684
0.582684
0.582687
0.582691
0.582694
0.582697
0.582697
0.582701
0.582704
0.582707
0.58271
0.58271
0.582714
0.582717
0.58272
0.582723
0.582723
0.582727
0.58273
0.582733
0.582737
0.582737
0.58274
0.582743
0.582747
0.58275
0.58275
0.582753
0.582757
0.58276
0.582763
0.582763
0.582767
0.58277
0.582773
0.582777
0.582777
0.58278
0.582783
0.582787
0.58279
0.58279
0.582793
0.582797
0.5828
0.582804
0.582804
0.582807
0.58281
0.582814
0.582817
0.582817
0.58282
0.582824
0.582827
0.58283
0.58283
0.582834
0.582837
0.582841
0.582844
0.582844
0.582847
0.582851
0.582854
0.582857
0.582857
0.582861
0.582864
0.582868
0.582871
0.582871
0.582874
0.582878
0.582881
0.582885
0.582885
0.582888
0.582892
0.582895
0.582898
0.582898
0.582902
0.582905
0.582909
0.582912
0.582912
0.582916
0.582919
0.582923
0.582926
0.582926
0.582929
0.582933
0.582936
0.58294
0.58294
0.582943
0.582947
0.58295
0.582954
0.582954
0.582957
0.582961
0.582964
0.582968
0.582968
0.582971
0.582975
0.582978
0.582982
0.582982
0.582985
0.582989
0.582992
0.582996
0.582996
0.582999
0.583002
0.583006
0.583009
0.583009
0.583013
0.583016
0.58302
0.583023
0.583023
0.583027
0.583031
0.583034
0.583038
0.583038
0.583041
0.583045
0.583048
0.583052
0.583052
0.583055
0.583059
0.583063
0.583066
0.583066
0.58307
0.583073
0.583077
0.58308
0.58308
0.583084
0.583088
0.583091
0.583095
0.583095
0.583098
0.583102
0.583105
0.583109
0.583109
0.583113
0.583116
0.58312
0.583123
0.583123
0.583127
0.583131
0.583134
0.583138
0.583138
0.583141
0.583145
0.583149
0.583152
0.583152
0.583156
0.583159
0.583163
0.583167
0.583167
0.58317
0.583174
0.583178
0.583181
0.583181
0.583185
0.583189
0.583192
0.583196
0.583196
0.5832
0.583203
0.583207
0.583211
0.583211
0.583214
0.583218
0.583222
0.583225
0.583225
0.583229
0.583233
0.583236
0.58324
0.58324
0.583244
0.583247
0.583251
0.583255
0.583255
0.583259
0.583262
0.583266
0.58327
0.58327
0.583273
0.583277
0.583281
0.583284
0.583284
0.583288
0.583292
0.583296
0.583299
0.583299
0.583303
0.583307
0.58331
0.583314
0.583314
0.583318
0.583322
0.583325
0.583329
0.583329
0.583333
0.583337
0.58334
0.583344
0.583344
0.583348
0.583352
0.583356
0.583359
0.583359
0.583363
0.583367
0.583371
0.583375
0.583375
0.583378
0.583382
0.583386
0.58339
0.58339
0.583394
0.583397
0.583401
0.583405
0.583405
0.583409
0.583413
0.583416
0.58342
0.58342
0.583424
0.583428
0.583432
0.583435
0.583435
0.583439
0.583443
0.583447
0.583451
0.583451
0.583455
0.583458
0.583462
0.583466
0.583466
0.58347
0.583474
0.583478
0.583481
0.583481
0.583485
0.583489
0.583493
0.583497
0.583497
0.583501
0.583505
0.583509
0.583513
0.583513
0.583517
0.58352
0.583524
0.583528
0.583528
0.583532
0.583536
0.58354
0.583544
0.583544
0.583548
0.583552
0.583556
0.58356
0.58356
0.583564
0.583567
0.583571
0.583575
0.583575
0.583579
0.583583
0.583587
0.583591
0.583591
0.583595
0.583599
0.583603
0.583607
0.583607
0.583611
0.583615
0.583619
0.583623
0.583623
0.583626
0.58363
0.583634
0.583638
0.583638
0.583642
0.583646
0.58365
0.583654
0.583654
0.583658
0.583662
0.583667
0.583671
0.583671
0.583675
0.583679
0.583683
0.583687
0.583687
0.583691
0.583695
0.583699
0.583703
0.583703
0.583707
0.583711
0.583715
0.583719
0.583719
0.583723
0.583727
0.583731
0.583735
0.583735
0.583739
0.583743
0.583747
0.583751
0.583751
0.583755
0.583759
0.583763
0.583767
0.583767
0.583771
0.583776
0.58378
0.583784
0.583784
0.583788
0.583792
0.583796
0.5838
0.5838
0.583804
0.583808
0.583812
0.583817
0.583817
0.583821
0.583825
0.583829
0.583833
0.583833
0.583837
0.583841
0.583846
0.58385
0.58385
0.583854
0.583858
0.583862
0.583866
0.583866
0.58387
0.583875
0.583879
0.583883
0.583883
0.583887
0.583891
0.583895
0.5839
0.5839
0.583904
0.583908
0.583912
0.583916
0.583916
0.58392
0.583924
0.583929
0.583933
0.583933
0.583937
0.583941
0.583945
0.58395
0.58395
0.583954
0.583958
0.583962
0.583967
0.583967
0.583971
0.583975
0.583979
0.583984
0.583984
0.583988
0.583992
0.583996
0.584001
0.584001
0.584005
0.584009
0.584013
0.584018
0.584018
0.584022
0.584026
0.58403
0.584035
0.584035
0.584039
0.584043
0.584047
0.584052
0.584052
0.584056
0.58406
0.584065
0.584069
0.584069
0.584073
0.584077
0.584082
0.584086
0.584086
0.58409
0.584095
0.584099
0.584103
0.584103
0.584108
0.584112
0.584116
0.584121
0.584121
0.584125
0.584129
0.584134
0.584138
0.584138
0.584142
0.584147
0.584151
0.584155
0.584155
0.58416
0.584164
0.584169
0.584173
0.584173
0.584177
0.584182
0.584186
0.58419
0.58419
0.584195
0.584199
0.584204
0.584208
0.584208
0.584212
0.584217
0.584221
0.584226
0.584226
0.58423
0.584234
0.584239
0.584243
0.584243
0.584248
0.584252
0.584256
0.584261
0.584261
0.584265
0.58427
0.584274
0.584279
0.584279
0.584283
0.584288
0.584292
0.584297
0.584297
0.584301
0.584306
0.58431
0.584315
0.584315
0.584319
0.584323
0.584328
0.584332
0.584332
0.584337
0.584341
0.584346
0.58435
0.58435
0.584355
0.584359
0.584364
0.584368
0.584368
0.584373
0.584377
0.584382
0.584386
0.584386
0.584391
0.584395
0.5844
0.584405
0.584405
0.584409
0.584414
0.584418
0.584423
0.584423
0.584427
0.584432
0.584436
0.584441
0.584441
0.584446
0.58445
0.584455
0.584459
0.584459
0.584464
0.584469
0.584473
0.584478
0.584478
0.584482
0.584487
0.584492
0.584496
0.584496
0.584501
0.584505
0.58451
0.584515
0.584515
0.584519
0.584524
0.584528
0.584533
0.584533
0.584538
0.584542
0.584547
0.584552
0.584552
0.584556
0.584561
0.584565
0.58457
0.58457
0.584575
0.584579
0.584584
0.584589
0.584589
0.584593
0.584598
0.584603
0.584608
0.584608
0.584612
0.584617
0.584622
0.584626
0.584626
0.584631
0.584636
0.584641
0.584645
0.584645
0.58465
0.584655
0.584659
0.584664
0.584664
0.584669
0.584674
0.584678
0.584683
0.584683
0.584688
0.584693
0.584697
0.584702
0.584702
0.584707
0.584712
0.584716
0.584721
0.584721
0.584726
0.584731
0.584735
0.58474
0.58474
0.584745
0.58475
0.584754
0.584759
0.584759
0.584764
0.584769
0.584774
0.584779
0.584779
0.584783
0.584788
0.584793
0.584798
0.584798
0.584803
0.584808
0.584812
0.584817
0.584817
0.584822
0.584827
0.584832
0.584837
0.584837
0.584842
0.584846
0.584851
0.584856
0.584856
0.584861
0.584866
0.584871
0.584876
0.584876
0.58488
0.584885
0.58489
0.584895
0.584895
0.5849
0.584905
0.58491
0.584915
0.584915
0.584919
0.584924
0.584929
0.584934
0.584934
0.584939
0.584944
0.584949
0.584954
0.584954
0.584959
0.584964
0.584969
0.584974
0.584974
0.584979
0.584984
0.584989
0.584994
0.584994
0.584999
0.585004
0.585009
0.585014
0.585014
0.585019
0.585024
0.585029
0.585034
0.585034
0.585039
0.585044
0.585049
0.585054
0.585054
0.585058
0.585063
0.585068
0.585073
0.585073
0.585078
0.585084
0.585089
0.585094
0.585094
0.585099
0.585104
0.585109
0.585114
0.585114
0.585119
0.585124
0.585129
0.585134
0.585134
0.585139
0.585144
0.585149
0.585154
0.585154
0.58516
0.585165
0.58517
0.585175
0.585175
0.58518
0.585185
0.58519
0.585195
0.585195
0.5852
0.585205
0.585211
0.585216
0.585216
0.585221
0.585226
0.585231
0.585236
0.585236
0.585241
0.585246
0.585252
0.585257
0.585257
0.585262
0.585267
0.585272
0.585277
0.585277
0.585283
0.585288
0.585293
0.585298
0.585298
0.585303
0.585309
0.585314
0.585319
0.585319
0.585324
0.585329
0.585335
0.58534
0.58534
0.585345
0.58535
0.585356
0.585361
0.585361
0.585366
0.585371
0.585376
0.585382
0.585382
0.585387
0.585392
0.585397
0.585403
0.585403
0.585408
0.585413
0.585418
0.585424
0.585424
0.585429
0.585434
0.585439
0.585445
0.585445
0.58545
0.585455
0.585461
0.585466
0.585466
0.585471
0.585477
0.585482
0.585487
0.585487
0.585493
0.585498
0.585503
0.585509
0.585509
0.585514
0.585519
0.585525
0.58553
0.58553
0.585535
0.585541
0.585546
0.585551
0.585551
0.585557
0.585562
0.585568
0.585573
0.585573
0.585578
0.585584
0.585589
0.585594
0.585594
0.5856
0.585605
0.585611
0.585616
0.585616
0.585621
0.585627
0.585632
0.585638
0.585638
0.585643
0.585649
0.585654
0.58566
0.58566
0.585665
0.58567
0.585676
0.585681
0.585681
0.585687
0.585692
0.585698
0.585703
0.585703
0.585709
0.585714
0.58572
0.585725
0.585725
0.585731
0.585736
0.585742
0.585747
0.585747
0.585753
0.585758
0.585764
0.585769
0.585769
0.585775
0.58578
0.585786
0.585791
0.585791
0.585797
0.585802
0.585808
0.585813
0.585813
0.585819
0.585825
0.58583
0.585836
0.585836
0.585841
0.585847
0.585853
0.585858
0.585858
0.585864
0.585869
0.585875
0.585881
0.585881
0.585886
0.585892
0.585897
0.585903
0.585903
0.585909
0.585914
0.58592
0.585925
0.585925
0.585931
0.585937
0.585942
0.585948
0.585948
0.585954
0.585959
0.585965
0.585971
0.585971
0.585976
0.585982
0.585988
0.585993
0.585993
0.585999
0.586005
0.58601
0.586016
0.586016
0.586022
0.586028
0.586033
0.586039
0.586039
0.586045
0.586051
0.586056
0.586062
0.586062
0.586068
0.586073
0.586079
0.586085
0.586085
0.586091
0.586096
0.586102
0.586108
0.586108
0.586114
0.586119
0.586125
0.586131
0.586131
0.586137
0.586142
0.586148
0.586154
0.586154
0.58616
0.586166
0.586172
0.586177
0.586177
0.586183
0.586189
0.586195
0.586201
0.586201
0.586207
0.586212
0.586218
0.586224
0.586224
0.58623
0.586236
0.586242
0.586248
0.586248
0.586253
0.586259
0.586265
0.586271
0.586271
0.586277
0.586283
0.586289
0.586295
0.586295
0.5863
0.586306
0.586312
0.586318
0.586318