<?xml version="1.0"?>
<VTKFile type="UnstructuredGrid" version="0.1" byte_order="LittleEndian">
<UnstructuredGrid>
<Piece NumberOfPoints="5000" NumberOfCells="4000">
<PointData Scalars="Reaction 0">
<DataArray type="Float32" Name="Reaction 0" format="ascii">
0.580256
0.580256
0.580256
0.580256
0.580256
0.580256
0.580256
0.580256
0.580256
0.580256
0.580256
0.580256
0.580256
0.580256
0.580256
0.580256
0.580256
0.580256
0.580257
0.580257
0.580257
0.580257
0.580257
0.580257
0.580257
0.580257
0.580257
0.580257
0.580257
0.580257
0.580257
0.580257
0.580257
0.580257
0.580257
0.580257
0.580257
0.580257
0.580257
0.580257
0.580257
0.580257
0.580257
0.580257
0.580257
0.580257
0.580257
0.580257
0.580257
0.580258
0.580258
0.580258
0.580258
0.580258
0.580258
0.580258
0.580258
0.580258
0.580258
0.580258
0.580258
0.580258
0.580258
0.580258
0.580258
0.580258
0.580258
0.580259
0.580259
0.580259
0.580259
0.580259
0.580259
0.580259
0.580259
0.580259
0.580259
0.580259
0.580259
0.580259
0.580259
0.580259
0.58026
0.58026
0.58026
0.58026
0.58026
0.58026
0.58026
0.58026
0.58026
0.58026
0.58026
0.580261
0.580261
0.580261
0.580261
0.580261
0.580261
0.580261
0.580261
0.580261
0.580261
0.580261
0.580262
0.580262
0.580262
0.580262
0.580262
0.580262
0.580262
0.580262
0.580262
0.580262
0.580263
0.580263
0.580263
0.580263
0.580263
0.580263
0.580263
0.580263
0.580263
0.580264
0.580264
0.580264
0.580264
0.580264
0.580264
0.580264
0.580264
0.580264
0.580265
0.580265
0.580265
0.580265
0.580265
0.580265
0.580265
0.580266
0.580266
0.580266
0.580266
0.580266
0.580266
0.580266
0.580266
0.580267
0.580267
0.580267
0.580267
0.580267
0.580267
0.580268
0.580268
0.580268
0.580268
0.580268
0.580268
0.580268
0.580268
0.580269
0.580269
0.580269
0.580269
0.580269
0.580269
0.58027
0.58027
0.58027
0.58027
0.58027
0.58027
0.580271
0.580271
0.580271
0.580271
0.580271
0.580271
0.580272
0.580272
0.580272
0.580272
0.580272
0.580273
0.580273
0.580273
0.580273
0.580273
0.580273
0.580273
0.580274
0.580274
0.580274
0.580274
0.580274
0.580275
0.580275
0.580275
0.580275
0.580275
0.580276
0.580276
0.580276
0.580276
0.580276
0.580276
0.580277
0.580277
0.580277
0.580277
0.580277
0.580278
0.580278
0.580278
0.580278
0.580278
0.580279
0.580279
0.580279
0.580279
0.58028
0.58028
0.58028
0.58028
0.58028
0.580281
0.580281
0.580281
0.580281
0.580281
0.580282
0.580282
0.580282
0.580282
0.580282
0.580283
0.580283
0.580283
0.580284
0.580284
0.580284
0.580284
0.580284
0.580285
0.580285
0.580285
0.580285
0.580286
0.580286
0.580286
0.580286
0.580287
0.580287
0.580287
0.580287
0.580287
0.580288
0.580288
0.580288
0.580288
0.580289
0.580289
0.580289
0.58029
0.58029
0.58029
0.58029
0.580291
0.580291
0.580291
0.580291
0.580292
0.580292
0.580292
0.580292
0.580292
0.580293
0.580293
0.580293
0.580293
0.580294
0.580294
0.580294
0.580295
0.580295
0.580295
0.580295
0.580296
0.580296
0.580296
0.580297
0.580297
0.580297
0.580298
0.580298
0.580298
0.580298
0.580299
0.580299
0.580299
0.580299
0.5803
0.5803
0.5803
0.5803
0.580301
0.580301
0.580301
0.580302
0.580302
0.580302
0.580303
0.580303
0.580303
0.580303
0.580304
0.580304
0.580304
0.580305
0.580305
0.580305
0.580306
0.580306
0.580306
0.580306
0.580307
0.580307
0.580308
0.580308
0.580308
0.580308
0.580309
0.580309
0.58031
0.58031
0.58031
0.58031
0.580311
0.580311
0.580311
0.580312
0.580312
0.580312
0.580313
0.580313
0.580313
0.580314
0.580314
0.580314
0.580314
0.580315
0.580315
0.580316
0.580316
0.580316
0.580317
0.580317
0.580317
0.580318
0.580318
0.580318
0.580319
0.580319
0.58032
0.58032
0.58032
0.58032
0.580321
0.580321
0.580321
0.580322
0.580322
0.580323
0.580323
0.580323
0.580323
0.580324
0.580324
0.580325
0.580325
0.580325
0.580326
0.580326
0.580327
0.580327
0.580327
0.580328
0.580328
0.580328
0.580328
0.580329
0.580329
0.58033
0.58033
0.58033
0.580331
0.580331
0.580332
0.580332
0.580332
0.580333
0.580333
0.580334
0.580334
0.580334
0.580335
0.580335
0.580336
0.580336
0.580336
0.580337
0.580337
0.580338
0.580338
0.580338
0.580339
0.580339
0.58034
0.58034
0.58034
0.580341
0.580341
0.580342
0.580342
0.580342
0.580343
0.580343
0.580344
0.580344
0.580344
0.580345
0.580345
0.580346
0.580346
0.580346
0.580347
0.580347
0.580348
0.580348
0.580348
0.580349
0.580349
0.58035
0.58035
0.58035
0.580351
0.580351
0.580352
0.580353
0.580353
0.580353
0.580354
0.580354
0.580355
0.580355
0.580355
0.580356
0.580356
0.580357
0.580357
0.580357
0.580358
0.580358
0.580359
0.580359
0.58036
0.58036
0.580361
0.580361
0.580361
0.580362
0.580362
0.580363
0.580364
0.580364
0.580364
0.580365
0.580365
0.580366
0.580366
0.580366
0.580367
0.580368
0.580368
0.580368
0.580369
0.580369
0.58037
0.58037
0.58037
0.580371
0.580372
0.580372
0.580373
0.580373
0.580373
0.580374
0.580375
0.580375
0.580375
0.580376
0.580376
0.580377
0.580378
0.580378
0.580378
0.580379
0.580379
0.58038
0.58038
0.580381
0.580381
0.580382
0.580382
0.580382
0.580383
0.580384
0.580384
0.580385
0.580385
0.580386
0.580386
0.580387
0.580387
0.580387
0.580388
0.580389
0.580389
0.58039
0.58039
0.580391
0.580391
0.580392
0.580392
0.580392
0.580393
0.580394
0.580394
0.580395
0.580395
0.580396
0.580396
0.580397
0.580398
0.580398
0.580398
0.580399
0.5804
0.5804
0.5804
0.580401
0.580402
0.580402
0.580403
0.580403
0.580403
0.580404
0.580405
0.580405
0.580405
0.580406
0.580407
0.580407
0.580408
0.580408
0.580409
0.58041
0.58041
0.580411
0.580411
0.580412
0.580412
0.580413
0.580414
0.580414
0.580414
0.580415
0.580416
0.580416
0.580416
0.580417
0.580418
0.580419
0.580419
0.580419
0.58042
0.580421
0.580421
0.580422
0.580422
0.580423
0.580424
0.580424
0.580425
0.580425
0.580426
0.580426
0.580427
0.580428
0.580428
0.580429
0.580429
0.58043
0.580431
0.580431
0.580431
0.580432
0.580433
0.580434
0.580434
0.580434
0.580435
0.580436
0.580437
0.580437
0.580437
0.580438
0.580439
0.58044
0.58044
0.58044
0.580441
0.580442
0.580442
0.580442
0.580443
0.580444
0.580445
0.580446
0.580446
0.580446
0.580447
0.580448
0.580449
0.580449
0.580449
0.58045
0.580451
0.580452
0.580452
0.580452
0.580453
0.580454
0.580455
0.580455
0.580455
0.580456
0.580457
0.580458
0.580458
0.580459
0.580459
0.58046
0.580461
0.580461
0.580462
0.580463
0.580463
0.580464
0.580464
0.580465
0.580466
0.580466
0.580467
0.580467
0.580468
0.580469
0.58047
0.580471
0.580471
0.580471
0.580472
0.580473
0.580474
0.580474
0.580475
0.580475
0.580476
0.580477
0.580477
0.580478
0.580479
0.580479
0.58048
0.58048
0.580481
0.580482
0.580483
0.580484
0.580484
0.580484
0.580485
0.580486
0.580487
0.580487
0.580488
0.580489
0.580489
0.58049
0.58049
0.580491
0.580492
0.580493
0.580494
0.580494
0.580495
0.580495
0.580496
0.580497
0.580497
0.580498
0.580499
0.5805
0.580501
0.580501
0.580501
0.580502
0.580503
0.580504
0.580504
0.580505
0.580506
0.580507
0.580507
0.580507
0.580508
0.580509
0.58051
0.580511
0.580511
0.580512
0.580513
0.580514
0.580514
0.580514
0.580515
0.580516
0.580517
0.580518
0.580518
0.580519
0.58052
0.580521
0.580522
0.580522
0.580522
0.580523
0.580524
0.580525
0.580525
0.580526
0.580527
0.580528
0.580529
0.580529
0.58053
0.580531
0.580532
0.580533
0.580533
0.580533
0.580534
0.580535
0.580536
0.580536
0.580537
0.580538
0.580539
0.58054
0.58054
0.580541
0.580542
0.580543
0.580544
0.580544
0.580545
0.580546
0.580547
0.580547
0.580547
0.580548
0.580549
0.58055
0.580551
0.580551
0.580552
0.580553
0.580554
0.580555
0.580555
0.580556
0.580557
0.580558
0.580559
0.580559
0.58056
0.580561
0.580562
0.580563
0.580563
0.580564
0.580565
0.580566
0.580567
0.580567
0.580568
0.580569
0.58057
0.580571
0.580571
0.580572
0.580573
0.580574
0.580575
0.580575
0.580576
0.580577
0.580578
0.580579
0.580579
0.58058
0.580581
0.580581
0.580582
0.580582
0.580584
0.580585
0.580586
0.580587
0.580587
0.580588
0.580589
0.58059
0.580591
0.580591
0.580592
0.580593
0.580594
0.580595
0.580595
0.580596
0.580597
0.580598
0.580599
0.580599
0.5806
0.580601
0.580602
0.580603
0.580603
0.580604
0.580605
0.580606
0.580607
0.580607
0.580608
0.580609
0.58061
0.580611
0.580611
0.580612
0.580613
0.580614
0.580615
0.580615
0.580616
0.580617
0.580618
0.58062
0.58062
0.580621
0.580622
0.580623
0.580624
0.580624
0.580625
0.580626
0.580627
0.580628
0.580628
0.580629
0.58063
0.580631
0.580632
0.580632
0.580633
0.580634
0.580636
0.580637
0.580637
0.580638
0.580639
0.58064
0.580641
0.580641
0.580642
0.580643
0.580644
0.580645
0.580645
0.580647
0.580648
0.580649
0.58065
0.58065
0.580651
0.580652
0.580653
0.580654
0.580654
0.580655
0.580657
0.580658
0.580659
0.580659
0.58066
0.580661
0.580662
0.580663
0.580663
0.580664
0.580665
0.580667
0.580668
0.580668
0.580669
0.58067
0.580671
0.580672
0.580672
0.580673
0.580675
0.580676
0.580677
0.580677
0.580678
0.580679
0.58068
0.580681
0.580681
0.580683
0.580684
0.580685
0.580686
0.580686
0.580687
0.580688
0.58069
0.580691
0.580691
0.580692
0.580693
0.580694
0.580695
0.580695
0.580696
0.580698
0.580699
0.5807
0.5807
0.580701
0.580702
0.580704
0.580705
0.580705
0.580706
0.580707
0.580708
0.580709
0.580709
0.580711
0.580712
0.580713
0.580714
0.580714
0.580715
0.580717
0.580718
0.580719
0.580719
0.58072
0.580721
0.580723
0.580724
0.580724
0.580725
0.580726
0.580727
0.580729
0.580729
0.58073
0.580731
0.580732
0.580734
0.580734
0.580735
0.580736
0.580737
0.580738
0.580738
0.58074
0.580741
0.580742
0.580743
0.580743
0.580744
0.580746
0.580747
0.580748
0.580748
0.580749
0.580751
0.580752
0.580753
0.580753
0.580754
0.580756
0.580757
0.580758
0.580758
0.58076
0.580761
0.580762
0.580763
0.580763
0.580765
0.580766
0.580767
0.580768
0.580768
0.58077
0.580771
0.580772
0.580774
0.580774
0.580775
0.580776
0.580777
0.580779
0.580779
0.58078
0.580781
0.580782
0.580784
0.580784
0.580785
0.580786
0.580788
0.580789
0.580789
0.58079
0.580792
0.580793
0.580794
0.580794
0.580795
0.580797
0.580798
0.580799
0.580799
0.580801
0.580802
0.580803
0.580805
0.580805
0.580806
0.580807
0.580809
0.58081
0.58081
0.580811
0.580813
0.580814
0.580815
0.580815
0.580817
0.580818
0.580819
0.580821
0.580821
0.580822
0.580823
0.580825
0.580826
0.580826
0.580827
0.580829
0.58083
0.580831
0.580831
0.580833
0.580834
0.580835
0.580837
0.580837
0.580838
0.580839
0.580841
0.580842
0.580842
0.580843
0.580845
0.580846
0.580848
0.580848
0.580849
0.58085
0.580852
0.580853
0.580853
0.580854
0.580856
0.580857
0.580858
0.580858
0.58086
0.580861
0.580863
0.580864
0.580864
0.580865
0.580867
0.580868
0.58087
0.58087
0.580871
0.580872
0.580874
0.580875
0.580875
0.580877
0.580878
0.580879
0.580881
0.580881
0.580882
0.580884
0.580885
0.580887
0.580887
0.580888
0.580889
0.580891
0.580892
0.580892
0.580894
0.580895
0.580897
0.580898
0.580898
0.580899
0.580901
0.580902
0.580904
0.580904
0.580905
0.580907
0.580908
0.580909
0.580909
0.580911
0.580912
0.580914
0.580915
0.580915
0.580917
0.580918
0.58092
0.580921
0.580921
0.580923
0.580924
0.580925
0.580927
0.580927
0.580928
0.58093
0.580931
0.580933
0.580933
0.580934
0.580936
0.580937
0.580939
0.580939
0.58094
0.580942
0.580943
0.580945
0.580945
0.580946
0.580948
0.580949
0.580951
0.580951
0.580952
0.580954
0.580955
0.580957
0.580957
0.580958
0.58096
0.580961
0.580963
0.580963
0.580964
0.580966
0.580967
0.580969
0.580969
0.58097
0.580972
0.580973
0.580975
0.580975
0.580976
0.580978
0.580979
0.580981
0.580981
0.580982
0.580984
0.580985
0.580987
0.580987
0.580988
0.58099
0.580991
0.580993
0.580993
0.580994
0.580996
0.580998
0.580999
0.580999
0.581001
0.581002
0.581004
0.581005
0.581005
0.581007
0.581008
0.58101
0.581012
0.581012
0.581013
0.581015
0.581016
0.581018
0.581018
0.581019
0.581021
0.581023
0.581024
0.581024
0.581026
0.581027
0.581029
0.581031
0.581031
0.581032
0.581034
0.581035
0.581037
0.581037
0.581038
0.58104
0.581042
0.581043
0.581043
0.581045
0.581046
0.581048
0.58105
0.58105
0.581051
0.581053
0.581054
0.581056
0.581056
0.581058
0.581059
0.581061
0.581063
0.581063
0.581064
0.581066
0.581067
0.581069
0.581069
0.581071
0.581072
0.581074
0.581076
0.581076
0.581077
0.581079
0.58108
0.581082
0.581082
0.581084
0.581085
0.581087
0.581089
0.581089
0.58109
0.581092
0.581094
0.581095
0.581095
0.581097
0.581098
0.5811
0.581102
0.581102
0.581103
0.581105
0.581107
0.581108
0.581108
0.58111
0.581112
0.581113
0.581115
0.581115
0.581117
0.581118
0.58112
0.581122
0.581122
0.581124
0.581125
0.581127
0.581129
0.581129
0.58113
0.581132
0.581134
0.581135
0.581135
0.581137
0.581139
0.581141
0.581142
0.581142
0.581144
0.581146
0.581147
0.581149
0.581149
0.581151
0.581153
0.581154
0.581156
0.581156
0.581158
0.581159
0.581161
0.581163
0.581163
0.581165
0.581166
0.581168
0.58117
0.58117
0.581172
0.581173
0.581175
0.581177
0.581177
0.581178
0.58118
0.581182
0.581184
0.581184
0.581185
0.581187
0.581189
0.581191
0.581191
0.581192
0.581194
0.581196
0.581198
0.581198
0.581199
0.581201
0.581203
0.581205
0.581205
0.581207
0.581208
0.58121
0.581212
0.581212
0.581214
0.581215
0.581217
0.581219
0.581219
0.581221
0.581222
0.581224
0.581226
0.581226
0.581228
0.58123
0.581231
0.581233
0.581233
0.581235
0.581237
0.581239
0.58124
0.58124
0.581242
0.581244
0.581246
0.581248
0.581248
0.58125
0.581251
0.581253
0.581255
0.581255
0.581257
0.581259
0.581261
0.581262
0.581262
0.581264
0.581266
0.581268
0.58127
0.58127
0.581272
0.581273
0.581275
0.581277
0.581277
0.581279
0.581281
0.581283
0.581284
0.581284
0.581286
0.581288
0.58129
0.581292
0.581292
0.581294
0.581296
0.581297
0.581299
0.581299
0.581301
0.581303
0.581305
0.581307
0.581307
0.581309
0.581311
0.581312
0.581314
0.581314
0.581316
0.581318
0.58132
0.581322
0.581322
0.581324
0.581326
0.581328
0.581329
0.581329
0.581331
0.581333
0.581335
0.581337
0.581337
0.581339
0.581341
0.581343
0.581345
0.581345
0.581346
0.581348
0.58135
0.581352
0.581352
0.581354
0.581356
0.581358
0.58136
0.58136
0.581362
0.581364
0.581366
0.581368
0.581368
0.58137
0.581371
0.581373
0.581375
0.581375
0.581377
0.581379
0.581381
0.581383
0.581383
0.581385
0.581387
0.581389
0.581391
0.581391
0.581393
0.581395
0.581397
0.581399
0.581399
0.581401
0.581403
0.581405
0.581407
0.581407
0.581409
0.581411
0.581413
0.581415
0.581415
0.581417
0.581419
0.581421
0.581423
0.581423
0.581425
0.581427
0.581429
0.581431
0.581431
0.581433
0.581435
0.581437
0.581439
0.581439
0.581441
0.581443
0.581445
0.581447
0.581447
0.581449
0.581451
0.581453
0.581455
0.581455
0.581457
0.581459
0.581461
0.581463
0.581463
0.581465
0.581467
0.581469
0.581471
0.581471
0.581473
0.581475
0.581477
0.581479
0.581479
0.581481
0.581483
0.581485
0.581487
0.581487
0.581489
0.581491
0.581493
0.581495
0.581495
0.581497
0.581499
0.581501
0.581504
0.581504
0.581506
0.581508
0.58151
0.581512
0.581512
0.581514
0.581516
0.581518
0.58152
0.58152
0.581522
0.581524
0.581526
0.581529
0.581529
0.581531
0.581533
0.581535
0.581537
0.581537
0.581539
0.581541
0.581543
0.581545
0.581545
0.581547
0.58155
0.581552
0.581554
0.581554
0.581556
0.581558
0.58156
0.581562
0.581562
0.581564
0.581566
0.581569
0.581571
0.581571
0.581573
0.581575
0.581577
0.581579
0.581579
0.581581
0.581583
0.581586
0.581588
0.581588
0.58159
0.581592
0.581594
0.581596
0.581596
0.581598
0.581601
0.581603
0.581605
0.581605
0.581607
0.581609
0.581611
0.581613
0.581613
0.581616
0.581618
0.58162
0.581622
0.581622
0.581624
0.581626
0.581629
0.581631
0.581631
0.581633
0.581635
0.581637
0.58164
0.58164
0.581642
0.581644
0.581646
0.581648
0.581648
0.581651
0.581653
0.581655
0.581657
0.581657
0.58166
0.581662
0.581664
0.581666
0.581666
0.581668
0.581671
0.581673
0.581675
0.581675
0.581677
0.58168
0.581682
0.581684
0.581684
0.581686
0.581688
0.581691
0.581693
0.581693
0.581695
0.581697
0.5817
0.581702
0.581702
0.581704
0.581706
0.581709
0.581711
0.581711
0.581713
0.581715
0.581718
0.58172
0.58172
0.581722
0.581724
0.581727
0.581729
0.581729
0.581731
0.581733
0.581736
0.581738
0.581738
0.58174
0.581742
0.581745
0.581747
0.581747
0.581749
0.581752
0.581754
0.581756
0.581756
0.581759
0.581761
0.581763
0.581765
0.581765
0.581768
0.58177
0.581772
0.581775
0.581775
0.581777
0.581779
0.581782
0.581784
0.581784
0.581786
0.581789
0.581791
0.581793
0.581793
0.581796
0.581798
0.5818
0.581803
0.581803
0.581805
0.581807
0.58181
0.581812
0.581812
0.581814
0.581817
0.581819
0.581821
0.581821
0.581824
0.581826
0.581829
0.581831
0.581831
0.581833
0.581836
0.581838
0.58184
0.58184
0.581843
0.581845
0.581847
0.58185
0.58185
0.581852
0.581855
0.581857
0.581859
0.581859
0.581862
0.581864
0.581866
0.581869
0.581869
0.581871
0.581874
0.581876
0.581878
0.581878
0.581881
0.581883
0.581886
0.581888
0.581888
0.58189
0.581893
0.581895
0.581898
0.581898
0.5819
0.581903
0.581905
0.581907
0.581907
0.58191
0.581912
0.581915
0.581917
0.581917
0.58192
0.581922
0.581925
0.581927
0.581927
0.581929
0.581932
0.581934
0.581937
0.581937
0.581939
0.581942
0.581944
0.581947
0.581947
0.581949
0.581952
0.581954
0.581957
0.581957
0.581959
0.581961
0.581964
0.581966
0.581966
0.581969
0.581971
0.581974
0.581976
0.581976
0.581979
0.581981
0.581984
0.581986
0.581986
0.581989
0.581991
0.581994
0.581996
0.581996
0.581999
0.582001
0.582004
0.582006
0.582006
0.582009
0.582011
0.582014
0.582016
0.582016
0.582019
0.582021
0.582024
0.582026
0.582026
0.582029
0.582031
0.582034
0.582037
0.582037
0.582039
0.582042
0.582044
0.582047
0.582047
0.582049
0.582052
0.582054
0.582057
0.582057
0.58206
0.582062
0.582065
0.582067
0.582067
0.58207
0.582072
0.582075
0.582078
0.582078
0.58208
0.582083
0.582085
0.582088
0.582088
0.58209
0.582093
0.582096
0.582098
0.582098
0.582101
0.582103
0.582106
0.582109
0.582109
0.582111
0.582114
0.582116
0.582119
0.582119
0.582122
0.582124
0.582127
0.582129
0.582129
0.582132
0.582135
0.582137
0.58214
0.58214
0.582142
0.582145
0.582148
0.58215
0.58215
0.582153
0.582156
0.582158
0.582161
0.582161
0.582164
0.582166
0.582169
0.582172
0.582172
0.582174
0.582177
0.58218
0.582182
0.582182
0.582185
0.582188
0.58219
0.582193
0.582193
0.582196
0.582198
0.582201
0.582204
0.582204
0.582206
0.582209
0.582212
0.582214
0.582214
0.582217
0.58222
0.582222
0.582225
0.582225
0.582228
0.582231
0.582233
0.582236
0.582236
0.582239
0.582241
0.582244
0.582247
0.582247
0.582249
0.582252
0.582255
0.582258
0.582258
0.58226
0.582263
0.582266
0.582268
0.582268
0.582271
0.582274
0.582277
0.582279
0.582279
0.582282
0.582285
0.582288
0.58229
0.58229
0.582293
0.582296
0.582299
0.582301
0.582301
0.582304
0.582307
0.58231
0.582312
0.582312
0.582315
0.582318
0.582321
0.582324
0.582324
0.582326
0.582329
0.582332
0.582335
0.582335
0.582338
0.58234
0.582343
0.582346
0.582346
0.582349
0.582352
0.582354
0.582357
0.582357
0.58236
0.582363
0.582366
0.582368
0.582368
0.582371
0.582374
0.582377
0.58238
0.58238
0.582383
0.582385
0.582388
0.582391
0.582391
0.582394
0.582397
0.5824
0.582402
0.582402
0.582405
0.582408
0.582411
0.582414
0.582414
0.582417
0.582419
0.582422
0.582425
0.582425
0.582428
0.582431
0.582434
0.582436
0.582436
0.582439
0.582442
0.582445
0.582448
0.582448
0.582451
0.582454
0.582457
0.58246
0.58246
0.582463
0.582465
0.582468
0.582471
0.582471
0.582474
0.582477
0.58248
0.582483
0.582483
0.582486
0.582489
0.582492
0.582495
0.582495
0.582497
0.5825
0.582503
0.582506
0.582506
0.582509
0.582512
0.582515
0.582518
0.582518
0.582521
0.582524
0.582527
0.58253
0.58253
0.582533
0.582536
0.582539
0.582541
0.582541
0.582544
0.582547
0.58255
0.582553
0.582553
0.582556
0.582559
0.582562
0.582565
0.582565
0.582568
0.582571
0.582574
0.582577
0.582577
0.58258
0.582583
0.582586
0.582589
0.582589
0.582592
0.582595
0.582598
0.582601
0.582601
0.582604
0.582607
0.58261
0.582613
0.582613
0.582616
0.582619
0.582622
0.582625
0.582625
0.582628
0.582631
0.582634
0.582637
0.582637
0.58264
0.582643
0.582646
0.582649
0.582649
0.582653
0.582656
0.582659
0.582662
0.582662
0.582665
0.582668
0.582671
0.582674
0.582674
0.582677
0.58268
0.582683
0.582686
0.582686
0.582689
0.582692
0.582695
0.582698
0.582698
0.582701
0.582704
0.582708
0.582711
0.582711
0.582714
0.582717
0.58272
0.582723
0.582723
0.582726
0.582729
0.582732
0.582735
0.582735
0.582739
0.582742
0.582745
0.582748
0.582748
0.582751
0.582754
0.582757
0.582761
0.582761
0.582764
0.582767
0.58277
0.582773
0.582773
0.582776
0.582779
0.582783
0.582786
0.582786
0.582789
0.582792
0.582795
0.582798
0.582798
0.582801
0.582805
0.582808
0.582811
0.582811
0.582814
0.582817
0.58282
0.582824
0.582824
0.582827
0.58283
0.582833
0.582836
0.582836
0.582839
0.582843
0.582846
0.582849
0.582849
0.582852
0.582855
0.582859
0.582862
0.582862
0.582865
0.582868
0.582871
0.582875
0.582875
0.582878
0.582881
0.582884
0.582888
0.582888
0.582891
0.582894
0.582897
0.582901
0.582901
0.582904
0.582907
0.58291
0.582914
0.582914
0.582917
0.58292
0.582923
0.582927
0.582927
0.58293
0.582933
0.582936
0.58294
0.58294
0.582943
0.582946
0.582949
0.582953
0.582953
0.582956
0.582959
0.582963
0.582966
0.582966
0.582969
0.582972
0.582976
0.582979
0.582979
0.582982
0.582986
0.582989
0.582992
0.582992
0.582995
0.582999
0.583002
0.583005
0.583005
0.583009
0.583012
0.583015
0.583019
0.583019
0.583022
0.583025
0.583029
0.583032
0.583032
0.583035
0.583039
0.583042
0.583046
0.583046
0.583049
0.583052
0.583056
0.583059
0.583059
0.583062
0.583066
0.583069
0.583072
0.583072
0.583076
0.583079
0.583083
0.583086
0.583086
0.583089
0.583093
0.583096
0.5831
0.5831
0.583103
0.583106
0.58311
0.583113
0.583113
0.583117
0.58312
0.583123
0.583127
0.583127
0.58313
0.583134
0.583137
0.58314
0.58314
0.583144
0.583147
0.583151
0.583154
0.583154
0.583157
0.583161
0.583164
0.583168
0.583168
0.583171
0.583175
0.583178
0.583182
0.583182
0.583185
0.583189
0.583192
0.583195
0.583195
0.583199
0.583202
0.583206
0.583209
0.583209
0.583213
0.583216
0.58322
0.583223
0.583223
0.583227
0.58323
0.583234
0.583237
0.583237
0.583241
0.583244
0.583248
0.583251
0.583251
0.583255
0.583258
0.583262
0.583265
0.583265
0.583269
0.583272
0.583276
0.583279
0.583279
0.583283
0.583286
0.58329
0.583294
0.583294
0.583297
0.583301
0.583304
0.583308
0.583308
0.583311
0.583315
0.583318
0.583322
0.583322
0.583325
0.583329
0.583333
0.583336
0.583336
0.58334
0.583343
0.583347
0.583351
0.583351
0.583354
0.583358
0.583361
0.583365
0.583365
0.583369
0.583372
0.583376
0.583379
0.583379
0.583383
0.583387
0.58339
0.583394
0.583394
0.583398
0.583401
0.583405
0.583408
0.583408
0.583412
0.583416
0.583419
0.583423
0.583423
0.583427
0.58343
0.583434
0.583437
0.583437
0.583441
0.583445
0.583448
0.583452
0.583452
0.583456
0.583459
0.583463
0.583467
0.583467
0.58347
0.583474
0.583478
0.583481
0.583481
0.583485
0.583489
0.583492
0.583496
0.583496
0.5835
0.583504
0.583507
0.583511
0.583511
0.583515
0.583518
0.583522
0.583526
0.583526
0.58353
0.583533
0.583537
0.583541
0.583541
0.583545
0.583548
0.583552
0.583556
0.583556
0.583559
0.583563
0.583567
0.583571
0.583571
0.583574
0.583578
0.583582
0.583586
0.583586
0.583589
0.583593
0.583597
0.583601
0.583601
0.583604
0.583608
0.583612
0.583616
0.583616
0.583619
0.583623
0.583627
0.583631
0.583631
0.583635
0.583639
0.583642
0.583646
0.583646
0.58365
0.583654
0.583658
0.583661
0.583661
0.583665
0.583669
0.583673
0.583677
0.583677
0.583681
0.583685
0.583688
0.583692
0.583692
0.583696
0.5837
0.583704
0.583708
0.583708
0.583711
0.583715
0.583719
0.583723
0.583723
0.583727
0.583731
0.583735
0.583738
0.583738
0.583742
0.583746
0.58375
0.583754
0.583754
0.583758
0.583762
0.583766
0.583769
0.583769
0.583773
0.583777
0.583781
0.583785
0.583785
0.583789
0.583793
0.583797
0.583801
0.583801
0.583805
0.583809
0.583813
0.583817
0.583817
0.58382
0.583824
0.583828
0.583832
0.583832
0.583836
0.58384
0.583844
0.583848
0.583848
0.583852
0.583856
0.58386
0.583864
0.583864
0.583868
0.583872
0.583876
0.58388
0.58388
0.583884
0.583888
0.583892
0.583896
0.583896
0.5839
0.583904
0.583908
0.583912
0.583912
0.583916
0.58392
0.583924
0.583928
0.583928
0.583932
0.583936
0.58394
0.583944
0.583944
0.583948
0.583952
0.583956
0.58396
0.58396
0.583964
0.583968
0.583972
0.583976
0.583976
0.58398
0.583984
0.583989
0.583993
0.583993
0.583997
0.584001
0.584005
0.584009
0.584009
0.584013
0.584017
0.584021
0.584025
0.584025
0.584029
0.584033
0.584037
0.584042
0.584042
0.584046
0.58405
0.584054
0.584058
0.584058
0.584062
0.584066
0.58407
0.584074
0.584074
0.584078
0.584083
0.584087
0.584091
0.584091
0.584095
0.584099
0.584103
0.584107
0.584107
0.584112
0.584116
0.58412
0.584124
0.584124
0.584128
0.584132
0.584137
0.584141
0.584141
0.584145
0.584149
0.584153
0.584158
0.584158
0.584162
0.584166
0.58417
0.584174
0.584174
0.584179
0.584183
0.584187
0.584191
0.584191
0.584195
0.5842
0.584204
0.584208
0.584208
0.584212
0.584217
0.584221
0.584225
0.584225
0.584229
0.584233
0.584238
0.584242
0.584242
0.584246
0.58425
0.584255
0.584259
0.584259
0.584263
0.584267
0.584272
0.584276
0.584276
0.58428
0.584285
0.584289
0.584293
0.584293
0.584297
0.584302
0.584306
0.58431
0.58431
0.584315
0.584319
0.584323
0.584328
0.584328
0.584332
0.584336
0.584341
0.584345
0.584345
0.584349
0.584354
0.584358
0.584362
0.584362
0.584367
0.584371
0.584375
0.58438
0.58438
0.584384
0.584388
0.584393
0.584397
0.584397
0.584401
0.584406
0.58441
0.584414
0.584414
0.584419
0.584423
0.584427
0.584432
0.584432
0.584436
0.584441
0.584445
0.58445
0.58445
0.584454
0.584458
0.584463
0.584467
0.584467
0.584472
0.584476
0.584481
0.584485
0.584485
0.584489
0.584494
0.584498
0.584503
0.584503
0.584507
0.584512
0.584516
0.58452
0.58452
0.584525
0.584529
0.584534
0.584538
0.584538
0.584543
0.584547
0.584552
0.584556
0.584556
0.584561
0.584565
0.58457
0.584574
0.584574
0.584578
0.584583
0.584587
0.584592
0.584592
0.584596
0.584601
0.584606
0.58461
0.58461
0.584615
0.584619
0.584624
0.584628
0.584628
0.584633
0.584637
0.584642
0.584646
0.584646
0.584651
0.584656
0.58466
0.584665
0.584665
0.584669
0.584674
0.584678
0.584683
0.584683
0.584688
0.584692
0.584697
0.584701
0.584701
0.584706
0.58471
0.584715
0.58472
0.58472
0.584724
0.584729
0.584733
0.584738
0.584738
0.584743
0.584747
0.584752
0.584756
0.584756
0.584761
0.584766
0.58477
0.584775
0.584775
0.58478
0.584784
0.584789
0.584794
0.584794
0.584798
0.584803
0.584808
0.584812
0.584812
0.584817
0.584822
0.584826
0.584831
0.584831
0.584836
0.58484
0.584845
0.58485
0.58485
0.584854
0.584859
0.584864
0.584869
0.584869
0.584873
0.584878
0.584883
0.584887
0.584887
0.584892
0.584897
0.584901
0.584906
0.584906
0.584911
0.584916
0.58492
0.584925
0.584925
0.58493
0.584935
0.584939
0.584944
0.584944
0.584949
0.584954
0.584959
0.584963
0.584963
0.584968
0.584973
0.584978
0.584983
0.584983
0.584987
0.584992
0.584997
0.585002
0.585002
0.585007
0.585011
0.585016
0.585021
0.585021
0.585026
0.585031
0.585035
0.58504
0.58504
0.585045
0.58505
0.585055
0.58506
0.58506
0.585064
0.585069
0.585074
0.585079
0.585079
0.585084
0.585089
0.585093
0.585098
0.585098
0.585103
0.585108
0.585113
0.585118
0.585118
0.585123
0.585128
0.585133
0.585138
0.585138
0.585143
0.585147
0.585152
0.585157
0.585157
0.585162
0.585167
0.585172
0.585177
0.585177
0.585182
0.585187
0.585192
0.585197
0.585197
0.585202
0.585207
0.585212
0.585217
0.585217
0.585221
0.585226
0.585231
0.585236
0.585236
0.585241
0.585246
0.585251
0.585256
0.585256
0.585261
0.585266
0.585271
0.585276
0.585276
0.585281
0.585286
0.585291
0.585296
0.585296
0.585301
0.585306
0.585311
0.585316
0.585316
0.585322
0.585327
0.585332
0.585337
0.585337
0.585342
0.585347
0.585352
0.585357
0.585357
0.585362
0.585367
0.585372
0.585377
0.585377
0.585382
0.585387
0.585392
0.585397
0.585397
0.585403
0.585408
0.585413
0.585418
0.585418
0.585423
0.585428
0.585433
0.585438
0.585438
0.585443
0.585448
0.585454
0.585459
0.585459
0.585464
0.585469
0.585474
0.585479
0.585479
0.585485
0.58549
0.585495
0.5855
0.5855
0.585505
0.58551
0.585516
0.585521
0.585521
0.585526
0.585531
0.585536
0.585542
0.585542
0.585547
0.585552
0.585557
0.585562
0.585562
0.585568
0.585573
0.585578
0.585583
0.585583
0.585588
0.585594
0.585599
0.585604
0.585604
0.585609
0.585614
0.58562
0.585625
0.585625
0.58563
0.585636
0.585641
0.585646
0.585646
0.585651
0.585657
0.585662
0.585667
0.585667
0.585673
0.585678
0.585683
0.585689
0.585689
0.585694
0.585699
0.585704
0.58571
0.58571
0.585715
0.58572
0.585726
0.585731
0.585731
0.585736
0.585742
0.585747
0.585752
0.585752
0.585758
0.585763
0.585768
0.585774
0.585774
0.585779
0.585784
0.58579
0.585795
0.585795
0.585801
0.585806
0.585811
0.585817
0.585817
0.585822
0.585828
0.585833
0.585838
0.585838
0.585844
0.585849
0.585855
0.58586
0.58586
0.585866
0.585871
0.585877
0.585882
0.585882
0.585887
0.585893
0.585898
0.585904
0.585904
0.585909
0.585915
0.58592
0.585926
0.585926
0.585931
0.585936
0.585942
0.585947
0.585947
0.585953
0.585958
0.585964
0.585969
0.585969
0.585975
0.58598
0.585986
0.585991
0.585991
0.585997
0.586002
0.586008
0.586014
0.586014
0.586019
0.586025
0.58603
0.586036
0.586036
0.586041
0.586047
0.586053
0.586058
0.586058
0.586064
0.586069
0.586075
0.58608
0.58608
0.586086
0.586092
0.586097
0.586103
0.586103
0.586108
0.586114
0.58612
0.586125
0.586125
0.586131
0.586136
0.586142
0.586148
0.586148
0.586153
0.586159
0.586164
0.58617
0.58617
0.586176
0.586181
0.586187
0.586193
0.586193
0.586199
0.586204
0.58621
0.586216
0.586216
0.586221
0.586227
0.586233
0.586238
0.586238
0.586244
0.58625
0.586256
0.586261
0.586261
0.586267
0.586273
0.586278
0.586284
0.586284
0.58629
0.586296
0.586301
0.586307
0.586307
0.586313
0.586319
0.586324
0.58633
0.58633
0.586336
0.586341
0.586347
0.586353
0.586353
0.586359
0.586365
0.58637
0.586376
0.586376
0.586382
0.586388
0.586394
0.5864
0.5864
0.586405
0.586411
0.586417
0.586423
0.586423
0.586429
0.586435
0.58644
0.586446
0.586446
0.586452
0.586458
0.586464
0.58647
0.58647
0.586476
0.586481
0.586487
0.586493
0.586493
0.586499
0.586505
0.586511
0.586517
0.586517
0.586523
0.586528
0.586534
0.58654
0.58654
0.586546
0.586552
0.586558
0.586564
0.586564
0.58657
0.586576
0.586582
0.586588
0.586588
0.586594
0.5866
0.586606
0.586612
0.586612
0.586618
0.586624
0.58663
0.586636
0.586636
0.586642
0.586648
0.586654
0.58666
0.58666
0.586666
0.586672
0.586678
0.586684
0.586684
0.58669
0.586696
0.586702
0.586708
0.586708
0.586714
0.58672
0.586726
0.586732
0.586732
0.586738
0.586744
0.58675
0.586756
0.586756
0.586762
0.586768
0.586774
0.586781
0.586781
0.586787
0.586793
0.586799
0.586805
0.586805
0.586811
0.586817
0.586823
0.58683
0.58683
0.586836
0.586842
0.586848
0.586854
0.586854
0.58686
0.586866
0.586872
0.586879
0.586879
0.586885
0.586891