<?xml version="1.0"?>
<VTKFile type="UnstructuredGrid" version="0.1" byte_order="LittleEndian">
<UnstructuredGrid>
<Piece NumberOfPoints="5000" NumberOfCells="4000">
<PointData Scalars="Reaction 0">
<DataArray type="Float32" Name="Reaction 0" format="ascii">
0.578902
0.578902
0.578902
0.578902
0.578902
0.578902
0.578902
0.578902
0.578902
0.578902
0.578902
0.578902
0.578902
0.578902
0.578902
0.578902
0.578902
0.578903
0.578903
0.578903
0.578903
0.578903
0.578903
0.578903
0.578903
0.578903
0.578903
0.578903
0.578903
0.578903
0.578903
0.578903
0.578903
0.578903
0.578903
0.578903
0.578903
0.578903
0.578903
0.578903
0.578903
0.578903
0.578903
0.578903
0.578903
0.578903
0.578903
0.578903
0.578903
0.578903
0.578903
0.578903
0.578903
0.578904
0.578904
0.578904
0.578904
0.578904
0.578904
0.578904
0.578904
0.578904
0.578904
0.578904
0.578904
0.578904
0.578904
0.578904
0.578904
0.578904
0.578904
0.578904
0.578904
0.578905
0.578905
0.578905
0.578905
0.578905
0.578905
0.578905
0.578905
0.578905
0.578905
0.578905
0.578905
0.578905
0.578905
0.578905
0.578906
0.578906
0.578906
0.578906
0.578906
0.578906
0.578906
0.578906
0.578906
0.578906
0.578906
0.578906
0.578906
0.578906
0.578907
0.578907
0.578907
0.578907
0.578907
0.578907
0.578907
0.578907
0.578907
0.578907
0.578907
0.578908
0.578908
0.578908
0.578908
0.578908
0.578908
0.578908
0.578908
0.578908
0.578908
0.578908
0.578909
0.578909
0.578909
0.578909
0.578909
0.578909
0.578909
0.578909
0.578909
0.57891
0.57891
0.57891
0.57891
0.57891
0.57891
0.57891
0.57891
0.57891
0.57891
0.578911
0.578911
0.578911
0.578911
0.578911
0.578911
0.578911
0.578911
0.578912
0.578912
0.578912
0.578912
0.578912
0.578912
0.578912
0.578912
0.578913
0.578913
0.578913
0.578913
0.578913
0.578913
0.578913
0.578913
0.578914
0.578914
0.578914
0.578914
0.578914
0.578914
0.578914
0.578915
0.578915
0.578915
0.578915
0.578915
0.578915
0.578915
0.578915
0.578916
0.578916
0.578916
0.578916
0.578916
0.578916
0.578917
0.578917
0.578917
0.578917
0.578917
0.578917
0.578918
0.578918
0.578918
0.578918
0.578918
0.578918
0.578918
0.578919
0.578919
0.578919
0.578919
0.578919
0.578919
0.57892
0.57892
0.57892
0.57892
0.57892
0.57892
0.578921
0.578921
0.578921
0.578921
0.578921
0.578921
0.578922
0.578922
0.578922
0.578922
0.578922
0.578923
0.578923
0.578923
0.578923
0.578923
0.578923
0.578923
0.578924
0.578924
0.578924
0.578924
0.578924
0.578925
0.578925
0.578925
0.578925
0.578925
0.578926
0.578926
0.578926
0.578926
0.578926
0.578927
0.578927
0.578927
0.578927
0.578927
0.578928
0.578928
0.578928
0.578928
0.578928
0.578929
0.578929
0.578929
0.578929
0.578929
0.57893
0.57893
0.57893
0.57893
0.57893
0.578931
0.578931
0.578931
0.578931
0.578931
0.578932
0.578932
0.578932
0.578933
0.578933
0.578933
0.578933
0.578933
0.578934
0.578934
0.578934
0.578934
0.578935
0.578935
0.578935
0.578935
0.578935
0.578936
0.578936
0.578936
0.578936
0.578937
0.578937
0.578937
0.578937
0.578937
0.578938
0.578938
0.578938
0.578938
0.578939
0.578939
0.578939
0.578939
0.578939
0.57894
0.57894
0.57894
0.578941
0.578941
0.578941
0.578941
0.578942
0.578942
0.578942
0.578942
0.578943
0.578943
0.578943
0.578943
0.578944
0.578944
0.578944
0.578945
0.578945
0.578945
0.578945
0.578946
0.578946
0.578946
0.578946
0.578947
0.578947
0.578947
0.578947
0.578948
0.578948
0.578948
0.578949
0.578949
0.578949
0.578949
0.57895
0.57895
0.57895
0.57895
0.578951
0.578951
0.578951
0.578951
0.578952
0.578952
0.578952
0.578953
0.578953
0.578953
0.578953
0.578954
0.578954
0.578954
0.578955
0.578955
0.578955
0.578956
0.578956
0.578956
0.578956
0.578957
0.578957
0.578957
0.578957
0.578958
0.578958
0.578959
0.578959
0.578959
0.578959
0.57896
0.57896
0.57896
0.57896
0.578961
0.578961
0.578962
0.578962
0.578962
0.578962
0.578963
0.578963
0.578963
0.578964
0.578964
0.578964
0.578965
0.578965
0.578965
0.578966
0.578966
0.578966
0.578966
0.578967
0.578967
0.578968
0.578968
0.578968
0.578968
0.578969
0.578969
0.57897
0.57897
0.57897
0.57897
0.578971
0.578971
0.578971
0.578972
0.578972
0.578972
0.578973
0.578973
0.578973
0.578974
0.578974
0.578975
0.578975
0.578975
0.578975
0.578976
0.578976
0.578976
0.578977
0.578977
0.578978
0.578978
0.578978
0.578978
0.578979
0.578979
0.57898
0.57898
0.57898
0.578981
0.578981
0.578982
0.578982
0.578982
0.578982
0.578983
0.578983
0.578983
0.578984
0.578984
0.578985
0.578985
0.578985
0.578986
0.578986
0.578987
0.578987
0.578987
0.578988
0.578988
0.578988
0.578989
0.578989
0.578989
0.57899
0.57899
0.578991
0.578991
0.578991
0.578992
0.578992
0.578993
0.578993
0.578993
0.578994
0.578994
0.578995
0.578995
0.578995
0.578996
0.578996
0.578997
0.578997
0.578997
0.578998
0.578998
0.578998
0.578998
0.578999
0.578999
0.579
0.579
0.579
0.579001
0.579001
0.579002
0.579002
0.579002
0.579003
0.579003
0.579004
0.579004
0.579004
0.579005
0.579006
0.579006
0.579007
0.579007
0.579007
0.579008
0.579008
0.579009
0.579009
0.579009
0.57901
0.57901
0.579011
0.579011
0.579011
0.579012
0.579012
0.579013
0.579013
0.579013
0.579014
0.579014
0.579015
0.579015
0.579015
0.579016
0.579017
0.579017
0.579017
0.579018
0.579018
0.579019
0.579019
0.579019
0.57902
0.57902
0.579021
0.579021
0.579021
0.579022
0.579022
0.579023
0.579024
0.579024
0.579024
0.579025
0.579025
0.579026
0.579026
0.579026
0.579027
0.579027
0.579028
0.579028
0.579029
0.579029
0.57903
0.57903
0.57903
0.579031
0.579031
0.579032
0.579033
0.579033
0.579033
0.579034
0.579034
0.579035
0.579035
0.579035
0.579036
0.579037
0.579037
0.579037
0.579038
0.579038
0.579039
0.57904
0.57904
0.57904
0.579041
0.579041
0.579042
0.579042
0.579043
0.579043
0.579044
0.579044
0.579044
0.579045
0.579046
0.579046
0.579047
0.579047
0.579047
0.579048
0.579049
0.579049
0.579049
0.57905
0.57905
0.579051
0.579052
0.579052
0.579052
0.579053
0.579054
0.579054
0.579054
0.579055
0.579055
0.579056
0.579057
0.579057
0.579057
0.579058
0.579059
0.579059
0.579059
0.57906
0.57906
0.579061
0.579062
0.579062
0.579062
0.579063
0.579064
0.579064
0.579064
0.579065
0.579066
0.579066
0.579067
0.579067
0.579067
0.579068
0.579069
0.579069
0.579069
0.57907
0.579071
0.579071
0.579072
0.579072
0.579073
0.579073
0.579074
0.579075
0.579075
0.579075
0.579076
0.579077
0.579077
0.579077
0.579078
0.579079
0.579079
0.57908
0.57908
0.579081
0.579081
0.579082
0.579083
0.579083
0.579083
0.579084
0.579085
0.579085
0.579085
0.579086
0.579087
0.579088
0.579088
0.579088
0.579089
0.57909
0.57909
0.579091
0.579091
0.579092
0.579092
0.579093
0.579094
0.579094
0.579094
0.579095
0.579096
0.579097
0.579097
0.579097
0.579098
0.579099
0.579099
0.579099
0.5791
0.579101
0.579102
0.579102
0.579102
0.579103
0.579104
0.579104
0.579105
0.579105
0.579106
0.579107
0.579107
0.579108
0.579108
0.579109
0.579109
0.57911
0.579111
0.579111
0.579112
0.579112
0.579113
0.579114
0.579114
0.579115
0.579115
0.579116
0.579117
0.579117
0.579118
0.579118
0.579119
0.57912
0.57912
0.57912
0.579121
0.579122
0.579123
0.579123
0.579123
0.579124
0.579125
0.579126
0.579126
0.579127
0.579127
0.579128
0.579129
0.579129
0.57913
0.57913
0.579131
0.579132
0.579132
0.579133
0.579133
0.579134
0.579135
0.579135
0.579136
0.579137
0.579137
0.579138
0.579138
0.579139
0.57914
0.57914
0.579141
0.579141
0.579142
0.579143
0.579144
0.579144
0.579144
0.579145
0.579146
0.579147
0.579148
0.579148
0.579148
0.579149
0.57915
0.579151
0.579151
0.579152
0.579152
0.579153
0.579154
0.579154
0.579155
0.579156
0.579156
0.579157
0.579157
0.579158
0.579159
0.57916
0.57916
0.57916
0.579161
0.579162
0.579163
0.579164
0.579164
0.579165
0.579165
0.579166
0.579167
0.579167
0.579168
0.579169
0.57917
0.57917
0.57917
0.579171
0.579172
0.579173
0.579174
0.579174
0.579175
0.579175
0.579176
0.579177
0.579177
0.579178
0.579179
0.57918
0.57918
0.57918
0.579181
0.579182
0.579183
0.579184
0.579184
0.579185
0.579186
0.579186
0.579187
0.579187
0.579188
0.579189
0.57919
0.579191
0.579191
0.579192
0.579192
0.579193
0.579194
0.579194
0.579195
0.579196
0.579197
0.579198
0.579198
0.579199
0.579199
0.5792
0.579201
0.579201
0.579202
0.579203
0.579204
0.579205
0.579205
0.579206
0.579206
0.579207
0.579208
0.579208
0.579209
0.57921
0.579211
0.579212
0.579212
0.579213
0.579213
0.579214
0.579215
0.579215
0.579216
0.579217
0.579218
0.579219
0.579219
0.57922
0.579221
0.579222
0.579223
0.579223
0.579224
0.579224
0.579225
0.579226
0.579226
0.579227
0.579228
0.579229
0.57923
0.57923
0.579231
0.579232
0.579233
0.579234
0.579234
0.579235
0.579236
0.579237
0.579237
0.579237
0.579238
0.579239
0.57924
0.579241
0.579241
0.579242
0.579243
0.579244
0.579245
0.579245
0.579246
0.579247
0.579248
0.579249
0.579249
0.57925
0.579251
0.579252
0.579253
0.579253
0.579254
0.579254
0.579255
0.579256
0.579256
0.579257
0.579258
0.579259
0.57926
0.57926
0.579261
0.579262
0.579263
0.579264
0.579264
0.579265
0.579266
0.579267
0.579268
0.579268
0.579269
0.57927
0.579271
0.579272
0.579272
0.579273
0.579274
0.579275
0.579276
0.579276
0.579277
0.579278
0.579279
0.57928
0.57928
0.579281
0.579282
0.579283
0.579284
0.579284
0.579285
0.579286
0.579287
0.579288
0.579288
0.579289
0.57929
0.579291
0.579292
0.579292
0.579293
0.579294
0.579295
0.579296
0.579296
0.579297
0.579298
0.579299
0.5793
0.5793
0.579301
0.579302
0.579303
0.579304
0.579304
0.579305
0.579306
0.579307
0.579308
0.579308
0.579309
0.57931
0.579311
0.579312
0.579312
0.579313
0.579314
0.579315
0.579316
0.579316
0.579318
0.579319
0.57932
0.579321
0.579321
0.579322
0.579323
0.579324
0.579325
0.579325
0.579326
0.579327
0.579328
0.579329
0.579329
0.57933
0.579331
0.579332
0.579333
0.579333
0.579335
0.579336
0.579337
0.579338
0.579338
0.579339
0.57934
0.579341
0.579342
0.579342
0.579343
0.579344
0.579345
0.579346
0.579346
0.579347
0.579349
0.57935
0.579351
0.579351
0.579352
0.579353
0.579354
0.579355
0.579355
0.579356
0.579357
0.579358
0.57936
0.57936
0.579361
0.579362
0.579363
0.579364
0.579364
0.579365
0.579366
0.579367
0.579368
0.579368
0.579369
0.579371
0.579372
0.579373
0.579373
0.579374
0.579375
0.579376
0.579377
0.579377
0.579378
0.57938
0.579381
0.579382
0.579382
0.579383
0.579384
0.579385
0.579386
0.579386
0.579387
0.579389
0.57939
0.579391
0.579391
0.579392
0.579393
0.579394
0.579395
0.579395
0.579397
0.579398
0.579399
0.5794
0.5794
0.579401
0.579402
0.579403
0.579405
0.579405
0.579406
0.579407
0.579408
0.579409
0.579409
0.57941
0.579411
0.579413
0.579414
0.579414
0.579415
0.579416
0.579417
0.579419
0.579419
0.57942
0.579421
0.579422
0.579423
0.579423
0.579424
0.579426
0.579427
0.579428
0.579428
0.579429
0.57943
0.579432
0.579433
0.579433
0.579434
0.579435
0.579436
0.579438
0.579438
0.579439
0.57944
0.579441
0.579442
0.579442
0.579444
0.579445
0.579446
0.579447
0.579447
0.579448
0.57945
0.579451
0.579452
0.579452
0.579453
0.579454
0.579456
0.579457
0.579457
0.579458
0.579459
0.579461
0.579462
0.579462
0.579463
0.579464
0.579466
0.579467
0.579467
0.579468
0.579469
0.57947
0.579472
0.579472
0.579473
0.579474
0.579475
0.579477
0.579477
0.579478
0.579479
0.57948
0.579482
0.579482
0.579483
0.579484
0.579485
0.579487
0.579487
0.579488
0.579489
0.57949
0.579492
0.579492
0.579493
0.579494
0.579495
0.579497
0.579497
0.579498
0.579499
0.5795
0.579502
0.579502
0.579503
0.579504
0.579506
0.579507
0.579507
0.579508
0.579509
0.579511
0.579512
0.579512
0.579513
0.579514
0.579516
0.579517
0.579517
0.579518
0.57952
0.579521
0.579522
0.579522
0.579524
0.579525
0.579526
0.579527
0.579527
0.579529
0.57953
0.579531
0.579533
0.579533
0.579534
0.579535
0.579537
0.579538
0.579538
0.579539
0.579541
0.579542
0.579543
0.579543
0.579545
0.579546
0.579547
0.579549
0.579549
0.57955
0.579551
0.579553
0.579554
0.579554
0.579555
0.579557
0.579558
0.579559
0.579559
0.579561
0.579562
0.579563
0.579565
0.579565
0.579566
0.579567
0.579569
0.57957
0.57957
0.579571
0.579573
0.579574
0.579575
0.579575
0.579577
0.579578
0.579579
0.579581
0.579581
0.579582
0.579583
0.579585
0.579586
0.579586
0.579588
0.579589
0.57959
0.579592
0.579592
0.579593
0.579594
0.579596
0.579597
0.579597
0.579599
0.5796
0.579601
0.579603
0.579603
0.579604
0.579605
0.579607
0.579608
0.579608
0.57961
0.579611
0.579612
0.579614
0.579614
0.579615
0.579616
0.579618
0.579619
0.579619
0.579621
0.579622
0.579623
0.579625
0.579625
0.579626
0.579628
0.579629
0.579631
0.579631
0.579632
0.579633
0.579635
0.579636
0.579636
0.579638
0.579639
0.579641
0.579642
0.579642
0.579643
0.579645
0.579646
0.579648
0.579648
0.579649
0.579651
0.579652
0.579653
0.579653
0.579655
0.579656
0.579658
0.579659
0.579659
0.579661
0.579662
0.579664
0.579665
0.579665
0.579667
0.579668
0.579669
0.579671
0.579671
0.579672
0.579674
0.579675
0.579677
0.579677
0.579678
0.57968
0.579681
0.579683
0.579683
0.579684
0.579685
0.579687
0.579688
0.579688
0.57969
0.579691
0.579693
0.579694
0.579694
0.579696
0.579697
0.579699
0.5797
0.5797
0.579702
0.579703
0.579705
0.579706
0.579706
0.579708
0.579709
0.579711
0.579712
0.579712
0.579714
0.579715
0.579717
0.579718
0.579718
0.57972
0.579721
0.579723
0.579724
0.579724
0.579726
0.579727
0.579729
0.57973
0.57973
0.579732
0.579733
0.579735
0.579736
0.579736
0.579738
0.579739
0.579741
0.579742
0.579742
0.579744
0.579746
0.579747
0.579749
0.579749
0.57975
0.579752
0.579753
0.579755
0.579755
0.579756
0.579758
0.579759
0.579761
0.579761
0.579763
0.579764
0.579766
0.579767
0.579767
0.579769
0.57977
0.579772
0.579773
0.579773
0.579775
0.579777
0.579778
0.57978
0.57978
0.579781
0.579783
0.579784
0.579786
0.579786
0.579788
0.579789
0.579791
0.579792
0.579792
0.579794
0.579795
0.579797
0.579799
0.579799
0.5798
0.579802
0.579803
0.579805
0.579805
0.579807
0.579808
0.57981
0.579811
0.579811
0.579813
0.579814
0.579816
0.579818
0.579818
0.579819
0.579821
0.579822
0.579824
0.579824
0.579826
0.579827
0.579829
0.57983
0.57983
0.579832
0.579834
0.579835
0.579837
0.579837
0.579839
0.57984
0.579842
0.579844
0.579844
0.579845
0.579847
0.579848
0.57985
0.57985
0.579852
0.579853
0.579855
0.579857
0.579857
0.579858
0.57986
0.579862
0.579863
0.579863
0.579865
0.579867
0.579868
0.57987
0.57987
0.579872
0.579873
0.579875
0.579877
0.579877
0.579878
0.57988
0.579882
0.579883
0.579883
0.579885
0.579887
0.579888
0.57989
0.57989
0.579892
0.579893
0.579895
0.579897
0.579897
0.579898
0.5799
0.579902
0.579903
0.579903
0.579905
0.579907
0.579908
0.57991
0.57991
0.579912
0.579913
0.579915
0.579917
0.579917
0.579918
0.57992
0.579922
0.579924
0.579924
0.579925
0.579927
0.579929
0.57993
0.57993
0.579932
0.579934
0.579935
0.579937
0.579937
0.579939
0.579941
0.579942
0.579944
0.579944
0.579946
0.579948
0.579949
0.579951
0.579951
0.579953
0.579955
0.579956
0.579958
0.579958
0.57996
0.579962
0.579963
0.579965
0.579965
0.579967
0.579969
0.57997
0.579972
0.579972
0.579974
0.579976
0.579977
0.579979
0.579979
0.579981
0.579983
0.579984
0.579986
0.579986
0.579988
0.57999
0.579991
0.579993
0.579993
0.579995
0.579997
0.579999
0.58
0.58
0.580002
0.580004
0.580006
0.580007
0.580007
0.580009
0.580011
0.580013
0.580015
0.580015
0.580016
0.580018
0.58002
0.580022
0.580022
0.580024
0.580025
0.580027
0.580029
0.580029
0.580031
0.580032
0.580034
0.580036
0.580036
0.580038
0.58004
0.580041
0.580043
0.580043
0.580045
0.580047
0.580049
0.580051
0.580051
0.580052
0.580054
0.580056
0.580058
0.580058
0.58006
0.580062
0.580063
0.580065
0.580065
0.580067
0.580069
0.580071
0.580073
0.580073
0.580075
0.580076
0.580078
0.58008
0.58008
0.580082
0.580084
0.580086
0.580088
0.580088
0.580089
0.580091
0.580093
0.580095
0.580095
0.580097
0.580099
0.580101
0.580102
0.580102
0.580104
0.580106
0.580108
0.58011
0.58011
0.580112
0.580114
0.580116
0.580117
0.580117
0.580119
0.580121
0.580123
0.580125
0.580125
0.580127
0.580129
0.580131
0.580133
0.580133
0.580134
0.580136
0.580138
0.58014
0.58014
0.580142
0.580144
0.580146
0.580148
0.580148
0.58015
0.580151
0.580153
0.580155
0.580155
0.580157
0.580159
0.580161
0.580163
0.580163
0.580165
0.580167
0.580169
0.580171
0.580171
0.580173
0.580175
0.580177
0.580179
0.580179
0.580181
0.580182
0.580184
0.580186
0.580186
0.580188
0.58019
0.580192
0.580194
0.580194
0.580196
0.580198
0.5802
0.580202
0.580202
0.580204
0.580206
0.580208
0.58021
0.58021
0.580212
0.580214
0.580216
0.580218
0.580218
0.58022
0.580222
0.580224
0.580226
0.580226
0.580228
0.58023
0.580232
0.580234
0.580234
0.580236
0.580238
0.58024
0.580242
0.580242
0.580243
0.580245
0.580247
0.580249
0.580249
0.580251
0.580253
0.580255
0.580257
0.580257
0.580259
0.580261
0.580263
0.580265
0.580265
0.580267
0.580269
0.580271
0.580273
0.580273
0.580276
0.580278
0.58028
0.580282
0.580282
0.580284
0.580286
0.580288
0.58029
0.58029
0.580292
0.580294
0.580296
0.580298
0.580298
0.5803
0.580302
0.580304
0.580306
0.580306
0.580308
0.58031
0.580312
0.580314
0.580314
0.580316
0.580319
0.580321
0.580323
0.580323
0.580325
0.580327
0.580329
0.580331
0.580331
0.580333
0.580335
0.580337
0.580339
0.580339
0.580341
0.580343
0.580345
0.580348
0.580348
0.58035
0.580352
0.580354
0.580356
0.580356
0.580358
0.58036
0.580362
0.580364
0.580364
0.580366
0.580368
0.58037
0.580373
0.580373
0.580375
0.580377
0.580379
0.580381
0.580381
0.580383
0.580385
0.580387
0.580389
0.580389
0.580392
0.580394
0.580396
0.580398
0.580398
0.5804
0.580402
0.580404
0.580407
0.580407
0.580409
0.580411
0.580413
0.580415
0.580415
0.580417
0.580419
0.580422
0.580424
0.580424
0.580426
0.580428
0.58043
0.580432
0.580432
0.580435
0.580437
0.580439
0.580441
0.580441
0.580443
0.580445
0.580448
0.58045
0.58045
0.580452
0.580454
0.580456
0.580458
0.580458
0.580461
0.580463
0.580465
0.580467
0.580467
0.580469
0.580471
0.580474
0.580476
0.580476
0.580478
0.58048
0.580482
0.580484
0.580484
0.580487
0.580489
0.580491
0.580493
0.580493
0.580495
0.580498
0.5805
0.580502
0.580502
0.580504
0.580507
0.580509
0.580511
0.580511
0.580513
0.580516
0.580518
0.58052
0.58052
0.580522
0.580524
0.580527
0.580529
0.580529
0.580531
0.580533
0.580536
0.580538
0.580538
0.58054
0.580542
0.580545
0.580547
0.580547
0.580549
0.580551
0.580554
0.580556
0.580556
0.580558
0.58056
0.580563
0.580565
0.580565
0.580567
0.58057
0.580572
0.580574
0.580574
0.580576
0.580579
0.580581
0.580583
0.580583
0.580585
0.580588
0.58059
0.580592
0.580592
0.580595
0.580597
0.580599
0.580601
0.580601
0.580604
0.580606
0.580608
0.58061
0.58061
0.580613
0.580615
0.580617
0.58062
0.58062
0.580622
0.580624
0.580627
0.580629
0.580629
0.580631
0.580634
0.580636
0.580638
0.580638
0.580641
0.580643
0.580645
0.580648
0.580648
0.58065
0.580652
0.580655
0.580657
0.580657
0.580659
0.580662
0.580664
0.580667
0.580667
0.580669
0.580671
0.580674
0.580676
0.580676
0.580678
0.580681
0.580683
0.580685
0.580685
0.580688
0.58069
0.580692
0.580695
0.580695
0.580697
0.5807
0.580702
0.580704
0.580704
0.580707
0.580709
0.580711
0.580714
0.580714
0.580716
0.580719
0.580721
0.580723
0.580723
0.580726
0.580728
0.58073
0.580733
0.580733
0.580735
0.580738
0.58074
0.580743
0.580743
0.580745
0.580747
0.58075
0.580752
0.580752
0.580755
0.580757
0.58076
0.580762
0.580762
0.580764
0.580767
0.580769
0.580772
0.580772
0.580774
0.580777
0.580779
0.580781
0.580781
0.580784
0.580786
0.580789
0.580791
0.580791
0.580794
0.580796
0.580799
0.580801
0.580801
0.580804
0.580806
0.580808
0.580811
0.580811
0.580813
0.580816
0.580818
0.580821
0.580821
0.580823
0.580826
0.580828
0.580831
0.580831
0.580833
0.580835
0.580838
0.58084
0.58084
0.580843
0.580845
0.580848
0.58085
0.58085
0.580853
0.580855
0.580858
0.58086
0.58086
0.580863
0.580865
0.580868
0.58087
0.58087
0.580873
0.580876
0.580878
0.580881
0.580881
0.580883
0.580886
0.580888
0.580891
0.580891
0.580893
0.580896
0.580898
0.580901
0.580901
0.580903
0.580906
0.580908
0.580911
0.580911
0.580914
0.580916
0.580919
0.580921
0.580921
0.580924
0.580926
0.580929
0.580931
0.580931
0.580934
0.580937
0.580939
0.580942
0.580942
0.580944
0.580947
0.580949
0.580952
0.580952
0.580954
0.580957
0.58096
0.580962
0.580962
0.580965
0.580967
0.58097
0.580972
0.580972
0.580975
0.580978
0.58098
0.580983
0.580983
0.580985
0.580988
0.580991
0.580993
0.580993
0.580996
0.580999
0.581001
0.581004
0.581004
0.581006
0.581009
0.581012
0.581014
0.581014
0.581017
0.58102
0.581022
0.581025
0.581025
0.581028
0.58103
0.581033
0.581035
0.581035
0.581038
0.581041
0.581043
0.581046
0.581046
0.581049
0.581051
0.581054
0.581057
0.581057
0.581059
0.581062
0.581065
0.581067
0.581067
0.58107
0.581072
0.581075
0.581078
0.581078
0.58108
0.581083
0.581086
0.581088
0.581088
0.581091
0.581094
0.581096
0.581099
0.581099
0.581102
0.581105
0.581107
0.58111
0.58111
0.581113
0.581115
0.581118
0.581121
0.581121
0.581124
0.581126
0.581129
0.581132
0.581132
0.581134
0.581137
0.58114
0.581143
0.581143
0.581145
0.581148
0.581151
0.581154
0.581154
0.581156
0.581159
0.581162
0.581165
0.581165
0.581167
0.58117
0.581173
0.581175
0.581175
0.581178
0.581181
0.581184
0.581186
0.581186
0.581189
0.581192
0.581195
0.581197
0.581197
0.5812
0.581203
0.581206
0.581208
0.581208
0.581211
0.581214
0.581217
0.58122
0.58122
0.581222
0.581225
0.581228
0.581231
0.581231
0.581234
0.581236
0.581239
0.581242
0.581242
0.581245
0.581248
0.58125
0.581253
0.581253
0.581256
0.581259
0.581262
0.581265
0.581265
0.581267
0.58127
0.581273
0.581276
0.581276
0.581279
0.581281
0.581284
0.581287
0.581287
0.58129
0.581293
0.581296
0.581298
0.581298
0.581301
0.581304
0.581307
0.58131
0.58131
0.581313
0.581315
0.581318
0.581321
0.581321
0.581324
0.581327
0.58133
0.581333
0.581333
0.581335
0.581338
0.581341
0.581344
0.581344
0.581347
0.58135
0.581353
0.581356
0.581356
0.581358
0.581361
0.581364
0.581367
0.581367
0.58137
0.581373
0.581376
0.581379
0.581379
0.581382
0.581385
0.581388
0.58139
0.58139
0.581393
0.581396
0.581399
0.581402
0.581402
0.581405
0.581408
0.581411
0.581414
0.581414
0.581417
0.58142
0.581423
0.581426
0.581426
0.581428
0.581431
0.581434
0.581437
0.581437
0.58144
0.581443
0.581446
0.581449
0.581449
0.581452
0.581455
0.581458
0.581461
0.581461
0.581464
0.581467
0.58147
0.581473
0.581473
0.581476
0.581479
0.581482
0.581485
0.581485
0.581488
0.581491
0.581494
0.581497
0.581497
0.5815
0.581503
0.581506
0.581509
0.581509
0.581512
0.581515
0.581518
0.581521
0.581521
0.581524
0.581527
0.58153
0.581533
0.581533
0.581536
0.581539
0.581542
0.581545
0.581545
0.581548
0.581551
0.581554
0.581557
0.581557
0.58156
0.581563
0.581566
0.581569
0.581569
0.581572
0.581575
0.581578
0.581581
0.581581
0.581584
0.581587
0.58159
0.581593
0.581593
0.581596
0.581599
0.581603
0.581606
0.581606
0.581609
0.581612
0.581615
0.581618
0.581618
0.581621
0.581624
0.581627
0.58163
0.58163
0.581634
0.581637
0.58164
0.581643
0.581643
0.581646
0.581649
0.581652
0.581655
0.581655
0.581658
0.581662
0.581665
0.581668
0.581668
0.581671
0.581674
0.581677
0.58168
0.58168
0.581683
0.581686
0.58169
0.581693
0.581693
0.581696
0.581699
0.581702
0.581705
0.581705
0.581708
0.581711
0.581715
0.581718
0.581718
0.581721
0.581724
0.581727
0.58173
0.58173
0.581734
0.581737
0.58174
0.581743
0.581743
0.581746
0.58175
0.581753
0.581756
0.581756
0.581759
0.581762
0.581766
0.581769
0.581769
0.581772
0.581775
0.581778
0.581782
0.581782
0.581785
0.581788
0.581791
0.581794
0.581794
0.581798
0.581801
0.581804
0.581807
0.581807
0.58181
0.581814
0.581817
0.58182
0.58182
0.581823
0.581826
0.58183
0.581833
0.581833
0.581836
0.581839
0.581843
0.581846
0.581846
0.581849
0.581852
0.581856
0.581859
0.581859
0.581862
0.581865
0.581869
0.581872
0.581872
0.581875
0.581879
0.581882
0.581885
0.581885
0.581888
0.581892
0.581895
0.581898
0.581898
0.581902
0.581905
0.581908
0.581912
0.581912
0.581915
0.581918
0.581921
0.581925
0.581925
0.581928
0.581931
0.581935
0.581938
0.581938
0.581941
0.581945
0.581948
0.581951
0.581951
0.581955
0.581958
0.581961
0.581964
0.581964
0.581968
0.581971
0.581974
0.581978
0.581978
0.581981
0.581984
0.581988
0.581991
0.581991
0.581994
0.581998
0.582001
0.582005
0.582005
0.582008
0.582011
0.582015
0.582018
0.582018
0.582022
0.582025
0.582028
0.582032
0.582032
0.582035
0.582039
0.582042
0.582045
0.582045
0.582049
0.582052
0.582056
0.582059
0.582059
0.582062
0.582066
0.582069
0.582073
0.582073
0.582076
0.582079
0.582083
0.582086
0.582086
0.58209
0.582093
0.582096
0.5821
0.5821
0.582103
0.582107
0.58211
0.582114
0.582114
0.582117
0.58212
0.582124
0.582127
0.582127
0.582131
0.582134
0.582138
0.582141
0.582141
0.582145
0.582148
0.582152
0.582155
0.582155
0.582159
0.582162
0.582166
0.582169
0.582169
0.582173
0.582176
0.58218
0.582183
0.582183
0.582187
0.58219
0.582194
0.582197
0.582197
0.582201
0.582204
0.582208
0.582211
0.582211
0.582215
0.582218
0.582222
0.582225
0.582225
0.582229
0.582232
0.582236
0.582239
0.582239
0.582243
0.582246
0.58225
0.582253
0.582253
0.582257
0.58226
0.582264
0.582268
0.582268
0.582271
0.582275
0.582278
0.582282
0.582282
0.582286
0.582289
0.582293
0.582296
0.582296
0.5823
0.582303
0.582307
0.582311
0.582311
0.582314
0.582318
0.582321
0.582325
0.582325
0.582329
0.582332
0.582336
0.582339
0.582339
0.582343
0.582347
0.58235
0.582354
0.582354
0.582357
0.582361
0.582365
0.582368
0.582368
0.582372
0.582375
0.582379
0.582383
0.582383
0.582386
0.58239
0.582394
0.582397
0.582397
0.582401
0.582405
0.582408
0.582412
0.582412
0.582416
0.582419
0.582423
0.582427
0.582427
0.58243
0.582434
0.582438
0.582441
0.582441
0.582445
0.582449
0.582453
0.582456
0.582456
0.58246
0.582464
0.582467
0.582471
0.582471
0.582475
0.582478
0.582482
0.582486
0.582486
0.58249
0.582493
0.582497
0.582501
0.582501
0.582504
0.582508
0.582512
0.582515
0.582515
0.582519
0.582523
0.582527
0.58253
0.58253
0.582534
0.582538
0.582542
0.582545
0.582545
0.582549
0.582553
0.582557
0.582561
0.582561
0.582564
0.582568
0.582572
0.582576
0.582576
0.58258
0.582583
0.582587
0.582591
0.582591
0.582595
0.582599
0.582602
0.582606
0.582606
0.58261
0.582614
0.582617
0.582621
0.582621
0.582625
0.582629
0.582633
0.582637
0.582637
0.58264
0.582644
0.582648
0.582652
0.582652
0.582656
0.582659
0.582663
0.582667
0.582667
0.582671
0.582675
0.582679
0.582682
0.582682
0.582686
0.58269
0.582694
0.582698
0.582698
0.582702
0.582706
0.58271
0.582714
0.582714
0.582717
0.582721
0.582725
0.582729
0.582729
0.582733
0.582737
0.582741
0.582745
0.582745
0.582749
0.582752
0.582756
0.58276
0.58276
0.582764
0.582768
0.582772
0.582776
0.582776
0.58278
0.582784
0.582788
0.582792
0.582792
0.582795
0.582799
0.582803
0.582807
0.582807
0.582811
0.582815
0.582819
0.582823
0.582823
0.582827
0.582831
0.582835
0.582839
0.582839
0.582843
0.582847
0.582851
0.582855
0.582855
0.582859
0.582863
0.582867
0.582871
0.582871
0.582875
0.582879
0.582883
0.582887
0.582887
0.582891
0.582895
0.582899
0.582903
0.582903
0.582907
0.582911
0.582915
0.582919
0.582919
0.582923
0.582927
0.582931
0.582935
0.582935
0.582939
0.582943
0.582947
0.582951
0.582951
0.582955
0.582959
0.582963
0.582967
0.582967
0.582971
0.582975
0.58298
0.582984
0.582984
0.582988
0.582992
0.582996
0.583
0.583
0.583004
0.583008
0.583012
0.583016
0.583016
0.58302
0.583025
0.583029
0.583033
0.583033
0.583037
0.583041
0.583045
0.583049
0.583049
0.583053
0.583057
0.583061
0.583066
0.583066
0.58307
0.583074
0.583078
0.583082
0.583082
0.583086
0.58309
0.583094
0.583099
0.583099
0.583103
0.583107
0.583111
0.583115
0.583115
0.58312
0.583124
0.583128
0.583132
0.583132
0.583136
0.58314
0.583145
0.583149
0.583149
0.583153
0.583157
0.583161
0.583166
0.583166
0.58317
0.583174
0.583178
0.583182
0.583182
0.583187
0.583191
0.583195
0.583199
0.583199
0.583203
0.583208
0.583212
0.583216
0.583216
0.58322
0.583225
0.583229
0.583233
0.583233
0.583237
0.583241
0.583246
0.58325
0.58325
0.583254
0.583259
0.583263
0.583267
0.583267
0.583271
0.583276
0.58328
0.583284
0.583284
0.583289
0.583293
0.583297
0.583302
0.583302
0.583306
0.58331
0.583314
0.583319
0.583319
0.583323
0.583327
0.583332
0.583336
0.583336
0.58334
0.583345
0.583349
0.583353
0.583353
0.583358
0.583362
0.583366
0.58337
0.58337
0.583375
0.583379
0.583383
0.583388
0.583388
0.583392
0.583397
0.583401
0.583405
0.583405
0.58341
0.583414
0.583419
0.583423
0.583423
0.583427
0.583432
0.583436
0.583441
0.583441
0.583445
0.583449
0.583454
0.583458
0.583458
0.583463
0.583467
0.583471
0.583476
0.583476
0.58348
0.583485
0.583489
0.583493
0.583493
0.583498
0.583502
0.583507
0.583511
0.583511
0.583516
0.58352
0.583524
0.583529
0.583529
0.583533
0.583538
0.583542
0.583547
0.583547
0.583551
0.583556
0.58356
0.583565
0.583565
0.583569
0.583574
0.583578
0.583583
0.583583
0.583587
0.583592
0.583596
0.583601
0.583601
0.583605
0.58361
0.583614
0.583619
0.583619
0.583623
0.583628
0.583632
0.583637
0.583637
0.583641
0.583646
0.58365
0.583655
0.583655
0.58366
0.583664
0.583669
0.583673
0.583673
0.583678
0.583682
0.583687
0.583691
0.583691
0.583696
0.583701
0.583705
0.58371
0.58371
0.583714
0.583719
0.583724
0.583728
0.583728
0.583733
0.583737
0.583742
0.583747
0.583747
0.583751
0.583756
0.583761
0.583765
0.583765
0.58377
0.583774
0.583779
0.583784
0.583784
0.583788
0.583793
0.583797
0.583802
0.583802
0.583807
0.583811
0.583816
0.583821
0.583821
0.583825
0.58383
0.583835
0.583839
0.583839
0.583844
0.583849
0.583853
0.583858
0.583858
0.583863
0.583868
0.583872
0.583877
0.583877
0.583882
0.583886
0.583891
0.583896
0.583896
0.583901
0.583905
0.58391
0.583915
0.583915
0.58392
0.583924
0.583929
0.583934
0.583934
0.583938
0.583943
0.583948
0.583953
0.583953
0.583957
0.583962
0.583967
0.583972
0.583972
0.583976
0.583981
0.583986
0.583991
0.583991
0.583995
0.584
0.584005
0.58401
0.58401
0.584015
0.58402
0.584024
0.584029
0.584029
0.584034
0.584039
0.584044
0.584049
0.584049
0.584053
0.584058
0.584063
0.584068
0.584068
0.584073
0.584078
0.584082
0.584087
0.584087
0.584092
0.584097
0.584102
0.584107
0.584107
0.584111
0.584116
0.584121
0.584126
0.584126
0.584131
0.584136
0.584141
0.584145
0.584145
0.58415
0.584155
0.58416
0.584165
0.584165
0.58417
0.584175
0.58418
0.584185
0.584185
0.58419
0.584195
0.5842
0.584205
0.584205
0.58421
0.584215
0.584219
0.584224
0.584224
0.584229
0.584234
0.584239
0.584244
0.584244
0.584249
0.584254
0.584259
0.584264
0.584264
0.584269
0.584274
0.584279
0.584284
0.584284
0.584289
0.584294
0.584299
0.584304
0.584304
0.584309
0.584314
0.584319
0.584324
0.584324
0.584329
0.584334
0.584339
0.584344
0.584344
0.584349
0.584354
0.584359
0.584364
0.584364
0.584369
0.584374
0.584379
0.584385
0.584385
0.58439
0.584395
0.5844
0.584405
0.584405
0.58441
0.584415
0.58442
0.584425
0.584425
0.58443
0.584435
0.58444
0.584445
0.584445