<?xml version="1.0"?>
<VTKFile type="UnstructuredGrid" version="0.1" byte_order="LittleEndian">
<UnstructuredGrid>
<Piece NumberOfPoints="5000" NumberOfCells="4000">
<PointData Scalars="Reaction 0">
<DataArray type="Float32" Name="Reaction 0" format="ascii">
0.255424
0.255424
0.255424
0.255424
0.255424
0.255424
0.255424
0.255425
0.255425
0.255425
0.255425
0.255425
0.255426
0.255426
0.255426
0.255426
0.255427
0.255427
0.255428
0.255428
0.255428
0.255429
0.255429
0.25543
0.255431
0.255431
0.255431
0.255432
0.255433
0.255434
0.255434
0.255435
0.255435
0.255436
0.255437
0.255437
0.255438
0.255439
0.25544
0.255441
0.255441
0.255442
0.255443
0.255445
0.255446
0.255446
0.255447
0.255448
0.25545
0.255451
0.255451
0.255452
0.255454
0.255455
0.255457
0.255457
0.255458
0.25546
0.255461
0.255463
0.255463
0.255464
0.255466
0.255468
0.255469
0.255469
0.255471
0.255473
0.255475
0.255477
0.255477
0.255479
0.255481
0.255483
0.255485
0.255485
0.255487
0.255489
0.255491
0.255493
0.255493
0.255495
0.255497
0.2555
0.255502
0.255502
0.255504
0.255506
0.255509
0.255511
0.255511
0.255514
0.255516
0.255519
0.255521
0.255521
0.255524
0.255526
0.255529
0.255532
0.255532
0.255534
0.255537
0.25554
0.255543
0.255543
0.255546
0.255548
0.255551
0.255554
0.255554
0.255557
0.25556
0.255563
0.255566
0.255566
0.25557
0.255573
0.255576
0.255579
0.255579
0.255582
0.255586
0.255589
0.255592
0.255592
0.255596
0.255599
0.255602
0.255606
0.255606
0.255609
0.255613
0.255617
0.25562
0.25562
0.255624
0.255628
0.255631
0.255635
0.255635
0.255639
0.255643
0.255646
0.25565
0.25565
0.255654
0.255658
0.255662
0.255666
0.255666
0.25567
0.255674
0.255679
0.255683
0.255683
0.255687
0.255691
0.255695
0.2557
0.2557
0.255704
0.255708
0.255713
0.255717
0.255717
0.255722
0.255726
0.255731
0.255735
0.255735
0.25574
0.255744
0.255749
0.255754
0.255754
0.255758
0.255763
0.255768
0.255773
0.255773
0.255778
0.255783
0.255788
0.255792
0.255792
0.255797
0.255803
0.255808
0.255813
0.255813
0.255818
0.255823
0.255828
0.255833
0.255833
0.255839
0.255844
0.255849
0.255855
0.255855
0.25586
0.255865
0.255871
0.255876
0.255876
0.255882
0.255888
0.255893
0.255899
0.255899
0.255904
0.25591
0.255916
0.255922
0.255922
0.255927
0.255933
0.255939
0.255945
0.255945
0.255951
0.255957
0.255963
0.255969
0.255969
0.255975
0.255981
0.255987
0.255994
0.255994
0.256
0.256006
0.256012
0.256019
0.256019
0.256025
0.256031
0.256038
0.256044
0.256044
0.256051
0.256057
0.256064
0.25607
0.25607
0.256077
0.256083
0.25609
0.256097
0.256097
0.256104
0.25611
0.256117
0.256124
0.256124
0.256131
0.256138
0.256145
0.256152
0.256152
0.256159
0.256166
0.256173
0.25618
0.25618
0.256187
0.256194
0.256202
0.256209
0.256209
0.256216
0.256223
0.256231
0.256238
0.256238
0.256246
0.256253
0.256261
0.256268
0.256268
0.256276
0.256283
0.256291
0.256298
0.256298
0.256306
0.256314
0.256322
0.256329
0.256329
0.256337
0.256345
0.256353
0.256361
0.256361
0.256369
0.256377
0.256385
0.256393
0.256393
0.256401
0.256409
0.256417
0.256425
0.256425
0.256434
0.256442
0.25645
0.256459
0.256459
0.256467
0.256475
0.256484
0.256492
0.256492
0.256501
0.256509
0.256518
0.256526
0.256526
0.256535
0.256544
0.256552
0.256561
0.256561
0.25657
0.256579
0.256587
0.256596
0.256596
0.256605
0.256614
0.256623
0.256632
0.256632
0.256641
0.25665
0.256659
0.256668
0.256668
0.256678
0.256687
0.256696
0.256705
0.256705
0.256715
0.256724
0.256733
0.256743
0.256743
0.256752
0.256762
0.256771
0.256781
0.256781
0.25679
0.2568
0.256809
0.256819
0.256819
0.256829
0.256839
0.256848
0.256858
0.256858
0.256868
0.256878
0.256888
0.256898
0.256898
0.256908
0.256918
0.256928
0.256938
0.256938
0.256948
0.256958
0.256968
0.256978
0.256978
0.256989
0.256999
0.257009
0.25702
0.25702
0.25703
0.25704
0.257051
0.257061
0.257061
0.257072
0.257082
0.257093
0.257104
0.257104
0.257114
0.257125
0.257136
0.257146
0.257146
0.257157
0.257168
0.257179
0.25719
0.25719
0.257201
0.257211
0.257222
0.257233
0.257233
0.257245
0.257256
0.257267
0.257278
0.257278
0.257289
0.2573
0.257312
0.257323
0.257323
0.257334
0.257345
0.257357
0.257368
0.257368
0.25738
0.257391
0.257403
0.257414
0.257414
0.257426
0.257437
0.257449
0.257461
0.257461
0.257473
0.257484
0.257496
0.257508
0.257508
0.25752
0.257532
0.257544
0.257556
0.257556
0.257567
0.25758
0.257592
0.257604
0.257604
0.257616
0.257628
0.25764
0.257652
0.257652
0.257665
0.257677
0.257689
0.257702
0.257702
0.257714
0.257726
0.257739
0.257751
0.257751
0.257764
0.257776
0.257789
0.257802
0.257802
0.257814
0.257827
0.25784
0.257852
0.257852
0.257865
0.257878
0.257891
0.257904
0.257904
0.257917
0.25793
0.257943
0.257956
0.257956
0.257969
0.257982
0.257995
0.258008
0.258008
0.258021
0.258035
0.258048
0.258061
0.258061
0.258075
0.258088
0.258101
0.258115
0.258115
0.258128
0.258142
0.258155
0.258169
0.258169
0.258182
0.258196
0.25821
0.258223
0.258223
0.258237
0.258251
0.258265
0.258279
0.258279
0.258292
0.258306
0.25832
0.258334
0.258334
0.258348
0.258362
0.258376
0.25839
0.25839
0.258405
0.258419
0.258433
0.258447
0.258447
0.258461
0.258476
0.25849
0.258504
0.258504
0.258519
0.258533
0.258548
0.258562
0.258562
0.258577
0.258591
0.258606
0.258621
0.258621
0.258635
0.25865
0.258665
0.25868
0.25868
0.258694
0.258709
0.258724
0.258739
0.258739
0.258754
0.258769
0.258784
0.258799
0.258799
0.258814
0.258829
0.258844
0.258859
0.258859
0.258875
0.25889
0.258905
0.25892
0.25892
0.258936
0.258951
0.258967
0.258982
0.258982
0.258998
0.259013
0.259029
0.259044
0.259044
0.25906
0.259075
0.259091
0.259107
0.259107
0.259123
0.259138
0.259154
0.25917
0.25917
0.259186
0.259202
0.259218
0.259234
0.259234
0.25925
0.259266
0.259282
0.259298
0.259298
0.259314
0.25933
0.259347
0.259363
0.259363
0.259379
0.259395
0.259412
0.259428
0.259428
0.259445
0.259461
0.259477
0.259494
0.259494
0.259511
0.259527
0.259544
0.25956
0.25956
0.259577
0.259594
0.259611
0.259627
0.259627
0.259644
0.259661
0.259678
0.259695
0.259695
0.259712
0.259729
0.259746
0.259763
0.259763
0.25978
0.259797
0.259814
0.259831
0.259831
0.259849
0.259866
0.259883
0.259901
0.259901
0.259918
0.259935
0.259953
0.25997
0.25997
0.259988
0.260005
0.260023
0.26004
0.26004
0.260058
0.260076
0.260093
0.260111
0.260111
0.260129
0.260147
0.260164
0.260182
0.260182
0.2602
0.260218
0.260236
0.260254
0.260254
0.260272
0.26029
0.260308
0.260326
0.260326
0.260344
0.260363
0.260381
0.260399
0.260399
0.260417
0.260436
0.260454
0.260473
0.260473
0.260491
0.260509
0.260528
0.260546
0.260546
0.260565
0.260584
0.260602
0.260621
0.260621
0.26064
0.260658
0.260677
0.260696
0.260696
0.260715
0.260734
0.260752
0.260771
0.260771
0.26079
0.260809
0.260828
0.260847
0.260847
0.260867
0.260886
0.260905
0.260924
0.260924
0.260943
0.260963
0.260982
0.261001
0.261001
0.261021
0.26104
0.261059
0.261079
0.261079
0.261098
0.261118
0.261137
0.261157
0.261157
0.261177
0.261196
0.261216
0.261236
0.261236
0.261256
0.261275
0.261295
0.261315
0.261315
0.261335
0.261355
0.261375
0.261395
0.261395
0.261415
0.261435
0.261455
0.261475
0.261475
0.261495
0.261516
0.261536
0.261556
0.261556
0.261576
0.261597
0.261617
0.261638
0.261638
0.261658
0.261678
0.261699
0.261719
0.261719
0.26174
0.261761
0.261781
0.261802
0.261802
0.261823
0.261843
0.261864
0.261885
0.261885
0.261906
0.261927
0.261948
0.261969
0.261969
0.26199
0.262011
0.262032
0.262053
0.262053
0.262074
0.262095
0.262116
0.262137
0.262137
0.262159
0.26218
0.262201
0.262222
0.262222
0.262244
0.262265
0.262287
0.262308
0.262308
0.26233
0.262351
0.262373
0.262394
0.262394
0.262416
0.262438
0.262459
0.262481
0.262481
0.262503
0.262525
0.262547
0.262568
0.262568
0.26259
0.262612
0.262634
0.262656
0.262656
0.262678
0.2627
0.262723
0.262745
0.262745
0.262767
0.262789
0.262811
0.262834
0.262834
0.262856
0.262878
0.262901
0.262923
0.262923
0.262945
0.262968
0.26299
0.263013
0.263013
0.263036
0.263058
0.263081
0.263103
0.263103
0.263126
0.263149
0.263172
0.263195
0.263195
0.263217
0.26324
0.263263
0.263286
0.263286
0.263309
0.263332
0.263355
0.263378
0.263378
0.263401
0.263424
0.263448
0.263471
0.263471
0.263494
0.263517
0.263541
0.263564
0.263564
0.263587
0.263611
0.263634
0.263658
0.263658
0.263681
0.263705
0.263728
0.263752
0.263752
0.263776
0.263799
0.263823
0.263847
0.263847
0.263871
0.263894
0.263918
0.263942
0.263942
0.263966
0.26399
0.264014
0.264038
0.264038
0.264062
0.264086
0.26411
0.264134
0.264134
0.264159
0.264183
0.264207
0.264231
0.264231
0.264256
0.26428
0.264304
0.264329
0.264329
0.264353
0.264378
0.264402
0.264427
0.264427
0.264451
0.264476
0.264501
0.264525
0.264525
0.26455
0.264575
0.2646
0.264624
0.264624
0.264649
0.264674
0.264699
0.264724
0.264724
0.264749
0.264774
0.264799
0.264824
0.264824
0.264849
0.264874
0.2649
0.264925
0.264925
0.26495
0.264975
0.265001
0.265026
0.265026
0.265051
0.265077
0.265102
0.265128
0.265128
0.265153
0.265179
0.265204
0.26523
0.26523
0.265256
0.265281
0.265307
0.265333
0.265333
0.265359
0.265384
0.26541
0.265436
0.265436
0.265462
0.265488
0.265514
0.26554
0.26554
0.265566
0.265592
0.265618
0.265644
0.265644
0.265671
0.265697
0.265723
0.265749
0.265749
0.265776
0.265802
0.265828
0.265855
0.265855
0.265881
0.265908
0.265934
0.265961
0.265961
0.265987
0.266014
0.266041
0.266067
0.266067
0.266094
0.266121
0.266148
0.266174
0.266174
0.266201
0.266228
0.266255
0.266282
0.266282
0.266309
0.266336
0.266363
0.26639
0.26639
0.266417
0.266444
0.266472
0.266499
0.266499
0.266526
0.266553
0.266581
0.266608
0.266608
0.266635
0.266663
0.26669
0.266718
0.266718
0.266745
0.266773
0.2668
0.266828
0.266828
0.266856
0.266883
0.266911
0.266939
0.266939
0.266967
0.266994
0.267022
0.26705
0.26705
0.267078
0.267106
0.267134
0.267162
0.267162
0.26719
0.267218
0.267246
0.267274
0.267274
0.267303
0.267331
0.267359
0.267387
0.267387
0.267416
0.267444
0.267472
0.267501
0.267501
0.267529
0.267558
0.267586
0.267615
0.267615
0.267643
0.267672
0.267701
0.267729
0.267729
0.267758
0.267787
0.267816
0.267844
0.267844
0.267873
0.267902
0.267931
0.26796
0.26796
0.267989
0.268018
0.268047
0.268076
0.268076
0.268105
0.268134
0.268164
0.268193
0.268193
0.268222
0.268251
0.268281
0.26831
0.26831
0.268339
0.268369
0.268398
0.268428
0.268428
0.268457
0.268487
0.268516
0.268546
0.268546
0.268576
0.268605
0.268635
0.268665
0.268665
0.268695
0.268724
0.268754
0.268784
0.268784
0.268814
0.268844
0.268874
0.268904
0.268904
0.268934
0.268964
0.268994
0.269024
0.269024
0.269054
0.269085
0.269115
0.269145
0.269145
0.269176
0.269206
0.269236
0.269267
0.269267
0.269297
0.269328
0.269358
0.269389
0.269389
0.269419
0.26945
0.26948
0.269511
0.269511
0.269542
0.269573
0.269603
0.269634
0.269634
0.269665
0.269696
0.269727
0.269758
0.269758
0.269789
0.26982
0.269851
0.269882
0.269882
0.269913
0.269944
0.269975
0.270007
0.270007
0.270038
0.270069
0.2701
0.270132
0.270132
0.270163
0.270194
0.270226
0.270257
0.270257
0.270289
0.27032
0.270352
0.270384
0.270384
0.270415
0.270447
0.270479
0.27051
0.27051
0.270542
0.270574
0.270606
0.270638
0.270638
0.27067
0.270702
0.270733
0.270766
0.270766
0.270798
0.27083
0.270862
0.270894
0.270894
0.270926
0.270958
0.27099
0.271023
0.271023
0.271055
0.271087
0.27112
0.271152
0.271152
0.271185
0.271217
0.27125
0.271282
0.271282
0.271315
0.271347
0.27138
0.271413
0.271413
0.271445
0.271478
0.271511
0.271544
0.271544
0.271576
0.271609
0.271642
0.271675
0.271675
0.271708
0.271741
0.271774
0.271807
0.271807
0.27184
0.271873
0.271907
0.27194
0.27194
0.271973
0.272006
0.27204
0.272073
0.272073
0.272106
0.27214
0.272173
0.272207
0.272207
0.27224
0.272274
0.272307
0.272341
0.272341
0.272374
0.272408
0.272442
0.272476
0.272476
0.272509
0.272543
0.272577
0.272611
0.272611
0.272645
0.272679
0.272713
0.272747
0.272747
0.272781
0.272815
0.272849
0.272883
0.272883
0.272917
0.272951
0.272985
0.27302
0.27302
0.273054
0.273088
0.273123
0.273157
0.273157
0.273192
0.273226
0.27326
0.273295
0.273295
0.27333
0.273364
0.273399
0.273433
0.273433
0.273468
0.273503
0.273538
0.273572
0.273572
0.273607
0.273642
0.273677
0.273712
0.273712
0.273747
0.273782
0.273817
0.273852
0.273852
0.273887
0.273922
0.273957
0.273992
0.273992
0.274028
0.274063
0.274098
0.274134
0.274134
0.274169
0.274204
0.27424
0.274275
0.274275
0.274311
0.274346
0.274382
0.274417
0.274417
0.274453
0.274489
0.274524
0.27456
0.27456
0.274596
0.274632
0.274667
0.274703
0.274703
0.274739
0.274775
0.274811
0.274847
0.274847
0.274883
0.274919
0.274955
0.274991
0.274991
0.275027
0.275063
0.2751
0.275136
0.275136
0.275172
0.275209
0.275245
0.275281
0.275281
0.275318
0.275354
0.275391
0.275427
0.275427
0.275464
0.2755
0.275537
0.275573
0.275573
0.27561
0.275647
0.275684
0.27572
0.27572
0.275757
0.275794
0.275831
0.275868
0.275868
0.275905
0.275942
0.275979
0.276016
0.276016
0.276053
0.27609
0.276127
0.276164
0.276164
0.276201
0.276239
0.276276
0.276313
0.276313
0.276351
0.276388
0.276425
0.276463
0.276463
0.2765
0.276538
0.276575
0.276613
0.276613
0.27665
0.276688
0.276726
0.276763
0.276763
0.276801
0.276839
0.276877
0.276915
0.276915
0.276952
0.27699
0.277028
0.277066
0.277066
0.277104
0.277142
0.27718
0.277218
0.277218
0.277257
0.277295
0.277333
0.277371
0.277371
0.277409
0.277448
0.277486
0.277524
0.277524
0.277563
0.277601
0.27764
0.277678
0.277678
0.277717
0.277755
0.277794
0.277832
0.277832
0.277871
0.27791
0.277949
0.277987
0.277987
0.278026
0.278065
0.278104
0.278143
0.278143
0.278182
0.278221
0.27826
0.278299
0.278299
0.278338
0.278377
0.278416
0.278455
0.278455
0.278494
0.278533
0.278573
0.278612
0.278612
0.278651
0.278691
0.27873
0.278769
0.278769
0.278809
0.278848
0.278888
0.278927
0.278927
0.278967
0.279006
0.279046
0.279086
0.279086
0.279126
0.279165
0.279205
0.279245
0.279245
0.279285
0.279325
0.279364
0.279404
0.279404
0.279444
0.279484
0.279524
0.279565
0.279565
0.279605
0.279645
0.279685
0.279725
0.279725
0.279765
0.279806
0.279846
0.279886
0.279886
0.279927
0.279967
0.280007
0.280048
0.280048
0.280088
0.280129
0.28017
0.28021
0.28021
0.280251
0.280291
0.280332
0.280373
0.280373
0.280414
0.280454
0.280495
0.280536
0.280536
0.280577
0.280618
0.280659
0.2807
0.2807
0.280741
0.280782
0.280823
0.280864
0.280864
0.280905
0.280947
0.280988
0.281029
0.281029
0.28107
0.281112
0.281153
0.281194
0.281194
0.281236
0.281277
0.281319
0.28136
0.28136
0.281402
0.281443
0.281485
0.281527
0.281527
0.281568
0.28161
0.281652
0.281694
0.281694
0.281735
0.281777
0.281819
0.281861
0.281861
0.281903
0.281945
0.281987
0.282029
0.282029
0.282071
0.282113
0.282155
0.282198
0.282198
0.28224
0.282282
0.282324
0.282367
0.282367
0.282409
0.282451
0.282494
0.282536
0.282536
0.282579
0.282621
0.282664
0.282706
0.282706
0.282749
0.282791
0.282834
0.282877
0.282877
0.28292
0.282962
0.283005
0.283048
0.283048
0.283091
0.283134
0.283177
0.28322
0.28322
0.283263
0.283306
0.283349
0.283392
0.283392
0.283435
0.283478
0.283521
0.283565
0.283565
0.283608
0.283651
0.283694
0.283738
0.283738
0.283781
0.283825
0.283868
0.283912
0.283912
0.283955
0.283999
0.284042
0.284086
0.284086
0.284129
0.284173
0.284217
0.284261
0.284261
0.284304
0.284348
0.284392
0.284436
0.284436
0.28448
0.284524
0.284568
0.284612
0.284612
0.284656
0.2847
0.284744
0.284788
0.284788
0.284832
0.284877
0.284921
0.284965
0.284965
0.285009
0.285054
0.285098
0.285143
0.285143
0.285187
0.285231
0.285276
0.28532
0.28532
0.285365
0.28541
0.285454
0.285499
0.285499
0.285544
0.285588
0.285633
0.285678
0.285678
0.285723
0.285768
0.285813
0.285857
0.285857
0.285902
0.285947
0.285992
0.286038
0.286038
0.286083
0.286128
0.286173
0.286218
0.286218
0.286263
0.286309
0.286354
0.286399
0.286399
0.286445
0.28649
0.286535
0.286581
0.286581
0.286626
0.286672
0.286717
0.286763
0.286763
0.286809
0.286854
0.2869
0.286946
0.286946
0.286991
0.287037
0.287083
0.287129
0.287129
0.287175
0.287221
0.287267
0.287313
0.287313
0.287359
0.287405
0.287451
0.287497
0.287497
0.287543
0.287589
0.287635
0.287681
0.287681
0.287728
0.287774
0.28782
0.287867
0.287867
0.287913
0.28796
0.288006
0.288053
0.288053
0.288099
0.288146
0.288192
0.288239
0.288239
0.288286
0.288332
0.288379
0.288426
0.288426
0.288473
0.288519
0.288566
0.288613
0.288613
0.28866
0.288707
0.288754
0.288801
0.288801
0.288848
0.288895
0.288942
0.288989
0.288989
0.289037
0.289084
0.289131
0.289178
0.289178
0.289226
0.289273
0.28932
0.289368
0.289368
0.289415
0.289463
0.28951
0.289558
0.289558
0.289605
0.289653
0.289701
0.289748
0.289748
0.289796
0.289844
0.289891
0.289939
0.289939
0.289987
0.290035
0.290083
0.290131
0.290131
0.290179
0.290227
0.290275
0.290323
0.290323
0.290371
0.290419
0.290467
0.290515
0.290515
0.290564
0.290612
0.29066
0.290709
0.290709
0.290757
0.290805
0.290854
0.290902
0.290902
0.290951
0.290999
0.291048
0.291096
0.291096
0.291145
0.291194
0.291242
0.291291
0.291291
0.29134
0.291388
0.291437
0.291486
0.291486
0.291535
0.291584
0.291633
0.291682
0.291682
0.291731
0.29178
0.291829
0.291878
0.291878
0.291927
0.291976
0.292026
0.292075
0.292075
0.292124
0.292173
0.292223
0.292272
0.292272
0.292321
0.292371
0.29242
0.29247
0.29247
0.292519
0.292569
0.292619
0.292668
0.292668
0.292718
0.292768
0.292817
0.292867
0.292867
0.292917
0.292967
0.293016
0.293066
0.293066
0.293116
0.293166
0.293216
0.293266
0.293266
0.293316
0.293366
0.293416
0.293467
0.293467
0.293517
0.293567
0.293617
0.293667
0.293667
0.293718
0.293768
0.293819
0.293869
0.293869
0.293919
0.29397
0.29402
0.294071
0.294071
0.294121
0.294172
0.294223
0.294273
0.294273
0.294324
0.294375
0.294425
0.294476
0.294476
0.294527
0.294578
0.294629
0.29468
0.29468
0.294731
0.294782
0.294833
0.294884
0.294884
0.294935
0.294986
0.295037
0.295088
0.295088
0.29514
0.295191
0.295242
0.295293
0.295293
0.295345
0.295396
0.295448
0.295499
0.295499
0.29555
0.295602
0.295653
0.295705
0.295705
0.295757
0.295808
0.29586
0.295912
0.295912
0.295963
0.296015
0.296067
0.296119
0.296119
0.296171
0.296223
0.296274
0.296326
0.296326
0.296378
0.29643
0.296483
0.296535
0.296535
0.296587
0.296639
0.296691
0.296743
0.296743
0.296796
0.296848
0.2969
0.296952
0.296952
0.297005
0.297057
0.29711
0.297162
0.297162
0.297215
0.297267
0.29732
0.297372
0.297372
0.297425
0.297478
0.29753
0.297583
0.297583
0.297636
0.297689
0.297742
0.297794
0.297794
0.297847
0.2979
0.297953
0.298006
0.298006
0.298059
0.298112
0.298165
0.298219
0.298219
0.298272
0.298325
0.298378
0.298431
0.298431
0.298485
0.298538
0.298591
0.298645
0.298645
0.298698
0.298752
0.298805
0.298859
0.298859
0.298912
0.298966
0.299019
0.299073
0.299073
0.299127
0.29918
0.299234
0.299288
0.299288
0.299342
0.299395
0.299449
0.299503
0.299503
0.299557
0.299611
0.299665
0.299719
0.299719
0.299773
0.299827
0.299881
0.299936
0.299936
0.29999
0.300044
0.300098
0.300153
0.300153
0.300207
0.300261
0.300316
0.30037
0.30037
0.300424
0.300479
0.300533
0.300588
0.300588
0.300643
0.300697
0.300752
0.300806
0.300806
0.300861
0.300916
0.300971
0.301025
0.301025
0.30108
0.301135
0.30119
0.301245
0.301245
0.3013
0.301355
0.30141
0.301465
0.301465
0.30152
0.301575
0.30163
0.301686
0.301686
0.301741
0.301796
0.301851
0.301907
0.301907
0.301962
0.302017
0.302073
0.302128
0.302128
0.302184
0.302239
0.302295
0.30235
0.30235
0.302406
0.302462
0.302517
0.302573
0.302573
0.302629
0.302685
0.30274
0.302796
0.302796
0.302852
0.302908
0.302964
0.30302
0.30302
0.303076
0.303132
0.303188
0.303244
0.303244
0.3033
0.303356
0.303412
0.303469
0.303469
0.303525
0.303581
0.303637
0.303694
0.303694
0.30375
0.303807
0.303863
0.30392
0.30392
0.303976
0.304033
0.304089
0.304146
0.304146
0.304202
0.304259
0.304316
0.304372
0.304372
0.304429
0.304486
0.304543
0.3046
0.3046
0.304657
0.304714
0.30477
0.304827
0.304827
0.304885
0.304942
0.304999
0.305056
0.305056
0.305113
0.30517
0.305227
0.305285
0.305285
0.305342
0.305399
0.305456
0.305514
0.305514
0.305571
0.305629
0.305686
0.305744
0.305744
0.305801
0.305859
0.305916
0.305974
0.305974
0.306032
0.306089
0.306147
0.306205
0.306205
0.306263
0.30632
0.306378
0.306436
0.306436
0.306494
0.306552
0.30661
0.306668
0.306668
0.306726
0.306784
0.306842
0.3069
0.3069
0.306959
0.307017
0.307075
0.307133
0.307133
0.307192
0.30725
0.307308
0.307367
0.307367
0.307425
0.307484
0.307542
0.307601
0.307601
0.307659
0.307718
0.307776
0.307835
0.307835
0.307894
0.307952
0.308011
0.30807
0.30807
0.308129
0.308188
0.308246
0.308305
0.308305
0.308364
0.308423
0.308482
0.308541
0.308541
0.3086
0.30866
0.308719
0.308778
0.308778
0.308837
0.308896
0.308956
0.309015
0.309015
0.309074
0.309133
0.309193
0.309252
0.309252
0.309312
0.309371
0.309431
0.30949
0.30949
0.30955
0.309609
0.309669
0.309729
0.309729
0.309789
0.309848
0.309908
0.309968
0.309968
0.310028
0.310088
0.310147
0.310207
0.310207
0.310267
0.310327
0.310387
0.310447
0.310447
0.310507
0.310568
0.310628
0.310688
0.310688
0.310748
0.310808
0.310869
0.310929
0.310929
0.310989
0.31105
0.31111
0.311171
0.311171
0.311231
0.311292
0.311352
0.311413
0.311413
0.311473
0.311534
0.311595
0.311655
0.311655
0.311716
0.311777
0.311838
0.311898
0.311898
0.311959
0.31202
0.312081
0.312142
0.312142
0.312203
0.312264
0.312325
0.312386
0.312386
0.312447
0.312508
0.31257
0.312631
0.312631
0.312692
0.312753
0.312815
0.312876
0.312876
0.312937
0.312999
0.31306
0.313122
0.313122
0.313183
0.313245
0.313306
0.313368
0.313368
0.313429
0.313491
0.313553
0.313614
0.313614
0.313676
0.313738
0.3138
0.313861
0.313861
0.313923
0.313985
0.314047
0.314109
0.314109
0.314171
0.314233
0.314295
0.314357
0.314357
0.314419
0.314482
0.314544
0.314606
0.314606
0.314668
0.314731
0.314793
0.314855
0.314855
0.314918
0.31498
0.315043
0.315105
0.315105
0.315167
0.31523
0.315293
0.315355
0.315355
0.315418
0.315481
0.315543
0.315606
0.315606
0.315669
0.315731
0.315794
0.315857
0.315857
0.31592
0.315983
0.316046
0.316109
0.316109
0.316172
0.316235
0.316298
0.316361
0.316361
0.316424
0.316487
0.316551
0.316614
0.316614
0.316677
0.31674
0.316804
0.316867
0.316867
0.316931
0.316994
0.317057
0.317121
0.317121
0.317184
0.317248
0.317312
0.317375
0.317375
0.317439
0.317503
0.317566
0.31763
0.31763
0.317694
0.317758
0.317821
0.317885
0.317885
0.317949
0.318013
0.318077
0.318141
0.318141
0.318205
0.318269
0.318333
0.318397
0.318397
0.318462
0.318526
0.31859
0.318654
0.318654
0.318718
0.318783
0.318847
0.318912
0.318912
0.318976
0.31904
0.319105
0.319169
0.319169
0.319234
0.319298
0.319363
0.319428
0.319428
0.319492
0.319557
0.319622
0.319686
0.319686
0.319751
0.319816
0.319881
0.319946
0.319946
0.320011
0.320076
0.320141
0.320206
0.320206
0.320271
0.320336
0.320401
0.320466
0.320466
0.320531
0.320596
0.320662
0.320727
0.320727
0.320792
0.320857
0.320923
0.320988
0.320988
0.321054
0.321119
0.321185
0.32125
0.32125
0.321316
0.321381
0.321447
0.321512
0.321512
0.321578
0.321644
0.321709
0.321775
0.321775
0.321841
0.321907
0.321973
0.322039
0.322039
0.322105
0.32217
0.322236
0.322302
0.322302
0.322369
0.322435
0.322501
0.322567
0.322567
0.322633
0.322699
0.322765
0.322832
0.322832
0.322898
0.322964
0.323031
0.323097
0.323097
0.323164
0.32323
0.323296
0.323363
0.323363
0.32343
0.323496
0.323563
0.323629
0.323629
0.323696
0.323763
0.32383
0.323896
0.323896
0.323963
0.32403
0.324097
0.324164
0.324164
0.324231
0.324298
0.324365
0.324432
0.324432
0.324499
0.324566
0.324633
0.3247
0.3247
0.324767
0.324834
0.324902
0.324969
0.324969
0.325036
0.325103
0.325171
0.325238
0.325238
0.325306
0.325373
0.325441
0.325508
0.325508
0.325576
0.325643
0.325711
0.325779
0.325779
0.325846
0.325914
0.325982
0.326049
0.326049
0.326117
0.326185
0.326253
0.326321
0.326321
0.326389
0.326457
0.326525
0.326593
0.326593
0.326661
0.326729
0.326797
0.326865
0.326865
0.326933
0.327002
0.32707
0.327138
0.327138
0.327206
0.327275
0.327343
0.327412
0.327412
0.32748
0.327548
0.327617
0.327685
0.327685
0.327754
0.327823
0.327891
0.32796
0.32796
0.328029
0.328097
0.328166
0.328235
0.328235
0.328304
0.328372
0.328441
0.32851
0.32851
0.328579
0.328648
0.328717
0.328786
0.328786
0.328855
0.328924
0.328993
0.329062
0.329062
0.329132
0.329201
0.32927
0.329339
0.329339
0.329409
0.329478
0.329547
0.329617
0.329617
0.329686
0.329756
0.329825
0.329895
0.329895
0.329964
0.330034
0.330103
0.330173
0.330173
0.330243
0.330312
0.330382
0.330452
0.330452
0.330522
0.330592
0.330662
0.330731
0.330731
0.330801
0.330871
0.330941
0.331011
0.331011
0.331081
0.331151
0.331222
0.331292
0.331292
0.331362
0.331432
0.331502
0.331573
0.331573
0.331643
0.331713
0.331784
0.331854
0.331854
0.331924
0.331995
0.332065
0.332136
0.332136
0.332206
0.332277
0.332348
0.332418
0.332418
0.332489
0.33256
0.33263
0.332701
0.332701
0.332772
0.332843
0.332914
0.332985
0.332985
0.333056
0.333126
0.333197
0.333268
0.333268
0.33334
0.333411
0.333482
0.333553
0.333553
0.333624
0.333695
0.333766
0.333838
0.333838
0.333909
0.33398
0.334052
0.334123
0.334123
0.334195
0.334266
0.334337
0.334409
0.334409
0.334481
0.334552
0.334624
0.334695
0.334695
0.334767
0.334839
0.33491
0.334982
0.334982
0.335054
0.335126
0.335198
0.33527
0.33527
0.335342
0.335413
0.335485
0.335557
0.335557
0.335629
0.335702
0.335774
0.335846
0.335846
0.335918
0.33599
0.336062
0.336135
0.336135
0.336207
0.336279
0.336352
0.336424
0.336424
0.336496
0.336569
0.336641
0.336714
0.336714
0.336786
0.336859
0.336932
0.337004
0.337004
0.337077
0.33715
0.337222
0.337295
0.337295
0.337368
0.337441
0.337513
0.337586
0.337586
0.337659
0.337732
0.337805
0.337878
0.337878
0.337951
0.338024
0.338097
0.33817
0.33817
0.338244
0.338317
0.33839
0.338463
0.338463
0.338537
0.33861
0.338683
0.338757
0.338757
0.33883
0.338903
0.338977
0.33905
0.33905
0.339124
0.339197
0.339271
0.339345
0.339345
0.339418
0.339492
0.339566
0.339639
0.339639
0.339713
0.339787
0.339861
0.339935
0.339935
0.340009
0.340083
0.340156
0.34023
0.34023
0.340304
0.340379
0.340453
0.340527
0.340527
0.340601
0.340675
0.340749
0.340823
0.340823
0.340898
0.340972
0.341046
0.341121
0.341121
0.341195
0.34127
0.341344
0.341418
0.341418
0.341493
0.341568
0.341642
0.341717
0.341717
0.341791
0.341866
0.341941
0.342015
0.342015
0.34209
0.342165
0.34224
0.342315
0.342315
0.34239
0.342464
0.342539
0.342614
0.342614
0.342689
0.342764
0.342839
0.342915
0.342915
0.34299
0.343065
0.34314
0.343215
0.343215
0.34329
0.343366
0.343441
0.343516
0.343516
0.343592
0.343667
0.343743
0.343818
0.343818
0.343894
0.343969
0.344045
0.34412
0.34412
0.344196
0.344271
0.344347
0.344423
0.344423
0.344499
0.344574
0.34465
0.344726
0.344726
0.344802
0.344878
0.344954
0.34503
0.34503
0.345106
0.345182
0.345258
0.345334
0.345334
0.34541
0.345486
0.345562
0.345638
0.345638
0.345715
0.345791
0.345867
0.345943
0.345943
0.34602
0.346096
0.346173
0.346249
0.346249
0.346326
0.346402
0.346479
0.346555
0.346555
0.346632
0.346708
0.346785
0.346862
0.346862
0.346938
0.347015
0.347092
0.347169
0.347169
0.347246
0.347322
0.347399
0.347476
0.347476
0.347553
0.34763
0.347707
0.347784
0.347784
0.347861
0.347939
0.348016
0.348093
0.348093
0.34817
0.348247
0.348325
0.348402
0.348402
0.348479
0.348557
0.348634
0.348711
0.348711
0.348789
0.348866
0.348944
0.349021
0.349021
0.349099
0.349177
0.349254
0.349332
0.349332
0.34941
0.349487
0.349565
0.349643
0.349643
0.349721
0.349798
0.349876
0.349954
0.349954
0.350032
0.35011
0.350188
0.350266
0.350266
0.350344
0.350422
0.3505
0.350579
0.350579
0.350657
0.350735
0.350813
0.350892
0.350892
0.35097
0.351048
0.351127
0.351205
0.351205
0.351283
0.351362
0.35144
0.351519
0.351519
0.351597
0.351676
0.351755
0.351833
0.351833
0.351912
0.351991
0.352069
0.352148
0.352148
0.352227
0.352306
0.352385
0.352463
0.352463
0.352542
0.352621
0.3527
0.352779
0.352779
0.352858
0.352937
0.353016
0.353096
0.353096
0.353175
0.353254
0.353333
0.353412
0.353412
0.353492
0.353571
0.35365
0.35373
0.35373
0.353809
0.353888
0.353968
0.354047
0.354047
0.354127
0.354206
0.354286
0.354366
0.354366
0.354445
0.354525
0.354605
0.354684
0.354684
0.354764
0.354844
0.354924
0.355004
0.355004
0.355083
0.355163
0.355243
0.355323
0.355323
0.355403
0.355483
0.355563
0.355643
0.355643
0.355724
0.355804
0.355884
0.355964
0.355964
0.356044
0.356125
0.356205
0.356285
0.356285
0.356366
0.356446
0.356526
0.356607
0.356607
0.356687
0.356768
0.356848
0.356929
0.356929
0.35701
0.35709
0.357171
0.357252
0.357252
0.357332
0.357413
0.357494
0.357575
0.357575
0.357656
0.357736
0.357817
0.357898
0.357898
0.357979
0.35806
0.358141
0.358222
0.358222
0.358303
0.358385
0.358466
0.358547
0.358547
0.358628
0.358709
0.358791
0.358872
0.358872
0.358953
0.359035
0.359116
0.359197
0.359197
0.359279
0.35936
0.359442
0.359523
0.359523
0.359605
0.359686
0.359768
0.35985
0.35985
0.359931
0.360013
0.360095
0.360177
0.360177
0.360259
0.36034
0.360422
0.360504
0.360504
0.360586
0.360668
0.36075
0.360832
0.360832
0.360914
0.360996
0.361078
0.36116
0.36116
0.361243
0.361325
0.361407
0.361489
0.361489
0.361572
0.361654
0.361736
0.361819
0.361819
0.361901
0.361983
0.362066
0.362148
0.362148
0.362231
0.362314
0.362396
0.362479
0.362479
0.362561
0.362644
0.362727
0.362809
0.362809
0.362892
0.362975
0.363058
0.363141
0.363141
0.363224
0.363307
0.363389
0.363472
0.363472
0.363555
0.363639
0.363722
0.363805
0.363805
0.363888
0.363971
0.364054
0.364137
0.364137
0.364221
0.364304
0.364387
0.364471
0.364471
0.364554
0.364637
0.364721
0.364804
0.364804
0.364888
0.364971
0.365055
0.365138
0.365138
0.365222
0.365306
0.365389
0.365473
0.365473
0.365557
0.36564
0.365724
0.365808
0.365808
0.365892
0.365976
0.36606
0.366144
0.366144
0.366228
0.366311
0.366396
0.36648
0.36648
0.366564
0.366648
0.366732
0.366816
0.366816
0.3669
0.366985
0.367069
0.367153
0.367153
0.367237
0.367322
0.367406
0.367491
0.367491
0.367575
0.367659
0.367744
0.367828
0.367828
0.367913
0.367998
0.368082
0.368167
0.368167
0.368252
0.368336
0.368421
0.368506
0.368506
0.368591
0.368675
0.36876
0.368845
0.368845
0.36893
0.369015
0.3691
0.369185
0.369185
0.36927
0.369355
0.36944
0.369525
0.369525
0.36961
0.369696
0.369781
0.369866
0.369866
0.369951
0.370037
0.370122
0.370207
0.370207
0.370293
0.370378
0.370464
0.370549
0.370549
0.370635
0.37072
0.370806
0.370891
0.370891
0.370977
0.371063
0.371148
0.371234
0.371234
0.37132
0.371405
0.371491
0.371577
0.371577
0.371663
0.371749
0.371835
0.371921
0.371921
0.372007
0.372093
0.372179
0.372265
0.372265
0.372351
0.372437
0.372523
0.372609
0.372609
0.372696
0.372782
0.372868
0.372954
0.372954
0.373041
0.373127
0.373214
0.3733
0.3733
0.373386
0.373473
0.373559