<?xml version="1.0"?>
<VTKFile type="UnstructuredGrid" version="0.1" byte_order="LittleEndian">
<UnstructuredGrid>
<Piece NumberOfPoints="5000" NumberOfCells="4000">
<PointData Scalars="Reaction 0">
<DataArray type="Float32" Name="Reaction 0" format="ascii">
0.640003
0.640003
0.640003
0.640003
0.640003
0.640003
0.640003
0.640003
0.640003
0.640003
0.640003
0.640003
0.640004
0.640004
0.640004
0.640004
0.640004
0.640004
0.640004
0.640004
0.640004
0.640004
0.640005
0.640005
0.640005
0.640005
0.640005
0.640005
0.640006
0.640006
0.640006
0.640006
0.640006
0.640007
0.640007
0.640007
0.640007
0.640007
0.640008
0.640008
0.640008
0.640008
0.640009
0.640009
0.640009
0.640009
0.64001
0.64001
0.640011
0.640011
0.640011
0.640011
0.640012
0.640012
0.640013
0.640013
0.640013
0.640013
0.640014
0.640014
0.640014
0.640015
0.640015
0.640016
0.640016
0.640016
0.640017
0.640017
0.640018
0.640018
0.640018
0.640019
0.64002
0.64002
0.640021
0.640021
0.640021
0.640022
0.640023
0.640023
0.640023
0.640024
0.640024
0.640025
0.640026
0.640026
0.640026
0.640027
0.640028
0.640029
0.640029
0.640029
0.64003
0.640031
0.640031
0.640031
0.640032
0.640033
0.640034
0.640034
0.640034
0.640035
0.640036
0.640037
0.640038
0.640038
0.640039
0.640039
0.64004
0.640041
0.640041
0.640042
0.640043
0.640044
0.640045
0.640045
0.640046
0.640046
0.640047
0.640048
0.640048
0.640049
0.64005
0.640051
0.640052
0.640052
0.640053
0.640054
0.640055
0.640056
0.640056
0.640057
0.640058
0.640059
0.64006
0.64006
0.640061
0.640063
0.640064
0.640065
0.640065
0.640066
0.640067
0.640068
0.640069
0.640069
0.64007
0.640071
0.640073
0.640074
0.640074
0.640075
0.640076
0.640077
0.640079
0.640079
0.64008
0.640081
0.640082
0.640084
0.640084
0.640085
0.640086
0.640087
0.640089
0.640089
0.64009
0.640091
0.640093
0.640094
0.640094
0.640095
0.640097
0.640098
0.640099
0.640099
0.640101
0.640102
0.640104
0.640105
0.640105
0.640106
0.640108
0.640109
0.640111
0.640111
0.640112
0.640114
0.640115
0.640117
0.640117
0.640118
0.64012
0.640121
0.640123
0.640123
0.640124
0.640126
0.640127
0.640129
0.640129
0.64013
0.640132
0.640134
0.640135
0.640135
0.640137
0.640139
0.64014
0.640142
0.640142
0.640143
0.640145
0.640147
0.640149
0.640149
0.64015
0.640152
0.640154
0.640155
0.640155
0.640157
0.640159
0.640161
0.640162
0.640162
0.640164
0.640166
0.640168
0.64017
0.64017
0.640171
0.640173
0.640175
0.640177
0.640177
0.640179
0.640181
0.640182
0.640184
0.640184
0.640186
0.640188
0.64019
0.640192
0.640192
0.640194
0.640196
0.640198
0.6402
0.6402
0.640202
0.640204
0.640206
0.640208
0.640208
0.64021
0.640212
0.640214
0.640216
0.640216
0.640218
0.64022
0.640222
0.640224
0.640224
0.640226
0.640228
0.64023
0.640232
0.640232
0.640235
0.640237
0.640239
0.640241
0.640241
0.640243
0.640245
0.640248
0.64025
0.64025
0.640252
0.640254
0.640256
0.640259
0.640259
0.640261
0.640263
0.640265
0.640268
0.640268
0.64027
0.640272
0.640275
0.640277
0.640277
0.640279
0.640282
0.640284
0.640286
0.640286
0.640289
0.640291
0.640293
0.640296
0.640296
0.640298
0.640301
0.640303
0.640305
0.640305
0.640308
0.64031
0.640313
0.640315
0.640315
0.640318
0.64032
0.640323
0.640325
0.640325
0.640328
0.64033
0.640333
0.640336
0.640336
0.640338
0.640341
0.640343
0.640346
0.640346
0.640349
0.640351
0.640354
0.640356
0.640356
0.640359
0.640362
0.640364
0.640367
0.640367
0.64037
0.640372
0.640375
0.640378
0.640378
0.640381
0.640383
0.640386
0.640389
0.640389
0.640392
0.640394
0.640397
0.6404
0.6404
0.640403
0.640406
0.640408
0.640411
0.640411
0.640414
0.640417
0.64042
0.640423
0.640423
0.640426
0.640428
0.640431
0.640434
0.640434
0.640437
0.64044
0.640443
0.640446
0.640446
0.640449
0.640452
0.640455
0.640458
0.640458
0.640461
0.640464
0.640467
0.64047
0.64047
0.640473
0.640476
0.640479
0.640482
0.640482
0.640485
0.640488
0.640492
0.640495
0.640495
0.640498
0.640501
0.640504
0.640507
0.640507
0.64051
0.640514
0.640517
0.64052
0.64052
0.640523
0.640526
0.64053
0.640533
0.640533
0.640536
0.640539
0.640543
0.640546
0.640546
0.640549
0.640552
0.640556
0.640559
0.640559
0.640562
0.640566
0.640569
0.640572
0.640572
0.640576
0.640579
0.640582
0.640586
0.640586
0.640589
0.640593
0.640596
0.6406
0.6406
0.640603
0.640606
0.64061
0.640613
0.640613
0.640617
0.64062
0.640624
0.640627
0.640627
0.640631
0.640634
0.640638
0.640641
0.640641
0.640645
0.640649
0.640652
0.640656
0.640656
0.640659
0.640663
0.640667
0.64067
0.64067
0.640674
0.640678
0.640681
0.640685
0.640685
0.640689
0.640692
0.640696
0.6407
0.6407
0.640703
0.640707
0.640711
0.640715
0.640715
0.640718
0.640722
0.640726
0.64073
0.64073
0.640733
0.640737
0.640741
0.640745
0.640745
0.640749
0.640753
0.640756
0.64076
0.64076
0.640764
0.640768
0.640772
0.640776
0.640776
0.64078
0.640784
0.640788
0.640792
0.640792
0.640796
0.6408
0.640804
0.640808
0.640808
0.640812
0.640816
0.64082
0.640824
0.640824
0.640828
0.640832
0.640836
0.64084
0.64084
0.640844
0.640848
0.640852
0.640856
0.640856
0.64086
0.640864
0.640869
0.640873
0.640873
0.640877
0.640881
0.640885
0.640889
0.640889
0.640894
0.640898
0.640902
0.640906
0.640906
0.64091
0.640915
0.640919
0.640923
0.640923
0.640927
0.640932
0.640936
0.64094
0.64094
0.640945
0.640949
0.640953
0.640958
0.640958
0.640962
0.640966
0.640971
0.640975
0.640975
0.640979
0.640984
0.640988
0.640993
0.640993
0.640997
0.641002
0.641006
0.641011
0.641011
0.641015
0.64102
0.641024
0.641029
0.641029
0.641033
0.641038
0.641042
0.641047
0.641047
0.641051
0.641056
0.64106
0.641065
0.641065
0.64107
0.641074
0.641079
0.641084
0.641084
0.641088
0.641093
0.641098
0.641102
0.641102
0.641107
0.641112
0.641116
0.641121
0.641121
0.641126
0.64113
0.641135
0.64114
0.64114
0.641145
0.64115
0.641154
0.641159
0.641159
0.641164
0.641169
0.641174
0.641178
0.641178
0.641183
0.641188
0.641193
0.641198
0.641198
0.641203
0.641208
0.641212
0.641217
0.641217
0.641222
0.641227
0.641232
0.641237
0.641237
0.641242
0.641247
0.641252
0.641257
0.641257
0.641262
0.641267
0.641272
0.641277
0.641277
0.641282
0.641287
0.641292
0.641297
0.641297
0.641302
0.641308
0.641313
0.641318
0.641318
0.641323
0.641328
0.641333
0.641338
0.641338
0.641344
0.641349
0.641354
0.641359
0.641359
0.641364
0.64137
0.641375
0.64138
0.64138
0.641385
0.64139
0.641396
0.641401
0.641401
0.641406
0.641412
0.641417
0.641422
0.641422
0.641428
0.641433
0.641438
0.641444
0.641444
0.641449
0.641454
0.64146
0.641465
0.641465
0.641471
0.641476
0.641481
0.641487
0.641487
0.641492
0.641498
0.641503
0.641509
0.641509
0.641514
0.64152
0.641525
0.641531
0.641531
0.641536
0.641542
0.641547
0.641553
0.641553
0.641558
0.641564
0.64157
0.641575
0.641575
0.641581
0.641586
0.641592
0.641598
0.641598
0.641603
0.641609
0.641615
0.64162
0.64162
0.641626
0.641632
0.641637
0.641643
0.641643
0.641649
0.641654
0.64166
0.641666
0.641666
0.641672
0.641678
0.641683
0.641689
0.641689
0.641695
0.641701
0.641707
0.641712
0.641712
0.641718
0.641724
0.64173
0.641736
0.641736
0.641742
0.641748
0.641754
0.64176
0.64176
0.641765
0.641771
0.641777
0.641783
0.641783
0.641789
0.641795
0.641801
0.641807
0.641807
0.641813
0.641819
0.641826
0.641832
0.641832
0.641838
0.641844
0.64185
0.641856
0.641856
0.641862
0.641868
0.641874
0.64188
0.64188
0.641887
0.641893
0.641899
0.641905
0.641905
0.641911
0.641917
0.641924
0.64193
0.64193
0.641936
0.641942
0.641949
0.641955
0.641955
0.641961
0.641967
0.641974
0.64198
0.64198
0.641986
0.641993
0.641999
0.642005
0.642005
0.642012
0.642018
0.642024
0.642031
0.642031
0.642037
0.642044
0.64205
0.642056
0.642056
0.642063
0.642069
0.642076
0.642082
0.642082
0.642089
0.642095
0.642102
0.642108
0.642108
0.642115
0.642121
0.642128
0.642134
0.642134
0.642141
0.642147
0.642154
0.64216
0.64216
0.642167
0.642174
0.64218
0.642187
0.642187
0.642193
0.6422
0.642207
0.642213
0.642213
0.64222
0.642227
0.642233
0.64224
0.64224
0.642247
0.642254
0.64226
0.642267
0.642267
0.642274
0.642281
0.642287
0.642294
0.642294
0.642301
0.642308
0.642315
0.642321
0.642321
0.642328
0.642335
0.642342
0.642349
0.642349
0.642356
0.642363
0.642369
0.642376
0.642376
0.642383
0.64239
0.642397
0.642404
0.642404
0.642411
0.642418
0.642425
0.642432
0.642432
0.642439
0.642446
0.642453
0.64246
0.64246
0.642467
0.642474
0.642481
0.642488
0.642488
0.642495
0.642502
0.642509
0.642517
0.642517
0.642524
0.642531
0.642538
0.642545
0.642545
0.642552
0.64256
0.642567
0.642574
0.642574
0.642581
0.642588
0.642596
0.642603
0.642603
0.64261
0.642618
0.642625
0.642632
0.642632
0.642639
0.642647
0.642654
0.642661
0.642661
0.642669
0.642676
0.642683
0.642691
0.642691
0.642698
0.642706
0.642713
0.64272
0.64272
0.642728
0.642735
0.642743
0.64275
0.64275
0.642758
0.642765
0.642773
0.64278
0.64278
0.642788
0.642795
0.642803
0.64281
0.64281
0.642818
0.642825
0.642833
0.64284
0.64284
0.642848
0.642856
0.642863
0.642871
0.642871
0.642878
0.642886
0.642894
0.642901
0.642901
0.642909
0.642917
0.642924
0.642932
0.642932
0.64294
0.642948
0.642955
0.642963
0.642963
0.642971
0.642979
0.642986
0.642994
0.642994
0.643002
0.64301
0.643017
0.643025
0.643025
0.643033
0.643041
0.643049
0.643057
0.643057
0.643065
0.643072
0.64308
0.643088
0.643088
0.643096
0.643104
0.643112
0.64312
0.64312
0.643128
0.643136
0.643144
0.643152
0.643152
0.64316
0.643168
0.643176
0.643184
0.643184
0.643192
0.6432
0.643208
0.643216
0.643216
0.643224
0.643232
0.64324
0.643248
0.643248
0.643257
0.643265
0.643273
0.643281
0.643281
0.643289
0.643297
0.643306
0.643314
0.643314
0.643322
0.64333
0.643339
0.643347
0.643347
0.643355
0.643363
0.643372
0.64338
0.64338
0.643388
0.643397
0.643405
0.643413
0.643413
0.643422
0.64343
0.643438
0.643447
0.643447
0.643455
0.643464
0.643472
0.64348
0.64348
0.643489
0.643497
0.643506
0.643514
0.643514
0.643523
0.643531
0.64354
0.643548
0.643548
0.643557
0.643565
0.643574
0.643582
0.643582
0.643591
0.643599
0.643608
0.643616
0.643616
0.643625
0.643634
0.643642
0.643651
0.643651
0.64366
0.643668
0.643677
0.643685
0.643685
0.643694
0.643703
0.643712
0.64372
0.64372
0.643729
0.643738
0.643746
0.643755
0.643755
0.643764
0.643773
0.643781
0.64379
0.64379
0.643799
0.643808
0.643817
0.643826
0.643826
0.643834
0.643843
0.643852
0.643861
0.643861
0.64387
0.643879
0.643888
0.643897
0.643897
0.643905
0.643914
0.643923
0.643932
0.643932
0.643941
0.64395
0.643959
0.643968
0.643968
0.643977
0.643986
0.643995
0.644004
0.644004
0.644013
0.644022
0.644032
0.644041
0.644041
0.64405
0.644059
0.644068
0.644077
0.644077
0.644086
0.644095
0.644105
0.644114
0.644114
0.644123
0.644132
0.644142
0.644151
0.644151
0.64416
0.644169
0.644179
0.644188
0.644188
0.644197
0.644206
0.644216
0.644225
0.644225
0.644234
0.644244
0.644253
0.644262
0.644262
0.644272
0.644281
0.64429
0.6443
0.6443
0.644309
0.644319
0.644328
0.644338
0.644338
0.644347
0.644356
0.644366
0.644375
0.644375
0.644385
0.644394
0.644404
0.644413
0.644413
0.644423
0.644433
0.644442
0.644452
0.644452
0.644461
0.644471
0.64448
0.64449
0.64449
0.6445
0.644509
0.644519
0.644529
0.644529
0.644538
0.644548
0.644558
0.644567
0.644567
0.644577
0.644587
0.644596
0.644606
0.644606
0.644616
0.644626
0.644635
0.644645
0.644645
0.644655
0.644665
0.644674
0.644684
0.644684
0.644694
0.644704
0.644714
0.644724
0.644724
0.644733
0.644743
0.644753
0.644763
0.644763
0.644773
0.644783
0.644793
0.644803
0.644803
0.644813
0.644823
0.644833
0.644843
0.644843
0.644853
0.644863
0.644873
0.644883
0.644883
0.644893
0.644903
0.644913
0.644923
0.644923
0.644933
0.644943
0.644954
0.644964
0.644964
0.644974
0.644984
0.644994
0.645004
0.645004
0.645015
0.645025
0.645035
0.645045
0.645045
0.645055
0.645066
0.645076
0.645086
0.645086
0.645097
0.645107
0.645117
0.645127
0.645127
0.645138
0.645148
0.645158
0.645169
0.645169
0.645179
0.645189
0.6452
0.64521
0.64521
0.645221
0.645231
0.645241
0.645252
0.645252
0.645262
0.645273
0.645283
0.645294
0.645294
0.645304
0.645315
0.645325
0.645336
0.645336
0.645346
0.645357
0.645367
0.645378
0.645378
0.645388
0.645399
0.645409
0.64542
0.64542
0.645431
0.645441
0.645452
0.645463
0.645463
0.645473
0.645484
0.645495
0.645505
0.645505
0.645516
0.645527
0.645537
0.645548
0.645548
0.645559
0.64557
0.64558
0.645591
0.645591
0.645602
0.645613
0.645623
0.645634
0.645634
0.645645
0.645656
0.645667
0.645678
0.645678
0.645689
0.6457
0.645711
0.645721
0.645721
0.645732
0.645743
0.645754
0.645765
0.645765
0.645776
0.645787
0.645798
0.645809
0.645809
0.64582
0.645831
0.645842
0.645853
0.645853
0.645864
0.645876
0.645887
0.645898
0.645898
0.645909
0.64592
0.645931
0.645942
0.645942
0.645953
0.645965
0.645976
0.645987
0.645987
0.645998
0.646009
0.64602
0.646032
0.646032
0.646043
0.646054
0.646065
0.646077
0.646077
0.646088
0.646099
0.64611
0.646122
0.646122
0.646133
0.646144
0.646156
0.646167
0.646167
0.646178
0.64619
0.646201
0.646213
0.646213
0.646224
0.646235
0.646247
0.646258
0.646258
0.64627
0.646281
0.646293
0.646304
0.646304
0.646316
0.646327
0.646339
0.64635
0.64635
0.646362
0.646373
0.646385
0.646396
0.646396
0.646408
0.646419
0.646431
0.646443
0.646443
0.646454
0.646466
0.646478
0.646489
0.646489
0.646501
0.646513
0.646525
0.646536
0.646536
0.646548
0.64656
0.646571
0.646583
0.646583
0.646595
0.646607
0.646619
0.64663
0.64663
0.646642
0.646654
0.646666
0.646678
0.646678
0.64669
0.646702
0.646713
0.646725
0.646725
0.646737
0.646749
0.646761
0.646773
0.646773
0.646785
0.646797
0.646809
0.646821
0.646821
0.646833
0.646845
0.646857
0.646869
0.646869
0.646881
0.646893
0.646905
0.646917
0.646917
0.646929
0.646941
0.646953
0.646965
0.646965
0.646977
0.64699
0.647002
0.647014
0.647014
0.647026
0.647038
0.64705
0.647063
0.647063
0.647075
0.647087
0.647099
0.647111
0.647111
0.647124
0.647136
0.647148
0.64716
0.64716
0.647173
0.647185
0.647197
0.64721
0.64721
0.647222
0.647235
0.647247
0.647259
0.647259
0.647272
0.647284
0.647297
0.647309
0.647309
0.647321
0.647334
0.647346
0.647359
0.647359
0.647371
0.647384
0.647396
0.647409
0.647409
0.647422
0.647434
0.647447
0.647459
0.647459
0.647472
0.647484
0.647497
0.64751
0.64751
0.647522
0.647535
0.647548
0.64756
0.64756
0.647573
0.647586
0.647598
0.647611
0.647611
0.647624
0.647636
0.647649
0.647662
0.647662
0.647675
0.647687
0.6477
0.647713
0.647713
0.647726
0.647739
0.647751
0.647764
0.647764
0.647777
0.64779
0.647803
0.647816
0.647816
0.647828
0.647841
0.647854
0.647867
0.647867
0.64788
0.647893
0.647906
0.647919
0.647919
0.647932
0.647945
0.647958
0.647971
0.647971
0.647984
0.647997
0.64801
0.648023
0.648023
0.648036
0.648049
0.648062
0.648076
0.648076
0.648089
0.648102
0.648115
0.648128
0.648128
0.648141
0.648155
0.648168
0.648181
0.648181
0.648194
0.648207
0.648221
0.648234
0.648234
0.648247
0.648261
0.648274
0.648287
0.648287
0.6483
0.648314
0.648327
0.64834
0.64834
0.648354
0.648367
0.648381
0.648394
0.648394
0.648407
0.648421
0.648434
0.648448
0.648448
0.648461
0.648475
0.648488
0.648501
0.648501
0.648515
0.648528
0.648542
0.648555
0.648555
0.648569
0.648583
0.648596
0.64861
0.64861
0.648623
0.648637
0.64865
0.648664
0.648664
0.648678
0.648691
0.648705
0.648719
0.648719
0.648732
0.648746
0.64876
0.648773
0.648773
0.648787
0.648801
0.648814
0.648828
0.648828
0.648842
0.648856
0.64887
0.648883
0.648883
0.648897
0.648911
0.648925
0.648939
0.648939
0.648953
0.648966
0.64898
0.648994
0.648994
0.649008
0.649022
0.649036
0.64905
0.64905
0.649064
0.649078
0.649092
0.649106
0.649106
0.64912
0.649134
0.649148
0.649162
0.649162
0.649176
0.64919
0.649204
0.649218
0.649218
0.649233
0.649247
0.649261
0.649275
0.649275
0.649289
0.649303
0.649317
0.649331
0.649331
0.649346
0.64936
0.649374
0.649388
0.649388
0.649403
0.649417
0.649431
0.649445
0.649445
0.64946
0.649474
0.649488
0.649502
0.649502
0.649517
0.649531
0.649545
0.64956
0.64956
0.649574
0.649588
0.649603
0.649617
0.649617
0.649632
0.649646
0.649661
0.649675
0.649675
0.649689
0.649704
0.649718
0.649733
0.649733
0.649747
0.649762
0.649777
0.649791
0.649791
0.649806
0.64982
0.649835
0.64985
0.64985
0.649864
0.649879
0.649893
0.649908
0.649908
0.649923
0.649937
0.649952
0.649967
0.649967
0.649982
0.649996
0.650011
0.650026
0.650026
0.650041
0.650055
0.65007
0.650085
0.650085
0.6501
0.650115
0.650129
0.650144
0.650144
0.650159
0.650174
0.650189
0.650204
0.650204
0.650219
0.650233
0.650248
0.650263
0.650263
0.650278
0.650293
0.650308
0.650323
0.650323
0.650338
0.650353
0.650368
0.650383
0.650383
0.650398
0.650413
0.650428
0.650443
0.650443
0.650458
0.650473
0.650488
0.650504
0.650504
0.650519
0.650534
0.650549
0.650564
0.650564
0.650579
0.650595
0.65061
0.650625
0.650625
0.65064
0.650655
0.650671
0.650686
0.650686
0.650701
0.650717
0.650732
0.650747
0.650747
0.650763
0.650778
0.650793
0.650809
0.650809
0.650824
0.650839
0.650855
0.65087
0.65087
0.650886
0.650901
0.650917
0.650932
0.650932
0.650948
0.650963
0.650978
0.650994
0.650994
0.65101
0.651025
0.651041
0.651056
0.651056
0.651072
0.651087
0.651103
0.651118
0.651118
0.651134
0.65115
0.651165
0.651181
0.651181
0.651197
0.651212
0.651228
0.651244
0.651244
0.651259
0.651275
0.651291
0.651306
0.651306
0.651322
0.651338
0.651354
0.651369
0.651369
0.651385
0.651401
0.651417
0.651433
0.651433
0.651449
0.651464
0.65148
0.651496
0.651496
0.651512
0.651528
0.651544
0.65156
0.65156
0.651576
0.651592
0.651608
0.651624
0.651624
0.65164
0.651656
0.651672
0.651688
0.651688
0.651704
0.65172
0.651736
0.651752
0.651752
0.651768
0.651785
0.651801
0.651817
0.651817
0.651833
0.651849
0.651865
0.651881
0.651881
0.651898
0.651914
0.65193
0.651946
0.651946
0.651962
0.651979
0.651995
0.652011
0.652011
0.652028
0.652044
0.65206
0.652076
0.652076
0.652093
0.652109
0.652125
0.652142
0.652142
0.652158
0.652175
0.652191
0.652207
0.652207
0.652224
0.65224
0.652257
0.652273
0.652273
0.65229
0.652306
0.652323
0.652339
0.652339
0.652356
0.652372
0.652389
0.652406
0.652406
0.652422
0.652439
0.652455
0.652472
0.652472
0.652489
0.652505
0.652522
0.652539
0.652539
0.652555
0.652572
0.652589
0.652605
0.652605
0.652622
0.652639
0.652656
0.652672
0.652672
0.652689
0.652706
0.652723
0.65274
0.65274
0.652756
0.652773
0.65279
0.652807
0.652807
0.652824
0.652841
0.652858
0.652875
0.652875
0.652891
0.652908
0.652925
0.652942
0.652942
0.652959
0.652976
0.652993
0.65301
0.65301
0.653027
0.653044
0.653061
0.653078
0.653078
0.653095
0.653112
0.65313
0.653147
0.653147
0.653164
0.653181
0.653198
0.653215
0.653215
0.653233
0.65325
0.653267
0.653284
0.653284
0.653301
0.653319
0.653336
0.653353
0.653353
0.65337
0.653388
0.653405
0.653422
0.653422
0.65344
0.653457
0.653474
0.653492
0.653492
0.653509
0.653527
0.653544
0.653561
0.653561
0.653579
0.653596
0.653614
0.653631
0.653631
0.653649
0.653666
0.653684
0.653701
0.653701
0.653719
0.653736
0.653754
0.653771
0.653771
0.653789
0.653806
0.653824
0.653841
0.653841
0.653859
0.653877
0.653894
0.653912
0.653912
0.65393
0.653947
0.653965
0.653983
0.653983
0.654
0.654018
0.654036
0.654054
0.654054
0.654072
0.654089
0.654107
0.654125
0.654125
0.654143
0.654161
0.654179
0.654196
0.654196
0.654214
0.654232
0.65425
0.654268
0.654268
0.654286
0.654304
0.654322
0.65434
0.65434
0.654358
0.654376
0.654394
0.654412
0.654412
0.65443
0.654448
0.654466
0.654484
0.654484
0.654502
0.65452
0.654538
0.654556
0.654556
0.654574
0.654593
0.654611
0.654629
0.654629
0.654647
0.654665
0.654683
0.654702
0.654702
0.65472
0.654738
0.654756
0.654774
0.654774
0.654793
0.654811
0.654829
0.654848
0.654848
0.654866
0.654884
0.654903
0.654921
0.654921
0.654939
0.654958
0.654976
0.654995
0.654995
0.655013
0.655032
0.65505
0.655069
0.655069
0.655087
0.655106
0.655124
0.655143
0.655143
0.655161
0.65518
0.655198
0.655217
0.655217
0.655235
0.655254
0.655273
0.655291
0.655291
0.65531
0.655329
0.655347
0.655366
0.655366
0.655385
0.655403
0.655422
0.655441
0.655441
0.655459
0.655478
0.655497
0.655516
0.655516
0.655534
0.655553
0.655572
0.655591
0.655591
0.65561
0.655628
0.655647
0.655666
0.655666
0.655685
0.655704
0.655723
0.655742
0.655742
0.655761
0.65578
0.655799
0.655818
0.655818
0.655837
0.655856
0.655875
0.655894
0.655894
0.655913
0.655932
0.655951
0.65597
0.65597
0.655989
0.656008
0.656027
0.656047
0.656047
0.656066
0.656085
0.656104
0.656123
0.656123
0.656142
0.656162
0.656181
0.6562
0.6562
0.656219
0.656239
0.656258
0.656277
0.656277
0.656296
0.656316
0.656335
0.656354
0.656354
0.656374
0.656393
0.656412
0.656432
0.656432
0.656451
0.656471
0.65649
0.656509
0.656509
0.656529
0.656548
0.656568
0.656587
0.656587
0.656607
0.656626
0.656646
0.656665
0.656665
0.656685
0.656705
0.656724
0.656744
0.656744
0.656763
0.656783
0.656803
0.656822
0.656822
0.656842
0.656862
0.656881
0.656901
0.656901
0.656921
0.656941
0.65696
0.65698
0.65698
0.657
0.65702
0.657039
0.657059
0.657059
0.657079
0.657099
0.657119
0.657139
0.657139
0.657159
0.657178
0.657198
0.657218
0.657218
0.657238
0.657258
0.657278
0.657298
0.657298
0.657318
0.657338
0.657358
0.657378
0.657378
0.657398
0.657418
0.657438
0.657458
0.657458
0.657478
0.657498
0.657518
0.657538
0.657538
0.657559
0.657579
0.657599
0.657619
0.657619
0.657639
0.657659
0.65768
0.6577
0.6577
0.65772
0.65774
0.657761
0.657781
0.657781
0.657801
0.657822
0.657842
0.657862
0.657862
0.657883
0.657903
0.657923
0.657944
0.657944
0.657964
0.657985
0.658005
0.658025
0.658025
0.658046
0.658066
0.658087
0.658107
0.658107
0.658128
0.658148
0.658169
0.658189
0.658189
0.65821
0.65823
0.658251
0.658272
0.658272
0.658292
0.658313
0.658333
0.658354
0.658354
0.658375
0.658395
0.658416
0.658437
0.658437
0.658457
0.658478
0.658499
0.65852
0.65852
0.658541
0.658561
0.658582
0.658603
0.658603
0.658624
0.658645
0.658665
0.658686
0.658686
0.658707
0.658728
0.658749
0.65877
0.65877
0.658791
0.658812
0.658833
0.658854
0.658854
0.658875
0.658896
0.658917
0.658938
0.658938
0.658959
0.65898
0.659001
0.659022
0.659022
0.659043
0.659064
0.659085
0.659106
0.659106
0.659127
0.659149
0.65917
0.659191
0.659191
0.659212
0.659233
0.659254
0.659276
0.659276
0.659297
0.659318
0.659339
0.659361
0.659361
0.659382
0.659403
0.659425
0.659446
0.659446
0.659468
0.659489
0.65951
0.659532
0.659532
0.659553
0.659575
0.659596
0.659617
0.659617
0.659639
0.65966
0.659682
0.659703
0.659703
0.659725
0.659746
0.659768
0.65979
0.65979
0.659811
0.659833
0.659854
0.659876
0.659876
0.659898
0.659919
0.659941
0.659962
0.659962
0.659984
0.660006
0.660028
0.660049
0.660049
0.660071
0.660093
0.660114
0.660136
0.660136
0.660158
0.66018
0.660202
0.660223
0.660223
0.660245
0.660267
0.660289
0.660311
0.660311
0.660333
0.660355
0.660377
0.660399
0.660399
0.660421
0.660442
0.660464
0.660486
0.660486
0.660509
0.660531
0.660553
0.660575
0.660575
0.660597
0.660619
0.660641
0.660663
0.660663
0.660685
0.660707
0.660729
0.660751
0.660751
0.660774
0.660796
0.660818
0.66084
0.66084
0.660862
0.660885
0.660907
0.660929
0.660929
0.660951
0.660974
0.660996
0.661018
0.661018
0.661041
0.661063
0.661085
0.661108
0.661108
0.66113
0.661152
0.661175
0.661197
0.661197
0.66122
0.661242
0.661265
0.661287
0.661287
0.66131
0.661332
0.661355
0.661377
0.661377
0.6614
0.661422
0.661445
0.661468
0.661468
0.66149
0.661513
0.661535
0.661558
0.661558
0.661581
0.661603
0.661626
0.661649
0.661649
0.661672
0.661694
0.661717
0.66174
0.66174
0.661763
0.661785
0.661808
0.661831
0.661831
0.661854
0.661877
0.661899
0.661922
0.661922
0.661945
0.661968
0.661991
0.662014
0.662014
0.662037
0.66206
0.662083
0.662106
0.662106
0.662129
0.662152
0.662175
0.662198
0.662198
0.662221
0.662244
0.662267
0.66229
0.66229
0.662313
0.662336
0.662359
0.662383
0.662383
0.662406
0.662429
0.662452
0.662475
0.662475
0.662498
0.662522
0.662545
0.662568
0.662568
0.662591
0.662615
0.662638
0.662661
0.662661
0.662685
0.662708
0.662731
0.662755
0.662755
0.662778
0.662801
0.662825
0.662848
0.662848
0.662872
0.662895
0.662919
0.662942
0.662942
0.662965
0.662989
0.663013
0.663036
0.663036
0.66306
0.663083
0.663107
0.66313
0.66313
0.663154
0.663178
0.663201
0.663225
0.663225
0.663249
0.663272
0.663296
0.66332
0.66332
0.663343
0.663367
0.663391
0.663415
0.663415
0.663438
0.663462
0.663486
0.66351
0.66351
0.663534
0.663557
0.663581
0.663605
0.663605
0.663629
0.663653
0.663677
0.663701
0.663701
0.663725
0.663749
0.663773
0.663797
0.663797
0.663821
0.663845
0.663869
0.663893
0.663893
0.663917
0.663941
0.663965
0.663989
0.663989
0.664013
0.664037
0.664061
0.664085
0.664085
0.66411
0.664134
0.664158
0.664182
0.664182
0.664206
0.664231
0.664255
0.664279
0.664279
0.664304
0.664328
0.664352
0.664376
0.664376
0.664401
0.664425
0.664449
0.664474
0.664474
0.664498
0.664523
0.664547
0.664571
0.664571
0.664596
0.66462
0.664645
0.664669
0.664669
0.664694
0.664718
0.664743
0.664767
0.664767
0.664792
0.664816
0.664841
0.664866
0.664866
0.66489
0.664915
0.66494
0.664964
0.664964
0.664989
0.665014
0.665038
0.665063
0.665063
0.665088
0.665113
0.665137
0.665162
0.665162
0.665187
0.665212
0.665237
0.665261
0.665261
0.665286
0.665311
0.665336
0.665361
0.665361
0.665386
0.665411
0.665436
0.665461
0.665461
0.665486
0.665511
0.665535
0.66556
0.66556
0.665585
0.665611
0.665636
0.665661
0.665661
0.665686
0.665711
0.665736
0.665761
0.665761
0.665786
0.665811
0.665836
0.665862
0.665862
0.665887
0.665912
0.665937
0.665962
0.665962
0.665988
0.666013
0.666038
0.666064
0.666064
0.666089
0.666114
0.66614
0.666165
0.666165
0.66619
0.666216
0.666241
0.666266
0.666266
0.666292
0.666317
0.666343
0.666368
0.666368
0.666394
0.666419
0.666445
0.66647
0.66647
0.666496
0.666521
0.666547
0.666572
0.666572
0.666598
0.666624
0.666649
0.666675
0.666675
0.6667
0.666726
0.666752
0.666777
0.666777
0.666803
0.666829
0.666855
0.66688
0.66688
0.666906
0.666932
0.666958
0.666984
0.666984
0.667009
0.667035
0.667061
0.667087
0.667087
0.667113
0.667139
0.667165
0.667191
0.667191
0.667217
0.667243
0.667269
0.667295
0.667295
0.667321
0.667347
0.667373
0.667399
0.667399
0.667425
0.667451
0.667477
0.667503
0.667503
0.667529
0.667555
0.667581
0.667607
0.667607
0.667634
0.66766
0.667686
0.667712
0.667712
0.667738
0.667765
0.667791
0.667817
0.667817
0.667844
0.66787
0.667896
0.667923
0.667923
0.667949
0.667975
0.668002
0.668028
0.668028
0.668054
0.668081
0.668107
0.668134
0.668134
0.66816
0.668187
0.668213
0.66824
0.66824
0.668266
0.668293
0.668319
0.668346
0.668346
0.668373
0.668399
0.668426
0.668452
0.668452
0.668479
0.668506
0.668532
0.668559
0.668559
0.668586
0.668612
0.668639
0.668666
0.668666
0.668693
0.668719
0.668746
0.668773
0.668773
0.6688
0.668827
0.668854
0.66888
0.66888
0.668907
0.668934
0.668961
0.668988
0.668988
0.669015
0.669042
0.669069
0.669096
0.669096
0.669123
0.66915
0.669177
0.669204
0.669204
0.669231
0.669258
0.669285
0.669312
0.669312
0.669339
0.669367
0.669394
0.669421
0.669421
0.669448
0.669475
0.669502
0.66953
0.66953
0.669557
0.669584
0.669611
0.669639
0.669639
0.669666
0.669693
0.66972
0.669748
0.669748
0.669775
0.669803
0.66983
0.669857
0.669857
0.669885
0.669912
0.66994
0.669967
0.669967
0.669995
0.670022
0.67005
0.670077
0.670077
0.670105
0.670132
0.67016
0.670187
0.670187
0.670215
0.670243
0.67027
0.670298
0.670298
0.670325
0.670353
0.670381
0.670408
0.670408
0.670436
0.670464
0.670492
0.670519
0.670519
0.670547
0.670575
0.670603
0.670631
0.670631
0.670658
0.670686
0.670714
0.670742
0.670742
0.67077
0.670798
0.670826
0.670854
0.670854
0.670882
0.67091
0.670938
0.670966
0.670966
0.670994
0.671022
0.67105
0.671078
0.671078
0.671106
0.671134
0.671162
0.67119
0.67119
0.671218
0.671246
0.671275
0.671303
0.671303
0.671331
0.671359
0.671387
0.671415
0.671415
0.671444
0.671472
0.6715
0.671529
0.671529
0.671557
0.671585
0.671614
0.671642
0.671642
0.67167
0.671699
0.671727
0.671756
0.671756
0.671784
0.671812
0.671841
0.671869
0.671869
0.671898
0.671926
0.671955
0.671983
0.671983
0.672012
0.672041
0.672069
0.672098
0.672098
0.672126
0.672155
0.672184
0.672212
0.672212
0.672241
0.67227
0.672298
0.672327
0.672327
0.672356
0.672385
0.672413
0.672442
0.672442
0.672471
0.6725
0.672528
0.672557
0.672557
0.672586
0.672615
0.672644
0.672673
0.672673
0.672702
0.672731
0.67276
0.672789
0.672789
0.672818
0.672847
0.672876
0.672905
0.672905
0.672934
0.672963
0.672992
0.673021
0.673021
0.67305
0.673079
0.673108
0.673137
0.673137
0.673167
0.673196
0.673225
0.673254
0.673254
0.673283
0.673313
0.673342
0.673371
0.673371
0.6734
0.67343
0.673459
0.673488
0.673488
0.673518
0.673547
0.673576
0.673606
0.673606
0.673635
0.673665
0.673694
0.673724
0.673724
0.673753
0.673783
0.673812
0.673842
0.673842
0.673871
0.673901
0.67393
0.67396
0.67396
0.673989
0.674019
0.674049
0.674078
0.674078
0.674108
0.674138
0.674167
0.674197
0.674197
0.674227
0.674256
0.674286
0.674316
0.674316
0.674346
0.674375
0.674405
0.674435
0.674435
0.674465
0.674495
0.674525
0.674554
0.674554
0.674584
0.674614
0.674644
0.674674
0.674674
0.674704
0.674734
0.674764
0.674794
0.674794
0.674824
0.674854
0.674884
0.674914
0.674914
0.674944
0.674975
0.675005
0.675035
0.675035
0.675065
0.675095
0.675125
0.675155
0.675155
0.675186
0.675216
0.675246
0.675276
0.675276
0.675307
0.675337
0.675367
0.675397
0.675397
0.675428
0.675458
0.675488
0.675519
0.675519
0.675549
0.67558
0.67561
0.675641
0.675641
0.675671
0.675701
0.675732
0.675763
0.675763
0.675793
0.675824
0.675854
0.675885
0.675885
0.675915
0.675946
0.675976
0.676007
0.676007
0.676038
0.676068
0.676099
0.67613
0.67613
0.67616
0.676191
0.676222
0.676253
0.676253
0.676283
0.676314
0.676345
0.676376
0.676376
0.676407
0.676437
0.676468
0.676499
0.676499
0.67653
0.676561
0.676592
0.676623
0.676623
0.676654
0.676685
0.676716
0.676747
0.676747
0.676778
0.676809
0.67684
0.676871
0.676871
0.676902
0.676933
0.676964
0.676995
0.676995
0.677027
0.677058
0.677089
0.67712
0.67712
0.677151
0.677182
0.677214
0.677245
0.677245
0.677276
0.677307
0.677339
0.67737
0.67737
0.677401
0.677433
0.677464
0.677495
0.677495
0.677527
0.677558
0.67759
0.677621
0.677621
0.677653
0.677684
0.677716
0.677747
0.677747
0.677779
0.67781
0.677842
0.677873
0.677873
0.677905
0.677937
0.677968
0.678
0.678
0.678031
0.678063
0.678095
0.678126
0.678126
0.678158
0.67819
0.678222
0.678253
0.678253
0.678285
0.678317
0.678349
0.67838
0.67838
0.678412
0.678444
0.678476
0.678508
0.678508
0.67854
0.678572
0.678604
0.678636
0.678636
0.678668
0.6787
0.678732
0.678764
0.678764
0.678796
0.678828
0.67886
0.678892
0.678892
0.678924
0.678956
0.678988
0.67902
0.67902
0.679052
0.679085
0.679117
0.679149
0.679149
0.679181
0.679213
0.679246
0.679278
0.679278
0.67931
0.679342
0.679375
0.679407
0.679407
0.679439
0.679472