<?xml version="1.0"?>
<VTKFile type="UnstructuredGrid" version="0.1" byte_order="LittleEndian">
<UnstructuredGrid>
<Piece NumberOfPoints="5000" NumberOfCells="4000">
<PointData Scalars="Reaction 0">
<DataArray type="Float32" Name="Reaction 0" format="ascii">
0.420535
0.420535
0.420535
0.420536
0.420536
0.420536
0.420536
0.420536
0.420536
0.420536
0.420536
0.420537
0.420537
0.420537
0.420538
0.420538
0.420538
0.420538
0.420539
0.420539
0.420539
0.42054
0.42054
0.420541
0.420541
0.420541
0.420542
0.420543
0.420543
0.420544
0.420544
0.420545
0.420545
0.420546
0.420547
0.420547
0.420548
0.420549
0.42055
0.420551
0.420551
0.420552
0.420553
0.420554
0.420555
0.420555
0.420556
0.420557
0.420558
0.420559
0.420559
0.42056
0.420562
0.420563
0.420564
0.420564
0.420565
0.420567
0.420568
0.42057
0.42057
0.420571
0.420572
0.420574
0.420576
0.420576
0.420577
0.420579
0.42058
0.420582
0.420582
0.420584
0.420585
0.420587
0.420589
0.420589
0.420591
0.420592
0.420594
0.420596
0.420596
0.420598
0.4206
0.420602
0.420604
0.420604
0.420606
0.420608
0.42061
0.420612
0.420612
0.420614
0.420617
0.420619
0.420621
0.420621
0.420623
0.420626
0.420628
0.42063
0.42063
0.420633
0.420635
0.420638
0.42064
0.42064
0.420643
0.420645
0.420648
0.42065
0.42065
0.420653
0.420656
0.420658
0.420661
0.420661
0.420664
0.420667
0.420669
0.420672
0.420672
0.420675
0.420678
0.420681
0.420684
0.420684
0.420687
0.42069
0.420693
0.420696
0.420696
0.420699
0.420702
0.420705
0.420708
0.420708
0.420712
0.420715
0.420718
0.420722
0.420722
0.420725
0.420728
0.420732
0.420735
0.420735
0.420739
0.420742
0.420746
0.420749
0.420749
0.420753
0.420756
0.42076
0.420764
0.420764
0.420767
0.420771
0.420775
0.420779
0.420779
0.420782
0.420786
0.42079
0.420794
0.420794
0.420798
0.420802
0.420806
0.42081
0.42081
0.420814
0.420818
0.420822
0.420826
0.420826
0.42083
0.420835
0.420839
0.420843
0.420843
0.420847
0.420852
0.420856
0.42086
0.42086
0.420865
0.420869
0.420874
0.420878
0.420878
0.420883
0.420887
0.420892
0.420897
0.420897
0.420901
0.420906
0.420911
0.420915
0.420915
0.42092
0.420925
0.42093
0.420935
0.420935
0.420939
0.420944
0.420949
0.420954
0.420954
0.420959
0.420964
0.420969
0.420974
0.420974
0.42098
0.420985
0.42099
0.420995
0.420995
0.421
0.421006
0.421011
0.421016
0.421016
0.421022
0.421027
0.421032
0.421038
0.421038
0.421043
0.421049
0.421054
0.42106
0.42106
0.421066
0.421071
0.421077
0.421082
0.421082
0.421088
0.421094
0.4211
0.421106
0.421106
0.421111
0.421117
0.421123
0.421129
0.421129
0.421135
0.421141
0.421147
0.421153
0.421153
0.421159
0.421165
0.421171
0.421177
0.421177
0.421184
0.42119
0.421196
0.421202
0.421202
0.421209
0.421215
0.421221
0.421228
0.421228
0.421234
0.421241
0.421247
0.421254
0.421254
0.42126
0.421267
0.421273
0.42128
0.42128
0.421287
0.421293
0.4213
0.421307
0.421307
0.421314
0.421321
0.421327
0.421334
0.421334
0.421341
0.421348
0.421355
0.421362
0.421362
0.421369
0.421376
0.421383
0.42139
0.42139
0.421397
0.421405
0.421412
0.421419
0.421419
0.421426
0.421434
0.421441
0.421448
0.421448
0.421456
0.421463
0.42147
0.421478
0.421478
0.421485
0.421493
0.421501
0.421508
0.421508
0.421516
0.421523
0.421531
0.421539
0.421539
0.421546
0.421554
0.421562
0.42157
0.42157
0.421578
0.421586
0.421594
0.421601
0.421601
0.421609
0.421617
0.421625
0.421634
0.421634
0.421642
0.42165
0.421658
0.421666
0.421666
0.421674
0.421683
0.421691
0.421699
0.421699
0.421707
0.421716
0.421724
0.421733
0.421733
0.421741
0.42175
0.421758
0.421767
0.421767
0.421775
0.421784
0.421792
0.421801
0.421801
0.42181
0.421818
0.421827
0.421836
0.421836
0.421845
0.421854
0.421862
0.421871
0.421871
0.42188
0.421889
0.421898
0.421907
0.421907
0.421916
0.421925
0.421934
0.421944
0.421944
0.421953
0.421962
0.421971
0.42198
0.42198
0.42199
0.421999
0.422008
0.422018
0.422018
0.422027
0.422037
0.422046
0.422055
0.422055
0.422065
0.422075
0.422084
0.422094
0.422094
0.422103
0.422113
0.422123
0.422132
0.422132
0.422142
0.422152
0.422162
0.422172
0.422172
0.422182
0.422191
0.422201
0.422211
0.422211
0.422221
0.422231
0.422241
0.422251
0.422251
0.422262
0.422272
0.422282
0.422292
0.422292
0.422302
0.422313
0.422323
0.422333
0.422333
0.422344
0.422354
0.422364
0.422375
0.422375
0.422385
0.422396
0.422406
0.422417
0.422417
0.422427
0.422438
0.422449
0.422459
0.422459
0.42247
0.422481
0.422492
0.422502
0.422502
0.422513
0.422524
0.422535
0.422546
0.422546
0.422557
0.422568
0.422579
0.42259
0.42259
0.422601
0.422612
0.422623
0.422634
0.422634
0.422646
0.422657
0.422668
0.422679
0.422679
0.422691
0.422702
0.422713
0.422725
0.422725
0.422736
0.422748
0.422759
0.422771
0.422771
0.422782
0.422794
0.422805
0.422817
0.422817
0.422829
0.42284
0.422852
0.422864
0.422864
0.422876
0.422887
0.422899
0.422911
0.422911
0.422923
0.422935
0.422947
0.422959
0.422959
0.422971
0.422983
0.422995
0.423007
0.423007
0.423019
0.423031
0.423044
0.423056
0.423056
0.423068
0.42308
0.423093
0.423105
0.423105
0.423117
0.42313
0.423142
0.423155
0.423155
0.423167
0.42318
0.423192
0.423205
0.423205
0.423218
0.42323
0.423243
0.423256
0.423256
0.423268
0.423281
0.423294
0.423307
0.423307
0.42332
0.423332
0.423345
0.423358
0.423358
0.423371
0.423384
0.423397
0.42341
0.42341
0.423423
0.423437
0.42345
0.423463
0.423463
0.423476
0.423489
0.423503
0.423516
0.423516
0.423529
0.423543
0.423556
0.423569
0.423569
0.423583
0.423596
0.42361
0.423623
0.423623
0.423637
0.423651
0.423664
0.423678
0.423678
0.423692
0.423705
0.423719
0.423733
0.423733
0.423747
0.42376
0.423774
0.423788
0.423788
0.423802
0.423816
0.42383
0.423844
0.423844
0.423858
0.423872
0.423886
0.4239
0.4239
0.423915
0.423929
0.423943
0.423957
0.423957
0.423972
0.423986
0.424
0.424015
0.424015
0.424029
0.424043
0.424058
0.424072
0.424072
0.424087
0.424102
0.424116
0.424131
0.424131
0.424145
0.42416
0.424175
0.424189
0.424189
0.424204
0.424219
0.424234
0.424249
0.424249
0.424264
0.424279
0.424293
0.424308
0.424308
0.424323
0.424338
0.424354
0.424369
0.424369
0.424384
0.424399
0.424414
0.424429
0.424429
0.424445
0.42446
0.424475
0.42449
0.42449
0.424506
0.424521
0.424537
0.424552
0.424552
0.424568
0.424583
0.424599
0.424614
0.424614
0.42463
0.424645
0.424661
0.424677
0.424677
0.424692
0.424708
0.424724
0.42474
0.42474
0.424756
0.424772
0.424787
0.424803
0.424803
0.424819
0.424835
0.424851
0.424867
0.424867
0.424883
0.4249
0.424916
0.424932
0.424932
0.424948
0.424964
0.424981
0.424997
0.424997
0.425013
0.425029
0.425046
0.425062
0.425062
0.425079
0.425095
0.425112
0.425128
0.425128
0.425145
0.425161
0.425178
0.425195
0.425195
0.425211
0.425228
0.425245
0.425261
0.425261
0.425278
0.425295
0.425312
0.425329
0.425329
0.425346
0.425363
0.42538
0.425397
0.425397
0.425414
0.425431
0.425448
0.425465
0.425465
0.425482
0.425499
0.425517
0.425534
0.425534
0.425551
0.425568
0.425586
0.425603
0.425603
0.42562
0.425638
0.425655
0.425673
0.425673
0.42569
0.425708
0.425725
0.425743
0.425743
0.425761
0.425778
0.425796
0.425814
0.425814
0.425832
0.425849
0.425867
0.425885
0.425885
0.425903
0.425921
0.425939
0.425957
0.425957
0.425975
0.425993
0.426011
0.426029
0.426029
0.426047
0.426065
0.426083
0.426101
0.426101
0.42612
0.426138
0.426156
0.426175
0.426175
0.426193
0.426211
0.42623
0.426248
0.426248
0.426267
0.426285
0.426304
0.426322
0.426322
0.426341
0.426359
0.426378
0.426397
0.426397
0.426415
0.426434
0.426453
0.426472
0.426472
0.426491
0.42651
0.426528
0.426547
0.426547
0.426566
0.426585
0.426604
0.426623
0.426623
0.426642
0.426661
0.426681
0.4267
0.4267
0.426719
0.426738
0.426757
0.426777
0.426777
0.426796
0.426815
0.426835
0.426854
0.426854
0.426874
0.426893
0.426913
0.426932
0.426932
0.426952
0.426971
0.426991
0.42701
0.42701
0.42703
0.42705
0.42707
0.427089
0.427089
0.427109
0.427129
0.427149
0.427169
0.427169
0.427189
0.427209
0.427228
0.427248
0.427248
0.427269
0.427289
0.427309
0.427329
0.427329
0.427349
0.427369
0.427389
0.42741
0.42741
0.42743
0.42745
0.42747
0.427491
0.427491
0.427511
0.427532
0.427552
0.427573
0.427573
0.427593
0.427614
0.427634
0.427655
0.427655
0.427675
0.427696
0.427717
0.427738
0.427738
0.427758
0.427779
0.4278
0.427821
0.427821
0.427842
0.427862
0.427883
0.427904
0.427904
0.427925
0.427946
0.427967
0.427989
0.427989
0.42801
0.428031
0.428052
0.428073
0.428073
0.428094
0.428116
0.428137
0.428158
0.428158
0.42818
0.428201
0.428222
0.428244
0.428244
0.428265
0.428287
0.428308
0.42833
0.42833
0.428352
0.428373
0.428395
0.428417
0.428417
0.428438
0.42846
0.428482
0.428504
0.428504
0.428525
0.428547
0.428569
0.428591
0.428591
0.428613
0.428635
0.428657
0.428679
0.428679
0.428701
0.428723
0.428745
0.428768
0.428768
0.42879
0.428812
0.428834
0.428857
0.428857
0.428879
0.428901
0.428924
0.428946
0.428946
0.428968
0.428991
0.429013
0.429036
0.429036
0.429058
0.429081
0.429104
0.429126
0.429126
0.429149
0.429172
0.429194
0.429217
0.429217
0.42924
0.429263
0.429286
0.429309
0.429309
0.429331
0.429354
0.429377
0.4294
0.4294
0.429423
0.429447
0.42947
0.429493
0.429493
0.429516
0.429539
0.429562
0.429586
0.429586
0.429609
0.429632
0.429655
0.429679
0.429679
0.429702
0.429726
0.429749
0.429773
0.429773
0.429796
0.42982
0.429843
0.429867
0.429867
0.429891
0.429914
0.429938
0.429962
0.429962
0.429985
0.430009
0.430033
0.430057
0.430057
0.430081
0.430105
0.430129
0.430153
0.430153
0.430177
0.430201
0.430225
0.430249
0.430249
0.430273
0.430297
0.430321
0.430345
0.430345
0.43037
0.430394
0.430418
0.430443
0.430443
0.430467
0.430491
0.430516
0.43054
0.43054
0.430565
0.430589
0.430614
0.430638
0.430638
0.430663
0.430688
0.430712
0.430737
0.430737
0.430762
0.430786
0.430811
0.430836
0.430836
0.430861
0.430886
0.430911
0.430936
0.430936
0.430961
0.430986
0.431011
0.431036
0.431036
0.431061
0.431086
0.431111
0.431136
0.431136
0.431161
0.431187
0.431212
0.431237
0.431237
0.431263
0.431288
0.431313
0.431339
0.431339
0.431364
0.43139
0.431415
0.431441
0.431441
0.431466
0.431492
0.431518
0.431543
0.431543
0.431569
0.431595
0.43162
0.431646
0.431646
0.431672
0.431698
0.431724
0.43175
0.43175
0.431776
0.431802
0.431828
0.431854
0.431854
0.43188
0.431906
0.431932
0.431958
0.431958
0.431984
0.43201
0.432037
0.432063
0.432063
0.432089
0.432116
0.432142
0.432168
0.432168
0.432195
0.432221
0.432248
0.432274
0.432274
0.432301
0.432327
0.432354
0.432381
0.432381
0.432407
0.432434
0.432461
0.432487
0.432487
0.432514
0.432541
0.432568
0.432595
0.432595
0.432622
0.432649
0.432675
0.432702
0.432702
0.432729
0.432757
0.432784
0.432811
0.432811
0.432838
0.432865
0.432892
0.43292
0.43292
0.432947
0.432974
0.433001
0.433029
0.433029
0.433056
0.433084
0.433111
0.433139
0.433139
0.433166
0.433194
0.433221
0.433249
0.433249
0.433276
0.433304
0.433332
0.433359
0.433359
0.433387
0.433415
0.433443
0.433471
0.433471
0.433499
0.433526
0.433554
0.433582
0.433582
0.43361
0.433638
0.433666
0.433695
0.433695
0.433723
0.433751
0.433779
0.433807
0.433807
0.433835
0.433864
0.433892
0.43392
0.43392
0.433949
0.433977
0.434006
0.434034
0.434034
0.434062
0.434091
0.43412
0.434148
0.434148
0.434177
0.434205
0.434234
0.434263
0.434263
0.434291
0.43432
0.434349
0.434378
0.434378
0.434407
0.434435
0.434464
0.434493
0.434493
0.434522
0.434551
0.43458
0.434609
0.434609
0.434638
0.434668
0.434697
0.434726
0.434726
0.434755
0.434784
0.434814
0.434843
0.434843
0.434872
0.434902
0.434931
0.434961
0.434961
0.43499
0.435019
0.435049
0.435079
0.435079
0.435108
0.435138
0.435167
0.435197
0.435197
0.435227
0.435256
0.435286
0.435316
0.435316
0.435346
0.435376
0.435406
0.435435
0.435435
0.435465
0.435495
0.435525
0.435555
0.435555
0.435585
0.435616
0.435646
0.435676
0.435676
0.435706
0.435736
0.435767
0.435797
0.435797
0.435827
0.435857
0.435888
0.435918
0.435918
0.435949
0.435979
0.43601
0.43604
0.43604
0.436071
0.436101
0.436132
0.436162
0.436162
0.436193
0.436224
0.436255
0.436285
0.436285
0.436316
0.436347
0.436378
0.436409
0.436409
0.43644
0.436471
0.436502
0.436533
0.436533
0.436564
0.436595
0.436626
0.436657
0.436657
0.436688
0.436719
0.436751
0.436782
0.436782
0.436813
0.436844
0.436876
0.436907
0.436907
0.436939
0.43697
0.437001
0.437033
0.437033
0.437064
0.437096
0.437128
0.437159
0.437159
0.437191
0.437223
0.437254
0.437286
0.437286
0.437318
0.43735
0.437381
0.437413
0.437413
0.437445
0.437477
0.437509
0.437541
0.437541
0.437573
0.437605
0.437637
0.437669
0.437669
0.437701
0.437734
0.437766
0.437798
0.437798
0.43783
0.437863
0.437895
0.437927
0.437927
0.43796
0.437992
0.438025
0.438057
0.438057
0.43809
0.438122
0.438155
0.438187
0.438187
0.43822
0.438253
0.438285
0.438318
0.438318
0.438351
0.438383
0.438416
0.438449
0.438449
0.438482
0.438515
0.438548
0.438581
0.438581
0.438614
0.438647
0.43868
0.438713
0.438713
0.438746
0.438779
0.438812
0.438846
0.438846
0.438879
0.438912
0.438945
0.438979
0.438979
0.439012
0.439046
0.439079
0.439112
0.439112
0.439146
0.439179
0.439213
0.439247
0.439247
0.43928
0.439314
0.439348
0.439381
0.439381
0.439415
0.439449
0.439483
0.439516
0.439516
0.43955
0.439584
0.439618
0.439652
0.439652
0.439686
0.43972
0.439754
0.439788
0.439788
0.439822
0.439856
0.43989
0.439925
0.439925
0.439959
0.439993
0.440027
0.440062
0.440062
0.440096
0.44013
0.440165
0.440199
0.440199
0.440234
0.440268
0.440303
0.440337
0.440337
0.440372
0.440407
0.440441
0.440476
0.440476
0.440511
0.440545
0.44058
0.440615
0.440615
0.44065
0.440685
0.44072
0.440755
0.440755
0.440789
0.440824
0.440859
0.440895
0.440895
0.44093
0.440965
0.441
0.441035
0.441035
0.44107
0.441106
0.441141
0.441176
0.441176
0.441211
0.441247
0.441282
0.441318
0.441318
0.441353
0.441389
0.441424
0.44146
0.44146
0.441495
0.441531
0.441566
0.441602
0.441602
0.441638
0.441674
0.441709
0.441745
0.441745
0.441781
0.441817
0.441853
0.441889
0.441889
0.441925
0.441961
0.441997
0.442033
0.442033
0.442069
0.442105
0.442141
0.442177
0.442177
0.442213
0.442249
0.442286
0.442322
0.442322
0.442358
0.442395
0.442431
0.442467
0.442467
0.442504
0.44254
0.442577
0.442613
0.442613
0.44265
0.442687
0.442723
0.44276
0.44276
0.442797
0.442833
0.44287
0.442907
0.442907
0.442944
0.44298
0.443017
0.443054
0.443054
0.443091
0.443128
0.443165
0.443202
0.443202
0.443239
0.443276
0.443313
0.443351
0.443351
0.443388
0.443425
0.443462
0.4435
0.4435
0.443537
0.443574
0.443612
0.443649
0.443649
0.443686
0.443724
0.443761
0.443799
0.443799
0.443836
0.443874
0.443912
0.443949
0.443949
0.443987
0.444025
0.444062
0.4441
0.4441
0.444138
0.444176
0.444214
0.444252
0.444252
0.444289
0.444327
0.444365
0.444403
0.444403
0.444441
0.44448
0.444518
0.444556
0.444556
0.444594
0.444632
0.44467
0.444709
0.444709
0.444747
0.444785
0.444824
0.444862
0.444862
0.4449
0.444939
0.444977
0.445016
0.445016
0.445054
0.445093
0.445132
0.44517
0.44517
0.445209
0.445248
0.445286
0.445325
0.445325
0.445364
0.445403
0.445442
0.445481
0.445481
0.445519
0.445558
0.445597
0.445636
0.445636
0.445675
0.445715
0.445754
0.445793
0.445793
0.445832
0.445871
0.44591
0.44595
0.44595
0.445989
0.446028
0.446068
0.446107
0.446107
0.446146
0.446186
0.446225
0.446265
0.446265
0.446304
0.446344
0.446384
0.446423
0.446423
0.446463
0.446503
0.446542
0.446582
0.446582
0.446622
0.446662
0.446701
0.446741
0.446741
0.446781
0.446821
0.446861
0.446901
0.446901
0.446941
0.446981
0.447021
0.447062
0.447062
0.447102
0.447142
0.447182
0.447222
0.447222
0.447263
0.447303
0.447343
0.447384
0.447384
0.447424
0.447465
0.447505
0.447546
0.447546
0.447586
0.447627
0.447667
0.447708
0.447708
0.447749
0.447789
0.44783
0.447871
0.447871
0.447911
0.447952
0.447993
0.448034
0.448034
0.448075
0.448116
0.448157
0.448198
0.448198
0.448239
0.44828
0.448321
0.448362
0.448362
0.448403
0.448445
0.448486
0.448527
0.448527
0.448568
0.44861
0.448651
0.448692
0.448692
0.448734
0.448775
0.448817
0.448858
0.448858
0.4489
0.448941
0.448983
0.449024
0.449024
0.449066
0.449108
0.44915
0.449191
0.449191
0.449233
0.449275
0.449317
0.449359
0.449359
0.449401
0.449443
0.449484
0.449526
0.449526
0.449569
0.449611
0.449653
0.449695
0.449695
0.449737
0.449779
0.449821
0.449864
0.449864
0.449906
0.449948
0.449991
0.450033
0.450033
0.450075
0.450118
0.45016
0.450203
0.450203
0.450245
0.450288
0.450331
0.450373
0.450373
0.450416
0.450459
0.450501
0.450544
0.450544
0.450587
0.45063
0.450672
0.450715
0.450715
0.450758
0.450801
0.450844
0.450887
0.450887
0.45093
0.450973
0.451016
0.45106
0.45106
0.451103
0.451146
0.451189
0.451232
0.451232
0.451276
0.451319
0.451362
0.451406
0.451406
0.451449
0.451493
0.451536
0.45158
0.45158
0.451623
0.451667
0.45171
0.451754
0.451754
0.451798
0.451841
0.451885
0.451929
0.451929
0.451973
0.452016
0.45206
0.452104
0.452104
0.452148
0.452192
0.452236
0.45228
0.45228
0.452324
0.452368
0.452412
0.452456
0.452456
0.452501
0.452545
0.452589
0.452633
0.452633
0.452678
0.452722
0.452766
0.452811
0.452811
0.452855
0.4529
0.452944
0.452989
0.452989
0.453033
0.453078
0.453122
0.453167
0.453167
0.453212
0.453256
0.453301
0.453346
0.453346
0.453391
0.453435
0.45348
0.453525
0.453525
0.45357
0.453615
0.45366
0.453705
0.453705
0.45375
0.453795
0.45384
0.453886
0.453886
0.453931
0.453976
0.454021
0.454066
0.454066
0.454112
0.454157
0.454202
0.454248
0.454248
0.454293
0.454339
0.454384
0.45443
0.45443
0.454475
0.454521
0.454567
0.454612
0.454612
0.454658
0.454704
0.454749
0.454795
0.454795
0.454841
0.454887
0.454933
0.454979
0.454979
0.455025
0.45507
0.455116
0.455163
0.455163
0.455209
0.455255
0.455301
0.455347
0.455347
0.455393
0.455439
0.455486
0.455532
0.455532
0.455578
0.455625
0.455671
0.455717
0.455717
0.455764
0.45581
0.455857
0.455903
0.455903
0.45595
0.455997
0.456043
0.45609
0.45609
0.456137
0.456183
0.45623
0.456277
0.456277
0.456324
0.456371
0.456417
0.456464
0.456464
0.456511
0.456558
0.456605
0.456652
0.456652
0.456699
0.456747
0.456794
0.456841
0.456841
0.456888
0.456935
0.456983
0.45703
0.45703
0.457077
0.457125
0.457172
0.457219
0.457219
0.457267
0.457314
0.457362
0.45741
0.45741
0.457457
0.457505
0.457552
0.4576
0.4576
0.457648
0.457696
0.457743
0.457791
0.457791
0.457839
0.457887
0.457935
0.457983
0.457983
0.458031
0.458079
0.458127
0.458175
0.458175
0.458223
0.458271
0.458319
0.458367
0.458367
0.458416
0.458464
0.458512
0.45856
0.45856
0.458609
0.458657
0.458706
0.458754
0.458754
0.458803
0.458851
0.4589
0.458948
0.458948
0.458997
0.459045
0.459094
0.459143
0.459143
0.459192
0.45924
0.459289
0.459338
0.459338
0.459387
0.459436
0.459485
0.459534
0.459534
0.459583
0.459632
0.459681
0.45973
0.45973
0.459779
0.459828
0.459877
0.459926
0.459926
0.459976
0.460025
0.460074
0.460124
0.460124
0.460173
0.460222
0.460272
0.460321
0.460321
0.460371
0.46042
0.46047
0.46052
0.46052
0.460569
0.460619
0.460669
0.460718
0.460718
0.460768
0.460818
0.460868
0.460918
0.460918
0.460967
0.461017
0.461067
0.461117
0.461117
0.461167
0.461217
0.461267
0.461318
0.461318
0.461368
0.461418
0.461468
0.461518
0.461518
0.461569
0.461619
0.461669
0.46172
0.46172
0.46177
0.461821
0.461871
0.461922
0.461922
0.461972
0.462023
0.462073
0.462124
0.462124
0.462174
0.462225
0.462276
0.462327
0.462327
0.462377
0.462428
0.462479
0.46253
0.46253
0.462581
0.462632
0.462683
0.462734
0.462734
0.462785
0.462836
0.462887
0.462938
0.462938
0.462989
0.463041
0.463092
0.463143
0.463143
0.463194
0.463246
0.463297
0.463349
0.463349
0.4634
0.463452
0.463503
0.463555
0.463555
0.463606
0.463658
0.463709
0.463761
0.463761
0.463813
0.463864
0.463916
0.463968
0.463968
0.46402
0.464072
0.464124
0.464175
0.464175
0.464227
0.464279
0.464331
0.464383
0.464383
0.464436
0.464488
0.46454
0.464592
0.464592
0.464644
0.464696
0.464749
0.464801
0.464801
0.464853
0.464906
0.464958
0.465011
0.465011
0.465063
0.465115
0.465168
0.465221
0.465221
0.465273
0.465326
0.465378
0.465431
0.465431
0.465484
0.465537
0.465589
0.465642
0.465642
0.465695
0.465748
0.465801
0.465854
0.465854
0.465907
0.46596
0.466013
0.466066
0.466066
0.466119
0.466172
0.466225
0.466279
0.466279
0.466332
0.466385
0.466439
0.466492
0.466492
0.466545
0.466599
0.466652
0.466706
0.466706
0.466759
0.466813
0.466866
0.46692
0.46692
0.466973
0.467027
0.467081
0.467135
0.467135
0.467188
0.467242
0.467296
0.46735
0.46735
0.467404
0.467458
0.467512
0.467566
0.467566
0.46762
0.467674
0.467728
0.467782
0.467782
0.467836
0.46789
0.467944
0.467999
0.467999
0.468053
0.468107
0.468162
0.468216
0.468216
0.46827
0.468325
0.468379
0.468434
0.468434
0.468488
0.468543
0.468598
0.468652
0.468652
0.468707
0.468762
0.468816
0.468871
0.468871
0.468926
0.468981
0.469036
0.469091
0.469091
0.469146
0.469201
0.469256
0.469311
0.469311
0.469366
0.469421
0.469476
0.469531
0.469531
0.469586
0.469642
0.469697
0.469752
0.469752
0.469807
0.469863
0.469918
0.469974
0.469974
0.470029
0.470085
0.47014
0.470196
0.470196
0.470251
0.470307
0.470363
0.470418
0.470418
0.470474
0.47053
0.470585
0.470641
0.470641
0.470697
0.470753
0.470809
0.470865
0.470865
0.470921
0.470977
0.471033
0.471089
0.471089
0.471145
0.471201
0.471258
0.471314
0.471314
0.47137
0.471426
0.471483
0.471539
0.471539
0.471595
0.471652
0.471708
0.471765
0.471765
0.471821
0.471878
0.471934
0.471991
0.471991
0.472048
0.472104
0.472161
0.472218
0.472218
0.472274
0.472331
0.472388
0.472445
0.472445
0.472502
0.472559
0.472616
0.472673
0.472673
0.47273
0.472787
0.472844
0.472901
0.472901
0.472958
0.473016
0.473073
0.47313
0.47313
0.473187
0.473245
0.473302
0.473359
0.473359
0.473417
0.473474
0.473532
0.473589
0.473589
0.473647
0.473705
0.473762
0.47382
0.47382
0.473878
0.473935
0.473993
0.474051
0.474051
0.474109
0.474167
0.474224
0.474282
0.474282
0.47434
0.474398
0.474456
0.474514
0.474514
0.474572
0.474631
0.474689
0.474747
0.474747
0.474805
0.474863
0.474922
0.47498
0.47498
0.475038
0.475097
0.475155
0.475214
0.475214
0.475272
0.475331
0.475389
0.475448
0.475448
0.475507
0.475565
0.475624
0.475683
0.475683
0.475741
0.4758
0.475859
0.475918
0.475918
0.475977
0.476036
0.476095
0.476154
0.476154
0.476213
0.476272
0.476331
0.47639
0.47639
0.476449
0.476508
0.476567
0.476627
0.476627
0.476686
0.476745
0.476805
0.476864
0.476864
0.476923
0.476983
0.477042
0.477102
0.477102
0.477161
0.477221
0.477281
0.47734
0.47734
0.4774
0.47746
0.47752
0.477579
0.477579
0.477639
0.477699
0.477759
0.477819
0.477819
0.477879
0.477939
0.477999
0.478059
0.478059
0.478119
0.478179
0.478239
0.478299
0.478299
0.47836
0.47842
0.47848
0.47854
0.47854
0.478601
0.478661
0.478722
0.478782
0.478782
0.478843
0.478903
0.478964
0.479024
0.479024
0.479085
0.479146
0.479206
0.479267
0.479267
0.479328
0.479388
0.479449
0.47951
0.47951
0.479571
0.479632
0.479693
0.479754
0.479754
0.479815
0.479876
0.479937
0.479998
0.479998
0.480059
0.480121
0.480182
0.480243
0.480243
0.480304
0.480366
0.480427
0.480488
0.480488
0.48055
0.480611
0.480673
0.480734
0.480734
0.480796
0.480857
0.480919
0.480981
0.480981
0.481042
0.481104
0.481166
0.481228
0.481228
0.48129
0.481351
0.481413
0.481475
0.481475
0.481537
0.481599
0.481661
0.481723
0.481723
0.481785
0.481848
0.48191
0.481972
0.481972
0.482034
0.482096
0.482159
0.482221
0.482221
0.482283
0.482346
0.482408
0.482471
0.482471
0.482533
0.482596
0.482658
0.482721
0.482721
0.482784
0.482846
0.482909
0.482972
0.482972
0.483034
0.483097
0.48316
0.483223
0.483223
0.483286
0.483349
0.483412
0.483475
0.483475
0.483538
0.483601
0.483664
0.483727
0.483727
0.48379
0.483854
0.483917
0.48398
0.48398
0.484043
0.484107
0.48417
0.484234
0.484234
0.484297
0.48436
0.484424
0.484488
0.484488
0.484551
0.484615
0.484678
0.484742
0.484742
0.484806
0.48487
0.484933
0.484997
0.484997
0.485061
0.485125
0.485189
0.485253
0.485253
0.485317
0.485381
0.485445
0.485509
0.485509
0.485573
0.485637
0.485701
0.485766
0.485766
0.48583
0.485894
0.485959
0.486023
0.486023
0.486087
0.486152
0.486216
0.486281
0.486281
0.486345
0.48641
0.486474
0.486539
0.486539
0.486604
0.486668
0.486733
0.486798
0.486798
0.486863
0.486928
0.486992
0.487057
0.487057
0.487122
0.487187
0.487252
0.487317
0.487317
0.487382
0.487448
0.487513
0.487578
0.487578
0.487643
0.487708
0.487774
0.487839
0.487839
0.487904
0.48797
0.488035
0.488101
0.488101
0.488166
0.488232
0.488297
0.488363
0.488363
0.488428
0.488494
0.48856
0.488625
0.488625
0.488691
0.488757
0.488823
0.488889
0.488889
0.488955
0.489021
0.489087
0.489153
0.489153
0.489219
0.489285
0.489351
0.489417
0.489417
0.489483
0.489549
0.489616
0.489682
0.489682
0.489748
0.489814
0.489881
0.489947
0.489947
0.490014
0.49008
0.490147
0.490213
0.490213
0.49028
0.490346
0.490413
0.49048
0.49048
0.490547
0.490613
0.49068
0.490747
0.490747
0.490814
0.490881
0.490948
0.491015
0.491015
0.491082
0.491149
0.491216
0.491283
0.491283
0.49135
0.491417
0.491484
0.491552
0.491552
0.491619
0.491686
0.491753
0.491821
0.491821
0.491888
0.491956
0.492023
0.492091
0.492091
0.492158
0.492226
0.492293
0.492361
0.492361
0.492429
0.492497
0.492564
0.492632
0.492632
0.4927
0.492768
0.492836
0.492904
0.492904
0.492972
0.49304
0.493108
0.493176
0.493176
0.493244
0.493312
0.49338
0.493448
0.493448
0.493517
0.493585
0.493653
0.493721
0.493721
0.49379
0.493858
0.493927
0.493995
0.493995
0.494064
0.494132
0.494201
0.49427
0.49427
0.494338
0.494407
0.494476
0.494544
0.494544
0.494613
0.494682
0.494751
0.49482
0.49482
0.494889
0.494958
0.495027
0.495096
0.495096
0.495165
0.495234
0.495303
0.495372
0.495372
0.495441
0.495511
0.49558
0.495649
0.495649
0.495719
0.495788
0.495857
0.495927
0.495927
0.495996
0.496066
0.496136
0.496205
0.496205
0.496275
0.496344
0.496414
0.496484
0.496484
0.496554
0.496623
0.496693
0.496763
0.496763
0.496833
0.496903
0.496973
0.497043
0.497043
0.497113
0.497183
0.497253
0.497323
0.497323
0.497394
0.497464
0.497534
0.497604
0.497604
0.497675
0.497745
0.497816
0.497886
0.497886
0.497956
0.498027
0.498098
0.498168
0.498168
0.498239
0.498309
0.49838
0.498451
0.498451
0.498521
0.498592
0.498663
0.498734
0.498734
0.498805
0.498876
0.498947
0.499018
0.499018
0.499089
0.49916
0.499231
0.499302
0.499302
0.499373
0.499444
0.499516
0.499587
0.499587
0.499658
0.49973
0.499801
0.499872
0.499872
0.499944
0.500015
0.500087
0.500159
0.500159
0.50023
0.500302
0.500373
0.500445
0.500445
0.500517
0.500589
0.50066
0.500732
0.500732
0.500804
0.500876
0.500948
0.50102
0.50102
0.501092
0.501164
0.501236
0.501308
0.501308
0.501381
0.501453
0.501525
0.501597
0.501597
0.50167
0.501742
0.501814
0.501887
0.501887
0.501959
0.502032
0.502104
0.502177
0.502177
0.502249
0.502322
0.502394
0.502467
0.502467
0.50254
0.502613
0.502685
0.502758
0.502758
0.502831
0.502904
0.502977
0.50305
0.50305
0.503123
0.503196
0.503269
0.503342
0.503342
0.503415
0.503489
0.503562
0.503635
0.503635
0.503708
0.503782
0.503855
0.503929
0.503929
0.504002
0.504075
0.504149
0.504222
0.504222
0.504296
0.50437
0.504443
0.504517
0.504517
0.504591
0.504665
0.504738
0.504812
0.504812
0.504886
0.50496
0.505034
0.505108
0.505108
0.505182
0.505256
0.50533
0.505404
0.505404
0.505478
0.505552
0.505627
0.505701
0.505701
0.505775
0.50585
0.505924
0.505998
0.505998
0.506073
0.506147
0.506222
0.506296
0.506296
0.506371
0.506446
0.50652
0.506595
0.506595
0.50667
0.506744
0.506819
0.506894
0.506894
0.506969
0.507044
0.507119
0.507194
0.507194
0.507269
0.507344
0.507419
0.507494
0.507494
0.507569
0.507644
0.50772
0.507795
0.507795
0.50787
0.507945
0.508021
0.508096
0.508096
0.508172
0.508247
0.508323
0.508398
0.508398
0.508474
0.508549
0.508625
0.508701
0.508701
0.508776
0.508852
0.508928
0.509004
0.509004
0.50908
0.509156
0.509232
0.509308
0.509308
0.509384
0.50946
0.509536
0.509612
0.509612
0.509688
0.509764
0.509841
0.509917
0.509917
0.509993
0.510069
0.510146
0.510222
0.510222
0.510299
0.510375
0.510452
0.510528
0.510528
0.510605
0.510682
0.510758
0.510835
0.510835
0.510912
0.510988
0.511065
0.511142
0.511142
0.511219
0.511296
0.511373
0.51145
0.51145
0.511527
0.511604
0.511681
0.511758
0.511758
0.511835
0.511913
0.51199
0.512067
0.512067
0.512145
0.512222
0.512299
0.512377
0.512377
0.512454
0.512532
0.512609
0.512687
0.512687
0.512764
0.512842
0.51292
0.512998
0.512998
0.513075
0.513153
0.513231
0.513309
0.513309
0.513387
0.513465
0.513543
0.513621
0.513621
0.513699
0.513777
0.513855
0.513933
0.513933
0.514011
0.51409
0.514168
0.514246
0.514246
0.514324
0.514403
0.514481
0.51456
0.51456
0.514638
0.514717
0.514795
0.514874
0.514874
0.514953
0.515031
0.51511
0.515189
0.515189
0.515268
0.515346
0.515425
0.515504
0.515504
0.515583
0.515662
0.515741
0.51582
0.51582
0.515899
0.515978
0.516057
0.516137
0.516137
0.516216
0.516295
0.516374
0.516454
0.516454
0.516533
0.516613
0.516692
0.516771
0.516771
0.516851
0.516931
0.51701
0.51709
0.51709
0.517169
0.517249
0.517329
0.517409
0.517409
0.517488
0.517568
0.517648
0.517728
0.517728
0.517808
0.517888
0.517968
0.518048
0.518048
0.518128
0.518209
0.518289
0.518369
0.518369
0.518449
0.518529
0.51861
0.51869
0.51869
0.518771
0.518851
0.518932
0.519012
0.519012
0.519093
0.519173
0.519254
0.519334
0.519334
0.519415
0.519496
0.519577
0.519658
0.519658
0.519738
0.519819
0.5199
0.519981
0.519981
0.520062
0.520143
0.520224
0.520305
0.520305
0.520387
0.520468
0.520549
0.52063
0.52063
0.520712
0.520793
0.520874
0.520956
0.520956
0.521037
0.521119
0.5212
0.521282
0.521282
0.521363
0.521445
0.521527
0.521608
0.521608
0.52169
0.521772
0.521854
0.521936
0.521936
0.522017
0.522099
0.522181
0.522263
0.522263
0.522345
0.522427
0.52251
0.522592
0.522592
0.522674
0.522756
0.522838
0.522921
0.522921
0.523003
0.523086
0.523168
0.52325
0.52325
0.523333
0.523415
0.523498
0.523581
0.523581
0.523663
0.523746
0.523829
0.523911
0.523911
0.523994
0.524077
0.52416
0.524243
0.524243
0.524326
0.524409
0.524492
0.524575
0.524575
0.524658
0.524741
0.524824
0.524907
0.524907
0.524991
0.525074
0.525157
0.525241
0.525241
0.525324
0.525408
0.525491
0.525575
0.525575
0.525658
0.525742
0.525825
0.525909
0.525909
0.525993
0.526076
0.52616
0.526244
0.526244
0.526328
0.526412
0.526496
0.52658
0.52658
0.526664
0.526748
0.526832
0.526916
0.526916
0.527
0.527084
0.527168
0.527253
0.527253
0.527337
0.527421
0.527506
0.52759
0.52759
0.527675
0.527759
0.527844
0.527928
0.527928
0.528013
0.528097
0.528182
0.528267
0.528267
0.528352
0.528436
0.528521
0.528606
0.528606
0.528691
0.528776
0.528861
0.528946
0.528946
0.529031
0.529116
0.529201
0.529287
0.529287
0.529372
0.529457
0.529542
0.529628
0.529628
0.529713
0.529798
0.529884
0.529969
0.529969
0.530055
0.53014
0.530226
0.530312
0.530312
0.530397
0.530483
0.530569
0.530655