<?xml version="1.0"?>
<VTKFile type="UnstructuredGrid" version="0.1" byte_order="LittleEndian">
<UnstructuredGrid>
<Piece NumberOfPoints="5000" NumberOfCells="4000">
<PointData Scalars="Reaction 0">
<DataArray type="Float32" Name="Reaction 0" format="ascii">
0.590597
0.590597
0.590597
0.590597
0.590597
0.590597
0.590597
0.590597
0.590597
0.590597
0.590597
0.590597
0.590597
0.590597
0.590598
0.590598
0.590598
0.590598
0.590598
0.590598
0.590598
0.590598
0.590598
0.590598
0.590598
0.590598
0.590598
0.590598
0.590598
0.590598
0.590598
0.590598
0.590598
0.590598
0.590599
0.590599
0.590599
0.590599
0.590599
0.590599
0.590599
0.590599
0.590599
0.590599
0.590599
0.590599
0.5906
0.5906
0.5906
0.5906
0.5906
0.5906
0.5906
0.5906
0.5906
0.5906
0.590601
0.590601
0.590601
0.590601
0.590601
0.590601
0.590601
0.590602
0.590602
0.590602
0.590602
0.590602
0.590602
0.590602
0.590602
0.590603
0.590603
0.590603
0.590603
0.590603
0.590603
0.590604
0.590604
0.590604
0.590604
0.590604
0.590605
0.590605
0.590605
0.590605
0.590605
0.590605
0.590606
0.590606
0.590606
0.590606
0.590606
0.590607
0.590607
0.590607
0.590607
0.590607
0.590608
0.590608
0.590608
0.590608
0.590608
0.590609
0.590609
0.590609
0.590609
0.59061
0.59061
0.59061
0.59061
0.59061
0.590611
0.590611
0.590611
0.590611
0.590612
0.590612
0.590612
0.590613
0.590613
0.590613
0.590613
0.590614
0.590614
0.590614
0.590614
0.590615
0.590615
0.590615
0.590615
0.590616
0.590616
0.590616
0.590617
0.590617
0.590617
0.590617
0.590618
0.590618
0.590618
0.590618
0.590619
0.590619
0.59062
0.59062
0.59062
0.59062
0.590621
0.590621
0.590621
0.590622
0.590622
0.590622
0.590623
0.590623
0.590623
0.590624
0.590624
0.590625
0.590625
0.590625
0.590625
0.590626
0.590626
0.590626
0.590627
0.590627
0.590628
0.590628
0.590628
0.590628
0.590629
0.590629
0.59063
0.59063
0.59063
0.590631
0.590631
0.590632
0.590632
0.590632
0.590633
0.590633
0.590634
0.590634
0.590634
0.590635
0.590635
0.590636
0.590636
0.590636
0.590637
0.590637
0.590638
0.590638
0.590638
0.590639
0.590639
0.59064
0.59064
0.59064
0.590641
0.590641
0.590642
0.590642
0.590643
0.590643
0.590644
0.590644
0.590644
0.590645
0.590645
0.590646
0.590646
0.590646
0.590647
0.590648
0.590648
0.590649
0.590649
0.590649
0.59065
0.590651
0.590651
0.590651
0.590652
0.590652
0.590653
0.590654
0.590654
0.590654
0.590655
0.590655
0.590656
0.590656
0.590657
0.590657
0.590658
0.590659
0.590659
0.590659
0.59066
0.590661
0.590661
0.590661
0.590662
0.590663
0.590663
0.590664
0.590664
0.590664
0.590665
0.590666
0.590667
0.590667
0.590667
0.590668
0.590669
0.590669
0.590669
0.59067
0.590671
0.590671
0.590672
0.590672
0.590673
0.590673
0.590674
0.590675
0.590675
0.590676
0.590676
0.590677
0.590678
0.590678
0.590679
0.590679
0.59068
0.590681
0.590681
0.590682
0.590682
0.590683
0.590684
0.590684
0.590685
0.590685
0.590686
0.590687
0.590687
0.590688
0.590688
0.590689
0.59069
0.59069
0.590691
0.590692
0.590692
0.590693
0.590693
0.590694
0.590695
0.590696
0.590696
0.590696
0.590697
0.590698
0.590699
0.5907
0.5907
0.5907
0.590701
0.590702
0.590703
0.590703
0.590704
0.590705
0.590706
0.590706
0.590706
0.590707
0.590708
0.590709
0.59071
0.59071
0.590711
0.590712
0.590712
0.590713
0.590713
0.590714
0.590715
0.590716
0.590717
0.590717
0.590718
0.590719
0.59072
0.590721
0.590721
0.590721
0.590722
0.590723
0.590724
0.590724
0.590725
0.590726
0.590727
0.590728
0.590728
0.590729
0.59073
0.590731
0.590732
0.590732
0.590733
0.590734
0.590735
0.590735
0.590735
0.590736
0.590737
0.590738
0.590739
0.590739
0.59074
0.590741
0.590742
0.590743
0.590743
0.590744
0.590745
0.590746
0.590747
0.590747
0.590748
0.590749
0.59075
0.590751
0.590751
0.590752
0.590753
0.590754
0.590755
0.590755
0.590756
0.590757
0.590759
0.59076
0.59076
0.590761
0.590762
0.590763
0.590764
0.590764
0.590765
0.590766
0.590767
0.590768
0.590768
0.590769
0.59077
0.590771
0.590772
0.590772
0.590773
0.590775
0.590776
0.590777
0.590777
0.590778
0.590779
0.59078
0.590781
0.590781
0.590782
0.590783
0.590784
0.590786
0.590786
0.590787
0.590788
0.590789
0.59079
0.59079
0.590791
0.590792
0.590794
0.590795
0.590795
0.590796
0.590797
0.590798
0.590799
0.590799
0.590801
0.590802
0.590803
0.590804
0.590804
0.590805
0.590806
0.590808
0.590809
0.590809
0.59081
0.590811
0.590812
0.590814
0.590814
0.590815
0.590816
0.590817
0.590818
0.590818
0.59082
0.590821
0.590822
0.590823
0.590823
0.590825
0.590826
0.590827
0.590828
0.590828
0.59083
0.590831
0.590832
0.590833
0.590833
0.590835
0.590836
0.590837
0.590838
0.590838
0.59084
0.590841
0.590842
0.590844
0.590844
0.590845
0.590846
0.590847
0.590849
0.590849
0.59085
0.590851
0.590853
0.590854
0.590854
0.590855
0.590857
0.590858
0.590859
0.590859
0.590861
0.590862
0.590863
0.590865
0.590865
0.590866
0.590867
0.590869
0.59087
0.59087
0.590871
0.590873
0.590874
0.590875
0.590875
0.590877
0.590878
0.59088
0.590881
0.590881
0.590882
0.590884
0.590885
0.590887
0.590887
0.590888
0.590889
0.590891
0.590892
0.590892
0.590894
0.590895
0.590896
0.590898
0.590898
0.590899
0.590901
0.590902
0.590904
0.590904
0.590905
0.590906
0.590908
0.590909
0.590909
0.590911
0.590912
0.590914
0.590915
0.590915
0.590917
0.590918
0.59092
0.590921
0.590921
0.590923
0.590924
0.590926
0.590927
0.590927
0.590928
0.59093
0.590931
0.590933
0.590933
0.590934
0.590936
0.590938
0.590939
0.590939
0.590941
0.590942
0.590944
0.590945
0.590945
0.590947
0.590948
0.59095
0.590951
0.590951
0.590953
0.590955
0.590956
0.590958
0.590958
0.590959
0.590961
0.590962
0.590964
0.590964
0.590966
0.590967
0.590969
0.59097
0.59097
0.590972
0.590974
0.590975
0.590977
0.590977
0.590978
0.59098
0.590982
0.590983
0.590983
0.590985
0.590986
0.590988
0.59099
0.59099
0.590991
0.590993
0.590995
0.590996
0.590996
0.590998
0.591
0.591001
0.591003
0.591003
0.591005
0.591006
0.591008
0.59101
0.59101
0.591011
0.591013
0.591015
0.591016
0.591016
0.591018
0.59102
0.591021
0.591023
0.591023
0.591025
0.591027
0.591028
0.59103
0.59103
0.591032
0.591033
0.591035
0.591037
0.591037
0.591039
0.59104
0.591042
0.591044
0.591044
0.591046
0.591047
0.591049
0.591051
0.591051
0.591053
0.591054
0.591056
0.591058
0.591058
0.59106
0.591061
0.591063
0.591065
0.591065
0.591067
0.591069
0.59107
0.591072
0.591072
0.591074
0.591076
0.591078
0.591079
0.591079
0.591081
0.591083
0.591085
0.591087
0.591087
0.591089
0.59109
0.591092
0.591094
0.591094
0.591096
0.591098
0.5911
0.591102
0.591102
0.591103
0.591105
0.591107
0.591109
0.591109
0.591111
0.591113
0.591115
0.591117
0.591117
0.591118
0.59112
0.591122
0.591124
0.591124
0.591126
0.591128
0.59113
0.591132
0.591132
0.591134
0.591136
0.591137
0.591139
0.591139
0.591141
0.591143
0.591145
0.591147
0.591147
0.591149
0.591151
0.591153
0.591155
0.591155
0.591157
0.591159
0.591161
0.591163
0.591163
0.591165
0.591167
0.591169
0.591171
0.591171
0.591173
0.591175
0.591177
0.591179
0.591179
0.591181
0.591183
0.591185
0.591187
0.591187
0.591189
0.591191
0.591193
0.591195
0.591195
0.591197
0.591199
0.591201
0.591203
0.591203
0.591205
0.591207
0.591209
0.591211
0.591211
0.591213
0.591215
0.591217
0.591219
0.591219
0.591222
0.591224
0.591226
0.591228
0.591228
0.59123
0.591232
0.591234
0.591236
0.591236
0.591238
0.59124
0.591243
0.591245
0.591245
0.591247
0.591249
0.591251
0.591253
0.591253
0.591255
0.591257
0.59126
0.591262
0.591262
0.591264
0.591266
0.591268
0.59127
0.59127
0.591273
0.591275
0.591277
0.591279
0.591279
0.591281
0.591283
0.591286
0.591288
0.591288
0.59129
0.591292
0.591294
0.591297
0.591297
0.591299
0.591301
0.591303
0.591305
0.591305
0.591308
0.59131
0.591312
0.591314
0.591314
0.591317
0.591319
0.591321
0.591323
0.591323
0.591325
0.591328
0.59133
0.591332
0.591332
0.591335
0.591337
0.591339
0.591341
0.591341
0.591344
0.591346
0.591348
0.59135
0.59135
0.591353
0.591355
0.591357
0.59136
0.59136
0.591362
0.591364
0.591367
0.591369
0.591369
0.591371
0.591374
0.591376
0.591378
0.591378
0.591381
0.591383
0.591385
0.591388
0.591388
0.59139
0.591392
0.591395
0.591397
0.591397
0.591399
0.591402
0.591404
0.591406
0.591406
0.591409
0.591411
0.591414
0.591416
0.591416
0.591418
0.591421
0.591423
0.591425
0.591425
0.591428
0.59143
0.591433
0.591435
0.591435
0.591438
0.59144
0.591442
0.591445
0.591445
0.591447
0.59145
0.591452
0.591455
0.591455
0.591457
0.59146
0.591462
0.591465
0.591465
0.591467
0.591469
0.591472
0.591474
0.591474
0.591477
0.591479
0.591482
0.591484
0.591484
0.591487
0.591489
0.591492
0.591494
0.591494
0.591497
0.591499
0.591502
0.591505
0.591505
0.591507
0.59151
0.591512
0.591515
0.591515
0.591517
0.59152
0.591522
0.591525
0.591525
0.591527
0.59153
0.591533
0.591535
0.591535
0.591538
0.59154
0.591543
0.591545
0.591545
0.591548
0.591551
0.591553
0.591556
0.591556
0.591558
0.591561
0.591564
0.591566
0.591566
0.591569
0.591571
0.591574
0.591577
0.591577
0.591579
0.591582
0.591585
0.591587
0.591587
0.59159
0.591593
0.591595
0.591598
0.591598
0.591601
0.591603
0.591606
0.591609
0.591609
0.591611
0.591614
0.591617
0.591619
0.591619
0.591622
0.591625
0.591627
0.59163
0.59163
0.591633
0.591635
0.591638
0.591641
0.591641
0.591644
0.591646
0.591649
0.591652
0.591652
0.591655
0.591657
0.59166
0.591663
0.591663
0.591665
0.591668
0.591671
0.591674
0.591674
0.591676
0.591679
0.591682
0.591685
0.591685
0.591688
0.59169
0.591693
0.591696
0.591696
0.591699
0.591701
0.591704
0.591707
0.591707
0.59171
0.591713
0.591716
0.591718
0.591718
0.591721
0.591724
0.591727
0.59173
0.59173
0.591733
0.591736
0.591738
0.591741
0.591741
0.591744
0.591747
0.59175
0.591753
0.591753
0.591756
0.591758
0.591761
0.591764
0.591764
0.591767
0.59177
0.591773
0.591776
0.591776
0.591779
0.591782
0.591785
0.591788
0.591788
0.59179
0.591793
0.591796
0.591799
0.591799
0.591802
0.591805
0.591808
0.591811
0.591811
0.591814
0.591817
0.59182
0.591823
0.591823
0.591826
0.591829
0.591832
0.591835
0.591835
0.591838
0.591841
0.591844
0.591847
0.591847
0.59185
0.591853
0.591856
0.591859
0.591859
0.591862
0.591865
0.591868
0.591871
0.591871
0.591874
0.591877
0.59188
0.591883
0.591883
0.591886
0.591889
0.591892
0.591895
0.591895
0.591898
0.591901
0.591904
0.591907
0.591907
0.59191
0.591913
0.591916
0.59192
0.59192
0.591923
0.591926
0.591929
0.591932
0.591932
0.591935
0.591938
0.591941
0.591944
0.591944
0.591947
0.591951
0.591954
0.591957
0.591957
0.59196
0.591963
0.591966
0.591969
0.591969
0.591972
0.591976
0.591979
0.591982
0.591982
0.591985
0.591988
0.591992
0.591995
0.591995
0.591998
0.592001
0.592004
0.592008
0.592008
0.592011
0.592014
0.592017
0.59202
0.59202
0.592024
0.592027
0.59203
0.592033
0.592033
0.592037
0.59204
0.592043
0.592046
0.592046
0.59205
0.592053
0.592056
0.592059
0.592059
0.592063
0.592066
0.592069
0.592072
0.592072
0.592076
0.592079
0.592082
0.592086
0.592086
0.592089
0.592092
0.592095
0.592099
0.592099
0.592102
0.592105
0.592109
0.592112
0.592112
0.592115
0.592119
0.592122
0.592125
0.592125
0.592129
0.592132
0.592135
0.592139
0.592139
0.592142
0.592145
0.592149
0.592152
0.592152
0.592156
0.592159
0.592162
0.592166
0.592166
0.592169
0.592172
0.592176
0.592179
0.592179
0.592183
0.592186
0.592189
0.592193
0.592193
0.592196
0.5922
0.592203
0.592206
0.592206
0.59221
0.592213
0.592217
0.59222
0.59222
0.592224
0.592227
0.592231
0.592234
0.592234
0.592237
0.592241
0.592244
0.592248
0.592248
0.592251
0.592255
0.592258
0.592262
0.592262
0.592265
0.592269
0.592272
0.592276
0.592276
0.59228
0.592283
0.592287
0.59229
0.59229
0.592294
0.592297
0.592301
0.592304
0.592304
0.592308
0.592311
0.592315
0.592319
0.592319
0.592322
0.592326
0.592329
0.592333
0.592333
0.592336
0.59234
0.592344
0.592347
0.592347
0.592351
0.592354
0.592358
0.592362
0.592362
0.592365
0.592369
0.592373
0.592376
0.592376
0.59238
0.592383
0.592387
0.592391
0.592391
0.592394
0.592398
0.592402
0.592405
0.592405
0.592409
0.592413
0.592416
0.59242
0.59242
0.592424
0.592427
0.592431
0.592435
0.592435
0.592438
0.592442
0.592446
0.59245
0.59245
0.592453
0.592457
0.592461
0.592464
0.592464
0.592468
0.592472
0.592476
0.592479
0.592479
0.592483
0.592487
0.592491
0.592494
0.592494
0.592498
0.592502
0.592506
0.592509
0.592509
0.592513
0.592517
0.592521
0.592524
0.592524
0.592528
0.592532
0.592536
0.59254
0.59254
0.592544
0.592547
0.592551
0.592555
0.592555
0.592559
0.592563
0.592567
0.59257
0.59257
0.592574
0.592578
0.592582
0.592586
0.592586
0.59259
0.592594
0.592598
0.592601
0.592601
0.592605
0.592609
0.592613
0.592617
0.592617
0.592621
0.592625
0.592629
0.592633
0.592633
0.592636
0.59264
0.592644
0.592648
0.592648
0.592652
0.592656
0.59266
0.592664
0.592664
0.592668
0.592672
0.592676
0.59268
0.59268
0.592684
0.592688
0.592692
0.592696
0.592696
0.5927
0.592704
0.592708
0.592712
0.592712
0.592716
0.59272
0.592724
0.592728
0.592728
0.592732
0.592736
0.59274
0.592744
0.592744
0.592748
0.592752
0.592756
0.59276
0.59276
0.592764
0.592768
0.592772
0.592776
0.592776
0.59278
0.592784
0.592788
0.592792
0.592792
0.592796
0.5928
0.592804
0.592809
0.592809
0.592813
0.592817
0.592821
0.592825
0.592825
0.592829
0.592833
0.592837
0.592842
0.592842
0.592846
0.59285
0.592854
0.592858
0.592858
0.592862
0.592867
0.592871
0.592875
0.592875
0.592879
0.592883
0.592887
0.592892
0.592892
0.592896
0.5929
0.592904
0.592908
0.592908
0.592913
0.592917
0.592921
0.592925
0.592925
0.59293
0.592934
0.592938
0.592942
0.592942
0.592946
0.592951
0.592955
0.592959
0.592959
0.592963
0.592968
0.592972
0.592976
0.592976
0.592981
0.592985
0.592989
0.592993
0.592993
0.592998
0.593002
0.593006
0.593011
0.593011
0.593015
0.593019
0.593023
0.593028
0.593028
0.593032
0.593036
0.593041
0.593045
0.593045
0.593049
0.593054
0.593058
0.593062
0.593062
0.593067
0.593071
0.593075
0.59308
0.59308
0.593084
0.593089
0.593093
0.593097
0.593097
0.593102
0.593106
0.593111
0.593115
0.593115
0.593119
0.593124
0.593128
0.593133
0.593133
0.593137
0.593142
0.593146
0.593151
0.593151
0.593155
0.593159
0.593164
0.593168
0.593168
0.593173
0.593177
0.593182
0.593186
0.593186
0.593191
0.593195
0.5932
0.593204
0.593204
0.593209
0.593213
0.593218
0.593222
0.593222
0.593227
0.593231
0.593236
0.59324
0.59324
0.593245
0.59325
0.593254
0.593259
0.593259
0.593263
0.593268
0.593272
0.593277
0.593277
0.593281
0.593286
0.593291
0.593295
0.593295
0.5933
0.593304
0.593309
0.593314
0.593314
0.593318
0.593323
0.593327
0.593332
0.593332
0.593337
0.593341
0.593346
0.59335
0.59335
0.593355
0.59336
0.593364
0.593369
0.593369
0.593374
0.593378
0.593383
0.593388
0.593388
0.593392
0.593397
0.593402
0.593407
0.593407
0.593411
0.593416
0.593421
0.593425
0.593425
0.59343
0.593435
0.59344
0.593444
0.593444
0.593449
0.593454
0.593459
0.593463
0.593463
0.593468
0.593473
0.593478
0.593482
0.593482
0.593487
0.593492
0.593497
0.593502
0.593502
0.593506
0.593511
0.593516
0.593521
0.593521
0.593526
0.59353
0.593535
0.59354
0.59354
0.593545
0.59355
0.593555
0.593559
0.593559
0.593564
0.593569
0.593574
0.593579
0.593579
0.593584
0.593589
0.593593
0.593598
0.593598
0.593603
0.593608
0.593613
0.593618
0.593618
0.593623
0.593628
0.593633
0.593637
0.593637
0.593642
0.593647
0.593652
0.593657
0.593657
0.593662
0.593667
0.593672
0.593677
0.593677
0.593682
0.593687
0.593692
0.593697
0.593697
0.593702
0.593707
0.593712
0.593717
0.593717
0.593722
0.593727
0.593732
0.593737
0.593737
0.593742
0.593747
0.593752
0.593757
0.593757
0.593762
0.593767
0.593772
0.593777
0.593777
0.593782
0.593787
0.593792
0.593797
0.593797
0.593803
0.593808
0.593813
0.593818
0.593818
0.593823
0.593828
0.593833
0.593838
0.593838
0.593843
0.593848
0.593853
0.593859
0.593859
0.593864
0.593869
0.593874
0.593879
0.593879
0.593884
0.593889
0.593895
0.5939
0.5939
0.593905
0.59391
0.593915
0.59392
0.59392
0.593926
0.593931
0.593936
0.593941
0.593941
0.593946
0.593952
0.593957
0.593962
0.593962
0.593967
0.593972
0.593978
0.593983
0.593983
0.593988
0.593993
0.593999
0.594004
0.594004
0.594009
0.594014
0.59402
0.594025
0.594025
0.59403
0.594036
0.594041
0.594046
0.594046
0.594052
0.594057
0.594062
0.594068
0.594068
0.594073
0.594078
0.594084
0.594089
0.594089
0.594094
0.5941
0.594105
0.59411
0.59411
0.594116
0.594121
0.594126
0.594132
0.594132
0.594137
0.594143
0.594148
0.594153
0.594153
0.594159
0.594164
0.59417
0.594175
0.594175
0.59418
0.594186
0.594191
0.594197
0.594197
0.594202
0.594207
0.594213
0.594218
0.594218
0.594224
0.594229
0.594235
0.59424
0.59424
0.594246
0.594251
0.594257
0.594262
0.594262
0.594268
0.594273
0.594279
0.594284
0.594284
0.59429
0.594295
0.594301
0.594306
0.594306
0.594312
0.594317
0.594323
0.594328
0.594328
0.594334
0.59434
0.594345
0.594351
0.594351
0.594356
0.594362
0.594367
0.594373
0.594373
0.594379
0.594384
0.59439
0.594396
0.594396
0.594401
0.594407
0.594412
0.594418
0.594418
0.594424
0.594429
0.594435
0.594441
0.594441
0.594446
0.594452
0.594458
0.594463
0.594463
0.594469
0.594475
0.59448
0.594486
0.594486
0.594492
0.594497
0.594503
0.594509
0.594509
0.594515
0.59452
0.594526
0.594532
0.594532
0.594537
0.594543
0.594549
0.594555
0.594555
0.59456
0.594566
0.594572
0.594578
0.594578
0.594583
0.594589
0.594595
0.594601
0.594601
0.594607
0.594612
0.594618
0.594624
0.594624
0.59463
0.594636
0.594642
0.594647
0.594647
0.594653
0.594659
0.594665
0.594671
0.594671
0.594677
0.594683
0.594688
0.594694
0.594694
0.5947
0.594706
0.594712
0.594718
0.594718
0.594724
0.59473
0.594736
0.594742
0.594742
0.594748
0.594753
0.594759
0.594765
0.594765
0.594771
0.594777
0.594783
0.594789
0.594789
0.594795
0.594801
0.594807
0.594813
0.594813
0.594819
0.594825
0.594831
0.594837
0.594837
0.594843
0.594849
0.594855
0.594861
0.594861
0.594867
0.594873
0.594879
0.594885
0.594885
0.594891
0.594897
0.594903
0.594909
0.594909
0.594915
0.594921
0.594927
0.594934
0.594934
0.59494
0.594946
0.594952
0.594958
0.594958
0.594964
0.59497
0.594976
0.594983
0.594983
0.594989
0.594995
0.595001
0.595007
0.595007
0.595013
0.595019
0.595026
0.595032
0.595032
0.595038
0.595044
0.59505
0.595057
0.595057
0.595063
0.595069
0.595075
0.595081
0.595081
0.595088
0.595094
0.5951
0.595106
0.595106
0.595112
0.595119
0.595125
0.595131
0.595131
0.595137
0.595144
0.59515
0.595156
0.595156
0.595163
0.595169
0.595175
0.595181
0.595181
0.595188
0.595194
0.5952
0.595207
0.595207
0.595213
0.595219
0.595225
0.595232
0.595232
0.595238
0.595244
0.595251
0.595257
0.595257
0.595264
0.59527
0.595276
0.595283
0.595283
0.595289
0.595296
0.595302
0.595308
0.595308
0.595315
0.595321
0.595328
0.595334
0.595334
0.595341
0.595347
0.595354
0.59536
0.59536
0.595366
0.595373
0.595379
0.595386
0.595386
0.595392
0.595399
0.595405
0.595412
0.595412
0.595418
0.595425
0.595431
0.595438
0.595438
0.595444
0.595451
0.595457
0.595464
0.595464
0.59547
0.595477
0.595483
0.59549
0.59549
0.595497
0.595503
0.59551
0.595516
0.595516
0.595523
0.595529
0.595536
0.595543
0.595543
0.595549
0.595556
0.595562
0.595569
0.595569
0.595576
0.595582
0.595589
0.595596
0.595596
0.595602
0.595609
0.595616
0.595622
0.595622
0.595629
0.595636
0.595642
0.595649
0.595649
0.595656
0.595663
0.595669
0.595676
0.595676
0.595683
0.595689
0.595696
0.595703
0.595703
0.59571
0.595716
0.595723
0.59573
0.59573
0.595737
0.595743
0.59575
0.595757
0.595757
0.595764
0.595771
0.595777
0.595784
0.595784
0.595791
0.595798
0.595805
0.595811
0.595811
0.595818
0.595825
0.595832
0.595839
0.595839
0.595846
0.595852
0.595859
0.595866
0.595866
0.595873
0.59588
0.595887
0.595894
0.595894
0.5959
0.595907
0.595914
0.595921
0.595921
0.595928
0.595935
0.595942
0.595949
0.595949
0.595956
0.595963
0.59597
0.595977
0.595977
0.595984
0.595991
0.595998
0.596005
0.596005
0.596012
0.596019
0.596026
0.596033
0.596033
0.59604
0.596047
0.596054
0.596061
0.596061
0.596068
0.596075
0.596082
0.596089
0.596089
0.596096
0.596103
0.59611
0.596117
0.596117
0.596125
0.596132
0.596139
0.596146
0.596146
0.596153
0.59616
0.596167
0.596174
0.596174
0.596181
0.596188
0.596196
0.596203
0.596203
0.59621
0.596217
0.596224
0.596231
0.596231
0.596238
0.596246
0.596253
0.59626
0.59626
0.596267
0.596275
0.596282
0.596289
0.596289
0.596296
0.596303
0.596311
0.596318
0.596318
0.596325
0.596333
0.59634
0.596347
0.596347
0.596354
0.596362
0.596369
0.596376
0.596376
0.596384
0.596391
0.596398
0.596405
0.596405
0.596413
0.59642
0.596427
0.596435
0.596435
0.596442
0.596449
0.596457
0.596464
0.596464
0.596471
0.596479
0.596486
0.596494
0.596494
0.596501
0.596508
0.596516
0.596523
0.596523
0.596531
0.596538
0.596545
0.596553
0.596553
0.59656
0.596568
0.596575
0.596583
0.596583
0.59659
0.596598
0.596605
0.596613
0.596613
0.59662
0.596628
0.596635
0.596643
0.596643
0.59665
0.596658
0.596665
0.596673
0.596673
0.59668
0.596688
0.596695
0.596703
0.596703
0.59671
0.596718
0.596726
0.596733
0.596733
0.596741
0.596748
0.596756
0.596764
0.596764
0.596771
0.596779
0.596786
0.596794
0.596794
0.596802
0.596809
0.596817
0.596825
0.596825
0.596832
0.59684
0.596847
0.596855
0.596855
0.596863
0.59687
0.596878
0.596886
0.596886
0.596894
0.596901
0.596909
0.596917
0.596917
0.596924
0.596932
0.59694
0.596948
0.596948
0.596956
0.596963
0.596971
0.596979
0.596979
0.596987
0.596994
0.597002
0.59701
0.59701
0.597018
0.597026
0.597034
0.597041
0.597041
0.597049
0.597057
0.597065
0.597073
0.597073
0.597081
0.597089
0.597096
0.597104
0.597104
0.597112
0.59712
0.597128
0.597136
0.597136
0.597144
0.597152
0.59716
0.597167
0.597167
0.597175
0.597183
0.597191
0.597199
0.597199
0.597207
0.597215
0.597223
0.597231
0.597231
0.597239
0.597247
0.597255
0.597263
0.597263
0.597271
0.597279
0.597287
0.597295
0.597295
0.597303
0.597311
0.597319
0.597327
0.597327
0.597335
0.597343
0.597352
0.59736
0.59736
0.597368
0.597376
0.597384
0.597392
0.597392
0.5974
0.597408
0.597416
0.597425
0.597425
0.597433
0.597441
0.597449
0.597457
0.597457
0.597465
0.597473
0.597482
0.59749
0.59749
0.597498
0.597506
0.597514
0.597523
0.597523
0.597531
0.597539
0.597547
0.597555
0.597555
0.597564
0.597572
0.59758
0.597588
0.597588
0.597597
0.597605
0.597613
0.597621
0.597621
0.59763
0.597638
0.597646
0.597655
0.597655
0.597663
0.597671
0.59768
0.597688
0.597688
0.597696
0.597705
0.597713
0.597722
0.597722
0.59773
0.597738
0.597747
0.597755
0.597755
0.597764
0.597772
0.59778
0.597789
0.597789
0.597797
0.597806
0.597814
0.597822
0.597822
0.597831
0.597839
0.597848
0.597856
0.597856
0.597865
0.597873
0.597882
0.59789
0.59789
0.597899
0.597907
0.597916
0.597924
0.597924
0.597933
0.597941
0.59795
0.597958
0.597958
0.597967
0.597975
0.597984
0.597993
0.597993
0.598001
0.59801
0.598018
0.598027
0.598027
0.598036
0.598044
0.598053
0.598062
0.598062
0.59807
0.598079
0.598088
0.598096
0.598096
0.598105
0.598114
0.598122
0.598131
0.598131
0.59814
0.598148
0.598157
0.598166
0.598166
0.598174
0.598183
0.598192
0.598201
0.598201
0.598209
0.598218
0.598227
0.598236
0.598236
0.598244
0.598253
0.598262
0.598271
0.598271
0.598279
0.598288
0.598297
0.598306
0.598306
0.598315
0.598324
0.598332
0.598341
0.598341
0.59835
0.598359
0.598368
0.598377
0.598377
0.598386
0.598395
0.598404
0.598412
0.598412
0.598421
0.59843
0.598439
0.598448
0.598448
0.598457
0.598466
0.598475
0.598484
0.598484
0.598493
0.598502
0.598511
0.59852
0.59852
0.598529
0.598538
0.598547
0.598556
0.598556
0.598565
0.598574
0.598583
0.598592
0.598592
0.598601
0.59861
0.598619
0.598628
0.598628
0.598637
0.598646
0.598655
0.598664
0.598664
0.598674
0.598683
0.598692
0.598701
0.598701
0.59871
0.598719
0.598728
0.598738
0.598738
0.598747
0.598756
0.598765
0.598774
0.598774
0.598784
0.598793
0.598802
0.598811
0.598811
0.59882
0.59883
0.598839
0.598848
0.598848
0.598857
0.598867
0.598876
0.598885
0.598885
0.598895
0.598904
0.598913
0.598922
0.598922
0.598932
0.598941
0.59895
0.59896
0.59896
0.598969
0.598978
0.598988
0.598997
0.598997
0.599006
0.599016
0.599025
0.599034
0.599034
0.599044
0.599053
0.599063
0.599072
0.599072
0.599081
0.599091
0.5991
0.59911
0.59911
0.599119
0.599129
0.599138
0.599148
0.599148
0.599157
0.599167
0.599176
0.599186
0.599186
0.599195
0.599205
0.599214
0.599224
0.599224
0.599233
0.599243
0.599252
0.599262
0.599262
0.599272
0.599281
0.599291
0.5993
0.5993
0.59931
0.599319
0.599329
0.599339
0.599339
0.599348
0.599358
0.599368
0.599377
0.599377
0.599387
0.599396
0.599406
0.599416
0.599416
0.599425
0.599435
0.599445
0.599455
0.599455
0.599464
0.599474
0.599484
0.599494
0.599494
0.599503
0.599513
0.599523
0.599533
0.599533
0.599542
0.599552
0.599562
0.599572
0.599572
0.599582
0.599592
0.599601
0.599611
0.599611
0.599621
0.599631
0.599641
0.599651
0.599651
0.59966
0.59967
0.59968
0.59969
0.59969
0.5997
0.59971
0.59972
0.59973
0.59973
0.59974
0.599749
0.599759
0.599769
0.599769
0.599779
0.599789
0.599799
0.599809
0.599809
0.599819
0.599829
0.599839
0.599849
0.599849
0.599859
0.599869
0.599879
0.599889
0.599889
0.599899
0.599909
0.59992
0.59993
0.59993
0.59994
0.59995
0.59996
0.59997
0.59997
0.59998
0.59999
0.6
0.600011
0.600011
0.600021
0.600031
0.600041
0.600051
0.600051
0.600061
0.600071
0.600082
0.600092
0.600092
0.600102
0.600112
0.600122
0.600133
0.600133
0.600143
0.600153
0.600163
0.600174
0.600174
0.600184
0.600194
0.600204
0.600215
0.600215
0.600225
0.600235
0.600246
0.600256
0.600256
0.600266
0.600277
0.600287
0.600297
0.600297
0.600308
0.600318
0.600328
0.600339
0.600339
0.600349
0.60036
0.60037
0.600381
0.600381
0.600391
0.600401
0.600412
0.600422
0.600422
0.600433
0.600443
0.600454
0.600464
0.600464
0.600475
0.600485
0.600495
0.600506
0.600506
0.600516
0.600527
0.600538
0.600548
0.600548
0.600559
0.600569
0.60058
0.60059
0.60059
0.600601
0.600611
0.600622
0.600633
0.600633
0.600643
0.600654
0.600665
0.600675
0.600675
0.600686
0.600697
0.600707
0.600718
0.600718
0.600729
0.600739
0.60075
0.600761
0.600761
0.600771
0.600782
0.600793
0.600804
0.600804
0.600814
0.600825
0.600836
0.600847
0.600847
0.600857
0.600868
0.600879
0.60089
0.60089
0.6009
0.600911
0.600922
0.600933
0.600933
0.600944
0.600955
0.600965
0.600976
0.600976
0.600987
0.600998
0.601009
0.60102
0.60102
0.601031
0.601042
0.601053
0.601064
0.601064
0.601075
0.601086
0.601096
0.601107
0.601107
0.601118
0.601129
0.60114
0.601151
0.601151
0.601162
0.601173
0.601184
0.601196
0.601196
0.601207
0.601218
0.601229
0.60124
0.60124
0.601251
0.601262
0.601273
0.601284
0.601284
0.601295
0.601306
0.601317
0.601328
0.601328
0.601339
0.601351
0.601362
0.601373
0.601373
0.601384
0.601395
0.601406
0.601418
0.601418
0.601429
0.60144
0.601451
0.601463
0.601463
0.601474
0.601485
0.601496
0.601508
0.601508
0.601519
0.60153
0.601542
0.601553
0.601553
0.601564
0.601576
0.601587
0.601598
0.601598
0.60161
0.601621
0.601632
0.601644
0.601644
0.601655
0.601666
0.601678
0.601689
0.601689
0.6017
0.601712
0.601723
0.601735
0.601735
0.601746
0.601758
0.601769
0.60178
0.60178
0.601792
0.601803
0.601815
0.601826
0.601826
0.601838
0.60185
0.601861
0.601873
0.601873
0.601884
0.601896
0.601907
0.601919
0.601919
0.601931
0.601942
0.601954
0.601965
0.601965
0.601977
0.601989
0.602
0.602012
0.602012
0.602024
0.602035
0.602047
0.602058
0.602058
0.60207
0.602082
0.602094
0.602105
0.602105
0.602117
0.602129
0.60214
0.602152
0.602152
0.602164
0.602176
0.602187
0.602199
0.602199
0.602211
0.602223
0.602235
0.602246
0.602246
0.602258
0.60227
0.602282
0.602294
0.602294
0.602306
0.602318
0.60233
0.602341
0.602341
0.602353
0.602365
0.602377
0.602389
0.602389
0.602401
0.602413
0.602425
0.602437
0.602437
0.602449
0.602461
0.602473
0.602485
0.602485
0.602497
0.602509
0.602521
0.602533
0.602533
0.602545
0.602557
0.602569
0.602581
0.602581
0.602593
0.602605
0.602617
0.602629
0.602629
0.602641
0.602654
0.602666
0.602678
0.602678
0.60269
0.602702
0.602714
0.602727
0.602727
0.602739
0.602751
0.602763
0.602775
0.602775
0.602788
0.6028
0.602812
0.602824
0.602824
0.602837
0.602849
0.602861
0.602873
0.602873
0.602886
0.602898
0.60291
0.602923
0.602923
0.602935
0.602947
0.60296
0.602972
0.602972
0.602984
0.602997
0.603009
0.603021
0.603021
0.603034
0.603046
0.603059
0.603071
0.603071
0.603084
0.603096
0.603109
0.603121
0.603121
0.603134
0.603146
0.603159
0.603171
0.603171
0.603184
0.603196
0.603209
0.603221
0.603221
0.603234
0.603246
0.603259
0.603272
0.603272
0.603284
0.603297
0.603309
0.603322
0.603322
0.603335
0.603347
0.60336
0.603372
0.603372
0.603385
0.603398
0.60341
0.603423
0.603423
0.603436
0.603449
0.603461
0.603474
0.603474
0.603487
0.6035
0.603512
0.603525
0.603525
0.603538
0.603551
0.603564
0.603576
0.603576
0.603589
0.603602
0.603615
0.603628
0.603628
0.603641
0.603653
0.603666
0.603679
0.603679
0.603692
0.603705
0.603718
0.603731
0.603731
0.603744
0.603757
0.60377
0.603783
0.603783
0.603796
0.603808
0.603821
0.603834
0.603834
0.603847
0.60386
0.603874
0.603887
0.603887
0.6039
0.603913
0.603926
0.603939
0.603939
0.603952
0.603965
0.603978
0.603991
0.603991
0.604004
0.604018
0.604031
0.604044
0.604044
0.604057
0.60407
0.604084
0.604097
0.604097
0.60411
0.604123
0.604136
0.60415
0.60415
0.604163
0.604176
0.604189
0.604203
0.604203
0.604216
0.604229
0.604242
0.604256
0.604256
0.604269
0.604282
0.604296
0.604309
0.604309
0.604322
0.604336
0.604349
0.604363
0.604363
0.604376
0.604389
0.604403
0.604416
0.604416
0.60443
0.604443
0.604457
0.60447
0.60447
0.604484
0.604497
0.604511
0.604524
0.604524
0.604538
0.604551
0.604565
0.604578
0.604578
0.604592
0.604605
0.604619
0.604633
0.604633
0.604646
0.60466
0.604673
0.604687
0.604687
0.604701
0.604714
0.604728
0.604742
0.604742
0.604755
0.604769
0.604783
0.604796
0.604796
0.60481
0.604824
0.604838
0.604851
0.604851
0.604865
0.604879
0.604893
0.604907
0.604907
0.60492
0.604934
0.604948
0.604962
0.604962
0.604976
0.60499
0.605004
0.605017
0.605017
0.605031
0.605045
0.605059
0.605073
0.605073
0.605087
0.605101
0.605115
0.605129
0.605129
0.605143
0.605157
0.605171
0.605185
0.605185
0.605199
0.605213
0.605227
0.605241
0.605241
0.605255
0.605269
0.605283
0.605297
0.605297
0.605311
0.605325
0.605339
0.605354
0.605354
0.605368
0.605382
0.605396
0.60541
0.60541
0.605424
0.605439
0.605453
0.605467
0.605467
0.605481
0.605495
0.60551
0.605524
0.605524
0.605538
0.605552
0.605567
0.605581
0.605581
0.605595
0.60561
0.605624
0.605638
0.605638
0.605653
0.605667
0.605681
0.605696
0.605696
0.60571
0.605725
0.605739
0.605753
0.605753
0.605768
0.605782
0.605797
0.605811
0.605811
0.605826
0.60584
0.605855
0.605869
0.605869
0.605884
0.605898
0.605913
0.605927
0.605927
0.605942
0.605956
0.605971
0.605986
0.605986
0.606
0.606015
0.606029
0.606044
0.606044
0.606059