<?xml version="1.0"?>
<VTKFile type="UnstructuredGrid" version="0.1" byte_order="LittleEndian">
<UnstructuredGrid>
<Piece NumberOfPoints="5000" NumberOfCells="4000">
<PointData Scalars="Reaction 0">
<DataArray type="Float32" Name="Reaction 0" format="ascii">
0.373924
0.373924
0.373924
0.373924
0.373924
0.373924
0.373924
0.373924
0.373924
0.373925
0.373925
0.373925
0.373925
0.373925
0.373926
0.373926
0.373926
0.373927
0.373927
0.373927
0.373927
0.373928
0.373928
0.373929
0.37393
0.37393
0.37393
0.373931
0.373931
0.373932
0.373932
0.373933
0.373934
0.373934
0.373935
0.373935
0.373936
0.373937
0.373938
0.373939
0.373939
0.37394
0.373941
0.373942
0.373943
0.373943
0.373944
0.373945
0.373946
0.373947
0.373947
0.373948
0.373949
0.373951
0.373952
0.373952
0.373953
0.373955
0.373956
0.373957
0.373957
0.373959
0.37396
0.373962
0.373963
0.373963
0.373965
0.373966
0.373968
0.373969
0.373969
0.373971
0.373973
0.373974
0.373976
0.373976
0.373978
0.37398
0.373982
0.373983
0.373983
0.373985
0.373987
0.373989
0.373991
0.373991
0.373993
0.373995
0.373997
0.373999
0.373999
0.374001
0.374003
0.374006
0.374008
0.374008
0.37401
0.374012
0.374015
0.374017
0.374017
0.374019
0.374022
0.374024
0.374027
0.374027
0.374029
0.374031
0.374034
0.374037
0.374037
0.374039
0.374042
0.374044
0.374047
0.374047
0.37405
0.374052
0.374055
0.374058
0.374058
0.374061
0.374064
0.374067
0.374069
0.374069
0.374072
0.374075
0.374078
0.374081
0.374081
0.374084
0.374087
0.374091
0.374094
0.374094
0.374097
0.3741
0.374103
0.374106
0.374106
0.37411
0.374113
0.374116
0.37412
0.37412
0.374123
0.374127
0.37413
0.374134
0.374134
0.374137
0.374141
0.374144
0.374148
0.374148
0.374151
0.374155
0.374159
0.374162
0.374162
0.374166
0.37417
0.374174
0.374178
0.374178
0.374181
0.374185
0.374189
0.374193
0.374193
0.374197
0.374201
0.374205
0.374209
0.374209
0.374213
0.374218
0.374222
0.374226
0.374226
0.37423
0.374234
0.374239
0.374243
0.374243
0.374247
0.374252
0.374256
0.37426
0.37426
0.374265
0.374269
0.374274
0.374278
0.374278
0.374283
0.374287
0.374292
0.374297
0.374297
0.374301
0.374306
0.374311
0.374316
0.374316
0.37432
0.374325
0.37433
0.374335
0.374335
0.37434
0.374345
0.37435
0.374355
0.374355
0.37436
0.374365
0.37437
0.374375
0.374375
0.37438
0.374385
0.374391
0.374396
0.374396
0.374401
0.374406
0.374412
0.374417
0.374417
0.374422
0.374428
0.374433
0.374439
0.374439
0.374444
0.37445
0.374455
0.374461
0.374461
0.374466
0.374472
0.374478
0.374483
0.374483
0.374489
0.374495
0.374501
0.374507
0.374507
0.374512
0.374518
0.374524
0.37453
0.37453
0.374536
0.374542
0.374548
0.374554
0.374554
0.37456
0.374566
0.374572
0.374579
0.374579
0.374585
0.374591
0.374597
0.374604
0.374604
0.37461
0.374616
0.374623
0.374629
0.374629
0.374635
0.374642
0.374648
0.374655
0.374655
0.374661
0.374668
0.374675
0.374681
0.374681
0.374688
0.374695
0.374701
0.374708
0.374708
0.374715
0.374722
0.374728
0.374735
0.374735
0.374742
0.374749
0.374756
0.374763
0.374763
0.37477
0.374777
0.374784
0.374791
0.374791
0.374798
0.374805
0.374813
0.37482
0.37482
0.374827
0.374834
0.374842
0.374849
0.374849
0.374856
0.374864
0.374871
0.374879
0.374879
0.374886
0.374894
0.374901
0.374909
0.374909
0.374916
0.374924
0.374932
0.374939
0.374939
0.374947
0.374955
0.374962
0.37497
0.37497
0.374978
0.374986
0.374994
0.375002
0.375002
0.37501
0.375018
0.375026
0.375034
0.375034
0.375042
0.37505
0.375058
0.375066
0.375066
0.375074
0.375082
0.375091
0.375099
0.375099
0.375107
0.375116
0.375124
0.375132
0.375132
0.375141
0.375149
0.375158
0.375166
0.375166
0.375175
0.375183
0.375192
0.3752
0.3752
0.375209
0.375218
0.375226
0.375235
0.375235
0.375244
0.375253
0.375261
0.37527
0.37527
0.375279
0.375288
0.375297
0.375306
0.375306
0.375315
0.375324
0.375333
0.375342
0.375342
0.375351
0.37536
0.375369
0.375379
0.375379
0.375388
0.375397
0.375406
0.375416
0.375416
0.375425
0.375434
0.375444
0.375453
0.375453
0.375463
0.375472
0.375482
0.375491
0.375491
0.375501
0.37551
0.37552
0.37553
0.37553
0.375539
0.375549
0.375559
0.375569
0.375569
0.375578
0.375588
0.375598
0.375608
0.375608
0.375618
0.375628
0.375638
0.375648
0.375648
0.375658
0.375668
0.375678
0.375688
0.375688
0.375698
0.375708
0.375719
0.375729
0.375729
0.375739
0.375749
0.37576
0.37577
0.37577
0.375781
0.375791
0.375801
0.375812
0.375812
0.375822
0.375833
0.375843
0.375854
0.375854
0.375865
0.375875
0.375886
0.375897
0.375897
0.375907
0.375918
0.375929
0.37594
0.37594
0.375951
0.375962
0.375972
0.375983
0.375983
0.375994
0.376005
0.376016
0.376027
0.376027
0.376039
0.37605
0.376061
0.376072
0.376072
0.376083
0.376094
0.376106
0.376117
0.376117
0.376128
0.37614
0.376151
0.376162
0.376162
0.376174
0.376185
0.376197
0.376208
0.376208
0.37622
0.376231
0.376243
0.376255
0.376255
0.376266
0.376278
0.37629
0.376301
0.376301
0.376313
0.376325
0.376337
0.376349
0.376349
0.376361
0.376373
0.376385
0.376397
0.376397
0.376409
0.376421
0.376433
0.376445
0.376445
0.376457
0.376469
0.376481
0.376493
0.376493
0.376506
0.376518
0.37653
0.376543
0.376543
0.376555
0.376567
0.37658
0.376592
0.376592
0.376605
0.376617
0.37663
0.376642
0.376642
0.376655
0.376668
0.37668
0.376693
0.376693
0.376706
0.376718
0.376731
0.376744
0.376744
0.376757
0.37677
0.376783
0.376795
0.376795
0.376808
0.376821
0.376834
0.376847
0.376847
0.37686
0.376874
0.376887
0.3769
0.3769
0.376913
0.376926
0.376939
0.376953
0.376953
0.376966
0.376979
0.376993
0.377006
0.377006
0.377019
0.377033
0.377046
0.37706
0.37706
0.377073
0.377087
0.377101
0.377114
0.377114
0.377128
0.377141
0.377155
0.377169
0.377169
0.377183
0.377196
0.37721
0.377224
0.377224
0.377238
0.377252
0.377266
0.37728
0.37728
0.377294
0.377308
0.377322
0.377336
0.377336
0.37735
0.377364
0.377378
0.377393
0.377393
0.377407
0.377421
0.377435
0.37745
0.37745
0.377464
0.377478
0.377493
0.377507
0.377507
0.377522
0.377536
0.377551
0.377565
0.377565
0.37758
0.377594
0.377609
0.377624
0.377624
0.377638
0.377653
0.377668
0.377683
0.377683
0.377697
0.377712
0.377727
0.377742
0.377742
0.377757
0.377772
0.377787
0.377802
0.377802
0.377817
0.377832
0.377847
0.377862
0.377862
0.377877
0.377892
0.377908
0.377923
0.377923
0.377938
0.377954
0.377969
0.377984
0.377984
0.378
0.378015
0.37803
0.378046
0.378046
0.378061
0.378077
0.378093
0.378108
0.378108
0.378124
0.378139
0.378155
0.378171
0.378171
0.378187
0.378202
0.378218
0.378234
0.378234
0.37825
0.378266
0.378282
0.378297
0.378297
0.378313
0.378329
0.378345
0.378362
0.378362
0.378378
0.378394
0.37841
0.378426
0.378426
0.378442
0.378458
0.378475
0.378491
0.378491
0.378507
0.378524
0.37854
0.378556
0.378556
0.378573
0.378589
0.378606
0.378622
0.378622
0.378639
0.378655
0.378672
0.378689
0.378689
0.378705
0.378722
0.378739
0.378756
0.378756
0.378772
0.378789
0.378806
0.378823
0.378823
0.37884
0.378857
0.378874
0.378891
0.378891
0.378908
0.378925
0.378942
0.378959
0.378959
0.378976
0.378993
0.37901
0.379028
0.379028
0.379045
0.379062
0.379079
0.379097
0.379097
0.379114
0.379131
0.379149
0.379166
0.379166
0.379184
0.379201
0.379219
0.379236
0.379236
0.379254
0.379272
0.379289
0.379307
0.379307
0.379325
0.379342
0.37936
0.379378
0.379378
0.379396
0.379414
0.379432
0.379449
0.379449
0.379467
0.379485
0.379503
0.379521
0.379521
0.379539
0.379558
0.379576
0.379594
0.379594
0.379612
0.37963
0.379648
0.379667
0.379667
0.379685
0.379703
0.379722
0.37974
0.37974
0.379758
0.379777
0.379795
0.379814
0.379814
0.379832
0.379851
0.379869
0.379888
0.379888
0.379907
0.379925
0.379944
0.379963
0.379963
0.379982
0.38
0.380019
0.380038
0.380038
0.380057
0.380076
0.380095
0.380114
0.380114
0.380133
0.380152
0.380171
0.38019
0.38019
0.380209
0.380228
0.380247
0.380266
0.380266
0.380286
0.380305
0.380324
0.380343
0.380343
0.380363
0.380382
0.380402
0.380421
0.380421
0.38044
0.38046
0.380479
0.380499
0.380499
0.380519
0.380538
0.380558
0.380577
0.380577
0.380597
0.380617
0.380637
0.380656
0.380656
0.380676
0.380696
0.380716
0.380736
0.380736
0.380756
0.380776
0.380796
0.380816
0.380816
0.380836
0.380856
0.380876
0.380896
0.380896
0.380916
0.380936
0.380956
0.380977
0.380977
0.380997
0.381017
0.381037
0.381058
0.381058
0.381078
0.381099
0.381119
0.381139
0.381139
0.38116
0.381181
0.381201
0.381222
0.381222
0.381242
0.381263
0.381284
0.381304
0.381304
0.381325
0.381346
0.381367
0.381387
0.381387
0.381408
0.381429
0.38145
0.381471
0.381471
0.381492
0.381513
0.381534
0.381555
0.381555
0.381576
0.381597
0.381618
0.381639
0.381639
0.381661
0.381682
0.381703
0.381724
0.381724
0.381746
0.381767
0.381788
0.38181
0.38181
0.381831
0.381853
0.381874
0.381896
0.381896
0.381917
0.381939
0.38196
0.381982
0.381982
0.382004
0.382025
0.382047
0.382069
0.382069
0.38209
0.382112
0.382134
0.382156
0.382156
0.382178
0.3822
0.382222
0.382244
0.382244
0.382266
0.382288
0.38231
0.382332
0.382332
0.382354
0.382376
0.382398
0.382421
0.382421
0.382443
0.382465
0.382487
0.38251
0.38251
0.382532
0.382554
0.382577
0.382599
0.382599
0.382622
0.382644
0.382667
0.382689
0.382689
0.382712
0.382734
0.382757
0.38278
0.38278
0.382802
0.382825
0.382848
0.382871
0.382871
0.382894
0.382916
0.382939
0.382962
0.382962
0.382985
0.383008
0.383031
0.383054
0.383054
0.383077
0.3831
0.383123
0.383146
0.383146
0.38317
0.383193
0.383216
0.383239
0.383239
0.383262
0.383286
0.383309
0.383332
0.383332
0.383356
0.383379
0.383403
0.383426
0.383426
0.38345
0.383473
0.383497
0.38352
0.38352
0.383544
0.383568
0.383591
0.383615
0.383615
0.383639
0.383663
0.383686
0.38371
0.38371
0.383734
0.383758
0.383782
0.383806
0.383806
0.38383
0.383854
0.383878
0.383902
0.383902
0.383926
0.38395
0.383974
0.383998
0.383998
0.384023
0.384047
0.384071
0.384095
0.384095
0.38412
0.384144
0.384168
0.384193
0.384193
0.384217
0.384242
0.384266
0.384291
0.384291
0.384315
0.38434
0.384364
0.384389
0.384389
0.384414
0.384438
0.384463
0.384488
0.384488
0.384513
0.384538
0.384562
0.384587
0.384587
0.384612
0.384637
0.384662
0.384687
0.384687
0.384712
0.384737
0.384762
0.384787
0.384787
0.384812
0.384837
0.384863
0.384888
0.384888
0.384913
0.384938
0.384964
0.384989
0.384989
0.385014
0.38504
0.385065
0.385091
0.385091
0.385116
0.385142
0.385167
0.385193
0.385193
0.385218
0.385244
0.38527
0.385295
0.385295
0.385321
0.385347
0.385372
0.385398
0.385398
0.385424
0.38545
0.385476
0.385502
0.385502
0.385528
0.385554
0.38558
0.385606
0.385606
0.385632
0.385658
0.385684
0.38571
0.38571
0.385736
0.385762
0.385789
0.385815
0.385815
0.385841
0.385867
0.385894
0.38592
0.38592
0.385947
0.385973
0.385999
0.386026
0.386026
0.386052
0.386079
0.386106
0.386132
0.386132
0.386159
0.386186
0.386212
0.386239
0.386239
0.386266
0.386292
0.386319
0.386346
0.386346
0.386373
0.3864
0.386427
0.386454
0.386454
0.386481
0.386508
0.386535
0.386562
0.386562
0.386589
0.386616
0.386643
0.38667
0.38667
0.386698
0.386725
0.386752
0.386779
0.386779
0.386807
0.386834
0.386861
0.386889
0.386889
0.386916
0.386944
0.386971
0.386999
0.386999
0.387026
0.387054
0.387081
0.387109
0.387109
0.387137
0.387165
0.387192
0.38722
0.38722
0.387248
0.387276
0.387303
0.387331
0.387331
0.387359
0.387387
0.387415
0.387443
0.387443
0.387471
0.387499
0.387527
0.387555
0.387555
0.387583
0.387612
0.38764
0.387668
0.387668
0.387696
0.387725
0.387753
0.387781
0.387781
0.38781
0.387838
0.387866
0.387895
0.387895
0.387923
0.387952
0.38798
0.388009
0.388009
0.388038
0.388066
0.388095
0.388123
0.388123
0.388152
0.388181
0.38821
0.388239
0.388239
0.388267
0.388296
0.388325
0.388354
0.388354
0.388383
0.388412
0.388441
0.38847
0.38847
0.388499
0.388528
0.388557
0.388586
0.388586
0.388616
0.388645
0.388674
0.388703
0.388703
0.388732
0.388762
0.388791
0.388821
0.388821
0.38885
0.388879
0.388909
0.388938
0.388938
0.388968
0.388997
0.389027
0.389057
0.389057
0.389086
0.389116
0.389146
0.389175
0.389175
0.389205
0.389235
0.389265
0.389294
0.389294
0.389324
0.389354
0.389384
0.389414
0.389414
0.389444
0.389474
0.389504
0.389534
0.389534
0.389564
0.389594
0.389625
0.389655
0.389655
0.389685
0.389715
0.389745
0.389776
0.389776
0.389806
0.389836
0.389867
0.389897
0.389897
0.389928
0.389958
0.389989
0.390019
0.390019
0.39005
0.39008
0.390111
0.390142
0.390142
0.390172
0.390203
0.390234
0.390264
0.390264
0.390295
0.390326
0.390357
0.390388
0.390388
0.390419
0.39045
0.390481
0.390512
0.390512
0.390543
0.390574
0.390605
0.390636
0.390636
0.390667
0.390698
0.390729
0.39076
0.39076
0.390792
0.390823
0.390854
0.390886
0.390886
0.390917
0.390948
0.39098
0.391011
0.391011
0.391043
0.391074
0.391106
0.391137
0.391137
0.391169
0.391201
0.391232
0.391264
0.391264
0.391296
0.391327
0.391359
0.391391
0.391391
0.391423
0.391455
0.391486
0.391518
0.391518
0.39155
0.391582
0.391614
0.391646
0.391646
0.391678
0.39171
0.391743
0.391775
0.391775
0.391807
0.391839
0.391871
0.391904
0.391904
0.391936
0.391968
0.392001
0.392033
0.392033
0.392065
0.392098
0.39213
0.392163
0.392163
0.392195
0.392228
0.39226
0.392293
0.392293
0.392326
0.392358
0.392391
0.392424
0.392424
0.392456
0.392489
0.392522
0.392555
0.392555
0.392588
0.39262
0.392653
0.392686
0.392686
0.392719
0.392752
0.392785
0.392818
0.392818
0.392852
0.392885
0.392918
0.392951
0.392951
0.392984
0.393017
0.393051
0.393084
0.393084
0.393117
0.393151
0.393184
0.393217
0.393217
0.393251
0.393284
0.393318
0.393351
0.393351
0.393385
0.393418
0.393452
0.393486
0.393486
0.393519
0.393553
0.393587
0.393621
0.393621
0.393654
0.393688
0.393722
0.393756
0.393756
0.39379
0.393824
0.393858
0.393892
0.393892
0.393926
0.39396
0.393994
0.394028
0.394028
0.394062
0.394096
0.39413
0.394165
0.394165
0.394199
0.394233
0.394267
0.394302
0.394302
0.394336
0.39437
0.394405
0.394439
0.394439
0.394474
0.394508
0.394543
0.394577
0.394577
0.394612
0.394647
0.394681
0.394716
0.394716
0.394751
0.394785
0.39482
0.394855
0.394855
0.39489
0.394925
0.394959
0.394994
0.394994
0.395029
0.395064
0.395099
0.395134
0.395134
0.395169
0.395204
0.395239
0.395275
0.395275
0.39531
0.395345
0.39538
0.395415
0.395415
0.395451
0.395486
0.395521
0.395557
0.395557
0.395592
0.395628
0.395663
0.395698
0.395698
0.395734
0.395769
0.395805
0.395841
0.395841
0.395876
0.395912
0.395948
0.395983
0.395983
0.396019
0.396055
0.396091
0.396126
0.396126
0.396162
0.396198
0.396234
0.39627
0.39627
0.396306
0.396342
0.396378
0.396414
0.396414
0.39645
0.396486
0.396522
0.396559
0.396559
0.396595
0.396631
0.396667
0.396704
0.396704
0.39674
0.396776
0.396813
0.396849
0.396849
0.396885
0.396922
0.396958
0.396995
0.396995
0.397031
0.397068
0.397105
0.397141
0.397141
0.397178
0.397215
0.397251
0.397288
0.397288
0.397325
0.397362
0.397398
0.397435
0.397435
0.397472
0.397509
0.397546
0.397583
0.397583
0.39762
0.397657
0.397694
0.397731
0.397731
0.397768
0.397805
0.397843
0.39788
0.39788
0.397917
0.397954
0.397992
0.398029
0.398029
0.398066
0.398104
0.398141
0.398178
0.398178
0.398216
0.398253
0.398291
0.398328
0.398328
0.398366
0.398404
0.398441
0.398479
0.398479
0.398517
0.398554
0.398592
0.39863
0.39863
0.398668
0.398706
0.398743
0.398781
0.398781
0.398819
0.398857
0.398895
0.398933
0.398933
0.398971
0.399009
0.399047
0.399085
0.399085
0.399124
0.399162
0.3992
0.399238
0.399238
0.399277
0.399315
0.399353
0.399391
0.399391
0.39943
0.399468
0.399507
0.399545
0.399545
0.399584
0.399622
0.399661
0.399699
0.399699
0.399738
0.399777
0.399815
0.399854
0.399854
0.399893
0.399931
0.39997
0.400009
0.400009
0.400048
0.400087
0.400126
0.400165
0.400165
0.400204
0.400242
0.400281
0.400321
0.400321
0.40036
0.400399
0.400438
0.400477
0.400477
0.400516
0.400555
0.400595
0.400634
0.400634
0.400673
0.400713
0.400752
0.400791
0.400791
0.400831
0.40087
0.40091
0.400949
0.400949
0.400989
0.401028
0.401068
0.401107
0.401107
0.401147
0.401187
0.401226
0.401266
0.401266
0.401306
0.401346
0.401385
0.401425
0.401425
0.401465
0.401505
0.401545
0.401585
0.401585
0.401625
0.401665
0.401705
0.401745
0.401745
0.401785
0.401825
0.401865
0.401906
0.401906
0.401946
0.401986
0.402026
0.402067
0.402067
0.402107
0.402147
0.402188
0.402228
0.402228
0.402269
0.402309
0.40235
0.40239
0.40239
0.402431
0.402471
0.402512
0.402553
0.402553
0.402593
0.402634
0.402675
0.402715
0.402715
0.402756
0.402797
0.402838
0.402879
0.402879
0.40292
0.402961
0.403002
0.403043
0.403043
0.403084
0.403125
0.403166
0.403207
0.403207
0.403248
0.403289
0.40333
0.403372
0.403372
0.403413
0.403454
0.403495
0.403537
0.403537
0.403578
0.403619
0.403661
0.403702
0.403702
0.403744
0.403785
0.403827
0.403868
0.403868
0.40391
0.403952
0.403993
0.404035
0.404035
0.404077
0.404118
0.40416
0.404202
0.404202
0.404244
0.404286
0.404327
0.404369
0.404369
0.404411
0.404453
0.404495
0.404537
0.404537
0.404579
0.404621
0.404664
0.404706
0.404706
0.404748
0.40479
0.404832
0.404875
0.404875
0.404917
0.404959
0.405001
0.405044
0.405044
0.405086
0.405129
0.405171
0.405214
0.405214
0.405256
0.405299
0.405341
0.405384
0.405384
0.405426
0.405469
0.405512
0.405554
0.405554
0.405597
0.40564
0.405683
0.405726
0.405726
0.405768
0.405811
0.405854
0.405897
0.405897
0.40594
0.405983
0.406026
0.406069
0.406069
0.406112
0.406155
0.406198
0.406242
0.406242
0.406285
0.406328
0.406371
0.406415
0.406415
0.406458
0.406501
0.406545
0.406588
0.406588
0.406631
0.406675
0.406718
0.406762
0.406762
0.406805
0.406849
0.406893
0.406936
0.406936
0.40698
0.407024
0.407067
0.407111
0.407111
0.407155
0.407199
0.407242
0.407286
0.407286
0.40733
0.407374
0.407418
0.407462
0.407462
0.407506
0.40755
0.407594
0.407638
0.407638
0.407682
0.407726
0.407771
0.407815
0.407815
0.407859
0.407903
0.407948
0.407992
0.407992
0.408036
0.408081
0.408125
0.408169
0.408169
0.408214
0.408258
0.408303
0.408347
0.408347
0.408392
0.408437
0.408481
0.408526
0.408526
0.40857
0.408615
0.40866
0.408705
0.408705
0.40875
0.408794
0.408839
0.408884
0.408884
0.408929
0.408974
0.409019
0.409064
0.409064
0.409109
0.409154
0.409199
0.409244
0.409244
0.409289
0.409334
0.40938
0.409425
0.409425
0.40947
0.409515
0.409561
0.409606
0.409606
0.409651
0.409697
0.409742
0.409788
0.409788
0.409833
0.409879
0.409924
0.40997
0.40997
0.410015
0.410061
0.410107
0.410152
0.410152
0.410198
0.410244
0.41029
0.410335
0.410335
0.410381
0.410427
0.410473
0.410519
0.410519
0.410565
0.410611
0.410657
0.410703
0.410703
0.410749
0.410795
0.410841
0.410887
0.410887
0.410933
0.41098
0.411026
0.411072
0.411072
0.411118
0.411165
0.411211
0.411257
0.411257
0.411304
0.41135
0.411397
0.411443
0.411443
0.41149
0.411536
0.411583
0.411629
0.411629
0.411676
0.411723
0.411769
0.411816
0.411816
0.411863
0.41191
0.411956
0.412003
0.412003
0.41205
0.412097
0.412144
0.412191
0.412191
0.412238
0.412285
0.412332
0.412379
0.412379
0.412426
0.412473
0.41252
0.412568
0.412568
0.412615
0.412662
0.412709
0.412756
0.412756
0.412804
0.412851
0.412899
0.412946
0.412946
0.412993
0.413041
0.413088
0.413136
0.413136
0.413183
0.413231
0.413279
0.413326
0.413326
0.413374
0.413422
0.413469
0.413517
0.413517
0.413565
0.413613
0.41366
0.413708
0.413708
0.413756
0.413804
0.413852
0.4139
0.4139
0.413948
0.413996
0.414044
0.414092
0.414092
0.41414
0.414188
0.414237
0.414285
0.414285
0.414333
0.414381
0.41443
0.414478
0.414478
0.414526
0.414575
0.414623
0.414671
0.414671
0.41472
0.414768
0.414817
0.414865
0.414865
0.414914
0.414963
0.415011
0.41506
0.41506
0.415109
0.415157
0.415206
0.415255
0.415255
0.415304
0.415352
0.415401
0.41545
0.41545
0.415499
0.415548
0.415597
0.415646
0.415646
0.415695
0.415744
0.415793
0.415842
0.415842
0.415891
0.415941
0.41599
0.416039
0.416039
0.416088
0.416138
0.416187
0.416236
0.416236
0.416286
0.416335
0.416384
0.416434
0.416434
0.416483
0.416533
0.416582
0.416632
0.416632
0.416682
0.416731
0.416781
0.416831
0.416831
0.41688
0.41693
0.41698
0.41703
0.41703
0.417079
0.417129
0.417179
0.417229
0.417229
0.417279
0.417329
0.417379
0.417429
0.417429
0.417479
0.417529
0.417579
0.417629
0.417629
0.41768
0.41773
0.41778
0.41783
0.41783
0.417881
0.417931
0.417981
0.418032
0.418032
0.418082
0.418132
0.418183
0.418233
0.418233
0.418284
0.418334
0.418385
0.418436
0.418436
0.418486
0.418537
0.418588
0.418638
0.418638
0.418689
0.41874
0.418791
0.418842
0.418842
0.418892
0.418943
0.418994
0.419045
0.419045
0.419096
0.419147
0.419198
0.419249
0.419249
0.4193
0.419351
0.419403
0.419454
0.419454
0.419505
0.419556
0.419607
0.419659
0.419659
0.41971
0.419761
0.419813
0.419864
0.419864
0.419916
0.419967
0.420018
0.42007
0.42007
0.420122
0.420173
0.420225
0.420276
0.420276
0.420328
0.42038
0.420431
0.420483
0.420483
0.420535
0.420587
0.420639
0.42069
0.42069
0.420742
0.420794
0.420846
0.420898
0.420898
0.42095
0.421002
0.421054
0.421106
0.421106
0.421158
0.421211
0.421263
0.421315
0.421315
0.421367
0.421419
0.421472
0.421524
0.421524
0.421576
0.421629
0.421681
0.421734
0.421734
0.421786
0.421838
0.421891
0.421944
0.421944
0.421996
0.422049
0.422101
0.422154
0.422154
0.422207
0.422259
0.422312
0.422365
0.422365
0.422418
0.422471
0.422523
0.422576
0.422576
0.422629
0.422682
0.422735
0.422788
0.422788
0.422841
0.422894
0.422947
0.423
0.423
0.423054
0.423107
0.42316
0.423213
0.423213
0.423266
0.42332
0.423373
0.423426
0.423426
0.42348
0.423533
0.423587
0.42364
0.42364
0.423693
0.423747
0.423801
0.423854
0.423854
0.423908
0.423961
0.424015
0.424069
0.424069
0.424122
0.424176
0.42423
0.424284
0.424284
0.424338
0.424391
0.424445
0.424499
0.424499
0.424553
0.424607
0.424661
0.424715
0.424715
0.424769
0.424823
0.424877
0.424932
0.424932
0.424986
0.42504
0.425094
0.425148
0.425148
0.425203
0.425257
0.425311
0.425366
0.425366
0.42542
0.425475
0.425529
0.425583
0.425583
0.425638
0.425693
0.425747
0.425802
0.425802
0.425856
0.425911
0.425966
0.42602
0.42602
0.426075
0.42613
0.426185
0.42624
0.42624
0.426294
0.426349
0.426404
0.426459
0.426459
0.426514
0.426569
0.426624
0.426679
0.426679
0.426734
0.426789
0.426845
0.4269
0.4269
0.426955
0.42701
0.427065
0.427121
0.427121
0.427176
0.427231
0.427287
0.427342
0.427342
0.427398
0.427453
0.427508
0.427564
0.427564
0.42762
0.427675
0.427731
0.427786
0.427786
0.427842
0.427898
0.427953
0.428009
0.428009
0.428065
0.428121
0.428177
0.428232
0.428232
0.428288
0.428344
0.4284
0.428456
0.428456
0.428512
0.428568
0.428624
0.42868
0.42868
0.428736
0.428792
0.428849
0.428905
0.428905
0.428961
0.429017
0.429074
0.42913
0.42913
0.429186
0.429243
0.429299
0.429355
0.429355
0.429412
0.429468
0.429525
0.429581
0.429581
0.429638
0.429695
0.429751
0.429808
0.429808
0.429865
0.429921
0.429978
0.430035
0.430035
0.430092
0.430148
0.430205
0.430262
0.430262
0.430319
0.430376
0.430433
0.43049
0.43049
0.430547
0.430604
0.430661
0.430718
0.430718
0.430775
0.430833
0.43089
0.430947
0.430947
0.431004
0.431062
0.431119
0.431176
0.431176
0.431234
0.431291
0.431348
0.431406
0.431406
0.431463
0.431521
0.431578
0.431636
0.431636
0.431694
0.431751
0.431809
0.431867
0.431867
0.431924
0.431982
0.43204
0.432098
0.432098
0.432155
0.432213
0.432271
0.432329
0.432329
0.432387
0.432445
0.432503
0.432561
0.432561
0.432619
0.432677
0.432735
0.432793
0.432793
0.432852
0.43291
0.432968
0.433026
0.433026
0.433085
0.433143
0.433201
0.43326
0.43326
0.433318
0.433376
0.433435
0.433493
0.433493
0.433552
0.43361
0.433669
0.433728
0.433728
0.433786
0.433845
0.433904
0.433962
0.433962
0.434021
0.43408
0.434139
0.434197
0.434197
0.434256
0.434315
0.434374
0.434433
0.434433
0.434492
0.434551
0.43461
0.434669
0.434669
0.434728
0.434787
0.434846
0.434906
0.434906
0.434965
0.435024
0.435083
0.435142
0.435142
0.435202
0.435261
0.435321
0.43538
0.43538
0.435439
0.435499
0.435558
0.435618
0.435618
0.435677
0.435737
0.435797
0.435856
0.435856
0.435916
0.435975
0.436035
0.436095
0.436095
0.436155
0.436214
0.436274
0.436334
0.436334
0.436394
0.436454
0.436514
0.436574
0.436574
0.436634
0.436694
0.436754
0.436814
0.436814
0.436874
0.436934
0.436994
0.437055
0.437055
0.437115
0.437175
0.437235
0.437296
0.437296
0.437356
0.437416
0.437477
0.437537
0.437537
0.437598
0.437658
0.437719
0.437779
0.437779
0.43784
0.4379
0.437961
0.438022
0.438022
0.438082
0.438143
0.438204
0.438265
0.438265
0.438325
0.438386
0.438447
0.438508
0.438508
0.438569
0.43863
0.438691
0.438752
0.438752
0.438813
0.438874
0.438935
0.438996
0.438996
0.439057
0.439119
0.43918
0.439241
0.439241
0.439302
0.439363
0.439425
0.439486
0.439486
0.439548
0.439609
0.43967
0.439732
0.439732
0.439793
0.439855
0.439916
0.439978
0.439978
0.44004
0.440101
0.440163
0.440225
0.440225
0.440286
0.440348
0.44041
0.440472
0.440472
0.440533
0.440595
0.440657
0.440719
0.440719
0.440781
0.440843
0.440905
0.440967
0.440967
0.441029
0.441091
0.441153
0.441215
0.441215
0.441278
0.44134
0.441402
0.441464
0.441464
0.441527
0.441589
0.441651
0.441714
0.441714
0.441776
0.441838
0.441901
0.441963
0.441963
0.442026
0.442088
0.442151
0.442214
0.442214
0.442276
0.442339
0.442402
0.442464
0.442464
0.442527
0.44259
0.442653
0.442715
0.442715
0.442778
0.442841
0.442904
0.442967
0.442967
0.44303
0.443093
0.443156
0.443219
0.443219
0.443282
0.443345
0.443409
0.443472
0.443472
0.443535
0.443598
0.443661
0.443725
0.443725
0.443788
0.443851
0.443915
0.443978
0.443978
0.444042
0.444105
0.444169
0.444232
0.444232
0.444296
0.444359
0.444423
0.444486
0.444486
0.44455
0.444614
0.444678
0.444741
0.444741
0.444805
0.444869
0.444933
0.444997
0.444997
0.44506
0.445124
0.445188
0.445252
0.445252
0.445316
0.44538
0.445444
0.445509
0.445509
0.445573
0.445637
0.445701
0.445765
0.445765
0.445829
0.445894
0.445958
0.446022
0.446022
0.446087
0.446151
0.446215
0.44628
0.44628
0.446344
0.446409
0.446473
0.446538
0.446538
0.446602
0.446667
0.446732
0.446796
0.446796
0.446861
0.446926
0.446991
0.447055
0.447055
0.44712
0.447185
0.44725
0.447315
0.447315
0.44738
0.447445
0.44751
0.447575
0.447575
0.44764
0.447705
0.44777
0.447835
0.447835
0.4479
0.447965
0.448031
0.448096
0.448096
0.448161
0.448226
0.448292
0.448357
0.448357
0.448422
0.448488
0.448553
0.448619
0.448619
0.448684
0.44875
0.448815
0.448881
0.448881
0.448947
0.449012
0.449078
0.449144
0.449144
0.449209
0.449275
0.449341
0.449407
0.449407
0.449473
0.449538
0.449604
0.44967
0.44967
0.449736
0.449802
0.449868
0.449934
0.449934
0.45
0.450066
0.450133
0.450199
0.450199
0.450265
0.450331
0.450397
0.450464
0.450464
0.45053
0.450596
0.450663
0.450729
0.450729
0.450795
0.450862
0.450928
0.450995
0.450995
0.451061
0.451128
0.451195
0.451261
0.451261
0.451328
0.451395
0.451461
0.451528
0.451528
0.451595
0.451662
0.451728
0.451795
0.451795
0.451862
0.451929
0.451996
0.452063
0.452063
0.45213
0.452197
0.452264
0.452331
0.452331
0.452398
0.452465
0.452532
0.4526
0.4526
0.452667
0.452734
0.452801
0.452869
0.452869
0.452936
0.453003
0.453071
0.453138
0.453138
0.453206
0.453273
0.453341
0.453408
0.453408
0.453476
0.453543
0.453611
0.453679
0.453679
0.453746
0.453814
0.453882
0.45395
0.45395
0.454017
0.454085
0.454153
0.454221
0.454221
0.454289
0.454357
0.454425
0.454493
0.454493
0.454561
0.454629
0.454697
0.454765
0.454765
0.454833
0.454901
0.45497
0.455038
0.455038
0.455106
0.455174
0.455243
0.455311
0.455311
0.455379
0.455448
0.455516
0.455585
0.455585
0.455653
0.455722
0.45579
0.455859
0.455859
0.455927
0.455996
0.456065
0.456133
0.456133
0.456202
0.456271
0.45634
0.456409
0.456409
0.456477
0.456546
0.456615
0.456684
0.456684
0.456753
0.456822
0.456891
0.45696
0.45696
0.457029
0.457098
0.457167
0.457236
0.457236
0.457306
0.457375
0.457444
0.457513
0.457513
0.457583
0.457652
0.457721
0.457791
0.457791
0.45786
0.45793
0.457999
0.458069
0.458069
0.458138
0.458208
0.458277
0.458347
0.458347
0.458417
0.458486
0.458556
0.458626
0.458626
0.458695
0.458765
0.458835
0.458905
0.458905
0.458975
0.459045
0.459115
0.459185
0.459185
0.459255
0.459325
0.459395
0.459465
0.459465
0.459535
0.459605
0.459675
0.459745
0.459745
0.459815
0.459886
0.459956
0.460026
0.460026
0.460097
0.460167
0.460237
0.460308
0.460308
0.460378
0.460449
0.460519
0.46059
0.46059
0.46066
0.460731
0.460802
0.460872
0.460872
0.460943
0.461014
0.461084
0.461155
0.461155
0.461226
0.461297
0.461368
0.461439
0.461439
0.461509
0.46158
0.461651
0.461722
0.461722
0.461793
0.461864
0.461936
0.462007
0.462007
0.462078
0.462149
0.46222
0.462291
0.462291
0.462363
0.462434
0.462505
0.462577
0.462577
0.462648
0.462719
0.462791
0.462862
0.462862
0.462934
0.463005
0.463077
0.463149
0.463149
0.46322
0.463292
0.463363
0.463435
0.463435
0.463507
0.463579
0.46365
0.463722
0.463722
0.463794
0.463866
0.463938
0.46401
0.46401
0.464082
0.464154
0.464226
0.464298
0.464298
0.46437
0.464442
0.464514
0.464586
0.464586
0.464658
0.464731
0.464803
0.464875
0.464875
0.464947
0.46502
0.465092
0.465165
0.465165
0.465237
0.465309
0.465382
0.465454
0.465454
0.465527
0.4656
0.465672
0.465745
0.465745
0.465817
0.46589
0.465963
0.466036
0.466036
0.466108
0.466181
0.466254
0.466327
0.466327
0.4664
0.466473
0.466546
0.466619
0.466619
0.466692
0.466765
0.466838
0.466911
0.466911
0.466984
0.467057
0.46713
0.467203
0.467203
0.467277
0.46735
0.467423
0.467496
0.467496
0.46757
0.467643
0.467717
0.46779
0.46779
0.467863
0.467937
0.46801
0.468084
0.468084
0.468158
0.468231
0.468305
0.468379
0.468379
0.468452
0.468526
0.4686
0.468674
0.468674
0.468747
0.468821
0.468895
0.468969
0.468969
0.469043
0.469117
0.469191
0.469265
0.469265
0.469339
0.469413
0.469487
0.469561
0.469561
0.469635
0.46971
0.469784
0.469858
0.469858
0.469932
0.470007
0.470081
0.470155
0.470155
0.47023
0.470304
0.470379
0.470453
0.470453
0.470528
0.470602
0.470677
0.470751
0.470751
0.470826
0.470901
0.470975
0.47105
0.47105
0.471125
0.4712
0.471274
0.471349
0.471349
0.471424
0.471499
0.471574
0.471649
0.471649
0.471724
0.471799
0.471874
0.471949
0.471949
0.472024
0.472099
0.472174
0.472249
0.472249
0.472325
0.4724
0.472475
0.47255
0.47255
0.472626
0.472701
0.472777
0.472852
0.472852
0.472927
0.473003
0.473078
0.473154
0.473154
0.47323
0.473305
0.473381
0.473456
0.473456
0.473532
0.473608
0.473683
0.473759
0.473759
0.473835
0.473911
0.473987
0.474063
0.474063
0.474139
0.474214
0.47429
0.474366
0.474366
0.474442
0.474519
0.474595
0.474671
0.474671
0.474747
0.474823
0.474899
0.474976
0.474976
0.475052
0.475128
0.475204
0.475281
0.475281
0.475357
0.475434
0.47551
0.475586
0.475586
0.475663
0.475739
0.475816
0.475893
0.475893
0.475969
0.476046
0.476123
0.476199
0.476199
0.476276
0.476353
0.47643
0.476506
0.476506
0.476583
0.47666
0.476737
0.476814
0.476814
0.476891
0.476968
0.477045
0.477122
0.477122
0.477199
0.477276
0.477353
0.47743