<?xml version="1.0"?>
<VTKFile type="UnstructuredGrid" version="0.1" byte_order="LittleEndian">
<UnstructuredGrid>
<Piece NumberOfPoints="5000" NumberOfCells="4000">
<PointData Scalars="Reaction 0">
<DataArray type="Float32" Name="Reaction 0" format="ascii">
0.850547
0.850547
0.850547
0.850547
0.850547
0.850547
0.850547
0.850548
0.850548
0.850548
0.850548
0.850548
0.850548
0.850548
0.850548
0.850548
0.850548
0.850548
0.850548
0.850548
0.850548
0.850548
0.850549
0.850549
0.850549
0.850549
0.850549
0.850549
0.850549
0.850549
0.850549
0.85055
0.85055
0.85055
0.85055
0.85055
0.85055
0.850551
0.850551
0.850551
0.850551
0.850551
0.850552
0.850552
0.850552
0.850552
0.850552
0.850553
0.850553
0.850553
0.850553
0.850553
0.850554
0.850554
0.850554
0.850554
0.850555
0.850555
0.850555
0.850556
0.850556
0.850556
0.850556
0.850557
0.850557
0.850557
0.850557
0.850558
0.850558
0.850559
0.850559
0.850559
0.850559
0.85056
0.85056
0.85056
0.850561
0.850561
0.850562
0.850562
0.850562
0.850563
0.850563
0.850564
0.850564
0.850564
0.850565
0.850565
0.850566
0.850566
0.850566
0.850567
0.850567
0.850568
0.850568
0.850568
0.850569
0.850569
0.85057
0.85057
0.85057
0.850571
0.850572
0.850572
0.850573
0.850573
0.850573
0.850574
0.850575
0.850575
0.850575
0.850576
0.850577
0.850577
0.850578
0.850578
0.850578
0.850579
0.85058
0.850581
0.850581
0.850581
0.850582
0.850583
0.850583
0.850583
0.850584
0.850585
0.850586
0.850586
0.850586
0.850587
0.850588
0.850589
0.850589
0.850589
0.85059
0.850591
0.850592
0.850592
0.850592
0.850593
0.850594
0.850595
0.850596
0.850596
0.850597
0.850597
0.850598
0.850599
0.850599
0.8506
0.850601
0.850602
0.850603
0.850603
0.850604
0.850604
0.850605
0.850606
0.850606
0.850607
0.850608
0.850609
0.85061
0.85061
0.850611
0.850612
0.850613
0.850614
0.850614
0.850615
0.850616
0.850617
0.850618
0.850618
0.850619
0.85062
0.850621
0.850622
0.850622
0.850623
0.850624
0.850625
0.850626
0.850626
0.850627
0.850628
0.850629
0.85063
0.85063
0.850632
0.850633
0.850634
0.850635
0.850635
0.850636
0.850637
0.850638
0.850639
0.850639
0.850641
0.850642
0.850643
0.850644
0.850644
0.850645
0.850646
0.850648
0.850649
0.850649
0.85065
0.850651
0.850653
0.850654
0.850654
0.850655
0.850656
0.850658
0.850659
0.850659
0.85066
0.850661
0.850663
0.850664
0.850664
0.850665
0.850666
0.850668
0.850669
0.850669
0.85067
0.850672
0.850673
0.850674
0.850674
0.850676
0.850677
0.850679
0.85068
0.85068
0.850681
0.850683
0.850684
0.850686
0.850686
0.850687
0.850688
0.85069
0.850691
0.850691
0.850693
0.850694
0.850696
0.850697
0.850697
0.850698
0.8507
0.850701
0.850703
0.850703
0.850704
0.850706
0.850707
0.850709
0.850709
0.85071
0.850712
0.850714
0.850715
0.850715
0.850717
0.850718
0.85072
0.850721
0.850721
0.850723
0.850725
0.850726
0.850728
0.850728
0.850729
0.850731
0.850733
0.850734
0.850734
0.850736
0.850738
0.850739
0.850741
0.850741
0.850743
0.850744
0.850746
0.850748
0.850748
0.850749
0.850751
0.850753
0.850754
0.850754
0.850756
0.850758
0.85076
0.850761
0.850761
0.850763
0.850765
0.850767
0.850768
0.850768
0.85077
0.850772
0.850774
0.850776
0.850776
0.850777
0.850779
0.850781
0.850783
0.850783
0.850785
0.850787
0.850788
0.85079
0.85079
0.850792
0.850794
0.850796
0.850798
0.850798
0.8508
0.850802
0.850804
0.850806
0.850806
0.850807
0.850809
0.850811
0.850813
0.850813
0.850815
0.850817
0.850819
0.850821
0.850821
0.850823
0.850825
0.850827
0.850829
0.850829
0.850831
0.850833
0.850835
0.850837
0.850837
0.850839
0.850841
0.850843
0.850845
0.850845
0.850848
0.85085
0.850852
0.850854
0.850854
0.850856
0.850858
0.85086
0.850862
0.850862
0.850864
0.850867
0.850869
0.850871
0.850871
0.850873
0.850875
0.850877
0.850879
0.850879
0.850882
0.850884
0.850886
0.850888
0.850888
0.85089
0.850893
0.850895
0.850897
0.850897
0.850899
0.850902
0.850904
0.850906
0.850906
0.850908
0.850911
0.850913
0.850915
0.850915
0.850918
0.85092
0.850922
0.850925
0.850925
0.850927
0.850929
0.850932
0.850934
0.850934
0.850936
0.850939
0.850941
0.850943
0.850943
0.850946
0.850948
0.850951
0.850953
0.850953
0.850955
0.850958
0.85096
0.850963
0.850963
0.850965
0.850968
0.85097
0.850973
0.850973
0.850975
0.850977
0.85098
0.850982
0.850982
0.850985
0.850987
0.85099
0.850993
0.850993
0.850995
0.850998
0.851
0.851003
0.851003
0.851005
0.851008
0.85101
0.851013
0.851013
0.851016
0.851018
0.851021
0.851023
0.851023
0.851026
0.851029
0.851031
0.851034
0.851034
0.851036
0.851039
0.851042
0.851044
0.851044
0.851047
0.85105
0.851052
0.851055
0.851055
0.851058
0.851061
0.851063
0.851066
0.851066
0.851069
0.851072
0.851074
0.851077
0.851077
0.85108
0.851083
0.851085
0.851088
0.851088
0.851091
0.851094
0.851096
0.851099
0.851099
0.851102
0.851105
0.851108
0.851111
0.851111
0.851113
0.851116
0.851119
0.851122
0.851122
0.851125
0.851128
0.851131
0.851134
0.851134
0.851136
0.851139
0.851142
0.851145
0.851145
0.851148
0.851151
0.851154
0.851157
0.851157
0.85116
0.851163
0.851166
0.851169
0.851169
0.851172
0.851175
0.851178
0.851181
0.851181
0.851184
0.851187
0.85119
0.851193
0.851193
0.851196
0.851199
0.851202
0.851205
0.851205
0.851208
0.851211
0.851214
0.851217
0.851217
0.851221
0.851224
0.851227
0.85123
0.85123
0.851233
0.851236
0.851239
0.851242
0.851242
0.851246
0.851249
0.851252
0.851255
0.851255
0.851258
0.851261
0.851265
0.851268
0.851268
0.851271
0.851274
0.851278
0.851281
0.851281
0.851284
0.851287
0.851291
0.851294
0.851294
0.851297
0.8513
0.851304
0.851307
0.851307
0.85131
0.851314
0.851317
0.85132
0.85132
0.851323
0.851327
0.85133
0.851334
0.851334
0.851337
0.85134
0.851344
0.851347
0.851347
0.85135
0.851354
0.851357
0.851361
0.851361
0.851364
0.851367
0.851371
0.851374
0.851374
0.851378
0.851381
0.851385
0.851388
0.851388
0.851392
0.851395
0.851399
0.851402
0.851402
0.851405
0.851409
0.851413
0.851416
0.851416
0.85142
0.851423
0.851427
0.85143
0.85143
0.851434
0.851437
0.851441
0.851444
0.851444
0.851448
0.851452
0.851455
0.851459
0.851459
0.851462
0.851466
0.85147
0.851473
0.851473
0.851477
0.851481
0.851484
0.851488
0.851488
0.851492
0.851495
0.851499
0.851503
0.851503
0.851506
0.85151
0.851514
0.851517
0.851517
0.851521
0.851525
0.851529
0.851532
0.851532
0.851536
0.85154
0.851544
0.851547
0.851547
0.851551
0.851555
0.851559
0.851563
0.851563
0.851566
0.85157
0.851574
0.851578
0.851578
0.851582
0.851586
0.851589
0.851593
0.851593
0.851597
0.851601
0.851605
0.851609
0.851609
0.851613
0.851617
0.851621
0.851624
0.851624
0.851628
0.851632
0.851636
0.85164
0.85164
0.851644
0.851648
0.851652
0.851656
0.851656
0.85166
0.851664
0.851668
0.851672
0.851672
0.851676
0.85168
0.851684
0.851688
0.851688
0.851692
0.851696
0.8517
0.851704
0.851704
0.851708
0.851712
0.851716
0.851721
0.851721
0.851725
0.851729
0.851733
0.851737
0.851737
0.851741
0.851745
0.851749
0.851754
0.851754
0.851758
0.851762
0.851766
0.85177
0.85177
0.851774
0.851779
0.851783
0.851787
0.851787
0.851791
0.851795
0.8518
0.851804
0.851804
0.851808
0.851812
0.851817
0.851821
0.851821
0.851825
0.851829
0.851834
0.851838
0.851838
0.851842
0.851846
0.851851
0.851855
0.851855
0.851859
0.851864
0.851868
0.851872
0.851872
0.851877
0.851881
0.851885
0.85189
0.85189
0.851894
0.851899
0.851903
0.851907
0.851907
0.851912
0.851916
0.851921
0.851925
0.851925
0.851929
0.851934
0.851938
0.851943
0.851943
0.851947
0.851952
0.851956
0.851961
0.851961
0.851965
0.85197
0.851974
0.851979
0.851979
0.851983
0.851988
0.851992
0.851997
0.851997
0.852001
0.852006
0.85201
0.852015
0.852015
0.85202
0.852024
0.852029
0.852033
0.852033
0.852038
0.852043
0.852047
0.852052
0.852052
0.852056
0.852061
0.852066
0.85207
0.85207
0.852075
0.85208
0.852084
0.852089
0.852089
0.852094
0.852098
0.852103
0.852108
0.852108
0.852112
0.852117
0.852122
0.852127
0.852127
0.852131
0.852136
0.852141
0.852146
0.852146
0.85215
0.852155
0.85216
0.852165
0.852165
0.85217
0.852174
0.852179
0.852184
0.852184
0.852189
0.852194
0.852199
0.852203
0.852203
0.852208
0.852213
0.852218
0.852223
0.852223
0.852228
0.852233
0.852238
0.852242
0.852242
0.852247
0.852252
0.852257
0.852262
0.852262
0.852267
0.852272
0.852277
0.852282
0.852282
0.852287
0.852292
0.852297
0.852302
0.852302
0.852307
0.852312
0.852317
0.852322
0.852322
0.852327
0.852332
0.852337
0.852342
0.852342
0.852347
0.852352
0.852357
0.852362
0.852362
0.852367
0.852372
0.852377
0.852383
0.852383
0.852388
0.852393
0.852398
0.852403
0.852403
0.852408
0.852413
0.852418
0.852424
0.852424
0.852429
0.852434
0.852439
0.852444
0.852444
0.852449
0.852455
0.85246
0.852465
0.852465
0.85247
0.852475
0.852481
0.852486
0.852486
0.852491
0.852496
0.852502
0.852507
0.852507
0.852512
0.852518
0.852523
0.852528
0.852528
0.852533
0.852539
0.852544
0.852549
0.852549
0.852555
0.85256
0.852565
0.852571
0.852571
0.852576
0.852581
0.852587
0.852592
0.852592
0.852597
0.852602
0.852608
0.852613
0.852613
0.852618
0.852624
0.852629
0.852634
0.852634
0.852639
0.852645
0.85265
0.852655
0.852655
0.852661
0.852666
0.852672
0.852677
0.852677
0.852683
0.852688
0.852694
0.8527
0.8527
0.852706
0.852711
0.852717
0.852723
0.852723
0.852728
0.852734
0.85274
0.852745
0.852745
0.852751
0.852756
0.852762
0.852768
0.852768
0.852773
0.852779
0.852785
0.85279
0.85279
0.852796
0.852802
0.852807
0.852813
0.852813
0.852819
0.852824
0.85283
0.852836
0.852836
0.852841
0.852847
0.852853
0.852859
0.852859
0.852864
0.85287
0.852876
0.852881
0.852881
0.852887
0.852893
0.852899
0.852904
0.852904
0.85291
0.852916
0.852922
0.852928
0.852928
0.852933
0.852939
0.852945
0.852951
0.852951
0.852957
0.852963
0.852968
0.852974
0.852974
0.85298
0.852986
0.852992
0.852998
0.852998
0.853004
0.853009
0.853015
0.853021
0.853021
0.853027
0.853033
0.853039
0.853045
0.853045
0.853051
0.853057
0.853063
0.853069
0.853069
0.853075
0.853081
0.853087
0.853093
0.853093
0.853099
0.853105
0.853111
0.853117
0.853117
0.853123
0.853129
0.853135
0.853141
0.853141
0.853147
0.853153
0.853159
0.853165
0.853165
0.853171
0.853177
0.853183
0.853189
0.853189
0.853196
0.853202
0.853208
0.853214
0.853214
0.85322
0.853226
0.853232
0.853239
0.853239
0.853245
0.853251
0.853257
0.853263
0.853263
0.853269
0.853276
0.853282
0.853288
0.853288
0.853294
0.8533
0.853307
0.853313
0.853313
0.853319
0.853325
0.853332
0.853338
0.853338
0.853344
0.853351
0.853357
0.853363
0.853363
0.853369
0.853376
0.853382
0.853388
0.853388
0.853395
0.853401
0.853407
0.853414
0.853414
0.85342
0.853426
0.853433
0.853439
0.853439
0.853446
0.853452
0.853458
0.853465
0.853465
0.853471
0.853478
0.853484
0.85349
0.85349
0.853497
0.853503
0.85351
0.853516
0.853516
0.853523
0.853529
0.853536
0.853542
0.853542
0.853549
0.853555
0.853562
0.853568
0.853568
0.853575
0.853581
0.853588
0.853594
0.853594
0.853601
0.853607
0.853614
0.853621
0.853621
0.853627
0.853634
0.85364
0.853647
0.853647
0.853653
0.85366
0.853667
0.853673
0.853673
0.85368
0.853687
0.853693
0.8537
0.8537
0.853707
0.853713
0.85372
0.853727
0.853727
0.853733
0.85374
0.853747
0.853753
0.853753
0.85376
0.853767
0.853774
0.85378
0.85378
0.853787
0.853794
0.8538
0.853807
0.853807
0.853814
0.853821
0.853828
0.853834
0.853834
0.853841
0.853848
0.853855
0.853862
0.853862
0.853868
0.853875
0.853882
0.853889
0.853889
0.853896
0.853903
0.85391
0.853916
0.853916
0.853923
0.85393
0.853937
0.853944
0.853944
0.853951
0.853958
0.853965
0.853972
0.853972
0.853979
0.853985
0.853992
0.853999
0.853999
0.854006
0.854013
0.85402
0.854027
0.854027
0.854034
0.854041
0.854048
0.854055
0.854055
0.854062
0.854069
0.854076
0.854083
0.854083
0.85409
0.854097
0.854104
0.854112
0.854112
0.854119
0.854126
0.854133
0.85414
0.85414
0.854147
0.854154
0.854161
0.854168
0.854168
0.854175
0.854183
0.85419
0.854197
0.854197
0.854204
0.854211
0.854218
0.854225
0.854225
0.854233
0.85424
0.854247
0.854254
0.854254
0.854261
0.854269
0.854276
0.854283
0.854283
0.85429
0.854298
0.854305
0.854312
0.854312
0.854319
0.854327
0.854334
0.854341
0.854341
0.854348
0.854356
0.854363
0.85437
0.85437
0.854378
0.854385
0.854392
0.8544
0.8544
0.854407
0.854414
0.854422
0.854429
0.854429
0.854436
0.854444
0.854451
0.854459
0.854459
0.854466
0.854473
0.854481
0.854488
0.854488
0.854496
0.854503
0.854511
0.854518
0.854518
0.854525
0.854533
0.85454
0.854548
0.854548
0.854555
0.854563
0.85457
0.854578
0.854578
0.854585
0.854593
0.8546
0.854608
0.854608
0.854615
0.854623
0.85463
0.854638
0.854638
0.854646
0.854653
0.854661
0.854668
0.854668
0.854676
0.854683
0.854691
0.854699
0.854699
0.854706
0.854714
0.854722
0.854729
0.854729
0.854737
0.854744
0.854752
0.85476
0.85476
0.854767
0.854775
0.854783
0.85479
0.85479
0.854798
0.854806
0.854814
0.854821
0.854821
0.854829
0.854837
0.854844
0.854852
0.854852
0.85486
0.854868
0.854875
0.854883
0.854883
0.854891
0.854899
0.854907
0.854914
0.854914
0.854922
0.85493
0.854938
0.854946
0.854946
0.854953
0.854961
0.854969
0.854977
0.854977
0.854985
0.854993
0.855001
0.855008
0.855008
0.855016
0.855024
0.855032
0.85504
0.85504
0.855048
0.855056
0.855064
0.855072
0.855072
0.85508
0.855088
0.855096
0.855104
0.855104
0.855111
0.855119
0.855127
0.855135
0.855135
0.855143
0.855151
0.855159
0.855167
0.855167
0.855175
0.855183
0.855192
0.8552
0.8552
0.855208
0.855216
0.855224
0.855232
0.855232
0.85524
0.855248
0.855256
0.855264
0.855264
0.855272
0.85528
0.855288
0.855297
0.855297
0.855305
0.855313
0.855321
0.855329
0.855329
0.855337
0.855345
0.855354
0.855362
0.855362
0.85537
0.855378
0.855386
0.855395
0.855395
0.855403
0.855411
0.855419
0.855427
0.855427
0.855436
0.855444
0.855452
0.85546
0.85546
0.855469
0.855477
0.855485
0.855493
0.855493
0.855502
0.85551
0.855518
0.855527
0.855527
0.855535
0.855543
0.855552
0.85556
0.85556
0.855568
0.855577
0.855585
0.855593
0.855593
0.855602
0.85561
0.855618
0.855627
0.855627
0.855635
0.855644
0.855652
0.85566
0.85566
0.855669
0.855677
0.855686
0.855694
0.855694
0.855703
0.855711
0.85572
0.855728
0.855728
0.855736
0.855745
0.855753
0.855762
0.855762
0.85577
0.855779
0.855787
0.855796
0.855796
0.855805
0.855813
0.855822
0.85583
0.85583
0.855839
0.855847
0.855856
0.855864
0.855864
0.855873
0.855882
0.85589
0.855899
0.855899
0.855907
0.855916
0.855925
0.855933
0.855933
0.855942
0.855951
0.855959
0.855968
0.855968
0.855976
0.855985
0.855994
0.856003
0.856003
0.856011
0.85602
0.856029
0.856037
0.856037
0.856046
0.856055
0.856063
0.856072
0.856072
0.856081
0.85609
0.856098
0.856107
0.856107
0.856116
0.856125
0.856134
0.856142
0.856142
0.856151
0.85616
0.856169
0.856178
0.856178
0.856186
0.856195
0.856204
0.856213
0.856213
0.856222
0.856231
0.856239
0.856248
0.856248
0.856257
0.856266
0.856275
0.856284
0.856284
0.856293
0.856302
0.856311
0.856319
0.856319
0.856328
0.856337
0.856346
0.856355
0.856355
0.856364
0.856373
0.856382
0.856391
0.856391
0.8564
0.856409
0.856418
0.856427
0.856427
0.856436
0.856445
0.856454
0.856463
0.856463
0.856472
0.856481
0.85649
0.856499
0.856499
0.856508
0.856517
0.856527
0.856536
0.856536
0.856545
0.856554
0.856563
0.856572
0.856572
0.856581
0.85659
0.856599
0.856608
0.856608
0.856618
0.856627
0.856636
0.856645
0.856645
0.856654
0.856663
0.856673
0.856682
0.856682
0.856691
0.8567
0.856709
0.856719
0.856719
0.856728
0.856737
0.856746
0.856755
0.856755
0.856765
0.856774
0.856783
0.856793
0.856793
0.856802
0.856811
0.85682
0.85683
0.85683
0.856839
0.856848
0.856858
0.856867
0.856867
0.856876
0.856886
0.856895
0.856904
0.856904
0.856914
0.856923
0.856932
0.856942
0.856942
0.856951
0.85696
0.85697
0.856979
0.856979
0.856989
0.856998
0.857007
0.857017
0.857017
0.857026
0.857036
0.857045
0.857055
0.857055
0.857064
0.857074
0.857083
0.857092
0.857092
0.857102
0.857111
0.857121
0.85713
0.85713
0.85714
0.857149
0.857159
0.857168
0.857168
0.857178
0.857188
0.857197
0.857207
0.857207
0.857216
0.857226
0.857235
0.857245
0.857245
0.857255
0.857264
0.857274
0.857283
0.857283
0.857293
0.857303
0.857312
0.857322
0.857322
0.857331
0.857341
0.857351
0.85736
0.85736
0.85737
0.85738
0.857389
0.857399
0.857399
0.857409
0.857419
0.857428
0.857438
0.857438
0.857448
0.857457
0.857467
0.857477
0.857477
0.857487
0.857496
0.857506
0.857516
0.857516
0.857526
0.857535
0.857545
0.857555
0.857555
0.857565
0.857575
0.857584
0.857594
0.857594
0.857604
0.857614
0.857624
0.857634
0.857634
0.857643
0.857653
0.857663
0.857673
0.857673
0.857683
0.857693
0.857703
0.857713
0.857713
0.857722
0.857732
0.857742
0.857752
0.857752
0.857762
0.857772
0.857782
0.857792
0.857792
0.857802
0.857812
0.857822
0.857832
0.857832
0.857842
0.857852
0.857862
0.857872
0.857872
0.857882
0.857892
0.857902
0.857912
0.857912
0.857922
0.857932
0.857942
0.857952
0.857952
0.857962
0.857972
0.857982
0.857992
0.857992
0.858002
0.858012
0.858022
0.858032
0.858032
0.858043
0.858053
0.858063
0.858073
0.858073
0.858083
0.858093
0.858103
0.858113
0.858113
0.858123
0.858133
0.858143
0.858154
0.858154
0.858164
0.858174
0.858184
0.858194
0.858194
0.858204
0.858214
0.858224
0.858234
0.858234
0.858244
0.858254
0.858264
0.858274
0.858274
0.858284
0.858294
0.858305
0.858315
0.858315
0.858326
0.858336
0.858347
0.858357
0.858357
0.858368
0.858378
0.858389
0.858399
0.858399
0.85841
0.85842
0.858431
0.858441
0.858441
0.858452
0.858462
0.858473
0.858483
0.858483
0.858494
0.858504
0.858514
0.858525
0.858525
0.858535
0.858546
0.858556
0.858567
0.858567
0.858577
0.858588
0.858598
0.858609
0.858609
0.858619
0.85863
0.85864
0.858651
0.858651
0.858661
0.858672
0.858682
0.858693
0.858693
0.858703
0.858714
0.858724
0.858735
0.858735
0.858745
0.858756
0.858766
0.858777
0.858777
0.858787
0.858798
0.858809
0.858819
0.858819
0.85883
0.85884
0.858851
0.858862
0.858862
0.858872
0.858883
0.858894
0.858904
0.858904
0.858915
0.858926
0.858936
0.858947
0.858947
0.858958
0.858968
0.858979
0.85899
0.85899
0.859
0.859011
0.859022
0.859032
0.859032
0.859043
0.859054
0.859065
0.859075
0.859075
0.859086
0.859097
0.859108
0.859118
0.859118
0.859129
0.85914
0.859151
0.859162
0.859162
0.859172
0.859183
0.859194
0.859205
0.859205
0.859216
0.859227
0.859237
0.859248
0.859248
0.859259
0.85927
0.859281
0.859292
0.859292
0.859303
0.859314
0.859324
0.859335
0.859335
0.859346
0.859357
0.859368
0.859379
0.859379
0.85939
0.859401
0.859412
0.859423
0.859423
0.859434
0.859445
0.859456
0.859467
0.859467
0.859478
0.859489
0.8595
0.859511
0.859511
0.859522
0.859533
0.859544
0.859555
0.859555
0.859566
0.859577
0.859588
0.859599
0.859599
0.85961
0.859621
0.859632
0.859643
0.859643
0.859654
0.859665
0.859676
0.859688
0.859688
0.859699
0.85971
0.859721
0.859732
0.859732
0.859743
0.859754
0.859765
0.859777
0.859777
0.859788
0.859799
0.85981
0.859821
0.859821
0.859833
0.859844
0.859855
0.859866
0.859866
0.859877
0.859889
0.8599
0.859911
0.859911
0.859922
0.859933
0.859945
0.859956
0.859956
0.859967
0.859979
0.85999
0.860001
0.860001
0.860012
0.860024
0.860035
0.860046
0.860046
0.860058
0.860069
0.86008
0.860092
0.860092
0.860103
0.860114
0.860126
0.860137
0.860137
0.860148
0.86016
0.860171
0.860183
0.860183
0.860194
0.860205
0.860217
0.860228
0.860228
0.86024
0.860251
0.860262
0.860274
0.860274
0.860285
0.860297
0.860308
0.86032
0.86032
0.860331
0.860343
0.860354
0.860366
0.860366
0.860377
0.860389
0.8604
0.860412
0.860412
0.860423
0.860435
0.860446
0.860458
0.860458
0.860469
0.860481
0.860492
0.860504
0.860504
0.860515
0.860527
0.860539
0.86055
0.86055
0.860562
0.860573
0.860585
0.860597
0.860597
0.860608
0.86062
0.860631
0.860643
0.860643
0.860655
0.860666
0.860678
0.86069
0.86069
0.860701
0.860713
0.860725
0.860736
0.860736
0.860748
0.86076
0.860772
0.860783
0.860783
0.860795
0.860807
0.860818
0.86083
0.86083
0.860842
0.860854
0.860865
0.860877
0.860877
0.860889
0.860901
0.860913
0.860924
0.860924
0.860936
0.860948
0.86096
0.860972
0.860972
0.860983
0.860995
0.861007
0.861019
0.861019
0.861031
0.861043
0.861054
0.861066
0.861066
0.861078
0.86109
0.861102
0.861114
0.861114
0.861126
0.861138
0.86115
0.861161
0.861161
0.861173
0.861185
0.861197
0.861209
0.861209
0.861221
0.861233
0.861245
0.861257
0.861257
0.861269
0.861281
0.861293
0.861305
0.861305
0.861317
0.861329
0.861341
0.861353
0.861353
0.861365
0.861377
0.861389
0.861401
0.861401
0.861413
0.861425
0.861437
0.861449
0.861449
0.861461
0.861473
0.861486
0.861498
0.861498
0.86151
0.861522
0.861534
0.861546
0.861546
0.861558
0.86157
0.861582
0.861595
0.861595
0.861607
0.861619
0.861631
0.861643
0.861643
0.861655
0.861668
0.86168
0.861692
0.861692
0.861704
0.861716
0.861729
0.861741
0.861741
0.861753
0.861765
0.861777
0.86179
0.86179
0.861802
0.861814
0.861826
0.861839
0.861839
0.861851
0.861863
0.861876
0.861888
0.861888
0.8619
0.861912
0.861925
0.861937
0.861937
0.861949
0.861962
0.861974
0.861986
0.861986
0.861999
0.862011
0.862023
0.862036
0.862036
0.862048
0.862061
0.862073
0.862085
0.862085
0.862098
0.86211
0.862122
0.862135
0.862135
0.862147
0.86216
0.862172
0.862185
0.862185
0.862197
0.86221
0.862222
0.862234
0.862234
0.862247
0.862259
0.862272
0.862284
0.862284
0.862297
0.862309
0.862322
0.862334
0.862334
0.862347
0.862359
0.862372
0.862384
0.862384
0.862397
0.86241
0.862422
0.862435
0.862435
0.862447
0.86246
0.862472
0.862485
0.862485
0.862498
0.86251
0.862523
0.862535
0.862535
0.862548
0.862561
0.862573
0.862586
0.862586
0.862599
0.862611
0.862624
0.862637
0.862637
0.862649
0.862662
0.862675
0.862687
0.862687
0.8627
0.862713
0.862725
0.862738
0.862738
0.862751
0.862764
0.862776
0.862789
0.862789
0.862802
0.862814
0.862827
0.86284
0.86284
0.862853
0.862866
0.862878
0.862891
0.862891
0.862904
0.862917
0.862929
0.862942
0.862942
0.862955
0.862968
0.862981
0.862994
0.862994
0.863006
0.863019
0.863032
0.863045
0.863045
0.863058
0.863071
0.863084
0.863096
0.863096
0.863109
0.863122
0.863135
0.863148
0.863148
0.863161
0.863174
0.863187
0.8632
0.8632
0.863213
0.863226
0.863239
0.863252
0.863252
0.863265
0.863277
0.86329
0.863303
0.863303
0.863316
0.863329
0.863342
0.863355
0.863355
0.863368
0.863381
0.863394
0.863407
0.863407
0.863421
0.863434
0.863447
0.86346
0.86346
0.863473
0.863486
0.863499
0.863512
0.863512
0.863525
0.863538
0.863551
0.863564
0.863564
0.863577
0.86359
0.863603
0.863617
0.863617
0.86363
0.863643
0.863656
0.863669
0.863669
0.863682
0.863695
0.863708
0.863721
0.863721
0.863734
0.863747
0.86376
0.863773
0.863773
0.863786
0.863799
0.863812
0.863825
0.863825
0.863838
0.863851
0.863864
0.863877
0.863877
0.86389
0.863904
0.863917
0.863931
0.863931
0.863944
0.863958
0.863971
0.863985
0.863985
0.863998
0.864012
0.864025
0.864039
0.864039
0.864052
0.864066
0.864079
0.864093
0.864093
0.864106
0.86412
0.864133
0.864147
0.864147
0.86416
0.864173
0.864187
0.8642
0.8642
0.864214
0.864227
0.864241
0.864254
0.864254
0.864267
0.864281
0.864294
0.864308
0.864308
0.864321
0.864335
0.864348
0.864362
0.864362
0.864375
0.864389
0.864402
0.864416
0.864416
0.864429
0.864443
0.864456
0.86447
0.86447
0.864483
0.864497
0.86451
0.864524
0.864524
0.864537
0.864551
0.864564
0.864578
0.864578
0.864592
0.864605
0.864619
0.864632
0.864632
0.864646
0.86466
0.864673
0.864687
0.864687
0.8647
0.864714
0.864728
0.864741
0.864741
0.864755
0.864769
0.864782
0.864796
0.864796
0.86481
0.864823
0.864837
0.864851
0.864851
0.864864
0.864878
0.864892
0.864905
0.864905
0.864919
0.864933
0.864947
0.86496
0.86496
0.864974
0.864988
0.865002
0.865015
0.865015
0.865029
0.865043
0.865057
0.86507
0.86507
0.865084
0.865098
0.865112
0.865126
0.865126
0.865139
0.865153
0.865167
0.865181
0.865181
0.865195
0.865209
0.865222
0.865236
0.865236
0.86525
0.865264
0.865278
0.865292
0.865292
0.865306
0.865319
0.865333
0.865347
0.865347
0.865361
0.865375
0.865389
0.865403
0.865403
0.865417
0.865431
0.865445
0.865459
0.865459
0.865473
0.865487
0.865501
0.865515
0.865515
0.865529
0.865543
0.865557
0.865571
0.865571
0.865585
0.865599
0.865613
0.865627
0.865627
0.865641
0.865655
0.865669
0.865683
0.865683
0.865697
0.865711
0.865725
0.865739
0.865739
0.865753
0.865767
0.865781
0.865795
0.865795
0.865809
0.865824
0.865838
0.865852
0.865852
0.865866
0.86588
0.865894
0.865908
0.865908
0.865922
0.865937
0.865951
0.865965
0.865965
0.865979
0.865993
0.866007
0.866022
0.866022
0.866036
0.86605
0.866064
0.866078
0.866078
0.866093
0.866107
0.866121
0.866135
0.866135
0.86615
0.866164
0.866178
0.866192
0.866192
0.866207
0.866221
0.866235
0.86625
0.86625
0.866264
0.866278
0.866292
0.866307
0.866307
0.866321
0.866335
0.86635
0.866364
0.866364
0.866378
0.866393
0.866407
0.866421
0.866421
0.866436
0.86645
0.866465
0.866479
0.866479
0.866493
0.866508
0.866522
0.866536
0.866536
0.866551
0.866565
0.86658
0.866594
0.866594
0.866609
0.866623
0.866637
0.866652
0.866652
0.866666
0.866681
0.866695
0.86671
0.86671
0.866724
0.866739
0.866753
0.866768
0.866768
0.866782
0.866797
0.866811
0.866826
0.866826
0.86684
0.866855
0.866869
0.866884
0.866884
0.866898
0.866913
0.866928
0.866942
0.866942
0.866957
0.866971
0.866986
0.867001
0.867001
0.867015
0.86703
0.867044
0.867059
0.867059
0.867074
0.867088
0.867103
0.867117
0.867117
0.867132
0.867147
0.867161
0.867176
0.867176
0.867191
0.867205
0.86722
0.867235
0.867235
0.867249
0.867264
0.867279
0.867294
0.867294
0.867308
0.867323
0.867338
0.867353
0.867353
0.867367
0.867382
0.867397
0.867412
0.867412
0.867426
0.867441
0.867456
0.867471
0.867471
0.867485
0.8675
0.867515
0.86753
0.86753
0.867545
0.867559
0.867574
0.867589
0.867589
0.867604
0.867619
0.867634
0.867648
0.867648
0.867663
0.867678
0.867693
0.867708
0.867708
0.867723
0.867738
0.867753
0.867767
0.867767
0.867782
0.867797
0.867812
0.867827
0.867827
0.867842
0.867857
0.867872
0.867887
0.867887
0.867902
0.867917
0.867932
0.867947
0.867947
0.867962
0.867977
0.867992
0.868007
0.868007
0.868022
0.868037
0.868052
0.868067
0.868067
0.868082
0.868097
0.868112
0.868127
0.868127
0.868142
0.868157
0.868172
0.868187
0.868187
0.868202
0.868217
0.868232
0.868247
0.868247
0.868262
0.868277
0.868293
0.868308
0.868308
0.868323
0.868338
0.868353
0.868368
0.868368
0.868383
0.868398
0.868414
0.868429
0.868429
0.868444
0.868459
0.868474
0.868489
0.868489
0.868505
0.86852
0.868535
0.86855
0.86855
0.868565
0.868581
0.868596
0.868611
0.868611
0.868626
0.868642
0.868657
0.868672
0.868672
0.868687
0.868703
0.868718
0.868733
0.868733
0.868748
0.868764
0.868779
0.868794
0.868794
0.86881
0.868825
0.86884
0.868855
0.868855
0.868871
0.868886
0.868901
0.868917
0.868917
0.868932
0.868947
0.868963
0.868978
0.868978
0.868994
0.869009
0.869024
0.86904
0.86904
0.869055
0.86907
0.869086
0.869101
0.869101
0.869116
0.869132
0.869147
0.869162
0.869162
0.869178
0.869193
0.869208
0.869224
0.869224
0.869239
0.869254
0.869269
0.869285
0.869285
0.8693
0.869315
0.86933
0.869346
0.869346
0.869361
0.869376
0.869391
0.869407
0.869407
0.869422
0.869438
0.869454
0.869469
0.869469
0.869485
0.869501
0.869517
0.869533
0.869533
0.869548
0.869564
0.86958
0.869596
0.869596
0.869612
0.869628
0.869643
0.869659
0.869659
0.869675
0.869691
0.869706
0.869722
0.869722
0.869738
0.869753
0.869769
0.869785
0.869785
0.869801
0.869816
0.869832
0.869848
0.869848
0.869863
0.869879
0.869895
0.869911
0.869911
0.869926
0.869942
0.869958
0.869973
0.869973
0.869989
0.870005
0.870021
0.870036
0.870036
0.870052
0.870068
0.870084
0.870099
0.870099
0.870115
0.870131
0.870147
0.870163
0.870163
0.870178
0.870194
0.87021
0.870226
0.870226
0.870242
0.870258
0.870273
0.870289
0.870289
0.870305
0.870321
0.870337
0.870353
0.870353
0.870369
0.870384
0.8704
0.870416
0.870416
0.870432
0.870448
0.870464
0.87048
0.87048
0.870496
0.870512
0.870528
0.870544
0.870544
0.87056
0.870575
0.870591
0.870607
0.870607
0.870623
0.870639
0.870655
0.870671
0.870671
0.870687
0.870703
0.870719
0.870735
0.870735
0.870751
0.870767
0.870783
0.870799
0.870799
0.870815
0.870831
0.870847
0.870864
0.870864
0.87088
0.870896
0.870912
0.870928
0.870928
0.870944
0.87096
0.870976
0.870992
0.870992
0.871008
0.871024
0.87104
0.871057
0.871057
0.871073
0.871089
0.871105
0.871121
0.871121
0.871137
0.871153
0.87117
0.871186
0.871186
0.871202
0.871218
0.871234
0.87125
0.87125
0.871267
0.871283
0.871299
0.871315
0.871315
0.871331
0.871348
0.871364
0.87138
0.87138
0.871396
0.871413
0.871429
0.871445
0.871445
0.871461
0.871478
0.871494
0.87151
0.87151
0.871526
0.871543
0.871559
0.871575
0.871575
0.871592
0.871608
0.871624
0.871641
0.871641
0.871657
0.871673
0.87169
0.871706
0.871706
0.871722
0.871739
0.871755
0.871771
0.871771
0.871788
0.871804
0.87182
0.871837
0.871837
0.871853
0.87187
0.871886
0.871902
0.871902
0.871919
0.871935
0.871952
0.871968
0.871968
0.871985
0.872001
0.872017
0.872034
0.872034
0.87205
0.872067
0.872083
0.8721
0.8721
0.872116
0.872133
0.872149
0.872166
0.872166
0.872182
0.872199
0.872215
0.872232
0.872232
0.872248
0.872265
0.872281
0.872298
0.872298
0.872315
0.872331
0.872348
0.872364
0.872364
0.872381
0.872397
0.872414
0.872431
0.872431
0.872447
0.872464
0.87248
0.872497
0.872497
0.872514
0.87253
0.872547
0.872563
0.872563
0.87258
0.872597
0.872613
0.87263
0.87263
0.872647
0.872663
0.87268
0.872697
0.872697
0.872713
0.87273
0.872747
0.872764
0.872764
0.87278
0.872797
0.872814
0.87283
0.87283
0.872847
0.872864
0.872881
0.872897
0.872897
0.872914
0.872931
0.872948
0.872964
0.872964
0.872981
0.872998
0.873015
0.873031
0.873031
0.873048
0.873065
0.873082
0.873099
0.873099
0.873116
0.873132
0.873149
0.873166
0.873166
0.873183
0.8732
0.873217
0.873233
0.873233
0.87325
0.873267
0.873284
0.873301
0.873301
0.873318
0.873335
0.873352
0.873368
0.873368
0.873385
0.873402
0.873419
0.873436
0.873436
0.873453
0.87347
0.873487
0.873504
0.873504
0.873521
0.873538
0.873555
0.873572
0.873572
0.873589
0.873606
0.873623
0.87364
0.87364
0.873657
0.873674
0.873691
0.873708
0.873708
0.873725
0.873742
0.873759
0.873776
0.873776
0.873793
0.87381
0.873827
0.873844
0.873844
0.873861
0.873878
0.873895
0.873912
0.873912
0.873929
0.873946
0.873963
0.87398
0.87398
0.873998
0.874015
0.874032
0.874049
0.874049
0.874066
0.874083
0.8741
0.874117
0.874117
0.874135
0.874152
0.874169
0.874186
0.874186
0.874203
0.87422
0.874238
0.874255
0.874255
0.874272
0.874289
0.874306
0.874323
0.874323
0.874341
0.874358
0.874375
0.874392
0.874392
0.874409
0.874427
0.874444
0.874461
0.874461
0.874478
0.874495
0.874513
0.87453
0.87453
0.874547
0.874564
0.874581
0.874598
0.874598
0.874616
0.874633
0.87465
0.874667
0.874667
0.874684
0.874701
0.874718
0.874735
0.874735
0.874752
0.874769
0.874787
0.874804
0.874804
0.874821
0.874838
0.874856
0.874873
0.874873
0.87489
0.874908
0.874926