<?xml version="1.0"?>
<VTKFile type="UnstructuredGrid" version="0.1" byte_order="LittleEndian">
<UnstructuredGrid>
<Piece NumberOfPoints="5000" NumberOfCells="4000">
<PointData Scalars="Reaction 0">
<DataArray type="Float32" Name="Reaction 0" format="ascii">
0.443003
0.443003
0.443003
0.443003
0.443003
0.443003
0.443003
0.443003
0.443003
0.443004
0.443004
0.443004
0.443004
0.443004
0.443005
0.443005
0.443005
0.443006
0.443006
0.443006
0.443006
0.443007
0.443008
0.443008
0.443009
0.443009
0.443009
0.44301
0.443011
0.443011
0.443011
0.443012
0.443013
0.443014
0.443015
0.443015
0.443016
0.443016
0.443017
0.443018
0.443018
0.443019
0.44302
0.443022
0.443023
0.443023
0.443024
0.443025
0.443026
0.443027
0.443027
0.443029
0.44303
0.443031
0.443033
0.443033
0.443034
0.443035
0.443037
0.443038
0.443038
0.44304
0.443041
0.443043
0.443044
0.443044
0.443046
0.443048
0.443049
0.443051
0.443051
0.443053
0.443055
0.443057
0.443058
0.443058
0.44306
0.443062
0.443064
0.443066
0.443066
0.443068
0.44307
0.443072
0.443074
0.443074
0.443076
0.443079
0.443081
0.443083
0.443083
0.443085
0.443088
0.44309
0.443092
0.443092
0.443095
0.443097
0.443099
0.443102
0.443102
0.443104
0.443107
0.443109
0.443112
0.443112
0.443115
0.443117
0.44312
0.443123
0.443123
0.443125
0.443128
0.443131
0.443134
0.443134
0.443137
0.44314
0.443143
0.443146
0.443146
0.443149
0.443152
0.443155
0.443158
0.443158
0.443161
0.443164
0.443167
0.44317
0.44317
0.443174
0.443177
0.44318
0.443184
0.443184
0.443187
0.44319
0.443194
0.443197
0.443197
0.443201
0.443204
0.443208
0.443211
0.443211
0.443215
0.443219
0.443222
0.443226
0.443226
0.44323
0.443234
0.443237
0.443241
0.443241
0.443245
0.443249
0.443253
0.443257
0.443257
0.443261
0.443265
0.443269
0.443273
0.443273
0.443277
0.443281
0.443285
0.44329
0.44329
0.443294
0.443298
0.443302
0.443307
0.443307
0.443311
0.443316
0.44332
0.443324
0.443324
0.443329
0.443333
0.443338
0.443343
0.443343
0.443347
0.443352
0.443356
0.443361
0.443361
0.443366
0.443371
0.443375
0.44338
0.44338
0.443385
0.44339
0.443395
0.4434
0.4434
0.443405
0.44341
0.443415
0.44342
0.44342
0.443425
0.44343
0.443435
0.443441
0.443441
0.443446
0.443451
0.443456
0.443462
0.443462
0.443467
0.443473
0.443478
0.443483
0.443483
0.443489
0.443494
0.4435
0.443505
0.443505
0.443511
0.443517
0.443522
0.443528
0.443528
0.443534
0.44354
0.443545
0.443551
0.443551
0.443557
0.443563
0.443569
0.443575
0.443575
0.443581
0.443587
0.443593
0.443599
0.443599
0.443605
0.443611
0.443617
0.443623
0.443623
0.44363
0.443636
0.443642
0.443649
0.443649
0.443655
0.443661
0.443668
0.443674
0.443674
0.443681
0.443687
0.443694
0.4437
0.4437
0.443707
0.443714
0.44372
0.443727
0.443727
0.443734
0.44374
0.443747
0.443754
0.443754
0.443761
0.443768
0.443775
0.443782
0.443782
0.443789
0.443796
0.443803
0.44381
0.44381
0.443817
0.443824
0.443831
0.443838
0.443838
0.443845
0.443853
0.44386
0.443867
0.443867
0.443875
0.443882
0.443889
0.443897
0.443897
0.443904
0.443912
0.443919
0.443927
0.443927
0.443935
0.443942
0.44395
0.443957
0.443957
0.443965
0.443973
0.443981
0.443989
0.443989
0.443996
0.444004
0.444012
0.44402
0.44402
0.444028
0.444036
0.444044
0.444052
0.444052
0.44406
0.444068
0.444077
0.444085
0.444085
0.444093
0.444101
0.444109
0.444118
0.444118
0.444126
0.444135
0.444143
0.444151
0.444151
0.44416
0.444168
0.444177
0.444185
0.444185
0.444194
0.444203
0.444211
0.44422
0.44422
0.444229
0.444237
0.444246
0.444255
0.444255
0.444264
0.444273
0.444282
0.444291
0.444291
0.4443
0.444309
0.444318
0.444327
0.444327
0.444336
0.444345
0.444354
0.444363
0.444363
0.444372
0.444382
0.444391
0.4444
0.4444
0.44441
0.444419
0.444428
0.444438
0.444438
0.444447
0.444457
0.444466
0.444476
0.444476
0.444485
0.444495
0.444505
0.444514
0.444514
0.444524
0.444534
0.444544
0.444553
0.444553
0.444563
0.444573
0.444583
0.444593
0.444593
0.444603
0.444613
0.444623
0.444633
0.444633
0.444643
0.444653
0.444663
0.444673
0.444673
0.444684
0.444694
0.444704
0.444715
0.444715
0.444725
0.444735
0.444746
0.444756
0.444756
0.444767
0.444777
0.444788
0.444798
0.444798
0.444809
0.444819
0.44483
0.444841
0.444841
0.444851
0.444862
0.444873
0.444884
0.444884
0.444894
0.444905
0.444916
0.444927
0.444927
0.444938
0.444949
0.44496
0.444971
0.444971
0.444982
0.444993
0.445005
0.445016
0.445016
0.445027
0.445038
0.445049
0.445061
0.445061
0.445072
0.445083
0.445095
0.445106
0.445106
0.445118
0.445129
0.445141
0.445152
0.445152
0.445164
0.445176
0.445187
0.445199
0.445199
0.445211
0.445222
0.445234
0.445246
0.445246
0.445258
0.44527
0.445281
0.445293
0.445293
0.445305
0.445317
0.445329
0.445341
0.445341
0.445353
0.445366
0.445378
0.44539
0.44539
0.445402
0.445414
0.445427
0.445439
0.445439
0.445451
0.445464
0.445476
0.445488
0.445488
0.445501
0.445513
0.445526
0.445539
0.445539
0.445551
0.445564
0.445576
0.445589
0.445589
0.445602
0.445614
0.445627
0.44564
0.44564
0.445653
0.445666
0.445679
0.445692
0.445692
0.445705
0.445718
0.445731
0.445744
0.445744
0.445757
0.44577
0.445783
0.445796
0.445796
0.445809
0.445823
0.445836
0.445849
0.445849
0.445862
0.445876
0.445889
0.445903
0.445903
0.445916
0.44593
0.445943
0.445957
0.445957
0.44597
0.445984
0.445998
0.446011
0.446011
0.446025
0.446039
0.446052
0.446066
0.446066
0.44608
0.446094
0.446108
0.446122
0.446122
0.446136
0.44615
0.446164
0.446178
0.446178
0.446192
0.446206
0.44622
0.446234
0.446234
0.446249
0.446263
0.446277
0.446291
0.446291
0.446306
0.44632
0.446334
0.446349
0.446349
0.446363
0.446378
0.446392
0.446407
0.446407
0.446422
0.446436
0.446451
0.446465
0.446465
0.44648
0.446495
0.44651
0.446524
0.446524
0.446539
0.446554
0.446569
0.446584
0.446584
0.446599
0.446614
0.446629
0.446644
0.446644
0.446659
0.446674
0.446689
0.446705
0.446705
0.44672
0.446735
0.44675
0.446766
0.446766
0.446781
0.446796
0.446812
0.446827
0.446827
0.446843
0.446858
0.446874
0.446889
0.446889
0.446905
0.44692
0.446936
0.446952
0.446952
0.446967
0.446983
0.446999
0.447015
0.447015
0.447031
0.447047
0.447062
0.447078
0.447078
0.447094
0.44711
0.447126
0.447142
0.447142
0.447158
0.447175
0.447191
0.447207
0.447207
0.447223
0.447239
0.447256
0.447272
0.447272
0.447288
0.447305
0.447321
0.447338
0.447338
0.447354
0.447371
0.447387
0.447404
0.447404
0.44742
0.447437
0.447453
0.44747
0.44747
0.447487
0.447504
0.44752
0.447537
0.447537
0.447554
0.447571
0.447588
0.447605
0.447605
0.447622
0.447639
0.447656
0.447673
0.447673
0.44769
0.447707
0.447724
0.447741
0.447741
0.447759
0.447776
0.447793
0.447811
0.447811
0.447828
0.447845
0.447863
0.44788
0.44788
0.447898
0.447915
0.447933
0.44795
0.44795
0.447968
0.447985
0.448003
0.448021
0.448021
0.448038
0.448056
0.448074
0.448092
0.448092
0.44811
0.448128
0.448145
0.448163
0.448163
0.448181
0.448199
0.448217
0.448236
0.448236
0.448254
0.448272
0.44829
0.448308
0.448308
0.448326
0.448345
0.448363
0.448381
0.448381
0.4484
0.448418
0.448436
0.448455
0.448455
0.448473
0.448492
0.44851
0.448529
0.448529
0.448548
0.448566
0.448585
0.448604
0.448604
0.448622
0.448641
0.44866
0.448679
0.448679
0.448698
0.448716
0.448735
0.448754
0.448754
0.448773
0.448792
0.448811
0.44883
0.44883
0.44885
0.448869
0.448888
0.448907
0.448907
0.448926
0.448946
0.448965
0.448984
0.448984
0.449004
0.449023
0.449042
0.449062
0.449062
0.449081
0.449101
0.44912
0.44914
0.44914
0.44916
0.449179
0.449199
0.449219
0.449219
0.449238
0.449258
0.449278
0.449298
0.449298
0.449318
0.449338
0.449357
0.449377
0.449377
0.449397
0.449417
0.449437
0.449458
0.449458
0.449478
0.449498
0.449518
0.449538
0.449538
0.449558
0.449579
0.449599
0.449619
0.449619
0.44964
0.44966
0.449681
0.449701
0.449701
0.449722
0.449742
0.449763
0.449783
0.449783
0.449804
0.449825
0.449845
0.449866
0.449866
0.449887
0.449907
0.449928
0.449949
0.449949
0.44997
0.449991
0.450012
0.450033
0.450033
0.450054
0.450075
0.450096
0.450117
0.450117
0.450138
0.450159
0.450181
0.450202
0.450202
0.450223
0.450244
0.450266
0.450287
0.450287
0.450308
0.45033
0.450351
0.450373
0.450373
0.450394
0.450416
0.450437
0.450459
0.450459
0.450481
0.450502
0.450524
0.450546
0.450546
0.450567
0.450589
0.450611
0.450633
0.450633
0.450655
0.450677
0.450699
0.450721
0.450721
0.450743
0.450765
0.450787
0.450809
0.450809
0.450831
0.450853
0.450875
0.450898
0.450898
0.45092
0.450942
0.450965
0.450987
0.450987
0.451009
0.451032
0.451054
0.451077
0.451077
0.451099
0.451122
0.451144
0.451167
0.451167
0.45119
0.451212
0.451235
0.451258
0.451258
0.451281
0.451303
0.451326
0.451349
0.451349
0.451372
0.451395
0.451418
0.451441
0.451441
0.451464
0.451487
0.45151
0.451533
0.451533
0.451556
0.45158
0.451603
0.451626
0.451626
0.451649
0.451673
0.451696
0.451719
0.451719
0.451743
0.451766
0.45179
0.451813
0.451813
0.451837
0.45186
0.451884
0.451908
0.451908
0.451931
0.451955
0.451979
0.452002
0.452002
0.452026
0.45205
0.452074
0.452098
0.452098
0.452122
0.452146
0.45217
0.452194
0.452194
0.452218
0.452242
0.452266
0.45229
0.45229
0.452314
0.452338
0.452363
0.452387
0.452387
0.452411
0.452436
0.45246
0.452484
0.452484
0.452509
0.452533
0.452558
0.452582
0.452582
0.452607
0.452631
0.452656
0.452681
0.452681
0.452705
0.45273
0.452755
0.45278
0.45278
0.452804
0.452829
0.452854
0.452879
0.452879
0.452904
0.452929
0.452954
0.452979
0.452979
0.453004
0.453029
0.453054
0.45308
0.45308
0.453105
0.45313
0.453155
0.453181
0.453181
0.453206
0.453231
0.453257
0.453282
0.453282
0.453307
0.453333
0.453358
0.453384
0.453384
0.45341
0.453435
0.453461
0.453486
0.453486
0.453512
0.453538
0.453564
0.453589
0.453589
0.453615
0.453641
0.453667
0.453693
0.453693
0.453719
0.453745
0.453771
0.453797
0.453797
0.453823
0.453849
0.453875
0.453902
0.453902
0.453928
0.453954
0.45398
0.454007
0.454007
0.454033
0.454059
0.454086
0.454112
0.454112
0.454139
0.454165
0.454192
0.454218
0.454218
0.454245
0.454272
0.454298
0.454325
0.454325
0.454352
0.454378
0.454405
0.454432
0.454432
0.454459
0.454486
0.454513
0.45454
0.45454
0.454567
0.454594
0.454621
0.454648
0.454648
0.454675
0.454702
0.454729
0.454756
0.454756
0.454784
0.454811
0.454838
0.454866
0.454866
0.454893
0.45492
0.454948
0.454975
0.454975
0.455003
0.45503
0.455058
0.455085
0.455085
0.455113
0.455141
0.455168
0.455196
0.455196
0.455224
0.455252
0.455279
0.455307
0.455307
0.455335
0.455363
0.455391
0.455419
0.455419
0.455447
0.455475
0.455503
0.455531
0.455531
0.455559
0.455588
0.455616
0.455644
0.455644
0.455672
0.455701
0.455729
0.455757
0.455757
0.455786
0.455814
0.455843
0.455871
0.455871
0.4559
0.455928
0.455957
0.455985
0.455985
0.456014
0.456043
0.456071
0.4561
0.4561
0.456129
0.456158
0.456187
0.456215
0.456215
0.456244
0.456273
0.456302
0.456331
0.456331
0.45636
0.456389
0.456418
0.456448
0.456448
0.456477
0.456506
0.456535
0.456564
0.456564
0.456594
0.456623
0.456652
0.456682
0.456682
0.456711
0.456741
0.45677
0.4568
0.4568
0.456829
0.456859
0.456888
0.456918
0.456918
0.456948
0.456978
0.457007
0.457037
0.457037
0.457067
0.457097
0.457127
0.457156
0.457156
0.457186
0.457216
0.457246
0.457276
0.457276
0.457306
0.457337
0.457367
0.457397
0.457397
0.457427
0.457457
0.457488
0.457518
0.457518
0.457548
0.457579
0.457609
0.457639
0.457639
0.45767
0.4577
0.457731
0.457761
0.457761
0.457792
0.457823
0.457853
0.457884
0.457884
0.457915
0.457945
0.457976
0.458007
0.458007
0.458038
0.458069
0.4581
0.458131
0.458131
0.458162
0.458193
0.458224
0.458255
0.458255
0.458286
0.458317
0.458348
0.458379
0.458379
0.45841
0.458442
0.458473
0.458504
0.458504
0.458536
0.458567
0.458599
0.45863
0.45863
0.458661
0.458693
0.458725
0.458756
0.458756
0.458788
0.458819
0.458851
0.458883
0.458883
0.458915
0.458946
0.458978
0.45901
0.45901
0.459042
0.459074
0.459106
0.459138
0.459138
0.45917
0.459202
0.459234
0.459266
0.459266
0.459298
0.45933
0.459362
0.459395
0.459395
0.459427
0.459459
0.459492
0.459524
0.459524
0.459556
0.459589
0.459621
0.459654
0.459654
0.459686
0.459719
0.459751
0.459784
0.459784
0.459817
0.459849
0.459882
0.459915
0.459915
0.459948
0.45998
0.460013
0.460046
0.460046
0.460079
0.460112
0.460145
0.460178
0.460178
0.460211
0.460244
0.460277
0.46031
0.46031
0.460344
0.460377
0.46041
0.460443
0.460443
0.460477
0.46051
0.460543
0.460577
0.460577
0.46061
0.460644
0.460677
0.460711
0.460711
0.460744
0.460778
0.460812
0.460845
0.460845
0.460879
0.460913
0.460946
0.46098
0.46098
0.461014
0.461048
0.461082
0.461116
0.461116
0.46115
0.461184
0.461218
0.461252
0.461252
0.461286
0.46132
0.461354
0.461388
0.461388
0.461423
0.461457
0.461491
0.461525
0.461525
0.46156
0.461594
0.461629
0.461663
0.461663
0.461697
0.461732
0.461766
0.461801
0.461801
0.461836
0.46187
0.461905
0.46194
0.46194
0.461974
0.462009
0.462044
0.462079
0.462079
0.462114
0.462149
0.462184
0.462219
0.462219
0.462254
0.462289
0.462324
0.462359
0.462359
0.462394
0.462429
0.462464
0.4625
0.4625
0.462535
0.46257
0.462605
0.462641
0.462641
0.462676
0.462712
0.462747
0.462783
0.462783
0.462818
0.462854
0.462889
0.462925
0.462925
0.462961
0.462996
0.463032
0.463068
0.463068
0.463103
0.463139
0.463175
0.463211
0.463211
0.463247
0.463283
0.463319
0.463355
0.463355
0.463391
0.463427
0.463463
0.463499
0.463499
0.463536
0.463572
0.463608
0.463644
0.463644
0.463681
0.463717
0.463753
0.46379
0.46379
0.463826
0.463863
0.463899
0.463936
0.463936
0.463972
0.464009
0.464046
0.464082
0.464082
0.464119
0.464156
0.464192
0.464229
0.464229
0.464266
0.464303
0.46434
0.464377
0.464377
0.464414
0.464451
0.464488
0.464525
0.464525
0.464562
0.464599
0.464636
0.464673
0.464673
0.464711
0.464748
0.464785
0.464823
0.464823
0.46486
0.464897
0.464935
0.464972
0.464972
0.46501
0.465047
0.465085
0.465122
0.465122
0.46516
0.465198
0.465235
0.465273
0.465273
0.465311
0.465349
0.465387
0.465424
0.465424
0.465462
0.4655
0.465538
0.465576
0.465576
0.465614
0.465652
0.46569
0.465728
0.465728
0.465767
0.465805
0.465843
0.465881
0.465881
0.46592
0.465958
0.465996
0.466035
0.466035
0.466073
0.466112
0.46615
0.466189
0.466189
0.466227
0.466266
0.466304
0.466343
0.466343
0.466382
0.46642
0.466459
0.466498
0.466498
0.466537
0.466576
0.466614
0.466653
0.466653
0.466692
0.466731
0.46677
0.466809
0.466809
0.466848
0.466888
0.466927
0.466966
0.466966
0.467005
0.467044
0.467084
0.467123
0.467123
0.467162
0.467202
0.467241
0.467281
0.467281
0.46732
0.46736
0.467399
0.467439
0.467439
0.467478
0.467518
0.467558
0.467597
0.467597
0.467637
0.467677
0.467717
0.467757
0.467757
0.467796
0.467836
0.467876
0.467916
0.467916
0.467956
0.467996
0.468036
0.468077
0.468077
0.468117
0.468157
0.468197
0.468237
0.468237
0.468278
0.468318
0.468358
0.468399
0.468399
0.468439
0.468479
0.46852
0.46856
0.46856
0.468601
0.468642
0.468682
0.468723
0.468723
0.468764
0.468804
0.468845
0.468886
0.468886
0.468927
0.468967
0.469008
0.469049
0.469049
0.46909
0.469131
0.469172
0.469213
0.469213
0.469254
0.469295
0.469337
0.469378
0.469378
0.469419
0.46946
0.469501
0.469543
0.469543
0.469584
0.469625
0.469667
0.469708
0.469708
0.46975
0.469791
0.469833
0.469874
0.469874
0.469916
0.469958
0.469999
0.470041
0.470041
0.470083
0.470125
0.470166
0.470208
0.470208
0.47025
0.470292
0.470334
0.470376
0.470376
0.470418
0.47046
0.470502
0.470544
0.470544
0.470586
0.470629
0.470671
0.470713
0.470713
0.470755
0.470798
0.47084
0.470882
0.470882
0.470925
0.470967
0.47101
0.471052
0.471052
0.471095
0.471137
0.47118
0.471223
0.471223
0.471265
0.471308
0.471351
0.471394
0.471394
0.471436
0.471479
0.471522
0.471565
0.471565
0.471608
0.471651
0.471694
0.471737
0.471737
0.47178
0.471823
0.471866
0.47191
0.47191
0.471953
0.471996
0.472039
0.472083
0.472083
0.472126
0.472169
0.472213
0.472256
0.472256
0.4723
0.472343
0.472387
0.47243
0.47243
0.472474
0.472518
0.472561
0.472605
0.472605
0.472649
0.472693
0.472737
0.47278
0.47278
0.472824
0.472868
0.472912
0.472956
0.472956
0.473
0.473044
0.473088
0.473133
0.473133
0.473177
0.473221
0.473265
0.473309
0.473309
0.473354
0.473398
0.473442
0.473487
0.473487
0.473531
0.473576
0.47362
0.473665
0.473665
0.473709
0.473754
0.473799
0.473843
0.473843
0.473888
0.473933
0.473977
0.474022
0.474022
0.474067
0.474112
0.474157
0.474202
0.474202
0.474247
0.474292
0.474337
0.474382
0.474382
0.474427
0.474472
0.474517
0.474563
0.474563
0.474608
0.474653
0.474698
0.474744
0.474744
0.474789
0.474834
0.47488
0.474925
0.474925
0.474971
0.475016
0.475062
0.475108
0.475108
0.475153
0.475199
0.475245
0.47529
0.47529
0.475336
0.475382
0.475428
0.475474
0.475474
0.47552
0.475566
0.475612
0.475658
0.475658
0.475704
0.47575
0.475796
0.475842
0.475842
0.475888
0.475935
0.475981
0.476027
0.476027
0.476074
0.47612
0.476166
0.476213
0.476213
0.476259
0.476306
0.476352
0.476399
0.476399
0.476445
0.476492
0.476539
0.476585
0.476585
0.476632
0.476679
0.476726
0.476773
0.476773
0.476819
0.476866
0.476913
0.47696
0.47696
0.477007
0.477054
0.477101
0.477149
0.477149
0.477196
0.477243
0.47729
0.477337
0.477337
0.477385
0.477432
0.477479
0.477527
0.477527
0.477574
0.477622
0.477669
0.477717
0.477717
0.477764
0.477812
0.477859
0.477907
0.477907
0.477955
0.478002
0.47805
0.478098
0.478098
0.478146
0.478194
0.478242
0.47829
0.47829
0.478338
0.478386
0.478434
0.478482
0.478482
0.47853
0.478578
0.478626
0.478674
0.478674
0.478722
0.478771
0.478819
0.478867
0.478867
0.478916
0.478964
0.479013
0.479061
0.479061
0.47911
0.479158
0.479207
0.479255
0.479255
0.479304
0.479353
0.479402
0.47945
0.47945
0.479499
0.479548
0.479597
0.479646
0.479646
0.479695
0.479744
0.479793
0.479842
0.479842
0.479891
0.47994
0.479989
0.480038
0.480038
0.480087
0.480136
0.480186
0.480235
0.480235
0.480284
0.480334
0.480383
0.480433
0.480433
0.480482
0.480532
0.480581
0.480631
0.480631
0.48068
0.48073
0.48078
0.480829
0.480829
0.480879
0.480929
0.480979
0.481029
0.481029
0.481079
0.481129
0.481178
0.481228
0.481228
0.481279
0.481329
0.481379
0.481429
0.481429
0.481479
0.481529
0.481579
0.48163
0.48163
0.48168
0.48173
0.481781
0.481831
0.481831
0.481882
0.481932
0.481983
0.482033
0.482033
0.482084
0.482134
0.482185
0.482236
0.482236
0.482286
0.482337
0.482388
0.482439
0.482439
0.48249
0.482541
0.482592
0.482642
0.482642
0.482693
0.482745
0.482796
0.482847
0.482847
0.482898
0.482949
0.483
0.483051
0.483051
0.483103
0.483154
0.483205
0.483257
0.483257
0.483308
0.48336
0.483411
0.483463
0.483463
0.483514
0.483566
0.483617
0.483669
0.483669
0.483721
0.483773
0.483824
0.483876
0.483876
0.483928
0.48398
0.484032
0.484084
0.484084
0.484136
0.484188
0.48424
0.484292
0.484292
0.484344
0.484396
0.484448
0.4845
0.4845
0.484553
0.484605
0.484657
0.48471
0.48471
0.484762
0.484814
0.484867
0.484919
0.484919
0.484972
0.485025
0.485077
0.48513
0.48513
0.485182
0.485235
0.485288
0.485341
0.485341
0.485394
0.485446
0.485499
0.485552
0.485552
0.485605
0.485658
0.485711
0.485764
0.485764
0.485817
0.48587
0.485924
0.485977
0.485977
0.48603
0.486083
0.486137
0.48619
0.48619
0.486243
0.486297
0.48635
0.486404
0.486404
0.486457
0.486511
0.486564
0.486618
0.486618
0.486672
0.486725
0.486779
0.486833
0.486833
0.486886
0.48694
0.486994
0.487048
0.487048
0.487102
0.487156
0.48721
0.487264
0.487264
0.487318
0.487372
0.487426
0.487481
0.487481
0.487535
0.487589
0.487643
0.487698
0.487698
0.487752
0.487806
0.487861
0.487915
0.487915
0.48797
0.488024
0.488079
0.488133
0.488133
0.488188
0.488243
0.488297
0.488352
0.488352
0.488407
0.488462
0.488517
0.488572
0.488572
0.488626
0.488681
0.488736
0.488791
0.488791
0.488847
0.488902
0.488957
0.489012
0.489012
0.489067
0.489122
0.489178
0.489233
0.489233
0.489288
0.489344
0.489399
0.489455
0.489455
0.48951
0.489566
0.489621
0.489677
0.489677
0.489732
0.489788
0.489844
0.489899
0.489899
0.489955
0.490011
0.490067
0.490123
0.490123
0.490179
0.490235
0.490291
0.490347
0.490347
0.490403
0.490459
0.490515
0.490571
0.490571
0.490627
0.490683
0.49074
0.490796
0.490796
0.490852
0.490909
0.490965
0.491022
0.491022
0.491078
0.491135
0.491191
0.491248
0.491248
0.491304
0.491361
0.491418
0.491474
0.491474
0.491531
0.491588
0.491645
0.491702
0.491702
0.491759
0.491815
0.491872
0.491929
0.491929
0.491987
0.492044
0.492101
0.492158
0.492158
0.492215
0.492272
0.49233
0.492387
0.492387
0.492444
0.492502
0.492559
0.492616
0.492616
0.492674
0.492731
0.492789
0.492847
0.492847
0.492904
0.492962
0.49302
0.493077
0.493077
0.493135
0.493193
0.493251
0.493309
0.493309
0.493366
0.493424
0.493482
0.49354
0.49354
0.493598
0.493657
0.493715
0.493773
0.493773
0.493831
0.493889
0.493947
0.494006
0.494006
0.494064
0.494123
0.494181
0.494239
0.494239
0.494298
0.494356
0.494415
0.494473
0.494473
0.494532
0.494591
0.494649
0.494708
0.494708
0.494767
0.494826
0.494885
0.494944
0.494944
0.495002
0.495061
0.49512
0.495179
0.495179
0.495238
0.495298
0.495357
0.495416
0.495416
0.495475
0.495534
0.495594
0.495653
0.495653
0.495712
0.495772
0.495831
0.49589
0.49589
0.49595
0.496009
0.496069
0.496129
0.496129
0.496188
0.496248
0.496308
0.496367
0.496367
0.496427
0.496487
0.496547
0.496607
0.496607
0.496667
0.496727
0.496787
0.496847
0.496847
0.496907
0.496967
0.497027
0.497087
0.497087
0.497147
0.497208
0.497268
0.497328
0.497328
0.497389
0.497449
0.497509
0.49757
0.49757
0.49763
0.497691
0.497751
0.497812
0.497812
0.497873
0.497933
0.497994
0.498055
0.498055
0.498116
0.498176
0.498237
0.498298
0.498298
0.498359
0.49842
0.498481
0.498542
0.498542
0.498603
0.498664
0.498726
0.498787
0.498787
0.498848
0.498909
0.498971
0.499032
0.499032
0.499093
0.499155
0.499216
0.499278
0.499278
0.499339
0.499401
0.499462
0.499524
0.499524
0.499586
0.499647
0.499709
0.499771
0.499771
0.499833
0.499894
0.499956
0.500018
0.500018
0.50008
0.500142
0.500204
0.500266
0.500266
0.500328
0.500391
0.500453
0.500515
0.500515
0.500577
0.500639
0.500702
0.500764
0.500764
0.500827
0.500889
0.500951
0.501014
0.501014
0.501077
0.501139
0.501202
0.501264
0.501264
0.501327
0.50139
0.501453
0.501515
0.501515
0.501578
0.501641
0.501704
0.501767
0.501767
0.50183
0.501893
0.501956
0.502019
0.502019
0.502082
0.502145
0.502209
0.502272
0.502272
0.502335
0.502398
0.502462
0.502525
0.502525
0.502589
0.502652
0.502716
0.502779
0.502779
0.502843
0.502906
0.50297
0.503034
0.503034
0.503097
0.503161
0.503225
0.503289
0.503289
0.503353
0.503417
0.50348
0.503544
0.503544
0.503608
0.503673
0.503737
0.503801
0.503801
0.503865
0.503929
0.503993
0.504058
0.504058
0.504122
0.504186
0.504251
0.504315
0.504315
0.50438
0.504444
0.504509
0.504573
0.504573
0.504638
0.504702
0.504767
0.504832
0.504832
0.504897
0.504961
0.505026
0.505091
0.505091
0.505156
0.505221
0.505286
0.505351
0.505351
0.505416
0.505481
0.505546
0.505611
0.505611
0.505677
0.505742
0.505807
0.505872
0.505872
0.505938
0.506003
0.506069
0.506134
0.506134
0.5062
0.506265
0.506331
0.506396
0.506396
0.506462
0.506528
0.506593
0.506659
0.506659
0.506725
0.506791
0.506857
0.506923
0.506923
0.506988
0.507054
0.50712
0.507187
0.507187
0.507253
0.507319
0.507385
0.507451
0.507451
0.507517
0.507584
0.50765
0.507716
0.507716
0.507783
0.507849
0.507916
0.507982
0.507982
0.508049
0.508115
0.508182
0.508249
0.508249
0.508315
0.508382
0.508449
0.508516
0.508516
0.508582
0.508649
0.508716
0.508783
0.508783
0.50885
0.508917
0.508984
0.509051
0.509051
0.509119
0.509186
0.509253
0.50932
0.50932
0.509388
0.509455
0.509522
0.50959
0.50959
0.509657
0.509725
0.509792
0.50986
0.50986
0.509927
0.509995
0.510063
0.51013
0.51013
0.510198
0.510266
0.510334
0.510402
0.510402
0.510469
0.510537
0.510605
0.510673
0.510673
0.510741
0.51081
0.510878
0.510946
0.510946
0.511014
0.511082
0.511151
0.511219
0.511219
0.511287
0.511356
0.511424
0.511493
0.511493
0.511561
0.51163
0.511698
0.511767
0.511767
0.511835
0.511904
0.511973
0.512042
0.512042
0.51211
0.512179
0.512248
0.512317
0.512317
0.512386
0.512455
0.512524
0.512593
0.512593
0.512662
0.512731
0.512801
0.51287
0.51287
0.512939
0.513008
0.513078
0.513147
0.513147
0.513217
0.513286
0.513355
0.513425
0.513425
0.513495
0.513564
0.513634
0.513704
0.513704
0.513773
0.513843
0.513913
0.513983
0.513983
0.514053
0.514122
0.514192
0.514262
0.514262
0.514332
0.514402
0.514473
0.514543
0.514543
0.514613
0.514683
0.514753
0.514824
0.514824
0.514894
0.514964
0.515035
0.515105
0.515105
0.515176
0.515246
0.515317
0.515387
0.515387
0.515458
0.515529
0.515599
0.51567
0.51567
0.515741
0.515812
0.515883
0.515954
0.515954
0.516025
0.516096
0.516167
0.516238
0.516238
0.516309
0.51638
0.516451
0.516522
0.516522
0.516594
0.516665
0.516736
0.516808
0.516808
0.516879
0.51695
0.517022
0.517093
0.517093
0.517165
0.517237
0.517308
0.51738
0.51738
0.517452
0.517523
0.517595
0.517667
0.517667
0.517739
0.517811
0.517883
0.517955
0.517955
0.518027
0.518099
0.518171
0.518243
0.518243
0.518315
0.518387
0.51846
0.518532
0.518532
0.518604
0.518677
0.518749
0.518822
0.518822
0.518894
0.518967
0.519039
0.519112
0.519112
0.519184
0.519257
0.51933
0.519403
0.519403
0.519475
0.519548
0.519621
0.519694
0.519694
0.519767
0.51984
0.519913
0.519986
0.519986
0.520059
0.520132
0.520205
0.520279
0.520279
0.520352
0.520425
0.520499
0.520572
0.520572
0.520645
0.520719
0.520792
0.520866
0.520866
0.52094
0.521013
0.521087
0.521161
0.521161
0.521234
0.521308
0.521382
0.521456
0.521456
0.52153
0.521603
0.521677
0.521751
0.521751
0.521826
0.5219
0.521974
0.522048
0.522048
0.522122
0.522196
0.522271
0.522345
0.522345
0.522419
0.522494
0.522568
0.522643
0.522643
0.522717
0.522792
0.522866
0.522941
0.522941
0.523016
0.52309
0.523165
0.52324
0.52324
0.523315
0.52339
0.523464
0.523539
0.523539
0.523614
0.523689
0.523765
0.52384
0.52384
0.523915
0.52399
0.524065
0.52414
0.52414
0.524216
0.524291
0.524366
0.524442
0.524442
0.524517
0.524593
0.524668
0.524744
0.524744
0.52482
0.524895
0.524971
0.525047
0.525047
0.525122
0.525198
0.525274
0.52535
0.52535
0.525426
0.525502
0.525578
0.525654
0.525654
0.52573
0.525806
0.525882
0.525959
0.525959
0.526035
0.526111
0.526188
0.526264
0.526264
0.52634
0.526417
0.526493
0.52657
0.52657
0.526646
0.526723
0.5268
0.526876
0.526876
0.526953
0.52703
0.527107
0.527183
0.527183
0.52726
0.527337
0.527414
0.527491
0.527491
0.527568
0.527645
0.527723
0.5278
0.5278
0.527877
0.527954
0.528031
0.528109
0.528109
0.528186
0.528264
0.528341
0.528418
0.528418
0.528496
0.528574
0.528651
0.528729
0.528729
0.528807
0.528884
0.528962
0.52904
0.52904
0.529118
0.529196
0.529273
0.529351
0.529351
0.529429
0.529507
0.529586
0.529664
0.529664
0.529742
0.52982
0.529898
0.529977
0.529977
0.530055
0.530133
0.530212
0.53029
0.53029
0.530369
0.530447
0.530526
0.530604
0.530604
0.530683
0.530762
0.53084
0.530919
0.530919
0.530998
0.531077
0.531156
0.531235
0.531235
0.531314
0.531393
0.531472
0.531551
0.531551
0.53163
0.531709
0.531788
0.531868
0.531868
0.531947
0.532026
0.532106
0.532185
0.532185
0.532264
0.532344
0.532424
0.532503
0.532503
0.532583
0.532662
0.532742
0.532822
0.532822
0.532902
0.532981
0.533061
0.533141
0.533141
0.533221
0.533301
0.533381
0.533461
0.533461
0.533541
0.533621
0.533702
0.533782
0.533782
0.533862
0.533942
0.534023
0.534103
0.534103
0.534184
0.534264
0.534345
0.534425
0.534425
0.534506
0.534586
0.534667
0.534748
0.534748
0.534828
0.534909
0.53499
0.535071
0.535071
0.535152
0.535233
0.535314
0.535395
0.535395
0.535476
0.535557
0.535638
0.535719
0.535719
0.535801
0.535882
0.535963
0.536045
0.536045
0.536126
0.536208
0.536289
0.536371
0.536371
0.536452
0.536534
0.536615
0.536697
0.536697
0.536779
0.536861
0.536942
0.537024
0.537024
0.537106
0.537188
0.53727
0.537352
0.537352
0.537434
0.537516
0.537598
0.537681
0.537681
0.537763
0.537845
0.537927
0.53801
0.53801
0.538092
0.538175
0.538257
0.53834
0.53834
0.538422
0.538505
0.538587
0.53867
0.53867
0.538753
0.538836
0.538918
0.539001
0.539001
0.539084
0.539167
0.53925
0.539333
0.539333
0.539416
0.539499
0.539582
0.539666
0.539666
0.539749
0.539832
0.539915
0.539999
0.539999
0.540082
0.540166
0.540249
0.540333
0.540333
0.540416
0.5405
0.540583
0.540667
0.540667
0.540751
0.540834
0.540918
0.541002
0.541002
0.541086
0.54117
0.541254
0.541338
0.541338
0.541422
0.541506
0.54159
0.541674
0.541674
0.541759
0.541843
0.541927
0.542011
0.542011
0.542096
0.54218
0.542265
0.542349
0.542349
0.542434
0.542518
0.542603
0.542688
0.542688
0.542772
0.542857
0.542942
0.543027
0.543027
0.543112
0.543197
0.543282
0.543367
0.543367
0.543452
0.543537
0.543622
0.543707
0.543707
0.543792
0.543878
0.543963
0.544048
0.544048
0.544134
0.544219
0.544305
0.54439
0.54439
0.544476
0.544561
0.544647
0.544733
0.544733
0.544818
0.544904
0.54499
0.545076
0.545076
0.545162
0.545248
0.545333
0.54542
0.54542
0.545506
0.545592
0.545678
0.545764
0.545764
0.54585
0.545937
0.546023
0.546109
0.546109
0.546196
0.546282
0.546369
0.546455
0.546455
0.546542
0.546628
0.546715
0.546802
0.546802
0.546888
0.546975
0.547062
0.547149
0.547149
0.547236
0.547323
0.54741
0.547497
0.547497
0.547584
0.547671
0.547758
0.547845
0.547845
0.547933
0.54802
0.548107
0.548195
0.548195
0.548282
0.548369
0.548457
0.548544
0.548544
0.548632
0.54872
0.548807
0.548895
0.548895
0.548983
0.549071
0.549158
0.549246
0.549246
0.549334
0.549422
0.54951
0.549598
0.549598
0.549686
0.549775
0.549863
0.549951
0.549951
0.550039
0.550128
0.550216
0.550304
0.550304
0.550393
0.550481
0.55057
0.550658
0.550658
0.550747
0.550836
0.550924
0.551013
0.551013
0.551102
0.551191
0.55128
0.551369
0.551369
0.551458
0.551547
0.551636
0.551725
0.551725
0.551814
0.551903
0.551992
0.552081
0.552081
0.552171
0.55226
0.552349
0.552439
0.552439
0.552528
0.552618
0.552707
0.552797
0.552797
0.552887
0.552976
0.553066
0.553156
0.553156
0.553246
0.553336
0.553426
0.553515
0.553515
0.553605
0.553696
0.553786
0.553876
0.553876
0.553966
0.554056
0.554146
0.554237
0.554237
0.554327
0.554417
0.554508
0.554598
0.554598
0.554689
0.554779
0.55487
0.554961
0.554961
0.555051
0.555142
0.555233
0.555324
0.555324
0.555415
0.555505
0.555596
0.555687
0.555687
0.555778
0.555869
0.555961
0.556052
0.556052
0.556143
0.556234
0.556326
0.556417
0.556417
0.556508
0.5566
0.556691
0.556783
0.556783
0.556874
0.556966
0.557058
0.557149
0.557149
0.557241
0.557333
0.557425
0.557516
0.557516
0.557608
0.5577
0.557792
0.557884
0.557884
0.557976
0.558069
0.558161
0.558253
0.558253
0.558345
0.558438
0.55853
0.558622
0.558622
0.558715
0.558807
0.5589
0.558992
0.558992
0.559084
0.559177
0.559269
0.559361
0.559361
0.559453
0.559543
0.559632
0.559719
0.559719
0.559805
0.559881
0.559946
0.560002
0.560002
0.560032
0.560058
0.56008
0.560098