<?xml version="1.0"?>
<VTKFile type="UnstructuredGrid" version="0.1" byte_order="LittleEndian">
<UnstructuredGrid>
<Piece NumberOfPoints="5000" NumberOfCells="4000">
<PointData Scalars="Reaction 0">
<DataArray type="Float32" Name="Reaction 0" format="ascii">
0.602902
0.602902
0.602902
0.602902
0.602902
0.602902
0.602902
0.602902
0.602902
0.602902
0.602902
0.602902
0.602902
0.602902
0.602902
0.602902
0.602902
0.602902
0.602902
0.602902
0.602902
0.602902
0.602902
0.602903
0.602903
0.602903
0.602903
0.602903
0.602903
0.602903
0.602903
0.602903
0.602903
0.602904
0.602904
0.602904
0.602904
0.602904
0.602904
0.602904
0.602904
0.602905
0.602905
0.602905
0.602905
0.602905
0.602905
0.602906
0.602906
0.602906
0.602906
0.602906
0.602906
0.602907
0.602907
0.602907
0.602907
0.602907
0.602908
0.602908
0.602908
0.602908
0.602908
0.602909
0.602909
0.602909
0.602909
0.60291
0.60291
0.60291
0.60291
0.60291
0.602911
0.602911
0.602911
0.602911
0.602912
0.602912
0.602912
0.602913
0.602913
0.602913
0.602913
0.602914
0.602914
0.602914
0.602915
0.602915
0.602915
0.602916
0.602916
0.602916
0.602917
0.602917
0.602917
0.602917
0.602918
0.602918
0.602919
0.602919
0.602919
0.602919
0.60292
0.60292
0.602921
0.602921
0.602921
0.602922
0.602922
0.602923
0.602923
0.602923
0.602924
0.602924
0.602925
0.602925
0.602925
0.602926
0.602926
0.602927
0.602927
0.602927
0.602928
0.602928
0.602929
0.602929
0.602929
0.60293
0.602931
0.602931
0.602931
0.602932
0.602932
0.602933
0.602933
0.602933
0.602934
0.602935
0.602935
0.602936
0.602936
0.602936
0.602937
0.602938
0.602938
0.602938
0.602939
0.60294
0.60294
0.602941
0.602941
0.602942
0.602942
0.602943
0.602944
0.602944
0.602944
0.602945
0.602946
0.602946
0.602946
0.602947
0.602948
0.602948
0.602949
0.602949
0.60295
0.602951
0.602951
0.602952
0.602952
0.602953
0.602954
0.602954
0.602955
0.602955
0.602956
0.602957
0.602957
0.602958
0.602958
0.602959
0.60296
0.602961
0.602961
0.602961
0.602962
0.602963
0.602964
0.602965
0.602965
0.602966
0.602966
0.602967
0.602968
0.602968
0.602969
0.60297
0.602971
0.602972
0.602972
0.602972
0.602973
0.602974
0.602975
0.602975
0.602976
0.602977
0.602978
0.602979
0.602979
0.60298
0.602981
0.602981
0.602982
0.602982
0.602983
0.602984
0.602985
0.602986
0.602986
0.602987
0.602988
0.602989
0.60299
0.60299
0.602991
0.602992
0.602993
0.602994
0.602994
0.602995
0.602996
0.602997
0.602998
0.602998
0.602999
0.603
0.603001
0.603002
0.603002
0.603003
0.603004
0.603006
0.603007
0.603007
0.603008
0.603009
0.60301
0.603011
0.603011
0.603012
0.603013
0.603014
0.603015
0.603015
0.603016
0.603018
0.603019
0.60302
0.60302
0.603021
0.603022
0.603023
0.603024
0.603024
0.603026
0.603027
0.603028
0.603029
0.603029
0.60303
0.603032
0.603033
0.603034
0.603034
0.603035
0.603036
0.603038
0.603039
0.603039
0.60304
0.603041
0.603042
0.603044
0.603044
0.603045
0.603046
0.603048
0.603049
0.603049
0.60305
0.603051
0.603053
0.603054
0.603054
0.603055
0.603056
0.603058
0.603059
0.603059
0.60306
0.603062
0.603063
0.603064
0.603064
0.603066
0.603067
0.603068
0.60307
0.60307
0.603071
0.603073
0.603074
0.603075
0.603075
0.603077
0.603078
0.603079
0.603081
0.603081
0.603082
0.603084
0.603085
0.603087
0.603087
0.603088
0.603089
0.603091
0.603092
0.603092
0.603094
0.603095
0.603097
0.603098
0.603098
0.6031
0.603101
0.603103
0.603104
0.603104
0.603106
0.603107
0.603109
0.60311
0.60311
0.603112
0.603113
0.603115
0.603116
0.603116
0.603118
0.603119
0.603121
0.603122
0.603122
0.603124
0.603125
0.603127
0.603129
0.603129
0.60313
0.603132
0.603133
0.603135
0.603135
0.603137
0.603138
0.60314
0.603141
0.603141
0.603143
0.603145
0.603146
0.603148
0.603148
0.60315
0.603151
0.603153
0.603155
0.603155
0.603156
0.603158
0.60316
0.603161
0.603161
0.603163
0.603165
0.603166
0.603168
0.603168
0.60317
0.603172
0.603173
0.603175
0.603175
0.603177
0.603179
0.60318
0.603182
0.603182
0.603184
0.603186
0.603187
0.603189
0.603189
0.603191
0.603193
0.603195
0.603196
0.603196
0.603198
0.6032
0.603202
0.603204
0.603204
0.603205
0.603207
0.603209
0.603211
0.603211
0.603213
0.603215
0.603217
0.603218
0.603218
0.60322
0.603222
0.603224
0.603226
0.603226
0.603228
0.60323
0.603232
0.603234
0.603234
0.603235
0.603237
0.603239
0.603241
0.603241
0.603243
0.603245
0.603247
0.603249
0.603249
0.603251
0.603253
0.603255
0.603257
0.603257
0.603259
0.603261
0.603263
0.603265
0.603265
0.603267
0.603269
0.603271
0.603273
0.603273
0.603275
0.603277
0.603279
0.603281
0.603281
0.603283
0.603285
0.603287
0.603289
0.603289
0.603291
0.603293
0.603296
0.603298
0.603298
0.6033
0.603302
0.603304
0.603306
0.603306
0.603308
0.60331
0.603312
0.603315
0.603315
0.603317
0.603319
0.603321
0.603323
0.603323
0.603325
0.603328
0.60333
0.603332
0.603332
0.603334
0.603336
0.603338
0.603341
0.603341
0.603343
0.603345
0.603347
0.60335
0.60335
0.603352
0.603354
0.603356
0.603359
0.603359
0.603361
0.603363
0.603365
0.603368
0.603368
0.60337
0.603372
0.603374
0.603377
0.603377
0.603379
0.603381
0.603384
0.603386
0.603386
0.603388
0.603391
0.603393
0.603395
0.603395
0.603398
0.6034
0.603402
0.603405
0.603405
0.603407
0.603409
0.603412
0.603414
0.603414
0.603417
0.603419
0.603421
0.603424
0.603424
0.603426
0.603429
0.603431
0.603433
0.603433
0.603436
0.603438
0.603441
0.603443
0.603443
0.603446
0.603448
0.603451
0.603453
0.603453
0.603456
0.603458
0.603461
0.603463
0.603463
0.603466
0.603468
0.603471
0.603473
0.603473
0.603476
0.603478
0.603481
0.603483
0.603483
0.603486
0.603488
0.603491
0.603494
0.603494
0.603496
0.603499
0.603501
0.603504
0.603504
0.603506
0.603509
0.603512
0.603514
0.603514
0.603517
0.60352
0.603522
0.603525
0.603525
0.603527
0.60353
0.603533
0.603535
0.603535
0.603538
0.603541
0.603543
0.603546
0.603546
0.603549
0.603551
0.603554
0.603557
0.603557
0.60356
0.603562
0.603565
0.603568
0.603568
0.60357
0.603573
0.603576
0.603579
0.603579
0.603581
0.603584
0.603587
0.60359
0.60359
0.603593
0.603595
0.603598
0.603601
0.603601
0.603604
0.603606
0.603609
0.603612
0.603612
0.603615
0.603618
0.603621
0.603623
0.603623
0.603626
0.603629
0.603632
0.603635
0.603635
0.603638
0.603641
0.603643
0.603646
0.603646
0.603649
0.603652
0.603655
0.603658
0.603658
0.603661
0.603664
0.603667
0.60367
0.60367
0.603673
0.603676
0.603679
0.603681
0.603681
0.603684
0.603687
0.60369
0.603693
0.603693
0.603696
0.603699
0.603702
0.603705
0.603705
0.603708
0.603711
0.603714
0.603717
0.603717
0.60372
0.603723
0.603727
0.60373
0.60373
0.603733
0.603736
0.603739
0.603742
0.603742
0.603745
0.603748
0.603751
0.603754
0.603754
0.603757
0.60376
0.603763
0.603767
0.603767
0.60377
0.603773
0.603776
0.603779
0.603779
0.603782
0.603785
0.603789
0.603792
0.603792
0.603795
0.603798
0.603801
0.603804
0.603804
0.603808
0.603811
0.603814
0.603817
0.603817
0.60382
0.603824
0.603827
0.60383
0.60383
0.603833
0.603837
0.60384
0.603843
0.603843
0.603846
0.60385
0.603853
0.603856
0.603856
0.60386
0.603863
0.603866
0.603869
0.603869
0.603873
0.603876
0.603879
0.603883
0.603883
0.603886
0.603889
0.603893
0.603896
0.603896
0.603899
0.603903
0.603906
0.60391
0.60391
0.603913
0.603916
0.60392
0.603923
0.603923
0.603927
0.60393
0.603933
0.603937
0.603937
0.60394
0.603944
0.603947
0.603951
0.603951
0.603954
0.603957
0.603961
0.603964
0.603964
0.603968
0.603971
0.603975
0.603978
0.603978
0.603982
0.603985
0.603989
0.603992
0.603992
0.603996
0.603999
0.604003
0.604006
0.604006
0.60401
0.604014
0.604017
0.604021
0.604021
0.604024
0.604028
0.604031
0.604035
0.604035
0.604039
0.604042
0.604046
0.604049
0.604049
0.604053
0.604057
0.60406
0.604064
0.604064
0.604068
0.604071
0.604075
0.604078
0.604078
0.604082
0.604086
0.604089
0.604093
0.604093
0.604097
0.604101
0.604104
0.604108
0.604108
0.604112
0.604115
0.604119
0.604123
0.604123
0.604127
0.60413
0.604134
0.604138
0.604138
0.604142
0.604145
0.604149
0.604153
0.604153
0.604157
0.60416
0.604164
0.604168
0.604168
0.604172
0.604176
0.604179
0.604183
0.604183
0.604187
0.604191
0.604195
0.604199
0.604199
0.604202
0.604206
0.60421
0.604214
0.604214
0.604218
0.604222
0.604226
0.60423
0.60423
0.604234
0.604237
0.604241
0.604245
0.604245
0.604249
0.604253
0.604257
0.604261
0.604261
0.604265
0.604269
0.604273
0.604277
0.604277
0.604281
0.604285
0.604289
0.604293
0.604293
0.604297
0.604301
0.604305
0.604309
0.604309
0.604313
0.604317
0.604321
0.604325
0.604325
0.604329
0.604333
0.604337
0.604341
0.604341
0.604345
0.604349
0.604353
0.604357
0.604357
0.604362
0.604366
0.60437
0.604374
0.604374
0.604378
0.604382
0.604386
0.60439
0.60439
0.604395
0.604399
0.604403
0.604407
0.604407
0.604411
0.604415
0.604419
0.604424
0.604424
0.604428
0.604432
0.604436
0.60444
0.60444
0.604445
0.604449
0.604453
0.604457
0.604457
0.604462
0.604466
0.60447
0.604474
0.604474
0.604479
0.604483
0.604487
0.604491
0.604491
0.604496
0.6045
0.604504
0.604509
0.604509
0.604513
0.604517
0.604521
0.604526
0.604526
0.60453
0.604534
0.604538
0.604543
0.604543
0.604547
0.604551
0.604556
0.60456
0.60456
0.604565
0.604569
0.604574
0.604578
0.604578
0.604583
0.604587
0.604591
0.604596
0.604596
0.6046
0.604605
0.604609
0.604614
0.604614
0.604618
0.604623
0.604627
0.604632
0.604632
0.604636
0.604641
0.604645
0.60465
0.60465
0.604654
0.604659
0.604663
0.604668
0.604668
0.604672
0.604677
0.604681
0.604686
0.604686
0.60469
0.604695
0.6047
0.604704
0.604704
0.604709
0.604713
0.604718
0.604723
0.604723
0.604727
0.604732
0.604736
0.604741
0.604741
0.604746
0.60475
0.604755
0.60476
0.60476
0.604764
0.604769
0.604774
0.604778
0.604778
0.604783
0.604788
0.604792
0.604797
0.604797
0.604802
0.604806
0.604811
0.604816
0.604816
0.604821
0.604825
0.60483
0.604835
0.604835
0.60484
0.604844
0.604849
0.604854
0.604854
0.604859
0.604863
0.604868
0.604873
0.604873
0.604878
0.604883
0.604887
0.604892
0.604892
0.604897
0.604902
0.604907
0.604912
0.604912
0.604916
0.604921
0.604926
0.604931
0.604931
0.604936
0.604941
0.604946
0.604951
0.604951
0.604956
0.60496
0.604965
0.60497
0.60497
0.604975
0.60498
0.604985
0.60499
0.60499
0.604995
0.605
0.605005
0.60501
0.60501
0.605015
0.60502
0.605025
0.60503
0.60503
0.605035
0.60504
0.605045
0.60505
0.60505
0.605055
0.60506
0.605065
0.60507
0.60507
0.605075
0.60508
0.605085
0.60509
0.60509
0.605095
0.605101
0.605106
0.605111
0.605111
0.605116
0.605121
0.605126
0.605131
0.605131
0.605136
0.605141
0.605147
0.605152
0.605152
0.605157
0.605162
0.605167
0.605172
0.605172
0.605178
0.605183
0.605188
0.605193
0.605193
0.605198
0.605204
0.605209
0.605214
0.605214
0.605219
0.605225
0.60523
0.605235
0.605235
0.60524
0.605246
0.605251
0.605256
0.605256
0.605261
0.605267
0.605272
0.605277
0.605277
0.605283
0.605288
0.605293
0.605299
0.605299
0.605304
0.605309
0.605315
0.60532
0.60532
0.605325
0.605331
0.605336
0.605341
0.605341
0.605347
0.605352
0.605358
0.605363
0.605363
0.605368
0.605374
0.605379
0.605385
0.605385
0.60539
0.605396
0.605401
0.605407
0.605407
0.605412
0.605418
0.605423
0.605428
0.605428
0.605434
0.605439
0.605445
0.60545
0.60545
0.605456
0.605462
0.605467
0.605473
0.605473
0.605478
0.605484
0.605489
0.605495
0.605495
0.6055
0.605506
0.605512
0.605517
0.605517
0.605523
0.605528
0.605534
0.60554
0.60554
0.605545
0.605551
0.605556
0.605562
0.605562
0.605568
0.605573
0.605579
0.605585
0.605585
0.60559
0.605596
0.605602
0.605607
0.605607
0.605613
0.605619
0.605625
0.60563
0.60563
0.605636
0.605642
0.605647
0.605653
0.605653
0.605659
0.605665
0.60567
0.605676
0.605676
0.605682
0.605688
0.605694
0.605699
0.605699
0.605705
0.605711
0.605717
0.605723
0.605723
0.605728
0.605734
0.60574
0.605746
0.605746
0.605752
0.605758
0.605764
0.605769
0.605769
0.605775
0.605781
0.605787
0.605793
0.605793
0.605799
0.605805
0.605811
0.605817
0.605817
0.605823
0.605829
0.605835
0.60584
0.60584
0.605846
0.605852
0.605858
0.605864
0.605864
0.60587
0.605876
0.605882
0.605888
0.605888
0.605894
0.6059
0.605906
0.605912
0.605912
0.605918
0.605925
0.605931
0.605937
0.605937
0.605943
0.605949
0.605955
0.605961
0.605961
0.605967
0.605973
0.605979
0.605985
0.605985
0.605992
0.605998
0.606004
0.60601
0.60601
0.606016
0.606022
0.606028
0.606035
0.606035
0.606041
0.606047
0.606053
0.606059
0.606059
0.606065
0.606072
0.606078
0.606084
0.606084
0.60609
0.606097
0.606103
0.606109
0.606109
0.606115
0.606122
0.606128
0.606134
0.606134
0.60614
0.606147
0.606153
0.606159
0.606159
0.606166
0.606172
0.606178
0.606185
0.606185
0.606191
0.606197
0.606204
0.60621
0.60621
0.606216
0.606223
0.606229
0.606235
0.606235
0.606242
0.606248
0.606255
0.606261
0.606261
0.606268
0.606274
0.60628
0.606287
0.606287
0.606293
0.6063
0.606306
0.606313
0.606313
0.606319
0.606326
0.606332
0.606339
0.606339
0.606345
0.606352
0.606358
0.606365
0.606365
0.606371
0.606378
0.606384
0.606391
0.606391
0.606397
0.606404
0.60641
0.606417
0.606417
0.606424
0.60643
0.606437
0.606443
0.606443
0.60645
0.606457
0.606463
0.60647
0.60647
0.606476
0.606483
0.60649
0.606496
0.606496
0.606503
0.60651
0.606516
0.606523
0.606523
0.60653
0.606537
0.606543
0.60655
0.60655
0.606557
0.606563
0.60657
0.606577
0.606577
0.606584
0.60659
0.606597
0.606604
0.606604
0.606611
0.606617
0.606624
0.606631
0.606631
0.606638
0.606645
0.606651
0.606658
0.606658
0.606665
0.606672
0.606679
0.606686
0.606686
0.606693
0.606699
0.606706
0.606713
0.606713
0.60672
0.606727
0.606734
0.606741
0.606741
0.606748
0.606755
0.606761
0.606768
0.606768
0.606775
0.606782
0.606789
0.606796
0.606796
0.606803
0.60681
0.606817
0.606824
0.606824
0.606831
0.606838
0.606845
0.606852
0.606852
0.606859
0.606866
0.606873
0.60688
0.60688
0.606887
0.606894
0.606902
0.606909
0.606909
0.606916
0.606923
0.60693
0.606937
0.606937
0.606944
0.606951
0.606958
0.606965
0.606965
0.606973
0.60698
0.606987
0.606994
0.606994
0.607001
0.607008
0.607016
0.607023
0.607023
0.60703
0.607037
0.607044
0.607052
0.607052
0.607059
0.607066
0.607073
0.607081
0.607081
0.607088
0.607095
0.607102
0.60711
0.60711
0.607117
0.607124
0.607131
0.607139
0.607139
0.607146
0.607153
0.607161
0.607168
0.607168
0.607175
0.607183
0.60719
0.607197
0.607197
0.607205
0.607212
0.60722
0.607227
0.607227
0.607234
0.607242
0.607249
0.607257
0.607257
0.607264
0.607271
0.607279
0.607286
0.607286
0.607294
0.607301
0.607309
0.607316
0.607316
0.607324
0.607331
0.607339
0.607346
0.607346
0.607354
0.607361
0.607369
0.607376
0.607376
0.607384
0.607391
0.607399
0.607406
0.607406
0.607414
0.607422
0.607429
0.607437
0.607437
0.607444
0.607452
0.60746
0.607467
0.607467
0.607475
0.607482
0.60749
0.607498
0.607498
0.607505
0.607513
0.607521
0.607528
0.607528
0.607536
0.607544
0.607551
0.607559
0.607559
0.607567
0.607575
0.607582
0.60759
0.60759
0.607598
0.607606
0.607613
0.607621
0.607621
0.607629
0.607637
0.607644
0.607652
0.607652
0.60766
0.607668
0.607676
0.607683
0.607683
0.607691
0.607699
0.607707
0.607715
0.607715
0.607723
0.607731
0.607738
0.607746
0.607746
0.607754
0.607762
0.60777
0.607778
0.607778
0.607786
0.607794
0.607802
0.60781
0.60781
0.607818
0.607826
0.607833
0.607841
0.607841
0.607849
0.607857
0.607865
0.607873
0.607873
0.607881
0.607889
0.607897
0.607905
0.607905
0.607914
0.607922
0.60793
0.607938
0.607938
0.607946
0.607954
0.607962
0.60797
0.60797
0.607978
0.607986
0.607994
0.608002
0.608002
0.608011
0.608019
0.608027
0.608035
0.608035
0.608043
0.608051
0.608059
0.608068
0.608068
0.608076
0.608084
0.608092
0.6081
0.6081
0.608109
0.608117
0.608125
0.608133
0.608133
0.608142
0.60815
0.608158
0.608166
0.608166
0.608175
0.608183
0.608191
0.6082
0.6082
0.608208
0.608216
0.608225
0.608233
0.608233
0.608241
0.60825
0.608258
0.608266
0.608266
0.608275
0.608283
0.608291
0.6083
0.6083
0.608308
0.608317
0.608325
0.608333
0.608333
0.608342
0.60835
0.608359
0.608367
0.608367
0.608376
0.608384
0.608393
0.608401
0.608401
0.60841
0.608418
0.608427
0.608435
0.608435
0.608444
0.608452
0.608461
0.608469
0.608469
0.608478
0.608486
0.608495
0.608503
0.608503
0.608512
0.608521
0.608529
0.608538
0.608538
0.608546
0.608555
0.608564
0.608572
0.608572
0.608581
0.60859
0.608598
0.608607
0.608607
0.608616
0.608624
0.608633
0.608642
0.608642
0.60865
0.608659
0.608668
0.608677
0.608677
0.608685
0.608694
0.608703
0.608712
0.608712
0.60872
0.608729
0.608738
0.608747
0.608747
0.608756
0.608764
0.608773
0.608782
0.608782
0.608791
0.6088
0.608808
0.608817
0.608817
0.608826
0.608835
0.608844
0.608853
0.608853
0.608862
0.608871
0.60888
0.608888
0.608888
0.608897
0.608906
0.608915
0.608924
0.608924
0.608933
0.608942
0.608951
0.60896
0.60896
0.608969
0.608978
0.608987
0.608996
0.608996
0.609005
0.609014
0.609023
0.609032
0.609032
0.609041
0.60905
0.609059
0.609068
0.609068
0.609078
0.609087
0.609096
0.609105
0.609105
0.609114
0.609123
0.609132
0.609141
0.609141
0.60915
0.60916
0.609169
0.609178
0.609178
0.609187
0.609196
0.609205
0.609215
0.609215
0.609224
0.609233
0.609242
0.609251
0.609251
0.609261
0.60927
0.609279
0.609288
0.609288
0.609297
0.609306
0.609315
0.609325
0.609325
0.609334
0.609343
0.609353
0.609362
0.609362
0.609372
0.609381
0.60939
0.6094
0.6094
0.609409
0.609419
0.609428
0.609438
0.609438
0.609447
0.609457
0.609466
0.609476
0.609476
0.609485
0.609494
0.609504
0.609513
0.609513
0.609523
0.609532
0.609542
0.609551
0.609551
0.609561
0.60957
0.60958
0.609589
0.609589
0.609599
0.609608
0.609618
0.609627
0.609627
0.609637
0.609647
0.609656
0.609666
0.609666
0.609675
0.609685
0.609695
0.609704
0.609704
0.609714
0.609723
0.609733
0.609743
0.609743
0.609752
0.609762
0.609772
0.609781
0.609781
0.609791
0.609801
0.609811
0.60982
0.60982
0.60983
0.60984
0.60985
0.609859
0.609859
0.609869
0.609879
0.609889
0.609898
0.609898
0.609908
0.609918
0.609928
0.609938
0.609938
0.609947
0.609957
0.609967
0.609977
0.609977
0.609987
0.609997
0.610007
0.610016
0.610016
0.610026
0.610036
0.610046
0.610056
0.610056
0.610066
0.610076
0.610086
0.610096
0.610096
0.610106
0.610116
0.610126
0.610136
0.610136
0.610146
0.610156
0.610166
0.610176
0.610176
0.610186
0.610196
0.610206
0.610216
0.610216
0.610226
0.610236
0.610246
0.610256
0.610256
0.610266
0.610276
0.610286
0.610297
0.610297
0.610307
0.610317
0.610327
0.610337
0.610337
0.610347
0.610357
0.610368
0.610378
0.610378
0.610388
0.610398
0.610408
0.610419
0.610419
0.610429
0.610439
0.610449
0.61046
0.61046
0.61047
0.61048
0.61049
0.610501
0.610501
0.610511
0.610521
0.610532
0.610542
0.610542
0.610552
0.610563
0.610573
0.610583
0.610583
0.610594
0.610604
0.610614
0.610625
0.610625
0.610635
0.610646
0.610656
0.610666
0.610666
0.610677
0.610687
0.610698
0.610708
0.610708
0.610719
0.610729
0.61074
0.61075
0.61075
0.610761
0.610771
0.610782
0.610792
0.610792
0.610803
0.610813
0.610824
0.610834
0.610834
0.610845
0.610855
0.610866
0.610877
0.610877
0.610887
0.610898
0.610908
0.610919
0.610919
0.61093
0.61094
0.610951
0.610962
0.610962
0.610972
0.610983
0.610994
0.611004
0.611004
0.611015
0.611026
0.611037
0.611047
0.611047
0.611058
0.611069
0.61108
0.61109
0.61109
0.611101
0.611112
0.611123
0.611133
0.611133
0.611144
0.611155
0.611166
0.611177
0.611177
0.611188
0.611198
0.611209
0.61122
0.61122
0.611231
0.611242
0.611253
0.611264
0.611264
0.611275
0.611286
0.611297
0.611307
0.611307
0.611318
0.611329
0.61134
0.611351
0.611351
0.611362
0.611373
0.611384
0.611395
0.611395
0.611406
0.611417
0.611428
0.611439
0.611439
0.611451
0.611462
0.611473
0.611484
0.611484
0.611495
0.611506
0.611517
0.611528
0.611528
0.611539
0.61155
0.611562
0.611573
0.611573
0.611584
0.611595
0.611606
0.611617
0.611617
0.611629
0.61164
0.611651
0.611662
0.611662
0.611674
0.611685
0.611696
0.611707
0.611707
0.611719
0.61173
0.611741
0.611752
0.611752
0.611764
0.611775
0.611786
0.611798
0.611798
0.611809
0.61182
0.611832
0.611843
0.611843
0.611855
0.611866
0.611877
0.611889
0.611889
0.6119
0.611912
0.611923
0.611934
0.611934
0.611946
0.611957
0.611969
0.61198
0.61198
0.611992
0.612003
0.612015
0.612026
0.612026
0.612038
0.612049
0.612061
0.612072
0.612072
0.612084
0.612096
0.612107
0.612119
0.612119
0.61213
0.612142
0.612154
0.612165
0.612165
0.612177
0.612188
0.6122
0.612212
0.612212
0.612223
0.612235
0.612247
0.612259
0.612259
0.61227
0.612282
0.612294
0.612305
0.612305
0.612317
0.612329
0.612341
0.612352
0.612352
0.612364
0.612376
0.612388
0.6124
0.6124
0.612411
0.612423
0.612435
0.612447
0.612447
0.612459
0.612471
0.612483
0.612494
0.612494
0.612506
0.612518
0.61253
0.612542
0.612542
0.612554
0.612566
0.612578
0.61259
0.61259
0.612602
0.612614
0.612626
0.612638
0.612638
0.61265
0.612662
0.612674
0.612686
0.612686
0.612698
0.61271
0.612722
0.612734
0.612734
0.612746
0.612758
0.61277
0.612782
0.612782
0.612794
0.612807
0.612819
0.612831
0.612831
0.612843
0.612855
0.612867
0.61288
0.61288
0.612892
0.612904
0.612916
0.612928
0.612928
0.612941
0.612953
0.612965
0.612977
0.612977
0.61299
0.613002
0.613014
0.613026
0.613026
0.613039
0.613051
0.613063
0.613076
0.613076
0.613088
0.6131
0.613113
0.613125
0.613125
0.613137
0.61315
0.613162
0.613175
0.613175
0.613187
0.6132
0.613212
0.613224
0.613224
0.613237
0.613249
0.613262
0.613274
0.613274
0.613287
0.613299
0.613312
0.613324
0.613324
0.613337
0.613349
0.613362
0.613375
0.613375
0.613387
0.6134
0.613412
0.613425
0.613425
0.613437
0.61345
0.613463
0.613475
0.613475
0.613488
0.613501
0.613513
0.613526
0.613526
0.613539
0.613551
0.613564
0.613577
0.613577
0.61359
0.613602
0.613615
0.613628
0.613628
0.613641
0.613653
0.613666
0.613679
0.613679
0.613692
0.613705
0.613717
0.61373
0.61373
0.613743
0.613756
0.613769
0.613782
0.613782
0.613794
0.613807
0.61382
0.613833
0.613833
0.613846
0.613859
0.613872
0.613885
0.613885
0.613898
0.613911
0.613924
0.613937
0.613937
0.61395
0.613963
0.613976
0.613989
0.613989
0.614002
0.614015
0.614028
0.614041
0.614041
0.614054
0.614067
0.61408
0.614093
0.614093
0.614107
0.61412
0.614133
0.614146
0.614146
0.614159
0.614172
0.614186
0.614199
0.614199
0.614212
0.614225
0.614238
0.614252
0.614252
0.614265
0.614278
0.614291
0.614305
0.614305
0.614318
0.614331
0.614344
0.614358
0.614358
0.614371
0.614384
0.614398
0.614411
0.614411
0.614424
0.614438
0.614451
0.614465
0.614465
0.614478
0.614491
0.614505
0.614518
0.614518
0.614532
0.614545
0.614558
0.614572
0.614572
0.614585
0.614599
0.614612
0.614626
0.614626
0.614639
0.614652
0.614666
0.614679
0.614679
0.614693
0.614706
0.614719
0.614733
0.614733
0.614746
0.61476
0.614774
0.614788
0.614788
0.614802
0.614815
0.614829
0.614843
0.614843
0.614857
0.614871
0.614884
0.614898
0.614898
0.614912
0.614926
0.614939
0.614953
0.614953
0.614967
0.614981
0.614995
0.615008
0.615008
0.615022
0.615036
0.61505
0.615064
0.615064
0.615077
0.615091
0.615105
0.615119
0.615119
0.615133
0.615147
0.615161
0.615175
0.615175
0.615189
0.615203
0.615216
0.61523
0.61523
0.615244
0.615258
0.615272
0.615286
0.615286
0.6153
0.615314
0.615328
0.615342
0.615342
0.615357
0.615371
0.615385
0.615399
0.615399
0.615413
0.615427
0.615441
0.615455
0.615455
0.615469
0.615483
0.615498
0.615512
0.615512
0.615526
0.61554
0.615554
0.615569
0.615569
0.615583
0.615597
0.615611
0.615625
0.615625
0.61564
0.615654
0.615668
0.615683
0.615683
0.615697
0.615711
0.615726
0.61574
0.61574
0.615754
0.615769
0.615783
0.615797
0.615797
0.615812
0.615826
0.615841
0.615855
0.615855
0.615869
0.615884
0.615898
0.615913
0.615913
0.615927
0.615942
0.615956
0.615971
0.615971
0.615985
0.616
0.616014
0.616029
0.616029
0.616043
0.616058
0.616072
0.616087
0.616087
0.616102
0.616116
0.616131
0.616146
0.616146
0.61616
0.616175
0.61619
0.616204
0.616204
0.616219
0.616234
0.616248
0.616263
0.616263
0.616278
0.616292
0.616307
0.616322
0.616322
0.616337
0.616352
0.616366
0.616381
0.616381
0.616396
0.616411
0.616426
0.61644
0.61644
0.616455
0.61647
0.616485
0.6165
0.6165
0.616515
0.61653
0.616545
0.61656
0.61656
0.616575
0.61659
0.616604
0.616619
0.616619
0.616634
0.616649
0.616664
0.616679
0.616679
0.616695
0.61671
0.616725
0.61674
0.61674
0.616755
0.61677
0.616785
0.6168
0.6168
0.616815
0.61683
0.616845
0.616861
0.616861
0.616876
0.616891
0.616906
0.616921
0.616921
0.616937
0.616952
0.616967
0.616982
0.616982
0.616997
0.617013
0.617028
0.617043
0.617043
0.617059
0.617074
0.617089
0.617105
0.617105
0.61712
0.617135
0.617151
0.617166
0.617166
0.617181
0.617197
0.617212
0.617228
0.617228
0.617243
0.617258
0.617274
0.617289
0.617289
0.617305
0.61732
0.617336
0.617351
0.617351
0.617367
0.617382
0.617398
0.617413
0.617413
0.617429
0.617445
0.61746
0.617476
0.617476
0.617491
0.617507
0.617523
0.617538
0.617538
0.617554
0.61757
0.617585
0.617601
0.617601
0.617617
0.617632
0.617648
0.617664
0.617664
0.61768
0.617695
0.617711
0.617727
0.617727
0.617743
0.617758
0.617774
0.61779
0.61779
0.617806
0.617822
0.617838
0.617854
0.617854
0.617869
0.617885
0.617901
0.617917
0.617917
0.617933
0.617949
0.617965
0.617981
0.617981
0.617997
0.618013
0.618029
0.618045
0.618045
0.618061
0.618077
0.618093
0.618109
0.618109
0.618125
0.618141
0.618157
0.618173
0.618173
0.618189
0.618206
0.618222
0.618238
0.618238
0.618254
0.61827
0.618286
0.618302
0.618302
0.618319
0.618335
0.618351
0.618367
0.618367
0.618384
0.6184
0.618416
0.618432
0.618432
0.618449
0.618465
0.618481
0.618498
0.618498
0.618514
0.61853
0.618547
0.618563
0.618563
0.618579
0.618596
0.618612
0.618629
0.618629
0.618645
0.618662
0.618678
0.618695
0.618695
0.618711
0.618727
0.618744
0.618761
0.618761
0.618777
0.618794
0.61881
0.618827
0.618827
0.618843
0.61886
0.618876
0.618893
0.618893
0.61891
0.618926
0.618943
0.61896
0.61896
0.618976
0.618993
0.61901
0.619026
0.619026
0.619043
0.61906
0.619077
0.619093
0.619093
0.61911
0.619127
0.619144
0.61916
0.61916
0.619177
0.619194
0.619211
0.619228
0.619228
0.619245
0.619261
0.619278
0.619295
0.619295
0.619312
0.619329
0.619346
0.619363
0.619363
0.61938
0.619397
0.619414
0.619431
0.619431
0.619448
0.619465
0.619482
0.619499
0.619499
0.619516
0.619533
0.61955
0.619567
0.619567
0.619584
0.619601
0.619618
0.619636
0.619636
0.619653
0.61967
0.619687
0.619704
0.619704
0.619721
0.619739
0.619756
0.619773
0.619773
0.61979
0.619808
0.619825
0.619842
0.619842
0.619859
0.619877
0.619894
0.619911
0.619911
0.619929
0.619946
0.619963
0.619981
0.619981
0.619998
0.620016
0.620033
0.62005
0.62005
0.620068
0.620085
0.620103
0.62012
0.62012
0.620138
0.620155
0.620173
0.62019
0.62019
0.620208
0.620225
0.620243
0.62026
0.62026
0.620278
0.620296
0.620313
0.620331
0.620331
0.620349
0.620366
0.620384
0.620401
0.620401
0.620419
0.620437
0.620455
0.620472
0.620472
0.62049
0.620508
0.620525
0.620543
0.620543
0.620561
0.620579
0.620596
0.620614
0.620614
0.620632
0.620649
0.620667
0.620685
0.620685
0.620703
0.62072
0.620738
0.620756
0.620756
0.620774
0.620792
0.62081
0.620828
0.620828
0.620846
0.620864
0.620882
0.620901
0.620901
0.620919
0.620937
0.620955
0.620973
0.620973
0.620991
0.62101
0.621028
0.621046
0.621046
0.621064
0.621082
0.6211
0.621119
0.621119
0.621137
0.621155
0.621173
0.621191
0.621191
0.62121
0.621228
0.621246
0.621264
0.621264
0.621283
0.621301
0.621319
0.621338
0.621338
0.621356
0.621374
0.621393
0.621411
0.621411
0.621429
0.621448
0.621466
0.621485
0.621485
0.621503
0.621521
0.62154
0.621558
0.621558
0.621577
0.621595
0.621614
0.621632
0.621632
0.621651
0.62167
0.621688
0.621707
0.621707
0.621725
0.621744
0.621762
0.621781
0.621781
0.6218
0.621818
0.621837
0.621856
0.621856
0.621874
0.621893
0.621912
0.621931
0.621931
0.621949
0.621968
0.621987
0.622006
0.622006
0.622024
0.622043
0.622062
0.622081
0.622081
0.6221
0.622119
0.622138
0.622156
0.622156
0.622175
0.622194
0.622213
0.622232
0.622232
0.622251
0.62227
0.622289
0.622308
0.622308
0.622327
0.622346
0.622365
0.622384
0.622384
0.622403
0.622422
0.622441
0.62246
0.62246
0.62248
0.622499
0.622518
0.622537
0.622537
0.622556
0.622575
0.622594
0.622614
0.622614
0.622633
0.622652
0.622671
0.622691
0.622691
0.62271
0.622729
0.622748
0.622768
0.622768
0.622787
0.622806
0.622826
0.622845
0.622845
0.622864
0.622884
0.622903
0.622923
0.622923
0.622942
0.622962
0.622981
0.623
0.623
0.62302
0.623039
0.623059
0.623078
0.623078
0.623098
0.623118
0.623137
0.623157
0.623157
0.623176
0.623196
0.623216
0.623235
0.623235
0.623255
0.623274
0.623294
0.623314
0.623314
0.623333
0.623353
0.623373
0.623393
0.623393
0.623412
0.623432
0.623452
0.623472
0.623472
0.623492
0.623511
0.623531
0.623551
0.623551
0.623571
0.623591
0.623611
0.623631
0.623631
0.62365
0.62367
0.62369
0.62371
0.62371
0.62373
0.62375
0.62377
0.62379
0.62379
0.62381
0.62383
0.62385
0.62387
0.62387
0.62389
0.623911
0.623931
0.623951
0.623951
0.623971
0.623991
0.624011
0.624031
0.624031
0.624052
0.624072
0.624092
0.624112
0.624112
0.624132
0.624153
0.624173
0.624193
0.624193
0.624214
0.624234
0.624254
0.624274
0.624274
0.624295
0.624315
0.624336
0.624356
0.624356
0.624376
0.624397
0.624417
0.624438
0.624438
0.624458
0.624479
0.624499
0.62452
0.62452
0.62454
0.624561
0.624581
0.624602
0.624602
0.624622
0.624643
0.624663
0.624684
0.624684
0.624705
0.624725
0.624746
0.624767
0.624767
0.624787
0.624808
0.624829
0.62485
0.62485
0.62487
0.624891
0.624912
0.624933
0.624933
0.624953
0.624974
0.624995
0.625016
0.625016
0.625037
0.625058
0.625078
0.625099
0.625099
0.62512
0.625141
0.625162
0.625183
0.625183
0.625204
0.625225
0.625246
0.625267
0.625267
0.625288
0.625309
0.62533
0.625351
0.625351
0.625372
0.625393
0.625414
0.625436
0.625436
0.625457
0.625478
0.625499
0.62552
0.62552
0.625541
0.625563
0.625584
0.625605
0.625605
0.625626
0.625648
0.625669
0.62569
0.62569
0.625711
0.625733
0.625754
0.625775
0.625775
0.625797
0.625818
0.62584
0.625861
0.625861
0.625882
0.625904
0.625925
0.625947
0.625947
0.625968
0.62599
0.626011
0.626033
0.626033
0.626054
0.626076
0.626097
0.626119
0.626119
0.626141
0.626162
0.626184
0.626205
0.626205
0.626227
0.626249
0.62627
0.626292
0.626292
0.626314
0.626336
0.626357
0.626379
0.626379
0.626401
0.626423
0.626444
0.626466
0.626466
0.626488
0.62651
0.626532
0.626554
0.626554
0.626576
0.626597
0.626619
0.626641
0.626641
0.626663
0.626685
0.626707
0.626729
0.626729
0.626751
0.626773
0.626795
0.626817
0.626817
0.626839
0.626861
0.626883
0.626906
0.626906
0.626928
0.62695
0.626972
0.626994
0.626994
0.627016
0.627038
0.627061
0.627083
0.627083
0.627105
0.627127
0.627149
0.627172
0.627172
0.627194
0.627216
0.627238
0.62726
0.62726
0.627283
0.627305
0.627327
0.627349
0.627349
0.627371
0.627394
0.627416
0.627439
0.627439
0.627461
0.627484
0.627507
0.627529
0.627529
0.627552
0.627575
0.627598
0.62762
0.62762