<?xml version="1.0"?>
<VTKFile type="UnstructuredGrid" version="0.1" byte_order="LittleEndian">
<UnstructuredGrid>
<Piece NumberOfPoints="5000" NumberOfCells="4000">
<PointData Scalars="Reaction 0">
<DataArray type="Float32" Name="Reaction 0" format="ascii">
0.950087
0.950087
0.950087
0.950087
0.950087
0.950087
0.950087
0.950087
0.950087
0.950087
0.950087
0.950087
0.950087
0.950087
0.950087
0.950087
0.950087
0.950087
0.950087
0.950087
0.950087
0.950087
0.950087
0.950087
0.950087
0.950087
0.950087
0.950087
0.950087
0.950087
0.950087
0.950087
0.950087
0.950087
0.950088
0.950088
0.950088
0.950088
0.950088
0.950088
0.950088
0.950088
0.950088
0.950088
0.950088
0.950088
0.950088
0.950088
0.950088
0.950088
0.950088
0.950088
0.950088
0.950088
0.950088
0.950088
0.950089
0.950089
0.950089
0.950089
0.950089
0.950089
0.950089
0.950089
0.950089
0.950089
0.950089
0.950089
0.950089
0.950089
0.950089
0.95009
0.95009
0.95009
0.95009
0.95009
0.95009
0.95009
0.95009
0.95009
0.95009
0.95009
0.95009
0.950091
0.950091
0.950091
0.950091
0.950091
0.950091
0.950091
0.950091
0.950091
0.950091
0.950092
0.950092
0.950092
0.950092
0.950092
0.950092
0.950092
0.950092
0.950092
0.950092
0.950093
0.950093
0.950093
0.950093
0.950093
0.950093
0.950093
0.950093
0.950093
0.950094
0.950094
0.950094
0.950094
0.950094
0.950094
0.950094
0.950095
0.950095
0.950095
0.950095
0.950095
0.950095
0.950095
0.950095
0.950095
0.950096
0.950096
0.950096
0.950096
0.950096
0.950096
0.950097
0.950097
0.950097
0.950097
0.950097
0.950097
0.950097
0.950097
0.950098
0.950098
0.950098
0.950098
0.950098
0.950098
0.950099
0.950099
0.950099
0.950099
0.950099
0.950099
0.9501
0.9501
0.9501
0.9501
0.9501
0.9501
0.9501
0.950101
0.950101
0.950101
0.950101
0.950101
0.950102
0.950102
0.950102
0.950102
0.950102
0.950102
0.950103
0.950103
0.950103
0.950103
0.950103
0.950104
0.950104
0.950104
0.950104
0.950104
0.950105
0.950105
0.950105
0.950105
0.950105
0.950106
0.950106
0.950106
0.950106
0.950106
0.950107
0.950107
0.950107
0.950107
0.950107
0.950108
0.950108
0.950108
0.950108
0.950108
0.950109
0.950109
0.950109
0.950109
0.950109
0.95011
0.95011
0.95011
0.95011
0.950111
0.950111
0.950111
0.950111
0.950111
0.950112
0.950112
0.950112
0.950113
0.950113
0.950113
0.950113
0.950113
0.950114
0.950114
0.950114
0.950114
0.950115
0.950115
0.950115
0.950115
0.950116
0.950116
0.950116
0.950116
0.950116
0.950117
0.950117
0.950117
0.950117
0.950118
0.950118
0.950118
0.950119
0.950119
0.950119
0.950119
0.95012
0.95012
0.95012
0.95012
0.950121
0.950121
0.950121
0.950121
0.950122
0.950122
0.950122
0.950123
0.950123
0.950123
0.950123
0.950124
0.950124
0.950124
0.950124
0.950125
0.950125
0.950126
0.950126
0.950126
0.950126
0.950127
0.950127
0.950127
0.950127
0.950128
0.950128
0.950128
0.950128
0.950129
0.950129
0.95013
0.95013
0.95013
0.95013
0.950131
0.950131
0.950131
0.950131
0.950132
0.950132
0.950133
0.950133
0.950133
0.950133
0.950134
0.950134
0.950135
0.950135
0.950135
0.950135
0.950136
0.950136
0.950136
0.950137
0.950137
0.950137
0.950138
0.950138
0.950138
0.950139
0.950139
0.95014
0.95014
0.95014
0.95014
0.950141
0.950141
0.950141
0.950142
0.950142
0.950142
0.950143
0.950143
0.950143
0.950144
0.950144
0.950145
0.950145
0.950145
0.950146
0.950146
0.950146
0.950146
0.950147
0.950147
0.950148
0.950148
0.950148
0.950149
0.950149
0.95015
0.95015
0.95015
0.95015
0.950151
0.950151
0.950152
0.950152
0.950152
0.950153
0.950153
0.950154
0.950154
0.950154
0.950155
0.950155
0.950156
0.950156
0.950156
0.950157
0.950157
0.950158
0.950158
0.950158
0.950159
0.950159
0.95016
0.95016
0.95016
0.95016
0.950161
0.950161
0.950161
0.950162
0.950162
0.950163
0.950163
0.950163
0.950164
0.950165
0.950165
0.950166
0.950166
0.950166
0.950167
0.950167
0.950168
0.950168
0.950168
0.950169
0.950169
0.95017
0.95017
0.95017
0.950171
0.950171
0.950172
0.950172
0.950172
0.950173
0.950173
0.950174
0.950174
0.950174
0.950175
0.950176
0.950176
0.950176
0.950177
0.950177
0.950178
0.950178
0.950178
0.950179
0.950179
0.95018
0.950181
0.950181
0.950181
0.950182
0.950182
0.950183
0.950183
0.950183
0.950184
0.950184
0.950185
0.950185
0.950186
0.950186
0.950187
0.950187
0.950187
0.950188
0.950188
0.950189
0.95019
0.95019
0.95019
0.950191
0.950191
0.950192
0.950192
0.950193
0.950193
0.950194
0.950194
0.950194
0.950195
0.950196
0.950196
0.950197
0.950197
0.950197
0.950198
0.950199
0.950199
0.950199
0.9502
0.9502
0.950201
0.950202
0.950202
0.950202
0.950203
0.950204
0.950204
0.950204
0.950205
0.950205
0.950206
0.950207
0.950207
0.950207
0.950208
0.950209
0.950209
0.950209
0.95021
0.950211
0.950211
0.950212
0.950212
0.950212
0.950213
0.950214
0.950214
0.950214
0.950215
0.950216
0.950216
0.950217
0.950217
0.950218
0.950218
0.950219
0.95022
0.95022
0.95022
0.950221
0.950222
0.950222
0.950222
0.950223
0.950224
0.950224
0.950225
0.950225
0.950226
0.950226
0.950227
0.950228
0.950228
0.950228
0.950229
0.95023
0.950231
0.950231
0.950231
0.950232
0.950233
0.950233
0.950233
0.950234
0.950235
0.950235
0.950236
0.950236
0.950237
0.950238
0.950238
0.950239
0.950239
0.95024
0.95024
0.950241
0.950242
0.950242
0.950243
0.950243
0.950244
0.950245
0.950245
0.950245
0.950246
0.950247
0.950248
0.950248
0.950248
0.950249
0.95025
0.950251
0.950251
0.950251
0.950252
0.950253
0.950254
0.950254
0.950254
0.950255
0.950256
0.950257
0.950257
0.950257
0.950258
0.950259
0.95026
0.95026
0.95026
0.950261
0.950262
0.950263
0.950263
0.950263
0.950264
0.950265
0.950266
0.950266
0.950267
0.950267
0.950268
0.950269
0.950269
0.95027
0.95027
0.950271
0.950272
0.950272
0.950273
0.950274
0.950274
0.950275
0.950275
0.950276
0.950277
0.950278
0.950278
0.950278
0.950279
0.95028
0.950281
0.950282
0.950282
0.950282
0.950283
0.950284
0.950285
0.950285
0.950286
0.950286
0.950287
0.950288
0.950288
0.950289
0.95029
0.950291
0.950291
0.950291
0.950292
0.950293
0.950294
0.950295
0.950295
0.950296
0.950296
0.950297
0.950298
0.950298
0.950299
0.9503
0.950301
0.950301
0.950301
0.950302
0.950303
0.950304
0.950305
0.950305
0.950306
0.950307
0.950307
0.950308
0.950308
0.950309
0.95031
0.950311
0.950312
0.950312
0.950313
0.950313
0.950314
0.950315
0.950315
0.950316
0.950317
0.950318
0.950319
0.950319
0.95032
0.95032
0.950321
0.950322
0.950322
0.950323
0.950324
0.950325
0.950326
0.950326
0.950327
0.950328
0.950329
0.950329
0.950329
0.95033
0.950331
0.950332
0.950333
0.950333
0.950334
0.950335
0.950336
0.950337
0.950337
0.950338
0.950339
0.950339
0.95034
0.95034
0.950341
0.950342
0.950343
0.950344
0.950344
0.950345
0.950346
0.950347
0.950348
0.950348
0.950349
0.95035
0.950351
0.950352
0.950352
0.950353
0.950353
0.950354
0.950355
0.950355
0.950356
0.950357
0.950358
0.950359
0.950359
0.95036
0.950361
0.950362
0.950363
0.950363
0.950364
0.950365
0.950366
0.950367
0.950367
0.950368
0.950369
0.95037
0.950371
0.950371
0.950372
0.950373
0.950374
0.950375
0.950375
0.950376
0.950377
0.950378
0.950379
0.950379
0.95038
0.950381
0.950382
0.950383
0.950383
0.950384
0.950385
0.950386
0.950387
0.950387
0.950388
0.950389
0.95039
0.950391
0.950391
0.950392
0.950393
0.950394
0.950395
0.950395
0.950396
0.950397
0.950398
0.950399
0.950399
0.9504
0.950401
0.950402
0.950403
0.950403
0.950404
0.950405
0.950406
0.950407
0.950407
0.950408
0.950409
0.95041
0.950411
0.950411
0.950412
0.950413
0.950414
0.950415
0.950415
0.950417
0.950418
0.950419
0.95042
0.95042
0.950421
0.950422
0.950423
0.950424
0.950424
0.950425
0.950426
0.950427
0.950428
0.950428
0.950429
0.95043
0.950431
0.950433
0.950433
0.950434
0.950435
0.950436
0.950437
0.950437
0.950438
0.950439
0.95044
0.950441
0.950441
0.950442
0.950443
0.950445
0.950446
0.950446
0.950447
0.950448
0.950449
0.95045
0.95045
0.950451
0.950452
0.950453
0.950455
0.950455
0.950456
0.950457
0.950458
0.950459
0.950459
0.95046
0.950461
0.950462
0.950464
0.950464
0.950465
0.950466
0.950467
0.950468
0.950468
0.950469
0.95047
0.950471
0.950473
0.950473
0.950474
0.950475
0.950476
0.950477
0.950477
0.950478
0.950479
0.950481
0.950482
0.950482
0.950483
0.950484
0.950485
0.950486
0.950486
0.950488
0.950489
0.95049
0.950491
0.950491
0.950492
0.950493
0.950495
0.950496
0.950496
0.950497
0.950498
0.950499
0.950501
0.950501
0.950502
0.950503
0.950504
0.950505
0.950505
0.950506
0.950508
0.950509
0.95051
0.95051
0.950511
0.950512
0.950514
0.950515
0.950515
0.950516
0.950517
0.950518
0.95052
0.95052
0.950521
0.950522
0.950523
0.950525
0.950525
0.950526
0.950527
0.950528
0.950529
0.950529
0.950531
0.950532
0.950533
0.950534
0.950534
0.950536
0.950537
0.950538
0.950539
0.950539
0.950541
0.950542
0.950543
0.950544
0.950544
0.950546
0.950547
0.950548
0.950549
0.950549
0.95055
0.950552
0.950553
0.950554
0.950554
0.950555
0.950557
0.950558
0.950559
0.950559
0.95056
0.950562
0.950563
0.950564
0.950564
0.950565
0.950566
0.950567
0.950569
0.950569
0.95057
0.950571
0.950572
0.950573
0.950573
0.950574
0.950575
0.950577
0.950578
0.950578
0.950579
0.95058
0.950581
0.950583
0.950583
0.950584
0.950586
0.950587
0.950589
0.950589
0.95059
0.950592
0.950593
0.950595
0.950595
0.950596
0.950597
0.950599
0.9506
0.9506
0.950602
0.950603
0.950604
0.950606
0.950606
0.950607
0.950609
0.95061
0.950611
0.950611
0.950613
0.950614
0.950615
0.950617
0.950617
0.950618
0.950619
0.950621
0.950622
0.950622
0.950624
0.950625
0.950626
0.950628
0.950628
0.950629
0.95063
0.950632
0.950633
0.950633
0.950634
0.950636
0.950637
0.950639
0.950639
0.95064
0.950641
0.950643
0.950644
0.950644
0.950645
0.950647
0.950648
0.95065
0.95065
0.950651
0.950652
0.950654
0.950655
0.950655
0.950657
0.950658
0.950659
0.950661
0.950661
0.950662
0.950664
0.950665
0.950666
0.950666
0.950668
0.950669
0.950671
0.950672
0.950672
0.950673
0.950675
0.950676
0.950678
0.950678
0.950679
0.950681
0.950682
0.950683
0.950683
0.950685
0.950686
0.950688
0.950689
0.950689
0.950691
0.950692
0.950693
0.950695
0.950695
0.950696
0.950698
0.950699
0.950701
0.950701
0.950702
0.950704
0.950705
0.950707
0.950707
0.950708
0.950709
0.950711
0.950712
0.950712
0.950714
0.950715
0.950717
0.950718
0.950718
0.95072
0.950721
0.950723
0.950724
0.950724
0.950726
0.950727
0.950729
0.95073
0.95073
0.950732
0.950733
0.950735
0.950736
0.950736
0.950738
0.950739
0.950741
0.950742
0.950742
0.950744
0.950745
0.950747
0.950748
0.950748
0.95075
0.950751
0.950753
0.950754
0.950754
0.950756
0.950757
0.950759
0.95076
0.95076
0.950762
0.950763
0.950765
0.950766
0.950766
0.950768
0.950769
0.950771
0.950772
0.950772
0.950774
0.950776
0.950777
0.950779
0.950779
0.95078
0.950782
0.950783
0.950785
0.950785
0.950786
0.950788
0.950789
0.950791
0.950791
0.950793
0.950794
0.950796
0.950797
0.950797
0.950799
0.9508
0.950802
0.950804
0.950804
0.950805
0.950807
0.950808
0.95081
0.95081
0.950811
0.950813
0.950815
0.950816
0.950816
0.950818
0.950819
0.950821
0.950823
0.950823
0.950824
0.950826
0.950827
0.950829
0.950829
0.950831
0.950832
0.950834
0.950835
0.950835
0.950837
0.950839
0.95084
0.950842
0.950842
0.950843
0.950845
0.950847
0.950848
0.950848
0.95085
0.950852
0.950853
0.950855
0.950855
0.950856
0.950858
0.95086
0.950861
0.950861
0.950863
0.950865
0.950866
0.950868
0.950868
0.95087
0.950871
0.950873
0.950874
0.950874
0.950876
0.950878
0.950879
0.950881
0.950881
0.950883
0.950884
0.950886
0.950888
0.950888
0.950889
0.950891
0.950893
0.950894
0.950894
0.950896
0.950898
0.950899
0.950901
0.950901
0.950903
0.950905
0.950906
0.950908
0.950908
0.95091
0.950911
0.950913
0.950915
0.950915
0.950916
0.950918
0.95092
0.950921
0.950921
0.950923
0.950925
0.950927
0.950928
0.950928
0.95093
0.950932
0.950933
0.950935
0.950935
0.950937
0.950939
0.95094
0.950942
0.950942
0.950944
0.950945
0.950947
0.950949
0.950949
0.950951
0.950952
0.950954
0.950956
0.950956
0.950958
0.950959
0.950961
0.950963
0.950963
0.950965
0.950966
0.950968
0.95097
0.95097
0.950972
0.950973
0.950975
0.950977
0.950977
0.950979
0.95098
0.950982
0.950984
0.950984
0.950986
0.950987
0.950989
0.950991
0.950991
0.950993
0.950995
0.950996
0.950998
0.950998
0.951
0.951002
0.951003
0.951005
0.951005
0.951007
0.951009
0.951011
0.951012
0.951012
0.951014
0.951016
0.951018
0.95102
0.95102
0.951021
0.951023
0.951025
0.951027
0.951027
0.951029
0.951031
0.951032
0.951034
0.951034
0.951036
0.951038
0.95104
0.951041
0.951041
0.951043
0.951045
0.951047
0.951049
0.951049
0.951051
0.951052
0.951054
0.951056
0.951056
0.951058
0.95106
0.951062
0.951064
0.951064
0.951065
0.951067
0.951069
0.951071
0.951071
0.951073
0.951075
0.951076
0.951078
0.951078
0.95108
0.951082
0.951084
0.951086
0.951086
0.951088
0.95109
0.951091
0.951093
0.951093
0.951095
0.951097
0.951099
0.951101
0.951101
0.951103
0.951105
0.951107
0.951108
0.951108
0.95111
0.951112
0.951114
0.951116
0.951116
0.951118
0.95112
0.951122
0.951124
0.951124
0.951126
0.951127
0.951129
0.951131
0.951131
0.951133
0.951135
0.951137
0.951139
0.951139
0.951141
0.951143
0.951145
0.951147
0.951147
0.951149
0.951151
0.951152
0.951154
0.951154
0.951156
0.951158
0.95116
0.951162
0.951162
0.951164
0.951166
0.951168
0.95117
0.95117
0.951172
0.951174
0.951176
0.951178
0.951178
0.95118
0.951182
0.951184
0.951186
0.951186
0.951188
0.95119
0.951192
0.951194
0.951194
0.951196
0.951197
0.951199
0.951201
0.951201
0.951203
0.951205
0.951207
0.951209
0.951209
0.951211
0.951213
0.951215
0.951217
0.951217
0.951219
0.951221
0.951223
0.951225
0.951225
0.951227
0.951229
0.951231
0.951233
0.951233
0.951235
0.951237
0.951239
0.951241
0.951241
0.951243
0.951246
0.951248
0.95125
0.95125
0.951252
0.951254
0.951256
0.951258
0.951258
0.95126
0.951262
0.951264
0.951266
0.951266
0.951268
0.95127
0.951272
0.951274
0.951274
0.951276
0.951278
0.95128
0.951282
0.951282
0.951284
0.951286
0.951288
0.95129
0.95129
0.951293
0.951295
0.951297
0.951299
0.951299
0.951301
0.951303
0.951305
0.951307
0.951307
0.951309
0.951311
0.951313
0.951315
0.951315
0.951318
0.95132
0.951322
0.951324
0.951324
0.951326
0.951328
0.95133
0.951332
0.951332
0.951334
0.951336
0.951338
0.951341
0.951341
0.951343
0.951345
0.951347
0.951349
0.951349
0.951351
0.951353
0.951355
0.951358
0.951358
0.95136
0.951362
0.951364
0.951366
0.951366
0.951368
0.95137
0.951372
0.951375
0.951375
0.951377
0.951379
0.951381
0.951383
0.951383
0.951385
0.951387
0.95139
0.951392
0.951392
0.951394
0.951396
0.951398
0.9514
0.9514
0.951403
0.951405
0.951407
0.951409
0.951409
0.951411
0.951413
0.951416
0.951418
0.951418
0.95142
0.951422
0.951424
0.951427
0.951427
0.951429
0.951431
0.951433
0.951435
0.951435
0.951438
0.95144
0.951442
0.951444
0.951444
0.951446
0.951449
0.951451
0.951453
0.951453
0.951455
0.951457
0.95146
0.951462
0.951462
0.951464
0.951466
0.951468
0.951471
0.951471
0.951473
0.951475
0.951477
0.95148
0.95148
0.951482
0.951484
0.951486
0.951489
0.951489
0.951491
0.951493
0.951495
0.951497
0.951497
0.9515
0.951502
0.951504
0.951507
0.951507
0.951509
0.951511
0.951513
0.951516
0.951516
0.951518
0.95152
0.951522
0.951525
0.951525
0.951527
0.951529
0.951531
0.951534
0.951534
0.951536
0.951538
0.951541
0.951543
0.951543
0.951545
0.951547
0.95155
0.951552
0.951552
0.951554
0.951557
0.951559
0.951561
0.951561
0.951563
0.951566
0.951568
0.95157
0.95157
0.951573
0.951575
0.951577
0.95158
0.95158
0.951582
0.951584
0.951587
0.951589
0.951589
0.951591
0.951594
0.951596
0.951598
0.951598
0.951601
0.951603
0.951605
0.951608
0.951608
0.95161
0.951612
0.951615
0.951617
0.951617
0.951619
0.951622
0.951624
0.951626
0.951626
0.951629
0.951631
0.951633
0.951636
0.951636
0.951638
0.951641
0.951643
0.951645
0.951645
0.951648
0.95165
0.951652
0.951655
0.951655
0.951657
0.95166
0.951662
0.951664
0.951664
0.951667
0.951669
0.951672
0.951674
0.951674
0.951676
0.951679
0.951681
0.951684
0.951684
0.951686
0.951688
0.951691
0.951693
0.951693
0.951696
0.951698
0.9517
0.951703
0.951703
0.951705
0.951708
0.95171
0.951712
0.951712
0.951715
0.951717
0.95172
0.951722
0.951722
0.951725
0.951727
0.95173
0.951732
0.951732
0.951734
0.951737
0.951739
0.951742
0.951742
0.951744
0.951747
0.951749
0.951752
0.951752
0.951754
0.951756
0.951759
0.951761
0.951761
0.951764
0.951766
0.951769
0.951771
0.951771
0.951774
0.951776
0.951779
0.951781
0.951781
0.951784
0.951786
0.951789
0.951791
0.951791
0.951794
0.951796
0.951799
0.951801
0.951801
0.951804
0.951806
0.951809
0.951811
0.951811
0.951814
0.951816
0.951819
0.951821
0.951821
0.951824
0.951826
0.951829
0.951831
0.951831
0.951834
0.951836
0.951839
0.951841
0.951841
0.951844
0.951846
0.951849
0.951851
0.951851
0.951854
0.951856
0.951859
0.951862
0.951862
0.951864
0.951867
0.951869
0.951872
0.951872
0.951874
0.951877
0.951879
0.951882
0.951882
0.951885
0.951887
0.95189
0.951892
0.951892
0.951895
0.951897
0.9519
0.951902
0.951902
0.951905
0.951908
0.95191
0.951913
0.951913
0.951915
0.951918
0.95192
0.951923
0.951923
0.951925
0.951928
0.95193
0.951933
0.951933
0.951935
0.951937
0.95194
0.951942
0.951942
0.951945
0.951947
0.951949
0.951952
0.951952
0.951954
0.951957
0.951959
0.951961
0.951961
0.951964
0.951967
0.951969
0.951972
0.951972
0.951975
0.951978
0.951981
0.951984
0.951984
0.951987
0.951989
0.951992
0.951995
0.951995
0.951998
0.952001
0.952004
0.952006
0.952006
0.952009
0.952012
0.952015
0.952017
0.952017
0.95202
0.952023
0.952026
0.952028
0.952028
0.952031
0.952034
0.952036
0.952039
0.952039
0.952042
0.952044
0.952047
0.95205
0.95205
0.952053
0.952055
0.952058
0.952061
0.952061
0.952063
0.952066
0.952069
0.952071
0.952071
0.952074
0.952077
0.95208
0.952082
0.952082
0.952085
0.952088
0.95209
0.952093
0.952093
0.952096
0.952099
0.952101
0.952104
0.952104
0.952107
0.95211
0.952112
0.952115
0.952115
0.952118
0.95212
0.952123
0.952126
0.952126
0.952129
0.952131
0.952134
0.952137
0.952137
0.95214
0.952142
0.952145
0.952148
0.952148
0.952151
0.952153
0.952156
0.952159
0.952159
0.952162
0.952165
0.952167
0.95217
0.95217
0.952173
0.952176
0.952178
0.952181
0.952181
0.952184
0.952187
0.95219
0.952192
0.952192
0.952195
0.952198
0.952201
0.952204
0.952204
0.952206
0.952209
0.952212
0.952215
0.952215
0.952218
0.95222
0.952223
0.952226
0.952226
0.952229
0.952232
0.952235
0.952237
0.952237
0.95224
0.952243
0.952246
0.952249
0.952249
0.952251
0.952254
0.952257
0.95226
0.95226
0.952263
0.952266
0.952269
0.952271
0.952271
0.952274
0.952277
0.95228
0.952283
0.952283
0.952286
0.952289
0.952291
0.952294
0.952294
0.952297
0.9523
0.952303
0.952306
0.952306
0.952309
0.952312
0.952314
0.952317
0.952317
0.95232
0.952323
0.952326
0.952329
0.952329
0.952332
0.952335
0.952337
0.95234
0.95234
0.952343
0.952346
0.952349
0.952352
0.952352
0.952355
0.952358
0.952361
0.952364
0.952364
0.952367
0.952369
0.952372
0.952375
0.952375
0.952378
0.952381
0.952384
0.952387
0.952387
0.95239
0.952393
0.952396
0.952399
0.952399
0.952402
0.952405
0.952408
0.952411
0.952411
0.952414
0.952416
0.952419
0.952422
0.952422
0.952425
0.952428
0.952431
0.952434
0.952434
0.952437
0.95244
0.952443
0.952446
0.952446
0.952449
0.952452
0.952455
0.952458
0.952458
0.952461
0.952464
0.952467
0.95247
0.95247
0.952473
0.952476
0.952479
0.952482
0.952482
0.952485
0.952488
0.952491
0.952494
0.952494
0.952497
0.9525
0.952503
0.952506
0.952506
0.952509
0.952512
0.952515
0.952518
0.952518
0.952521
0.952524
0.952527
0.95253
0.95253
0.952533
0.952536
0.952539
0.952542
0.952542
0.952545
0.952548
0.952551
0.952555
0.952555
0.952558
0.952561
0.952564
0.952567
0.952567
0.95257
0.952573
0.952576
0.952579
0.952579
0.952582
0.952585
0.952588
0.952591
0.952591
0.952594
0.952597
0.9526
0.952604
0.952604
0.952607
0.95261
0.952613
0.952616
0.952616
0.952619
0.952622
0.952625
0.952628
0.952628
0.952631
0.952635
0.952638
0.952641
0.952641
0.952644
0.952647
0.95265
0.952653
0.952653
0.952656
0.952659
0.952663
0.952666
0.952666
0.952669
0.952672
0.952675
0.952678
0.952678
0.952681
0.952684
0.952688
0.952691
0.952691
0.952694
0.952697
0.9527
0.952703
0.952703
0.952706
0.95271
0.952713
0.952716
0.952716
0.952719
0.952722
0.952725
0.952729
0.952729
0.952732
0.952735
0.952738
0.952741
0.952741
0.952744
0.952748
0.952751
0.952754
0.952754
0.952757
0.95276
0.952764
0.952767
0.952767
0.95277
0.952773
0.952776
0.952779
0.952779
0.952783
0.952786
0.952789
0.952792
0.952792
0.952796
0.952799
0.952802
0.952805
0.952805
0.952808
0.952812
0.952815
0.952818
0.952818
0.952821
0.952824
0.952828
0.952831
0.952831
0.952834
0.952837
0.952841
0.952844
0.952844
0.952847
0.95285
0.952854
0.952857
0.952857
0.95286
0.952863
0.952867
0.95287
0.95287
0.952873
0.952876
0.95288
0.952883
0.952883
0.952886
0.95289
0.952893
0.952896
0.952896
0.952899
0.952903
0.952906
0.952909
0.952909
0.952912
0.952916
0.952919
0.952922
0.952922
0.952926
0.952929
0.952932
0.952936
0.952936
0.952939
0.952942
0.952945
0.952949
0.952949
0.952952
0.952955
0.952959
0.952962
0.952962
0.952965
0.952969
0.952972
0.952975
0.952975
0.952979
0.952982
0.952985
0.952989
0.952989
0.952992
0.952995
0.952999
0.953002
0.953002
0.953005
0.953009
0.953012
0.953015
0.953015
0.953019
0.953022
0.953025
0.953029
0.953029
0.953032
0.953036
0.953039
0.953042
0.953042
0.953046
0.953049
0.953052
0.953056
0.953056
0.953059
0.953063
0.953066
0.953069
0.953069
0.953073
0.953076
0.95308
0.953083
0.953083
0.953086
0.95309
0.953093
0.953097
0.953097
0.9531
0.953103
0.953107
0.95311
0.95311
0.953114
0.953117
0.95312
0.953124
0.953124
0.953127
0.953131
0.953134
0.953138
0.953138
0.953141
0.953144
0.953148
0.953151
0.953151
0.953155
0.953158
0.953162
0.953165
0.953165
0.953169
0.953172
0.953175
0.953179
0.953179
0.953182
0.953186
0.953189
0.953193
0.953193
0.953196
0.9532
0.953203
0.953207
0.953207
0.95321
0.953214
0.953217
0.953221
0.953221
0.953224
0.953228
0.953231
0.953234
0.953234
0.953238
0.953241
0.953245
0.953248
0.953248
0.953252
0.953255
0.953259
0.953262
0.953262
0.953266
0.95327
0.953273
0.953277
0.953277
0.95328
0.953284
0.953287
0.953291
0.953291
0.953294
0.953298
0.953301
0.953305
0.953305
0.953308
0.953312
0.953315
0.953319
0.953319
0.953322
0.953326
0.95333
0.953333
0.953333
0.953337
0.95334
0.953344
0.953347
0.953347
0.953351
0.953354
0.953358
0.953361
0.953361
0.953365
0.953368
0.953372
0.953376
0.953376
0.953379
0.953383
0.953386
0.953389
0.953389
0.953393
0.953396
0.9534
0.953403
0.953403
0.953407
0.95341
0.953413
0.953417
0.953417
0.95342
0.953423
0.953427
0.95343
0.95343
0.953433
0.953437
0.95344
0.953444
0.953444
0.953448
0.953451
0.953455
0.953459
0.953459
0.953463
0.953467
0.953471
0.953475
0.953475
0.953478
0.953482
0.953486
0.95349
0.95349
0.953494
0.953498
0.953502
0.953505
0.953505
0.953509
0.953513
0.953517
0.95352
0.95352
0.953524
0.953528
0.953532
0.953535
0.953535
0.953539
0.953543
0.953546
0.95355
0.95355
0.953554
0.953558
0.953561
0.953565
0.953565
0.953569
0.953572
0.953576
0.95358
0.95358
0.953583
0.953587
0.953591
0.953595
0.953595
0.953598
0.953602
0.953606
0.953609
0.953609
0.953613
0.953617
0.953621
0.953624
0.953624
0.953628
0.953632
0.953636
0.953639
0.953639
0.953643
0.953647
0.953651
0.953654
0.953654
0.953658
0.953662
0.953666
0.953669
0.953669
0.953673
0.953677
0.953681
0.953684
0.953684
0.953688
0.953692
0.953696
0.953699
0.953699
0.953703
0.953707
0.953711
0.953715
0.953715
0.953718
0.953722
0.953726
0.95373
0.95373
0.953733
0.953737
0.953741
0.953745
0.953745
0.953749
0.953752
0.953756
0.95376
0.95376
0.953764
0.953768
0.953772
0.953775
0.953775
0.953779
0.953783
0.953787
0.953791
0.953791
0.953794
0.953798
0.953802
0.953806
0.953806
0.95381
0.953814
0.953817
0.953821
0.953821
0.953825
0.953829
0.953833
0.953837
0.953837
0.953841
0.953844
0.953848
0.953852
0.953852
0.953856
0.95386
0.953864
0.953868
0.953868
0.953872
0.953875
0.953879
0.953883
0.953883
0.953887
0.953891
0.953895
0.953899
0.953899
0.953903
0.953906
0.95391
0.953914
0.953914
0.953918
0.953922
0.953926
0.95393
0.95393
0.953934
0.953938
0.953942
0.953946
0.953946
0.953949
0.953953
0.953957
0.953961
0.953961
0.953965
0.953969
0.953973
0.953977
0.953977
0.953981
0.953985
0.953989
0.953993
0.953993
0.953997
0.954001
0.954005
0.954009
0.954009
0.954012
0.954016
0.95402
0.954024
0.954024
0.954028
0.954032
0.954036
0.95404
0.95404
0.954044
0.954048
0.954052
0.954056
0.954056
0.95406
0.954064
0.954068
0.954072
0.954072
0.954076
0.95408
0.954084
0.954088
0.954088
0.954092
0.954096
0.9541
0.954104
0.954104
0.954108
0.954112
0.954116
0.95412
0.95412
0.954124
0.954128
0.954132
0.954136
0.954136
0.95414
0.954144
0.954148
0.954152
0.954152
0.954156
0.95416
0.954164
0.954168
0.954168
0.954173
0.954177
0.954181
0.954185
0.954185
0.954189
0.954193
0.954197
0.954201
0.954201
0.954205
0.954209
0.954213
0.954217
0.954217
0.954221
0.954225
0.954229
0.954233
0.954233
0.954238
0.954242
0.954246
0.95425
0.95425
0.954254
0.954258
0.954262
0.954266
0.954266
0.95427
0.954274
0.954278
0.954283
0.954283
0.954287
0.954291
0.954295
0.954299
0.954299
0.954303
0.954307
0.954311
0.954316
0.954316
0.95432
0.954324
0.954328
0.954332
0.954332
0.954336
0.95434
0.954344
0.954349
0.954349
0.954353
0.954357
0.954361
0.954365
0.954365
0.954369
0.954374
0.954378
0.954382
0.954382
0.954386
0.95439
0.954394
0.954398
0.954398
0.954403
0.954407
0.954411
0.954415
0.954415
0.954419
0.954424
0.954428
0.954432
0.954432
0.954436
0.95444
0.954445
0.954449
0.954449
0.954453
0.954457
0.954461
0.954466
0.954466
0.95447
0.954474
0.954478
0.954482
0.954482
0.954487
0.954491
0.954495
0.954499
0.954499
0.954504
0.954508
0.954512
0.954516
0.954516
0.95452
0.954525
0.954529
0.954533
0.954533
0.954537
0.954542
0.954546
0.95455
0.95455
0.954554
0.954559
0.954563
0.954567
0.954567
0.954571
0.954576
0.95458
0.954584
0.954584
0.954589
0.954593
0.954597
0.954601
0.954601
0.954606
0.95461
0.954614
0.954619
0.954619
0.954623
0.954627
0.954631
0.954636
0.954636
0.95464
0.954644
0.954649
0.954653
0.954653
0.954657
0.954662
0.954666
0.95467
0.95467
0.954675
0.954679
0.954683
0.954687
0.954687
0.954692
0.954696
0.9547
0.954705
0.954705
0.954709
0.954713
0.954718
0.954722
0.954722
0.954727
0.954731
0.954735
0.95474
0.95474
0.954744
0.954748
0.954753
0.954757
0.954757
0.954761
0.954766
0.95477
0.954775
0.954775
0.954779
0.954783
0.954788
0.954792
0.954792
0.954796
0.954801
0.954805
0.95481
0.95481
0.954814
0.954818
0.954823
0.954827
0.954827
0.954832
0.954836
0.95484
0.954845
0.954845
0.954849
0.954854
0.954858
0.954862
0.954862
0.954867
0.954871
0.954876
0.95488
0.95488
0.954884
0.954889
0.954893
0.954898
0.954898
0.954902
0.954906
0.954911
0.954915
0.954915
0.95492
0.954924
0.954928
0.954933
0.954933
0.954937
0.954941
0.954946
0.95495
0.95495
0.954954
0.954958
0.954963
0.954967
0.954967
0.954971
0.954975
0.954979
0.954984
0.954984
0.954988
0.954992
0.954996
0.955001
0.955001
0.955005
0.95501
0.955014
0.955019
0.955019
0.955024
0.955029
0.955033
0.955038
0.955038
0.955043
0.955048
0.955053
0.955057
0.955057
0.955062
0.955067
0.955071
0.955076
0.955076
0.955081
0.955086
0.95509
0.955095
0.955095
0.955099
0.955104
0.955109
0.955113
0.955113
0.955118
0.955122
0.955127
0.955132
0.955132
0.955136
0.955141
0.955145
0.95515
0.95515
0.955155
0.955159
0.955164
0.955168
0.955168
0.955173
0.955178
0.955182
0.955187
0.955187
0.955191
0.955196
0.9552
0.955205
0.955205
0.95521
0.955214
0.955219
0.955223
0.955223
0.955228
0.955233
0.955237
0.955242
0.955242
0.955247
0.955251
0.955256
0.95526
0.95526
0.955265
0.95527
0.955274
0.955279
0.955279
0.955284
0.955288
0.955293
0.955297
0.955297
0.955302
0.955307
0.955311
0.955316
0.955316
0.955321
0.955325
0.95533
0.955335
0.955335
0.955339
0.955344
0.955349
0.955353
0.955353
0.955358
0.955363
0.955367
0.955372
0.955372
0.955377
0.955381
0.955386
0.955391
0.955391
0.955396
0.9554
0.955405
0.95541
0.95541
0.955414
0.955419
0.955424
0.955428
0.955428
0.955433
0.955438
0.955443
0.955447
0.955447
0.955452
0.955457
0.955461
0.955466
0.955466
0.955471
0.955476
0.95548
0.955485
0.955485
0.95549
0.955495
0.955499
0.955504
0.955504
0.955509
0.955514
0.955518
0.955523
0.955523
0.955528
0.955533
0.955537
0.955542
0.955542
0.955547
0.955552
0.955556
0.955561
0.955561
0.955566
0.955571
0.955576
0.95558
0.95558
0.955585
0.95559
0.955595
0.955599
0.955599
0.955604
0.955609
0.955614
0.955619
0.955619
0.955623
0.955628
0.955633
0.955638
0.955638
0.955643
0.955648
0.955652
0.955657
0.955657
0.955662
0.955667
0.955672
0.955677
0.955677
0.955681
0.955686
0.955691
0.955696
0.955696
0.955701
0.955706
0.95571
0.955715
0.955715
0.95572
0.955725
0.95573
0.955735
0.955735
0.95574
0.955744
0.955749
0.955754
0.955754
0.955759
0.955764
0.955769
0.955774
0.955774
0.955778
0.955783
0.955788
0.955793
0.955793
0.955798
0.955803
0.955808
0.955813
0.955813
0.955818
0.955823
0.955827
0.955832
0.955832
0.955837
0.955842
0.955847
0.955852
0.955852
0.955857
0.955862
0.955867
0.955872
0.955872
0.955877
0.955882
0.955886
0.955891
0.955891
0.955896
0.955901
0.955906
0.955911
0.955911
0.955916
0.955921
0.955926
0.955931
0.955931
0.955936
0.955941
0.955946
0.955951
0.955951
0.955956
0.955961
0.955966
0.955971
0.955971
0.955976
0.955981
0.955986
0.955991
0.955991
0.955996
0.956001
0.956006
0.95601
0.95601
0.956015
0.95602
0.956025
0.95603
0.95603
0.956035
0.95604
0.956045
0.956051
0.956051
0.956056
0.956061
0.956066
0.956071
0.956071
0.956076
0.956081
0.956086
0.956091
0.956091
0.956096
0.956101
0.956106
0.956111
0.956111
0.956116
0.956121
0.956126
0.956131
0.956131
0.956136
0.956141
0.956146
0.956151
0.956151
0.956156
0.956161
0.956166
0.956171
0.956171
0.956177
0.956182
0.956187
0.956192
0.956192
0.956197
0.956202
0.956207
0.956212
0.956212
0.956217
0.956222
0.956227
0.956232
0.956232
0.956238
0.956243
0.956248
0.956253
0.956253
0.956258
0.956263
0.956268
0.956273
0.956273
0.956278
0.956283
0.956289
0.956294
0.956294
0.956299
0.956304
0.956309
0.956314
0.956314
0.956319
0.956325
0.95633
0.956335
0.956335
0.95634
0.956345
0.95635
0.956355
0.956355
0.956361
0.956366
0.956371
0.956376
0.956376
0.956381
0.956386
0.956392
0.956397
0.956397
0.956402
0.956407
0.956412
0.956417
0.956417
0.956423
0.956428
0.956433
0.956438
0.956438
0.956443
0.956448
0.956454
0.956459
0.956459
0.956464
0.956469
0.956474
0.95648
0.95648
0.956485
0.95649
0.956495
0.9565
0.9565
0.956505
0.95651
0.956516
0.956521
0.956521
0.956526
0.956531
0.956536
0.956541
0.956541
0.956546
0.956551
0.956556
0.956561
0.956561
0.956566
0.956571
0.956576
0.956581
0.956581
0.956586
0.956591
0.956596
0.956601
0.956601
0.956606
0.956612
0.956617
0.956622
0.956622
0.956628
0.956633
0.956638
0.956644