<?xml version="1.0"?>
<VTKFile type="UnstructuredGrid" version="0.1" byte_order="LittleEndian">
<UnstructuredGrid>
<Piece NumberOfPoints="5000" NumberOfCells="4000">
<PointData Scalars="Reaction 0">
<DataArray type="Float32" Name="Reaction 0" format="ascii">
0.583915
0.583915
0.583915
0.583915
0.583915
0.583915
0.583915
0.583915
0.583915
0.583915
0.583915
0.583915
0.583915
0.583915
0.583915
0.583915
0.583915
0.583915
0.583915
0.583915
0.583915
0.583915
0.583915
0.583915
0.583915
0.583915
0.583916
0.583916
0.583916
0.583916
0.583916
0.583916
0.583916
0.583916
0.583916
0.583916
0.583916
0.583916
0.583916
0.583916
0.583916
0.583916
0.583916
0.583916
0.583916
0.583916
0.583917
0.583917
0.583917
0.583917
0.583917
0.583917
0.583917
0.583917
0.583917
0.583917
0.583917
0.583917
0.583917
0.583918
0.583918
0.583918
0.583918
0.583918
0.583918
0.583918
0.583918
0.583918
0.583918
0.583918
0.583918
0.583919
0.583919
0.583919
0.583919
0.583919
0.583919
0.583919
0.583919
0.583919
0.583919
0.58392
0.58392
0.58392
0.58392
0.58392
0.58392
0.58392
0.58392
0.583921
0.583921
0.583921
0.583921
0.583921
0.583921
0.583921
0.583921
0.583922
0.583922
0.583922
0.583922
0.583922
0.583922
0.583922
0.583923
0.583923
0.583923
0.583923
0.583923
0.583923
0.583923
0.583923
0.583924
0.583924
0.583924
0.583924
0.583924
0.583924
0.583925
0.583925
0.583925
0.583925
0.583925
0.583925
0.583926
0.583926
0.583926
0.583926
0.583926
0.583927
0.583927
0.583927
0.583927
0.583927
0.583927
0.583927
0.583928
0.583928
0.583928
0.583928
0.583928
0.583929
0.583929
0.583929
0.583929
0.583929
0.58393
0.58393
0.58393
0.58393
0.58393
0.583931
0.583931
0.583931
0.583931
0.583931
0.583932
0.583932
0.583932
0.583932
0.583932
0.583933
0.583933
0.583933
0.583934
0.583934
0.583934
0.583934
0.583934
0.583935
0.583935
0.583935
0.583935
0.583936
0.583936
0.583936
0.583936
0.583936
0.583937
0.583937
0.583937
0.583937
0.583938
0.583938
0.583938
0.583938
0.583939
0.583939
0.583939
0.58394
0.58394
0.58394
0.58394
0.583941
0.583941
0.583941
0.583941
0.583942
0.583942
0.583942
0.583942
0.583943
0.583943
0.583943
0.583944
0.583944
0.583944
0.583944
0.583945
0.583945
0.583945
0.583945
0.583946
0.583946
0.583946
0.583946
0.583947
0.583947
0.583948
0.583948
0.583948
0.583948
0.583949
0.583949
0.583949
0.583949
0.58395
0.58395
0.583951
0.583951
0.583951
0.583951
0.583952
0.583952
0.583953
0.583953
0.583953
0.583953
0.583954
0.583954
0.583954
0.583955
0.583955
0.583955
0.583956
0.583956
0.583956
0.583957
0.583957
0.583957
0.583957
0.583958
0.583958
0.583959
0.583959
0.583959
0.58396
0.58396
0.583961
0.583961
0.583961
0.583961
0.583962
0.583962
0.583963
0.583963
0.583963
0.583964
0.583964
0.583965
0.583965
0.583965
0.583965
0.583966
0.583966
0.583966
0.583967
0.583967
0.583968
0.583968
0.583968
0.583969
0.583969
0.58397
0.58397
0.58397
0.583971
0.583971
0.583972
0.583972
0.583972
0.583973
0.583973
0.583974
0.583974
0.583974
0.583975
0.583975
0.583976
0.583976
0.583976
0.583977
0.583977
0.583978
0.583978
0.583978
0.583979
0.583979
0.58398
0.58398
0.58398
0.583981
0.583981
0.583982
0.583982
0.583982
0.583983
0.583984
0.583984
0.583985
0.583985
0.583985
0.583986
0.583986
0.583987
0.583987
0.583987
0.583988
0.583988
0.583989
0.583989
0.58399
0.58399
0.583991
0.583991
0.583991
0.583992
0.583992
0.583993
0.583994
0.583994
0.583994
0.583995
0.583995
0.583996
0.583996
0.583997
0.583997
0.583998
0.583998
0.583998
0.583999
0.584
0.584
0.584001
0.584001
0.584001
0.584002
0.584003
0.584003
0.584003
0.584004
0.584004
0.584005
0.584006
0.584006
0.584006
0.584007
0.584007
0.584008
0.584008
0.584009
0.584009
0.58401
0.584011
0.584011
0.584011
0.584012
0.584013
0.584013
0.584013
0.584014
0.584015
0.584015
0.584016
0.584016
0.584017
0.584017
0.584018
0.584018
0.584018
0.584019
0.58402
0.58402
0.584021
0.584021
0.584022
0.584023
0.584023
0.584024
0.584024
0.584025
0.584025
0.584026
0.584027
0.584027
0.584027
0.584028
0.584029
0.584029
0.584029
0.58403
0.584031
0.584032
0.584032
0.584032
0.584033
0.584034
0.584034
0.584035
0.584035
0.584036
0.584037
0.584037
0.584038
0.584038
0.584039
0.584039
0.58404
0.584041
0.584041
0.584042
0.584042
0.584043
0.584044
0.584044
0.584045
0.584045
0.584046
0.584047
0.584047
0.584048
0.584048
0.584049
0.58405
0.58405
0.584051
0.584051
0.584052
0.584053
0.584053
0.584054
0.584054
0.584055
0.584056
0.584056
0.584057
0.584058
0.584058
0.584059
0.584059
0.58406
0.584061
0.584061
0.584062
0.584062
0.584063
0.584064
0.584065
0.584065
0.584065
0.584066
0.584067
0.584068
0.584069
0.584069
0.58407
0.58407
0.584071
0.584072
0.584072
0.584073
0.584074
0.584074
0.584075
0.584075
0.584076
0.584077
0.584078
0.584079
0.584079
0.584079
0.58408
0.584081
0.584082
0.584082
0.584083
0.584084
0.584085
0.584085
0.584085
0.584086
0.584087
0.584088
0.584089
0.584089
0.58409
0.584091
0.584091
0.584092
0.584092
0.584093
0.584094
0.584095
0.584096
0.584096
0.584097
0.584098
0.584098
0.584099
0.584099
0.5841
0.584101
0.584102
0.584103
0.584103
0.584104
0.584105
0.584106
0.584107
0.584107
0.584107
0.584108
0.584109
0.58411
0.58411
0.584111
0.584112
0.584113
0.584114
0.584114
0.584115
0.584116
0.584117
0.584118
0.584118
0.584119
0.58412
0.58412
0.584121
0.584121
0.584122
0.584123
0.584124
0.584125
0.584125
0.584126
0.584127
0.584128
0.584129
0.584129
0.58413
0.584131
0.584132
0.584133
0.584133
0.584134
0.584135
0.584136
0.584137
0.584137
0.584138
0.584139
0.58414
0.584141
0.584141
0.584142
0.584143
0.584144
0.584145
0.584145
0.584146
0.584147
0.584148
0.584149
0.584149
0.58415
0.584151
0.584152
0.584153
0.584153
0.584154
0.584155
0.584156
0.584157
0.584157
0.584158
0.584159
0.58416
0.584161
0.584161
0.584162
0.584163
0.584164
0.584165
0.584165
0.584166
0.584167
0.584168
0.584169
0.584169
0.58417
0.584171
0.584172
0.584173
0.584173
0.584175
0.584176
0.584177
0.584178
0.584178
0.584179
0.58418
0.584181
0.584182
0.584182
0.584183
0.584184
0.584185
0.584186
0.584186
0.584187
0.584188
0.58419
0.584191
0.584191
0.584192
0.584193
0.584194
0.584195
0.584195
0.584196
0.584197
0.584198
0.5842
0.5842
0.584201
0.584202
0.584203
0.584204
0.584204
0.584205
0.584206
0.584207
0.584208
0.584208
0.58421
0.584211
0.584212
0.584213
0.584213
0.584214
0.584215
0.584216
0.584218
0.584218
0.584219
0.58422
0.584221
0.584222
0.584222
0.584223
0.584225
0.584226
0.584227
0.584227
0.584228
0.584229
0.58423
0.584232
0.584232
0.584233
0.584234
0.584235
0.584236
0.584236
0.584237
0.584239
0.58424
0.584241
0.584241
0.584242
0.584243
0.584245
0.584246
0.584246
0.584247
0.584248
0.584249
0.584251
0.584251
0.584252
0.584253
0.584254
0.584255
0.584255
0.584257
0.584258
0.584259
0.58426
0.58426
0.584262
0.584263
0.584264
0.584265
0.584265
0.584267
0.584268
0.584269
0.58427
0.58427
0.584272
0.584273
0.584274
0.584275
0.584275
0.584277
0.584278
0.584279
0.58428
0.58428
0.584282
0.584283
0.584284
0.584285
0.584285
0.584287
0.584288
0.584289
0.584291
0.584291
0.584292
0.584293
0.584294
0.584296
0.584296
0.584297
0.584298
0.5843
0.584301
0.584301
0.584302
0.584303
0.584305
0.584306
0.584306
0.584307
0.584309
0.58431
0.584311
0.584311
0.584313
0.584314
0.584315
0.584317
0.584317
0.584318
0.584319
0.584321
0.584322
0.584322
0.584323
0.584325
0.584326
0.584327
0.584327
0.584329
0.58433
0.584331
0.584333
0.584333
0.584334
0.584335
0.584337
0.584338
0.584338
0.58434
0.584341
0.584342
0.584344
0.584344
0.584345
0.584346
0.584348
0.584349
0.584349
0.584351
0.584352
0.584353
0.584355
0.584355
0.584356
0.584358
0.584359
0.58436
0.58436
0.584362
0.584363
0.584365
0.584366
0.584366
0.584367
0.584369
0.58437
0.584372
0.584372
0.584373
0.584374
0.584376
0.584377
0.584377
0.584379
0.58438
0.584382
0.584383
0.584383
0.584384
0.584386
0.584387
0.584389
0.584389
0.58439
0.584392
0.584393
0.584395
0.584395
0.584396
0.584398
0.584399
0.5844
0.5844
0.584402
0.584403
0.584405
0.584406
0.584406
0.584408
0.584409
0.584411
0.584412
0.584412
0.584414
0.584415
0.584417
0.584418
0.584418
0.58442
0.584421
0.584423
0.584424
0.584424
0.584426
0.584427
0.584429
0.58443
0.58443
0.584432
0.584433
0.584435
0.584436
0.584436
0.584438
0.584439
0.584441
0.584442
0.584442
0.584444
0.584445
0.584447
0.584449
0.584449
0.58445
0.584452
0.584453
0.584455
0.584455
0.584456
0.584458
0.584459
0.584461
0.584461
0.584463
0.584464
0.584466
0.584467
0.584467
0.584469
0.58447
0.584472
0.584474
0.584474
0.584475
0.584477
0.584478
0.58448
0.58448
0.584481
0.584483
0.584485
0.584486
0.584486
0.584488
0.584489
0.584491
0.584493
0.584493
0.584494
0.584496
0.584497
0.584499
0.584499
0.584501
0.584502
0.584504
0.584506
0.584506
0.584507
0.584509
0.58451
0.584512
0.584512
0.584514
0.584515
0.584517
0.584519
0.584519
0.58452
0.584522
0.584524
0.584525
0.584525
0.584527
0.584529
0.58453
0.584532
0.584532
0.584533
0.584535
0.584537
0.584538
0.584538
0.58454
0.584542
0.584543
0.584545
0.584545
0.584547
0.584548
0.58455
0.584552
0.584552
0.584553
0.584555
0.584557
0.584558
0.584558
0.58456
0.584562
0.584564
0.584565
0.584565
0.584567
0.584569
0.584571
0.584572
0.584572
0.584574
0.584576
0.584578
0.584579
0.584579
0.584581
0.584583
0.584585
0.584586
0.584586
0.584588
0.58459
0.584591
0.584593
0.584593
0.584595
0.584597
0.584598
0.5846
0.5846
0.584602
0.584604
0.584606
0.584607
0.584607
0.584609
0.584611
0.584613
0.584614
0.584614
0.584616
0.584618
0.58462
0.584622
0.584622
0.584623
0.584625
0.584627
0.584629
0.584629
0.58463
0.584632
0.584634
0.584636
0.584636
0.584638
0.584639
0.584641
0.584643
0.584643
0.584645
0.584647
0.584649
0.58465
0.58465
0.584652
0.584654
0.584656
0.584658
0.584658
0.58466
0.584661
0.584663
0.584665
0.584665
0.584667
0.584669
0.584671
0.584672
0.584672
0.584674
0.584676
0.584678
0.58468
0.58468
0.584682
0.584684
0.584686
0.584687
0.584687
0.584689
0.584691
0.584693
0.584695
0.584695
0.584697
0.584699
0.584701
0.584702
0.584702
0.584704
0.584706
0.584708
0.58471
0.58471
0.584712
0.584714
0.584716
0.584718
0.584718
0.58472
0.584722
0.584723
0.584725
0.584725
0.584727
0.584729
0.584731
0.584733
0.584733
0.584735
0.584737
0.584739
0.584741
0.584741
0.584743
0.584745
0.584747
0.584749
0.584749
0.584751
0.584752
0.584754
0.584756
0.584756
0.584758
0.58476
0.584762
0.584764
0.584764
0.584766
0.584768
0.58477
0.584772
0.584772
0.584774
0.584776
0.584778
0.58478
0.58478
0.584782
0.584784
0.584786
0.584788
0.584788
0.58479
0.584792
0.584794
0.584796
0.584796
0.584798
0.5848
0.584802
0.584804
0.584804
0.584806
0.584808
0.58481
0.584812
0.584812
0.584814
0.584816
0.584818
0.58482
0.58482
0.584822
0.584825
0.584827
0.584829
0.584829
0.584831
0.584833
0.584835
0.584837
0.584837
0.584839
0.584841
0.584843
0.584845
0.584845
0.584847
0.584849
0.584851
0.584853
0.584853
0.584856
0.584858
0.58486
0.584862
0.584862
0.584864
0.584866
0.584868
0.58487
0.58487
0.584872
0.584874
0.584876
0.584879
0.584879
0.584881
0.584883
0.584885
0.584887
0.584887
0.584889
0.584891
0.584893
0.584896
0.584896
0.584898
0.5849
0.584902
0.584904
0.584904
0.584906
0.584908
0.584911
0.584913
0.584913
0.584915
0.584917
0.584919
0.584921
0.584921
0.584923
0.584926
0.584928
0.58493
0.58493
0.584932
0.584934
0.584936
0.584939
0.584939
0.584941
0.584943
0.584945
0.584947
0.584947
0.58495
0.584952
0.584954
0.584956
0.584956
0.584958
0.584961
0.584963
0.584965
0.584965
0.584967
0.584969
0.584972
0.584974
0.584974
0.584976
0.584978
0.584981
0.584983
0.584983
0.584985
0.584987
0.584989
0.584992
0.584992
0.584994
0.584996
0.584998
0.585001
0.585001
0.585003
0.585005
0.585007
0.58501
0.58501
0.585012
0.585014
0.585017
0.585019
0.585019
0.585021
0.585023
0.585026
0.585028
0.585028
0.58503
0.585033
0.585035
0.585037
0.585037
0.585039
0.585042
0.585044
0.585046
0.585046
0.585049
0.585051
0.585053
0.585056
0.585056
0.585058
0.58506
0.585062
0.585065
0.585065
0.585067
0.585069
0.585072
0.585074
0.585074
0.585076
0.585079
0.585081
0.585083
0.585083
0.585086
0.585088
0.585091
0.585093
0.585093
0.585095
0.585098
0.5851
0.585102
0.585102
0.585105
0.585107
0.585109
0.585112
0.585112
0.585114
0.585117
0.585119
0.585121
0.585121
0.585124
0.585126
0.585129
0.585131
0.585131
0.585133
0.585136
0.585138
0.585141
0.585141
0.585143
0.585145
0.585148
0.58515
0.58515
0.585153
0.585155
0.585157
0.58516
0.58516
0.585162
0.585165
0.585167
0.58517
0.58517
0.585172
0.585174
0.585177
0.585179
0.585179
0.585182
0.585184
0.585187
0.585189
0.585189
0.585192
0.585194
0.585197
0.585199
0.585199
0.585202
0.585204
0.585206
0.585209
0.585209
0.585211
0.585214
0.585216
0.585219
0.585219
0.585221
0.585224
0.585226
0.585229
0.585229
0.585231
0.585234
0.585236
0.585239
0.585239
0.585241
0.585244
0.585246
0.585249
0.585249
0.585252
0.585254
0.585257
0.585259
0.585259
0.585262
0.585264
0.585267
0.585269
0.585269
0.585272
0.585274
0.585277
0.585279
0.585279
0.585282
0.585285
0.585287
0.58529
0.58529
0.585292
0.585295
0.585297
0.5853
0.5853
0.585303
0.585305
0.585308
0.58531
0.58531
0.585313
0.585316
0.585318
0.585321
0.585321
0.585323
0.585326
0.585329
0.585331
0.585331
0.585334
0.585336
0.585339
0.585342
0.585342
0.585344
0.585347
0.585349
0.585352
0.585352
0.585355
0.585357
0.58536
0.585363
0.585363
0.585365
0.585368
0.585371
0.585373
0.585373
0.585376
0.585379
0.585381
0.585384
0.585384
0.585387
0.585389
0.585392
0.585395
0.585395
0.585397
0.5854
0.585403
0.585405
0.585405
0.585408
0.585411
0.585413
0.585416
0.585416
0.585419
0.585421
0.585424
0.585427
0.585427
0.58543
0.585432
0.585435
0.585438
0.585438
0.58544
0.585443
0.585446
0.585449
0.585449
0.585451
0.585454
0.585457
0.58546
0.58546
0.585462
0.585465
0.585468
0.585471
0.585471
0.585473
0.585476
0.585479
0.585482
0.585482
0.585484
0.585487
0.58549
0.585493
0.585493
0.585495
0.585498
0.585501
0.585504
0.585504
0.585507
0.585509
0.585512
0.585515
0.585515
0.585518
0.585521
0.585523
0.585526
0.585526
0.585529
0.585532
0.585535
0.585537
0.585537
0.58554
0.585543
0.585546
0.585549
0.585549
0.585552
0.585554
0.585557
0.58556
0.58556
0.585563
0.585566
0.585569
0.585571
0.585571
0.585574
0.585577
0.58558
0.585583
0.585583
0.585586
0.585589
0.585591
0.585594
0.585594
0.585597
0.5856
0.585603
0.585606
0.585606
0.585609
0.585612
0.585614
0.585617
0.585617
0.58562
0.585623
0.585626
0.585629
0.585629
0.585632
0.585635
0.585638
0.585641
0.585641
0.585644
0.585647
0.585649
0.585652
0.585652
0.585655
0.585658
0.585661
0.585664
0.585664
0.585667
0.58567
0.585673
0.585676
0.585676
0.585679
0.585682
0.585685
0.585688
0.585688
0.585691
0.585694
0.585697
0.5857
0.5857
0.585703
0.585706
0.585709
0.585712
0.585712
0.585715
0.585718
0.585721
0.585724
0.585724
0.585727
0.58573
0.585733
0.585736
0.585736
0.585739
0.585742
0.585745
0.585748
0.585748
0.585751
0.585754
0.585757
0.58576
0.58576
0.585763
0.585766
0.585769
0.585772
0.585772
0.585775
0.585778
0.585781
0.585784
0.585784
0.585787
0.58579
0.585793
0.585796
0.585796
0.585799
0.585802
0.585806
0.585809
0.585809
0.585812
0.585815
0.585818
0.585821
0.585821
0.585824
0.585827
0.58583
0.585833
0.585833
0.585836
0.58584
0.585843
0.585846
0.585846
0.585849
0.585852
0.585855
0.585858
0.585858
0.585861
0.585865
0.585868
0.585871
0.585871
0.585874
0.585877
0.58588
0.585883
0.585883
0.585887
0.58589
0.585893
0.585896
0.585896
0.585899
0.585902
0.585906
0.585909
0.585909
0.585912
0.585915
0.585918
0.585921
0.585921
0.585925
0.585928
0.585931
0.585934
0.585934
0.585937
0.585941
0.585944
0.585947
0.585947
0.58595
0.585953
0.585957
0.58596
0.58596
0.585963
0.585966
0.58597
0.585973
0.585973
0.585976
0.585979
0.585982
0.585986
0.585986
0.585989
0.585992
0.585995
0.585999
0.585999
0.586002
0.586005
0.586009
0.586012
0.586012
0.586015
0.586018
0.586022
0.586025
0.586025
0.586028
0.586031
0.586035
0.586038
0.586038
0.586041
0.586045
0.586048
0.586051
0.586051
0.586055
0.586058
0.586061
0.586064
0.586064
0.586068
0.586071
0.586074
0.586078
0.586078
0.586081
0.586084
0.586088
0.586091
0.586091
0.586094
0.586098
0.586101
0.586105
0.586105
0.586108
0.586111
0.586115
0.586118
0.586118
0.586121
0.586125
0.586128
0.586131
0.586131
0.586135
0.586138
0.586142
0.586145
0.586145
0.586148
0.586152
0.586155
0.586159
0.586159
0.586162
0.586165
0.586169
0.586172
0.586172
0.586176
0.586179
0.586182
0.586186
0.586186
0.586189
0.586193
0.586196
0.5862
0.5862
0.586203
0.586206
0.58621
0.586213
0.586213
0.586217
0.58622
0.586224
0.586227
0.586227
0.586231
0.586234
0.586238
0.586241
0.586241
0.586245
0.586248
0.586252
0.586255
0.586255
0.586259
0.586262
0.586266
0.586269
0.586269
0.586273
0.586276
0.58628
0.586283
0.586283
0.586287
0.58629
0.586294
0.586297
0.586297
0.586301
0.586304
0.586308
0.586311
0.586311
0.586315
0.586318
0.586322
0.586325
0.586325
0.586329
0.586333
0.586336
0.58634
0.58634
0.586343
0.586347
0.58635
0.586354
0.586354
0.586358
0.586361
0.586365
0.586368
0.586368
0.586372
0.586375
0.586379
0.586383
0.586383
0.586386
0.58639
0.586393
0.586397
0.586397
0.5864
0.586404
0.586407
0.586411
0.586411
0.586414
0.586418
0.586422
0.586426
0.586426
0.586429
0.586433
0.586437
0.586441
0.586441
0.586444
0.586448
0.586452
0.586455
0.586455
0.586459
0.586463
0.586466
0.58647
0.58647
0.586474
0.586477
0.586481
0.586485
0.586485
0.586488
0.586492
0.586496
0.5865
0.5865
0.586503
0.586507
0.586511
0.586514
0.586514
0.586518
0.586522
0.586526
0.586529
0.586529
0.586533
0.586537
0.58654
0.586544
0.586544
0.586548
0.586552
0.586555
0.586559
0.586559
0.586563
0.586567
0.58657
0.586574
0.586574
0.586578
0.586582
0.586586
0.586589
0.586589
0.586593
0.586597
0.586601
0.586604
0.586604
0.586608
0.586612
0.586616
0.58662
0.58662
0.586623
0.586627
0.586631
0.586635
0.586635
0.586639
0.586643
0.586646
0.58665
0.58665
0.586654
0.586658
0.586662
0.586666
0.586666
0.586669
0.586673
0.586677
0.586681
0.586681
0.586685
0.586689
0.586693
0.586696
0.586696
0.5867
0.586704
0.586708
0.586712
0.586712
0.586716
0.58672
0.586724
0.586728
0.586728
0.586731
0.586735
0.586739
0.586743
0.586743
0.586747
0.586751
0.586755
0.586759
0.586759
0.586763
0.586767
0.586771
0.586775
0.586775
0.586779
0.586782
0.586786
0.58679
0.58679
0.586794
0.586798
0.586802
0.586806
0.586806
0.58681
0.586814
0.586818
0.586822
0.586822
0.586826
0.58683
0.586834
0.586838
0.586838
0.586842
0.586846
0.58685
0.586854
0.586854
0.586858
0.586862
0.586866
0.58687
0.58687
0.586874
0.586878
0.586882
0.586886
0.586886
0.58689
0.586894
0.586898
0.586902
0.586902
0.586906
0.58691
0.586915
0.586919
0.586919
0.586923
0.586927
0.586931
0.586935
0.586935
0.586939
0.586943
0.586947
0.586951
0.586951
0.586955
0.586959
0.586963
0.586968
0.586968
0.586972
0.586976
0.58698
0.586984
0.586984
0.586988
0.586992
0.586996
0.587
0.587
0.587005
0.587009
0.587013
0.587017
0.587017
0.587021
0.587025
0.587029
0.587034
0.587034
0.587038
0.587042
0.587046
0.58705
0.58705
0.587054
0.587059
0.587063
0.587067
0.587067
0.587071
0.587075
0.58708
0.587084
0.587084
0.587088
0.587092
0.587096
0.587101
0.587101
0.587105
0.587109
0.587113
0.587117
0.587117
0.587122
0.587126
0.58713
0.587134
0.587134
0.587139
0.587143
0.587147
0.587151
0.587151
0.587156
0.58716
0.587164
0.587168
0.587168
0.587173
0.587177
0.587181
0.587186
0.587186
0.58719
0.587194
0.587198
0.587203
0.587203
0.587207
0.587211
0.587216
0.58722
0.58722
0.587224
0.587229
0.587233
0.587237
0.587237
0.587242
0.587246
0.58725
0.587255
0.587255
0.587259
0.587263
0.587268
0.587272
0.587272
0.587276
0.587281
0.587285
0.587289
0.587289
0.587294
0.587298
0.587302
0.587307
0.587307
0.587311
0.587316
0.58732
0.587324
0.587324
0.587329
0.587333
0.587338
0.587342
0.587342
0.587346
0.587351
0.587355
0.58736
0.58736
0.587364
0.587369
0.587373
0.587377
0.587377
0.587382
0.587386
0.587391
0.587395
0.587395
0.5874
0.587404
0.587409
0.587413
0.587413
0.587418
0.587422
0.587426
0.587431
0.587431
0.587435
0.58744
0.587444
0.587449
0.587449
0.587453
0.587458
0.587462
0.587467
0.587467
0.587471
0.587476
0.587481
0.587485
0.587485
0.58749
0.587494
0.587499
0.587503
0.587503
0.587508
0.587512
0.587517
0.587521
0.587521
0.587526
0.58753
0.587535
0.58754
0.58754
0.587544
0.587549
0.587553
0.587558
0.587558
0.587563
0.587567
0.587572
0.587576
0.587576
0.587581
0.587586
0.58759
0.587595
0.587595
0.587599
0.587604
0.587609
0.587613
0.587613
0.587618
0.587623
0.587627
0.587632
0.587632
0.587636
0.587641
0.587646
0.58765
0.58765
0.587655
0.58766
0.587664
0.587669
0.587669
0.587674
0.587678
0.587683
0.587688
0.587688
0.587693
0.587697
0.587702
0.587707
0.587707
0.587711
0.587716
0.587721
0.587725
0.587725
0.58773
0.587735
0.58774
0.587744
0.587744
0.587749
0.587754
0.587759
0.587763
0.587763
0.587768
0.587773
0.587778
0.587782
0.587782
0.587787
0.587792
0.587797
0.587802
0.587802
0.587806
0.587811
0.587816
0.587821
0.587821
0.587825
0.58783
0.587835
0.58784
0.58784
0.587845
0.58785
0.587854
0.587859
0.587859
0.587864
0.587869
0.587874
0.587879
0.587879
0.587883
0.587888
0.587893
0.587898
0.587898
0.587903
0.587908
0.587913
0.587917
0.587917
0.587922
0.587927
0.587932
0.587937
0.587937
0.587942
0.587947
0.587952
0.587956
0.587956
0.587961
0.587966
0.587971
0.587976
0.587976
0.587981
0.587986
0.587991
0.587996
0.587996
0.588001
0.588006
0.588011
0.588016
0.588016
0.588021
0.588026
0.588031
0.588035
0.588035
0.58804
0.588045
0.58805
0.588055
0.588055
0.58806
0.588065
0.58807
0.588075
0.588075
0.58808
0.588085
0.58809
0.588095
0.588095
0.5881
0.588105
0.58811
0.588115
0.588115
0.588121
0.588126
0.588131
0.588136
0.588136
0.588141
0.588146
0.588151
0.588156
0.588156
0.588161
0.588166
0.588171
0.588176
0.588176
0.588181
0.588186
0.588191
0.588196
0.588196
0.588202
0.588207
0.588212
0.588217
0.588217
0.588222
0.588227
0.588232
0.588237
0.588237
0.588243
0.588248
0.588253
0.588258
0.588258
0.588263
0.588268
0.588273
0.588279
0.588279
0.588284
0.588289
0.588294
0.588299
0.588299
0.588304
0.58831
0.588315
0.58832
0.58832
0.588325
0.58833
0.588336
0.588341
0.588341
0.588346
0.588351
0.588356
0.588362
0.588362
0.588367
0.588372
0.588377
0.588383
0.588383
0.588388
0.588393
0.588398
0.588404
0.588404
0.588409
0.588414
0.588419
0.588425
0.588425
0.58843
0.588435
0.58844
0.588446
0.588446
0.588451
0.588456
0.588462
0.588467
0.588467
0.588472
0.588477
0.588483
0.588488
0.588488
0.588493
0.588499
0.588504
0.588509
0.588509
0.588514
0.58852
0.588525
0.58853
0.58853
0.588535
0.588541
0.588546
0.588552
0.588552
0.588557
0.588563
0.588568
0.588574
0.588574
0.588579
0.588585
0.58859
0.588595
0.588595
0.588601
0.588606
0.588612
0.588617
0.588617
0.588623
0.588628
0.588633
0.588639
0.588639
0.588644
0.58865
0.588655
0.588661
0.588661
0.588666
0.588672
0.588677
0.588683
0.588683
0.588688
0.588694
0.588699
0.588704
0.588704
0.58871
0.588715
0.588721
0.588727
0.588727
0.588732
0.588738
0.588743
0.588749
0.588749
0.588754
0.58876
0.588765
0.588771
0.588771
0.588776
0.588782
0.588787
0.588793
0.588793
0.588798
0.588804
0.58881
0.588815
0.588815
0.588821
0.588826
0.588832
0.588838
0.588838
0.588843
0.588849
0.588854
0.58886
0.58886
0.588866
0.588871
0.588877
0.588882
0.588882
0.588888
0.588894
0.588899
0.588905
0.588905
0.588911
0.588916
0.588922
0.588928
0.588928
0.588933
0.588939
0.588945
0.58895
0.58895
0.588956
0.588962
0.588967
0.588973
0.588973
0.588979
0.588984
0.58899
0.588996
0.588996
0.589002
0.589007
0.589013
0.589019
0.589019
0.589025
0.58903
0.589036
0.589042
0.589042
0.589048
0.589053
0.589059
0.589065
0.589065
0.589071
0.589076
0.589082
0.589088
0.589088
0.589094
0.5891
0.589105
0.589111
0.589111
0.589117
0.589123
0.589129
0.589134
0.589134
0.58914
0.589146
0.589152
0.589158
0.589158
0.589164
0.589169
0.589175
0.589181
0.589181
0.589187
0.589193
0.589199
0.589205
0.589205
0.589211
0.589216
0.589222
0.589228
0.589228
0.589234
0.58924
0.589246
0.589252
0.589252
0.589258
0.589264
0.58927
0.589275
0.589275
0.589281
0.589287
0.589293
0.589299
0.589299
0.589305
0.589311
0.589317
0.589323
0.589323
0.589329
0.589335
0.589341
0.589347
0.589347
0.589353
0.589359
0.589365
0.589371
0.589371
0.589377
0.589383
0.589389
0.589395
0.589395
0.589401
0.589407
0.589413
0.589419
0.589419
0.589425
0.589431
0.589437
0.589443
0.589443
0.589449
0.589456
0.589462
0.589468
0.589468
0.589474
0.58948
0.589486
0.589492
0.589492
0.589498
0.589504
0.58951
0.589516
0.589516
0.589523
0.589529
0.589535
0.589541
0.589541
0.589547
0.589553
0.589559
0.589566
0.589566
0.589572
0.589578
0.589584
0.58959
0.58959
0.589596
0.589603
0.589609
0.589615
0.589615
0.589621
0.589627
0.589634
0.58964
0.58964
0.589646
0.589652
0.589658
0.589665
0.589665
0.589671
0.589677
0.589683
0.58969
0.58969
0.589696
0.589702
0.589708
0.589715
0.589715
0.589721
0.589727
0.589733
0.58974
0.58974
0.589746
0.589752
0.589759
0.589765
0.589765
0.589771
0.589778
0.589784
0.58979
0.58979
0.589796
0.589803
0.589809
0.589816
0.589816
0.589822
0.589828
0.589835
0.589841
0.589841
0.589847
0.589854
0.58986
0.589866
0.589866
0.589873
0.589879
0.589886
0.589892
0.589892
0.589898
0.589905
0.589911
0.589918
0.589918
0.589924
0.58993
0.589937
0.589943
0.589943
0.58995
0.589956
0.589963
0.589969
0.589969
0.589976
0.589982
0.589989
0.589995
0.589995
0.590002
0.590008
0.590015
0.590021
0.590021
0.590028
0.590034
0.590041
0.590047
0.590047
0.590054
0.59006
0.590067
0.590073
0.590073
0.59008
0.590086
0.590093
0.590099
0.590099
0.590106
0.590113
0.590119
0.590126
0.590126
0.590132
0.590139
0.590145
0.590152
0.590152
0.590159
0.590165
0.590172
0.590178
0.590178
0.590185
0.590192
0.590198
0.590205
0.590205
0.590212
0.590218
0.590225
0.590232
0.590232
0.590238
0.590245
0.590252
0.590258
0.590258
0.590265
0.590272
0.590278
0.590285
0.590285
0.590292
0.590298
0.590305
0.590312
0.590312
0.590319
0.590325
0.590332
0.590339
0.590339
0.590346
0.590352
0.590359
0.590366
0.590366
0.590373
0.590379
0.590386
0.590393
0.590393
0.5904
0.590406
0.590413
0.59042
0.59042
0.590427
0.590434
0.59044
0.590447
0.590447
0.590454
0.590461
0.590468
0.590475
0.590475
0.590482
0.590488
0.590495
0.590502
0.590502
0.590509
0.590516
0.590523
0.59053
0.59053
0.590536
0.590543
0.59055
0.590557
0.590557
0.590564
0.590571
0.590578
0.590585
0.590585
0.590592
0.590599
0.590606
0.590613
0.590613
0.59062
0.590626
0.590633
0.59064
0.59064
0.590647
0.590654
0.590661
0.590668
0.590668
0.590675
0.590682
0.590689
0.590696
0.590696
0.590703
0.59071
0.590717
0.590724
0.590724
0.590731
0.590738
0.590746
0.590753
0.590753
0.59076
0.590767
0.590774
0.590781
0.590781
0.590788
0.590795
0.590802
0.590809
0.590809
0.590816
0.590823
0.59083
0.590838
0.590838
0.590845
0.590852
0.590859
0.590866
0.590866
0.590873
0.59088
0.590887
0.590894
0.590894
0.590901
0.590908
0.590915
0.590922
0.590922
0.59093
0.590937
0.590944
0.590951
0.590951
0.590959
0.590966
0.590974
0.590981
0.590981
0.590988
0.590995
0.591003
0.59101
0.59101
0.591017
0.591024
0.591032
0.591039
0.591039
0.591046
0.591054
0.591061
0.591068
0.591068
0.591075
0.591083
0.59109
0.591097
0.591097
0.591105
0.591112
0.591119
0.591127
0.591127
0.591134
0.591141
0.591149
0.591156
0.591156
0.591163
0.591171
0.591178
0.591185
0.591185
0.591193
0.5912
0.591208
0.591215
0.591215
0.591222
0.59123
0.591237
0.591245
0.591245
0.591252
0.59126
0.591267
0.591274
0.591274
0.591282
0.591289
0.591297
0.591304
0.591304
0.591312
0.591319
0.591327
0.591334
0.591334
0.591342
0.591349
0.591357
0.591364
0.591364
0.591372
0.591379
0.591387
0.591394
0.591394
0.591402
0.591409
0.591417
0.591424
0.591424
0.591432
0.59144
0.591447
0.591455
0.591455
0.591462
0.59147
0.591478
0.591485
0.591485
0.591493
0.5915
0.591508
0.591516
0.591516
0.591523
0.591531
0.591539
0.591546
0.591546
0.591554
0.591561
0.591569
0.591577
0.591577
0.591584
0.591592
0.5916
0.591608
0.591608
0.591615
0.591623
0.591631
0.591638
0.591638
0.591646
0.591654
0.591662
0.591669
0.591669
0.591677
0.591685
0.591693
0.5917
0.5917
0.591708
0.591716
0.591724
0.591731
0.591731
0.591739
0.591747
0.591755
0.591763
0.591763
0.59177
0.591778
0.591786
0.591794
0.591794
0.591802
0.59181
0.591817
0.591825
0.591825
0.591833
0.591841
0.591849
0.591857
0.591857
0.591865
0.591873
0.59188
0.591888
0.591888
0.591896
0.591904
0.591912
0.59192
0.59192
0.591928
0.591936
0.591944
0.591952
0.591952
0.59196
0.591968
0.591976
0.591984
0.591984
0.591992
0.592
0.592008
0.592016
0.592016
0.592024
0.592032
0.59204
0.592048
0.592048
0.592056
0.592064
0.592072
0.59208
0.59208
0.592088
0.592096
0.592104
0.592112
0.592112
0.59212
0.592128
0.592136
0.592144
0.592144
0.592153
0.592161
0.592169
0.592177
0.592177
0.592185
0.592193
0.592201
0.592209
0.592209
0.592218
0.592226
0.592234
0.592242
0.592242
0.59225
0.592258
0.592267
0.592275
0.592275
0.592283
0.592291
0.592299
0.592308
0.592308
0.592316
0.592324
0.592332
0.592341
0.592341
0.592349
0.592357
0.592365
0.592374
0.592374
0.592382
0.59239
0.592398
0.592407
0.592407
0.592415
0.592423
0.592432
0.59244
0.59244
0.592448
0.592457
0.592465
0.592473
0.592473
0.592482
0.59249
0.592498
0.592507
0.592507
0.592515
0.592524
0.592532
0.59254
0.59254
0.592549
0.592557
0.592566
0.592574
0.592574
0.592582
0.592591
0.592599
0.592608
0.592608
0.592616
0.592625
0.592633
0.592642
0.592642
0.59265
0.592658
0.592667
0.592675
0.592675
0.592684
0.592692
0.592701
0.592709
0.592709
0.592718
0.592727
0.592735
0.592744
0.592744
0.592752
0.592761
0.592769
0.592778
0.592778
0.592786
0.592795
0.592804
0.592812
0.592812
0.592821
0.592829
0.592838
0.592847
0.592847
0.592855
0.592864
0.592873
0.592881
0.592881
0.59289
0.592899
0.592907
0.592916
0.592916
0.592925
0.592933
0.592942
0.592951
0.592951
0.592959
0.592968
0.592977
0.592985
0.592985
0.592994
0.593003
0.593012
0.59302
0.59302
0.593029
0.593038
0.593047
0.593056
0.593056
0.593064
0.593073
0.593082
0.593091
0.593091
0.5931
0.593108
0.593117
0.593126
0.593126
0.593135
0.593144
0.593153
0.593161
0.593161
0.59317
0.593179
0.593188
0.593197
0.593197
0.593206
0.593215
0.593224
0.593232
0.593232
0.593241
0.59325
0.593259
0.593268
0.593268
0.593277
0.593286
0.593295
0.593304
0.593304
0.593313
0.593322
0.593331
0.59334
0.59334
0.593349
0.593358
0.593367
0.593376
0.593376
0.593385
0.593394
0.593403
0.593412
0.593412
0.593421
0.59343
0.593439
0.593448
0.593448
0.593457
0.593467
0.593476
0.593485
0.593485
0.593494
0.593503
0.593512
0.593521
0.593521
0.59353
0.593539
0.593548
0.593557
0.593557
0.593567
0.593576
0.593585
0.593594
0.593594
0.593603
0.593612
0.593621
0.59363
0.59363
0.593639
0.593649
0.593658
0.593668
0.593668