<?xml version="1.0"?>
<VTKFile type="UnstructuredGrid" version="0.1" byte_order="LittleEndian">
<UnstructuredGrid>
<Piece NumberOfPoints="5000" NumberOfCells="4000">
<PointData Scalars="Reaction 0">
<DataArray type="Float32" Name="Reaction 0" format="ascii">
0.423447
0.423447
0.423447
0.423447
0.423447
0.423447
0.423447
0.423447
0.423447
0.423448
0.423448
0.423448
0.423448
0.423448
0.423449
0.423449
0.423449
0.42345
0.42345
0.42345
0.42345
0.423451
0.423451
0.423452
0.423453
0.423453
0.423453
0.423454
0.423454
0.423455
0.423455
0.423456
0.423457
0.423457
0.423458
0.423458
0.423459
0.42346
0.423461
0.423462
0.423462
0.423463
0.423464
0.423465
0.423466
0.423466
0.423467
0.423468
0.423469
0.42347
0.42347
0.423472
0.423473
0.423474
0.423475
0.423475
0.423477
0.423478
0.423479
0.423481
0.423481
0.423482
0.423484
0.423485
0.423487
0.423487
0.423488
0.42349
0.423492
0.423493
0.423493
0.423495
0.423497
0.423498
0.4235
0.4235
0.423502
0.423504
0.423506
0.423508
0.423508
0.423509
0.423511
0.423513
0.423515
0.423515
0.423517
0.42352
0.423522
0.423524
0.423524
0.423526
0.423528
0.42353
0.423533
0.423533
0.423535
0.423537
0.423539
0.423542
0.423542
0.423544
0.423547
0.423549
0.423552
0.423552
0.423554
0.423557
0.423559
0.423562
0.423562
0.423564
0.423567
0.42357
0.423573
0.423573
0.423575
0.423578
0.423581
0.423584
0.423584
0.423587
0.42359
0.423592
0.423595
0.423595
0.423598
0.423601
0.423605
0.423608
0.423608
0.423611
0.423614
0.423617
0.42362
0.42362
0.423623
0.423627
0.42363
0.423633
0.423633
0.423637
0.42364
0.423643
0.423647
0.423647
0.42365
0.423654
0.423657
0.423661
0.423661
0.423665
0.423668
0.423672
0.423675
0.423675
0.423679
0.423683
0.423687
0.42369
0.42369
0.423694
0.423698
0.423702
0.423706
0.423706
0.42371
0.423714
0.423718
0.423722
0.423722
0.423726
0.42373
0.423734
0.423738
0.423738
0.423743
0.423747
0.423751
0.423755
0.423755
0.42376
0.423764
0.423768
0.423773
0.423773
0.423777
0.423782
0.423786
0.423791
0.423791
0.423795
0.4238
0.423804
0.423809
0.423809
0.423814
0.423818
0.423823
0.423828
0.423828
0.423832
0.423837
0.423842
0.423847
0.423847
0.423852
0.423857
0.423862
0.423867
0.423867
0.423872
0.423877
0.423882
0.423887
0.423887
0.423892
0.423897
0.423902
0.423908
0.423908
0.423913
0.423918
0.423924
0.423929
0.423929
0.423934
0.42394
0.423945
0.423951
0.423951
0.423956
0.423962
0.423967
0.423973
0.423973
0.423978
0.423984
0.42399
0.423995
0.423995
0.424001
0.424007
0.424013
0.424018
0.424018
0.424024
0.42403
0.424036
0.424042
0.424042
0.424048
0.424054
0.42406
0.424066
0.424066
0.424072
0.424078
0.424084
0.424091
0.424091
0.424097
0.424103
0.424109
0.424116
0.424116
0.424122
0.424128
0.424135
0.424141
0.424141
0.424148
0.424154
0.424161
0.424167
0.424167
0.424174
0.42418
0.424187
0.424194
0.424194
0.4242
0.424207
0.424214
0.42422
0.42422
0.424227
0.424234
0.424241
0.424248
0.424248
0.424255
0.424262
0.424269
0.424276
0.424276
0.424283
0.42429
0.424297
0.424304
0.424304
0.424311
0.424318
0.424326
0.424333
0.424333
0.42434
0.424348
0.424355
0.424362
0.424362
0.42437
0.424377
0.424385
0.424392
0.424392
0.4244
0.424407
0.424415
0.424422
0.424422
0.42443
0.424438
0.424445
0.424453
0.424453
0.424461
0.424469
0.424476
0.424484
0.424484
0.424492
0.4245
0.424508
0.424516
0.424516
0.424524
0.424532
0.42454
0.424548
0.424548
0.424556
0.424564
0.424573
0.424581
0.424581
0.424589
0.424597
0.424606
0.424614
0.424614
0.424622
0.424631
0.424639
0.424647
0.424647
0.424656
0.424664
0.424673
0.424682
0.424682
0.42469
0.424699
0.424707
0.424716
0.424716
0.424725
0.424734
0.424742
0.424751
0.424751
0.42476
0.424769
0.424778
0.424787
0.424787
0.424796
0.424805
0.424814
0.424823
0.424823
0.424832
0.424841
0.42485
0.424859
0.424859
0.424868
0.424878
0.424887
0.424896
0.424896
0.424905
0.424915
0.424924
0.424933
0.424933
0.424943
0.424952
0.424962
0.424971
0.424971
0.424981
0.42499
0.425
0.42501
0.42501
0.425019
0.425029
0.425039
0.425049
0.425049
0.425058
0.425068
0.425078
0.425088
0.425088
0.425098
0.425108
0.425118
0.425128
0.425128
0.425138
0.425148
0.425158
0.425168
0.425168
0.425178
0.425188
0.425199
0.425209
0.425209
0.425219
0.425229
0.42524
0.42525
0.42525
0.42526
0.425271
0.425281
0.425292
0.425292
0.425302
0.425313
0.425323
0.425334
0.425334
0.425345
0.425355
0.425366
0.425377
0.425377
0.425387
0.425398
0.425409
0.42542
0.42542
0.425431
0.425441
0.425452
0.425463
0.425463
0.425474
0.425485
0.425496
0.425507
0.425507
0.425519
0.42553
0.425541
0.425552
0.425552
0.425563
0.425575
0.425586
0.425597
0.425597
0.425608
0.42562
0.425631
0.425643
0.425643
0.425654
0.425666
0.425677
0.425689
0.425689
0.4257
0.425712
0.425723
0.425735
0.425735
0.425747
0.425759
0.42577
0.425782
0.425782
0.425794
0.425806
0.425818
0.42583
0.42583
0.425842
0.425853
0.425865
0.425877
0.425877
0.42589
0.425902
0.425914
0.425926
0.425926
0.425938
0.42595
0.425963
0.425975
0.425975
0.425987
0.425999
0.426012
0.426024
0.426024
0.426037
0.426049
0.426061
0.426074
0.426074
0.426087
0.426099
0.426112
0.426124
0.426124
0.426137
0.42615
0.426162
0.426175
0.426175
0.426188
0.426201
0.426214
0.426226
0.426226
0.426239
0.426252
0.426265
0.426278
0.426278
0.426291
0.426304
0.426317
0.42633
0.42633
0.426344
0.426357
0.42637
0.426383
0.426383
0.426396
0.42641
0.426423
0.426436
0.426436
0.42645
0.426463
0.426476
0.42649
0.42649
0.426503
0.426517
0.426531
0.426544
0.426544
0.426558
0.426571
0.426585
0.426599
0.426599
0.426612
0.426626
0.42664
0.426654
0.426654
0.426668
0.426682
0.426695
0.426709
0.426709
0.426723
0.426737
0.426751
0.426765
0.426765
0.42678
0.426794
0.426808
0.426822
0.426822
0.426836
0.42685
0.426865
0.426879
0.426879
0.426893
0.426908
0.426922
0.426937
0.426937
0.426951
0.426965
0.42698
0.426995
0.426995
0.427009
0.427024
0.427038
0.427053
0.427053
0.427068
0.427082
0.427097
0.427112
0.427112
0.427127
0.427142
0.427156
0.427171
0.427171
0.427186
0.427201
0.427216
0.427231
0.427231
0.427246
0.427261
0.427276
0.427292
0.427292
0.427307
0.427322
0.427337
0.427352
0.427352
0.427368
0.427383
0.427398
0.427414
0.427414
0.427429
0.427445
0.42746
0.427476
0.427476
0.427491
0.427507
0.427522
0.427538
0.427538
0.427554
0.427569
0.427585
0.427601
0.427601
0.427616
0.427632
0.427648
0.427664
0.427664
0.42768
0.427696
0.427712
0.427728
0.427728
0.427744
0.42776
0.427776
0.427792
0.427792
0.427808
0.427824
0.42784
0.427857
0.427857
0.427873
0.427889
0.427905
0.427922
0.427922
0.427938
0.427954
0.427971
0.427987
0.427987
0.428004
0.42802
0.428037
0.428053
0.428053
0.42807
0.428087
0.428103
0.42812
0.42812
0.428137
0.428154
0.42817
0.428187
0.428187
0.428204
0.428221
0.428238
0.428255
0.428255
0.428272
0.428289
0.428306
0.428323
0.428323
0.42834
0.428357
0.428374
0.428391
0.428391
0.428409
0.428426
0.428443
0.42846
0.42846
0.428478
0.428495
0.428512
0.42853
0.42853
0.428547
0.428565
0.428582
0.4286
0.4286
0.428617
0.428635
0.428653
0.42867
0.42867
0.428688
0.428706
0.428723
0.428741
0.428741
0.428759
0.428777
0.428795
0.428813
0.428813
0.42883
0.428848
0.428866
0.428884
0.428884
0.428902
0.428921
0.428939
0.428957
0.428957
0.428975
0.428993
0.429011
0.42903
0.42903
0.429048
0.429066
0.429085
0.429103
0.429103
0.429121
0.42914
0.429158
0.429177
0.429177
0.429195
0.429214
0.429232
0.429251
0.429251
0.42927
0.429288
0.429307
0.429326
0.429326
0.429345
0.429363
0.429382
0.429401
0.429401
0.42942
0.429439
0.429458
0.429477
0.429477
0.429496
0.429515
0.429534
0.429553
0.429553
0.429572
0.429591
0.429611
0.42963
0.42963
0.429649
0.429668
0.429688
0.429707
0.429707
0.429726
0.429746
0.429765
0.429785
0.429785
0.429804
0.429824
0.429843
0.429863
0.429863
0.429882
0.429902
0.429922
0.429941
0.429941
0.429961
0.429981
0.430001
0.43002
0.43002
0.43004
0.43006
0.43008
0.4301
0.4301
0.43012
0.43014
0.43016
0.43018
0.43018
0.4302
0.43022
0.43024
0.430261
0.430261
0.430281
0.430301
0.430321
0.430342
0.430342
0.430362
0.430382
0.430403
0.430423
0.430423
0.430444
0.430464
0.430485
0.430505
0.430505
0.430526
0.430546
0.430567
0.430588
0.430588
0.430608
0.430629
0.43065
0.430671
0.430671
0.430691
0.430712
0.430733
0.430754
0.430754
0.430775
0.430796
0.430817
0.430838
0.430838
0.430859
0.43088
0.430901
0.430922
0.430922
0.430944
0.430965
0.430986
0.431007
0.431007
0.431029
0.43105
0.431071
0.431093
0.431093
0.431114
0.431136
0.431157
0.431178
0.431178
0.4312
0.431222
0.431243
0.431265
0.431265
0.431286
0.431308
0.43133
0.431352
0.431352
0.431373
0.431395
0.431417
0.431439
0.431439
0.431461
0.431483
0.431505
0.431527
0.431527
0.431549
0.431571
0.431593
0.431615
0.431615
0.431637
0.431659
0.431681
0.431704
0.431704
0.431726
0.431748
0.431771
0.431793
0.431793
0.431815
0.431838
0.43186
0.431883
0.431883
0.431905
0.431928
0.43195
0.431973
0.431973
0.431995
0.432018
0.432041
0.432064
0.432064
0.432086
0.432109
0.432132
0.432155
0.432155
0.432178
0.4322
0.432223
0.432246
0.432246
0.432269
0.432292
0.432315
0.432338
0.432338
0.432362
0.432385
0.432408
0.432431
0.432431
0.432454
0.432478
0.432501
0.432524
0.432524
0.432547
0.432571
0.432594
0.432618
0.432618
0.432641
0.432665
0.432688
0.432712
0.432712
0.432735
0.432759
0.432783
0.432806
0.432806
0.43283
0.432854
0.432878
0.432901
0.432901
0.432925
0.432949
0.432973
0.432997
0.432997
0.433021
0.433045
0.433069
0.433093
0.433093
0.433117
0.433141
0.433165
0.433189
0.433189
0.433214
0.433238
0.433262
0.433286
0.433286
0.433311
0.433335
0.433359
0.433384
0.433384
0.433408
0.433433
0.433457
0.433482
0.433482
0.433506
0.433531
0.433555
0.43358
0.43358
0.433605
0.433629
0.433654
0.433679
0.433679
0.433704
0.433729
0.433753
0.433778
0.433778
0.433803
0.433828
0.433853
0.433878
0.433878
0.433903
0.433928
0.433953
0.433979
0.433979
0.434004
0.434029
0.434054
0.434079
0.434079
0.434105
0.43413
0.434155
0.434181
0.434181
0.434206
0.434232
0.434257
0.434283
0.434283
0.434308
0.434334
0.434359
0.434385
0.434385
0.43441
0.434436
0.434462
0.434488
0.434488
0.434513
0.434539
0.434565
0.434591
0.434591
0.434617
0.434643
0.434669
0.434695
0.434695
0.434721
0.434747
0.434773
0.434799
0.434799
0.434825
0.434851
0.434877
0.434904
0.434904
0.43493
0.434956
0.434982
0.435009
0.435009
0.435035
0.435062
0.435088
0.435114
0.435114
0.435141
0.435167
0.435194
0.435221
0.435221
0.435247
0.435274
0.435301
0.435327
0.435327
0.435354
0.435381
0.435408
0.435434
0.435434
0.435461
0.435488
0.435515
0.435542
0.435542
0.435569
0.435596
0.435623
0.43565
0.43565
0.435677
0.435704
0.435732
0.435759
0.435759
0.435786
0.435813
0.435841
0.435868
0.435868
0.435895
0.435923
0.43595
0.435977
0.435977
0.436005
0.436032
0.43606
0.436088
0.436088
0.436115
0.436143
0.43617
0.436198
0.436198
0.436226
0.436254
0.436281
0.436309
0.436309
0.436337
0.436365
0.436393
0.436421
0.436421
0.436449
0.436477
0.436505
0.436533
0.436533
0.436561
0.436589
0.436617
0.436645
0.436645
0.436673
0.436702
0.43673
0.436758
0.436758
0.436786
0.436815
0.436843
0.436872
0.436872
0.4369
0.436929
0.436957
0.436986
0.436986
0.437014
0.437043
0.437071
0.4371
0.4371
0.437129
0.437157
0.437186
0.437215
0.437215
0.437244
0.437273
0.437301
0.43733
0.43733
0.437359
0.437388
0.437417
0.437446
0.437446
0.437475
0.437504
0.437533
0.437563
0.437563
0.437592
0.437621
0.43765
0.43768
0.43768
0.437709
0.437738
0.437768
0.437797
0.437797
0.437826
0.437856
0.437885
0.437915
0.437915
0.437944
0.437974
0.438003
0.438033
0.438033
0.438063
0.438092
0.438122
0.438152
0.438152
0.438182
0.438212
0.438241
0.438271
0.438271
0.438301
0.438331
0.438361
0.438391
0.438391
0.438421
0.438451
0.438481
0.438511
0.438511
0.438542
0.438572
0.438602
0.438632
0.438632
0.438662
0.438693
0.438723
0.438753
0.438753
0.438784
0.438814
0.438845
0.438875
0.438875
0.438906
0.438936
0.438967
0.438997
0.438997
0.439028
0.439059
0.439089
0.43912
0.43912
0.439151
0.439182
0.439213
0.439243
0.439243
0.439274
0.439305
0.439336
0.439367
0.439367
0.439398
0.439429
0.43946
0.439491
0.439491
0.439522
0.439554
0.439585
0.439616
0.439616
0.439647
0.439679
0.43971
0.439741
0.439741
0.439773
0.439804
0.439835
0.439867
0.439867
0.439898
0.43993
0.439962
0.439993
0.439993
0.440025
0.440056
0.440088
0.44012
0.44012
0.440152
0.440183
0.440215
0.440247
0.440247
0.440279
0.440311
0.440343
0.440375
0.440375
0.440407
0.440439
0.440471
0.440503
0.440503
0.440535
0.440567
0.440599
0.440631
0.440631
0.440664
0.440696
0.440728
0.44076
0.44076
0.440793
0.440825
0.440858
0.44089
0.44089
0.440922
0.440955
0.440988
0.44102
0.44102
0.441053
0.441085
0.441118
0.441151
0.441151
0.441183
0.441216
0.441249
0.441282
0.441282
0.441315
0.441347
0.44138
0.441413
0.441413
0.441446
0.441479
0.441512
0.441545
0.441545
0.441578
0.441612
0.441645
0.441678
0.441678
0.441711
0.441744
0.441778
0.441811
0.441811
0.441844
0.441878
0.441911
0.441945
0.441945
0.441978
0.442011
0.442045
0.442079
0.442079
0.442112
0.442146
0.442179
0.442213
0.442213
0.442247
0.44228
0.442314
0.442348
0.442348
0.442382
0.442416
0.44245
0.442484
0.442484
0.442518
0.442551
0.442586
0.44262
0.44262
0.442654
0.442688
0.442722
0.442756
0.442756
0.44279
0.442824
0.442859
0.442893
0.442893
0.442927
0.442962
0.442996
0.44303
0.44303
0.443065
0.443099
0.443134
0.443168
0.443168
0.443203
0.443238
0.443272
0.443307
0.443307
0.443342
0.443376
0.443411
0.443446
0.443446
0.443481
0.443515
0.44355
0.443585
0.443585
0.44362
0.443655
0.44369
0.443725
0.443725
0.44376
0.443795
0.44383
0.443866
0.443866
0.443901
0.443936
0.443971
0.444007
0.444007
0.444042
0.444077
0.444113
0.444148
0.444148
0.444183
0.444219
0.444254
0.44429
0.44429
0.444325
0.444361
0.444397
0.444432
0.444432
0.444468
0.444504
0.444539
0.444575
0.444575
0.444611
0.444647
0.444683
0.444719
0.444719
0.444754
0.44479
0.444826
0.444862
0.444862
0.444898
0.444935
0.444971
0.445007
0.445007
0.445043
0.445079
0.445115
0.445152
0.445152
0.445188
0.445224
0.445261
0.445297
0.445297
0.445333
0.44537
0.445406
0.445443
0.445443
0.445479
0.445516
0.445553
0.445589
0.445589
0.445626
0.445663
0.445699
0.445736
0.445736
0.445773
0.44581
0.445847
0.445883
0.445883
0.44592
0.445957
0.445994
0.446031
0.446031
0.446068
0.446105
0.446143
0.44618
0.44618
0.446217
0.446254
0.446291
0.446328
0.446328
0.446366
0.446403
0.44644
0.446478
0.446478
0.446515
0.446553
0.44659
0.446628
0.446628
0.446665
0.446703
0.44674
0.446778
0.446778
0.446816
0.446853
0.446891
0.446929
0.446929
0.446967
0.447004
0.447042
0.44708
0.44708
0.447118
0.447156
0.447194
0.447232
0.447232
0.44727
0.447308
0.447346
0.447384
0.447384
0.447422
0.447461
0.447499
0.447537
0.447537
0.447575
0.447614
0.447652
0.44769
0.44769
0.447729
0.447767
0.447806
0.447844
0.447844
0.447883
0.447921
0.44796
0.447998
0.447998
0.448037
0.448076
0.448114
0.448153
0.448153
0.448192
0.448231
0.44827
0.448309
0.448309
0.448347
0.448386
0.448425
0.448464
0.448464
0.448503
0.448542
0.448581
0.448621
0.448621
0.44866
0.448699
0.448738
0.448777
0.448777
0.448817
0.448856
0.448895
0.448935
0.448935
0.448974
0.449013
0.449053
0.449092
0.449092
0.449132
0.449172
0.449211
0.449251
0.449251
0.44929
0.44933
0.44937
0.449409
0.449409
0.449449
0.449489
0.449529
0.449569
0.449569
0.449609
0.449649
0.449689
0.449729
0.449729
0.449769
0.449809
0.449849
0.449889
0.449889
0.449929
0.449969
0.450009
0.45005
0.45005
0.45009
0.45013
0.45017
0.450211
0.450211
0.450251
0.450292
0.450332
0.450373
0.450373
0.450413
0.450454
0.450494
0.450535
0.450535
0.450576
0.450616
0.450657
0.450698
0.450698
0.450738
0.450779
0.45082
0.450861
0.450861
0.450902
0.450943
0.450984
0.451025
0.451025
0.451066
0.451107
0.451148
0.451189
0.451189
0.45123
0.451271
0.451313
0.451354
0.451354
0.451395
0.451436
0.451478
0.451519
0.451519
0.45156
0.451602
0.451643
0.451685
0.451685
0.451726
0.451768
0.451809
0.451851
0.451851
0.451893
0.451934
0.451976
0.452018
0.452018
0.45206
0.452101
0.452143
0.452185
0.452185
0.452227
0.452269
0.452311
0.452353
0.452353
0.452395
0.452437
0.452479
0.452521
0.452521
0.452563
0.452606
0.452648
0.45269
0.45269
0.452732
0.452775
0.452817
0.452859
0.452859
0.452902
0.452944
0.452987
0.453029
0.453029
0.453072
0.453114
0.453157
0.453199
0.453199
0.453242
0.453285
0.453327
0.45337
0.45337
0.453413
0.453456
0.453499
0.453541
0.453541
0.453584
0.453627
0.45367
0.453713
0.453713
0.453756
0.453799
0.453842
0.453886
0.453886
0.453929
0.453972
0.454015
0.454058
0.454058
0.454102
0.454145
0.454188
0.454232
0.454232
0.454275
0.454319
0.454362
0.454405
0.454405
0.454449
0.454493
0.454536
0.45458
0.45458
0.454623
0.454667
0.454711
0.454755
0.454755
0.454798
0.454842
0.454886
0.45493
0.45493
0.454974
0.455018
0.455062
0.455106
0.455106
0.45515
0.455194
0.455238
0.455282
0.455282
0.455326
0.45537
0.455415
0.455459
0.455459
0.455503
0.455548
0.455592
0.455636
0.455636
0.455681
0.455725
0.45577
0.455814
0.455814
0.455859
0.455903
0.455948
0.455993
0.455993
0.456037
0.456082
0.456127
0.456171
0.456171
0.456216
0.456261
0.456306
0.456351
0.456351
0.456396
0.456441
0.456486
0.456531
0.456531
0.456576
0.456621
0.456666
0.456711
0.456711
0.456756
0.456801
0.456847
0.456892
0.456892
0.456937
0.456982
0.457028
0.457073
0.457073
0.457119
0.457164
0.45721
0.457255
0.457255
0.457301
0.457346
0.457392
0.457438
0.457438
0.457483
0.457529
0.457575
0.45762
0.45762
0.457666
0.457712
0.457758
0.457804
0.457804
0.45785
0.457896
0.457942
0.457988
0.457988
0.458034
0.45808
0.458126
0.458172
0.458172
0.458218
0.458265
0.458311
0.458357
0.458357
0.458403
0.45845
0.458496
0.458543
0.458543
0.458589
0.458636
0.458682
0.458729
0.458729
0.458775
0.458822
0.458868
0.458915
0.458915
0.458962
0.459008
0.459055
0.459102
0.459102
0.459149
0.459196
0.459243
0.459289
0.459289
0.459336
0.459383
0.45943
0.459477
0.459477
0.459525
0.459572
0.459619
0.459666
0.459666
0.459713
0.45976
0.459808
0.459855
0.459855
0.459902
0.45995
0.459997
0.460045
0.460045
0.460092
0.460139
0.460187
0.460235
0.460235
0.460282
0.46033
0.460377
0.460425
0.460425
0.460473
0.460521
0.460568
0.460616
0.460616
0.460664
0.460712
0.46076
0.460808
0.460808
0.460856
0.460904
0.460952
0.461
0.461
0.461048
0.461096
0.461144
0.461192
0.461192
0.461241
0.461289
0.461337
0.461385
0.461385
0.461434
0.461482
0.461531
0.461579
0.461579
0.461628
0.461676
0.461725
0.461773
0.461773
0.461822
0.46187
0.461919
0.461968
0.461968
0.462017
0.462065
0.462114
0.462163
0.462163
0.462212
0.462261
0.46231
0.462359
0.462359
0.462408
0.462457
0.462506
0.462555
0.462555
0.462604
0.462653
0.462702
0.462751
0.462751
0.462801
0.46285
0.462899
0.462949
0.462949
0.462998
0.463047
0.463097
0.463146
0.463146
0.463196
0.463245
0.463295
0.463344
0.463344
0.463394
0.463444
0.463493
0.463543
0.463543
0.463593
0.463643
0.463693
0.463742
0.463742
0.463792
0.463842
0.463892
0.463942
0.463942
0.463992
0.464042
0.464092
0.464142
0.464142
0.464193
0.464243
0.464293
0.464343
0.464343
0.464394
0.464444
0.464494
0.464545
0.464545
0.464595
0.464645
0.464696
0.464746
0.464746
0.464797
0.464847
0.464898
0.464949
0.464949
0.464999
0.46505
0.465101
0.465152
0.465152
0.465202
0.465253
0.465304
0.465355
0.465355
0.465406
0.465457
0.465508
0.465559
0.465559
0.46561
0.465661
0.465712
0.465763
0.465763
0.465814
0.465866
0.465917
0.465968
0.465968
0.466019
0.466071
0.466122
0.466173
0.466173
0.466225
0.466276
0.466328
0.466379
0.466379
0.466431
0.466483
0.466534
0.466586
0.466586
0.466638
0.466689
0.466741
0.466793
0.466793
0.466845
0.466897
0.466948
0.467
0.467
0.467052
0.467104
0.467156
0.467208
0.467208
0.46726
0.467313
0.467365
0.467417
0.467417
0.467469
0.467521
0.467574
0.467626
0.467626
0.467678
0.467731
0.467783
0.467835
0.467835
0.467888
0.46794
0.467993
0.468046
0.468046
0.468098
0.468151
0.468203
0.468256
0.468256
0.468309
0.468362
0.468414
0.468467
0.468467
0.46852
0.468573
0.468626
0.468679
0.468679
0.468732
0.468785
0.468838
0.468891
0.468891
0.468944
0.468997
0.46905
0.469104
0.469104
0.469157
0.46921
0.469264
0.469317
0.469317
0.46937
0.469424
0.469477
0.469531
0.469531
0.469584
0.469638
0.469691
0.469745
0.469745
0.469798
0.469852
0.469906
0.46996
0.46996
0.470013
0.470067
0.470121
0.470175
0.470175
0.470229
0.470283
0.470337
0.470391
0.470391
0.470445
0.470499
0.470553
0.470607
0.470607
0.470661
0.470715
0.47077
0.470824
0.470824
0.470878
0.470932
0.470987
0.471041
0.471041
0.471096
0.47115
0.471205
0.471259
0.471259
0.471314
0.471368
0.471423
0.471477
0.471477
0.471532
0.471587
0.471642
0.471696
0.471696
0.471751
0.471806
0.471861
0.471916
0.471916
0.471971
0.472026
0.472081
0.472136
0.472136
0.472191
0.472246
0.472301
0.472356
0.472356
0.472412
0.472467
0.472522
0.472577
0.472577
0.472633
0.472688
0.472743
0.472799
0.472799
0.472854
0.47291
0.472965
0.473021
0.473021
0.473077
0.473132
0.473188
0.473244
0.473244
0.473299
0.473355
0.473411
0.473467
0.473467
0.473523
0.473578
0.473634
0.47369
0.47369
0.473746
0.473802
0.473858
0.473915
0.473915
0.473971
0.474027
0.474083
0.474139
0.474139
0.474195
0.474252
0.474308
0.474364
0.474364
0.474421
0.474477
0.474534
0.47459
0.47459
0.474647
0.474703
0.47476
0.474816
0.474816
0.474873
0.47493
0.474986
0.475043
0.475043
0.4751
0.475157
0.475214
0.475271
0.475271
0.475327
0.475384
0.475441
0.475498
0.475498
0.475555
0.475613
0.47567
0.475727
0.475727
0.475784
0.475841
0.475898
0.475956
0.475956
0.476013
0.47607
0.476128
0.476185
0.476185
0.476243
0.4763
0.476358
0.476415
0.476415
0.476473
0.47653
0.476588
0.476646
0.476646
0.476703
0.476761
0.476819
0.476877
0.476877
0.476934
0.476992
0.47705
0.477108
0.477108
0.477166
0.477224
0.477282
0.47734
0.47734
0.477398
0.477457
0.477515
0.477573
0.477573
0.477631
0.477689
0.477748
0.477806
0.477806
0.477864
0.477923
0.477981
0.47804
0.47804
0.478098
0.478157
0.478215
0.478274
0.478274
0.478333
0.478391
0.47845
0.478509
0.478509
0.478567
0.478626
0.478685
0.478744
0.478744
0.478803
0.478862
0.478921
0.47898
0.47898
0.479039
0.479098
0.479157
0.479216
0.479216
0.479275
0.479334
0.479394
0.479453
0.479453
0.479512
0.479572
0.479631
0.47969
0.47969
0.47975
0.479809
0.479869
0.479928
0.479928
0.479988
0.480047
0.480107
0.480167
0.480167
0.480226
0.480286
0.480346
0.480406
0.480406
0.480465
0.480525
0.480585
0.480645
0.480645
0.480705
0.480765
0.480825
0.480885
0.480885
0.480945
0.481005
0.481066
0.481126
0.481126
0.481186
0.481246
0.481307
0.481367
0.481367
0.481427
0.481488
0.481548
0.481609
0.481609
0.481669
0.48173
0.48179
0.481851
0.481851
0.481911
0.481972
0.482033
0.482094
0.482094
0.482154
0.482215
0.482276
0.482337
0.482337
0.482398
0.482459
0.48252
0.482581
0.482581
0.482642
0.482703
0.482764
0.482825
0.482825
0.482886
0.482947
0.483009
0.48307
0.48307
0.483131
0.483192
0.483254
0.483315
0.483315
0.483377
0.483438
0.4835
0.483561
0.483561
0.483623
0.483684
0.483746
0.483808
0.483808
0.483869
0.483931
0.483993
0.484055
0.484055
0.484117
0.484178
0.48424
0.484302
0.484302
0.484364
0.484426
0.484488
0.48455
0.48455
0.484612
0.484675
0.484737
0.484799
0.484799
0.484861
0.484924
0.484986
0.485048
0.485048
0.485111
0.485173
0.485235
0.485298
0.485298
0.48536
0.485423
0.485486
0.485548
0.485548
0.485611
0.485674
0.485736
0.485799
0.485799
0.485862
0.485925
0.485987
0.48605
0.48605
0.486113
0.486176
0.486239
0.486302
0.486302
0.486365
0.486428
0.486491
0.486555
0.486555
0.486618
0.486681
0.486744
0.486808
0.486808
0.486871
0.486934
0.486998
0.487061
0.487061
0.487125
0.487188
0.487252
0.487315
0.487315
0.487379
0.487442
0.487506
0.48757
0.48757
0.487633
0.487697
0.487761
0.487825
0.487825
0.487889
0.487953
0.488017
0.488081
0.488081
0.488145
0.488209
0.488273
0.488337
0.488337
0.488401
0.488465
0.488529
0.488594
0.488594
0.488658
0.488722
0.488786
0.488851
0.488851
0.488915
0.48898
0.489044
0.489109
0.489109
0.489173
0.489238
0.489302
0.489367
0.489367
0.489432
0.489496
0.489561
0.489626
0.489626
0.489691
0.489756
0.489821
0.489885
0.489885
0.48995
0.490015
0.49008
0.490146
0.490146
0.490211
0.490276
0.490341
0.490406
0.490406
0.490471
0.490537
0.490602
0.490667
0.490667
0.490733
0.490798
0.490863
0.490929
0.490929
0.490994
0.49106
0.491126
0.491191
0.491191
0.491257
0.491322
0.491388
0.491454
0.491454
0.49152
0.491585
0.491651
0.491717
0.491717
0.491783
0.491849
0.491915
0.491981
0.491981
0.492047
0.492113
0.492179
0.492245
0.492245
0.492312
0.492378
0.492444
0.49251
0.49251
0.492577
0.492643
0.49271
0.492776
0.492776
0.492842
0.492909
0.492975
0.493042
0.493042
0.493109
0.493175
0.493242
0.493309
0.493309
0.493375
0.493442
0.493509
0.493576
0.493576
0.493643
0.49371
0.493776
0.493843
0.493843
0.49391
0.493978
0.494045
0.494112
0.494112
0.494179
0.494246
0.494313
0.494381
0.494381
0.494448
0.494515
0.494583
0.49465
0.49465
0.494717
0.494785
0.494852
0.49492
0.49492
0.494987
0.495055
0.495123
0.49519
0.49519
0.495258
0.495326
0.495394
0.495461
0.495461
0.495529
0.495597
0.495665
0.495733
0.495733
0.495801
0.495869
0.495937
0.496005
0.496005
0.496073
0.496141
0.496209
0.496278
0.496278
0.496346
0.496414
0.496483
0.496551
0.496551
0.496619
0.496688
0.496756
0.496825
0.496825
0.496893
0.496962
0.49703
0.497099
0.497099
0.497168
0.497236
0.497305
0.497374
0.497374
0.497443
0.497512
0.497581
0.497649
0.497649
0.497718
0.497787
0.497856
0.497925
0.497925
0.497995
0.498064
0.498133
0.498202
0.498202
0.498271
0.498341
0.49841
0.498479
0.498479
0.498549
0.498618
0.498687
0.498757
0.498757
0.498826
0.498896
0.498965
0.499035
0.499035
0.499105
0.499174
0.499244
0.499314
0.499314
0.499384
0.499454
0.499523
0.499593
0.499593
0.499663
0.499733
0.499803
0.499873
0.499873
0.499943
0.500013
0.500084
0.500154
0.500154
0.500224
0.500294
0.500364
0.500435
0.500435
0.500505
0.500575
0.500646
0.500716
0.500716
0.500787
0.500857
0.500928
0.500998
0.500998
0.501069
0.50114
0.50121
0.501281
0.501281
0.501352
0.501423
0.501494
0.501564
0.501564
0.501635
0.501706
0.501777
0.501848
0.501848
0.501919
0.50199
0.502062
0.502133
0.502133
0.502204
0.502275
0.502346
0.502418
0.502418
0.502489
0.50256
0.502632
0.502703
0.502703
0.502775
0.502846
0.502918
0.502989
0.502989
0.503061
0.503133
0.503204
0.503276
0.503276
0.503348
0.50342
0.503491
0.503563
0.503563
0.503635
0.503707
0.503779
0.503851
0.503851
0.503923
0.503995
0.504067
0.504139
0.504139
0.504212
0.504284
0.504356
0.504428
0.504428
0.504501
0.504573
0.504645
0.504718
0.504718
0.50479
0.504863
0.504935
0.505008
0.505008
0.50508
0.505153
0.505226
0.505298
0.505298
0.505371
0.505444
0.505517
0.50559
0.50559
0.505663
0.505735
0.505808
0.505881
0.505881
0.505954
0.506028
0.506101
0.506174
0.506174
0.506247
0.50632
0.506393
0.506467
0.506467
0.50654
0.506613
0.506687
0.50676
0.50676
0.506834
0.506907
0.506981
0.507054
0.507054
0.507128
0.507201
0.507275
0.507349
0.507349
0.507422
0.507496
0.50757
0.507644
0.507644
0.507718
0.507792
0.507866
0.50794
0.50794
0.508014
0.508088
0.508162
0.508236
0.508236
0.50831
0.508384
0.508459
0.508533
0.508533
0.508607
0.508682
0.508756
0.50883
0.50883
0.508905
0.508979
0.509054
0.509128
0.509128
0.509203
0.509278
0.509352
0.509427
0.509427
0.509502
0.509576
0.509651
0.509726
0.509726
0.509801
0.509876
0.509951
0.510026
0.510026
0.510101
0.510176
0.510251
0.510326
0.510326
0.510401
0.510477
0.510552
0.510627
0.510627
0.510702
0.510778
0.510853
0.510929
0.510929
0.511004
0.51108
0.511155
0.511231
0.511231
0.511306
0.511382
0.511458
0.511533
0.511533
0.511609
0.511685
0.511761
0.511836
0.511836
0.511912
0.511988
0.512064
0.51214
0.51214
0.512216
0.512292
0.512368
0.512445
0.512445
0.512521
0.512597
0.512673
0.51275
0.51275
0.512826
0.512902
0.512979
0.513055
0.513055
0.513132
0.513208
0.513285
0.513361
0.513361
0.513438
0.513514
0.513591
0.513668
0.513668
0.513745
0.513821
0.513898
0.513975
0.513975
0.514052
0.514129
0.514206
0.514283
0.514283
0.51436
0.514437
0.514514
0.514591
0.514591
0.514669
0.514746
0.514823
0.5149
0.5149
0.514978
0.515055
0.515132
0.51521
0.51521
0.515287
0.515365
0.515442
0.51552
0.51552
0.515598
0.515675
0.515753
0.515831
0.515831
0.515909
0.515986
0.516064
0.516142
0.516142
0.51622
0.516298
0.516376
0.516454
0.516454
0.516532
0.51661
0.516688
0.516767
0.516767
0.516845
0.516923
0.517001
0.51708
0.51708
0.517158
0.517236
0.517315
0.517393
0.517393
0.517472
0.51755
0.517629
0.517708
0.517708
0.517786
0.517865
0.517944
0.518022
0.518022
0.518101
0.51818
0.518259
0.518338
0.518338
0.518417
0.518496
0.518575
0.518654
0.518654
0.518733
0.518812
0.518891
0.51897
0.51897
0.51905
0.519129
0.519208
0.519288
0.519288
0.519367
0.519446
0.519526
0.519605
0.519605
0.519685
0.519764
0.519844
0.519924
0.519924
0.520003
0.520083
0.520163
0.520243
0.520243
0.520323
0.520402
0.520482
0.520562
0.520562
0.520642
0.520722
0.520802
0.520882
0.520882
0.520962
0.521043
0.521123
0.521203
0.521203
0.521283
0.521364
0.521444
0.521524
0.521524
0.521605
0.521685
0.521766
0.521846
0.521846
0.521927
0.522007
0.522088
0.522169
0.522169
0.52225
0.52233
0.522411
0.522492
0.522492
0.522573
0.522654
0.522735
0.522816
0.522816
0.522897
0.522978
0.523059
0.52314
0.52314
0.523221
0.523302
0.523383
0.523465
0.523465
0.523546
0.523627
0.523709
0.52379
0.52379
0.523872
0.523953
0.524035
0.524116
0.524116
0.524198
0.52428
0.524361
0.524443
0.524443
0.524525
0.524606
0.524688
0.52477
0.52477
0.524852
0.524934
0.525016
0.525098
0.525098
0.52518
0.525262
0.525344
0.525426
0.525426
0.525509
0.525591
0.525673
0.525756
0.525756
0.525838
0.52592
0.526003
0.526085
0.526085
0.526168
0.52625
0.526333
0.526415
0.526415
0.526498
0.526581
0.526664
0.526746
0.526746
0.526829
0.526912
0.526995
0.527078
0.527078
0.527161
0.527244
0.527327
0.52741
0.52741
0.527493
0.527576
0.527659
0.527742
0.527742
0.527826
0.527909
0.527992
0.528076
0.528076
0.528159
0.528243
0.528326
0.52841
0.52841
0.528493
0.528577
0.52866
0.528744
0.528744
0.528828
0.528911
0.528995
0.529079
0.529079
0.529163
0.529247
0.529331
0.529415
0.529415
0.529499
0.529583
0.529667
0.529751
0.529751
0.529835
0.529919
0.530004
0.530088
0.530088
0.530172
0.530257
0.530341
0.530425
0.530425
0.53051
0.530594
0.530679
0.530764
0.530764
0.530848
0.530933
0.531017
0.531102
0.531102
0.531187
0.531272
0.531357
0.531442
0.531442
0.531526
0.531611
0.531696
0.531781
0.531781
0.531867
0.531952
0.532037
0.532122
0.532122
0.532207
0.532292
0.532378
0.532463
0.532463
0.532548
0.532634
0.532719
0.532805
0.532805
0.53289
0.532976
0.533062
0.533147
0.533147
0.533233
0.533319
0.533404
0.53349
0.53349
0.533576
0.533662
0.533748
0.533834
0.533834
0.53392