<?xml version="1.0"?>
<VTKFile type="UnstructuredGrid" version="0.1" byte_order="LittleEndian">
<UnstructuredGrid>
<Piece NumberOfPoints="5000" NumberOfCells="4000">
<PointData Scalars="Reaction 0">
<DataArray type="Float32" Name="Reaction 0" format="ascii">
0.595451
0.595451
0.595451
0.595451
0.595451
0.595451
0.595451
0.595451
0.595451
0.595451
0.595451
0.595451
0.595451
0.595451
0.595451
0.595451
0.595451
0.595451
0.595451
0.595451
0.595451
0.595451
0.595451
0.595451
0.595452
0.595452
0.595452
0.595452
0.595452
0.595452
0.595452
0.595452
0.595452
0.595452
0.595452
0.595452
0.595452
0.595453
0.595453
0.595453
0.595453
0.595453
0.595453
0.595453
0.595453
0.595453
0.595454
0.595454
0.595454
0.595454
0.595454
0.595454
0.595454
0.595455
0.595455
0.595455
0.595455
0.595455
0.595455
0.595456
0.595456
0.595456
0.595456
0.595456
0.595456
0.595456
0.595457
0.595457
0.595457
0.595457
0.595457
0.595458
0.595458
0.595458
0.595458
0.595458
0.595459
0.595459
0.595459
0.595459
0.595459
0.59546
0.59546
0.59546
0.59546
0.59546
0.595461
0.595461
0.595461
0.595462
0.595462
0.595462
0.595462
0.595463
0.595463
0.595463
0.595463
0.595463
0.595464
0.595464
0.595464
0.595464
0.595465
0.595465
0.595466
0.595466
0.595466
0.595466
0.595467
0.595467
0.595467
0.595467
0.595468
0.595468
0.595468
0.595468
0.595469
0.595469
0.59547
0.59547
0.59547
0.59547
0.595471
0.595471
0.595472
0.595472
0.595472
0.595473
0.595473
0.595473
0.595473
0.595474
0.595474
0.595475
0.595475
0.595475
0.595476
0.595476
0.595477
0.595477
0.595477
0.595478
0.595478
0.595478
0.595479
0.595479
0.595479
0.59548
0.59548
0.595481
0.595481
0.595481
0.595482
0.595482
0.595483
0.595483
0.595484
0.595484
0.595485
0.595485
0.595485
0.595486
0.595486
0.595487
0.595487
0.595487
0.595488
0.595488
0.595489
0.59549
0.59549
0.59549
0.595491
0.595491
0.595492
0.595492
0.595492
0.595493
0.595494
0.595494
0.595494
0.595495
0.595495
0.595496
0.595497
0.595497
0.595497
0.595498
0.595499
0.595499
0.595499
0.5955
0.595501
0.595501
0.595502
0.595502
0.595502
0.595503
0.595504
0.595504
0.595504
0.595505
0.595506
0.595507
0.595507
0.595507
0.595508
0.595509
0.595509
0.59551
0.59551
0.595511
0.595511
0.595512
0.595513
0.595513
0.595514
0.595514
0.595515
0.595516
0.595516
0.595517
0.595517
0.595518
0.595519
0.595519
0.59552
0.59552
0.595521
0.595522
0.595522
0.595523
0.595523
0.595524
0.595525
0.595525
0.595526
0.595527
0.595527
0.595528
0.595528
0.595529
0.59553
0.595531
0.595531
0.595531
0.595532
0.595533
0.595534
0.595535
0.595535
0.595536
0.595536
0.595537
0.595538
0.595538
0.595539
0.59554
0.595541
0.595542
0.595542
0.595543
0.595543
0.595544
0.595545
0.595545
0.595546
0.595547
0.595548
0.595549
0.595549
0.59555
0.595551
0.595552
0.595552
0.595552
0.595553
0.595554
0.595555
0.595556
0.595556
0.595557
0.595558
0.595559
0.59556
0.59556
0.595561
0.595562
0.595563
0.595564
0.595564
0.595565
0.595566
0.595567
0.595568
0.595568
0.595569
0.59557
0.595571
0.595572
0.595572
0.595573
0.595574
0.595575
0.595576
0.595576
0.595577
0.595578
0.595579
0.59558
0.59558
0.595581
0.595582
0.595583
0.595584
0.595584
0.595585
0.595586
0.595587
0.595589
0.595589
0.59559
0.595591
0.595592
0.595593
0.595593
0.595594
0.595595
0.595596
0.595597
0.595597
0.595598
0.5956
0.595601
0.595602
0.595602
0.595603
0.595604
0.595605
0.595606
0.595606
0.595607
0.595609
0.59561
0.595611
0.595611
0.595612
0.595613
0.595614
0.595616
0.595616
0.595617
0.595618
0.595619
0.59562
0.59562
0.595622
0.595623
0.595624
0.595625
0.595625
0.595626
0.595628
0.595629
0.59563
0.59563
0.595631
0.595633
0.595634
0.595635
0.595635
0.595636
0.595638
0.595639
0.59564
0.59564
0.595641
0.595643
0.595644
0.595645
0.595645
0.595647
0.595648
0.595649
0.59565
0.59565
0.595652
0.595653
0.595654
0.595656
0.595656
0.595657
0.595658
0.59566
0.595661
0.595661
0.595662
0.595664
0.595665
0.595666
0.595666
0.595668
0.595669
0.59567
0.595672
0.595672
0.595673
0.595675
0.595676
0.595677
0.595677
0.595679
0.59568
0.595681
0.595683
0.595683
0.595684
0.595686
0.595687
0.595689
0.595689
0.59569
0.595691
0.595693
0.595694
0.595694
0.595696
0.595697
0.595699
0.5957
0.5957
0.595701
0.595703
0.595704
0.595706
0.595706
0.595707
0.595709
0.59571
0.595712
0.595712
0.595713
0.595715
0.595716
0.595718
0.595718
0.595719
0.595721
0.595722
0.595724
0.595724
0.595725
0.595727
0.595728
0.59573
0.59573
0.595732
0.595733
0.595735
0.595736
0.595736
0.595738
0.595739
0.595741
0.595742
0.595742
0.595744
0.595746
0.595747
0.595749
0.595749
0.59575
0.595752
0.595754
0.595755
0.595755
0.595757
0.595758
0.59576
0.595762
0.595762
0.595763
0.595765
0.595767
0.595768
0.595768
0.59577
0.595772
0.595773
0.595775
0.595775
0.595777
0.595778
0.59578
0.595782
0.595782
0.595783
0.595785
0.595787
0.595788
0.595788
0.59579
0.595792
0.595793
0.595795
0.595795
0.595797
0.595799
0.5958
0.595802
0.595802
0.595804
0.595805
0.595807
0.595809
0.595809
0.595811
0.595812
0.595814
0.595816
0.595816
0.595818
0.59582
0.595821
0.595823
0.595823
0.595825
0.595827
0.595828
0.59583
0.59583
0.595832
0.595834
0.595836
0.595838
0.595838
0.595839
0.595841
0.595843
0.595845
0.595845
0.595847
0.595849
0.59585
0.595852
0.595852
0.595854
0.595856
0.595858
0.59586
0.59586
0.595862
0.595863
0.595865
0.595867
0.595867
0.595869
0.595871
0.595873
0.595875
0.595875
0.595877
0.595879
0.595881
0.595882
0.595882
0.595884
0.595886
0.595888
0.59589
0.59589
0.595892
0.595894
0.595896
0.595898
0.595898
0.5959
0.595902
0.595904
0.595906
0.595906
0.595908
0.59591
0.595912
0.595914
0.595914
0.595916
0.595918
0.59592
0.595922
0.595922
0.595924
0.595926
0.595928
0.59593
0.59593
0.595932
0.595934
0.595936
0.595938
0.595938
0.59594
0.595942
0.595944
0.595946
0.595946
0.595948
0.59595
0.595952
0.595955
0.595955
0.595957
0.595959
0.595961
0.595963
0.595963
0.595965
0.595967
0.595969
0.595971
0.595971
0.595973
0.595976
0.595978
0.59598
0.59598
0.595982
0.595984
0.595986
0.595988
0.595988
0.595991
0.595993
0.595995
0.595997
0.595997
0.595999
0.596001
0.596004
0.596006
0.596006
0.596008
0.59601
0.596012
0.596015
0.596015
0.596017
0.596019
0.596021
0.596023
0.596023
0.596026
0.596028
0.59603
0.596032
0.596032
0.596035
0.596037
0.596039
0.596041
0.596041
0.596044
0.596046
0.596048
0.59605
0.59605
0.596053
0.596055
0.596057
0.59606
0.59606
0.596062
0.596064
0.596066
0.596069
0.596069
0.596071
0.596073
0.596076
0.596078
0.596078
0.59608
0.596083
0.596085
0.596087
0.596087
0.59609
0.596092
0.596095
0.596097
0.596097
0.596099
0.596102
0.596104
0.596106
0.596106
0.596109
0.596111
0.596114
0.596116
0.596116
0.596118
0.596121
0.596123
0.596126
0.596126
0.596128
0.59613
0.596133
0.596135
0.596135
0.596138
0.59614
0.596143
0.596145
0.596145
0.596148
0.59615
0.596152
0.596155
0.596155
0.596157
0.59616
0.596162
0.596165
0.596165
0.596167
0.59617
0.596172
0.596175
0.596175
0.596177
0.59618
0.596182
0.596185
0.596185
0.596187
0.59619
0.596193
0.596195
0.596195
0.596198
0.5962
0.596203
0.596205
0.596205
0.596208
0.59621
0.596213
0.596216
0.596216
0.596218
0.596221
0.596223
0.596226
0.596226
0.596229
0.596231
0.596234
0.596236
0.596236
0.596239
0.596242
0.596244
0.596247
0.596247
0.59625
0.596252
0.596255
0.596257
0.596257
0.59626
0.596263
0.596265
0.596268
0.596268
0.596271
0.596274
0.596276
0.596279
0.596279
0.596282
0.596284
0.596287
0.59629
0.59629
0.596292
0.596295
0.596298
0.596301
0.596301
0.596303
0.596306
0.596309
0.596311
0.596311
0.596314
0.596317
0.59632
0.596323
0.596323
0.596325
0.596328
0.596331
0.596334
0.596334
0.596336
0.596339
0.596342
0.596345
0.596345
0.596348
0.59635
0.596353
0.596356
0.596356
0.596359
0.596362
0.596364
0.596367
0.596367
0.59637
0.596373
0.596376
0.596379
0.596379
0.596382
0.596384
0.596387
0.59639
0.59639
0.596393
0.596396
0.596399
0.596402
0.596402
0.596405
0.596407
0.59641
0.596413
0.596413
0.596416
0.596419
0.596422
0.596425
0.596425
0.596428
0.596431
0.596434
0.596437
0.596437
0.59644
0.596443
0.596446
0.596449
0.596449
0.596451
0.596454
0.596457
0.59646
0.59646
0.596463
0.596466
0.596469
0.596472
0.596472
0.596475
0.596478
0.596481
0.596484
0.596484
0.596487
0.59649
0.596494
0.596497
0.596497
0.5965
0.596503
0.596506
0.596509
0.596509
0.596512
0.596515
0.596518
0.596521
0.596521
0.596524
0.596527
0.59653
0.596533
0.596533
0.596536
0.59654
0.596543
0.596546
0.596546
0.596549
0.596552
0.596555
0.596558
0.596558
0.596561
0.596565
0.596568
0.596571
0.596571
0.596574
0.596577
0.59658
0.596583
0.596583
0.596587
0.59659
0.596593
0.596596
0.596596
0.596599
0.596603
0.596606
0.596609
0.596609
0.596612
0.596615
0.596619
0.596622
0.596622
0.596625
0.596628
0.596632
0.596635
0.596635
0.596638
0.596641
0.596645
0.596648
0.596648
0.596651
0.596654
0.596658
0.596661
0.596661
0.596664
0.596667
0.596671
0.596674
0.596674
0.596677
0.596681
0.596684
0.596687
0.596687
0.596691
0.596694
0.596697
0.5967
0.5967
0.596704
0.596707
0.59671
0.596714
0.596714
0.596717
0.59672
0.596724
0.596727
0.596727
0.59673
0.596734
0.596737
0.596741
0.596741
0.596744
0.596748
0.596751
0.596755
0.596755
0.596758
0.596761
0.596765
0.596768
0.596768
0.596772
0.596775
0.596779
0.596782
0.596782
0.596786
0.596789
0.596793
0.596796
0.596796
0.596799
0.596803
0.596806
0.59681
0.59681
0.596813
0.596817
0.59682
0.596824
0.596824
0.596827
0.596831
0.596834
0.596838
0.596838
0.596842
0.596845
0.596849
0.596852
0.596852
0.596856
0.596859
0.596863
0.596866
0.596866
0.59687
0.596874
0.596877
0.596881
0.596881
0.596884
0.596888
0.596891
0.596895
0.596895
0.596899
0.596902
0.596906
0.59691
0.59691
0.596913
0.596917
0.59692
0.596924
0.596924
0.596928
0.596931
0.596935
0.596939
0.596939
0.596942
0.596946
0.59695
0.596953
0.596953
0.596957
0.596961
0.596964
0.596968
0.596968
0.596972
0.596976
0.596979
0.596983
0.596983
0.596987
0.59699
0.596994
0.596998
0.596998
0.597002
0.597005
0.597009
0.597013
0.597013
0.597017
0.59702
0.597024
0.597028
0.597028
0.597032
0.597036
0.597039
0.597043
0.597043
0.597047
0.597051
0.597055
0.597058
0.597058
0.597062
0.597066
0.59707
0.597074
0.597074
0.597078
0.597081
0.597085
0.597089
0.597089
0.597093
0.597097
0.597101
0.597105
0.597105
0.597108
0.597112
0.597116
0.59712
0.59712
0.597124
0.597128
0.597132
0.597136
0.597136
0.59714
0.597144
0.597148
0.597151
0.597151
0.597155
0.597159
0.597163
0.597167
0.597167
0.597171
0.597175
0.597179
0.597183
0.597183
0.597187
0.597191
0.597195
0.597199
0.597199
0.597203
0.597207
0.597211
0.597215
0.597215
0.597219
0.597223
0.597227
0.597231
0.597231
0.597235
0.597239
0.597243
0.597247
0.597247
0.597251
0.597255
0.59726
0.597264
0.597264
0.597268
0.597272
0.597276
0.59728
0.59728
0.597284
0.597288
0.597292
0.597296
0.597296
0.597301
0.597305
0.597309
0.597313
0.597313
0.597317
0.597321
0.597325
0.597329
0.597329
0.597334
0.597338
0.597342
0.597346
0.597346
0.59735
0.597354
0.597359
0.597363
0.597363
0.597367
0.597371
0.597375
0.59738
0.59738
0.597384
0.597388
0.597392
0.597397
0.597397
0.597401
0.597405
0.597409
0.597414
0.597414
0.597418
0.597422
0.597426
0.597431
0.597431
0.597435
0.597439
0.597443
0.597448
0.597448
0.597452
0.597456
0.597461
0.597465
0.597465
0.597469
0.597474
0.597478
0.597482
0.597482
0.597487
0.597491
0.597495
0.5975
0.5975
0.597504
0.597508
0.597513
0.597517
0.597517
0.597522
0.597526
0.59753
0.597535
0.597535
0.597539
0.597543
0.597548
0.597552
0.597552
0.597557
0.597561
0.597566
0.59757
0.59757
0.597574
0.597579
0.597583
0.597588
0.597588
0.597592
0.597597
0.597601
0.597606
0.597606
0.59761
0.597615
0.597619
0.597624
0.597624
0.597628
0.597633
0.597637
0.597642
0.597642
0.597646
0.597651
0.597655
0.59766
0.59766
0.597664
0.597669
0.597673
0.597678
0.597678
0.597683
0.597687
0.597692
0.597696
0.597696
0.597701
0.597705
0.59771
0.597715
0.597715
0.597719
0.597724
0.597728
0.597733
0.597733
0.597738
0.597742
0.597747
0.597752
0.597752
0.597756
0.597761
0.597766
0.59777
0.59777
0.597775
0.59778
0.597784
0.597789
0.597789
0.597794
0.597798
0.597803
0.597808
0.597808
0.597812
0.597817
0.597822
0.597827
0.597827
0.597831
0.597836
0.597841
0.597845
0.597845
0.59785
0.597855
0.59786
0.597865
0.597865
0.597869
0.597874
0.597879
0.597884
0.597884
0.597888
0.597893
0.597898
0.597903
0.597903
0.597908
0.597912
0.597917
0.597922
0.597922
0.597927
0.597932
0.597937
0.597941
0.597941
0.597946
0.597951
0.597956
0.597961
0.597961
0.597966
0.597971
0.597976
0.59798
0.59798
0.597985
0.59799
0.597995
0.598
0.598
0.598005
0.59801
0.598015
0.59802
0.59802
0.598025
0.59803
0.598035
0.59804
0.59804
0.598045
0.598049
0.598054
0.598059
0.598059
0.598064
0.598069
0.598074
0.598079
0.598079
0.598084
0.598089
0.598094
0.598099
0.598099
0.598104
0.598109
0.598114
0.59812
0.59812
0.598125
0.59813
0.598135
0.59814
0.59814
0.598145
0.59815
0.598155
0.59816
0.59816
0.598165
0.59817
0.598175
0.59818
0.59818
0.598186
0.598191
0.598196
0.598201
0.598201
0.598206
0.598211
0.598216
0.598221
0.598221
0.598227
0.598232
0.598237
0.598242
0.598242
0.598247
0.598252
0.598258
0.598263
0.598263
0.598268
0.598273
0.598278
0.598284
0.598284
0.598289
0.598294
0.598299
0.598305
0.598305
0.59831
0.598315
0.59832
0.598326
0.598326
0.598331
0.598336
0.598341
0.598347
0.598347
0.598352
0.598357
0.598362
0.598368
0.598368
0.598373
0.598378
0.598384
0.598389
0.598389
0.598394
0.5984
0.598405
0.59841
0.59841
0.598416
0.598421
0.598426
0.598432
0.598432
0.598437
0.598442
0.598448
0.598453
0.598453
0.598459
0.598464
0.598469
0.598475
0.598475
0.59848
0.598486
0.598491
0.598497
0.598497
0.598502
0.598507
0.598513
0.598518
0.598518
0.598524
0.598529
0.598535
0.59854
0.59854
0.598546
0.598551
0.598557
0.598562
0.598562
0.598568
0.598573
0.598579
0.598584
0.598584
0.59859
0.598595
0.598601
0.598606
0.598606
0.598612
0.598617
0.598623
0.598629
0.598629
0.598634
0.59864
0.598645
0.598651
0.598651
0.598656
0.598662
0.598668
0.598673
0.598673
0.598679
0.598684
0.59869
0.598696
0.598696
0.598701
0.598707
0.598713
0.598718
0.598718
0.598724
0.59873
0.598735
0.598741
0.598741
0.598747
0.598752
0.598758
0.598764
0.598764
0.598769
0.598775
0.598781
0.598787
0.598787
0.598792
0.598798
0.598804
0.598809
0.598809
0.598815
0.598821
0.598827
0.598832
0.598832
0.598838
0.598844
0.59885
0.598856
0.598856
0.598861
0.598867
0.598873
0.598879
0.598879
0.598885
0.59889
0.598896
0.598902
0.598902
0.598908
0.598914
0.59892
0.598925
0.598925
0.598931
0.598937
0.598943
0.598949
0.598949
0.598955
0.598961
0.598967
0.598972
0.598972
0.598978
0.598984
0.59899
0.598996
0.598996
0.599002
0.599008
0.599014
0.59902
0.59902
0.599026
0.599032
0.599038
0.599044
0.599044
0.59905
0.599056
0.599062
0.599068
0.599068
0.599074
0.59908
0.599086
0.599092
0.599092
0.599098
0.599104
0.59911
0.599116
0.599116
0.599122
0.599128
0.599134
0.59914
0.59914
0.599146
0.599152
0.599158
0.599164
0.599164
0.59917
0.599177
0.599183
0.599189
0.599189
0.599195
0.599201
0.599207
0.599213
0.599213
0.599219
0.599225
0.599232
0.599238
0.599238
0.599244
0.59925
0.599256
0.599262
0.599262
0.599269
0.599275
0.599281
0.599287
0.599287
0.599293
0.5993
0.599306
0.599312
0.599312
0.599318
0.599325
0.599331
0.599337
0.599337
0.599343
0.59935
0.599356
0.599362
0.599362
0.599368
0.599375
0.599381
0.599387
0.599387
0.599394
0.5994
0.599406
0.599412
0.599412
0.599419
0.599425
0.599431
0.599438
0.599438
0.599444
0.599451
0.599457
0.599463
0.599463
0.59947
0.599476
0.599482
0.599489
0.599489
0.599495
0.599502
0.599508
0.599514
0.599514
0.599521
0.599527
0.599534
0.59954
0.59954
0.599547
0.599553
0.599559
0.599566
0.599566
0.599572
0.599579
0.599585
0.599592
0.599592
0.599598
0.599605
0.599611
0.599618
0.599618
0.599624
0.599631
0.599637
0.599644
0.599644
0.59965
0.599657
0.599664
0.59967
0.59967
0.599677
0.599683
0.59969
0.599696
0.599696
0.599703
0.59971
0.599716
0.599723
0.599723
0.599729
0.599736
0.599743
0.599749
0.599749
0.599756
0.599762
0.599769
0.599776
0.599776
0.599782
0.599789
0.599796
0.599802
0.599802
0.599809
0.599816
0.599823
0.599829
0.599829
0.599836
0.599843
0.599849
0.599856
0.599856
0.599863
0.59987
0.599876
0.599883
0.599883
0.59989
0.599897
0.599903
0.59991
0.59991
0.599917
0.599924
0.59993
0.599937
0.599937
0.599944
0.599951
0.599958
0.599965
0.599965
0.599971
0.599978
0.599985
0.599992
0.599992
0.599999
0.600006
0.600012
0.600019
0.600019
0.600026
0.600033
0.60004
0.600047
0.600047
0.600054
0.600061
0.600068
0.600075
0.600075
0.600081
0.600088
0.600095
0.600102
0.600102
0.600109
0.600116
0.600123
0.60013
0.60013
0.600137
0.600144
0.600151
0.600158
0.600158
0.600165
0.600172
0.600179
0.600186
0.600186
0.600193
0.6002
0.600207
0.600214
0.600214
0.600221
0.600228
0.600236
0.600243
0.600243
0.60025
0.600257
0.600264
0.600271
0.600271
0.600278
0.600285
0.600292
0.600299
0.600299
0.600306
0.600314
0.600321
0.600328
0.600328
0.600335
0.600342
0.600349
0.600356
0.600356
0.600364
0.600371
0.600378
0.600385
0.600385
0.600392
0.600399
0.600406
0.600413
0.600413
0.60042
0.600428
0.600435
0.600442
0.600442
0.60045
0.600457
0.600465
0.600472
0.600472
0.600479
0.600487
0.600494
0.600501
0.600501
0.600509
0.600516
0.600523
0.600531
0.600531
0.600538
0.600545
0.600553
0.60056
0.60056
0.600567
0.600575
0.600582
0.600589
0.600589
0.600597
0.600604
0.600612
0.600619
0.600619
0.600626
0.600634
0.600641
0.600649
0.600649
0.600656
0.600664
0.600671
0.600678
0.600678
0.600686
0.600693
0.600701
0.600708
0.600708
0.600716
0.600723
0.600731
0.600738
0.600738
0.600746
0.600753
0.600761
0.600768
0.600768
0.600776
0.600784
0.600791
0.600799
0.600799
0.600806
0.600814
0.600821
0.600829
0.600829
0.600837
0.600844
0.600852
0.600859
0.600859
0.600867
0.600875
0.600882
0.60089
0.60089
0.600897
0.600905
0.600913
0.60092
0.60092
0.600928
0.600936
0.600943
0.600951
0.600951
0.600959
0.600967
0.600974
0.600982
0.600982
0.60099
0.600997
0.601005
0.601013
0.601013
0.601021
0.601028
0.601036
0.601044
0.601044
0.601052
0.60106
0.601067
0.601075
0.601075
0.601083
0.601091
0.601099
0.601106
0.601106
0.601114
0.601122
0.60113
0.601138
0.601138
0.601146
0.601153
0.601161
0.601169
0.601169
0.601177
0.601185
0.601193
0.601201
0.601201
0.601209
0.601217
0.601224
0.601232
0.601232
0.60124
0.601248
0.601256
0.601264
0.601264
0.601272
0.60128
0.601288
0.601296
0.601296
0.601304
0.601312
0.60132
0.601328
0.601328
0.601336
0.601344
0.601352
0.60136
0.60136
0.601368
0.601376
0.601384
0.601392
0.601392
0.6014
0.601409
0.601417
0.601425
0.601425
0.601433
0.601441
0.601449
0.601457
0.601457
0.601465
0.601473
0.601482
0.60149
0.60149
0.601498
0.601506
0.601514
0.601522
0.601522
0.60153
0.601539
0.601547
0.601555
0.601555
0.601563
0.601571
0.60158
0.601588
0.601588
0.601596
0.601604
0.601613
0.601621
0.601621
0.601629
0.601637
0.601646
0.601654
0.601654
0.601662
0.601671
0.601679
0.601687
0.601687
0.601696
0.601704
0.601712
0.601721
0.601721
0.601729
0.601737
0.601746
0.601754
0.601754
0.601762
0.601771
0.601779
0.601787
0.601787
0.601796
0.601804
0.601813
0.601821
0.601821
0.60183
0.601838
0.601846
0.601855
0.601855
0.601863
0.601872
0.60188
0.601889
0.601889
0.601897
0.601906
0.601914
0.601923
0.601923
0.601931
0.60194
0.601948
0.601957
0.601957
0.601965
0.601974
0.601982
0.601991
0.601991
0.602
0.602008
0.602017
0.602025
0.602025
0.602034
0.602043
0.602051
0.60206
0.60206
0.602068
0.602077
0.602086
0.602094
0.602094
0.602103
0.602112
0.60212
0.602129
0.602129
0.602138
0.602146
0.602155
0.602164
0.602164
0.602172
0.602181
0.60219
0.602199
0.602199
0.602207
0.602216
0.602225
0.602234
0.602234
0.602242
0.602251
0.60226
0.602269
0.602269
0.602278
0.602286
0.602295
0.602304
0.602304
0.602313
0.602322
0.60233
0.602339
0.602339
0.602348
0.602357
0.602366
0.602375
0.602375
0.602384
0.602393
0.602401
0.60241
0.60241
0.602419
0.602428
0.602437
0.602446
0.602446
0.602455
0.602464
0.602473
0.602482
0.602482
0.602491
0.6025
0.602509
0.602518
0.602518
0.602527
0.602536
0.602545
0.602554
0.602554
0.602563
0.602572
0.602581
0.60259
0.60259
0.602599
0.602608
0.602617
0.602626
0.602626
0.602635
0.602644
0.602653
0.602663
0.602663
0.602672
0.602681
0.60269
0.602699
0.602699
0.602708
0.602717
0.602727
0.602736
0.602736
0.602745
0.602754
0.602763
0.602772
0.602772
0.602782
0.602791
0.6028
0.602809
0.602809
0.602819
0.602828
0.602837
0.602846
0.602846
0.602856
0.602865
0.602874
0.602883
0.602883
0.602893
0.602902
0.602911
0.602921
0.602921
0.60293
0.602939
0.602949
0.602958
0.602958
0.602967
0.602977
0.602986
0.602995
0.602995
0.603005
0.603014
0.603024
0.603033
0.603033
0.603042
0.603052
0.603061
0.603071
0.603071
0.60308
0.60309
0.603099
0.603109
0.603109
0.603118
0.603128
0.603137
0.603147
0.603147
0.603156
0.603166
0.603175
0.603185
0.603185
0.603194
0.603204
0.603213
0.603223
0.603223
0.603232
0.603242
0.603251
0.603261
0.603261
0.603271
0.60328
0.60329
0.603299
0.603299
0.603309
0.603319
0.603328
0.603338
0.603338
0.603348
0.603357
0.603367
0.603377
0.603377
0.603386
0.603396
0.603406
0.603416
0.603416
0.603425
0.603435
0.603445
0.603454
0.603454
0.603464
0.603474
0.603484
0.603493
0.603493
0.603503
0.603513
0.603523
0.603533
0.603533
0.603542
0.603552
0.603562
0.603572
0.603572
0.603582
0.603592
0.603602
0.603611
0.603611
0.603621
0.603631
0.603641
0.603651
0.603651
0.603661
0.603671
0.603681
0.603691
0.603691
0.603701
0.60371
0.60372
0.60373
0.60373
0.60374
0.60375
0.60376
0.60377
0.60377
0.60378
0.60379
0.6038
0.60381
0.60381
0.60382
0.60383
0.60384
0.60385
0.60385
0.603861
0.603871
0.603881
0.603891
0.603891
0.603901
0.603911
0.603921
0.603931
0.603931
0.603941
0.603951
0.603962
0.603972
0.603972
0.603982
0.603992
0.604002
0.604012
0.604012
0.604023
0.604033
0.604043
0.604053
0.604053
0.604063
0.604074
0.604084
0.604094
0.604094
0.604104
0.604115
0.604125
0.604135
0.604135
0.604146
0.604156
0.604166
0.604176
0.604176
0.604187
0.604197
0.604207
0.604218
0.604218
0.604228
0.604238
0.604249
0.604259
0.604259
0.60427
0.60428
0.60429
0.604301
0.604301
0.604311
0.604322
0.604332
0.604342
0.604342
0.604353
0.604363
0.604374
0.604384
0.604384
0.604395
0.604405
0.604416
0.604426
0.604426
0.604437
0.604447
0.604458
0.604468
0.604468
0.604479
0.604489
0.6045
0.60451
0.60451
0.604521
0.604532
0.604542
0.604553
0.604553
0.604563
0.604574
0.604584
0.604595
0.604595
0.604605
0.604616
0.604626
0.604637
0.604637
0.604647
0.604658
0.604669
0.60468
0.60468
0.604691
0.604702
0.604713
0.604723
0.604723
0.604734
0.604745
0.604756
0.604767
0.604767
0.604777
0.604788
0.604799
0.60481
0.60481
0.604821
0.604831
0.604842
0.604853
0.604853
0.604864
0.604875
0.604886
0.604897
0.604897
0.604907
0.604918
0.604929
0.60494
0.60494
0.604951
0.604962
0.604973
0.604984
0.604984
0.604995
0.605006
0.605017
0.605028
0.605028
0.605039
0.60505
0.605061
0.605072
0.605072
0.605083
0.605094
0.605105
0.605116
0.605116
0.605127
0.605138
0.605149
0.60516
0.60516
0.605171
0.605182
0.605193
0.605204
0.605204
0.605215
0.605226
0.605238
0.605249
0.605249
0.60526
0.605271
0.605282
0.605293
0.605293
0.605305
0.605316
0.605327
0.605338
0.605338
0.605349
0.605361
0.605372
0.605383
0.605383
0.605394
0.605406
0.605417
0.605428
0.605428
0.605439
0.605451
0.605462
0.605473
0.605473
0.605485
0.605496
0.605507
0.605519
0.605519
0.60553
0.605541
0.605553
0.605564
0.605564
0.605575
0.605587
0.605598
0.60561
0.60561
0.605621
0.605633
0.605644
0.605655
0.605655
0.605667
0.605678
0.60569
0.605701
0.605701
0.605713
0.605724
0.605736
0.605747
0.605747
0.605759
0.60577
0.605782
0.605794
0.605794
0.605805
0.605817
0.605828
0.60584
0.60584
0.605851
0.605863
0.605875
0.605886
0.605886
0.605898
0.60591
0.605921
0.605933
0.605933
0.605945
0.605956
0.605968
0.60598
0.60598
0.605991
0.606003
0.606015
0.606026
0.606026
0.606038
0.60605
0.606062
0.606073
0.606073
0.606085
0.606097
0.606109
0.606121
0.606121
0.606132
0.606144
0.606156
0.606168
0.606168
0.60618
0.606192
0.606203
0.606215
0.606215
0.606227
0.606239
0.606251
0.606263
0.606263
0.606275
0.606287
0.606299
0.606311
0.606311
0.606323
0.606335
0.606347
0.606359
0.606359
0.606371
0.606383
0.606395
0.606407
0.606407
0.606419
0.606431
0.606443
0.606455
0.606455
0.606467
0.606479
0.606491
0.606503
0.606503
0.606515
0.606527
0.606539
0.606551
0.606551
0.606564
0.606576
0.606588
0.6066
0.6066
0.606612
0.606624
0.606637
0.606649
0.606649
0.606661
0.606673
0.606685
0.606698
0.606698
0.60671
0.606722
0.606734
0.606747
0.606747
0.606759
0.606771
0.606784
0.606796
0.606796
0.606808
0.606821
0.606833
0.606845
0.606845
0.606858
0.60687
0.606882
0.606895
0.606895
0.606907
0.60692
0.606932
0.606944
0.606944
0.606957
0.606969
0.606982
0.606994
0.606994
0.607007
0.607019
0.607032
0.607044
0.607044
0.607057
0.607069
0.607082
0.607094
0.607094
0.607107
0.607119
0.607132
0.607144
0.607144
0.607157
0.60717
0.607182
0.607195
0.607195
0.607207
0.60722
0.607233
0.607245
0.607245
0.607258
0.607271
0.607283
0.607296
0.607296
0.607309
0.607321
0.607334
0.607347
0.607347
0.60736
0.607372
0.607385
0.607398
0.607398
0.607411
0.607423
0.607436
0.607449
0.607449
0.607462
0.607475
0.607487
0.6075
0.6075
0.607513
0.607526
0.607539
0.607552
0.607552
0.607565
0.607577
0.60759
0.607603
0.607603
0.607616
0.607629
0.607642
0.607655
0.607655
0.607668
0.607681
0.607694
0.607707
0.607707
0.60772
0.607733
0.607746
0.607759
0.607759
0.607772
0.607785
0.607798
0.607811
0.607811
0.607824
0.607837
0.607851
0.607864
0.607864
0.607877
0.60789
0.607903
0.607916
0.607916
0.607929
0.607942
0.607956
0.607969
0.607969
0.607982
0.607995
0.608008
0.608022
0.608022
0.608035
0.608048
0.608061
0.608075
0.608075
0.608088
0.608101
0.608115
0.608128
0.608128
0.608141
0.608154
0.608168
0.608181
0.608181
0.608194
0.608208
0.608221
0.608235
0.608235
0.608248
0.608261
0.608275
0.608288
0.608288
0.608302
0.608315
0.608329
0.608342
0.608342
0.608356
0.608369
0.608382
0.608396
0.608396
0.608409
0.608423
0.608437
0.60845
0.60845
0.608464
0.608477
0.608491
0.608504
0.608504
0.608518
0.608532
0.608545
0.608559
0.608559
0.608572
0.608586
0.6086
0.608613
0.608613
0.608627
0.608641
0.608654
0.608668
0.608668
0.608682
0.608696
0.608709
0.608723
0.608723
0.608737
0.608751
0.608764
0.608778
0.608778
0.608792
0.608806
0.60882
0.608833
0.608833
0.608847
0.608861
0.608875
0.608889
0.608889
0.608903
0.608917
0.60893
0.608944
0.608944
0.608958
0.608972
0.608986
0.609
0.609
0.609014
0.609028
0.609042
0.609056
0.609056
0.60907
0.609084
0.609098
0.609112
0.609112
0.609126
0.60914
0.609154
0.609168
0.609168
0.609182
0.609196
0.60921
0.609224
0.609224
0.609239
0.609253
0.609267
0.609281
0.609281
0.609295
0.609309
0.609323
0.609337
0.609337
0.609351
0.609365
0.609379
0.609393
0.609393
0.609407
0.609422
0.609436
0.609451
0.609451
0.609465
0.60948
0.609494
0.609509
0.609509
0.609523
0.609537
0.609552
0.609566
0.609566
0.609581
0.609595
0.60961
0.609624
0.609624
0.609638
0.609653
0.609667
0.609682
0.609682
0.609696
0.609711
0.609725
0.60974
0.60974
0.609754
0.609769
0.609783
0.609798
0.609798
0.609812
0.609827
0.609841
0.609856
0.609856
0.609871
0.609885
0.6099
0.609914
0.609914
0.609929
0.609944
0.609958
0.609973
0.609973
0.609988
0.610002
0.610017
0.610032
0.610032
0.610046
0.610061
0.610076
0.610091
0.610091
0.610105
0.61012
0.610135
0.61015
0.61015
0.610164
0.610179
0.610194
0.610209
0.610209
0.610224
0.610239
0.610254
0.610268
0.610268
0.610283
0.610298
0.610313
0.610328
0.610328
0.610343
0.610358
0.610373
0.610388
0.610388
0.610403
0.610418
0.610433
0.610448
0.610448
0.610463
0.610478
0.610493
0.610508
0.610508
0.610523
0.610538
0.610553
0.610568
0.610568
0.610583
0.610598
0.610614
0.610629
0.610629
0.610644
0.610659
0.610674
0.610689
0.610689
0.610705
0.61072
0.610735
0.61075
0.61075
0.610765
0.610781
0.610796
0.610811
0.610811
0.610826
0.610842
0.610857
0.610872
0.610872
0.610888
0.610903
0.610918
0.610934
0.610934
0.610949
0.610965
0.61098
0.610995
0.610995
0.611011
0.611026
0.611042
0.611057
0.611057
0.611073
0.611088
0.611103
0.611119
0.611119
0.611134
0.61115
0.611166
0.611181
0.611181
0.611197
0.611212
0.611228
0.611243
0.611243
0.611259
0.611275
0.61129
0.611306
0.611306
0.611321
0.611337
0.611353
0.611368
0.611368
0.611384
0.6114
0.611416
0.611431
0.611431
0.611447
0.611463
0.611478
0.611494
0.611494
0.61151
0.611526
0.611542
0.611557
0.611557
0.611573
0.611589
0.611605
0.611621
0.611621
0.611637
0.611653
0.611668
0.611684
0.611684
0.6117
0.611716
0.611732
0.611748
0.611748
0.611764
0.61178
0.611796
0.611812
0.611812
0.611828
0.611844
0.61186
0.611876
0.611876
0.611892
0.611908
0.611924
0.61194
0.61194
0.611956
0.611973
0.611989
0.612005
0.612005
0.612021
0.612037
0.612053
0.612069
0.612069
0.612086
0.612102
0.612118
0.612134
0.612134
0.612151
0.612167
0.612183
0.612199
0.612199
0.612216
0.612232
0.612248
0.612265
0.612265
0.612281
0.612297
0.612314
0.61233
0.61233
0.612346
0.612363
0.612379
0.612396
0.612396
0.612412
0.612428
0.612445
0.612461
0.612461
0.612478
0.612494
0.612511
0.612527
0.612527
0.612544
0.61256
0.612577
0.612593
0.612593
0.61261
0.612627
0.612643
0.61266
0.61266
0.612676
0.612693
0.61271
0.612726
0.612726
0.612743
0.61276
0.612776
0.612793
0.612793
0.61281
0.612827
0.612843
0.61286
0.61286
0.612877
0.612894
0.61291
0.612927
0.612927
0.612944
0.612961
0.612978
0.612995
0.612995
0.613011
0.613028
0.613045
0.613062
0.613062
0.613079
0.613096
0.613113
0.61313
0.61313
0.613147
0.613164
0.613181
0.613198
0.613198
0.613215
0.613232
0.613249
0.613266
0.613266
0.613283
0.6133
0.613317
0.613334
0.613334
0.613351
0.613368
0.613385
0.613402
0.613402
0.61342
0.613437
0.613454
0.613471
0.613471
0.613488
0.613506
0.613523
0.61354
0.61354
0.613557
0.613575
0.613592
0.613609
0.613609
0.613626
0.613644
0.613661
0.613678
0.613678
0.613696
0.613713
0.613731
0.613748
0.613748
0.613765
0.613783
0.6138
0.613818
0.613818
0.613835
0.613852
0.61387
0.613887
0.613887
0.613905
0.613922
0.61394
0.613958
0.613958
0.613975
0.613993
0.61401
0.614028
0.614028
0.614045
0.614063
0.614081
0.614098
0.614098
0.614116
0.614134
0.614151
0.614169
0.614169
0.614187
0.614204
0.614222
0.61424
0.61424
0.614258
0.614275
0.614293
0.614311
0.614311
0.614329
0.614347
0.614364
0.614382
0.614382
0.6144
0.614418
0.614436
0.614454
0.614454
0.614471
0.614489
0.614507
0.614525
0.614525
0.614543
0.614561
0.614579
0.614597
0.614597
0.614614
0.614632
0.61465
0.614668
0.614668
0.614686
0.614704
0.614722
0.61474
0.61474
0.614758
0.614776
0.614795
0.614813
0.614813
0.614832
0.61485
0.614868
0.614887
0.614887