<?xml version="1.0"?>
<VTKFile type="UnstructuredGrid" version="0.1" byte_order="LittleEndian">
<UnstructuredGrid>
<Piece NumberOfPoints="5000" NumberOfCells="4000">
<PointData Scalars="Reaction 0">
<DataArray type="Float32" Name="Reaction 0" format="ascii">
0.580838
0.580838
0.580838
0.580838
0.580838
0.580838
0.580838
0.580838
0.580838
0.580838
0.580838
0.580838
0.580838
0.580838
0.580838
0.580838
0.580838
0.580838
0.580838
0.580838
0.580838
0.580838
0.580838
0.580838
0.580838
0.580838
0.580838
0.580838
0.580838
0.580838
0.580838
0.580838
0.580838
0.580838
0.580838
0.580838
0.580839
0.580839
0.580839
0.580839
0.580839
0.580839
0.580839
0.580839
0.580839
0.580839
0.580839
0.580839
0.580839
0.580839
0.580839
0.580839
0.580839
0.580839
0.580839
0.580839
0.580839
0.580839
0.58084
0.58084
0.58084
0.58084
0.58084
0.58084
0.58084
0.58084
0.58084
0.58084
0.58084
0.58084
0.58084
0.58084
0.58084
0.580841
0.580841
0.580841
0.580841
0.580841
0.580841
0.580841
0.580841
0.580841
0.580841
0.580841
0.580841
0.580841
0.580842
0.580842
0.580842
0.580842
0.580842
0.580842
0.580842
0.580842
0.580842
0.580842
0.580842
0.580843
0.580843
0.580843
0.580843
0.580843
0.580843
0.580843
0.580843
0.580843
0.580843
0.580844
0.580844
0.580844
0.580844
0.580844
0.580844
0.580844
0.580844
0.580844
0.580845
0.580845
0.580845
0.580845
0.580845
0.580845
0.580845
0.580845
0.580846
0.580846
0.580846
0.580846
0.580846
0.580846
0.580846
0.580846
0.580847
0.580847
0.580847
0.580847
0.580847
0.580847
0.580847
0.580848
0.580848
0.580848
0.580848
0.580848
0.580848
0.580848
0.580848
0.580849
0.580849
0.580849
0.580849
0.580849
0.580849
0.58085
0.58085
0.58085
0.58085
0.58085
0.58085
0.580851
0.580851
0.580851
0.580851
0.580851
0.580851
0.580851
0.580852
0.580852
0.580852
0.580852
0.580852
0.580852
0.580853
0.580853
0.580853
0.580853
0.580853
0.580853
0.580854
0.580854
0.580854
0.580854
0.580854
0.580855
0.580855
0.580855
0.580855
0.580855
0.580855
0.580856
0.580856
0.580856
0.580856
0.580856
0.580857
0.580857
0.580857
0.580857
0.580857
0.580858
0.580858
0.580858
0.580858
0.580858
0.580859
0.580859
0.580859
0.580859
0.580859
0.58086
0.58086
0.58086
0.58086
0.58086
0.580861
0.580861
0.580861
0.580861
0.580862
0.580862
0.580862
0.580862
0.580862
0.580863
0.580863
0.580863
0.580863
0.580863
0.580864
0.580864
0.580864
0.580864
0.580865
0.580865
0.580865
0.580865
0.580865
0.580866
0.580866
0.580866
0.580866
0.580867
0.580867
0.580867
0.580868
0.580868
0.580868
0.580868
0.580868
0.580869
0.580869
0.580869
0.580869
0.58087
0.58087
0.58087
0.58087
0.580871
0.580871
0.580871
0.580871
0.580872
0.580872
0.580872
0.580873
0.580873
0.580873
0.580873
0.580874
0.580874
0.580874
0.580874
0.580875
0.580875
0.580875
0.580875
0.580876
0.580876
0.580876
0.580877
0.580877
0.580877
0.580877
0.580878
0.580878
0.580878
0.580878
0.580879
0.580879
0.580879
0.580879
0.58088
0.58088
0.580881
0.580881
0.580881
0.580881
0.580882
0.580882
0.580882
0.580882
0.580883
0.580883
0.580884
0.580884
0.580884
0.580884
0.580885
0.580885
0.580885
0.580885
0.580886
0.580886
0.580887
0.580887
0.580887
0.580887
0.580888
0.580888
0.580889
0.580889
0.580889
0.580889
0.58089
0.58089
0.58089
0.580891
0.580891
0.580891
0.580892
0.580892
0.580892
0.580893
0.580893
0.580893
0.580893
0.580894
0.580894
0.580895
0.580895
0.580895
0.580896
0.580896
0.580896
0.580897
0.580897
0.580897
0.580898
0.580898
0.580899
0.580899
0.580899
0.580899
0.5809
0.5809
0.5809
0.580901
0.580901
0.580902
0.580902
0.580902
0.580903
0.580903
0.580903
0.580904
0.580904
0.580904
0.580905
0.580905
0.580906
0.580906
0.580906
0.580907
0.580907
0.580908
0.580908
0.580908
0.580908
0.580909
0.580909
0.580909
0.58091
0.58091
0.580911
0.580911
0.580911
0.580912
0.580912
0.580913
0.580913
0.580913
0.580914
0.580914
0.580915
0.580915
0.580915
0.580916
0.580916
0.580917
0.580917
0.580917
0.580918
0.580918
0.580919
0.580919
0.580919
0.58092
0.58092
0.580921
0.580921
0.580921
0.580922
0.580922
0.580923
0.580923
0.580923
0.580924
0.580924
0.580925
0.580925
0.580925
0.580926
0.580926
0.580927
0.580927
0.580927
0.580928
0.580928
0.580929
0.58093
0.58093
0.58093
0.580931
0.580931
0.580932
0.580932
0.580932
0.580933
0.580933
0.580934
0.580934
0.580934
0.580935
0.580936
0.580936
0.580936
0.580937
0.580937
0.580938
0.580938
0.580938
0.580939
0.580939
0.58094
0.580941
0.580941
0.580941
0.580942
0.580942
0.580943
0.580943
0.580943
0.580944
0.580945
0.580945
0.580945
0.580946
0.580946
0.580947
0.580947
0.580947
0.580948
0.580949
0.580949
0.58095
0.58095
0.58095
0.580951
0.580952
0.580952
0.580952
0.580953
0.580953
0.580954
0.580955
0.580955
0.580955
0.580956
0.580956
0.580957
0.580957
0.580958
0.580958
0.580959
0.58096
0.58096
0.58096
0.580961
0.580961
0.580962
0.580962
0.580963
0.580963
0.580964
0.580965
0.580965
0.580965
0.580966
0.580966
0.580967
0.580967
0.580968
0.580968
0.580969
0.58097
0.58097
0.58097
0.580971
0.580972
0.580972
0.580972
0.580973
0.580973
0.580974
0.580975
0.580975
0.580975
0.580976
0.580977
0.580977
0.580977
0.580978
0.580979
0.580979
0.58098
0.58098
0.580981
0.580981
0.580982
0.580983
0.580983
0.580983
0.580984
0.580985
0.580985
0.580985
0.580986
0.580987
0.580988
0.580988
0.580988
0.580989
0.58099
0.58099
0.580991
0.580991
0.580992
0.580992
0.580993
0.580994
0.580994
0.580994
0.580995
0.580996
0.580997
0.580997
0.580997
0.580998
0.580999
0.580999
0.580999
0.581
0.581001
0.581002
0.581002
0.581002
0.581003
0.581004
0.581004
0.581005
0.581005
0.581006
0.581007
0.581007
0.581008
0.581008
0.581009
0.58101
0.58101
0.581011
0.581011
0.581012
0.581013
0.581013
0.581014
0.581014
0.581015
0.581016
0.581016
0.581017
0.581017
0.581018
0.581019
0.581019
0.58102
0.58102
0.581021
0.581022
0.581022
0.581023
0.581023
0.581024
0.581025
0.581025
0.581026
0.581026
0.581027
0.581028
0.581028
0.581029
0.581029
0.58103
0.581031
0.581032
0.581032
0.581032
0.581033
0.581034
0.581035
0.581036
0.581036
0.581036
0.581037
0.581038
0.581039
0.581039
0.58104
0.58104
0.581041
0.581042
0.581042
0.581043
0.581044
0.581044
0.581045
0.581045
0.581046
0.581047
0.581048
0.581048
0.581048
0.581049
0.58105
0.581051
0.581052
0.581052
0.581052
0.581053
0.581054
0.581055
0.581055
0.581056
0.581057
0.581057
0.581058
0.581058
0.581059
0.58106
0.581061
0.581062
0.581062
0.581063
0.581063
0.581064
0.581065
0.581065
0.581066
0.581067
0.581068
0.581068
0.581068
0.581069
0.58107
0.581071
0.581072
0.581072
0.581073
0.581074
0.581074
0.581075
0.581075
0.581076
0.581077
0.581078
0.581079
0.581079
0.58108
0.581081
0.581081
0.581082
0.581082
0.581083
0.581084
0.581085
0.581086
0.581086
0.581087
0.581088
0.581089
0.581089
0.581089
0.58109
0.581091
0.581092
0.581093
0.581093
0.581094
0.581095
0.581096
0.581097
0.581097
0.581098
0.581099
0.581099
0.5811
0.5811
0.581101
0.581102
0.581103
0.581104
0.581104
0.581105
0.581106
0.581107
0.581108
0.581108
0.581109
0.58111
0.58111
0.581111
0.581111
0.581112
0.581113
0.581114
0.581115
0.581115
0.581116
0.581117
0.581118
0.581119
0.581119
0.58112
0.581121
0.581122
0.581123
0.581123
0.581124
0.581125
0.581126
0.581127
0.581127
0.581128
0.581129
0.581129
0.58113
0.58113
0.581131
0.581132
0.581133
0.581134
0.581134
0.581135
0.581136
0.581137
0.581138
0.581138
0.581139
0.58114
0.581141
0.581142
0.581142
0.581143
0.581144
0.581145
0.581146
0.581146
0.581147
0.581148
0.581149
0.58115
0.58115
0.581151
0.581152
0.581153
0.581154
0.581154
0.581155
0.581156
0.581157
0.581158
0.581158
0.581159
0.58116
0.581161
0.581162
0.581162
0.581163
0.581164
0.581165
0.581166
0.581166
0.581167
0.581168
0.581169
0.58117
0.58117
0.581172
0.581173
0.581174
0.581175
0.581175
0.581176
0.581177
0.581178
0.581179
0.581179
0.58118
0.581181
0.581182
0.581183
0.581183
0.581184
0.581185
0.581186
0.581187
0.581187
0.581188
0.581189
0.58119
0.581191
0.581191
0.581193
0.581194
0.581195
0.581196
0.581196
0.581197
0.581198
0.581199
0.5812
0.5812
0.581201
0.581202
0.581203
0.581204
0.581204
0.581206
0.581207
0.581208
0.581209
0.581209
0.58121
0.581211
0.581212
0.581213
0.581213
0.581214
0.581215
0.581216
0.581218
0.581218
0.581219
0.58122
0.581221
0.581222
0.581222
0.581223
0.581224
0.581225
0.581227
0.581227
0.581228
0.581229
0.58123
0.581231
0.581231
0.581232
0.581233
0.581234
0.581236
0.581236
0.581237
0.581238
0.581239
0.58124
0.58124
0.581241
0.581242
0.581244
0.581245
0.581245
0.581246
0.581247
0.581248
0.581249
0.581249
0.58125
0.581252
0.581253
0.581254
0.581254
0.581255
0.581256
0.581257
0.581259
0.581259
0.58126
0.581261
0.581262
0.581263
0.581263
0.581264
0.581266
0.581267
0.581268
0.581268
0.581269
0.58127
0.581272
0.581273
0.581273
0.581274
0.581275
0.581276
0.581278
0.581278
0.581279
0.58128
0.581281
0.581282
0.581282
0.581284
0.581285
0.581286
0.581287
0.581287
0.581288
0.58129
0.581291
0.581292
0.581292
0.581293
0.581294
0.581296
0.581297
0.581297
0.581298
0.581299
0.5813
0.581302
0.581302
0.581303
0.581304
0.581305
0.581306
0.581306
0.581308
0.581309
0.58131
0.581312
0.581312
0.581313
0.581314
0.581315
0.581317
0.581317
0.581318
0.581319
0.58132
0.581322
0.581322
0.581323
0.581324
0.581325
0.581327
0.581327
0.581328
0.581329
0.581331
0.581332
0.581332
0.581333
0.581334
0.581336
0.581337
0.581337
0.581338
0.581339
0.581341
0.581342
0.581342
0.581343
0.581345
0.581346
0.581347
0.581347
0.581349
0.58135
0.581351
0.581352
0.581352
0.581354
0.581355
0.581356
0.581358
0.581358
0.581359
0.58136
0.581362
0.581363
0.581363
0.581364
0.581365
0.581367
0.581368
0.581368
0.581369
0.581371
0.581372
0.581373
0.581373
0.581375
0.581376
0.581377
0.581379
0.581379
0.58138
0.581381
0.581383
0.581384
0.581384
0.581385
0.581387
0.581388
0.581389
0.581389
0.581391
0.581392
0.581394
0.581395
0.581395
0.581396
0.581398
0.581399
0.5814
0.5814
0.581402
0.581403
0.581404
0.581406
0.581406
0.581407
0.581409
0.58141
0.581411
0.581411
0.581413
0.581414
0.581415
0.581417
0.581417
0.581418
0.58142
0.581421
0.581422
0.581422
0.581424
0.581425
0.581427
0.581428
0.581428
0.581429
0.581431
0.581432
0.581434
0.581434
0.581435
0.581436
0.581438
0.581439
0.581439
0.581441
0.581442
0.581443
0.581445
0.581445
0.581446
0.581448
0.581449
0.581451
0.581451
0.581452
0.581453
0.581455
0.581456
0.581456
0.581458
0.581459
0.581461
0.581462
0.581462
0.581463
0.581465
0.581466
0.581468
0.581468
0.581469
0.581471
0.581472
0.581474
0.581474
0.581475
0.581477
0.581478
0.581479
0.581479
0.581481
0.581482
0.581484
0.581485
0.581485
0.581487
0.581488
0.58149
0.581491
0.581491
0.581493
0.581494
0.581496
0.581497
0.581497
0.581499
0.5815
0.581502
0.581503
0.581503
0.581505
0.581506
0.581508
0.581509
0.581509
0.581511
0.581512
0.581514
0.581515
0.581515
0.581517
0.581518
0.58152
0.581521
0.581521
0.581523
0.581524
0.581526
0.581527
0.581527
0.581529
0.58153
0.581532
0.581533
0.581533
0.581535
0.581536
0.581538
0.581539
0.581539
0.581541
0.581543
0.581544
0.581546
0.581546
0.581547
0.581549
0.58155
0.581552
0.581552
0.581553
0.581555
0.581556
0.581558
0.581558
0.58156
0.581561
0.581563
0.581564
0.581564
0.581566
0.581567
0.581569
0.58157
0.58157
0.581572
0.581574
0.581575
0.581577
0.581577
0.581578
0.58158
0.581582
0.581583
0.581583
0.581585
0.581586
0.581588
0.581589
0.581589
0.581591
0.581593
0.581594
0.581596
0.581596
0.581597
0.581599
0.581601
0.581602
0.581602
0.581604
0.581606
0.581607
0.581609
0.581609
0.58161
0.581612
0.581614
0.581615
0.581615
0.581617
0.581618
0.58162
0.581622
0.581622
0.581623
0.581625
0.581627
0.581628
0.581628
0.58163
0.581632
0.581633
0.581635
0.581635
0.581636
0.581638
0.58164
0.581641
0.581641
0.581643
0.581645
0.581646
0.581648
0.581648
0.58165
0.581651
0.581653
0.581655
0.581655
0.581656
0.581658
0.58166
0.581661
0.581661
0.581663
0.581665
0.581666
0.581668
0.581668
0.58167
0.581671
0.581673
0.581675
0.581675
0.581677
0.581678
0.58168
0.581682
0.581682
0.581683
0.581685
0.581687
0.581688
0.581688
0.58169
0.581692
0.581694
0.581695
0.581695
0.581697
0.581699
0.5817
0.581702
0.581702
0.581704
0.581706
0.581707
0.581709
0.581709
0.581711
0.581713
0.581714
0.581716
0.581716
0.581718
0.581719
0.581721
0.581723
0.581723
0.581725
0.581726
0.581728
0.58173
0.58173
0.581732
0.581733
0.581735
0.581737
0.581737
0.581739
0.58174
0.581742
0.581744
0.581744
0.581746
0.581748
0.581749
0.581751
0.581751
0.581753
0.581755
0.581756
0.581758
0.581758
0.58176
0.581762
0.581764
0.581765
0.581765
0.581767
0.581769
0.581771
0.581772
0.581772
0.581774
0.581776
0.581778
0.58178
0.58178
0.581781
0.581783
0.581785
0.581787
0.581787
0.581789
0.581791
0.581792
0.581794
0.581794
0.581796
0.581798
0.5818
0.581801
0.581801
0.581803
0.581805
0.581807
0.581809
0.581809
0.581811
0.581812
0.581814
0.581816
0.581816
0.581818
0.58182
0.581822
0.581824
0.581824
0.581825
0.581827
0.581829
0.581831
0.581831
0.581833
0.581835
0.581837
0.581838
0.581838
0.58184
0.581842
0.581844
0.581846
0.581846
0.581848
0.58185
0.581851
0.581853
0.581853
0.581855
0.581857
0.581859
0.581861
0.581861
0.581863
0.581865
0.581867
0.581868
0.581868
0.58187
0.581872
0.581874
0.581876
0.581876
0.581878
0.58188
0.581882
0.581884
0.581884
0.581886
0.581888
0.581889
0.581891
0.581891
0.581893
0.581895
0.581897
0.581899
0.581899
0.581901
0.581903
0.581905
0.581907
0.581907
0.581909
0.581911
0.581913
0.581915
0.581915
0.581917
0.581918
0.58192
0.581922
0.581922
0.581924
0.581926
0.581928
0.58193
0.58193
0.581932
0.581934
0.581936
0.581938
0.581938
0.58194
0.581942
0.581944
0.581946
0.581946
0.581948
0.58195
0.581952
0.581954
0.581954
0.581956
0.581958
0.58196
0.581962
0.581962
0.581964
0.581966
0.581968
0.58197
0.58197
0.581972
0.581974
0.581976
0.581978
0.581978
0.58198
0.581982
0.581984
0.581986
0.581986
0.581988
0.58199
0.581992
0.581994
0.581994
0.581996
0.581998
0.582
0.582002
0.582002
0.582004
0.582006
0.582008
0.58201
0.58201
0.582012
0.582014
0.582016
0.582018
0.582018
0.58202
0.582022
0.582024
0.582027
0.582027
0.582029
0.582031
0.582033
0.582035
0.582035
0.582037
0.582039
0.582041
0.582043
0.582043
0.582045
0.582047
0.582049
0.582051
0.582051
0.582053
0.582056
0.582058
0.58206
0.58206
0.582062
0.582064
0.582066
0.582068
0.582068
0.58207
0.582072
0.582074
0.582076
0.582076
0.582079
0.582081
0.582083
0.582085
0.582085
0.582087
0.582089
0.582091
0.582093
0.582093
0.582095
0.582098
0.5821
0.582102
0.582102
0.582104
0.582106
0.582108
0.58211
0.58211
0.582113
0.582115
0.582117
0.582119
0.582119
0.582121
0.582123
0.582125
0.582128
0.582128
0.58213
0.582132
0.582134
0.582136
0.582136
0.582138
0.582141
0.582143
0.582145
0.582145
0.582147
0.582149
0.582151
0.582154
0.582154
0.582156
0.582158
0.58216
0.582162
0.582162
0.582164
0.582167
0.582169
0.582171
0.582171
0.582173
0.582175
0.582178
0.58218
0.58218
0.582182
0.582184
0.582186
0.582189
0.582189
0.582191
0.582193
0.582195
0.582198
0.582198
0.5822
0.582202
0.582204
0.582206
0.582206
0.582209
0.582211
0.582213
0.582215
0.582215
0.582218
0.58222
0.582222
0.582224
0.582224
0.582227
0.582229
0.582231
0.582233
0.582233
0.582236
0.582238
0.58224
0.582242
0.582242
0.582245
0.582247
0.582249
0.582251
0.582251
0.582254
0.582256
0.582258
0.582261
0.582261
0.582263
0.582265
0.582267
0.58227
0.58227
0.582272
0.582274
0.582277
0.582279
0.582279
0.582281
0.582283
0.582286
0.582288
0.582288
0.58229
0.582293
0.582295
0.582297
0.582297
0.5823
0.582302
0.582304
0.582307
0.582307
0.582309
0.582311
0.582314
0.582316
0.582316
0.582318
0.582321
0.582323
0.582325
0.582325
0.582328
0.58233
0.582332
0.582335
0.582335
0.582337
0.582339
0.582342
0.582344
0.582344
0.582346
0.582349
0.582351
0.582353
0.582353
0.582356
0.582358
0.582361
0.582363
0.582363
0.582365
0.582368
0.58237
0.582372
0.582372
0.582375
0.582377
0.58238
0.582382
0.582382
0.582384
0.582387
0.582389
0.582392
0.582392
0.582394
0.582396
0.582399
0.582401
0.582401
0.582404
0.582406
0.582408
0.582411
0.582411
0.582413
0.582416
0.582418
0.58242
0.58242
0.582423
0.582425
0.582428
0.58243
0.58243
0.582433
0.582435
0.582437
0.58244
0.58244
0.582442
0.582445
0.582447
0.58245
0.58245
0.582452
0.582455
0.582457
0.58246
0.58246
0.582462
0.582464
0.582467
0.582469
0.582469
0.582472
0.582474
0.582477
0.582479
0.582479
0.582482
0.582484
0.582487
0.582489
0.582489
0.582492
0.582494
0.582497
0.582499
0.582499
0.582502
0.582504
0.582507
0.582509
0.582509
0.582512
0.582514
0.582517
0.582519
0.582519
0.582522
0.582524
0.582527
0.582529
0.582529
0.582532
0.582534
0.582537
0.582539
0.582539
0.582542
0.582545
0.582547
0.58255
0.58255
0.582552
0.582555
0.582557
0.58256
0.58256
0.582562
0.582565
0.582567
0.58257
0.58257
0.582573
0.582575
0.582578
0.58258
0.58258
0.582583
0.582585
0.582588
0.582591
0.582591
0.582593
0.582596
0.582598
0.582601
0.582601
0.582603
0.582606
0.582609
0.582611
0.582611
0.582614
0.582616
0.582619
0.582622
0.582622
0.582624
0.582627
0.582629
0.582632
0.582632
0.582635
0.582637
0.58264
0.582642
0.582642
0.582645
0.582647
0.58265
0.582652
0.582652
0.582655
0.582658
0.58266
0.582663
0.582663
0.582666
0.582669
0.582671
0.582674
0.582674
0.582677
0.582679
0.582682
0.582685
0.582685
0.582687
0.58269
0.582693
0.582695
0.582695
0.582698
0.582701
0.582703
0.582706
0.582706
0.582709
0.582711
0.582714
0.582717
0.582717
0.58272
0.582722
0.582725
0.582728
0.582728
0.58273
0.582733
0.582736
0.582738
0.582738
0.582741
0.582744
0.582747
0.582749
0.582749
0.582752
0.582755
0.582757
0.58276
0.58276
0.582763
0.582766
0.582768
0.582771
0.582771
0.582774
0.582777
0.582779
0.582782
0.582782
0.582785
0.582787
0.58279
0.582793
0.582793
0.582796
0.582799
0.582801
0.582804
0.582804
0.582807
0.58281
0.582812
0.582815
0.582815
0.582818
0.582821
0.582823
0.582826
0.582826
0.582829
0.582832
0.582835
0.582837
0.582837
0.58284
0.582843
0.582846
0.582849
0.582849
0.582851
0.582854
0.582857
0.58286
0.58286
0.582863
0.582865
0.582868
0.582871
0.582871
0.582874
0.582877
0.582879
0.582882
0.582882
0.582885
0.582888
0.582891
0.582894
0.582894
0.582896
0.582899
0.582902
0.582905
0.582905
0.582908
0.582911
0.582914
0.582916
0.582916
0.582919
0.582922
0.582925
0.582928
0.582928
0.582931
0.582934
0.582936
0.582939
0.582939
0.582942
0.582945
0.582948
0.582951
0.582951
0.582954
0.582957
0.58296
0.582962
0.582962
0.582965
0.582968
0.582971
0.582974
0.582974
0.582977
0.58298
0.582983
0.582986
0.582986
0.582989
0.582992
0.582994
0.582997
0.582997
0.583
0.583003
0.583006
0.583009
0.583009
0.583012
0.583015
0.583018
0.583021
0.583021
0.583024
0.583027
0.58303
0.583033
0.583033
0.583036
0.583039
0.583042
0.583044
0.583044
0.583047
0.58305
0.583053
0.583056
0.583056
0.583059
0.583062
0.583065
0.583068
0.583068
0.583071
0.583074
0.583077
0.58308
0.58308
0.583083
0.583086
0.583089
0.583092
0.583092
0.583095
0.583098
0.583101
0.583104
0.583104
0.583107
0.58311
0.583113
0.583116
0.583116
0.583119
0.583122
0.583125
0.583128
0.583128
0.583131
0.583135
0.583138
0.583141
0.583141
0.583144
0.583147
0.58315
0.583153
0.583153
0.583156
0.583159
0.583162
0.583165
0.583165
0.583168
0.583171
0.583174
0.583177
0.583177
0.58318
0.583183
0.583187
0.58319
0.58319
0.583193
0.583196
0.583199
0.583202
0.583202
0.583205
0.583208
0.583211
0.583214
0.583214
0.583218
0.583221
0.583224
0.583227
0.583227
0.58323
0.583233
0.583236
0.583239
0.583239
0.583242
0.583246
0.583249
0.583252
0.583252
0.583255
0.583258
0.583261
0.583264
0.583264
0.583268
0.583271
0.583274
0.583277
0.583277
0.58328
0.583283
0.583286
0.58329
0.58329
0.583293
0.583296
0.583299
0.583302
0.583302
0.583306
0.583309
0.583312
0.583315
0.583315
0.583318
0.583321
0.583325
0.583328
0.583328
0.583331
0.583334
0.583337
0.583341
0.583341
0.583344
0.583347
0.58335
0.583353
0.583353
0.583357
0.58336
0.583363
0.583366
0.583366
0.58337
0.583373
0.583376
0.583379
0.583379
0.583383
0.583386
0.583389
0.583392
0.583392
0.583396
0.583399
0.583402
0.583405
0.583405
0.583409
0.583412
0.583415
0.583418
0.583418
0.583422
0.583425
0.583428
0.583431
0.583431
0.583435
0.583438
0.583441
0.583445
0.583445
0.583448
0.583451
0.583455
0.583458
0.583458
0.583461
0.583464
0.583468
0.583471
0.583471
0.583474
0.583478
0.583481
0.583484
0.583484
0.583488
0.583491
0.583494
0.583498
0.583498
0.583501
0.583504
0.583508
0.583511
0.583511
0.583514
0.583518
0.583521
0.583524
0.583524
0.583528
0.583531
0.583534
0.583538
0.583538
0.583541
0.583545
0.583548
0.583551
0.583551
0.583555
0.583558
0.583561
0.583565
0.583565
0.583568
0.583572
0.583575
0.583578
0.583578
0.583582
0.583585
0.583589
0.583592
0.583592
0.583595
0.583599
0.583602
0.583606
0.583606
0.583609
0.583613
0.583616
0.583619
0.583619
0.583623
0.583626
0.58363
0.583633
0.583633
0.583637
0.58364
0.583644
0.583647
0.583647
0.58365
0.583654
0.583657
0.583661
0.583661
0.583664
0.583668
0.583671
0.583675
0.583675
0.583678
0.583682
0.583685
0.583689
0.583689
0.583692
0.583696
0.583699
0.583703
0.583703
0.583706
0.58371
0.583713
0.583717
0.583717
0.58372
0.583724
0.583727
0.583731
0.583731
0.583734
0.583738
0.583741
0.583745
0.583745
0.583748
0.583752
0.583755
0.583759
0.583759
0.583762
0.583766
0.58377
0.583773
0.583773
0.583777
0.58378
0.583784
0.583787
0.583787
0.583791
0.583794
0.583798
0.583802
0.583802
0.583805
0.583809
0.583812
0.583816
0.583816
0.58382
0.583823
0.583827
0.58383
0.58383
0.583834
0.583838
0.583841
0.583845
0.583845
0.583848
0.583852
0.583856
0.583859
0.583859
0.583863
0.583866
0.58387
0.583874
0.583874
0.583877
0.583881
0.583885
0.583888
0.583888
0.583892
0.583896
0.583899
0.583903
0.583903
0.583907
0.58391
0.583914
0.583918
0.583918
0.583921
0.583925
0.583929
0.583932
0.583932
0.583936
0.58394
0.583943
0.583947
0.583947
0.583951
0.583954
0.583958
0.583962
0.583962
0.583965
0.583969
0.583973
0.583977
0.583977
0.58398
0.583984
0.583988
0.583991
0.583991
0.583995
0.583999
0.584003
0.584006
0.584006
0.58401
0.584014
0.584018
0.584021
0.584021
0.584025
0.584029
0.584033
0.584036
0.584036
0.58404
0.584044
0.584048
0.584051
0.584051
0.584055
0.584059
0.584063
0.584067
0.584067
0.58407
0.584074
0.584078
0.584082
0.584082
0.584085
0.584089
0.584093
0.584097
0.584097
0.584101
0.584105
0.584108
0.584112
0.584112
0.584116
0.58412
0.584124
0.584127
0.584127
0.584131
0.584135
0.584139
0.584143
0.584143
0.584147
0.58415
0.584154
0.584158
0.584158
0.584162
0.584166
0.58417
0.584173
0.584173
0.584177
0.584181
0.584185
0.584188
0.584188
0.584192
0.584196
0.5842
0.584204
0.584204
0.584208
0.584212
0.584216
0.58422
0.58422
0.584224
0.584228
0.584232
0.584236
0.584236
0.58424
0.584244
0.584248
0.584252
0.584252
0.584255
0.584259
0.584263
0.584267
0.584267
0.584271
0.584275
0.584279
0.584283
0.584283
0.584287
0.584291
0.584295
0.584299
0.584299
0.584303
0.584307
0.584311
0.584315
0.584315
0.584319
0.584323
0.584327
0.584331
0.584331
0.584335
0.584339
0.584343
0.584347
0.584347
0.584351
0.584355
0.584359
0.584363
0.584363
0.584367
0.584371
0.584375
0.584379
0.584379
0.584383
0.584387
0.584391
0.584395
0.584395
0.584399
0.584403
0.584407
0.584411
0.584411
0.584415
0.584419
0.584423
0.584427
0.584427
0.584431
0.584435
0.58444
0.584444
0.584444
0.584448
0.584452
0.584456
0.58446
0.58446
0.584464
0.584468
0.584472
0.584476
0.584476
0.58448
0.584485
0.584489
0.584493
0.584493
0.584497
0.584501
0.584505
0.584509
0.584509
0.584513
0.584517
0.584522
0.584526
0.584526
0.58453
0.584534
0.584538
0.584542
0.584542
0.584546
0.584551
0.584555
0.584559
0.584559
0.584563
0.584567
0.584571
0.584576
0.584576
0.58458
0.584584
0.584588
0.584592
0.584592
0.584597
0.584601
0.584605
0.584609
0.584609
0.584613
0.584618
0.584622
0.584626
0.584626
0.58463
0.584634
0.584639
0.584643
0.584643
0.584647
0.584651
0.584656
0.58466
0.58466
0.584664
0.584668
0.584673
0.584677
0.584677
0.584681
0.584685
0.58469
0.584694
0.584694
0.584698
0.584702
0.584707
0.584711
0.584711
0.584715
0.584719
0.584724
0.584728
0.584728
0.584732
0.584737
0.584741
0.584745
0.584745
0.58475
0.584754
0.584758
0.584763
0.584763
0.584767
0.584771
0.584775
0.58478
0.58478
0.584784
0.584788
0.584793
0.584797
0.584797
0.584802
0.584806
0.58481
0.584815
0.584815
0.584819
0.584823
0.584828
0.584832
0.584832
0.584836
0.584841
0.584845
0.58485
0.58485
0.584854
0.584858
0.584863
0.584867
0.584867
0.584872
0.584876
0.58488
0.584885
0.584885
0.584889
0.584894
0.584898
0.584902
0.584902
0.584907
0.584911
0.584916
0.58492
0.58492
0.584925
0.584929
0.584933
0.584938
0.584938
0.584942
0.584947
0.584951
0.584956
0.584956
0.58496
0.584965
0.584969
0.584974
0.584974
0.584978
0.584983
0.584987
0.584992
0.584992
0.584996
0.585001
0.585005
0.58501
0.58501
0.585014
0.585019
0.585023
0.585028
0.585028
0.585032
0.585037
0.585041
0.585046
0.585046
0.58505
0.585055
0.585059
0.585064
0.585064
0.585068
0.585073
0.585078
0.585082
0.585082
0.585087
0.585091
0.585096
0.5851
0.5851
0.585105
0.58511
0.585114
0.585119
0.585119
0.585123
0.585128
0.585133
0.585137
0.585137
0.585142
0.585146
0.585151
0.585156
0.585156
0.58516
0.585165
0.585169
0.585174
0.585174
0.585179
0.585183
0.585188
0.585193
0.585193
0.585197
0.585202
0.585207
0.585211
0.585211
0.585216
0.585221
0.585225
0.58523
0.58523
0.585235
0.585239
0.585244
0.585249
0.585249
0.585253
0.585258
0.585263
0.585267
0.585267
0.585272
0.585277
0.585281
0.585286
0.585286
0.585291
0.585296
0.5853
0.585305
0.585305
0.58531
0.585315
0.585319
0.585324
0.585324
0.585329
0.585334
0.585338
0.585343
0.585343
0.585348
0.585353
0.585357
0.585362
0.585362
0.585367
0.585372
0.585376
0.585381
0.585381
0.585386
0.585391
0.585396
0.5854
0.5854
0.585405
0.58541
0.585415
0.58542
0.58542
0.585424
0.585429
0.585434
0.585439
0.585439
0.585444
0.585449
0.585453
0.585458
0.585458
0.585463
0.585468
0.585473
0.585478
0.585478
0.585483
0.585487
0.585492
0.585497
0.585497
0.585502
0.585507
0.585512
0.585517
0.585517
0.585522
0.585526
0.585531
0.585536
0.585536
0.585541
0.585546
0.585551
0.585556
0.585556
0.585561
0.585566
0.585571
0.585576
0.585576
0.585581
0.585585
0.58559
0.585595
0.585595
0.5856
0.585605
0.58561
0.585615
0.585615
0.58562
0.585625
0.58563
0.585635
0.585635
0.58564
0.585645
0.58565
0.585655
0.585655
0.58566
0.585665
0.58567
0.585675
0.585675
0.58568
0.585685
0.58569
0.585695
0.585695
0.5857
0.585705
0.58571
0.585715
0.585715
0.58572
0.585725
0.58573
0.585735
0.585735
0.58574
0.585745
0.585751
0.585756
0.585756
0.585761
0.585766
0.585771
0.585776
0.585776
0.585781
0.585786
0.585791
0.585796
0.585796
0.585801
0.585806
0.585812
0.585817
0.585817
0.585822
0.585827
0.585832
0.585837
0.585837
0.585842
0.585847
0.585853
0.585858
0.585858
0.585863
0.585868
0.585873
0.585878
0.585878
0.585883
0.585888
0.585894
0.585899
0.585899
0.585904
0.585909
0.585914
0.585919
0.585919
0.585924
0.585929
0.585935
0.58594
0.58594
0.585945
0.585951
0.585956
0.585961
0.585961
0.585966
0.585972
0.585977
0.585982
0.585982
0.585987
0.585993
0.585998
0.586003
0.586003
0.586008
0.586014
0.586019
0.586024
0.586024
0.58603
0.586035
0.58604
0.586045
0.586045
0.586051
0.586056
0.586061
0.586067
0.586067
0.586072
0.586077
0.586082
0.586088
0.586088
0.586093
0.586098
0.586104
0.586109
0.586109
0.586114
0.58612
0.586125
0.58613
0.58613
0.586136
0.586141
0.586147
0.586152
0.586152
0.586157
0.586163
0.586168
0.586173
0.586173
0.586179
0.586184
0.58619
0.586195
0.586195
0.5862
0.586206
0.586211
0.586217
0.586217
0.586222
0.586227
0.586233
0.586238
0.586238
0.586244
0.586249
0.586255
0.58626
0.58626
0.586265
0.586271
0.586276
0.586282
0.586282
0.586287
0.586293
0.586298
0.586304
0.586304
0.586309
0.586315
0.58632
0.586326
0.586326
0.586331
0.586337
0.586342
0.586348
0.586348
0.586353
0.586359
0.586364
0.58637
0.58637
0.586375
0.586381
0.586386
0.586392
0.586392
0.586397
0.586403
0.586408
0.586414
0.586414
0.58642
0.586425
0.586431
0.586436
0.586436
0.586442
0.586447
0.586453
0.586459
0.586459
0.586464
0.58647
0.586475
0.586481
0.586481
0.586487
0.586492
0.586498
0.586503
0.586503
0.586509
0.586515
0.58652
0.586526
0.586526
0.586532
0.586537
0.586543
0.586549
0.586549
0.586554
0.58656
0.586566
0.586571
0.586571
0.586577
0.586583
0.586588
0.586594
0.586594
0.5866
0.586605
0.586611
0.586617
0.586617
0.586623
0.586628
0.586634
0.58664
0.58664
0.586645
0.586651
0.586657
0.586663
0.586663
0.586668
0.586674
0.58668
0.586686
0.586686
0.586691
0.586697
0.586703
0.586709
0.586709
0.586715
0.58672
0.586726
0.586732
0.586732
0.586738
0.586743
0.586749
0.586755
0.586755
0.586761
0.586767
0.586773
0.586778
0.586778
0.586784
0.58679
0.586796
0.586802
0.586802
0.586808
0.586813
0.586819
0.586825
0.586825
0.586831
0.586837
0.586843
0.586849
0.586849
0.586855
0.58686
0.586866
0.586872
0.586872
0.586878
0.586884
0.58689
0.586896
0.586896
0.586902
0.586908
0.586914
0.58692
0.58692
0.586925
0.586931
0.586937
0.586943
0.586943
0.586949
0.586955
0.586961
0.586967
0.586967
0.586973
0.586979
0.586985
0.586991
0.586991
0.586997
0.587003
0.587009
0.587015
0.587015
0.587021
0.587027
0.587033
0.587039
0.587039
0.587045
0.587051
0.587057
0.587063
0.587063
0.587069
0.587075
0.587081
0.587087
0.587087
0.587094
0.5871
0.587106
0.587112
0.587112
0.587118
0.587124
0.58713
0.587136
0.587136
0.587142
0.587148
0.587154
0.587161
0.587161
0.587167
0.587173
0.587179
0.587185
0.587185
0.587191
0.587197
0.587203
0.58721
0.58721
0.587216
0.587222
0.587228
0.587234
0.587234
0.58724
0.587247
0.587253
0.587259
0.587259
0.587265
0.587271
0.587278
0.587284
0.587284
0.58729
0.587296
0.587302
0.587309
0.587309
0.587315
0.587321
0.587327
0.587334
0.587334
0.58734
0.587346
0.587352
0.587359
0.587359
0.587365
0.587371
0.587377
0.587384
0.587384
0.58739
0.587396
0.587402
0.587409
0.587409
0.587415
0.587421
0.587428
0.587434
0.587434
0.58744
0.587447
0.587453
0.587459
0.587459
0.587466
0.587472
0.587478
0.587485
0.587485
0.587491
0.587497
0.587504
0.58751
0.58751
0.587517
0.587523
0.587529
0.587536
0.587536
0.587542
0.587548
0.587555
0.587561
0.587561
0.587568
0.587574
0.587581
0.587587
0.587587
0.587593
0.5876
0.587606
0.587613
0.587613
0.587619
0.587626
0.587632
0.587639
0.587639
0.587645
0.587652
0.587658
0.587664
0.587664
0.587671
0.587677
0.587684
0.58769
0.58769
0.587697
0.587704
0.58771
0.587717
0.587717
0.587723
0.58773
0.587736
0.587743
0.587743
0.587749
0.587756
0.587762
0.587769
0.587769
0.587775
0.587782
0.587789
0.587795
0.587795
0.587802
0.587808
0.587815
0.587821
0.587821
0.587828
0.587834
0.587841
0.587847
0.587847
0.587854
0.58786
0.587867
0.587874
0.587874
0.58788
0.587887
0.587894
0.587901
0.587901