<?xml version="1.0"?>
<VTKFile type="UnstructuredGrid" version="0.1" byte_order="LittleEndian">
<UnstructuredGrid>
<Piece NumberOfPoints="5000" NumberOfCells="4000">
<PointData Scalars="Reaction 0">
<DataArray type="Float32" Name="Reaction 0" format="ascii">
0.582776
0.582776
0.582776
0.582776
0.582776
0.582776
0.582776
0.582776
0.582776
0.582776
0.582776
0.582776
0.582776
0.582777
0.582777
0.582777
0.582777
0.582777
0.582777
0.582777
0.582777
0.582777
0.582777
0.582777
0.582777
0.582777
0.582777
0.582777
0.582777
0.582777
0.582777
0.582777
0.582777
0.582777
0.582777
0.582777
0.582777
0.582777
0.582777
0.582777
0.582777
0.582777
0.582777
0.582778
0.582778
0.582778
0.582778
0.582778
0.582778
0.582778
0.582778
0.582778
0.582778
0.582778
0.582778
0.582778
0.582778
0.582778
0.582778
0.582779
0.582779
0.582779
0.582779
0.582779
0.582779
0.582779
0.582779
0.582779
0.582779
0.582779
0.582779
0.582779
0.58278
0.58278
0.58278
0.58278
0.58278
0.58278
0.58278
0.58278
0.58278
0.58278
0.582781
0.582781
0.582781
0.582781
0.582781
0.582781
0.582781
0.582781
0.582781
0.582781
0.582782
0.582782
0.582782
0.582782
0.582782
0.582782
0.582782
0.582782
0.582782
0.582783
0.582783
0.582783
0.582783
0.582783
0.582783
0.582783
0.582784
0.582784
0.582784
0.582784
0.582784
0.582784
0.582784
0.582784
0.582785
0.582785
0.582785
0.582785
0.582785
0.582785
0.582786
0.582786
0.582786
0.582786
0.582786
0.582786
0.582787
0.582787
0.582787
0.582787
0.582787
0.582787
0.582788
0.582788
0.582788
0.582788
0.582788
0.582788
0.582788
0.582789
0.582789
0.582789
0.582789
0.582789
0.582789
0.58279
0.58279
0.58279
0.58279
0.58279
0.582791
0.582791
0.582791
0.582791
0.582791
0.582792
0.582792
0.582792
0.582792
0.582792
0.582793
0.582793
0.582793
0.582793
0.582793
0.582794
0.582794
0.582794
0.582794
0.582794
0.582795
0.582795
0.582795
0.582795
0.582795
0.582796
0.582796
0.582796
0.582796
0.582796
0.582797
0.582797
0.582797
0.582797
0.582798
0.582798
0.582798
0.582798
0.582798
0.582799
0.582799
0.582799
0.5828
0.5828
0.5828
0.5828
0.582801
0.582801
0.582801
0.582801
0.582801
0.582802
0.582802
0.582802
0.582802
0.582803
0.582803
0.582803
0.582803
0.582804
0.582804
0.582804
0.582805
0.582805
0.582805
0.582805
0.582806
0.582806
0.582806
0.582806
0.582807
0.582807
0.582807
0.582807
0.582808
0.582808
0.582808
0.582809
0.582809
0.582809
0.582809
0.58281
0.58281
0.58281
0.582811
0.582811
0.582811
0.582812
0.582812
0.582812
0.582812
0.582813
0.582813
0.582813
0.582813
0.582814
0.582814
0.582815
0.582815
0.582815
0.582815
0.582816
0.582816
0.582816
0.582817
0.582817
0.582817
0.582818
0.582818
0.582818
0.582819
0.582819
0.582819
0.582819
0.58282
0.58282
0.582821
0.582821
0.582821
0.582821
0.582822
0.582822
0.582823
0.582823
0.582823
0.582824
0.582824
0.582824
0.582824
0.582825
0.582825
0.582826
0.582826
0.582826
0.582827
0.582827
0.582827
0.582828
0.582828
0.582828
0.582829
0.582829
0.58283
0.58283
0.58283
0.582831
0.582831
0.582831
0.582831
0.582832
0.582832
0.582833
0.582833
0.582833
0.582834
0.582834
0.582835
0.582835
0.582835
0.582836
0.582836
0.582837
0.582837
0.582837
0.582838
0.582838
0.582839
0.582839
0.582839
0.58284
0.58284
0.582841
0.582841
0.582841
0.582842
0.582842
0.582843
0.582843
0.582843
0.582844
0.582844
0.582845
0.582845
0.582845
0.582846
0.582846
0.582847
0.582847
0.582847
0.582848
0.582848
0.582849
0.582849
0.582849
0.58285
0.58285
0.582851
0.582851
0.582851
0.582852
0.582852
0.582853
0.582854
0.582854
0.582854
0.582855
0.582855
0.582856
0.582856
0.582856
0.582857
0.582857
0.582858
0.582858
0.582859
0.582859
0.58286
0.58286
0.58286
0.582861
0.582861
0.582862
0.582863
0.582863
0.582863
0.582864
0.582864
0.582865
0.582865
0.582865
0.582866
0.582867
0.582867
0.582867
0.582868
0.582868
0.582869
0.58287
0.58287
0.58287
0.582871
0.582871
0.582872
0.582872
0.582873
0.582873
0.582874
0.582874
0.582874
0.582875
0.582876
0.582876
0.582877
0.582877
0.582878
0.582878
0.582879
0.582879
0.582879
0.58288
0.582881
0.582881
0.582882
0.582882
0.582883
0.582883
0.582884
0.582885
0.582885
0.582885
0.582886
0.582886
0.582887
0.582887
0.582888
0.582888
0.582889
0.58289
0.58289
0.58289
0.582891
0.582892
0.582892
0.582892
0.582893
0.582894
0.582894
0.582895
0.582895
0.582896
0.582896
0.582897
0.582898
0.582898
0.582899
0.582899
0.5829
0.582901
0.582901
0.582901
0.582902
0.582903
0.582903
0.582903
0.582904
0.582905
0.582906
0.582906
0.582906
0.582907
0.582908
0.582908
0.582909
0.582909
0.58291
0.58291
0.582911
0.582912
0.582912
0.582913
0.582913
0.582914
0.582915
0.582915
0.582916
0.582916
0.582917
0.582918
0.582918
0.582919
0.582919
0.58292
0.582921
0.582921
0.582922
0.582922
0.582923
0.582924
0.582924
0.582925
0.582925
0.582926
0.582927
0.582927
0.582928
0.582928
0.582929
0.58293
0.58293
0.582931
0.582931
0.582932
0.582933
0.582933
0.582934
0.582935
0.582935
0.582936
0.582936
0.582937
0.582938
0.582938
0.582939
0.582939
0.58294
0.582941
0.582942
0.582942
0.582942
0.582943
0.582944
0.582945
0.582946
0.582946
0.582947
0.582947
0.582948
0.582949
0.582949
0.58295
0.582951
0.582951
0.582952
0.582952
0.582953
0.582954
0.582955
0.582956
0.582956
0.582956
0.582957
0.582958
0.582959
0.582959
0.58296
0.582961
0.582961
0.582962
0.582962
0.582963
0.582964
0.582965
0.582966
0.582966
0.582967
0.582967
0.582968
0.582969
0.582969
0.58297
0.582971
0.582972
0.582973
0.582973
0.582974
0.582974
0.582975
0.582976
0.582976
0.582977
0.582978
0.582979
0.58298
0.58298
0.582981
0.582982
0.582982
0.582983
0.582983
0.582984
0.582985
0.582986
0.582987
0.582987
0.582988
0.582989
0.58299
0.582991
0.582991
0.582991
0.582992
0.582993
0.582994
0.582994
0.582995
0.582996
0.582997
0.582998
0.582998
0.582999
0.583
0.583001
0.583002
0.583002
0.583003
0.583004
0.583004
0.583005
0.583005
0.583006
0.583007
0.583008
0.583009
0.583009
0.58301
0.583011
0.583012
0.583013
0.583013
0.583014
0.583015
0.583016
0.583017
0.583017
0.583018
0.583019
0.58302
0.583021
0.583021
0.583022
0.583023
0.583024
0.583025
0.583025
0.583026
0.583027
0.583028
0.583029
0.583029
0.58303
0.583031
0.583032
0.583033
0.583033
0.583034
0.583035
0.583036
0.583037
0.583037
0.583038
0.583039
0.58304
0.583041
0.583041
0.583042
0.583043
0.583044
0.583045
0.583045
0.583046
0.583047
0.583048
0.583049
0.583049
0.58305
0.583051
0.583052
0.583053
0.583053
0.583054
0.583055
0.583056
0.583057
0.583057
0.583058
0.583059
0.58306
0.583062
0.583062
0.583063
0.583064
0.583065
0.583066
0.583066
0.583067
0.583068
0.583069
0.58307
0.58307
0.583071
0.583072
0.583073
0.583074
0.583074
0.583075
0.583077
0.583078
0.583079
0.583079
0.58308
0.583081
0.583082
0.583083
0.583083
0.583084
0.583085
0.583086
0.583088
0.583088
0.583089
0.58309
0.583091
0.583092
0.583092
0.583093
0.583094
0.583095
0.583096
0.583096
0.583098
0.583099
0.5831
0.583101
0.583101
0.583102
0.583103
0.583104
0.583106
0.583106
0.583107
0.583108
0.583109
0.58311
0.58311
0.583111
0.583112
0.583114
0.583115
0.583115
0.583116
0.583117
0.583118
0.583119
0.583119
0.58312
0.583122
0.583123
0.583124
0.583124
0.583125
0.583126
0.583128
0.583129
0.583129
0.58313
0.583131
0.583132
0.583133
0.583133
0.583135
0.583136
0.583137
0.583138
0.583138
0.583139
0.583141
0.583142
0.583143
0.583143
0.583144
0.583145
0.583147
0.583148
0.583148
0.583149
0.58315
0.583151
0.583153
0.583153
0.583154
0.583155
0.583156
0.583158
0.583158
0.583159
0.58316
0.583161
0.583163
0.583163
0.583164
0.583165
0.583166
0.583168
0.583168
0.583169
0.58317
0.583171
0.583173
0.583173
0.583174
0.583175
0.583176
0.583178
0.583178
0.583179
0.58318
0.583181
0.583183
0.583183
0.583184
0.583185
0.583186
0.583188
0.583188
0.583189
0.58319
0.583192
0.583193
0.583193
0.583194
0.583195
0.583197
0.583198
0.583198
0.583199
0.583201
0.583202
0.583203
0.583203
0.583205
0.583206
0.583207
0.583208
0.583208
0.58321
0.583211
0.583212
0.583214
0.583214
0.583215
0.583216
0.583218
0.583219
0.583219
0.58322
0.583222
0.583223
0.583224
0.583224
0.583226
0.583227
0.583228
0.58323
0.58323
0.583231
0.583232
0.583234
0.583235
0.583235
0.583236
0.583238
0.583239
0.583241
0.583241
0.583242
0.583243
0.583245
0.583246
0.583246
0.583247
0.583249
0.58325
0.583252
0.583252
0.583253
0.583254
0.583256
0.583257
0.583257
0.583258
0.58326
0.583261
0.583263
0.583263
0.583264
0.583265
0.583267
0.583268
0.583268
0.58327
0.583271
0.583272
0.583274
0.583274
0.583275
0.583277
0.583278
0.583279
0.583279
0.583281
0.583282
0.583284
0.583285
0.583285
0.583287
0.583288
0.583289
0.583291
0.583291
0.583292
0.583294
0.583295
0.583297
0.583297
0.583298
0.5833
0.583301
0.583303
0.583303
0.583304
0.583305
0.583307
0.583308
0.583308
0.58331
0.583311
0.583313
0.583314
0.583314
0.583316
0.583317
0.583319
0.58332
0.58332
0.583322
0.583323
0.583325
0.583326
0.583326
0.583328
0.583329
0.583331
0.583332
0.583332
0.583334
0.583335
0.583337
0.583338
0.583338
0.583339
0.583341
0.583342
0.583344
0.583344
0.583345
0.583347
0.583348
0.58335
0.58335
0.583351
0.583353
0.583354
0.583356
0.583356
0.583357
0.583359
0.583361
0.583362
0.583362
0.583364
0.583365
0.583367
0.583369
0.583369
0.58337
0.583372
0.583373
0.583375
0.583375
0.583376
0.583378
0.583379
0.583381
0.583381
0.583383
0.583384
0.583386
0.583387
0.583387
0.583389
0.58339
0.583392
0.583394
0.583394
0.583395
0.583397
0.583398
0.5834
0.5834
0.583402
0.583403
0.583405
0.583406
0.583406
0.583408
0.58341
0.583411
0.583413
0.583413
0.583414
0.583416
0.583418
0.583419
0.583419
0.583421
0.583422
0.583424
0.583426
0.583426
0.583427
0.583429
0.583431
0.583432
0.583432
0.583434
0.583435
0.583437
0.583439
0.583439
0.58344
0.583442
0.583444
0.583445
0.583445
0.583447
0.583449
0.58345
0.583452
0.583452
0.583454
0.583455
0.583457
0.583459
0.583459
0.58346
0.583462
0.583464
0.583465
0.583465
0.583467
0.583469
0.58347
0.583472
0.583472
0.583474
0.583475
0.583477
0.583479
0.583479
0.583481
0.583482
0.583484
0.583486
0.583486
0.583487
0.583489
0.583491
0.583492
0.583492
0.583494
0.583496
0.583498
0.583499
0.583499
0.583501
0.583503
0.583504
0.583506
0.583506
0.583508
0.58351
0.583511
0.583513
0.583513
0.583515
0.583517
0.583518
0.58352
0.58352
0.583522
0.583524
0.583525
0.583527
0.583527
0.583529
0.583531
0.583532
0.583534
0.583534
0.583536
0.583538
0.58354
0.583541
0.583541
0.583543
0.583545
0.583547
0.583548
0.583548
0.58355
0.583552
0.583554
0.583556
0.583556
0.583557
0.583559
0.583561
0.583563
0.583563
0.583565
0.583566
0.583568
0.58357
0.58357
0.583572
0.583574
0.583575
0.583577
0.583577
0.583579
0.583581
0.583583
0.583585
0.583585
0.583586
0.583588
0.58359
0.583592
0.583592
0.583594
0.583596
0.583597
0.583599
0.583599
0.583601
0.583603
0.583605
0.583607
0.583607
0.583608
0.58361
0.583612
0.583614
0.583614
0.583616
0.583618
0.58362
0.583622
0.583622
0.583623
0.583625
0.583627
0.583629
0.583629
0.583631
0.583633
0.583635
0.583637
0.583637
0.583638
0.58364
0.583642
0.583644
0.583644
0.583646
0.583648
0.58365
0.583652
0.583652
0.583654
0.583656
0.583657
0.583659
0.583659
0.583661
0.583663
0.583665
0.583667
0.583667
0.583669
0.583671
0.583673
0.583675
0.583675
0.583677
0.583679
0.583681
0.583683
0.583683
0.583685
0.583686
0.583688
0.58369
0.58369
0.583692
0.583694
0.583696
0.583698
0.583698
0.5837
0.583702
0.583704
0.583706
0.583706
0.583708
0.58371
0.583712
0.583714
0.583714
0.583716
0.583718
0.58372
0.583722
0.583722
0.583724
0.583726
0.583728
0.58373
0.58373
0.583732
0.583734
0.583736
0.583738
0.583738
0.58374
0.583742
0.583744
0.583746
0.583746
0.583748
0.58375
0.583752
0.583754
0.583754
0.583756
0.583758
0.58376
0.583762
0.583762
0.583764
0.583766
0.583768
0.58377
0.58377
0.583772
0.583774
0.583776
0.583779
0.583779
0.583781
0.583783
0.583785
0.583787
0.583787
0.583789
0.583791
0.583793
0.583795
0.583795
0.583797
0.583799
0.583801
0.583803
0.583803
0.583805
0.583808
0.58381
0.583812
0.583812
0.583814
0.583816
0.583818
0.58382
0.58382
0.583822
0.583824
0.583826
0.583829
0.583829
0.583831
0.583833
0.583835
0.583837
0.583837
0.583839
0.583841
0.583843
0.583845
0.583845
0.583848
0.58385
0.583852
0.583854
0.583854
0.583856
0.583858
0.58386
0.583863
0.583863
0.583865
0.583867
0.583869
0.583871
0.583871
0.583873
0.583875
0.583878
0.58388
0.58388
0.583882
0.583884
0.583886
0.583888
0.583888
0.583891
0.583893
0.583895
0.583897
0.583897
0.583899
0.583902
0.583904
0.583906
0.583906
0.583908
0.58391
0.583913
0.583915
0.583915
0.583917
0.583919
0.583921
0.583924
0.583924
0.583926
0.583928
0.58393
0.583932
0.583932
0.583935
0.583937
0.583939
0.583941
0.583941
0.583944
0.583946
0.583948
0.58395
0.58395
0.583953
0.583955
0.583957
0.583959
0.583959
0.583962
0.583964
0.583966
0.583968
0.583968
0.583971
0.583973
0.583975
0.583977
0.583977
0.58398
0.583982
0.583984
0.583987
0.583987
0.583989
0.583991
0.583993
0.583996
0.583996
0.583998
0.584
0.584003
0.584005
0.584005
0.584007
0.584009
0.584012
0.584014
0.584014
0.584016
0.584019
0.584021
0.584023
0.584023
0.584026
0.584028
0.58403
0.584033
0.584033
0.584035
0.584037
0.58404
0.584042
0.584042
0.584044
0.584047
0.584049
0.584051
0.584051
0.584054
0.584056
0.584058
0.584061
0.584061
0.584063
0.584065
0.584068
0.58407
0.58407
0.584072
0.584075
0.584077
0.58408
0.58408
0.584082
0.584084
0.584087
0.584089
0.584089
0.584092
0.584094
0.584096
0.584099
0.584099
0.584101
0.584103
0.584106
0.584108
0.584108
0.584111
0.584113
0.584116
0.584118
0.584118
0.58412
0.584123
0.584125
0.584128
0.584128
0.58413
0.584132
0.584135
0.584137
0.584137
0.58414
0.584142
0.584145
0.584147
0.584147
0.58415
0.584152
0.584154
0.584157
0.584157
0.584159
0.584162
0.584164
0.584167
0.584167
0.584169
0.584172
0.584174
0.584177
0.584177
0.584179
0.584182
0.584184
0.584187
0.584187
0.584189
0.584192
0.584194
0.584196
0.584196
0.584199
0.584201
0.584204
0.584206
0.584206
0.584209
0.584212
0.584214
0.584217
0.584217
0.584219
0.584222
0.584224
0.584227
0.584227
0.584229
0.584232
0.584234
0.584237
0.584237
0.584239
0.584242
0.584244
0.584247
0.584247
0.584249
0.584252
0.584255
0.584257
0.584257
0.58426
0.584262
0.584265
0.584267
0.584267
0.58427
0.584272
0.584275
0.584278
0.584278
0.58428
0.584283
0.584285
0.584288
0.584288
0.58429
0.584293
0.584296
0.584298
0.584298
0.584301
0.584303
0.584306
0.584309
0.584309
0.584311
0.584314
0.584316
0.584319
0.584319
0.584322
0.584324
0.584327
0.58433
0.58433
0.584332
0.584335
0.584337
0.58434
0.58434
0.584343
0.584345
0.584348
0.584351
0.584351
0.584353
0.584356
0.584359
0.584361
0.584361
0.584364
0.584367
0.584369
0.584372
0.584372
0.584375
0.584377
0.58438
0.584383
0.584383
0.584385
0.584388
0.584391
0.584393
0.584393
0.584396
0.584399
0.584401
0.584404
0.584404
0.584407
0.584409
0.584412
0.584415
0.584415
0.584418
0.58442
0.584423
0.584426
0.584426
0.584428
0.584431
0.584434
0.584437
0.584437
0.584439
0.584442
0.584445
0.584448
0.584448
0.58445
0.584453
0.584456
0.584458
0.584458
0.584461
0.584464
0.584467
0.58447
0.58447
0.584472
0.584475
0.584478
0.584481
0.584481
0.584483
0.584486
0.584489
0.584492
0.584492
0.584494
0.584497
0.5845
0.584503
0.584503
0.584506
0.584508
0.584511
0.584514
0.584514
0.584517
0.58452
0.584522
0.584525
0.584525
0.584528
0.584531
0.584534
0.584536
0.584536
0.584539
0.584542
0.584545
0.584548
0.584548
0.584551
0.584553
0.584556
0.584559
0.584559
0.584562
0.584565
0.584568
0.58457
0.58457
0.584573
0.584576
0.584579
0.584582
0.584582
0.584585
0.584588
0.584591
0.584593
0.584593
0.584596
0.584599
0.584602
0.584605
0.584605
0.584608
0.584611
0.584614
0.584616
0.584616
0.584619
0.584622
0.584625
0.584628
0.584628
0.584631
0.584634
0.584637
0.58464
0.58464
0.584643
0.584646
0.584648
0.584651
0.584651
0.584654
0.584657
0.58466
0.584663
0.584663
0.584666
0.584669
0.584672
0.584675
0.584675
0.584678
0.584681
0.584684
0.584687
0.584687
0.58469
0.584693
0.584696
0.584699
0.584699
0.584702
0.584705
0.584707
0.58471
0.58471
0.584713
0.584716
0.584719
0.584722
0.584722
0.584725
0.584728
0.584731
0.584734
0.584734
0.584737
0.58474
0.584743
0.584746
0.584746
0.584749
0.584752
0.584755
0.584758
0.584758
0.584762
0.584765
0.584768
0.584771
0.584771
0.584774
0.584777
0.58478
0.584783
0.584783
0.584786
0.584789
0.584792
0.584795
0.584795
0.584798
0.584801
0.584804
0.584807
0.584807
0.58481
0.584813
0.584816
0.58482
0.58482
0.584823
0.584826
0.584829
0.584832
0.584832
0.584835
0.584838
0.584841
0.584844
0.584844
0.584847
0.58485
0.584854
0.584857
0.584857
0.58486
0.584863
0.584866
0.584869
0.584869
0.584872
0.584875
0.584879
0.584882
0.584882
0.584885
0.584888
0.584891
0.584894
0.584894
0.584897
0.5849
0.584904
0.584907
0.584907
0.58491
0.584913
0.584916
0.584919
0.584919
0.584923
0.584926
0.584929
0.584932
0.584932
0.584935
0.584938
0.584942
0.584945
0.584945
0.584948
0.584951
0.584954
0.584958
0.584958
0.584961
0.584964
0.584967
0.58497
0.58497
0.584974
0.584977
0.58498
0.584983
0.584983
0.584987
0.58499
0.584993
0.584996
0.584996
0.584999
0.585003
0.585006
0.585009
0.585009
0.585012
0.585015
0.585018
0.585022
0.585022
0.585025
0.585028
0.585031
0.585035
0.585035
0.585038
0.585042
0.585045
0.585048
0.585048
0.585052
0.585055
0.585058
0.585061
0.585061
0.585065
0.585068
0.585071
0.585075
0.585075
0.585078
0.585081
0.585085
0.585088
0.585088
0.585091
0.585095
0.585098
0.585101
0.585101
0.585105
0.585108
0.585111
0.585115
0.585115
0.585118
0.585121
0.585125
0.585128
0.585128
0.585131
0.585135
0.585138
0.585141
0.585141
0.585145
0.585148
0.585151
0.585155
0.585155
0.585158
0.585162
0.585165
0.585168
0.585168
0.585172
0.585175
0.585178
0.585182
0.585182
0.585185
0.585189
0.585192
0.585195
0.585195
0.585199
0.585202
0.585206
0.585209
0.585209
0.585213
0.585216
0.585219
0.585223
0.585223
0.585226
0.58523
0.585233
0.585237
0.585237
0.58524
0.585243
0.585247
0.58525
0.58525
0.585254
0.585257
0.585261
0.585264
0.585264
0.585268
0.585271
0.585275
0.585278
0.585278
0.585282
0.585285
0.585289
0.585292
0.585292
0.585296
0.585299
0.585302
0.585306
0.585306
0.585309
0.585313
0.585317
0.58532
0.58532
0.585324
0.585327
0.585331
0.585334
0.585334
0.585338
0.585341
0.585345
0.585348
0.585348
0.585352
0.585355
0.585359
0.585362
0.585362
0.585366
0.585369
0.585373
0.585377
0.585377
0.58538
0.585384
0.585387
0.585391
0.585391
0.585394
0.585398
0.585402
0.585405
0.585405
0.585409
0.585412
0.585416
0.58542
0.58542
0.585423
0.585427
0.58543
0.585434
0.585434
0.585438
0.585441
0.585445
0.585448
0.585448
0.585452
0.585456
0.585459
0.585463
0.585463
0.585467
0.58547
0.585474
0.585477
0.585477
0.585481
0.585485
0.585488
0.585492
0.585492
0.585496
0.585499
0.585503
0.585507
0.585507
0.58551
0.585514
0.585518
0.585521
0.585521
0.585525
0.585529
0.585533
0.585536
0.585536
0.58554
0.585544
0.585547
0.585551
0.585551
0.585555
0.585558
0.585562
0.585566
0.585566
0.58557
0.585573
0.585577
0.585581
0.585581
0.585584
0.585588
0.585592
0.585596
0.585596
0.585599
0.585603
0.585607
0.585611
0.585611
0.585614
0.585618
0.585622
0.585626
0.585626
0.58563
0.585633
0.585637
0.585641
0.585641
0.585645
0.585648
0.585652
0.585656
0.585656
0.58566
0.585664
0.585667
0.585671
0.585671
0.585675
0.585679
0.585683
0.585686
0.585686
0.58569
0.585694
0.585698
0.585702
0.585702
0.585706
0.585709
0.585713
0.585717
0.585717
0.585721
0.585725
0.585729
0.585732
0.585732
0.585736
0.58574
0.585744
0.585748
0.585748
0.585752
0.585756
0.58576
0.585763
0.585763
0.585767
0.585771
0.585775
0.585779
0.585779
0.585783
0.585787
0.585791
0.585795
0.585795
0.585798
0.585802
0.585806
0.58581
0.58581
0.585814
0.585818
0.585822
0.585826
0.585826
0.58583
0.585834
0.585838
0.585842
0.585842
0.585846
0.58585
0.585854
0.585857
0.585857
0.585861
0.585865
0.585869
0.585873
0.585873
0.585877
0.585881
0.585885
0.585889
0.585889
0.585893
0.585897
0.585901
0.585905
0.585905
0.585909
0.585913
0.585917
0.585921
0.585921
0.585925
0.585929
0.585933
0.585937
0.585937
0.585941
0.585945
0.585949
0.585953
0.585953
0.585957
0.585961
0.585966
0.58597
0.58597
0.585974
0.585978
0.585982
0.585986
0.585986
0.58599
0.585994
0.585998
0.586002
0.586002
0.586006
0.58601
0.586014
0.586018
0.586018
0.586022
0.586027
0.586031
0.586035
0.586035
0.586039
0.586043
0.586047
0.586051
0.586051
0.586055
0.586059
0.586064
0.586068
0.586068
0.586072
0.586076
0.58608
0.586084
0.586084
0.586088
0.586093
0.586097
0.586101
0.586101
0.586105
0.586109
0.586113
0.586117
0.586117
0.586122
0.586126
0.58613
0.586134
0.586134
0.586138
0.586143
0.586147
0.586151
0.586151
0.586155
0.586159
0.586164
0.586168
0.586168
0.586172
0.586176
0.58618
0.586185
0.586185
0.586189
0.586193
0.586197
0.586201
0.586201
0.586206
0.58621
0.586214
0.586218
0.586218
0.586223
0.586227
0.586231
0.586235
0.586235
0.58624
0.586244
0.586248
0.586253
0.586253
0.586257
0.586261
0.586265
0.58627
0.58627
0.586274
0.586278
0.586283
0.586287
0.586287
0.586291
0.586295
0.5863
0.586304
0.586304
0.586308
0.586313
0.586317
0.586321
0.586321
0.586326
0.58633
0.586334
0.586339
0.586339
0.586343
0.586347
0.586352
0.586356
0.586356
0.586361
0.586365
0.586369
0.586374
0.586374
0.586378
0.586382
0.586387
0.586391
0.586391
0.586396
0.5864
0.586404
0.586409
0.586409
0.586413
0.586417
0.586422
0.586426
0.586426
0.586431
0.586435
0.58644
0.586444
0.586444
0.586448
0.586453
0.586457
0.586462
0.586462
0.586466
0.586471
0.586475
0.58648
0.58648
0.586484
0.586488
0.586493
0.586497
0.586497
0.586502
0.586506
0.586511
0.586515
0.586515
0.58652
0.586524
0.586529
0.586533
0.586533
0.586538
0.586542
0.586547
0.586551
0.586551
0.586556
0.58656
0.586565
0.586569
0.586569
0.586574
0.586578
0.586583
0.586587
0.586587
0.586592
0.586597
0.586601
0.586606
0.586606
0.58661
0.586615
0.586619
0.586624
0.586624
0.586628
0.586633
0.586638
0.586642
0.586642
0.586647
0.586651
0.586656
0.586661
0.586661
0.586665
0.58667
0.586674
0.586679
0.586679
0.586684
0.586688
0.586693
0.586697
0.586697
0.586702
0.586707
0.586711
0.586716
0.586716
0.586721
0.586725
0.58673
0.586735
0.586735
0.586739
0.586744
0.586749
0.586753
0.586753
0.586758
0.586763
0.586767
0.586772
0.586772
0.586777
0.586781
0.586786
0.586791
0.586791
0.586795
0.5868
0.586805
0.58681
0.58681
0.586814
0.586819
0.586824
0.586828
0.586828
0.586833
0.586838
0.586843
0.586847
0.586847
0.586852
0.586857
0.586862
0.586866
0.586866
0.586871
0.586876
0.586881
0.586885
0.586885
0.58689
0.586895
0.586899
0.586904
0.586904
0.586909
0.586913
0.586918
0.586923
0.586923
0.586928
0.586933
0.586937
0.586942
0.586942
0.586947
0.586952
0.586957
0.586962
0.586962
0.586967
0.586972
0.586977
0.586982
0.586982
0.586986
0.586991
0.586996
0.587001
0.587001
0.587006
0.587011
0.587016
0.587021
0.587021
0.587025
0.58703
0.587035
0.58704
0.58704
0.587045
0.58705
0.587055
0.58706
0.58706
0.587065
0.587069
0.587074
0.587079
0.587079
0.587084
0.587089
0.587094
0.587099
0.587099
0.587104
0.587109
0.587114
0.587119
0.587119
0.587124
0.587129
0.587134
0.587139
0.587139
0.587144
0.587149
0.587154
0.587159
0.587159
0.587164
0.587169
0.587174
0.587179
0.587179
0.587184
0.587189
0.587194
0.587199
0.587199
0.587204
0.587209
0.587214
0.587219
0.587219
0.587224
0.587229
0.587234
0.587239
0.587239
0.587244
0.587249
0.587254
0.587259
0.587259
0.587264
0.587269
0.587274
0.587279
0.587279
0.587284
0.587289
0.587295
0.5873
0.5873
0.587305
0.58731
0.587315
0.58732
0.58732
0.587325
0.58733
0.587335
0.58734
0.58734
0.587346
0.587351
0.587356
0.587361
0.587361
0.587366
0.587371
0.587376
0.587382
0.587382
0.587387
0.587392
0.587397
0.587402
0.587402
0.587407
0.587413
0.587418
0.587423
0.587423
0.587428
0.587433
0.587439
0.587444
0.587444
0.587449
0.587454
0.587459
0.587465
0.587465
0.58747
0.587475
0.58748
0.587485
0.587485
0.587491
0.587496
0.587501
0.587506
0.587506
0.587512
0.587517
0.587522
0.587527
0.587527
0.587533
0.587538
0.587543
0.587549
0.587549
0.587554
0.587559
0.587564
0.58757
0.58757
0.587575
0.58758
0.587586
0.587591
0.587591
0.587596
0.587602
0.587607
0.587612
0.587612
0.587618
0.587623
0.587628
0.587634
0.587634
0.587639
0.587644
0.58765
0.587655
0.587655
0.58766
0.587666
0.587671
0.587677
0.587677
0.587682
0.587687
0.587693
0.587698
0.587698
0.587704
0.587709
0.587714
0.58772
0.58772
0.587725
0.587731
0.587736
0.587741
0.587741
0.587747
0.587752
0.587758
0.587763
0.587763
0.587769
0.587774
0.58778
0.587785
0.587785
0.58779
0.587796
0.587801
0.587807
0.587807
0.587812
0.587818
0.587823
0.587829
0.587829
0.587834
0.58784
0.587845
0.587851
0.587851
0.587856
0.587862
0.587867
0.587873
0.587873
0.587878
0.587884
0.58789
0.587895
0.587895
0.587901
0.587906
0.587912
0.587917
0.587917
0.587923
0.587928
0.587934
0.58794
0.58794
0.587945
0.587951
0.587956
0.587962
0.587962
0.587968
0.587973
0.587979
0.587984
0.587984
0.58799
0.587996
0.588001
0.588007
0.588007
0.588012
0.588018
0.588024
0.588029
0.588029
0.588035
0.588041
0.588046
0.588052
0.588052
0.588058
0.588063
0.588069
0.588075
0.588075
0.58808
0.588086
0.588092
0.588098
0.588098
0.588103
0.588109
0.588115
0.58812
0.58812
0.588126
0.588132
0.588138
0.588143
0.588143
0.588149
0.588155
0.58816
0.588166
0.588166
0.588172
0.588178
0.588183
0.588189
0.588189
0.588195
0.588201
0.588207
0.588212
0.588212
0.588218
0.588224
0.58823
0.588236
0.588236
0.588241
0.588247
0.588253
0.588259
0.588259
0.588265
0.58827
0.588276
0.588282
0.588282
0.588288
0.588294
0.5883
0.588306
0.588306
0.588311
0.588317
0.588323
0.588329
0.588329
0.588335
0.588341
0.588347
0.588353
0.588353
0.588358
0.588364
0.58837
0.588376
0.588376
0.588382
0.588388
0.588394
0.5884
0.5884
0.588406
0.588412
0.588418
0.588424
0.588424
0.58843
0.588435
0.588441
0.588447
0.588447
0.588453
0.588459
0.588465
0.588471
0.588471
0.588477
0.588483
0.588489
0.588495
0.588495
0.588501
0.588507
0.588513
0.588519
0.588519
0.588525
0.588531
0.588537
0.588543
0.588543
0.588549
0.588555
0.588562
0.588568
0.588568
0.588574
0.58858
0.588586
0.588592
0.588592
0.588598
0.588604
0.58861
0.588616
0.588616
0.588622
0.588628
0.588634
0.588641
0.588641
0.588647
0.588653
0.588659
0.588665
0.588665
0.588671
0.588677
0.588683
0.58869
0.58869
0.588696
0.588702
0.588708
0.588714
0.588714
0.58872
0.588727
0.588733
0.588739
0.588739
0.588745
0.588751
0.588757
0.588764
0.588764
0.58877
0.588776
0.588782
0.588788
0.588788
0.588795
0.588801
0.588807
0.588813
0.588813
0.58882
0.588826
0.588832
0.588838
0.588838
0.588845
0.588851
0.588857
0.588863
0.588863
0.58887
0.588876
0.588882
0.588889
0.588889
0.588895
0.588901
0.588908
0.588914
0.588914
0.58892
0.588926
0.588933
0.588939
0.588939
0.588945
0.588952
0.588958
0.588965
0.588965
0.588971
0.588977
0.588984
0.58899
0.58899
0.588996
0.589003
0.589009
0.589015
0.589015
0.589022
0.589028
0.589034
0.589041
0.589041
0.589047
0.589053
0.58906
0.589066
0.589066
0.589072
0.589079
0.589085
0.589092
0.589092
0.589099
0.589105
0.589112
0.589118
0.589118
0.589125
0.589131
0.589138
0.589144
0.589144
0.589151
0.589157
0.589164
0.58917
0.58917
0.589177
0.589183
0.58919
0.589196
0.589196
0.589203
0.589209
0.589216
0.589222
0.589222
0.589229
0.589236
0.589242
0.589249
0.589249
0.589255
0.589262
0.589268
0.589275
0.589275
0.589282
0.589288
0.589295
0.589301
0.589301
0.589308
0.589315
0.589321
0.589328
0.589328
0.589334
0.589341
0.589348
0.589354
0.589354
0.589361
0.589368
0.589374
0.589381
0.589381
0.589388
0.589394
0.589401
0.589408
0.589408
0.589414
0.589421
0.589428
0.589434
0.589434
0.589441
0.589448
0.589455
0.589461
0.589461
0.589468
0.589475
0.589482
0.589488
0.589488
0.589495
0.589502
0.589509
0.589515
0.589515
0.589522
0.589529
0.589536
0.589542
0.589542
0.589549
0.589556
0.589563
0.58957
0.58957
0.589576
0.589583
0.58959
0.589597
0.589597
0.589604
0.589611
0.589617
0.589624
0.589624
0.589631
0.589638
0.589645
0.589652
0.589652
0.589658
0.589665
0.589672
0.589679
0.589679
0.589686
0.589693
0.5897
0.589707
0.589707
0.589714
0.589721
0.589727
0.589734
0.589734
0.589741
0.589748
0.589755
0.589762
0.589762
0.589769
0.589776
0.589783
0.58979
0.58979
0.589797
0.589804
0.589811
0.589818
0.589818
0.589825
0.589832
0.589839
0.589846
0.589846
0.589853
0.58986
0.589867
0.589874
0.589874
0.589881
0.589888
0.589895
0.589902
0.589902
0.589909
0.589916
0.589923
0.58993
0.58993
0.589938
0.589945
0.589952
0.589959
0.589959
0.589966
0.589973
0.58998
0.589987
0.589987
0.589994
0.590001
0.590009
0.590016
0.590016
0.590023
0.59003
0.590037
0.590044
0.590044
0.590052
0.590059
0.590066
0.590073
0.590073
0.59008
0.590087
0.590095
0.590102
0.590102
0.590109
0.590116
0.590123
0.590131
0.590131
0.590138
0.590145
0.590152
0.59016
0.59016
0.590167
0.590174
0.590181
0.590189
0.590189
0.590196
0.590203
0.59021
0.590218
0.590218
0.590225
0.590232
0.59024
0.590247
0.590247
0.590254
0.590262
0.590269
0.590276
0.590276
0.590284
0.590291
0.590298
0.590306
0.590306
0.590313
0.59032
0.590328
0.590335
0.590335
0.590342
0.59035
0.590357
0.590365
0.590365
0.590372
0.590379
0.590387
0.590394
0.590394
0.590402
0.590409
0.590417
0.590424
0.590424
0.590431
0.590439
0.590446
0.590454
0.590454
0.590461
0.590469
0.590476
0.590484
0.590484
0.590491
0.590499
0.590506
0.590514
0.590514
0.590521
0.590529
0.590536
0.590544
0.590544
0.590551
0.590559
0.590566
0.590574
0.590574
0.590582
0.590589
0.590597
0.590604
0.590604
0.590612
0.590619
0.590627
0.590635
0.590635
0.590642
0.59065
0.590657
0.590665
0.590665
0.590673
0.59068
0.590688
0.590696
0.590696
0.590703
0.590711
0.590719
0.590726
0.590726
0.590734
0.590742
0.590749
0.590757
0.590757
0.590765
0.590772
0.59078
0.590788
0.590788
0.590796
0.590803
0.590811
0.590819
0.590819
0.590826
0.590834
0.590842
0.59085
0.59085
0.590857
0.590865
0.590873
0.590881
0.590881
0.590889
0.590896
0.590904
0.590912
0.590912
0.59092
0.590928
0.590935
0.590943
0.590943
0.590951
0.590959
0.590967
0.590975
0.590975
0.590983
0.59099
0.590998
0.591006
0.591006
0.591014
0.591022
0.59103
0.591038
0.591038
0.591046
0.591054
0.591061
0.591069
0.591069
0.591077
0.591085
0.591093
0.591101
0.591101
0.591109
0.591117
0.591125
0.591133
0.591133
0.591141
0.591149
0.591157
0.591165
0.591165
0.591173
0.591181
0.591189
0.591197
0.591197
0.591205
0.591213
0.591221
0.591229
0.591229
0.591237
0.591245
0.591253
0.591261
0.591261
0.591269
0.591277
0.591286
0.591294
0.591294
0.591302
0.59131
0.591318
0.591326
0.591326
0.591334
0.591342
0.59135
0.591359
0.591359
0.591367
0.591375
0.591383
0.591391
0.591391
0.591399
0.591407
0.591416
0.591424
0.591424
0.591432
0.59144
0.591448
0.591456
0.591456
0.591464
0.591472
0.59148
0.591488
0.591488
0.591497