<?xml version="1.0"?>
<VTKFile type="UnstructuredGrid" version="0.1" byte_order="LittleEndian">
<UnstructuredGrid>
<Piece NumberOfPoints="5000" NumberOfCells="4000">
<PointData Scalars="Reaction 0">
<DataArray type="Float32" Name="Reaction 0" format="ascii">
0.543396
0.543396
0.543396
0.543396
0.543396
0.543396
0.543397
0.543397
0.543397
0.543398
0.543398
0.543398
0.543399
0.543399
0.5434
0.5434
0.5434
0.543401
0.543402
0.543403
0.543403
0.543404
0.543405
0.543406
0.543407
0.543407
0.543408
0.543409
0.54341
0.543412
0.543412
0.543413
0.543414
0.543416
0.543417
0.543417
0.543419
0.54342
0.543422
0.543424
0.543424
0.543426
0.543427
0.543429
0.543431
0.543431
0.543433
0.543435
0.543437
0.54344
0.54344
0.543442
0.543444
0.543446
0.543449
0.543449
0.543451
0.543454
0.543456
0.543459
0.543459
0.543462
0.543464
0.543467
0.54347
0.54347
0.543473
0.543476
0.543479
0.543482
0.543482
0.543485
0.543488
0.543491
0.543494
0.543494
0.543498
0.543501
0.543504
0.543508
0.543508
0.543511
0.543515
0.543519
0.543522
0.543522
0.543526
0.54353
0.543534
0.543538
0.543538
0.543542
0.543546
0.54355
0.543554
0.543554
0.543558
0.543562
0.543567
0.543571
0.543571
0.543575
0.54358
0.543584
0.543589
0.543589
0.543594
0.543598
0.543603
0.543608
0.543608
0.543613
0.543618
0.543623
0.543628
0.543628
0.543633
0.543638
0.543643
0.543648
0.543648
0.543653
0.543659
0.543664
0.54367
0.54367
0.543675
0.543681
0.543686
0.543692
0.543692
0.543698
0.543703
0.543709
0.543715
0.543715
0.543721
0.543727
0.543733
0.543739
0.543739
0.543745
0.543752
0.543758
0.543764
0.543764
0.543771
0.543777
0.543784
0.54379
0.54379
0.543797
0.543803
0.54381
0.543817
0.543817
0.543824
0.543831
0.543837
0.543844
0.543844
0.543851
0.543859
0.543866
0.543873
0.543873
0.54388
0.543888
0.543895
0.543902
0.543902
0.54391
0.543917
0.543925
0.543933
0.543933
0.54394
0.543948
0.543956
0.543964
0.543964
0.543972
0.54398
0.543988
0.543996
0.543996
0.544004
0.544012
0.54402
0.544029
0.544029
0.544037
0.544045
0.544054
0.544062
0.544062
0.544071
0.54408
0.544088
0.544097
0.544097
0.544106
0.544115
0.544124
0.544133
0.544133
0.544142
0.544151
0.54416
0.544169
0.544169
0.544178
0.544188
0.544197
0.544206
0.544206
0.544216
0.544225
0.544235
0.544244
0.544244
0.544254
0.544264
0.544274
0.544284
0.544284
0.544293
0.544303
0.544313
0.544323
0.544323
0.544334
0.544344
0.544354
0.544364
0.544364
0.544375
0.544385
0.544395
0.544406
0.544406
0.544417
0.544427
0.544438
0.544449
0.544449
0.544459
0.54447
0.544481
0.544492
0.544492
0.544503
0.544514
0.544525
0.544536
0.544536
0.544548
0.544559
0.54457
0.544582
0.544582
0.544593
0.544605
0.544616
0.544628
0.544628
0.544639
0.544651
0.544663
0.544675
0.544675
0.544687
0.544699
0.544711
0.544723
0.544723
0.544735
0.544747
0.544759
0.544771
0.544771
0.544784
0.544796
0.544809
0.544821
0.544821
0.544834
0.544846
0.544859
0.544872
0.544872
0.544884
0.544897
0.54491
0.544923
0.544923
0.544936
0.544949
0.544962
0.544975
0.544975
0.544989
0.545002
0.545015
0.545029
0.545029
0.545042
0.545056
0.545069
0.545083
0.545083
0.545096
0.54511
0.545124
0.545138
0.545138
0.545152
0.545166
0.54518
0.545194
0.545194
0.545208
0.545222
0.545236
0.54525
0.54525
0.545265
0.545279
0.545294
0.545308
0.545308
0.545323
0.545337
0.545352
0.545367
0.545367
0.545381
0.545396
0.545411
0.545426
0.545426
0.545441
0.545456
0.545471
0.545486
0.545486
0.545502
0.545517
0.545532
0.545548
0.545548
0.545563
0.545579
0.545594
0.54561
0.54561
0.545625
0.545641
0.545657
0.545673
0.545673
0.545689
0.545705
0.545721
0.545737
0.545737
0.545753
0.545769
0.545785
0.545801
0.545801
0.545818
0.545834
0.545851
0.545867
0.545867
0.545884
0.5459
0.545917
0.545934
0.545934
0.54595
0.545967
0.545984
0.546001
0.546001
0.546018
0.546035
0.546052
0.54607
0.54607
0.546087
0.546104
0.546121
0.546139
0.546139
0.546156
0.546174
0.546191
0.546209
0.546209
0.546227
0.546244
0.546262
0.54628
0.54628
0.546298
0.546316
0.546334
0.546352
0.546352
0.54637
0.546388
0.546406
0.546425
0.546425
0.546443
0.546462
0.54648
0.546499
0.546499
0.546517
0.546536
0.546554
0.546573
0.546573
0.546592
0.546611
0.54663
0.546649
0.546649
0.546668
0.546687
0.546706
0.546725
0.546725
0.546744
0.546764
0.546783
0.546802
0.546802
0.546822
0.546842
0.546861
0.546881
0.546881
0.5469
0.54692
0.54694
0.54696
0.54696
0.54698
0.547
0.54702
0.54704
0.54704
0.54706
0.54708
0.547101
0.547121
0.547121
0.547141
0.547162
0.547182
0.547203
0.547203
0.547223
0.547244
0.547265
0.547285
0.547285
0.547306
0.547327
0.547348
0.547369
0.547369
0.54739
0.547411
0.547432
0.547454
0.547454
0.547475
0.547496
0.547518
0.547539
0.547539
0.547561
0.547582
0.547604
0.547626
0.547626
0.547647
0.547669
0.547691
0.547713
0.547713
0.547735
0.547757
0.547779
0.547801
0.547801
0.547823
0.547845
0.547868
0.54789
0.54789
0.547913
0.547935
0.547958
0.54798
0.54798
0.548003
0.548026
0.548048
0.548071
0.548071
0.548094
0.548117
0.54814
0.548163
0.548163
0.548186
0.548209
0.548232
0.548256
0.548256
0.548279
0.548302
0.548326
0.548349
0.548349
0.548373
0.548396
0.54842
0.548444
0.548444
0.548468
0.548492
0.548515
0.548539
0.548539
0.548563
0.548587
0.548612
0.548636
0.548636
0.54866
0.548684
0.548709
0.548733
0.548733
0.548758
0.548782
0.548807
0.548831
0.548831
0.548856
0.548881
0.548906
0.54893
0.54893
0.548955
0.54898
0.549005
0.549031
0.549031
0.549056
0.549081
0.549106
0.549131
0.549131
0.549157
0.549182
0.549208
0.549233
0.549233
0.549259
0.549285
0.54931
0.549336
0.549336
0.549362
0.549388
0.549414
0.54944
0.54944
0.549466
0.549492
0.549518
0.549545
0.549545
0.549571
0.549597
0.549624
0.54965
0.54965
0.549677
0.549703
0.54973
0.549757
0.549757
0.549783
0.54981
0.549837
0.549864
0.549864
0.549891
0.549918
0.549945
0.549972
0.549972
0.55
0.550027
0.550054
0.550082
0.550082
0.550109
0.550137
0.550164
0.550192
0.550192
0.55022
0.550247
0.550275
0.550303
0.550303
0.550331
0.550359
0.550387
0.550415
0.550415
0.550443
0.550471
0.5505
0.550528
0.550528
0.550556
0.550585
0.550613
0.550642
0.550642
0.550671
0.550699
0.550728
0.550757
0.550757
0.550786
0.550815
0.550844
0.550873
0.550873
0.550902
0.550931
0.55096
0.550989
0.550989
0.551019
0.551048
0.551077
0.551107
0.551107
0.551136
0.551166
0.551196
0.551225
0.551225
0.551255
0.551285
0.551315
0.551345
0.551345
0.551375
0.551405
0.551435
0.551465
0.551465
0.551496
0.551526
0.551556
0.551587
0.551587
0.551617
0.551648
0.551678
0.551709
0.551709
0.55174
0.551771
0.551801
0.551832
0.551832
0.551863
0.551894
0.551925
0.551956
0.551956
0.551988
0.552019
0.55205
0.552082
0.552082
0.552113
0.552145
0.552176
0.552208
0.552208
0.552239
0.552271
0.552303
0.552335
0.552335
0.552367
0.552399
0.552431
0.552463
0.552463
0.552495
0.552527
0.552559
0.552592
0.552592
0.552624
0.552656
0.552689
0.552721
0.552721
0.552754
0.552787
0.552819
0.552852
0.552852
0.552885
0.552918
0.552951
0.552984
0.552984
0.553017
0.55305
0.553083
0.553117
0.553117
0.55315
0.553183
0.553217
0.55325
0.55325
0.553284
0.553317
0.553351
0.553385
0.553385
0.553419
0.553452
0.553486
0.55352
0.55352
0.553554
0.553588
0.553623
0.553657
0.553657
0.553691
0.553725
0.55376
0.553794
0.553794
0.553829
0.553863
0.553898
0.553933
0.553933
0.553967
0.554002
0.554037
0.554072
0.554072
0.554107
0.554142
0.554177
0.554212
0.554212
0.554247
0.554283
0.554318
0.554353
0.554353
0.554389
0.554424
0.55446
0.554496
0.554496
0.554531
0.554567
0.554603
0.554639
0.554639
0.554675
0.554711
0.554747
0.554783
0.554783
0.554819
0.554855
0.554892
0.554928
0.554928
0.554965
0.555001
0.555038
0.555074
0.555074
0.555111
0.555148
0.555184
0.555221
0.555221
0.555258
0.555295
0.555332
0.555369
0.555369
0.555406
0.555444
0.555481
0.555518
0.555518
0.555556
0.555593
0.55563
0.555668
0.555668
0.555706
0.555743
0.555781
0.555819
0.555819
0.555857
0.555895
0.555933
0.555971
0.555971
0.556009
0.556047
0.556085
0.556124
0.556124
0.556162
0.5562
0.556239
0.556277
0.556277
0.556316
0.556355
0.556393
0.556432
0.556432
0.556471
0.55651
0.556549
0.556588
0.556588
0.556627
0.556666
0.556705
0.556745
0.556745
0.556784
0.556823
0.556863
0.556902
0.556902
0.556942
0.556982
0.557021
0.557061
0.557061
0.557101
0.557141
0.557181
0.557221
0.557221
0.557261
0.557301
0.557341
0.557381
0.557381
0.557422
0.557462
0.557503
0.557543
0.557543
0.557584
0.557624
0.557665
0.557706
0.557706
0.557746
0.557787
0.557828
0.557869
0.557869
0.55791
0.557951
0.557993
0.558034
0.558034
0.558075
0.558116
0.558158
0.558199
0.558199
0.558241
0.558283
0.558324
0.558366
0.558366
0.558408
0.55845
0.558491
0.558533
0.558533
0.558575
0.558618
0.55866
0.558702
0.558702
0.558744
0.558787
0.558829
0.558872
0.558872
0.558914
0.558957
0.558999
0.559042
0.559042
0.559085
0.559128
0.559171
0.559214
0.559214
0.559257
0.5593
0.559343
0.559386
0.559386
0.559429
0.559473
0.559516
0.559559
0.559559
0.559603
0.559646
0.559689
0.559732
0.559732
0.559776
0.559818
0.559859
0.559899
0.559899
0.559937
0.559969
0.559994
0.560014
0.560014
0.560025
0.560036
0.560045
0.560054
0.560054
0.560064
0.560073
0.560082
0.560091
0.560091
0.560101
0.56011
0.560119
0.560128
0.560128
0.560138
0.560147
0.560156
0.560166
0.560166
0.560175
0.560184
0.560194
0.560203
0.560203
0.560213
0.560222
0.560231
0.560241
0.560241
0.56025
0.56026
0.560269
0.560279
0.560279
0.560288
0.560298
0.560307
0.560317
0.560317
0.560327
0.560336
0.560346
0.560355
0.560355
0.560365
0.560375
0.560384
0.560394
0.560394
0.560404
0.560413
0.560423
0.560433
0.560433
0.560442
0.560452
0.560462
0.560472
0.560472
0.560481
0.560491
0.560501
0.560511
0.560511
0.560521
0.560531
0.56054
0.56055
0.56055
0.56056
0.56057
0.56058
0.56059
0.56059
0.5606
0.56061
0.56062
0.56063
0.56063
0.56064
0.56065
0.56066
0.56067
0.56067
0.56068
0.56069
0.5607
0.56071
0.56071
0.56072
0.56073
0.56074
0.56075
0.56075
0.560761
0.560771
0.560781
0.560791
0.560791
0.560801
0.560811
0.560822
0.560832
0.560832
0.560842
0.560852
0.560863
0.560873
0.560873
0.560883
0.560894
0.560904
0.560914
0.560914
0.560925
0.560935
0.560945
0.560956
0.560956
0.560966
0.560976
0.560987
0.560997
0.560997
0.561008
0.561018
0.561029
0.561039
0.561039
0.56105
0.56106
0.561071
0.561081
0.561081
0.561092
0.561102
0.561113
0.561124
0.561124
0.561134
0.561145
0.561155
0.561166
0.561166
0.561177
0.561187
0.561198
0.561209
0.561209
0.561219
0.56123
0.561241
0.561251
0.561251
0.561262
0.561273
0.561284
0.561295
0.561295
0.561305
0.561316
0.561327
0.561338
0.561338
0.561349
0.56136
0.56137
0.561381
0.561381
0.561392
0.561403
0.561414
0.561425
0.561425
0.561436
0.561447
0.561458
0.561469
0.561469
0.56148
0.561491
0.561502
0.561513
0.561513
0.561524
0.561535
0.561546
0.561557
0.561557
0.561568
0.561579
0.56159
0.561601
0.561601
0.561613
0.561624
0.561635
0.561646
0.561646
0.561657
0.561668
0.56168
0.561691
0.561691
0.561702
0.561713
0.561725
0.561736
0.561736
0.561747
0.561758
0.56177
0.561781
0.561781
0.561792
0.561804
0.561815
0.561827
0.561827
0.561838
0.561849
0.561861
0.561872
0.561872
0.561884
0.561895
0.561906
0.561918
0.561918
0.561929
0.561941
0.561952
0.561964
0.561964
0.561975
0.561987
0.561998
0.56201
0.56201
0.562022
0.562033
0.562045
0.562056
0.562056
0.562068
0.56208
0.562091
0.562103
0.562103
0.562114
0.562126
0.562138
0.56215
0.56215
0.562161
0.562173
0.562185
0.562196
0.562196
0.562208
0.56222
0.562232
0.562244
0.562244
0.562255
0.562267
0.562279
0.562291
0.562291
0.562303
0.562314
0.562326
0.562338
0.562338
0.56235
0.562362
0.562374
0.562386
0.562386
0.562398
0.56241
0.562422
0.562434
0.562434
0.562446
0.562458
0.56247
0.562482
0.562482
0.562494
0.562506
0.562518
0.56253
0.56253
0.562542
0.562554
0.562566
0.562578
0.562578
0.56259
0.562602
0.562615
0.562627
0.562627
0.562639
0.562651
0.562663
0.562675
0.562675
0.562688
0.5627
0.562712
0.562724
0.562724
0.562737
0.562749
0.562761
0.562773
0.562773
0.562786
0.562798
0.56281
0.562823
0.562823
0.562835
0.562847
0.56286
0.562872
0.562872
0.562884
0.562897
0.562909
0.562922
0.562922
0.562934
0.562947
0.562959
0.562971
0.562971
0.562984
0.562996
0.563009
0.563021
0.563021
0.563034
0.563046
0.563059
0.563072
0.563072
0.563084
0.563097
0.563109
0.563122
0.563122
0.563134
0.563147
0.56316
0.563172
0.563172
0.563185
0.563198
0.56321
0.563223
0.563223
0.563236
0.563248
0.563261
0.563274
0.563274
0.563286
0.563299
0.563312
0.563325
0.563325
0.563338
0.56335
0.563363
0.563376
0.563376
0.563389
0.563402
0.563414
0.563427
0.563427
0.56344
0.563453
0.563466
0.563479
0.563479
0.563492
0.563504
0.563517
0.56353
0.56353
0.563543
0.563556
0.563569
0.563582
0.563582
0.563595
0.563608
0.563621
0.563634
0.563634
0.563647
0.56366
0.563673
0.563686
0.563686
0.563699
0.563712
0.563725
0.563739
0.563739
0.563752
0.563765
0.563778
0.563791
0.563791
0.563804
0.563817
0.56383
0.563844
0.563844
0.563857
0.56387
0.563883
0.563896
0.563896
0.56391
0.563923
0.563936
0.563949
0.563949
0.563963
0.563976
0.563989
0.564002
0.564002
0.564016
0.564029
0.564042
0.564056
0.564056
0.564069
0.564082
0.564096
0.564109
0.564109
0.564123
0.564136
0.564149
0.564163
0.564163
0.564176
0.56419
0.564203
0.564216
0.564216
0.56423
0.564243
0.564257
0.56427
0.56427
0.564284
0.564297
0.564311
0.564324
0.564324
0.564338
0.564352
0.564365
0.564379
0.564379
0.564392
0.564406
0.564419
0.564433
0.564433
0.564447
0.56446
0.564474
0.564487
0.564487
0.564501
0.564515
0.564528
0.564542
0.564542
0.564556
0.56457
0.564583
0.564597
0.564597
0.564611
0.564624
0.564638
0.564652
0.564652
0.564666
0.564679
0.564693
0.564707
0.564707
0.564721
0.564735
0.564748
0.564762
0.564762
0.564776
0.56479
0.564804
0.564818
0.564818
0.564831
0.564845
0.564859
0.564873
0.564873
0.564887
0.564901
0.564915
0.564929
0.564929
0.564943
0.564957
0.564971
0.564985
0.564985
0.564999
0.565013
0.565027
0.565041
0.565041
0.565055
0.565069
0.565083
0.565097
0.565097
0.565111
0.565125
0.565139
0.565153
0.565153
0.565167
0.565181
0.565195
0.565209
0.565209
0.565223
0.565238
0.565252
0.565266
0.565266
0.56528
0.565294
0.565308
0.565323
0.565323
0.565337
0.565351
0.565365
0.565379
0.565379
0.565394
0.565408
0.565422
0.565436
0.565436
0.565451
0.565465
0.565479
0.565493
0.565493
0.565508
0.565522
0.565536
0.565551
0.565551
0.565565
0.565579
0.565594
0.565608
0.565608
0.565622
0.565637
0.565651
0.565665
0.565665
0.56568
0.565694
0.565709
0.565723
0.565723
0.565737
0.565752
0.565766
0.565781
0.565781
0.565795
0.56581
0.565824
0.565839
0.565839
0.565853
0.565868
0.565882
0.565897
0.565897
0.565911
0.565926
0.56594
0.565955
0.565955
0.565969
0.565984
0.565998
0.566013
0.566013
0.566027
0.566042
0.566057
0.566071
0.566071
0.566086
0.5661
0.566115
0.56613
0.56613
0.566144
0.566159
0.566174
0.566188
0.566188
0.566203
0.566218
0.566232
0.566247
0.566247
0.566262
0.566276
0.566291
0.566306
0.566306
0.566321
0.566335
0.56635
0.566365
0.566365
0.56638
0.566394
0.566409
0.566424
0.566424
0.566439
0.566454
0.566468
0.566483
0.566483
0.566498
0.566513
0.566528
0.566542
0.566542
0.566557
0.566572
0.566587
0.566602
0.566602
0.566617
0.566632
0.566647
0.566661
0.566661
0.566676
0.566691
0.566706
0.566721
0.566721
0.566736
0.566751
0.566766
0.566781
0.566781
0.566796
0.566811
0.566826
0.566841
0.566841
0.566856
0.566871
0.566886
0.566901
0.566901
0.566916
0.566931
0.566946
0.566961
0.566961
0.566976
0.566991
0.567006
0.567021
0.567021
0.567036
0.567051
0.567066
0.567081
0.567081
0.567096
0.567112
0.567127
0.567142
0.567142
0.567157
0.567172
0.567187
0.567202
0.567202
0.567217
0.567233
0.567248
0.567263
0.567263
0.567278
0.567293
0.567308
0.567324
0.567324
0.567339
0.567354
0.567369
0.567384
0.567384
0.5674
0.567415
0.56743
0.567445
0.567445
0.567461
0.567476
0.567491
0.567506
0.567506
0.567522
0.567537
0.567552
0.567567
0.567567
0.567583
0.567598
0.567613
0.567629
0.567629
0.567644
0.567659
0.567675
0.56769
0.56769
0.567705
0.567721
0.567736
0.567751
0.567751
0.567767
0.567782
0.567798
0.567813
0.567813
0.567828
0.567844
0.567859
0.567874
0.567874
0.56789
0.567905
0.567921
0.567936
0.567936
0.567952
0.567967
0.567982
0.567998
0.567998
0.568013
0.568029
0.568044
0.56806
0.56806
0.568075
0.568091
0.568106
0.568122
0.568122
0.568137
0.568153
0.568168
0.568184
0.568184
0.568199
0.568215
0.56823
0.568246
0.568246
0.568261
0.568277
0.568292
0.568308
0.568308
0.568323
0.568339
0.568355
0.56837
0.56837
0.568386
0.568401
0.568417
0.568432
0.568432
0.568448
0.568464
0.568479
0.568495
0.568495
0.56851
0.568526
0.568542
0.568557
0.568557
0.568573
0.568589
0.568604
0.56862
0.56862
0.568636
0.568651
0.568667
0.568683
0.568683
0.568698
0.568714
0.56873
0.568745
0.568745
0.568761
0.568777
0.568792
0.568808
0.568808
0.568824
0.568839
0.568855
0.568871
0.568871
0.568887
0.568902
0.568918
0.568934
0.568934
0.568949
0.568965
0.568981
0.568997
0.568997
0.569012
0.569028
0.569044
0.56906
0.56906
0.569075
0.569091
0.569107
0.569123
0.569123
0.569138
0.569154
0.569169
0.569185
0.569185
0.5692
0.569214
0.569228
0.569241
0.569241
0.569251
0.569259
0.569265
0.569268
0.569268
0.569269
0.569271
0.569272
0.569273
0.569273
0.569273
0.569274
0.569275
0.569276
0.569276
0.569276
0.569277
0.569278
0.569279
0.569279
0.569279
0.56928
0.569281
0.569281
0.569281
0.569282
0.569283
0.569283
0.569284
0.569284
0.569285
0.569285
0.569286
0.569286
0.569286
0.569287
0.569288
0.569288
0.569289
0.569289
0.569289
0.56929
0.569291
0.569291
0.569291
0.569292
0.569292
0.569293
0.569293
0.569293
0.569294
0.569294
0.569295
0.569295
0.569295
0.569296
0.569296
0.569297
0.569297
0.569297
0.569297
0.569298
0.569298
0.569299
0.569299
0.569299
0.5693
0.5693
0.5693
0.5693
0.569301
0.569301
0.569301
0.569302
0.569302
0.569302
0.569303
0.569303
0.569303
0.569303
0.569304
0.569304
0.569304
0.569304
0.569304
0.569305
0.569305
0.569305
0.569306
0.569306
0.569306
0.569306
0.569306
0.569307
0.569307
0.569307
0.569307
0.569307
0.569307
0.569307
0.569308
0.569308
0.569308
0.569308
0.569308
0.569308
0.569309
0.569309
0.569309
0.569309
0.569309
0.569309
0.569309
0.569309
0.569309
0.56931
0.56931
0.56931
0.56931
0.56931
0.56931
0.56931
0.56931
0.56931
0.56931
0.56931
0.56931
0.56931
0.569311
0.569311
0.569311
0.569311
0.569311
0.569311
0.569311
0.569311
0.569311
0.569311
0.569311
0.569311
0.569311
0.569311
0.569311
0.569311
0.569311
0.569311
0.569311
0.56931
0.56931
0.56931
0.56931
0.56931
0.56931
0.56931
0.56931
0.56931
0.56931
0.56931
0.56931
0.56931
0.56931
0.56931
0.569309
0.569309
0.569309
0.569309
0.569309
0.569309
0.569309
0.569309
0.569309
0.569308
0.569308
0.569308
0.569308
0.569308
0.569308
0.569307
0.569307
0.569307
0.569307
0.569307
0.569307
0.569306
0.569306
0.569306
0.569306
0.569306
0.569305
0.569305
0.569305
0.569305
0.569305
0.569304
0.569304
0.569304
0.569304
0.569304
0.569303
0.569303
0.569303
0.569303
0.569302
0.569302
0.569302
0.569302
0.569301
0.569301
0.569301
0.569301
0.5693
0.5693
0.5693
0.569299
0.569299
0.569299
0.569299
0.569298
0.569298
0.569298
0.569298
0.569297
0.569297
0.569296
0.569296
0.569296
0.569296
0.569295
0.569295
0.569295
0.569294
0.569294
0.569294
0.569293
0.569293
0.569293
0.569292
0.569292
0.569291
0.569291
0.569291
0.56929
0.56929
0.569289
0.569289
0.569289
0.569289
0.569288
0.569288
0.569288
0.569287
0.569287
0.569286
0.569286
0.569286
0.569285
0.569285
0.569284
0.569283
0.569283
0.569283
0.569282
0.569282
0.569281
0.569281
0.569281
0.56928
0.56928
0.569279
0.569279
0.569279
0.569278
0.569277
0.569277
0.569277
0.569276
0.569276
0.569275
0.569274
0.569274
0.569274
0.569273
0.569273
0.569272
0.569272
0.569271
0.569271
0.56927
0.56927
0.56927
0.569269
0.569268
0.569268
0.569267
0.569267
0.569266
0.569266
0.569265
0.569264
0.569264
0.569264
0.569263
0.569262
0.569262
0.569262
0.569261
0.56926
0.56926
0.569259
0.569259
0.569258
0.569258
0.569257
0.569256
0.569256
0.569256
0.569255
0.569254
0.569253
0.569253
0.569253
0.569252
0.569251
0.569251
0.569251
0.56925
0.569249
0.569248
0.569248
0.569248
0.569247
0.569246
0.569245
0.569245
0.569245
0.569244
0.569243
0.569242
0.569242
0.569242
0.569241
0.56924
0.569239
0.569239
0.569239
0.569238
0.569237
0.569236
0.569235
0.569235
0.569235
0.569234
0.569233
0.569232
0.569232
0.569231
0.569231
0.56923
0.569229
0.569229
0.569228
0.569227
0.569227
0.569226
0.569226
0.569225
0.569224
0.569223
0.569223
0.569223
0.569222
0.569221
0.56922
0.569219
0.569219
0.569218
0.569218
0.569217
0.569216
0.569216
0.569215
0.569214
0.569213
0.569212
0.569212
0.569212
0.569211
0.56921
0.569209
0.569209
0.569208
0.569207
0.569206
0.569206
0.569206
0.569205
0.569204
0.569203
0.569202
0.569202
0.569201
0.5692
0.569199
0.569199
0.569199
0.569198
0.569197
0.569196
0.569195
0.569195
0.569194
0.569193
0.569192
0.569191
0.569191
0.56919
0.56919
0.569189
0.569188
0.569188
0.569187
0.569186
0.569185
0.569184
0.569184
0.569183
0.569182
0.569181
0.56918
0.56918
0.56918
0.569179
0.569178
0.569177
0.569177
0.569176
0.569175
0.569174
0.569173
0.569173
0.569172
0.569171
0.56917
0.569169
0.569169
0.569169
0.569168
0.569167
0.569166
0.569166
0.569165
0.569164
0.569163
0.569162
0.569162
0.569161
0.56916
0.569159
0.569158
0.569158
0.569157
0.569156
0.569155
0.569155
0.569155
0.569154
0.569153
0.569152
0.569151
0.569151
0.56915
0.569149
0.569148
0.569147
0.569147
0.569146
0.569145
0.569144
0.569143
0.569143
0.569142
0.569141
0.56914
0.569139
0.569139
0.569138
0.569138
0.569137
0.569136
0.569136
0.569135
0.569134
0.569133
0.569132
0.569132
0.569131
0.56913
0.569129
0.569128
0.569128
0.569127
0.569126
0.569125
0.569124
0.569124
0.569123
0.569122
0.569122
0.569121
0.569121
0.56912
0.569119
0.569118
0.569117
0.569117
0.569116
0.569115
0.569114
0.569113
0.569113
0.569112
0.569111
0.56911
0.569109
0.569109
0.569108
0.569107
0.569107
0.569106
0.569106
0.569105
0.569104
0.569103
0.569102
0.569102
0.569101
0.5691
0.569099
0.569098
0.569098
0.569097
0.569096
0.569095
0.569095
0.569095
0.569094
0.569093
0.569092
0.569091
0.569091
0.56909
0.569089
0.569088
0.569087
0.569087
0.569086
0.569085
0.569085
0.569084
0.569084
0.569083
0.569082
0.569081
0.56908
0.56908
0.569079
0.569078
0.569077
0.569076
0.569076
0.569076
0.569075
0.569074
0.569073
0.569073
0.569072
0.569071
0.56907
0.569069
0.569069
0.569069
0.569068
0.569067
0.569066
0.569066
0.569065
0.569064
0.569063
0.569062
0.569062
0.569061
0.56906
0.569059
0.569058
0.569058
0.569056
0.569055
0.569054
0.569053
0.569053
0.569052
0.56905
0.569049
0.569048
0.569048
0.569046
0.569045
0.569043
0.569042
0.569042
0.56904
0.569039
0.569037
0.569036
0.569036
0.569035
0.569033
0.569032
0.56903
0.56903
0.569029
0.569027
0.569026
0.569024
0.569024
0.569023
0.569022
0.56902
0.569019
0.569019
0.569017
0.569016
0.569014
0.569013
0.569013
0.569011
0.56901
0.569009
0.569007
0.569007
0.569006
0.569004
0.569003
0.569001
0.569001
0.569
0.568998
0.568997
0.568996
0.568996
0.568994
0.568993
0.568991
0.56899
0.56899
0.568988
0.568987
0.568986
0.568984
0.568984
0.568983
0.568981
0.56898
0.568978
0.568978
0.568977
0.568976
0.568974
0.568973
0.568973
0.568971
0.56897
0.568968
0.568967
0.568967
0.568965
0.568964
0.568963
0.568961
0.568961
0.56896
0.568958
0.568957
0.568955
0.568955
0.568954
0.568953
0.568951
0.56895
0.56895
0.568948
0.568947
0.568945
0.568944
0.568944
0.568943
0.568941
0.56894
0.568938
0.568938
0.568937
0.568936
0.568934
0.568933
0.568933
0.568931
0.56893
0.568928
0.568927
0.568927
0.568926
0.568924
0.568923
0.568921
0.568921
0.56892
0.568918
0.568917
0.568916
0.568916
0.568914
0.568913
0.568911
0.56891
0.56891
0.568909
0.568907
0.568906
0.568904
0.568904
0.568903
0.568901
0.5689
0.568899
0.568899
0.568897
0.568896
0.568894
0.568893
0.568893
0.568892
0.56889
0.568889
0.568887
0.568887
0.568886
0.568885
0.568883
0.568882
0.568882
0.56888
0.568879
0.568878
0.568876
0.568876
0.568875
0.568873
0.568872
0.56887
0.56887
0.568869
0.568868
0.568866
0.568865
0.568865
0.568863
0.568862
0.568861
0.568859
0.568859
0.568858
0.568856
0.568855
0.568854
0.568854
0.568852
0.568851
0.568849
0.568848
0.568848
0.568847
0.568845
0.568844
0.568843
0.568843
0.568841
0.56884
0.568838
0.568837
0.568837
0.568836
0.568834
0.568833
0.568831
0.568831
0.56883
0.568829
0.568827
0.568826
0.568826
0.568824
0.568823
0.568822
0.56882
0.56882
0.568819
0.568817
0.568816
0.568815
0.568815
0.568813
0.568812
0.568811
0.568809
0.568809
0.568808
0.568806
0.568805
0.568804
0.568804
0.568802
0.568801
0.5688
0.568798
0.568798
0.568797
0.568795
0.568794
0.568793
0.568793
0.568791
0.56879
0.568789
0.568787
0.568787
0.568786
0.568784
0.568783
0.568782
0.568782
0.56878
0.568779
0.568778
0.568776
0.568776
0.568775
0.568773
0.568772
0.568771
0.568771
0.568769
0.568768
0.568767
0.568765
0.568765
0.568764
0.568763
0.568761
0.56876
0.56876
0.568758
0.568757
0.568756
0.568754
0.568754
0.568753
0.568752
0.56875
0.568749
0.568749
0.568748
0.568746
0.568745
0.568744
0.568744
0.568742
0.568741
0.56874
0.568738
0.568738
0.568737
0.568735
0.568734
0.568733
0.568733
0.568731
0.56873
0.568729
0.568727
0.568727
0.568726
0.568725
0.568723
0.568722
0.568722
0.568721
0.568719
0.568718
0.568717
0.568717
0.568715
0.568714
0.568713
0.568711
0.568711
0.56871
0.568709
0.568707
0.568706
0.568706
0.568705
0.568703
0.568702
0.568701
0.568701
0.568699
0.568698
0.568697
0.568695
0.568695
0.568694
0.568693
0.568691
0.56869
0.56869
0.568689
0.568687
0.568686
0.568685
0.568685
0.568684
0.568682
0.568681
0.56868
0.56868
0.568678
0.568677
0.568676
0.568674
0.568674
0.568673
0.568672
0.56867
0.568669
0.568669
0.568668
0.568666
0.568665
0.568664
0.568664
0.568663
0.568661
0.56866
0.568659
0.568659
0.568657
0.568656
0.568655
0.568653
0.568653
0.568652
0.568651
0.56865
0.568648
0.568648
0.568647
0.568646
0.568644
0.568643
0.568643
0.568642
0.568641
0.568639
0.568638
0.568638
0.568637
0.568635
0.568634
0.568633
0.568633
0.568632
0.56863
0.568629
0.568628
0.568628
0.568626
0.568625
0.568624
0.568623
0.568623
0.568621
0.56862
0.568619
0.568618
0.568618
0.568616
0.568615
0.568614
0.568612
0.568612
0.568611
0.56861
0.568609
0.568607
0.568607
0.568606
0.568605
0.568604
0.568602
0.568602
0.568601
0.5686
0.568599
0.568597
0.568597
0.568596
0.568595
0.568594
0.568592
0.568592
0.568591
0.56859
0.568589
0.568587
0.568587
0.568586
0.568585
0.568584
0.568582
0.568582
0.568581
0.56858
0.568579
0.568577
0.568577
0.568576
0.568575
0.568574
0.568573
0.568573
0.568571
0.56857
0.568569
0.568568
0.568568
0.568566
0.568565
0.568564
0.568563
0.568563
0.568562
0.56856
0.568559
0.568558
0.568558
0.568557
0.568555
0.568554
0.568553
0.568553
0.568552
0.568551
0.568549
0.568548
0.568548
0.568547
0.568546
0.568545
0.568543
0.568543
0.568542
0.568541
0.56854
0.568539
0.568539
0.568538
0.568538
0.568538
0.568538
0.568538
0.568538
0.568538
0.568538
0.568538
0.568538
0.568538
0.568538
0.568538
0.568537
0.568537
0.568537
0.568537
0.568537
0.568537
0.568537
0.568537
0.568537
0.568537
0.568537
0.568537
0.568537
0.568537
0.568537
0.568537
0.568537
0.568537
0.568537
0.568537
0.568537
0.568537
0.568537
0.568537
0.568538
0.568538
0.568538
0.568538
0.568538
0.568538
0.568538
0.568538
0.568538
0.568538
0.568538
0.568538
0.568538
0.568538
0.568538
0.568538
0.568538
0.568538
0.568538
0.568538
0.568538
0.568538
0.568538
0.568538
0.568538
0.568538
0.568538
0.568538
0.568538
0.568538
0.568538
0.568538
0.568538
0.568538
0.568539
0.568539
0.568539
0.568539
0.568539
0.568539
0.568539
0.568539
0.568539
0.568539
0.568539
0.568539
0.568539
0.568539
0.568539
0.568539
0.568539
0.56854
0.56854
0.56854
0.56854
0.56854
0.56854
0.56854
0.56854
0.56854
0.56854
0.56854
0.56854
0.56854
0.56854
0.568541
0.568541
0.568541
0.568541
0.568541
0.568541
0.568541
0.568541
0.568541
0.568541
0.568541
0.568542
0.568542
0.568542
0.568542
0.568542
0.568542
0.568542
0.568542
0.568542
0.568542
0.568542
0.568542
0.568543
0.568543
0.568543
0.568543
0.568543
0.568543
0.568543
0.568543
0.568544
0.568544
0.568544
0.568544
0.568544
0.568544
0.568544
0.568544
0.568544
0.568545
0.568545
0.568545
0.568545
0.568545
0.568545
0.568545
0.568545
0.568545
0.568546
0.568546
0.568546
0.568546
0.568546
0.568546
0.568546
0.568547
0.568547
0.568547
0.568547
0.568547
0.568547
0.568547
0.568547
0.568548
0.568548
0.568548
0.568548
0.568548
0.568548
0.568549
0.568549
0.568549
0.568549
0.568549
0.568549
0.568549
0.568549
0.56855
0.56855
0.56855
0.56855
0.56855
0.56855
0.568551
0.568551
0.568551
0.568551
0.568551
0.568551
0.568552
0.568552
0.568552
0.568552
0.568552
0.568552
0.568553
0.568553
0.568553
0.568553
0.568553
0.568553
0.568553
0.568554
0.568554
0.568554
0.568554
0.568554
0.568555
0.568555
0.568555
0.568555
0.568555
0.568555
0.568556
0.568556
0.568556
0.568556
0.568556
0.568557
0.568557
0.568557
0.568557
0.568557
0.568558
0.568558
0.568558
0.568558
0.568558
0.568559
0.568559
0.568559
0.568559
0.568559
0.568559
0.56856
0.56856
0.56856
0.56856
0.56856
0.568561
0.568561
0.568561
0.568561
0.568562
0.568562
0.568562
0.568562
0.568562
0.568563
0.568563
0.568563
0.568563
0.568563
0.568564
0.568564
0.568564
0.568564
0.568564
0.568565
0.568565
0.568565
0.568565
0.568565
0.568566
0.568566
0.568566
0.568566
0.568567
0.568567
0.568567
0.568567
0.568567
0.568568
0.568568
0.568568
0.568569
0.568569
0.568569
0.568569
0.568569
0.56857
0.56857
0.56857
0.56857
0.568571
0.568571
0.568571
0.568571
0.568571
0.568572
0.568572
0.568572
0.568572
0.568573
0.568573
0.568573
0.568573
0.568574
0.568574
0.568574
0.568575
0.568575
0.568575
0.568575
0.568575
0.568576
0.568576
0.568576
0.568576
0.568577
0.568577
0.568577
0.568577
0.568578
0.568578
0.568578
0.568578
0.568579
0.568579
0.568579
0.56858
0.56858
0.56858
0.56858
0.568581
0.568581
0.568581
0.568581
0.568581
0.568582
0.568582
0.568582
0.568582
0.568583
0.568583
0.568583
0.568583
0.568584
0.568584
0.568584
0.568585
0.568585
0.568585
0.568586
0.568586
0.568586
0.568586
0.568587
0.568587
0.568587
0.568588
0.568588
0.568588
0.568588
0.568589
0.568589
0.568589
0.568589
0.56859
0.56859
0.56859
0.56859
0.568591
0.568591
0.568591
0.568592
0.568592
0.568592
0.568592
0.568593
0.568593
0.568593
0.568594
0.568594
0.568594
0.568595
0.568595
0.568595
0.568595
0.568596
0.568596
0.568596
0.568596
0.568597
0.568597
0.568598
0.568598
0.568598
0.568598
0.568599
0.568599
0.568599
0.568599
0.5686
0.5686
0.568601
0.568601
0.568601
0.568601
0.568602
0.568602
0.568602
0.568602
0.568603
0.568603
0.568604
0.568604
0.568604
0.568604
0.568605
0.568605
0.568605
0.568606
0.568607
0.568608
0.568609
0.568609
0.56861