<?xml version="1.0"?>
<VTKFile type="UnstructuredGrid" version="0.1" byte_order="LittleEndian">
<UnstructuredGrid>
<Piece NumberOfPoints="5000" NumberOfCells="4000">
<PointData Scalars="Reaction 0">
<DataArray type="Float32" Name="Reaction 0" format="ascii">
0.577333
0.577333
0.577333
0.577333
0.577333
0.577333
0.577333
0.577333
0.577333
0.577333
0.577333
0.577333
0.577333
0.577333
0.577333
0.577333
0.577333
0.577333
0.577333
0.577333
0.577333
0.577333
0.577333
0.577333
0.577333
0.577333
0.577333
0.577333
0.577333
0.577333
0.577333
0.577333
0.577333
0.577333
0.577333
0.577333
0.577333
0.577333
0.577333
0.577333
0.577333
0.577333
0.577333
0.577333
0.577333
0.577333
0.577333
0.577334
0.577334
0.577334
0.577334
0.577334
0.577334
0.577334
0.577334
0.577334
0.577334
0.577334
0.577334
0.577334
0.577334
0.577334
0.577334
0.577334
0.577334
0.577334
0.577334
0.577334
0.577335
0.577335
0.577335
0.577335
0.577335
0.577335
0.577335
0.577335
0.577335
0.577335
0.577335
0.577335
0.577335
0.577335
0.577335
0.577336
0.577336
0.577336
0.577336
0.577336
0.577336
0.577336
0.577336
0.577336
0.577336
0.577336
0.577336
0.577336
0.577337
0.577337
0.577337
0.577337
0.577337
0.577337
0.577337
0.577337
0.577337
0.577337
0.577337
0.577337
0.577338
0.577338
0.577338
0.577338
0.577338
0.577338
0.577338
0.577338
0.577338
0.577338
0.577339
0.577339
0.577339
0.577339
0.577339
0.577339
0.577339
0.577339
0.577339
0.577339
0.57734
0.57734
0.57734
0.57734
0.57734
0.57734
0.57734
0.57734
0.57734
0.577341
0.577341
0.577341
0.577341
0.577341
0.577341
0.577341
0.577342
0.577342
0.577342
0.577342
0.577342
0.577342
0.577342
0.577342
0.577342
0.577343
0.577343
0.577343
0.577343
0.577343
0.577343
0.577343
0.577343
0.577344
0.577344
0.577344
0.577344
0.577344
0.577344
0.577344
0.577345
0.577345
0.577345
0.577345
0.577345
0.577345
0.577346
0.577346
0.577346
0.577346
0.577346
0.577346
0.577346
0.577347
0.577347
0.577347
0.577347
0.577347
0.577347
0.577348
0.577348
0.577348
0.577348
0.577348
0.577348
0.577349
0.577349
0.577349
0.577349
0.577349
0.577349
0.57735
0.57735
0.57735
0.57735
0.57735
0.57735
0.57735
0.577351
0.577351
0.577351
0.577351
0.577351
0.577352
0.577352
0.577352
0.577352
0.577352
0.577352
0.577353
0.577353
0.577353
0.577353
0.577353
0.577354
0.577354
0.577354
0.577354
0.577354
0.577355
0.577355
0.577355
0.577355
0.577355
0.577355
0.577356
0.577356
0.577356
0.577356
0.577356
0.577357
0.577357
0.577357
0.577357
0.577358
0.577358
0.577358
0.577358
0.577358
0.577359
0.577359
0.577359
0.577359
0.577359
0.57736
0.57736
0.57736
0.57736
0.57736
0.577361
0.577361
0.577361
0.577361
0.577361
0.577362
0.577362
0.577362
0.577362
0.577363
0.577363
0.577363
0.577363
0.577363
0.577364
0.577364
0.577364
0.577365
0.577365
0.577365
0.577365
0.577365
0.577366
0.577366
0.577366
0.577366
0.577367
0.577367
0.577367
0.577367
0.577368
0.577368
0.577368
0.577368
0.577368
0.577369
0.577369
0.577369
0.577369
0.57737
0.57737
0.57737
0.577371
0.577371
0.577371
0.577371
0.577372
0.577372
0.577372
0.577372
0.577373
0.577373
0.577373
0.577373
0.577373
0.577374
0.577374
0.577374
0.577374
0.577375
0.577375
0.577375
0.577376
0.577376
0.577376
0.577376
0.577377
0.577377
0.577377
0.577377
0.577378
0.577378
0.577379
0.577379
0.577379
0.577379
0.57738
0.57738
0.57738
0.57738
0.577381
0.577381
0.577381
0.577381
0.577382
0.577382
0.577382
0.577383
0.577383
0.577383
0.577383
0.577384
0.577384
0.577384
0.577385
0.577385
0.577385
0.577386
0.577386
0.577386
0.577386
0.577387
0.577387
0.577387
0.577388
0.577388
0.577388
0.577389
0.577389
0.577389
0.577389
0.57739
0.57739
0.57739
0.577391
0.577391
0.577391
0.577392
0.577392
0.577392
0.577393
0.577393
0.577393
0.577393
0.577394
0.577394
0.577394
0.577395
0.577395
0.577395
0.577396
0.577396
0.577396
0.577396
0.577397
0.577397
0.577398
0.577398
0.577398
0.577399
0.577399
0.577399
0.5774
0.5774
0.5774
0.577401
0.577401
0.577401
0.577401
0.577402
0.577402
0.577403
0.577403
0.577403
0.577404
0.577404
0.577404
0.577405
0.577405
0.577405
0.577406
0.577406
0.577407
0.577407
0.577407
0.577407
0.577408
0.577408
0.577408
0.577409
0.577409
0.57741
0.57741
0.57741
0.57741
0.577411
0.577411
0.577412
0.577412
0.577412
0.577413
0.577413
0.577414
0.577414
0.577414
0.577414
0.577415
0.577415
0.577415
0.577416
0.577416
0.577417
0.577417
0.577417
0.577418
0.577418
0.577419
0.577419
0.577419
0.57742
0.57742
0.57742
0.577421
0.577421
0.577421
0.577422
0.577422
0.577423
0.577423
0.577423
0.577424
0.577424
0.577425
0.577425
0.577425
0.577426
0.577426
0.577427
0.577427
0.577427
0.577428
0.577428
0.577429
0.577429
0.577429
0.57743
0.57743
0.577431
0.577431
0.577431
0.577432
0.577432
0.577433
0.577433
0.577433
0.577434
0.577434
0.577435
0.577435
0.577435
0.577436
0.577436
0.577437
0.577437
0.577437
0.577438
0.577438
0.577439
0.577439
0.577439
0.57744
0.57744
0.577441
0.577441
0.577441
0.577442
0.577442
0.577443
0.577443
0.577443
0.577444
0.577444
0.577445
0.577445
0.577445
0.577446
0.577446
0.577447
0.577447
0.577447
0.577448
0.577449
0.577449
0.577449
0.57745
0.57745
0.577451
0.577451
0.577451
0.577452
0.577452
0.577453
0.577453
0.577453
0.577454
0.577454
0.577455
0.577456
0.577456
0.577456
0.577457
0.577457
0.577458
0.577458
0.577458
0.577459
0.577459
0.57746
0.57746
0.577461
0.577461
0.577462
0.577462
0.577462
0.577463
0.577463
0.577464
0.577464
0.577464
0.577465
0.577466
0.577466
0.577467
0.577467
0.577467
0.577468
0.577468
0.577469
0.577469
0.57747
0.57747
0.577471
0.577471
0.577471
0.577472
0.577472
0.577473
0.577474
0.577474
0.577474
0.577475
0.577475
0.577476
0.577476
0.577477
0.577477
0.577478
0.577478
0.577478
0.577479
0.577479
0.57748
0.577481
0.577481
0.577481
0.577482
0.577482
0.577483
0.577483
0.577484
0.577484
0.577485
0.577485
0.577485
0.577486
0.577487
0.577487
0.577488
0.577488
0.577488
0.577489
0.57749
0.57749
0.57749
0.577491
0.577491
0.577492
0.577493
0.577493
0.577493
0.577494
0.577495
0.577495
0.577495
0.577496
0.577496
0.577497
0.577498
0.577498
0.577498
0.577499
0.5775
0.5775
0.5775
0.577501
0.577501
0.577502
0.577503
0.577503
0.577503
0.577504
0.577505
0.577505
0.577505
0.577506
0.577506
0.577507
0.577508
0.577508
0.577508
0.577509
0.57751
0.57751
0.57751
0.577511
0.577512
0.577512
0.577513
0.577513
0.577514
0.577514
0.577515
0.577515
0.577515
0.577516
0.577517
0.577517
0.577518
0.577518
0.577519
0.577519
0.57752
0.577521
0.577521
0.577521
0.577522
0.577523
0.577523
0.577523
0.577524
0.577525
0.577525
0.577526
0.577526
0.577527
0.577527
0.577528
0.577529
0.577529
0.577529
0.57753
0.577531
0.577531
0.577531
0.577532
0.577533
0.577533
0.577534
0.577534
0.577535
0.577535
0.577536
0.577537
0.577537
0.577537
0.577538
0.577539
0.577539
0.577539
0.57754
0.577541
0.577542
0.577542
0.577542
0.577543
0.577544
0.577544
0.577545
0.577545
0.577546
0.577546
0.577547
0.577548
0.577548
0.577548
0.577549
0.57755
0.577551
0.577551
0.577551
0.577552
0.577553
0.577553
0.577553
0.577554
0.577555
0.577555
0.577556
0.577556
0.577557
0.577558
0.577558
0.577559
0.577559
0.57756
0.57756
0.577561
0.577562
0.577562
0.577563
0.577563
0.577564
0.577565
0.577565
0.577565
0.577566
0.577567
0.577568
0.577568
0.577568
0.577569
0.57757
0.57757
0.57757
0.577571
0.577572
0.577573
0.577573
0.577573
0.577574
0.577575
0.577576
0.577576
0.577576
0.577577
0.577578
0.577578
0.577579
0.577579
0.57758
0.577581
0.577581
0.577582
0.577582
0.577583
0.577584
0.577584
0.577585
0.577585
0.577586
0.577587
0.577587
0.577588
0.577588
0.577589
0.577589
0.57759
0.577591
0.577591
0.577592
0.577592
0.577593
0.577594
0.577594
0.577595
0.577595
0.577596
0.577597
0.577597
0.577598
0.577598
0.577599
0.5776
0.5776
0.577601
0.577602
0.577602
0.577603
0.577603
0.577604
0.577605
0.577605
0.577606
0.577606
0.577607
0.577608
0.577608
0.577609
0.577609
0.57761
0.577611
0.577611
0.577612
0.577612
0.577613
0.577614
0.577614
0.577615
0.577615
0.577616
0.577617
0.577618
0.577618
0.577618
0.577619
0.57762
0.577621
0.577621
0.577621
0.577622
0.577623
0.577624
0.577625
0.577625
0.577625
0.577626
0.577627
0.577628
0.577628
0.577628
0.577629
0.57763
0.577631
0.577631
0.577632
0.577632
0.577633
0.577634
0.577634
0.577635
0.577636
0.577636
0.577637
0.577637
0.577638
0.577639
0.577639
0.57764
0.57764
0.577641
0.577642
0.577643
0.577643
0.577643
0.577644
0.577645
0.577646
0.577647
0.577647
0.577647
0.577648
0.577649
0.57765
0.57765
0.577651
0.577651
0.577652
0.577653
0.577653
0.577654
0.577655
0.577655
0.577656
0.577656
0.577657
0.577658
0.577659
0.577659
0.577659
0.57766
0.577661
0.577662
0.577663
0.577663
0.577664
0.577664
0.577665
0.577666
0.577666
0.577667
0.577668
0.577668
0.577669
0.577669
0.57767
0.577671
0.577672
0.577673
0.577673
0.577673
0.577674
0.577675
0.577676
0.577676
0.577677
0.577677
0.577678
0.577679
0.577679
0.57768
0.577681
0.577682
0.577682
0.577682
0.577683
0.577684
0.577685
0.577686
0.577686
0.577686
0.577687
0.577688
0.577689
0.577689
0.57769
0.577691
0.577692
0.577693
0.577693
0.577694
0.577695
0.577696
0.577697
0.577697
0.577698
0.577699
0.5777
0.577701
0.577701
0.577703
0.577704
0.577705
0.577706
0.577706
0.577707
0.577708
0.577709
0.57771
0.57771
0.577711
0.577712
0.577713
0.577715
0.577715
0.577716
0.577717
0.577718
0.577719
0.577719
0.57772
0.577721
0.577722
0.577723
0.577723
0.577724
0.577726
0.577727
0.577728
0.577728
0.577729
0.57773
0.577731
0.577732
0.577732
0.577733
0.577734
0.577736
0.577737
0.577737
0.577738
0.577739
0.57774
0.577741
0.577741
0.577742
0.577743
0.577744
0.577746
0.577746
0.577747
0.577748
0.577749
0.57775
0.57775
0.577751
0.577752
0.577753
0.577755
0.577755
0.577756
0.577757
0.577758
0.577759
0.577759
0.57776
0.577761
0.577763
0.577764
0.577764
0.577765
0.577766
0.577767
0.577768
0.577768
0.577769
0.57777
0.577772
0.577773
0.577773
0.577774
0.577775
0.577776
0.577777
0.577777
0.577779
0.57778
0.577781
0.577782
0.577782
0.577783
0.577784
0.577785
0.577787
0.577787
0.577788
0.577789
0.57779
0.577791
0.577791
0.577792
0.577794
0.577795
0.577796
0.577796
0.577797
0.577798
0.577799
0.5778
0.5778
0.577802
0.577803
0.577804
0.577805
0.577805
0.577806
0.577807
0.577809
0.57781
0.57781
0.577811
0.577812
0.577813
0.577815
0.577815
0.577816
0.577817
0.577818
0.577819
0.577819
0.57782
0.577822
0.577823
0.577824
0.577824
0.577825
0.577826
0.577828
0.577829
0.577829
0.57783
0.577831
0.577832
0.577833
0.577833
0.577835
0.577836
0.577837
0.577838
0.577838
0.577839
0.577841
0.577842
0.577843
0.577843
0.577844
0.577845
0.577847
0.577848
0.577848
0.577849
0.57785
0.577851
0.577853
0.577853
0.577854
0.577855
0.577856
0.577857
0.577857
0.577859
0.57786
0.577861
0.577862
0.577862
0.577863
0.577865
0.577866
0.577867
0.577867
0.577868
0.57787
0.577871
0.577872
0.577872
0.577873
0.577874
0.577876
0.577877
0.577877
0.577878
0.577879
0.57788
0.577882
0.577882
0.577883
0.577884
0.577885
0.577887
0.577887
0.577888
0.577889
0.57789
0.577892
0.577892
0.577893
0.577894
0.577895
0.577896
0.577896
0.577898
0.577899
0.5779
0.577901
0.577901
0.577903
0.577904
0.577905
0.577906
0.577906
0.577908
0.577909
0.57791
0.577911
0.577911
0.577913
0.577914
0.577915
0.577916
0.577916
0.577918
0.577919
0.57792
0.577921
0.577921
0.577923
0.577924
0.577925
0.577926
0.577926
0.577928
0.577929
0.57793
0.577931
0.577931
0.577933
0.577934
0.577935
0.577936
0.577936
0.577938
0.577939
0.57794
0.577941
0.577941
0.577943
0.577944
0.577945
0.577946
0.577946
0.577948
0.577949
0.57795
0.577951
0.577951
0.577953
0.577954
0.577955
0.577957
0.577957
0.577958
0.577959
0.57796
0.577962
0.577962
0.577963
0.577964
0.577965
0.577967
0.577967
0.577968
0.577969
0.577971
0.577972
0.577972
0.577973
0.577974
0.577976
0.577977
0.577977
0.577978
0.57798
0.577981
0.577982
0.577982
0.577983
0.577985
0.577986
0.577987
0.577987
0.577989
0.57799
0.577991
0.577992
0.577992
0.577994
0.577995
0.577996
0.577998
0.577998
0.577999
0.578
0.578001
0.578003
0.578003
0.578004
0.578005
0.578007
0.578008
0.578008
0.578009
0.578011
0.578012
0.578013
0.578013
0.578015
0.578016
0.578017
0.578018
0.578018
0.57802
0.578021
0.578022
0.578024
0.578024
0.578025
0.578026
0.578028
0.578029
0.578029
0.57803
0.578032
0.578033
0.578034
0.578034
0.578035
0.578037
0.578038
0.578039
0.578039
0.578041
0.578042
0.578043
0.578045
0.578045
0.578046
0.578047
0.578049
0.57805
0.57805
0.578051
0.578053
0.578054
0.578055
0.578055
0.578057
0.578058
0.578059
0.578061
0.578061
0.578062
0.578063
0.578065
0.578066
0.578066
0.578067
0.578069
0.57807
0.578071
0.578071
0.578073
0.578074
0.578075
0.578077
0.578077
0.578078
0.578079
0.578081
0.578082
0.578082
0.578083
0.578085
0.578086
0.578087
0.578087
0.578089
0.57809
0.578091
0.578093
0.578093
0.578094
0.578095
0.578097
0.578098
0.578098
0.578099
0.578101
0.578102
0.578104
0.578104
0.578105
0.578106
0.578108
0.578109
0.578109
0.57811
0.578112
0.578113
0.578114
0.578114
0.578116
0.578117
0.578118
0.57812
0.57812
0.578121
0.578123
0.578124
0.578125
0.578125
0.578127
0.578128
0.578129
0.578131
0.578131
0.578132
0.578133
0.578135
0.578136
0.578136
0.578138
0.578139
0.57814
0.578142
0.578142
0.578143
0.578144
0.578146
0.578147
0.578147
0.578148
0.57815
0.578151
0.578153
0.578153
0.578154
0.578155
0.578157
0.578158
0.578158
0.578159
0.578161
0.578162
0.578164
0.578164
0.578165
0.578166
0.578168
0.578169
0.578169
0.578171
0.578172
0.578173
0.578175
0.578175
0.578176
0.578177
0.578179
0.57818
0.57818
0.578182
0.578183
0.578184
0.578186
0.578186
0.578187
0.578189
0.57819
0.578191
0.578191
0.578193
0.578194
0.578196
0.578197
0.578197
0.578198
0.5782
0.578201
0.578203
0.578203
0.578204
0.578205
0.578207
0.578208
0.578208
0.57821
0.578211
0.578212
0.578214
0.578214
0.578215
0.578217
0.578218
0.578219
0.578219
0.578221
0.578222
0.578224
0.578225
0.578225
0.578226
0.578228
0.578229
0.578231
0.578231
0.578232
0.578233
0.578235
0.578236
0.578236
0.578238
0.578239
0.57824
0.578242
0.578242
0.578243
0.578245
0.578246
0.578248
0.578248
0.578249
0.57825
0.578252
0.578253
0.578253
0.578255
0.578256
0.578257
0.578259
0.578259
0.57826
0.578262
0.578263
0.578265
0.578265
0.578266
0.578267
0.578269
0.57827
0.57827
0.578272
0.578273
0.578274
0.578276
0.578276
0.578277
0.578279
0.57828
0.578282
0.578282
0.578283
0.578284
0.578286
0.578287
0.578287
0.578289
0.57829
0.578292
0.578293
0.578293
0.578294
0.578296
0.578297
0.578299
0.578299
0.5783
0.578302
0.578303
0.578305
0.578305
0.578306
0.578307
0.578309
0.57831
0.57831
0.578312
0.578313
0.578315
0.578316
0.578316
0.578317
0.578319
0.57832
0.578322
0.578322
0.578323
0.578325
0.578326
0.578328
0.578328
0.578329
0.57833
0.578332
0.578333
0.578333
0.578335
0.578336
0.578338
0.578339
0.578339
0.578341
0.578342
0.578343
0.578345
0.578345
0.578346
0.578348
0.578349
0.578351
0.578351
0.578352
0.578354
0.578355
0.578357
0.578357
0.578358
0.578359
0.578361
0.578362
0.578362
0.578364
0.578365
0.578367
0.578368
0.578368
0.57837
0.578371
0.578373
0.578374
0.578374
0.578375
0.578377
0.578378
0.57838
0.57838
0.578381
0.578383
0.578384
0.578386
0.578386
0.578387
0.578389
0.57839
0.578392
0.578392
0.578393
0.578394
0.578396
0.578397
0.578397
0.578399
0.5784
0.578402
0.578403
0.578403
0.578405
0.578406
0.578408
0.578409
0.578409
0.578411
0.578412
0.578414
0.578415
0.578415
0.578416
0.578418
0.578419
0.578421
0.578421
0.578422
0.578424
0.578425
0.578427
0.578427
0.578428
0.57843
0.578431
0.578433
0.578433
0.578434
0.578436
0.578437
0.578439
0.578439
0.57844
0.578442
0.578443
0.578445
0.578445
0.578446
0.578447
0.578449
0.57845
0.57845
0.578452
0.578453
0.578455
0.578456
0.578456
0.578458
0.578459
0.578461
0.578462
0.578462
0.578464
0.578465
0.578467
0.578468
0.578468
0.57847
0.578471
0.578473
0.578474
0.578474
0.578476
0.578477
0.578479
0.57848
0.57848
0.578482
0.578483
0.578485
0.578486
0.578486
0.578488
0.578489
0.578491
0.578492
0.578492
0.578494
0.578495
0.578497
0.578498
0.578498
0.578499
0.578501
0.578502
0.578504
0.578504
0.578505
0.578507
0.578508
0.57851
0.57851
0.578511
0.578513
0.578514
0.578516
0.578516
0.578517
0.578519
0.57852
0.578522
0.578522
0.578523
0.578525
0.578526
0.578528
0.578528
0.578529
0.578531
0.578532
0.578534
0.578534
0.578535
0.578537
0.578538
0.57854
0.57854
0.578541
0.578543
0.578544
0.578546
0.578546
0.578547
0.578549
0.57855
0.578552
0.578552
0.578553
0.578555
0.578556
0.578558
0.578558
0.578559
0.578561
0.578562
0.578564
0.578564
0.578565
0.578567
0.578568
0.57857
0.57857
0.578571
0.578573
0.578575
0.578576
0.578576
0.578578
0.578579
0.578581
0.578582
0.578582
0.578584
0.578585
0.578587
0.578588
0.578588
0.57859
0.578591
0.578593
0.578594
0.578594
0.578596
0.578597
0.578599
0.5786
0.5786
0.578602
0.578603
0.578605
0.578606
0.578606
0.578608
0.578609
0.578611
0.578612
0.578612
0.578614
0.578615
0.578617
0.578618
0.578618
0.57862
0.578621
0.578623
0.578624
0.578624
0.578626
0.578627
0.578629
0.57863
0.57863
0.578632
0.578633
0.578635
0.578636
0.578636
0.578638
0.578639
0.578641
0.578642
0.578642
0.578644
0.578645
0.578647
0.578649
0.578649
0.57865
0.578652
0.578654
0.578655
0.578655
0.578657
0.578658
0.57866
0.578662
0.578662
0.578663
0.578665
0.578666
0.578668
0.578668
0.578669
0.578671
0.578673
0.578674
0.578674
0.578676
0.578677
0.578679
0.578681
0.578681
0.578682
0.578684
0.578685
0.578687
0.578687
0.578688
0.57869
0.578692
0.578693
0.578693
0.578695
0.578696
0.578698
0.5787
0.5787
0.578701
0.578703
0.578704
0.578706
0.578706
0.578708
0.578709
0.578711
0.578712
0.578712
0.578714
0.578715
0.578717
0.578719
0.578719
0.57872
0.578722
0.578723
0.578725
0.578725
0.578727
0.578728
0.57873
0.578731
0.578731
0.578733
0.578735
0.578736
0.578738
0.578738
0.578739
0.578741
0.578743
0.578744
0.578744
0.578746
0.578747
0.578749
0.578751
0.578751
0.578752
0.578754
0.578755
0.578757
0.578757
0.578759
0.57876
0.578762
0.578763
0.578763
0.578765
0.578767
0.578768
0.57877
0.57877
0.578771
0.578773
0.578775
0.578776
0.578776
0.578778
0.578779
0.578781
0.578783
0.578783
0.578784
0.578786
0.578788
0.578789
0.578789
0.578791
0.578792
0.578794
0.578796
0.578796
0.578797
0.578799
0.5788
0.578802
0.578802
0.578804
0.578805
0.578807
0.578808
0.578808
0.57881
0.578812
0.578813
0.578815
0.578815
0.578817
0.578818
0.57882
0.578821
0.578821
0.578823
0.578825
0.578826
0.578828
0.578828
0.578829
0.578831
0.578833
0.578834
0.578834
0.578836
0.578838
0.578839
0.578841
0.578841
0.578842
0.578844
0.578846
0.578847
0.578847
0.578849
0.578851
0.578852
0.578854
0.578854
0.578855
0.578857
0.578859
0.57886
0.57886
0.578862
0.578864
0.578865
0.578867
0.578867
0.578868
0.57887
0.578872
0.578873
0.578873
0.578875
0.578877
0.578878
0.57888
0.57888
0.578881
0.578883
0.578885
0.578886
0.578886
0.578888
0.57889
0.578891
0.578893
0.578893
0.578895
0.578896
0.578898
0.578899
0.578899
0.578901
0.578903
0.578904
0.578906
0.578906
0.578908
0.578909
0.578911
0.578913
0.578913
0.578914
0.578916
0.578917
0.578919
0.578919
0.578921
0.578922
0.578924
0.578926
0.578926
0.578927
0.578929
0.578931
0.578932
0.578932
0.578934
0.578935
0.578937
0.578939
0.578939
0.57894
0.578942
0.578944
0.578945
0.578945
0.578947
0.578949
0.57895
0.578952
0.578952
0.578954
0.578955
0.578957
0.578959
0.578959
0.57896
0.578962
0.578963
0.578965
0.578965
0.578967
0.578968
0.57897
0.578972
0.578972
0.578973
0.578975
0.578977
0.578978
0.578978
0.57898
0.578982
0.578983
0.578985
0.578985
0.578987
0.578988
0.57899
0.578992
0.578992
0.578993
0.578995
0.578997
0.578998
0.578998
0.579
0.579002
0.579003
0.579005
0.579005
0.579006
0.579008
0.57901
0.579011
0.579011
0.579013
0.579015
0.579016
0.579018
0.579018
0.57902
0.579021
0.579023
0.579025
0.579025
0.579026
0.579028
0.57903
0.579031
0.579031
0.579033
0.579035
0.579036
0.579038
0.579038
0.57904
0.579041
0.579043
0.579045
0.579045
0.579046
0.579048
0.57905
0.579051
0.579051
0.579053
0.579055
0.579056
0.579058
0.579058
0.57906
0.579062
0.579063
0.579065
0.579065
0.579067
0.579068
0.57907
0.579072
0.579072
0.579073
0.579075
0.579077
0.579078
0.579078
0.57908
0.579082
0.579083
0.579085
0.579085
0.579087
0.579088
0.57909
0.579092
0.579092
0.579093
0.579095
0.579097
0.579098
0.579098
0.5791
0.579102
0.579104
0.579105
0.579105
0.579107
0.579109
0.57911
0.579112
0.579112
0.579114
0.579115
0.579117
0.579119
0.579119
0.57912
0.579122
0.579124
0.579125
0.579125
0.579127
0.579129
0.579131
0.579132
0.579132
0.579134
0.579136
0.579137
0.579139
0.579139
0.579141
0.579142
0.579144
0.579146
0.579146
0.579147
0.579149
0.579151
0.579153
0.579153
0.579154
0.579156
0.579158
0.579159
0.579159
0.579161
0.579163
0.579164
0.579166
0.579166
0.579168
0.57917
0.579171
0.579173
0.579173
0.579175
0.579176
0.579178
0.57918
0.57918
0.579181
0.579183
0.579185
0.579187
0.579187
0.579188
0.57919
0.579192
0.579193
0.579193
0.579195
0.579197
0.579199
0.5792
0.5792
0.579202
0.579204
0.579205
0.579207
0.579207
0.579209
0.579211
0.579212
0.579214
0.579214
0.579216
0.579217
0.579219
0.579221
0.579221
0.579223
0.579224
0.579226
0.579228
0.579228
0.579229
0.579231
0.579233
0.579235
0.579235
0.579236
0.579238
0.57924
0.579241
0.579241
0.579243
0.579245
0.579247
0.579248
0.579248
0.57925
0.579252
0.579254
0.579255
0.579255
0.579257
0.579259
0.57926
0.579262
0.579262
0.579264
0.579266
0.579267
0.579269
0.579269
0.579271
0.579273
0.579274
0.579276
0.579276
0.579278
0.57928
0.579281
0.579283
0.579283
0.579285
0.579286
0.579288
0.57929
0.57929
0.579292
0.579293
0.579295
0.579297
0.579297
0.579299
0.5793
0.579302
0.579304
0.579304
0.579306
0.579307
0.579309
0.579311
0.579311
0.579313
0.579314
0.579316
0.579318
0.579318
0.57932
0.579321
0.579323
0.579325
0.579325
0.579327
0.579328
0.57933
0.579332
0.579332
0.579334
0.579335
0.579337
0.579339
0.579339
0.579341
0.579342
0.579344
0.579346
0.579346
0.579348
0.579349
0.579351
0.579353
0.579353
0.579355
0.579356
0.579358
0.57936
0.57936
0.579362
0.579363
0.579365
0.579367
0.579367
0.579369
0.57937
0.579372
0.579374
0.579374
0.579376
0.579377
0.579379
0.579381
0.579381
0.579383
0.579384
0.579386
0.579388
0.579388
0.57939
0.579392
0.579393
0.579395
0.579395
0.579397
0.579399
0.5794
0.579402
0.579402
0.579404
0.579406
0.579407
0.579409
0.579409
0.579411
0.579413
0.579415
0.579416
0.579416
0.579418
0.57942
0.579422
0.579423
0.579423
0.579425
0.579427
0.579429
0.57943
0.57943
0.579432
0.579434
0.579435
0.579437
0.579437
0.579439
0.579441
0.579443
0.579445
0.579445
0.579446
0.579448
0.57945
0.579452
0.579452
0.579454
0.579455
0.579457
0.579459
0.579459
0.579461
0.579463
0.579464
0.579466
0.579466
0.579468
0.57947
0.579471
0.579473
0.579473
0.579475
0.579477
0.579479
0.57948
0.57948
0.579482
0.579484
0.579486
0.579487
0.579487
0.579489
0.579491
0.579493
0.579495
0.579495
0.579496
0.579498
0.5795
0.579502
0.579502
0.579504
0.579505
0.579507
0.579509
0.579509
0.579511
0.579513
0.579514
0.579516
0.579516
0.579518
0.57952
0.579522
0.579523
0.579523
0.579525
0.579527
0.579529
0.579531
0.579531
0.579532
0.579534
0.579536
0.579538
0.579538
0.57954
0.579541
0.579543
0.579545
0.579545
0.579547
0.579549
0.57955
0.579552
0.579552
0.579554
0.579556
0.579558
0.579559
0.579559
0.579561
0.579563
0.579565
0.579567
0.579567
0.579568
0.57957
0.579572
0.579574
0.579574
0.579576
0.579578
0.579579
0.579581
0.579581
0.579583
0.579585
0.579587
0.579588
0.579588
0.57959
0.579592
0.579594
0.579596
0.579596
0.579598
0.579599
0.579601
0.579603
0.579603
0.579605
0.579607
0.579609
0.57961
0.57961
0.579612
0.579614
0.579616
0.579618
0.579618
0.57962
0.579621
0.579623
0.579625
0.579625
0.579627
0.579629
0.579631
0.579632
0.579632
0.579634
0.579636
0.579638
0.57964
0.57964
0.579642
0.579643
0.579645
0.579647
0.579647
0.579649
0.579651
0.579653
0.579655
0.579655
0.579656
0.579658
0.57966
0.579662
0.579662
0.579664
0.579666
0.579667
0.579669
0.579669
0.579671
0.579673
0.579675
0.579677
0.579677
0.579679
0.57968
0.579682
0.579684
0.579684
0.579686
0.579688
0.57969
0.579692
0.579692
0.579693
0.579695
0.579697
0.579699
0.579699
0.579701
0.579703
0.579705
0.579707
0.579707
0.579708
0.57971
0.579712
0.579714
0.579714
0.579716
0.579718
0.57972
0.579721
0.579721
0.579723
0.579725
0.579727
0.579729
0.579729
0.579731
0.579733
0.579735
0.579736
0.579736
0.579738
0.57974
0.579742
0.579744
0.579744
0.579746
0.579748
0.57975
0.579752
0.579752
0.579753
0.579755
0.579757
0.579759
0.579759
0.579761
0.579763
0.579765
0.579767
0.579767
0.579769
0.57977
0.579772
0.579774
0.579774
0.579776
0.579778
0.57978
0.579782
0.579782
0.579784
0.579786
0.579788
0.579789
0.579789
0.579791
0.579793
0.579795
0.579797
0.579797
0.579799
0.579801
0.579803
0.579805
0.579805
0.579807
0.579808
0.57981
0.579812
0.579812
0.579814
0.579816
0.579818
0.57982
0.57982
0.579822
0.579824
0.579826
0.579828
0.579828
0.57983
0.579831
0.579833
0.579835
0.579835
0.579837
0.579839
0.579841
0.579843
0.579843
0.579845
0.579847
0.579849
0.579851
0.579851
0.579853
0.579855
0.579856
0.579858
0.579858
0.57986
0.579862
0.579864
0.579866
0.579866
0.579868
0.57987
0.579872
0.579874
0.579874
0.579876
0.579878
0.57988
0.579882
0.579882
0.579884
0.579886
0.579887
0.579889
0.579889
0.579891
0.579893
0.579895
0.579897
0.579897
0.579899
0.579901
0.579903
0.579905
0.579905
0.579907
0.579909
0.579911
0.579913
0.579913
0.579915
0.579917
0.579919
0.579921
0.579921
0.579923
0.579925
0.579927
0.579929
0.579929
0.57993
0.579932
0.579934
0.579936
0.579936
0.579938
0.57994
0.579942
0.579944
0.579944
0.579946
0.579948
0.57995
0.579952
0.579952
0.579954
0.579956
0.579958
0.57996
0.57996
0.579962
0.579964
0.579966
0.579968
0.579968
0.57997
0.579972
0.579974
0.579976
0.579976
0.579978
0.57998
0.579982
0.579984
0.579984
0.579986
0.579988
0.57999
0.579992
0.579992
0.579994
0.579996
0.579998
0.58
0.58
0.580002
0.580004
0.580006
0.580008
0.580008
0.58001
0.580012
0.580014
0.580016
0.580016
0.580018
0.58002
0.580022
0.580024
0.580024
0.580026
0.580028
0.58003
0.580032
0.580032
0.580034
0.580036
0.580038
0.58004
0.58004
0.580042
0.580044
0.580046
0.580048
0.580048
0.58005
0.580052
0.580054
0.580056
0.580056
0.580058
0.58006
0.580062
0.580064
0.580064
0.580066
0.580068
0.58007
0.580072
0.580072
0.580074
0.580076
0.580078
0.58008
0.58008
0.580083
0.580085
0.580087
0.580089
0.580089
0.580091
0.580093
0.580095
0.580097
0.580097
0.580099
0.580101
0.580103
0.580105
0.580105
0.580107
0.580109
0.580111
0.580113
0.580113
0.580115
0.580117
0.580119
0.580121
0.580121
0.580123
0.580126
0.580128
0.58013
0.58013
0.580132
0.580134
0.580136
0.580138
0.580138
0.58014
0.580142
0.580144
0.580146
0.580146
0.580148
0.58015
0.580152
0.580154
0.580154
0.580157
0.580159
0.580161
0.580163
0.580163
0.580165
0.580167
0.580169
0.58017
0.58017
0.580172
0.580175
0.580177
0.580179
0.580179
0.580181
0.580183
0.580186
0.580188
0.580188
0.58019
0.580192
0.580194
0.580196
0.580196
0.580198
0.5802
0.580202
0.580204
0.580204
0.580206
0.580209
0.580211
0.580213
0.580213
0.580215
0.580217
0.580219
0.580221
0.580221
0.580223
0.580225
0.580227
0.58023
0.58023
0.580232
0.580234
0.580236
0.580238
0.580238
0.58024
0.580242
0.580244
0.580246
0.580246
0.580249
0.580251
0.580253
0.580255
0.580255
0.580257
0.580259
0.580261
0.580263
0.580263
0.580265
0.580268
0.58027
0.580272
0.580272
0.580274
0.580276
0.580278
0.58028
0.58028
0.580282
0.580285
0.580287
0.580289
0.580289
0.580291
0.580293
0.580295
0.580297
0.580297
0.5803
0.580302
0.580304
0.580306
0.580306
0.580308
0.58031
0.580312
0.580315
0.580315
0.580317
0.580319
0.580321
0.580323
0.580323
0.580325
0.580327
0.58033
0.580332
0.580332
0.580334
0.580336
0.580338
0.58034
0.58034
0.580343
0.580345
0.580347
0.580349
0.580349
0.580351
0.580353
0.580356
0.580358
0.580358
0.58036
0.580362
0.580364
0.580366
0.580366
0.580369
0.580371
0.580373
0.580375
0.580375
0.580377
0.58038
0.580382
0.580384
0.580384
0.580386
0.580388
0.58039
0.580393
0.580393
0.580395
0.580397
0.580399
0.580401
0.580401
0.580404
0.580406
0.580408
0.58041
0.58041
0.580412
0.580415
0.580417
0.580419
0.580419
0.580421
0.580423
0.580426
0.580428
0.580428
0.58043
0.580432
0.580435
0.580437
0.580437
0.580439
0.580441
0.580443
0.580446
0.580446
0.580448
0.58045
0.580452
0.580455
0.580455
0.580457
0.580459
0.580461
0.580463
0.580463
0.580466
0.580468
0.58047
0.580472
0.580472
0.580475
0.580477
0.580479
0.580481
0.580481
0.580484
0.580486
0.580488
0.58049
0.58049
0.580493
0.580495
0.580497
0.580499
0.580499
0.580502
0.580504
0.580506
0.580508
0.580508
0.580511
0.580513
0.580515
0.580517
0.580517
0.58052
0.580522
0.580524
0.580527
0.580527
0.580529
0.580531
0.580533
0.580536
0.580536
0.580538
0.58054
0.580542
0.580545
0.580545
0.580547
0.580549
0.580552
0.580554
0.580554
0.580556
0.580558
0.580561
0.580563
0.580563
0.580565
0.580568
0.58057
0.580572
0.580572
0.580574
0.580577
0.580579
0.580581
0.580581
0.580584
0.580586
0.580588
0.580591
0.580591
0.580593
0.580595
0.580598
0.5806
0.5806
0.580602
0.580604
0.580607
0.580609
0.580609
0.580611
0.580614
0.580616
0.580618
0.580618
0.580621
0.580623
0.580625
0.580628
0.580628
0.58063
0.580632
0.580635
0.580637
0.580637
0.580639
0.580642
0.580644
0.580646
0.580646
0.580649
0.580651
0.580653
0.580656
0.580656
0.580658
0.58066
0.580663
0.580665
0.580665
0.580668
0.58067
0.580672
0.580675
0.580675
0.580677
0.580679
0.580682
0.580684
0.580684
0.580686
0.580689
0.580691
0.580693
0.580693
0.580696
0.580698
0.580701
0.580703
0.580703
0.580705
0.580708
0.58071
0.580713
0.580713
0.580715
0.580717
0.58072
0.580722
0.580722
0.580724
0.580727
0.580729
0.580732
0.580732
0.580734
0.580736
0.580739
0.580741
0.580741
0.580744
0.580746
0.580748
0.580751
0.580751
0.580753
0.580756
0.580758
0.58076
0.58076
0.580763
0.580765
0.580768
0.58077
0.58077
0.580773
0.580775
0.580777
0.58078
0.58078
0.580782
0.580785
0.580787
0.58079
0.58079
0.580792
0.580794
0.580797
0.580799
0.580799
0.580802
0.580804
0.580807
0.580809
0.580809
0.580811
0.580814
0.580816
0.580819
0.580819
0.580821
0.580824
0.580826
0.580829
0.580829
0.580831
0.580834
0.580836
0.580838
0.580838
0.580841
0.580843
0.580846
0.580848
0.580848
0.580851
0.580853
0.580856
0.580858
0.580858
0.580861
0.580863
0.580866
0.580868
0.580868
0.580871
0.580873
0.580876
0.580878
0.580878
0.580881
0.580883
0.580886
0.580888
0.580888
0.58089
0.580893
0.580895
0.580898
0.580898
0.5809
0.580903
0.580905
0.580908
0.580908
0.58091
0.580913
0.580915
0.580918
0.580918
0.58092
0.580922
0.580925
0.580927
0.580927
0.58093
0.580933
0.580935
0.580938
0.580938