<?xml version="1.0"?>
<VTKFile type="UnstructuredGrid" version="0.1" byte_order="LittleEndian">
<UnstructuredGrid>
<Piece NumberOfPoints="5000" NumberOfCells="4000">
<PointData Scalars="Reaction 0">
<DataArray type="Float32" Name="Reaction 0" format="ascii">
0.580609
0.580609
0.580609
0.580609
0.580609
0.580609
0.580609
0.580609
0.580609
0.580609
0.580609
0.580609
0.580609
0.580609
0.580609
0.580609
0.580609
0.580608
0.580608
0.580608
0.580608
0.580608
0.580608
0.580608
0.580608
0.580608
0.580608
0.580608
0.580607
0.580607
0.580607
0.580607
0.580607
0.580607
0.580607
0.580607
0.580607
0.580606
0.580606
0.580606
0.580606
0.580606
0.580606
0.580605
0.580605
0.580605
0.580605
0.580605
0.580605
0.580604
0.580604
0.580604
0.580604
0.580604
0.580603
0.580603
0.580603
0.580603
0.580603
0.580602
0.580602
0.580602
0.580602
0.580601
0.580601
0.580601
0.580601
0.580601
0.5806
0.5806
0.5806
0.5806
0.580599
0.580599
0.580599
0.580599
0.580598
0.580598
0.580598
0.580597
0.580597
0.580597
0.580596
0.580596
0.580596
0.580596
0.580595
0.580595
0.580594
0.580594
0.580594
0.580594
0.580593
0.580593
0.580592
0.580592
0.580592
0.580591
0.580591
0.58059
0.58059
0.58059
0.58059
0.580589
0.580589
0.580589
0.580588
0.580588
0.580587
0.580587
0.580587
0.580586
0.580586
0.580585
0.580584
0.580584
0.580584
0.580583
0.580583
0.580582
0.580582
0.580582
0.580581
0.580581
0.58058
0.58058
0.580579
0.580579
0.580578
0.580578
0.580578
0.580577
0.580576
0.580576
0.580575
0.580575
0.580575
0.580574
0.580573
0.580573
0.580573
0.580572
0.580571
0.580571
0.58057
0.58057
0.580569
0.580569
0.580568
0.580567
0.580567
0.580567
0.580566
0.580565
0.580565
0.580565
0.580564
0.580563
0.580562
0.580562
0.580562
0.580561
0.58056
0.580559
0.580559
0.580559
0.580558
0.580557
0.580556
0.580556
0.580556
0.580555
0.580554
0.580553
0.580552
0.580552
0.580552
0.580551
0.58055
0.580549
0.580549
0.580548
0.580547
0.580547
0.580546
0.580546
0.580545
0.580544
0.580543
0.580542
0.580542
0.580541
0.58054
0.58054
0.580539
0.580539
0.580538
0.580537
0.580536
0.580535
0.580535
0.580534
0.580533
0.580532
0.580531
0.580531
0.58053
0.580529
0.580529
0.580528
0.580528
0.580527
0.580526
0.580525
0.580524
0.580524
0.580523
0.580522
0.580521
0.58052
0.58052
0.580519
0.580518
0.580517
0.580516
0.580516
0.580515
0.580514
0.580512
0.580511
0.580511
0.58051
0.580509
0.580508
0.580507
0.580507
0.580506
0.580505
0.580504
0.580503
0.580503
0.580502
0.580501
0.5805
0.580498
0.580498
0.580497
0.580496
0.580495
0.580494
0.580494
0.580493
0.580492
0.58049
0.580489
0.580489
0.580488
0.580487
0.580486
0.580485
0.580485
0.580483
0.580482
0.580481
0.58048
0.58048
0.580479
0.580477
0.580476
0.580475
0.580475
0.580474
0.580472
0.580471
0.58047
0.58047
0.580469
0.580467
0.580466
0.580465
0.580465
0.580464
0.580462
0.580461
0.58046
0.58046
0.580458
0.580457
0.580456
0.580455
0.580455
0.580453
0.580452
0.580451
0.580449
0.580449
0.580448
0.580447
0.580445
0.580444
0.580444
0.580442
0.580441
0.58044
0.580438
0.580438
0.580437
0.580436
0.580434
0.580433
0.580433
0.580431
0.58043
0.580429
0.580427
0.580427
0.580426
0.580424
0.580423
0.580421
0.580421
0.58042
0.580419
0.580417
0.580416
0.580416
0.580414
0.580413
0.580411
0.58041
0.58041
0.580408
0.580407
0.580405
0.580404
0.580404
0.580402
0.580401
0.580399
0.580398
0.580398
0.580396
0.580395
0.580393
0.580392
0.580392
0.58039
0.580388
0.580387
0.580385
0.580385
0.580384
0.580382
0.580381
0.580379
0.580379
0.580377
0.580376
0.580374
0.580373
0.580373
0.580371
0.580369
0.580368
0.580366
0.580366
0.580364
0.580363
0.580361
0.58036
0.58036
0.580358
0.580356
0.580355
0.580353
0.580353
0.580351
0.58035
0.580348
0.580346
0.580346
0.580344
0.580343
0.580341
0.580339
0.580339
0.580338
0.580336
0.580334
0.580332
0.580332
0.580331
0.580329
0.580327
0.580325
0.580325
0.580324
0.580322
0.58032
0.580318
0.580318
0.580317
0.580315
0.580313
0.580311
0.580311
0.580309
0.580308
0.580306
0.580304
0.580304
0.580302
0.5803
0.580299
0.580297
0.580297
0.580295
0.580293
0.580291
0.580289
0.580289
0.580288
0.580286
0.580284
0.580282
0.580282
0.58028
0.580278
0.580276
0.580274
0.580274
0.580273
0.580271
0.580269
0.580267
0.580267
0.580265
0.580263
0.580261
0.580259
0.580259
0.580257
0.580255
0.580253
0.580251
0.580251
0.580249
0.580248
0.580246
0.580244
0.580244
0.580242
0.58024
0.580238
0.580236
0.580236
0.580234
0.580232
0.58023
0.580228
0.580228
0.580226
0.580224
0.580222
0.58022
0.58022
0.580218
0.580216
0.580214
0.580211
0.580211
0.580209
0.580207
0.580205
0.580203
0.580203
0.580201
0.580199
0.580197
0.580195
0.580195
0.580193
0.580191
0.580189
0.580187
0.580187
0.580185
0.580182
0.58018
0.580178
0.580178
0.580176
0.580174
0.580172
0.58017
0.58017
0.580168
0.580165
0.580163
0.580161
0.580161
0.580159
0.580157
0.580155
0.580152
0.580152
0.58015
0.580148
0.580146
0.580144
0.580144
0.580142
0.580139
0.580137
0.580135
0.580135
0.580133
0.580131
0.580128
0.580126
0.580126
0.580124
0.580122
0.580119
0.580117
0.580117
0.580115
0.580113
0.58011
0.580108
0.580108
0.580106
0.580104
0.580101
0.580099
0.580099
0.580097
0.580095
0.580092
0.58009
0.58009
0.580088
0.580085
0.580083
0.580081
0.580081
0.580078
0.580076
0.580074
0.580071
0.580071
0.580069
0.580067
0.580064
0.580062
0.580062
0.58006
0.580057
0.580055
0.580053
0.580053
0.58005
0.580048
0.580046
0.580043
0.580043
0.580041
0.580038
0.580036
0.580034
0.580034
0.580031
0.580029
0.580026
0.580024
0.580024
0.580022
0.580019
0.580017
0.580014
0.580014
0.580012
0.58001
0.580007
0.580005
0.580005
0.580002
0.58
0.579997
0.579995
0.579995
0.579992
0.57999
0.579987
0.579985
0.579985
0.579983
0.57998
0.579978
0.579975
0.579975
0.579973
0.57997
0.579968
0.579965
0.579965
0.579963
0.57996
0.579958
0.579955
0.579955
0.579953
0.57995
0.579947
0.579945
0.579945
0.579942
0.57994
0.579937
0.579935
0.579935
0.579932
0.57993
0.579927
0.579925
0.579925
0.579922
0.579919
0.579917
0.579914
0.579914
0.579912
0.579909
0.579906
0.579904
0.579904
0.579901
0.579899
0.579896
0.579893
0.579893
0.579891
0.579888
0.579886
0.579883
0.579883
0.57988
0.579878
0.579875
0.579872
0.579872
0.57987
0.579867
0.579865
0.579862
0.579862
0.579859
0.579857
0.579854
0.579851
0.579851
0.579849
0.579846
0.579843
0.579841
0.579841
0.579838
0.579835
0.579833
0.57983
0.57983
0.579827
0.579824
0.579822
0.579819
0.579819
0.579816
0.579814
0.579811
0.579808
0.579808
0.579805
0.579803
0.5798
0.579797
0.579797
0.579795
0.579792
0.579789
0.579786
0.579786
0.579784
0.579781
0.579778
0.579775
0.579775
0.579773
0.57977
0.579767
0.579764
0.579764
0.579762
0.579759
0.579756
0.579753
0.579753
0.57975
0.579748
0.579745
0.579742
0.579742
0.579739
0.579736
0.579734
0.579731
0.579731
0.579728
0.579725
0.579722
0.57972
0.57972
0.579717
0.579714
0.579711
0.579708
0.579708
0.579705
0.579703
0.5797
0.579697
0.579697
0.579694
0.579691
0.579688
0.579686
0.579686
0.579683
0.57968
0.579677
0.579674
0.579674
0.579671
0.579668
0.579666
0.579663
0.579663
0.57966
0.579657
0.579654
0.579651
0.579651
0.579648
0.579645
0.579642
0.57964
0.57964
0.579637
0.579634
0.579631
0.579628
0.579628
0.579625
0.579622
0.579619
0.579616
0.579616
0.579613
0.57961
0.579608
0.579605
0.579605
0.579602
0.579599
0.579596
0.579593
0.579593
0.57959
0.579587
0.579584
0.579581
0.579581
0.579578
0.579575
0.579572
0.579569
0.579569
0.579566
0.579563
0.57956
0.579557
0.579557
0.579554
0.579552
0.579549
0.579546
0.579546
0.579543
0.57954
0.579537
0.579534
0.579534
0.579531
0.579528
0.579525
0.579522
0.579522
0.579519
0.579516
0.579513
0.57951
0.57951
0.579507
0.579504
0.579501
0.579498
0.579498
0.579495
0.579492
0.579489
0.579486
0.579486
0.579483
0.57948
0.579477
0.579474
0.579474
0.579471
0.579468
0.579465
0.579461
0.579461
0.579458
0.579455
0.579452
0.579449
0.579449
0.579446
0.579443
0.57944
0.579437
0.579437
0.579434
0.579431
0.579428
0.579425
0.579425
0.579422
0.579419
0.579416
0.579413
0.579413
0.57941
0.579407
0.579404
0.579401
0.579401
0.579397
0.579394
0.579391
0.579388
0.579388
0.579385
0.579382
0.579379
0.579376
0.579376
0.579373
0.57937
0.579367
0.579364
0.579364
0.579361
0.579357
0.579354
0.579351
0.579351
0.579348
0.579345
0.579342
0.579339
0.579339
0.579336
0.579333
0.57933
0.579327
0.579327
0.579323
0.57932
0.579317
0.579314
0.579314
0.579311
0.579308
0.579305
0.579302
0.579302
0.579299
0.579295
0.579292
0.579289
0.579289
0.579286
0.579283
0.57928
0.579277
0.579277
0.579274
0.579271
0.579267
0.579264
0.579264
0.579261
0.579258
0.579255
0.579252
0.579252
0.579249
0.579246
0.579242
0.579239
0.579239
0.579236
0.579233
0.57923
0.579227
0.579227
0.579224
0.579221
0.579217
0.579214
0.579214
0.579211
0.579208
0.579205
0.579202
0.579202
0.579199
0.579196
0.579192
0.579189
0.579189
0.579186
0.579183
0.57918
0.579177
0.579177
0.579174
0.57917
0.579167
0.579164
0.579164
0.579161
0.579158
0.579155
0.579151
0.579151
0.579148
0.579145
0.579142
0.579138
0.579138
0.579135
0.579132
0.579128
0.579125
0.579125
0.579122
0.579118
0.579115
0.579111
0.579111
0.579108
0.579104
0.579101
0.579097
0.579097
0.579093
0.57909
0.579086
0.579083
0.579083
0.579079
0.579076
0.579072
0.579068
0.579068
0.579065
0.579061
0.579058
0.579054
0.579054
0.579051
0.579047
0.579043
0.57904
0.57904
0.579036
0.579033
0.579029
0.579025
0.579025
0.579022
0.579018
0.579015
0.579011
0.579011
0.579007
0.579004
0.579
0.578997
0.578997
0.578993
0.578989
0.578986
0.578982
0.578982
0.578979
0.578975
0.578971
0.578968
0.578968
0.578964
0.57896
0.578957
0.578953
0.578953
0.57895
0.578946
0.578942
0.578939
0.578939
0.578935
0.578931
0.578928
0.578924
0.578924
0.578921
0.578917
0.578913
0.57891
0.57891
0.578906
0.578902
0.578899
0.578895
0.578895
0.578892
0.578888
0.578884
0.578881
0.578881
0.578877
0.578873
0.57887
0.578866
0.578866
0.578862
0.578859
0.578855
0.578851
0.578851
0.578848
0.578844
0.57884
0.578837
0.578837
0.578833
0.578829
0.578826
0.578822
0.578822
0.578818
0.578815
0.578811
0.578808
0.578808
0.578804
0.5788
0.578796
0.578793
0.578793
0.578789
0.578785
0.578782
0.578778
0.578778
0.578774
0.578771
0.578767
0.578763
0.578763
0.57876
0.578756
0.578752
0.578749
0.578749
0.578745
0.578741
0.578738
0.578734
0.578734
0.57873
0.578727
0.578723
0.578719
0.578719
0.578715
0.578712
0.578708
0.578704
0.578704
0.578701
0.578697
0.578693
0.57869
0.57869
0.578686
0.578682
0.578678
0.578675
0.578675
0.578671
0.578667
0.578664
0.57866
0.57866
0.578656
0.578653
0.578649
0.578645
0.578645
0.578641
0.578638
0.578634
0.57863
0.57863
0.578627
0.578623
0.578619
0.578615
0.578615
0.578612
0.578608
0.578604
0.5786
0.5786
0.578597
0.578593
0.578589
0.578586
0.578586
0.578582
0.578578
0.578574
0.578571
0.578571
0.578567
0.578563
0.578559
0.578556
0.578556
0.578552
0.578548
0.578544
0.578541
0.578541
0.578537
0.578533
0.578529
0.578526
0.578526
0.578522
0.578518
0.578514
0.578511
0.578511
0.578507
0.578503
0.578499
0.578496
0.578496
0.578492
0.578488
0.578484
0.578481
0.578481
0.578477
0.578473
0.578469
0.578466
0.578466
0.578462
0.578458
0.578454
0.578451
0.578451
0.578447
0.578443
0.578439
0.578435
0.578435
0.578432
0.578428
0.578424
0.57842
0.57842
0.578417
0.578413
0.578409
0.578405
0.578405
0.578401
0.578398
0.578394
0.57839
0.57839
0.578386
0.578383
0.578379
0.578375
0.578375
0.578371
0.578367
0.578364
0.57836
0.57836
0.578356
0.578352
0.578349
0.578345
0.578345
0.578341
0.578337
0.578333
0.57833
0.57833
0.578326
0.578322
0.578318
0.578314
0.578314
0.578311
0.578307
0.578303
0.578299
0.578299
0.578295
0.578292
0.578288
0.578284
0.578284
0.57828
0.578276
0.578273
0.578269
0.578269
0.578265
0.578261
0.578257
0.578253
0.578253
0.57825
0.578246
0.578242
0.578238
0.578238
0.578234
0.578231
0.578227
0.578223
0.578223
0.578219
0.578215
0.578212
0.578208
0.578208
0.578204
0.5782
0.578196
0.578192
0.578192
0.578189
0.578185
0.578181
0.578177
0.578177
0.578173
0.578169
0.578166
0.578162
0.578162
0.578158
0.578154
0.57815
0.578146
0.578146
0.578143
0.578139
0.578135
0.578131
0.578131
0.578127
0.578123
0.57812
0.578116
0.578116
0.578112
0.578108
0.578104
0.5781
0.5781
0.578097
0.578093
0.578089
0.578085
0.578085
0.578081
0.578077
0.578074
0.57807
0.57807
0.578066
0.578062
0.578058
0.578054
0.578054
0.57805
0.578047
0.578043
0.578039
0.578039
0.578035
0.578031
0.578027
0.578024
0.578024
0.57802
0.578016
0.578012
0.578008
0.578008
0.578004
0.578
0.577997
0.577993
0.577993
0.577989
0.577985
0.577981
0.577977
0.577977
0.577973
0.57797
0.577966
0.577962
0.577962
0.577958
0.577954
0.57795
0.577946
0.577946
0.577943
0.577939
0.577935
0.577931
0.577931
0.577927
0.577923
0.577919
0.577915
0.577915
0.577912
0.577908
0.577904
0.5779
0.5779
0.577896
0.577892
0.577888
0.577885
0.577885
0.577881
0.577877
0.577873
0.577869
0.577869
0.577865
0.577861
0.577857
0.577854
0.577854
0.57785
0.577846
0.577842
0.577838
0.577838
0.577834
0.57783
0.577826
0.577823
0.577823
0.577819
0.577815
0.577811
0.577807
0.577807
0.577803
0.577799
0.577795
0.577792
0.577792
0.577788
0.577784
0.57778
0.577776
0.577776
0.577772
0.577768
0.577764
0.577761
0.577761
0.577757
0.577753
0.577749
0.577745
0.577745
0.577741
0.577737
0.577733
0.577729
0.577729
0.577726
0.577722
0.577718
0.577714
0.577714
0.57771
0.577706
0.577702
0.577698
0.577698
0.577695
0.577691
0.577687
0.577683
0.577683
0.577679
0.577675
0.577671
0.577667
0.577667
0.577663
0.57766
0.577656
0.577652
0.577652
0.577648
0.577644
0.57764
0.577636
0.577636
0.577632
0.577628
0.577625
0.577621
0.577621
0.577617
0.577613
0.577609
0.577605
0.577605
0.577601
0.577597
0.577594
0.57759
0.57759
0.577586
0.577582
0.577578
0.577574
0.577574
0.57757
0.577566
0.577562
0.577559
0.577559
0.577555
0.577551
0.577547
0.577543
0.577543
0.577539
0.577535
0.577531
0.577527
0.577527
0.577524
0.57752
0.577516
0.577512
0.577512
0.577508
0.577504
0.5775
0.577496
0.577496
0.577492
0.577489
0.577485
0.577481
0.577481
0.577477
0.577473
0.577469
0.577465
0.577465
0.577461
0.577457
0.577454
0.57745
0.57745
0.577446
0.577442
0.577438
0.577434
0.577434
0.57743
0.577426
0.577422
0.577419
0.577419
0.577415
0.577411
0.577407
0.577403
0.577403
0.577399
0.577395
0.577391
0.577387
0.577387
0.577384
0.57738
0.577376
0.577372
0.577372
0.577368
0.577364
0.57736
0.577356
0.577356
0.577353
0.577349
0.577345
0.577341
0.577341
0.577337
0.577333
0.577329
0.577325
0.577325
0.577321
0.577318
0.577314
0.57731
0.57731
0.577306
0.577302
0.577298
0.577294
0.577294
0.57729
0.577287
0.577283
0.577279
0.577279
0.577275
0.577271
0.577267
0.577263
0.577263
0.577259
0.577256
0.577252
0.577248
0.577248
0.577244
0.57724
0.577236
0.577232
0.577232
0.577228
0.577225
0.577221
0.577217
0.577217
0.577213
0.577209
0.577205
0.577201
0.577201
0.577197
0.577194
0.57719
0.577186
0.577186
0.577182
0.577178
0.577174
0.57717
0.57717
0.577167
0.577163
0.577159
0.577155
0.577155
0.577151
0.577147
0.577143
0.577139
0.577139
0.577136
0.577132
0.577128
0.577124
0.577124
0.57712
0.577116
0.577112
0.577109
0.577109
0.577105
0.577101
0.577097
0.577093
0.577093
0.577089
0.577085
0.577082
0.577078
0.577078
0.577074
0.57707
0.577066
0.577062
0.577062
0.577058
0.577055
0.577051
0.577047
0.577047
0.577043
0.577039
0.577035
0.577032
0.577032
0.577028
0.577024
0.57702
0.577016
0.577016
0.577012
0.577008
0.577005
0.577001
0.577001
0.576997
0.576993
0.576989
0.576985
0.576985
0.576982
0.576978
0.576974
0.57697
0.57697
0.576966
0.576962
0.576959
0.576955
0.576955
0.576951
0.576947
0.576943
0.576939
0.576939
0.576936
0.576932
0.576928
0.576924
0.576924
0.57692
0.576917
0.576913
0.576909
0.576909
0.576905
0.576901
0.576897
0.576894
0.576894
0.57689
0.576886
0.576882
0.576878
0.576878
0.576875
0.576871
0.576867
0.576863
0.576863
0.576859
0.576855
0.576852
0.576848
0.576848
0.576844
0.57684
0.576836
0.576833
0.576833
0.576829
0.576825
0.576821
0.576817
0.576817
0.576814
0.57681
0.576806
0.576802
0.576802
0.576798
0.576795
0.576791
0.576787
0.576787
0.576783
0.576779
0.576776
0.576772
0.576772
0.576768
0.576764
0.576761
0.576757
0.576757
0.576753
0.576749
0.576745
0.576742
0.576742
0.576738
0.576734
0.57673
0.576727
0.576727
0.576723
0.576719
0.576715
0.576711
0.576711
0.576708
0.576704
0.5767
0.576696
0.576696
0.576693
0.576689
0.576685
0.576681
0.576681
0.576678
0.576674
0.57667
0.576666
0.576666
0.576663
0.576659
0.576655
0.576651
0.576651
0.576648
0.576644
0.57664
0.576636
0.576636
0.576633
0.576629
0.576625
0.576621
0.576621
0.576618
0.576614
0.57661
0.576606
0.576606
0.576603
0.576599
0.576595
0.576591
0.576591
0.576588
0.576584
0.57658
0.576577
0.576577
0.576573
0.576569
0.576565
0.576562
0.576562
0.576558
0.576554
0.57655
0.576547
0.576547
0.576543
0.576539
0.576536
0.576532
0.576532
0.576528
0.576525
0.576521
0.576517
0.576517
0.576513
0.57651
0.576506
0.576502
0.576502
0.576499
0.576495
0.576491
0.576488
0.576488
0.576484
0.57648
0.576476
0.576473
0.576473
0.576469
0.576465
0.576462
0.576458
0.576458
0.576454
0.576451
0.576447
0.576444
0.576444
0.57644
0.576437
0.576434
0.576431
0.576431
0.576428
0.576426
0.576423
0.57642
0.57642
0.576417
0.576415
0.576412
0.576409
0.576409
0.576406
0.576404
0.576401
0.576398
0.576398
0.576395
0.576393
0.57639
0.576387
0.576387
0.576384
0.576382
0.576379
0.576376
0.576376
0.576374
0.576371
0.576368
0.576365
0.576365
0.576363
0.57636
0.576357
0.576355
0.576355
0.576352
0.576349
0.576346
0.576344
0.576344
0.576341
0.576338
0.576336
0.576333
0.576333
0.57633
0.576328
0.576325
0.576322
0.576322
0.57632
0.576317
0.576314
0.576312
0.576312
0.576309
0.576306
0.576304
0.576301
0.576301
0.576298
0.576296
0.576293
0.57629
0.57629
0.576288
0.576285
0.576282
0.57628
0.57628
0.576277
0.576274
0.576272
0.576269
0.576269
0.576266
0.576264
0.576261
0.576259
0.576259
0.576256
0.576253
0.576251
0.576248
0.576248
0.576245
0.576243
0.57624
0.576238
0.576238
0.576235
0.576232
0.57623
0.576227
0.576227
0.576225
0.576222
0.576219
0.576217
0.576217
0.576214
0.576212
0.576209
0.576206
0.576206
0.576204
0.576201
0.576199
0.576196
0.576196
0.576193
0.576191
0.576188
0.576186
0.576186
0.576183
0.576181
0.576178
0.576175
0.576175
0.576173
0.57617
0.576168
0.576165
0.576165
0.576163
0.57616
0.576158
0.576155
0.576155
0.576153
0.57615
0.576147
0.576145
0.576145
0.576142
0.57614
0.576137
0.576135
0.576135
0.576132
0.57613
0.576127
0.576125
0.576125
0.576122
0.57612
0.576117
0.576115
0.576115
0.576112
0.57611
0.576107
0.576105
0.576105
0.576102
0.5761
0.576097
0.576095
0.576095
0.576092
0.57609
0.576087
0.576085
0.576085
0.576082
0.57608
0.576077
0.576075
0.576075
0.576072
0.57607
0.576067
0.576065
0.576065
0.576062
0.57606
0.576058
0.576055
0.576055
0.576053
0.57605
0.576048
0.576045
0.576045
0.576043
0.57604
0.576038
0.576035
0.576035
0.576033
0.576031
0.576028
0.576026
0.576026
0.576023
0.576021
0.576018
0.576016
0.576016
0.576014
0.576011
0.576009
0.576006
0.576006
0.576004
0.576001
0.575999
0.575997
0.575997
0.575994
0.575992
0.575989
0.575987
0.575987
0.575985
0.575982
0.57598
0.575977
0.575977
0.575975
0.575973
0.57597
0.575968
0.575968
0.575966
0.575963
0.575961
0.575958
0.575958
0.575956
0.575954
0.575951
0.575949
0.575949
0.575947
0.575944
0.575942
0.575939
0.575939
0.575937
0.575935
0.575932
0.57593
0.57593
0.575928
0.575925
0.575923
0.575921
0.575921
0.575918
0.575916
0.575914
0.575911
0.575911
0.575909
0.575907
0.575904
0.575902
0.575902
0.5759
0.575897
0.575895
0.575893
0.575893
0.57589
0.575888
0.575886
0.575883
0.575883
0.575881
0.575879
0.575877
0.575874
0.575874
0.575872
0.57587
0.575867
0.575865
0.575865
0.575863
0.57586
0.575858
0.575856
0.575856
0.575854
0.575851
0.575849
0.575847
0.575847
0.575845
0.575842
0.57584
0.575838
0.575838
0.575835
0.575833
0.575831
0.575829
0.575829
0.575826
0.575824
0.575822
0.57582
0.57582
0.575817
0.575815
0.575813
0.575811
0.575811
0.575808
0.575806
0.575804
0.575802
0.575802
0.575799
0.575797
0.575795
0.575793
0.575793
0.57579
0.575788
0.575786
0.575784
0.575784
0.575782
0.575779
0.575777
0.575775
0.575775
0.575773
0.575771
0.575768
0.575766
0.575766
0.575764
0.575762
0.575759
0.575757
0.575757
0.575755
0.575753
0.575751
0.575749
0.575749
0.575746
0.575744
0.575742
0.57574
0.57574
0.575738
0.575735
0.575733
0.575731
0.575731
0.575729
0.575727
0.575725
0.575722
0.575722
0.57572
0.575718
0.575716
0.575714
0.575714
0.575712
0.575709
0.575707
0.575705
0.575705
0.575703
0.575701
0.575699
0.575696
0.575696
0.575694
0.575692
0.57569
0.575688
0.575688
0.575686
0.575684
0.575682
0.575679
0.575679
0.575677
0.575675
0.575673
0.575671
0.575671
0.575669
0.575667
0.575665
0.575662
0.575662
0.57566
0.575658
0.575656
0.575654
0.575654
0.575652
0.57565
0.575648
0.575646
0.575646
0.575643
0.575641
0.575639
0.575637
0.575637
0.575635
0.575633
0.575631
0.575629
0.575629
0.575627
0.575625
0.575623
0.57562
0.57562
0.575618
0.575616
0.575614
0.575612
0.575612
0.57561
0.575608
0.575606
0.575604
0.575604
0.575602
0.5756
0.575598
0.575596
0.575596
0.575594
0.575592
0.575589
0.575587
0.575587
0.575585
0.575583
0.575581
0.575579
0.575579
0.575577
0.575575
0.575573
0.575571
0.575571
0.575569
0.575567
0.575565
0.575563
0.575563
0.575561
0.575559
0.575557
0.575555
0.575555
0.575553
0.575551
0.575549
0.575547
0.575547
0.575545
0.575543
0.575541
0.575539
0.575539
0.575537
0.575535
0.575533
0.575531
0.575531
0.575529
0.575527
0.575525
0.575523
0.575523
0.575521
0.575519
0.575517
0.575515
0.575515
0.575513
0.575511
0.575509
0.575507
0.575507
0.575505
0.575503
0.575501
0.575499
0.575499
0.575497
0.575495
0.575493
0.575491
0.575491
0.575489
0.575487
0.575485
0.575483
0.575483
0.575481
0.575479
0.575477
0.575475
0.575475
0.575473
0.575471
0.575469
0.575468
0.575468
0.575466
0.575464
0.575462
0.57546
0.57546
0.575458
0.575456
0.575454
0.575452
0.575452
0.57545
0.575448
0.575446
0.575444
0.575444
0.575442
0.57544
0.575438
0.575437
0.575437
0.575435
0.575433
0.575431
0.575429
0.575429
0.575427
0.575425
0.575423
0.575421
0.575421
0.575419
0.575417
0.575415
0.575414
0.575414
0.575412
0.57541
0.575408
0.575406
0.575406
0.575404
0.575402
0.5754
0.575398
0.575398
0.575397
0.575395
0.575393
0.575391
0.575391
0.575389
0.575387
0.575385
0.575383
0.575383
0.575381
0.57538
0.575378
0.575376
0.575376
0.575374
0.575372
0.57537
0.575368
0.575368
0.575366
0.575365
0.575363
0.575361
0.575361
0.575359
0.575357
0.575355
0.575353
0.575353
0.575352
0.57535
0.575349
0.575347
0.575347
0.575346
0.575345
0.575343
0.575342
0.575342
0.57534
0.575339
0.575337
0.575336
0.575336
0.575334
0.575333
0.575332
0.57533
0.57533
0.575329
0.575327
0.575326
0.575324
0.575324
0.575323
0.575322
0.57532
0.575319
0.575319
0.575317
0.575316
0.575315
0.575313
0.575313
0.575312
0.57531
0.575309
0.575308
0.575308
0.575306
0.575305
0.575303
0.575302
0.575302
0.575301
0.575299
0.575298
0.575296
0.575296
0.575295
0.575294
0.575292
0.575291
0.575291
0.575289
0.575288
0.575287
0.575285
0.575285
0.575284
0.575283
0.575281
0.57528
0.57528
0.575278
0.575277
0.575276
0.575274
0.575274
0.575273
0.575272
0.57527
0.575269
0.575269
0.575268
0.575266
0.575265
0.575264
0.575264
0.575262
0.575261
0.57526
0.575258
0.575258
0.575257
0.575256
0.575254
0.575253
0.575253
0.575252
0.57525
0.575249
0.575248
0.575248
0.575246
0.575245
0.575244
0.575242
0.575242
0.575241
0.57524
0.575238
0.575237
0.575237
0.575236
0.575235
0.575233
0.575232
0.575232
0.575231
0.575229
0.575228
0.575227
0.575227
0.575226
0.575224
0.575223
0.575222
0.575222
0.57522
0.575219
0.575218
0.575217
0.575217
0.575215
0.575214
0.575213
0.575211
0.575211
0.57521
0.575209
0.575208
0.575206
0.575206
0.575205
0.575204
0.575203
0.575201
0.575201
0.5752
0.575199
0.575198
0.575196
0.575196
0.575195
0.575194
0.575193
0.575191
0.575191
0.57519
0.575189
0.575188
0.575187
0.575187
0.575185
0.575184
0.575183
0.575182
0.575182
0.57518
0.575179
0.575178
0.575177
0.575177
0.575176
0.575174
0.575173
0.575172
0.575172
0.575171
0.57517
0.575168
0.575167
0.575167
0.575166
0.575165
0.575164
0.575162
0.575162
0.575161
0.57516
0.575159
0.575158
0.575158
0.575157
0.575155
0.575154
0.575153
0.575153
0.575152
0.575151
0.575149
0.575148
0.575148
0.575147
0.575146
0.575145
0.575144
0.575144
0.575142
0.575141
0.57514
0.575139
0.575139
0.575138
0.575137
0.575136
0.575134
0.575134
0.575133
0.575132
0.575131
0.57513
0.57513
0.575129
0.575128
0.575126
0.575125
0.575125
0.575124
0.575123
0.575122
0.575121
0.575121
0.57512
0.575119
0.575118
0.575116
0.575116
0.575115
0.575114
0.575113
0.575112
0.575112
0.575111
0.57511
0.575109
0.575108
0.575108
0.575106
0.575105
0.575104
0.575103
0.575103
0.575102
0.575101
0.5751
0.575099
0.575099
0.575098
0.575097
0.575096
0.575094
0.575094
0.575093
0.575092
0.575091
0.57509
0.57509
0.575089
0.575088
0.575087
0.575086
0.575086
0.575085
0.575084
0.575083
0.575082
0.575082
0.575081
0.57508
0.575079
0.575078
0.575078
0.575076
0.575075
0.575074
0.575073
0.575073
0.575072
0.575071
0.57507
0.575069
0.575069
0.575068
0.575067
0.575066
0.575065
0.575065
0.575064
0.575063
0.575062
0.575061
0.575061
0.57506
0.575059
0.575058
0.575057
0.575057
0.575056
0.575055
0.575054
0.575053
0.575053
0.575052
0.575051
0.57505
0.575049
0.575049
0.575048
0.575047
0.575046
0.575045
0.575045
0.575044
0.575043
0.575042
0.575041
0.575041
0.57504
0.575039
0.575038
0.575037
0.575037
0.575036
0.575035
0.575034
0.575033
0.575033
0.575032
0.575031
0.57503
0.575029
0.575029
0.575028
0.575028
0.575027
0.575026
0.575026
0.575025
0.575024
0.575023
0.575022
0.575022
0.575021
0.57502
0.575019
0.575018
0.575018
0.575017
0.575016
0.575015
0.575014
0.575014
0.575013
0.575012
0.575012
0.575011
0.575011
0.57501
0.575009
0.575008
0.575007
0.575007
0.575006
0.575005
0.575004
0.575003
0.575003
0.575002
0.575002
0.575001
0.575
0.575
0.574999
0.574998
0.574997
0.574996
0.574996
0.574995
0.574994
0.574993
0.574993
0.574993
0.574992
0.574991
0.57499
0.574989
0.574989
0.574988
0.574987
0.574986
0.574986
0.574986
0.574985
0.574984
0.574983
0.574982
0.574982
0.574981
0.57498
0.574979
0.574979
0.574979
0.574978
0.574977
0.574976
0.574975
0.574975
0.574974
0.574974
0.574973
0.574972
0.574972
0.574971
0.57497
0.574969
0.574968
0.574968
0.574968
0.574967
0.574966
0.574965
0.574965
0.574964
0.574964
0.574963
0.574962
0.574962
0.574961
0.57496
0.574959
0.574959
0.574959
0.574958
0.574957
0.574956
0.574955
0.574955
0.574955
0.574954
0.574953
0.574952
0.574952
0.574951
0.574951
0.57495
0.574949
0.574949
0.574948
0.574947
0.574947
0.574946
0.574946
0.574945
0.574944
0.574943
0.574943
0.574943
0.574942
0.574941
0.57494
0.57494
0.57494
0.574939
0.574938
0.574937
0.574936
0.574936
0.574936
0.574935
0.574934
0.574933
0.574933
0.574933
0.574932
0.574931
0.57493
0.57493
0.574929
0.574929
0.574928
0.574927
0.574927
0.574927
0.574926
0.574925
0.574925
0.574925
0.574924
0.574923
0.574923
0.574922
0.574922
0.574921
0.574921
0.57492
0.574919
0.574919
0.574919
0.574918
0.574917
0.574917
0.574917
0.574916
0.574915
0.574915
0.574914
0.574914
0.574913
0.574913
0.574912
0.574912
0.574912
0.574911
0.57491
0.57491
0.574909
0.574909
0.574908
0.574908
0.574907
0.574906
0.574906
0.574906
0.574905
0.574904
0.574904
0.574904
0.574903
0.574903
0.574902
0.574901
0.574901
0.574901
0.5749
0.5749
0.574899
0.574899
0.574898
0.574898
0.574897
0.574897
0.574897
0.574896
0.574895
0.574895
0.574894
0.574894
0.574894
0.574893
0.574892
0.574892
0.574892
0.574891
0.574891
0.57489
0.574889
0.574889
0.574889
0.574888
0.574888
0.574887
0.574887
0.574887
0.574886
0.574885
0.574885
0.574885
0.574884
0.574884
0.574883
0.574883
0.574883
0.574882
0.574882
0.574881
0.57488
0.57488
0.57488
0.574879
0.574879
0.574878
0.574878
0.574878
0.574877
0.574877
0.574876
0.574876
0.574876
0.574875
0.574875
0.574874
0.574874
0.574873
0.574873
0.574872
0.574872
0.574872
0.574871
0.574871
0.57487
0.57487
0.57487
0.574869
0.574869
0.574868
0.574868
0.574868
0.574867
0.574867
0.574866
0.574866
0.574866
0.574865
0.574865
0.574864
0.574864
0.574864
0.574863
0.574863
0.574862
0.574862
0.574862
0.574861
0.574861
0.574861
0.57486
0.57486
0.57486
0.574859
0.574859
0.574858
0.574858
0.574858
0.574857
0.574857
0.574856
0.574856
0.574856
0.574855
0.574855
0.574855
0.574855
0.574854
0.574854
0.574853
0.574853
0.574853
0.574852
0.574852
0.574851
0.574851
0.574851
0.574851
0.57485
0.57485
0.574849
0.574849
0.574849
0.574849
0.574848
0.574848
0.574848
0.574847
0.574847
0.574846
0.574846
0.574846
0.574846
0.574845
0.574845
0.574844
0.574844
0.574844
0.574844
0.574843
0.574843
0.574843
0.574842
0.574842
0.574842
0.574841
0.574841
0.574841
0.574841
0.57484
0.57484
0.57484
0.574839
0.574839
0.574839
0.574838
0.574838
0.574838
0.574838
0.574837
0.574837
0.574837
0.574837
0.574836
0.574836
0.574835
0.574835
0.574835
0.574835
0.574834
0.574834
0.574834
0.574834
0.574833
0.574833
0.574833
0.574833
0.574832
0.574832
0.574832
0.574831
0.574831
0.574831
0.574831
0.57483
0.57483
0.57483
0.57483
0.574829
0.574829
0.574829
0.574829
0.574829
0.574828
0.574828
0.574828
0.574828
0.574827
0.574827
0.574827
0.574826
0.574826
0.574826
0.574826
0.574826
0.574825
0.574825
0.574825
0.574825
0.574824
0.574824
0.574824
0.574824
0.574824
0.574823
0.574823
0.574823
0.574823
0.574823
0.574822
0.574822
0.574822
0.574822
0.574821
0.574821
0.574821
0.574821
0.574821
0.57482
0.57482
0.57482
0.57482
0.57482
0.57482
0.574819
0.574819
0.574819
0.574819
0.574819
0.574818
0.574818
0.574818
0.574818
0.574818
0.574817
0.574817
0.574817
0.574817
0.574817
0.574817
0.574816
0.574816
0.574816
0.574816
0.574816
0.574816
0.574816
0.574815
0.574815
0.574815
0.574815
0.574815
0.574815
0.574814
0.574814
0.574814
0.574814
0.574814
0.574814
0.574813
0.574813
0.574813
0.574813
0.574813
0.574813
0.574813
0.574813
0.574812
0.574812
0.574812
0.574812
0.574812
0.574812
0.574812
0.574811
0.574811
0.574811
0.574811
0.574811
0.574811
0.574811
0.574811
0.574811
0.57481
0.57481
0.57481
0.57481
0.57481
0.57481
0.57481
0.57481
0.57481
0.574809
0.574809
0.574809
0.574809
0.574809
0.574809
0.574809
0.574809
0.574809
0.574809
0.574809
0.574808
0.574808
0.574808
0.574808
0.574808
0.574808
0.574808
0.574808
0.574808
0.574808
0.574808
0.574808
0.574807
0.574807
0.574807
0.574807
0.574807
0.574807
0.574807
0.574807
0.574807
0.574807
0.574807
0.574807
0.574807
0.574807
0.574807
0.574807
0.574807
0.574807
0.574806
0.574806
0.574806
0.574806
0.574806
0.574806
0.574806
0.574806
0.574806
0.574806
0.574806
0.574806
0.574805
0.574805
0.574806
0.574806
0.574806