<?xml version="1.0"?>
<VTKFile type="UnstructuredGrid" version="0.1" byte_order="LittleEndian">
<UnstructuredGrid>
<Piece NumberOfPoints="5000" NumberOfCells="4000">
<PointData Scalars="Reaction 0">
<DataArray type="Float32" Name="Reaction 0" format="ascii">
0.614583
0.614583
0.614583
0.614584
0.614584
0.614584
0.614584
0.614584
0.614584
0.614584
0.614584
0.614584
0.614584
0.614584
0.614584
0.614584
0.614584
0.614584
0.614584
0.614584
0.614584
0.614585
0.614585
0.614585
0.614585
0.614585
0.614585
0.614585
0.614585
0.614586
0.614586
0.614586
0.614586
0.614586
0.614586
0.614586
0.614587
0.614587
0.614587
0.614587
0.614587
0.614587
0.614588
0.614588
0.614588
0.614588
0.614588
0.614589
0.614589
0.614589
0.614589
0.61459
0.61459
0.61459
0.61459
0.61459
0.614591
0.614591
0.614591
0.614592
0.614592
0.614592
0.614592
0.614593
0.614593
0.614593
0.614594
0.614594
0.614594
0.614595
0.614595
0.614595
0.614596
0.614596
0.614596
0.614596
0.614597
0.614597
0.614598
0.614598
0.614598
0.614599
0.614599
0.6146
0.6146
0.6146
0.614601
0.614601
0.614602
0.614602
0.614602
0.614603
0.614603
0.614604
0.614604
0.614604
0.614605
0.614605
0.614606
0.614607
0.614607
0.614607
0.614608
0.614608
0.614609
0.614609
0.614609
0.61461
0.614611
0.614611
0.614611
0.614612
0.614613
0.614613
0.614614
0.614614
0.614615
0.614615
0.614616
0.614617
0.614617
0.614617
0.614618
0.614619
0.614619
0.614619
0.61462
0.614621
0.614622
0.614622
0.614622
0.614623
0.614624
0.614625
0.614625
0.614625
0.614626
0.614627
0.614628
0.614629
0.614629
0.614629
0.61463
0.614631
0.614632
0.614632
0.614633
0.614634
0.614634
0.614635
0.614635
0.614636
0.614637
0.614638
0.614639
0.614639
0.61464
0.614641
0.614642
0.614642
0.614642
0.614643
0.614644
0.614645
0.614646
0.614646
0.614647
0.614648
0.614649
0.61465
0.61465
0.614651
0.614652
0.614653
0.614654
0.614654
0.614655
0.614656
0.614657
0.614658
0.614658
0.614659
0.61466
0.614661
0.614662
0.614662
0.614663
0.614664
0.614666
0.614667
0.614667
0.614668
0.614669
0.61467
0.614671
0.614671
0.614672
0.614673
0.614674
0.614676
0.614676
0.614677
0.614678
0.614679
0.61468
0.61468
0.614681
0.614683
0.614684
0.614685
0.614685
0.614686
0.614687
0.614689
0.61469
0.61469
0.614691
0.614692
0.614694
0.614695
0.614695
0.614696
0.614698
0.614699
0.6147
0.6147
0.614701
0.614703
0.614704
0.614705
0.614705
0.614707
0.614708
0.614709
0.614711
0.614711
0.614712
0.614713
0.614715
0.614716
0.614716
0.614718
0.614719
0.61472
0.614722
0.614722
0.614723
0.614725
0.614726
0.614727
0.614727
0.614729
0.61473
0.614732
0.614733
0.614733
0.614735
0.614736
0.614738
0.614739
0.614739
0.614741
0.614742
0.614744
0.614745
0.614745
0.614747
0.614748
0.61475
0.614751
0.614751
0.614753
0.614755
0.614756
0.614758
0.614758
0.614759
0.614761
0.614763
0.614764
0.614764
0.614766
0.614767
0.614769
0.614771
0.614771
0.614772
0.614774
0.614776
0.614777
0.614777
0.614779
0.614781
0.614782
0.614784
0.614784
0.614786
0.614787
0.614789
0.614791
0.614791
0.614793
0.614794
0.614796
0.614798
0.614798
0.6148
0.614801
0.614803
0.614805
0.614805
0.614807
0.614809
0.61481
0.614812
0.614812
0.614814
0.614816
0.614818
0.61482
0.61482
0.614821
0.614823
0.614825
0.614827
0.614827
0.614829
0.614831
0.614833
0.614835
0.614835
0.614836
0.614838
0.61484
0.614842
0.614842
0.614844
0.614846
0.614848
0.61485
0.61485
0.614852
0.614854
0.614856
0.614858
0.614858
0.61486
0.614862
0.614864
0.614866
0.614866
0.614868
0.61487
0.614872
0.614874
0.614874
0.614876
0.614878
0.61488
0.614882
0.614882
0.614885
0.614887
0.614889
0.614891
0.614891
0.614893
0.614895
0.614897
0.614899
0.614899
0.614901
0.614904
0.614906
0.614908
0.614908
0.61491
0.614912
0.614914
0.614917
0.614917
0.614919
0.614921
0.614923
0.614925
0.614925
0.614928
0.61493
0.614932
0.614934
0.614934
0.614937
0.614939
0.614941
0.614944
0.614944
0.614946
0.614948
0.61495
0.614953
0.614953
0.614955
0.614957
0.61496
0.614962
0.614962
0.614964
0.614967
0.614969
0.614971
0.614971
0.614974
0.614976
0.614979
0.614981
0.614981
0.614983
0.614986
0.614988
0.614991
0.614991
0.614993
0.614996
0.614998
0.615
0.615
0.615003
0.615005
0.615008
0.61501
0.61501
0.615013
0.615015
0.615018
0.61502
0.61502
0.615023
0.615025
0.615028
0.615031
0.615031
0.615033
0.615036
0.615038
0.615041
0.615041
0.615043
0.615046
0.615049
0.615051
0.615051
0.615054
0.615056
0.615059
0.615062
0.615062
0.615064
0.615067
0.61507
0.615072
0.615072
0.615075
0.615078
0.61508
0.615083
0.615083
0.615086
0.615088
0.615091
0.615094
0.615094
0.615097
0.615099
0.615102
0.615105
0.615105
0.615108
0.61511
0.615113
0.615116
0.615116
0.615119
0.615121
0.615124
0.615127
0.615127
0.61513
0.615133
0.615136
0.615138
0.615138
0.615141
0.615144
0.615147
0.61515
0.61515
0.615153
0.615156
0.615158
0.615161
0.615161
0.615164
0.615167
0.61517
0.615173
0.615173
0.615176
0.615179
0.615182
0.615185
0.615185
0.615188
0.615191
0.615194
0.615197
0.615197
0.6152
0.615203
0.615206
0.615209
0.615209
0.615212
0.615215
0.615218
0.615221
0.615221
0.615224
0.615227
0.61523
0.615233
0.615233
0.615236
0.615239
0.615242
0.615246
0.615246
0.615249
0.615252
0.615255
0.615258
0.615258
0.615261
0.615264
0.615267
0.615271
0.615271
0.615274
0.615277
0.61528
0.615283
0.615283
0.615287
0.61529
0.615293
0.615296
0.615296
0.615299
0.615303
0.615306
0.615309
0.615309
0.615312
0.615316
0.615319
0.615322
0.615322
0.615326
0.615329
0.615332
0.615336
0.615336
0.615339
0.615342
0.615346
0.615349
0.615349
0.615352
0.615356
0.615359
0.615362
0.615362
0.615366
0.615369
0.615372
0.615376
0.615376
0.615379
0.615383
0.615386
0.61539
0.61539
0.615393
0.615396
0.6154
0.615403
0.615403
0.615407
0.61541
0.615414
0.615417
0.615417
0.615421
0.615424
0.615428
0.615431
0.615431
0.615435
0.615438
0.615442
0.615446
0.615446
0.615449
0.615453
0.615456
0.61546
0.61546
0.615463
0.615467
0.615471
0.615474
0.615474
0.615478
0.615481
0.615485
0.615489
0.615489
0.615492
0.615496
0.6155
0.615503
0.615503
0.615507
0.615511
0.615514
0.615518
0.615518
0.615522
0.615526
0.615529
0.615533
0.615533
0.615537
0.615541
0.615544
0.615548
0.615548
0.615552
0.615556
0.615559
0.615563
0.615563
0.615567
0.615571
0.615575
0.615578
0.615578
0.615582
0.615586
0.61559
0.615594
0.615594
0.615598
0.615601
0.615605
0.615609
0.615609
0.615613
0.615617
0.615621
0.615625
0.615625
0.615629
0.615633
0.615637
0.615641
0.615641
0.615645
0.615648
0.615652
0.615656
0.615656
0.61566
0.615664
0.615668
0.615672
0.615672
0.615676
0.61568
0.615684
0.615688
0.615688
0.615693
0.615697
0.615701
0.615705
0.615705
0.615709
0.615713
0.615717
0.615721
0.615721
0.615725
0.615729
0.615733
0.615737
0.615737
0.615742
0.615746
0.61575
0.615754
0.615754
0.615758
0.615762
0.615767
0.615771
0.615771
0.615775
0.615779
0.615783
0.615788
0.615788
0.615792
0.615796
0.6158
0.615805
0.615805
0.615809
0.615813
0.615817
0.615822
0.615822
0.615826
0.61583
0.615834
0.615839
0.615839
0.615843
0.615847
0.615852
0.615856
0.615856
0.61586
0.615865
0.615869
0.615873
0.615873
0.615878
0.615882
0.615887
0.615891
0.615891
0.615895
0.6159
0.615904
0.615909
0.615909
0.615913
0.615918
0.615922
0.615926
0.615926
0.615931
0.615935
0.61594
0.615944
0.615944
0.615949
0.615953
0.615958
0.615962
0.615962
0.615967
0.615972
0.615976
0.615981
0.615981
0.615985
0.61599
0.615994
0.615999
0.615999
0.616003
0.616008
0.616013
0.616017
0.616017
0.616022
0.616027
0.616031
0.616036
0.616036
0.61604
0.616045
0.61605
0.616054
0.616054
0.616059
0.616064
0.616069
0.616073
0.616073
0.616078
0.616083
0.616087
0.616092
0.616092
0.616097
0.616102
0.616106
0.616111
0.616111
0.616116
0.616121
0.616126
0.61613
0.61613
0.616135
0.61614
0.616145
0.61615
0.61615
0.616154
0.616159
0.616164
0.616169
0.616169
0.616174
0.616179
0.616184
0.616188
0.616188
0.616193
0.616198
0.616203
0.616208
0.616208
0.616213
0.616218
0.616223
0.616228
0.616228
0.616233
0.616238
0.616243
0.616248
0.616248
0.616253
0.616258
0.616263
0.616268
0.616268
0.616273
0.616278
0.616283
0.616288
0.616288
0.616293
0.616298
0.616303
0.616308
0.616308
0.616313
0.616318
0.616323
0.616329
0.616329
0.616334
0.616339
0.616344
0.616349
0.616349
0.616354
0.616359
0.616364
0.61637
0.61637
0.616375
0.61638
0.616385
0.61639
0.61639
0.616396
0.616401
0.616406
0.616411
0.616411
0.616417
0.616422
0.616427
0.616432
0.616432
0.616438
0.616443
0.616448
0.616453
0.616453
0.616459
0.616464
0.616469
0.616475
0.616475
0.61648
0.616485
0.616491
0.616496
0.616496
0.616501
0.616507
0.616512
0.616518
0.616518
0.616523
0.616528
0.616534
0.616539
0.616539
0.616545
0.61655
0.616556
0.616561
0.616561
0.616566
0.616572
0.616577
0.616583
0.616583
0.616588
0.616594
0.616599
0.616605
0.616605
0.61661
0.616616
0.616621
0.616627
0.616627
0.616633
0.616638
0.616644
0.616649
0.616649
0.616655
0.61666
0.616666
0.616672
0.616672
0.616677
0.616683
0.616688
0.616694
0.616694
0.6167
0.616705
0.616711
0.616716
0.616716
0.616722
0.616728
0.616733
0.616739
0.616739
0.616744
0.61675
0.616756
0.616762
0.616762
0.616767
0.616773
0.616779
0.616785
0.616785
0.616791
0.616797
0.616803
0.616808
0.616808
0.616814
0.61682
0.616826
0.616832
0.616832
0.616838
0.616843
0.616849
0.616855
0.616855
0.616861
0.616867
0.616873
0.616879
0.616879
0.616885
0.616891
0.616896
0.616902
0.616902
0.616908
0.616914
0.61692
0.616926
0.616926
0.616932
0.616938
0.616944
0.61695
0.61695
0.616956
0.616962
0.616968
0.616974
0.616974
0.61698
0.616986
0.616992
0.616998
0.616998
0.617004
0.61701
0.617017
0.617023
0.617023
0.617029
0.617035
0.617041
0.617047
0.617047
0.617053
0.617059
0.617065
0.617072
0.617072
0.617078
0.617084
0.61709
0.617096
0.617096
0.617102
0.617109
0.617115
0.617121
0.617121
0.617127
0.617133
0.61714
0.617146
0.617146
0.617152
0.617158
0.617165
0.617171
0.617171
0.617177
0.617184
0.61719
0.617196
0.617196
0.617203
0.617209
0.617215
0.617222
0.617222
0.617228
0.617234
0.617241
0.617247
0.617247
0.617253
0.61726
0.617266
0.617273
0.617273
0.617279
0.617285
0.617292
0.617298
0.617298
0.617305
0.617311
0.617318
0.617324
0.617324
0.617331
0.617337
0.617344
0.61735
0.61735
0.617357
0.617363
0.61737
0.617376
0.617376
0.617383
0.617389
0.617396
0.617402
0.617402
0.617409
0.617416
0.617422
0.617429
0.617429
0.617435
0.617442
0.617449
0.617455
0.617455
0.617462
0.617469
0.617475
0.617482
0.617482
0.617489
0.617495
0.617502
0.617509
0.617509
0.617515
0.617522
0.617529
0.617536
0.617536
0.617542
0.617549
0.617556
0.617563
0.617563
0.617569
0.617576
0.617583
0.61759
0.61759
0.617596
0.617603
0.61761
0.617617
0.617617
0.617624
0.617631
0.617637
0.617644
0.617644
0.617651
0.617658
0.617665
0.617672
0.617672
0.617679
0.617686
0.617693
0.6177
0.6177
0.617706
0.617713
0.61772
0.617727
0.617727
0.617734
0.617741
0.617748
0.617755
0.617755
0.617762
0.617769
0.617776
0.617783
0.617783
0.61779
0.617797
0.617804
0.617812
0.617812
0.617819
0.617826
0.617833
0.61784
0.61784
0.617847
0.617854
0.617861
0.617868
0.617868
0.617875
0.617883
0.61789
0.617897
0.617897
0.617904
0.617911
0.617918
0.617926
0.617926
0.617933
0.61794
0.617947
0.617954
0.617954
0.617962
0.617969
0.617976
0.617983
0.617983
0.617991
0.617998
0.618005
0.618013
0.618013
0.61802
0.618027
0.618035
0.618042
0.618042
0.618049
0.618057
0.618064
0.618071
0.618071
0.618079
0.618086
0.618093
0.618101
0.618101
0.618108
0.618116
0.618123
0.61813
0.61813
0.618138
0.618145
0.618153
0.61816
0.61816
0.618168
0.618175
0.618183
0.61819
0.61819
0.618198
0.618205
0.618213
0.61822
0.61822
0.618228
0.618235
0.618243
0.61825
0.61825
0.618258
0.618266
0.618273
0.618281
0.618281
0.618288
0.618296
0.618304
0.618311
0.618311
0.618319
0.618326
0.618334
0.618342
0.618342
0.618349
0.618357
0.618365
0.618373
0.618373
0.61838
0.618388
0.618396
0.618403
0.618403
0.618411
0.618419
0.618427
0.618434
0.618434
0.618442
0.61845
0.618458
0.618466
0.618466
0.618473
0.618481
0.618489
0.618497
0.618497
0.618505
0.618512
0.61852
0.618528
0.618528
0.618536
0.618544
0.618552
0.61856
0.61856
0.618568
0.618576
0.618584
0.618591
0.618591
0.618599
0.618607
0.618615
0.618623
0.618623
0.618631
0.618639
0.618647
0.618655
0.618655
0.618663
0.618671
0.618679
0.618687
0.618687
0.618695
0.618703
0.618711
0.61872
0.61872
0.618728
0.618736
0.618744
0.618752
0.618752
0.61876
0.618768
0.618776
0.618784
0.618784
0.618793
0.618801
0.618809
0.618817
0.618817
0.618825
0.618833
0.618842
0.61885
0.61885
0.618858
0.618866
0.618875
0.618883
0.618883
0.618891
0.618899
0.618908
0.618916
0.618916
0.618924
0.618932
0.618941
0.618949
0.618949
0.618957
0.618966
0.618974
0.618982
0.618982
0.618991
0.618999
0.619007
0.619016
0.619016
0.619024
0.619033
0.619041
0.619049
0.619049
0.619058
0.619066
0.619075
0.619083
0.619083
0.619092
0.6191
0.619109
0.619117
0.619117
0.619126
0.619134
0.619143
0.619151
0.619151
0.61916
0.619168
0.619177
0.619185
0.619185
0.619194
0.619202
0.619211
0.61922
0.61922
0.619228
0.619237
0.619245
0.619254
0.619254
0.619263
0.619271
0.61928
0.619289
0.619289
0.619297
0.619306
0.619315
0.619323
0.619323
0.619332
0.619341
0.619349
0.619358
0.619358
0.619367
0.619376
0.619384
0.619393
0.619393
0.619402
0.619411
0.61942
0.619428
0.619428
0.619437
0.619446
0.619455
0.619464
0.619464
0.619472
0.619481
0.61949
0.619499
0.619499
0.619508
0.619517
0.619526
0.619535
0.619535
0.619544
0.619552
0.619561
0.61957
0.61957
0.619579
0.619588
0.619597
0.619606
0.619606
0.619615
0.619624
0.619633
0.619642
0.619642
0.619651
0.61966
0.619669
0.619678
0.619678
0.619687
0.619696
0.619705
0.619715
0.619715
0.619724
0.619733
0.619742
0.619751
0.619751
0.61976
0.619769
0.619778
0.619788
0.619788
0.619797
0.619806
0.619815
0.619824
0.619824
0.619833
0.619843
0.619852
0.619861
0.619861
0.61987
0.61988
0.619889
0.619898
0.619898
0.619907
0.619917
0.619926
0.619935
0.619935
0.619945
0.619954
0.619963
0.619973
0.619973
0.619982
0.619991
0.620001
0.62001
0.62001
0.620019
0.620029
0.620038
0.620048
0.620048
0.620057
0.620066
0.620076
0.620085
0.620085
0.620095
0.620104
0.620114
0.620123
0.620123
0.620133
0.620142
0.620152
0.620161
0.620161
0.620171
0.62018
0.62019
0.620199
0.620199
0.620209
0.620218
0.620228
0.620238
0.620238
0.620247
0.620257
0.620266
0.620276
0.620276
0.620286
0.620295
0.620305
0.620315
0.620315
0.620324
0.620334
0.620344
0.620353
0.620353
0.620363
0.620373
0.620382
0.620392
0.620392
0.620402
0.620412
0.620421
0.620431
0.620431
0.620441
0.620451
0.62046
0.62047
0.62047
0.62048
0.62049
0.6205
0.62051
0.62051
0.620519
0.620529
0.620539
0.620549
0.620549
0.620559
0.620569
0.620579
0.620589
0.620589
0.620599
0.620608
0.620618
0.620628
0.620628
0.620638
0.620648
0.620658
0.620668
0.620668
0.620678
0.620688
0.620698
0.620708
0.620708
0.620718
0.620728
0.620738
0.620749
0.620749
0.620759
0.620769
0.620779
0.620789
0.620789
0.620799
0.620809
0.620819
0.620829
0.620829
0.620839
0.62085
0.62086
0.62087
0.62087
0.62088
0.62089
0.620901
0.620911
0.620911
0.620921
0.620931
0.620941
0.620952
0.620952
0.620962
0.620972
0.620982
0.620993
0.620993
0.621003
0.621013
0.621024
0.621034
0.621034
0.621044
0.621055
0.621065
0.621075
0.621075
0.621086
0.621096
0.621106
0.621117
0.621117
0.621127
0.621138
0.621148
0.621159
0.621159
0.621169
0.621179
0.62119
0.6212
0.6212
0.621211
0.621221
0.621232
0.621242
0.621242
0.621253
0.621263
0.621274
0.621284
0.621284
0.621295
0.621306
0.621316
0.621327
0.621327
0.621337
0.621348
0.621359
0.621369
0.621369
0.62138
0.62139
0.621401
0.621412
0.621412
0.621422
0.621433
0.621444
0.621454
0.621454
0.621465
0.621476
0.621487
0.621497
0.621497
0.621508
0.621519
0.62153
0.62154
0.62154
0.621551
0.621562
0.621573
0.621584
0.621584
0.621594
0.621605
0.621616
0.621627
0.621627
0.621638
0.621649
0.62166
0.62167
0.62167
0.621681
0.621692
0.621703
0.621714
0.621714
0.621725
0.621736
0.621747
0.621758
0.621758
0.621769
0.62178
0.621791
0.621802
0.621802
0.621813
0.621824
0.621835
0.621846
0.621846
0.621857
0.621868
0.621879
0.62189
0.62189
0.621901
0.621912
0.621923
0.621935
0.621935
0.621946
0.621957
0.621968
0.621979
0.621979
0.62199
0.622001
0.622013
0.622024
0.622024
0.622035
0.622046
0.622057
0.622069
0.622069
0.62208
0.622091
0.622102
0.622114
0.622114
0.622125
0.622136
0.622148
0.622159
0.622159
0.62217
0.622182
0.622193
0.622204
0.622204
0.622216
0.622227
0.622238
0.62225
0.62225
0.622261
0.622273
0.622284
0.622295
0.622295
0.622307
0.622318
0.62233
0.622341
0.622341
0.622353
0.622364
0.622376
0.622387
0.622387
0.622399
0.62241
0.622422
0.622433
0.622433
0.622445
0.622456
0.622468
0.622479
0.622479
0.622491
0.622503
0.622514
0.622526
0.622526
0.622538
0.622549
0.622561
0.622572
0.622572
0.622584
0.622596
0.622608
0.622619
0.622619
0.622631
0.622643
0.622654
0.622666
0.622666
0.622678
0.62269
0.622701
0.622713
0.622713
0.622725
0.622737
0.622749
0.62276
0.62276
0.622772
0.622784
0.622796
0.622808
0.622808
0.622819
0.622831
0.622843
0.622855
0.622855
0.622867
0.622879
0.62289
0.622902
0.622902
0.622914
0.622926
0.622938
0.622949
0.622949
0.622961
0.622973
0.622985
0.622998
0.622998
0.62301
0.623022
0.623034
0.623046
0.623046
0.623059
0.623071
0.623083
0.623095
0.623095
0.623107
0.623119
0.623131
0.623144
0.623144
0.623156
0.623168
0.62318
0.623192
0.623192
0.623205
0.623217
0.623229
0.623241
0.623241
0.623253
0.623266
0.623278
0.62329
0.62329
0.623302
0.623315
0.623327
0.623339
0.623339
0.623352
0.623364
0.623376
0.623389
0.623389
0.623401
0.623413
0.623426
0.623438
0.623438
0.62345
0.623463
0.623475
0.623488
0.623488
0.6235
0.623512
0.623525
0.623537
0.623537
0.62355
0.623562
0.623575
0.623587
0.623587
0.6236
0.623612
0.623625
0.623637
0.623637
0.62365
0.623662
0.623675
0.623688
0.623688
0.6237
0.623713
0.623725
0.623738
0.623738
0.623751
0.623763
0.623776
0.623789
0.623789
0.623801
0.623814
0.623827
0.623839
0.623839
0.623852
0.623865
0.623878
0.62389
0.62389
0.623903
0.623916
0.623929
0.623941
0.623941
0.623954
0.623967
0.62398
0.623993
0.623993
0.624005
0.624018
0.624031
0.624044
0.624044
0.624057
0.62407
0.624083
0.624096
0.624096
0.624108
0.624121
0.624134
0.624147
0.624147
0.62416
0.624173
0.624186
0.624199
0.624199
0.624212
0.624225
0.624238
0.624251
0.624251
0.624264
0.624277
0.62429
0.624303
0.624303
0.624317
0.62433
0.624343
0.624356
0.624356
0.624369
0.624382
0.624395
0.624408
0.624408
0.624422
0.624435
0.624448
0.624461
0.624461
0.624474
0.624488
0.624501
0.624514
0.624514
0.624527
0.624541
0.624554
0.624567
0.624567
0.62458
0.624594
0.624607
0.62462
0.62462
0.624634
0.624647
0.62466
0.624674
0.624674
0.624687
0.6247
0.624714
0.624727
0.624727
0.624741
0.624754
0.624768
0.624781
0.624781
0.624794
0.624808
0.624821
0.624835
0.624835
0.624848
0.624862
0.624875
0.624889
0.624889
0.624902
0.624916
0.62493
0.624943
0.624943
0.624957
0.62497
0.624984
0.624998
0.624998
0.625011
0.625025
0.625038
0.625052
0.625052
0.625066
0.625079
0.625093
0.625107
0.625107
0.625121
0.625134
0.625148
0.625162
0.625162
0.625176
0.625189
0.625203
0.625217
0.625217
0.625231
0.625244
0.625258
0.625272
0.625272
0.625286
0.6253
0.625314
0.625328
0.625328
0.625341
0.625355
0.625369
0.625383
0.625383
0.625397
0.625411
0.625425
0.625439
0.625439
0.625453
0.625467
0.625481
0.625495
0.625495
0.625509
0.625523
0.625537
0.625551
0.625551
0.625565
0.625579
0.625593
0.625607
0.625607
0.625621
0.625635
0.62565
0.625664
0.625664
0.625678
0.625692
0.625706
0.62572
0.62572
0.625734
0.625749
0.625763
0.625777
0.625777
0.625791
0.625806
0.62582
0.625834
0.625834
0.625848
0.625863
0.625877
0.625891
0.625891
0.625906
0.62592
0.625934
0.625949
0.625949
0.625963
0.625977
0.625992
0.626006
0.626006
0.62602
0.626035
0.626049
0.626064
0.626064
0.626078
0.626093
0.626107
0.626122
0.626122
0.626136
0.626151
0.626165
0.62618
0.62618
0.626194
0.626209
0.626223
0.626238
0.626238
0.626252
0.626267
0.626281
0.626296
0.626296
0.626311
0.626325
0.62634
0.626355
0.626355
0.626369
0.626384
0.626399
0.626413
0.626413
0.626428
0.626443
0.626458
0.626472
0.626472
0.626487
0.626502
0.626517
0.626531
0.626531
0.626546
0.626561
0.626576
0.626591
0.626591
0.626605
0.62662
0.626635
0.62665
0.62665
0.626665
0.62668
0.626695
0.62671
0.62671
0.626725
0.626739
0.626754
0.626769
0.626769
0.626784
0.626799
0.626814
0.626829
0.626829
0.626844
0.626859
0.626874
0.626889
0.626889
0.626905
0.62692
0.626935
0.62695
0.62695
0.626965
0.62698
0.626995
0.62701
0.62701
0.627025
0.627041
0.627056
0.627071
0.627071
0.627086
0.627101
0.627117
0.627132
0.627132
0.627147
0.627162
0.627178
0.627193
0.627193
0.627208
0.627223
0.627239
0.627254
0.627254
0.627269
0.627285
0.6273
0.627315
0.627315
0.627331
0.627346
0.627362
0.627377
0.627377
0.627392
0.627408
0.627423
0.627439
0.627439
0.627454
0.62747
0.627485
0.627501
0.627501
0.627516
0.627532
0.627547
0.627563
0.627563
0.627578
0.627594
0.62761
0.627625
0.627625
0.627641
0.627656
0.627672
0.627688
0.627688
0.627703
0.627719
0.627735
0.62775
0.62775
0.627766
0.627782
0.627797
0.627813
0.627813
0.627829
0.627845
0.62786
0.627876
0.627876
0.627892
0.627908
0.627924
0.627939
0.627939
0.627955
0.627971
0.627987
0.628003
0.628003
0.628019
0.628035
0.62805
0.628066
0.628066
0.628082
0.628098
0.628114
0.62813
0.62813
0.628146
0.628162
0.628178
0.628194
0.628194
0.62821
0.628226
0.628242
0.628258
0.628258
0.628274
0.62829
0.628306
0.628323
0.628323
0.628339
0.628355
0.628371
0.628387
0.628387
0.628403
0.628419
0.628436
0.628452
0.628452
0.628468
0.628484
0.6285
0.628517
0.628517
0.628533
0.628549
0.628565
0.628582
0.628582
0.628598
0.628614
0.628631
0.628647
0.628647
0.628663
0.62868
0.628696
0.628712
0.628712
0.628729
0.628745
0.628762
0.628778
0.628778
0.628795
0.628811
0.628827
0.628844
0.628844
0.62886
0.628877
0.628893
0.62891
0.62891
0.628926
0.628943
0.62896
0.628976
0.628976
0.628993
0.629009
0.629026
0.629042
0.629042
0.629059
0.629076
0.629092
0.629109
0.629109
0.629126
0.629142
0.629159
0.629176
0.629176
0.629193
0.629209
0.629226
0.629243
0.629243
0.62926
0.629276
0.629293
0.62931
0.62931
0.629327
0.629344
0.62936
0.629377
0.629377
0.629394
0.629411
0.629428
0.629445
0.629445
0.629462
0.629479
0.629496
0.629512
0.629512
0.629529
0.629546
0.629563
0.62958
0.62958
0.629597
0.629614
0.629631
0.629648
0.629648
0.629665
0.629682
0.629699
0.629716
0.629716
0.629733
0.62975
0.629767
0.629784
0.629784
0.629801
0.629818
0.629835
0.629852
0.629852
0.629869
0.629887
0.629904
0.629921
0.629921
0.629939
0.629956
0.629974
0.629991
0.629991
0.630009
0.630026
0.630043
0.630061
0.630061
0.630078
0.630096
0.630113
0.63013
0.63013
0.630148
0.630165
0.630183
0.6302
0.6302
0.630218
0.630235
0.630253
0.63027
0.63027
0.630288
0.630305
0.630323
0.63034
0.63034
0.630358
0.630375
0.630393
0.63041
0.63041
0.630428
0.630446
0.630463
0.630481
0.630481
0.630498
0.630516
0.630534
0.630551
0.630551
0.630569
0.630587
0.630604
0.630622
0.630622
0.63064
0.630658
0.630675
0.630693
0.630693
0.630711
0.630729
0.630747
0.630764
0.630764
0.630782
0.6308
0.630818
0.630836
0.630836
0.630854
0.630872
0.63089
0.630907
0.630907
0.630925
0.630943
0.630961
0.630979
0.630979
0.630997
0.631015
0.631033
0.631051
0.631051
0.631069
0.631087
0.631105
0.631123
0.631123
0.631142
0.63116
0.631178
0.631196
0.631196
0.631214
0.631232
0.63125
0.631268
0.631268
0.631287
0.631305
0.631323
0.631341
0.631341
0.631359
0.631378
0.631396
0.631414
0.631414
0.631433
0.631451
0.631469
0.631487
0.631487
0.631506
0.631524
0.631542
0.631561
0.631561
0.631579
0.631598
0.631616
0.631634
0.631634
0.631653
0.631671
0.63169
0.631708
0.631708
0.631727
0.631745
0.631764
0.631782
0.631782
0.631801
0.631819
0.631838
0.631856
0.631856
0.631875
0.631894
0.631912
0.631931
0.631931
0.63195
0.631968
0.631987
0.632006
0.632006
0.632024
0.632043
0.632062
0.63208
0.63208
0.632099
0.632118
0.632137
0.632155
0.632155
0.632174
0.632193
0.632212
0.632231
0.632231
0.632249
0.632268
0.632287
0.632306
0.632306
0.632325
0.632344
0.632363
0.632382
0.632382
0.632401
0.63242
0.632439
0.632457
0.632457
0.632476
0.632495
0.632514
0.632534
0.632534
0.632553
0.632572
0.632591
0.63261
0.63261
0.632629
0.632648
0.632667
0.632686
0.632686
0.632705
0.632725
0.632744
0.632763
0.632763
0.632782
0.632801
0.632821
0.63284
0.63284
0.632859
0.632878
0.632898
0.632917
0.632917
0.632936
0.632955
0.632975
0.632994
0.632994
0.633013
0.633033
0.633052
0.633072
0.633072
0.633091
0.63311
0.63313
0.633149
0.633149
0.633169
0.633188
0.633208
0.633227
0.633227
0.633247
0.633266
0.633286
0.633305
0.633305
0.633325
0.633344
0.633364
0.633384
0.633384
0.633403
0.633423
0.633443
0.633462
0.633462
0.633482
0.633502
0.633521
0.633541
0.633541
0.633561
0.63358
0.6336
0.63362
0.63362
0.63364
0.633659
0.633679
0.633699
0.633699
0.633719
0.633739
0.633759
0.633778
0.633778
0.633798
0.633818
0.633838
0.633858
0.633858
0.633878
0.633898
0.633918
0.633938
0.633938
0.633958
0.633978
0.633998
0.634018
0.634018
0.634038
0.634058
0.634078
0.634098
0.634098
0.634118
0.634138
0.634158
0.634179
0.634179
0.634199
0.634219
0.634239
0.634259
0.634259
0.634279
0.6343
0.63432
0.63434
0.63434
0.63436
0.634381
0.634401
0.634421
0.634421
0.634441
0.634462
0.634482
0.634502
0.634502
0.634523
0.634543
0.634563
0.634584
0.634584
0.634604
0.634625
0.634645
0.634666
0.634666
0.634686
0.634707
0.634727
0.634748
0.634748
0.634768
0.634789
0.634809
0.63483
0.63483
0.63485
0.634871
0.634891
0.634912
0.634912
0.634933
0.634953
0.634974
0.634995
0.634995
0.635015
0.635036
0.635057
0.635077
0.635077
0.635098
0.635119
0.63514
0.63516
0.63516
0.635181
0.635202
0.635223
0.635244
0.635244
0.635265
0.635285
0.635306
0.635327
0.635327
0.635348
0.635369
0.63539
0.635411
0.635411
0.635432
0.635453
0.635474
0.635495
0.635495
0.635516
0.635537
0.635558
0.635579
0.635579
0.6356
0.635621
0.635642
0.635663
0.635663
0.635684
0.635705
0.635727
0.635748
0.635748
0.635769
0.63579
0.635811
0.635832
0.635832
0.635854
0.635875
0.635896
0.635917
0.635917
0.635939
0.63596
0.635981
0.636003
0.636003
0.636024
0.636045
0.636067
0.636088
0.636088
0.63611
0.636131
0.636152
0.636174
0.636174
0.636195
0.636217
0.636238
0.63626
0.63626
0.636281
0.636303
0.636324
0.636346
0.636346
0.636367
0.636389
0.63641
0.636432
0.636432
0.636454
0.636475
0.636497
0.636519
0.636519
0.63654
0.636562
0.636584
0.636605
0.636605
0.636627
0.636649
0.636671
0.636692
0.636692
0.636714
0.636736
0.636758
0.63678
0.63678
0.636801
0.636823
0.636845
0.636867
0.636867
0.636889
0.636911
0.636933
0.636955
0.636955
0.636977
0.636999
0.637021
0.637042
0.637042
0.637064
0.637086
0.637108
0.63713
0.63713
0.637152
0.637174
0.637196
0.637218
0.637218
0.63724
0.637262
0.637284
0.637306
0.637306
0.637328
0.63735
0.637372
0.637394
0.637394
0.637417
0.637439
0.637461
0.637484
0.637484
0.637506
0.637529
0.637551
0.637574
0.637574
0.637596
0.637619
0.637641
0.637664
0.637664
0.637686
0.637709
0.637731
0.637754
0.637754
0.637776
0.637799
0.637821
0.637844
0.637844
0.637866
0.637889
0.637911
0.637934
0.637934
0.637957
0.637979
0.638002
0.638024
0.638024
0.638047
0.63807
0.638092
0.638115
0.638115
0.638138
0.63816
0.638183
0.638206
0.638206
0.638229
0.638251
0.638274
0.638297
0.638297
0.63832
0.638343
0.638365
0.638388
0.638388
0.638411
0.638434
0.638457
0.63848
0.63848
0.638503
0.638526
0.638549
0.638572
0.638572
0.638595
0.638618
0.638641
0.638664
0.638664
0.638687
0.63871
0.638733
0.638756
0.638756
0.638779
0.638802
0.638825
0.638848
0.638848
0.638872
0.638895
0.638918
0.638941
0.638941
0.638964
0.638988
0.639011
0.639034
0.639034
0.639057
0.639081
0.639104
0.639127
0.639127
0.639151
0.639174
0.639197
0.639221
0.639221
0.639244
0.639267
0.639291
0.639314
0.639314
0.639338
0.639361
0.639385
0.639408
0.639408
0.639432
0.639455
0.639479
0.639502
0.639502
0.639526
0.639549
0.639573
0.639597
0.639597
0.63962
0.639644
0.639668
0.639691
0.639691
0.639715
0.639739
0.639762
0.639786
0.639786
0.63981
0.639834
0.639857
0.639881
0.639881
0.639905
0.639929
0.639953
0.639977
0.639977
0.64
0.640024
0.640048
0.640072
0.640072
0.640096
0.64012
0.640144
0.640168
0.640168
0.640192
0.640216
0.64024
0.640264
0.640264
0.640288
0.640312
0.640336
0.64036
0.64036
0.640384
0.640408
0.640433
0.640457
0.640457
0.640481
0.640505
0.640529
0.640553
0.640553
0.640578
0.640602
0.640626
0.64065
0.64065
0.640675
0.640699
0.640723
0.640748
0.640748
0.640772
0.640796
0.640821
0.640845
0.640845
0.64087
0.640894
0.640918
0.640943
0.640943
0.640967
0.640992
0.641016
0.641041
0.641041
0.641065
0.64109
0.641114
0.641139
0.641139
0.641164
0.641188
0.641213
0.641237
0.641237
0.641262
0.641287
0.641311
0.641336
0.641336
0.641361
0.641386
0.64141
0.641435
0.641435
0.64146
0.641485
0.641509
0.641534
0.641534
0.641559
0.641584
0.641609
0.641634
0.641634
0.641659
0.641683
0.641708
0.641733
0.641733
0.641758
0.641783
0.641808
0.641833
0.641833
0.641858
0.641883
0.641908
0.641933
0.641933
0.641958
0.641984
0.642009
0.642034
0.642034
0.642059
0.642084
0.642109
0.642134
0.642134
0.64216
0.642185
0.64221
0.642235
0.642235
0.642261
0.642286
0.642311
0.642336
0.642336
0.642362
0.642387
0.642412
0.642438
0.642438
0.642463
0.642489
0.642514
0.642539
0.642539
0.642565
0.64259
0.642616
0.642641
0.642641
0.642667
0.642692
0.642718
0.642744
0.642744
0.642769
0.642795
0.64282
0.642846
0.642846
0.642872
0.642897
0.642923
0.642949
0.642949
0.642974
0.643
0.643026
0.643051
0.643051
0.643077
0.643103
0.643129
0.643155
0.643155
0.64318
0.643206
0.643232
0.643258
0.643258
0.643284
0.64331
0.643336
0.643362
0.643362
0.643388
0.643414
0.643439
0.643465
0.643465
0.643492
0.643518
0.643544
0.64357
0.64357
0.643596
0.643622
0.643648
0.643674
0.643674
0.6437
0.643726
0.643753
0.643779
0.643779
0.643805
0.643831
0.643857
0.643884
0.643884
0.64391
0.643936
0.643962
0.643989
0.643989
0.644015
0.644041
0.644068
0.644094
0.644094
0.644121
0.644147
0.644173
0.6442
0.6442
0.644226
0.644253
0.644279
0.644306
0.644306
0.644332
0.644359
0.644385
0.644412
0.644412
0.644439
0.644465
0.644492
0.644518
0.644518
0.644545
0.644572
0.644598
0.644625
0.644625
0.644652
0.644679
0.644705
0.644732
0.644732
0.644759
0.644786
0.644812
0.644839
0.644839
0.644866
0.644893
0.64492
0.644947
0.644947
0.644974
0.645
0.645027
0.645054
0.645054
0.645081
0.645108
0.645135
0.645162
0.645162
0.645189
0.645216
0.645243
0.64527
0.64527
0.645297
0.645324
0.645351
0.645378
0.645378
0.645405
0.645432
0.645459
0.645486
0.645486
0.645513
0.64554
0.645567
0.645595
0.645595
0.645622
0.64565
0.645677
0.645705
0.645705
0.645732
0.64576
0.645787