<?xml version="1.0"?>
<VTKFile type="UnstructuredGrid" version="0.1" byte_order="LittleEndian">
<UnstructuredGrid>
<Piece NumberOfPoints="5000" NumberOfCells="4000">
<PointData Scalars="Reaction 0">
<DataArray type="Float32" Name="Reaction 0" format="ascii">
0.579497
0.579497
0.579497
0.579497
0.579497
0.579497
0.579497
0.579497
0.579497
0.579497
0.579497
0.579497
0.579497
0.579497
0.579497
0.579497
0.579497
0.579497
0.579497
0.579497
0.579497
0.579497
0.579497
0.579497
0.579497
0.579497
0.579497
0.579496
0.579496
0.579496
0.579496
0.579496
0.579496
0.579496
0.579496
0.579496
0.579496
0.579496
0.579496
0.579496
0.579496
0.579496
0.579496
0.579495
0.579495
0.579495
0.579495
0.579495
0.579495
0.579495
0.579495
0.579495
0.579495
0.579495
0.579494
0.579494
0.579494
0.579494
0.579494
0.579494
0.579494
0.579494
0.579494
0.579494
0.579493
0.579493
0.579493
0.579493
0.579493
0.579493
0.579493
0.579493
0.579492
0.579492
0.579492
0.579492
0.579492
0.579492
0.579492
0.579491
0.579491
0.579491
0.579491
0.579491
0.579491
0.579491
0.579491
0.57949
0.57949
0.57949
0.57949
0.57949
0.57949
0.579489
0.579489
0.579489
0.579489
0.579489
0.579489
0.579488
0.579488
0.579488
0.579488
0.579488
0.579487
0.579487
0.579487
0.579487
0.579487
0.579486
0.579486
0.579486
0.579486
0.579486
0.579486
0.579486
0.579485
0.579485
0.579485
0.579484
0.579484
0.579484
0.579484
0.579484
0.579483
0.579483
0.579483
0.579483
0.579483
0.579482
0.579482
0.579482
0.579482
0.579481
0.579481
0.579481
0.579481
0.579481
0.57948
0.57948
0.57948
0.57948
0.579479
0.579479
0.579479
0.579479
0.579478
0.579478
0.579478
0.579477
0.579477
0.579477
0.579477
0.579476
0.579476
0.579476
0.579476
0.579475
0.579475
0.579475
0.579475
0.579474
0.579474
0.579474
0.579473
0.579473
0.579473
0.579473
0.579472
0.579472
0.579472
0.579471
0.579471
0.579471
0.57947
0.57947
0.57947
0.57947
0.579469
0.579469
0.579469
0.579468
0.579468
0.579468
0.579467
0.579467
0.579467
0.579466
0.579466
0.579466
0.579466
0.579465
0.579465
0.579464
0.579464
0.579464
0.579463
0.579463
0.579463
0.579462
0.579462
0.579462
0.579461
0.579461
0.57946
0.57946
0.57946
0.57946
0.579459
0.579459
0.579459
0.579458
0.579458
0.579457
0.579457
0.579457
0.579456
0.579456
0.579455
0.579455
0.579455
0.579454
0.579454
0.579453
0.579453
0.579453
0.579452
0.579452
0.579451
0.579451
0.579451
0.57945
0.57945
0.579449
0.579449
0.579449
0.579448
0.579448
0.579447
0.579447
0.579447
0.579446
0.579446
0.579445
0.579445
0.579445
0.579444
0.579444
0.579443
0.579443
0.579443
0.579442
0.579442
0.579441
0.579441
0.579441
0.57944
0.579439
0.579439
0.579438
0.579438
0.579438
0.579437
0.579437
0.579436
0.579436
0.579435
0.579435
0.579434
0.579434
0.579434
0.579433
0.579433
0.579432
0.579431
0.579431
0.579431
0.57943
0.57943
0.579429
0.579429
0.579428
0.579428
0.579427
0.579427
0.579427
0.579426
0.579425
0.579425
0.579424
0.579424
0.579424
0.579423
0.579422
0.579422
0.579422
0.579421
0.57942
0.57942
0.579419
0.579419
0.579419
0.579418
0.579417
0.579417
0.579417
0.579416
0.579415
0.579415
0.579414
0.579414
0.579413
0.579413
0.579412
0.579411
0.579411
0.579411
0.57941
0.579409
0.579409
0.579409
0.579408
0.579407
0.579407
0.579406
0.579406
0.579405
0.579404
0.579404
0.579403
0.579403
0.579402
0.579402
0.579401
0.5794
0.5794
0.5794
0.579399
0.579398
0.579397
0.579397
0.579397
0.579396
0.579395
0.579395
0.579395
0.579394
0.579393
0.579392
0.579392
0.579392
0.579391
0.57939
0.579389
0.579389
0.579389
0.579388
0.579387
0.579386
0.579386
0.579386
0.579385
0.579384
0.579383
0.579383
0.579383
0.579382
0.579381
0.57938
0.57938
0.57938
0.579379
0.579378
0.579377
0.579376
0.579376
0.579376
0.579375
0.579374
0.579373
0.579373
0.579372
0.579372
0.579371
0.57937
0.57937
0.579369
0.579368
0.579368
0.579367
0.579367
0.579366
0.579365
0.579364
0.579364
0.579364
0.579363
0.579362
0.579361
0.57936
0.57936
0.579359
0.579359
0.579358
0.579357
0.579357
0.579356
0.579355
0.579354
0.579354
0.579354
0.579353
0.579352
0.579351
0.57935
0.57935
0.579349
0.579348
0.579348
0.579347
0.579347
0.579346
0.579345
0.579344
0.579343
0.579343
0.579342
0.579341
0.579341
0.57934
0.57934
0.579339
0.579338
0.579337
0.579336
0.579336
0.579335
0.579334
0.579333
0.579332
0.579332
0.579332
0.579331
0.57933
0.579329
0.579329
0.579328
0.579327
0.579326
0.579325
0.579325
0.579324
0.579323
0.579322
0.579321
0.579321
0.579321
0.57932
0.579319
0.579318
0.579318
0.579317
0.579316
0.579315
0.579314
0.579314
0.579313
0.579312
0.579311
0.57931
0.57931
0.579309
0.579308
0.579307
0.579306
0.579306
0.579305
0.579304
0.579303
0.579302
0.579302
0.579301
0.579301
0.5793
0.579299
0.579299
0.579298
0.579297
0.579296
0.579295
0.579295
0.579294
0.579293
0.579292
0.579291
0.579291
0.57929
0.579289
0.579288
0.579287
0.579287
0.579286
0.579285
0.579284
0.579283
0.579283
0.579282
0.579281
0.57928
0.579279
0.579279
0.579278
0.579276
0.579275
0.579274
0.579274
0.579273
0.579272
0.579271
0.57927
0.57927
0.579269
0.579268
0.579267
0.579266
0.579266
0.579265
0.579264
0.579263
0.579262
0.579262
0.579261
0.57926
0.579259
0.579258
0.579258
0.579257
0.579256
0.579255
0.579253
0.579253
0.579252
0.579251
0.57925
0.579249
0.579249
0.579248
0.579247
0.579246
0.579245
0.579245
0.579244
0.579243
0.579242
0.57924
0.57924
0.579239
0.579238
0.579237
0.579236
0.579236
0.579235
0.579234
0.579233
0.579232
0.579232
0.579231
0.579229
0.579228
0.579227
0.579227
0.579226
0.579225
0.579224
0.579223
0.579223
0.579222
0.579221
0.579219
0.579218
0.579218
0.579217
0.579216
0.579215
0.579214
0.579214
0.579213
0.579211
0.57921
0.579209
0.579209
0.579208
0.579207
0.579206
0.579205
0.579205
0.579203
0.579202
0.579201
0.5792
0.5792
0.579199
0.579198
0.579197
0.579195
0.579195
0.579194
0.579193
0.579192
0.579191
0.579191
0.57919
0.579188
0.579187
0.579186
0.579186
0.579185
0.579184
0.579182
0.579181
0.579181
0.57918
0.579179
0.579178
0.579177
0.579177
0.579175
0.579174
0.579173
0.579172
0.579172
0.579171
0.579169
0.579168
0.579167
0.579167
0.579166
0.579165
0.579163
0.579162
0.579162
0.579161
0.57916
0.579158
0.579157
0.579157
0.579156
0.579155
0.579154
0.579152
0.579152
0.579151
0.57915
0.579149
0.579147
0.579147
0.579146
0.579145
0.579144
0.579142
0.579142
0.579141
0.57914
0.579139
0.579138
0.579138
0.579136
0.579135
0.579134
0.579133
0.579133
0.579131
0.57913
0.579129
0.579128
0.579128
0.579126
0.579125
0.579124
0.579123
0.579123
0.579121
0.57912
0.579119
0.579117
0.579117
0.579116
0.579115
0.579114
0.579112
0.579112
0.579111
0.57911
0.579109
0.579107
0.579107
0.579106
0.579105
0.579103
0.579102
0.579102
0.579101
0.5791
0.579098
0.579097
0.579097
0.579096
0.579094
0.579093
0.579092
0.579092
0.579091
0.579089
0.579088
0.579087
0.579087
0.579085
0.579084
0.579083
0.579081
0.579081
0.57908
0.579079
0.579077
0.579076
0.579076
0.579075
0.579074
0.579072
0.579071
0.579071
0.57907
0.579068
0.579067
0.579066
0.579066
0.579064
0.579063
0.579062
0.57906
0.57906
0.579059
0.579058
0.579056
0.579055
0.579055
0.579054
0.579052
0.579051
0.57905
0.57905
0.579048
0.579047
0.579046
0.579044
0.579044
0.579043
0.579042
0.57904
0.579039
0.579039
0.579038
0.579036
0.579035
0.579034
0.579034
0.579032
0.579031
0.579029
0.579028
0.579028
0.579027
0.579025
0.579024
0.579023
0.579023
0.579021
0.57902
0.579019
0.579017
0.579017
0.579016
0.579014
0.579013
0.579012
0.579012
0.57901
0.579009
0.579008
0.579006
0.579006
0.579005
0.579003
0.579002
0.579001
0.579001
0.578999
0.578998
0.578997
0.578995
0.578995
0.578994
0.578992
0.578991
0.57899
0.57899
0.578988
0.578987
0.578985
0.578984
0.578984
0.578983
0.578981
0.57898
0.578979
0.578979
0.578977
0.578976
0.578974
0.578973
0.578973
0.578972
0.57897
0.578969
0.578967
0.578967
0.578966
0.578964
0.578963
0.578962
0.578962
0.57896
0.578959
0.578957
0.578956
0.578956
0.578955
0.578953
0.578952
0.57895
0.57895
0.578949
0.578948
0.578946
0.578945
0.578945
0.578943
0.578942
0.57894
0.578939
0.578939
0.578938
0.578936
0.578935
0.578933
0.578933
0.578932
0.57893
0.578929
0.578928
0.578928
0.578926
0.578925
0.578923
0.578922
0.578922
0.57892
0.578919
0.578918
0.578916
0.578916
0.578915
0.578913
0.578912
0.57891
0.57891
0.578909
0.578908
0.578906
0.578905
0.578905
0.578903
0.578902
0.5789
0.578899
0.578899
0.578897
0.578896
0.578895
0.578893
0.578893
0.578892
0.57889
0.578889
0.578887
0.578887
0.578886
0.578884
0.578883
0.578881
0.578881
0.57888
0.578879
0.578877
0.578876
0.578876
0.578874
0.578873
0.578871
0.57887
0.57887
0.578868
0.578867
0.578865
0.578864
0.578864
0.578862
0.578861
0.57886
0.578858
0.578858
0.578857
0.578855
0.578854
0.578852
0.578852
0.578851
0.578849
0.578848
0.578846
0.578846
0.578845
0.578843
0.578842
0.57884
0.57884
0.578839
0.578838
0.578836
0.578835
0.578835
0.578833
0.578832
0.57883
0.578829
0.578829
0.578827
0.578826
0.578824
0.578823
0.578823
0.578821
0.57882
0.578818
0.578817
0.578817
0.578815
0.578814
0.578812
0.578811
0.578811
0.57881
0.578808
0.578807
0.578806
0.578806
0.578805
0.578804
0.578803
0.578802
0.578802
0.578802
0.578801
0.5788
0.578799
0.578799
0.578798
0.578797
0.578796
0.578795
0.578795
0.578794
0.578793
0.578792
0.578791
0.578791
0.578791
0.57879
0.578789
0.578788
0.578788
0.578787
0.578786
0.578785
0.578784
0.578784
0.578783
0.578782
0.578781
0.57878
0.57878
0.57878
0.578779
0.578778
0.578777
0.578777
0.578776
0.578775
0.578774
0.578773
0.578773
0.578772
0.578771
0.57877
0.57877
0.57877
0.578769
0.578768
0.578767
0.578766
0.578766
0.578765
0.578764
0.578763
0.578762
0.578762
0.578761
0.578761
0.57876
0.578759
0.578759
0.578758
0.578757
0.578756
0.578755
0.578755
0.578754
0.578753
0.578752
0.578752
0.578752
0.578751
0.57875
0.578749
0.578748
0.578748
0.578747
0.578746
0.578745
0.578744
0.578744
0.578743
0.578743
0.578742
0.578741
0.578741
0.57874
0.578739
0.578738
0.578737
0.578737
0.578736
0.578735
0.578734
0.578734
0.578734
0.578733
0.578732
0.578731
0.57873
0.57873
0.578729
0.578728
0.578727
0.578726
0.578726
0.578726
0.578725
0.578724
0.578723
0.578723
0.578722
0.578721
0.57872
0.578719
0.578719
0.578719
0.578718
0.578717
0.578716
0.578716
0.578715
0.578714
0.578713
0.578712
0.578712
0.578711
0.578711
0.57871
0.578709
0.578709
0.578708
0.578707
0.578706
0.578705
0.578705
0.578704
0.578704
0.578703
0.578702
0.578702
0.578701
0.5787
0.578699
0.578698
0.578698
0.578697
0.578697
0.578696
0.578695
0.578695
0.578694
0.578693
0.578692
0.578691
0.578691
0.57869
0.57869
0.578689
0.578688
0.578688
0.578687
0.578686
0.578685
0.578684
0.578684
0.578683
0.578683
0.578682
0.578681
0.578681
0.57868
0.578679
0.578678
0.578677
0.578677
0.578677
0.578676
0.578675
0.578674
0.578674
0.578673
0.578672
0.578671
0.578671
0.578671
0.57867
0.578669
0.578668
0.578667
0.578667
0.578666
0.578665
0.578664
0.578664
0.578664
0.578663
0.578662
0.578661
0.57866
0.57866
0.578659
0.578658
0.578658
0.578657
0.578657
0.578656
0.578655
0.578654
0.578653
0.578653
0.578653
0.578652
0.578651
0.57865
0.57865
0.578649
0.578648
0.578647
0.578647
0.578647
0.578646
0.578645
0.578644
0.578643
0.578643
0.578642
0.578641
0.578641
0.57864
0.57864
0.578639
0.578638
0.578637
0.578636
0.578636
0.578636
0.578635
0.578634
0.578633
0.578633
0.578632
0.578631
0.578631
0.57863
0.57863
0.578629
0.578628
0.578627
0.578626
0.578626
0.578626
0.578625
0.578624
0.578623
0.578623
0.578622
0.578621
0.578621
0.57862
0.57862
0.578619
0.578618
0.578617
0.578616
0.578616
0.578616
0.578615
0.578614
0.578613
0.578613
0.578612
0.578611
0.578611
0.57861
0.57861
0.578609
0.578608
0.578607
0.578606
0.578606
0.578606
0.578605
0.578604
0.578603
0.578603
0.578602
0.578601
0.578601
0.5786
0.5786
0.578599
0.578598
0.578597
0.578597
0.578597
0.578596
0.578595
0.578594
0.578593
0.578593
0.578592
0.578592
0.578591
0.57859
0.57859
0.578589
0.578588
0.578588
0.578587
0.578587
0.578586
0.578585
0.578584
0.578583
0.578583
0.578583
0.578582
0.578581
0.57858
0.57858
0.578579
0.578579
0.578578
0.578577
0.578577
0.578576
0.578575
0.578575
0.578574
0.578574
0.578573
0.578572
0.578571
0.578571
0.578571
0.57857
0.578569
0.578568
0.578567
0.578567
0.578567
0.578566
0.578565
0.578564
0.578564
0.578563
0.578563
0.578562
0.578561
0.578561
0.57856
0.578559
0.578559
0.578558
0.578558
0.578557
0.578556
0.578555
0.578555
0.578555
0.578554
0.578553
0.578552
0.578551
0.578551
0.578551
0.57855
0.578549
0.578548
0.578548
0.578547
0.578547
0.578546
0.578545
0.578545
0.578544
0.578543
0.578543
0.578542
0.578542
0.578541
0.57854
0.57854
0.578539
0.578539
0.578538
0.578537
0.578536
0.578536
0.578536
0.578535
0.578534
0.578533
0.578532
0.578532
0.578532
0.578531
0.57853
0.578529
0.578529
0.578529
0.578528
0.578527
0.578526
0.578526
0.578525
0.578525
0.578524
0.578523
0.578523
0.578522
0.578522
0.578521
0.57852
0.57852
0.578519
0.578518
0.578518
0.578517
0.578517
0.578516
0.578515
0.578515
0.578514
0.578514
0.578513
0.578512
0.578511
0.578511
0.578511
0.57851
0.578509
0.578508
0.578508
0.578508
0.578507
0.578506
0.578505
0.578505
0.578505
0.578504
0.578503
0.578502
0.578501
0.578501
0.578501
0.5785
0.578499
0.578498
0.578498
0.578498
0.578497
0.578496
0.578495
0.578495
0.578495
0.578494
0.578493
0.578492
0.578492
0.578492
0.578491
0.57849
0.578489
0.578489
0.578489
0.578488
0.578487
0.578486
0.578486
0.578486
0.578485
0.578484
0.578483
0.578483
0.578483
0.578482
0.578481
0.57848
0.57848
0.57848
0.578479
0.578478
0.578477
0.578477
0.578476
0.578476
0.578475
0.578474
0.578474
0.578473
0.578473
0.578472
0.578471
0.578471
0.578471
0.57847
0.578469
0.578468
0.578468
0.578468
0.578467
0.578466
0.578465
0.578465
0.578465
0.578464
0.578463
0.578462
0.578462
0.578462
0.578461
0.57846
0.578459
0.578459
0.578459
0.578458
0.578457
0.578456
0.578456
0.578456
0.578455
0.578454
0.578453
0.578453
0.578453
0.578452
0.578451
0.57845
0.57845
0.57845
0.578449
0.578448
0.578448
0.578448
0.578447
0.578446
0.578445
0.578445
0.578445
0.578444
0.578443
0.578442
0.578442
0.578442
0.578441
0.57844
0.578439
0.578439
0.578439
0.578438
0.578437
0.578437
0.578436
0.578436
0.578435
0.578434
0.578434
0.578433
0.578433
0.578432
0.578431
0.578431
0.57843
0.57843
0.578429
0.578429
0.578428
0.578427
0.578427
0.578426
0.578426
0.578425
0.578424
0.578424
0.578424
0.578423
0.578422
0.578421
0.578421
0.578421
0.57842
0.578419
0.578418
0.578418
0.578418
0.578417
0.578416
0.578416
0.578416
0.578415
0.578414
0.578413
0.578413
0.578413
0.578412
0.578411
0.578411
0.57841
0.57841
0.578409
0.578408
0.578408
0.578407
0.578407
0.578406
0.578406
0.578405
0.578404
0.578404
0.578403
0.578403
0.578402
0.578401
0.578401
0.578401
0.5784
0.578399
0.578398
0.578398
0.578398
0.578397
0.578396
0.578396
0.578396
0.578395
0.578394
0.578393
0.578393
0.578393
0.578392
0.578391
0.578391
0.57839
0.57839
0.578389
0.578389
0.578388
0.578387
0.578387
0.578386
0.578386
0.578385
0.578384
0.578384
0.578384
0.578383
0.578382
0.578381
0.578381
0.578381
0.57838
0.578379
0.578379
0.578379
0.578378
0.578377
0.578377
0.578376
0.578376
0.578375
0.578374
0.578374
0.578373
0.578373
0.578372
0.578372
0.578371
0.57837
0.57837
0.57837
0.578369
0.578368
0.578367
0.578367
0.578367
0.578366
0.578365
0.578365
0.578365
0.578364
0.578363
0.578363
0.578362
0.578362
0.578361
0.578361
0.57836
0.578359
0.578359
0.578358
0.578358
0.578357
0.578356
0.578356
0.578356
0.578355
0.578354
0.578354
0.578354
0.578353
0.578352
0.578352
0.578351
0.578351
0.57835
0.578349
0.578349
0.578348
0.578348
0.578347
0.578347
0.578346
0.578345
0.578345
0.578345
0.578344
0.578343
0.578343
0.578343
0.578342
0.578341
0.578341
0.57834
0.57834
0.578339
0.578338
0.578338
0.578337
0.578337
0.578336
0.578336
0.578335
0.578334
0.578334
0.578334
0.578333
0.578332
0.578332
0.578332
0.578331
0.57833
0.57833
0.578329
0.578329
0.578328
0.578328
0.578327
0.578326
0.578326
0.578325
0.578325
0.578324
0.578323
0.578323
0.578323
0.578322
0.578321
0.578321
0.578321
0.57832
0.578319
0.578319
0.578318
0.578318
0.578317
0.578317
0.578316
0.578315
0.578315
0.578315
0.578314
0.578313
0.578313
0.578313
0.578312
0.578311
0.578311
0.57831
0.57831
0.578309
0.578308
0.578308
0.578307
0.578307
0.578306
0.578306
0.578305
0.578304
0.578304
0.578304
0.578303
0.578302
0.578302
0.578302
0.578301
0.5783
0.5783
0.578299
0.578299
0.578298
0.578298
0.578297
0.578296
0.578296
0.578296
0.578295
0.578294
0.578294
0.578294
0.578293
0.578292
0.578292
0.578291
0.578291
0.57829
0.57829
0.578289
0.578288
0.578288
0.578288
0.578287
0.578286
0.578286
0.578286
0.578285
0.578284
0.578284
0.578283
0.578283
0.578282
0.578281
0.578281
0.57828
0.57828
0.578279
0.578279
0.578278
0.578277
0.578277
0.578277
0.578276
0.578275
0.578275
0.578275
0.578274
0.578273
0.578273
0.578272
0.578272
0.578271
0.578271
0.57827
0.578269
0.578269
0.578269
0.578268
0.578267
0.578267
0.578267
0.578266
0.578265
0.578265
0.578264
0.578264
0.578263
0.578263
0.578262
0.578261
0.578261
0.578261
0.57826
0.578259
0.578259
0.578259
0.578258
0.578257
0.578257
0.578256
0.578256
0.578255
0.578255
0.578254
0.578254
0.578254
0.578254
0.578254
0.578253
0.578253
0.578253
0.578253
0.578252
0.578252
0.578252
0.578252
0.578252
0.578251
0.578251
0.578251
0.578251
0.57825
0.57825
0.57825
0.578249
0.578249
0.578249
0.578249
0.578248
0.578248
0.578248
0.578248
0.578247
0.578247
0.578247
0.578247
0.578247
0.578246
0.578246
0.578246
0.578246
0.578245
0.578245
0.578245
0.578244
0.578244
0.578244
0.578244
0.578244
0.578243
0.578243
0.578243
0.578243
0.578242
0.578242
0.578242
0.578242
0.578241
0.578241
0.578241
0.578241
0.578241
0.57824
0.57824
0.57824
0.57824
0.578239
0.578239
0.578239
0.578238
0.578238
0.578238
0.578238
0.578238
0.578237
0.578237
0.578237
0.578237
0.578236
0.578236
0.578236
0.578236
0.578236
0.578235
0.578235
0.578235
0.578235
0.578234
0.578234
0.578234
0.578234
0.578234
0.578233
0.578233
0.578233
0.578233
0.578232
0.578232
0.578232
0.578232
0.578232
0.578231
0.578231
0.578231
0.57823
0.57823
0.57823
0.57823
0.57823
0.578229
0.578229
0.578229
0.578229
0.578229
0.578228
0.578228
0.578228
0.578228
0.578227
0.578227
0.578227
0.578227
0.578227
0.578226
0.578226
0.578226
0.578226
0.578226
0.578225
0.578225
0.578225
0.578225
0.578224
0.578224
0.578224
0.578224
0.578224
0.578223
0.578223
0.578223
0.578223
0.578223
0.578222
0.578222
0.578222
0.578222
0.578222
0.578221
0.578221
0.578221
0.578221
0.578221
0.57822
0.57822
0.57822
0.57822
0.578219
0.578219
0.578219
0.578219
0.578219
0.578218
0.578218
0.578218
0.578218
0.578218
0.578217
0.578217
0.578217
0.578217
0.578217
0.578216
0.578216
0.578216
0.578216
0.578216
0.578215
0.578215
0.578215
0.578215
0.578215
0.578214
0.578214
0.578214
0.578214
0.578214
0.578213
0.578213
0.578213
0.578213
0.578213
0.578212
0.578212
0.578212
0.578212
0.578212
0.578212
0.578211
0.578211
0.578211
0.578211
0.578211
0.57821
0.57821
0.57821
0.57821
0.57821
0.578209
0.578209
0.578209
0.578209
0.578209
0.578208
0.578208
0.578208
0.578208
0.578208
0.578207
0.578207
0.578207
0.578207
0.578207
0.578207
0.578206
0.578206
0.578206
0.578206
0.578206
0.578205
0.578205
0.578205
0.578205
0.578205
0.578205
0.578204
0.578204
0.578204
0.578204
0.578204
0.578203
0.578203
0.578203
0.578203
0.578203
0.578203
0.578203
0.578202
0.578202
0.578202
0.578202
0.578202
0.578201
0.578201
0.578201
0.578201
0.578201
0.578201
0.5782
0.5782
0.5782
0.5782
0.5782
0.578199
0.578199
0.578199
0.578199
0.578199
0.578199
0.578198
0.578198
0.578198
0.578198
0.578198
0.578198
0.578197
0.578197
0.578197
0.578197
0.578197
0.578197
0.578197
0.578196
0.578196
0.578196
0.578196
0.578196
0.578196
0.578195
0.578195
0.578195
0.578195
0.578195
0.578195
0.578194
0.578194
0.578194
0.578194
0.578194
0.578194
0.578193
0.578193
0.578193
0.578193
0.578193
0.578193
0.578193
0.578192
0.578192
0.578192
0.578192
0.578192
0.578192
0.578191
0.578191
0.578191
0.578191
0.578191
0.578191
0.57819
0.57819
0.57819
0.57819
0.57819
0.57819
0.57819
0.57819
0.578189
0.578189
0.578189
0.578189
0.578189
0.578189
0.578188
0.578188
0.578188
0.578188
0.578188
0.578188
0.578188
0.578187
0.578187
0.578187
0.578187
0.578187
0.578187
0.578187
0.578186
0.578186
0.578186
0.578186
0.578186
0.578186
0.578186
0.578185
0.578185
0.578185
0.578185
0.578185
0.578185
0.578185
0.578185
0.578184
0.578184
0.578184
0.578184
0.578184
0.578184
0.578184
0.578183
0.578183
0.578183
0.578183
0.578183
0.578183
0.578183
0.578183
0.578182
0.578182
0.578182
0.578182
0.578182
0.578182
0.578182
0.578181
0.578181
0.578181
0.578181
0.578181
0.578181
0.578181
0.578181
0.57818
0.57818
0.57818
0.57818
0.57818
0.57818
0.57818
0.57818
0.578179
0.578179
0.578179
0.578179
0.578179
0.578179
0.578179
0.578179
0.578178
0.578178
0.578178
0.578178
0.578178
0.578178
0.578178
0.578178
0.578178
0.578177
0.578177
0.578177
0.578177
0.578177
0.578177
0.578177
0.578177
0.578176
0.578176
0.578176
0.578176
0.578176
0.578176
0.578176
0.578176
0.578176
0.578175
0.578175
0.578175
0.578175
0.578175
0.578175
0.578175
0.578175
0.578175
0.578175
0.578174
0.578174
0.578174
0.578174
0.578174
0.578174
0.578174
0.578174
0.578174
0.578173
0.578173
0.578173
0.578173
0.578173
0.578173
0.578173
0.578173
0.578173
0.578173
0.578172
0.578172
0.578172
0.578172
0.578172
0.578172
0.578172
0.578172
0.578172
0.578172
0.578171
0.578171
0.578171
0.578171
0.578171
0.578171
0.578171
0.578171
0.578171
0.578171
0.578171
0.57817
0.57817
0.57817
0.57817
0.57817
0.57817
0.57817
0.57817
0.57817
0.57817
0.57817
0.578169
0.578169
0.578169
0.578169
0.578169
0.578169
0.578169
0.578169
0.578169
0.578169
0.578169
0.578169
0.578168
0.578168
0.578168
0.578168
0.578168
0.578168
0.578168
0.578168
0.578168
0.578168
0.578168
0.578168
0.578167
0.578167
0.578167
0.578167
0.578167
0.578167
0.578167
0.578167
0.578167
0.578167
0.578167
0.578167
0.578167
0.578166
0.578166
0.578166
0.578166
0.578166
0.578166
0.578166
0.578166
0.578166
0.578166
0.578166
0.578166
0.578166
0.578165
0.578165
0.578165
0.578165
0.578165
0.578165
0.578165
0.578165
0.578165
0.578165
0.578165
0.578165
0.578165
0.578165
0.578164
0.578164
0.578164
0.578164
0.578164
0.578164
0.578164
0.578164
0.578164
0.578164
0.578164
0.578164
0.578164
0.578164
0.578164
0.578164
0.578163
0.578163
0.578163
0.578163
0.578163
0.578163
0.578163
0.578163
0.578163
0.578163
0.578163
0.578163
0.578163
0.578163
0.578163
0.578162
0.578162
0.578162
0.578162
0.578162
0.578162
0.578162
0.578162
0.578162
0.578162
0.578162
0.578162
0.578162
0.578162
0.578162
0.578162
0.578162
0.578162
0.578162
0.578162
0.578162
0.578162
0.578162
0.578162
0.578162
0.578162
0.578162
0.578162
0.578162
0.578162
0.578162
0.578162
0.578162
0.578162
0.578162
0.578162
0.578162
0.578162
0.578162
0.578162
0.578162
0.578162
0.578162
0.578162
0.578162
0.578162
0.578162
0.578162
0.578162
0.578162
0.578162
0.578162
0.578162
0.578162
0.578162
0.578162
0.578162
0.578162
0.578162
0.578162
0.578162
0.578162
0.578162
0.578162
0.578162
0.578163
0.578163
0.578163
0.578163
0.578163
0.578163
0.578163
0.578163
0.578163
0.578163
0.578163
0.578163
0.578163
0.578163
0.578163
0.578163
0.578163
0.578163
0.578163
0.578163
0.578163
0.578163
0.578163
0.578163
0.578163
0.578163
0.578163
0.578163
0.578163
0.578163
0.578163
0.578163
0.578163
0.578163
0.578163
0.578163
0.578163
0.578163
0.578163
0.578164
0.578164
0.578164
0.578164
0.578164
0.578164
0.578164
0.578164
0.578164
0.578164
0.578164
0.578164
0.578164
0.578164
0.578164
0.578164
0.578164
0.578164
0.578164
0.578164
0.578164
0.578164
0.578164
0.578164
0.578164
0.578165
0.578165
0.578165
0.578165
0.578165
0.578165
0.578165
0.578165
0.578165
0.578165
0.578165
0.578165
0.578165
0.578165
0.578165
0.578165
0.578165
0.578165
0.578165
0.578166
0.578166
0.578166
0.578166
0.578166
0.578166
0.578166
0.578166
0.578166
0.578166
0.578166
0.578166
0.578166
0.578166
0.578166
0.578166
0.578167
0.578167
0.578167
0.578167
0.578167
0.578167
0.578167
0.578167
0.578167
0.578167
0.578167
0.578167
0.578167
0.578167
0.578168
0.578168
0.578168
0.578168
0.578168
0.578168
0.578168
0.578168
0.578168
0.578168
0.578168
0.578168
0.578169
0.578169
0.578169
0.578169
0.578169
0.578169
0.578169
0.578169
0.578169
0.578169
0.578169
0.578169
0.578169
0.57817
0.57817
0.57817
0.57817
0.57817
0.57817
0.57817
0.57817
0.57817
0.57817
0.57817
0.578171
0.578171
0.578171
0.578171
0.578171
0.578171
0.578171
0.578171
0.578171
0.578171
0.578172
0.578172
0.578172
0.578172
0.578172
0.578172
0.578172
0.578172
0.578172
0.578172
0.578173
0.578173
0.578173
0.578173
0.578173
0.578173
0.578173
0.578173
0.578173
0.578174
0.578174
0.578174
0.578174
0.578174
0.578174
0.578174
0.578174
0.578174
0.578175
0.578175
0.578175
0.578175
0.578175
0.578175
0.578175
0.578175
0.578176
0.578176
0.578176
0.578176
0.578176
0.578176
0.578176
0.578176
0.578177
0.578177
0.578177
0.578177
0.578177
0.578177
0.578177
0.578177
0.578177
0.578178
0.578178
0.578178
0.578178
0.578178
0.578178
0.578179
0.578179
0.578179
0.578179
0.578179
0.578179
0.578179
0.57818
0.57818
0.57818
0.57818
0.57818
0.57818
0.57818
0.57818
0.578181
0.578181
0.578181
0.578181
0.578181
0.578181
0.578182
0.578182
0.578182
0.578182
0.578182
0.578182
0.578182
0.578182
0.578183
0.578183
0.578183
0.578183
0.578183
0.578183
0.578184
0.578184
0.578184
0.578184
0.578184
0.578184
0.578185
0.578185
0.578185
0.578185
0.578185
0.578185
0.578186
0.578186
0.578186
0.578186
0.578186
0.578187
0.578187
0.578187
0.578187
0.578187
0.578187
0.578187
0.578188
0.578188
0.578188
0.578188
0.578188
0.578188
0.578189
0.578189
0.578189
0.578189
0.578189
0.57819
0.57819
0.57819
0.57819
0.57819
0.578191
0.578191
0.578191
0.578191
0.578191
0.578191
0.578192
0.578192
0.578192
0.578192
0.578192
0.578193
0.578193
0.578193
0.578193
0.578193
0.578194
0.578194
0.578194
0.578194
0.578194
0.578195
0.578195
0.578195
0.578195
0.578195
0.578196
0.578196
0.578196
0.578196
0.578196
0.578197
0.578197
0.578197
0.578197
0.578197
0.578198
0.578198
0.578198
0.578198
0.578199
0.578199
0.578199
0.578199
0.578199
0.5782
0.5782
0.5782
0.5782
0.5782
0.578201
0.578201
0.578201
0.578201
0.578202
0.578202
0.578202
0.578202
0.578202
0.578203
0.578203
0.578203
0.578203
0.578203
0.578204
0.578204
0.578204
0.578205
0.578205
0.578205
0.578205
0.578206
0.578206
0.578206
0.578206
0.578206
0.578207
0.578207
0.578207
0.578207
0.578208
0.578208
0.578208
0.578208
0.578209
0.578209
0.578209
0.578209
0.578209
0.57821
0.57821
0.57821
0.578211
0.578211
0.578211
0.578211
0.578212
0.578212
0.578212
0.578212
0.578213
0.578213
0.578213
0.578213
0.578214
0.578214
0.578214
0.578215
0.578215
0.578215
0.578215
0.578216
0.578216
0.578216
0.578216
0.578217
0.578217
0.578217
0.578217
0.578218
0.578218
0.578218
0.578219
0.578219
0.578219
0.578219
0.578219
0.578219
0.578219
0.57822
0.57822
0.578221
0.578221
0.578221
0.578222
0.578222
0.578222
0.578223
0.578223
0.578223
0.578223
0.578224
0.578224
0.578224
0.578224
0.578225
0.578225
0.578226
0.578226
0.578226
0.578226
0.578227
0.578227
0.578227
0.578227
0.578228
0.578228
0.578228
0.578228
0.578229
0.578229
0.578229
0.57823
0.57823
0.57823
0.578231
0.578231
0.578231
0.578231
0.578232
0.578232
0.578232
0.578233
0.578233
0.578233
0.578234
0.578234
0.578234
0.578234
0.578235
0.578235
0.578235
0.578236
0.578236
0.578236
0.578237
0.578237
0.578237
0.578237
0.578238
0.578238
0.578239
0.578239
0.578239
0.578239
0.57824
0.57824
0.578241
0.578241
0.578241
0.578241
0.578242
0.578242
0.578242
0.578243
0.578243
0.578243
0.578244
0.578244
0.578244
0.578245
0.578245
0.578246
0.578246
0.578246
0.578246
0.578247
0.578247
0.578247
0.578248
0.578248
0.578249
0.578249
0.578249
0.578249
0.57825
0.57825
0.578251
0.578251
0.578251
0.578252
0.578252
0.578252
0.578252
0.578253
0.578253
0.578254
0.578254
0.578254
0.578255
0.578255
0.578256
0.578256
0.578256
0.578257
0.578257
0.578257
0.578258
0.578258
0.578258
0.578259
0.578259
0.57826
0.57826
0.57826
0.578261
0.578261
0.578262
0.578262
0.578262
0.578263
0.578263
0.578263
0.578263
0.578264
0.578264
0.578265
0.578265
0.578265
0.578266
0.578266
0.578267
0.578267
0.578267
0.578268
0.578268
0.578269
0.578269
0.578269
0.57827
0.57827
0.578271
0.578271
0.578271
0.578272
0.578272
0.578273
0.578273
0.578273
0.578274
0.578274
0.578275
0.578275
0.578275
0.578276
0.578276
0.578277
0.578277
0.578277
0.578278
0.578278
0.578279
0.578279
0.578279
0.57828
0.57828
0.578281
0.578282
0.578282
0.578282
0.578283
0.578283
0.578284
0.578284
0.578284
0.578285
0.578285
0.578286
0.578286
0.578286
0.578287
0.578287
0.578288
0.578288
0.578289
0.578289
0.57829
0.57829
0.57829
0.578291
0.578291
0.578292
0.578292
0.578292
0.578293
0.578294
0.578294
0.578295
0.578295
0.578295
0.578296
0.578296
0.578297
0.578297
0.578298
0.578298
0.578299
0.578299
0.578299
0.5783
0.5783
0.578301
0.578302
0.578302
0.578302
0.578303
0.578303
0.578304
0.578304
0.578304
0.578305
0.578306
0.578306
0.578306
0.578307
0.578307
0.578308
0.578309
0.578309
0.578309
0.57831
0.57831
0.578311
0.578311
0.578312
0.578312
0.578313
0.578314
0.578314
0.578314
0.578315
0.578315
0.578316
0.578316
0.578317
0.578317
0.578318
0.578318
0.578318
0.578319
0.57832
0.57832
0.578321
0.578321
0.578322
0.578322
0.578323
0.578324
0.578324
0.578324
0.578325
0.578325
0.578326
0.578326
0.578327
0.578327
0.578328
0.578329
0.578329
0.578329
0.57833
0.578331
0.578331
0.578331
0.578332
0.578333
0.578333
0.578334
0.578334
0.578335
0.578335
0.578336
0.578337
0.578337
0.578337
0.578338
0.578339
0.578339
0.578339
0.57834
0.578341
0.578341
0.578342
0.578342
0.578343
0.578344
0.578344
0.578345
0.578345
0.578346
0.578346
0.578347
0.578348
0.578348
0.578348
0.578349
0.57835
0.578351
0.578351
0.578351
0.578352
0.578353
0.578353
0.578353
0.578354
0.578355
0.578355
0.578356
0.578356
0.578357
0.578358
0.578358
0.578359
0.578359
0.57836
0.578361
0.578361
0.578362
0.578362
0.578363
0.578364
0.578364
0.578365
0.578365
0.578366
0.578366
0.578367
0.578368
0.578368
0.578369
0.578369
0.57837
0.578371
0.578371
0.578372
0.578372
0.578373
0.578374
0.578374
0.578375
0.578376
0.578376
0.578377
0.578377
0.578378
0.578379
0.578379
0.57838
0.57838
0.578381
0.578382
0.578383
0.578383
0.578383
0.578384
0.578385
0.578386
0.578386
0.578386
0.578387
0.578388
0.578389
0.57839
0.57839
0.57839
0.578391
0.578392
0.578393
0.578393
0.578394
0.578394
0.578395
0.578396
0.578396
0.578397
0.578398
0.578399
0.578399
0.578399
0.5784
0.578401
0.578402
0.578403
0.578403
0.578403
0.578404
0.578405
0.578406
0.578406
0.578406
0.578407
0.578408
0.578409
0.578409