<?xml version="1.0"?>
<VTKFile type="UnstructuredGrid" version="0.1" byte_order="LittleEndian">
<UnstructuredGrid>
<Piece NumberOfPoints="5000" NumberOfCells="4000">
<PointData Scalars="Reaction 0">
<DataArray type="Float32" Name="Reaction 0" format="ascii">
0.576722
0.576722
0.576723
0.576723
0.576723
0.576723
0.576723
0.576723
0.576723
0.576723
0.576723
0.576723
0.576723
0.576723
0.576723
0.576723
0.576723
0.576723
0.576723
0.576723
0.576723
0.576723
0.576723
0.576723
0.576723
0.576723
0.576723
0.576723
0.576723
0.576723
0.576723
0.576723
0.576723
0.576723
0.576723
0.576723
0.576723
0.576723
0.576724
0.576724
0.576724
0.576724
0.576724
0.576724
0.576724
0.576724
0.576724
0.576724
0.576724
0.576724
0.576724
0.576724
0.576724
0.576724
0.576725
0.576725
0.576725
0.576725
0.576725
0.576725
0.576725
0.576725
0.576725
0.576725
0.576725
0.576725
0.576725
0.576726
0.576726
0.576726
0.576726
0.576726
0.576726
0.576726
0.576726
0.576726
0.576726
0.576727
0.576727
0.576727
0.576727
0.576727
0.576727
0.576727
0.576727
0.576727
0.576727
0.576728
0.576728
0.576728
0.576728
0.576728
0.576728
0.576728
0.576729
0.576729
0.576729
0.576729
0.576729
0.576729
0.576729
0.576729
0.57673
0.57673
0.57673
0.57673
0.57673
0.57673
0.57673
0.576731
0.576731
0.576731
0.576731
0.576731
0.576731
0.576731
0.576732
0.576732
0.576732
0.576732
0.576732
0.576732
0.576733
0.576733
0.576733
0.576733
0.576733
0.576733
0.576734
0.576734
0.576734
0.576734
0.576734
0.576734
0.576735
0.576735
0.576735
0.576735
0.576735
0.576736
0.576736
0.576736
0.576736
0.576736
0.576737
0.576737
0.576737
0.576737
0.576737
0.576738
0.576738
0.576738
0.576738
0.576738
0.576739
0.576739
0.576739
0.576739
0.576739
0.57674
0.57674
0.57674
0.57674
0.57674
0.576741
0.576741
0.576741
0.576741
0.576742
0.576742
0.576742
0.576742
0.576742
0.576743
0.576743
0.576743
0.576743
0.576744
0.576744
0.576744
0.576744
0.576744
0.576745
0.576745
0.576745
0.576745
0.576746
0.576746
0.576746
0.576747
0.576747
0.576747
0.576747
0.576748
0.576748
0.576748
0.576748
0.576749
0.576749
0.576749
0.576749
0.57675
0.57675
0.57675
0.576751
0.576751
0.576751
0.576751
0.576752
0.576752
0.576752
0.576752
0.576753
0.576753
0.576753
0.576753
0.576754
0.576754
0.576754
0.576755
0.576755
0.576755
0.576755
0.576756
0.576756
0.576756
0.576757
0.576757
0.576757
0.576758
0.576758
0.576758
0.576759
0.576759
0.576759
0.576759
0.57676
0.57676
0.57676
0.576761
0.576761
0.576761
0.576762
0.576762
0.576762
0.576762
0.576763
0.576763
0.576764
0.576764
0.576764
0.576765
0.576765
0.576765
0.576766
0.576766
0.576766
0.576767
0.576767
0.576767
0.576767
0.576768
0.576768
0.576769
0.576769
0.576769
0.57677
0.57677
0.576771
0.576771
0.576771
0.576771
0.576772
0.576772
0.576773
0.576773
0.576773
0.576774
0.576774
0.576775
0.576775
0.576775
0.576776
0.576776
0.576776
0.576776
0.576777
0.576777
0.576778
0.576778
0.576778
0.576779
0.576779
0.57678
0.57678
0.57678
0.576781
0.576781
0.576782
0.576782
0.576782
0.576783
0.576783
0.576784
0.576784
0.576784
0.576785
0.576785
0.576786
0.576786
0.576786
0.576787
0.576787
0.576788
0.576788
0.576788
0.576789
0.576789
0.57679
0.57679
0.57679
0.576791
0.576792
0.576792
0.576793
0.576793
0.576793
0.576794
0.576794
0.576795
0.576795
0.576795
0.576796
0.576796
0.576797
0.576797
0.576797
0.576798
0.576799
0.576799
0.576799
0.5768
0.5768
0.576801
0.576801
0.576801
0.576802
0.576803
0.576803
0.576804
0.576804
0.576804
0.576805
0.576805
0.576806
0.576806
0.576807
0.576807
0.576808
0.576808
0.576808
0.576809
0.57681
0.57681
0.576811
0.576811
0.576811
0.576812
0.576813
0.576813
0.576813
0.576814
0.576814
0.576815
0.576816
0.576816
0.576816
0.576817
0.576817
0.576818
0.576818
0.576819
0.576819
0.57682
0.576821
0.576821
0.576821
0.576822
0.576822
0.576823
0.576823
0.576824
0.576824
0.576825
0.576826
0.576826
0.576826
0.576827
0.576828
0.576828
0.576828
0.576829
0.57683
0.57683
0.576831
0.576831
0.576832
0.576832
0.576833
0.576834
0.576834
0.576834
0.576835
0.576836
0.576836
0.576836
0.576837
0.576838
0.576838
0.576839
0.576839
0.57684
0.57684
0.576841
0.576842
0.576842
0.576842
0.576843
0.576844
0.576845
0.576845
0.576845
0.576846
0.576847
0.576847
0.576847
0.576848
0.576849
0.576849
0.57685
0.57685
0.576851
0.576852
0.576852
0.576853
0.576853
0.576854
0.576854
0.576855
0.576856
0.576856
0.576857
0.576857
0.576858
0.576859
0.576859
0.57686
0.57686
0.576861
0.576862
0.576862
0.576863
0.576863
0.576864
0.576865
0.576865
0.576866
0.576866
0.576867
0.576868
0.576868
0.576869
0.576869
0.57687
0.576871
0.576871
0.576872
0.576872
0.576873
0.576874
0.576874
0.576875
0.576876
0.576876
0.576877
0.576877
0.576878
0.576879
0.57688
0.57688
0.57688
0.576881
0.576882
0.576883
0.576883
0.576883
0.576884
0.576885
0.576886
0.576887
0.576887
0.576888
0.576888
0.576889
0.57689
0.57689
0.576891
0.576892
0.576892
0.576893
0.576893
0.576894
0.576895
0.576896
0.576897
0.576897
0.576897
0.576898
0.576899
0.5769
0.5769
0.576901
0.576902
0.576902
0.576903
0.576903
0.576904
0.576905
0.576906
0.576907
0.576907
0.576907
0.576908
0.576909
0.57691
0.57691
0.576911
0.576912
0.576913
0.576913
0.576913
0.576914
0.576915
0.576916
0.576917
0.576917
0.576918
0.576919
0.57692
0.57692
0.57692
0.576921
0.576922
0.576923
0.576924
0.576924
0.576925
0.576926
0.576927
0.576928
0.576928
0.576928
0.576929
0.57693
0.576931
0.576931
0.576932
0.576933
0.576934
0.576935
0.576935
0.576936
0.576937
0.576937
0.576938
0.576938
0.576939
0.57694
0.576941
0.576942
0.576942
0.576943
0.576944
0.576945
0.576946
0.576946
0.576947
0.576948
0.576949
0.57695
0.57695
0.57695
0.576951
0.576952
0.576953
0.576953
0.576954
0.576955
0.576956
0.576957
0.576957
0.576958
0.576959
0.57696
0.576961
0.576961
0.576962
0.576963
0.576964
0.576965
0.576965
0.576966
0.576967
0.576968
0.576969
0.576969
0.57697
0.576971
0.576972
0.576973
0.576973
0.576974
0.576975
0.576975
0.576976
0.576976
0.576977
0.576978
0.576979
0.57698
0.57698
0.576981
0.576982
0.576983
0.576984
0.576984
0.576985
0.576986
0.576987
0.576988
0.576988
0.576989
0.57699
0.576991
0.576993
0.576993
0.576994
0.576995
0.576996
0.576997
0.576997
0.576998
0.576999
0.577
0.577001
0.577001
0.577002
0.577003
0.577004
0.577005
0.577005
0.577006
0.577007
0.577008
0.577009
0.577009
0.57701
0.577011
0.577012
0.577013
0.577013
0.577014
0.577015
0.577016
0.577017
0.577017
0.577018
0.577019
0.577021
0.577022
0.577022
0.577023
0.577024
0.577025
0.577026
0.577026
0.577027
0.577028
0.577029
0.57703
0.57703
0.577031
0.577032
0.577033
0.577035
0.577035
0.577036
0.577037
0.577038
0.577039
0.577039
0.57704
0.577041
0.577042
0.577043
0.577043
0.577044
0.577045
0.577047
0.577048
0.577048
0.577049
0.57705
0.577051
0.577052
0.577052
0.577053
0.577054
0.577055
0.577057
0.577057
0.577058
0.577059
0.57706
0.577061
0.577061
0.577062
0.577063
0.577064
0.577066
0.577066
0.577067
0.577068
0.577069
0.57707
0.57707
0.577071
0.577072
0.577073
0.577075
0.577075
0.577076
0.577077
0.577078
0.577079
0.577079
0.57708
0.577081
0.577083
0.577084
0.577084
0.577085
0.577086
0.577087
0.577088
0.577088
0.57709
0.577091
0.577092
0.577093
0.577093
0.577094
0.577095
0.577097
0.577098
0.577098
0.577099
0.5771
0.577101
0.577103
0.577103
0.577104
0.577105
0.577106
0.577107
0.577107
0.577108
0.57711
0.577111
0.577112
0.577112
0.577113
0.577114
0.577116
0.577117
0.577117
0.577118
0.577119
0.57712
0.577122
0.577122
0.577123
0.577124
0.577125
0.577126
0.577126
0.577128
0.577129
0.57713
0.577131
0.577131
0.577133
0.577134
0.577135
0.577136
0.577136
0.577137
0.577139
0.57714
0.577141
0.577141
0.577142
0.577144
0.577145
0.577146
0.577146
0.577147
0.577149
0.57715
0.577151
0.577151
0.577152
0.577154
0.577155
0.577156
0.577156
0.577157
0.577159
0.57716
0.577161
0.577161
0.577162
0.577164
0.577165
0.577166
0.577166
0.577167
0.577169
0.57717
0.577171
0.577171
0.577172
0.577174
0.577175
0.577176
0.577176
0.577178
0.577179
0.57718
0.577181
0.577181
0.577183
0.577184
0.577185
0.577187
0.577187
0.577188
0.577189
0.57719
0.577192
0.577192
0.577193
0.577194
0.577196
0.577197
0.577197
0.577198
0.577199
0.577201
0.577202
0.577202
0.577203
0.577205
0.577206
0.577207
0.577207
0.577209
0.57721
0.577211
0.577213
0.577213
0.577214
0.577215
0.577216
0.577218
0.577218
0.577219
0.57722
0.577222
0.577223
0.577223
0.577224
0.577226
0.577227
0.577228
0.577228
0.57723
0.577231
0.577232
0.577234
0.577234
0.577235
0.577236
0.577238
0.577239
0.577239
0.577241
0.577242
0.577243
0.577245
0.577245
0.577246
0.577247
0.577249
0.57725
0.57725
0.577251
0.577253
0.577254
0.577255
0.577255
0.577257
0.577258
0.57726
0.577261
0.577261
0.577262
0.577264
0.577265
0.577266
0.577266
0.577268
0.577269
0.57727
0.577272
0.577272
0.577273
0.577275
0.577276
0.577277
0.577277
0.577279
0.57728
0.577282
0.577283
0.577283
0.577284
0.577286
0.577287
0.577289
0.577289
0.57729
0.577291
0.577293
0.577294
0.577294
0.577295
0.577297
0.577298
0.5773
0.5773
0.577301
0.577302
0.577304
0.577305
0.577305
0.577307
0.577308
0.57731
0.577311
0.577311
0.577313
0.577314
0.577316
0.577317
0.577317
0.577319
0.57732
0.577322
0.577323
0.577323
0.577325
0.577326
0.577328
0.577329
0.577329
0.577331
0.577332
0.577334
0.577335
0.577335
0.577336
0.577338
0.577339
0.577341
0.577341
0.577342
0.577344
0.577345
0.577347
0.577347
0.577348
0.57735
0.577351
0.577353
0.577353
0.577354
0.577356
0.577358
0.577359
0.577359
0.577361
0.577362
0.577364
0.577365
0.577365
0.577367
0.577368
0.57737
0.577371
0.577371
0.577373
0.577374
0.577376
0.577377
0.577377
0.577379
0.57738
0.577382
0.577383
0.577383
0.577385
0.577387
0.577388
0.57739
0.57739
0.577391
0.577393
0.577394
0.577396
0.577396
0.577397
0.577399
0.5774
0.577402
0.577402
0.577404
0.577405
0.577407
0.577408
0.577408
0.57741
0.577411
0.577413
0.577414
0.577414
0.577416
0.577418
0.577419
0.577421
0.577421
0.577422
0.577424
0.577425
0.577427
0.577427
0.577429
0.57743
0.577432
0.577433
0.577433
0.577435
0.577436
0.577438
0.57744
0.57744
0.577441
0.577443
0.577444
0.577446
0.577446
0.577448
0.577449
0.577451
0.577452
0.577452
0.577454
0.577456
0.577457
0.577459
0.577459
0.57746
0.577462
0.577464
0.577465
0.577465
0.577467
0.577468
0.57747
0.577472
0.577472
0.577473
0.577475
0.577477
0.577478
0.577478
0.57748
0.577481
0.577483
0.577485
0.577485
0.577486
0.577488
0.57749
0.577491
0.577491
0.577493
0.577494
0.577496
0.577498
0.577498
0.577499
0.577501
0.577503
0.577504
0.577504
0.577506
0.577508
0.577509
0.577511
0.577511
0.577512
0.577514
0.577516
0.577517
0.577517
0.577519
0.577521
0.577522
0.577524
0.577524
0.577526
0.577527
0.577529
0.577531
0.577531
0.577532
0.577534
0.577536
0.577537
0.577537
0.577539
0.577541
0.577542
0.577544
0.577544
0.577546
0.577547
0.577549
0.577551
0.577551
0.577552
0.577554
0.577556
0.577557
0.577557
0.577559
0.577561
0.577563
0.577564
0.577564
0.577566
0.577568
0.577569
0.577571
0.577571
0.577573
0.577574
0.577576
0.577578
0.577578
0.577579
0.577581
0.577583
0.577585
0.577585
0.577586
0.577588
0.57759
0.577591
0.577591
0.577593
0.577595
0.577597
0.577598
0.577598
0.5776
0.577602
0.577603
0.577605
0.577605
0.577607
0.577609
0.57761
0.577612
0.577612
0.577614
0.577616
0.577617
0.577619
0.577619
0.577621
0.577622
0.577624
0.577626
0.577626
0.577628
0.577629
0.577631
0.577633
0.577633
0.577635
0.577636
0.577638
0.57764
0.57764
0.577642
0.577643
0.577645
0.577647
0.577647
0.577649
0.57765
0.577652
0.577654
0.577654
0.577656
0.577657
0.577659
0.577661
0.577661
0.577663
0.577664
0.577666
0.577668
0.577668
0.57767
0.577672
0.577673
0.577675
0.577675
0.577677
0.577679
0.57768
0.577682
0.577682
0.577684
0.577686
0.577688
0.577689
0.577689
0.577691
0.577693
0.577695
0.577697
0.577697
0.577698
0.5777
0.577702
0.577704
0.577704
0.577705
0.577707
0.577709
0.577711
0.577711
0.577713
0.577714
0.577716
0.577718
0.577718
0.57772
0.577722
0.577724
0.577725
0.577725
0.577727
0.577729
0.577731
0.577733
0.577733
0.577734
0.577736
0.577738
0.57774
0.57774
0.577742
0.577743
0.577745
0.577747
0.577747
0.577749
0.577751
0.577753
0.577754
0.577754
0.577756
0.577758
0.57776
0.577762
0.577762
0.577764
0.577765
0.577767
0.577769
0.577769
0.577771
0.577773
0.577775
0.577777
0.577777
0.577778
0.57778
0.577782
0.577784
0.577784
0.577786
0.577788
0.577789
0.577791
0.577791
0.577793
0.577795
0.577797
0.577799
0.577799
0.577801
0.577803
0.577804
0.577806
0.577806
0.577808
0.57781
0.577812
0.577814
0.577814
0.577816
0.577817
0.577819
0.577821
0.577821
0.577823
0.577825
0.577827
0.577829
0.577829
0.577831
0.577833
0.577834
0.577836
0.577836
0.577838
0.57784
0.577842
0.577844
0.577844
0.577846
0.577848
0.57785
0.577851
0.577851
0.577853
0.577855
0.577857
0.577859
0.577859
0.577861
0.577863
0.577865
0.577867
0.577867
0.577869
0.57787
0.577872
0.577874
0.577874
0.577876
0.577878
0.57788
0.577882
0.577882
0.577884
0.577886
0.577888
0.57789
0.57789
0.577892
0.577893
0.577895
0.577897
0.577897
0.577899
0.577901
0.577903
0.577905
0.577905
0.577907
0.577909
0.577911
0.577913
0.577913
0.577915
0.577917
0.577919
0.577921
0.577921
0.577922
0.577924
0.577926
0.577928
0.577928
0.57793
0.577932
0.577934
0.577936
0.577936
0.577938
0.57794
0.577942
0.577944
0.577944
0.577946
0.577948
0.57795
0.577952
0.577952
0.577954
0.577956
0.577958
0.57796
0.57796
0.577962
0.577964
0.577966
0.577968
0.577968
0.577969
0.577971
0.577973
0.577975
0.577975
0.577977
0.577979
0.577981
0.577983
0.577983
0.577985
0.577987
0.577989
0.577991
0.577991
0.577993
0.577995
0.577997
0.577999
0.577999
0.578001
0.578003
0.578005
0.578007
0.578007
0.578009
0.578011
0.578013
0.578015
0.578015
0.578017
0.578019
0.578021
0.578023
0.578023
0.578025
0.578027
0.578029
0.578031
0.578031
0.578033
0.578035
0.578037
0.578039
0.578039
0.578041
0.578043
0.578045
0.578047
0.578047
0.578049
0.578051
0.578053
0.578055
0.578055
0.578057
0.578059
0.578062
0.578064
0.578064
0.578066
0.578068
0.57807
0.578072
0.578072
0.578074
0.578076
0.578078
0.57808
0.57808
0.578082
0.578084
0.578086
0.578088
0.578088
0.57809
0.578092
0.578094
0.578096
0.578096
0.578098
0.5781
0.578102
0.578104
0.578104
0.578106
0.578108
0.578111
0.578113
0.578113
0.578115
0.578117
0.578119
0.578121
0.578121
0.578123
0.578125
0.578127
0.578129
0.578129
0.578131
0.578133
0.578135
0.578137
0.578137
0.578139
0.578142
0.578144
0.578146
0.578146
0.578148
0.57815
0.578152
0.578154
0.578154
0.578156
0.578158
0.57816
0.578162
0.578162
0.578164
0.578167
0.578169
0.578171
0.578171
0.578173
0.578175
0.578177
0.578179
0.578179
0.578181
0.578183
0.578185
0.578187
0.578187
0.57819
0.578192
0.578194
0.578196
0.578196
0.578198
0.5782
0.578202
0.578204
0.578204
0.578206
0.578209
0.578211
0.578213
0.578213
0.578215
0.578217
0.578219
0.578221
0.578221
0.578223
0.578225
0.578228
0.57823
0.57823
0.578232
0.578234
0.578236
0.578238
0.578238
0.57824
0.578243
0.578245
0.578247
0.578247
0.578249
0.578251
0.578253
0.578255
0.578255
0.578257
0.57826
0.578262
0.578264
0.578264
0.578266
0.578268
0.57827
0.578272
0.578272
0.578275
0.578277
0.578279
0.578281
0.578281
0.578283
0.578285
0.578288
0.57829
0.57829
0.578292
0.578294
0.578296
0.578298
0.578298
0.5783
0.578303
0.578305
0.578307
0.578307
0.578309
0.578311
0.578313
0.578316
0.578316
0.578318
0.57832
0.578322
0.578324
0.578324
0.578327
0.578329
0.578331
0.578333
0.578333
0.578335
0.578337
0.57834
0.578342
0.578342
0.578344
0.578346
0.578348
0.578351
0.578351
0.578353
0.578355
0.578357
0.578359
0.578359
0.578362
0.578364
0.578366
0.578368
0.578368
0.57837
0.578373
0.578375
0.578377
0.578377
0.578379
0.578381
0.578384
0.578386
0.578386
0.578388
0.57839
0.578392
0.578395
0.578395
0.578397
0.578399
0.578401
0.578403
0.578403
0.578406
0.578408
0.57841
0.578412
0.578412
0.578415
0.578417
0.578419
0.578421
0.578421
0.578423
0.578426
0.578428
0.57843
0.57843
0.578432
0.578435
0.578437
0.578439
0.578439
0.578441
0.578444
0.578446
0.578448
0.578448
0.57845
0.578452
0.578455
0.578457
0.578457
0.578459
0.578461
0.578464
0.578466
0.578466
0.578468
0.57847
0.578473
0.578475
0.578475
0.578477
0.578479
0.578482
0.578484
0.578484
0.578486
0.578489
0.578491
0.578493
0.578493
0.578495
0.578498
0.5785
0.578502
0.578502
0.578504
0.578507
0.578509
0.578511
0.578511
0.578513
0.578516
0.578518
0.57852
0.57852
0.578523
0.578525
0.578527
0.578529
0.578529
0.578532
0.578534
0.578536
0.578539
0.578539
0.578541
0.578543
0.578545
0.578548
0.578548
0.57855
0.578552
0.578555
0.578557
0.578557
0.578559
0.578561
0.578564
0.578566
0.578566
0.578568
0.578571
0.578573
0.578575
0.578575
0.578578
0.57858
0.578582
0.578584
0.578584
0.578587
0.578589
0.578591
0.578594
0.578594
0.578596
0.578598
0.578601
0.578603
0.578603
0.578605
0.578608
0.57861
0.578612
0.578612
0.578615
0.578617
0.578619
0.578622
0.578622
0.578624
0.578626
0.578629
0.578631
0.578631
0.578633
0.578635
0.578638
0.57864
0.57864
0.578642
0.578645
0.578647
0.578649
0.578649
0.578652
0.578654
0.578656
0.578659
0.578659
0.578661
0.578663
0.578666
0.578668
0.578668
0.57867
0.578672
0.578675
0.578677
0.578677
0.57868
0.578682
0.578685
0.578687
0.578687
0.578689
0.578692
0.578694
0.578696
0.578696
0.578699
0.578701
0.578703
0.578706
0.578706
0.578708
0.578711
0.578713
0.578715
0.578715
0.578718
0.57872
0.578722
0.578725
0.578725
0.578727
0.578729
0.578732
0.578734
0.578734
0.578737
0.578739
0.578741
0.578744
0.578744
0.578746
0.578748
0.578751
0.578753
0.578753
0.578756
0.578758
0.57876
0.578763
0.578763
0.578765
0.578768
0.57877
0.578772
0.578772
0.578775
0.578777
0.578779
0.578782
0.578782
0.578784
0.578787
0.578789
0.578791
0.578791
0.578794
0.578796
0.578799
0.578801
0.578801
0.578803
0.578806
0.578808
0.578811
0.578811
0.578813
0.578815
0.578818
0.57882
0.57882
0.578823
0.578825
0.578828
0.57883
0.57883
0.578832
0.578835
0.578837
0.57884
0.57884
0.578842
0.578844
0.578847
0.578849
0.578849
0.578852
0.578854
0.578857
0.578859
0.578859
0.578861
0.578864
0.578866
0.578869
0.578869
0.578871
0.578874
0.578876
0.578879
0.578879
0.578881
0.578883
0.578886
0.578888
0.578888
0.578891
0.578893
0.578896
0.578898
0.578898
0.5789
0.578903
0.578905
0.578908
0.578908
0.57891
0.578913
0.578915
0.578918
0.578918
0.57892
0.578923
0.578925
0.578927
0.578927
0.57893
0.578932
0.578935
0.578937
0.578937
0.57894
0.578942
0.578945
0.578947
0.578947
0.57895
0.578952
0.578955
0.578957
0.578957
0.57896
0.578962
0.578965
0.578967
0.578967
0.57897
0.578972
0.578974
0.578977
0.578977
0.578979
0.578982
0.578984
0.578987
0.578987
0.578989
0.578992
0.578994
0.578997
0.578997
0.578999
0.579002
0.579004
0.579007
0.579007
0.579009
0.579012
0.579014
0.579017
0.579017
0.579019
0.579022
0.579024
0.579027
0.579027
0.579029
0.579032
0.579034
0.579037
0.579037
0.579039
0.579042
0.579044
0.579047
0.579047
0.579049
0.579052
0.579054
0.579057
0.579057
0.57906
0.579062
0.579065
0.579067
0.579067
0.57907
0.579072
0.579075
0.579077
0.579077
0.57908
0.579082
0.579085
0.579087
0.579087
0.57909
0.579092
0.579095
0.579097
0.579097
0.5791
0.579103
0.579105
0.579108
0.579108
0.57911
0.579113
0.579115
0.579118
0.579118
0.57912
0.579123
0.579125
0.579128
0.579128
0.579131
0.579133
0.579136
0.579138
0.579138
0.579141
0.579143
0.579146
0.579148
0.579148
0.579151
0.579154
0.579156
0.579159
0.579159
0.579161
0.579164
0.579166
0.579169
0.579169
0.579172
0.579174
0.579177
0.579179
0.579179
0.579182
0.579184
0.579187
0.57919
0.57919
0.579192
0.579195
0.579197
0.5792
0.5792
0.579203
0.579205
0.579208
0.57921
0.57921
0.579213
0.579215
0.579218
0.579221
0.579221
0.579223
0.579226
0.579228
0.579231
0.579231
0.579234
0.579236
0.579239
0.579241
0.579241
0.579244
0.579247
0.579249
0.579252
0.579252
0.579254
0.579257
0.57926
0.579262
0.579262
0.579265
0.579268
0.57927
0.579273
0.579273
0.579275
0.579278
0.579281
0.579283
0.579283
0.579286
0.579288
0.579291
0.579294
0.579294
0.579296
0.579299
0.579302
0.579304
0.579304
0.579307
0.57931
0.579312
0.579315
0.579315
0.579317
0.57932
0.579323
0.579325
0.579325
0.579328
0.579331
0.579333
0.579336
0.579336
0.579339
0.579341
0.579344
0.579347
0.579347
0.579349
0.579352
0.579354
0.579357
0.579357
0.57936
0.579362
0.579365
0.579368
0.579368
0.57937
0.579373
0.579376
0.579378
0.579378
0.579381
0.579384
0.579386
0.579389
0.579389
0.579392
0.579394
0.579397
0.5794
0.5794
0.579402
0.579405
0.579408
0.57941
0.57941
0.579413
0.579416
0.579418
0.579421
0.579421
0.579424
0.579427
0.579429
0.579432
0.579432
0.579435
0.579437
0.57944
0.579443
0.579443
0.579445
0.579448
0.579451
0.579453
0.579453
0.579456
0.579459
0.579462
0.579464
0.579464
0.579467
0.57947
0.579472
0.579475
0.579475
0.579478
0.57948
0.579483
0.579486
0.579486
0.579489
0.579491
0.579494
0.579497
0.579497
0.579499
0.579502
0.579505
0.579508
0.579508
0.57951
0.579513
0.579516
0.579519
0.579519
0.579521
0.579524
0.579527
0.579529
0.579529
0.579532
0.579535
0.579538
0.57954
0.57954
0.579543
0.579546
0.579549
0.579551
0.579551
0.579554
0.579557
0.57956
0.579562
0.579562
0.579565
0.579568
0.579571
0.579573
0.579573
0.579576
0.579579
0.579582
0.579584
0.579584
0.579587
0.57959
0.579593
0.579595
0.579595
0.579598
0.579601
0.579604
0.579606
0.579606
0.579609
0.579612
0.579615
0.579617
0.579617
0.57962
0.579623
0.579626
0.579629
0.579629
0.579631
0.579634
0.579637
0.57964
0.57964
0.579642
0.579645
0.579648
0.579651
0.579651
0.579654
0.579656
0.579659
0.579662
0.579662
0.579665
0.579668
0.57967
0.579673
0.579673
0.579676
0.579679
0.579682
0.579684
0.579684
0.579687
0.57969
0.579693
0.579696
0.579696
0.579698
0.579701
0.579704
0.579707
0.579707
0.57971
0.579712
0.579715
0.579718
0.579718
0.579721
0.579724
0.579726
0.579729
0.579729
0.579732
0.579735
0.579738
0.579741
0.579741
0.579743
0.579746
0.579749
0.579752
0.579752
0.579755
0.579758
0.57976
0.579763
0.579763
0.579766
0.579769
0.579772
0.579775
0.579775
0.579777
0.57978
0.579783
0.579786
0.579786
0.579789
0.579792
0.579794
0.579797
0.579797
0.5798
0.579803
0.579806
0.579809
0.579809
0.579812
0.579814
0.579817
0.57982
0.57982
0.579823
0.579826
0.579829
0.579832
0.579832
0.579834
0.579837
0.57984
0.579843
0.579843
0.579846
0.579849
0.579852
0.579855
0.579855
0.579857
0.57986
0.579863
0.579866
0.579866
0.579869
0.579872
0.579875
0.579878
0.579878
0.57988
0.579883
0.579886
0.579889
0.579889
0.579892
0.579895
0.579898
0.5799
0.5799
0.579903
0.579906
0.579909
0.579912
0.579912
0.579915
0.579917
0.579921
0.579924
0.579924
0.579927
0.57993
0.579932
0.579935
0.579935
0.579938
0.579941
0.579944
0.579947
0.579947
0.57995
0.579953
0.579956
0.579959
0.579959
0.579962
0.579964
0.579967
0.57997
0.57997
0.579973
0.579976
0.579979
0.579982
0.579982
0.579985
0.579988
0.579991
0.579994
0.579994
0.579997
0.58
0.580002
0.580005
0.580005
0.580008
0.580011
0.580014
0.580017
0.580017
0.58002
0.580023
0.580026
0.580029
0.580029
0.580032
0.580035
0.580038
0.580041
0.580041
0.580044
0.580047
0.580049
0.580052
0.580052
0.580055
0.580058
0.580061
0.580064
0.580064
0.580067
0.58007
0.580073
0.580076
0.580076
0.580079
0.580082
0.580085
0.580088
0.580088
0.580091
0.580094
0.580097
0.5801
0.5801
0.580103
0.580106
0.580109
0.580112
0.580112
0.580115
0.580118
0.580121
0.580124
0.580124
0.580127
0.58013
0.580133
0.580136
0.580136
0.580139
0.580142
0.580145
0.580148
0.580148
0.580151
0.580154
0.580157
0.58016
0.58016
0.580163
0.580166
0.580169
0.580172
0.580172
0.580175
0.580178
0.580181
0.580184
0.580184
0.580187
0.58019
0.580193
0.580196
0.580196
0.580199
0.580202
0.580205
0.580208
0.580208
0.580211
0.580214
0.580217
0.58022
0.58022
0.580223
0.580226
0.580229
0.580232
0.580232
0.580235
0.580238
0.580241
0.580244
0.580244
0.580247
0.58025
0.580253
0.580256
0.580256
0.580259
0.580262
0.580265
0.580268
0.580268
0.580271
0.580274
0.580277
0.58028
0.58028
0.580284
0.580287
0.58029
0.580293
0.580293
0.580296
0.580299
0.580302
0.580305
0.580305
0.580308
0.580311
0.580314
0.580317
0.580317
0.58032
0.580323
0.580326
0.580329
0.580329
0.580333
0.580336
0.580339
0.580342
0.580342
0.580345
0.580348
0.580351
0.580354
0.580354
0.580357
0.58036
0.580363
0.580366
0.580366
0.58037
0.580373
0.580376
0.580379
0.580379
0.580382
0.580385
0.580388
0.580391
0.580391
0.580394
0.580397
0.580401
0.580404
0.580404
0.580407
0.58041
0.580413
0.580416
0.580416
0.580419
0.580422
0.580425
0.580429
0.580429
0.580432
0.580435
0.580438
0.580441
0.580441
0.580444
0.580447
0.58045
0.580454
0.580454
0.580457
0.58046
0.580463
0.580466
0.580466
0.580469
0.580472
0.580475
0.580479
0.580479
0.580482
0.580485
0.580488
0.580491
0.580491
0.580494
0.580497
0.580501
0.580504
0.580504
0.580507
0.58051
0.580513
0.580516
0.580516
0.58052
0.580523
0.580526
0.580529
0.580529
0.580532
0.580535
0.580538
0.580542
0.580542
0.580545
0.580548
0.580551
0.580554
0.580554
0.580558
0.580561
0.580564
0.580567
0.580567
0.58057
0.580573
0.580577
0.58058
0.58058
0.580583
0.580586
0.580589
0.580593
0.580593
0.580596
0.580599
0.580602
0.580605
0.580605
0.580608
0.580612
0.580615
0.580618
0.580618
0.580621
0.580624
0.580628
0.580631
0.580631
0.580634
0.580637
0.580641
0.580644
0.580644
0.580647
0.58065
0.580653
0.580657
0.580657
0.58066
0.580663
0.580666
0.580669
0.580669
0.580673
0.580676
0.580679
0.580682
0.580682
0.580686
0.580689
0.580692
0.580695
0.580695
0.580699
0.580702
0.580705
0.580708
0.580708
0.580712
0.580715
0.580718
0.580721
0.580721
0.580725
0.580728
0.580731
0.580734
0.580734
0.580738
0.580741
0.580744
0.580747
0.580747
0.580751
0.580754
0.580757
0.58076
0.58076
0.580764
0.580767
0.58077
0.580773
0.580773
0.580777
0.58078
0.580783
0.580787
0.580787
0.58079
0.580793
0.580796
0.5808
0.5808
0.580803
0.580806
0.58081
0.580813
0.580813
0.580816
0.580819
0.580823
0.580826
0.580826
0.580829
0.580833
0.580836
0.580839
0.580839
0.580842
0.580846
0.580849
0.580852
0.580852
0.580856
0.580859
0.580862
0.580866
0.580866
0.580869
0.580872
0.580876
0.580879
0.580879
0.580882
0.580886
0.580889
0.580892
0.580892
0.580896
0.580899
0.580902
0.580906
0.580906
0.580909
0.580912
0.580916
0.580919
0.580919
0.580922
0.580926
0.580929
0.580932
0.580932
0.580936
0.580939
0.580942
0.580946
0.580946
0.580949
0.580952
0.580956
0.580959
0.580959
0.580962
0.580966
0.580969
0.580972
0.580972
0.580976
0.580979
0.580983
0.580986
0.580986
0.580989
0.580993
0.580996
0.580999
0.580999
0.581003
0.581006
0.58101
0.581013
0.581013
0.581016
0.58102
0.581023
0.581026
0.581026
0.58103
0.581033
0.581037
0.58104
0.58104
0.581043
0.581047
0.58105
0.581054
0.581054
0.581057
0.58106
0.581064
0.581067
0.581067
0.581071
0.581074
0.581077
0.581081
0.581081
0.581084
0.581088
0.581091
0.581094
0.581094
0.581098
0.581101
0.581105
0.581108
0.581108
0.581111
0.581115
0.581118
0.581121
0.581121
0.581125
0.581128
0.581132
0.581135
0.581135
0.581139
0.581142
0.581146
0.581149
0.581149
0.581153
0.581156
0.58116
0.581163
0.581163
0.581167
0.58117
0.581173
0.581177
0.581177
0.58118
0.581184
0.581187
0.581191
0.581191
0.581194
0.581198
0.581201
0.581205
0.581205
0.581208
0.581212
0.581215
0.581218
0.581218
0.581222
0.581225
0.581229
0.581232
0.581232
0.581236
0.581239
0.581243
0.581246
0.581246
0.58125
0.581253
0.581257
0.58126
0.58126
0.581264
0.581267
0.581271
0.581274
0.581274
0.581278
0.581281
0.581285
0.581288
0.581288
0.581292
0.581295
0.581299
0.581302
0.581302
0.581306
0.581309
0.581313
0.581316
0.581316
0.58132
0.581323
0.581327
0.58133
0.58133
0.581334
0.581337
0.581341
0.581345
0.581345
0.581348
0.581352
0.581355
0.581359
0.581359
0.581362
0.581366
0.581369
0.581373
0.581373
0.581376
0.58138
0.581383
0.581387
0.581387
0.581391
0.581394
0.581398
0.581401
0.581401
0.581405
0.581408
0.581412
0.581415
0.581415
0.581419
0.581423
0.581426
0.58143
0.58143
0.581433
0.581437
0.58144
0.581444
0.581444
0.581448
0.581451
0.581455
0.581458
0.581458
0.581462
0.581466
0.581469
0.581473
0.581473
0.581476
0.58148
0.581484
0.581487
0.581487
0.581491
0.581494
0.581498
0.581502
0.581502
0.581505
0.581509
0.581512
0.581516
0.581516
0.58152
0.581523
0.581527
0.58153
0.58153
0.581534
0.581538
0.581541
0.581545
0.581545
0.581549
0.581552
0.581556
0.581559
0.581559
0.581563
0.581567
0.58157
0.581574
0.581574
0.581578
0.581581
0.581585
0.581589
0.581589
0.581592
0.581596
0.581599
0.581603
0.581603
0.581607
0.58161
0.581614
0.581618
0.581618
0.581621
0.581625
0.581629
0.581632
0.581632
0.581636
0.58164
0.581643
0.581647
0.581647
0.581651
0.581654
0.581658
0.581662
0.581662
0.581665
0.581669
0.581673
0.581676
0.581676
0.58168
0.581684
0.581688
0.581691
0.581691
0.581695
0.581699
0.581702
0.581706
0.581706
0.58171
0.581713
0.581717
0.581721
0.581721
0.581725
0.581728
0.581732
0.581736
0.581736
0.581739
0.581743
0.581747
0.581751
0.581751
0.581754
0.581758
0.581762
0.581766
0.581766
0.581769
0.581773
0.581777
0.58178
0.58178
0.581784
0.581788
0.581792
0.581795
0.581795
0.581799
0.581803
0.581807
0.58181
0.58181
0.581814
0.581818
0.581822
0.581825
0.581825
0.581829
0.581833
0.581837
0.58184
0.58184
0.581844
0.581848
0.581852
0.581856
0.581856
0.581859
0.581863
0.581867
0.581871
0.581871
0.581874
0.581878
0.581882
0.581886
0.581886
0.58189
0.581893
0.581897
0.581901
0.581901
0.581905
0.581909
0.581912
0.581916
0.581916
0.58192
0.581924
0.581928
0.581931
0.581931
0.581935
0.581939
0.581943
0.581947
0.581947
0.58195
0.581954
0.581958
0.581962
0.581962
0.581966
0.58197
0.581973
0.581977
0.581977
0.581981
0.581985
0.581989
0.581993
0.581993
0.581996
0.582
0.582004
0.582008
0.582008
0.582012
0.582016
0.582019
0.582023
0.582023
0.582027
0.582031
0.582035
0.582039
0.582039
0.582043
0.582047
0.58205
0.582054
0.582054
0.582058
0.582062
0.582066
0.58207
0.58207
0.582074
0.582077
0.582081
0.582085
0.582085
0.582089
0.582093
0.582097
0.582101
0.582101
0.582105
0.582109
0.582113
0.582116
0.582116
0.58212
0.582124
0.582128
0.582132
0.582132
0.582136
0.58214
0.582144
0.582148
0.582148
0.582152
0.582156
0.582159
0.582163
0.582163
0.582167
0.582171
0.582175
0.582179
0.582179
0.582183
0.582187
0.582191
0.582195
0.582195
0.582199
0.582203
0.582207
0.582211
0.582211
0.582215
0.582218
0.582222
0.582226
0.582226
0.58223
0.582234
0.582238
0.582242
0.582242
0.582246
0.58225
0.582254
0.582258
0.582258
0.582262
0.582266
0.58227
0.582274
0.582274
0.582278
0.582282
0.582286
0.58229
0.58229
0.582294
0.582298
0.582302
0.582306
0.582306
0.58231
0.582314
0.582318
0.582322
0.582322
0.582326
0.58233
0.582334
0.582337
0.582337
0.582341
0.582345
0.582349
0.582353
0.582353
0.582357
0.582362
0.582366