<?xml version="1.0"?>
<VTKFile type="UnstructuredGrid" version="0.1" byte_order="LittleEndian">
<UnstructuredGrid>
<Piece NumberOfPoints="5000" NumberOfCells="4000">
<PointData Scalars="Reaction 0">
<DataArray type="Float32" Name="Reaction 0" format="ascii">
0.385812
0.385812
0.385812
0.385812
0.385812
0.385812
0.385812
0.385812
0.385813
0.385813
0.385813
0.385813
0.385813
0.385814
0.385814
0.385814
0.385814
0.385815
0.385815
0.385816
0.385816
0.385816
0.385817
0.385817
0.385818
0.385818
0.385818
0.385819
0.38582
0.38582
0.38582
0.385821
0.385822
0.385823
0.385823
0.385823
0.385824
0.385825
0.385826
0.385827
0.385827
0.385828
0.385829
0.38583
0.385831
0.385831
0.385832
0.385833
0.385834
0.385835
0.385835
0.385836
0.385838
0.385839
0.38584
0.38584
0.385841
0.385843
0.385844
0.385845
0.385845
0.385847
0.385848
0.38585
0.385851
0.385851
0.385853
0.385854
0.385856
0.385858
0.385858
0.385859
0.385861
0.385863
0.385864
0.385864
0.385866
0.385868
0.38587
0.385872
0.385872
0.385873
0.385875
0.385877
0.385879
0.385879
0.385881
0.385883
0.385885
0.385887
0.385887
0.385889
0.385892
0.385894
0.385896
0.385896
0.385898
0.3859
0.385903
0.385905
0.385905
0.385907
0.38591
0.385912
0.385915
0.385915
0.385917
0.38592
0.385922
0.385925
0.385925
0.385927
0.38593
0.385932
0.385935
0.385935
0.385938
0.38594
0.385943
0.385946
0.385946
0.385949
0.385952
0.385955
0.385957
0.385957
0.38596
0.385963
0.385966
0.385969
0.385969
0.385972
0.385975
0.385978
0.385982
0.385982
0.385985
0.385988
0.385991
0.385994
0.385994
0.385998
0.386001
0.386004
0.386008
0.386008
0.386011
0.386014
0.386018
0.386021
0.386021
0.386025
0.386028
0.386032
0.386036
0.386036
0.386039
0.386043
0.386047
0.38605
0.38605
0.386054
0.386058
0.386062
0.386065
0.386065
0.386069
0.386073
0.386077
0.386081
0.386081
0.386085
0.386089
0.386093
0.386097
0.386097
0.386101
0.386105
0.386109
0.386114
0.386114
0.386118
0.386122
0.386126
0.386131
0.386131
0.386135
0.386139
0.386144
0.386148
0.386148
0.386152
0.386157
0.386161
0.386166
0.386166
0.38617
0.386175
0.38618
0.386184
0.386184
0.386189
0.386194
0.386198
0.386203
0.386203
0.386208
0.386213
0.386218
0.386223
0.386223
0.386227
0.386232
0.386237
0.386242
0.386242
0.386247
0.386252
0.386257
0.386263
0.386263
0.386268
0.386273
0.386278
0.386283
0.386283
0.386289
0.386294
0.386299
0.386304
0.386304
0.38631
0.386315
0.386321
0.386326
0.386326
0.386332
0.386337
0.386343
0.386348
0.386348
0.386354
0.386359
0.386365
0.386371
0.386371
0.386376
0.386382
0.386388
0.386394
0.386394
0.3864
0.386406
0.386411
0.386417
0.386417
0.386423
0.386429
0.386435
0.386441
0.386441
0.386447
0.386453
0.38646
0.386466
0.386466
0.386472
0.386478
0.386484
0.386491
0.386491
0.386497
0.386503
0.38651
0.386516
0.386516
0.386522
0.386529
0.386535
0.386542
0.386542
0.386548
0.386555
0.386562
0.386568
0.386568
0.386575
0.386581
0.386588
0.386595
0.386595
0.386602
0.386608
0.386615
0.386622
0.386622
0.386629
0.386636
0.386643
0.38665
0.38665
0.386657
0.386664
0.386671
0.386678
0.386678
0.386685
0.386692
0.386699
0.386707
0.386707
0.386714
0.386721
0.386728
0.386736
0.386736
0.386743
0.38675
0.386758
0.386765
0.386765
0.386773
0.38678
0.386788
0.386795
0.386795
0.386803
0.38681
0.386818
0.386826
0.386826
0.386833
0.386841
0.386849
0.386857
0.386857
0.386865
0.386872
0.38688
0.386888
0.386888
0.386896
0.386904
0.386912
0.38692
0.38692
0.386928
0.386936
0.386944
0.386952
0.386952
0.386961
0.386969
0.386977
0.386985
0.386985
0.386993
0.387002
0.38701
0.387018
0.387018
0.387027
0.387035
0.387044
0.387052
0.387052
0.387061
0.387069
0.387078
0.387086
0.387086
0.387095
0.387104
0.387112
0.387121
0.387121
0.38713
0.387139
0.387147
0.387156
0.387156
0.387165
0.387174
0.387183
0.387192
0.387192
0.387201
0.38721
0.387219
0.387228
0.387228
0.387237
0.387246
0.387255
0.387264
0.387264
0.387274
0.387283
0.387292
0.387301
0.387301
0.387311
0.38732
0.387329
0.387339
0.387339
0.387348
0.387358
0.387367
0.387377
0.387377
0.387386
0.387396
0.387406
0.387415
0.387415
0.387425
0.387435
0.387444
0.387454
0.387454
0.387464
0.387474
0.387484
0.387493
0.387493
0.387503
0.387513
0.387523
0.387533
0.387533
0.387543
0.387553
0.387563
0.387573
0.387573
0.387584
0.387594
0.387604
0.387614
0.387614
0.387624
0.387635
0.387645
0.387655
0.387655
0.387666
0.387676
0.387687
0.387697
0.387697
0.387708
0.387718
0.387729
0.387739
0.387739
0.38775
0.38776
0.387771
0.387782
0.387782
0.387792
0.387803
0.387814
0.387825
0.387825
0.387836
0.387846
0.387857
0.387868
0.387868
0.387879
0.38789
0.387901
0.387912
0.387912
0.387923
0.387934
0.387946
0.387957
0.387957
0.387968
0.387979
0.38799
0.388002
0.388002
0.388013
0.388024
0.388036
0.388047
0.388047
0.388058
0.38807
0.388081
0.388093
0.388093
0.388104
0.388116
0.388128
0.388139
0.388139
0.388151
0.388162
0.388174
0.388186
0.388186
0.388198
0.388209
0.388221
0.388233
0.388233
0.388245
0.388257
0.388269
0.388281
0.388281
0.388293
0.388305
0.388317
0.388329
0.388329
0.388341
0.388353
0.388365
0.388378
0.388378
0.38839
0.388402
0.388414
0.388427
0.388427
0.388439
0.388451
0.388464
0.388476
0.388476
0.388489
0.388501
0.388514
0.388526
0.388526
0.388539
0.388552
0.388564
0.388577
0.388577
0.38859
0.388602
0.388615
0.388628
0.388628
0.388641
0.388653
0.388666
0.388679
0.388679
0.388692
0.388705
0.388718
0.388731
0.388731
0.388744
0.388757
0.38877
0.388783
0.388783
0.388797
0.38881
0.388823
0.388836
0.388836
0.38885
0.388863
0.388876
0.38889
0.38889
0.388903
0.388916
0.38893
0.388943
0.388943
0.388957
0.38897
0.388984
0.388997
0.388997
0.389011
0.389025
0.389038
0.389052
0.389052
0.389066
0.38908
0.389093
0.389107
0.389107
0.389121
0.389135
0.389149
0.389163
0.389163
0.389177
0.389191
0.389205
0.389219
0.389219
0.389233
0.389247
0.389261
0.389276
0.389276
0.38929
0.389304
0.389318
0.389333
0.389333
0.389347
0.389361
0.389376
0.38939
0.38939
0.389404
0.389419
0.389433
0.389448
0.389448
0.389462
0.389477
0.389492
0.389506
0.389506
0.389521
0.389536
0.38955
0.389565
0.389565
0.38958
0.389595
0.38961
0.389624
0.389624
0.389639
0.389654
0.389669
0.389684
0.389684
0.389699
0.389714
0.389729
0.389745
0.389745
0.38976
0.389775
0.38979
0.389805
0.389805
0.38982
0.389836
0.389851
0.389866
0.389866
0.389882
0.389897
0.389913
0.389928
0.389928
0.389944
0.389959
0.389975
0.38999
0.38999
0.390006
0.390021
0.390037
0.390053
0.390053
0.390068
0.390084
0.3901
0.390116
0.390116
0.390132
0.390147
0.390163
0.390179
0.390179
0.390195
0.390211
0.390227
0.390243
0.390243
0.390259
0.390275
0.390292
0.390308
0.390308
0.390324
0.39034
0.390356
0.390373
0.390373
0.390389
0.390405
0.390422
0.390438
0.390438
0.390454
0.390471
0.390487
0.390504
0.390504
0.39052
0.390537
0.390553
0.39057
0.39057
0.390587
0.390603
0.39062
0.390637
0.390637
0.390654
0.39067
0.390687
0.390704
0.390704
0.390721
0.390738
0.390755
0.390772
0.390772
0.390789
0.390806
0.390823
0.39084
0.39084
0.390857
0.390874
0.390891
0.390909
0.390909
0.390926
0.390943
0.39096
0.390978
0.390978
0.390995
0.391012
0.39103
0.391047
0.391047
0.391065
0.391082
0.3911
0.391117
0.391117
0.391135
0.391152
0.39117
0.391188
0.391188
0.391205
0.391223
0.391241
0.391259
0.391259
0.391276
0.391294
0.391312
0.39133
0.39133
0.391348
0.391366
0.391384
0.391402
0.391402
0.39142
0.391438
0.391456
0.391474
0.391474
0.391492
0.391511
0.391529
0.391547
0.391547
0.391565
0.391584
0.391602
0.39162
0.39162
0.391639
0.391657
0.391676
0.391694
0.391694
0.391712
0.391731
0.39175
0.391768
0.391768
0.391787
0.391805
0.391824
0.391843
0.391843
0.391862
0.39188
0.391899
0.391918
0.391918
0.391937
0.391956
0.391975
0.391994
0.391994
0.392013
0.392032
0.392051
0.39207
0.39207
0.392089
0.392108
0.392127
0.392146
0.392146
0.392165
0.392185
0.392204
0.392223
0.392223
0.392242
0.392262
0.392281
0.392301
0.392301
0.39232
0.392339
0.392359
0.392378
0.392378
0.392398
0.392418
0.392437
0.392457
0.392457
0.392476
0.392496
0.392516
0.392536
0.392536
0.392555
0.392575
0.392595
0.392615
0.392615
0.392635
0.392655
0.392675
0.392695
0.392695
0.392715
0.392735
0.392755
0.392775
0.392775
0.392795
0.392815
0.392835
0.392856
0.392856
0.392876
0.392896
0.392916
0.392937
0.392937
0.392957
0.392978
0.392998
0.393018
0.393018
0.393039
0.393059
0.39308
0.3931
0.3931
0.393121
0.393142
0.393162
0.393183
0.393183
0.393204
0.393224
0.393245
0.393266
0.393266
0.393287
0.393308
0.393329
0.39335
0.39335
0.39337
0.393391
0.393412
0.393433
0.393433
0.393455
0.393476
0.393497
0.393518
0.393518
0.393539
0.39356
0.393582
0.393603
0.393603
0.393624
0.393645
0.393667
0.393688
0.393688
0.39371
0.393731
0.393752
0.393774
0.393774
0.393795
0.393817
0.393839
0.39386
0.39386
0.393882
0.393903
0.393925
0.393947
0.393947
0.393969
0.39399
0.394012
0.394034
0.394034
0.394056
0.394078
0.3941
0.394122
0.394122
0.394144
0.394166
0.394188
0.39421
0.39421
0.394232
0.394254
0.394276
0.394298
0.394298
0.394321
0.394343
0.394365
0.394387
0.394387
0.39441
0.394432
0.394455
0.394477
0.394477
0.394499
0.394522
0.394544
0.394567
0.394567
0.39459
0.394612
0.394635
0.394657
0.394657
0.39468
0.394703
0.394726
0.394748
0.394748
0.394771
0.394794
0.394817
0.39484
0.39484
0.394863
0.394886
0.394909
0.394932
0.394932
0.394955
0.394978
0.395001
0.395024
0.395024
0.395047
0.39507
0.395093
0.395117
0.395117
0.39514
0.395163
0.395186
0.39521
0.39521
0.395233
0.395257
0.39528
0.395303
0.395303
0.395327
0.395351
0.395374
0.395398
0.395398
0.395421
0.395445
0.395469
0.395492
0.395492
0.395516
0.39554
0.395564
0.395587
0.395587
0.395611
0.395635
0.395659
0.395683
0.395683
0.395707
0.395731
0.395755
0.395779
0.395779
0.395803
0.395827
0.395851
0.395875
0.395875
0.3959
0.395924
0.395948
0.395972
0.395972
0.395997
0.396021
0.396045
0.39607
0.39607
0.396094
0.396119
0.396143
0.396168
0.396168
0.396192
0.396217
0.396241
0.396266
0.396266
0.396291
0.396315
0.39634
0.396365
0.396365
0.396389
0.396414
0.396439
0.396464
0.396464
0.396489
0.396514
0.396539
0.396564
0.396564
0.396589
0.396614
0.396639
0.396664
0.396664
0.396689
0.396714
0.396739
0.396764
0.396764
0.39679
0.396815
0.39684
0.396866
0.396866
0.396891
0.396916
0.396942
0.396967
0.396967
0.396993
0.397018
0.397044
0.397069
0.397069
0.397095
0.39712
0.397146
0.397172
0.397172
0.397197
0.397223
0.397249
0.397275
0.397275
0.3973
0.397326
0.397352
0.397378
0.397378
0.397404
0.39743
0.397456
0.397482
0.397482
0.397508
0.397534
0.39756
0.397586
0.397586
0.397613
0.397639
0.397665
0.397691
0.397691
0.397717
0.397744
0.39777
0.397796
0.397796
0.397823
0.397849
0.397876
0.397902
0.397902
0.397929
0.397955
0.397982
0.398008
0.398008
0.398035
0.398062
0.398088
0.398115
0.398115
0.398142
0.398169
0.398195
0.398222
0.398222
0.398249
0.398276
0.398303
0.39833
0.39833
0.398357
0.398384
0.398411
0.398438
0.398438
0.398465
0.398492
0.398519
0.398546
0.398546
0.398574
0.398601
0.398628
0.398655
0.398655
0.398683
0.39871
0.398737
0.398765
0.398765
0.398792
0.39882
0.398847
0.398875
0.398875
0.398902
0.39893
0.398958
0.398985
0.398985
0.399013
0.399041
0.399068
0.399096
0.399096
0.399124
0.399152
0.399179
0.399207
0.399207
0.399235
0.399263
0.399291
0.399319
0.399319
0.399347
0.399375
0.399403
0.399431
0.399431
0.399459
0.399488
0.399516
0.399544
0.399544
0.399572
0.399601
0.399629
0.399657
0.399657
0.399686
0.399714
0.399742
0.399771
0.399771
0.399799
0.399828
0.399856
0.399885
0.399885
0.399914
0.399942
0.399971
0.399999
0.399999
0.400028
0.400057
0.400086
0.400114
0.400114
0.400143
0.400172
0.400201
0.40023
0.40023
0.400259
0.400288
0.400317
0.400346
0.400346
0.400375
0.400404
0.400433
0.400462
0.400462
0.400492
0.400521
0.40055
0.400579
0.400579
0.400608
0.400638
0.400667
0.400697
0.400697
0.400726
0.400755
0.400785
0.400814
0.400814
0.400844
0.400873
0.400903
0.400933
0.400933
0.400962
0.400992
0.401022
0.401051
0.401051
0.401081
0.401111
0.401141
0.401171
0.401171
0.4012
0.40123
0.40126
0.40129
0.40129
0.40132
0.40135
0.40138
0.40141
0.40141
0.40144
0.40147
0.401501
0.401531
0.401531
0.401561
0.401591
0.401622
0.401652
0.401652
0.401682
0.401713
0.401743
0.401773
0.401773
0.401804
0.401834
0.401865
0.401895
0.401895
0.401926
0.401957
0.401987
0.402018
0.402018
0.402048
0.402079
0.40211
0.402141
0.402141
0.402171
0.402202
0.402233
0.402264
0.402264
0.402295
0.402326
0.402357
0.402388
0.402388
0.402419
0.40245
0.402481
0.402512
0.402512
0.402543
0.402574
0.402606
0.402637
0.402637
0.402668
0.402699
0.402731
0.402762
0.402762
0.402793
0.402825
0.402856
0.402888
0.402888
0.402919
0.402951
0.402982
0.403014
0.403014
0.403046
0.403077
0.403109
0.403141
0.403141
0.403172
0.403204
0.403236
0.403268
0.403268
0.403299
0.403331
0.403363
0.403395
0.403395
0.403427
0.403459
0.403491
0.403523
0.403523
0.403555
0.403587
0.403619
0.403652
0.403652
0.403684
0.403716
0.403748
0.40378
0.40378
0.403813
0.403845
0.403877
0.40391
0.40391
0.403942
0.403975
0.404007
0.40404
0.40404
0.404072
0.404105
0.404137
0.40417
0.40417
0.404203
0.404235
0.404268
0.404301
0.404301
0.404333
0.404366
0.404399
0.404432
0.404432
0.404465
0.404498
0.404531
0.404564
0.404564
0.404597
0.40463
0.404663
0.404696
0.404696
0.404729
0.404762
0.404795
0.404828
0.404828
0.404862
0.404895
0.404928
0.404962
0.404962
0.404995
0.405028
0.405062
0.405095
0.405095
0.405129
0.405162
0.405196
0.405229
0.405229
0.405263
0.405296
0.40533
0.405364
0.405364
0.405397
0.405431
0.405465
0.405498
0.405498
0.405532
0.405566
0.4056
0.405634
0.405634
0.405668
0.405702
0.405736
0.40577
0.40577
0.405804
0.405838
0.405872
0.405906
0.405906
0.40594
0.405974
0.406009
0.406043
0.406043
0.406077
0.406111
0.406146
0.40618
0.40618
0.406214
0.406249
0.406283
0.406318
0.406318
0.406352
0.406387
0.406421
0.406456
0.406456
0.406491
0.406525
0.40656
0.406595
0.406595
0.406629
0.406664
0.406699
0.406734
0.406734
0.406769
0.406803
0.406838
0.406873
0.406873
0.406908
0.406943
0.406978
0.407013
0.407013
0.407048
0.407083
0.407119
0.407154
0.407154
0.407189
0.407224
0.407259
0.407295
0.407295
0.40733
0.407365
0.407401
0.407436
0.407436
0.407472
0.407507
0.407543
0.407578
0.407578
0.407614
0.407649
0.407685
0.40772
0.40772
0.407756
0.407792
0.407827
0.407863
0.407863
0.407899
0.407935
0.407971
0.408006
0.408006
0.408042
0.408078
0.408114
0.40815
0.40815
0.408186
0.408222
0.408258
0.408294
0.408294
0.40833
0.408367
0.408403
0.408439
0.408439
0.408475
0.408512
0.408548
0.408584
0.408584
0.40862
0.408657
0.408693
0.40873
0.40873
0.408766
0.408803
0.408839
0.408876
0.408876
0.408912
0.408949
0.408986
0.409022
0.409022
0.409059
0.409096
0.409132
0.409169
0.409169
0.409206
0.409243
0.40928
0.409317
0.409317
0.409354
0.409391
0.409428
0.409465
0.409465
0.409502
0.409539
0.409576
0.409613
0.409613
0.40965
0.409687
0.409725
0.409762
0.409762
0.409799
0.409836
0.409874
0.409911
0.409911
0.409948
0.409986
0.410023
0.410061
0.410061
0.410098
0.410136
0.410173
0.410211
0.410211
0.410249
0.410286
0.410324
0.410362
0.410362
0.410399
0.410437
0.410475
0.410513
0.410513
0.410551
0.410589
0.410626
0.410664
0.410664
0.410702
0.41074
0.410778
0.410816
0.410816
0.410855
0.410893
0.410931
0.410969
0.410969
0.411007
0.411045
0.411084
0.411122
0.411122
0.41116
0.411199
0.411237
0.411275
0.411275
0.411314
0.411352
0.411391
0.411429
0.411429
0.411468
0.411506
0.411545
0.411584
0.411584
0.411622
0.411661
0.4117
0.411739
0.411739
0.411777
0.411816
0.411855
0.411894
0.411894
0.411933
0.411972
0.412011
0.41205
0.41205
0.412089
0.412128
0.412167
0.412206
0.412206
0.412245
0.412284
0.412323
0.412363
0.412363
0.412402
0.412441
0.41248
0.41252
0.41252
0.412559
0.412598
0.412638
0.412677
0.412677
0.412717
0.412756
0.412796
0.412835
0.412835
0.412875
0.412915
0.412954
0.412994
0.412994
0.413034
0.413073
0.413113
0.413153
0.413153
0.413193
0.413233
0.413272
0.413312
0.413312
0.413352
0.413392
0.413432
0.413472
0.413472
0.413512
0.413552
0.413593
0.413633
0.413633
0.413673
0.413713
0.413753
0.413794
0.413794
0.413834
0.413874
0.413914
0.413955
0.413955
0.413995
0.414036
0.414076
0.414117
0.414117
0.414157
0.414198
0.414238
0.414279
0.414279
0.41432
0.41436
0.414401
0.414442
0.414442
0.414482
0.414523
0.414564
0.414605
0.414605
0.414646
0.414687
0.414727
0.414768
0.414768
0.414809
0.41485
0.414891
0.414932
0.414932
0.414974
0.415015
0.415056
0.415097
0.415097
0.415138
0.415179
0.415221
0.415262
0.415262
0.415303
0.415345
0.415386
0.415428
0.415428
0.415469
0.41551
0.415552
0.415593
0.415593
0.415635
0.415677
0.415718
0.41576
0.41576
0.415802
0.415843
0.415885
0.415927
0.415927
0.415969
0.41601
0.416052
0.416094
0.416094
0.416136
0.416178
0.41622
0.416262
0.416262
0.416304
0.416346
0.416388
0.41643
0.41643
0.416472
0.416514
0.416557
0.416599
0.416599
0.416641
0.416683
0.416726
0.416768
0.416768
0.41681
0.416853
0.416895
0.416938
0.416938
0.41698
0.417023
0.417065
0.417108
0.417108
0.41715
0.417193
0.417236
0.417278
0.417278
0.417321
0.417364
0.417407
0.417449
0.417449
0.417492
0.417535
0.417578
0.417621
0.417621
0.417664
0.417707
0.41775
0.417793
0.417793
0.417836
0.417879
0.417922
0.417965
0.417965
0.418008
0.418052
0.418095
0.418138
0.418138
0.418181
0.418225
0.418268
0.418312
0.418312
0.418355
0.418398
0.418442
0.418485
0.418485
0.418529
0.418572
0.418616
0.41866
0.41866
0.418703
0.418747
0.418791
0.418834
0.418834
0.418878
0.418922
0.418966
0.41901
0.41901
0.419053
0.419097
0.419141
0.419185
0.419185
0.419229
0.419273
0.419317
0.419361
0.419361
0.419405
0.41945
0.419494
0.419538
0.419538
0.419582
0.419626
0.419671
0.419715
0.419715
0.419759
0.419804
0.419848
0.419893
0.419893
0.419937
0.419981
0.420026
0.420071
0.420071
0.420115
0.42016
0.420204
0.420249
0.420249
0.420294
0.420338
0.420383
0.420428
0.420428
0.420473
0.420518
0.420562
0.420607
0.420607
0.420652
0.420697
0.420742
0.420787
0.420787
0.420832
0.420877
0.420922
0.420967
0.420967
0.421013
0.421058
0.421103
0.421148
0.421148
0.421193
0.421239
0.421284
0.421329
0.421329
0.421375
0.42142
0.421466
0.421511
0.421511
0.421557
0.421602
0.421648
0.421693
0.421693
0.421739
0.421784
0.42183
0.421876
0.421876
0.421922
0.421967
0.422013
0.422059
0.422059
0.422105
0.422151
0.422196
0.422242
0.422242
0.422288
0.422334
0.42238
0.422426
0.422426
0.422472
0.422519
0.422565
0.422611
0.422611
0.422657
0.422703
0.42275
0.422796
0.422796
0.422842
0.422888
0.422935
0.422981
0.422981
0.423028
0.423074
0.423121
0.423167
0.423167
0.423214
0.42326
0.423307
0.423353
0.423353
0.4234
0.423447
0.423493
0.42354
0.42354
0.423587
0.423634
0.423681
0.423727
0.423727
0.423774
0.423821
0.423868
0.423915
0.423915
0.423962
0.424009
0.424056
0.424103
0.424103
0.42415
0.424198
0.424245
0.424292
0.424292
0.424339
0.424386
0.424434
0.424481
0.424481
0.424528
0.424576
0.424623
0.424671
0.424671
0.424718
0.424766
0.424813
0.424861
0.424861
0.424908
0.424956
0.425003
0.425051
0.425051
0.425099
0.425146
0.425194
0.425242
0.425242
0.42529
0.425338
0.425386
0.425433
0.425433
0.425481
0.425529
0.425577
0.425625
0.425625
0.425673
0.425721
0.42577
0.425818
0.425818
0.425866
0.425914
0.425962
0.42601
0.42601
0.426059
0.426107
0.426155
0.426204
0.426204
0.426252
0.426301
0.426349
0.426397
0.426397
0.426446
0.426495
0.426543
0.426592
0.426592
0.42664
0.426689
0.426738
0.426786
0.426786
0.426835
0.426884
0.426933
0.426981
0.426981
0.42703
0.427079
0.427128
0.427177
0.427177
0.427226
0.427275
0.427324
0.427373
0.427373
0.427422
0.427471
0.42752
0.42757
0.42757
0.427619
0.427668
0.427717
0.427767
0.427767
0.427816
0.427865
0.427915
0.427964
0.427964
0.428013
0.428063
0.428112
0.428162
0.428162
0.428211
0.428261
0.428311
0.42836
0.42836
0.42841
0.42846
0.428509
0.428559
0.428559
0.428609
0.428659
0.428709
0.428758
0.428758
0.428808
0.428858
0.428908
0.428958
0.428958
0.429008
0.429058
0.429108
0.429158
0.429158
0.429209
0.429259
0.429309
0.429359
0.429359
0.429409
0.42946
0.42951
0.42956
0.42956
0.429611
0.429661
0.429711
0.429762
0.429762
0.429812
0.429863
0.429913
0.429964
0.429964
0.430015
0.430065
0.430116
0.430166
0.430166
0.430217
0.430268
0.430319
0.430369
0.430369
0.43042
0.430471
0.430522
0.430573
0.430573
0.430624
0.430675
0.430726
0.430777
0.430777
0.430828
0.430879
0.43093
0.430981
0.430981
0.431032
0.431084
0.431135
0.431186
0.431186
0.431237
0.431289
0.43134
0.431391
0.431391
0.431443
0.431494
0.431546
0.431597
0.431597
0.431649
0.4317
0.431752
0.431804
0.431804
0.431855
0.431907
0.431959
0.43201
0.43201
0.432062
0.432114
0.432166
0.432217
0.432217
0.432269
0.432321
0.432373
0.432425
0.432425
0.432477
0.432529
0.432581
0.432633
0.432633
0.432685
0.432737
0.43279
0.432842
0.432842
0.432894
0.432946
0.432999
0.433051
0.433051
0.433103
0.433156
0.433208
0.43326
0.43326
0.433313
0.433365
0.433418
0.43347
0.43347
0.433523
0.433575
0.433628
0.433681
0.433681
0.433733
0.433786
0.433839
0.433892
0.433892
0.433944
0.433997
0.43405
0.434103
0.434103
0.434156
0.434209
0.434262
0.434315
0.434315
0.434368
0.434421
0.434474
0.434527
0.434527
0.43458
0.434633
0.434687
0.43474
0.43474
0.434793
0.434846
0.4349
0.434953
0.434953
0.435007
0.43506
0.435113
0.435167
0.435167
0.43522
0.435274
0.435327
0.435381
0.435381
0.435435
0.435488
0.435542
0.435596
0.435596
0.435649
0.435703
0.435757
0.435811
0.435811
0.435865
0.435918
0.435972
0.436026
0.436026
0.43608
0.436134
0.436188
0.436242
0.436242
0.436296
0.43635
0.436405
0.436459
0.436459
0.436513
0.436567
0.436621
0.436676
0.436676
0.43673
0.436784
0.436839
0.436893
0.436893
0.436948
0.437002
0.437056
0.437111
0.437111
0.437166
0.43722
0.437275
0.437329
0.437329
0.437384
0.437439
0.437493
0.437548
0.437548
0.437603
0.437658
0.437713
0.437767
0.437767
0.437822
0.437877
0.437932
0.437987
0.437987
0.438042
0.438097
0.438152
0.438207
0.438207
0.438262
0.438318
0.438373
0.438428
0.438428
0.438483
0.438539
0.438594
0.438649
0.438649
0.438704
0.43876
0.438815
0.438871
0.438871
0.438926
0.438982
0.439037
0.439093
0.439093
0.439148
0.439204
0.43926
0.439315
0.439315
0.439371
0.439427
0.439483
0.439538
0.439538
0.439594
0.43965
0.439706
0.439762
0.439762
0.439818
0.439874
0.43993
0.439986
0.439986
0.440042
0.440098
0.440154
0.44021
0.44021
0.440266
0.440322
0.440379
0.440435
0.440435
0.440491
0.440548
0.440604
0.44066
0.44066
0.440717
0.440773
0.44083
0.440886
0.440886
0.440943
0.440999
0.441056
0.441112
0.441112
0.441169
0.441226
0.441282
0.441339
0.441339
0.441396
0.441453
0.441509
0.441566
0.441566
0.441623
0.44168
0.441737
0.441794
0.441794
0.441851
0.441908
0.441965
0.442022
0.442022
0.442079
0.442136
0.442193
0.442251
0.442251
0.442308
0.442365
0.442422
0.44248
0.44248
0.442537
0.442594
0.442652
0.442709
0.442709
0.442767
0.442824
0.442882
0.442939
0.442939
0.442997
0.443054
0.443112
0.44317
0.44317
0.443227
0.443285
0.443343
0.443401
0.443401
0.443458
0.443516
0.443574
0.443632
0.443632
0.44369
0.443748
0.443806
0.443864
0.443864
0.443922
0.44398
0.444038
0.444096
0.444096
0.444154
0.444213
0.444271
0.444329
0.444329
0.444387
0.444446
0.444504
0.444562
0.444562
0.444621
0.444679
0.444737
0.444796
0.444796
0.444854
0.444913
0.444972
0.44503
0.44503
0.445089
0.445147
0.445206
0.445265
0.445265
0.445324
0.445382
0.445441
0.4455
0.4455
0.445559
0.445618
0.445677
0.445736
0.445736
0.445794
0.445853
0.445913
0.445972
0.445972
0.446031
0.44609
0.446149
0.446208
0.446208
0.446267
0.446327
0.446386
0.446445
0.446445
0.446504
0.446564
0.446623
0.446683
0.446683
0.446742
0.446801
0.446861
0.44692
0.44692
0.44698
0.44704
0.447099
0.447159
0.447159
0.447219
0.447278
0.447338
0.447398
0.447398
0.447458
0.447517
0.447577
0.447637
0.447637
0.447697
0.447757
0.447817
0.447877
0.447877
0.447937
0.447997
0.448057
0.448117
0.448117
0.448177
0.448237
0.448298
0.448358
0.448358
0.448418
0.448478
0.448539
0.448599
0.448599
0.448659
0.44872
0.44878
0.448841
0.448841
0.448901
0.448962
0.449022
0.449083
0.449083
0.449144
0.449204
0.449265
0.449326
0.449326
0.449386
0.449447
0.449508
0.449569
0.449569
0.449629
0.44969
0.449751
0.449812
0.449812
0.449873
0.449934
0.449995
0.450056
0.450056
0.450117
0.450178
0.45024
0.450301
0.450301
0.450362
0.450423
0.450484
0.450546
0.450546
0.450607
0.450668
0.45073
0.450791
0.450791
0.450852
0.450914
0.450975
0.451037
0.451037
0.451098
0.45116
0.451222
0.451283
0.451283
0.451345
0.451407
0.451468
0.45153
0.45153
0.451592
0.451654
0.451716
0.451777
0.451777
0.451839
0.451901
0.451963
0.452025
0.452025
0.452087
0.452149
0.452211
0.452273
0.452273
0.452336
0.452398
0.45246
0.452522
0.452522
0.452584
0.452647
0.452709
0.452771
0.452771
0.452834
0.452896
0.452959
0.453021
0.453021
0.453083
0.453146
0.453209
0.453271
0.453271
0.453334
0.453396
0.453459
0.453522
0.453522
0.453584
0.453647
0.45371
0.453773
0.453773
0.453836
0.453898
0.453961
0.454024
0.454024
0.454087
0.45415
0.454213
0.454276
0.454276
0.454339
0.454402
0.454466
0.454529
0.454529
0.454592
0.454655
0.454718
0.454782
0.454782
0.454845
0.454908
0.454972
0.455035
0.455035
0.455098
0.455162
0.455225
0.455289
0.455289
0.455352
0.455416
0.45548
0.455543
0.455543
0.455607
0.455671
0.455734
0.455798
0.455798
0.455862
0.455926
0.45599
0.456053
0.456053
0.456117
0.456181
0.456245
0.456309
0.456309
0.456373
0.456437
0.456501
0.456565
0.456565
0.45663
0.456694
0.456758
0.456822
0.456822
0.456886
0.456951
0.457015
0.457079
0.457079
0.457144
0.457208
0.457272
0.457337
0.457337
0.457401
0.457466
0.45753
0.457595
0.457595
0.45766
0.457724
0.457789
0.457854
0.457854
0.457918
0.457983
0.458048
0.458113
0.458113
0.458177
0.458242
0.458307
0.458372
0.458372
0.458437
0.458502
0.458567
0.458632
0.458632
0.458697
0.458762
0.458827
0.458893
0.458893
0.458958
0.459023
0.459088
0.459154
0.459154
0.459219
0.459284
0.45935
0.459415
0.459415
0.45948
0.459546
0.459611
0.459677
0.459677
0.459742
0.459808
0.459874
0.459939
0.459939
0.460005
0.460071
0.460136
0.460202
0.460202
0.460268
0.460334
0.4604
0.460465
0.460465
0.460531
0.460597
0.460663
0.460729
0.460729
0.460795
0.460861
0.460927
0.460993
0.460993
0.46106
0.461126
0.461192
0.461258
0.461258
0.461324
0.461391
0.461457
0.461523
0.461523
0.46159
0.461656
0.461723
0.461789
0.461789
0.461855
0.461922
0.461989
0.462055
0.462055
0.462122
0.462188
0.462255
0.462322
0.462322
0.462388
0.462455
0.462522
0.462589
0.462589
0.462656
0.462723
0.462789
0.462856
0.462856
0.462923
0.46299
0.463057
0.463124
0.463124
0.463192
0.463259
0.463326
0.463393
0.463393
0.46346
0.463527
0.463595
0.463662
0.463662
0.463729
0.463797
0.463864
0.463931
0.463931
0.463999
0.464066
0.464134
0.464201
0.464201
0.464269
0.464336
0.464404
0.464472
0.464472
0.464539
0.464607
0.464675
0.464743
0.464743
0.46481
0.464878
0.464946
0.465014
0.465014
0.465082
0.46515
0.465218
0.465286
0.465286
0.465354
0.465422
0.46549
0.465558
0.465558
0.465626
0.465694
0.465763
0.465831
0.465831
0.465899
0.465967
0.466036
0.466104
0.466104
0.466172
0.466241
0.466309
0.466378
0.466378
0.466446
0.466515
0.466583
0.466652
0.466652
0.466721
0.466789
0.466858
0.466927
0.466927
0.466995
0.467064
0.467133
0.467202
0.467202
0.467271
0.46734
0.467409
0.467477
0.467477
0.467546
0.467615
0.467685
0.467754
0.467754
0.467823
0.467892
0.467961
0.46803
0.46803
0.468099
0.468169
0.468238
0.468307
0.468307
0.468377
0.468446
0.468515
0.468585
0.468585
0.468654
0.468724
0.468793
0.468863
0.468863
0.468932
0.469002
0.469072
0.469141
0.469141
0.469211
0.469281
0.46935
0.46942
0.46942
0.46949
0.46956
0.46963
0.4697
0.4697
0.46977
0.46984
0.46991
0.46998
0.46998
0.47005
0.47012
0.47019
0.47026
0.47026
0.47033
0.4704
0.470471
0.470541
0.470541
0.470611
0.470681
0.470752
0.470822
0.470822
0.470893
0.470963
0.471033
0.471104
0.471104
0.471174
0.471245
0.471316
0.471386
0.471386
0.471457
0.471528
0.471598
0.471669
0.471669
0.47174
0.471811
0.471881
0.471952
0.471952
0.472023
0.472094
0.472165
0.472236
0.472236
0.472307
0.472378
0.472449
0.47252
0.47252
0.472591
0.472662
0.472734
0.472805
0.472805
0.472876
0.472947
0.473019
0.47309
0.47309
0.473161
0.473233
0.473304
0.473376
0.473376
0.473447
0.473519
0.47359
0.473662
0.473662
0.473733
0.473805
0.473877
0.473948
0.473948
0.47402
0.474092
0.474164
0.474235
0.474235
0.474307
0.474379
0.474451
0.474523
0.474523
0.474595
0.474667
0.474739
0.474811
0.474811
0.474883
0.474955
0.475027
0.4751
0.4751
0.475172
0.475244
0.475316
0.475389
0.475389
0.475461
0.475533
0.475606
0.475678
0.475678
0.475751
0.475823
0.475895
0.475968
0.475968
0.476041
0.476113
0.476186
0.476258
0.476258
0.476331
0.476404
0.476477
0.476549
0.476549
0.476622
0.476695
0.476768
0.476841
0.476841
0.476914
0.476987
0.47706
0.477133
0.477133
0.477206
0.477279
0.477352
0.477425
0.477425
0.477498
0.477571
0.477645
0.477718
0.477718
0.477791
0.477864
0.477938
0.478011
0.478011
0.478085
0.478158
0.478231
0.478305
0.478305
0.478378
0.478452
0.478526
0.478599
0.478599
0.478673
0.478747
0.47882
0.478894
0.478894
0.478968
0.479042
0.479115
0.479189
0.479189
0.479263
0.479337
0.479411
0.479485
0.479485
0.479559
0.479633
0.479707
0.479781
0.479781
0.479855
0.479929
0.480004
0.480078
0.480078
0.480152
0.480226
0.480301
0.480375
0.480375
0.480449
0.480524
0.480598
0.480673
0.480673
0.480747
0.480822
0.480896
0.480971
0.480971
0.481045
0.48112
0.481195
0.481269
0.481269
0.481344
0.481419
0.481494
0.481569
0.481569
0.481643
0.481718
0.481793
0.481868
0.481868
0.481943
0.482018
0.482093
0.482168
0.482168
0.482243
0.482318
0.482394
0.482469
0.482469
0.482544
0.482619
0.482694
0.48277
0.48277
0.482845
0.48292
0.482996
0.483071
0.483071
0.483147
0.483222
0.483298
0.483373
0.483373
0.483449
0.483524
0.4836
0.483676
0.483676
0.483751
0.483827
0.483903
0.483979
0.483979
0.484055
0.48413
0.484206
0.484282
0.484282
0.484358
0.484434
0.48451
0.484586
0.484586
0.484662
0.484738
0.484814
0.484891
0.484891
0.484967
0.485043
0.485119
0.485195
0.485195
0.485272
0.485348
0.485424
0.485501
0.485501
0.485577
0.485654
0.48573
0.485807
0.485807
0.485883
0.48596
0.486037
0.486113
0.486113
0.48619
0.486267
0.486343
0.48642
0.48642
0.486497
0.486574
0.48665
0.486727
0.486727
0.486804
0.486881
0.486958
0.487035
0.487035
0.487112
0.487189
0.487266
0.487343
0.487343
0.487421
0.487498
0.487575
0.487652
0.487652
0.48773
0.487807
0.487884
0.487962
0.487962
0.488039
0.488116
0.488194
0.488271
0.488271
0.488349
0.488426
0.488504
0.488582
0.488582
0.488659
0.488737
0.488815
0.488892
0.488892
0.48897
0.489048
0.489126
0.489204
0.489204
0.489281
0.489359
0.489437
0.489515
0.489515
0.489593
0.489671
0.489749
0.489828