<?xml version="1.0"?>
<VTKFile type="UnstructuredGrid" version="0.1" byte_order="LittleEndian">
<UnstructuredGrid>
<Piece NumberOfPoints="5000" NumberOfCells="4000">
<PointData Scalars="Reaction 0">
<DataArray type="Float32" Name="Reaction 0" format="ascii">
0.623141
0.623141
0.623141
0.623141
0.623141
0.623141
0.623141
0.623141
0.623141
0.623141
0.623141
0.623141
0.623141
0.623141
0.623141
0.623141
0.623141
0.623142
0.623142
0.623142
0.623142
0.623142
0.623142
0.623142
0.623142
0.623142
0.623143
0.623143
0.623143
0.623143
0.623143
0.623143
0.623144
0.623144
0.623144
0.623144
0.623144
0.623144
0.623145
0.623145
0.623145
0.623145
0.623146
0.623146
0.623146
0.623146
0.623146
0.623147
0.623147
0.623147
0.623147
0.623148
0.623148
0.623148
0.623149
0.623149
0.623149
0.62315
0.62315
0.62315
0.62315
0.623151
0.623151
0.623152
0.623152
0.623152
0.623152
0.623153
0.623153
0.623154
0.623154
0.623154
0.623155
0.623155
0.623156
0.623156
0.623156
0.623157
0.623157
0.623158
0.623158
0.623158
0.623159
0.623159
0.62316
0.62316
0.62316
0.623161
0.623162
0.623162
0.623162
0.623163
0.623163
0.623164
0.623165
0.623165
0.623165
0.623166
0.623167
0.623167
0.623167
0.623168
0.623169
0.623169
0.62317
0.62317
0.623171
0.623171
0.623172
0.623173
0.623173
0.623173
0.623174
0.623175
0.623176
0.623176
0.623176
0.623177
0.623178
0.623179
0.623179
0.62318
0.62318
0.623181
0.623182
0.623182
0.623183
0.623184
0.623185
0.623185
0.623185
0.623186
0.623187
0.623188
0.623189
0.623189
0.62319
0.623191
0.623192
0.623193
0.623193
0.623193
0.623194
0.623195
0.623196
0.623196
0.623197
0.623198
0.623199
0.6232
0.6232
0.623201
0.623202
0.623203
0.623204
0.623204
0.623205
0.623206
0.623207
0.623208
0.623208
0.623209
0.623211
0.623212
0.623213
0.623213
0.623214
0.623215
0.623216
0.623217
0.623217
0.623218
0.623219
0.623221
0.623222
0.623222
0.623223
0.623224
0.623225
0.623226
0.623226
0.623228
0.623229
0.62323
0.623231
0.623231
0.623232
0.623234
0.623235
0.623236
0.623236
0.623237
0.623239
0.62324
0.623241
0.623241
0.623243
0.623244
0.623245
0.623246
0.623246
0.623248
0.623249
0.62325
0.623252
0.623252
0.623253
0.623255
0.623256
0.623257
0.623257
0.623259
0.62326
0.623261
0.623263
0.623263
0.623264
0.623266
0.623267
0.623269
0.623269
0.62327
0.623272
0.623273
0.623275
0.623275
0.623276
0.623278
0.623279
0.623281
0.623281
0.623282
0.623284
0.623285
0.623287
0.623287
0.623288
0.62329
0.623291
0.623293
0.623293
0.623295
0.623296
0.623298
0.623299
0.623299
0.623301
0.623303
0.623304
0.623306
0.623306
0.623308
0.623309
0.623311
0.623313
0.623313
0.623314
0.623316
0.623318
0.623319
0.623319
0.623321
0.623323
0.623325
0.623326
0.623326
0.623328
0.62333
0.623332
0.623333
0.623333
0.623335
0.623337
0.623339
0.623341
0.623341
0.623342
0.623344
0.623346
0.623348
0.623348
0.62335
0.623352
0.623354
0.623355
0.623355
0.623357
0.623359
0.623361
0.623363
0.623363
0.623365
0.623367
0.623369
0.623371
0.623371
0.623373
0.623375
0.623377
0.623379
0.623379
0.623381
0.623383
0.623385
0.623387
0.623387
0.623389
0.623391
0.623393
0.623395
0.623395
0.623397
0.623399
0.623401
0.623403
0.623403
0.623405
0.623407
0.623409
0.623412
0.623412
0.623414
0.623416
0.623418
0.62342
0.62342
0.623422
0.623424
0.623427
0.623429
0.623429
0.623431
0.623433
0.623435
0.623438
0.623438
0.62344
0.623442
0.623444
0.623446
0.623446
0.623449
0.623451
0.623453
0.623456
0.623456
0.623458
0.62346
0.623462
0.623465
0.623465
0.623467
0.623469
0.623472
0.623474
0.623474
0.623476
0.623479
0.623481
0.623484
0.623484
0.623486
0.623488
0.623491
0.623493
0.623493
0.623496
0.623498
0.6235
0.623503
0.623503
0.623505
0.623508
0.62351
0.623513
0.623513
0.623515
0.623518
0.62352
0.623523
0.623523
0.623525
0.623528
0.62353
0.623533
0.623533
0.623536
0.623538
0.623541
0.623543
0.623543
0.623546
0.623548
0.623551
0.623554
0.623554
0.623556
0.623559
0.623562
0.623564
0.623564
0.623567
0.62357
0.623572
0.623575
0.623575
0.623578
0.62358
0.623583
0.623586
0.623586
0.623588
0.623591
0.623594
0.623597
0.623597
0.623599
0.623602
0.623605
0.623608
0.623608
0.623611
0.623613
0.623616
0.623619
0.623619
0.623622
0.623625
0.623627
0.62363
0.62363
0.623633
0.623636
0.623639
0.623642
0.623642
0.623645
0.623648
0.62365
0.623653
0.623653
0.623656
0.623659
0.623662
0.623665
0.623665
0.623668
0.623671
0.623674
0.623677
0.623677
0.62368
0.623683
0.623686
0.623689
0.623689
0.623692
0.623695
0.623698
0.623701
0.623701
0.623704
0.623707
0.62371
0.623713
0.623713
0.623717
0.62372
0.623723
0.623726
0.623726
0.623729
0.623732
0.623735
0.623738
0.623738
0.623742
0.623745
0.623748
0.623751
0.623751
0.623754
0.623758
0.623761
0.623764
0.623764
0.623767
0.62377
0.623774
0.623777
0.623777
0.62378
0.623784
0.623787
0.62379
0.62379
0.623793
0.623797
0.6238
0.623803
0.623803
0.623807
0.62381
0.623813
0.623817
0.623817
0.62382
0.623823
0.623827
0.62383
0.62383
0.623834
0.623837
0.62384
0.623844
0.623844
0.623847
0.623851
0.623854
0.623858
0.623858
0.623861
0.623865
0.623868
0.623872
0.623872
0.623875
0.623879
0.623882
0.623886
0.623886
0.623889
0.623893
0.623896
0.6239
0.6239
0.623903
0.623907
0.62391
0.623914
0.623914
0.623918
0.623921
0.623925
0.623929
0.623929
0.623932
0.623936
0.623939
0.623943
0.623943
0.623947
0.62395
0.623954
0.623958
0.623958
0.623962
0.623965
0.623969
0.623973
0.623973
0.623976
0.62398
0.623984
0.623988
0.623988
0.623991
0.623995
0.623999
0.624003
0.624003
0.624007
0.62401
0.624014
0.624018
0.624018
0.624022
0.624026
0.62403
0.624033
0.624033
0.624037
0.624041
0.624045
0.624049
0.624049
0.624053
0.624057
0.624061
0.624065
0.624065
0.624069
0.624073
0.624077
0.624081
0.624081
0.624084
0.624088
0.624092
0.624096
0.624096
0.6241
0.624104
0.624109
0.624113
0.624113
0.624117
0.624121
0.624125
0.624129
0.624129
0.624133
0.624137
0.624141
0.624145
0.624145
0.624149
0.624153
0.624157
0.624162
0.624162
0.624166
0.62417
0.624174
0.624178
0.624178
0.624182
0.624187
0.624191
0.624195
0.624195
0.624199
0.624203
0.624208
0.624212
0.624212
0.624216
0.62422
0.624225
0.624229
0.624229
0.624233
0.624238
0.624242
0.624246
0.624246
0.62425
0.624255
0.624259
0.624263
0.624263
0.624268
0.624272
0.624277
0.624281
0.624281
0.624285
0.62429
0.624294
0.624298
0.624298
0.624303
0.624307
0.624312
0.624316
0.624316
0.624321
0.624325
0.62433
0.624334
0.624334
0.624339
0.624343
0.624348
0.624352
0.624352
0.624357
0.624361
0.624366
0.62437
0.62437
0.624375
0.624379
0.624384
0.624389
0.624389
0.624393
0.624398
0.624402
0.624407
0.624407
0.624412
0.624416
0.624421
0.624425
0.624425
0.62443
0.624435
0.624439
0.624444
0.624444
0.624449
0.624454
0.624458
0.624463
0.624463
0.624468
0.624472
0.624477
0.624482
0.624482
0.624487
0.624492
0.624496
0.624501
0.624501
0.624506
0.624511
0.624516
0.62452
0.62452
0.624525
0.62453
0.624535
0.62454
0.62454
0.624545
0.624549
0.624554
0.624559
0.624559
0.624564
0.624569
0.624574
0.624579
0.624579
0.624584
0.624589
0.624594
0.624599
0.624599
0.624604
0.624609
0.624614
0.624619
0.624619
0.624624
0.624629
0.624634
0.624639
0.624639
0.624644
0.624649
0.624654
0.624659
0.624659
0.624664
0.624669
0.624674
0.624679
0.624679
0.624684
0.62469
0.624695
0.6247
0.6247
0.624705
0.62471
0.624715
0.62472
0.62472
0.624726
0.624731
0.624736
0.624741
0.624741
0.624746
0.624752
0.624757
0.624762
0.624762
0.624767
0.624773
0.624778
0.624783
0.624783
0.624788
0.624794
0.624799
0.624804
0.624804
0.62481
0.624815
0.62482
0.624826
0.624826
0.624831
0.624836
0.624842
0.624847
0.624847
0.624853
0.624858
0.624863
0.624869
0.624869
0.624874
0.62488
0.624885
0.624891
0.624891
0.624896
0.624901
0.624907
0.624912
0.624912
0.624918
0.624923
0.624929
0.624934
0.624934
0.62494
0.624945
0.624951
0.624957
0.624957
0.624962
0.624968
0.624973
0.624979
0.624979
0.624985
0.62499
0.624996
0.625001
0.625001
0.625007
0.625013
0.625018
0.625024
0.625024
0.62503
0.625035
0.625041
0.625047
0.625047
0.625052
0.625058
0.625064
0.62507
0.62507
0.625075
0.625081
0.625087
0.625093
0.625093
0.625098
0.625104
0.62511
0.625116
0.625116
0.625122
0.625127
0.625133
0.625139
0.625139
0.625145
0.625151
0.625157
0.625162
0.625162
0.625168
0.625174
0.62518
0.625186
0.625186
0.625192
0.625198
0.625204
0.62521
0.62521
0.625216
0.625222
0.625228
0.625234
0.625234
0.62524
0.625246
0.625252
0.625258
0.625258
0.625264
0.62527
0.625276
0.625282
0.625282
0.625288
0.625294
0.6253
0.625306
0.625306
0.625312
0.625318
0.625324
0.625331
0.625331
0.625337
0.625343
0.625349
0.625355
0.625355
0.625361
0.625367
0.625374
0.62538
0.62538
0.625386
0.625392
0.625398
0.625405
0.625405
0.625411
0.625417
0.625423
0.62543
0.62543
0.625436
0.625442
0.625449
0.625455
0.625455
0.625461
0.625467
0.625474
0.62548
0.62548
0.625486
0.625493
0.625499
0.625505
0.625505
0.625512
0.625518
0.625525
0.625531
0.625531
0.625537
0.625544
0.62555
0.625557
0.625557
0.625563
0.625569
0.625576
0.625582
0.625582
0.625589
0.625595
0.625601
0.625608
0.625608
0.625614
0.625621
0.625627
0.625634
0.625634
0.625641
0.625647
0.625654
0.625661
0.625661
0.625667
0.625674
0.625681
0.625687
0.625687
0.625694
0.625701
0.625707
0.625714
0.625714
0.625721
0.625727
0.625734
0.625741
0.625741
0.625747
0.625754
0.625761
0.625768
0.625768
0.625774
0.625781
0.625788
0.625795
0.625795
0.625801
0.625808
0.625815
0.625822
0.625822
0.625829
0.625835
0.625842
0.625849
0.625849
0.625856
0.625863
0.62587
0.625877
0.625877
0.625883
0.62589
0.625897
0.625904
0.625904
0.625911
0.625918
0.625925
0.625932
0.625932
0.625939
0.625946
0.625953
0.62596
0.62596
0.625967
0.625974
0.625981
0.625988
0.625988
0.625995
0.626002
0.626009
0.626016
0.626016
0.626023
0.62603
0.626037
0.626044
0.626044
0.626051
0.626058
0.626066
0.626073
0.626073
0.62608
0.626087
0.626094
0.626101
0.626101
0.626108
0.626116
0.626123
0.62613
0.62613
0.626137
0.626144
0.626152
0.626159
0.626159
0.626166
0.626173
0.626181
0.626188
0.626188
0.626195
0.626203
0.62621
0.626217
0.626217
0.626224
0.626232
0.626239
0.626247
0.626247
0.626254
0.626261
0.626269
0.626276
0.626276
0.626283
0.626291
0.626298
0.626306
0.626306
0.626313
0.62632
0.626328
0.626335
0.626335
0.626343
0.62635
0.626358
0.626365
0.626365
0.626373
0.62638
0.626388
0.626395
0.626395
0.626403
0.62641
0.626418
0.626426
0.626426
0.626433
0.626441
0.626448
0.626456
0.626456
0.626464
0.626471
0.626479
0.626486
0.626486
0.626494
0.626502
0.626509
0.626517
0.626517
0.626525
0.626532
0.62654
0.626548
0.626548
0.626556
0.626563
0.626571
0.626579
0.626579
0.626587
0.626594
0.626602
0.62661
0.62661
0.626618
0.626626
0.626633
0.626641
0.626641
0.626649
0.626657
0.626665
0.626673
0.626673
0.62668
0.626688
0.626696
0.626704
0.626704
0.626712
0.62672
0.626728
0.626736
0.626736
0.626744
0.626752
0.62676
0.626768
0.626768
0.626776
0.626784
0.626792
0.6268
0.6268
0.626808
0.626816
0.626824
0.626832
0.626832
0.62684
0.626848
0.626856
0.626864
0.626864
0.626872
0.62688
0.626888
0.626896
0.626896
0.626905
0.626913
0.626921
0.626929
0.626929
0.626937
0.626945
0.626954
0.626962
0.626962
0.62697
0.626978
0.626986
0.626995
0.626995
0.627003
0.627011
0.627019
0.627028
0.627028
0.627036
0.627044
0.627053
0.627061
0.627061
0.627069
0.627078
0.627086
0.627094
0.627094
0.627103
0.627111
0.627119
0.627128
0.627128
0.627136
0.627144
0.627153
0.627161
0.627161
0.62717
0.627178
0.627187
0.627195
0.627195
0.627204
0.627212
0.627221
0.627229
0.627229
0.627238
0.627246
0.627255
0.627263
0.627263
0.627272
0.62728
0.627289
0.627297
0.627297
0.627306
0.627315
0.627323
0.627332
0.627332
0.62734
0.627349
0.627358
0.627366
0.627366
0.627375
0.627384
0.627392
0.627401
0.627401
0.62741
0.627418
0.627427
0.627436
0.627436
0.627445
0.627453
0.627462
0.627471
0.627471
0.62748
0.627488
0.627497
0.627506
0.627506
0.627515
0.627524
0.627532
0.627541
0.627541
0.62755
0.627559
0.627568
0.627577
0.627577
0.627586
0.627594
0.627603
0.627612
0.627612
0.627621
0.62763
0.627639
0.627648
0.627648
0.627657
0.627666
0.627675
0.627684
0.627684
0.627693
0.627702
0.627711
0.62772
0.62772
0.627729
0.627738
0.627747
0.627756
0.627756
0.627765
0.627774
0.627783
0.627793
0.627793
0.627802
0.627811
0.62782
0.627829
0.627829
0.627838
0.627847
0.627857
0.627866
0.627866
0.627875
0.627884
0.627893
0.627903
0.627903
0.627912
0.627921
0.62793
0.62794
0.62794
0.627949
0.627958
0.627967
0.627977
0.627977
0.627986
0.627995
0.628005
0.628014
0.628014
0.628023
0.628033
0.628042
0.628051
0.628051
0.628061
0.62807
0.62808
0.628089
0.628089
0.628098
0.628108
0.628117
0.628127
0.628127
0.628136
0.628146
0.628155
0.628165
0.628165
0.628174
0.628184
0.628193
0.628203
0.628203
0.628212
0.628222
0.628231
0.628241
0.628241
0.628251
0.62826
0.62827
0.628279
0.628279
0.628289
0.628299
0.628308
0.628318
0.628318
0.628327
0.628337
0.628347
0.628357
0.628357
0.628366
0.628376
0.628386
0.628395
0.628395
0.628405
0.628415
0.628425
0.628434
0.628434
0.628444
0.628454
0.628464
0.628474
0.628474
0.628483
0.628493
0.628503
0.628513
0.628513
0.628523
0.628533
0.628542
0.628552
0.628552
0.628562
0.628572
0.628582
0.628592
0.628592
0.628602
0.628612
0.628622
0.628632
0.628632
0.628642
0.628652
0.628662
0.628672
0.628672
0.628682
0.628692
0.628702
0.628712
0.628712
0.628722
0.628732
0.628742
0.628752
0.628752
0.628762
0.628772
0.628782
0.628792
0.628792
0.628802
0.628813
0.628823
0.628833
0.628833
0.628843
0.628853
0.628863
0.628874
0.628874
0.628884
0.628894
0.628904
0.628915
0.628915
0.628925
0.628935
0.628945
0.628956
0.628956
0.628966
0.628976
0.628986
0.628997
0.628997
0.629007
0.629017
0.629028
0.629038
0.629038
0.629048
0.629059
0.629069
0.62908
0.62908
0.62909
0.6291
0.629111
0.629121
0.629121
0.629132
0.629142
0.629153
0.629163
0.629163
0.629174
0.629184
0.629195
0.629205
0.629205
0.629216
0.629226
0.629237
0.629247
0.629247
0.629258
0.629268
0.629279
0.62929
0.62929
0.6293
0.629311
0.629321
0.629332
0.629332
0.629343
0.629353
0.629364
0.629375
0.629375
0.629385
0.629396
0.629407
0.629417
0.629417
0.629428
0.629439
0.62945
0.62946
0.62946
0.629471
0.629482
0.629493
0.629504
0.629504
0.629514
0.629525
0.629536
0.629547
0.629547
0.629558
0.629568
0.629579
0.62959
0.62959
0.629601
0.629612
0.629623
0.629634
0.629634
0.629645
0.629656
0.629667
0.629678
0.629678
0.629689
0.6297
0.62971
0.629721
0.629721
0.629732
0.629744
0.629755
0.629766
0.629766
0.629777
0.629788
0.629799
0.62981
0.62981
0.629821
0.629832
0.629843
0.629854
0.629854
0.629865
0.629876
0.629888
0.629899
0.629899
0.62991
0.629921
0.629932
0.629944
0.629944
0.629955
0.629966
0.629977
0.629988
0.629988
0.63
0.630011
0.630022
0.630033
0.630033
0.630045
0.630056
0.630067
0.630079
0.630079
0.63009
0.630101
0.630113
0.630124
0.630124
0.630135
0.630147
0.630158
0.63017
0.63017
0.630181
0.630192
0.630204
0.630215
0.630215
0.630227
0.630238
0.63025
0.630261
0.630261
0.630273
0.630284
0.630296
0.630307
0.630307
0.630319
0.63033
0.630342
0.630353
0.630353
0.630365
0.630377
0.630388
0.6304
0.6304
0.630411
0.630423
0.630435
0.630446
0.630446
0.630458
0.63047
0.630481
0.630493
0.630493
0.630505
0.630516
0.630528
0.63054
0.63054
0.630552
0.630563
0.630575
0.630587
0.630587
0.630599
0.63061
0.630622
0.630634
0.630634
0.630646
0.630658
0.63067
0.630681
0.630681
0.630693
0.630705
0.630717
0.630729
0.630729
0.630741
0.630753
0.630765
0.630777
0.630777
0.630789
0.630801
0.630813
0.630825
0.630825
0.630837
0.630849
0.630861
0.630873
0.630873
0.630885
0.630897
0.630909
0.630921
0.630921
0.630933
0.630945
0.630957
0.630969
0.630969
0.630981
0.630993
0.631006
0.631018
0.631018
0.63103
0.631042
0.631054
0.631066
0.631066
0.631079
0.631091
0.631103
0.631115
0.631115
0.631127
0.63114
0.631152
0.631164
0.631164
0.631177
0.631189
0.631201
0.631213
0.631213
0.631226
0.631238
0.63125
0.631263
0.631263
0.631275
0.631288
0.6313
0.631312
0.631312
0.631325
0.631337
0.63135
0.631362
0.631362
0.631374
0.631387
0.631399
0.631412
0.631412
0.631424
0.631437
0.631449
0.631462
0.631462
0.631474
0.631487
0.6315
0.631512
0.631512
0.631525
0.631537
0.63155
0.631563
0.631563
0.631575
0.631588
0.6316
0.631613
0.631613
0.631626
0.631638
0.631651
0.631664
0.631664
0.631677
0.631689
0.631702
0.631715
0.631715
0.631727
0.63174
0.631753
0.631766
0.631766
0.631779
0.631791
0.631804
0.631817
0.631817
0.63183
0.631843
0.631856
0.631868
0.631868
0.631881
0.631894
0.631907
0.63192
0.63192
0.631933
0.631946
0.631959
0.631972
0.631972
0.631985
0.631998
0.632011
0.632024
0.632024
0.632037
0.63205
0.632063
0.632076
0.632076
0.632089
0.632102
0.632115
0.632128
0.632128
0.632141
0.632154
0.632167
0.63218
0.63218
0.632194
0.632207
0.63222
0.632233
0.632233
0.632246
0.632259
0.632273
0.632286
0.632286
0.632299
0.632312
0.632325
0.632339
0.632339
0.632352
0.632365
0.632379
0.632392
0.632392
0.632405
0.632418
0.632432
0.632445
0.632445
0.632458
0.632472
0.632485
0.632498
0.632498
0.632512
0.632525
0.632539
0.632552
0.632552
0.632565
0.632579
0.632592
0.632605
0.632605
0.632619
0.632632
0.632645
0.632659
0.632659
0.632672
0.632686
0.632699
0.632713
0.632713
0.632727
0.63274
0.632754
0.632768
0.632768
0.632782
0.632795
0.632809
0.632823
0.632823
0.632837
0.63285
0.632864
0.632878
0.632878
0.632891
0.632905
0.632919
0.632933
0.632933
0.632946
0.63296
0.632974
0.632988
0.632988
0.633002
0.633015
0.633029
0.633043
0.633043
0.633057
0.633071
0.633084
0.633098
0.633098
0.633112
0.633126
0.63314
0.633154
0.633154
0.633168
0.633182
0.633196
0.63321
0.63321
0.633224
0.633238
0.633252
0.633266
0.633266
0.63328
0.633294
0.633308
0.633322
0.633322
0.633336
0.63335
0.633364
0.633378
0.633378
0.633392
0.633406
0.63342
0.633434
0.633434
0.633449
0.633463
0.633477
0.633491
0.633491
0.633505
0.633519
0.633534
0.633548
0.633548
0.633562
0.633576
0.633591
0.633605
0.633605
0.633619
0.633633
0.633648
0.633662
0.633662
0.633676
0.633691
0.633705
0.633719
0.633719
0.633734
0.633748
0.633763
0.633777
0.633777
0.633791
0.633806
0.63382
0.633835
0.633835
0.633849
0.633864
0.633878
0.633893
0.633893
0.633907
0.633922
0.633936
0.633951
0.633951
0.633965
0.63398
0.633994
0.634009
0.634009
0.634023
0.634038
0.634053
0.634067
0.634067
0.634082
0.634097
0.634111
0.634126
0.634126
0.634141
0.634155
0.63417
0.634185
0.634185
0.634199
0.634214
0.634229
0.634244
0.634244
0.634258
0.634273
0.634288
0.634303
0.634303
0.634318
0.634332
0.634347
0.634362
0.634362
0.634377
0.634392
0.634407
0.634422
0.634422
0.634437
0.634451
0.634466
0.634481
0.634481
0.634496
0.634511
0.634526
0.634541
0.634541
0.634556
0.634571
0.634586
0.634601
0.634601
0.634616
0.634631
0.634646
0.634662
0.634662
0.634677
0.634692
0.634707
0.634722
0.634722
0.634737
0.634752
0.634767
0.634783
0.634783
0.634798
0.634813
0.634828
0.634843
0.634843
0.634859
0.634874
0.634889
0.634904
0.634904
0.63492
0.634935
0.63495
0.634965
0.634965
0.634981
0.634996
0.635011
0.635027
0.635027
0.635042
0.635058
0.635073
0.635088
0.635088
0.635104
0.635119
0.635135
0.63515
0.63515
0.635166
0.635181
0.635196
0.635212
0.635212
0.635227
0.635243
0.635259
0.635274
0.635274
0.63529
0.635305
0.635321
0.635336
0.635336
0.635352
0.635368
0.635383
0.635399
0.635399
0.635414
0.63543
0.635446
0.635461
0.635461
0.635477
0.635493
0.635509
0.635524
0.635524
0.63554
0.635556
0.635572
0.635587
0.635587
0.635603
0.635619
0.635635
0.63565
0.63565
0.635666
0.635682
0.635698
0.635714
0.635714
0.63573
0.635746
0.635762
0.635777
0.635777
0.635793
0.635809
0.635825
0.635841
0.635841
0.635857
0.635873
0.635889
0.635905
0.635905
0.635921
0.635937
0.635953
0.635969
0.635969
0.635985
0.636001
0.636018
0.636034
0.636034
0.63605
0.636066
0.636082
0.636098
0.636098
0.636114
0.63613
0.636147
0.636163
0.636163
0.636179
0.636195
0.636211
0.636228
0.636228
0.636244
0.63626
0.636277
0.636293
0.636293
0.636309
0.636325
0.636342
0.636358
0.636358
0.636374
0.636391
0.636407
0.636424
0.636424
0.63644
0.636456
0.636473
0.636489
0.636489
0.636506
0.636522
0.636539
0.636555
0.636555
0.636572
0.636588
0.636605
0.636621
0.636621
0.636638
0.636654
0.636671
0.636687
0.636687
0.636704
0.63672
0.636737
0.636754
0.636754
0.63677
0.636787
0.636804
0.63682
0.63682
0.636837
0.636854
0.63687
0.636887
0.636887
0.636904
0.636921
0.636937
0.636954
0.636954
0.636971
0.636988
0.637004
0.637021
0.637021
0.637038
0.637055
0.637072
0.637089
0.637089
0.637106
0.637122
0.637139
0.637156
0.637156
0.637173
0.63719
0.637207
0.637224
0.637224
0.637241
0.637258
0.637275
0.637292
0.637292
0.637309
0.637326
0.637343
0.63736
0.63736
0.637377
0.637394
0.637411
0.637428
0.637428
0.637446
0.637463
0.63748
0.637497
0.637497
0.637514
0.637531
0.637549
0.637566
0.637566
0.637583
0.6376
0.637617
0.637635
0.637635
0.637652
0.637669
0.637686
0.637704
0.637704
0.637721
0.637738
0.637756
0.637773
0.637773
0.63779
0.637808
0.637825
0.637843
0.637843
0.63786
0.637877
0.637895
0.637912
0.637912
0.63793
0.637947
0.637965
0.637982
0.637982
0.638
0.638017
0.638035
0.638052
0.638052
0.63807
0.638087
0.638105
0.638123
0.638123
0.63814
0.638158
0.638175
0.638193
0.638193
0.638211
0.638228
0.638246
0.638264
0.638264
0.638282
0.638299
0.638317
0.638335
0.638335
0.638352
0.63837
0.638388
0.638406
0.638406
0.638424
0.638441
0.638459
0.638477
0.638477
0.638495
0.638513
0.638531
0.638549
0.638549
0.638566
0.638584
0.638602
0.63862
0.63862
0.638638
0.638656
0.638674
0.638692
0.638692
0.63871
0.638728
0.638746
0.638764
0.638764
0.638782
0.6388
0.638818
0.638836
0.638836
0.638855
0.638873
0.638891
0.638909
0.638909
0.638927
0.638945
0.638963
0.638982
0.638982
0.639
0.639018
0.639036
0.639054
0.639054
0.639073
0.639091
0.639109
0.639128
0.639128
0.639146
0.639164
0.639183
0.639201
0.639201
0.639219
0.639238
0.639256
0.639274
0.639274
0.639293
0.639311
0.63933
0.639348
0.639348
0.639366
0.639385
0.639403
0.639422
0.639422
0.63944
0.639459
0.639477
0.639496
0.639496
0.639515
0.639533
0.639552
0.63957
0.63957
0.639589
0.639608
0.639626
0.639645
0.639645
0.639663
0.639682
0.639701
0.639719
0.639719
0.639738
0.639757
0.639776
0.639794
0.639794
0.639813
0.639832
0.639851
0.639869
0.639869
0.639888
0.639907
0.639926
0.639945
0.639945
0.639964
0.639982
0.640001
0.64002
0.64002
0.640039
0.640058
0.640077
0.640096
0.640096
0.640115
0.640134
0.640153
0.640172
0.640172
0.640191
0.640209
0.640228
0.640247
0.640247
0.640266
0.640285
0.640304
0.640323
0.640323
0.640342
0.640361
0.64038
0.640399
0.640399
0.640418
0.640437
0.640457
0.640476
0.640476
0.640496
0.640515
0.640534
0.640554
0.640554
0.640573
0.640593
0.640612
0.640631
0.640631
0.640651
0.64067
0.64069
0.640709
0.640709
0.640728
0.640748
0.640767
0.640787
0.640787
0.640806
0.640825
0.640845
0.640864
0.640864
0.640884
0.640903
0.640923
0.640942
0.640942
0.640962
0.640981
0.641001
0.641021
0.641021
0.64104
0.64106
0.641079
0.641099
0.641099
0.641119
0.641138
0.641158
0.641178
0.641178
0.641197
0.641217
0.641237
0.641256
0.641256
0.641276
0.641296
0.641316
0.641335
0.641335
0.641355
0.641375
0.641395
0.641415
0.641415
0.641435
0.641454
0.641474
0.641494
0.641494
0.641514
0.641534
0.641554
0.641574
0.641574
0.641594
0.641614
0.641634
0.641654
0.641654
0.641674
0.641694
0.641714
0.641734
0.641734
0.641754
0.641774
0.641794
0.641814
0.641814
0.641834
0.641854
0.641874
0.641894
0.641894
0.641915
0.641935
0.641955
0.641975
0.641975
0.641995
0.642016
0.642036
0.642056
0.642056
0.642076
0.642097
0.642117
0.642137
0.642137
0.642158
0.642178
0.642198
0.642219
0.642219
0.642239
0.642259
0.64228
0.6423
0.6423
0.642321
0.642341
0.642361
0.642382
0.642382
0.642402
0.642423
0.642443
0.642464
0.642464
0.642484
0.642505
0.642526
0.642546
0.642546
0.642567
0.642587
0.642608
0.642628
0.642628
0.642649
0.64267
0.64269
0.642711
0.642711
0.642732
0.642753
0.642773
0.642794
0.642794
0.642815
0.642835
0.642856
0.642877
0.642877
0.642898
0.642919
0.642939
0.64296
0.64296
0.642981
0.643002
0.643023
0.643044
0.643044
0.643065
0.643086
0.643107
0.643127
0.643127
0.643148
0.643169
0.64319
0.643211
0.643211
0.643232
0.643253
0.643274
0.643295
0.643295
0.643317
0.643338
0.643359
0.64338
0.64338
0.643401
0.643422
0.643443
0.643464
0.643464
0.643486
0.643507
0.643528
0.643549
0.643549
0.64357
0.643592
0.643613
0.643634
0.643634
0.643655
0.643677
0.643698
0.643719
0.643719
0.643741
0.643762
0.643783
0.643805
0.643805
0.643826
0.643848
0.643869
0.64389
0.64389
0.643912
0.643933
0.643955
0.643976
0.643976
0.643998
0.644019
0.644041
0.644062
0.644062
0.644084
0.644106
0.644127
0.644149
0.644149
0.64417
0.644192
0.644214
0.644235
0.644235
0.644257
0.644279
0.6443
0.644322
0.644322
0.644344
0.644366
0.644387
0.644409
0.644409
0.644431
0.644453
0.644474
0.644496
0.644496
0.644518
0.64454
0.644562
0.644584
0.644584
0.644606
0.644627
0.644649
0.644671
0.644671
0.644693
0.644715
0.644737
0.644759
0.644759
0.644781
0.644803
0.644825
0.644847
0.644847
0.644869
0.644891
0.644913
0.644936
0.644936
0.644958
0.64498
0.645002
0.645024
0.645024
0.645046
0.645068
0.645091
0.645113
0.645113
0.645135
0.645157
0.645179
0.645202
0.645202
0.645224
0.645246
0.645269
0.645291
0.645291
0.645313
0.645336
0.645358
0.64538
0.64538
0.645403
0.645425
0.645448
0.64547
0.64547
0.645492
0.645515
0.645537
0.64556
0.64556
0.645582
0.645605
0.645627
0.64565
0.64565
0.645673
0.645695
0.645718
0.64574
0.64574
0.645763
0.645786
0.645808
0.645831
0.645831
0.645853
0.645876
0.645899
0.645922
0.645922
0.645944
0.645967
0.64599
0.646013
0.646013
0.646035
0.646058
0.646081
0.646104
0.646104
0.646127
0.646149
0.646172
0.646195
0.646195
0.646218
0.646241
0.646264
0.646287
0.646287
0.64631
0.646333
0.646356
0.646379
0.646379
0.646402
0.646425
0.646448
0.646471
0.646471
0.646494
0.646517
0.64654
0.646563
0.646563
0.646586
0.64661
0.646633
0.646656
0.646656
0.646679
0.646702
0.646725
0.646749
0.646749
0.646772
0.646795
0.646818
0.646842
0.646842
0.646865
0.646888
0.646912
0.646935
0.646935
0.646958
0.646982
0.647005
0.647028
0.647028
0.647052
0.647075
0.647099
0.647122
0.647122
0.647146
0.647169
0.647193
0.647216
0.647216
0.64724
0.647263
0.647287
0.64731
0.64731
0.647334
0.647358
0.647381
0.647405
0.647405
0.647428
0.647452
0.647476
0.647499
0.647499
0.647523
0.647547
0.647571
0.647594
0.647594
0.647618
0.647642
0.647666
0.647689
0.647689
0.647713
0.647737
0.647761
0.647785
0.647785
0.647809
0.647833
0.647856
0.64788
0.64788
0.647904
0.647928
0.647952
0.647976
0.647976
0.648
0.648024
0.648048
0.648072
0.648072
0.648096
0.64812
0.648144
0.648168
0.648168
0.648193
0.648217
0.648241
0.648265
0.648265
0.648289
0.648313
0.648337
0.648362
0.648362
0.648386
0.64841
0.648434
0.648458
0.648458
0.648483
0.648507
0.648531
0.648555
0.648555
0.648579
0.648604
0.648628
0.648652
0.648652
0.648676
0.6487
0.648725
0.648749
0.648749
0.648773
0.648798
0.648822
0.648847
0.648847
0.648872
0.648897
0.648921
0.648946
0.648946
0.648971
0.648996
0.64902
0.649045
0.649045
0.64907
0.649095
0.649119
0.649144
0.649144
0.649169
0.649193
0.649218
0.649243
0.649243
0.649268
0.649293
0.649317
0.649342
0.649342
0.649367
0.649392
0.649417
0.649442
0.649442
0.649466
0.649491
0.649516
0.649541
0.649541
0.649566
0.649591
0.649616
0.649641
0.649641
0.649666
0.649691
0.649716
0.649741
0.649741
0.649766
0.649791
0.649816
0.649841
0.649841
0.649866
0.649892
0.649917
0.649942
0.649942
0.649967
0.649992
0.650017
0.650043
0.650043
0.650068
0.650093
0.650118
0.650144
0.650144
0.650169
0.650194
0.65022
0.650245
0.650245
0.65027
0.650296
0.650321
0.650346
0.650346
0.650372
0.650397
0.650423
0.650448
0.650448
0.650474
0.650499
0.650525
0.65055
0.65055
0.650576
0.650601
0.650627
0.650652
0.650652
0.650678
0.650704
0.650729
0.650755
0.650755
0.65078
0.650806
0.650832
0.650857
0.650857
0.650883
0.650909
0.650935
0.65096
0.65096
0.650986
0.651012
0.651038
0.651064
0.651064
0.651089
0.651115
0.651141
0.651167
0.651167
0.651193
0.651219
0.651245
0.651271
0.651271
0.651297
0.651323
0.651349
0.651375
0.651375
0.651401
0.651427
0.651453
0.651479
0.651479
0.651505
0.651531
0.651557
0.651583
0.651583
0.651609
0.651636
0.651662
0.651688
0.651688
0.651714
0.65174
0.651767
0.651793
0.651793
0.651819
0.651845
0.651872
0.651898
0.651898
0.651924
0.651951
0.651977
0.652003
0.652003
0.65203
0.652056
0.652083
0.652109
0.652109
0.652135
0.652162
0.652188
0.652215
0.652215
0.652241
0.652268
0.652294
0.652321
0.652321
0.652348
0.652374
0.652401
0.652427
0.652427
0.652454
0.652481
0.652507
0.652534
0.652534
0.652561
0.652587
0.652614
0.652641
0.652641
0.652668
0.652694
0.652721
0.652748
0.652748
0.652775
0.652802
0.652829
0.652855
0.652855
0.652882
0.652909
0.652936
0.652963
0.652963
0.65299
0.653017
0.653044
0.653071
0.653071
0.653098
0.653125
0.653152
0.653179
0.653179
0.653206
0.653233
0.65326
0.653287
0.653287
0.653315
0.653342
0.653369
0.653396
0.653396
0.653423
0.65345
0.653478
0.653505
0.653505
0.653532
0.653559
0.653587
0.653614
0.653614
0.653641
0.653669
0.653696
0.653723
0.653723
0.653751
0.653778
0.653806
0.653833
0.653833
0.65386
0.653888
0.653915
0.653943
0.653943
0.65397
0.653998
0.654025
0.654053
0.654053
0.654081
0.654108
0.654136
0.654163
0.654163
0.654191
0.654219
0.654246
0.654274
0.654274
0.654302
0.654329
0.654357
0.654385
0.654385
0.654413
0.65444
0.654468
0.654496
0.654496
0.654524
0.654552
0.65458
0.654607
0.654607
0.654635
0.654663
0.654691
0.654719
0.654719
0.654747
0.654775
0.654803
0.654831
0.654831
0.654859
0.654887
0.654915
0.654943
0.654943
0.654971
0.654999
0.655027
0.655056
0.655056
0.655084
0.655112
0.65514
0.655168
0.655168
0.655196
0.655225
0.655253
0.655281
0.655281
0.655309
0.655338
0.655366
0.655394
0.655394
0.655423
0.655451
0.655479
0.655508
0.655508
0.655536
0.655565
0.655593
0.655622
0.655622
0.65565
0.655678
0.655707
0.655735
0.655735
0.655764
0.655793
0.655821
0.65585
0.65585
0.655878
0.655907
0.655936
0.655964
0.655964
0.655993
0.656021
0.65605
0.656079
0.656079
0.656108
0.656136
0.656165
0.656194
0.656194
0.656223
0.656251
0.65628
0.656309
0.656309
0.656338
0.656367
0.656396
0.656425
0.656425
0.656454
0.656482
0.656511
0.65654
0.65654
0.656569
0.656598
0.656627
0.656656
0.656656
0.656685
0.656715
0.656744
0.656773
0.656773
0.656802
0.656831
0.65686
0.656889
0.656889
0.656918
0.656948
0.656977
0.657006
0.657006
0.657035
0.657064
0.657094
0.657123
0.657123
0.657152
0.657182
0.657211
0.65724
0.65724
0.657269
0.657299
0.657328
0.657357
0.657357
0.657387
0.657416
0.657445
0.657475
0.657475
0.657504
0.657533
0.657562
0.657592
0.657592
0.657621
0.657651
0.65768
0.65771
0.65771
0.65774
0.657769