<?xml version="1.0"?>
<VTKFile type="UnstructuredGrid" version="0.1" byte_order="LittleEndian">
<UnstructuredGrid>
<Piece NumberOfPoints="5000" NumberOfCells="4000">
<PointData Scalars="Reaction 0">
<DataArray type="Float32" Name="Reaction 0" format="ascii">
0.100008
0.100008
0.100008
0.100008
0.100008
0.100008
0.100008
0.100008
0.100008
0.100008
0.100008
0.100008
0.100008
0.100008
0.100008
0.100008
0.100008
0.100008
0.100008
0.100008
0.100008
0.100008
0.100008
0.100008
0.100008
0.100008
0.100008
0.100008
0.100008
0.100008
0.100008
0.100008
0.100008
0.100008
0.100008
0.100008
0.100008
0.100008
0.100008
0.100008
0.100008
0.100008
0.100008
0.100008
0.100008
0.100008
0.100008
0.100008
0.100008
0.100008
0.100008
0.100008
0.100008
0.100008
0.100008
0.100008
0.100008
0.100008
0.100008
0.100008
0.100008
0.100008
0.100008
0.100008
0.100008
0.100008
0.100008
0.100008
0.100008
0.100008
0.100008
0.100008
0.100008
0.100008
0.100008
0.100008
0.100008
0.100008
0.100008
0.100008
0.100008
0.100008
0.100008
0.100008
0.100008
0.100008
0.100008
0.100008
0.100008
0.100008
0.100008
0.100008
0.100008
0.100008
0.100008
0.100008
0.100008
0.100008
0.100008
0.100008
0.100008
0.100008
0.100008
0.100008
0.100008
0.100008
0.100008
0.100008
0.100008
0.100008
0.100008
0.100008
0.100008
0.100008
0.100008
0.100008
0.100008
0.100008
0.100008
0.100008
0.100008
0.100008
0.100008
0.100008
0.100008
0.100008
0.100008
0.100008
0.100008
0.100008
0.100008
0.100008
0.100008
0.100008
0.100008
0.100008
0.100009
0.100009
0.100009
0.100009
0.100009
0.100009
0.100009
0.100009
0.100009
0.100009
0.100009
0.100009
0.100009
0.100009
0.100009
0.100009
0.100009
0.100009
0.100009
0.100009
0.100009
0.100009
0.100009
0.100009
0.100009
0.100009
0.100009
0.100009
0.100009
0.100009
0.100009
0.100009
0.100009
0.100009
0.100009
0.100009
0.100009
0.100009
0.100009
0.100009
0.100009
0.100009
0.100009
0.100009
0.100009
0.100009
0.100009
0.100009
0.100009
0.100009
0.100009
0.100009
0.100009
0.100009
0.100009
0.100009
0.100009
0.100009
0.100009
0.100009
0.100009
0.100009
0.100009
0.100009
0.100009
0.100009
0.100009
0.100009
0.100009
0.100009
0.100009
0.100009
0.100009
0.100009
0.100009
0.100009
0.100009
0.100009
0.100009
0.100009
0.100009
0.100009
0.100009
0.100009
0.100009
0.100009
0.100009
0.100009
0.100009
0.100009
0.100009
0.100009
0.100009
0.100009
0.100009
0.100009
0.100009
0.100009
0.100009
0.100009
0.100009
0.100009
0.100009
0.100009
0.100009
0.100009
0.100009
0.100009
0.100009
0.100009
0.100009
0.100009
0.100009
0.100009
0.100009
0.100009
0.100009
0.100009
0.100009
0.100009
0.100009
0.100009
0.100009
0.100009
0.100009
0.100009
0.100009
0.100009
0.100009
0.100009
0.100009
0.100009
0.100009
0.100009
0.100009
0.100009
0.100009
0.100009
0.100009
0.100009
0.100009
0.100009
0.100009
0.100009
0.100009
0.100009
0.100009
0.100009
0.100009
0.100009
0.100009
0.100009
0.100009
0.100009
0.100009
0.100009
0.100009
0.100009
0.100009
0.100009
0.100009
0.100009
0.100009
0.100009
0.100009
0.100009
0.100009
0.100009
0.100009
0.100009
0.100009
0.100009
0.100009
0.100009
0.100009
0.100009
0.100009
0.100009
0.100009
0.100009
0.100009
0.100009
0.100009
0.100009
0.100009
0.100009
0.100009
0.100009
0.100009
0.100009
0.100009
0.100009
0.100009
0.100009
0.100009
0.100009
0.100009
0.100009
0.100009
0.100009
0.100009
0.100009
0.100009
0.100009
0.100009
0.100009
0.100009
0.100009
0.100009
0.100009
0.100009
0.100009
0.100009
0.100009
0.100009
0.100009
0.100009
0.100009
0.100009
0.100009
0.100009
0.100009
0.100009
0.100009
0.100009
0.100009
0.100009
0.100009
0.100009
0.100009
0.100009
0.100009
0.100009
0.100009
0.100009
0.100009
0.100009
0.100009
0.100009
0.100009
0.100009
0.100009
0.100009
0.100009
0.100009
0.100009
0.100009
0.100009
0.100009
0.100009
0.100009
0.100009
0.100009
0.100009
0.100009
0.100009
0.100009
0.100009
0.100009
0.100009
0.100009
0.100009
0.100009
0.100009
0.100009
0.100009
0.100009
0.100009
0.100009
0.100009
0.100009
0.100009
0.100009
0.100009
0.100009
0.100009
0.100009
0.100009
0.10001
0.10001
0.10001
0.10001
0.10001
0.10001
0.10001
0.10001
0.10001
0.10001
0.10001
0.10001
0.10001
0.10001
0.10001
0.10001
0.10001
0.10001
0.10001
0.10001
0.10001
0.10001
0.10001
0.10001
0.10001
0.10001
0.10001
0.10001
0.10001
0.10001
0.10001
0.10001
0.10001
0.10001
0.10001
0.10001
0.10001
0.10001
0.10001
0.10001
0.10001
0.10001
0.10001
0.10001
0.10001
0.10001
0.10001
0.10001
0.10001
0.10001
0.10001
0.10001
0.10001
0.10001
0.10001
0.10001
0.10001
0.10001
0.10001
0.10001
0.10001
0.10001
0.10001
0.10001
0.10001
0.10001
0.10001
0.10001
0.10001
0.10001
0.10001
0.10001
0.10001
0.10001
0.10001
0.10001
0.10001
0.10001
0.10001
0.10001
0.10001
0.10001
0.10001
0.10001
0.10001
0.10001
0.10001
0.10001
0.10001
0.10001
0.10001
0.10001
0.10001
0.10001
0.10001
0.10001
0.10001
0.10001
0.10001
0.10001
0.10001
0.10001
0.10001
0.10001
0.10001
0.10001
0.10001
0.10001
0.10001
0.10001
0.10001
0.10001
0.10001
0.10001
0.10001
0.10001
0.10001
0.10001
0.10001
0.10001
0.10001
0.10001
0.10001
0.10001
0.10001
0.10001
0.10001
0.10001
0.10001
0.10001
0.10001
0.10001
0.10001
0.10001
0.10001
0.10001
0.10001
0.10001
0.10001
0.10001
0.10001
0.10001
0.10001
0.10001
0.10001
0.10001
0.10001
0.10001
0.100011
0.100011
0.100011
0.100011
0.100011
0.100011
0.100011
0.100011
0.100011
0.100011
0.100011
0.100011
0.100011
0.100011
0.100011
0.100011
0.100011
0.100011
0.100011
0.100011
0.100011
0.100011
0.100011
0.100011
0.100011
0.100011
0.100011
0.100011
0.100011
0.100011
0.100011
0.100011
0.100011
0.100011
0.100011
0.100011
0.100011
0.100011
0.100011
0.100011
0.100011
0.100011
0.100011
0.100011
0.100011
0.100011
0.100011
0.100011
0.100011
0.100011
0.100011
0.100011
0.100011
0.100011
0.100011
0.100011
0.100011
0.100011
0.100011
0.100011
0.100011
0.100011
0.100011
0.100011
0.100011
0.100011
0.100011
0.100011
0.100011
0.100011
0.100011
0.100011
0.100011
0.100011
0.100011
0.100011
0.100011
0.100011
0.100011
0.100011
0.100011
0.100011
0.100011
0.100011
0.100011
0.100011
0.100011
0.100011
0.100011
0.100011
0.100011
0.100011
0.100011
0.100011
0.100011
0.100011
0.100011
0.100011
0.100011
0.100011
0.100011
0.100011
0.100011
0.100011
0.100011
0.100011
0.100011
0.100011
0.100011
0.100011
0.100012
0.100012
0.100012
0.100012
0.100012
0.100012
0.100012
0.100012
0.100012
0.100012
0.100012
0.100012
0.100012
0.100012
0.100012
0.100012
0.100012
0.100012
0.100012
0.100012
0.100012
0.100012
0.100012
0.100012
0.100012
0.100012
0.100012
0.100012
0.100012
0.100012
0.100012
0.100012
0.100012
0.100012
0.100012
0.100012
0.100012
0.100012
0.100012
0.100012
0.100012
0.100012
0.100012
0.100012
0.100012
0.100012
0.100012
0.100012
0.100012
0.100012
0.100012
0.100012
0.100012
0.100012
0.100012
0.100012
0.100012
0.100012
0.100012
0.100012
0.100012
0.100012
0.100012
0.100012
0.100012
0.100012
0.100012
0.100012
0.100012
0.100012
0.100012
0.100012
0.100012
0.100012
0.100012
0.100012
0.100012
0.100012
0.100012
0.100012
0.100012
0.100012
0.100012
0.100012
0.100012
0.100012
0.100012
0.100012
0.100012
0.100012
0.100013
0.100013
0.100013
0.100013
0.100013
0.100013
0.100013
0.100013
0.100013
0.100013
0.100013
0.100013
0.100013
0.100013
0.100013
0.100013
0.100013
0.100013
0.100013
0.100013
0.100013
0.100013
0.100013
0.100013
0.100013
0.100013
0.100013
0.100013
0.100013
0.100013
0.100013
0.100013
0.100013
0.100013
0.100013
0.100013
0.100013
0.100013
0.100013
0.100013
0.100013
0.100013
0.100013
0.100013
0.100013
0.100013
0.100013
0.100013
0.100013
0.100013
0.100013
0.100013
0.100013
0.100013
0.100013
0.100013
0.100013
0.100013
0.100013
0.100013
0.100013
0.100013
0.100013
0.100013
0.100013
0.100013
0.100013
0.100013
0.100013
0.100013
0.100013
0.100013
0.100013
0.100013
0.100013
0.100013
0.100014
0.100014
0.100014
0.100014
0.100014
0.100014
0.100014
0.100014
0.100014
0.100014
0.100014
0.100014
0.100014
0.100014
0.100014
0.100014
0.100014
0.100014
0.100014
0.100014
0.100014
0.100014
0.100014
0.100014
0.100014
0.100014
0.100014
0.100014
0.100014
0.100014
0.100014
0.100014
0.100014
0.100014
0.100014
0.100014
0.100014
0.100014
0.100014
0.100014
0.100014
0.100014
0.100014
0.100014
0.100014
0.100014
0.100014
0.100014
0.100014
0.100014
0.100014
0.100014
0.100014
0.100014
0.100014
0.100014
0.100014
0.100014
0.100014
0.100014
0.100014
0.100014
0.100014
0.100014
0.100014
0.100014
0.100015
0.100015
0.100015
0.100015
0.100015
0.100015
0.100015
0.100015
0.100015
0.100015
0.100015
0.100015
0.100015
0.100015
0.100015
0.100015
0.100015
0.100015
0.100015
0.100015
0.100015
0.100015
0.100015
0.100015
0.100015
0.100015
0.100015
0.100015
0.100015
0.100015
0.100015
0.100015
0.100015
0.100015
0.100015
0.100015
0.100015
0.100015
0.100015
0.100015
0.100015
0.100015
0.100015
0.100015
0.100015
0.100015
0.100015
0.100015
0.100015
0.100015
0.100015
0.100015
0.100015
0.100015
0.100015
0.100015
0.100015
0.100015
0.100015
0.100015
0.100016
0.100016
0.100016
0.100016
0.100016
0.100016
0.100016
0.100016
0.100016
0.100016
0.100016
0.100016
0.100016
0.100016
0.100016
0.100016
0.100016
0.100016
0.100016
0.100016
0.100016
0.100016
0.100016
0.100016
0.100016
0.100016
0.100016
0.100016
0.100016
0.100016
0.100016
0.100016
0.100016
0.100016
0.100016
0.100016
0.100016
0.100016
0.100016
0.100016
0.100016
0.100016
0.100016
0.100016
0.100016
0.100016
0.100016
0.100016
0.100016
0.100016
0.100016
0.100016
0.100016
0.100016
0.100017
0.100017
0.100017
0.100017
0.100017
0.100017
0.100017
0.100017
0.100017
0.100017
0.100017
0.100017
0.100017
0.100017
0.100017
0.100017
0.100017
0.100017
0.100017
0.100017
0.100017
0.100017
0.100017
0.100017
0.100017
0.100017
0.100017
0.100017
0.100017
0.100017
0.100017
0.100017
0.100017
0.100017
0.100017
0.100017
0.100017
0.100017
0.100017
0.100017
0.100017
0.100017
0.100017
0.100017
0.100017
0.100017
0.100017
0.100017
0.100017
0.100017
0.100018
0.100018
0.100018
0.100018
0.100018
0.100018
0.100018
0.100018
0.100018
0.100018
0.100018
0.100018
0.100018
0.100018
0.100018
0.100018
0.100018
0.100018
0.100018
0.100018
0.100018
0.100018
0.100018
0.100018
0.100018
0.100018
0.100018
0.100018
0.100018
0.100018
0.100018
0.100018
0.100018
0.100018
0.100018
0.100018
0.100018
0.100018
0.100018
0.100018
0.100018
0.100018
0.100018
0.100018
0.100018
0.100019
0.100019
0.100019
0.100019
0.100019
0.100019
0.100019
0.100019
0.100019
0.100019
0.100019
0.100019
0.100019
0.100019
0.100019
0.100019
0.100019
0.100019
0.100019
0.100019
0.100019
0.100019
0.100019
0.100019
0.100019
0.100019
0.100019
0.100019
0.100019
0.100019
0.100019
0.100019
0.100019
0.100019
0.100019
0.100019
0.100019
0.100019
0.100019
0.100019
0.100019
0.10002
0.10002
0.10002
0.10002
0.10002
0.10002
0.10002
0.10002
0.10002
0.10002
0.10002
0.10002
0.10002
0.10002
0.10002
0.10002
0.10002
0.10002
0.10002
0.10002
0.10002
0.10002
0.10002
0.10002
0.10002
0.10002
0.10002
0.10002
0.10002
0.10002
0.10002
0.10002
0.10002
0.10002
0.10002
0.10002
0.10002
0.10002
0.10002
0.100021
0.100021
0.100021
0.100021
0.100021
0.100021
0.100021
0.100021
0.100021
0.100021
0.100021
0.100021
0.100021
0.100021
0.100021
0.100021
0.100021
0.100021
0.100021
0.100021
0.100021
0.100021
0.100021
0.100021
0.100021
0.100021
0.100021
0.100021
0.100021
0.100021
0.100021
0.100021
0.100021
0.100021
0.100021
0.100021
0.100021
0.100021
0.100022
0.100022
0.100022
0.100022
0.100022
0.100022
0.100022
0.100022
0.100022
0.100022
0.100022
0.100022
0.100022
0.100022
0.100022
0.100022
0.100022
0.100022
0.100022
0.100022
0.100022
0.100022
0.100022
0.100022
0.100022
0.100022
0.100022
0.100022
0.100022
0.100022
0.100022
0.100022
0.100022
0.100023
0.100023
0.100023
0.100023
0.100023
0.100023
0.100023
0.100023
0.100023
0.100023
0.100023
0.100023
0.100023
0.100023
0.100023
0.100023
0.100023
0.100023
0.100023
0.100023
0.100023
0.100023
0.100023
0.100023
0.100023
0.100023
0.100023
0.100023
0.100023
0.100023
0.100023
0.100023
0.100023
0.100024
0.100024
0.100024
0.100024
0.100024
0.100024
0.100024
0.100024
0.100024
0.100024
0.100024
0.100024
0.100024
0.100024
0.100024
0.100024
0.100024
0.100024
0.100024
0.100024
0.100024
0.100024
0.100024
0.100024
0.100024
0.100024
0.100024
0.100024
0.100024
0.100024
0.100024
0.100025
0.100025
0.100025
0.100025
0.100025
0.100025
0.100025
0.100025
0.100025
0.100025
0.100025
0.100025
0.100025
0.100025
0.100025
0.100025
0.100025
0.100025
0.100025
0.100025
0.100025
0.100025
0.100025
0.100025
0.100025
0.100025
0.100025
0.100025
0.100025
0.100026
0.100026
0.100026
0.100026
0.100026
0.100026
0.100026
0.100026
0.100026
0.100026
0.100026
0.100026
0.100026
0.100026
0.100026
0.100026
0.100026
0.100026
0.100026
0.100026
0.100026
0.100026
0.100026
0.100026
0.100026
0.100026
0.100026
0.100027
0.100027
0.100027
0.100027
0.100027
0.100027
0.100027
0.100027
0.100027
0.100027
0.100027
0.100027
0.100027
0.100027
0.100027
0.100027
0.100027
0.100027
0.100027
0.100027
0.100027
0.100027
0.100027
0.100027
0.100027
0.100027
0.100027
0.100028
0.100028
0.100028
0.100028
0.100028
0.100028
0.100028
0.100028
0.100028
0.100028
0.100028
0.100028
0.100028
0.100028
0.100028
0.100028
0.100028
0.100028
0.100028
0.100028
0.100028
0.100028
0.100028
0.100028
0.100028
0.100029
0.100029
0.100029
0.100029
0.100029
0.100029
0.100029
0.100029
0.100029
0.100029
0.100029
0.100029
0.100029
0.100029
0.100029
0.100029
0.100029
0.100029
0.100029
0.100029
0.100029
0.100029
0.100029
0.10003
0.10003
0.10003
0.10003
0.10003
0.10003
0.10003
0.10003
0.10003
0.10003
0.10003
0.10003
0.10003
0.10003
0.10003
0.10003
0.10003
0.10003
0.10003
0.10003
0.10003
0.10003
0.10003
0.10003
0.100031
0.100031
0.100031
0.100031
0.100031
0.100031
0.100031
0.100031
0.100031
0.100031
0.100031
0.100031
0.100031
0.100031
0.100031
0.100031
0.100031
0.100031
0.100031
0.100031
0.100031
0.100031
0.100031
0.100032
0.100032
0.100032
0.100032
0.100032
0.100032
0.100032
0.100032
0.100032
0.100032
0.100032
0.100032
0.100032
0.100032
0.100032
0.100032
0.100032
0.100032
0.100032
0.100032
0.100032
0.100033
0.100033
0.100033
0.100033
0.100033
0.100033
0.100033
0.100033
0.100033
0.100033
0.100033
0.100033
0.100033
0.100033
0.100033
0.100033
0.100033
0.100033
0.100033
0.100033
0.100034
0.100034
0.100034
0.100034
0.100034
0.100034
0.100034
0.100034
0.100034
0.100034
0.100034
0.100034
0.100034
0.100034
0.100034
0.100034
0.100034
0.100034
0.100034
0.100034
0.100035
0.100035
0.100035
0.100035
0.100035
0.100035
0.100035
0.100035
0.100035
0.100035
0.100035
0.100035
0.100035
0.100035
0.100035
0.100035
0.100035
0.100035
0.100035
0.100036
0.100036
0.100036
0.100036
0.100036
0.100036
0.100036
0.100036
0.100036
0.100036
0.100036
0.100036
0.100036
0.100036
0.100036
0.100036
0.100036
0.100036
0.100037
0.100037
0.100037
0.100037
0.100037
0.100037
0.100037
0.100037
0.100037
0.100037
0.100037
0.100037
0.100037
0.100037
0.100037
0.100037
0.100037
0.100037
0.100037
0.100038
0.100038
0.100038
0.100038
0.100038
0.100038
0.100038
0.100038
0.100038
0.100038
0.100038
0.100038
0.100038
0.100038
0.100038
0.100038
0.100039
0.100039
0.100039
0.100039
0.100039
0.100039
0.100039
0.100039
0.100039
0.100039
0.100039
0.100039
0.100039
0.100039
0.100039
0.100039
0.100039
0.100039
0.10004
0.10004
0.10004
0.10004
0.10004
0.10004
0.10004
0.10004
0.10004
0.10004
0.10004
0.10004
0.10004
0.10004
0.10004
0.10004
0.100041
0.100041
0.100041
0.100041
0.100041
0.100041
0.100041
0.100041
0.100041
0.100041
0.100041
0.100041
0.100041
0.100041
0.100041
0.100041
0.100042
0.100042
0.100042
0.100042
0.100042
0.100042
0.100042
0.100042
0.100042
0.100042
0.100042
0.100042
0.100042
0.100042
0.100042
0.100043
0.100043
0.100043
0.100043
0.100043
0.100043
0.100043
0.100043
0.100043
0.100043
0.100043
0.100043
0.100043
0.100043
0.100043
0.100044
0.100044
0.100044
0.100044
0.100044
0.100044
0.100044
0.100044
0.100044
0.100044
0.100044
0.100044
0.100044
0.100044
0.100044
0.100045
0.100045
0.100045
0.100045
0.100045
0.100045
0.100045
0.100045
0.100045
0.100045
0.100045
0.100045
0.100045
0.100045
0.100046
0.100046
0.100046
0.100046
0.100046
0.100046
0.100046
0.100046
0.100046
0.100046
0.100046
0.100046
0.100046
0.100046
0.100047
0.100047
0.100047
0.100047
0.100047
0.100047
0.100047
0.100047
0.100047
0.100047
0.100047
0.100047
0.100047
0.100047
0.100048
0.100048
0.100048
0.100048
0.100048
0.100048
0.100048
0.100048
0.100048
0.100048
0.100048
0.100048
0.100049
0.100049
0.100049
0.100049
0.100049
0.100049
0.100049
0.100049
0.100049
0.100049
0.100049
0.100049
0.100049
0.100049
0.10005
0.10005
0.10005
0.10005
0.10005
0.10005
0.10005
0.10005
0.10005
0.10005
0.10005
0.10005
0.100051
0.100051
0.100051
0.100051
0.100051
0.100051
0.100051
0.100051
0.100051
0.100051
0.100051
0.100051
0.100051
0.100052
0.100052
0.100052
0.100052
0.100052
0.100052
0.100052
0.100052
0.100052
0.100052
0.100052
0.100053
0.100053
0.100053
0.100053
0.100053
0.100053
0.100053
0.100053
0.100053
0.100053
0.100053
0.100053
0.100053
0.100054
0.100054
0.100054
0.100054
0.100054
0.100054
0.100054
0.100054
0.100054
0.100054
0.100054
0.100055
0.100055
0.100055
0.100055
0.100055
0.100055
0.100055
0.100055
0.100055
0.100055
0.100055
0.100056
0.100056
0.100056
0.100056
0.100056
0.100056
0.100056
0.100056
0.100056
0.100056
0.100056
0.100057
0.100057
0.100057
0.100057
0.100057
0.100057
0.100057
0.100057
0.100057
0.100057
0.100058
0.100058
0.100058
0.100058
0.100058
0.100058
0.100058
0.100058
0.100058
0.100058
0.100058
0.100058
0.100059
0.100059
0.100059
0.100059
0.100059
0.100059
0.100059
0.100059
0.100059
0.100059
0.10006
0.10006
0.10006
0.10006
0.10006
0.10006
0.10006
0.10006
0.10006
0.10006
0.100061
0.100061
0.100061
0.100061
0.100061
0.100061
0.100061
0.100061
0.100061
0.100061
0.100062
0.100062
0.100062
0.100062
0.100062
0.100062
0.100062
0.100062
0.100062
0.100062
0.100063
0.100063
0.100063
0.100063
0.100063
0.100063
0.100063
0.100063
0.100063
0.100063
0.100064
0.100064
0.100064
0.100064
0.100064
0.100064
0.100064
0.100064
0.100065
0.100065
0.100065
0.100065
0.100065
0.100065
0.100065
0.100065
0.100065
0.100065
0.100066
0.100066
0.100066
0.100066
0.100066
0.100066
0.100066
0.100066
0.100066
0.100067
0.100067
0.100067
0.100067
0.100067
0.100067
0.100067
0.100067
0.100067
0.100068
0.100068
0.100068
0.100068
0.100068
0.100068
0.100068
0.100068
0.100068
0.100069
0.100069
0.100069
0.100069
0.100069
0.100069
0.100069
0.100069
0.10007
0.10007
0.10007
0.10007
0.10007
0.10007
0.10007
0.10007
0.10007
0.100071
0.100071
0.100071
0.100071
0.100071
0.100071
0.100071
0.100071
0.100071
0.100072
0.100072
0.100072
0.100072
0.100072
0.100072
0.100072
0.100072
0.100072
0.100073
0.100073
0.100073
0.100073
0.100073
0.100073
0.100073
0.100074
0.100074
0.100074
0.100074
0.100074
0.100074
0.100074
0.100074
0.100074
0.100075
0.100075
0.100075
0.100075
0.100075
0.100075
0.100075
0.100076
0.100076
0.100076
0.100076
0.100076
0.100076
0.100076
0.100076
0.100077
0.100077
0.100077
0.100077
0.100077
0.100077
0.100077
0.100078
0.100078
0.100078
0.100078
0.100078
0.100078
0.100078
0.100078
0.100079
0.100079
0.100079
0.100079
0.100079
0.100079
0.100079
0.10008
0.10008
0.10008
0.10008
0.10008
0.10008
0.10008
0.10008
0.100081
0.100081
0.100081
0.100081
0.100081
0.100081
0.100081
0.100082
0.100082
0.100082
0.100082
0.100082
0.100082
0.100082
0.100082
0.100083
0.100083
0.100083
0.100083
0.100083
0.100083
0.100084
0.100084
0.100084
0.100084
0.100084
0.100084
0.100084
0.100084
0.100085
0.100085
0.100085
0.100085
0.100085
0.100085
0.100086
0.100086
0.100086
0.100086
0.100086
0.100086
0.100086
0.100087
0.100087
0.100087
0.100087
0.100087
0.100087
0.100087
0.100088
0.100088
0.100088
0.100088
0.100088
0.100088
0.100089
0.100089
0.100089
0.100089
0.100089
0.100089
0.10009
0.10009
0.10009
0.10009
0.10009
0.10009
0.10009
0.10009
0.100091
0.100091
0.100091
0.100091
0.100091
0.100091
0.100092
0.100092
0.100092
0.100092
0.100092
0.100092
0.100093
0.100093
0.100093
0.100093
0.100093
0.100093
0.100094
0.100094
0.100094
0.100094
0.100094
0.100094
0.100094
0.100095
0.100095
0.100095
0.100095
0.100095
0.100096
0.100096
0.100096
0.100096
0.100096
0.100096
0.100097
0.100097
0.100097
0.100097
0.100097
0.100097
0.100098
0.100098
0.100098
0.100098
0.100098
0.100098
0.100099
0.100099
0.100099
0.100099
0.100099
0.1001
0.1001
0.1001
0.1001
0.1001
0.1001
0.1001
0.100101
0.100101
0.100101
0.100101
0.100101
0.100102
0.100102
0.100102
0.100102
0.100102
0.100102
0.100103
0.100103
0.100103
0.100103
0.100103
0.100104
0.100104
0.100104
0.100104
0.100104
0.100104
0.100105
0.100105
0.100105
0.100105
0.100105
0.100106
0.100106
0.100106
0.100106
0.100106
0.100107
0.100107
0.100107
0.100107
0.100107
0.100108
0.100108
0.100108
0.100108
0.100108
0.100108
0.100109
0.100109
0.100109
0.100109
0.100109
0.10011
0.10011
0.10011
0.10011
0.10011
0.100111
0.100111
0.100111
0.100111
0.100111
0.100112
0.100112
0.100112
0.100112
0.100112
0.100113
0.100113
0.100113
0.100113
0.100113
0.100114
0.100114
0.100114
0.100114
0.100114
0.100115
0.100115
0.100115
0.100115
0.100115
0.100116
0.100116
0.100116
0.100116
0.100116
0.100117
0.100117
0.100117
0.100117
0.100118
0.100118
0.100118
0.100118
0.100118
0.100119
0.100119
0.100119
0.100119
0.100119
0.10012
0.10012
0.10012
0.10012
0.10012
0.100121
0.100121
0.100121
0.100121
0.100122
0.100122
0.100122
0.100122
0.100122
0.100123
0.100123
0.100123
0.100123
0.100123
0.100124
0.100124
0.100124
0.100124
0.100125
0.100125
0.100125
0.100125
0.100125
0.100126
0.100126
0.100126
0.100127
0.100127
0.100127
0.100127
0.100127
0.100128
0.100128
0.100128
0.100128
0.100129
0.100129
0.100129
0.100129
0.100129
0.10013
0.10013
0.10013
0.10013
0.100131
0.100131
0.100131
0.100131
0.100131
0.100132
0.100132
0.100132
0.100132
0.100133
0.100133
0.100133
0.100134
0.100134
0.100134
0.100134
0.100135
0.100135
0.100135
0.100135
0.100135
0.100136
0.100136
0.100136
0.100136
0.100137
0.100137
0.100137
0.100137
0.100138
0.100138
0.100138
0.100139
0.100139
0.100139
0.100139
0.100139
0.10014
0.10014
0.10014
0.10014
0.100141
0.100141
0.100141
0.100141
0.100142
0.100142
0.100142
0.100142
0.100143
0.100143
0.100143
0.100144
0.100144
0.100144
0.100144
0.100145
0.100145
0.100145
0.100145
0.100146
0.100146
0.100146
0.100146
0.100147
0.100147
0.100147
0.100148
0.100148
0.100148
0.100148
0.100149
0.100149
0.100149
0.100149
0.10015
0.10015
0.10015
0.10015
0.100151
0.100151
0.100151
0.100152
0.100152
0.100152
0.100153
0.100153
0.100153
0.100153
0.100154
0.100154
0.100154
0.100155
0.100155
0.100155
0.100155
0.100156
0.100156
0.100156
0.100156
0.100157
0.100157
0.100158
0.100158
0.100158
0.100158
0.100159
0.100159
0.100159
0.100159
0.10016
0.10016
0.10016
0.10016
0.100161
0.100161
0.100162
0.100162
0.100162
0.100162
0.100163
0.100163
0.100163
0.100163
0.100164
0.100164
0.100165
0.100165
0.100165
0.100165
0.100166
0.100166
0.100167
0.100167
0.100167
0.100167
0.100168
0.100168
0.100168
0.100168
0.100169
0.100169
0.10017
0.10017
0.10017
0.10017
0.100171
0.100171
0.100171
0.100172
0.100172
0.100172
0.100173
0.100173
0.100173
0.100174
0.100174
0.100174
0.100174
0.100175
0.100175
0.100176
0.100176
0.100176
0.100176
0.100177
0.100177
0.100178
0.100178
0.100178
0.100179
0.100179
0.100179
0.100179
0.10018
0.10018
0.100181
0.100181
0.100181
0.100182
0.100182
0.100182
0.100183
0.100183
0.100183
0.100184
0.100184
0.100185
0.100185
0.100185
0.100185
0.100186
0.100186
0.100186
0.100187
0.100187
0.100188
0.100188
0.100188
0.100188
0.100189
0.100189
0.10019
0.10019
0.10019
0.100191
0.100191
0.100192
0.100192
0.100192
0.100193
0.100193
0.100193
0.100193
0.100194
0.100194
0.100195
0.100195
0.100195
0.100196
0.100196
0.100197
0.100197
0.100197
0.100198
0.100198
0.100199
0.100199
0.100199
0.100199
0.1002
0.1002
0.100201
0.100201
0.100201
0.100202
0.100202
0.100203
0.100203
0.100203
0.100204
0.100204
0.100205
0.100205
0.100205
0.100206
0.100206
0.100207
0.100207
0.100207
0.100208
0.100208
0.100209
0.100209
0.100209
0.10021
0.10021
0.100211
0.100211
0.100211
0.100212
0.100212
0.100213
0.100213
0.100213
0.100214
0.100214
0.100215
0.100215
0.100215
0.100216
0.100216
0.100217
0.100217
0.100217
0.100218
0.100218
0.100219
0.100219
0.100219
0.10022
0.10022
0.100221
0.100221
0.100221
0.100222
0.100223
0.100223
0.100223
0.100224
0.100224
0.100225
0.100225
0.100225
0.100226
0.100226
0.100227
0.100227
0.100227
0.100228
0.100229
0.100229
0.10023
0.10023
0.10023
0.100231
0.100231
0.100232
0.100232
0.100232
0.100233
0.100234
0.100234
0.100234
0.100235
0.100235
0.100236
0.100236
0.100236
0.100237
0.100237
0.100238
0.100239
0.100239
0.100239
0.10024
0.10024
0.100241
0.100241
0.100242
0.100242
0.100243
0.100243
0.100243
0.100244
0.100244
0.100245
0.100246
0.100246
0.100246
0.100247
0.100247
0.100248
0.100248
0.100249
0.100249
0.10025
0.10025
0.10025
0.100251
0.100252
0.100252
0.100253
0.100253
0.100253
0.100254
0.100255
0.100255
0.100255
0.100256
0.100257
0.100257
0.100258
0.100258
0.100258
0.100259
0.10026
0.10026
0.10026
0.100261
0.100262
0.100262
0.100263
0.100263
0.100264
0.100264
0.100265
0.100265
0.100265
0.100266
0.100267
0.100267
0.100268
0.100268
0.100269
0.100269
0.10027
0.100271
0.100271
0.100271
0.100272
0.100273
0.100273
0.100273
0.100274
0.100275
0.100275
0.100276
0.100276
0.100277
0.100277
0.100278
0.100279
0.100279
0.100279
0.10028
0.100281
0.100282
0.100282
0.100282
0.100283
0.100284
0.100284
0.100284
0.100285
0.100286
0.100286
0.100287
0.100287
0.100288
0.100289
0.100289
0.10029
0.10029
0.100291
0.100291
0.100292
0.100293
0.100293
0.100294
0.100294
0.100295
0.100296
0.100296
0.100296
0.100297
0.100298
0.100299
0.100299
0.100299
0.1003
0.100301
0.100302
0.100302
0.100302
0.100303
0.100304
0.100305
0.100305
0.100305
0.100306
0.100307
0.100308
0.100308
0.100308
0.100309
0.10031
0.100311
0.100311
0.100311
0.100312
0.100313
0.100314
0.100314
0.100315
0.100315
0.100316
0.100317
0.100317
0.100318
0.100318
0.100319
0.10032
0.10032
0.100321
0.100322
0.100322
0.100323
0.100323
0.100324
0.100325
0.100326
0.100326
0.100326
0.100327
0.100328
0.100329
0.10033
0.10033
0.100331
0.100331
0.100332
0.100333
0.100333
0.100334
0.100335
0.100336
0.100336
0.100336
0.100337
0.100338
0.100339
0.10034
0.10034
0.100341
0.100341
0.100342
0.100343
0.100343
0.100344
0.100345
0.100346
0.100347
0.100347
0.100348
0.100348
0.100349
0.10035
0.10035
0.100351
0.100352
0.100353
0.100354
0.100354
0.100355
0.100355
0.100356
0.100357
0.100357
0.100358
0.100359
0.10036
0.100361
0.100361
0.100362
0.100363
0.100364
0.100364
0.100364
0.100365
0.100366
0.100367
0.100368
0.100368
0.100369
0.10037
0.100371
0.100372
0.100372
0.100373
0.100374
0.100375
0.100376
0.100376
0.100377
0.100378
0.100378
0.100379
0.100379
0.10038
0.100381
0.100382
0.100383
0.100383
0.100384
0.100385
0.100386
0.100387
0.100387
0.100388
0.100389
0.10039
0.100391
0.100391
0.100392
0.100393
0.100394
0.100395
0.100395
0.100396
0.100397
0.100398
0.100399
0.100399
0.1004
0.100401
0.100402
0.100403
0.100403
0.100404
0.100405
0.100406
0.100407
0.100407
0.100408
0.100409
0.10041
0.100411
0.100411
0.100413
0.100414
0.100415
0.100416
0.100416
0.100417
0.100418
0.100419
0.10042
0.10042
0.100421
0.100422
0.100423
0.100424
0.100424
0.100425
0.100426
0.100428
0.100429
0.100429
0.10043
0.100431
0.100432
0.100433
0.100433
0.100434
0.100435
0.100436
0.100437
0.100437
0.100439
0.10044
0.100441
0.100442
0.100442
0.100443
0.100444
0.100445
0.100447
0.100447
0.100448
0.100449
0.10045
0.100451
0.100451
0.100452
0.100453
0.100455
0.100456
0.100456
0.100457
0.100458
0.100459
0.10046
0.10046
0.100462
0.100463
0.100464
0.100465
0.100465
0.100466
0.100468
0.100469
0.10047
0.10047
0.100471
0.100472
0.100474
0.100475
0.100475
0.100476
0.100477
0.100479
0.10048
0.10048
0.100481
0.100482
0.100484
0.100485
0.100485
0.100486
0.100487
0.100489
0.10049
0.10049
0.100491
0.100492
0.100494
0.100495
0.100495
0.100496
0.100497
0.100499
0.1005
0.1005
0.100501
0.100503
0.100504
0.100505
0.100505
0.100507
0.100508
0.100509
0.100511
0.100511
0.100512
0.100513
0.100515
0.100516
0.100516
0.100517
0.100519
0.10052
0.100521
0.100521
0.100523
0.100524
0.100525
0.100527
0.100527
0.100528
0.100529
0.100531
0.100532
0.100532
0.100534
0.100535
0.100536
0.100538
0.100538
0.100539
0.100541
0.100542
0.100543
0.100543
0.100545
0.100546
0.100548
0.100549
0.100549
0.100551
0.100552
0.100553
0.100555
0.100555
0.100556
0.100558
0.100559
0.100561
0.100561
0.100562
0.100564
0.100565
0.100567
0.100567
0.100568
0.10057
0.100571
0.100573
0.100573
0.100574
0.100576
0.100577
0.100579
0.100579
0.10058
0.100582
0.100583
0.100585
0.100585
0.100586
0.100588
0.100589
0.100591
0.100591
0.100592
0.100594
0.100596
0.100597
0.100597
0.100599
0.1006
0.100602
0.100603
0.100603
0.100605
0.100607
0.100608
0.10061
0.10061
0.100611
0.100613
0.100615
0.100616
0.100616
0.100618
0.10062
0.100621
0.100623
0.100623
0.100624
0.100626
0.100628
0.100629
0.100629
0.100631
0.100633
0.100634
0.100636
0.100636
0.100638
0.10064
0.100641
0.100643
0.100643
0.100645
0.100646
0.100648
0.10065
0.10065
0.100651
0.100653
0.100655
0.100657
0.100657
0.100658
0.10066
0.100662
0.100664
0.100664
0.100665
0.100667
0.100669
0.100671
0.100671
0.100673
0.100674
0.100676
0.100678
0.100678
0.10068
0.100682
0.100683
0.100685
0.100685
0.100687
0.100689
0.100691
0.100693
0.100693
0.100694
0.100696
0.100698
0.1007
0.1007
0.100702
0.100704
0.100706
0.100707
0.100707
0.100709
0.100711
0.100713
0.100715
0.100715
0.100717
0.100719
0.100721
0.100723
0.100723
0.100725
0.100727
0.100729
0.10073
0.10073
0.100732
0.100734
0.100736
0.100738
0.100738
0.10074
0.100742
0.100744
0.100746
0.100746
0.100748
0.10075
0.100752
0.100754
0.100754
0.100756
0.100758
0.10076
0.100762
0.100762
0.100765
0.100767
0.100769
0.100771
0.100771
0.100773
0.100775
0.100777
0.100779
0.100779
0.100781
0.100783
0.100785
0.100788
0.100788
0.10079
0.100792
0.100794
0.100796
0.100796
0.100798
0.1008
0.100802
0.100805
0.100805
0.100807
0.100809
0.100811
0.100813
0.100813
0.100816
0.100818
0.10082
0.100822
0.100822
0.100824
0.100827
0.100829
0.100831
0.100831
0.100833
0.100836
0.100838
0.10084
0.10084
0.100843
0.100845
0.100847
0.100849
0.100849
0.100852
0.100854
0.100856
0.100859
0.100859
0.100861
0.100863
0.100866
0.100868
0.100868
0.10087
0.100873
0.100875
0.100877
0.100877
0.10088
0.100882
0.100885
0.100887
0.100887
0.10089
0.100892
0.100894
0.100897
0.100897
0.100899
0.100902
0.100904
0.100907
0.100907
0.100909
0.100912
0.100914
0.100917