<?xml version="1.0"?>
<VTKFile type="UnstructuredGrid" version="0.1" byte_order="LittleEndian">
<UnstructuredGrid>
<Piece NumberOfPoints="5000" NumberOfCells="4000">
<PointData Scalars="Reaction 0">
<DataArray type="Float32" Name="Reaction 0" format="ascii">
0.463664
0.463664
0.463664
0.463664
0.463664
0.463664
0.463664
0.463665
0.463665
0.463665
0.463665
0.463665
0.463666
0.463666
0.463666
0.463666
0.463667
0.463667
0.463668
0.463668
0.463668
0.463669
0.463669
0.46367
0.463671
0.463671
0.463671
0.463672
0.463673
0.463674
0.463674
0.463674
0.463675
0.463676
0.463677
0.463677
0.463678
0.463679
0.46368
0.463681
0.463681
0.463682
0.463683
0.463684
0.463685
0.463685
0.463687
0.463688
0.463689
0.46369
0.46369
0.463692
0.463693
0.463695
0.463696
0.463696
0.463698
0.463699
0.463701
0.463702
0.463702
0.463704
0.463705
0.463707
0.463709
0.463709
0.463711
0.463712
0.463714
0.463716
0.463716
0.463718
0.46372
0.463722
0.463724
0.463724
0.463726
0.463728
0.46373
0.463732
0.463732
0.463734
0.463736
0.463738
0.463741
0.463741
0.463743
0.463745
0.463748
0.46375
0.46375
0.463752
0.463755
0.463757
0.46376
0.46376
0.463762
0.463765
0.463767
0.46377
0.46377
0.463773
0.463775
0.463778
0.463781
0.463781
0.463784
0.463787
0.463789
0.463792
0.463792
0.463795
0.463798
0.463801
0.463804
0.463804
0.463807
0.46381
0.463814
0.463817
0.463817
0.46382
0.463823
0.463826
0.46383
0.46383
0.463833
0.463836
0.46384
0.463843
0.463843
0.463847
0.46385
0.463854
0.463857
0.463857
0.463861
0.463865
0.463868
0.463872
0.463872
0.463876
0.463879
0.463883
0.463887
0.463887
0.463891
0.463895
0.463899
0.463903
0.463903
0.463907
0.463911
0.463915
0.463919
0.463919
0.463923
0.463927
0.463931
0.463936
0.463936
0.46394
0.463944
0.463948
0.463953
0.463953
0.463957
0.463962
0.463966
0.463971
0.463971
0.463975
0.46398
0.463984
0.463989
0.463989
0.463994
0.463998
0.464003
0.464008
0.464008
0.464013
0.464017
0.464022
0.464027
0.464027
0.464032
0.464037
0.464042
0.464047
0.464047
0.464052
0.464057
0.464062
0.464067
0.464067
0.464073
0.464078
0.464083
0.464088
0.464088
0.464094
0.464099
0.464104
0.46411
0.46411
0.464115
0.464121
0.464126
0.464132
0.464132
0.464137
0.464143
0.464149
0.464154
0.464154
0.46416
0.464166
0.464172
0.464178
0.464178
0.464183
0.464189
0.464195
0.464201
0.464201
0.464207
0.464213
0.464219
0.464225
0.464225
0.464231
0.464238
0.464244
0.46425
0.46425
0.464256
0.464262
0.464269
0.464275
0.464275
0.464282
0.464288
0.464294
0.464301
0.464301
0.464307
0.464314
0.464321
0.464327
0.464327
0.464334
0.464341
0.464347
0.464354
0.464354
0.464361
0.464368
0.464374
0.464381
0.464381
0.464388
0.464395
0.464402
0.464409
0.464409
0.464416
0.464423
0.46443
0.464438
0.464438
0.464445
0.464452
0.464459
0.464467
0.464467
0.464474
0.464481
0.464489
0.464496
0.464496
0.464503
0.464511
0.464518
0.464526
0.464526
0.464534
0.464541
0.464549
0.464557
0.464557
0.464564
0.464572
0.46458
0.464588
0.464588
0.464595
0.464603
0.464611
0.464619
0.464619
0.464627
0.464635
0.464643
0.464651
0.464651
0.464659
0.464668
0.464676
0.464684
0.464684
0.464692
0.4647
0.464709
0.464717
0.464717
0.464725
0.464734
0.464742
0.464751
0.464751
0.464759
0.464768
0.464776
0.464785
0.464785
0.464794
0.464802
0.464811
0.46482
0.46482
0.464829
0.464837
0.464846
0.464855
0.464855
0.464864
0.464873
0.464882
0.464891
0.464891
0.4649
0.464909
0.464918
0.464927
0.464927
0.464937
0.464946
0.464955
0.464964
0.464964
0.464974
0.464983
0.464992
0.465002
0.465002
0.465011
0.465021
0.46503
0.46504
0.46504
0.465049
0.465059
0.465069
0.465078
0.465078
0.465088
0.465098
0.465108
0.465117
0.465117
0.465127
0.465137
0.465147
0.465157
0.465157
0.465167
0.465177
0.465187
0.465197
0.465197
0.465207
0.465217
0.465227
0.465238
0.465238
0.465248
0.465258
0.465269
0.465279
0.465279
0.465289
0.4653
0.46531
0.465321
0.465321
0.465331
0.465342
0.465352
0.465363
0.465363
0.465373
0.465384
0.465395
0.465406
0.465406
0.465416
0.465427
0.465438
0.465449
0.465449
0.46546
0.465471
0.465482
0.465493
0.465493
0.465504
0.465515
0.465526
0.465537
0.465537
0.465548
0.46556
0.465571
0.465582
0.465582
0.465593
0.465605
0.465616
0.465628
0.465628
0.465639
0.46565
0.465662
0.465674
0.465674
0.465685
0.465697
0.465708
0.46572
0.46572
0.465732
0.465743
0.465755
0.465767
0.465767
0.465779
0.465791
0.465803
0.465815
0.465815
0.465827
0.465839
0.465851
0.465863
0.465863
0.465875
0.465887
0.465899
0.465911
0.465911
0.465924
0.465936
0.465948
0.465961
0.465961
0.465973
0.465985
0.465998
0.46601
0.46601
0.466023
0.466035
0.466048
0.466061
0.466061
0.466073
0.466086
0.466099
0.466111
0.466111
0.466124
0.466137
0.46615
0.466163
0.466163
0.466176
0.466189
0.466202
0.466215
0.466215
0.466228
0.466241
0.466254
0.466267
0.466267
0.46628
0.466293
0.466307
0.46632
0.46632
0.466333
0.466347
0.46636
0.466373
0.466373
0.466387
0.4664
0.466414
0.466427
0.466427
0.466441
0.466455
0.466468
0.466482
0.466482
0.466496
0.466509
0.466523
0.466537
0.466537
0.466551
0.466565
0.466579
0.466593
0.466593
0.466607
0.466621
0.466635
0.466649
0.466649
0.466663
0.466677
0.466691
0.466706
0.466706
0.46672
0.466734
0.466748
0.466763
0.466763
0.466777
0.466792
0.466806
0.46682
0.46682
0.466835
0.46685
0.466864
0.466879
0.466879
0.466893
0.466908
0.466923
0.466938
0.466938
0.466952
0.466967
0.466982
0.466997
0.466997
0.467012
0.467027
0.467042
0.467057
0.467057
0.467072
0.467087
0.467102
0.467117
0.467117
0.467133
0.467148
0.467163
0.467178
0.467178
0.467194
0.467209
0.467224
0.46724
0.46724
0.467255
0.467271
0.467286
0.467302
0.467302
0.467317
0.467333
0.467349
0.467364
0.467364
0.46738
0.467396
0.467412
0.467428
0.467428
0.467443
0.467459
0.467475
0.467491
0.467491
0.467507
0.467523
0.467539
0.467555
0.467555
0.467572
0.467588
0.467604
0.46762
0.46762
0.467636
0.467653
0.467669
0.467685
0.467685
0.467702
0.467718
0.467735
0.467751
0.467751
0.467768
0.467784
0.467801
0.467818
0.467818
0.467834
0.467851
0.467868
0.467885
0.467885
0.467901
0.467918
0.467935
0.467952
0.467952
0.467969
0.467986
0.468003
0.46802
0.46802
0.468037
0.468054
0.468071
0.468088
0.468088
0.468106
0.468123
0.46814
0.468158
0.468158
0.468175
0.468192
0.46821
0.468227
0.468227
0.468245
0.468262
0.46828
0.468297
0.468297
0.468315
0.468332
0.46835
0.468368
0.468368
0.468386
0.468403
0.468421
0.468439
0.468439
0.468457
0.468475
0.468493
0.468511
0.468511
0.468529
0.468547
0.468565
0.468583
0.468583
0.468601
0.468619
0.468638
0.468656
0.468656
0.468674
0.468693
0.468711
0.468729
0.468729
0.468748
0.468766
0.468785
0.468803
0.468803
0.468822
0.46884
0.468859
0.468878
0.468878
0.468896
0.468915
0.468934
0.468953
0.468953
0.468971
0.46899
0.469009
0.469028
0.469028
0.469047
0.469066
0.469085
0.469104
0.469104
0.469123
0.469142
0.469162
0.469181
0.469181
0.4692
0.469219
0.469239
0.469258
0.469258
0.469277
0.469297
0.469316
0.469336
0.469336
0.469355
0.469375
0.469394
0.469414
0.469414
0.469434
0.469453
0.469473
0.469493
0.469493
0.469512
0.469532
0.469552
0.469572
0.469572
0.469592
0.469612
0.469632
0.469652
0.469652
0.469672
0.469692
0.469712
0.469732
0.469732
0.469752
0.469773
0.469793
0.469813
0.469813
0.469834
0.469854
0.469874
0.469895
0.469895
0.469915
0.469936
0.469956
0.469977
0.469977
0.469997
0.470018
0.470039
0.470059
0.470059
0.47008
0.470101
0.470122
0.470142
0.470142
0.470163
0.470184
0.470205
0.470226
0.470226
0.470247
0.470268
0.470289
0.47031
0.47031
0.470331
0.470353
0.470374
0.470395
0.470395
0.470416
0.470438
0.470459
0.47048
0.47048
0.470502
0.470523
0.470545
0.470566
0.470566
0.470588
0.470609
0.470631
0.470652
0.470652
0.470674
0.470696
0.470718
0.470739
0.470739
0.470761
0.470783
0.470805
0.470827
0.470827
0.470849
0.470871
0.470893
0.470915
0.470915
0.470937
0.470959
0.470981
0.471003
0.471003
0.471026
0.471048
0.47107
0.471092
0.471092
0.471115
0.471137
0.47116
0.471182
0.471182
0.471205
0.471227
0.47125
0.471272
0.471272
0.471295
0.471318
0.47134
0.471363
0.471363
0.471386
0.471409
0.471431
0.471454
0.471454
0.471477
0.4715
0.471523
0.471546
0.471546
0.471569
0.471592
0.471615
0.471638
0.471638
0.471662
0.471685
0.471708
0.471731
0.471731
0.471755
0.471778
0.471801
0.471825
0.471825
0.471848
0.471872
0.471895
0.471919
0.471919
0.471942
0.471966
0.47199
0.472013
0.472013
0.472037
0.472061
0.472085
0.472108
0.472108
0.472132
0.472156
0.47218
0.472204
0.472204
0.472228
0.472252
0.472276
0.4723
0.4723
0.472324
0.472349
0.472373
0.472397
0.472397
0.472421
0.472446
0.47247
0.472494
0.472494
0.472519
0.472543
0.472568
0.472592
0.472592
0.472617
0.472641
0.472666
0.47269
0.47269
0.472715
0.47274
0.472765
0.472789
0.472789
0.472814
0.472839
0.472864
0.472889
0.472889
0.472914
0.472939
0.472964
0.472989
0.472989
0.473014
0.473039
0.473064
0.473089
0.473089
0.473115
0.47314
0.473165
0.473191
0.473191
0.473216
0.473241
0.473267
0.473292
0.473292
0.473318
0.473343
0.473369
0.473394
0.473394
0.47342
0.473446
0.473472
0.473497
0.473497
0.473523
0.473549
0.473575
0.473601
0.473601
0.473626
0.473652
0.473678
0.473704
0.473704
0.47373
0.473757
0.473783
0.473809
0.473809
0.473835
0.473861
0.473888
0.473914
0.473914
0.47394
0.473966
0.473993
0.474019
0.474019
0.474046
0.474072
0.474099
0.474125
0.474125
0.474152
0.474179
0.474205
0.474232
0.474232
0.474259
0.474286
0.474312
0.474339
0.474339
0.474366
0.474393
0.47442
0.474447
0.474447
0.474474
0.474501
0.474528
0.474555
0.474555
0.474582
0.47461
0.474637
0.474664
0.474664
0.474691
0.474719
0.474746
0.474773
0.474773
0.474801
0.474828
0.474856
0.474883
0.474883
0.474911
0.474938
0.474966
0.474994
0.474994
0.475021
0.475049
0.475077
0.475105
0.475105
0.475133
0.475161
0.475188
0.475216
0.475216
0.475244
0.475272
0.4753
0.475329
0.475329
0.475357
0.475385
0.475413
0.475441
0.475441
0.475469
0.475498
0.475526
0.475554
0.475554
0.475583
0.475611
0.47564
0.475668
0.475668
0.475697
0.475725
0.475754
0.475783
0.475783
0.475811
0.47584
0.475869
0.475897
0.475897
0.475926
0.475955
0.475984
0.476013
0.476013
0.476042
0.476071
0.4761
0.476129
0.476129
0.476158
0.476187
0.476216
0.476246
0.476246
0.476275
0.476304
0.476333
0.476363
0.476363
0.476392
0.476421
0.476451
0.47648
0.47648
0.47651
0.476539
0.476569
0.476599
0.476599
0.476628
0.476658
0.476688
0.476717
0.476717
0.476747
0.476777
0.476807
0.476837
0.476837
0.476867
0.476897
0.476927
0.476957
0.476957
0.476987
0.477017
0.477047
0.477077
0.477077
0.477107
0.477138
0.477168
0.477198
0.477198
0.477228
0.477259
0.477289
0.47732
0.47732
0.47735
0.477381
0.477411
0.477442
0.477442
0.477472
0.477503
0.477534
0.477564
0.477564
0.477595
0.477626
0.477657
0.477688
0.477688
0.477719
0.47775
0.477781
0.477812
0.477812
0.477843
0.477874
0.477905
0.477936
0.477936
0.477967
0.477998
0.47803
0.478061
0.478061
0.478092
0.478123
0.478155
0.478186
0.478186
0.478218
0.478249
0.478281
0.478312
0.478312
0.478344
0.478376
0.478407
0.478439
0.478439
0.478471
0.478502
0.478534
0.478566
0.478566
0.478598
0.47863
0.478662
0.478694
0.478694
0.478726
0.478758
0.47879
0.478822
0.478822
0.478854
0.478886
0.478919
0.478951
0.478951
0.478983
0.479016
0.479048
0.47908
0.47908
0.479113
0.479145
0.479178
0.47921
0.47921
0.479243
0.479275
0.479308
0.479341
0.479341
0.479373
0.479406
0.479439
0.479472
0.479472
0.479505
0.479538
0.479571
0.479604
0.479604
0.479636
0.47967
0.479703
0.479736
0.479736
0.479769
0.479802
0.479835
0.479868
0.479868
0.479902
0.479935
0.479968
0.480002
0.480002
0.480035
0.480069
0.480102
0.480136
0.480136
0.480169
0.480203
0.480236
0.48027
0.48027
0.480304
0.480338
0.480371
0.480405
0.480405
0.480439
0.480473
0.480507
0.480541
0.480541
0.480575
0.480609
0.480643
0.480677
0.480677
0.480711
0.480745
0.480779
0.480814
0.480814
0.480848
0.480882
0.480917
0.480951
0.480951
0.480985
0.48102
0.481054
0.481089
0.481089
0.481123
0.481158
0.481192
0.481227
0.481227
0.481262
0.481297
0.481331
0.481366
0.481366
0.481401
0.481436
0.481471
0.481506
0.481506
0.481541
0.481576
0.481611
0.481646
0.481646
0.481681
0.481716
0.481751
0.481786
0.481786
0.481822
0.481857
0.481892
0.481928
0.481928
0.481963
0.481998
0.482034
0.482069
0.482069
0.482105
0.482141
0.482176
0.482212
0.482212
0.482247
0.482283
0.482319
0.482355
0.482355
0.482391
0.482426
0.482462
0.482498
0.482498
0.482534
0.48257
0.482606
0.482642
0.482642
0.482678
0.482715
0.482751
0.482787
0.482787
0.482823
0.482859
0.482896
0.482932
0.482932
0.482969
0.483005
0.483041
0.483078
0.483078
0.483114
0.483151
0.483188
0.483224
0.483224
0.483261
0.483298
0.483334
0.483371
0.483371
0.483408
0.483445
0.483482
0.483519
0.483519
0.483556
0.483593
0.48363
0.483667
0.483667
0.483704
0.483741
0.483778
0.483815
0.483815
0.483853
0.48389
0.483927
0.483965
0.483965
0.484002
0.484039
0.484077
0.484114
0.484114
0.484152
0.484189
0.484227
0.484265
0.484265
0.484302
0.48434
0.484378
0.484416
0.484416
0.484453
0.484491
0.484529
0.484567
0.484567
0.484605
0.484643
0.484681
0.484719
0.484719
0.484757
0.484795
0.484833
0.484872
0.484872
0.48491
0.484948
0.484987
0.485025
0.485025
0.485063
0.485102
0.48514
0.485179
0.485179
0.485217
0.485256
0.485294
0.485333
0.485333
0.485372
0.48541
0.485449
0.485488
0.485488
0.485527
0.485566
0.485604
0.485643
0.485643
0.485682
0.485721
0.48576
0.485799
0.485799
0.485839
0.485878
0.485917
0.485956
0.485956
0.485995
0.486035
0.486074
0.486113
0.486113
0.486153
0.486192
0.486232
0.486271
0.486271
0.486311
0.48635
0.48639
0.48643
0.48643
0.486469
0.486509
0.486549
0.486588
0.486588
0.486628
0.486668
0.486708
0.486748
0.486748
0.486788
0.486828
0.486868
0.486908
0.486908
0.486948
0.486988
0.487029
0.487069
0.487069
0.487109
0.487149
0.48719
0.48723
0.48723
0.48727
0.487311
0.487351
0.487392
0.487392
0.487432
0.487473
0.487514
0.487554
0.487554
0.487595
0.487636
0.487676
0.487717
0.487717
0.487758
0.487799
0.48784
0.487881
0.487881
0.487922
0.487963
0.488004
0.488045
0.488045
0.488086
0.488127
0.488168
0.48821
0.48821
0.488251
0.488292
0.488334
0.488375
0.488375
0.488416
0.488458
0.488499
0.488541
0.488541
0.488582
0.488624
0.488666
0.488707
0.488707
0.488749
0.488791
0.488833
0.488874
0.488874
0.488916
0.488958
0.489
0.489042
0.489042
0.489084
0.489126
0.489168
0.48921
0.48921
0.489252
0.489295
0.489337
0.489379
0.489379
0.489421
0.489464
0.489506
0.489548
0.489548
0.489591
0.489633
0.489676
0.489718
0.489718
0.489761
0.489804
0.489846
0.489889
0.489889
0.489932
0.489974
0.490017
0.49006
0.49006
0.490103
0.490146
0.490189
0.490232
0.490232
0.490275
0.490318
0.490361
0.490404
0.490404
0.490447
0.49049
0.490534
0.490577
0.490577
0.49062
0.490664
0.490707
0.49075
0.49075
0.490794
0.490837
0.490881
0.490924
0.490924
0.490968
0.491012
0.491055
0.491099
0.491099
0.491143
0.491187
0.49123
0.491274
0.491274
0.491318
0.491362
0.491406
0.49145
0.49145
0.491494
0.491538
0.491582
0.491626
0.491626
0.491671
0.491715
0.491759
0.491803
0.491803
0.491848
0.491892
0.491937
0.491981
0.491981
0.492026
0.49207
0.492115
0.492159
0.492159
0.492204
0.492248
0.492293
0.492338
0.492338
0.492383
0.492428
0.492472
0.492517
0.492517
0.492562
0.492607
0.492652
0.492697
0.492697
0.492742
0.492787
0.492833
0.492878
0.492878
0.492923
0.492968
0.493013
0.493059
0.493059
0.493104
0.49315
0.493195
0.493241
0.493241
0.493286
0.493332
0.493377
0.493423
0.493423
0.493468
0.493514
0.49356
0.493606
0.493606
0.493651
0.493697
0.493743
0.493789
0.493789
0.493835
0.493881
0.493927
0.493973
0.493973
0.494019
0.494065
0.494112
0.494158
0.494158
0.494204
0.49425
0.494297
0.494343
0.494343
0.49439
0.494436
0.494482
0.494529
0.494529
0.494576
0.494622
0.494669
0.494715
0.494715
0.494762
0.494809
0.494856
0.494902
0.494902
0.494949
0.494996
0.495043
0.49509
0.49509
0.495137
0.495184
0.495231
0.495278
0.495278
0.495325
0.495373
0.49542
0.495467
0.495467
0.495514
0.495562
0.495609
0.495656
0.495656
0.495704
0.495751
0.495799
0.495846
0.495846
0.495894
0.495942
0.495989
0.496037
0.496037
0.496085
0.496133
0.49618
0.496228
0.496228
0.496276
0.496324
0.496372
0.49642
0.49642
0.496468
0.496516
0.496564
0.496612
0.496612
0.496661
0.496709
0.496757
0.496805
0.496805
0.496854
0.496902
0.496951
0.496999
0.496999
0.497048
0.497096
0.497145
0.497193
0.497193
0.497242
0.497291
0.497339
0.497388
0.497388
0.497437
0.497486
0.497535
0.497583
0.497583
0.497632
0.497681
0.49773
0.497779
0.497779
0.497829
0.497878
0.497927
0.497976
0.497976
0.498025
0.498075
0.498124
0.498173
0.498173
0.498223
0.498272
0.498322
0.498371
0.498371
0.498421
0.49847
0.49852
0.498569
0.498569
0.498619
0.498669
0.498719
0.498768
0.498768
0.498818
0.498868
0.498918
0.498968
0.498968
0.499018
0.499068
0.499118
0.499168
0.499168
0.499218
0.499269
0.499319
0.499369
0.499369
0.499419
0.49947
0.49952
0.49957
0.49957
0.499621
0.499671
0.499722
0.499772
0.499772
0.499823
0.499874
0.499924
0.499975
0.499975
0.500026
0.500077
0.500127
0.500178
0.500178
0.500229
0.50028
0.500331
0.500382
0.500382
0.500433
0.500484
0.500535
0.500587
0.500587
0.500638
0.500689
0.50074
0.500792
0.500792
0.500843
0.500894
0.500946
0.500997
0.500997
0.501049
0.5011
0.501152
0.501204
0.501204
0.501255
0.501307
0.501359
0.50141
0.50141
0.501462
0.501514
0.501566
0.501618
0.501618
0.50167
0.501722
0.501774
0.501826
0.501826
0.501878
0.50193
0.501983
0.502035
0.502035
0.502087
0.502139
0.502192
0.502244
0.502244
0.502296
0.502349
0.502401
0.502454
0.502454
0.502507
0.502559
0.502612
0.502665
0.502665
0.502717
0.50277
0.502823
0.502876
0.502876
0.502929
0.502981
0.503034
0.503087
0.503087
0.50314
0.503194
0.503247
0.5033
0.5033
0.503353
0.503406
0.50346
0.503513
0.503513
0.503566
0.50362
0.503673
0.503726
0.503726
0.50378
0.503833
0.503887
0.503941
0.503941
0.503994
0.504048
0.504102
0.504155
0.504155
0.504209
0.504263
0.504317
0.504371
0.504371
0.504425
0.504479
0.504533
0.504587
0.504587
0.504641
0.504695
0.504749
0.504804
0.504804
0.504858
0.504912
0.504967
0.505021
0.505021
0.505075
0.50513
0.505184
0.505239
0.505239
0.505293
0.505348
0.505403
0.505457
0.505457
0.505512
0.505567
0.505622
0.505677
0.505677
0.505731
0.505786
0.505841
0.505896
0.505896
0.505951
0.506006
0.506062
0.506117
0.506117
0.506172
0.506227
0.506282
0.506338
0.506338
0.506393
0.506448
0.506504
0.506559
0.506559
0.506615
0.50667
0.506726
0.506782
0.506782
0.506837
0.506893
0.506949
0.507004
0.507004
0.50706
0.507116
0.507172
0.507228
0.507228
0.507284
0.50734
0.507396
0.507452
0.507452
0.507508
0.507564
0.507621
0.507677
0.507677
0.507733
0.507789
0.507846
0.507902
0.507902
0.507959
0.508015
0.508072
0.508128
0.508128
0.508185
0.508241
0.508298
0.508355
0.508355
0.508412
0.508468
0.508525
0.508582
0.508582
0.508639
0.508696
0.508753
0.50881
0.50881
0.508867
0.508924
0.508981
0.509038
0.509038
0.509096
0.509153
0.50921
0.509268
0.509268
0.509325
0.509382
0.50944
0.509497
0.509497
0.509555
0.509612
0.50967
0.509728
0.509728
0.509785
0.509843
0.509901
0.509959
0.509959
0.510016
0.510074
0.510132
0.51019
0.51019
0.510248
0.510306
0.510364
0.510423
0.510423
0.510481
0.510539
0.510597
0.510655
0.510655
0.510714
0.510772
0.51083
0.510889
0.510889
0.510947
0.511006
0.511064
0.511123
0.511123
0.511182
0.51124
0.511299
0.511358
0.511358
0.511417
0.511475
0.511534
0.511593
0.511593
0.511652
0.511711
0.51177
0.511829
0.511829
0.511888
0.511948
0.512007
0.512066
0.512066
0.512125
0.512185
0.512244
0.512303
0.512303
0.512363
0.512422
0.512482
0.512541
0.512541
0.512601
0.51266
0.51272
0.51278
0.51278
0.51284
0.512899
0.512959
0.513019
0.513019
0.513079
0.513139
0.513199
0.513259
0.513259
0.513319
0.513379
0.513439
0.513499
0.513499
0.51356
0.51362
0.51368
0.513741
0.513741
0.513801
0.513861
0.513922
0.513982
0.513982
0.514043
0.514103
0.514164
0.514225
0.514225
0.514285
0.514346
0.514407
0.514468
0.514468
0.514529
0.51459
0.51465
0.514711
0.514711
0.514772
0.514834
0.514895
0.514956
0.514956
0.515017
0.515078
0.515139
0.515201
0.515201
0.515262
0.515323
0.515385
0.515446
0.515446
0.515508
0.515569
0.515631
0.515693
0.515693
0.515754
0.515816
0.515878
0.515939
0.515939
0.516001
0.516063
0.516125
0.516187
0.516187
0.516249
0.516311
0.516373
0.516435
0.516435
0.516497
0.516559
0.516622
0.516684
0.516684
0.516746
0.516809
0.516871
0.516933
0.516933
0.516996
0.517058
0.517121
0.517184
0.517184
0.517246
0.517309
0.517372
0.517434
0.517434
0.517497
0.51756
0.517623
0.517686
0.517686
0.517749
0.517812
0.517875
0.517938
0.517938
0.518001
0.518064
0.518127
0.51819
0.51819
0.518254
0.518317
0.51838
0.518444
0.518444
0.518507
0.518571
0.518634
0.518698
0.518698
0.518761
0.518825
0.518889
0.518952
0.518952
0.519016
0.51908
0.519144
0.519208
0.519208
0.519272
0.519336
0.5194
0.519464
0.519464
0.519528
0.519592
0.519656
0.51972
0.51972
0.519785
0.519849
0.519913
0.519978
0.519978
0.520042
0.520106
0.520171
0.520235
0.520235
0.5203
0.520365
0.520429
0.520494
0.520494
0.520559
0.520624
0.520688
0.520753
0.520753
0.520818
0.520883
0.520948
0.521013
0.521013
0.521078
0.521143
0.521208
0.521274
0.521274
0.521339
0.521404
0.521469
0.521535
0.521535
0.5216
0.521666
0.521731
0.521797
0.521797
0.521862
0.521928
0.521993
0.522059
0.522059
0.522125
0.522191
0.522256
0.522322
0.522322
0.522388
0.522454
0.52252
0.522586
0.522586
0.522652
0.522718
0.522784
0.522851
0.522851
0.522917
0.522983
0.523049
0.523116
0.523116
0.523182
0.523249
0.523315
0.523382
0.523382
0.523448
0.523515
0.523581
0.523648
0.523648
0.523715
0.523781
0.523848
0.523915
0.523915
0.523982
0.524049
0.524116
0.524183
0.524183
0.52425
0.524317
0.524384
0.524451
0.524451
0.524519
0.524586
0.524653
0.52472
0.52472
0.524788
0.524855
0.524923
0.52499
0.52499
0.525058
0.525125
0.525193
0.525261
0.525261
0.525328
0.525396
0.525464
0.525532
0.525532
0.5256
0.525668
0.525735
0.525803
0.525803
0.525872
0.52594
0.526008
0.526076
0.526076
0.526144
0.526212
0.526281
0.526349
0.526349
0.526417
0.526486
0.526554
0.526623
0.526623
0.526691
0.52676
0.526829
0.526897
0.526897
0.526966
0.527035
0.527104
0.527172
0.527172
0.527241
0.52731
0.527379
0.527448
0.527448
0.527517
0.527586
0.527655
0.527725
0.527725
0.527794
0.527863
0.527932
0.528002
0.528002
0.528071
0.528141
0.52821
0.52828
0.52828
0.528349
0.528419
0.528488
0.528558
0.528558
0.528628
0.528697
0.528767
0.528837
0.528837
0.528907
0.528977
0.529047
0.529117
0.529117
0.529187
0.529257
0.529327
0.529397
0.529397
0.529468
0.529538
0.529608
0.529679
0.529679
0.529749
0.529819
0.52989
0.52996
0.52996
0.530031
0.530102
0.530172
0.530243
0.530243
0.530314
0.530385
0.530455
0.530526
0.530526
0.530597
0.530668
0.530739
0.53081
0.53081
0.530881
0.530952
0.531023
0.531095
0.531095
0.531166
0.531237
0.531309
0.53138
0.53138
0.531451
0.531523
0.531594
0.531666
0.531666
0.531737
0.531809
0.531881
0.531952
0.531952
0.532024
0.532096
0.532168
0.53224
0.53224
0.532312
0.532384
0.532456
0.532528
0.532528
0.5326
0.532672
0.532744
0.532816
0.532816
0.532889
0.532961
0.533033
0.533106
0.533106
0.533178
0.533251
0.533323
0.533396
0.533396
0.533468
0.533541
0.533614
0.533686
0.533686
0.533759
0.533832
0.533905
0.533978
0.533978
0.534051
0.534124
0.534197
0.53427
0.53427
0.534343
0.534416
0.53449
0.534563
0.534563
0.534636
0.534709
0.534783
0.534856
0.534856
0.53493
0.535003
0.535077
0.53515
0.53515
0.535224
0.535298
0.535371
0.535445
0.535445
0.535519
0.535593
0.535667
0.535741
0.535741
0.535815
0.535889
0.535963
0.536037
0.536037
0.536111
0.536185
0.53626
0.536334
0.536334
0.536408
0.536483
0.536557
0.536632
0.536632
0.536706
0.536781
0.536855
0.53693
0.53693
0.537005
0.537079
0.537154
0.537229
0.537229
0.537304
0.537379
0.537454
0.537529
0.537529
0.537604
0.537679
0.537754
0.537829
0.537829
0.537904
0.53798
0.538055
0.53813
0.53813
0.538206
0.538281
0.538356
0.538432
0.538432
0.538508
0.538583
0.538659
0.538735
0.538735
0.53881
0.538886
0.538962
0.539038
0.539038
0.539114
0.53919
0.539266
0.539342
0.539342
0.539418
0.539494
0.53957
0.539646
0.539646
0.539723
0.539799
0.539875
0.539952
0.539952
0.540028
0.540104
0.540181
0.540258
0.540258
0.540334
0.540411
0.540488
0.540564
0.540564
0.540641
0.540718
0.540795
0.540872
0.540872
0.540949
0.541026
0.541103
0.54118
0.54118
0.541257
0.541334
0.541411
0.541489
0.541489
0.541566
0.541643
0.541721
0.541798
0.541798
0.541876
0.541953
0.542031
0.542109
0.542109
0.542186
0.542264
0.542342
0.542419
0.542419
0.542497
0.542575
0.542653
0.542731
0.542731
0.542809
0.542887
0.542965
0.543044
0.543044
0.543122
0.5432
0.543278
0.543357
0.543357
0.543435
0.543513
0.543592
0.54367
0.54367
0.543749
0.543828
0.543906
0.543985
0.543985
0.544064
0.544143
0.544221
0.5443
0.5443
0.544379
0.544458
0.544537
0.544616
0.544616
0.544695
0.544774
0.544854
0.544933
0.544933
0.545012
0.545092
0.545171
0.54525
0.54525
0.54533
0.545409
0.545489
0.545568
0.545568
0.545648
0.545728
0.545807
0.545887
0.545887
0.545967
0.546047
0.546127
0.546207
0.546207
0.546287
0.546367
0.546447
0.546527
0.546527
0.546607
0.546687
0.546768
0.546848
0.546848
0.546928
0.547009
0.547089
0.54717
0.54717
0.54725
0.547331
0.547412
0.547492
0.547492
0.547573
0.547654
0.547734
0.547815
0.547815
0.547896
0.547977
0.548058
0.548139
0.548139
0.54822
0.548301
0.548383
0.548464
0.548464
0.548545
0.548626
0.548708
0.548789
0.548789
0.548871
0.548952
0.549034
0.549115
0.549115
0.549197
0.549279
0.54936
0.549442
0.549442
0.549524
0.549606
0.549688
0.54977
0.54977
0.549852
0.549934
0.550016
0.550098
0.550098
0.55018
0.550262
0.550344
0.550427
0.550427
0.550509
0.550592
0.550674
0.550756
0.550756
0.550839
0.550922
0.551004
0.551087
0.551087
0.55117
0.551252
0.551335
0.551418
0.551418
0.551501
0.551584
0.551667
0.55175
0.55175
0.551833
0.551916
0.551999
0.552083
0.552083
0.552166
0.552249
0.552333
0.552416
0.552416
0.5525
0.552583
0.552667
0.55275
0.55275
0.552834
0.552918
0.553001
0.553085
0.553085
0.553169
0.553253
0.553337
0.553421
0.553421
0.553505
0.553589
0.553673
0.553757
0.553757
0.553841
0.553925
0.55401
0.554094
0.554094
0.554178
0.554263
0.554347
0.554432
0.554432
0.554516
0.554601
0.554686
0.55477
0.55477
0.554855
0.55494
0.555025
0.55511
0.55511
0.555195
0.55528
0.555365
0.55545
0.55545
0.555535
0.55562
0.555705
0.555791
0.555791
0.555876
0.555961
0.556047
0.556132
0.556132
0.556218
0.556303
0.556389
0.556474
0.556474
0.55656
0.556646
0.556732
0.556818
0.556818
0.556903
0.556989
0.557075
0.557161
0.557161
0.557247
0.557334
0.55742
0.557506
0.557506
0.557592
0.557678
0.557765
0.557851
0.557851
0.557938
0.558024
0.558111
0.558197
0.558197
0.558284
0.558371
0.558457
0.558544
0.558544
0.558631
0.558718
0.558805
0.558891
0.558891
0.558978
0.559065
0.559152
0.559239
0.559239
0.559326
0.559412
0.559498
0.559583
0.559583
0.559668
0.559749
0.559825
0.559898
0.559898
0.55996
0.560007
0.560039
0.560057
0.560057
0.560077
0.560096
0.560114
0.560132
0.560132
0.56015
0.560169
0.560187
0.560205
0.560205
0.560223
0.560242
0.56026
0.560278
0.560278
0.560296
0.560315
0.560333
0.560351
0.560351
0.560369
0.560388
0.560406
0.560424
0.560424
0.560443
0.560461
0.56048
0.560498
0.560498
0.560516
0.560535
0.560553
0.560572
0.560572
0.56059
0.560609
0.560627
0.560646
0.560646
0.560664
0.560683
0.560701
0.56072
0.56072
0.560738
0.560757
0.560775
0.560794
0.560794
0.560812
0.560831
0.56085
0.560868
0.560868
0.560887
0.560905
0.560924
0.560943
0.560943
0.560961
0.56098
0.560999
0.561017
0.561017
0.561036
0.561055
0.561074
0.561092
0.561092
0.561111
0.56113
0.561149
0.561167
0.561167
0.561186
0.561205
0.561224
0.561243
0.561243
0.561261
0.56128
0.561299
0.561318
0.561318
0.561337
0.561356
0.561375
0.561393
0.561393
0.561412
0.561431
0.56145
0.561469
0.561469
0.561488
0.561507
0.561526
0.561545
0.561545
0.561564
0.561583
0.561602
0.561621
0.561621
0.56164
0.561659
0.561678
0.561697
0.561697
0.561716
0.561735
0.561754
0.561774
0.561774
0.561793
0.561812
0.561831
0.56185
0.56185
0.561869
0.561888
0.561907
0.561927
0.561927
0.561946
0.561965
0.561984
0.562003
0.562003
0.562023
0.562042
0.562061
0.56208
0.56208
0.5621
0.562119
0.562138
0.562157
0.562157
0.562177
0.562196
0.562215
0.562235
0.562235
0.562254
0.562273
0.562293
0.562312
0.562312
0.562331
0.562351
0.56237
0.56239
0.56239
0.562409
0.562428
0.562448
0.562467
0.562467
0.562487
0.562506
0.562526
0.562545
0.562545
0.562565
0.562584
0.562604
0.562623
0.562623
0.562643
0.562662
0.562682
0.562701
0.562701
0.562721
0.56274
0.56276
0.562779
0.562779
0.562799
0.562818
0.562838
0.562858
0.562858
0.562877
0.562897
0.562916
0.562936
0.562936
0.562956
0.562975
0.562995
0.563015
0.563015
0.563034
0.563054
0.563074
0.563093
0.563093
0.563113
0.563133
0.563153
0.563172
0.563172
0.563192
0.563212
0.563232
0.563251
0.563251
0.563271
0.563291
0.563311
0.56333
0.56333
0.56335
0.56337
0.56339
0.56341
0.56341
0.563429
0.563449
0.563469
0.563489
0.563489
0.563509
0.563529
0.563549
0.563568
0.563568
0.563588
0.563608
0.563628
0.563648
0.563648
0.563668
0.563688
0.563708
0.563728
0.563728
0.563748
0.563768
0.563788
0.563808
0.563808
0.563828
0.563848
0.563868
0.563888
0.563888
0.563908
0.563928
0.563948
0.563968
0.563968
0.563988
0.564008
0.564028
0.564048
0.564048
0.564068
0.564088
0.564108
0.564128
0.564128
0.564148
0.564168
0.564188
0.564208
0.564208
0.564228
0.564249
0.564269
0.564289
0.564289
0.564309
0.564329
0.564349
0.564369
0.564369
0.56439
0.56441
0.56443
0.56445
0.56445
0.56447
0.56449
0.564511
0.564531
0.564531
0.564551
0.564571
0.564592
0.564612
0.564612
0.564632
0.564652
0.564672
0.564693
0.564693
0.564713
0.564733
0.564754
0.564774
0.564774
0.564794
0.564814
0.564835
0.564855
0.564855
0.564875
0.564896
0.564916
0.564936
0.564936
0.564956
0.564977
0.564997
0.565018
0.565018
0.565038
0.565058
0.565079
0.565099
0.565099
0.565119
0.56514
0.56516
0.56518
0.56518
0.565201
0.565221
0.565242
0.565262
0.565262
0.565282
0.565303
0.565323
0.565344
0.565344
0.565364
0.565385
0.565405
0.565425
0.565425
0.565446
0.565466
0.565487
0.565507
0.565507
0.565528
0.565548
0.565569
0.565589
0.565589
0.56561
0.56563
0.565651
0.565671
0.565671
0.565692
0.565712
0.565733
0.565753
0.565753
0.565774
0.565794
0.565815
0.565835
0.565835
0.565856
0.565876
0.565897
0.565917
0.565917
0.565938
0.565959
0.565979
0.566
0.566
0.56602
0.566041
0.566061
0.566082
0.566082
0.566103
0.566123
0.566144
0.566164
0.566164
0.566185
0.566206
0.566226
0.566247
0.566247
0.566267
0.566288
0.566308
0.566329
0.566329
0.566349
0.566369
0.566388
0.566407
0.566407
0.566424
0.56644
0.566452
0.566462
0.566462
0.566467
0.56647
0.566472