<?xml version="1.0"?>
<VTKFile type="UnstructuredGrid" version="0.1" byte_order="LittleEndian">
<UnstructuredGrid>
<Piece NumberOfPoints="5000" NumberOfCells="4000">
<PointData Scalars="Reaction 0">
<DataArray type="Float32" Name="Reaction 0" format="ascii">
0.608034
0.608034
0.608034
0.608034
0.608034
0.608034
0.608034
0.608034
0.608035
0.608035
0.608035
0.608035
0.608035
0.608035
0.608035
0.608035
0.608035
0.608035
0.608035
0.608035
0.608035
0.608035
0.608035
0.608035
0.608036
0.608036
0.608036
0.608036
0.608036
0.608036
0.608036
0.608036
0.608036
0.608037
0.608037
0.608037
0.608037
0.608037
0.608037
0.608038
0.608038
0.608038
0.608038
0.608038
0.608038
0.608038
0.608039
0.608039
0.608039
0.608039
0.608039
0.60804
0.60804
0.60804
0.60804
0.60804
0.608041
0.608041
0.608041
0.608042
0.608042
0.608042
0.608042
0.608043
0.608043
0.608043
0.608043
0.608043
0.608044
0.608044
0.608044
0.608045
0.608045
0.608045
0.608046
0.608046
0.608046
0.608046
0.608047
0.608047
0.608047
0.608048
0.608048
0.608048
0.608049
0.608049
0.608049
0.60805
0.60805
0.608051
0.608051
0.608051
0.608052
0.608052
0.608052
0.608052
0.608053
0.608053
0.608054
0.608054
0.608054
0.608055
0.608055
0.608056
0.608056
0.608056
0.608057
0.608058
0.608058
0.608059
0.608059
0.608059
0.60806
0.60806
0.608061
0.608061
0.608061
0.608062
0.608063
0.608063
0.608063
0.608064
0.608064
0.608065
0.608066
0.608066
0.608066
0.608067
0.608068
0.608068
0.608068
0.608069
0.60807
0.60807
0.608071
0.608071
0.608072
0.608072
0.608073
0.608074
0.608074
0.608074
0.608075
0.608076
0.608077
0.608077
0.608077
0.608078
0.608079
0.608079
0.608079
0.60808
0.608081
0.608082
0.608083
0.608083
0.608083
0.608084
0.608085
0.608086
0.608086
0.608086
0.608087
0.608088
0.608089
0.608089
0.60809
0.608091
0.608091
0.608092
0.608092
0.608093
0.608094
0.608095
0.608096
0.608096
0.608097
0.608098
0.608098
0.608099
0.608099
0.6081
0.608101
0.608102
0.608103
0.608103
0.608104
0.608105
0.608106
0.608107
0.608107
0.608108
0.608109
0.60811
0.608111
0.608111
0.608112
0.608113
0.608114
0.608115
0.608115
0.608116
0.608117
0.608118
0.608119
0.608119
0.60812
0.608121
0.608122
0.608123
0.608123
0.608124
0.608125
0.608126
0.608127
0.608127
0.608128
0.608129
0.60813
0.608131
0.608131
0.608133
0.608134
0.608135
0.608136
0.608136
0.608137
0.608138
0.608139
0.60814
0.60814
0.608142
0.608143
0.608144
0.608145
0.608145
0.608146
0.608148
0.608149
0.60815
0.60815
0.608151
0.608152
0.608154
0.608155
0.608155
0.608156
0.608157
0.608158
0.60816
0.60816
0.608161
0.608162
0.608164
0.608165
0.608165
0.608166
0.608167
0.608169
0.60817
0.60817
0.608171
0.608173
0.608174
0.608175
0.608175
0.608177
0.608178
0.608179
0.608181
0.608181
0.608182
0.608183
0.608185
0.608186
0.608186
0.608187
0.608189
0.60819
0.608192
0.608192
0.608193
0.608195
0.608196
0.608197
0.608197
0.608199
0.6082
0.608202
0.608203
0.608203
0.608205
0.608206
0.608208
0.608209
0.608209
0.608211
0.608212
0.608214
0.608215
0.608215
0.608217
0.608218
0.60822
0.608221
0.608221
0.608223
0.608224
0.608226
0.608227
0.608227
0.608229
0.60823
0.608232
0.608234
0.608234
0.608235
0.608237
0.608238
0.60824
0.60824
0.608242
0.608243
0.608245
0.608246
0.608246
0.608248
0.60825
0.608251
0.608253
0.608253
0.608255
0.608256
0.608258
0.60826
0.60826
0.608261
0.608263
0.608265
0.608267
0.608267
0.608268
0.60827
0.608272
0.608273
0.608273
0.608275
0.608277
0.608279
0.60828
0.60828
0.608282
0.608284
0.608286
0.608288
0.608288
0.608289
0.608291
0.608293
0.608295
0.608295
0.608297
0.608298
0.6083
0.608302
0.608302
0.608304
0.608306
0.608308
0.608309
0.608309
0.608311
0.608313
0.608315
0.608317
0.608317
0.608319
0.608321
0.608323
0.608325
0.608325
0.608326
0.608328
0.60833
0.608332
0.608332
0.608334
0.608336
0.608338
0.60834
0.60834
0.608342
0.608344
0.608346
0.608348
0.608348
0.60835
0.608352
0.608354
0.608356
0.608356
0.608358
0.60836
0.608362
0.608364
0.608364
0.608366
0.608368
0.60837
0.608372
0.608372
0.608374
0.608376
0.608379
0.608381
0.608381
0.608383
0.608385
0.608387
0.608389
0.608389
0.608391
0.608393
0.608395
0.608398
0.608398
0.6084
0.608402
0.608404
0.608406
0.608406
0.608408
0.608411
0.608413
0.608415
0.608415
0.608417
0.608419
0.608422
0.608424
0.608424
0.608426
0.608428
0.60843
0.608433
0.608433
0.608435
0.608437
0.608439
0.608442
0.608442
0.608444
0.608446
0.608449
0.608451
0.608451
0.608453
0.608455
0.608458
0.60846
0.60846
0.608462
0.608465
0.608467
0.608469
0.608469
0.608472
0.608474
0.608477
0.608479
0.608479
0.608481
0.608484
0.608486
0.608488
0.608488
0.608491
0.608493
0.608496
0.608498
0.608498
0.608501
0.608503
0.608505
0.608508
0.608508
0.60851
0.608513
0.608515
0.608518
0.608518
0.60852
0.608523
0.608525
0.608528
0.608528
0.60853
0.608533
0.608535
0.608538
0.608538
0.60854
0.608543
0.608545
0.608548
0.608548
0.60855
0.608553
0.608556
0.608558
0.608558
0.608561
0.608563
0.608566
0.608569
0.608569
0.608571
0.608574
0.608576
0.608579
0.608579
0.608582
0.608584
0.608587
0.60859
0.60859
0.608592
0.608595
0.608598
0.6086
0.6086
0.608603
0.608606
0.608608
0.608611
0.608611
0.608614
0.608617
0.608619
0.608622
0.608622
0.608625
0.608627
0.60863
0.608633
0.608633
0.608636
0.608639
0.608641
0.608644
0.608644
0.608647
0.60865
0.608652
0.608655
0.608655
0.608658
0.608661
0.608664
0.608667
0.608667
0.608669
0.608672
0.608675
0.608678
0.608678
0.608681
0.608684
0.608687
0.60869
0.60869
0.608692
0.608695
0.608698
0.608701
0.608701
0.608704
0.608707
0.60871
0.608713
0.608713
0.608716
0.608719
0.608722
0.608725
0.608725
0.608728
0.608731
0.608734
0.608737
0.608737
0.60874
0.608743
0.608746
0.608749
0.608749
0.608752
0.608755
0.608758
0.608761
0.608761
0.608764
0.608767
0.60877
0.608773
0.608773
0.608776
0.608779
0.608782
0.608785
0.608785
0.608789
0.608792
0.608795
0.608798
0.608798
0.608801
0.608804
0.608807
0.60881
0.60881
0.608814
0.608817
0.60882
0.608823
0.608823
0.608826
0.608829
0.608833
0.608836
0.608836
0.608839
0.608842
0.608846
0.608849
0.608849
0.608852
0.608855
0.608858
0.608862
0.608862
0.608865
0.608868
0.608872
0.608875
0.608875
0.608878
0.608881
0.608885
0.608888
0.608888
0.608891
0.608895
0.608898
0.608901
0.608901
0.608905
0.608908
0.608911
0.608915
0.608915
0.608918
0.608921
0.608925
0.608928
0.608928
0.608932
0.608935
0.608938
0.608942
0.608942
0.608945
0.608949
0.608952
0.608956
0.608956
0.608959
0.608962
0.608966
0.608969
0.608969
0.608973
0.608976
0.60898
0.608983
0.608983
0.608987
0.60899
0.608994
0.608997
0.608997
0.609001
0.609004
0.609008
0.609011
0.609011
0.609015
0.609019
0.609022
0.609026
0.609026
0.609029
0.609033
0.609036
0.60904
0.60904
0.609044
0.609047
0.609051
0.609055
0.609055
0.609058
0.609062
0.609065
0.609069
0.609069
0.609073
0.609076
0.60908
0.609084
0.609084
0.609087
0.609091
0.609095
0.609099
0.609099
0.609102
0.609106
0.60911
0.609113
0.609113
0.609117
0.609121
0.609125
0.609128
0.609128
0.609132
0.609136
0.60914
0.609143
0.609143
0.609147
0.609151
0.609155
0.609159
0.609159
0.609162
0.609166
0.60917
0.609174
0.609174
0.609178
0.609182
0.609186
0.609189
0.609189
0.609193
0.609197
0.609201
0.609205
0.609205
0.609209
0.609213
0.609217
0.609221
0.609221
0.609224
0.609228
0.609232
0.609236
0.609236
0.60924
0.609244
0.609248
0.609252
0.609252
0.609256
0.60926
0.609264
0.609268
0.609268
0.609272
0.609276
0.60928
0.609284
0.609284
0.609288
0.609292
0.609296
0.6093
0.6093
0.609304
0.609308
0.609313
0.609317
0.609317
0.609321
0.609325
0.609329
0.609333
0.609333
0.609337
0.609341
0.609345
0.609349
0.609349
0.609354
0.609358
0.609362
0.609366
0.609366
0.60937
0.609374
0.609379
0.609383
0.609383
0.609387
0.609391
0.609395
0.6094
0.6094
0.609404
0.609408
0.609412
0.609417
0.609417
0.609421
0.609425
0.609429
0.609434
0.609434
0.609438
0.609442
0.609446
0.609451
0.609451
0.609455
0.609459
0.609464
0.609468
0.609468
0.609472
0.609477
0.609481
0.609485
0.609485
0.60949
0.609494
0.609498
0.609503
0.609503
0.609507
0.609512
0.609516
0.60952
0.60952
0.609525
0.609529
0.609534
0.609538
0.609538
0.609542
0.609547
0.609551
0.609556
0.609556
0.60956
0.609565
0.609569
0.609574
0.609574
0.609578
0.609583
0.609587
0.609592
0.609592
0.609596
0.609601
0.609605
0.60961
0.60961
0.609614
0.609619
0.609624
0.609628
0.609628
0.609633
0.609637
0.609642
0.609646
0.609646
0.609651
0.609656
0.60966
0.609665
0.609665
0.609669
0.609674
0.609679
0.609683
0.609683
0.609688
0.609693
0.609697
0.609702
0.609702
0.609707
0.609711
0.609716
0.609721
0.609721
0.609726
0.60973
0.609735
0.60974
0.60974
0.609745
0.609749
0.609754
0.609759
0.609759
0.609764
0.609768
0.609773
0.609778
0.609778
0.609783
0.609787
0.609792
0.609797
0.609797
0.609802
0.609807
0.609812
0.609816
0.609816
0.609821
0.609826
0.609831
0.609836
0.609836
0.609841
0.609846
0.60985
0.609855
0.609855
0.60986
0.609865
0.60987
0.609875
0.609875
0.60988
0.609885
0.60989
0.609895
0.609895
0.609899
0.609904
0.609909
0.609914
0.609914
0.609919
0.609924
0.609929
0.609934
0.609934
0.609939
0.609944
0.609949
0.609954
0.609954
0.60996
0.609965
0.60997
0.609975
0.609975
0.60998
0.609985
0.60999
0.609995
0.609995
0.61
0.610006
0.610011
0.610016
0.610016
0.610021
0.610026
0.610031
0.610036
0.610036
0.610042
0.610047
0.610052
0.610057
0.610057
0.610062
0.610067
0.610073
0.610078
0.610078
0.610083
0.610088
0.610093
0.610099
0.610099
0.610104
0.610109
0.610114
0.61012
0.61012
0.610125
0.61013
0.610136
0.610141
0.610141
0.610146
0.610151
0.610157
0.610162
0.610162
0.610167
0.610173
0.610178
0.610183
0.610183
0.610189
0.610194
0.6102
0.610205
0.610205
0.61021
0.610216
0.610221
0.610226
0.610226
0.610232
0.610237
0.610243
0.610248
0.610248
0.610254
0.610259
0.610264
0.61027
0.61027
0.610275
0.610281
0.610286
0.610292
0.610292
0.610297
0.610303
0.610308
0.610314
0.610314
0.610319
0.610325
0.61033
0.610336
0.610336
0.610342
0.610347
0.610353
0.610358
0.610358
0.610364
0.610369
0.610375
0.610381
0.610381
0.610386
0.610392
0.610397
0.610403
0.610403
0.610409
0.610414
0.61042
0.610426
0.610426
0.610431
0.610437
0.610443
0.610448
0.610448
0.610454
0.61046
0.610465
0.610471
0.610471
0.610477
0.610483
0.610488
0.610494
0.610494
0.6105
0.610506
0.610511
0.610517
0.610517
0.610523
0.610529
0.610535
0.61054
0.61054
0.610546
0.610552
0.610558
0.610564
0.610564
0.610569
0.610575
0.610581
0.610587
0.610587
0.610593
0.610599
0.610605
0.610611
0.610611
0.610616
0.610622
0.610628
0.610634
0.610634
0.61064
0.610646
0.610652
0.610658
0.610658
0.610664
0.61067
0.610676
0.610682
0.610682
0.610688
0.610694
0.6107
0.610706
0.610706
0.610712
0.610718
0.610724
0.61073
0.61073
0.610736
0.610742
0.610748
0.610754
0.610754
0.61076
0.610766
0.610772
0.610778
0.610778
0.610784
0.610791
0.610797
0.610803
0.610803
0.610809
0.610815
0.610821
0.610827
0.610827
0.610833
0.61084
0.610846
0.610852
0.610852
0.610858
0.610864
0.610871
0.610877
0.610877
0.610883
0.610889
0.610895
0.610902
0.610902
0.610908
0.610914
0.61092
0.610927
0.610927
0.610933
0.610939
0.610946
0.610952
0.610952
0.610958
0.610964
0.610971
0.610977
0.610977
0.610983
0.61099
0.610996
0.611002
0.611002
0.611009
0.611015
0.611022
0.611028
0.611028
0.611034
0.611041
0.611047
0.611054
0.611054
0.61106
0.611066
0.611073
0.611079
0.611079
0.611086
0.611092
0.611099
0.611105
0.611105
0.611112
0.611118
0.611125
0.611131
0.611131
0.611138
0.611144
0.611151
0.611157
0.611157
0.611164
0.61117
0.611177
0.611183
0.611183
0.61119
0.611197
0.611203
0.61121
0.61121
0.611216
0.611223
0.61123
0.611236
0.611236
0.611243
0.611249
0.611256
0.611263
0.611263
0.611269
0.611276
0.611283
0.611289
0.611289
0.611296
0.611303
0.611309
0.611316
0.611316
0.611323
0.61133
0.611336
0.611343
0.611343
0.61135
0.611357
0.611363
0.61137
0.61137
0.611377
0.611384
0.61139
0.611397
0.611397
0.611404
0.611411
0.611418
0.611425
0.611425
0.611431
0.611438
0.611445
0.611452
0.611452
0.611459
0.611466
0.611473
0.611479
0.611479
0.611486
0.611493
0.6115
0.611507
0.611507
0.611514
0.611521
0.611528
0.611535
0.611535
0.611542
0.611549
0.611556
0.611563
0.611563
0.61157
0.611577
0.611584
0.611591
0.611591
0.611598
0.611605
0.611612
0.611619
0.611619
0.611626
0.611633
0.61164
0.611647
0.611647
0.611654
0.611661
0.611668
0.611675
0.611675
0.611683
0.61169
0.611697
0.611704
0.611704
0.611711
0.611718
0.611725
0.611733
0.611733
0.61174
0.611747
0.611754
0.611761
0.611761
0.611768
0.611776
0.611783
0.61179
0.61179
0.611797
0.611805
0.611812
0.611819
0.611819
0.611826
0.611834
0.611841
0.611848
0.611848
0.611855
0.611863
0.61187
0.611877
0.611877
0.611885
0.611892
0.611899
0.611907
0.611907
0.611914
0.611921
0.611929
0.611936
0.611936
0.611944
0.611951
0.611958
0.611966
0.611966
0.611973
0.611981
0.611988
0.611995
0.611995
0.612003
0.61201
0.612018
0.612025
0.612025
0.612033
0.61204
0.612048
0.612055
0.612055
0.612063
0.61207
0.612078
0.612085
0.612085
0.612093
0.6121
0.612108
0.612116
0.612116
0.612123
0.612131
0.612138
0.612146
0.612146
0.612153
0.612161
0.612169
0.612176
0.612176
0.612184
0.612192
0.612199
0.612207
0.612207
0.612215
0.612222
0.61223
0.612238
0.612238
0.612245
0.612253
0.612261
0.612268
0.612268
0.612276
0.612284
0.612292
0.612299
0.612299
0.612307
0.612315
0.612323
0.61233
0.61233
0.612338
0.612346
0.612354
0.612362
0.612362
0.61237
0.612377
0.612385
0.612393
0.612393
0.612401
0.612409
0.612417
0.612424
0.612424
0.612432
0.61244
0.612448
0.612456
0.612456
0.612464
0.612472
0.61248
0.612488
0.612488
0.612496
0.612504
0.612512
0.61252
0.61252
0.612528
0.612536
0.612544
0.612552
0.612552
0.61256
0.612568
0.612576
0.612584
0.612584
0.612592
0.6126
0.612608
0.612616
0.612616
0.612624
0.612632
0.61264
0.612648
0.612648
0.612656
0.612664
0.612673
0.612681
0.612681
0.612689
0.612697
0.612705
0.612713
0.612713
0.612721
0.61273
0.612738
0.612746
0.612746
0.612754
0.612762
0.612771
0.612779
0.612779
0.612787
0.612795
0.612804
0.612812
0.612812
0.61282
0.612828
0.612837
0.612845
0.612845
0.612853
0.612862
0.61287
0.612878
0.612878
0.612887
0.612895
0.612903
0.612912
0.612912
0.61292
0.612928
0.612937
0.612945
0.612945
0.612953
0.612962
0.61297
0.612979
0.612979
0.612987
0.612996
0.613004
0.613012
0.613012
0.613021
0.613029
0.613038
0.613046
0.613046
0.613055
0.613063
0.613072
0.61308
0.61308
0.613089
0.613097
0.613106
0.613114
0.613114
0.613123
0.613132
0.61314
0.613149
0.613149
0.613157
0.613166
0.613175
0.613183
0.613183
0.613192
0.6132
0.613209
0.613218
0.613218
0.613226
0.613235
0.613244
0.613252
0.613252
0.613261
0.61327
0.613278
0.613287
0.613287
0.613296
0.613305
0.613313
0.613322
0.613322
0.613331
0.61334
0.613348
0.613357
0.613357
0.613366
0.613375
0.613384
0.613392
0.613392
0.613401
0.61341
0.613419
0.613428
0.613428
0.613436
0.613445
0.613454
0.613463
0.613463
0.613472
0.613481
0.61349
0.613499
0.613499
0.613508
0.613517
0.613525
0.613534
0.613534
0.613543
0.613552
0.613561
0.61357
0.61357
0.613579
0.613588
0.613597
0.613606
0.613606
0.613615
0.613624
0.613633
0.613642
0.613642
0.613651
0.61366
0.61367
0.613679
0.613679
0.613688
0.613697
0.613706
0.613715
0.613715
0.613724
0.613733
0.613742
0.613751
0.613751
0.613761
0.61377
0.613779
0.613788
0.613788
0.613797
0.613807
0.613816
0.613825
0.613825
0.613834
0.613843
0.613853
0.613862
0.613862
0.613871
0.61388
0.61389
0.613899
0.613899
0.613908
0.613917
0.613927
0.613936
0.613936
0.613945
0.613955
0.613964
0.613973
0.613973
0.613983
0.613992
0.614001
0.614011
0.614011
0.61402
0.61403
0.614039
0.614048
0.614048
0.614058
0.614067
0.614077
0.614086
0.614086
0.614096
0.614105
0.614115
0.614124
0.614124
0.614134
0.614143
0.614153
0.614162
0.614162
0.614172
0.614181
0.614191
0.6142
0.6142
0.61421
0.614219
0.614229
0.614238
0.614238
0.614248
0.614258
0.614267
0.614277
0.614277
0.614287
0.614296
0.614306
0.614315
0.614315
0.614325
0.614335
0.614344
0.614354
0.614354
0.614364
0.614374
0.614383
0.614393
0.614393
0.614403
0.614412
0.614422
0.614432
0.614432
0.614442
0.614451
0.614461
0.614471
0.614471
0.614481
0.614491
0.6145
0.61451
0.61451
0.61452
0.61453
0.61454
0.61455
0.61455
0.614559
0.614569
0.614579
0.614589
0.614589
0.614599
0.614609
0.614619
0.614629
0.614629
0.614639
0.614649
0.614659
0.614669
0.614669
0.614679
0.614689
0.614699
0.614708
0.614708
0.614719
0.614729
0.614739
0.614749
0.614749
0.614759
0.614769
0.614779
0.614789
0.614789
0.614799
0.614809
0.614819
0.614829
0.614829
0.614839
0.614849
0.614859
0.61487
0.61487
0.61488
0.61489
0.6149
0.61491
0.61491
0.61492
0.614931
0.614941
0.614951
0.614951
0.614961
0.614971
0.614982
0.614992
0.614992
0.615002
0.615012
0.615023
0.615033
0.615033
0.615043
0.615054
0.615064
0.615074
0.615074
0.615084
0.615095
0.615105
0.615115
0.615115
0.615126
0.615136
0.615147
0.615157
0.615157
0.615167
0.615178
0.615188
0.615199
0.615199
0.615209
0.615219
0.61523
0.61524
0.61524
0.615251
0.615261
0.615272
0.615282
0.615282
0.615292
0.615303
0.615313
0.615324
0.615324
0.615334
0.615344
0.615355
0.615365
0.615365
0.615376
0.615386
0.615397
0.615408
0.615408
0.615419
0.615429
0.61544
0.615451
0.615451
0.615462
0.615472
0.615483
0.615494
0.615494
0.615504
0.615515
0.615526
0.615537
0.615537
0.615547
0.615558
0.615569
0.61558
0.61558
0.61559
0.615601
0.615612
0.615623
0.615623
0.615633
0.615644
0.615655
0.615666
0.615666
0.615677
0.615687
0.615698
0.615709
0.615709
0.61572
0.615731
0.615742
0.615753
0.615753
0.615764
0.615774
0.615785
0.615796
0.615796
0.615807
0.615818
0.615829
0.61584
0.61584
0.615851
0.615862
0.615873
0.615884
0.615884
0.615895
0.615906
0.615917
0.615928
0.615928
0.615939
0.61595
0.615961
0.615972
0.615972
0.615983
0.615994
0.616006
0.616017
0.616017
0.616028
0.616039
0.61605
0.616061
0.616061
0.616072
0.616083
0.616095
0.616106
0.616106
0.616117
0.616128
0.616139
0.616151
0.616151
0.616162
0.616173
0.616184
0.616196
0.616196
0.616207
0.616218
0.616229
0.616241
0.616241
0.616252
0.616263
0.616275
0.616286
0.616286
0.616297
0.616309
0.61632
0.616331
0.616331
0.616343
0.616354
0.616365
0.616377
0.616377
0.616388
0.6164
0.616411
0.616423
0.616423
0.616434
0.616445
0.616457
0.616468
0.616468
0.61648
0.616491
0.616503
0.616514
0.616514
0.616526
0.616537
0.616549
0.616561
0.616561
0.616572
0.616584
0.616595
0.616607
0.616607
0.616618
0.61663
0.616642
0.616653
0.616653
0.616665
0.616677
0.616688
0.6167
0.6167
0.616712
0.616723
0.616735
0.616747
0.616747
0.616758
0.61677
0.616782
0.616794
0.616794
0.616805
0.616817
0.616829
0.616841
0.616841
0.616852
0.616864
0.616876
0.616888
0.616888
0.6169
0.616911
0.616923
0.616935
0.616935
0.616947
0.616959
0.616971
0.616983
0.616983
0.616995
0.617006
0.617018
0.61703
0.61703
0.617042
0.617054
0.617066
0.617078
0.617078
0.61709
0.617102
0.617114
0.617126
0.617126
0.617138
0.61715
0.617162
0.617174
0.617174
0.617186
0.617198
0.61721
0.617223
0.617223
0.617235
0.617247
0.617259
0.617271
0.617271
0.617283
0.617295
0.617307
0.61732
0.61732
0.617332
0.617344
0.617356
0.617368
0.617368
0.61738
0.617393
0.617405
0.617417
0.617417
0.617429
0.617442
0.617454
0.617466
0.617466
0.617478
0.617491
0.617503
0.617515
0.617515
0.617528
0.61754
0.617552
0.617565
0.617565
0.617577
0.617589
0.617602
0.617614
0.617614
0.617627
0.617639
0.617651
0.617664
0.617664
0.617676
0.617689
0.617701
0.617714
0.617714
0.617726
0.617739
0.617751
0.617764
0.617764
0.617776
0.617789
0.617801
0.617814
0.617814
0.617826
0.617839
0.617852
0.617864
0.617864
0.617877
0.617889
0.617902
0.617915
0.617915
0.617927
0.61794
0.617953
0.617965
0.617965
0.617978
0.617991
0.618003
0.618016
0.618016
0.618029
0.618041
0.618054
0.618067
0.618067
0.61808
0.618092
0.618105
0.618118
0.618118
0.618131
0.618144
0.618156
0.618169
0.618169
0.618182
0.618195
0.618208
0.618221
0.618221
0.618234
0.618246
0.618259
0.618272
0.618272
0.618285
0.618298
0.618311
0.618324
0.618324
0.618337
0.61835
0.618363
0.618376
0.618376
0.618389
0.618402
0.618415
0.618428
0.618428
0.618441
0.618454
0.618467
0.61848
0.61848
0.618493
0.618506
0.618519
0.618532
0.618532
0.618546
0.618559
0.618572
0.618585
0.618585
0.618598
0.618611
0.618625
0.618638
0.618638
0.618651
0.618664
0.618677
0.618691
0.618691
0.618704
0.618717
0.61873
0.618744
0.618744
0.618757
0.61877
0.618783
0.618797
0.618797
0.61881
0.618823
0.618837
0.61885
0.61885
0.618863
0.618877
0.61889
0.618904
0.618904
0.618917
0.61893
0.618944
0.618957
0.618957
0.618971
0.618984
0.618998
0.619011
0.619011
0.619025
0.619038
0.619052
0.619065
0.619065
0.619079
0.619092
0.619106
0.619119
0.619119
0.619133
0.619146
0.61916
0.619174
0.619174
0.619187
0.619201
0.619214
0.619228
0.619228
0.619242
0.619255
0.619269
0.619283
0.619283
0.619296
0.61931
0.619324
0.619338
0.619338
0.619351
0.619365
0.619379
0.619393
0.619393
0.619406
0.61942
0.619434
0.619448
0.619448
0.619462
0.619475
0.619489
0.619503
0.619503
0.619517
0.619531
0.619545
0.619559
0.619559
0.619572
0.619586
0.6196
0.619614
0.619614
0.619628
0.619642
0.619656
0.61967
0.61967
0.619684
0.619698
0.619712
0.619726
0.619726
0.61974
0.619754
0.619768
0.619782
0.619782
0.619796
0.61981
0.619824
0.619839
0.619839
0.619853
0.619867
0.619881
0.619895
0.619895
0.619909
0.619923
0.619938
0.619952
0.619952
0.619966
0.61998
0.619994
0.620009
0.620009
0.620023
0.620037
0.620051
0.620066
0.620066
0.62008
0.620094
0.620108
0.620123
0.620123
0.620137
0.620151
0.620166
0.62018
0.62018
0.620194
0.620209
0.620223
0.620238
0.620238
0.620252
0.620266
0.620281
0.620295
0.620295
0.62031
0.620324
0.620339
0.620353
0.620353
0.620368
0.620382
0.620397
0.620411
0.620411
0.620426
0.62044
0.620455
0.620469
0.620469
0.620484
0.620499
0.620513
0.620528
0.620528
0.620542
0.620557
0.620572
0.620586
0.620586
0.620601
0.620616
0.62063
0.620645
0.620645
0.62066
0.620674
0.620689
0.620704
0.620704
0.620719
0.620733
0.620748
0.620763
0.620763
0.620778
0.620793
0.620807
0.620822
0.620822
0.620837
0.620852
0.620867
0.620882
0.620882
0.620897
0.620911
0.620926
0.620941
0.620941
0.620956
0.620971
0.620986
0.621001
0.621001
0.621016
0.621031
0.621046
0.621061
0.621061
0.621076
0.621091
0.621106
0.621121
0.621121
0.621136
0.621151
0.621166
0.621181
0.621181
0.621196
0.621212
0.621227
0.621242
0.621242
0.621257
0.621272
0.621287
0.621302
0.621302
0.621317
0.621333
0.621348
0.621363
0.621363
0.621378
0.621393
0.621408
0.621423
0.621423
0.621438
0.621454
0.621469
0.621484
0.621484
0.621499
0.621515
0.62153
0.621546
0.621546
0.621561
0.621577
0.621592
0.621608
0.621608
0.621623
0.621639
0.621654
0.62167
0.62167
0.621685
0.621701
0.621716
0.621732
0.621732
0.621748
0.621763
0.621779
0.621794
0.621794
0.62181
0.621825
0.621841
0.621856
0.621856
0.621872
0.621888
0.621903
0.621919
0.621919
0.621934
0.62195
0.621966
0.621981
0.621981
0.621997
0.622013
0.622029
0.622044
0.622044
0.62206
0.622076
0.622091
0.622107
0.622107
0.622123
0.622139
0.622155
0.62217
0.62217
0.622186
0.622202
0.622218
0.622234
0.622234
0.62225
0.622266
0.622281
0.622297
0.622297
0.622313
0.622329
0.622345
0.622361
0.622361
0.622377
0.622393
0.622409
0.622425
0.622425
0.622441
0.622457
0.622473
0.622489
0.622489
0.622505
0.622521
0.622537
0.622553
0.622553
0.622569
0.622585
0.622602
0.622618
0.622618
0.622634
0.62265
0.622666
0.622682
0.622682
0.622699
0.622715
0.622731
0.622747
0.622747
0.622763
0.62278
0.622796
0.622812
0.622812
0.622828
0.622845
0.622861
0.622877
0.622877
0.622894
0.62291
0.622926
0.622943
0.622943
0.622959
0.622975
0.622992
0.623008
0.623008
0.623025
0.623041
0.623058
0.623074
0.623074
0.62309
0.623107
0.623123
0.62314
0.62314
0.623156
0.623173
0.623189
0.623206
0.623206
0.623223
0.623239
0.623256
0.623272
0.623272
0.623289
0.623306
0.623322
0.623339
0.623339
0.623355
0.623372
0.623389
0.623406
0.623406
0.623422
0.623439
0.623456
0.623472
0.623472
0.623489
0.623506
0.623523
0.623539
0.623539
0.623556
0.623573
0.62359
0.623607
0.623607
0.623624
0.62364
0.623657
0.623674
0.623674
0.623691
0.623708
0.623725
0.623742
0.623742
0.623759
0.623776
0.623793
0.62381
0.62381
0.623827
0.623844
0.623861
0.623878
0.623878
0.623895
0.623912
0.623929
0.623946
0.623946
0.623963
0.62398
0.623997
0.624014
0.624014
0.624031
0.624048
0.624066
0.624083
0.624083
0.6241
0.624117
0.624134
0.624152
0.624152
0.624169
0.624186
0.624203
0.624221
0.624221
0.624238
0.624255
0.624272
0.62429
0.62429
0.624307
0.624324
0.624342
0.624359
0.624359
0.624376
0.624394
0.624411
0.624429
0.624429
0.624446
0.624463
0.624481
0.624498
0.624498
0.624516
0.624533
0.624551
0.624568
0.624568
0.624586
0.624603
0.624621
0.624638
0.624638
0.624656
0.624674
0.624691
0.624709
0.624709
0.624726
0.624744
0.624762
0.624779
0.624779
0.624797
0.624815
0.624832
0.62485
0.62485
0.624868
0.624886
0.624903
0.624921
0.624921
0.624939
0.624957
0.624974
0.624992
0.624992
0.62501
0.625028
0.625046
0.625063
0.625063
0.625081
0.625099
0.625117
0.625135
0.625135
0.625153
0.625171
0.625189
0.625207
0.625207
0.625225
0.625243
0.625261
0.625279
0.625279
0.625297
0.625315
0.625333
0.625351
0.625351
0.625369
0.625387
0.625405
0.625423
0.625423
0.625441
0.625459
0.625477
0.625496
0.625496
0.625514
0.625532
0.62555
0.625568
0.625568
0.625586
0.625605
0.625623
0.625641
0.625641
0.625659
0.625678
0.625696
0.625714
0.625714
0.625733
0.625751
0.625769
0.625788
0.625788
0.625806
0.625824
0.625843
0.625861
0.625861
0.62588
0.625898
0.625916
0.625935
0.625935
0.625953
0.625972
0.62599
0.626009
0.626009
0.626027
0.626046
0.626064
0.626083
0.626083
0.626101
0.62612
0.626139
0.626157
0.626157
0.626176
0.626194
0.626213
0.626232
0.626232
0.62625
0.626269
0.626288
0.626306
0.626306
0.626325
0.626344
0.626363
0.626381
0.626381
0.6264
0.626419
0.626438
0.626457
0.626457
0.626475
0.626494
0.626513
0.626532
0.626532
0.626551
0.62657
0.626589
0.626607
0.626607
0.626626
0.626645
0.626664
0.626683
0.626683
0.626702
0.626721
0.62674
0.626759
0.626759
0.626778
0.626797
0.626816
0.626835
0.626835
0.626854
0.626874
0.626893
0.626912
0.626912
0.626931
0.62695
0.626969
0.626988
0.626988
0.627008
0.627027
0.627046
0.627065
0.627065
0.627084
0.627104
0.627123
0.627142
0.627142
0.627161
0.627181
0.6272
0.627219
0.627219
0.627239
0.627258
0.627277
0.627297
0.627297
0.627316
0.627336
0.627355
0.627374
0.627374
0.627394
0.627413
0.627433
0.627452
0.627452
0.627472
0.627491
0.627511
0.62753
0.62753
0.62755
0.627569
0.627589
0.627609
0.627609
0.627628
0.627648
0.627667
0.627687
0.627687
0.627707
0.627726
0.627746
0.627766
0.627766
0.627786
0.627805
0.627825
0.627845
0.627845
0.627864
0.627884
0.627904
0.627924
0.627924
0.627944
0.627963
0.627983
0.628003
0.628003
0.628023
0.628043
0.628062
0.628082
0.628082
0.628102
0.628122
0.628141
0.628161
0.628161
0.628181
0.628201
0.628221
0.628241
0.628241
0.628261
0.628281
0.628301
0.628321
0.628321
0.628341
0.628362
0.628382
0.628402
0.628402
0.628423
0.628443
0.628463
0.628483
0.628483
0.628504
0.628524
0.628544
0.628564
0.628564
0.628585
0.628605
0.628625
0.628645
0.628645
0.628666
0.628686
0.628706
0.628727
0.628727
0.628747
0.628768
0.628788
0.628808
0.628808
0.628829
0.628849
0.62887
0.62889
0.62889
0.62891
0.628931
0.628951
0.628972
0.628972
0.628992
0.629013
0.629034
0.629054
0.629054
0.629075
0.629095
0.629116
0.629136
0.629136
0.629157
0.629178
0.629198
0.629219
0.629219
0.62924
0.62926
0.629281
0.629302
0.629302
0.629323
0.629343
0.629364
0.629385
0.629385
0.629406
0.629426
0.629447
0.629468
0.629468
0.629489
0.62951
0.629531
0.629552
0.629552
0.629572
0.629593
0.629614
0.629635
0.629635
0.629656
0.629677
0.629698
0.629719
0.629719
0.62974
0.629761
0.629782
0.629803
0.629803
0.629824
0.629845
0.629867
0.629888
0.629888
0.629909
0.62993
0.629951
0.629972
0.629972
0.629993
0.630015
0.630036
0.630057
0.630057
0.630078
0.630099
0.630121
0.630142
0.630142
0.630163
0.630185
0.630206
0.630227
0.630227
0.630249
0.63027
0.630291
0.630313
0.630313
0.630334
0.630356
0.630377
0.630398
0.630398
0.63042
0.630441
0.630463
0.630484
0.630484
0.630506
0.630527
0.630549
0.630571
0.630571
0.630592
0.630614
0.630635
0.630657
0.630657
0.630679
0.6307
0.630722
0.630744
0.630744
0.630765
0.630787
0.630809
0.63083
0.63083
0.630852
0.630874
0.630896
0.630917
0.630917
0.630939
0.630961
0.630983
0.631005
0.631005
0.631027
0.631048
0.63107
0.631092
0.631092
0.631114
0.631136
0.631158
0.63118
0.63118
0.631202
0.631224
0.631246
0.631268
0.631268
0.63129
0.631312
0.631334
0.631356
0.631356
0.631378
0.6314
0.631422
0.631445
0.631445
0.631467
0.631489
0.631511
0.631533
0.631533
0.631555
0.631578
0.6316
0.631622
0.631622
0.631644
0.631667
0.631689
0.631711
0.631711
0.631734
0.631756
0.631778
0.631801
0.631801
0.631823
0.631845
0.631868
0.63189
0.63189
0.631913
0.631935
0.631958
0.63198
0.63198
0.632003
0.632025
0.632048
0.63207
0.63207
0.632093
0.632115
0.632138
0.632161
0.632161
0.632183
0.632206
0.632228
0.632251
0.632251
0.632274
0.632296
0.632319
0.632342
0.632342
0.632365
0.632387
0.63241
0.632433
0.632433
0.632456
0.632478
0.632501
0.632524
0.632524
0.632547
0.63257
0.632593
0.632616
0.632616
0.632639
0.632661
0.632684
0.632707
0.632707
0.63273
0.632753
0.632776
0.632799
0.632799
0.632822
0.632845
0.632868
0.632891
0.632891
0.632915
0.632938
0.632961
0.632984
0.632984
0.633007
0.63303
0.633053
0.633077
0.633077
0.6331
0.633123
0.633146
0.63317
0.63317
0.633193
0.633216
0.633239
0.633263
0.633263
0.633286
0.633309
0.633333
0.633356
0.633356
0.633379
0.633403
0.633426
0.63345
0.63345
0.633473
0.633497
0.63352
0.633544
0.633544
0.633567
0.633591
0.633614
0.633638
0.633638
0.633661
0.633685
0.633708
0.633732
0.633732
0.633756
0.633779
0.633803
0.633827
0.633827
0.63385
0.633874
0.633898
0.633922
0.633922
0.633945
0.633969
0.633993
0.634017
0.634017
0.63404
0.634064
0.634088
0.634112
0.634112
0.634136
0.63416
0.634184
0.634208
0.634208
0.634231
0.634255
0.634279
0.634303
0.634303
0.634327
0.634351
0.634375
0.634399
0.634399
0.634424
0.634448
0.634472
0.634496
0.634496
0.63452
0.634544
0.634568
0.634592
0.634592
0.634617
0.634641
0.634665
0.634689
0.634689
0.634713
0.634738
0.634762
0.634786
0.634786
0.634811
0.634835
0.634859
0.634884
0.634884
0.634908
0.634932
0.634957
0.634981
0.634981
0.635005
0.63503
0.635054
0.635079
0.635079
0.635103
0.635128
0.635152
0.635177
0.635177
0.635201
0.635226
0.63525
0.635275
0.635275
0.6353
0.635324
0.635349
0.635373
0.635373
0.635398
0.635422
0.635447
0.635472
0.635472
0.635496
0.635521
0.635545
0.63557
0.63557
0.635594
0.635619
0.635644
0.635669
0.635669
0.635694
0.635719
0.635744
0.635769
0.635769