<?xml version="1.0"?>
<VTKFile type="UnstructuredGrid" version="0.1" byte_order="LittleEndian">
<UnstructuredGrid>
<Piece NumberOfPoints="5000" NumberOfCells="4000">
<PointData Scalars="Reaction 0">
<DataArray type="Float32" Name="Reaction 0" format="ascii">
0.486115
0.486115
0.486115
0.486115
0.486115
0.486115
0.486115
0.486116
0.486116
0.486116
0.486116
0.486116
0.486117
0.486117
0.486118
0.486118
0.486118
0.486119
0.486119
0.48612
0.48612
0.48612
0.486121
0.486122
0.486122
0.486122
0.486123
0.486124
0.486125
0.486125
0.486125
0.486126
0.486127
0.486128
0.486129
0.486129
0.48613
0.486131
0.486132
0.486134
0.486134
0.486135
0.486136
0.486137
0.486139
0.486139
0.48614
0.486141
0.486143
0.486144
0.486144
0.486146
0.486147
0.486149
0.48615
0.48615
0.486152
0.486154
0.486155
0.486157
0.486157
0.486159
0.486161
0.486162
0.486164
0.486164
0.486166
0.486168
0.48617
0.486172
0.486172
0.486174
0.486176
0.486178
0.486181
0.486181
0.486183
0.486185
0.486187
0.48619
0.48619
0.486192
0.486194
0.486197
0.486199
0.486199
0.486202
0.486204
0.486207
0.486209
0.486209
0.486212
0.486215
0.486218
0.48622
0.48622
0.486223
0.486226
0.486229
0.486232
0.486232
0.486235
0.486238
0.486241
0.486244
0.486244
0.486247
0.48625
0.486253
0.486256
0.486256
0.486259
0.486263
0.486266
0.486269
0.486269
0.486273
0.486276
0.48628
0.486283
0.486283
0.486287
0.48629
0.486294
0.486297
0.486297
0.486301
0.486305
0.486308
0.486312
0.486312
0.486316
0.48632
0.486324
0.486328
0.486328
0.486332
0.486336
0.48634
0.486344
0.486344
0.486348
0.486352
0.486356
0.48636
0.48636
0.486365
0.486369
0.486373
0.486378
0.486378
0.486382
0.486386
0.486391
0.486395
0.486395
0.4864
0.486405
0.486409
0.486414
0.486414
0.486419
0.486423
0.486428
0.486433
0.486433
0.486438
0.486443
0.486447
0.486452
0.486452
0.486457
0.486462
0.486467
0.486473
0.486473
0.486478
0.486483
0.486488
0.486493
0.486493
0.486499
0.486504
0.486509
0.486515
0.486515
0.48652
0.486525
0.486531
0.486536
0.486536
0.486542
0.486548
0.486553
0.486559
0.486559
0.486565
0.48657
0.486576
0.486582
0.486582
0.486588
0.486594
0.4866
0.486606
0.486606
0.486612
0.486618
0.486624
0.48663
0.48663
0.486636
0.486642
0.486648
0.486655
0.486655
0.486661
0.486667
0.486674
0.48668
0.48668
0.486687
0.486693
0.4867
0.486706
0.486706
0.486713
0.486719
0.486726
0.486733
0.486733
0.486739
0.486746
0.486753
0.48676
0.48676
0.486767
0.486774
0.486781
0.486788
0.486788
0.486795
0.486802
0.486809
0.486816
0.486816
0.486823
0.48683
0.486838
0.486845
0.486845
0.486852
0.48686
0.486867
0.486874
0.486874
0.486882
0.486889
0.486897
0.486905
0.486905
0.486912
0.48692
0.486927
0.486935
0.486935
0.486943
0.486951
0.486959
0.486966
0.486966
0.486974
0.486982
0.48699
0.486998
0.486998
0.487006
0.487014
0.487023
0.487031
0.487031
0.487039
0.487047
0.487055
0.487064
0.487064
0.487072
0.48708
0.487089
0.487097
0.487097
0.487106
0.487114
0.487123
0.487132
0.487132
0.48714
0.487149
0.487158
0.487166
0.487166
0.487175
0.487184
0.487193
0.487202
0.487202
0.487211
0.48722
0.487229
0.487238
0.487238
0.487247
0.487256
0.487265
0.487274
0.487274
0.487283
0.487293
0.487302
0.487311
0.487311
0.487321
0.48733
0.48734
0.487349
0.487349
0.487359
0.487368
0.487378
0.487387
0.487387
0.487397
0.487407
0.487416
0.487426
0.487426
0.487436
0.487446
0.487456
0.487466
0.487466
0.487476
0.487486
0.487496
0.487506
0.487506
0.487516
0.487526
0.487536
0.487546
0.487546
0.487557
0.487567
0.487577
0.487588
0.487588
0.487598
0.487609
0.487619
0.48763
0.48763
0.48764
0.487651
0.487661
0.487672
0.487672
0.487683
0.487693
0.487704
0.487715
0.487715
0.487726
0.487737
0.487748
0.487759
0.487759
0.487769
0.487781
0.487792
0.487803
0.487803
0.487814
0.487825
0.487836
0.487847
0.487847
0.487859
0.48787
0.487881
0.487893
0.487893
0.487904
0.487916
0.487927
0.487939
0.487939
0.48795
0.487962
0.487974
0.487985
0.487985
0.487997
0.488009
0.488021
0.488032
0.488032
0.488044
0.488056
0.488068
0.48808
0.48808
0.488092
0.488104
0.488116
0.488128
0.488128
0.488141
0.488153
0.488165
0.488177
0.488177
0.48819
0.488202
0.488214
0.488227
0.488227
0.488239
0.488252
0.488264
0.488277
0.488277
0.488289
0.488302
0.488315
0.488327
0.488327
0.48834
0.488353
0.488366
0.488379
0.488379
0.488392
0.488405
0.488418
0.488431
0.488431
0.488444
0.488457
0.48847
0.488483
0.488483
0.488496
0.488509
0.488523
0.488536
0.488536
0.488549
0.488563
0.488576
0.48859
0.48859
0.488603
0.488617
0.48863
0.488644
0.488644
0.488657
0.488671
0.488685
0.488699
0.488699
0.488712
0.488726
0.48874
0.488754
0.488754
0.488768
0.488782
0.488796
0.48881
0.48881
0.488824
0.488838
0.488852
0.488867
0.488867
0.488881
0.488895
0.488909
0.488924
0.488924
0.488938
0.488952
0.488967
0.488981
0.488981
0.488996
0.48901
0.489025
0.48904
0.48904
0.489054
0.489069
0.489084
0.489099
0.489099
0.489113
0.489128
0.489143
0.489158
0.489158
0.489173
0.489188
0.489203
0.489218
0.489218
0.489233
0.489249
0.489264
0.489279
0.489279
0.489294
0.48931
0.489325
0.48934
0.48934
0.489356
0.489371
0.489387
0.489402
0.489402
0.489418
0.489433
0.489449
0.489465
0.489465
0.48948
0.489496
0.489512
0.489528
0.489528
0.489544
0.489559
0.489575
0.489591
0.489591
0.489607
0.489623
0.489639
0.489656
0.489656
0.489672
0.489688
0.489704
0.48972
0.48972
0.489737
0.489753
0.489769
0.489786
0.489786
0.489802
0.489819
0.489835
0.489852
0.489852
0.489869
0.489885
0.489902
0.489919
0.489919
0.489935
0.489952
0.489969
0.489986
0.489986
0.490003
0.49002
0.490037
0.490054
0.490054
0.490071
0.490088
0.490105
0.490122
0.490122
0.490139
0.490156
0.490174
0.490191
0.490191
0.490208
0.490226
0.490243
0.490261
0.490261
0.490278
0.490296
0.490313
0.490331
0.490331
0.490348
0.490366
0.490384
0.490402
0.490402
0.490419
0.490437
0.490455
0.490473
0.490473
0.490491
0.490509
0.490527
0.490545
0.490545
0.490563
0.490581
0.490599
0.490618
0.490618
0.490636
0.490654
0.490672
0.490691
0.490691
0.490709
0.490728
0.490746
0.490765
0.490765
0.490783
0.490802
0.49082
0.490839
0.490839
0.490858
0.490876
0.490895
0.490914
0.490914
0.490933
0.490952
0.49097
0.490989
0.490989
0.491008
0.491027
0.491046
0.491066
0.491066
0.491085
0.491104
0.491123
0.491142
0.491142
0.491162
0.491181
0.4912
0.49122
0.49122
0.491239
0.491259
0.491278
0.491298
0.491298
0.491317
0.491337
0.491356
0.491376
0.491376
0.491396
0.491416
0.491435
0.491455
0.491455
0.491475
0.491495
0.491515
0.491535
0.491535
0.491555
0.491575
0.491595
0.491615
0.491615
0.491636
0.491656
0.491676
0.491696
0.491696
0.491717
0.491737
0.491757
0.491778
0.491778
0.491798
0.491819
0.491839
0.49186
0.49186
0.491881
0.491901
0.491922
0.491943
0.491943
0.491964
0.491984
0.492005
0.492026
0.492026
0.492047
0.492068
0.492089
0.49211
0.49211
0.492131
0.492152
0.492173
0.492195
0.492195
0.492216
0.492237
0.492258
0.49228
0.49228
0.492301
0.492322
0.492344
0.492365
0.492365
0.492387
0.492409
0.49243
0.492452
0.492452
0.492473
0.492495
0.492517
0.492539
0.492539
0.492561
0.492582
0.492604
0.492626
0.492626
0.492648
0.49267
0.492692
0.492714
0.492714
0.492737
0.492759
0.492781
0.492803
0.492803
0.492825
0.492848
0.49287
0.492892
0.492892
0.492915
0.492937
0.49296
0.492982
0.492982
0.493005
0.493028
0.49305
0.493073
0.493073
0.493096
0.493118
0.493141
0.493164
0.493164
0.493187
0.49321
0.493233
0.493256
0.493256
0.493279
0.493302
0.493325
0.493348
0.493348
0.493371
0.493395
0.493418
0.493441
0.493441
0.493465
0.493488
0.493511
0.493535
0.493535
0.493558
0.493582
0.493605
0.493629
0.493629
0.493653
0.493676
0.4937
0.493724
0.493724
0.493748
0.493771
0.493795
0.493819
0.493819
0.493843
0.493867
0.493891
0.493915
0.493915
0.493939
0.493963
0.493987
0.494012
0.494012
0.494036
0.49406
0.494085
0.494109
0.494109
0.494133
0.494158
0.494182
0.494207
0.494207
0.494231
0.494256
0.49428
0.494305
0.494305
0.49433
0.494355
0.494379
0.494404
0.494404
0.494429
0.494454
0.494479
0.494504
0.494504
0.494529
0.494554
0.494579
0.494604
0.494604
0.494629
0.494654
0.49468
0.494705
0.494705
0.49473
0.494755
0.494781
0.494806
0.494806
0.494832
0.494857
0.494883
0.494908
0.494908
0.494934
0.49496
0.494985
0.495011
0.495011
0.495037
0.495062
0.495088
0.495114
0.495114
0.49514
0.495166
0.495192
0.495218
0.495218
0.495244
0.49527
0.495296
0.495323
0.495323
0.495349
0.495375
0.495401
0.495428
0.495428
0.495454
0.49548
0.495507
0.495533
0.495533
0.49556
0.495586
0.495613
0.49564
0.49564
0.495666
0.495693
0.49572
0.495747
0.495747
0.495773
0.4958
0.495827
0.495854
0.495854
0.495881
0.495908
0.495935
0.495962
0.495962
0.495989
0.496017
0.496044
0.496071
0.496071
0.496098
0.496126
0.496153
0.49618
0.49618
0.496208
0.496235
0.496263
0.49629
0.49629
0.496318
0.496346
0.496373
0.496401
0.496401
0.496429
0.496456
0.496484
0.496512
0.496512
0.49654
0.496568
0.496596
0.496624
0.496624
0.496652
0.49668
0.496708
0.496736
0.496736
0.496765
0.496793
0.496821
0.496849
0.496849
0.496878
0.496906
0.496935
0.496963
0.496963
0.496992
0.49702
0.497049
0.497077
0.497077
0.497106
0.497135
0.497163
0.497192
0.497192
0.497221
0.49725
0.497279
0.497308
0.497308
0.497337
0.497366
0.497395
0.497424
0.497424
0.497453
0.497482
0.497511
0.49754
0.49754
0.49757
0.497599
0.497628
0.497658
0.497658
0.497687
0.497717
0.497746
0.497776
0.497776
0.497805
0.497835
0.497865
0.497894
0.497894
0.497924
0.497954
0.497984
0.498014
0.498014
0.498043
0.498073
0.498103
0.498133
0.498133
0.498163
0.498193
0.498224
0.498254
0.498254
0.498284
0.498314
0.498344
0.498375
0.498375
0.498405
0.498436
0.498466
0.498496
0.498496
0.498527
0.498557
0.498588
0.498619
0.498619
0.498649
0.49868
0.498711
0.498742
0.498742
0.498772
0.498803
0.498834
0.498865
0.498865
0.498896
0.498927
0.498958
0.498989
0.498989
0.49902
0.499051
0.499083
0.499114
0.499114
0.499145
0.499177
0.499208
0.499239
0.499239
0.499271
0.499302
0.499334
0.499365
0.499365
0.499397
0.499429
0.49946
0.499492
0.499492
0.499524
0.499555
0.499587
0.499619
0.499619
0.499651
0.499683
0.499715
0.499747
0.499747
0.499779
0.499811
0.499843
0.499875
0.499875
0.499908
0.49994
0.499972
0.500005
0.500005
0.500037
0.500069
0.500102
0.500134
0.500134
0.500167
0.500199
0.500232
0.500265
0.500265
0.500297
0.50033
0.500363
0.500396
0.500396
0.500428
0.500461
0.500494
0.500527
0.500527
0.50056
0.500593
0.500626
0.500659
0.500659
0.500692
0.500726
0.500759
0.500792
0.500792
0.500825
0.500859
0.500892
0.500926
0.500926
0.500959
0.500993
0.501026
0.50106
0.50106
0.501093
0.501127
0.501161
0.501194
0.501194
0.501228
0.501262
0.501296
0.50133
0.50133
0.501364
0.501398
0.501432
0.501466
0.501466
0.5015
0.501534
0.501568
0.501602
0.501602
0.501637
0.501671
0.501705
0.50174
0.50174
0.501774
0.501808
0.501843
0.501877
0.501877
0.501912
0.501947
0.501981
0.502016
0.502016
0.502051
0.502085
0.50212
0.502155
0.502155
0.50219
0.502225
0.50226
0.502295
0.502295
0.50233
0.502365
0.5024
0.502435
0.502435
0.50247
0.502505
0.502541
0.502576
0.502576
0.502611
0.502647
0.502682
0.502718
0.502718
0.502753
0.502789
0.502824
0.50286
0.50286
0.502895
0.502931
0.502967
0.503003
0.503003
0.503039
0.503074
0.50311
0.503146
0.503146
0.503182
0.503218
0.503254
0.50329
0.50329
0.503326
0.503363
0.503399
0.503435
0.503435
0.503471
0.503508
0.503544
0.503581
0.503581
0.503617
0.503653
0.50369
0.503727
0.503727
0.503763
0.5038
0.503836
0.503873
0.503873
0.50391
0.503947
0.503984
0.50402
0.50402
0.504057
0.504094
0.504131
0.504168
0.504168
0.504206
0.504243
0.50428
0.504317
0.504317
0.504354
0.504392
0.504429
0.504466
0.504466
0.504504
0.504541
0.504579
0.504616
0.504616
0.504654
0.504691
0.504729
0.504767
0.504767
0.504804
0.504842
0.50488
0.504918
0.504918
0.504955
0.504993
0.505031
0.505069
0.505069
0.505107
0.505145
0.505184
0.505222
0.505222
0.50526
0.505298
0.505336
0.505375
0.505375
0.505413
0.505452
0.50549
0.505528
0.505528
0.505567
0.505605
0.505644
0.505683
0.505683
0.505721
0.50576
0.505799
0.505838
0.505838
0.505876
0.505915
0.505954
0.505993
0.505993
0.506032
0.506071
0.50611
0.506149
0.506149
0.506189
0.506228
0.506267
0.506306
0.506306
0.506346
0.506385
0.506424
0.506464
0.506464
0.506503
0.506543
0.506582
0.506622
0.506622
0.506662
0.506701
0.506741
0.506781
0.506781
0.506821
0.50686
0.5069
0.50694
0.50694
0.50698
0.50702
0.50706
0.5071
0.5071
0.50714
0.50718
0.507221
0.507261
0.507261
0.507301
0.507341
0.507382
0.507422
0.507422
0.507463
0.507503
0.507544
0.507584
0.507584
0.507625
0.507665
0.507706
0.507747
0.507747
0.507788
0.507828
0.507869
0.50791
0.50791
0.507951
0.507992
0.508033
0.508074
0.508074
0.508115
0.508156
0.508197
0.508239
0.508239
0.50828
0.508321
0.508363
0.508404
0.508404
0.508445
0.508487
0.508528
0.50857
0.50857
0.508611
0.508653
0.508695
0.508736
0.508736
0.508778
0.50882
0.508862
0.508903
0.508903
0.508945
0.508987
0.509029
0.509071
0.509071
0.509113
0.509155
0.509198
0.50924
0.50924
0.509282
0.509324
0.509366
0.509409
0.509409
0.509451
0.509494
0.509536
0.509579
0.509579
0.509621
0.509664
0.509706
0.509749
0.509749
0.509792
0.509834
0.509877
0.50992
0.50992
0.509963
0.510006
0.510049
0.510092
0.510092
0.510135
0.510178
0.510221
0.510264
0.510264
0.510307
0.510351
0.510394
0.510437
0.510437
0.51048
0.510524
0.510567
0.510611
0.510611
0.510654
0.510698
0.510741
0.510785
0.510785
0.510829
0.510873
0.510916
0.51096
0.51096
0.511004
0.511048
0.511092
0.511136
0.511136
0.51118
0.511224
0.511268
0.511312
0.511312
0.511356
0.5114
0.511445
0.511489
0.511489
0.511533
0.511578
0.511622
0.511667
0.511667
0.511711
0.511756
0.5118
0.511845
0.511845
0.511889
0.511934
0.511979
0.512024
0.512024
0.512069
0.512113
0.512158
0.512203
0.512203
0.512248
0.512293
0.512338
0.512384
0.512384
0.512429
0.512474
0.512519
0.512564
0.512564
0.51261
0.512655
0.5127
0.512746
0.512746
0.512791
0.512837
0.512883
0.512928
0.512928
0.512974
0.513019
0.513065
0.513111
0.513111
0.513157
0.513203
0.513249
0.513295
0.513295
0.513341
0.513387
0.513433
0.513479
0.513479
0.513525
0.513571
0.513617
0.513664
0.513664
0.51371
0.513756
0.513803
0.513849
0.513849
0.513896
0.513942
0.513989
0.514035
0.514035
0.514082
0.514129
0.514175
0.514222
0.514222
0.514269
0.514316
0.514363
0.51441
0.51441
0.514457
0.514504
0.514551
0.514598
0.514598
0.514645
0.514692
0.514739
0.514787
0.514787
0.514834
0.514881
0.514929
0.514976
0.514976
0.515024
0.515071
0.515119
0.515166
0.515166
0.515214
0.515262
0.515309
0.515357
0.515357
0.515405
0.515453
0.515501
0.515549
0.515549
0.515597
0.515645
0.515693
0.515741
0.515741
0.515789
0.515837
0.515885
0.515934
0.515934
0.515982
0.51603
0.516079
0.516127
0.516127
0.516176
0.516224
0.516273
0.516321
0.516321
0.51637
0.516419
0.516467
0.516516
0.516516
0.516565
0.516614
0.516663
0.516712
0.516712
0.516761
0.51681
0.516859
0.516908
0.516908
0.516957
0.517006
0.517055
0.517105
0.517105
0.517154
0.517203
0.517253
0.517302
0.517302
0.517352
0.517401
0.517451
0.517501
0.517501
0.51755
0.5176
0.51765
0.517699
0.517699
0.517749
0.517799
0.517849
0.517899
0.517899
0.517949
0.517999
0.518049
0.518099
0.518099
0.518149
0.5182
0.51825
0.5183
0.5183
0.51835
0.518401
0.518451
0.518502
0.518502
0.518552
0.518603
0.518653
0.518704
0.518704
0.518755
0.518805
0.518856
0.518907
0.518907
0.518958
0.519009
0.51906
0.519111
0.519111
0.519162
0.519213
0.519264
0.519315
0.519315
0.519366
0.519417
0.519469
0.51952
0.51952
0.519571
0.519623
0.519674
0.519726
0.519726
0.519777
0.519829
0.51988
0.519932
0.519932
0.519984
0.520035
0.520087
0.520139
0.520139
0.520191
0.520243
0.520295
0.520347
0.520347
0.520399
0.520451
0.520503
0.520555
0.520555
0.520607
0.520659
0.520712
0.520764
0.520764
0.520816
0.520869
0.520921
0.520974
0.520974
0.521026
0.521079
0.521132
0.521184
0.521184
0.521237
0.52129
0.521343
0.521395
0.521395
0.521448
0.521501
0.521554
0.521607
0.521607
0.52166
0.521713
0.521767
0.52182
0.52182
0.521873
0.521926
0.52198
0.522033
0.522033
0.522086
0.52214
0.522193
0.522247
0.522247
0.5223
0.522354
0.522408
0.522461
0.522461
0.522515
0.522569
0.522623
0.522677
0.522677
0.522731
0.522785
0.522839
0.522893
0.522893
0.522947
0.523001
0.523055
0.523109
0.523109
0.523164
0.523218
0.523272
0.523327
0.523327
0.523381
0.523436
0.52349
0.523545
0.523545
0.523599
0.523654
0.523709
0.523763
0.523763
0.523818
0.523873
0.523928
0.523983
0.523983
0.524038
0.524093
0.524148
0.524203
0.524203
0.524258
0.524313
0.524368
0.524424
0.524424
0.524479
0.524534
0.52459
0.524645
0.524645
0.524701
0.524756
0.524812
0.524867
0.524867
0.524923
0.524979
0.525035
0.52509
0.52509
0.525146
0.525202
0.525258
0.525314
0.525314
0.52537
0.525426
0.525482
0.525538
0.525538
0.525594
0.525651
0.525707
0.525763
0.525763
0.52582
0.525876
0.525932
0.525989
0.525989
0.526045
0.526102
0.526159
0.526215
0.526215
0.526272
0.526329
0.526386
0.526442
0.526442
0.526499
0.526556
0.526613
0.52667
0.52667
0.526727
0.526784
0.526842
0.526899
0.526899
0.526956
0.527013
0.527071
0.527128
0.527128
0.527185
0.527243
0.5273
0.527358
0.527358
0.527415
0.527473
0.527531
0.527588
0.527588
0.527646
0.527704
0.527762
0.52782
0.52782
0.527878
0.527936
0.527994
0.528052
0.528052
0.52811
0.528168
0.528226
0.528285
0.528285
0.528343
0.528401
0.52846
0.528518
0.528518
0.528576
0.528635
0.528694
0.528752
0.528752
0.528811
0.52887
0.528928
0.528987
0.528987
0.529046
0.529105
0.529164
0.529223
0.529223
0.529282
0.529341
0.5294
0.529459
0.529459
0.529518
0.529577
0.529637
0.529696
0.529696
0.529755
0.529815
0.529874
0.529934
0.529934
0.529993
0.530053
0.530112
0.530172
0.530172
0.530232
0.530292
0.530351
0.530411
0.530411
0.530471
0.530531
0.530591
0.530651
0.530651
0.530711
0.530771
0.530831
0.530892
0.530892
0.530952
0.531012
0.531073
0.531133
0.531133
0.531193
0.531254
0.531314
0.531375
0.531375
0.531436
0.531496
0.531557
0.531618
0.531618
0.531678
0.531739
0.5318
0.531861
0.531861
0.531922
0.531983
0.532044
0.532105
0.532105
0.532166
0.532228
0.532289
0.53235
0.53235
0.532411
0.532473
0.532534
0.532596
0.532596
0.532657
0.532719
0.53278
0.532842
0.532842
0.532904
0.532966
0.533027
0.533089
0.533089
0.533151
0.533213
0.533275
0.533337
0.533337
0.533399
0.533461
0.533523
0.533585
0.533585
0.533648
0.53371
0.533772
0.533835
0.533835
0.533897
0.53396
0.534022
0.534085
0.534085
0.534147
0.53421
0.534273
0.534335
0.534335
0.534398
0.534461
0.534524
0.534587
0.534587
0.53465
0.534713
0.534776
0.534839
0.534839
0.534902
0.534965
0.535028
0.535092
0.535092
0.535155
0.535218
0.535282
0.535345
0.535345
0.535409
0.535472
0.535536
0.5356
0.5356
0.535663
0.535727
0.535791
0.535855
0.535855
0.535919
0.535982
0.536046
0.53611
0.53611
0.536175
0.536239
0.536303
0.536367
0.536367
0.536431
0.536496
0.53656
0.536624
0.536624
0.536689
0.536753
0.536818
0.536882
0.536882
0.536947
0.537012
0.537076
0.537141
0.537141
0.537206
0.537271
0.537336
0.5374
0.5374
0.537465
0.53753
0.537596
0.537661
0.537661
0.537726
0.537791
0.537856
0.537922
0.537922
0.537987
0.538052
0.538118
0.538183
0.538183
0.538249
0.538314
0.53838
0.538446
0.538446
0.538511
0.538577
0.538643
0.538709
0.538709
0.538775
0.538841
0.538907
0.538973
0.538973
0.539039
0.539105
0.539171
0.539238
0.539238
0.539304
0.53937
0.539436
0.539503
0.539503
0.539569
0.539636
0.539702
0.539769
0.539769
0.539836
0.539902
0.539969
0.540036
0.540036
0.540103
0.54017
0.540237
0.540304
0.540304
0.540371
0.540438
0.540505
0.540572
0.540572
0.540639
0.540706
0.540774
0.540841
0.540841
0.540909
0.540976
0.541043
0.541111
0.541111
0.541179
0.541246
0.541314
0.541382
0.541382
0.541449
0.541517
0.541585
0.541653
0.541653
0.541721
0.541789
0.541857
0.541925
0.541925
0.541993
0.542062
0.54213
0.542198
0.542198
0.542266
0.542335
0.542403
0.542472
0.542472
0.54254
0.542609
0.542677
0.542746
0.542746
0.542815
0.542884
0.542952
0.543021
0.543021
0.54309
0.543159
0.543228
0.543297
0.543297
0.543366
0.543435
0.543505
0.543574
0.543574
0.543643
0.543713
0.543782
0.543851
0.543851
0.543921
0.54399
0.54406
0.54413
0.54413
0.544199
0.544269
0.544339
0.544408
0.544408
0.544478
0.544548
0.544618
0.544688
0.544688
0.544758
0.544828
0.544898
0.544969
0.544969
0.545039
0.545109
0.54518
0.54525
0.54525
0.54532
0.545391
0.545461
0.545532
0.545532
0.545603
0.545673
0.545744
0.545815
0.545815
0.545886
0.545956
0.546027
0.546098
0.546098
0.546169
0.54624
0.546311
0.546383
0.546383
0.546454
0.546525
0.546596
0.546668
0.546668
0.546739
0.54681
0.546882
0.546953
0.546953
0.547025
0.547097
0.547168
0.54724
0.54724
0.547312
0.547384
0.547456
0.547527
0.547527
0.547599
0.547671
0.547744
0.547816
0.547816
0.547888
0.54796
0.548032
0.548105
0.548105
0.548177
0.548249
0.548322
0.548394
0.548394
0.548467
0.548539
0.548612
0.548685
0.548685
0.548758
0.54883
0.548903
0.548976
0.548976
0.549049
0.549122
0.549195
0.549268
0.549268
0.549341
0.549414
0.549488
0.549561
0.549561
0.549634
0.549708
0.549781
0.549854
0.549854
0.549928
0.550002
0.550075
0.550149
0.550149
0.550223
0.550296
0.55037
0.550444
0.550444
0.550518
0.550592
0.550666
0.55074
0.55074
0.550814
0.550888
0.550962
0.551037
0.551037
0.551111
0.551185
0.55126
0.551334
0.551334
0.551409
0.551483
0.551558
0.551632
0.551632
0.551707
0.551782
0.551857
0.551932
0.551932
0.552006
0.552081
0.552156
0.552231
0.552231
0.552307
0.552382
0.552457
0.552532
0.552532
0.552607
0.552683
0.552758
0.552834
0.552834
0.552909
0.552985
0.55306
0.553136
0.553136
0.553211
0.553287
0.553363
0.553439
0.553439
0.553515
0.553591
0.553667
0.553743
0.553743
0.553819
0.553895
0.553971
0.554047
0.554047
0.554124
0.5542
0.554276
0.554353
0.554353
0.554429
0.554506
0.554582
0.554659
0.554659
0.554736
0.554812
0.554889
0.554966
0.554966
0.555043
0.55512
0.555197
0.555274
0.555274
0.555351
0.555428
0.555505
0.555582
0.555582
0.55566
0.555737
0.555814
0.555892
0.555892
0.555969
0.556047
0.556124
0.556202
0.556202
0.55628
0.556357
0.556435
0.556513
0.556513
0.556591
0.556669
0.556747
0.556825
0.556825
0.556903
0.556981
0.557059
0.557137
0.557137
0.557216
0.557294
0.557372
0.557451
0.557451
0.557529
0.557608
0.557686
0.557765
0.557765
0.557844
0.557922
0.558001
0.55808
0.55808
0.558159
0.558238
0.558317
0.558396
0.558396
0.558475
0.558554
0.558633
0.558713
0.558713
0.558792
0.558871
0.55895
0.55903
0.55903
0.559109
0.559189
0.559268
0.559347
0.559347
0.559426
0.559505
0.559583
0.55966
0.55966
0.559737
0.559808
0.559875
0.559938
0.559938
0.559984
0.56002
0.560046
0.560062
0.560062
0.560079
0.560097
0.560113
0.56013
0.56013
0.560147
0.560163
0.56018
0.560197
0.560197
0.560213
0.56023
0.560247
0.560263
0.560263
0.56028
0.560297
0.560314
0.56033
0.56033
0.560347
0.560364
0.560381
0.560398
0.560398
0.560414
0.560431
0.560448
0.560465
0.560465
0.560482
0.560499
0.560516
0.560533
0.560533
0.560549
0.560566
0.560583
0.5606
0.5606
0.560617
0.560634
0.560651
0.560668
0.560668
0.560685
0.560702
0.560719
0.560736
0.560736
0.560753
0.56077
0.560788
0.560805
0.560805
0.560822
0.560839
0.560856
0.560873
0.560873
0.56089
0.560907
0.560925
0.560942
0.560942
0.560959
0.560976
0.560993
0.561011
0.561011
0.561028
0.561045
0.561062
0.56108
0.56108
0.561097
0.561114
0.561132
0.561149
0.561149
0.561166
0.561183
0.561201
0.561218
0.561218
0.561236
0.561253
0.56127
0.561288
0.561288
0.561305
0.561323
0.56134
0.561357
0.561357
0.561375
0.561392
0.56141
0.561427
0.561427
0.561445
0.561462
0.56148
0.561497
0.561497
0.561515
0.561532
0.56155
0.561568
0.561568
0.561585
0.561603
0.56162
0.561638
0.561638
0.561656
0.561673
0.561691
0.561708
0.561708
0.561726
0.561744
0.561761
0.561779
0.561779
0.561797
0.561815
0.561832
0.56185
0.56185
0.561868
0.561885
0.561903
0.561921
0.561921
0.561939
0.561957
0.561974
0.561992
0.561992
0.56201
0.562028
0.562046
0.562064
0.562064
0.562081
0.562099
0.562117
0.562135
0.562135
0.562153
0.562171
0.562189
0.562207
0.562207
0.562225
0.562243
0.562261
0.562279
0.562279
0.562296
0.562314
0.562332
0.56235
0.56235
0.562368
0.562387
0.562405
0.562423
0.562423
0.562441
0.562459
0.562477
0.562495
0.562495
0.562513
0.562531
0.562549
0.562567
0.562567
0.562585
0.562604
0.562622
0.56264
0.56264
0.562658
0.562676
0.562694
0.562713
0.562713
0.562731
0.562749
0.562767
0.562785
0.562785
0.562804
0.562822
0.56284
0.562858
0.562858
0.562877
0.562895
0.562913
0.562931
0.562931
0.56295
0.562968
0.562986
0.563005
0.563005
0.563023
0.563041
0.56306
0.563078
0.563078
0.563097
0.563115
0.563133
0.563152
0.563152
0.56317
0.563189
0.563207
0.563225
0.563225
0.563244
0.563262
0.563281
0.563299
0.563299
0.563318
0.563336
0.563355
0.563373
0.563373
0.563392
0.56341
0.563429
0.563447
0.563447
0.563466
0.563484
0.563503
0.563521
0.563521
0.56354
0.563559
0.563577
0.563596
0.563596
0.563614
0.563633
0.563652
0.56367
0.56367
0.563689
0.563708
0.563726
0.563745
0.563745
0.563764
0.563782
0.563801
0.56382
0.56382
0.563838
0.563857
0.563876
0.563894
0.563894
0.563913
0.563932
0.563951
0.563969
0.563969
0.563988
0.564007
0.564026
0.564044
0.564044
0.564063
0.564082
0.564101
0.56412
0.56412
0.564138
0.564157
0.564176
0.564195
0.564195
0.564214
0.564233
0.564252
0.56427
0.56427
0.564289
0.564308
0.564327
0.564346
0.564346
0.564365
0.564384
0.564403
0.564422
0.564422
0.564441
0.564459
0.564478
0.564497
0.564497
0.564516
0.564535
0.564554
0.564573
0.564573
0.564592
0.564611
0.56463
0.564649
0.564649
0.564668
0.564687
0.564706
0.564725
0.564725
0.564744
0.564763
0.564782
0.564802
0.564802
0.564821
0.56484
0.564859
0.564878
0.564878
0.564897
0.564916
0.564935
0.564954
0.564954
0.564973
0.564992
0.565012
0.565031
0.565031
0.56505
0.565069
0.565088
0.565107
0.565107
0.565126
0.565146
0.565165
0.565184
0.565184
0.565203
0.565222
0.565242
0.565261
0.565261
0.56528
0.565299
0.565318
0.565338
0.565338
0.565357
0.565376
0.565395
0.565415
0.565415
0.565434
0.565453
0.565472
0.565492
0.565492
0.565511
0.56553
0.56555
0.565569
0.565569
0.565588
0.565607
0.565627
0.565646
0.565646
0.565665
0.565685
0.565704
0.565723
0.565723
0.565743
0.565762
0.565781
0.565801
0.565801
0.56582
0.565839
0.565859
0.565878
0.565878
0.565898
0.565917
0.565936
0.565956
0.565956
0.565975
0.565995
0.566014
0.566033
0.566033
0.566053
0.566072
0.566092
0.566111
0.566111
0.566131
0.56615
0.566169
0.566189
0.566189
0.566208
0.566228
0.566247
0.566267
0.566267
0.566286
0.566306
0.566325
0.566345
0.566345
0.566364
0.566384
0.566403
0.566423
0.566423
0.566442
0.566462
0.566481
0.566501
0.566501
0.56652
0.56654
0.566559
0.566579
0.566579
0.566598
0.566618
0.566638
0.566657
0.566657
0.566677
0.566696
0.566716
0.566735
0.566735
0.566755
0.566775
0.566794
0.566814
0.566814
0.566833
0.566853
0.566872
0.566892
0.566892
0.566911
0.566931
0.56695
0.566968
0.566968
0.566987
0.567004
0.567021
0.567035
0.567035
0.567047
0.567055
0.567061
0.567063
0.567063
0.567064
0.567065
0.567066
0.567066
0.567066
0.567067
0.567067
0.567068
0.567068
0.567068
0.567068
0.567069
0.567069
0.56707
0.56707
0.56707
0.56707
0.567071
0.567071
0.567071
0.567072
0.567072
0.567072
0.567073
0.567073
0.567073
0.567073
0.567074
0.567074
0.567074
0.567074
0.567075
0.567075
0.567075
0.567075
0.567075
0.567076
0.567076
0.567076
0.567076
0.567077
0.567077
0.567077
0.567077
0.567077
0.567078
0.567078
0.567078
0.567078
0.567078
0.567078
0.567079
0.567079
0.567079
0.567079
0.567079
0.567079
0.56708
0.56708
0.56708
0.56708
0.56708
0.56708
0.56708
0.56708
0.56708
0.567081
0.567081
0.567081
0.567081
0.567081
0.567081
0.567081
0.567081
0.567081
0.567081
0.567081
0.567082
0.567082
0.567082
0.567082
0.567082
0.567082
0.567082
0.567082
0.567082
0.567082
0.567082
0.567082
0.567082
0.567082
0.567082
0.567082
0.567082
0.567082
0.567082
0.567082
0.567082
0.567082
0.567082
0.567082
0.567082
0.567082
0.567082
0.567082
0.567082
0.567082
0.567082
0.567082
0.567082
0.567082
0.567082
0.567082
0.567082
0.567082
0.567082
0.567082
0.567082
0.567081
0.567081
0.567081
0.567081
0.567081
0.567081
0.567081
0.567081
0.567081
0.567081
0.567081
0.567081
0.567081
0.56708
0.56708
0.56708
0.56708
0.56708
0.56708
0.56708
0.56708
0.56708
0.567079
0.567079
0.567079
0.567079
0.567079
0.567079
0.567079
0.567078
0.567078
0.567078
0.567078
0.567078
0.567078
0.567078
0.567078
0.567077
0.567077
0.567077
0.567077
0.567077
0.567076
0.567076
0.567076
0.567076
0.567076
0.567076
0.567075
0.567075
0.567075
0.567075
0.567075
0.567074
0.567074
0.567074
0.567074
0.567074
0.567073
0.567073
0.567073
0.567073
0.567073
0.567072
0.567072
0.567072
0.567072
0.567072
0.567071
0.567071
0.567071
0.567071
0.56707
0.56707
0.56707
0.567069
0.567069
0.567069
0.567069
0.567069
0.567068
0.567068
0.567068
0.567068
0.567067
0.567067
0.567067
0.567067
0.567066
0.567066
0.567066
0.567066
0.567065
0.567065
0.567065
0.567064
0.567064
0.567064
0.567064
0.567063
0.567063
0.567063
0.567063
0.567062
0.567062
0.567062
0.567062
0.567061
0.567061
0.56706
0.56706
0.56706
0.56706
0.567059
0.567059
0.567059
0.567059
0.567058
0.567058
0.567057
0.567057
0.567057
0.567057
0.567056
0.567056
0.567056
0.567056
0.567055
0.567055
0.567054
0.567054
0.567054
0.567054
0.567053
0.567053
0.567052
0.567052
0.567052
0.567052
0.567051
0.567051
0.567051
0.56705
0.56705
0.56705
0.567049
0.567049
0.567049
0.567048
0.567048
0.567048
0.567048
0.567047
0.567047
0.567046
0.567046
0.567046
0.567046
0.567045
0.567045
0.567044
0.567044
0.567044
0.567043
0.567043
0.567043
0.567043
0.567042
0.567042
0.567041
0.567041
0.567041
0.567041
0.56704
0.56704
0.567039
0.567039
0.567039
0.567038
0.567038
0.567038
0.567038
0.567037
0.567037
0.567036
0.567036
0.567036
0.567035
0.567035
0.567035
0.567034
0.567034
0.567034
0.567033
0.567033
0.567032
0.567032
0.567032
0.567032
0.567031
0.567031
0.567031
0.56703
0.56703
0.56703
0.567029
0.567029
0.567029
0.567028
0.567028
0.567027
0.567027
0.567027
0.567027
0.567026
0.567026
0.567026
0.567025
0.567025
0.567024
0.567024
0.567024
0.567024
0.567023
0.567023
0.567022
0.567022
0.567022
0.567022
0.567021
0.567021
0.567021
0.56702
0.56702
0.56702
0.567019
0.567019
0.567019
0.567018
0.567018
0.567018
0.567018
0.567017
0.567017
0.567016
0.567016
0.567016
0.567016
0.567015
0.567015
0.567015
0.567015
0.567014
0.567014
0.567013
0.567013
0.567013
0.567013
0.567012
0.567012
0.567012
0.567012
0.567011
0.567011
0.56701
0.56701
0.56701
0.56701
0.567009
0.567009
0.567009
0.567009
0.567008
0.567008
0.567008
0.567007
0.567007
0.567007
0.567007
0.567006
0.567006
0.567006
0.567005
0.567005
0.567005
0.567004
0.567004
0.567003
0.567003
0.567002
0.567001
0.567001
0.567001
0.567
0.566999
0.566999
0.566999
0.566998
0.566997