<?xml version="1.0"?>
<VTKFile type="UnstructuredGrid" version="0.1" byte_order="LittleEndian">
<UnstructuredGrid>
<Piece NumberOfPoints="5000" NumberOfCells="4000">
<PointData Scalars="Reaction 0">
<DataArray type="Float32" Name="Reaction 0" format="ascii">
0.585207
0.585207
0.585207
0.585207
0.585207
0.585207
0.585207
0.585207
0.585207
0.585207
0.585207
0.585207
0.585207
0.585207
0.585207
0.585207
0.585207
0.585207
0.585207
0.585207
0.585207
0.585207
0.585207
0.585207
0.585207
0.585207
0.585207
0.585207
0.585207
0.585207
0.585207
0.585207
0.585207
0.585208
0.585208
0.585208
0.585208
0.585208
0.585208
0.585208
0.585208
0.585208
0.585208
0.585208
0.585208
0.585208
0.585208
0.585208
0.585208
0.585209
0.585209
0.585209
0.585209
0.585209
0.585209
0.585209
0.585209
0.585209
0.585209
0.585209
0.585209
0.585209
0.58521
0.58521
0.58521
0.58521
0.58521
0.58521
0.58521
0.58521
0.58521
0.58521
0.585211
0.585211
0.585211
0.585211
0.585211
0.585211
0.585211
0.585211
0.585211
0.585212
0.585212
0.585212
0.585212
0.585212
0.585212
0.585212
0.585213
0.585213
0.585213
0.585213
0.585213
0.585213
0.585213
0.585213
0.585214
0.585214
0.585214
0.585214
0.585214
0.585214
0.585215
0.585215
0.585215
0.585215
0.585215
0.585215
0.585216
0.585216
0.585216
0.585216
0.585216
0.585216
0.585217
0.585217
0.585217
0.585217
0.585217
0.585217
0.585217
0.585218
0.585218
0.585218
0.585218
0.585218
0.585219
0.585219
0.585219
0.585219
0.585219
0.58522
0.58522
0.58522
0.58522
0.58522
0.585221
0.585221
0.585221
0.585221
0.585221
0.585222
0.585222
0.585222
0.585222
0.585222
0.585223
0.585223
0.585223
0.585224
0.585224
0.585224
0.585224
0.585224
0.585225
0.585225
0.585225
0.585225
0.585226
0.585226
0.585226
0.585226
0.585227
0.585227
0.585227
0.585227
0.585227
0.585228
0.585228
0.585228
0.585228
0.585229
0.585229
0.585229
0.58523
0.58523
0.58523
0.58523
0.585231
0.585231
0.585231
0.585231
0.585232
0.585232
0.585232
0.585232
0.585233
0.585233
0.585233
0.585234
0.585234
0.585234
0.585235
0.585235
0.585235
0.585235
0.585236
0.585236
0.585236
0.585237
0.585237
0.585237
0.585238
0.585238
0.585238
0.585238
0.585239
0.585239
0.585239
0.58524
0.58524
0.58524
0.585241
0.585241
0.585241
0.585241
0.585242
0.585242
0.585243
0.585243
0.585243
0.585244
0.585244
0.585244
0.585245
0.585245
0.585245
0.585246
0.585246
0.585247
0.585247
0.585247
0.585247
0.585248
0.585248
0.585248
0.585249
0.585249
0.58525
0.58525
0.58525
0.585251
0.585251
0.585251
0.585252
0.585252
0.585252
0.585253
0.585253
0.585254
0.585254
0.585254
0.585255
0.585255
0.585256
0.585256
0.585256
0.585257
0.585257
0.585258
0.585258
0.585258
0.585259
0.585259
0.58526
0.58526
0.58526
0.585261
0.585261
0.585262
0.585262
0.585262
0.585263
0.585263
0.585264
0.585264
0.585264
0.585265
0.585265
0.585266
0.585266
0.585266
0.585267
0.585267
0.585268
0.585268
0.585268
0.585269
0.58527
0.58527
0.58527
0.585271
0.585271
0.585272
0.585272
0.585272
0.585273
0.585273
0.585274
0.585275
0.585275
0.585275
0.585276
0.585276
0.585277
0.585277
0.585277
0.585278
0.585279
0.585279
0.585279
0.58528
0.58528
0.585281
0.585281
0.585281
0.585282
0.585283
0.585283
0.585284
0.585284
0.585284
0.585285
0.585286
0.585286
0.585286
0.585287
0.585288
0.585288
0.585289
0.585289
0.585289
0.58529
0.585291
0.585291
0.585291
0.585292
0.585293
0.585293
0.585294
0.585294
0.585295
0.585295
0.585296
0.585296
0.585296
0.585297
0.585298
0.585298
0.585299
0.585299
0.5853
0.5853
0.585301
0.585302
0.585302
0.585302
0.585303
0.585304
0.585304
0.585304
0.585305
0.585306
0.585307
0.585307
0.585307
0.585308
0.585309
0.585309
0.58531
0.58531
0.585311
0.585311
0.585312
0.585313
0.585313
0.585314
0.585314
0.585315
0.585316
0.585316
0.585316
0.585317
0.585318
0.585319
0.585319
0.585319
0.58532
0.585321
0.585321
0.585321
0.585322
0.585323
0.585324
0.585324
0.585324
0.585325
0.585326
0.585327
0.585327
0.585327
0.585328
0.585329
0.58533
0.585331
0.585331
0.585331
0.585332
0.585333
0.585334
0.585334
0.585334
0.585335
0.585336
0.585337
0.585337
0.585338
0.585338
0.585339
0.58534
0.58534
0.585341
0.585342
0.585342
0.585343
0.585343
0.585344
0.585345
0.585346
0.585346
0.585346
0.585347
0.585348
0.585349
0.58535
0.58535
0.58535
0.585351
0.585352
0.585353
0.585353
0.585354
0.585355
0.585355
0.585356
0.585356
0.585357
0.585358
0.585359
0.58536
0.58536
0.585361
0.585361
0.585362
0.585363
0.585363
0.585364
0.585365
0.585366
0.585367
0.585367
0.585367
0.585368
0.585369
0.58537
0.58537
0.585371
0.585372
0.585373
0.585374
0.585374
0.585375
0.585375
0.585376
0.585377
0.585377
0.585378
0.585379
0.58538
0.585381
0.585381
0.585382
0.585383
0.585384
0.585385
0.585385
0.585385
0.585386
0.585387
0.585388
0.585388
0.585389
0.58539
0.585391
0.585392
0.585392
0.585393
0.585394
0.585395
0.585396
0.585396
0.585397
0.585398
0.585399
0.5854
0.5854
0.585401
0.585402
0.585403
0.585403
0.585403
0.585404
0.585405
0.585406
0.585407
0.585407
0.585408
0.585409
0.58541
0.585411
0.585411
0.585412
0.585413
0.585414
0.585415
0.585415
0.585416
0.585417
0.585418
0.585419
0.585419
0.58542
0.585421
0.585422
0.585423
0.585423
0.585424
0.585425
0.585426
0.585427
0.585427
0.585429
0.58543
0.585431
0.585432
0.585432
0.585433
0.585434
0.585435
0.585436
0.585436
0.585437
0.585438
0.585439
0.58544
0.58544
0.585441
0.585442
0.585443
0.585444
0.585444
0.585445
0.585446
0.585447
0.585449
0.585449
0.58545
0.585451
0.585452
0.585453
0.585453
0.585454
0.585455
0.585456
0.585457
0.585457
0.585458
0.585459
0.585461
0.585462
0.585462
0.585463
0.585464
0.585465
0.585466
0.585466
0.585467
0.585468
0.585469
0.585471
0.585471
0.585472
0.585473
0.585474
0.585475
0.585475
0.585476
0.585477
0.585479
0.58548
0.58548
0.585481
0.585482
0.585483
0.585484
0.585484
0.585485
0.585487
0.585488
0.585489
0.585489
0.58549
0.585491
0.585492
0.585494
0.585494
0.585495
0.585496
0.585497
0.585498
0.585498
0.5855
0.585501
0.585502
0.585503
0.585503
0.585504
0.585506
0.585507
0.585508
0.585508
0.585509
0.58551
0.585512
0.585513
0.585513
0.585514
0.585515
0.585516
0.585518
0.585518
0.585519
0.58552
0.585521
0.585523
0.585523
0.585524
0.585525
0.585526
0.585528
0.585528
0.585529
0.58553
0.585531
0.585533
0.585533
0.585534
0.585535
0.585536
0.585538
0.585538
0.585539
0.58554
0.585541
0.585543
0.585543
0.585544
0.585545
0.585546
0.585548
0.585548
0.585549
0.58555
0.585552
0.585553
0.585553
0.585554
0.585556
0.585557
0.585558
0.585558
0.585559
0.585561
0.585562
0.585563
0.585563
0.585565
0.585566
0.585567
0.585569
0.585569
0.58557
0.585571
0.585573
0.585574
0.585574
0.585575
0.585577
0.585578
0.585579
0.585579
0.585581
0.585582
0.585583
0.585585
0.585585
0.585586
0.585587
0.585589
0.58559
0.58559
0.585592
0.585593
0.585594
0.585596
0.585596
0.585597
0.585598
0.5856
0.585601
0.585601
0.585603
0.585604
0.585605
0.585607
0.585607
0.585608
0.58561
0.585611
0.585612
0.585612
0.585614
0.585615
0.585617
0.585618
0.585618
0.585619
0.585621
0.585622
0.585624
0.585624
0.585625
0.585627
0.585628
0.585629
0.585629
0.585631
0.585632
0.585634
0.585635
0.585635
0.585637
0.585638
0.585639
0.585641
0.585641
0.585642
0.585644
0.585645
0.585647
0.585647
0.585648
0.58565
0.585651
0.585653
0.585653
0.585654
0.585656
0.585657
0.585659
0.585659
0.58566
0.585662
0.585663
0.585665
0.585665
0.585666
0.585668
0.585669
0.585671
0.585671
0.585672
0.585674
0.585675
0.585677
0.585677
0.585678
0.58568
0.585681
0.585683
0.585683
0.585684
0.585686
0.585687
0.585689
0.585689
0.58569
0.585692
0.585693
0.585695
0.585695
0.585697
0.585698
0.5857
0.585701
0.585701
0.585703
0.585704
0.585706
0.585707
0.585707
0.585709
0.585711
0.585712
0.585714
0.585714
0.585715
0.585717
0.585719
0.58572
0.58572
0.585722
0.585723
0.585725
0.585726
0.585726
0.585728
0.58573
0.585731
0.585733
0.585733
0.585734
0.585736
0.585738
0.585739
0.585739
0.585741
0.585743
0.585744
0.585746
0.585746
0.585747
0.585749
0.585751
0.585752
0.585752
0.585754
0.585756
0.585757
0.585759
0.585759
0.585761
0.585762
0.585764
0.585766
0.585766
0.585767
0.585769
0.585771
0.585772
0.585772
0.585774
0.585776
0.585777
0.585779
0.585779
0.585781
0.585782
0.585784
0.585786
0.585786
0.585787
0.585789
0.585791
0.585792
0.585792
0.585794
0.585796
0.585798
0.585799
0.585799
0.585801
0.585803
0.585804
0.585806
0.585806
0.585808
0.58581
0.585811
0.585813
0.585813
0.585815
0.585817
0.585818
0.58582
0.58582
0.585822
0.585824
0.585825
0.585827
0.585827
0.585829
0.585831
0.585832
0.585834
0.585834
0.585836
0.585838
0.585839
0.585841
0.585841
0.585843
0.585845
0.585846
0.585848
0.585848
0.58585
0.585852
0.585854
0.585855
0.585855
0.585857
0.585859
0.585861
0.585863
0.585863
0.585864
0.585866
0.585868
0.58587
0.58587
0.585872
0.585873
0.585875
0.585877
0.585877
0.585879
0.585881
0.585883
0.585884
0.585884
0.585886
0.585888
0.58589
0.585892
0.585892
0.585894
0.585896
0.585897
0.585899
0.585899
0.585901
0.585903
0.585905
0.585907
0.585907
0.585908
0.58591
0.585912
0.585914
0.585914
0.585916
0.585918
0.585919
0.585921
0.585921
0.585923
0.585925
0.585927
0.585929
0.585929
0.585931
0.585933
0.585935
0.585937
0.585937
0.585939
0.585941
0.585943
0.585945
0.585945
0.585947
0.585948
0.58595
0.585952
0.585952
0.585954
0.585956
0.585958
0.58596
0.58596
0.585962
0.585964
0.585966
0.585968
0.585968
0.58597
0.585972
0.585974
0.585976
0.585976
0.585978
0.58598
0.585982
0.585984
0.585984
0.585986
0.585988
0.58599
0.585992
0.585992
0.585994
0.585995
0.585997
0.585999
0.585999
0.586001
0.586003
0.586005
0.586007
0.586007
0.586009
0.586012
0.586014
0.586016
0.586016
0.586018
0.58602
0.586022
0.586024
0.586024
0.586026
0.586028
0.58603
0.586032
0.586032
0.586034
0.586036
0.586038
0.58604
0.58604
0.586042
0.586044
0.586046
0.586048
0.586048
0.58605
0.586052
0.586054
0.586056
0.586056
0.586059
0.586061
0.586063
0.586065
0.586065
0.586067
0.586069
0.586071
0.586073
0.586073
0.586075
0.586077
0.586079
0.586082
0.586082
0.586084
0.586086
0.586088
0.58609
0.58609
0.586092
0.586094
0.586096
0.586098
0.586098
0.586101
0.586103
0.586105
0.586107
0.586107
0.586109
0.586111
0.586113
0.586116
0.586116
0.586118
0.58612
0.586122
0.586124
0.586124
0.586126
0.586128
0.586131
0.586133
0.586133
0.586135
0.586137
0.586139
0.586142
0.586142
0.586144
0.586146
0.586148
0.58615
0.58615
0.586152
0.586155
0.586157
0.586159
0.586159
0.586161
0.586163
0.586166
0.586168
0.586168
0.58617
0.586172
0.586175
0.586177
0.586177
0.586179
0.586181
0.586183
0.586186
0.586186
0.586188
0.58619
0.586192
0.586195
0.586195
0.586197
0.586199
0.586201
0.586204
0.586204
0.586206
0.586208
0.58621
0.586213
0.586213
0.586215
0.586217
0.58622
0.586222
0.586222
0.586224
0.586226
0.586229
0.586231
0.586231
0.586233
0.586236
0.586238
0.58624
0.58624
0.586242
0.586245
0.586247
0.586249
0.586249
0.586252
0.586254
0.586256
0.586259
0.586259
0.586261
0.586263
0.586266
0.586268
0.586268
0.58627
0.586273
0.586275
0.586277
0.586277
0.58628
0.586282
0.586284
0.586287
0.586287
0.586289
0.586291
0.586294
0.586296
0.586296
0.586299
0.586301
0.586303
0.586306
0.586306
0.586308
0.58631
0.586313
0.586315
0.586315
0.586318
0.58632
0.586322
0.586325
0.586325
0.586327
0.58633
0.586332
0.586334
0.586334
0.586337
0.586339
0.586342
0.586344
0.586344
0.586347
0.586349
0.586351
0.586354
0.586354
0.586356
0.586359
0.586361
0.586364
0.586364
0.586366
0.586369
0.586371
0.586373
0.586373
0.586376
0.586378
0.586381
0.586383
0.586383
0.586386
0.586388
0.586391
0.586393
0.586393
0.586396
0.586398
0.586401
0.586403
0.586403
0.586406
0.586408
0.586411
0.586413
0.586413
0.586416
0.586418
0.586421
0.586423
0.586423
0.586426
0.586428
0.586431
0.586433
0.586433
0.586436
0.586438
0.586441
0.586443
0.586443
0.586446
0.586449
0.586451
0.586454
0.586454
0.586456
0.586459
0.586461
0.586464
0.586464
0.586466
0.586469
0.586472
0.586474
0.586474
0.586477
0.586479
0.586482
0.586484
0.586484
0.586487
0.58649
0.586492
0.586495
0.586495
0.586497
0.5865
0.586503
0.586505
0.586505
0.586508
0.58651
0.586513
0.586516
0.586516
0.586518
0.586521
0.586524
0.586526
0.586526
0.586529
0.586531
0.586534
0.586537
0.586537
0.586539
0.586542
0.586545
0.586547
0.586547
0.58655
0.586553
0.586555
0.586558
0.586558
0.586561
0.586563
0.586566
0.586569
0.586569
0.586571
0.586574
0.586577
0.586579
0.586579
0.586582
0.586585
0.586587
0.58659
0.58659
0.586593
0.586596
0.586598
0.586601
0.586601
0.586604
0.586606
0.586609
0.586612
0.586612
0.586615
0.586617
0.58662
0.586623
0.586623
0.586626
0.586628
0.586631
0.586634
0.586634
0.586637
0.586639
0.586642
0.586645
0.586645
0.586648
0.58665
0.586653
0.586656
0.586656
0.586659
0.586661
0.586664
0.586667
0.586667
0.58667
0.586673
0.586675
0.586678
0.586678
0.586681
0.586684
0.586687
0.586689
0.586689
0.586692
0.586695
0.586698
0.586701
0.586701
0.586703
0.586706
0.586709
0.586712
0.586712
0.586715
0.586718
0.58672
0.586723
0.586723
0.586726
0.586729
0.586732
0.586735
0.586735
0.586738
0.58674
0.586743
0.586746
0.586746
0.586749
0.586752
0.586755
0.586758
0.586758
0.586761
0.586763
0.586766
0.586769
0.586769
0.586772
0.586775
0.586778
0.586781
0.586781
0.586784
0.586787
0.586789
0.586792
0.586792
0.586795
0.586798
0.586801
0.586804
0.586804
0.586807
0.58681
0.586813
0.586816
0.586816
0.586819
0.586822
0.586825
0.586828
0.586828
0.586831
0.586834
0.586836
0.586839
0.586839
0.586842
0.586845
0.586848
0.586851
0.586851
0.586854
0.586857
0.58686
0.586863
0.586863
0.586866
0.586869
0.586872
0.586875
0.586875
0.586878
0.586881
0.586884
0.586887
0.586887
0.58689
0.586893
0.586896
0.586899
0.586899
0.586902
0.586905
0.586908
0.586911
0.586911
0.586915
0.586918
0.586921
0.586924
0.586924
0.586927
0.58693
0.586933
0.586936
0.586936
0.586939
0.586942
0.586945
0.586948
0.586948
0.586951
0.586954
0.586957
0.58696
0.58696
0.586964
0.586967
0.58697
0.586973
0.586973
0.586976
0.586979
0.586982
0.586985
0.586985
0.586988
0.586992
0.586995
0.586998
0.586998
0.587001
0.587004
0.587007
0.58701
0.58701
0.587013
0.587017
0.58702
0.587023
0.587023
0.587026
0.587029
0.587032
0.587035
0.587035
0.587039
0.587042
0.587045
0.587048
0.587048
0.587051
0.587055
0.587058
0.587061
0.587061
0.587064
0.587067
0.58707
0.587074
0.587074
0.587077
0.58708
0.587083
0.587086
0.587086
0.58709
0.587093
0.587096
0.587099
0.587099
0.587103
0.587106
0.587109
0.587112
0.587112
0.587116
0.587119
0.587122
0.587125
0.587125
0.587129
0.587132
0.587135
0.587138
0.587138
0.587142
0.587145
0.587148
0.587151
0.587151
0.587155
0.587158
0.587161
0.587164
0.587164
0.587168
0.587171
0.587174
0.587178
0.587178
0.587181
0.587184
0.587188
0.587191
0.587191
0.587194
0.587198
0.587201
0.587204
0.587204
0.587207
0.587211
0.587214
0.587217
0.587217
0.587221
0.587224
0.587228
0.587231
0.587231
0.587234
0.587238
0.587241
0.587244
0.587244
0.587248
0.587251
0.587254
0.587258
0.587258
0.587261
0.587265
0.587268
0.587271
0.587271
0.587275
0.587278
0.587282
0.587285
0.587285
0.587288
0.587292
0.587295
0.587299
0.587299
0.587302
0.587305
0.587309
0.587312
0.587312
0.587316
0.587319
0.587323
0.587326
0.587326
0.587329
0.587333
0.587336
0.58734
0.58734
0.587343
0.587347
0.58735
0.587354
0.587354
0.587357
0.587361
0.587364
0.587368
0.587368
0.587371
0.587375
0.587378
0.587382
0.587382
0.587385
0.587389
0.587392
0.587396
0.587396
0.587399
0.587403
0.587406
0.58741
0.58741
0.587413
0.587417
0.58742
0.587424
0.587424
0.587427
0.587431
0.587434
0.587438
0.587438
0.587441
0.587445
0.587449
0.587452
0.587452
0.587456
0.587459
0.587463
0.587466
0.587466
0.58747
0.587473
0.587477
0.587481
0.587481
0.587484
0.587488
0.587491
0.587495
0.587495
0.587499
0.587502
0.587506
0.587509
0.587509
0.587513
0.587517
0.58752
0.587524
0.587524
0.587528
0.587531
0.587535
0.587538
0.587538
0.587542
0.587546
0.587549
0.587553
0.587553
0.587557
0.58756
0.587564
0.587568
0.587568
0.587571
0.587575
0.587579
0.587582
0.587582
0.587586
0.58759
0.587593
0.587597
0.587597
0.587601
0.587605
0.587608
0.587612
0.587612
0.587616
0.587619
0.587623
0.587627
0.587627
0.587631
0.587634
0.587638
0.587642
0.587642
0.587645
0.587649
0.587653
0.587657
0.587657
0.58766
0.587664
0.587668
0.587672
0.587672
0.587675
0.587679
0.587683
0.587687
0.587687
0.587691
0.587694
0.587698
0.587702
0.587702
0.587706
0.58771
0.587713
0.587717
0.587717
0.587721
0.587725
0.587729
0.587732
0.587732
0.587736
0.58774
0.587744
0.587748
0.587748
0.587752
0.587755
0.587759
0.587763
0.587763
0.587767
0.587771
0.587775
0.587778
0.587778
0.587782
0.587786
0.58779
0.587794
0.587794
0.587798
0.587802
0.587806
0.587809
0.587809
0.587813
0.587817
0.587821
0.587825
0.587825
0.587829
0.587833
0.587837
0.587841
0.587841
0.587845
0.587848
0.587852
0.587856
0.587856
0.58786
0.587864
0.587868
0.587872
0.587872
0.587876
0.58788
0.587884
0.587888
0.587888
0.587892
0.587896
0.5879
0.587904
0.587904
0.587908
0.587912
0.587916
0.58792
0.58792
0.587924
0.587928
0.587932
0.587936
0.587936
0.58794
0.587944
0.587948
0.587952
0.587952
0.587955
0.587959
0.587963
0.587967
0.587967
0.587971
0.587975
0.587979
0.587983
0.587983
0.587987
0.587991
0.587995
0.587999
0.587999
0.588004
0.588008
0.588012
0.588016
0.588016
0.58802
0.588024
0.588028
0.588033
0.588033
0.588037
0.588041
0.588045
0.588049
0.588049
0.588053
0.588057
0.588061
0.588065
0.588065
0.588069
0.588074
0.588078
0.588082
0.588082
0.588086
0.58809
0.588094
0.588098
0.588098
0.588102
0.588107
0.588111
0.588115
0.588115
0.588119
0.588123
0.588127
0.588132
0.588132
0.588136
0.58814
0.588144
0.588148
0.588148
0.588152
0.588157
0.588161
0.588165
0.588165
0.588169
0.588173
0.588178
0.588182
0.588182
0.588186
0.58819
0.588195
0.588199
0.588199
0.588203
0.588207
0.588211
0.588216
0.588216
0.58822
0.588224
0.588228
0.588233
0.588233
0.588237
0.588241
0.588246
0.58825
0.58825
0.588254
0.588258
0.588263
0.588267
0.588267
0.588271
0.588275
0.58828
0.588284
0.588284
0.588288
0.588293
0.588297
0.588301
0.588301
0.588306
0.58831
0.588314
0.588319
0.588319
0.588323
0.588327
0.588332
0.588336
0.588336
0.58834
0.588345
0.588349
0.588353
0.588353
0.588358
0.588362
0.588366
0.588371
0.588371
0.588375
0.58838
0.588384
0.588388
0.588388
0.588393
0.588397
0.588402
0.588406
0.588406
0.58841
0.588415
0.588419
0.588424
0.588424
0.588428
0.588432
0.588437
0.588441
0.588441
0.588446
0.58845
0.588455
0.588459
0.588459
0.588464
0.588468
0.588472
0.588477
0.588477
0.588481
0.588486
0.58849
0.588495
0.588495
0.588499
0.588504
0.588508
0.588513
0.588513
0.588517
0.588522
0.588526
0.588531
0.588531
0.588535
0.58854
0.588544
0.588549
0.588549
0.588553
0.588558
0.588562
0.588567
0.588567
0.588572
0.588576
0.588581
0.588585
0.588585
0.58859
0.588594
0.588599
0.588603
0.588603
0.588608
0.588613
0.588617
0.588622
0.588622
0.588626
0.588631
0.588636
0.58864
0.58864
0.588645
0.588649
0.588654
0.588659
0.588659
0.588663
0.588668
0.588673
0.588677
0.588677
0.588682
0.588686
0.588691
0.588696
0.588696
0.5887
0.588705
0.58871
0.588714
0.588714
0.588719
0.588724
0.588728
0.588733
0.588733
0.588738
0.588742
0.588747
0.588752
0.588752
0.588756
0.588761
0.588766
0.588771
0.588771
0.588775
0.58878
0.588785
0.588789
0.588789
0.588794
0.588799
0.588804
0.588808
0.588808
0.588813
0.588818
0.588823
0.588827
0.588827
0.588832
0.588837
0.588842
0.588847
0.588847
0.588851
0.588856
0.588861
0.588866
0.588866
0.58887
0.588875
0.58888
0.588885
0.588885
0.58889
0.588894
0.588899
0.588904
0.588904
0.588909
0.588914
0.588919
0.588923
0.588923
0.588928
0.588933
0.588938
0.588943
0.588943
0.588948
0.588953
0.588957
0.588962
0.588962
0.588967
0.588972
0.588977
0.588982
0.588982
0.588987
0.588992
0.588996
0.589001
0.589001
0.589006
0.589011
0.589016
0.589021
0.589021
0.589026
0.589031
0.589036
0.589041
0.589041
0.589046
0.589051
0.589056
0.589061
0.589061
0.589065
0.58907
0.589075
0.58908
0.58908
0.589085
0.58909
0.589095
0.5891
0.5891
0.589105
0.58911
0.589115
0.58912
0.58912
0.589125
0.58913
0.589135
0.58914
0.58914
0.589145
0.58915
0.589155
0.58916
0.58916
0.589165
0.58917
0.589175
0.589181
0.589181
0.589186
0.589191
0.589196
0.589201
0.589201
0.589206
0.589211
0.589216
0.589221
0.589221
0.589226
0.589231
0.589236
0.589241
0.589241
0.589247
0.589252
0.589257
0.589262
0.589262
0.589267
0.589272
0.589277
0.589282
0.589282
0.589287
0.589293
0.589298
0.589303
0.589303
0.589308
0.589313
0.589318
0.589324
0.589324
0.589329
0.589334
0.589339
0.589344
0.589344
0.589349
0.589355
0.58936
0.589365
0.589365
0.58937
0.589375
0.589381
0.589386
0.589386
0.589391
0.589396
0.589401
0.589407
0.589407
0.589412
0.589417
0.589422
0.589428
0.589428
0.589433
0.589438
0.589443
0.589449
0.589449
0.589454
0.589459
0.589465
0.58947
0.58947
0.589475
0.58948
0.589486
0.589491
0.589491
0.589496
0.589502
0.589507
0.589512
0.589512
0.589518
0.589523
0.589528
0.589534
0.589534
0.589539
0.589544
0.58955
0.589555
0.589555
0.58956
0.589566
0.589571
0.589576
0.589576
0.589582
0.589587
0.589592
0.589598
0.589598
0.589603
0.589609
0.589614
0.589619
0.589619
0.589625
0.58963
0.589636
0.589641
0.589641
0.589647
0.589652
0.589657
0.589663
0.589663
0.589668
0.589674
0.589679
0.589685
0.589685
0.58969
0.589696
0.589701
0.589706
0.589706
0.589712
0.589717
0.589723
0.589728
0.589728
0.589734
0.589739
0.589745
0.58975
0.58975
0.589756
0.589761
0.589767
0.589772
0.589772
0.589778
0.589784
0.589789
0.589795
0.589795
0.5898
0.589806
0.589811
0.589817
0.589817
0.589822
0.589828
0.589834
0.589839
0.589839
0.589845
0.58985
0.589856
0.589861
0.589861
0.589867
0.589873
0.589878
0.589884
0.589884
0.58989
0.589895
0.589901
0.589906
0.589906
0.589912
0.589918
0.589923
0.589929
0.589929
0.589935
0.58994
0.589946
0.589952
0.589952
0.589957
0.589963
0.589969
0.589974
0.589974
0.58998
0.589986
0.589991
0.589997
0.589997
0.590003
0.590009
0.590014
0.59002
0.59002
0.590026
0.590031
0.590037
0.590043
0.590043
0.590049
0.590054
0.59006
0.590066
0.590066
0.590072
0.590077
0.590083
0.590089
0.590089
0.590095
0.590101
0.590106
0.590112
0.590112
0.590118
0.590124
0.590129
0.590135
0.590135
0.590141
0.590147
0.590153
0.590159
0.590159
0.590164
0.59017
0.590176
0.590182
0.590182
0.590188
0.590194
0.5902
0.590205
0.590205
0.590211
0.590217
0.590223
0.590229
0.590229
0.590235
0.590241
0.590247
0.590252
0.590252
0.590258
0.590264
0.59027
0.590276
0.590276
0.590282
0.590288
0.590294
0.5903
0.5903
0.590306
0.590312
0.590317
0.590323
0.590323
0.590329
0.590335
0.590341
0.590347
0.590347
0.590353
0.590359
0.590365
0.590371
0.590371
0.590377
0.590383
0.590389
0.590395
0.590395
0.590401
0.590408
0.590414
0.59042
0.59042
0.590426
0.590432
0.590438
0.590444
0.590444
0.59045
0.590456
0.590462
0.590468
0.590468
0.590474
0.59048
0.590486
0.590492
0.590492
0.590499
0.590505
0.590511
0.590517
0.590517
0.590523
0.590529
0.590535
0.590541
0.590541
0.590547
0.590554
0.59056
0.590566
0.590566
0.590572
0.590578
0.590584
0.590591
0.590591
0.590597
0.590603
0.590609
0.590615
0.590615
0.590621
0.590628
0.590634
0.59064
0.59064
0.590646
0.590653
0.590659
0.590665
0.590665
0.590671
0.590677
0.590684
0.59069
0.59069
0.590696
0.590702
0.590709
0.590715
0.590715
0.590721
0.590727
0.590734
0.59074
0.59074
0.590746
0.590753
0.590759
0.590765
0.590765
0.590772
0.590778
0.590784
0.59079
0.59079
0.590797
0.590803
0.590809
0.590816
0.590816
0.590822
0.590829
0.590835
0.590841
0.590841
0.590848
0.590854
0.59086
0.590867
0.590867
0.590873
0.59088
0.590886
0.590892
0.590892
0.590899
0.590905
0.590912
0.590918
0.590918
0.590924
0.590931
0.590937
0.590944
0.590944
0.59095
0.590957
0.590963
0.59097
0.59097
0.590976
0.590982
0.590989
0.590995
0.590995
0.591002
0.591008
0.591015
0.591021
0.591021
0.591028
0.591034
0.591041
0.591047
0.591047
0.591054
0.591061
0.591067
0.591074
0.591074
0.59108
0.591087
0.591093
0.5911
0.5911
0.591106
0.591113
0.59112
0.591126
0.591126
0.591133
0.591139
0.591146
0.591153
0.591153
0.591159
0.591166
0.591172
0.591179
0.591179
0.591186
0.591192
0.591199
0.591206
0.591206
0.591212
0.591219
0.591225
0.591232
0.591232
0.591239
0.591245
0.591252
0.591259
0.591259
0.591266
0.591272
0.591279
0.591286
0.591286
0.591292
0.591299
0.591306
0.591313
0.591313
0.591319
0.591326
0.591333
0.591339
0.591339
0.591346
0.591353
0.59136
0.591367
0.591367
0.591373
0.59138
0.591387
0.591394
0.591394
0.5914
0.591407
0.591414
0.591421
0.591421
0.591428
0.591434
0.591441
0.591448
0.591448
0.591455
0.591462
0.591469
0.591476
0.591476
0.591482
0.591489
0.591496
0.591503
0.591503
0.59151
0.591517
0.591524
0.591531
0.591531
0.591537
0.591544
0.591551
0.591558
0.591558
0.591565
0.591572
0.591579
0.591586
0.591586
0.591593
0.5916
0.591607
0.591614
0.591614
0.591621
0.591628
0.591635
0.591642
0.591642
0.591649
0.591655
0.591662
0.591669
0.591669
0.591676
0.591684
0.591691
0.591698
0.591698
0.591705
0.591712
0.591719
0.591726
0.591726
0.591733
0.59174
0.591747
0.591754
0.591754
0.591761
0.591768
0.591775
0.591782
0.591782
0.591789
0.591796
0.591803
0.591811
0.591811
0.591818
0.591825
0.591832
0.591839
0.591839
0.591846
0.591853
0.591861
0.591868
0.591868
0.591875
0.591882
0.591889
0.591896
0.591896
0.591903
0.591911
0.591918
0.591925
0.591925
0.591932
0.591939
0.591947
0.591954
0.591954
0.591961
0.591968
0.591976
0.591983
0.591983
0.59199
0.591997
0.592005
0.592012
0.592012
0.592019
0.592026
0.592034
0.592041
0.592041
0.592048
0.592056
0.592063
0.59207
0.59207
0.592077
0.592085
0.592092
0.592099
0.592099
0.592107
0.592114
0.592121
0.592129
0.592129
0.592136
0.592143
0.592151
0.592158
0.592158
0.592166
0.592173
0.59218
0.592188
0.592188
0.592195
0.592203
0.59221
0.592217
0.592217
0.592225
0.592232
0.59224
0.592247
0.592247
0.592255
0.592262
0.592269
0.592277
0.592277
0.592284
0.592292
0.592299
0.592307
0.592307
0.592314
0.592322
0.592329
0.592337
0.592337
0.592344
0.592352
0.592359
0.592367
0.592367
0.592374
0.592382
0.59239
0.592397
0.592397
0.592405
0.592412
0.59242
0.592427
0.592427
0.592435
0.592443
0.59245
0.592458
0.592458
0.592465
0.592473
0.592481
0.592488
0.592488
0.592496
0.592503
0.592511
0.592519
0.592519
0.592526
0.592534
0.592542
0.592549
0.592549
0.592557
0.592565
0.592572
0.59258
0.59258
0.592588
0.592596
0.592603
0.592611
0.592611
0.592619
0.592626
0.592634
0.592642
0.592642
0.59265
0.592657
0.592665
0.592673
0.592673
0.592681
0.592688
0.592696
0.592704
0.592704
0.592712
0.59272
0.592727
0.592735
0.592735
0.592743
0.592751
0.592759
0.592767
0.592767
0.592774
0.592782
0.59279
0.592798
0.592798
0.592806
0.592814
0.592822
0.592829
0.592829
0.592837
0.592845
0.592853
0.592861
0.592861
0.592869
0.592877
0.592885
0.592893
0.592893
0.592901
0.592909
0.592916
0.592924
0.592924
0.592932
0.59294
0.592948
0.592956
0.592956
0.592964
0.592972
0.59298
0.592988
0.592988
0.592996
0.593004
0.593011
0.593019
0.593019
0.593027
0.593035
0.593043
0.593052
0.593052
0.59306
0.593068
0.593076
0.593085
0.593085
0.593093
0.593101
0.593109
0.593117
0.593117
0.593125
0.593133
0.593141
0.59315
0.59315
0.593158
0.593166
0.593174
0.593182
0.593182
0.59319
0.593198
0.593207
0.593215
0.593215
0.593223
0.593231
0.593239
0.593248
0.593248
0.593256
0.593264
0.593272
0.59328
0.59328
0.593289
0.593297
0.593305
0.593313
0.593313
0.593322
0.59333
0.593338
0.593346
0.593346
0.593355
0.593363
0.593371
0.59338
0.59338
0.593388
0.593396
0.593404
0.593413
0.593413
0.593421
0.593429
0.593438
0.593446
0.593446
0.593454
0.593463
0.593471
0.59348
0.59348
0.593488
0.593496
0.593505
0.593513
0.593513
0.593522
0.59353
0.593538
0.593547
0.593547
0.593555
0.593564
0.593572
0.593581
0.593581
0.593589
0.593597
0.593606
0.593614
0.593614
0.593623
0.593631
0.59364
0.593648
0.593648
0.593657
0.593665
0.593674
0.593682
0.593682
0.593691
0.593699
0.593708
0.593717
0.593717
0.593725
0.593734
0.593742
0.593751
0.593751
0.593759
0.593768
0.593777
0.593785
0.593785
0.593794
0.593802
0.593811
0.59382
0.59382
0.593828
0.593837
0.593846
0.593854
0.593854
0.593863
0.593872
0.59388
0.593889
0.593889
0.593898
0.593906
0.593915
0.593924
0.593924
0.593932
0.593941
0.59395
0.593959
0.593959
0.593967
0.593976
0.593985
0.593994
0.593994
0.594002
0.594011
0.59402
0.594029
0.594029
0.594037
0.594046
0.594055
0.594064
0.594064
0.594073
0.594082
0.59409
0.594099
0.594099
0.594108
0.594117
0.594126
0.594135
0.594135
0.594144
0.594152
0.594161
0.59417
0.59417
0.594179
0.594188
0.594197
0.594206
0.594206
0.594215
0.594224
0.594233
0.594242
0.594242
0.59425
0.594259
0.594268
0.594277
0.594277
0.594286
0.594295
0.594304
0.594313
0.594313
0.594322
0.594331
0.59434
0.594349
0.594349
0.594358
0.594367
0.594377
0.594386
0.594386
0.594395
0.594404
0.594413
0.594422
0.594422
0.594431
0.59444
0.594449
0.594458
0.594458
0.594467
0.594476
0.594486
0.594495
0.594495
0.594504
0.594513
0.594522
0.594531
0.594531
0.594541
0.59455
0.594559
0.594568
0.594568
0.594577
0.594586
0.594596
0.594605
0.594605
0.594614
0.594623
0.594633
0.594642
0.594642
0.594651
0.59466
0.59467
0.594679
0.594679
0.594688
0.594697
0.594707
0.594716
0.594716
0.594725
0.594735
0.594744
0.594753
0.594753
0.594763
0.594772
0.594781
0.594791
0.594791
0.5948
0.594809
0.594819
0.594828
0.594828
0.594838
0.594847
0.594856
0.594866
0.594866
0.594875
0.594885
0.594894
0.594904
0.594904
0.594913
0.594923
0.594932
0.594941
0.594941
0.594951
0.59496
0.59497
0.594979
0.594979
0.594989
0.594998
0.595008
0.595017
0.595017
0.595027
0.595037
0.595046
0.595056
0.595056
0.595065
0.595075
0.595084
0.595094
0.595094
0.595104
0.595113
0.595123
0.595132
0.595132
0.595142
0.595152
0.595161
0.595171
0.595171
0.595181
0.59519
0.5952
0.59521
0.59521
0.595219
0.595229
0.595239
0.595248
0.595248
0.595258
0.595268
0.595277
0.595287
0.595287
0.595297
0.595307
0.595316
0.595326
0.595326
0.595336
0.595346
0.595356
0.595365
0.595365
0.595375
0.595385
0.595395
0.595405
0.595405
0.595414
0.595424
0.595434
0.595444
0.595444
0.595454
0.595464
0.595473
0.595483
0.595483
0.595493
0.595503
0.595513
0.595523
0.595523
0.595533
0.595543
0.595553
0.595563
0.595563
0.595573
0.595583
0.595592
0.595602
0.595602
0.595612
0.595622
0.595632
0.595642
0.595642
0.595652
0.595662
0.595672
0.595682
0.595682
0.595693
0.595703
0.595713
0.595723
0.595723
0.595733
0.595743
0.595753
0.595763
0.595763
0.595773
0.595783
0.595793
0.595803
0.595803
0.595814
0.595824
0.595834
0.595844
0.595844
0.595854
0.595864
0.595874
0.595885
0.595885
0.595895
0.595905
0.595915
0.595925
0.595925
0.595935
0.595946
0.595956
0.595966
0.595966
0.595976
0.595986
0.595996
0.596006
0.596006
0.596017
0.596027
0.596037
0.596047