<?xml version="1.0"?>
<VTKFile type="UnstructuredGrid" version="0.1" byte_order="LittleEndian">
<UnstructuredGrid>
<Piece NumberOfPoints="5000" NumberOfCells="4000">
<PointData Scalars="Reaction 0">
<DataArray type="Float32" Name="Reaction 0" format="ascii">
0.588382
0.588382
0.588382
0.588382
0.588382
0.588382
0.588382
0.588382
0.588382
0.588382
0.588382
0.588382
0.588382
0.588382
0.588382
0.588382
0.588382
0.588382
0.588382
0.588382
0.588382
0.588382
0.588382
0.588383
0.588383
0.588383
0.588383
0.588383
0.588383
0.588383
0.588383
0.588383
0.588383
0.588383
0.588383
0.588383
0.588383
0.588383
0.588383
0.588383
0.588383
0.588384
0.588384
0.588384
0.588384
0.588384
0.588384
0.588384
0.588384
0.588384
0.588384
0.588384
0.588385
0.588385
0.588385
0.588385
0.588385
0.588385
0.588385
0.588385
0.588385
0.588385
0.588386
0.588386
0.588386
0.588386
0.588386
0.588386
0.588386
0.588387
0.588387
0.588387
0.588387
0.588387
0.588387
0.588387
0.588387
0.588388
0.588388
0.588388
0.588388
0.588388
0.588388
0.588389
0.588389
0.588389
0.588389
0.588389
0.588389
0.58839
0.58839
0.58839
0.58839
0.58839
0.58839
0.58839
0.588391
0.588391
0.588391
0.588391
0.588391
0.588392
0.588392
0.588392
0.588392
0.588392
0.588393
0.588393
0.588393
0.588393
0.588393
0.588394
0.588394
0.588394
0.588394
0.588394
0.588395
0.588395
0.588395
0.588395
0.588395
0.588396
0.588396
0.588396
0.588397
0.588397
0.588397
0.588397
0.588398
0.588398
0.588398
0.588398
0.588398
0.588399
0.588399
0.588399
0.588399
0.5884
0.5884
0.5884
0.5884
0.588401
0.588401
0.588401
0.588402
0.588402
0.588402
0.588402
0.588403
0.588403
0.588403
0.588403
0.588404
0.588404
0.588404
0.588404
0.588405
0.588405
0.588406
0.588406
0.588406
0.588406
0.588407
0.588407
0.588407
0.588407
0.588408
0.588408
0.588409
0.588409
0.588409
0.588409
0.58841
0.58841
0.588411
0.588411
0.588411
0.588411
0.588412
0.588412
0.588412
0.588413
0.588413
0.588414
0.588414
0.588414
0.588414
0.588415
0.588415
0.588416
0.588416
0.588416
0.588417
0.588417
0.588418
0.588418
0.588418
0.588419
0.588419
0.588419
0.588419
0.58842
0.58842
0.588421
0.588421
0.588421
0.588422
0.588422
0.588423
0.588423
0.588423
0.588424
0.588424
0.588425
0.588425
0.588425
0.588426
0.588426
0.588427
0.588427
0.588427
0.588428
0.588428
0.588429
0.588429
0.588429
0.58843
0.58843
0.588431
0.588432
0.588432
0.588432
0.588433
0.588433
0.588434
0.588434
0.588434
0.588435
0.588435
0.588436
0.588436
0.588437
0.588437
0.588438
0.588438
0.588438
0.588439
0.588439
0.58844
0.588441
0.588441
0.588441
0.588442
0.588442
0.588443
0.588443
0.588444
0.588444
0.588445
0.588445
0.588445
0.588446
0.588447
0.588447
0.588448
0.588448
0.588448
0.588449
0.58845
0.58845
0.58845
0.588451
0.588452
0.588452
0.588453
0.588453
0.588454
0.588454
0.588455
0.588456
0.588456
0.588456
0.588457
0.588457
0.588458
0.588458
0.588459
0.58846
0.58846
0.588461
0.588461
0.588462
0.588462
0.588463
0.588464
0.588464
0.588464
0.588465
0.588466
0.588466
0.588466
0.588467
0.588468
0.588469
0.588469
0.588469
0.58847
0.588471
0.588471
0.588472
0.588472
0.588473
0.588474
0.588474
0.588475
0.588475
0.588476
0.588477
0.588477
0.588478
0.588478
0.588479
0.58848
0.58848
0.588481
0.588481
0.588482
0.588483
0.588483
0.588484
0.588484
0.588485
0.588486
0.588487
0.588487
0.588487
0.588488
0.588489
0.58849
0.58849
0.58849
0.588491
0.588492
0.588493
0.588494
0.588494
0.588495
0.588495
0.588496
0.588497
0.588497
0.588498
0.588499
0.588499
0.5885
0.5885
0.588501
0.588502
0.588503
0.588504
0.588504
0.588505
0.588505
0.588506
0.588507
0.588507
0.588508
0.588509
0.58851
0.588511
0.588511
0.588511
0.588512
0.588513
0.588514
0.588514
0.588515
0.588516
0.588517
0.588518
0.588518
0.588519
0.588519
0.58852
0.588521
0.588521
0.588522
0.588523
0.588524
0.588525
0.588525
0.588526
0.588527
0.588528
0.588529
0.588529
0.58853
0.58853
0.588531
0.588532
0.588532
0.588533
0.588534
0.588535
0.588536
0.588536
0.588537
0.588538
0.588539
0.58854
0.58854
0.588541
0.588542
0.588543
0.588544
0.588544
0.588545
0.588546
0.588547
0.588548
0.588548
0.588549
0.58855
0.588551
0.588552
0.588552
0.588553
0.588554
0.588555
0.588556
0.588556
0.588557
0.588558
0.588559
0.58856
0.58856
0.588561
0.588562
0.588563
0.588564
0.588564
0.588565
0.588566
0.588567
0.588568
0.588568
0.588569
0.58857
0.588571
0.588572
0.588572
0.588573
0.588575
0.588576
0.588577
0.588577
0.588578
0.588579
0.58858
0.588581
0.588581
0.588582
0.588583
0.588584
0.588585
0.588585
0.588587
0.588588
0.588589
0.58859
0.58859
0.588591
0.588592
0.588593
0.588594
0.588594
0.588595
0.588597
0.588598
0.588599
0.588599
0.5886
0.588601
0.588602
0.588603
0.588603
0.588605
0.588606
0.588607
0.588608
0.588608
0.588609
0.58861
0.588611
0.588613
0.588613
0.588614
0.588615
0.588616
0.588617
0.588617
0.588619
0.58862
0.588621
0.588622
0.588622
0.588623
0.588625
0.588626
0.588627
0.588627
0.588628
0.588629
0.588631
0.588632
0.588632
0.588633
0.588634
0.588635
0.588637
0.588637
0.588638
0.588639
0.58864
0.588642
0.588642
0.588643
0.588644
0.588645
0.588647
0.588647
0.588648
0.588649
0.58865
0.588652
0.588652
0.588653
0.588654
0.588655
0.588657
0.588657
0.588658
0.588659
0.588661
0.588662
0.588662
0.588663
0.588665
0.588666
0.588667
0.588667
0.588668
0.58867
0.588671
0.588672
0.588672
0.588674
0.588675
0.588676
0.588678
0.588678
0.588679
0.58868
0.588682
0.588683
0.588683
0.588684
0.588686
0.588687
0.588688
0.588688
0.58869
0.588691
0.588692
0.588694
0.588694
0.588695
0.588697
0.588698
0.588699
0.588699
0.588701
0.588702
0.588703
0.588705
0.588705
0.588706
0.588708
0.588709
0.58871
0.58871
0.588712
0.588713
0.588715
0.588716
0.588716
0.588717
0.588719
0.58872
0.588722
0.588722
0.588723
0.588725
0.588726
0.588727
0.588727
0.588729
0.58873
0.588732
0.588733
0.588733
0.588735
0.588736
0.588738
0.588739
0.588739
0.588741
0.588742
0.588744
0.588745
0.588745
0.588746
0.588748
0.588749
0.588751
0.588751
0.588752
0.588754
0.588755
0.588757
0.588757
0.588758
0.58876
0.588761
0.588763
0.588763
0.588764
0.588766
0.588767
0.588769
0.588769
0.588771
0.588772
0.588774
0.588775
0.588775
0.588777
0.588778
0.58878
0.588781
0.588781
0.588783
0.588784
0.588786
0.588788
0.588788
0.588789
0.588791
0.588792
0.588794
0.588794
0.588795
0.588797
0.588799
0.5888
0.5888
0.588802
0.588803
0.588805
0.588807
0.588807
0.588808
0.58881
0.588811
0.588813
0.588813
0.588815
0.588816
0.588818
0.588819
0.588819
0.588821
0.588823
0.588824
0.588826
0.588826
0.588828
0.588829
0.588831
0.588833
0.588833
0.588834
0.588836
0.588837
0.588839
0.588839
0.588841
0.588842
0.588844
0.588846
0.588846
0.588847
0.588849
0.588851
0.588853
0.588853
0.588854
0.588856
0.588858
0.588859
0.588859
0.588861
0.588863
0.588864
0.588866
0.588866
0.588868
0.58887
0.588871
0.588873
0.588873
0.588875
0.588876
0.588878
0.58888
0.58888
0.588882
0.588883
0.588885
0.588887
0.588887
0.588889
0.58889
0.588892
0.588894
0.588894
0.588896
0.588897
0.588899
0.588901
0.588901
0.588903
0.588905
0.588906
0.588908
0.588908
0.58891
0.588912
0.588914
0.588915
0.588915
0.588917
0.588919
0.588921
0.588923
0.588923
0.588924
0.588926
0.588928
0.58893
0.58893
0.588932
0.588933
0.588935
0.588937
0.588937
0.588939
0.588941
0.588943
0.588945
0.588945
0.588946
0.588948
0.58895
0.588952
0.588952
0.588954
0.588956
0.588958
0.588959
0.588959
0.588961
0.588963
0.588965
0.588967
0.588967
0.588969
0.588971
0.588973
0.588975
0.588975
0.588976
0.588978
0.58898
0.588982
0.588982
0.588984
0.588986
0.588988
0.58899
0.58899
0.588992
0.588994
0.588996
0.588998
0.588998
0.589
0.589001
0.589003
0.589005
0.589005
0.589007
0.589009
0.589011
0.589013
0.589013
0.589015
0.589017
0.589019
0.589021
0.589021
0.589023
0.589025
0.589027
0.589029
0.589029
0.589031
0.589033
0.589035
0.589037
0.589037
0.589039
0.589041
0.589043
0.589045
0.589045
0.589047
0.589049
0.589051
0.589053
0.589053
0.589055
0.589057
0.589059
0.589061
0.589061
0.589063
0.589065
0.589067
0.589069
0.589069
0.589072
0.589074
0.589076
0.589078
0.589078
0.58908
0.589082
0.589084
0.589086
0.589086
0.589088
0.58909
0.589092
0.589094
0.589094
0.589096
0.589099
0.589101
0.589103
0.589103
0.589105
0.589107
0.589109
0.589111
0.589111
0.589113
0.589115
0.589118
0.58912
0.58912
0.589122
0.589124
0.589126
0.589128
0.589128
0.58913
0.589133
0.589135
0.589137
0.589137
0.589139
0.589141
0.589143
0.589146
0.589146
0.589148
0.58915
0.589152
0.589154
0.589154
0.589156
0.589159
0.589161
0.589163
0.589163
0.589165
0.589167
0.58917
0.589172
0.589172
0.589174
0.589176
0.589178
0.589181
0.589181
0.589183
0.589185
0.589187
0.58919
0.58919
0.589192
0.589194
0.589196
0.589199
0.589199
0.589201
0.589203
0.589205
0.589208
0.589208
0.58921
0.589212
0.589214
0.589217
0.589217
0.589219
0.589221
0.589224
0.589226
0.589226
0.589228
0.58923
0.589233
0.589235
0.589235
0.589237
0.58924
0.589242
0.589244
0.589244
0.589247
0.589249
0.589251
0.589253
0.589253
0.589256
0.589258
0.58926
0.589262
0.589262
0.589265
0.589267
0.589269
0.589272
0.589272
0.589274
0.589277
0.589279
0.589282
0.589282
0.589284
0.589286
0.589289
0.589291
0.589291
0.589294
0.589296
0.589298
0.589301
0.589301
0.589303
0.589306
0.589308
0.58931
0.58931
0.589313
0.589315
0.589318
0.58932
0.58932
0.589322
0.589325
0.589327
0.58933
0.58933
0.589332
0.589335
0.589337
0.58934
0.58934
0.589342
0.589344
0.589347
0.589349
0.589349
0.589352
0.589354
0.589357
0.589359
0.589359
0.589362
0.589364
0.589367
0.589369
0.589369
0.589372
0.589374
0.589377
0.589379
0.589379
0.589382
0.589384
0.589387
0.589389
0.589389
0.589392
0.589394
0.589397
0.589399
0.589399
0.589402
0.589404
0.589407
0.589409
0.589409
0.589412
0.589414
0.589417
0.58942
0.58942
0.589422
0.589425
0.589427
0.58943
0.58943
0.589432
0.589435
0.589438
0.58944
0.58944
0.589443
0.589445
0.589448
0.58945
0.58945
0.589453
0.589456
0.589458
0.589461
0.589461
0.589463
0.589466
0.589469
0.589471
0.589471
0.589474
0.589477
0.589479
0.589482
0.589482
0.589485
0.589487
0.58949
0.589492
0.589492
0.589495
0.589498
0.5895
0.589503
0.589503
0.589506
0.589508
0.589511
0.589514
0.589514
0.589516
0.589519
0.589522
0.589524
0.589524
0.589527
0.58953
0.589533
0.589535
0.589535
0.589538
0.589541
0.589543
0.589546
0.589546
0.589549
0.589552
0.589554
0.589557
0.589557
0.58956
0.589562
0.589565
0.589568
0.589568
0.589571
0.589573
0.589576
0.589579
0.589579
0.589582
0.589585
0.589587
0.58959
0.58959
0.589593
0.589596
0.589598
0.589601
0.589601
0.589604
0.589607
0.58961
0.589612
0.589612
0.589615
0.589618
0.589621
0.589624
0.589624
0.589626
0.589629
0.589632
0.589635
0.589635
0.589638
0.589641
0.589643
0.589646
0.589646
0.589649
0.589652
0.589655
0.589658
0.589658
0.58966
0.589663
0.589666
0.589669
0.589669
0.589672
0.589675
0.589678
0.589681
0.589681
0.589683
0.589686
0.589689
0.589692
0.589692
0.589695
0.589698
0.589701
0.589704
0.589704
0.589707
0.58971
0.589713
0.589715
0.589715
0.589718
0.589721
0.589724
0.589727
0.589727
0.58973
0.589733
0.589736
0.589739
0.589739
0.589742
0.589745
0.589748
0.589751
0.589751
0.589754
0.589757
0.58976
0.589763
0.589763
0.589766
0.589769
0.589772
0.589775
0.589775
0.589778
0.589781
0.589784
0.589787
0.589787
0.58979
0.589793
0.589796
0.589799
0.589799
0.589802
0.589805
0.589808
0.589811
0.589811
0.589814
0.589817
0.58982
0.589823
0.589823
0.589826
0.589829
0.589832
0.589835
0.589835
0.589838
0.589841
0.589844
0.589848
0.589848
0.589851
0.589854
0.589857
0.58986
0.58986
0.589863
0.589866
0.589869
0.589872
0.589872
0.589875
0.589879
0.589882
0.589885
0.589885
0.589888
0.589891
0.589894
0.589897
0.589897
0.5899
0.589904
0.589907
0.58991
0.58991
0.589913
0.589916
0.589919
0.589923
0.589923
0.589926
0.589929
0.589932
0.589935
0.589935
0.589938
0.589942
0.589945
0.589948
0.589948
0.589951
0.589954
0.589958
0.589961
0.589961
0.589964
0.589967
0.58997
0.589974
0.589974
0.589977
0.58998
0.589983
0.589987
0.589987
0.58999
0.589993
0.589996
0.59
0.59
0.590003
0.590006
0.590009
0.590013
0.590013
0.590016
0.590019
0.590022
0.590026
0.590026
0.590029
0.590032
0.590036
0.590039
0.590039
0.590042
0.590046
0.590049
0.590052
0.590052
0.590055
0.590059
0.590062
0.590065
0.590065
0.590069
0.590072
0.590075
0.590079
0.590079
0.590082
0.590085
0.590089
0.590092
0.590092
0.590095
0.590099
0.590102
0.590106
0.590106
0.590109
0.590112
0.590116
0.590119
0.590119
0.590122
0.590126
0.590129
0.590133
0.590133
0.590136
0.590139
0.590143
0.590146
0.590146
0.59015
0.590153
0.590157
0.59016
0.59016
0.590163
0.590167
0.59017
0.590174
0.590174
0.590177
0.590181
0.590184
0.590188
0.590188
0.590191
0.590194
0.590198
0.590201
0.590201
0.590205
0.590208
0.590212
0.590215
0.590215
0.590219
0.590222
0.590226
0.590229
0.590229
0.590233
0.590236
0.59024
0.590243
0.590243
0.590247
0.59025
0.590254
0.590257
0.590257
0.590261
0.590265
0.590268
0.590272
0.590272
0.590275
0.590279
0.590282
0.590286
0.590286
0.590289
0.590293
0.590297
0.5903
0.5903
0.590304
0.590307
0.590311
0.590314
0.590314
0.590318
0.590322
0.590325
0.590329
0.590329
0.590332
0.590336
0.59034
0.590343
0.590343
0.590347
0.590351
0.590354
0.590358
0.590358
0.590361
0.590365
0.590369
0.590372
0.590372
0.590376
0.59038
0.590383
0.590387
0.590387
0.590391
0.590394
0.590398
0.590402
0.590402
0.590405
0.590409
0.590413
0.590417
0.590417
0.59042
0.590424
0.590428
0.590431
0.590431
0.590435
0.590439
0.590443
0.590446
0.590446
0.59045
0.590454
0.590457
0.590461
0.590461
0.590465
0.590469
0.590472
0.590476
0.590476
0.59048
0.590484
0.590488
0.590491
0.590491
0.590495
0.590499
0.590503
0.590506
0.590506
0.59051
0.590514
0.590518
0.590522
0.590522
0.590525
0.590529
0.590533
0.590537
0.590537
0.590541
0.590545
0.590548
0.590552
0.590552
0.590556
0.59056
0.590564
0.590568
0.590568
0.590571
0.590575
0.590579
0.590583
0.590583
0.590587
0.590591
0.590595
0.590599
0.590599
0.590602
0.590606
0.59061
0.590614
0.590614
0.590618
0.590622
0.590626
0.59063
0.59063
0.590634
0.590638
0.590642
0.590645
0.590645
0.590649
0.590653
0.590657
0.590661
0.590661
0.590665
0.590669
0.590673
0.590677
0.590677
0.590681
0.590685
0.590689
0.590693
0.590693
0.590697
0.590701
0.590705
0.590709
0.590709
0.590713
0.590717
0.590721
0.590725
0.590725
0.590729
0.590733
0.590737
0.590741
0.590741
0.590745
0.590749
0.590753
0.590757
0.590757
0.590761
0.590765
0.590769
0.590773
0.590773
0.590777
0.590781
0.590785
0.59079
0.59079
0.590794
0.590798
0.590802
0.590806
0.590806
0.59081
0.590814
0.590818
0.590822
0.590822
0.590826
0.59083
0.590835
0.590839
0.590839
0.590843
0.590847
0.590851
0.590855
0.590855
0.590859
0.590863
0.590868
0.590872
0.590872
0.590876
0.59088
0.590884
0.590888
0.590888
0.590893
0.590897
0.590901
0.590905
0.590905
0.590909
0.590913
0.590918
0.590922
0.590922
0.590926
0.59093
0.590935
0.590939
0.590939
0.590943
0.590947
0.590951
0.590956
0.590956
0.59096
0.590964
0.590968
0.590973
0.590973
0.590977
0.590981
0.590985
0.59099
0.59099
0.590994
0.590998
0.591002
0.591007
0.591007
0.591011
0.591015
0.59102
0.591024
0.591024
0.591028
0.591032
0.591037
0.591041
0.591041
0.591045
0.59105
0.591054
0.591058
0.591058
0.591063
0.591067
0.591071
0.591076
0.591076
0.59108
0.591084
0.591089
0.591093
0.591093
0.591098
0.591102
0.591106
0.591111
0.591111
0.591115
0.591119
0.591124
0.591128
0.591128
0.591133
0.591137
0.591141
0.591146
0.591146
0.59115
0.591155
0.591159
0.591164
0.591164
0.591168
0.591172
0.591177
0.591181
0.591181
0.591186
0.59119
0.591195
0.591199
0.591199
0.591204
0.591208
0.591213
0.591217
0.591217
0.591222
0.591226
0.59123
0.591235
0.591235
0.591239
0.591244
0.591248
0.591253
0.591253
0.591258
0.591262
0.591267
0.591271
0.591271
0.591276
0.59128
0.591285
0.591289
0.591289
0.591294
0.591298
0.591303
0.591307
0.591307
0.591312
0.591317
0.591321
0.591326
0.591326
0.59133
0.591335
0.59134
0.591344
0.591344
0.591349
0.591353
0.591358
0.591363
0.591363
0.591367
0.591372
0.591376
0.591381
0.591381
0.591386
0.59139
0.591395
0.5914
0.5914
0.591404
0.591409
0.591414
0.591418
0.591418
0.591423
0.591428
0.591432
0.591437
0.591437
0.591442
0.591446
0.591451
0.591456
0.591456
0.59146
0.591465
0.59147
0.591475
0.591475
0.591479
0.591484
0.591489
0.591493
0.591493
0.591498
0.591503
0.591508
0.591512
0.591512
0.591517
0.591522
0.591527
0.591531
0.591531
0.591536
0.591541
0.591546
0.591551
0.591551
0.591555
0.59156
0.591565
0.59157
0.59157
0.591575
0.591579
0.591584
0.591589
0.591589
0.591594
0.591599
0.591603
0.591608
0.591608
0.591613
0.591618
0.591623
0.591628
0.591628
0.591633
0.591637
0.591642
0.591647
0.591647
0.591652
0.591657
0.591662
0.591667
0.591667
0.591672
0.591677
0.591681
0.591686
0.591686
0.591691
0.591696
0.591701
0.591706
0.591706
0.591711
0.591716
0.591721
0.591726
0.591726
0.591731
0.591736
0.591741
0.591746
0.591746
0.59175
0.591755
0.59176
0.591765
0.591765
0.59177
0.591775
0.59178
0.591785
0.591785
0.59179
0.591795
0.5918
0.591805
0.591805
0.59181
0.591815
0.59182
0.591825
0.591825
0.59183
0.591835
0.59184
0.591845
0.591845
0.59185
0.591855
0.59186
0.591865
0.591865
0.59187
0.591876
0.591881
0.591886
0.591886
0.591891
0.591896
0.591901
0.591907
0.591907
0.591912
0.591917
0.591922
0.591927
0.591927
0.591932
0.591937
0.591942
0.591948
0.591948
0.591953
0.591958
0.591963
0.591968
0.591968
0.591973
0.591978
0.591984
0.591989
0.591989
0.591994
0.591999
0.592004
0.59201
0.59201
0.592015
0.59202
0.592025
0.59203
0.59203
0.592036
0.592041
0.592046
0.592051
0.592051
0.592056
0.592062
0.592067
0.592072
0.592072
0.592077
0.592083
0.592088
0.592093
0.592093
0.592099
0.592104
0.592109
0.592114
0.592114
0.59212
0.592125
0.59213
0.592136
0.592136
0.592141
0.592146
0.592151
0.592157
0.592157
0.592162
0.592167
0.592173
0.592178
0.592178
0.592183
0.592189
0.592194
0.5922
0.5922
0.592205
0.59221
0.592216
0.592221
0.592221
0.592226
0.592232
0.592237
0.592243
0.592243
0.592248
0.592253
0.592259
0.592264
0.592264
0.59227
0.592275
0.59228
0.592286
0.592286
0.592291
0.592297
0.592302
0.592308
0.592308
0.592313
0.592319
0.592324
0.592329
0.592329
0.592335
0.59234
0.592346
0.592351
0.592351
0.592357
0.592362
0.592368
0.592373
0.592373
0.592379
0.592384
0.59239
0.592395
0.592395
0.592401
0.592407
0.592412
0.592418
0.592418
0.592423
0.592429
0.592434
0.59244
0.59244
0.592445
0.592451
0.592457
0.592462
0.592462
0.592468
0.592473
0.592479
0.592485
0.592485
0.59249
0.592496
0.592501
0.592507
0.592507
0.592513
0.592518
0.592524
0.59253
0.59253
0.592535
0.592541
0.592546
0.592552
0.592552
0.592558
0.592563
0.592569
0.592575
0.592575
0.592581
0.592586
0.592592
0.592598
0.592598
0.592603
0.592609
0.592615
0.59262
0.59262
0.592626
0.592632
0.592638
0.592643
0.592643
0.592649
0.592655
0.592661
0.592666
0.592666
0.592672
0.592678
0.592684
0.592689
0.592689
0.592695
0.592701
0.592707
0.592713
0.592713
0.592718
0.592724
0.59273
0.592736
0.592736
0.592742
0.592747
0.592753
0.592759
0.592759
0.592765
0.592771
0.592777
0.592782
0.592782
0.592788
0.592794
0.5928
0.592806
0.592806
0.592812
0.592818
0.592824
0.592829
0.592829
0.592835
0.592841
0.592847
0.592853
0.592853
0.592859
0.592865
0.592871
0.592877
0.592877
0.592883
0.592889
0.592895
0.592901
0.592901
0.592907
0.592912
0.592918
0.592924
0.592924
0.59293
0.592936
0.592942
0.592948
0.592948
0.592954
0.59296
0.592966
0.592972
0.592972
0.592978
0.592984
0.59299
0.592996
0.592996
0.593002
0.593009
0.593015
0.593021
0.593021
0.593027
0.593033
0.593039
0.593045
0.593045
0.593051
0.593057
0.593063
0.593069
0.593069
0.593075
0.593081
0.593088
0.593094
0.593094
0.5931
0.593106
0.593112
0.593118
0.593118
0.593124
0.59313
0.593137
0.593143
0.593143
0.593149
0.593155
0.593161
0.593167
0.593167
0.593174
0.59318
0.593186
0.593192
0.593192
0.593198
0.593205
0.593211
0.593217
0.593217
0.593223
0.593229
0.593236
0.593242
0.593242
0.593248
0.593254
0.593261
0.593267
0.593267
0.593273
0.593279
0.593286
0.593292
0.593292
0.593298
0.593304
0.593311
0.593317
0.593317
0.593323
0.59333
0.593336
0.593342
0.593342
0.593349
0.593355
0.593361
0.593368
0.593368
0.593374
0.59338
0.593387
0.593393
0.593393
0.593399
0.593406
0.593412
0.593419
0.593419
0.593425
0.593431
0.593438
0.593444
0.593444
0.59345
0.593457
0.593463
0.59347
0.59347
0.593476
0.593483
0.593489
0.593495
0.593495
0.593502
0.593508
0.593515
0.593521
0.593521
0.593528
0.593534
0.593541
0.593547
0.593547
0.593554
0.59356
0.593567
0.593573
0.593573
0.59358
0.593586
0.593593
0.593599
0.593599
0.593606
0.593612
0.593619
0.593625
0.593625
0.593632
0.593639
0.593645
0.593652
0.593652
0.593658
0.593665
0.593671
0.593678
0.593678
0.593685
0.593691
0.593698
0.593704
0.593704
0.593711
0.593718
0.593724
0.593731
0.593731
0.593738
0.593744
0.593751
0.593757
0.593757
0.593764
0.593771
0.593777
0.593784
0.593784
0.593791
0.593798
0.593804
0.593811
0.593811
0.593818
0.593824
0.593831
0.593838
0.593838
0.593844
0.593851
0.593858
0.593865
0.593865
0.593871
0.593878
0.593885
0.593892
0.593892
0.593898
0.593905
0.593912
0.593919
0.593919
0.593926
0.593932
0.593939
0.593946
0.593946
0.593953
0.59396
0.593966
0.593973
0.593973
0.59398
0.593987
0.593994
0.594001
0.594001
0.594007
0.594014
0.594021
0.594028
0.594028
0.594035
0.594042
0.594049
0.594056
0.594056
0.594063
0.594069
0.594076
0.594083
0.594083
0.59409
0.594097
0.594104
0.594111
0.594111
0.594118
0.594125
0.594132
0.594139
0.594139
0.594146
0.594153
0.59416
0.594167
0.594167
0.594174
0.594181
0.594188
0.594195
0.594195
0.594202
0.594209
0.594216
0.594223
0.594223
0.59423
0.594237
0.594244
0.594251
0.594251
0.594258
0.594265
0.594272
0.594279
0.594279
0.594286
0.594293
0.5943
0.594308
0.594308
0.594315
0.594322
0.594329
0.594336
0.594336
0.594343
0.59435
0.594357
0.594364
0.594364
0.594372
0.594379
0.594386
0.594393
0.594393
0.5944
0.594407
0.594415
0.594422
0.594422
0.594429
0.594436
0.594443
0.594451
0.594451
0.594458
0.594465
0.594472
0.59448
0.59448
0.594487
0.594494
0.594501
0.594508
0.594508
0.594516
0.594523
0.59453
0.594538
0.594538
0.594545
0.594552
0.594559
0.594567
0.594567
0.594574
0.594581
0.594589
0.594596
0.594596
0.594603
0.594611
0.594618
0.594625
0.594625
0.594633
0.59464
0.594647
0.594655
0.594655
0.594662
0.59467
0.594677
0.594684
0.594684
0.594692
0.594699
0.594706
0.594714
0.594714
0.594721
0.594729
0.594736
0.594743
0.594743
0.594751
0.594758
0.594766
0.594773
0.594773
0.59478
0.594788
0.594795
0.594802
0.594802
0.59481
0.594817
0.594825
0.594833
0.594833
0.59484
0.594848
0.594856
0.594863
0.594863
0.594871
0.594878
0.594886
0.594894
0.594894
0.594901
0.594909
0.594916
0.594924
0.594924
0.594932
0.594939
0.594947
0.594954
0.594954
0.594962
0.59497
0.594977
0.594985
0.594985
0.594993
0.595
0.595008
0.595015
0.595015
0.595023
0.595031
0.595038
0.595046
0.595046
0.595054
0.595062
0.595069
0.595077
0.595077
0.595085
0.595092
0.5951
0.595108
0.595108
0.595116
0.595123
0.595131
0.595139
0.595139
0.595147
0.595154
0.595162
0.59517
0.59517
0.595178
0.595185
0.595193
0.595201
0.595201
0.595209
0.595217
0.595224
0.595232
0.595232
0.59524
0.595248
0.595256
0.595264
0.595264
0.595271
0.595279
0.595287
0.595295
0.595295
0.595303
0.595311
0.595319
0.595327
0.595327
0.595334
0.595342
0.59535
0.595358
0.595358
0.595366
0.595374
0.595382
0.59539
0.59539
0.595398
0.595406
0.595414
0.595422
0.595422
0.59543
0.595438
0.595446
0.595454
0.595454
0.595462
0.59547
0.595478
0.595486
0.595486
0.595494
0.595502
0.59551
0.595518
0.595518
0.595526
0.595534
0.595542
0.59555
0.59555
0.595558
0.595566
0.595574
0.595583
0.595583
0.595591
0.595599
0.595607
0.595615
0.595615
0.595623
0.595631
0.595639
0.595648
0.595648
0.595656
0.595664
0.595672
0.59568
0.59568
0.595688
0.595697
0.595705
0.595713
0.595713
0.595721
0.595729
0.595738
0.595746
0.595746
0.595754
0.595762
0.595771
0.595779
0.595779
0.595787
0.595795
0.595804
0.595812
0.595812
0.59582
0.595828
0.595837
0.595845
0.595845
0.595853
0.595862
0.59587
0.595878
0.595878
0.595887
0.595895
0.595903
0.595912
0.595912
0.59592
0.595928
0.595937
0.595945
0.595945
0.595953
0.595962
0.59597
0.595979
0.595979
0.595987
0.595995
0.596004
0.596012
0.596012
0.596021
0.596029
0.596038
0.596046
0.596046
0.596055
0.596063
0.596071
0.59608
0.59608
0.596088
0.596097
0.596105
0.596114
0.596114
0.596122
0.596131
0.59614
0.596148
0.596148
0.596157
0.596165
0.596174
0.596182
0.596182
0.596191
0.596199
0.596208
0.596217
0.596217
0.596225
0.596234
0.596242
0.596251
0.596251
0.59626
0.596268
0.596277
0.596285
0.596285
0.596294
0.596303
0.596311
0.59632
0.59632
0.596329
0.596337
0.596346
0.596355
0.596355
0.596364
0.596372
0.596381
0.59639
0.59639
0.596398
0.596407
0.596416
0.596425
0.596425
0.596433
0.596442
0.596451
0.59646
0.59646
0.596468
0.596477
0.596486
0.596495
0.596495
0.596504
0.596512
0.596521
0.59653
0.59653
0.596539
0.596548
0.596557
0.596565
0.596565
0.596574
0.596583
0.596592
0.596601
0.596601
0.59661
0.596619
0.596628
0.596637
0.596637
0.596645
0.596654
0.596663
0.596672
0.596672
0.596681
0.59669
0.596699
0.596708
0.596708
0.596717
0.596726
0.596735
0.596744
0.596744
0.596753
0.596762
0.596771
0.59678
0.59678
0.596789
0.596798
0.596807
0.596816
0.596816
0.596825
0.596834
0.596843
0.596852
0.596852
0.596861
0.596871
0.59688
0.596889
0.596889
0.596898
0.596907
0.596916
0.596925
0.596925
0.596934
0.596943
0.596953
0.596962
0.596962
0.596971
0.59698
0.596989
0.596998
0.596998
0.597008
0.597017
0.597026
0.597035
0.597035
0.597044
0.597054
0.597063
0.597072
0.597072
0.597081
0.597091
0.5971
0.597109
0.597109
0.597119
0.597128
0.597137
0.597146
0.597146
0.597156
0.597165
0.597174
0.597184
0.597184
0.597193
0.597202
0.597212
0.597221
0.597221
0.59723
0.59724
0.597249
0.597258
0.597258
0.597268
0.597277
0.597287
0.597296
0.597296
0.597306
0.597315
0.597324
0.597334
0.597334
0.597343
0.597353
0.597362
0.597372
0.597372
0.597381
0.597391
0.5974
0.59741
0.59741
0.597419
0.597429
0.597438
0.597448
0.597448
0.597457
0.597467
0.597476
0.597486
0.597486
0.597495
0.597505
0.597515
0.597524
0.597524
0.597534
0.597543
0.597553
0.597563
0.597563
0.597572
0.597582
0.597591
0.597601
0.597601
0.597611
0.59762
0.59763
0.59764
0.59764
0.597649
0.597659
0.597669
0.597678
0.597678
0.597688
0.597698
0.597708
0.597717
0.597717
0.597727
0.597737
0.597747
0.597756
0.597756
0.597766
0.597776
0.597786
0.597795
0.597795
0.597805
0.597815
0.597825
0.597835
0.597835
0.597845
0.597854
0.597864
0.597874
0.597874
0.597884
0.597894
0.597904
0.597914
0.597914
0.597923
0.597933
0.597943
0.597953
0.597953
0.597963
0.597973
0.597983
0.597993
0.597993
0.598003
0.598013
0.598023
0.598033
0.598033
0.598043
0.598052
0.598062
0.598072
0.598072
0.598082
0.598092
0.598102
0.598112
0.598112
0.598122
0.598132
0.598142
0.598152
0.598152
0.598162
0.598172
0.598182
0.598192
0.598192
0.598203
0.598213
0.598223
0.598233
0.598233
0.598244
0.598254
0.598264
0.598274
0.598274
0.598284
0.598294
0.598305
0.598315
0.598315
0.598325
0.598335
0.598345
0.598356
0.598356
0.598366
0.598376
0.598386
0.598397
0.598397
0.598407
0.598417
0.598427
0.598438
0.598438
0.598448
0.598458
0.598469
0.598479
0.598479
0.598489
0.5985
0.59851
0.59852
0.59852
0.598531
0.598541
0.598551
0.598562
0.598562
0.598572
0.598582
0.598593
0.598603
0.598603
0.598614
0.598624
0.598634
0.598645
0.598645
0.598655
0.598666
0.598676
0.598687
0.598687
0.598697
0.598708
0.598718
0.598729
0.598729
0.598739
0.59875
0.59876
0.598771
0.598771
0.598781
0.598792
0.598802
0.598813
0.598813
0.598823
0.598834
0.598845
0.598855
0.598855
0.598866
0.598876
0.598887
0.598898
0.598898
0.598908
0.598919
0.59893
0.59894
0.59894
0.598951
0.598961
0.598972
0.598983
0.598983
0.598994
0.599004
0.599015
0.599026
0.599026
0.599036
0.599047
0.599058
0.599069
0.599069
0.599079
0.59909
0.599101
0.599112
0.599112
0.599123
0.599133
0.599144
0.599155
0.599155
0.599166
0.599177
0.599187
0.599198
0.599198
0.599209
0.59922
0.599231
0.599242
0.599242
0.599253
0.599264
0.599274
0.599285
0.599285
0.599296
0.599307
0.599318
0.599329
0.599329
0.59934
0.599351
0.599362
0.599373
0.599373
0.599384
0.599395
0.599406
0.599417
0.599417
0.599428
0.599439
0.59945
0.599461
0.599461
0.599472
0.599483
0.599494
0.599505
0.599505
0.599516
0.599528
0.599539
0.59955
0.59955
0.599561
0.599572
0.599583
0.599594
0.599594
0.599605
0.599617
0.599628
0.599639
0.599639
0.59965
0.599661
0.599673
0.599684
0.599684
0.599695
0.599706
0.599717
0.599729
0.599729
0.59974
0.599751
0.599763
0.599774
0.599774
0.599785
0.599796
0.599808
0.599819
0.599819
0.59983
0.599842
0.599853
0.599864
0.599864
0.599876
0.599887
0.599898
0.59991
0.59991
0.599921
0.599933
0.599944
0.599955
0.599955
0.599967
0.599978
0.59999
0.600001
0.600001
0.600013
0.600024
0.600036
0.600047
0.600047
0.600059
0.60007
0.600082
0.600093
0.600093
0.600105
0.600116
0.600128
0.600139
0.600139
0.600151
0.600162
0.600174
0.600186
0.600186
0.600197
0.600209
0.60022
0.600232
0.600232
0.600244
0.600255
0.600267
0.600279
0.600279
0.60029
0.600302
0.600314
0.600325
0.600325
0.600337
0.600349
0.600361
0.600372
0.600372
0.600384
0.600396
0.600407
0.600419
0.600419
0.600431
0.600443
0.600455
0.600466
0.600466
0.600478
0.60049
0.600502
0.600514
0.600514
0.600526
0.600537
0.600549
0.600561
0.600561
0.600573
0.600585
0.600597
0.600609
0.600609
0.600621
0.600633
0.600644
0.600656
0.600656
0.600668
0.60068
0.600692
0.600704
0.600704
0.600716
0.600728
0.60074
0.600752
0.600752
0.600764
0.600776
0.600788
0.6008
0.6008
0.600812
0.600825
0.600837
0.600849
0.600849
0.600861
0.600873
0.600885
0.600897
0.600897
0.600909
0.600921
0.600934
0.600946
0.600946
0.600958
0.60097
0.600982
0.600994
0.600994
0.601007
0.601019
0.601031
0.601043
0.601043
0.601056
0.601068
0.60108
0.601092
0.601092
0.601105
0.601117
0.601129
0.601141
0.601141
0.601154
0.601166
0.601178
0.601191
0.601191
0.601203
0.601216
0.601228
0.60124
0.60124
0.601253
0.601265
0.601277
0.60129
0.60129
0.601302
0.601315
0.601327
0.60134
0.60134
0.601352
0.601365
0.601377
0.60139
0.60139
0.601402
0.601415
0.601427
0.60144
0.60144
0.601452
0.601465
0.601477
0.60149
0.60149
0.601502
0.601515
0.601528
0.60154
0.60154
0.601553
0.601565
0.601578
0.601591
0.601591
0.601603
0.601616
0.601629
0.601641
0.601641
0.601654
0.601667
0.601679
0.601692
0.601692
0.601705
0.601718
0.60173
0.601743
0.601743
0.601756
0.601769
0.601781
0.601794
0.601794
0.601807
0.60182
0.601832
0.601845
0.601845
0.601858
0.60187
0.601883
0.601896
0.601896
0.601909
0.601921
0.601934
0.601947
0.601947
0.60196
0.601973
0.601986
0.602
0.602