<?xml version="1.0"?>
<VTKFile type="UnstructuredGrid" version="0.1" byte_order="LittleEndian">
<UnstructuredGrid>
<Piece NumberOfPoints="5000" NumberOfCells="4000">
<PointData Scalars="Reaction 0">
<DataArray type="Float32" Name="Reaction 0" format="ascii">
0.673757
0.673757
0.673757
0.673757
0.673757
0.673757
0.673757
0.673757
0.673757
0.673757
0.673757
0.673757
0.673758
0.673758
0.673758
0.673758
0.673758
0.673758
0.673758
0.673758
0.673758
0.673759
0.673759
0.673759
0.673759
0.673759
0.67376
0.67376
0.67376
0.67376
0.67376
0.673761
0.673761
0.673761
0.673761
0.673761
0.673762
0.673762
0.673763
0.673763
0.673763
0.673763
0.673764
0.673764
0.673764
0.673764
0.673765
0.673765
0.673766
0.673766
0.673766
0.673767
0.673767
0.673768
0.673768
0.673768
0.673769
0.673769
0.67377
0.67377
0.67377
0.673771
0.673771
0.673772
0.673773
0.673773
0.673773
0.673774
0.673774
0.673775
0.673775
0.673776
0.673776
0.673777
0.673778
0.673778
0.673779
0.673779
0.67378
0.673781
0.673781
0.673781
0.673782
0.673783
0.673784
0.673784
0.673785
0.673785
0.673786
0.673787
0.673787
0.673788
0.673789
0.67379
0.67379
0.67379
0.673791
0.673792
0.673793
0.673794
0.673794
0.673795
0.673796
0.673797
0.673798
0.673798
0.673799
0.6738
0.673801
0.673802
0.673802
0.673803
0.673804
0.673805
0.673806
0.673806
0.673807
0.673808
0.673809
0.67381
0.67381
0.673811
0.673813
0.673814
0.673815
0.673815
0.673816
0.673817
0.673818
0.67382
0.67382
0.673821
0.673822
0.673823
0.673825
0.673825
0.673826
0.673827
0.673828
0.67383
0.67383
0.673831
0.673832
0.673834
0.673835
0.673835
0.673836
0.673838
0.673839
0.67384
0.67384
0.673842
0.673843
0.673845
0.673846
0.673846
0.673848
0.673849
0.67385
0.673852
0.673852
0.673853
0.673855
0.673856
0.673858
0.673858
0.673859
0.673861
0.673863
0.673864
0.673864
0.673866
0.673867
0.673869
0.673871
0.673871
0.673872
0.673874
0.673875
0.673877
0.673877
0.673879
0.673881
0.673882
0.673884
0.673884
0.673886
0.673887
0.673889
0.673891
0.673891
0.673893
0.673894
0.673896
0.673898
0.673898
0.6739
0.673902
0.673903
0.673905
0.673905
0.673907
0.673909
0.673911
0.673913
0.673913
0.673915
0.673917
0.673919
0.673921
0.673921
0.673923
0.673924
0.673926
0.673928
0.673928
0.67393
0.673932
0.673934
0.673937
0.673937
0.673939
0.673941
0.673943
0.673945
0.673945
0.673947
0.673949
0.673951
0.673953
0.673953
0.673955
0.673958
0.67396
0.673962
0.673962
0.673964
0.673966
0.673968
0.673971
0.673971
0.673973
0.673975
0.673977
0.67398
0.67398
0.673982
0.673984
0.673987
0.673989
0.673989
0.673991
0.673994
0.673996
0.673998
0.673998
0.674001
0.674003
0.674005
0.674008
0.674008
0.67401
0.674013
0.674015
0.674018
0.674018
0.67402
0.674022
0.674025
0.674027
0.674027
0.67403
0.674032
0.674035
0.674038
0.674038
0.67404
0.674043
0.674045
0.674048
0.674048
0.67405
0.674053
0.674056
0.674058
0.674058
0.674061
0.674064
0.674066
0.674069
0.674069
0.674072
0.674074
0.674077
0.67408
0.67408
0.674083
0.674085
0.674088
0.674091
0.674091
0.674094
0.674097
0.674099
0.674102
0.674102
0.674105
0.674108
0.674111
0.674114
0.674114
0.674116
0.674119
0.674122
0.674125
0.674125
0.674128
0.674131
0.674134
0.674137
0.674137
0.67414
0.674143
0.674146
0.674149
0.674149
0.674152
0.674155
0.674158
0.674161
0.674161
0.674164
0.674167
0.67417
0.674173
0.674173
0.674177
0.67418
0.674183
0.674186
0.674186
0.674189
0.674192
0.674195
0.674199
0.674199
0.674202
0.674205
0.674208
0.674212
0.674212
0.674215
0.674218
0.674221
0.674225
0.674225
0.674228
0.674231
0.674235
0.674238
0.674238
0.674241
0.674245
0.674248
0.674251
0.674251
0.674255
0.674258
0.674262
0.674265
0.674265
0.674269
0.674272
0.674275
0.674279
0.674279
0.674282
0.674286
0.674289
0.674293
0.674293
0.674296
0.6743
0.674304
0.674307
0.674307
0.674311
0.674314
0.674318
0.674322
0.674322
0.674325
0.674329
0.674332
0.674336
0.674336
0.67434
0.674343
0.674347
0.674351
0.674351
0.674355
0.674358
0.674362
0.674366
0.674366
0.67437
0.674373
0.674377
0.674381
0.674381
0.674385
0.674389
0.674392
0.674396
0.674396
0.6744
0.674404
0.674408
0.674412
0.674412
0.674416
0.67442
0.674424
0.674427
0.674427
0.674431
0.674435
0.674439
0.674443
0.674443
0.674447
0.674451
0.674455
0.674459
0.674459
0.674464
0.674468
0.674472
0.674476
0.674476
0.67448
0.674484
0.674488
0.674492
0.674492
0.674496
0.6745
0.674505
0.674509
0.674509
0.674513
0.674517
0.674521
0.674526
0.674526
0.67453
0.674534
0.674538
0.674543
0.674543
0.674547
0.674551
0.674555
0.67456
0.67456
0.674564
0.674568
0.674573
0.674577
0.674577
0.674582
0.674586
0.67459
0.674595
0.674595
0.674599
0.674604
0.674608
0.674612
0.674612
0.674617
0.674621
0.674626
0.67463
0.67463
0.674635
0.674639
0.674644
0.674649
0.674649
0.674653
0.674658
0.674662
0.674667
0.674667
0.674671
0.674676
0.674681
0.674685
0.674685
0.67469
0.674695
0.674699
0.674704
0.674704
0.674709
0.674713
0.674718
0.674723
0.674723
0.674728
0.674732
0.674737
0.674742
0.674742
0.674747
0.674752
0.674756
0.674761
0.674761
0.674766
0.674771
0.674776
0.674781
0.674781
0.674786
0.67479
0.674795
0.6748
0.6748
0.674805
0.67481
0.674815
0.67482
0.67482
0.674825
0.67483
0.674835
0.67484
0.67484
0.674845
0.67485
0.674855
0.67486
0.67486
0.674865
0.67487
0.674875
0.674881
0.674881
0.674886
0.674891
0.674896
0.674901
0.674901
0.674906
0.674911
0.674917
0.674922
0.674922
0.674927
0.674932
0.674938
0.674943
0.674943
0.674948
0.674953
0.674959
0.674964
0.674964
0.674969
0.674975
0.67498
0.674985
0.674985
0.674991
0.674996
0.675001
0.675007
0.675007
0.675012
0.675018
0.675023
0.675028
0.675028
0.675034
0.675039
0.675045
0.67505
0.67505
0.675056
0.675061
0.675067
0.675072
0.675072
0.675078
0.675083
0.675089
0.675095
0.675095
0.6751
0.675106
0.675111
0.675117
0.675117
0.675123
0.675128
0.675134
0.67514
0.67514
0.675145
0.675151
0.675157
0.675162
0.675162
0.675168
0.675174
0.67518
0.675185
0.675185
0.675191
0.675197
0.675203
0.675209
0.675209
0.675214
0.67522
0.675226
0.675232
0.675232
0.675238
0.675244
0.67525
0.675255
0.675255
0.675261
0.675267
0.675273
0.675279
0.675279
0.675285
0.675291
0.675297
0.675303
0.675303
0.675309
0.675315
0.675321
0.675327
0.675327
0.675333
0.675339
0.675345
0.675352
0.675352
0.675358
0.675364
0.67537
0.675376
0.675376
0.675382
0.675388
0.675395
0.675401
0.675401
0.675407
0.675413
0.675419
0.675426
0.675426
0.675432
0.675438
0.675444
0.675451
0.675451
0.675457
0.675463
0.67547
0.675476
0.675476
0.675482
0.675489
0.675495
0.675501
0.675501
0.675508
0.675514
0.67552
0.675527
0.675527
0.675533
0.67554
0.675546
0.675553
0.675553
0.675559
0.675566
0.675572
0.675579
0.675579
0.675585
0.675592
0.675598
0.675605
0.675605
0.675611
0.675618
0.675625
0.675631
0.675631
0.675638
0.675644
0.675651
0.675658
0.675658
0.675664
0.675671
0.675678
0.675685
0.675685
0.675691
0.675698
0.675705
0.675711
0.675711
0.675718
0.675725
0.675732
0.675739
0.675739
0.675745
0.675752
0.675759
0.675766
0.675766
0.675773
0.67578
0.675787
0.675793
0.675793
0.6758
0.675807
0.675814
0.675821
0.675821
0.675828
0.675835
0.675842
0.675849
0.675849
0.675856
0.675863
0.67587
0.675877
0.675877
0.675884
0.675891
0.675898
0.675905
0.675905
0.675912
0.675919
0.675927
0.675934
0.675934
0.675941
0.675948
0.675955
0.675962
0.675962
0.67597
0.675977
0.675984
0.675991
0.675991
0.675998
0.676006
0.676013
0.67602
0.67602
0.676027
0.676035
0.676042
0.676049
0.676049
0.676057
0.676064
0.676071
0.676079
0.676079
0.676086
0.676093
0.676101
0.676108
0.676108
0.676116
0.676123
0.676131
0.676138
0.676138
0.676146
0.676153
0.676161
0.676168
0.676168
0.676176
0.676183
0.676191
0.676198
0.676198
0.676206
0.676213
0.676221
0.676228
0.676228
0.676236
0.676244
0.676251
0.676259
0.676259
0.676267
0.676274
0.676282
0.67629
0.67629
0.676297
0.676305
0.676313
0.676321
0.676321
0.676328
0.676336
0.676344
0.676352
0.676352
0.676359
0.676367
0.676375
0.676383
0.676383
0.676391
0.676399
0.676407
0.676414
0.676414
0.676422
0.67643
0.676438
0.676446
0.676446
0.676454
0.676462
0.67647
0.676478
0.676478
0.676486
0.676494
0.676502
0.67651
0.67651
0.676518
0.676526
0.676534
0.676542
0.676542
0.67655
0.676558
0.676566
0.676575
0.676575
0.676583
0.676591
0.676599
0.676607
0.676607
0.676615
0.676623
0.676632
0.67664
0.67664
0.676648
0.676656
0.676665
0.676673
0.676673
0.676681
0.676689
0.676698
0.676706
0.676706
0.676714
0.676723
0.676731
0.676739
0.676739
0.676748
0.676756
0.676765
0.676773
0.676773
0.676781
0.67679
0.676798
0.676807
0.676807
0.676815
0.676824
0.676832
0.676841
0.676841
0.676849
0.676858
0.676866
0.676875
0.676875
0.676883
0.676892
0.6769
0.676909
0.676909
0.676918
0.676926
0.676935
0.676944
0.676944
0.676952
0.676961
0.676969
0.676978
0.676978
0.676987
0.676996
0.677004
0.677013
0.677013
0.677022
0.677031
0.677039
0.677048
0.677048
0.677057
0.677066
0.677074
0.677083
0.677083
0.677092
0.677101
0.67711
0.677118
0.677118
0.677127
0.677136
0.677145
0.677154
0.677154
0.677163
0.677171
0.67718
0.677189
0.677189
0.677198
0.677207
0.677216
0.677225
0.677225
0.677234
0.677243
0.677253
0.677262
0.677262
0.677271
0.67728
0.677289
0.677298
0.677298
0.677308
0.677317
0.677326
0.677335
0.677335
0.677344
0.677354
0.677363
0.677372
0.677372
0.677381
0.677391
0.6774
0.677409
0.677409
0.677418
0.677428
0.677437
0.677446
0.677446
0.677456
0.677465
0.677474
0.677484
0.677484
0.677493
0.677502
0.677512
0.677521
0.677521
0.677531
0.67754
0.677549
0.677559
0.677559
0.677568
0.677578
0.677587
0.677597
0.677597
0.677606
0.677616
0.677625
0.677635
0.677635
0.677645
0.677654
0.677664
0.677673
0.677673
0.677683
0.677692
0.677702
0.677712
0.677712
0.677721
0.677731
0.677741
0.67775
0.67775
0.67776
0.67777
0.67778
0.677789
0.677789
0.677799
0.677809
0.677819
0.677828
0.677828
0.677838
0.677848
0.677858
0.677868
0.677868
0.677877
0.677887
0.677897
0.677907
0.677907
0.677917
0.677927
0.677937
0.677947
0.677947
0.677957
0.677967
0.677977
0.677987
0.677987
0.677997
0.678007
0.678017
0.678027
0.678027
0.678037
0.678047
0.678057
0.678067
0.678067
0.678077
0.678087
0.678097
0.678107
0.678107
0.678117
0.678127
0.678138
0.678148
0.678148
0.678158
0.678168
0.678178
0.678189
0.678189
0.678199
0.678209
0.678219
0.67823
0.67823
0.67824
0.67825
0.67826
0.678271
0.678271
0.678281
0.678291
0.678302
0.678312
0.678312
0.678322
0.678333
0.678343
0.678354
0.678354
0.678364
0.678374
0.678385
0.678395
0.678395
0.678406
0.678416
0.678427
0.678437
0.678437
0.678448
0.678458
0.678469
0.678479
0.678479
0.67849
0.678501
0.678511
0.678522
0.678522
0.678532
0.678543
0.678554
0.678564
0.678564
0.678575
0.678586
0.678596
0.678607
0.678607
0.678618
0.678628
0.678639
0.67865
0.67865
0.678661
0.678671
0.678682
0.678693
0.678693
0.678704
0.678715
0.678725
0.678736
0.678736
0.678747
0.678758
0.678769
0.67878
0.67878
0.678791
0.678801
0.678812
0.678823
0.678823
0.678834
0.678845
0.678856
0.678867
0.678867
0.678878
0.678889
0.6789
0.678911
0.678911
0.678922
0.678933
0.678944
0.678955
0.678955
0.678967
0.678978
0.678989
0.679
0.679
0.679011
0.679022
0.679033
0.679044
0.679044
0.679056
0.679067
0.679078
0.679089
0.679089
0.679101
0.679112
0.679123
0.679134
0.679134
0.679146
0.679157
0.679168
0.67918
0.67918
0.679191
0.679202
0.679214
0.679225
0.679225
0.679236
0.679248
0.679259
0.679271
0.679271
0.679282
0.679293
0.679305
0.679316
0.679316
0.679328
0.679339
0.679351
0.679362
0.679362
0.679374
0.679385
0.679397
0.679408
0.679408
0.67942
0.679432
0.679443
0.679455
0.679455
0.679466
0.679478
0.67949
0.679501
0.679501
0.679513
0.679525
0.679536
0.679548
0.679548
0.67956
0.679572
0.679583
0.679595
0.679595
0.679607
0.679619
0.67963
0.679642
0.679642
0.679654
0.679666
0.679678
0.679689
0.679689
0.679701
0.679713
0.679725
0.679737
0.679737
0.679749
0.679761
0.679773
0.679785
0.679785
0.679797
0.679809
0.679821
0.679833
0.679833
0.679845
0.679857
0.679869
0.679881
0.679881
0.679893
0.679905
0.679917
0.679929
0.679929
0.679941
0.679953
0.679965
0.679978
0.679978
0.67999
0.680002
0.680014
0.680026
0.680026
0.680038
0.680051
0.680063
0.680075
0.680075
0.680087
0.6801
0.680112
0.680124
0.680124
0.680136
0.680149
0.680161
0.680173
0.680173
0.680186
0.680198
0.68021
0.680223
0.680223
0.680235
0.680248
0.68026
0.680273
0.680273
0.680285
0.680297
0.68031
0.680322
0.680322
0.680335
0.680347
0.68036
0.680372
0.680372
0.680385
0.680398
0.68041
0.680423
0.680423
0.680435
0.680448
0.68046
0.680473
0.680473
0.680486
0.680498
0.680511
0.680524
0.680524
0.680536
0.680549
0.680562
0.680575
0.680575
0.680587
0.6806
0.680613
0.680626
0.680626
0.680638
0.680651
0.680664
0.680677
0.680677
0.68069
0.680702
0.680715
0.680728
0.680728
0.680741
0.680754
0.680767
0.68078
0.68078
0.680793
0.680806
0.680819
0.680832
0.680832
0.680845
0.680857
0.68087
0.680884
0.680884
0.680897
0.68091
0.680923
0.680936
0.680936
0.680949
0.680962
0.680975
0.680988
0.680988
0.681001
0.681014
0.681027
0.681041
0.681041
0.681054
0.681067
0.68108
0.681093
0.681093
0.681107
0.68112
0.681133
0.681146
0.681146
0.68116
0.681173
0.681186
0.6812
0.6812
0.681213
0.681226
0.68124
0.681253
0.681253
0.681266
0.68128
0.681293
0.681306
0.681306
0.68132
0.681333
0.681347
0.68136
0.68136
0.681374
0.681387
0.681401
0.681414
0.681414
0.681428
0.681441
0.681455
0.681468
0.681468
0.681482
0.681495
0.681509
0.681523
0.681523
0.681536
0.68155
0.681563
0.681577
0.681577
0.681591
0.681604
0.681618
0.681632
0.681632
0.681646
0.681659
0.681673
0.681687
0.681687
0.6817
0.681714
0.681728
0.681742
0.681742
0.681756
0.681769
0.681783
0.681797
0.681797
0.681811
0.681825
0.681839
0.681853
0.681853
0.681867
0.68188
0.681894
0.681908
0.681908
0.681922
0.681936
0.68195
0.681964
0.681964
0.681978
0.681992
0.682006
0.68202
0.68202
0.682034
0.682048
0.682063
0.682077
0.682077
0.682091
0.682105
0.682119
0.682133
0.682133
0.682147
0.682161
0.682176
0.68219
0.68219
0.682204
0.682218
0.682232
0.682247
0.682247
0.682261
0.682275
0.682289
0.682304
0.682304
0.682318
0.682332
0.682347
0.682361
0.682361
0.682375
0.68239
0.682404
0.682418
0.682418
0.682433
0.682447
0.682462
0.682476
0.682476
0.682491
0.682505
0.68252
0.682534
0.682534
0.682549
0.682563
0.682578
0.682592
0.682592
0.682607
0.682621
0.682636
0.68265
0.68265
0.682665
0.68268
0.682694
0.682709
0.682709
0.682723
0.682738
0.682753
0.682767
0.682767
0.682782
0.682797
0.682812
0.682826
0.682826
0.682841
0.682856
0.682871
0.682885
0.682885
0.6829
0.682915
0.68293
0.682945
0.682945
0.682959
0.682974
0.682989
0.683004
0.683004
0.683019
0.683034
0.683049
0.683064
0.683064
0.683079
0.683094
0.683108
0.683123
0.683123
0.683138
0.683153
0.683168
0.683183
0.683183
0.683199
0.683214
0.683229
0.683244
0.683244
0.683259
0.683274
0.683289
0.683304
0.683304
0.683319
0.683334
0.68335
0.683365
0.683365
0.68338
0.683395
0.68341
0.683426
0.683426
0.683441
0.683456
0.683471
0.683487
0.683487
0.683502
0.683517
0.683533
0.683548
0.683548
0.683563
0.683579
0.683594
0.683609
0.683609
0.683625
0.68364
0.683655
0.683671
0.683671
0.683686
0.683702
0.683717
0.683733
0.683733
0.683748
0.683764
0.683779
0.683795
0.683795
0.68381
0.683826
0.683841
0.683857
0.683857
0.683872
0.683888
0.683904
0.683919
0.683919
0.683935
0.683951
0.683966
0.683982
0.683982
0.683998
0.684013
0.684029
0.684045
0.684045
0.68406
0.684076
0.684092
0.684108
0.684108
0.684123
0.684139
0.684155
0.684171
0.684171
0.684187
0.684203
0.684218
0.684234
0.684234
0.68425
0.684266
0.684282
0.684298
0.684298
0.684314
0.68433
0.684346
0.684362
0.684362
0.684378
0.684394
0.68441
0.684426
0.684426
0.684442
0.684458
0.684474
0.68449
0.68449
0.684506
0.684522
0.684538
0.684554
0.684554
0.68457
0.684587
0.684603
0.684619
0.684619
0.684635
0.684651
0.684667
0.684684
0.684684
0.6847
0.684716
0.684732
0.684749
0.684749
0.684765
0.684781
0.684798
0.684814
0.684814
0.68483
0.684847
0.684863
0.684879
0.684879
0.684896
0.684912
0.684928
0.684945
0.684945
0.684961
0.684978
0.684994
0.685011
0.685011
0.685027
0.685044
0.68506
0.685077
0.685077
0.685093
0.68511
0.685126
0.685143
0.685143
0.685159
0.685176
0.685193
0.685209
0.685209
0.685226
0.685242
0.685259
0.685276
0.685276
0.685292
0.685309
0.685326
0.685343
0.685343
0.685359
0.685376
0.685393
0.68541
0.68541
0.685426
0.685443
0.68546
0.685477
0.685477
0.685494
0.68551
0.685527
0.685544
0.685544
0.685561
0.685578
0.685595
0.685612
0.685612
0.685629
0.685646
0.685663
0.685679
0.685679
0.685696
0.685713
0.68573
0.685747
0.685747
0.685764
0.685782
0.685799
0.685816
0.685816
0.685833
0.68585
0.685867
0.685884
0.685884
0.685901
0.685918
0.685935
0.685953
0.685953
0.68597
0.685987
0.686004
0.686021
0.686021
0.686039
0.686056
0.686073
0.68609
0.68609
0.686108
0.686125
0.686142
0.68616
0.68616
0.686177
0.686194
0.686212
0.686229
0.686229
0.686246
0.686264
0.686281
0.686299
0.686299
0.686316
0.686333
0.686351
0.686368
0.686368
0.686386
0.686403
0.686421
0.686438
0.686438
0.686455
0.686473
0.68649
0.686508
0.686508
0.686525
0.686543
0.68656
0.686578
0.686578
0.686595
0.686612
0.68663
0.686647
0.686647
0.686665
0.686683
0.686701
0.686718
0.686718
0.686736
0.686754
0.686772
0.68679
0.68679
0.686808
0.686826
0.686844
0.686862
0.686862
0.68688
0.686898
0.686916
0.686934
0.686934
0.686952
0.68697
0.686988
0.687005
0.687005
0.687023
0.687041
0.687059
0.687077
0.687077
0.687095
0.687113
0.687131
0.687149
0.687149
0.687167
0.687185
0.687204
0.687222
0.687222
0.68724
0.687258
0.687276
0.687294
0.687294
0.687312
0.68733
0.687348
0.687367
0.687367
0.687385
0.687403
0.687421
0.687439
0.687439
0.687458
0.687476
0.687494
0.687512
0.687512
0.687531
0.687549
0.687567
0.687586
0.687586
0.687604
0.687622
0.687641
0.687659
0.687659
0.687678
0.687696
0.687714
0.687733
0.687733
0.687751
0.68777
0.687788
0.687807
0.687807
0.687825
0.687844
0.687862
0.687881
0.687881
0.687899
0.687918
0.687936
0.687955
0.687955
0.687973
0.687992
0.688011
0.688029
0.688029
0.688048
0.688067
0.688085
0.688104
0.688104
0.688123
0.688141
0.68816
0.688179
0.688179
0.688197
0.688216
0.688235
0.688254
0.688254
0.688273
0.688291
0.68831
0.688329
0.688329
0.688348
0.688367
0.688386
0.688405
0.688405
0.688423
0.688442
0.688461
0.68848
0.68848
0.688499
0.688518
0.688537
0.688556
0.688556
0.688575
0.688594
0.688613
0.688632
0.688632
0.688651
0.68867
0.688689
0.688708
0.688708
0.688727
0.688747
0.688766
0.688785
0.688785
0.688804
0.688823
0.688842
0.688861
0.688861
0.688881
0.6889
0.688919
0.688938
0.688938
0.688958
0.688977
0.688996
0.689015
0.689015
0.689035
0.689054
0.689073
0.689093
0.689093
0.689112
0.689131
0.689151
0.68917
0.68917
0.68919
0.689209
0.689228
0.689248
0.689248
0.689267
0.689287
0.689306
0.689326
0.689326
0.689345
0.689365
0.689384
0.689404
0.689404
0.689423
0.689443
0.689463
0.689482
0.689482
0.689502
0.689521
0.689541
0.689561
0.689561
0.68958
0.6896
0.68962
0.689639
0.689639
0.689659
0.689679
0.689699
0.689718
0.689718
0.689738
0.689758
0.689778
0.689797
0.689797
0.689817
0.689837
0.689857
0.689877
0.689877
0.689897
0.689916
0.689936
0.689956
0.689956
0.689976
0.689996
0.690016
0.690036
0.690036
0.690056
0.690076
0.690096
0.690116
0.690116
0.690136
0.690156
0.690176
0.690196
0.690196
0.690216
0.690236
0.690256
0.690276
0.690276
0.690297
0.690317
0.690337
0.690357
0.690357
0.690377
0.690397
0.690418
0.690438
0.690438
0.690458
0.690478
0.690498
0.690519
0.690519
0.690539
0.690559
0.69058
0.6906
0.6906
0.69062
0.690641
0.690661
0.690681
0.690681
0.690702
0.690722
0.690742
0.690763
0.690763
0.690783
0.690804
0.690824
0.690845
0.690845
0.690865
0.690886
0.690906
0.690927
0.690927
0.690947
0.690968
0.690988
0.691009
0.691009
0.691029
0.69105
0.691071
0.691091
0.691091
0.691112
0.691132
0.691153
0.691174
0.691174
0.691194
0.691215
0.691236
0.691257
0.691257
0.691277
0.691298
0.691319
0.69134
0.69134
0.69136
0.691381
0.691402
0.691423
0.691423
0.691444
0.691465
0.691485
0.691506
0.691506
0.691527
0.691548
0.691569
0.69159
0.69159
0.691611
0.691632
0.691653
0.691674
0.691674
0.691695
0.691716
0.691737
0.691758
0.691758
0.691779
0.6918
0.691821
0.691842
0.691842
0.691863
0.691884
0.691905
0.691926
0.691926
0.691948
0.691969
0.69199
0.692011
0.692011
0.692032
0.692054
0.692075
0.692096
0.692096
0.692117
0.692139
0.69216
0.692181
0.692181
0.692202
0.692224
0.692245
0.692266
0.692266
0.692288
0.692309
0.69233
0.692352
0.692352
0.692373
0.692395
0.692416
0.692438
0.692438
0.692459
0.692481
0.692502
0.692523
0.692523
0.692545
0.692567
0.692588
0.69261
0.69261
0.692631
0.692653
0.692674
0.692696
0.692696
0.692718
0.692739
0.692761
0.692782
0.692782
0.692804
0.692826
0.692847
0.692869
0.692869
0.692891
0.692913
0.692934
0.692956
0.692956
0.692978
0.693
0.693021
0.693043
0.693043
0.693065
0.693087
0.693109
0.693131
0.693131
0.693152
0.693174
0.693196
0.693218
0.693218
0.69324
0.693262
0.693284
0.693306
0.693306
0.693328
0.69335
0.693372
0.693394
0.693394
0.693416
0.693438
0.69346
0.693482
0.693482
0.693504
0.693526
0.693548
0.69357
0.69357
0.693593
0.693615
0.693637
0.693659
0.693659
0.693681
0.693703
0.693726
0.693748
0.693748
0.69377
0.693792
0.693815
0.693837
0.693837
0.693859
0.693881
0.693904
0.693926
0.693926
0.693948
0.693971
0.693993
0.694016
0.694016
0.694038
0.69406
0.694083
0.694105
0.694105
0.694128
0.69415
0.694173
0.694195
0.694195
0.694218
0.69424
0.694263
0.694285
0.694285
0.694308
0.69433
0.694353
0.694375
0.694375
0.694398
0.694421
0.694443
0.694466
0.694466
0.694488
0.694511
0.694534
0.694557
0.694557
0.694579
0.694602
0.694625
0.694647
0.694647
0.69467
0.694693
0.694716
0.694738
0.694738
0.694761
0.694784
0.694807
0.69483
0.69483
0.694853
0.694876
0.694898
0.694921
0.694921
0.694944
0.694967
0.69499
0.695013
0.695013
0.695036
0.695059
0.695082
0.695105
0.695105
0.695128
0.695151
0.695174
0.695197
0.695197
0.69522
0.695243
0.695266
0.695289
0.695289
0.695313
0.695336
0.695359
0.695382
0.695382
0.695405
0.695428
0.695452
0.695475
0.695475
0.695498
0.695521
0.695545
0.695568
0.695568
0.695591
0.695614
0.695638
0.695661
0.695661
0.695684
0.695708
0.695731
0.695754
0.695754
0.695778
0.695801
0.695825
0.695848
0.695848
0.695871
0.695895
0.695918
0.695942
0.695942
0.695965
0.695989
0.696012
0.696036
0.696036
0.696059
0.696083
0.696106
0.69613
0.69613
0.696153
0.696177
0.6962
0.696224
0.696224
0.696247
0.696271
0.696294
0.696318
0.696318
0.696341
0.696365
0.696389
0.696412
0.696412
0.696436
0.696459
0.696483
0.696506
0.696506
0.69653
0.696554
0.696578
0.696602
0.696602
0.696626
0.69665
0.696674
0.696699
0.696699
0.696723
0.696747
0.696771
0.696795
0.696795
0.696819
0.696843
0.696867
0.696891
0.696891
0.696915
0.696939
0.696963
0.696987
0.696987
0.697012
0.697036
0.69706
0.697084
0.697084
0.697108
0.697132
0.697156
0.69718
0.69718
0.697205
0.697229
0.697253
0.697277
0.697277
0.697301
0.697326
0.69735
0.697374
0.697374
0.697398
0.697423
0.697447
0.697471
0.697471
0.697496
0.69752
0.697544
0.697569
0.697569
0.697593
0.697618
0.697642
0.697666
0.697666
0.697691
0.697715
0.69774
0.697764
0.697764
0.697789
0.697813
0.697838
0.697862
0.697862
0.697887
0.697911
0.697936
0.69796
0.69796
0.697985
0.69801
0.698034
0.698059
0.698059
0.698083
0.698108
0.698133
0.698157
0.698157
0.698182
0.698207
0.698232
0.698256
0.698256
0.698281
0.698306
0.698331
0.698355
0.698355
0.69838
0.698405
0.69843
0.698455
0.698455
0.69848
0.698504
0.698529
0.698554
0.698554
0.698579
0.698604
0.698629
0.698654
0.698654
0.698679
0.698704
0.698729
0.698754
0.698754
0.698779
0.698804
0.698829
0.698854
0.698854
0.698879
0.698904
0.698929
0.698954
0.698954
0.698979
0.699005
0.69903
0.699055
0.699055
0.69908
0.699105
0.69913
0.699156
0.699156
0.699181
0.699206
0.699231
0.699257
0.699257
0.699282
0.699307
0.699333
0.699358
0.699358
0.699383
0.699409
0.699434
0.699459
0.699459
0.699485
0.69951
0.699535
0.699561
0.699561
0.699586
0.699612
0.699637
0.699663
0.699663
0.699688
0.699714
0.699739
0.699765
0.699765
0.69979
0.699816
0.699841
0.699867
0.699867
0.699893
0.699918
0.699944
0.699969
0.699969
0.699995
0.700021
0.700046
0.700072
0.700072
0.700098
0.700124
0.700149
0.700175
0.700175
0.700201
0.700227
0.700252
0.700278
0.700278
0.700304
0.70033
0.700356
0.700381
0.700381
0.700407
0.700433
0.700459
0.700485
0.700485
0.700511
0.700537
0.700563
0.700589
0.700589
0.700615
0.700641
0.700667
0.700693
0.700693
0.700719
0.700745
0.700771
0.700797
0.700797
0.700823
0.700849
0.700875
0.700901
0.700901
0.700927
0.700953
0.70098
0.701006
0.701006
0.701032
0.701058
0.701084
0.701111
0.701111
0.701137
0.701163
0.701189
0.701216
0.701216
0.701242
0.701268
0.701295
0.701321
0.701321
0.701347
0.701374
0.7014
0.701426
0.701426
0.701453
0.701479
0.701506
0.701532
0.701532
0.701558
0.701585
0.701611
0.701638
0.701638
0.701664
0.701691
0.701717
0.701744
0.701744
0.70177
0.701797
0.701824
0.70185
0.70185
0.701877
0.701903
0.70193
0.701957
0.701957
0.701983
0.70201
0.702037
0.702063
0.702063
0.70209
0.702117
0.702144
0.70217
0.70217
0.702197
0.702224
0.702251
0.702278
0.702278
0.702304
0.702331
0.702358
0.702385
0.702385
0.702412
0.702439
0.702466
0.702492
0.702492
0.702519
0.702546
0.702573
0.7026
0.7026
0.702627
0.702654
0.702681
0.702708
0.702708
0.702735
0.702762
0.702789
0.702816
0.702816
0.702844
0.702871
0.702898
0.702925
0.702925
0.702952
0.702979
0.703006
0.703034
0.703034
0.703061
0.703088
0.703115
0.703142
0.703142
0.70317
0.703197
0.703224
0.703252
0.703252
0.703279
0.703306
0.703333
0.703361
0.703361
0.703388
0.703416
0.703443
0.70347
0.70347
0.703498
0.703525
0.703553
0.70358
0.70358
0.703607
0.703635
0.703662
0.70369
0.70369
0.703717
0.703745
0.703773
0.7038
0.7038
0.703828
0.703855
0.703883
0.70391
0.70391
0.703938
0.703966
0.703993
0.704021
0.704021
0.704049
0.704076
0.704104
0.704132
0.704132
0.70416
0.704187
0.704215
0.704243
0.704243
0.704271
0.704298
0.704326
0.704354
0.704354
0.704382
0.70441
0.704438
0.704466
0.704466
0.704493
0.704521
0.704549
0.704577
0.704577
0.704605
0.704633
0.704661
0.704689
0.704689
0.704717
0.704745
0.704773
0.704801
0.704801
0.704829
0.704857
0.704885
0.704913
0.704913
0.704942
0.70497
0.704998
0.705026
0.705026
0.705054
0.705082
0.70511
0.705139
0.705139
0.705167
0.705195
0.705223
0.705252
0.705252
0.70528
0.705308
0.705336
0.705365
0.705365
0.705393
0.705421
0.70545
0.705478
0.705478
0.705507
0.705535
0.705563
0.705592
0.705592
0.70562
0.705649
0.705677
0.705706
0.705706
0.705734
0.705762
0.705791
0.70582
0.70582
0.705848
0.705877
0.705905
0.705934
0.705934
0.705962
0.705991
0.706019
0.706048
0.706048
0.706077
0.706105
0.706134
0.706163
0.706163
0.706191
0.70622
0.706248
0.706277
0.706277
0.706306
0.706334
0.706363
0.706392
0.706392
0.70642
0.706449
0.706477
0.706506
0.706506
0.706535
0.706563
0.706592
0.706621
0.706621
0.70665
0.706679
0.706708
0.706737
0.706737
0.706766
0.706795
0.706825
0.706854
0.706854
0.706883
0.706912
0.706941
0.706971
0.706971
0.707
0.707029
0.707058
0.707088
0.707088
0.707117
0.707146
0.707175
0.707204
0.707204
0.707234
0.707263
0.707292
0.707321
0.707321
0.707351
0.70738
0.707409
0.707438
0.707438
0.707468
0.707497
0.707526
0.707556
0.707556
0.707585
0.707614
0.707644
0.707673
0.707673
0.707703
0.707732
0.707761
0.707791
0.707791
0.70782
0.70785
0.707879
0.707909
0.707909
0.707938
0.707968
0.707997
0.708027
0.708027
0.708056
0.708086
0.708116
0.708145
0.708145
0.708175
0.708204
0.708234
0.708264
0.708264
0.708293
0.708323
0.708353
0.708383
0.708383
0.708412
0.708442
0.708472
0.708502
0.708502
0.708531
0.708561
0.708591
0.708621
0.708621
0.708651
0.70868
0.70871
0.70874
0.70874
0.70877
0.7088
0.70883
0.70886
0.70886
0.70889
0.70892
0.70895
0.70898
0.70898
0.70901
0.70904
0.70907
0.7091
0.7091
0.70913
0.70916
0.70919
0.70922
0.70922
0.70925
0.70928
0.70931
0.709341
0.709341
0.709371
0.709401
0.709431
0.709461
0.709461
0.709491
0.709522
0.709552
0.709582
0.709582
0.709612
0.709643
0.709673
0.709703
0.709703
0.709734
0.709764
0.709794
0.709825
0.709825
0.709855
0.709885
0.709916
0.709946
0.709946
0.709977
0.710007
0.710038
0.710068
0.710068
0.710099
0.710129
0.71016
0.71019
0.71019
0.710221
0.710251
0.710282
0.710312
0.710312
0.710343
0.710374
0.710404
0.710435
0.710435
0.710465
0.710496
0.710527
0.710558
0.710558
0.710588
0.710619
0.71065
0.71068
0.71068
0.710711
0.710742
0.710773
0.710804
0.710804
0.710834
0.710865
0.710896
0.710927
0.710927
0.710958
0.710989
0.711019
0.71105
0.71105
0.711081
0.711112
0.711143
0.711174
0.711174
0.711205
0.711236
0.711267
0.711298
0.711298
0.711329
0.71136
0.711391
0.711422
0.711422
0.711453
0.711485
0.711516
0.711547
0.711547
0.711578
0.711609
0.71164
0.711671
0.711671
0.711703
0.711734
0.711765
0.711796
0.711796
0.711827
0.711859
0.71189
0.711921
0.711921
0.711953
0.711984
0.712015
0.712047
0.712047
0.712078
0.712109
0.712141
0.712172
0.712172
0.712203
0.712235
0.712266
0.712298
0.712298
0.712329
0.712361
0.712392
0.712424
0.712424
0.712455
0.712487
0.712518
0.71255
0.71255
0.712581
0.712613
0.712645
0.712676
0.712676
0.712708
0.71274
0.712771
0.712803
0.712803
0.712835
0.712866
0.712898
0.71293
0.71293
0.712961
0.712993
0.713025
0.713057
0.713057
0.713088
0.71312
0.713152
0.713184
0.713184
0.713216
0.713248
0.71328
0.713311
0.713311
0.713343
0.713375
0.713407
0.713439
0.713439
0.713471
0.713503
0.713535
0.713567
0.713567
0.713599
0.713631
0.713663
0.713695
0.713695
0.713727
0.713759
0.713791
0.713823
0.713823
0.713856
0.713888
0.71392
0.713952
0.713952
0.713984
0.714016
0.714049
0.714081
0.714081
0.714113
0.714145
0.714177
0.71421
0.71421
0.714242
0.714274
0.714307
0.714339
0.714339
0.714371
0.714404
0.714436
0.714468
0.714468
0.714501
0.714533
0.714566
0.714598
0.714598
0.71463
0.714663
0.714695
0.714728
0.714728
0.71476
0.714793
0.714825
0.714858
0.714858
0.714891
0.714923
0.714956
0.714988
0.714988
0.715021
0.715053
0.715086
0.715119
0.715119
0.715151
0.715184
0.715217
0.715249
0.715249
0.715282
0.715315
0.715348
0.71538
0.71538
0.715413
0.715446
0.715479
0.715512
0.715512
0.715544
0.715577
0.71561
0.715643
0.715643
0.715676
0.715709
0.715742
0.715775
0.715775
0.715808
0.71584
0.715873
0.715906
0.715906
0.715939
0.715972
0.716005
0.716038
0.716038
0.716071
0.716105
0.716138
0.716171
0.716171
0.716204
0.716237
0.71627
0.716303
0.716303
0.716336
0.716369
0.716402
0.716435
0.716435
0.716468
0.716502
0.716535
0.716568
0.716568
0.716601
0.716634
0.716667
0.7167
0.7167
0.716733
0.716766
0.716799
0.716832
0.716832
0.716866
0.716899
0.716932
0.716966
0.716966
0.716999
0.717033
0.717067
0.7171
0.7171
0.717134
0.717168
0.717202
0.717235