<?xml version="1.0"?>
<VTKFile type="UnstructuredGrid" version="0.1" byte_order="LittleEndian">
<UnstructuredGrid>
<Piece NumberOfPoints="5000" NumberOfCells="4000">
<PointData Scalars="Reaction 0">
<DataArray type="Float32" Name="Reaction 0" format="ascii">
0.581762
0.581762
0.581762
0.581762
0.581762
0.581762
0.581762
0.581762
0.581762
0.581762
0.581762
0.581762
0.581762
0.581762
0.581762
0.581762
0.581762
0.581762
0.581762
0.581762
0.581762
0.581762
0.581762
0.581762
0.581762
0.581762
0.581762
0.581762
0.581762
0.581762
0.581762
0.581762
0.581762
0.581763
0.581763
0.581763
0.581763
0.581763
0.581763
0.581763
0.581763
0.581763
0.581763
0.581763
0.581763
0.581763
0.581763
0.581763
0.581763
0.581763
0.581763
0.581763
0.581763
0.581763
0.581764
0.581764
0.581764
0.581764
0.581764
0.581764
0.581764
0.581764
0.581764
0.581764
0.581764
0.581764
0.581764
0.581764
0.581764
0.581765
0.581765
0.581765
0.581765
0.581765
0.581765
0.581765
0.581765
0.581765
0.581765
0.581765
0.581765
0.581766
0.581766
0.581766
0.581766
0.581766
0.581766
0.581766
0.581766
0.581766
0.581766
0.581766
0.581767
0.581767
0.581767
0.581767
0.581767
0.581767
0.581767
0.581767
0.581767
0.581768
0.581768
0.581768
0.581768
0.581768
0.581768
0.581768
0.581768
0.581769
0.581769
0.581769
0.581769
0.581769
0.581769
0.581769
0.581769
0.581769
0.58177
0.58177
0.58177
0.58177
0.58177
0.58177
0.58177
0.58177
0.581771
0.581771
0.581771
0.581771
0.581771
0.581771
0.581772
0.581772
0.581772
0.581772
0.581772
0.581772
0.581772
0.581773
0.581773
0.581773
0.581773
0.581773
0.581773
0.581773
0.581774
0.581774
0.581774
0.581774
0.581774
0.581774
0.581775
0.581775
0.581775
0.581775
0.581775
0.581776
0.581776
0.581776
0.581776
0.581776
0.581776
0.581777
0.581777
0.581777
0.581777
0.581777
0.581778
0.581778
0.581778
0.581778
0.581778
0.581779
0.581779
0.581779
0.581779
0.581779
0.581779
0.58178
0.58178
0.58178
0.58178
0.58178
0.581781
0.581781
0.581781
0.581781
0.581782
0.581782
0.581782
0.581782
0.581782
0.581783
0.581783
0.581783
0.581783
0.581783
0.581784
0.581784
0.581784
0.581784
0.581784
0.581785
0.581785
0.581785
0.581785
0.581786
0.581786
0.581786
0.581786
0.581786
0.581787
0.581787
0.581787
0.581787
0.581788
0.581788
0.581788
0.581789
0.581789
0.581789
0.581789
0.581789
0.58179
0.58179
0.58179
0.58179
0.581791
0.581791
0.581791
0.581791
0.581792
0.581792
0.581792
0.581792
0.581793
0.581793
0.581793
0.581794
0.581794
0.581794
0.581794
0.581795
0.581795
0.581795
0.581795
0.581796
0.581796
0.581796
0.581796
0.581797
0.581797
0.581797
0.581798
0.581798
0.581798
0.581798
0.581799
0.581799
0.581799
0.581799
0.5818
0.5818
0.581801
0.581801
0.581801
0.581801
0.581802
0.581802
0.581802
0.581802
0.581803
0.581803
0.581804
0.581804
0.581804
0.581804
0.581805
0.581805
0.581805
0.581805
0.581806
0.581806
0.581807
0.581807
0.581807
0.581807
0.581808
0.581808
0.581808
0.581809
0.581809
0.581809
0.58181
0.58181
0.58181
0.581811
0.581811
0.581811
0.581811
0.581812
0.581812
0.581813
0.581813
0.581813
0.581814
0.581814
0.581814
0.581815
0.581815
0.581815
0.581816
0.581816
0.581817
0.581817
0.581817
0.581817
0.581818
0.581818
0.581818
0.581819
0.581819
0.58182
0.58182
0.58182
0.581821
0.581821
0.581821
0.581822
0.581822
0.581822
0.581823
0.581823
0.581824
0.581824
0.581824
0.581825
0.581825
0.581826
0.581826
0.581826
0.581827
0.581827
0.581828
0.581828
0.581828
0.581828
0.581829
0.581829
0.581829
0.58183
0.58183
0.581831
0.581831
0.581831
0.581832
0.581832
0.581833
0.581833
0.581833
0.581834
0.581834
0.581835
0.581835
0.581835
0.581836
0.581836
0.581837
0.581837
0.581837
0.581838
0.581838
0.581839
0.581839
0.581839
0.58184
0.581841
0.581841
0.581842
0.581842
0.581842
0.581843
0.581843
0.581844
0.581844
0.581844
0.581845
0.581845
0.581846
0.581846
0.581846
0.581847
0.581847
0.581848
0.581848
0.581849
0.581849
0.58185
0.58185
0.58185
0.581851
0.581851
0.581852
0.581852
0.581852
0.581853
0.581854
0.581854
0.581855
0.581855
0.581855
0.581856
0.581856
0.581857
0.581857
0.581858
0.581858
0.581859
0.581859
0.581859
0.58186
0.58186
0.581861
0.581862
0.581862
0.581862
0.581863
0.581863
0.581864
0.581864
0.581865
0.581865
0.581866
0.581866
0.581866
0.581867
0.581868
0.581868
0.581869
0.581869
0.581869
0.58187
0.581871
0.581871
0.581871
0.581872
0.581872
0.581873
0.581874
0.581874
0.581874
0.581875
0.581876
0.581876
0.581876
0.581877
0.581878
0.581878
0.581879
0.581879
0.581879
0.58188
0.581881
0.581881
0.581881
0.581882
0.581883
0.581883
0.581884
0.581884
0.581885
0.581885
0.581886
0.581887
0.581887
0.581887
0.581888
0.581889
0.581889
0.581889
0.58189
0.581891
0.581891
0.581892
0.581892
0.581893
0.581893
0.581894
0.581895
0.581895
0.581895
0.581896
0.581897
0.581897
0.581897
0.581898
0.581899
0.581899
0.5819
0.5819
0.581901
0.581901
0.581902
0.581903
0.581903
0.581904
0.581904
0.581905
0.581906
0.581906
0.581906
0.581907
0.581908
0.581909
0.581909
0.581909
0.58191
0.581911
0.581911
0.581911
0.581912
0.581913
0.581914
0.581914
0.581914
0.581915
0.581916
0.581917
0.581917
0.581917
0.581918
0.581919
0.581919
0.58192
0.58192
0.581921
0.581922
0.581922
0.581923
0.581923
0.581924
0.581925
0.581925
0.581926
0.581926
0.581927
0.581928
0.581929
0.581929
0.581929
0.58193
0.581931
0.581932
0.581932
0.581932
0.581933
0.581934
0.581935
0.581935
0.581935
0.581936
0.581937
0.581938
0.581939
0.581939
0.581939
0.58194
0.581941
0.581942
0.581942
0.581943
0.581943
0.581944
0.581945
0.581945
0.581946
0.581947
0.581947
0.581948
0.581948
0.581949
0.58195
0.581951
0.581951
0.581951
0.581952
0.581953
0.581954
0.581955
0.581955
0.581956
0.581956
0.581957
0.581958
0.581958
0.581959
0.58196
0.58196
0.581961
0.581961
0.581962
0.581963
0.581964
0.581965
0.581965
0.581966
0.581966
0.581967
0.581968
0.581968
0.581969
0.58197
0.581971
0.581972
0.581972
0.581972
0.581973
0.581974
0.581975
0.581975
0.581976
0.581977
0.581978
0.581978
0.581978
0.581979
0.58198
0.581981
0.581982
0.581982
0.581983
0.581984
0.581985
0.581985
0.581985
0.581986
0.581987
0.581988
0.581989
0.581989
0.58199
0.581991
0.581992
0.581993
0.581993
0.581994
0.581994
0.581995
0.581996
0.581996
0.581997
0.581998
0.581999
0.582
0.582
0.582001
0.582002
0.582003
0.582004
0.582004
0.582005
0.582005
0.582006
0.582007
0.582007
0.582008
0.582009
0.58201
0.582011
0.582011
0.582012
0.582013
0.582014
0.582015
0.582015
0.582016
0.582017
0.582018
0.582019
0.582019
0.58202
0.58202
0.582021
0.582022
0.582022
0.582023
0.582024
0.582025
0.582026
0.582026
0.582027
0.582028
0.582029
0.58203
0.58203
0.582031
0.582032
0.582033
0.582034
0.582034
0.582035
0.582036
0.582037
0.582038
0.582038
0.582039
0.58204
0.582041
0.582042
0.582042
0.582043
0.582044
0.582045
0.582046
0.582046
0.582047
0.582048
0.582049
0.58205
0.58205
0.582051
0.582052
0.582053
0.582054
0.582054
0.582055
0.582056
0.582057
0.582058
0.582058
0.582059
0.58206
0.582061
0.582062
0.582062
0.582063
0.582064
0.582065
0.582066
0.582066
0.582067
0.582068
0.58207
0.582071
0.582071
0.582072
0.582073
0.582074
0.582075
0.582075
0.582076
0.582077
0.582078
0.582079
0.582079
0.58208
0.582081
0.582082
0.582083
0.582083
0.582084
0.582085
0.582086
0.582088
0.582088
0.582089
0.58209
0.582091
0.582092
0.582092
0.582093
0.582094
0.582095
0.582096
0.582096
0.582097
0.582098
0.5821
0.582101
0.582101
0.582102
0.582103
0.582104
0.582105
0.582105
0.582106
0.582107
0.582108
0.582109
0.582109
0.582111
0.582112
0.582113
0.582114
0.582114
0.582115
0.582116
0.582117
0.582118
0.582118
0.58212
0.582121
0.582122
0.582123
0.582123
0.582124
0.582125
0.582126
0.582128
0.582128
0.582129
0.58213
0.582131
0.582132
0.582132
0.582133
0.582134
0.582136
0.582137
0.582137
0.582138
0.582139
0.58214
0.582141
0.582141
0.582143
0.582144
0.582145
0.582146
0.582146
0.582147
0.582148
0.58215
0.582151
0.582151
0.582152
0.582153
0.582154
0.582156
0.582156
0.582157
0.582158
0.582159
0.58216
0.58216
0.582161
0.582163
0.582164
0.582165
0.582165
0.582166
0.582167
0.582169
0.58217
0.58217
0.582171
0.582172
0.582174
0.582175
0.582175
0.582176
0.582177
0.582178
0.58218
0.58218
0.582181
0.582182
0.582183
0.582185
0.582185
0.582186
0.582187
0.582188
0.58219
0.58219
0.582191
0.582192
0.582193
0.582194
0.582194
0.582196
0.582197
0.582198
0.582199
0.582199
0.582201
0.582202
0.582203
0.582205
0.582205
0.582206
0.582207
0.582208
0.58221
0.58221
0.582211
0.582212
0.582213
0.582215
0.582215
0.582216
0.582217
0.582219
0.58222
0.58222
0.582221
0.582222
0.582224
0.582225
0.582225
0.582226
0.582228
0.582229
0.58223
0.58223
0.582231
0.582233
0.582234
0.582235
0.582235
0.582237
0.582238
0.582239
0.582241
0.582241
0.582242
0.582243
0.582245
0.582246
0.582246
0.582247
0.582249
0.58225
0.582251
0.582251
0.582253
0.582254
0.582255
0.582257
0.582257
0.582258
0.582259
0.582261
0.582262
0.582262
0.582263
0.582265
0.582266
0.582267
0.582267
0.582269
0.58227
0.582271
0.582273
0.582273
0.582274
0.582275
0.582277
0.582278
0.582278
0.582279
0.582281
0.582282
0.582283
0.582283
0.582285
0.582286
0.582288
0.582289
0.582289
0.582291
0.582292
0.582293
0.582295
0.582295
0.582296
0.582298
0.582299
0.5823
0.5823
0.582302
0.582303
0.582305
0.582306
0.582306
0.582307
0.582309
0.58231
0.582312
0.582312
0.582313
0.582314
0.582316
0.582317
0.582317
0.582319
0.58232
0.582322
0.582323
0.582323
0.582324
0.582326
0.582327
0.582329
0.582329
0.58233
0.582332
0.582333
0.582335
0.582335
0.582336
0.582337
0.582339
0.58234
0.58234
0.582342
0.582343
0.582345
0.582346
0.582346
0.582348
0.582349
0.582351
0.582352
0.582352
0.582354
0.582355
0.582356
0.582358
0.582358
0.582359
0.582361
0.582362
0.582364
0.582364
0.582365
0.582367
0.582368
0.58237
0.58237
0.582371
0.582373
0.582374
0.582376
0.582376
0.582377
0.582379
0.58238
0.582382
0.582382
0.582383
0.582385
0.582386
0.582388
0.582388
0.582389
0.582391
0.582392
0.582394
0.582394
0.582396
0.582397
0.582399
0.5824
0.5824
0.582402
0.582403
0.582405
0.582406
0.582406
0.582408
0.582409
0.582411
0.582412
0.582412
0.582414
0.582416
0.582417
0.582419
0.582419
0.58242
0.582422
0.582423
0.582425
0.582425
0.582426
0.582428
0.58243
0.582431
0.582431
0.582433
0.582434
0.582436
0.582437
0.582437
0.582439
0.582441
0.582442
0.582444
0.582444
0.582445
0.582447
0.582449
0.58245
0.58245
0.582452
0.582453
0.582455
0.582457
0.582457
0.582458
0.58246
0.582461
0.582463
0.582463
0.582465
0.582466
0.582468
0.582469
0.582469
0.582471
0.582473
0.582474
0.582476
0.582476
0.582478
0.582479
0.582481
0.582482
0.582482
0.582484
0.582486
0.582487
0.582489
0.582489
0.582491
0.582492
0.582494
0.582496
0.582496
0.582497
0.582499
0.582501
0.582502
0.582502
0.582504
0.582506
0.582507
0.582509
0.582509
0.582511
0.582512
0.582514
0.582516
0.582516
0.582517
0.582519
0.582521
0.582522
0.582522
0.582524
0.582526
0.582527
0.582529
0.582529
0.582531
0.582532
0.582534
0.582536
0.582536
0.582538
0.582539
0.582541
0.582543
0.582543
0.582544
0.582546
0.582548
0.582549
0.582549
0.582551
0.582553
0.582555
0.582556
0.582556
0.582558
0.58256
0.582562
0.582563
0.582563
0.582565
0.582567
0.582568
0.58257
0.58257
0.582572
0.582574
0.582575
0.582577
0.582577
0.582579
0.582581
0.582582
0.582584
0.582584
0.582586
0.582588
0.58259
0.582591
0.582591
0.582593
0.582595
0.582597
0.582598
0.582598
0.5826
0.582602
0.582604
0.582605
0.582605
0.582607
0.582609
0.582611
0.582613
0.582613
0.582614
0.582616
0.582618
0.58262
0.58262
0.582622
0.582623
0.582625
0.582627
0.582627
0.582629
0.582631
0.582632
0.582634
0.582634
0.582636
0.582638
0.58264
0.582641
0.582641
0.582643
0.582645
0.582647
0.582649
0.582649
0.582651
0.582652
0.582654
0.582656
0.582656
0.582658
0.58266
0.582662
0.582663
0.582663
0.582665
0.582667
0.582669
0.582671
0.582671
0.582673
0.582675
0.582676
0.582678
0.582678
0.58268
0.582682
0.582684
0.582686
0.582686
0.582688
0.58269
0.582691
0.582693
0.582693
0.582695
0.582697
0.582699
0.582701
0.582701
0.582703
0.582705
0.582707
0.582708
0.582708
0.58271
0.582712
0.582714
0.582716
0.582716
0.582718
0.58272
0.582722
0.582724
0.582724
0.582726
0.582727
0.582729
0.582731
0.582731
0.582733
0.582735
0.582737
0.582739
0.582739
0.582741
0.582743
0.582745
0.582747
0.582747
0.582749
0.582751
0.582753
0.582755
0.582755
0.582756
0.582758
0.58276
0.582762
0.582762
0.582764
0.582766
0.582768
0.58277
0.58277
0.582772
0.582774
0.582776
0.582778
0.582778
0.58278
0.582782
0.582784
0.582786
0.582786
0.582788
0.58279
0.582792
0.582794
0.582794
0.582796
0.582798
0.5828
0.582802
0.582802
0.582804
0.582806
0.582808
0.58281
0.58281
0.582812
0.582814
0.582816
0.582818
0.582818
0.58282
0.582822
0.582824
0.582826
0.582826
0.582828
0.58283
0.582832
0.582834
0.582834
0.582836
0.582838
0.58284
0.582842
0.582842
0.582844
0.582846
0.582848
0.58285
0.58285
0.582852
0.582855
0.582857
0.582859
0.582859
0.582861
0.582863
0.582865
0.582867
0.582867
0.582869
0.582871
0.582873
0.582875
0.582875
0.582877
0.582879
0.582881
0.582884
0.582884
0.582886
0.582888
0.58289
0.582892
0.582892
0.582894
0.582896
0.582898
0.5829
0.5829
0.582902
0.582904
0.582907
0.582909
0.582909
0.582911
0.582913
0.582915
0.582917
0.582917
0.582919
0.582921
0.582923
0.582926
0.582926
0.582928
0.58293
0.582932
0.582934
0.582934
0.582936
0.582938
0.582941
0.582943
0.582943
0.582945
0.582947
0.582949
0.582951
0.582951
0.582953
0.582956
0.582958
0.58296
0.58296
0.582962
0.582964
0.582966
0.582969
0.582969
0.582971
0.582973
0.582975
0.582977
0.582977
0.582979
0.582982
0.582984
0.582986
0.582986
0.582988
0.58299
0.582993
0.582995
0.582995
0.582997
0.582999
0.583001
0.583004
0.583004
0.583006
0.583008
0.58301
0.583012
0.583012
0.583015
0.583017
0.583019
0.583021
0.583021
0.583024
0.583026
0.583028
0.58303
0.58303
0.583032
0.583035
0.583037
0.583039
0.583039
0.583041
0.583044
0.583046
0.583048
0.583048
0.58305
0.583053
0.583055
0.583057
0.583057
0.583059
0.583062
0.583064
0.583066
0.583066
0.583068
0.583071
0.583073
0.583075
0.583075
0.583078
0.58308
0.583082
0.583084
0.583084
0.583087
0.583089
0.583091
0.583094
0.583094
0.583096
0.583098
0.5831
0.583103
0.583103
0.583105
0.583107
0.58311
0.583112
0.583112
0.583114
0.583117
0.583119
0.583121
0.583121
0.583124
0.583126
0.583128
0.583131
0.583131
0.583133
0.583135
0.583138
0.58314
0.58314
0.583142
0.583145
0.583147
0.583149
0.583149
0.583152
0.583154
0.583156
0.583159
0.583159
0.583161
0.583163
0.583166
0.583168
0.583168
0.583171
0.583173
0.583175
0.583178
0.583178
0.58318
0.583182
0.583185
0.583187
0.583187
0.58319
0.583192
0.583194
0.583197
0.583197
0.583199
0.583202
0.583204
0.583206
0.583206
0.583209
0.583211
0.583214
0.583216
0.583216
0.583218
0.583221
0.583223
0.583226
0.583226
0.583228
0.583231
0.583233
0.583235
0.583235
0.583238
0.58324
0.583243
0.583245
0.583245
0.583248
0.58325
0.583252
0.583255
0.583255
0.583257
0.58326
0.583262
0.583265
0.583265
0.583267
0.58327
0.583272
0.583275
0.583275
0.583277
0.58328
0.583282
0.583284
0.583284
0.583287
0.583289
0.583292
0.583294
0.583294
0.583297
0.583299
0.583302
0.583304
0.583304
0.583307
0.583309
0.583312
0.583314
0.583314
0.583317
0.583319
0.583322
0.583324
0.583324
0.583327
0.583329
0.583332
0.583334
0.583334
0.583337
0.58334
0.583342
0.583345
0.583345
0.583347
0.58335
0.583352
0.583355
0.583355
0.583357
0.58336
0.583362
0.583365
0.583365
0.583367
0.58337
0.583373
0.583375
0.583375
0.583378
0.58338
0.583383
0.583385
0.583385
0.583388
0.583391
0.583393
0.583396
0.583396
0.583398
0.583401
0.583403
0.583406
0.583406
0.583409
0.583411
0.583414
0.583416
0.583416
0.583419
0.583422
0.583424
0.583427
0.583427
0.583429
0.583432
0.583435
0.583437
0.583437
0.58344
0.583443
0.583445
0.583448
0.583448
0.58345
0.583453
0.583456
0.583458
0.583458
0.583461
0.583464
0.583466
0.583469
0.583469
0.583472
0.583474
0.583477
0.58348
0.58348
0.583482
0.583485
0.583488
0.58349
0.58349
0.583493
0.583496
0.583498
0.583501
0.583501
0.583504
0.583506
0.583509
0.583512
0.583512
0.583514
0.583517
0.58352
0.583522
0.583522
0.583525
0.583528
0.58353
0.583533
0.583533
0.583536
0.583539
0.583541
0.583544
0.583544
0.583547
0.583549
0.583552
0.583555
0.583555
0.583558
0.58356
0.583563
0.583566
0.583566
0.583569
0.583571
0.583574
0.583577
0.583577
0.58358
0.583582
0.583585
0.583588
0.583588
0.583591
0.583593
0.583596
0.583599
0.583599
0.583602
0.583604
0.583607
0.58361
0.58361
0.583613
0.583615
0.583618
0.583621
0.583621
0.583624
0.583627
0.583629
0.583632
0.583632
0.583635
0.583638
0.583641
0.583643
0.583643
0.583646
0.583649
0.583652
0.583655
0.583655
0.583657
0.58366
0.583663
0.583666
0.583666
0.583669
0.583672
0.583674
0.583677
0.583677
0.58368
0.583683
0.583686
0.583689
0.583689
0.583691
0.583694
0.583697
0.5837
0.5837
0.583703
0.583706
0.583709
0.583711
0.583711
0.583714
0.583717
0.58372
0.583723
0.583723
0.583726
0.583729
0.583732
0.583734
0.583734
0.583737
0.58374
0.583743
0.583746
0.583746
0.583749
0.583752
0.583755
0.583758
0.583758
0.58376
0.583763
0.583766
0.583769
0.583769
0.583772
0.583775
0.583778
0.58378
0.58378
0.583783
0.583786
0.583789
0.583792
0.583792
0.583795
0.583798
0.583801
0.583804
0.583804
0.583807
0.58381
0.583813
0.583816
0.583816
0.583819
0.583822
0.583825
0.583828
0.583828
0.583831
0.583834
0.583837
0.58384
0.58384
0.583843
0.583846
0.583849
0.583852
0.583852
0.583855
0.583858
0.583861
0.583864
0.583864
0.583867
0.58387
0.583873
0.583876
0.583876
0.583879
0.583882
0.583885
0.583888
0.583888
0.583891
0.583894
0.583897
0.5839
0.5839
0.583903
0.583906
0.583909
0.583912
0.583912
0.583915
0.583918
0.583921
0.583924
0.583924
0.583927
0.58393
0.583933
0.583936
0.583936
0.58394
0.583943
0.583946
0.583949
0.583949
0.583952
0.583955
0.583958
0.583961
0.583961
0.583964
0.583967
0.58397
0.583973
0.583973
0.583976
0.58398
0.583983
0.583986
0.583986
0.583989
0.583992
0.583995
0.583998
0.583998
0.584001
0.584004
0.584007
0.584011
0.584011
0.584014
0.584017
0.58402
0.584023
0.584023
0.584026
0.584029
0.584033
0.584036
0.584036
0.584039
0.584042
0.584045
0.584048
0.584048
0.584051
0.584055
0.584058
0.584061
0.584061
0.584064
0.584067
0.58407
0.584074
0.584074
0.584077
0.58408
0.584083
0.584086
0.584086
0.584089
0.584093
0.584096
0.584099
0.584099
0.584102
0.584105
0.584109
0.584112
0.584112
0.584115
0.584118
0.584122
0.584125
0.584125
0.584128
0.584131
0.584134
0.584138
0.584138
0.584141
0.584144
0.584147
0.584151
0.584151
0.584154
0.584157
0.58416
0.584164
0.584164
0.584167
0.58417
0.584173
0.584177
0.584177
0.58418
0.584183
0.584186
0.58419
0.58419
0.584193
0.584196
0.584199
0.584203
0.584203
0.584206
0.584209
0.584213
0.584216
0.584216
0.584219
0.584222
0.584226
0.584229
0.584229
0.584232
0.584236
0.584239
0.584242
0.584242
0.584246
0.584249
0.584252
0.584256
0.584256
0.584259
0.584262
0.584266
0.584269
0.584269
0.584272
0.584276
0.584279
0.584282
0.584282
0.584286
0.584289
0.584292
0.584296
0.584296
0.584299
0.584302
0.584306
0.584309
0.584309
0.584313
0.584316
0.584319
0.584323
0.584323
0.584326
0.584329
0.584333
0.584336
0.584336
0.58434
0.584343
0.584346
0.58435
0.58435
0.584353
0.584357
0.58436
0.584363
0.584363
0.584367
0.58437
0.584374
0.584377
0.584377
0.584381
0.584384
0.584387
0.584391
0.584391
0.584394
0.584398
0.584401
0.584405
0.584405
0.584408
0.584412
0.584415
0.584418
0.584418
0.584422
0.584425
0.584429
0.584432
0.584432
0.584436
0.584439
0.584443
0.584446
0.584446
0.58445
0.584453
0.584457
0.58446
0.58446
0.584464
0.584467
0.584471
0.584474
0.584474
0.584478
0.584481
0.584485
0.584488
0.584488
0.584492
0.584495
0.584499
0.584502
0.584502
0.584506
0.584509
0.584513
0.584517
0.584517
0.58452
0.584524
0.584527
0.584531
0.584531
0.584534
0.584538
0.584541
0.584545
0.584545
0.584548
0.584552
0.584556
0.584559
0.584559
0.584563
0.584566
0.58457
0.584574
0.584574
0.584577
0.584581
0.584584
0.584588
0.584588
0.584591
0.584595
0.584599
0.584602
0.584602
0.584606
0.58461
0.584613
0.584617
0.584617
0.58462
0.584624
0.584628
0.584631
0.584631
0.584635
0.584639
0.584642
0.584646
0.584646
0.584649
0.584653
0.584657
0.58466
0.58466
0.584664
0.584668
0.584671
0.584675
0.584675
0.584679
0.584682
0.584686
0.58469
0.58469
0.584693
0.584697
0.584701
0.584705
0.584705
0.584708
0.584712
0.584716
0.584719
0.584719
0.584723
0.584727
0.58473
0.584734
0.584734
0.584738
0.584742
0.584745
0.584749
0.584749
0.584753
0.584757
0.58476
0.584764
0.584764
0.584768
0.584771
0.584775
0.584779
0.584779
0.584783
0.584786
0.58479
0.584794
0.584794
0.584798
0.584802
0.584805
0.584809
0.584809
0.584813
0.584817
0.58482
0.584824
0.584824
0.584828
0.584832
0.584836
0.584839
0.584839
0.584843
0.584847
0.584851
0.584855
0.584855
0.584858
0.584862
0.584866
0.58487
0.58487
0.584874
0.584878
0.584881
0.584885
0.584885
0.584889
0.584893
0.584897
0.584901
0.584901
0.584904
0.584908
0.584912
0.584916
0.584916
0.58492
0.584924
0.584928
0.584931
0.584931
0.584935
0.584939
0.584943
0.584947
0.584947
0.584951
0.584955
0.584959
0.584963
0.584963
0.584966
0.58497
0.584974
0.584978
0.584978
0.584982
0.584986
0.58499
0.584994
0.584994
0.584998
0.585002
0.585006
0.58501
0.58501
0.585013
0.585017
0.585021
0.585025
0.585025
0.585029
0.585033
0.585037
0.585041
0.585041
0.585045
0.585049
0.585053
0.585057
0.585057
0.585061
0.585065
0.585069
0.585073
0.585073
0.585077
0.585081
0.585085
0.585089
0.585089
0.585093
0.585097
0.585101
0.585105
0.585105
0.585109
0.585113
0.585117
0.585121
0.585121
0.585125
0.585129
0.585133
0.585137
0.585137
0.585141
0.585145
0.585149
0.585153
0.585153
0.585157
0.585161
0.585165
0.585169
0.585169
0.585173
0.585178
0.585182
0.585186
0.585186
0.58519
0.585194
0.585198
0.585202
0.585202
0.585206
0.58521
0.585214
0.585218
0.585218
0.585222
0.585227
0.585231
0.585235
0.585235
0.585239
0.585243
0.585247
0.585251
0.585251
0.585255
0.58526
0.585264
0.585268
0.585268
0.585272
0.585276
0.58528
0.585284
0.585284
0.585288
0.585293
0.585297
0.585301
0.585301
0.585305
0.585309
0.585313
0.585318
0.585318
0.585322
0.585326
0.58533
0.585334
0.585334
0.585339
0.585343
0.585347
0.585351
0.585351
0.585355
0.58536
0.585364
0.585368
0.585368
0.585372
0.585376
0.585381
0.585385
0.585385
0.585389
0.585393
0.585398
0.585402
0.585402
0.585406
0.58541
0.585415
0.585419
0.585419
0.585423
0.585427
0.585432
0.585436
0.585436
0.58544
0.585444
0.585449
0.585453
0.585453
0.585457
0.585461
0.585466
0.58547
0.58547
0.585474
0.585478
0.585482
0.585486
0.585486
0.585491
0.585495
0.5855
0.585504
0.585504
0.585509
0.585513
0.585517
0.585522
0.585522
0.585526
0.585531
0.585535
0.585539
0.585539
0.585544
0.585548
0.585552
0.585557
0.585557
0.585561
0.585565
0.58557
0.585574
0.585574
0.585578
0.585583
0.585587
0.585592
0.585592
0.585596
0.5856
0.585605
0.585609
0.585609
0.585614
0.585618
0.585622
0.585627
0.585627
0.585631
0.585636
0.58564
0.585645
0.585645
0.585649
0.585653
0.585658
0.585662
0.585662
0.585667
0.585671
0.585676
0.58568
0.58568
0.585685
0.585689
0.585693
0.585698
0.585698
0.585702
0.585707
0.585711
0.585716
0.585716
0.58572
0.585725
0.585729
0.585734
0.585734
0.585738
0.585743
0.585747
0.585752
0.585752
0.585756
0.585761
0.585765
0.58577
0.58577
0.585774
0.585779
0.585783
0.585788
0.585788
0.585793
0.585797
0.585802
0.585806
0.585806
0.585811
0.585815
0.58582
0.585824
0.585824
0.585829
0.585834
0.585838
0.585843
0.585843
0.585847
0.585852
0.585857
0.585861
0.585861
0.585866
0.58587
0.585875
0.58588
0.58588
0.585884
0.585889
0.585893
0.585898
0.585898
0.585903
0.585907
0.585912
0.585916
0.585916
0.585921
0.585926
0.58593
0.585935
0.585935
0.58594
0.585944
0.585949
0.585954
0.585954
0.585958
0.585963
0.585968
0.585972
0.585972
0.585977
0.585982
0.585986
0.585991
0.585991
0.585996
0.586001
0.586005
0.58601
0.58601
0.586015
0.586019
0.586024
0.586029
0.586029
0.586034
0.586038
0.586043
0.586048
0.586048
0.586052
0.586057
0.586062
0.586067
0.586067
0.586071
0.586076
0.586081
0.586086
0.586086
0.586091
0.586095
0.5861
0.586105
0.586105
0.58611
0.586114
0.586119
0.586124
0.586124
0.586129
0.586134
0.586138
0.586143
0.586143
0.586148
0.586153
0.586158
0.586162
0.586162
0.586167
0.586172
0.586177
0.586182
0.586182
0.586187
0.586191
0.586196
0.586201
0.586201
0.586206
0.586211
0.586216
0.586221
0.586221
0.586226
0.58623
0.586235
0.58624
0.58624
0.586245
0.58625
0.586255
0.58626
0.58626
0.586265
0.58627
0.586274
0.586279
0.586279
0.586284
0.586289
0.586294
0.586299
0.586299
0.586304
0.586309
0.586314
0.586319
0.586319
0.586324
0.586329
0.586334
0.586339
0.586339
0.586344
0.586348
0.586353
0.586358
0.586358
0.586363
0.586368
0.586373
0.586378
0.586378
0.586383
0.586388
0.586393
0.586398
0.586398
0.586403
0.586408
0.586413
0.586418
0.586418
0.586423
0.586428
0.586433
0.586438
0.586438
0.586444
0.586449
0.586454
0.586459
0.586459
0.586464
0.586469
0.586474
0.586479
0.586479
0.586484
0.586489
0.586494
0.586499
0.586499
0.586504
0.586509
0.586514
0.58652
0.58652
0.586525
0.58653
0.586535
0.58654
0.58654
0.586545
0.58655
0.586555
0.58656
0.58656
0.586566
0.586571
0.586576
0.586581
0.586581
0.586586
0.586591
0.586596
0.586602
0.586602
0.586607
0.586612
0.586617
0.586622
0.586622
0.586627
0.586633
0.586638
0.586643
0.586643
0.586648
0.586653
0.586658
0.586664
0.586664
0.586669
0.586674
0.586679
0.586685
0.586685
0.58669
0.586695
0.5867
0.586705
0.586705
0.586711
0.586716
0.586721
0.586726
0.586726
0.586732
0.586737
0.586742
0.586747
0.586747
0.586753
0.586758
0.586763
0.586769
0.586769
0.586774
0.586779
0.586784
0.58679
0.58679
0.586795
0.5868
0.586806
0.586811
0.586811
0.586816
0.586822
0.586827
0.586832
0.586832
0.586838
0.586843
0.586848
0.586854
0.586854
0.586859
0.586864
0.58687
0.586875
0.586875
0.58688
0.586886
0.586891
0.586896
0.586896
0.586902
0.586907
0.586913
0.586918
0.586918
0.586923
0.586929
0.586934
0.58694
0.58694
0.586945
0.58695
0.586956
0.586961
0.586961
0.586967
0.586972
0.586978
0.586983
0.586983
0.586989
0.586994
0.586999
0.587005
0.587005
0.58701
0.587016
0.587021
0.587027
0.587027
0.587032
0.587038
0.587043
0.587049
0.587049
0.587054
0.58706
0.587065
0.587071
0.587071
0.587076
0.587082
0.587087
0.587093
0.587093
0.587098
0.587104
0.587109
0.587115
0.587115
0.58712
0.587126
0.587132
0.587137
0.587137
0.587143
0.587148
0.587154
0.587159
0.587159
0.587165
0.587171
0.587176
0.587182
0.587182
0.587187
0.587193
0.587199
0.587204
0.587204
0.58721
0.587215
0.587221
0.587227
0.587227
0.587232
0.587238
0.587243
0.587249
0.587249
0.587255
0.58726
0.587266
0.587272
0.587272
0.587277
0.587283
0.587289
0.587294
0.587294
0.5873
0.587306
0.587311
0.587317
0.587317
0.587323
0.587329
0.587334
0.58734
0.58734
0.587346
0.587351
0.587357
0.587363
0.587363
0.587368
0.587374
0.58738
0.587385
0.587385
0.587391
0.587397
0.587402
0.587408
0.587408
0.587414
0.587419
0.587425
0.587431
0.587431
0.587437
0.587443
0.587449
0.587455
0.587455
0.587461
0.587467
0.587472
0.587478
0.587478
0.587484
0.58749
0.587496
0.587502
0.587502
0.587507
0.587513
0.587519
0.587525
0.587525
0.587531
0.587537
0.587542
0.587548
0.587548
0.587554
0.58756
0.587566
0.587572
0.587572
0.587578
0.587584
0.58759
0.587595
0.587595
0.587601
0.587607
0.587613
0.587619
0.587619
0.587625
0.587631
0.587637
0.587643
0.587643
0.587649
0.587655
0.587661
0.587667
0.587667
0.587673
0.587678
0.587684
0.58769
0.58769
0.587696
0.587702
0.587708
0.587714
0.587714
0.58772
0.587726
0.587732
0.587738
0.587738
0.587744
0.58775
0.587756
0.587762
0.587762
0.587768
0.587774
0.587781
0.587787
0.587787
0.587793
0.587799
0.587805
0.587811
0.587811
0.587817
0.587823
0.587829
0.587835
0.587835
0.587841
0.587847
0.587853
0.587859
0.587859
0.587866
0.587872
0.587878
0.587884
0.587884
0.58789
0.587896
0.587902
0.587908
0.587908
0.587915
0.587921
0.587927
0.587933
0.587933
0.587939
0.587945
0.587951
0.587958
0.587958
0.587964
0.58797
0.587976
0.587982
0.587982
0.587989
0.587995
0.588001
0.588007
0.588007
0.588013
0.58802
0.588026
0.588032
0.588032
0.588038
0.588044
0.588051
0.588057
0.588057
0.588063
0.588069
0.588076
0.588082
0.588082
0.588088
0.588095
0.588101
0.588107
0.588107
0.588113
0.58812
0.588126
0.588132
0.588132
0.588139
0.588145
0.588151
0.588158
0.588158
0.588164
0.58817
0.588176
0.588183
0.588183
0.588189
0.588196
0.588202
0.588208
0.588208
0.588215
0.588221
0.588227
0.588234
0.588234
0.58824
0.588246
0.588253
0.588259
0.588259
0.588266
0.588272
0.588278
0.588285
0.588285
0.588291
0.588298
0.588304
0.588311
0.588311
0.588317
0.588323
0.58833
0.588336
0.588336
0.588343
0.588349
0.588356
0.588362
0.588362
0.588369
0.588375
0.588382
0.588388
0.588388
0.588395
0.588401
0.588408
0.588414
0.588414
0.588421
0.588427
0.588434
0.58844
0.58844
0.588447
0.588453
0.58846
0.588466
0.588466
0.588473
0.58848
0.588486
0.588493
0.588493
0.588499
0.588506
0.588512
0.588519
0.588519
0.588526
0.588532
0.588539
0.588545
0.588545
0.588552
0.588559
0.588565
0.588572
0.588572
0.588579
0.588585
0.588592
0.588598
0.588598
0.588605
0.588612
0.588618
0.588625
0.588625
0.588632
0.588638
0.588645
0.588652
0.588652
0.588658
0.588665
0.588672
0.588679
0.588679
0.588685
0.588692
0.588699
0.588705
0.588705
0.588712
0.588719
0.588726
0.588732
0.588732
0.588739
0.588746
0.588753
0.588759
0.588759
0.588766
0.588773
0.58878
0.588787
0.588787
0.588793
0.5888
0.588807
0.588814
0.588814
0.588821
0.588827
0.588834
0.588841
0.588841
0.588848
0.588855
0.588862
0.588868
0.588868
0.588875
0.588882
0.588889
0.588896
0.588896
0.588903
0.58891
0.588917
0.588923
0.588923
0.58893
0.588937
0.588944
0.588951
0.588951
0.588958
0.588965
0.588972
0.588979
0.588979
0.588986
0.588993
0.589
0.589006
0.589006
0.589013
0.58902
0.589027
0.589034
0.589034
0.589041
0.589048
0.589055
0.589062
0.589062
0.589069
0.589076
0.589083
0.58909
0.58909
0.589097
0.589104
0.589111
0.589118
0.589118
0.589125
0.589132
0.58914
0.589147
0.589147
0.589154
0.589161
0.589168
0.589175
0.589175
0.589182
0.589189
0.589196
0.589203
0.589203
0.58921
0.589217
0.589225
0.589232
0.589232
0.589239
0.589246
0.589253
0.58926
0.58926
0.589267
0.589274
0.589282
0.589289
0.589289
0.589296
0.589303
0.58931
0.589318
0.589318
0.589325
0.589332
0.589339
0.589346
0.589346
0.589354
0.589361
0.589368
0.589375
0.589375
0.589382
0.58939
0.589397
0.589404
0.589404
0.589411
0.589419
0.589426
0.589433
0.589433
0.58944
0.589448
0.589455
0.589462
0.589462
0.58947
0.589477
0.589484
0.589491
0.589491
0.589499
0.589506
0.589513
0.589521
0.589521
0.589528
0.589535
0.589542
0.58955
0.58955
0.589557
0.589564
0.589571
0.589579
0.589579
0.589586
0.589594