<?xml version="1.0"?>
<VTKFile type="UnstructuredGrid" version="0.1" byte_order="LittleEndian">
<UnstructuredGrid>
<Piece NumberOfPoints="5000" NumberOfCells="4000">
<PointData Scalars="Reaction 0">
<DataArray type="Float32" Name="Reaction 0" format="ascii">
0.592682
0.592682
0.592682
0.592682
0.592682
0.592682
0.592683
0.592683
0.592683
0.592683
0.592683
0.592683
0.592683
0.592683
0.592683
0.592683
0.592683
0.592683
0.592683
0.592683
0.592683
0.592683
0.592683
0.592683
0.592683
0.592683
0.592683
0.592683
0.592683
0.592684
0.592684
0.592684
0.592684
0.592684
0.592684
0.592684
0.592684
0.592684
0.592684
0.592684
0.592684
0.592684
0.592685
0.592685
0.592685
0.592685
0.592685
0.592685
0.592685
0.592685
0.592685
0.592686
0.592686
0.592686
0.592686
0.592686
0.592686
0.592686
0.592687
0.592687
0.592687
0.592687
0.592687
0.592687
0.592687
0.592687
0.592688
0.592688
0.592688
0.592688
0.592688
0.592688
0.592689
0.592689
0.592689
0.592689
0.592689
0.59269
0.59269
0.59269
0.59269
0.59269
0.592691
0.592691
0.592691
0.592691
0.592691
0.592692
0.592692
0.592692
0.592692
0.592692
0.592693
0.592693
0.592693
0.592693
0.592693
0.592694
0.592694
0.592694
0.592694
0.592695
0.592695
0.592695
0.592696
0.592696
0.592696
0.592696
0.592696
0.592697
0.592697
0.592697
0.592697
0.592698
0.592698
0.592698
0.592698
0.592699
0.592699
0.5927
0.5927
0.5927
0.5927
0.592701
0.592701
0.592701
0.592701
0.592702
0.592702
0.592703
0.592703
0.592703
0.592703
0.592704
0.592704
0.592704
0.592704
0.592705
0.592705
0.592706
0.592706
0.592706
0.592707
0.592707
0.592707
0.592707
0.592708
0.592708
0.592709
0.592709
0.592709
0.59271
0.59271
0.59271
0.592711
0.592711
0.592711
0.592712
0.592712
0.592713
0.592713
0.592713
0.592714
0.592714
0.592715
0.592715
0.592715
0.592716
0.592716
0.592717
0.592717
0.592717
0.592718
0.592718
0.592719
0.592719
0.592719
0.59272
0.59272
0.592721
0.592721
0.592721
0.592722
0.592723
0.592723
0.592723
0.592724
0.592724
0.592725
0.592725
0.592725
0.592726
0.592726
0.592727
0.592728
0.592728
0.592728
0.592729
0.592729
0.59273
0.59273
0.592731
0.592731
0.592732
0.592732
0.592732
0.592733
0.592734
0.592734
0.592735
0.592735
0.592735
0.592736
0.592737
0.592737
0.592737
0.592738
0.592739
0.592739
0.59274
0.59274
0.592741
0.592741
0.592742
0.592743
0.592743
0.592743
0.592744
0.592745
0.592745
0.592745
0.592746
0.592747
0.592747
0.592748
0.592748
0.592749
0.592749
0.59275
0.592751
0.592751
0.592752
0.592752
0.592753
0.592754
0.592754
0.592754
0.592755
0.592756
0.592757
0.592757
0.592757
0.592758
0.592759
0.59276
0.59276
0.59276
0.592761
0.592762
0.592763
0.592763
0.592763
0.592764
0.592765
0.592766
0.592766
0.592767
0.592767
0.592768
0.592769
0.592769
0.59277
0.592771
0.592771
0.592772
0.592772
0.592773
0.592774
0.592775
0.592776
0.592776
0.592776
0.592777
0.592778
0.592779
0.592779
0.59278
0.592781
0.592781
0.592782
0.592782
0.592783
0.592784
0.592785
0.592786
0.592786
0.592787
0.592788
0.592788
0.592789
0.592789
0.59279
0.592791
0.592792
0.592793
0.592793
0.592794
0.592795
0.592796
0.592797
0.592797
0.592798
0.592798
0.592799
0.5928
0.5928
0.592801
0.592802
0.592803
0.592804
0.592804
0.592805
0.592806
0.592807
0.592808
0.592808
0.592809
0.59281
0.592811
0.592812
0.592812
0.592813
0.592814
0.592815
0.592816
0.592816
0.592817
0.592818
0.592819
0.59282
0.59282
0.592821
0.592822
0.592823
0.592824
0.592824
0.592825
0.592826
0.592827
0.592828
0.592828
0.592829
0.59283
0.592831
0.592832
0.592832
0.592833
0.592834
0.592835
0.592837
0.592837
0.592838
0.592839
0.59284
0.592841
0.592841
0.592842
0.592843
0.592844
0.592845
0.592845
0.592846
0.592847
0.592849
0.59285
0.59285
0.592851
0.592852
0.592853
0.592854
0.592854
0.592855
0.592856
0.592858
0.592859
0.592859
0.59286
0.592861
0.592862
0.592863
0.592863
0.592865
0.592866
0.592867
0.592868
0.592868
0.592869
0.59287
0.592872
0.592873
0.592873
0.592874
0.592875
0.592876
0.592878
0.592878
0.592879
0.59288
0.592881
0.592882
0.592882
0.592884
0.592885
0.592886
0.592887
0.592887
0.592889
0.59289
0.592891
0.592892
0.592892
0.592894
0.592895
0.592896
0.592897
0.592897
0.592899
0.5929
0.592901
0.592903
0.592903
0.592904
0.592905
0.592906
0.592908
0.592908
0.592909
0.59291
0.592912
0.592913
0.592913
0.592914
0.592916
0.592917
0.592918
0.592918
0.59292
0.592921
0.592922
0.592924
0.592924
0.592925
0.592926
0.592928
0.592929
0.592929
0.59293
0.592932
0.592933
0.592934
0.592934
0.592936
0.592937
0.592939
0.59294
0.59294
0.592941
0.592943
0.592944
0.592946
0.592946
0.592947
0.592948
0.59295
0.592951
0.592951
0.592953
0.592954
0.592955
0.592957
0.592957
0.592958
0.59296
0.592961
0.592963
0.592963
0.592964
0.592966
0.592967
0.592969
0.592969
0.59297
0.592971
0.592973
0.592974
0.592974
0.592976
0.592977
0.592979
0.59298
0.59298
0.592982
0.592983
0.592985
0.592986
0.592986
0.592988
0.592989
0.592991
0.592993
0.592993
0.592994
0.592996
0.592997
0.592999
0.592999
0.593
0.593002
0.593003
0.593005
0.593005
0.593006
0.593008
0.59301
0.593011
0.593011
0.593013
0.593014
0.593016
0.593017
0.593017
0.593019
0.593021
0.593022
0.593024
0.593024
0.593025
0.593027
0.593029
0.59303
0.59303
0.593032
0.593034
0.593035
0.593037
0.593037
0.593038
0.59304
0.593042
0.593043
0.593043
0.593045
0.593047
0.593048
0.59305
0.59305
0.593052
0.593053
0.593055
0.593057
0.593057
0.593058
0.59306
0.593062
0.593064
0.593064
0.593065
0.593067
0.593069
0.59307
0.59307
0.593072
0.593074
0.593075
0.593077
0.593077
0.593079
0.593081
0.593082
0.593084
0.593084
0.593086
0.593088
0.593089
0.593091
0.593091
0.593093
0.593095
0.593096
0.593098
0.593098
0.5931
0.593102
0.593104
0.593105
0.593105
0.593107
0.593109
0.593111
0.593113
0.593113
0.593114
0.593116
0.593118
0.59312
0.59312
0.593122
0.593123
0.593125
0.593127
0.593127
0.593129
0.593131
0.593133
0.593135
0.593135
0.593136
0.593138
0.59314
0.593142
0.593142
0.593144
0.593146
0.593148
0.593149
0.593149
0.593151
0.593153
0.593155
0.593157
0.593157
0.593159
0.593161
0.593163
0.593165
0.593165
0.593167
0.593169
0.59317
0.593172
0.593172
0.593174
0.593176
0.593178
0.59318
0.59318
0.593182
0.593184
0.593186
0.593188
0.593188
0.59319
0.593192
0.593194
0.593196
0.593196
0.593198
0.5932
0.593202
0.593204
0.593204
0.593206
0.593208
0.59321
0.593212
0.593212
0.593214
0.593216
0.593218
0.59322
0.59322
0.593222
0.593224
0.593226
0.593228
0.593228
0.59323
0.593232
0.593234
0.593236
0.593236
0.593238
0.59324
0.593242
0.593244
0.593244
0.593247
0.593249
0.593251
0.593253
0.593253
0.593255
0.593257
0.593259
0.593261
0.593261
0.593263
0.593265
0.593267
0.59327
0.59327
0.593272
0.593274
0.593276
0.593278
0.593278
0.59328
0.593282
0.593285
0.593287
0.593287
0.593289
0.593291
0.593293
0.593295
0.593295
0.593298
0.5933
0.593302
0.593304
0.593304
0.593306
0.593308
0.593311
0.593313
0.593313
0.593315
0.593317
0.593319
0.593322
0.593322
0.593324
0.593326
0.593328
0.593331
0.593331
0.593333
0.593335
0.593337
0.593339
0.593339
0.593342
0.593344
0.593346
0.593349
0.593349
0.593351
0.593353
0.593355
0.593358
0.593358
0.59336
0.593362
0.593364
0.593367
0.593367
0.593369
0.593371
0.593374
0.593376
0.593376
0.593378
0.593381
0.593383
0.593385
0.593385
0.593388
0.59339
0.593392
0.593395
0.593395
0.593397
0.593399
0.593402
0.593404
0.593404
0.593406
0.593409
0.593411
0.593413
0.593413
0.593416
0.593418
0.593421
0.593423
0.593423
0.593425
0.593428
0.59343
0.593433
0.593433
0.593435
0.593437
0.59344
0.593442
0.593442
0.593445
0.593447
0.59345
0.593452
0.593452
0.593454
0.593457
0.593459
0.593462
0.593462
0.593464
0.593467
0.593469
0.593472
0.593472
0.593474
0.593477
0.593479
0.593482
0.593482
0.593484
0.593487
0.593489
0.593492
0.593492
0.593494
0.593497
0.593499
0.593502
0.593502
0.593504
0.593507
0.593509
0.593512
0.593512
0.593514
0.593517
0.593519
0.593522
0.593522
0.593524
0.593527
0.59353
0.593532
0.593532
0.593535
0.593537
0.59354
0.593542
0.593542
0.593545
0.593548
0.59355
0.593553
0.593553
0.593555
0.593558
0.593561
0.593563
0.593563
0.593566
0.593568
0.593571
0.593574
0.593574
0.593576
0.593579
0.593582
0.593584
0.593584
0.593587
0.59359
0.593592
0.593595
0.593595
0.593598
0.5936
0.593603
0.593606
0.593606
0.593608
0.593611
0.593614
0.593616
0.593616
0.593619
0.593622
0.593625
0.593627
0.593627
0.59363
0.593633
0.593635
0.593638
0.593638
0.593641
0.593644
0.593646
0.593649
0.593649
0.593652
0.593655
0.593657
0.59366
0.59366
0.593663
0.593666
0.593668
0.593671
0.593671
0.593674
0.593677
0.59368
0.593682
0.593682
0.593685
0.593688
0.593691
0.593694
0.593694
0.593696
0.593699
0.593702
0.593705
0.593705
0.593708
0.593711
0.593713
0.593716
0.593716
0.593719
0.593722
0.593725
0.593728
0.593728
0.593731
0.593733
0.593736
0.593739
0.593739
0.593742
0.593745
0.593748
0.593751
0.593751
0.593754
0.593757
0.593759
0.593762
0.593762
0.593765
0.593768
0.593771
0.593774
0.593774
0.593777
0.59378
0.593783
0.593786
0.593786
0.593789
0.593791
0.593794
0.593797
0.593797
0.5938
0.593803
0.593806
0.593809
0.593809
0.593812
0.593815
0.593818
0.593821
0.593821
0.593824
0.593827
0.59383
0.593833
0.593833
0.593836
0.59384
0.593843
0.593846
0.593846
0.593849
0.593852
0.593855
0.593858
0.593858
0.593861
0.593864
0.593867
0.59387
0.59387
0.593873
0.593876
0.593879
0.593882
0.593882
0.593885
0.593888
0.593892
0.593895
0.593895
0.593898
0.593901
0.593904
0.593907
0.593907
0.59391
0.593913
0.593916
0.59392
0.59392
0.593923
0.593926
0.593929
0.593932
0.593932
0.593935
0.593938
0.593942
0.593945
0.593945
0.593948
0.593951
0.593954
0.593957
0.593957
0.593961
0.593964
0.593967
0.59397
0.59397
0.593973
0.593977
0.59398
0.593983
0.593983
0.593986
0.59399
0.593993
0.593996
0.593996
0.593999
0.594002
0.594006
0.594009
0.594009
0.594012
0.594015
0.594019
0.594022
0.594022
0.594025
0.594029
0.594032
0.594035
0.594035
0.594038
0.594042
0.594045
0.594048
0.594048
0.594052
0.594055
0.594058
0.594062
0.594062
0.594065
0.594068
0.594072
0.594075
0.594075
0.594078
0.594082
0.594085
0.594088
0.594088
0.594092
0.594095
0.594098
0.594102
0.594102
0.594105
0.594108
0.594112
0.594115
0.594115
0.594119
0.594122
0.594125
0.594129
0.594129
0.594132
0.594136
0.594139
0.594143
0.594143
0.594146
0.594149
0.594153
0.594156
0.594156
0.59416
0.594163
0.594167
0.59417
0.59417
0.594174
0.594177
0.59418
0.594184
0.594184
0.594187
0.594191
0.594194
0.594198
0.594198
0.594201
0.594205
0.594208
0.594212
0.594212
0.594215
0.594219
0.594222
0.594226
0.594226
0.594229
0.594233
0.594237
0.59424
0.59424
0.594244
0.594247
0.594251
0.594254
0.594254
0.594258
0.594261
0.594265
0.594269
0.594269
0.594272
0.594276
0.594279
0.594283
0.594283
0.594287
0.59429
0.594294
0.594297
0.594297
0.594301
0.594305
0.594308
0.594312
0.594312
0.594316
0.594319
0.594323
0.594326
0.594326
0.59433
0.594334
0.594337
0.594341
0.594341
0.594345
0.594348
0.594352
0.594356
0.594356
0.59436
0.594363
0.594367
0.594371
0.594371
0.594374
0.594378
0.594382
0.594385
0.594385
0.594389
0.594393
0.594397
0.5944
0.5944
0.594404
0.594408
0.594412
0.594415
0.594415
0.594419
0.594423
0.594427
0.59443
0.59443
0.594434
0.594438
0.594442
0.594446
0.594446
0.594449
0.594453
0.594457
0.594461
0.594461
0.594465
0.594468
0.594472
0.594476
0.594476
0.59448
0.594484
0.594488
0.594491
0.594491
0.594495
0.594499
0.594503
0.594507
0.594507
0.594511
0.594515
0.594518
0.594522
0.594522
0.594526
0.59453
0.594534
0.594538
0.594538
0.594542
0.594546
0.59455
0.594554
0.594554
0.594557
0.594561
0.594565
0.594569
0.594569
0.594573
0.594577
0.594581
0.594585
0.594585
0.594589
0.594593
0.594597
0.594601
0.594601
0.594605
0.594609
0.594613
0.594617
0.594617
0.594621
0.594625
0.594629
0.594633
0.594633
0.594637
0.594641
0.594645
0.594649
0.594649
0.594653
0.594657
0.594661
0.594665
0.594665
0.594669
0.594673
0.594677
0.594681
0.594681
0.594685
0.594689
0.594694
0.594698
0.594698
0.594702
0.594706
0.59471
0.594714
0.594714
0.594718
0.594722
0.594726
0.59473
0.59473
0.594735
0.594739
0.594743
0.594747
0.594747
0.594751
0.594755
0.594759
0.594764
0.594764
0.594768
0.594772
0.594776
0.59478
0.59478
0.594784
0.594789
0.594793
0.594797
0.594797
0.594801
0.594805
0.594809
0.594814
0.594814
0.594818
0.594822
0.594826
0.594831
0.594831
0.594835
0.594839
0.594843
0.594848
0.594848
0.594852
0.594856
0.59486
0.594865
0.594865
0.594869
0.594873
0.594877
0.594882
0.594882
0.594886
0.59489
0.594895
0.594899
0.594899
0.594903
0.594907
0.594912
0.594916
0.594916
0.59492
0.594925
0.594929
0.594933
0.594933
0.594938
0.594942
0.594946
0.594951
0.594951
0.594955
0.59496
0.594964
0.594968
0.594968
0.594973
0.594977
0.594981
0.594986
0.594986
0.59499
0.594995
0.594999
0.595004
0.595004
0.595008
0.595012
0.595017
0.595021
0.595021
0.595026
0.59503
0.595035
0.595039
0.595039
0.595043
0.595048
0.595052
0.595057
0.595057
0.595061
0.595066
0.59507
0.595075
0.595075
0.595079
0.595084
0.595088
0.595093
0.595093
0.595097
0.595102
0.595106
0.595111
0.595111
0.595115
0.59512
0.595125
0.595129
0.595129
0.595134
0.595138
0.595143
0.595147
0.595147
0.595152
0.595156
0.595161
0.595166
0.595166
0.59517
0.595175
0.595179
0.595184
0.595184
0.595189
0.595193
0.595198
0.595202
0.595202
0.595207
0.595212
0.595216
0.595221
0.595221
0.595226
0.59523
0.595235
0.59524
0.59524
0.595244
0.595249
0.595254
0.595258
0.595258
0.595263
0.595268
0.595272
0.595277
0.595277
0.595282
0.595287
0.595291
0.595296
0.595296
0.595301
0.595305
0.59531
0.595315
0.595315
0.59532
0.595324
0.595329
0.595334
0.595334
0.595339
0.595343
0.595348
0.595353
0.595353
0.595358
0.595363
0.595367
0.595372
0.595372
0.595377
0.595382
0.595387
0.595391
0.595391
0.595396
0.595401
0.595406
0.595411
0.595411
0.595416
0.59542
0.595425
0.59543
0.59543
0.595435
0.59544
0.595445
0.59545
0.59545
0.595454
0.595459
0.595464
0.595469
0.595469
0.595474
0.595479
0.595484
0.595489
0.595489
0.595494
0.595499
0.595504
0.595508
0.595508
0.595513
0.595518
0.595523
0.595528
0.595528
0.595533
0.595538
0.595543
0.595548
0.595548
0.595553
0.595558
0.595563
0.595568
0.595568
0.595573
0.595578
0.595583
0.595588
0.595588
0.595593
0.595598
0.595603
0.595608
0.595608
0.595613
0.595618
0.595623
0.595628
0.595628
0.595633
0.595639
0.595644
0.595649
0.595649
0.595654
0.595659
0.595664
0.595669
0.595669
0.595674
0.595679
0.595684
0.595689
0.595689
0.595695
0.5957
0.595705
0.59571
0.59571
0.595715
0.59572
0.595725
0.595731
0.595731
0.595736
0.595741
0.595746
0.595751
0.595751
0.595756
0.595762
0.595767
0.595772
0.595772
0.595777
0.595782
0.595788
0.595793
0.595793
0.595798
0.595803
0.595808
0.595814
0.595814
0.595819
0.595824
0.595829
0.595835
0.595835
0.59584
0.595845
0.59585
0.595856
0.595856
0.595861
0.595866
0.595872
0.595877
0.595877
0.595882
0.595887
0.595893
0.595898
0.595898
0.595903
0.595909
0.595914
0.595919
0.595919
0.595925
0.59593
0.595935
0.595941
0.595941
0.595946
0.595952
0.595957
0.595962
0.595962
0.595968
0.595973
0.595978
0.595984
0.595984
0.595989
0.595995
0.596
0.596006
0.596006
0.596011
0.596016
0.596022
0.596027
0.596027
0.596033
0.596038
0.596044
0.596049
0.596049
0.596055
0.59606
0.596065
0.596071
0.596071
0.596076
0.596082
0.596087
0.596093
0.596093
0.596098
0.596104
0.596109
0.596115
0.596115
0.596121
0.596126
0.596132
0.596137
0.596137
0.596143
0.596148
0.596154
0.596159
0.596159
0.596165
0.596171
0.596176
0.596182
0.596182
0.596187
0.596193
0.596198
0.596204
0.596204
0.59621
0.596215
0.596221
0.596227
0.596227
0.596232
0.596238
0.596243
0.596249
0.596249
0.596255
0.59626
0.596266
0.596272
0.596272
0.596277
0.596283
0.596289
0.596295
0.596295
0.5963
0.596306
0.596312
0.596317
0.596317
0.596323
0.596329
0.596334
0.59634
0.59634
0.596346
0.596352
0.596357
0.596363
0.596363
0.596369
0.596375
0.596381
0.596386
0.596386
0.596392
0.596398
0.596404
0.596409
0.596409
0.596415
0.596421
0.596427
0.596433
0.596433
0.596439
0.596444
0.59645
0.596456
0.596456
0.596462
0.596468
0.596474
0.596479
0.596479
0.596485
0.596491
0.596497
0.596503
0.596503
0.596509
0.596515
0.596521
0.596527
0.596527
0.596532
0.596538
0.596544
0.59655
0.59655
0.596556
0.596562
0.596568
0.596574
0.596574
0.59658
0.596586
0.596592
0.596598
0.596598
0.596604
0.59661
0.596616
0.596622
0.596622
0.596628
0.596634
0.59664
0.596646
0.596646
0.596652
0.596658
0.596664
0.59667
0.59667
0.596676
0.596682
0.596688
0.596694
0.596694
0.5967
0.596706
0.596712
0.596718
0.596718
0.596724
0.59673
0.596737
0.596743
0.596743
0.596749
0.596755
0.596761
0.596767
0.596767
0.596773
0.596779
0.596786
0.596792
0.596792
0.596798
0.596804
0.59681
0.596816
0.596816
0.596822
0.596829
0.596835
0.596841
0.596841
0.596847
0.596853
0.59686
0.596866
0.596866
0.596872
0.596878
0.596885
0.596891
0.596891
0.596897
0.596903
0.596909
0.596916
0.596916
0.596922
0.596928
0.596935
0.596941
0.596941
0.596947
0.596953
0.59696
0.596966
0.596966
0.596972
0.596979
0.596985
0.596991
0.596991
0.596997
0.597004
0.59701
0.597016
0.597016
0.597023
0.597029
0.597035
0.597042
0.597042
0.597048
0.597054
0.59706
0.597067
0.597067
0.597073
0.597079
0.597086
0.597092
0.597092
0.597099
0.597106
0.597112
0.597119
0.597119
0.597125
0.597132
0.597138
0.597145
0.597145
0.597151
0.597158
0.597164
0.597171
0.597171
0.597177
0.597184
0.59719
0.597197
0.597197
0.597203
0.59721
0.597216
0.597223
0.597223
0.597229
0.597236
0.597242
0.597249
0.597249
0.597255
0.597262
0.597268
0.597275
0.597275
0.597282
0.597288
0.597295
0.597301
0.597301
0.597308
0.597315
0.597321
0.597328
0.597328
0.597334
0.597341
0.597348
0.597354
0.597354
0.597361
0.597368
0.597374
0.597381
0.597381
0.597388
0.597394
0.597401
0.597408
0.597408
0.597414
0.597421
0.597428
0.597434
0.597434
0.597441
0.597448
0.597455
0.597461
0.597461
0.597468
0.597475
0.597482
0.597488
0.597488
0.597495
0.597502
0.597509
0.597515
0.597515
0.597522
0.597529
0.597536
0.597543
0.597543
0.597549
0.597556
0.597563
0.59757
0.59757
0.597577
0.597584
0.59759
0.597597
0.597597
0.597604
0.597611
0.597618
0.597625
0.597625
0.597632
0.597638
0.597645
0.597652
0.597652
0.597659
0.597666
0.597673
0.59768
0.59768
0.597687
0.597694
0.597701
0.597708
0.597708
0.597715
0.597722
0.597729
0.597736
0.597736
0.597742
0.597749
0.597756
0.597763
0.597763
0.59777
0.597777
0.597784
0.597791
0.597791
0.597798
0.597806
0.597813
0.59782
0.59782
0.597827
0.597834
0.597841
0.597848
0.597848
0.597855
0.597862
0.597869
0.597876
0.597876
0.597883
0.59789
0.597897
0.597905
0.597905
0.597912
0.597919
0.597926
0.597933
0.597933
0.59794
0.597947
0.597955
0.597962
0.597962
0.597969
0.597976
0.597983
0.59799
0.59799
0.597998
0.598005
0.598012
0.598019
0.598019
0.598026
0.598034
0.598041
0.598048
0.598048
0.598055
0.598063
0.59807
0.598077
0.598077
0.598084
0.598092
0.598099
0.598106
0.598106
0.598113
0.598121
0.598128
0.598135
0.598135
0.598143
0.59815
0.598157
0.598165
0.598165
0.598172
0.598179
0.598187
0.598194
0.598194
0.598201
0.598209
0.598216
0.598224
0.598224
0.598231
0.598238
0.598246
0.598253
0.598253
0.598261
0.598268
0.598275
0.598283
0.598283
0.59829
0.598298
0.598305
0.598313
0.598313
0.59832
0.598328
0.598335
0.598342
0.598342
0.59835
0.598357
0.598365
0.598372
0.598372
0.59838
0.598387
0.598395
0.598403
0.598403
0.59841
0.598418
0.598425
0.598433
0.598433
0.59844
0.598448
0.598455
0.598463
0.598463
0.598471
0.598478
0.598486
0.598493
0.598493
0.598501
0.598509
0.598516
0.598524
0.598524
0.598532
0.598539
0.598547
0.598554
0.598554
0.598562
0.59857
0.598577
0.598585
0.598585
0.598593
0.598601
0.598608
0.598616
0.598616
0.598624
0.598631
0.598639
0.598647
0.598647
0.598655
0.598662
0.59867
0.598678
0.598678
0.598686
0.598693
0.598701
0.598709
0.598709
0.598717
0.598724
0.598732
0.59874
0.59874
0.598748
0.598756
0.598764
0.598771
0.598771
0.598779
0.598787
0.598795
0.598803
0.598803
0.598811
0.598819
0.598826
0.598834
0.598834
0.598842
0.59885
0.598858
0.598866
0.598866
0.598874
0.598882
0.59889
0.598898
0.598898
0.598906
0.598914
0.598921
0.598929
0.598929
0.598937
0.598945
0.598953
0.598961
0.598961
0.598969
0.598977
0.598985
0.598993
0.598993
0.599001
0.599009
0.599017
0.599026
0.599026
0.599034
0.599042
0.59905
0.599058
0.599058
0.599066
0.599074
0.599082
0.59909
0.59909
0.599098
0.599106
0.599114
0.599123
0.599123
0.599131
0.599139
0.599147
0.599155
0.599155
0.599163
0.599171
0.59918
0.599188
0.599188
0.599196
0.599204
0.599212
0.599221
0.599221
0.599229
0.599237
0.599245
0.599253
0.599253
0.599262
0.59927
0.599278
0.599286
0.599286
0.599295
0.599303
0.599311
0.599319
0.599319
0.599328
0.599336
0.599344
0.599353
0.599353
0.599361
0.599369
0.599378
0.599386
0.599386
0.599394
0.599403
0.599411
0.599419
0.599419
0.599428
0.599436
0.599444
0.599453
0.599453
0.599461
0.59947
0.599478
0.599486
0.599486
0.599495
0.599503
0.599512
0.59952
0.59952
0.599529
0.599537
0.599546
0.599554
0.599554
0.599563
0.599571
0.599579
0.599588
0.599588
0.599596
0.599605
0.599614
0.599622
0.599622
0.599631
0.599639
0.599648
0.599656
0.599656
0.599665
0.599673
0.599682
0.59969
0.59969
0.599699
0.599708
0.599716
0.599725
0.599725
0.599733
0.599742
0.599751
0.599759
0.599759
0.599768
0.599777
0.599785
0.599794
0.599794
0.599803
0.599811
0.59982
0.599829
0.599829
0.599837
0.599846
0.599855
0.599863
0.599863
0.599872
0.599881
0.59989
0.599898
0.599898
0.599907
0.599916
0.599925
0.599933
0.599933
0.599942
0.599951
0.59996
0.599969
0.599969
0.599977
0.599986
0.599995
0.600004
0.600004
0.600013
0.600022
0.60003
0.600039
0.600039
0.600048
0.600057
0.600066
0.600075
0.600075
0.600084
0.600093
0.600101
0.60011
0.60011
0.600119
0.600128
0.600137
0.600146
0.600146
0.600155
0.600164
0.600173
0.600182
0.600182
0.600191
0.6002
0.600209
0.600218
0.600218
0.600227
0.600236
0.600245
0.600254
0.600254
0.600263
0.600272
0.600281
0.60029
0.60029
0.600299
0.600308
0.600317
0.600326
0.600326
0.600336
0.600345
0.600354
0.600363
0.600363
0.600372
0.600381
0.60039
0.600399
0.600399
0.600409
0.600418
0.600427
0.600436
0.600436
0.600445
0.600454
0.600464
0.600473
0.600473
0.600482
0.600491
0.6005
0.60051
0.60051
0.600519
0.600528
0.600537
0.600547
0.600547
0.600556
0.600565
0.600574
0.600584
0.600584
0.600593
0.600602
0.600612
0.600621
0.600621
0.60063
0.60064
0.600649
0.600658
0.600658
0.600668
0.600677
0.600686
0.600696
0.600696
0.600705
0.600714
0.600724
0.600733
0.600733
0.600742
0.600752
0.600761
0.60077
0.60077
0.60078
0.600789
0.600798
0.600808
0.600808
0.600817
0.600827
0.600836
0.600846
0.600846
0.600856
0.600865
0.600875
0.600884
0.600884
0.600894
0.600904
0.600913
0.600923
0.600923
0.600932
0.600942
0.600952
0.600961
0.600961
0.600971
0.60098
0.60099
0.601
0.601
0.601009
0.601019
0.601028
0.601038
0.601038
0.601048
0.601057
0.601067
0.601077
0.601077
0.601086
0.601096
0.601106
0.601115
0.601115
0.601125
0.601135
0.601145
0.601154
0.601154
0.601164
0.601174
0.601184
0.601193
0.601193
0.601203
0.601213
0.601223
0.601232
0.601232
0.601242
0.601252
0.601262
0.601272
0.601272
0.601282
0.601291
0.601301
0.601311
0.601311
0.601321
0.601331
0.601341
0.601351
0.601351
0.60136
0.60137
0.60138
0.60139
0.60139
0.6014
0.60141
0.60142
0.60143
0.60143
0.60144
0.60145
0.60146
0.60147
0.60147
0.60148
0.60149
0.6015
0.60151
0.60151
0.60152
0.60153
0.60154
0.60155
0.60155
0.60156
0.60157
0.60158
0.60159
0.60159
0.6016
0.60161
0.60162
0.60163
0.60163
0.601641
0.601651
0.601661
0.601671
0.601671
0.601681
0.601691
0.601701
0.601711
0.601711
0.601722
0.601732
0.601742
0.601752
0.601752
0.601762
0.601773
0.601783
0.601793
0.601793
0.601803
0.601814
0.601824
0.601834
0.601834
0.601844
0.601855
0.601865
0.601875
0.601875
0.601885
0.601896
0.601906
0.601916
0.601916
0.601927
0.601937
0.601947
0.601958
0.601958
0.601968
0.601978
0.601989
0.601999
0.601999
0.60201
0.60202
0.60203
0.602041
0.602041
0.602051
0.602062
0.602072
0.602083
0.602083
0.602093
0.602103
0.602114
0.602124
0.602124
0.602135
0.602145
0.602156
0.602166
0.602166
0.602177
0.602187
0.602198
0.602209
0.602209
0.602219
0.60223
0.60224
0.602251
0.602251
0.602261
0.602272
0.602283
0.602293
0.602293
0.602304
0.602314
0.602325
0.602336
0.602336
0.602346
0.602357
0.602368
0.602378
0.602378
0.602389
0.6024
0.60241
0.602421
0.602421
0.602432
0.602443
0.602453
0.602464
0.602464
0.602475
0.602486
0.602496
0.602507
0.602507
0.602518
0.602529
0.602539
0.60255
0.60255
0.602561
0.602572
0.602583
0.602594
0.602594
0.602604
0.602615
0.602626
0.602637
0.602637
0.602648
0.602659
0.60267
0.602681
0.602681
0.602691
0.602702
0.602713
0.602724
0.602724
0.602735
0.602746
0.602757
0.602768
0.602768
0.602779
0.60279
0.602801
0.602812
0.602812
0.602823
0.602834
0.602845
0.602856
0.602856
0.602867
0.602878
0.602889
0.6029
0.6029
0.602911
0.602922
0.602934
0.602945
0.602945
0.602956
0.602967
0.602978
0.602989
0.602989
0.603
0.603011
0.603023
0.603034
0.603034
0.603045
0.603056
0.603067
0.603079
0.603079
0.60309
0.603101
0.603112
0.603123
0.603123
0.603135
0.603146
0.603157
0.603169
0.603169
0.60318
0.603191
0.603202
0.603214
0.603214
0.603225
0.603236
0.603248
0.603259
0.603259
0.60327
0.603282
0.603293
0.603304
0.603304
0.603316
0.603327
0.603339
0.60335
0.60335
0.603361
0.603373
0.603384
0.603396
0.603396
0.603407
0.603419
0.60343
0.603442
0.603442
0.603453
0.603465
0.603476
0.603488
0.603488
0.603499
0.603511
0.603522
0.603534
0.603534
0.603545
0.603557
0.603569
0.60358
0.60358
0.603592
0.603603
0.603615
0.603627
0.603627
0.603638
0.60365
0.603661
0.603673
0.603673
0.603685
0.603696
0.603708
0.60372
0.60372
0.603731
0.603743
0.603755
0.603767
0.603767
0.603778
0.60379
0.603802
0.603814
0.603814
0.603825
0.603837
0.603849
0.603861
0.603861
0.603873
0.603884
0.603896
0.603908
0.603908
0.60392
0.603932
0.603944
0.603955
0.603955
0.603967
0.603979
0.603991
0.604003
0.604003
0.604015
0.604027
0.604039
0.604051
0.604051
0.604063
0.604075
0.604087
0.604099
0.604099
0.60411
0.604122
0.604134
0.604146
0.604146
0.604159
0.604171
0.604183
0.604195
0.604195
0.604207
0.604219
0.604231
0.604243
0.604243
0.604255
0.604267
0.604279
0.604291
0.604291
0.604303
0.604316
0.604328
0.60434
0.60434
0.604352
0.604364
0.604376
0.604389
0.604389
0.604401
0.604413
0.604425
0.604437
0.604437
0.60445
0.604462
0.604474
0.604486
0.604486
0.604499
0.604511
0.604523
0.604536
0.604536
0.604548
0.60456
0.604573
0.604585
0.604585
0.604597
0.60461
0.604622
0.604634
0.604634
0.604647
0.604659
0.604672
0.604684
0.604684
0.604696
0.604709
0.604721
0.604734
0.604734
0.604746
0.604759
0.604771
0.604784
0.604784
0.604796
0.604809
0.604821
0.604834
0.604834
0.604846
0.604859
0.604871
0.604884
0.604884
0.604896
0.604909
0.604921
0.604934
0.604934
0.604946
0.604959
0.604971
0.604984
0.604984
0.604996
0.605009
0.605021
0.605034
0.605034
0.605046
0.605059
0.605072
0.605085
0.605085
0.605098
0.605111
0.605124
0.605137
0.605137
0.605149
0.605162
0.605175
0.605188
0.605188
0.605201
0.605214
0.605226
0.605239
0.605239
0.605252
0.605265
0.605278
0.605291
0.605291
0.605304
0.605316
0.605329
0.605342
0.605342
0.605355
0.605368
0.605381
0.605394
0.605394
0.605407
0.60542
0.605433
0.605446
0.605446
0.605459
0.605472
0.605485
0.605498
0.605498
0.605511
0.605524
0.605537
0.60555
0.60555
0.605563
0.605576
0.605589
0.605602
0.605602
0.605615
0.605629
0.605642
0.605655
0.605655
0.605668
0.605681
0.605694
0.605707
0.605707
0.605721
0.605734
0.605747
0.60576
0.60576
0.605773
0.605787
0.6058
0.605813
0.605813
0.605826
0.60584
0.605853
0.605866
0.605866
0.60588
0.605893
0.605906
0.60592
0.60592
0.605933
0.605946
0.60596
0.605973
0.605973
0.605986
0.606
0.606013
0.606027
0.606027
0.60604
0.606053
0.606067
0.60608
0.60608
0.606094
0.606107
0.606121
0.606134
0.606134
0.606148
0.606161
0.606175
0.606188
0.606188
0.606202
0.606215
0.606229
0.606242
0.606242
0.606256
0.60627
0.606283
0.606297
0.606297
0.60631
0.606324
0.606338
0.606351
0.606351
0.606365
0.606379
0.606392
0.606406
0.606406
0.60642
0.606433
0.606447
0.606461
0.606461
0.606475
0.606488
0.606502
0.606516
0.606516
0.60653
0.606543
0.606557
0.606571
0.606571
0.606585
0.606599
0.606613
0.606626
0.606626
0.60664
0.606654
0.606668
0.606682
0.606682
0.606696
0.60671
0.606724
0.606738
0.606738
0.606752
0.606766
0.606779
0.606793
0.606793
0.606807
0.606821
0.606835
0.606849
0.606849
0.606864
0.606878
0.606892
0.606906
0.606906
0.60692
0.606934
0.606948
0.606962
0.606962
0.606976
0.60699
0.607004
0.607018
0.607018
0.607033
0.607047
0.607061
0.607075
0.607075
0.607089
0.607104
0.607118
0.607132
0.607132
0.607146
0.60716
0.607175
0.607189
0.607189
0.607203
0.607218
0.607232
0.607246
0.607246
0.607261
0.607275
0.607289
0.607304
0.607304
0.607318
0.607332
0.607347
0.607361
0.607361
0.607375
0.60739
0.607404
0.607419
0.607419
0.607433
0.607448
0.607462
0.607477
0.607477
0.607491
0.607506
0.60752
0.607535
0.607535
0.607549
0.607564
0.607578
0.607593
0.607593
0.607607
0.607622
0.607637
0.607651
0.607651
0.607666
0.60768
0.607695
0.60771
0.60771
0.607724
0.607739
0.607754
0.607768
0.607768
0.607783
0.607798
0.607813
0.607827
0.607827
0.607842
0.607857
0.607872
0.607886
0.607886
0.607901
0.607916
0.607931
0.607946
0.607946
0.60796
0.607975
0.60799
0.608005
0.608005
0.60802
0.608035
0.60805
0.608065
0.608065
0.608079
0.608094
0.608109
0.608124
0.608124
0.608139
0.608154
0.608169
0.608184
0.608184
0.608199
0.608214
0.608229
0.608244
0.608244
0.608259
0.608274
0.608289
0.608305
0.608305
0.60832
0.608335
0.60835
0.608365
0.608365
0.60838
0.608395
0.60841
0.608426
0.608426
0.608441
0.608456
0.608471
0.608486
0.608486
0.608502
0.608517
0.608532
0.608547
0.608547
0.608563
0.608578
0.608593
0.608609
0.608609
0.608624
0.608639
0.608655
0.60867
0.60867
0.608685
0.608701
0.608716
0.608731
0.608731
0.608747
0.608762
0.608778
0.608793
0.608793
0.608809
0.608824
0.60884
0.608855
0.608855
0.608871
0.608886
0.608902
0.608917
0.608917
0.608933
0.608948
0.608964
0.608979
0.608979
0.608995
0.609011
0.609026
0.609042
0.609042
0.609057
0.609073
0.609089
0.609104
0.609104
0.60912
0.609136
0.609152
0.609167
0.609167
0.609183
0.609199
0.609214
0.60923
0.60923
0.609246
0.609262
0.609278
0.609293
0.609293
0.609309
0.609325
0.609341
0.609357
0.609357
0.609373
0.609388
0.609404
0.60942
0.60942
0.609436
0.609452
0.609468
0.609484
0.609484
0.6095
0.609516
0.609532
0.609548
0.609548
0.609564
0.60958
0.609596
0.609612
0.609612
0.609628
0.609644
0.60966
0.609676
0.609676
0.609692
0.609708
0.609724
0.609739
0.609739
0.609755
0.609771
0.609788
0.609804
0.609804
0.60982
0.609836
0.609853
0.609869
0.609869
0.609886