<?xml version="1.0"?>
<VTKFile type="UnstructuredGrid" version="0.1" byte_order="LittleEndian">
<UnstructuredGrid>
<Piece NumberOfPoints="5000" NumberOfCells="4000">
<PointData Scalars="Reaction 0">
<DataArray type="Float32" Name="Reaction 0" format="ascii">
0.650622
0.650622
0.650622
0.650622
0.650622
0.650622
0.650623
0.650623
0.650623
0.650623
0.650623
0.650623
0.650623
0.650623
0.650623
0.650623
0.650623
0.650623
0.650624
0.650624
0.650624
0.650624
0.650624
0.650624
0.650624
0.650624
0.650625
0.650625
0.650625
0.650625
0.650625
0.650626
0.650626
0.650626
0.650627
0.650627
0.650627
0.650627
0.650627
0.650628
0.650628
0.650628
0.650628
0.650629
0.650629
0.650629
0.65063
0.65063
0.65063
0.650631
0.650631
0.650631
0.650632
0.650632
0.650633
0.650633
0.650633
0.650634
0.650634
0.650635
0.650635
0.650635
0.650636
0.650636
0.650637
0.650637
0.650637
0.650638
0.650638
0.650639
0.650639
0.65064
0.65064
0.650641
0.650641
0.650641
0.650642
0.650643
0.650643
0.650644
0.650644
0.650645
0.650645
0.650646
0.650647
0.650647
0.650648
0.650648
0.650649
0.65065
0.65065
0.650651
0.650651
0.650652
0.650653
0.650653
0.650654
0.650655
0.650655
0.650656
0.650656
0.650657
0.650658
0.650659
0.65066
0.65066
0.650661
0.650662
0.650662
0.650663
0.650663
0.650664
0.650665
0.650666
0.650667
0.650667
0.650668
0.650669
0.65067
0.650671
0.650671
0.650672
0.650673
0.650674
0.650675
0.650675
0.650676
0.650677
0.650679
0.65068
0.65068
0.650681
0.650682
0.650683
0.650684
0.650684
0.650685
0.650686
0.650688
0.650689
0.650689
0.65069
0.650691
0.650692
0.650694
0.650694
0.650695
0.650696
0.650697
0.650699
0.650699
0.6507
0.650701
0.650702
0.650704
0.650704
0.650705
0.650706
0.650708
0.650709
0.650709
0.65071
0.650712
0.650713
0.650715
0.650715
0.650716
0.650717
0.650719
0.65072
0.65072
0.650722
0.650723
0.650725
0.650726
0.650726
0.650728
0.650729
0.650731
0.650732
0.650732
0.650734
0.650735
0.650737
0.650738
0.650738
0.65074
0.650742
0.650743
0.650745
0.650745
0.650746
0.650748
0.65075
0.650751
0.650751
0.650753
0.650755
0.650756
0.650758
0.650758
0.65076
0.650761
0.650763
0.650765
0.650765
0.650767
0.650768
0.65077
0.650772
0.650772
0.650774
0.650775
0.650777
0.650779
0.650779
0.650781
0.650783
0.650785
0.650786
0.650786
0.650788
0.65079
0.650792
0.650794
0.650794
0.650796
0.650798
0.6508
0.650802
0.650802
0.650804
0.650806
0.650808
0.65081
0.65081
0.650812
0.650814
0.650816
0.650818
0.650818
0.65082
0.650822
0.650824
0.650826
0.650826
0.650828
0.65083
0.650832
0.650834
0.650834
0.650836
0.650839
0.650841
0.650843
0.650843
0.650845
0.650847
0.650849
0.650852
0.650852
0.650854
0.650856
0.650858
0.65086
0.65086
0.650863
0.650865
0.650867
0.65087
0.65087
0.650872
0.650874
0.650876
0.650879
0.650879
0.650881
0.650883
0.650886
0.650888
0.650888
0.650891
0.650893
0.650895
0.650898
0.650898
0.6509
0.650903
0.650905
0.650908
0.650908
0.65091
0.650912
0.650915
0.650917
0.650917
0.65092
0.650923
0.650925
0.650928
0.650928
0.65093
0.650933
0.650935
0.650938
0.650938
0.65094
0.650943
0.650946
0.650948
0.650948
0.650951
0.650954
0.650956
0.650959
0.650959
0.650962
0.650964
0.650967
0.65097
0.65097
0.650972
0.650975
0.650978
0.650981
0.650981
0.650983
0.650986
0.650989
0.650992
0.650992
0.650995
0.650997
0.651
0.651003
0.651003
0.651006
0.651009
0.651012
0.651014
0.651014
0.651017
0.65102
0.651023
0.651026
0.651026
0.651029
0.651032
0.651035
0.651038
0.651038
0.651041
0.651044
0.651047
0.65105
0.65105
0.651053
0.651056
0.651059
0.651062
0.651062
0.651065
0.651068
0.651071
0.651074
0.651074
0.651077
0.651081
0.651084
0.651087
0.651087
0.65109
0.651093
0.651096
0.651099
0.651099
0.651103
0.651106
0.651109
0.651112
0.651112
0.651116
0.651119
0.651122
0.651125
0.651125
0.651129
0.651132
0.651135
0.651138
0.651138
0.651142
0.651145
0.651148
0.651152
0.651152
0.651155
0.651159
0.651162
0.651165
0.651165
0.651169
0.651172
0.651176
0.651179
0.651179
0.651182
0.651186
0.651189
0.651193
0.651193
0.651196
0.6512
0.651203
0.651207
0.651207
0.65121
0.651214
0.651217
0.651221
0.651221
0.651225
0.651228
0.651232
0.651235
0.651235
0.651239
0.651243
0.651246
0.65125
0.65125
0.651254
0.651257
0.651261
0.651265
0.651265
0.651268
0.651272
0.651276
0.65128
0.65128
0.651283
0.651287
0.651291
0.651295
0.651295
0.651298
0.651302
0.651306
0.65131
0.65131
0.651314
0.651317
0.651321
0.651325
0.651325
0.651329
0.651333
0.651337
0.651341
0.651341
0.651345
0.651349
0.651353
0.651356
0.651356
0.65136
0.651364
0.651368
0.651372
0.651372
0.651376
0.65138
0.651384
0.651388
0.651388
0.651392
0.651397
0.651401
0.651405
0.651405
0.651409
0.651413
0.651417
0.651421
0.651421
0.651425
0.651429
0.651434
0.651438
0.651438
0.651442
0.651446
0.65145
0.651454
0.651454
0.651459
0.651463
0.651467
0.651471
0.651471
0.651476
0.65148
0.651484
0.651488
0.651488
0.651493
0.651497
0.651501
0.651506
0.651506
0.65151
0.651514
0.651519
0.651523
0.651523
0.651528
0.651532
0.651536
0.651541
0.651541
0.651545
0.65155
0.651554
0.651559
0.651559
0.651563
0.651568
0.651572
0.651577
0.651577
0.651581
0.651586
0.65159
0.651595
0.651595
0.651599
0.651604
0.651608
0.651613
0.651613
0.651618
0.651622
0.651627
0.651632
0.651632
0.651636
0.651641
0.651645
0.65165
0.65165
0.651655
0.65166
0.651664
0.651669
0.651669
0.651674
0.651678
0.651683
0.651688
0.651688
0.651693
0.651698
0.651702
0.651707
0.651707
0.651712
0.651717
0.651722
0.651727
0.651727
0.651731
0.651736
0.651741
0.651746
0.651746
0.651751
0.651756
0.651761
0.651766
0.651766
0.651771
0.651776
0.651781
0.651786
0.651786
0.651791
0.651796
0.651801
0.651806
0.651806
0.651811
0.651816
0.651821
0.651826
0.651826
0.651831
0.651836
0.651841
0.651846
0.651846
0.651851
0.651856
0.651862
0.651867
0.651867
0.651872
0.651877
0.651882
0.651887
0.651887
0.651893
0.651898
0.651903
0.651908
0.651908
0.651914
0.651919
0.651924
0.651929
0.651929
0.651935
0.65194
0.651945
0.651951
0.651951
0.651956
0.651961
0.651967
0.651972
0.651972
0.651977
0.651983
0.651988
0.651994
0.651994
0.651999
0.652004
0.65201
0.652015
0.652015
0.652021
0.652026
0.652032
0.652037
0.652037
0.652043
0.652048
0.652054
0.652059
0.652059
0.652065
0.652071
0.652076
0.652082
0.652082
0.652087
0.652093
0.652099
0.652104
0.652104
0.65211
0.652115
0.652121
0.652127
0.652127
0.652132
0.652138
0.652144
0.65215
0.65215
0.652155
0.652161
0.652167
0.652173
0.652173
0.652178
0.652184
0.65219
0.652196
0.652196
0.652202
0.652207
0.652213
0.652219
0.652219
0.652225
0.652231
0.652237
0.652243
0.652243
0.652248
0.652254
0.65226
0.652266
0.652266
0.652272
0.652278
0.652284
0.65229
0.65229
0.652296
0.652302
0.652308
0.652314
0.652314
0.65232
0.652326
0.652332
0.652338
0.652338
0.652344
0.65235
0.652356
0.652363
0.652363
0.652369
0.652375
0.652381
0.652387
0.652387
0.652393
0.652399
0.652406
0.652412
0.652412
0.652418
0.652424
0.65243
0.652437
0.652437
0.652443
0.652449
0.652456
0.652462
0.652462
0.652468
0.652474
0.652481
0.652487
0.652487
0.652493
0.6525
0.652506
0.652512
0.652512
0.652519
0.652525
0.652532
0.652538
0.652538
0.652544
0.652551
0.652557
0.652564
0.652564
0.65257
0.652577
0.652583
0.65259
0.65259
0.652596
0.652603
0.652609
0.652616
0.652616
0.652622
0.652629
0.652636
0.652642
0.652642
0.652649
0.652655
0.652662
0.652669
0.652669
0.652675
0.652682
0.652689
0.652695
0.652695
0.652702
0.652709
0.652715
0.652722
0.652722
0.652729
0.652735
0.652742
0.652749
0.652749
0.652756
0.652763
0.652769
0.652776
0.652776
0.652783
0.65279
0.652797
0.652803
0.652803
0.65281
0.652817
0.652824
0.652831
0.652831
0.652838
0.652845
0.652852
0.652859
0.652859
0.652866
0.652873
0.65288
0.652887
0.652887
0.652894
0.652901
0.652908
0.652915
0.652915
0.652922
0.652929
0.652936
0.652943
0.652943
0.65295
0.652957
0.652964
0.652971
0.652971
0.652978
0.652985
0.652993
0.653
0.653
0.653007
0.653014
0.653021
0.653028
0.653028
0.653036
0.653043
0.65305
0.653057
0.653057
0.653065
0.653072
0.653079
0.653086
0.653086
0.653094
0.653101
0.653108
0.653116
0.653116
0.653123
0.65313
0.653138
0.653145
0.653145
0.653153
0.65316
0.653167
0.653175
0.653175
0.653182
0.65319
0.653197
0.653205
0.653205
0.653212
0.653219
0.653227
0.653235
0.653235
0.653242
0.65325
0.653257
0.653265
0.653265
0.653272
0.65328
0.653287
0.653295
0.653295
0.653303
0.65331
0.653318
0.653325
0.653325
0.653333
0.653341
0.653348
0.653356
0.653356
0.653364
0.653372
0.653379
0.653387
0.653387
0.653395
0.653402
0.65341
0.653418
0.653418
0.653426
0.653434
0.653441
0.653449
0.653449
0.653457
0.653465
0.653473
0.653481
0.653481
0.653488
0.653496
0.653504
0.653512
0.653512
0.65352
0.653528
0.653536
0.653544
0.653544
0.653552
0.65356
0.653568
0.653576
0.653576
0.653584
0.653592
0.6536
0.653608
0.653608
0.653616
0.653624
0.653632
0.65364
0.65364
0.653648
0.653656
0.653664
0.653672
0.653672
0.653681
0.653689
0.653697
0.653705
0.653705
0.653713
0.653721
0.653729
0.653737
0.653737
0.653746
0.653754
0.653762
0.65377
0.65377
0.653778
0.653786
0.653795
0.653803
0.653803
0.653811
0.65382
0.653828
0.653837
0.653837
0.653845
0.653854
0.653862
0.653871
0.653871
0.653879
0.653888
0.653896
0.653905
0.653905
0.653913
0.653921
0.65393
0.653938
0.653938
0.653947
0.653955
0.653964
0.653973
0.653973
0.653981
0.65399
0.653998
0.654007
0.654007
0.654015
0.654024
0.654033
0.654041
0.654041
0.65405
0.654058
0.654067
0.654076
0.654076
0.654084
0.654093
0.654102
0.654111
0.654111
0.654119
0.654128
0.654137
0.654145
0.654145
0.654154
0.654163
0.654172
0.654181
0.654181
0.654189
0.654198
0.654207
0.654216
0.654216
0.654225
0.654234
0.654242
0.654251
0.654251
0.65426
0.654269
0.654278
0.654287
0.654287
0.654296
0.654305
0.654314
0.654323
0.654323
0.654332
0.654341
0.65435
0.654359
0.654359
0.654368
0.654377
0.654386
0.654395
0.654395
0.654404
0.654413
0.654422
0.654431
0.654431
0.654441
0.65445
0.654459
0.654468
0.654468
0.654477
0.654486
0.654495
0.654505
0.654505
0.654514
0.654523
0.654532
0.654542
0.654542
0.654551
0.65456
0.654569
0.654579
0.654579
0.654588
0.654597
0.654607
0.654616
0.654616
0.654625
0.654635
0.654644
0.654653
0.654653
0.654663
0.654672
0.654682
0.654691
0.654691
0.6547
0.65471
0.654719
0.654729
0.654729
0.654738
0.654748
0.654757
0.654767
0.654767
0.654776
0.654786
0.654795
0.654805
0.654805
0.654815
0.654824
0.654834
0.654843
0.654843
0.654853
0.654863
0.654872
0.654882
0.654882
0.654891
0.654901
0.654911
0.654921
0.654921
0.65493
0.65494
0.65495
0.654959
0.654959
0.654969
0.654979
0.654989
0.654999
0.654999
0.655008
0.655018
0.655028
0.655038
0.655038
0.655048
0.655057
0.655067
0.655077
0.655077
0.655087
0.655097
0.655107
0.655117
0.655117
0.655127
0.655137
0.655147
0.655157
0.655157
0.655167
0.655177
0.655187
0.655197
0.655197
0.655207
0.655217
0.655227
0.655237
0.655237
0.655247
0.655257
0.655267
0.655277
0.655277
0.655287
0.655297
0.655307
0.655318
0.655318
0.655328
0.655338
0.655348
0.655358
0.655358
0.655368
0.655379
0.655389
0.655399
0.655399
0.655409
0.65542
0.65543
0.65544
0.65544
0.655451
0.655461
0.655471
0.655481
0.655481
0.655492
0.655502
0.655513
0.655523
0.655523
0.655533
0.655544
0.655554
0.655565
0.655565
0.655575
0.655585
0.655596
0.655606
0.655606
0.655617
0.655627
0.655638
0.655648
0.655648
0.655659
0.655669
0.65568
0.65569
0.65569
0.655701
0.655712
0.655722
0.655733
0.655733
0.655743
0.655754
0.655765
0.655775
0.655775
0.655786
0.655797
0.655807
0.655818
0.655818
0.655829
0.655839
0.65585
0.655861
0.655861
0.655872
0.655882
0.655893
0.655904
0.655904
0.655915
0.655926
0.655936
0.655947
0.655947
0.655958
0.655969
0.65598
0.655991
0.655991
0.656002
0.656012
0.656023
0.656034
0.656034
0.656045
0.656056
0.656067
0.656078
0.656078
0.656089
0.6561
0.656111
0.656122
0.656122
0.656133
0.656144
0.656155
0.656166
0.656166
0.656177
0.656188
0.656199
0.656211
0.656211
0.656222
0.656233
0.656244
0.656255
0.656255
0.656266
0.656277
0.656289
0.6563
0.6563
0.656311
0.656322
0.656334
0.656345
0.656345
0.656356
0.656367
0.656379
0.65639
0.65639
0.656401
0.656412
0.656424
0.656435
0.656435
0.656446
0.656458
0.656469
0.656481
0.656481
0.656492
0.656503
0.656515
0.656526
0.656526
0.656538
0.656549
0.656561
0.656572
0.656572
0.656584
0.656595
0.656607
0.656618
0.656618
0.65663
0.656641
0.656653
0.656664
0.656664
0.656676
0.656687
0.656699
0.656711
0.656711
0.656722
0.656734
0.656746
0.656757
0.656757
0.656769
0.656781
0.656792
0.656804
0.656804
0.656816
0.656827
0.656839
0.656851
0.656851
0.656863
0.656874
0.656886
0.656898
0.656898
0.65691
0.656922
0.656934
0.656945
0.656945
0.656957
0.656969
0.656981
0.656993
0.656993
0.657005
0.657017
0.657029
0.657041
0.657041
0.657053
0.657064
0.657076
0.657088
0.657088
0.6571
0.657112
0.657124
0.657136
0.657136
0.657149
0.657161
0.657173
0.657185
0.657185
0.657197
0.657209
0.657221
0.657233
0.657233
0.657245
0.657257
0.65727
0.657282
0.657282
0.657294
0.657306
0.657318
0.657331
0.657331
0.657343
0.657355
0.657367
0.65738
0.65738
0.657392
0.657404
0.657416
0.657429
0.657429
0.657441
0.657453
0.657466
0.657478
0.657478
0.65749
0.657503
0.657515
0.657528
0.657528
0.65754
0.657552
0.657565
0.657577
0.657577
0.65759
0.657602
0.657615
0.657627
0.657627
0.65764
0.657652
0.657665
0.657677
0.657677
0.65769
0.657703
0.657715
0.657728
0.657728
0.65774
0.657753
0.657766
0.657778
0.657778
0.657791
0.657803
0.657816
0.657829
0.657829
0.657842
0.657854
0.657867
0.65788
0.65788
0.657892
0.657905
0.657918
0.657931
0.657931
0.657944
0.657956
0.657969
0.657982
0.657982
0.657995
0.658008
0.658021
0.658033
0.658033
0.658046
0.658059
0.658072
0.658085
0.658085
0.658098
0.658111
0.658124
0.658137
0.658137
0.65815
0.658163
0.658176
0.658189
0.658189
0.658202
0.658215
0.658228
0.658241
0.658241
0.658254
0.658267
0.65828
0.658293
0.658293
0.658306
0.65832
0.658333
0.658346
0.658346
0.658359
0.658372
0.658385
0.658399
0.658399
0.658412
0.658425
0.658438
0.658452
0.658452
0.658465
0.658478
0.658491
0.658505
0.658505
0.658518
0.658531
0.658545
0.658558
0.658558
0.658571
0.658585
0.658598
0.658611
0.658611
0.658625
0.658638
0.658652
0.658665
0.658665
0.658679
0.658692
0.658706
0.658719
0.658719
0.658733
0.658746
0.65876
0.658773
0.658773
0.658787
0.6588
0.658814
0.658827
0.658827
0.658841
0.658855
0.658868
0.658882
0.658882
0.658895
0.658909
0.658923
0.658936
0.658936
0.65895
0.658964
0.658978
0.658991
0.658991
0.659005
0.659019
0.659033
0.659046
0.659046
0.65906
0.659074
0.659088
0.659102
0.659102
0.659115
0.659129
0.659143
0.659157
0.659157
0.659171
0.659185
0.659199
0.659213
0.659213
0.659226
0.65924
0.659254
0.659268
0.659268
0.659282
0.659296
0.65931
0.659324
0.659324
0.659338
0.659352
0.659366
0.65938
0.65938
0.659395
0.659409
0.659423
0.659437
0.659437
0.659451
0.659465
0.659479
0.659493
0.659493
0.659508
0.659522
0.659536
0.65955
0.65955
0.659564
0.659579
0.659593
0.659607
0.659607
0.659621
0.659636
0.65965
0.659664
0.659664
0.659678
0.659693
0.659707
0.659721
0.659721
0.659736
0.65975
0.659765
0.659779
0.659779
0.659793
0.659808
0.659822
0.659837
0.659837
0.659851
0.659866
0.65988
0.659895
0.659895
0.659909
0.659924
0.659938
0.659953
0.659953
0.659967
0.659982
0.659996
0.660011
0.660011
0.660026
0.66004
0.660055
0.660069
0.660069
0.660084
0.660099
0.660113
0.660128
0.660128
0.660143
0.660157
0.660172
0.660187
0.660187
0.660202
0.660216
0.660231
0.660246
0.660246
0.660261
0.660276
0.66029
0.660305
0.660305
0.66032
0.660335
0.66035
0.660365
0.660365
0.66038
0.660394
0.660409
0.660424
0.660424
0.660439
0.660454
0.660469
0.660484
0.660484
0.660499
0.660514
0.660529
0.660544
0.660544
0.660559
0.660574
0.660589
0.660604
0.660604
0.660619
0.660635
0.66065
0.660665
0.660665
0.66068
0.660695
0.66071
0.660725
0.660725
0.660741
0.660756
0.660771
0.660786
0.660786
0.660801
0.660817
0.660832
0.660847
0.660847
0.660862
0.660878
0.660893
0.660908
0.660908
0.660924
0.660939
0.660954
0.66097
0.66097
0.660985
0.661001
0.661016
0.661031
0.661031
0.661047
0.661062
0.661078
0.661093
0.661093
0.661109
0.661124
0.66114
0.661155
0.661155
0.661171
0.661186
0.661202
0.661217
0.661217
0.661233
0.661248
0.661264
0.66128
0.66128
0.661295
0.661311
0.661326
0.661342
0.661342
0.661358
0.661373
0.661389
0.661405
0.661405
0.661421
0.661436
0.661452
0.661468
0.661468
0.661484
0.661499
0.661515
0.661531
0.661531
0.661547
0.661563
0.661578
0.661594
0.661594
0.66161
0.661626
0.661642
0.661658
0.661658
0.661674
0.66169
0.661706
0.661722
0.661722
0.661738
0.661754
0.661769
0.661785
0.661785
0.661802
0.661818
0.661834
0.66185
0.66185
0.661866
0.661882
0.661898
0.661914
0.661914
0.66193
0.661946
0.661962
0.661978
0.661978
0.661995
0.662011
0.662027
0.662043
0.662043
0.662059
0.662076
0.662092
0.662108
0.662108
0.662124
0.662141
0.662157
0.662173
0.662173
0.662189
0.662206
0.662222
0.662238
0.662238
0.662255
0.662271
0.662288
0.662304
0.662304
0.66232
0.662337
0.662353
0.662369
0.662369
0.662386
0.662402
0.662419
0.662435
0.662435
0.662451
0.662468
0.662484
0.662501
0.662501
0.662517
0.662533
0.66255
0.662566
0.662566
0.662583
0.662599
0.662616
0.662633
0.662633
0.66265
0.662667
0.662683
0.6627
0.6627
0.662717
0.662734
0.662751
0.662768
0.662768
0.662784
0.662801
0.662818
0.662835
0.662835
0.662852
0.662869
0.662886
0.662902
0.662902
0.662919
0.662936
0.662953
0.66297
0.66297
0.662987
0.663004
0.663021
0.663038
0.663038
0.663055
0.663072
0.663089
0.663106
0.663106
0.663123
0.66314
0.663157
0.663174
0.663174
0.663191
0.663208
0.663225
0.663242
0.663242
0.663259
0.663276
0.663293
0.66331
0.66331
0.663328
0.663345
0.663362
0.663379
0.663379
0.663396
0.663414
0.663431
0.663448
0.663448
0.663465
0.663483
0.6635
0.663517
0.663517
0.663534
0.663552
0.663569
0.663586
0.663586
0.663604
0.663621
0.663638
0.663656
0.663656
0.663673
0.663691
0.663708
0.663726
0.663726
0.663743
0.663761
0.663778
0.663795
0.663795
0.663813
0.663831
0.663848
0.663866
0.663866
0.663883
0.663901
0.663918
0.663936
0.663936
0.663953
0.663971
0.663989
0.664006
0.664006
0.664024
0.664042
0.664059
0.664077
0.664077
0.664095
0.664113
0.66413
0.664148
0.664148
0.664166
0.664184
0.664201
0.664219
0.664219
0.664237
0.664255
0.664273
0.66429
0.66429
0.664308
0.664326
0.664344
0.664362
0.664362
0.66438
0.664398
0.664416
0.664434
0.664434
0.664452
0.66447
0.664488
0.664506
0.664506
0.664524
0.664542
0.66456
0.664578
0.664578
0.664596
0.664614
0.664632
0.66465
0.66465
0.664668
0.664686
0.664704
0.664722
0.664722
0.664741
0.664759
0.664777
0.664795
0.664795
0.664813
0.664832
0.66485
0.664868
0.664868
0.664886
0.664905
0.664923
0.664941
0.664941
0.66496
0.664978
0.664996
0.665015
0.665015
0.665033
0.665051
0.66507
0.665088
0.665088
0.665107
0.665125
0.665143
0.665162
0.665162
0.66518
0.665199
0.665217
0.665236
0.665236
0.665254
0.665273
0.665291
0.66531
0.66531
0.665329
0.665347
0.665366
0.665384
0.665384
0.665403
0.665422
0.66544
0.665459
0.665459
0.665478
0.665496
0.665515
0.665534
0.665534
0.665552
0.665571
0.66559
0.665609
0.665609
0.665627
0.665646
0.665665
0.665684
0.665684
0.665703
0.665721
0.66574
0.665759
0.665759
0.665778
0.665797
0.665816
0.665835
0.665835
0.665854
0.665873
0.665892
0.665911
0.665911
0.66593
0.665949
0.665968
0.665987
0.665987
0.666006
0.666025
0.666044
0.666063
0.666063
0.666082
0.666101
0.66612
0.666139
0.666139
0.666158
0.666177
0.666197
0.666216
0.666216
0.666235
0.666254
0.666273
0.666293
0.666293
0.666312
0.666331
0.66635
0.66637
0.66637
0.666389
0.666408
0.666428
0.666447
0.666447
0.666466
0.666486
0.666505
0.666524
0.666524
0.666544
0.666563
0.666583
0.666602
0.666602
0.666621
0.666641
0.66666
0.66668
0.66668
0.666699
0.666719
0.666738
0.666758
0.666758
0.666777
0.666797
0.666817
0.666836
0.666836
0.666856
0.666875
0.666895
0.666915
0.666915
0.666934
0.666954
0.666974
0.666993
0.666993
0.667013
0.667033
0.667052
0.667072
0.667072
0.667092
0.667112
0.667131
0.667151
0.667151
0.667171
0.667191
0.667211
0.667231
0.667231
0.66725
0.66727
0.66729
0.66731
0.66731
0.66733
0.66735
0.66737
0.66739
0.66739
0.66741
0.66743
0.66745
0.66747
0.66747
0.66749
0.66751
0.66753
0.66755
0.66755
0.66757
0.66759
0.66761
0.66763
0.66763
0.66765
0.667671
0.667691
0.667711
0.667711
0.667731
0.667751
0.667771
0.667792
0.667792
0.667812
0.667832
0.667852
0.667873
0.667873
0.667893
0.667913
0.667933
0.667954
0.667954
0.667974
0.667994
0.668015
0.668035
0.668035
0.668056
0.668076
0.668096
0.668117
0.668117
0.668137
0.668158
0.668178
0.668199
0.668199
0.668219
0.66824
0.66826
0.668281
0.668281
0.668301
0.668322
0.668342
0.668363
0.668363
0.668383
0.668404
0.668425
0.668445
0.668445
0.668466
0.668487
0.668507
0.668528
0.668528
0.668549
0.668569
0.66859
0.668611
0.668611
0.668632
0.668652
0.668673
0.668694
0.668694
0.668715
0.668735
0.668756
0.668777
0.668777
0.668798
0.668819
0.66884
0.668861
0.668861
0.668882
0.668902
0.668923
0.668944
0.668944
0.668965
0.668986
0.669007
0.669028
0.669028
0.669049
0.66907
0.669091
0.669112
0.669112
0.669133
0.669155
0.669176
0.669197
0.669197
0.669218
0.669239
0.66926
0.669281
0.669281
0.669303
0.669324
0.669345
0.669366
0.669366
0.669387
0.669409
0.66943
0.669451
0.669451
0.669472
0.669494
0.669515
0.669536
0.669536
0.669558
0.669579
0.6696
0.669622
0.669622
0.669643
0.669664
0.669686
0.669707
0.669707
0.669729
0.66975
0.669772
0.669793
0.669793
0.669815
0.669836
0.669858
0.669879
0.669879
0.669901
0.669922
0.669944
0.669965
0.669965
0.669987
0.670009
0.67003
0.670052
0.670052
0.670074
0.670095
0.670117
0.670139
0.670139
0.67016
0.670182
0.670204
0.670226
0.670226
0.670247
0.670269
0.670291
0.670313
0.670313
0.670334
0.670356
0.670378
0.6704
0.6704
0.670422
0.670444
0.670466
0.670488
0.670488
0.670509
0.670531
0.670553
0.670575
0.670575
0.670597
0.670619
0.670641
0.670663
0.670663
0.670685
0.670707
0.670729
0.670751
0.670751
0.670774
0.670796
0.670818
0.67084
0.67084
0.670862
0.670884
0.670906
0.670928
0.670928
0.670951
0.670973
0.670995
0.671017
0.671017
0.67104
0.671062
0.671084
0.671106
0.671106
0.671129
0.671151
0.671173
0.671196
0.671196
0.671218
0.67124
0.671263
0.671285
0.671285
0.671307
0.67133
0.671352
0.671375
0.671375
0.671397
0.67142
0.671442
0.671465
0.671465
0.671487
0.67151
0.671532
0.671555
0.671555
0.671577
0.6716
0.671622
0.671645
0.671645
0.671667
0.67169
0.671712
0.671735
0.671735
0.671757
0.67178
0.671802
0.671825
0.671825
0.671847
0.67187
0.671892
0.671915
0.671915
0.671938
0.671961
0.671984
0.672007
0.672007
0.67203
0.672053
0.672076
0.672099
0.672099
0.672122
0.672145
0.672168
0.672191
0.672191
0.672214
0.672237
0.67226
0.672283
0.672283
0.672306
0.672329
0.672352
0.672376
0.672376
0.672399
0.672422
0.672445
0.672468
0.672468
0.672491
0.672514
0.672537
0.67256
0.67256
0.672584
0.672607
0.67263
0.672653
0.672653
0.672676
0.6727
0.672723
0.672746
0.672746
0.672769
0.672793
0.672816
0.672839
0.672839
0.672863
0.672886
0.672909
0.672933
0.672933
0.672956
0.672979
0.673003
0.673026
0.673026
0.67305
0.673073
0.673097
0.67312
0.67312
0.673144
0.673167
0.673191
0.673214
0.673214
0.673238
0.673261
0.673285
0.673308
0.673308
0.673332
0.673356
0.673379
0.673403
0.673403
0.673427
0.67345
0.673474
0.673498
0.673498
0.673521
0.673545
0.673569
0.673593
0.673593
0.673616
0.67364
0.673664
0.673688
0.673688
0.673711
0.673735
0.673759
0.673783
0.673783
0.673807
0.673831
0.673855
0.673879
0.673879
0.673903
0.673926
0.67395
0.673974
0.673974
0.673998
0.674022
0.674046
0.67407
0.67407
0.674094
0.674119
0.674143
0.674167
0.674167
0.674191
0.674215
0.674239
0.674263
0.674263
0.674287
0.674311
0.674336
0.67436
0.67436
0.674384
0.674408
0.674432
0.674457
0.674457
0.674481
0.674505
0.67453
0.674554
0.674554
0.674578
0.674603
0.674627
0.674651
0.674651
0.674676
0.6747
0.674724
0.674749
0.674749
0.674773
0.674798
0.674822
0.674847
0.674847
0.674871
0.674896
0.67492
0.674945
0.674945
0.674969
0.674994
0.675018
0.675043
0.675043
0.675067
0.675092
0.675117
0.675141
0.675141
0.675166
0.675191
0.675215
0.67524
0.67524
0.675265
0.675289
0.675314
0.675339
0.675339
0.675364
0.675388
0.675413
0.675438
0.675438
0.675463
0.675488
0.675512
0.675537
0.675537
0.675562
0.675587
0.675612
0.675637
0.675637
0.675662
0.675687
0.675712
0.675737
0.675737
0.675762
0.675787
0.675812
0.675837
0.675837
0.675862
0.675887
0.675912
0.675937
0.675937
0.675962
0.675987
0.676012
0.676037
0.676037
0.676063
0.676088
0.676113
0.676138
0.676138
0.676163
0.676189
0.676214
0.676239
0.676239
0.676264
0.67629
0.676315
0.67634
0.67634
0.676365
0.676391
0.676416
0.676442
0.676442
0.676467
0.676492
0.676518
0.676543
0.676543
0.676569
0.676594
0.676619
0.676645
0.676645
0.67667
0.676696
0.676721
0.676747
0.676747
0.676772
0.676798
0.676824
0.676849
0.676849
0.676875
0.6769
0.676926
0.676952
0.676952
0.676977
0.677003
0.677029
0.677054
0.677054
0.67708
0.677106
0.677132
0.677157
0.677157
0.677183
0.677209
0.677235
0.677261
0.677261
0.677286
0.677312
0.677338
0.677364
0.677364
0.67739
0.677416
0.677442
0.677467
0.677467
0.677493
0.677519
0.677545
0.677571
0.677571
0.677597
0.677623
0.677649
0.677675
0.677675
0.677701
0.677728
0.677754
0.67778
0.67778
0.677806
0.677832
0.677858
0.677884
0.677884
0.67791
0.677937
0.677963
0.677989
0.677989
0.678015
0.678041
0.678068
0.678094
0.678094
0.67812
0.678146
0.678173
0.678199
0.678199
0.678225
0.678252
0.678278
0.678305
0.678305
0.678331
0.678357
0.678384
0.67841
0.67841
0.678437
0.678463
0.67849
0.678516
0.678516
0.678543
0.678569
0.678596
0.678622
0.678622
0.678649
0.678675
0.678702
0.678729
0.678729
0.678755
0.678782
0.678808
0.678835
0.678835
0.678862
0.678888
0.678915
0.678942
0.678942
0.678969
0.678995
0.679022
0.679049
0.679049
0.679076
0.679102
0.679129
0.679156
0.679156
0.679183
0.67921
0.679237
0.679264
0.679264
0.679291
0.679317
0.679344
0.679371
0.679371
0.679398
0.679425
0.679452
0.679479
0.679479
0.679506
0.679533
0.67956
0.679587
0.679587
0.679614
0.679642
0.679669
0.679696
0.679696
0.679723
0.67975
0.679777
0.679804
0.679804
0.679832
0.679859
0.679886
0.679913
0.679913
0.679941
0.679968
0.679995
0.680022
0.680022
0.68005
0.680077
0.680104
0.680132
0.680132
0.680159
0.680186
0.680214
0.680241
0.680241
0.680269
0.680296
0.680324
0.680351
0.680351
0.680378
0.680406
0.680433
0.680461
0.680461
0.680489
0.680516
0.680544
0.680571
0.680571
0.680599
0.680626
0.680654
0.680682
0.680682
0.680709
0.680737
0.680765
0.680792
0.680792
0.68082
0.680848
0.680876
0.680903
0.680903
0.680931
0.680959
0.680987
0.681014
0.681014
0.681042
0.68107
0.681098
0.681126
0.681126
0.681154
0.681181
0.681209
0.681237
0.681237
0.681265
0.681293
0.681321
0.681349
0.681349
0.681377
0.681404
0.681432
0.68146
0.68146
0.681488
0.681516
0.681544
0.681572
0.681572
0.6816
0.681628
0.681656
0.681684
0.681684
0.681712
0.68174
0.681768
0.681797
0.681797
0.681825
0.681854
0.681882
0.681911
0.681911
0.681939
0.681968
0.681996
0.682024
0.682024
0.682053
0.682081
0.68211
0.682138
0.682138
0.682167
0.682195
0.682224
0.682252
0.682252
0.682281
0.682309
0.682338
0.682366
0.682366
0.682395
0.682423
0.682452
0.68248
0.68248
0.682509
0.682538
0.682566
0.682595
0.682595
0.682624
0.682652
0.682681
0.68271
0.68271
0.682738
0.682767
0.682796
0.682824
0.682824
0.682853
0.682882
0.682911
0.68294
0.68294
0.682968
0.682997
0.683026
0.683055
0.683055
0.683084
0.683113
0.683141
0.68317
0.68317
0.683199
0.683228
0.683257
0.683286
0.683286
0.683315
0.683344
0.683373
0.683402
0.683402
0.683431
0.68346
0.683489
0.683519
0.683519
0.683548
0.683577
0.683606
0.683635
0.683635
0.683664
0.683693
0.683723
0.683752
0.683752
0.683781
0.68381
0.683839
0.683869
0.683869
0.683898
0.683927
0.683957
0.683986
0.683986
0.684015
0.684045
0.684074
0.684103
0.684103
0.684133
0.684162
0.684192
0.684221
0.684221
0.684251
0.68428
0.68431
0.684339
0.684339
0.684369
0.684398
0.684428
0.684457
0.684457
0.684487
0.684516
0.684546
0.684576
0.684576
0.684605
0.684635
0.684664
0.684694
0.684694
0.684724
0.684754
0.684783
0.684813
0.684813
0.684843
0.684873
0.684902
0.684932
0.684932
0.684962
0.684992
0.685022
0.685051
0.685051
0.685081
0.685111
0.685141
0.685171
0.685171
0.685201
0.685231
0.685261
0.685291
0.685291
0.685321
0.685351
0.685381
0.685411
0.685411
0.685441
0.685471
0.685501
0.685531
0.685531
0.685561
0.685591
0.685621
0.685652
0.685652
0.685682
0.685712
0.685742
0.685772
0.685772
0.685803
0.685833
0.685863
0.685893
0.685893
0.685924
0.685954
0.685984
0.686015
0.686015
0.686045
0.686075
0.686106
0.686136
0.686136
0.686166
0.686197
0.686227
0.686258
0.686258
0.686288
0.686319
0.686349
0.68638
0.68638
0.68641
0.686441
0.686471
0.686502
0.686502
0.686532
0.686563
0.686594
0.686624
0.686624
0.686655
0.686686
0.686716
0.686747
0.686747
0.686778
0.686808
0.686839
0.68687
0.68687
0.686901
0.686931
0.686962
0.686993
0.686993
0.687024
0.687055
0.687085
0.687116
0.687116
0.687147
0.687178
0.687209
0.68724
0.68724
0.687271
0.687302
0.687333
0.687364
0.687364
0.687395
0.687426
0.687457
0.687488
0.687488
0.687519
0.68755
0.687581
0.687612
0.687612
0.687643
0.687674
0.687706
0.687737
0.687737
0.687768
0.687799
0.68783
0.687862
0.687862
0.687893
0.687924
0.687955
0.687987
0.687987
0.688018
0.688049
0.688081
0.688112
0.688112
0.688143
0.688175
0.688206
0.688237
0.688237
0.688269
0.6883
0.688332
0.688363
0.688363
0.688395
0.688426
0.688458
0.688489
0.688489
0.688521
0.688552
0.688584
0.688615
0.688615
0.688647
0.688679
0.68871
0.688742
0.688742
0.688774
0.688805
0.688837
0.688869
0.688869
0.6889
0.688932
0.688964
0.688996
0.688996
0.689027
0.689059
0.689091
0.689123
0.689123
0.689155
0.689186
0.689218
0.68925
0.68925
0.689282
0.689314
0.689346
0.689378
0.689378
0.68941
0.689442
0.689474
0.689506
0.689506
0.689538
0.68957
0.689602
0.689634
0.689634
0.689666
0.689698
0.68973
0.689762
0.689762
0.689794
0.689827
0.689859
0.689891
0.689891
0.689923
0.689955
0.689988
0.69002
0.69002
0.690052
0.690084
0.690117
0.690149
0.690149
0.690181
0.690214
0.690246
0.690278
0.690278
0.690311
0.690343
0.690376
0.690408
0.690408
0.69044
0.690473
0.690505
0.690538
0.690538
0.69057
0.690603
0.690635
0.690668
0.690668
0.6907
0.690733
0.690766
0.690798
0.690798
0.690831
0.690864
0.690896
0.690929
0.690929
0.690961
0.690994
0.691027
0.69106
0.69106
0.691092
0.691125
0.691158
0.691191
0.691191
0.691223
0.691256
0.691289
0.691322
0.691322
0.691354
0.691387
0.69142
0.691453
0.691453
0.691485
0.691518
0.691551
0.691584
0.691584
0.691616
0.691649
0.691682
0.691715
0.691715
0.691748
0.691781
0.691814
0.691847
0.691847
0.69188
0.691913
0.691947
0.69198
0.69198