<?xml version="1.0"?>
<VTKFile type="UnstructuredGrid" version="0.1" byte_order="LittleEndian">
<UnstructuredGrid>
<Piece NumberOfPoints="5000" NumberOfCells="4000">
<PointData Scalars="Reaction 0">
<DataArray type="Float32" Name="Reaction 0" format="ascii">
0.586682
0.586682
0.586682
0.586682
0.586682
0.586682
0.586682
0.586682
0.586682
0.586682
0.586682
0.586682
0.586683
0.586683
0.586683
0.586683
0.586683
0.586683
0.586683
0.586683
0.586683
0.586683
0.586683
0.586683
0.586683
0.586683
0.586683
0.586683
0.586683
0.586683
0.586683
0.586683
0.586683
0.586683
0.586683
0.586683
0.586683
0.586684
0.586684
0.586684
0.586684
0.586684
0.586684
0.586684
0.586684
0.586684
0.586684
0.586684
0.586684
0.586684
0.586684
0.586685
0.586685
0.586685
0.586685
0.586685
0.586685
0.586685
0.586685
0.586685
0.586685
0.586686
0.586686
0.586686
0.586686
0.586686
0.586686
0.586686
0.586686
0.586686
0.586686
0.586687
0.586687
0.586687
0.586687
0.586687
0.586687
0.586687
0.586688
0.586688
0.586688
0.586688
0.586688
0.586688
0.586688
0.586688
0.586689
0.586689
0.586689
0.586689
0.586689
0.586689
0.58669
0.58669
0.58669
0.58669
0.58669
0.58669
0.586691
0.586691
0.586691
0.586691
0.586691
0.586691
0.586692
0.586692
0.586692
0.586692
0.586692
0.586693
0.586693
0.586693
0.586693
0.586693
0.586693
0.586693
0.586694
0.586694
0.586694
0.586694
0.586694
0.586695
0.586695
0.586695
0.586695
0.586695
0.586696
0.586696
0.586696
0.586697
0.586697
0.586697
0.586697
0.586697
0.586698
0.586698
0.586698
0.586698
0.586699
0.586699
0.586699
0.586699
0.586699
0.5867
0.5867
0.5867
0.5867
0.586701
0.586701
0.586701
0.586701
0.586702
0.586702
0.586702
0.586703
0.586703
0.586703
0.586703
0.586704
0.586704
0.586704
0.586704
0.586705
0.586705
0.586705
0.586705
0.586706
0.586706
0.586706
0.586707
0.586707
0.586707
0.586707
0.586708
0.586708
0.586708
0.586708
0.586709
0.586709
0.58671
0.58671
0.58671
0.58671
0.586711
0.586711
0.586711
0.586711
0.586712
0.586712
0.586713
0.586713
0.586713
0.586713
0.586714
0.586714
0.586714
0.586715
0.586715
0.586715
0.586716
0.586716
0.586716
0.586717
0.586717
0.586718
0.586718
0.586718
0.586718
0.586719
0.586719
0.586719
0.58672
0.58672
0.586721
0.586721
0.586721
0.586722
0.586722
0.586723
0.586723
0.586723
0.586723
0.586724
0.586724
0.586725
0.586725
0.586725
0.586726
0.586726
0.586727
0.586727
0.586727
0.586728
0.586728
0.586729
0.586729
0.586729
0.58673
0.58673
0.586731
0.586731
0.586731
0.586732
0.586732
0.586733
0.586733
0.586733
0.586734
0.586734
0.586735
0.586735
0.586735
0.586736
0.586736
0.586737
0.586737
0.586737
0.586738
0.586739
0.586739
0.586739
0.58674
0.58674
0.586741
0.586741
0.586741
0.586742
0.586742
0.586743
0.586744
0.586744
0.586744
0.586745
0.586745
0.586746
0.586746
0.586746
0.586747
0.586748
0.586748
0.586748
0.586749
0.586749
0.58675
0.586751
0.586751
0.586751
0.586752
0.586752
0.586753
0.586753
0.586754
0.586754
0.586755
0.586755
0.586755
0.586756
0.586757
0.586757
0.586758
0.586758
0.586759
0.586759
0.58676
0.58676
0.58676
0.586761
0.586762
0.586762
0.586763
0.586763
0.586764
0.586764
0.586765
0.586766
0.586766
0.586766
0.586767
0.586768
0.586768
0.586768
0.586769
0.58677
0.58677
0.586771
0.586771
0.586772
0.586772
0.586773
0.586774
0.586774
0.586775
0.586775
0.586776
0.586777
0.586777
0.586777
0.586778
0.586779
0.586779
0.586779
0.58678
0.586781
0.586782
0.586782
0.586782
0.586783
0.586784
0.586785
0.586785
0.586785
0.586786
0.586787
0.586788
0.586788
0.586788
0.586789
0.58679
0.586791
0.586791
0.586791
0.586792
0.586793
0.586794
0.586794
0.586794
0.586795
0.586796
0.586797
0.586797
0.586797
0.586798
0.586799
0.5868
0.586801
0.586801
0.586801
0.586802
0.586803
0.586804
0.586804
0.586805
0.586805
0.586806
0.586807
0.586807
0.586808
0.586809
0.586809
0.58681
0.58681
0.586811
0.586812
0.586813
0.586814
0.586814
0.586814
0.586815
0.586816
0.586817
0.586817
0.586818
0.586819
0.586819
0.58682
0.58682
0.586821
0.586822
0.586823
0.586824
0.586824
0.586825
0.586825
0.586826
0.586827
0.586827
0.586828
0.586829
0.58683
0.586831
0.586831
0.586832
0.586833
0.586833
0.586834
0.586834
0.586835
0.586836
0.586837
0.586838
0.586838
0.586839
0.58684
0.586841
0.586842
0.586842
0.586842
0.586843
0.586844
0.586845
0.586845
0.586846
0.586847
0.586848
0.586849
0.586849
0.58685
0.586851
0.586852
0.586853
0.586853
0.586854
0.586855
0.586856
0.586857
0.586857
0.586858
0.586859
0.58686
0.58686
0.58686
0.586861
0.586862
0.586863
0.586864
0.586864
0.586865
0.586866
0.586867
0.586868
0.586868
0.586869
0.58687
0.586871
0.586872
0.586872
0.586873
0.586874
0.586875
0.586876
0.586876
0.586877
0.586878
0.586879
0.58688
0.58688
0.586882
0.586883
0.586884
0.586885
0.586885
0.586886
0.586887
0.586888
0.586889
0.586889
0.58689
0.586891
0.586892
0.586893
0.586893
0.586894
0.586895
0.586896
0.586897
0.586897
0.586898
0.586899
0.5869
0.586902
0.586902
0.586903
0.586904
0.586905
0.586906
0.586906
0.586907
0.586908
0.586909
0.58691
0.58691
0.586911
0.586912
0.586914
0.586915
0.586915
0.586916
0.586917
0.586918
0.586919
0.586919
0.58692
0.586921
0.586923
0.586924
0.586924
0.586925
0.586926
0.586927
0.586928
0.586928
0.586929
0.586931
0.586932
0.586933
0.586933
0.586934
0.586935
0.586936
0.586938
0.586938
0.586939
0.58694
0.586941
0.586942
0.586942
0.586943
0.586945
0.586946
0.586947
0.586947
0.586948
0.586949
0.586951
0.586952
0.586952
0.586953
0.586954
0.586955
0.586957
0.586957
0.586958
0.586959
0.58696
0.586961
0.586961
0.586963
0.586964
0.586965
0.586966
0.586966
0.586968
0.586969
0.58697
0.586971
0.586971
0.586973
0.586974
0.586975
0.586976
0.586976
0.586978
0.586979
0.58698
0.586981
0.586981
0.586983
0.586984
0.586985
0.586986
0.586986
0.586988
0.586989
0.58699
0.586992
0.586992
0.586993
0.586994
0.586995
0.586997
0.586997
0.586998
0.586999
0.587001
0.587002
0.587002
0.587003
0.587005
0.587006
0.587007
0.587007
0.587009
0.58701
0.587011
0.587012
0.587012
0.587014
0.587015
0.587016
0.587018
0.587018
0.587019
0.587021
0.587022
0.587023
0.587023
0.587025
0.587026
0.587027
0.587029
0.587029
0.58703
0.587031
0.587033
0.587034
0.587034
0.587036
0.587037
0.587038
0.58704
0.58704
0.587041
0.587042
0.587044
0.587045
0.587045
0.587047
0.587048
0.587049
0.587051
0.587051
0.587052
0.587054
0.587055
0.587057
0.587057
0.587058
0.587059
0.587061
0.587062
0.587062
0.587064
0.587065
0.587067
0.587068
0.587068
0.587069
0.587071
0.587072
0.587074
0.587074
0.587075
0.587077
0.587078
0.58708
0.58708
0.587081
0.587083
0.587084
0.587085
0.587085
0.587087
0.587088
0.58709
0.587091
0.587091
0.587093
0.587094
0.587096
0.587097
0.587097
0.587099
0.5871
0.587102
0.587103
0.587103
0.587105
0.587106
0.587108
0.587109
0.587109
0.587111
0.587112
0.587114
0.587116
0.587116
0.587117
0.587119
0.58712
0.587122
0.587122
0.587123
0.587125
0.587126
0.587128
0.587128
0.587129
0.587131
0.587133
0.587134
0.587134
0.587136
0.587137
0.587139
0.58714
0.58714
0.587142
0.587144
0.587145
0.587147
0.587147
0.587148
0.58715
0.587152
0.587153
0.587153
0.587155
0.587156
0.587158
0.58716
0.58716
0.587161
0.587163
0.587164
0.587166
0.587166
0.587168
0.587169
0.587171
0.587173
0.587173
0.587174
0.587176
0.587177
0.587179
0.587179
0.587181
0.587182
0.587184
0.587186
0.587186
0.587187
0.587189
0.587191
0.587192
0.587192
0.587194
0.587196
0.587197
0.587199
0.587199
0.587201
0.587202
0.587204
0.587206
0.587206
0.587207
0.587209
0.587211
0.587213
0.587213
0.587214
0.587216
0.587218
0.587219
0.587219
0.587221
0.587223
0.587225
0.587226
0.587226
0.587228
0.58723
0.587231
0.587233
0.587233
0.587235
0.587237
0.587238
0.58724
0.58724
0.587242
0.587244
0.587245
0.587247
0.587247
0.587249
0.587251
0.587252
0.587254
0.587254
0.587256
0.587258
0.587259
0.587261
0.587261
0.587263
0.587265
0.587267
0.587268
0.587268
0.58727
0.587272
0.587274
0.587276
0.587276
0.587277
0.587279
0.587281
0.587283
0.587283
0.587285
0.587286
0.587288
0.58729
0.58729
0.587292
0.587294
0.587296
0.587297
0.587297
0.587299
0.587301
0.587303
0.587305
0.587305
0.587307
0.587309
0.58731
0.587312
0.587312
0.587314
0.587316
0.587318
0.58732
0.58732
0.587322
0.587323
0.587325
0.587327
0.587327
0.587329
0.587331
0.587333
0.587335
0.587335
0.587337
0.587339
0.58734
0.587342
0.587342
0.587344
0.587346
0.587348
0.58735
0.58735
0.587352
0.587354
0.587356
0.587358
0.587358
0.58736
0.587362
0.587364
0.587365
0.587365
0.587367
0.587369
0.587371
0.587373
0.587373
0.587375
0.587377
0.587379
0.587381
0.587381
0.587383
0.587385
0.587387
0.587389
0.587389
0.587391
0.587393
0.587395
0.587397
0.587397
0.587399
0.587401
0.587403
0.587405
0.587405
0.587407
0.587409
0.587411
0.587413
0.587413
0.587415
0.587417
0.587419
0.587421
0.587421
0.587423
0.587425
0.587427
0.587429
0.587429
0.587431
0.587433
0.587435
0.587437
0.587437
0.587439
0.587441
0.587443
0.587446
0.587446
0.587448
0.58745
0.587452
0.587454
0.587454
0.587456
0.587458
0.58746
0.587462
0.587462
0.587464
0.587466
0.587468
0.58747
0.58747
0.587472
0.587474
0.587476
0.587478
0.587478
0.587481
0.587483
0.587485
0.587487
0.587487
0.587489
0.587491
0.587494
0.587496
0.587496
0.587498
0.5875
0.587502
0.587504
0.587504
0.587506
0.587509
0.587511
0.587513
0.587513
0.587515
0.587517
0.587519
0.587522
0.587522
0.587524
0.587526
0.587528
0.58753
0.58753
0.587532
0.587535
0.587537
0.587539
0.587539
0.587541
0.587543
0.587546
0.587548
0.587548
0.58755
0.587552
0.587554
0.587557
0.587557
0.587559
0.587561
0.587563
0.587565
0.587565
0.587568
0.58757
0.587572
0.587574
0.587574
0.587577
0.587579
0.587581
0.587583
0.587583
0.587586
0.587588
0.58759
0.587592
0.587592
0.587595
0.587597
0.587599
0.587601
0.587601
0.587604
0.587606
0.587608
0.587611
0.587611
0.587613
0.587615
0.587617
0.58762
0.58762
0.587622
0.587624
0.587627
0.587629
0.587629
0.587631
0.587634
0.587636
0.587638
0.587638
0.587641
0.587643
0.587645
0.587647
0.587647
0.58765
0.587652
0.587655
0.587657
0.587657
0.587659
0.587662
0.587664
0.587666
0.587666
0.587669
0.587671
0.587673
0.587676
0.587676
0.587678
0.58768
0.587683
0.587685
0.587685
0.587688
0.58769
0.587692
0.587695
0.587695
0.587697
0.5877
0.587702
0.587704
0.587704
0.587707
0.587709
0.587712
0.587714
0.587714
0.587716
0.587719
0.587721
0.587724
0.587724
0.587726
0.587729
0.587731
0.587733
0.587733
0.587736
0.587738
0.587741
0.587743
0.587743
0.587746
0.587748
0.587751
0.587753
0.587753
0.587756
0.587758
0.587761
0.587763
0.587763
0.587765
0.587768
0.58777
0.587773
0.587773
0.587775
0.587778
0.58778
0.587783
0.587783
0.587785
0.587788
0.58779
0.587793
0.587793
0.587795
0.587798
0.587801
0.587803
0.587803
0.587806
0.587808
0.587811
0.587813
0.587813
0.587816
0.587818
0.587821
0.587823
0.587823
0.587826
0.587829
0.587831
0.587834
0.587834
0.587836
0.587839
0.587841
0.587844
0.587844
0.587847
0.587849
0.587852
0.587854
0.587854
0.587857
0.587859
0.587862
0.587865
0.587865
0.587867
0.58787
0.587872
0.587875
0.587875
0.587878
0.58788
0.587883
0.587886
0.587886
0.587888
0.587891
0.587893
0.587896
0.587896
0.587899
0.587901
0.587904
0.587907
0.587907
0.587909
0.587912
0.587915
0.587917
0.587917
0.58792
0.587923
0.587925
0.587928
0.587928
0.587931
0.587933
0.587936
0.587939
0.587939
0.587941
0.587944
0.587947
0.58795
0.58795
0.587952
0.587955
0.587958
0.58796
0.58796
0.587963
0.587966
0.587969
0.587971
0.587971
0.587974
0.587977
0.58798
0.587982
0.587982
0.587985
0.587988
0.587991
0.587993
0.587993
0.587996
0.587999
0.588002
0.588004
0.588004
0.588007
0.58801
0.588013
0.588015
0.588015
0.588018
0.588021
0.588024
0.588027
0.588027
0.588029
0.588032
0.588035
0.588038
0.588038
0.588041
0.588043
0.588046
0.588049
0.588049
0.588052
0.588055
0.588057
0.58806
0.58806
0.588063
0.588066
0.588069
0.588072
0.588072
0.588074
0.588077
0.58808
0.588083
0.588083
0.588086
0.588089
0.588092
0.588094
0.588094
0.588097
0.5881
0.588103
0.588106
0.588106
0.588109
0.588112
0.588115
0.588118
0.588118
0.58812
0.588123
0.588126
0.588129
0.588129
0.588132
0.588135
0.588138
0.588141
0.588141
0.588144
0.588147
0.58815
0.588153
0.588153
0.588155
0.588158
0.588161
0.588164
0.588164
0.588167
0.58817
0.588173
0.588176
0.588176
0.588179
0.588182
0.588185
0.588188
0.588188
0.588191
0.588194
0.588197
0.5882
0.5882
0.588203
0.588206
0.588209
0.588212
0.588212
0.588215
0.588218
0.588221
0.588224
0.588224
0.588227
0.58823
0.588233
0.588236
0.588236
0.588239
0.588242
0.588245
0.588248
0.588248
0.588251
0.588254
0.588257
0.58826
0.58826
0.588263
0.588266
0.588269
0.588273
0.588273
0.588276
0.588279
0.588282
0.588285
0.588285
0.588288
0.588291
0.588294
0.588297
0.588297
0.5883
0.588303
0.588306
0.58831
0.58831
0.588313
0.588316
0.588319
0.588322
0.588322
0.588325
0.588328
0.588331
0.588334
0.588334
0.588338
0.588341
0.588344
0.588347
0.588347
0.58835
0.588353
0.588356
0.58836
0.58836
0.588363
0.588366
0.588369
0.588372
0.588372
0.588375
0.588379
0.588382
0.588385
0.588385
0.588388
0.588391
0.588395
0.588398
0.588398
0.588401
0.588404
0.588407
0.588411
0.588411
0.588414
0.588417
0.58842
0.588423
0.588423
0.588427
0.58843
0.588433
0.588436
0.588436
0.58844
0.588443
0.588446
0.588449
0.588449
0.588453
0.588456
0.588459
0.588462
0.588462
0.588466
0.588469
0.588472
0.588476
0.588476
0.588479
0.588482
0.588485
0.588489
0.588489
0.588492
0.588495
0.588499
0.588502
0.588502
0.588505
0.588508
0.588512
0.588515
0.588515
0.588518
0.588522
0.588525
0.588528
0.588528
0.588532
0.588535
0.588538
0.588542
0.588542
0.588545
0.588548
0.588552
0.588555
0.588555
0.588559
0.588562
0.588565
0.588569
0.588569
0.588572
0.588575
0.588579
0.588582
0.588582
0.588586
0.588589
0.588592
0.588596
0.588596
0.588599
0.588603
0.588606
0.588609
0.588609
0.588613
0.588616
0.58862
0.588623
0.588623
0.588627
0.58863
0.588633
0.588637
0.588637
0.58864
0.588644
0.588647
0.588651
0.588651
0.588654
0.588658
0.588661
0.588665
0.588665
0.588668
0.588671
0.588675
0.588678
0.588678
0.588682
0.588685
0.588689
0.588692
0.588692
0.588696
0.588699
0.588703
0.588706
0.588706
0.58871
0.588713
0.588717
0.588721
0.588721
0.588724
0.588728
0.588731
0.588735
0.588735
0.588738
0.588742
0.588745
0.588749
0.588749
0.588752
0.588756
0.58876
0.588763
0.588763
0.588767
0.58877
0.588774
0.588777
0.588777
0.588781
0.588785
0.588788
0.588792
0.588792
0.588795
0.588799
0.588803
0.588806
0.588806
0.58881
0.588813
0.588817
0.588821
0.588821
0.588824
0.588828
0.588832
0.588835
0.588835
0.588839
0.588842
0.588846
0.58885
0.58885
0.588853
0.588857
0.588861
0.588864
0.588864
0.588868
0.588872
0.588875
0.588879
0.588879
0.588883
0.588886
0.58889
0.588894
0.588894
0.588898
0.588901
0.588905
0.588909
0.588909
0.588912
0.588916
0.58892
0.588924
0.588924
0.588927
0.588931
0.588935
0.588938
0.588938
0.588942
0.588946
0.58895
0.588953
0.588953
0.588957
0.588961
0.588965
0.588969
0.588969
0.588972
0.588976
0.58898
0.588984
0.588984
0.588987
0.588991
0.588995
0.588999
0.588999
0.589003
0.589006
0.58901
0.589014
0.589014
0.589018
0.589022
0.589025
0.589029
0.589029
0.589033
0.589037
0.589041
0.589045
0.589045
0.589048
0.589052
0.589056
0.58906
0.58906
0.589064
0.589068
0.589072
0.589075
0.589075
0.589079
0.589083
0.589087
0.589091
0.589091
0.589095
0.589099
0.589103
0.589107
0.589107
0.58911
0.589114
0.589118
0.589122
0.589122
0.589126
0.58913
0.589134
0.589138
0.589138
0.589142
0.589146
0.58915
0.589154
0.589154
0.589158
0.589161
0.589165
0.589169
0.589169
0.589173
0.589177
0.589181
0.589185
0.589185
0.589189
0.589193
0.589197
0.589201
0.589201
0.589205
0.589209
0.589213
0.589217
0.589217
0.589221
0.589225
0.589229
0.589233
0.589233
0.589237
0.589241
0.589245
0.589249
0.589249
0.589253
0.589257
0.589261
0.589265
0.589265
0.58927
0.589274
0.589278
0.589282
0.589282
0.589286
0.58929
0.589294
0.589298
0.589298
0.589302
0.589306
0.58931
0.589314
0.589314
0.589318
0.589323
0.589327
0.589331
0.589331
0.589335
0.589339
0.589343
0.589347
0.589347
0.589351
0.589355
0.58936
0.589364
0.589364
0.589368
0.589372
0.589376
0.58938
0.58938
0.589384
0.589389
0.589393
0.589397
0.589397
0.589401
0.589405
0.589409
0.589414
0.589414
0.589418
0.589422
0.589426
0.58943
0.58943
0.589435
0.589439
0.589443
0.589447
0.589447
0.589451
0.589456
0.58946
0.589464
0.589464
0.589468
0.589473
0.589477
0.589481
0.589481
0.589485
0.58949
0.589494
0.589498
0.589498
0.589502
0.589507
0.589511
0.589515
0.589515
0.589519
0.589524
0.589528
0.589532
0.589532
0.589537
0.589541
0.589545
0.58955
0.58955
0.589554
0.589558
0.589562
0.589567
0.589567
0.589571
0.589575
0.58958
0.589584
0.589584
0.589588
0.589593
0.589597
0.589601
0.589601
0.589606
0.58961
0.589615
0.589619
0.589619
0.589623
0.589628
0.589632
0.589636
0.589636
0.589641
0.589645
0.58965
0.589654
0.589654
0.589658
0.589663
0.589667
0.589672
0.589672
0.589676
0.58968
0.589685
0.589689
0.589689
0.589694
0.589698
0.589703
0.589707
0.589707
0.589712
0.589716
0.58972
0.589725
0.589725
0.589729
0.589734
0.589738
0.589743
0.589743
0.589747
0.589752
0.589756
0.58976
0.58976
0.589765
0.589769
0.589774
0.589778
0.589778
0.589782
0.589787
0.589792
0.589796
0.589796
0.589801
0.589806
0.58981
0.589815
0.589815
0.589819
0.589824
0.589829
0.589833
0.589833
0.589838
0.589842
0.589847
0.589851
0.589851
0.589856
0.589861
0.589865
0.58987
0.58987
0.589874
0.589879
0.589884
0.589888
0.589888
0.589893
0.589897
0.589902
0.589907
0.589907
0.589911
0.589916
0.589921
0.589925
0.589925
0.58993
0.589934
0.589939
0.589944
0.589944
0.589948
0.589953
0.589958
0.589962
0.589962
0.589967
0.589972
0.589976
0.589981
0.589981
0.589986
0.589991
0.589995
0.59
0.59
0.590005
0.590009
0.590014
0.590019
0.590019
0.590023
0.590028
0.590033
0.590038
0.590038
0.590042
0.590047
0.590052
0.590057
0.590057
0.590061
0.590066
0.590071
0.590076
0.590076
0.59008
0.590085
0.59009
0.590095
0.590095
0.5901
0.590104
0.590109
0.590114
0.590114
0.590119
0.590124
0.590128
0.590133
0.590133
0.590138
0.590143
0.590148
0.590153
0.590153
0.590157
0.590162
0.590167
0.590172
0.590172
0.590177
0.590182
0.590187
0.590191
0.590191
0.590196
0.590201
0.590206
0.590211
0.590211
0.590216
0.590221
0.590226
0.59023
0.59023
0.590235
0.59024
0.590245
0.59025
0.59025
0.590255
0.59026
0.590265
0.59027
0.59027
0.590275
0.59028
0.590285
0.59029
0.59029
0.590295
0.5903
0.590304
0.590309
0.590309
0.590314
0.590319
0.590324
0.590329
0.590329
0.590334
0.590339
0.590344
0.590349
0.590349
0.590354
0.590359
0.590364
0.590369
0.590369
0.590374
0.590379
0.590385
0.59039
0.59039
0.590395
0.5904
0.590405
0.59041
0.59041
0.590415
0.59042
0.590425
0.59043
0.59043
0.590435
0.59044
0.590445
0.59045
0.59045
0.590455
0.59046
0.590466
0.590471
0.590471
0.590476
0.590481
0.590486
0.590491
0.590491
0.590496
0.590501
0.590507
0.590512
0.590512
0.590517
0.590522
0.590527
0.590532
0.590532
0.590537
0.590543
0.590548
0.590553
0.590553
0.590558
0.590563
0.590569
0.590574
0.590574
0.590579
0.590584
0.590589
0.590595
0.590595
0.5906
0.590605
0.59061
0.590615
0.590615
0.590621
0.590626
0.590631
0.590636
0.590636
0.590642
0.590647
0.590652
0.590657
0.590657
0.590663
0.590668
0.590673
0.590678
0.590678
0.590684
0.590689
0.590694
0.5907
0.5907
0.590705
0.59071
0.590716
0.590721
0.590721
0.590726
0.590731
0.590737
0.590742
0.590742
0.590747
0.590753
0.590758
0.590764
0.590764
0.590769
0.590774
0.59078
0.590785
0.590785
0.59079
0.590796
0.590801
0.590806
0.590806
0.590812
0.590817
0.590823
0.590828
0.590828
0.590833
0.590839
0.590844
0.59085
0.59085
0.590855
0.590861
0.590866
0.590871
0.590871
0.590877
0.590882
0.590888
0.590893
0.590893
0.590899
0.590904
0.59091
0.590915
0.590915
0.590921
0.590926
0.590932
0.590937
0.590937
0.590943
0.590948
0.590954
0.590959
0.590959
0.590965
0.59097
0.590976
0.590981
0.590981
0.590987
0.590992
0.590998
0.591003
0.591003
0.591009
0.591014
0.59102
0.591026
0.591026
0.591031
0.591037
0.591042
0.591048
0.591048
0.591054
0.591059
0.591065
0.59107
0.59107
0.591076
0.591082
0.591087
0.591093
0.591093
0.591098
0.591104
0.59111
0.591115
0.591115
0.591121
0.591127
0.591132
0.591138
0.591138
0.591144
0.591149
0.591155
0.591161
0.591161
0.591166
0.591172
0.591178
0.591183
0.591183
0.591189
0.591195
0.5912
0.591206
0.591206
0.591212
0.591218
0.591223
0.591229
0.591229
0.591235
0.591241
0.591246
0.591252
0.591252
0.591258
0.591264
0.591269
0.591275
0.591275
0.591281
0.591287
0.591292
0.591298
0.591298
0.591304
0.59131
0.591316
0.591321
0.591321
0.591327
0.591333
0.591339
0.591345
0.591345
0.591351
0.591356
0.591362
0.591368
0.591368
0.591374
0.59138
0.591386
0.591391
0.591391
0.591397
0.591403
0.591409
0.591415
0.591415
0.591421
0.591427
0.591433
0.591439
0.591439
0.591444
0.59145
0.591456
0.591462
0.591462
0.591468
0.591474
0.59148
0.591486
0.591486
0.591492
0.591498
0.591504
0.59151
0.59151
0.591516
0.591522
0.591528
0.591534
0.591534
0.59154
0.591546
0.591552
0.591558
0.591558
0.591564
0.59157
0.591576
0.591582
0.591582
0.591588
0.591594
0.5916
0.591606
0.591606
0.591612
0.591618
0.591624
0.59163
0.59163
0.591636
0.591642
0.591648
0.591654
0.591654
0.59166
0.591666
0.591673
0.591679
0.591679
0.591685
0.591691
0.591697
0.591703
0.591703
0.591709
0.591715
0.591721
0.591728
0.591728
0.591734
0.59174
0.591746
0.591752
0.591752
0.591758
0.591764
0.591771
0.591777
0.591777
0.591783
0.591789
0.591795
0.591802
0.591802
0.591808
0.591814
0.59182
0.591826
0.591826
0.591833
0.591839
0.591845
0.591851
0.591851
0.591858
0.591864
0.59187
0.591876
0.591876
0.591883
0.591889
0.591895
0.591901
0.591901
0.591908
0.591914
0.59192
0.591926
0.591926
0.591933
0.591939
0.591945
0.591952
0.591952
0.591958
0.591964
0.591971
0.591977
0.591977
0.591983
0.59199
0.591996
0.592002
0.592002
0.592009
0.592015
0.592021
0.592028
0.592028
0.592034
0.592041
0.592047
0.592053
0.592053
0.59206
0.592066
0.592073
0.592079
0.592079
0.592085
0.592092
0.592098
0.592105
0.592105
0.592111
0.592118
0.592124
0.592131
0.592131
0.592137
0.592143
0.59215
0.592156
0.592156
0.592163
0.592169
0.592176
0.592182
0.592182
0.592189
0.592195
0.592202
0.592208
0.592208
0.592215
0.592221
0.592228
0.592234
0.592234
0.592241
0.592248
0.592254
0.592261
0.592261
0.592267
0.592274
0.59228
0.592287
0.592287
0.592294
0.5923
0.592307
0.592313
0.592313
0.59232
0.592327
0.592333
0.59234
0.59234
0.592346
0.592353
0.59236
0.592366
0.592366
0.592373
0.592379
0.592386
0.592392
0.592392
0.592399
0.592406
0.592412
0.592419
0.592419
0.592425
0.592432
0.592439
0.592446
0.592446
0.592453
0.59246
0.592466
0.592473
0.592473
0.59248
0.592487
0.592493
0.5925
0.5925
0.592507
0.592514
0.592521
0.592527
0.592527
0.592534
0.592541
0.592548
0.592554
0.592554
0.592561
0.592568
0.592575
0.592582
0.592582
0.592588
0.592595
0.592602
0.592609
0.592609
0.592616
0.592623
0.592629
0.592636
0.592636
0.592643
0.59265
0.592657
0.592664
0.592664
0.592671
0.592678
0.592684
0.592691
0.592691
0.592698
0.592705
0.592712
0.592719
0.592719
0.592726
0.592733
0.59274
0.592747
0.592747
0.592754
0.592761
0.592768
0.592774
0.592774
0.592781
0.592788
0.592795
0.592802
0.592802
0.592809
0.592816
0.592823
0.59283
0.59283
0.592837
0.592844
0.592851
0.592858
0.592858
0.592865
0.592873
0.59288
0.592887
0.592887
0.592894
0.592901
0.592908
0.592915
0.592915
0.592922
0.592929
0.592936
0.592943
0.592943
0.59295
0.592957
0.592965
0.592972
0.592972
0.592979
0.592986
0.592993
0.593
0.593
0.593007
0.593014
0.593022
0.593029
0.593029
0.593036
0.593043
0.59305
0.593057
0.593057
0.593065
0.593072
0.593079
0.593086
0.593086
0.593093
0.593101
0.593108
0.593115
0.593115
0.593122
0.59313
0.593137
0.593144
0.593144
0.593151
0.593159
0.593166
0.593173
0.593173
0.59318
0.593188
0.593195
0.593202
0.593202
0.59321
0.593217
0.593224
0.593231
0.593231
0.593239
0.593246
0.593253
0.593261
0.593261
0.593268
0.593275
0.593283
0.59329
0.59329
0.593298
0.593305
0.593312
0.59332
0.59332
0.593327
0.593334
0.593342
0.593349
0.593349
0.593357
0.593364
0.593372
0.593379
0.593379
0.593386
0.593394
0.593401
0.593409
0.593409
0.593416
0.593424
0.593431
0.593439
0.593439
0.593446
0.593454
0.593461
0.593469
0.593469
0.593476
0.593484
0.593491
0.593499
0.593499
0.593506
0.593514
0.593521
0.593529
0.593529
0.593536
0.593544
0.593551
0.593559
0.593559
0.593567
0.593574
0.593582
0.593589
0.593589
0.593597
0.593605
0.593612
0.59362
0.59362
0.593627
0.593635
0.593643
0.59365
0.59365
0.593658
0.593666
0.593673
0.593681
0.593681
0.593689
0.593696
0.593704
0.593712
0.593712
0.593719
0.593727
0.593735
0.593742
0.593742
0.59375
0.593758
0.593766
0.593773
0.593773
0.593781
0.593789
0.593797
0.593804
0.593804
0.593812
0.59382
0.593828
0.593835
0.593835
0.593843
0.593851
0.593859
0.593867
0.593867
0.593874
0.593882
0.59389
0.593898
0.593898
0.593906
0.593914
0.593921
0.593929
0.593929
0.593937
0.593945
0.593953
0.593961
0.593961
0.593969
0.593977
0.593984
0.593992
0.593992
0.594
0.594008
0.594016
0.594024
0.594024
0.594032
0.59404
0.594048
0.594056
0.594056
0.594064
0.594072
0.59408
0.594088
0.594088
0.594096
0.594104
0.594112
0.59412
0.59412
0.594128
0.594136
0.594144
0.594152
0.594152
0.59416
0.594168
0.594176
0.594184
0.594184
0.594192
0.5942
0.594208
0.594216
0.594216
0.594224
0.594232
0.59424
0.594248
0.594248
0.594257
0.594265
0.594273
0.594281
0.594281
0.594289
0.594297
0.594305
0.594313
0.594313
0.594322
0.59433
0.594338
0.594346
0.594346
0.594354
0.594362
0.594371
0.594379
0.594379
0.594387
0.594395
0.594403
0.594412
0.594412
0.59442
0.594428
0.594436
0.594445
0.594445
0.594453
0.594461
0.594469
0.594478
0.594478
0.594486
0.594494
0.594503
0.594511
0.594511
0.594519
0.594527
0.594536
0.594544
0.594544
0.594552
0.594561
0.594569
0.594577
0.594577
0.594586
0.594594
0.594603
0.594611
0.594611
0.594619
0.594628
0.594636
0.594644
0.594644
0.594653
0.594661
0.59467
0.594678
0.594678
0.594687
0.594695
0.594703
0.594712
0.594712
0.59472
0.594729
0.594737
0.594746
0.594746
0.594754
0.594763
0.594771
0.59478
0.59478
0.594788
0.594797
0.594805
0.594814
0.594814
0.594822
0.594831
0.594839
0.594848
0.594848
0.594857
0.594865
0.594874
0.594882
0.594882
0.594891
0.594899
0.594908
0.594917
0.594917
0.594925
0.594934
0.594943
0.594951
0.594951
0.59496
0.594968
0.594977
0.594986
0.594986
0.594994
0.595003
0.595012
0.59502
0.59502
0.595029
0.595038
0.595047
0.595055
0.595055
0.595064
0.595073
0.595081
0.59509
0.59509
0.595099
0.595108
0.595116
0.595125
0.595125
0.595134
0.595143
0.595152
0.59516
0.59516
0.595169
0.595178
0.595187
0.595196
0.595196
0.595204
0.595213
0.595222
0.595231
0.595231
0.59524
0.595249
0.595257
0.595266
0.595266
0.595275
0.595284
0.595293
0.595302
0.595302
0.595311
0.59532
0.595328
0.595337
0.595337
0.595346
0.595355
0.595364
0.595373
0.595373
0.595382
0.59539
0.595399
0.595408
0.595408
0.595417
0.595426
0.595435
0.595444
0.595444
0.595454
0.595463
0.595472
0.595481
0.595481
0.59549
0.595499
0.595508
0.595517
0.595517
0.595526
0.595536
0.595545
0.595554
0.595554
0.595563
0.595572
0.595581
0.59559
0.59559
0.595599
0.595608
0.595618
0.595627
0.595627
0.595636
0.595645
0.595654
0.595663
0.595663
0.595673
0.595682
0.595691
0.5957
0.5957
0.595709
0.595719
0.595728
0.595737
0.595737
0.595746
0.595755
0.595765
0.595774
0.595774
0.595783
0.595793
0.595802
0.595811
0.595811
0.59582
0.59583
0.595839
0.595848
0.595848
0.595858
0.595867
0.595876
0.595886
0.595886
0.595895
0.595904
0.595914
0.595923
0.595923
0.595932
0.595942
0.595951
0.595961
0.595961
0.59597
0.595979
0.595989
0.595998
0.595998
0.596008
0.596017
0.596027
0.596036
0.596036
0.596045
0.596055
0.596064
0.596074
0.596074
0.596083
0.596093
0.596102
0.596112
0.596112
0.596121
0.596131
0.59614
0.59615
0.59615
0.59616
0.596169
0.596179
0.596188
0.596188
0.596198
0.596207
0.596217
0.596227
0.596227
0.596236
0.596246
0.596255
0.596265
0.596265
0.596275
0.596284
0.596294
0.596304
0.596304
0.596313
0.596323
0.596333
0.596342
0.596342
0.596352
0.596362
0.596371
0.596381
0.596381
0.596391
0.596401
0.59641
0.59642
0.59642
0.59643
0.59644
0.596449
0.596459
0.596459
0.596469
0.596479
0.596488
0.596498
0.596498
0.596508
0.596518
0.596528
0.596538
0.596538
0.596547
0.596557
0.596567
0.596577
0.596577
0.596587
0.596597
0.596607
0.596616
0.596616
0.596626
0.596636
0.596646
0.596656
0.596656
0.596666
0.596676
0.596686
0.596696
0.596696
0.596706
0.596716
0.596726
0.596736
0.596736
0.596746
0.596756
0.596766
0.596776
0.596776
0.596786
0.596796
0.596806
0.596816
0.596816
0.596826
0.596836
0.596846
0.596856
0.596856
0.596866
0.596876
0.596886
0.596896
0.596896
0.596907
0.596917
0.596927
0.596937
0.596937
0.596947
0.596957
0.596967
0.596978
0.596978
0.596988
0.596998
0.597008
0.597018
0.597018
0.597028
0.597039
0.597049
0.597059
0.597059
0.597069
0.59708
0.59709
0.5971
0.5971
0.59711
0.597121
0.597131
0.597141
0.597141
0.597151
0.597162
0.597172
0.597182
0.597182
0.597193
0.597203
0.597213
0.597224
0.597224
0.597234
0.597244
0.597255
0.597265
0.597265
0.597276
0.597286
0.597296
0.597307
0.597307
0.597317
0.597328
0.597338
0.597349
0.597349
0.597359
0.597369
0.59738
0.59739
0.59739
0.597401
0.597411
0.597422
0.597432
0.597432
0.597443
0.597453
0.597464
0.597474
0.597474
0.597485
0.597496
0.597506
0.597517
0.597517
0.597527
0.597538
0.597548
0.597559
0.597559
0.59757
0.59758
0.597591
0.597602
0.597602
0.597612
0.597623
0.597633
0.597644
0.597644
0.597655
0.597665
0.597676
0.597687
0.597687
0.597698
0.597708
0.597719
0.59773
0.59773
0.59774
0.597751
0.597762
0.597773
0.597773
0.597783
0.597794
0.597805
0.597816
0.597816
0.597827
0.597837
0.597848
0.597859
0.597859
0.59787
0.597881
0.597892
0.597902
0.597902
0.597913
0.597924
0.597935
0.597946
0.597946
0.597957
0.597968
0.597979
0.59799
0.59799
0.598001
0.598011
0.598022
0.598033
0.598033
0.598044
0.598055
0.598066
0.598077
0.598077
0.598088
0.598099
0.59811
0.598121
0.598121
0.598132
0.598143
0.598154
0.598165
0.598165
0.598177
0.598188
0.598199
0.59821
0.59821
0.598221
0.598232
0.598243
0.598254
0.598254
0.598265
0.598277
0.598288
0.598299
0.598299
0.59831
0.598321
0.598332
0.598344
0.598344
0.598355
0.598366
0.598377
0.598388
0.598388
0.5984
0.598411
0.598422
0.598433
0.598433
0.598445
0.598456
0.598467
0.598478
0.598478
0.59849
0.598501
0.598512
0.598524
0.598524
0.598535
0.598546
0.598558
0.598569
0.598569
0.59858
0.598592
0.598603
0.598615
0.598615
0.598626
0.598637
0.598649
0.59866
0.59866
0.598671
0.598683
0.598694
0.598706
0.598706
0.598717
0.598728
0.59874
0.598751
0.598751
0.598762
0.598774
0.598785
0.598797
0.598797
0.598808
0.59882
0.598832
0.598844
0.598844