<?xml version="1.0"?>
<VTKFile type="UnstructuredGrid" version="0.1" byte_order="LittleEndian">
<UnstructuredGrid>
<Piece NumberOfPoints="5000" NumberOfCells="4000">
<PointData Scalars="Reaction 0">
<DataArray type="Float32" Name="Reaction 0" format="ascii">
0.111092
0.111092
0.111092
0.111092
0.111092
0.111092
0.111092
0.111092
0.111092
0.111093
0.111093
0.111093
0.111093
0.111093
0.111093
0.111093
0.111093
0.111093
0.111094
0.111094
0.111094
0.111094
0.111094
0.111095
0.111095
0.111095
0.111095
0.111096
0.111096
0.111096
0.111096
0.111097
0.111097
0.111097
0.111098
0.111098
0.111098
0.111099
0.111099
0.111099
0.111099
0.1111
0.1111
0.111101
0.111101
0.111101
0.111102
0.111102
0.111103
0.111104
0.111104
0.111104
0.111105
0.111105
0.111106
0.111106
0.111107
0.111107
0.111108
0.111109
0.111109
0.111109
0.11111
0.111111
0.111112
0.111112
0.111112
0.111113
0.111114
0.111115
0.111115
0.111115
0.111116
0.111117
0.111118
0.111118
0.111119
0.11112
0.111121
0.111122
0.111122
0.111122
0.111123
0.111124
0.111125
0.111125
0.111126
0.111127
0.111128
0.111129
0.111129
0.11113
0.111131
0.111133
0.111134
0.111134
0.111135
0.111136
0.111137
0.111138
0.111138
0.111139
0.11114
0.111142
0.111143
0.111143
0.111144
0.111145
0.111147
0.111148
0.111148
0.111149
0.11115
0.111152
0.111153
0.111153
0.111154
0.111156
0.111157
0.111158
0.111158
0.11116
0.111161
0.111163
0.111164
0.111164
0.111165
0.111167
0.111168
0.11117
0.11117
0.111171
0.111173
0.111174
0.111176
0.111176
0.111178
0.111179
0.111181
0.111182
0.111182
0.111184
0.111186
0.111187
0.111189
0.111189
0.111191
0.111192
0.111194
0.111196
0.111196
0.111197
0.111199
0.111201
0.111203
0.111203
0.111205
0.111206
0.111208
0.11121
0.11121
0.111212
0.111214
0.111216
0.111218
0.111218
0.111219
0.111221
0.111223
0.111225
0.111225
0.111227
0.111229
0.111231
0.111233
0.111233
0.111235
0.111237
0.111239
0.111241
0.111241
0.111244
0.111246
0.111248
0.11125
0.11125
0.111252
0.111254
0.111256
0.111259
0.111259
0.111261
0.111263
0.111265
0.111267
0.111267
0.11127
0.111272
0.111274
0.111277
0.111277
0.111279
0.111281
0.111284
0.111286
0.111286
0.111288
0.111291
0.111293
0.111295
0.111295
0.111298
0.1113
0.111303
0.111305
0.111305
0.111308
0.11131
0.111313
0.111315
0.111315
0.111318
0.11132
0.111323
0.111326
0.111326
0.111328
0.111331
0.111334
0.111336
0.111336
0.111339
0.111342
0.111344
0.111347
0.111347
0.11135
0.111352
0.111355
0.111358
0.111358
0.111361
0.111364
0.111366
0.111369
0.111369
0.111372
0.111375
0.111378
0.111381
0.111381
0.111384
0.111386
0.111389
0.111392
0.111392
0.111395
0.111398
0.111401
0.111404
0.111404
0.111407
0.11141
0.111413
0.111416
0.111416
0.11142
0.111423
0.111426
0.111429
0.111429
0.111432
0.111435
0.111438
0.111441
0.111441
0.111445
0.111448
0.111451
0.111454
0.111454
0.111458
0.111461
0.111464
0.111467
0.111467
0.111471
0.111474
0.111477
0.111481
0.111481
0.111484
0.111488
0.111491
0.111494
0.111494
0.111498
0.111501
0.111505
0.111508
0.111508
0.111512
0.111515
0.111519
0.111522
0.111522
0.111526
0.111529
0.111533
0.111537
0.111537
0.11154
0.111544
0.111547
0.111551
0.111551
0.111555
0.111558
0.111562
0.111566
0.111566
0.11157
0.111573
0.111577
0.111581
0.111581
0.111585
0.111588
0.111592
0.111596
0.111596
0.1116
0.111604
0.111608
0.111612
0.111612
0.111615
0.111619
0.111623
0.111627
0.111627
0.111631
0.111635
0.111639
0.111643
0.111643
0.111647
0.111651
0.111655
0.111659
0.111659
0.111664
0.111668
0.111672
0.111676
0.111676
0.11168
0.111684
0.111688
0.111693
0.111693
0.111697
0.111701
0.111705
0.111709
0.111709
0.111714
0.111718
0.111722
0.111727
0.111727
0.111731
0.111735
0.11174
0.111744
0.111744
0.111748
0.111753
0.111757
0.111762
0.111762
0.111766
0.111771
0.111775
0.111779
0.111779
0.111784
0.111788
0.111793
0.111798
0.111798
0.111802
0.111807
0.111811
0.111816
0.111816
0.111821
0.111825
0.11183
0.111835
0.111835
0.111839
0.111844
0.111849
0.111853
0.111853
0.111858
0.111863
0.111868
0.111872
0.111872
0.111877
0.111882
0.111887
0.111892
0.111892
0.111897
0.111902
0.111906
0.111911
0.111911
0.111916
0.111921
0.111926
0.111931
0.111931
0.111936
0.111941
0.111946
0.111951
0.111951
0.111956
0.111961
0.111966
0.111971
0.111971
0.111977
0.111982
0.111987
0.111992
0.111992
0.111997
0.112002
0.112008
0.112013
0.112013
0.112018
0.112023
0.112029
0.112034
0.112034
0.112039
0.112044
0.11205
0.112055
0.112055
0.11206
0.112066
0.112071
0.112077
0.112077
0.112082
0.112087
0.112093
0.112098
0.112098
0.112104
0.112109
0.112115
0.11212
0.11212
0.112126
0.112131
0.112137
0.112143
0.112143
0.112148
0.112154
0.112159
0.112165
0.112165
0.112171
0.112176
0.112182
0.112188
0.112188
0.112194
0.112199
0.112205
0.112211
0.112211
0.112217
0.112222
0.112228
0.112234
0.112234
0.11224
0.112246
0.112252
0.112257
0.112257
0.112263
0.112269
0.112275
0.112281
0.112281
0.112287
0.112293
0.112299
0.112305
0.112305
0.112311
0.112317
0.112323
0.112329
0.112329
0.112336
0.112342
0.112348
0.112354
0.112354
0.11236
0.112366
0.112372
0.112379
0.112379
0.112385
0.112391
0.112397
0.112404
0.112404
0.11241
0.112416
0.112423
0.112429
0.112429
0.112435
0.112442
0.112448
0.112454
0.112454
0.112461
0.112467
0.112474
0.11248
0.11248
0.112487
0.112493
0.112499
0.112506
0.112506
0.112513
0.112519
0.112526
0.112532
0.112532
0.112539
0.112545
0.112552
0.112559
0.112559
0.112565
0.112572
0.112579
0.112585
0.112585
0.112592
0.112599
0.112606
0.112612
0.112612
0.112619
0.112626
0.112633
0.11264
0.11264
0.112647
0.112653
0.11266
0.112667
0.112667
0.112674
0.112681
0.112688
0.112695
0.112695
0.112702
0.112709
0.112716
0.112723
0.112723
0.11273
0.112737
0.112744
0.112751
0.112751
0.112758
0.112765
0.112773
0.11278
0.11278
0.112787
0.112794
0.112801
0.112808
0.112808
0.112816
0.112823
0.11283
0.112837
0.112837
0.112845
0.112852
0.112859
0.112867
0.112867
0.112874
0.112882
0.112889
0.112896
0.112896
0.112904
0.112911
0.112919
0.112926
0.112926
0.112934
0.112941
0.112949
0.112956
0.112956
0.112964
0.112971
0.112979
0.112986
0.112986
0.112994
0.113002
0.113009
0.113017
0.113017
0.113025
0.113032
0.11304
0.113048
0.113048
0.113056
0.113063
0.113071
0.113079
0.113079
0.113087
0.113095
0.113102
0.11311
0.11311
0.113118
0.113126
0.113134
0.113142
0.113142
0.11315
0.113158
0.113166
0.113174
0.113174
0.113182
0.11319
0.113198
0.113206
0.113206
0.113214
0.113222
0.11323
0.113238
0.113238
0.113246
0.113255
0.113263
0.113271
0.113271
0.113279
0.113287
0.113296
0.113304
0.113304
0.113312
0.11332
0.113329
0.113337
0.113337
0.113345
0.113354
0.113362
0.113371
0.113371
0.113379
0.113387
0.113396
0.113404
0.113404
0.113413
0.113421
0.11343
0.113438
0.113438
0.113447
0.113455
0.113464
0.113472
0.113472
0.113481
0.11349
0.113498
0.113507
0.113507
0.113516
0.113524
0.113533
0.113542
0.113542
0.113551
0.113559
0.113568
0.113577
0.113577
0.113586
0.113594
0.113603
0.113612
0.113612
0.113621
0.11363
0.113639
0.113648
0.113648
0.113657
0.113666
0.113675
0.113684
0.113684
0.113693
0.113702
0.113711
0.11372
0.11372
0.113729
0.113738
0.113747
0.113756
0.113756
0.113765
0.113774
0.113784
0.113793
0.113793
0.113802
0.113811
0.11382
0.11383
0.11383
0.113839
0.113848
0.113858
0.113867
0.113867
0.113876
0.113886
0.113895
0.113904
0.113904
0.113914
0.113923
0.113933
0.113942
0.113942
0.113952
0.113961
0.113971
0.11398
0.11398
0.11399
0.113999
0.114009
0.114018
0.114018
0.114028
0.114038
0.114047
0.114057
0.114057
0.114067
0.114076
0.114086
0.114096
0.114096
0.114106
0.114115
0.114125
0.114135
0.114135
0.114145
0.114155
0.114164
0.114174
0.114174
0.114184
0.114194
0.114204
0.114214
0.114214
0.114224
0.114234
0.114244
0.114254
0.114254
0.114264
0.114274
0.114284
0.114294
0.114294
0.114304
0.114314
0.114325
0.114335
0.114335
0.114345
0.114355
0.114365
0.114375
0.114375
0.114386
0.114396
0.114406
0.114417
0.114417
0.114427
0.114437
0.114447
0.114458
0.114458
0.114468
0.114479
0.114489
0.114499
0.114499
0.11451
0.11452
0.114531
0.114541
0.114541
0.114552
0.114562
0.114573
0.114584
0.114584
0.114594
0.114605
0.114615
0.114626
0.114626
0.114637
0.114647
0.114658
0.114669
0.114669
0.11468
0.11469
0.114701
0.114712
0.114712
0.114723
0.114733
0.114744
0.114755
0.114755
0.114766
0.114777
0.114788
0.114799
0.114799
0.11481
0.114821
0.114832
0.114843
0.114843
0.114854
0.114865
0.114876
0.114887
0.114887
0.114898
0.114909
0.11492
0.114931
0.114931
0.114942
0.114954
0.114965
0.114976
0.114976
0.114987
0.114998
0.11501
0.115021
0.115021
0.115032
0.115044
0.115055
0.115066
0.115066
0.115078
0.115089
0.115101
0.115112
0.115112
0.115123
0.115135
0.115146
0.115158
0.115158
0.115169
0.115181
0.115193
0.115204
0.115204
0.115216
0.115227
0.115239
0.115251
0.115251
0.115262
0.115274
0.115286
0.115297
0.115297
0.115309
0.115321
0.115333
0.115344
0.115344
0.115356
0.115368
0.11538
0.115392
0.115392
0.115404
0.115416
0.115428
0.115439
0.115439
0.115451
0.115463
0.115475
0.115487
0.115487
0.115499
0.115511
0.115524
0.115536
0.115536
0.115548
0.11556
0.115572
0.115584
0.115584
0.115596
0.115609
0.115621
0.115633
0.115633
0.115645
0.115658
0.11567
0.115682
0.115682
0.115695
0.115707
0.115719
0.115732
0.115732
0.115744
0.115756
0.115769
0.115781
0.115781
0.115794
0.115806
0.115819
0.115831
0.115831
0.115844
0.115857
0.115869
0.115882
0.115882
0.115894
0.115907
0.11592
0.115932
0.115932
0.115945
0.115958
0.115971
0.115983
0.115983
0.115996
0.116009
0.116022
0.116035
0.116035
0.116047
0.11606
0.116073
0.116086
0.116086
0.116099
0.116112
0.116125
0.116138
0.116138
0.116151
0.116164
0.116177
0.11619
0.11619
0.116203
0.116216
0.116229
0.116243
0.116243
0.116256
0.116269
0.116282
0.116295
0.116295
0.116309
0.116322
0.116335
0.116348
0.116348
0.116362
0.116375
0.116388
0.116402
0.116402
0.116415
0.116429
0.116442
0.116455
0.116455
0.116469
0.116482
0.116496
0.116509
0.116509
0.116523
0.116537
0.11655
0.116564
0.116564
0.116577
0.116591
0.116605
0.116618
0.116618
0.116632
0.116646
0.11666
0.116673
0.116673
0.116687
0.116701
0.116715
0.116729
0.116729
0.116742
0.116756
0.11677
0.116784
0.116784
0.116798
0.116812
0.116826
0.11684
0.11684
0.116854
0.116868
0.116882
0.116896
0.116896
0.11691
0.116924
0.116939
0.116953
0.116953
0.116967
0.116981
0.116995
0.11701
0.11701
0.117024
0.117038
0.117052
0.117067
0.117067
0.117081
0.117095
0.11711
0.117124
0.117124
0.117139
0.117153
0.117167
0.117182
0.117182
0.117196
0.117211
0.117225
0.11724
0.11724
0.117255
0.117269
0.117284
0.117298
0.117298
0.117313
0.117328
0.117342
0.117357
0.117357
0.117372
0.117387
0.117401
0.117416
0.117416
0.117431
0.117446
0.117461
0.117476
0.117476
0.11749
0.117505
0.11752
0.117535
0.117535
0.11755
0.117565
0.11758
0.117595
0.117595
0.11761
0.117625
0.117641
0.117656
0.117656
0.117671
0.117686
0.117701
0.117716
0.117716
0.117732
0.117747
0.117762
0.117777
0.117777
0.117793
0.117808
0.117823
0.117839
0.117839
0.117854
0.117869
0.117885
0.1179
0.1179
0.117916
0.117931
0.117947
0.117962
0.117962
0.117978
0.117993
0.118009
0.118025
0.118025
0.11804
0.118056
0.118072
0.118087
0.118087
0.118103
0.118119
0.118135
0.11815
0.11815
0.118166
0.118182
0.118198
0.118214
0.118214
0.118229
0.118245
0.118261
0.118277
0.118277
0.118293
0.118309
0.118325
0.118341
0.118341
0.118357
0.118373
0.118389
0.118406
0.118406
0.118422
0.118438
0.118454
0.11847
0.11847
0.118486
0.118503
0.118519
0.118535
0.118535
0.118552
0.118568
0.118584
0.118601
0.118601
0.118617
0.118633
0.11865
0.118666
0.118666
0.118683
0.118699
0.118716
0.118732
0.118732
0.118749
0.118765
0.118782
0.118799
0.118799
0.118815
0.118832
0.118849
0.118865
0.118865
0.118882
0.118899
0.118916
0.118932
0.118932
0.118949
0.118966
0.118983
0.119
0.119
0.119017
0.119033
0.11905
0.119067
0.119067
0.119084
0.119101
0.119118
0.119135
0.119135
0.119153
0.11917
0.119187
0.119204
0.119204
0.119221
0.119238
0.119255
0.119273
0.119273
0.11929
0.119307
0.119324
0.119342
0.119342
0.119359
0.119376
0.119394
0.119411
0.119411
0.119429
0.119446
0.119464
0.119481
0.119481
0.119499
0.119516
0.119534
0.119551
0.119551
0.119569
0.119586
0.119604
0.119622
0.119622
0.119639
0.119657
0.119675
0.119693
0.119693
0.11971
0.119728
0.119746
0.119764
0.119764
0.119782
0.1198
0.119817
0.119835
0.119835
0.119853
0.119871
0.119889
0.119907
0.119907
0.119925
0.119943
0.119961
0.11998
0.11998
0.119998
0.120016
0.120034
0.120052
0.120052
0.12007
0.120089
0.120107
0.120125
0.120125
0.120144
0.120162
0.12018
0.120199
0.120199
0.120217
0.120235
0.120254
0.120272
0.120272
0.120291
0.120309
0.120328
0.120346
0.120346
0.120365
0.120384
0.120402
0.120421
0.120421
0.12044
0.120458
0.120477
0.120496
0.120496
0.120514
0.120533
0.120552
0.120571
0.120571
0.12059
0.120609
0.120627
0.120646
0.120646
0.120665
0.120684
0.120703
0.120722
0.120722
0.120741
0.12076
0.120779
0.120799
0.120799
0.120818
0.120837
0.120856
0.120875
0.120875
0.120894
0.120914
0.120933
0.120952
0.120952
0.120972
0.120991
0.12101
0.12103
0.12103
0.121049
0.121068
0.121088
0.121107
0.121107
0.121127
0.121146
0.121166
0.121185
0.121185
0.121205
0.121225
0.121244
0.121264
0.121264
0.121284
0.121303
0.121323
0.121343
0.121343
0.121363
0.121382
0.121402
0.121422
0.121422
0.121442
0.121462
0.121482
0.121502
0.121502
0.121522
0.121542
0.121562
0.121582
0.121582
0.121602
0.121622
0.121642
0.121662
0.121662
0.121682
0.121702
0.121723
0.121743
0.121743
0.121763
0.121783
0.121804
0.121824
0.121824
0.121844
0.121865
0.121885
0.121906
0.121906
0.121926
0.121946
0.121967
0.121987
0.121987
0.122008
0.122029
0.122049
0.12207
0.12207
0.12209
0.122111
0.122132
0.122152
0.122152
0.122173
0.122194
0.122215
0.122236
0.122236
0.122256
0.122277
0.122298
0.122319
0.122319
0.12234
0.122361
0.122382
0.122403
0.122403
0.122424
0.122445
0.122466
0.122487
0.122487
0.122508
0.122529
0.12255
0.122572
0.122572
0.122593
0.122614
0.122635
0.122657
0.122657
0.122678
0.122699
0.122721
0.122742
0.122742
0.122764
0.122785
0.122806
0.122828
0.122828
0.122849
0.122871
0.122893
0.122914
0.122914
0.122936
0.122957
0.122979
0.123001
0.123001
0.123022
0.123044
0.123066
0.123088
0.123088
0.123109
0.123131
0.123153
0.123175
0.123175
0.123197
0.123219
0.123241
0.123263
0.123263
0.123285
0.123307
0.123329
0.123351
0.123351
0.123373
0.123395
0.123417
0.12344
0.12344
0.123462
0.123484
0.123506
0.123529
0.123529
0.123551
0.123573
0.123596
0.123618
0.123618
0.12364
0.123663
0.123685
0.123708
0.123708
0.12373
0.123753
0.123775
0.123798
0.123798
0.123821
0.123843
0.123866
0.123889
0.123889
0.123911
0.123934
0.123957
0.12398
0.12398
0.124002
0.124025
0.124048
0.124071
0.124071
0.124094
0.124117
0.12414
0.124163
0.124163
0.124186
0.124209
0.124232
0.124255
0.124255
0.124278
0.124301
0.124325
0.124348
0.124348
0.124371
0.124394
0.124418
0.124441
0.124441
0.124464
0.124488
0.124511
0.124534
0.124534
0.124558
0.124581
0.124605
0.124628
0.124628
0.124652
0.124675
0.124699
0.124723
0.124723
0.124746
0.12477
0.124794
0.124817
0.124817
0.124841
0.124865
0.124889
0.124913
0.124913
0.124936
0.12496
0.124984
0.125008
0.125008
0.125032
0.125056
0.12508
0.125104
0.125104
0.125128
0.125152
0.125176
0.125201
0.125201
0.125225
0.125249
0.125273
0.125297
0.125297
0.125322
0.125346
0.12537
0.125395
0.125395
0.125419
0.125443
0.125468
0.125492
0.125492
0.125517
0.125541
0.125566
0.125591
0.125591
0.125615
0.12564
0.125664
0.125689
0.125689
0.125714
0.125739
0.125763
0.125788
0.125788
0.125813
0.125838
0.125863
0.125888
0.125888
0.125912
0.125937
0.125962
0.125987
0.125987
0.126012
0.126037
0.126063
0.126088
0.126088
0.126113
0.126138
0.126163
0.126188
0.126188
0.126214
0.126239
0.126264
0.12629
0.12629
0.126315
0.12634
0.126366
0.126391
0.126391
0.126417
0.126442
0.126468
0.126493
0.126493
0.126519
0.126544
0.12657
0.126596
0.126596
0.126621
0.126647
0.126673
0.126699
0.126699
0.126724
0.12675
0.126776
0.126802
0.126802
0.126828
0.126854
0.12688
0.126906
0.126906
0.126932
0.126958
0.126984
0.12701
0.12701
0.127036
0.127062
0.127089
0.127115
0.127115
0.127141
0.127167
0.127194
0.12722
0.12722
0.127246
0.127273
0.127299
0.127326
0.127326
0.127352
0.127379
0.127405
0.127432
0.127432
0.127458
0.127485
0.127511
0.127538
0.127538
0.127565
0.127592
0.127618
0.127645
0.127645
0.127672
0.127699
0.127726
0.127752
0.127752
0.127779
0.127806
0.127833
0.12786
0.12786
0.127887
0.127914
0.127942
0.127969
0.127969
0.127996
0.128023
0.12805
0.128077
0.128077
0.128105
0.128132
0.128159
0.128187
0.128187
0.128214
0.128241
0.128269
0.128296
0.128296
0.128324
0.128351
0.128379
0.128407
0.128407
0.128434
0.128462
0.128489
0.128517
0.128517
0.128545
0.128573
0.1286
0.128628
0.128628
0.128656
0.128684
0.128712
0.12874
0.12874
0.128768
0.128796
0.128824
0.128852
0.128852
0.12888
0.128908
0.128936
0.128964
0.128964
0.128993
0.129021
0.129049
0.129077
0.129077
0.129106
0.129134
0.129162
0.129191
0.129191
0.129219
0.129248
0.129276
0.129305
0.129305
0.129333
0.129362
0.12939
0.129419
0.129419
0.129448
0.129476
0.129505
0.129534
0.129534
0.129563
0.129591
0.12962
0.129649
0.129649
0.129678
0.129707
0.129736
0.129765
0.129765
0.129794
0.129823
0.129852
0.129881
0.129881
0.12991
0.12994
0.129969
0.129998
0.129998
0.130027
0.130057
0.130086
0.130115
0.130115
0.130145
0.130174
0.130204
0.130233
0.130233
0.130263
0.130292
0.130322
0.130351
0.130351
0.130381
0.130411
0.13044
0.13047
0.13047
0.1305
0.130529
0.130559
0.130589
0.130589
0.130619
0.130649
0.130679
0.130709
0.130709
0.130739
0.130769
0.130799
0.130829
0.130829
0.130859
0.130889
0.130919
0.13095
0.13095
0.13098
0.13101
0.13104
0.131071
0.131071
0.131101
0.131132
0.131162
0.131192
0.131192
0.131223
0.131253
0.131284
0.131315
0.131315
0.131345
0.131376
0.131406
0.131437
0.131437
0.131468
0.131499
0.131529
0.13156
0.13156
0.131591
0.131622
0.131653
0.131684
0.131684
0.131715
0.131746
0.131777
0.131808
0.131808
0.131839
0.13187
0.131901
0.131933
0.131933
0.131964
0.131995
0.132026
0.132058
0.132058
0.132089
0.132121
0.132152
0.132183
0.132183
0.132215
0.132246
0.132278
0.13231
0.13231
0.132341
0.132373
0.132405
0.132436
0.132436
0.132468
0.1325
0.132532
0.132563
0.132563
0.132595
0.132627
0.132659
0.132691
0.132691
0.132723
0.132755
0.132787
0.132819
0.132819
0.132851
0.132884
0.132916
0.132948
0.132948
0.13298
0.133013
0.133045
0.133077
0.133077
0.13311
0.133142
0.133174
0.133207
0.133207
0.133239
0.133272
0.133305
0.133337
0.133337
0.13337
0.133402
0.133435
0.133468
0.133468
0.133501
0.133534
0.133566
0.133599
0.133599
0.133632
0.133665
0.133698
0.133731
0.133731
0.133764
0.133797
0.13383
0.133863
0.133863
0.133897
0.13393
0.133963
0.133996
0.133996
0.13403
0.134063
0.134096
0.13413
0.13413
0.134163
0.134196
0.13423
0.134263
0.134263
0.134297
0.134331
0.134364
0.134398
0.134398
0.134432
0.134465
0.134499
0.134533
0.134533
0.134567
0.134601
0.134634
0.134668
0.134668
0.134702
0.134736
0.13477
0.134804
0.134804
0.134839
0.134873
0.134907
0.134941
0.134941
0.134975
0.135009
0.135044
0.135078
0.135078
0.135112
0.135147
0.135181
0.135216
0.135216
0.13525
0.135285
0.135319
0.135354
0.135354
0.135389
0.135423
0.135458
0.135493
0.135493
0.135527
0.135562
0.135597
0.135632
0.135632
0.135667
0.135702
0.135737
0.135772
0.135772
0.135807
0.135842
0.135877
0.135912
0.135912
0.135947
0.135982
0.136018
0.136053
0.136053
0.136088
0.136124
0.136159
0.136194
0.136194
0.13623
0.136265
0.136301
0.136336
0.136336
0.136372
0.136408
0.136443
0.136479
0.136479
0.136515
0.13655
0.136586
0.136622
0.136622
0.136658
0.136694
0.13673
0.136766
0.136766
0.136802
0.136838
0.136874
0.13691
0.13691
0.136946
0.136982
0.137018
0.137055
0.137055
0.137091
0.137127
0.137164
0.1372
0.1372
0.137236
0.137273
0.137309
0.137346
0.137346
0.137382
0.137419
0.137456
0.137492
0.137492
0.137529
0.137566
0.137602
0.137639
0.137639
0.137676
0.137713
0.13775
0.137787
0.137787
0.137824
0.137861
0.137898
0.137935
0.137935
0.137972
0.138009
0.138046
0.138084
0.138084
0.138121
0.138158
0.138196
0.138233
0.138233
0.13827
0.138308
0.138345
0.138383
0.138383
0.13842
0.138458
0.138495
0.138533
0.138533
0.138571
0.138609
0.138646
0.138684
0.138684
0.138722
0.13876
0.138798
0.138836
0.138836
0.138874
0.138912
0.13895
0.138988
0.138988
0.139026
0.139064
0.139102
0.13914
0.13914
0.139179
0.139217
0.139255
0.139294
0.139294
0.139332
0.139371
0.139409
0.139448
0.139448
0.139486
0.139525
0.139563
0.139602
0.139602
0.139641
0.13968
0.139718
0.139757
0.139757
0.139796
0.139835
0.139874
0.139913
0.139913
0.139952
0.139991
0.14003
0.140069
0.140069
0.140108
0.140147
0.140187
0.140226
0.140226
0.140265
0.140304
0.140344
0.140383
0.140383
0.140423
0.140462
0.140502
0.140541
0.140541
0.140581
0.14062
0.14066
0.1407
0.1407
0.140739
0.140779
0.140819
0.140859
0.140859
0.140899
0.140939
0.140979
0.141019
0.141019
0.141059
0.141099
0.141139
0.141179
0.141179
0.141219
0.141259
0.1413
0.14134
0.14134
0.14138
0.141421
0.141461
0.141501
0.141501
0.141542
0.141582
0.141623
0.141664
0.141664
0.141704
0.141745
0.141786
0.141826
0.141826
0.141867
0.141908
0.141949
0.14199
0.14199
0.142031
0.142072
0.142113
0.142154
0.142154
0.142195
0.142236
0.142277
0.142318
0.142318
0.14236
0.142401
0.142442
0.142484
0.142484
0.142525
0.142566
0.142608
0.142649
0.142649
0.142691
0.142732
0.142774
0.142816
0.142816
0.142857
0.142899
0.142941
0.142983
0.142983
0.143025
0.143067
0.143108
0.14315
0.14315
0.143192
0.143234
0.143277
0.143319
0.143319
0.143361
0.143403
0.143445
0.143488
0.143488
0.14353
0.143572
0.143615
0.143657
0.143657
0.1437
0.143742
0.143785
0.143827
0.143827
0.14387
0.143913
0.143955
0.143998
0.143998
0.144041
0.144084
0.144126
0.144169
0.144169
0.144212
0.144255
0.144298
0.144341
0.144341
0.144384
0.144428
0.144471
0.144514
0.144514
0.144557
0.144601
0.144644
0.144687
0.144687
0.144731
0.144774
0.144818
0.144861
0.144861
0.144905
0.144948
0.144992
0.145036
0.145036
0.145079
0.145123
0.145167
0.145211
0.145211
0.145255
0.145299
0.145343
0.145387
0.145387
0.145431
0.145475
0.145519
0.145563
0.145563
0.145607
0.145652
0.145696
0.14574
0.14574
0.145785
0.145829
0.145873
0.145918
0.145918
0.145962
0.146007
0.146052
0.146096
0.146096
0.146141
0.146186
0.14623
0.146275
0.146275
0.14632
0.146365
0.14641
0.146455
0.146455
0.1465
0.146545
0.14659
0.146635
0.146635
0.14668
0.146726
0.146771
0.146816
0.146816
0.146862
0.146907
0.146952
0.146998
0.146998
0.147043
0.147089
0.147134
0.14718
0.14718
0.147226
0.147271
0.147317
0.147363
0.147363
0.147409
0.147455
0.147501
0.147547
0.147547
0.147593
0.147639
0.147685
0.147731
0.147731
0.147777
0.147823
0.147869
0.147916
0.147916
0.147962
0.148008
0.148055
0.148101
0.148101
0.148148
0.148194
0.148241
0.148287
0.148287
0.148334
0.148381
0.148428
0.148474
0.148474
0.148521
0.148568
0.148615
0.148662
0.148662
0.148709
0.148756
0.148803
0.14885
0.14885
0.148897
0.148944
0.148992
0.149039
0.149039
0.149086
0.149134
0.149181
0.149228
0.149228
0.149276
0.149323
0.149371
0.149419
0.149419
0.149466
0.149514
0.149562
0.14961
0.14961
0.149657
0.149705
0.149753
0.149801
0.149801
0.149849
0.149897
0.149945
0.149993
0.149993
0.150042
0.15009
0.150138
0.150186
0.150186
0.150235
0.150283
0.150331
0.15038
0.15038
0.150428
0.150477
0.150526
0.150574
0.150574
0.150623
0.150672
0.15072
0.150769
0.150769
0.150818
0.150867
0.150916
0.150965
0.150965
0.151014
0.151063
0.151112
0.151161
0.151161
0.15121
0.15126
0.151309
0.151358
0.151358
0.151408
0.151457
0.151506
0.151556
0.151556
0.151605
0.151655
0.151705
0.151754
0.151754
0.151804
0.151854
0.151904
0.151953
0.151953
0.152003
0.152053
0.152103
0.152153
0.152153
0.152203
0.152253
0.152304
0.152354
0.152354
0.152404
0.152454
0.152505
0.152555
0.152555
0.152605
0.152656
0.152706
0.152757
0.152757
0.152807
0.152858
0.152909
0.152959
0.152959
0.15301
0.153061
0.153112
0.153163
0.153163
0.153214
0.153265
0.153316
0.153367
0.153367
0.153418
0.153469
0.15352
0.153571
0.153571
0.153623
0.153674
0.153725
0.153777
0.153777
0.153828
0.15388
0.153931
0.153983
0.153983
0.154035
0.154086
0.154138
0.15419
0.15419
0.154242
0.154293
0.154345
0.154397
0.154397
0.154449
0.154501
0.154553
0.154606
0.154606
0.154658
0.15471
0.154762
0.154815
0.154815
0.154867
0.154919
0.154972
0.155024
0.155024
0.155077
0.155129
0.155182
0.155235
0.155235
0.155287
0.15534
0.155393
0.155446
0.155446
0.155499
0.155552
0.155605
0.155658
0.155658
0.155711
0.155764
0.155817
0.15587
0.15587
0.155924
0.155977
0.15603
0.156084
0.156084
0.156137
0.15619
0.156244
0.156298
0.156298
0.156351
0.156405
0.156459
0.156512
0.156512
0.156566
0.15662
0.156674
0.156728
0.156728
0.156782
0.156836
0.15689
0.156944
0.156944
0.156998
0.157052
0.157107
0.157161
0.157161
0.157215
0.15727
0.157324
0.157379
0.157379
0.157433
0.157488
0.157542
0.157597
0.157597
0.157652
0.157707
0.157761
0.157816
0.157816
0.157871
0.157926
0.157981
0.158036
0.158036
0.158091
0.158146
0.158202
0.158257
0.158257
0.158312
0.158367
0.158423
0.158478
0.158478
0.158534
0.158589
0.158645
0.1587
0.1587
0.158756
0.158812
0.158868
0.158923
0.158923
0.158979
0.159035
0.159091
0.159147
0.159147
0.159203
0.159259
0.159315
0.159371
0.159371
0.159428
0.159484
0.15954
0.159596
0.159596
0.159653
0.159709
0.159766
0.159822
0.159822
0.159879
0.159936
0.159992
0.160049
0.160049
0.160106
0.160163
0.160219
0.160276
0.160276
0.160333
0.16039
0.160447
0.160505
0.160505
0.160562
0.160619
0.160676
0.160733
0.160733
0.160791
0.160848
0.160906
0.160963
0.160963
0.161021
0.161078
0.161136
0.161194
0.161194
0.161251
0.161309
0.161367
0.161425
0.161425
0.161483
0.161541
0.161599
0.161657
0.161657
0.161715
0.161773
0.161831
0.16189
0.16189
0.161948
0.162006
0.162065
0.162123
0.162123
0.162182
0.16224
0.162299
0.162357
0.162357
0.162416
0.162475
0.162534
0.162592
0.162592
0.162651
0.16271
0.162769
0.162828
0.162828
0.162887
0.162946
0.163006
0.163065
0.163065
0.163124
0.163183
0.163243
0.163302
0.163302
0.163362
0.163421
0.163481
0.16354
0.16354
0.1636
0.16366
0.163719
0.163779
0.163779
0.163839
0.163899
0.163959
0.164019
0.164019
0.164079
0.164139
0.164199
0.16426
0.16426
0.16432
0.16438
0.16444
0.164501
0.164501
0.164561
0.164622
0.164682
0.164743
0.164743
0.164804
0.164864
0.164925
0.164986
0.164986
0.165047
0.165108
0.165168
0.165229
0.165229
0.16529
0.165352
0.165413
0.165474
0.165474
0.165535
0.165596
0.165658
0.165719
0.165719
0.165781
0.165842
0.165904
0.165965
0.165965
0.166027
0.166088
0.16615
0.166212
0.166212
0.166274
0.166336
0.166398
0.16646
0.16646
0.166522
0.166584
0.166646
0.166708
0.166708
0.16677
0.166833
0.166895
0.166957
0.166957
0.16702
0.167082
0.167145
0.167207
0.167207
0.16727
0.167333
0.167395
0.167458
0.167458
0.167521
0.167584
0.167647
0.16771
0.16771
0.167773
0.167836
0.167899
0.167962
0.167962
0.168025
0.168089
0.168152
0.168216
0.168216
0.168279
0.168342
0.168406
0.16847
0.16847
0.168533
0.168597
0.168661
0.168724
0.168724
0.168788
0.168852
0.168916
0.16898
0.16898
0.169044
0.169108
0.169172
0.169237
0.169237
0.169301
0.169365
0.16943
0.169494
0.169494
0.169558
0.169623
0.169688
0.169752
0.169752
0.169817
0.169882
0.169946
0.170011
0.170011
0.170076
0.170141
0.170206
0.170271
0.170271
0.170336
0.170401
0.170466
0.170532
0.170532
0.170597
0.170662
0.170728
0.170793
0.170793
0.170858
0.170924
0.17099
0.171055
0.171055
0.171121
0.171187
0.171252
0.171318
0.171318
0.171384
0.17145
0.171516
0.171582
0.171582
0.171648
0.171715
0.171781
0.171847
0.171847
0.171913
0.17198
0.172046
0.172113
0.172113
0.172179
0.172246
0.172312
0.172379
0.172379
0.172446
0.172513
0.172579
0.172646
0.172646
0.172713
0.17278
0.172847
0.172914
0.172914
0.172981
0.173049
0.173116
0.173183
0.173183
0.173251
0.173318
0.173385
0.173453
0.173453
0.173521
0.173588
0.173656
0.173724
0.173724
0.173791
0.173859
0.173927
0.173995
0.173995
0.174063
0.174131
0.174199
0.174267
0.174267
0.174336
0.174404
0.174472
0.174541
0.174541
0.174609
0.174677
0.174746
0.174814
0.174814
0.174883
0.174952
0.175021
0.175089
0.175089
0.175158
0.175227
0.175296
0.175365
0.175365
0.175434
0.175503
0.175572
0.175642
0.175642
0.175711
0.17578
0.17585
0.175919
0.175919
0.175988
0.176058
0.176128
0.176197
0.176197
0.176267
0.176337
0.176406
0.176476
0.176476
0.176546
0.176616
0.176686
0.176756
0.176756
0.176826
0.176897
0.176967
0.177037
0.177037
0.177107
0.177178
0.177248
0.177319
0.177319
0.177389
0.17746
0.177531
0.177601
0.177601
0.177672
0.177743
0.177814
0.177885
0.177885
0.177956
0.178027
0.178098
0.178169
0.178169
0.17824
0.178311
0.178383
0.178454
0.178454
0.178525
0.178597
0.178668
0.17874
0.17874
0.178812
0.178883
0.178955
0.179027
0.179027
0.179099
0.179171
0.179243
0.179315
0.179315
0.179387
0.179459
0.179531
0.179603
0.179603
0.179676
0.179748
0.17982
0.179893
0.179893
0.179965
0.180038
0.18011
0.180183
0.180183
0.180256
0.180329
0.180401
0.180474
0.180474
0.180547
0.18062
0.180693
0.180767
0.180767
0.18084
0.180913
0.180986
0.181059
0.181059
0.181133
0.181206
0.18128
0.181353
0.181353
0.181427
0.181501
0.181574
0.181648
0.181648
0.181722
0.181796
0.18187
0.181944
0.181944
0.182018
0.182092
0.182166
0.18224
0.18224
0.182315
0.182389
0.182463
0.182538
0.182538
0.182612
0.182687
0.182761
0.182836
0.182836
0.182911
0.182985
0.18306
0.183135
0.183135
0.18321
0.183285
0.18336
0.183435
0.183435
0.18351
0.183586
0.183661
0.183736
0.183736
0.183812
0.183887
0.183963
0.184038
0.184038
0.184114
0.184189
0.184265
0.184341
0.184341
0.184417
0.184493
0.184569
0.184645
0.184645
0.184721
0.184797
0.184873
0.184949
0.184949
0.185025
0.185102
0.185178
0.185255
0.185255
0.185331
0.185408
0.185484
0.185561
0.185561
0.185638
0.185714
0.185791
0.185868
0.185868
0.185945
0.186022
0.186099
0.186176
0.186176
0.186253
0.186331
0.186408
0.186485
0.186485
0.186563
0.18664
0.186718
0.186795
0.186795
0.186873
0.186951
0.187028
0.187106
0.187106
0.187184
0.187262
0.18734
0.187418
0.187418
0.187496
0.187574
0.187652
0.187731
0.187731
0.187809
0.187887
0.187966
0.188044
0.188044
0.188123
0.188201
0.18828
0.188359
0.188359
0.188437
0.188516
0.188595
0.188674
0.188674
0.188753
0.188832
0.188911
0.18899
0.18899
0.18907
0.189149
0.189228
0.189308
0.189308
0.189387
0.189467
0.189546
0.189626
0.189626
0.189706
0.189785
0.189865
0.189945
0.189945
0.190025
0.190105
0.190185
0.190265
0.190265
0.190345
0.190425
0.190506
0.190586
0.190586
0.190666
0.190747
0.190827
0.190908
0.190908
0.190988
0.191069
0.19115
0.19123
0.19123
0.191311
0.191392
0.191473
0.191554
0.191554
0.191635
0.191716
0.191798
0.191879
0.191879