<?xml version="1.0"?>
<VTKFile type="UnstructuredGrid" version="0.1" byte_order="LittleEndian">
<UnstructuredGrid>
<Piece NumberOfPoints="5000" NumberOfCells="4000">
<PointData Scalars="Reaction 0">
<DataArray type="Float32" Name="Reaction 0" format="ascii">
0.577235
0.577235
0.577235
0.577235
0.577235
0.577235
0.577235
0.577235
0.577235
0.577235
0.577235
0.577235
0.577235
0.577235
0.577235
0.577235
0.577235
0.577235
0.577235
0.577235
0.577235
0.577235
0.577235
0.577235
0.577235
0.577235
0.577235
0.577235
0.577235
0.577235
0.577235
0.577235
0.577235
0.577235
0.577236
0.577236
0.577236
0.577236
0.577236
0.577236
0.577236
0.577236
0.577236
0.577236
0.577236
0.577236
0.577236
0.577236
0.577236
0.577236
0.577236
0.577236
0.577236
0.577236
0.577236
0.577236
0.577237
0.577237
0.577237
0.577237
0.577237
0.577237
0.577237
0.577237
0.577237
0.577237
0.577237
0.577237
0.577237
0.577237
0.577237
0.577238
0.577238
0.577238
0.577238
0.577238
0.577238
0.577238
0.577238
0.577238
0.577238
0.577238
0.577238
0.577239
0.577239
0.577239
0.577239
0.577239
0.577239
0.577239
0.577239
0.577239
0.577239
0.577239
0.57724
0.57724
0.57724
0.57724
0.57724
0.57724
0.57724
0.57724
0.57724
0.577241
0.577241
0.577241
0.577241
0.577241
0.577241
0.577241
0.577241
0.577241
0.577242
0.577242
0.577242
0.577242
0.577242
0.577242
0.577242
0.577242
0.577242
0.577243
0.577243
0.577243
0.577243
0.577243
0.577243
0.577243
0.577244
0.577244
0.577244
0.577244
0.577244
0.577244
0.577244
0.577244
0.577245
0.577245
0.577245
0.577245
0.577245
0.577245
0.577246
0.577246
0.577246
0.577246
0.577246
0.577246
0.577246
0.577247
0.577247
0.577247
0.577247
0.577247
0.577247
0.577247
0.577248
0.577248
0.577248
0.577248
0.577248
0.577249
0.577249
0.577249
0.577249
0.577249
0.577249
0.57725
0.57725
0.57725
0.57725
0.57725
0.57725
0.577251
0.577251
0.577251
0.577251
0.577251
0.577252
0.577252
0.577252
0.577252
0.577252
0.577253
0.577253
0.577253
0.577253
0.577253
0.577254
0.577254
0.577254
0.577254
0.577254
0.577255
0.577255
0.577255
0.577255
0.577255
0.577256
0.577256
0.577256
0.577256
0.577256
0.577257
0.577257
0.577257
0.577257
0.577257
0.577258
0.577258
0.577258
0.577258
0.577259
0.577259
0.577259
0.577259
0.577259
0.57726
0.57726
0.57726
0.57726
0.577261
0.577261
0.577261
0.577261
0.577261
0.577262
0.577262
0.577262
0.577263
0.577263
0.577263
0.577263
0.577264
0.577264
0.577264
0.577264
0.577264
0.577265
0.577265
0.577265
0.577265
0.577266
0.577266
0.577266
0.577266
0.577267
0.577267
0.577267
0.577268
0.577268
0.577268
0.577268
0.577269
0.577269
0.577269
0.577269
0.57727
0.57727
0.57727
0.57727
0.577271
0.577271
0.577271
0.577272
0.577272
0.577272
0.577272
0.577273
0.577273
0.577273
0.577273
0.577274
0.577274
0.577275
0.577275
0.577275
0.577275
0.577276
0.577276
0.577276
0.577276
0.577277
0.577277
0.577277
0.577277
0.577278
0.577278
0.577279
0.577279
0.577279
0.577279
0.57728
0.57728
0.577281
0.577281
0.577281
0.577281
0.577282
0.577282
0.577282
0.577282
0.577283
0.577283
0.577284
0.577284
0.577284
0.577284
0.577285
0.577285
0.577285
0.577286
0.577286
0.577286
0.577287
0.577287
0.577287
0.577288
0.577288
0.577289
0.577289
0.577289
0.577289
0.57729
0.57729
0.57729
0.577291
0.577291
0.577292
0.577292
0.577292
0.577292
0.577293
0.577293
0.577294
0.577294
0.577294
0.577295
0.577295
0.577295
0.577295
0.577296
0.577296
0.577297
0.577297
0.577297
0.577298
0.577298
0.577299
0.577299
0.577299
0.5773
0.5773
0.5773
0.577301
0.577301
0.577301
0.577302
0.577302
0.577303
0.577303
0.577303
0.577304
0.577304
0.577305
0.577305
0.577305
0.577306
0.577306
0.577307
0.577307
0.577307
0.577308
0.577308
0.577309
0.577309
0.577309
0.57731
0.57731
0.577311
0.577311
0.577311
0.577312
0.577312
0.577313
0.577313
0.577313
0.577314
0.577314
0.577315
0.577315
0.577315
0.577316
0.577316
0.577317
0.577317
0.577317
0.577318
0.577318
0.577319
0.577319
0.577319
0.57732
0.57732
0.577321
0.577321
0.577321
0.577322
0.577322
0.577323
0.577323
0.577324
0.577324
0.577325
0.577325
0.577325
0.577326
0.577326
0.577327
0.577327
0.577327
0.577328
0.577328
0.577329
0.57733
0.57733
0.57733
0.577331
0.577331
0.577332
0.577332
0.577332
0.577333
0.577333
0.577334
0.577334
0.577335
0.577335
0.577336
0.577336
0.577336
0.577337
0.577337
0.577338
0.577339
0.577339
0.577339
0.57734
0.57734
0.577341
0.577341
0.577342
0.577342
0.577343
0.577343
0.577343
0.577344
0.577345
0.577345
0.577346
0.577346
0.577346
0.577347
0.577348
0.577348
0.577348
0.577349
0.577349
0.57735
0.577351
0.577351
0.577351
0.577352
0.577352
0.577353
0.577353
0.577354
0.577354
0.577355
0.577356
0.577356
0.577356
0.577357
0.577357
0.577358
0.577358
0.577359
0.577359
0.57736
0.577361
0.577361
0.577361
0.577362
0.577363
0.577363
0.577363
0.577364
0.577364
0.577365
0.577366
0.577366
0.577366
0.577367
0.577368
0.577368
0.577368
0.577369
0.57737
0.57737
0.577371
0.577371
0.577372
0.577372
0.577373
0.577374
0.577374
0.577374
0.577375
0.577376
0.577376
0.577376
0.577377
0.577378
0.577378
0.577379
0.577379
0.57738
0.577381
0.577381
0.577382
0.577382
0.577383
0.577383
0.577384
0.577385
0.577385
0.577385
0.577386
0.577387
0.577388
0.577388
0.577388
0.577389
0.57739
0.57739
0.57739
0.577391
0.577392
0.577392
0.577393
0.577393
0.577394
0.577395
0.577395
0.577396
0.577396
0.577397
0.577398
0.577398
0.577399
0.577399
0.5774
0.5774
0.577401
0.577402
0.577402
0.577403
0.577403
0.577404
0.577405
0.577405
0.577406
0.577406
0.577407
0.577408
0.577408
0.577409
0.577409
0.57741
0.577411
0.577411
0.577412
0.577412
0.577413
0.577414
0.577414
0.577415
0.577415
0.577416
0.577417
0.577417
0.577418
0.577419
0.577419
0.57742
0.57742
0.577421
0.577422
0.577422
0.577423
0.577423
0.577424
0.577425
0.577426
0.577426
0.577426
0.577427
0.577428
0.577429
0.57743
0.57743
0.57743
0.577431
0.577432
0.577433
0.577433
0.577434
0.577434
0.577435
0.577436
0.577436
0.577437
0.577438
0.577438
0.577439
0.577439
0.57744
0.577441
0.577442
0.577442
0.577442
0.577443
0.577444
0.577445
0.577446
0.577446
0.577447
0.577447
0.577448
0.577449
0.577449
0.57745
0.577451
0.577452
0.577452
0.577452
0.577453
0.577454
0.577455
0.577456
0.577456
0.577457
0.577457
0.577458
0.577459
0.577459
0.57746
0.577461
0.577462
0.577463
0.577463
0.577463
0.577464
0.577465
0.577466
0.577466
0.577467
0.577468
0.577469
0.57747
0.57747
0.57747
0.577471
0.577472
0.577473
0.577473
0.577474
0.577475
0.577476
0.577477
0.577477
0.577477
0.577478
0.577479
0.57748
0.57748
0.577481
0.577482
0.577483
0.577484
0.577484
0.577485
0.577485
0.577486
0.577487
0.577487
0.577488
0.577489
0.57749
0.577491
0.577491
0.577492
0.577493
0.577494
0.577495
0.577495
0.577495
0.577496
0.577497
0.577498
0.577498
0.577499
0.5775
0.577501
0.577502
0.577502
0.577503
0.577504
0.577505
0.577506
0.577506
0.577507
0.577508
0.577508
0.577509
0.577509
0.57751
0.577511
0.577512
0.577513
0.577513
0.577514
0.577515
0.577516
0.577517
0.577517
0.577518
0.577519
0.57752
0.577521
0.577521
0.577522
0.577523
0.577524
0.577525
0.577525
0.577526
0.577527
0.577528
0.577529
0.577529
0.57753
0.577531
0.577532
0.577532
0.577532
0.577533
0.577534
0.577535
0.577536
0.577536
0.577537
0.577538
0.577539
0.57754
0.57754
0.577541
0.577542
0.577543
0.577544
0.577544
0.577545
0.577546
0.577547
0.577548
0.577548
0.577549
0.57755
0.577551
0.577552
0.577552
0.577553
0.577554
0.577555
0.577556
0.577556
0.577558
0.577559
0.57756
0.577561
0.577561
0.577562
0.577563
0.577564
0.577565
0.577565
0.577566
0.577567
0.577568
0.577569
0.577569
0.57757
0.577571
0.577572
0.577573
0.577573
0.577574
0.577575
0.577576
0.577577
0.577577
0.577578
0.577579
0.57758
0.577581
0.577581
0.577582
0.577584
0.577585
0.577586
0.577586
0.577587
0.577588
0.577589
0.57759
0.57759
0.577591
0.577592
0.577593
0.577594
0.577594
0.577595
0.577596
0.577597
0.577599
0.577599
0.5776
0.577601
0.577602
0.577603
0.577603
0.577604
0.577605
0.577606
0.577607
0.577607
0.577608
0.577609
0.57761
0.577612
0.577612
0.577613
0.577614
0.577615
0.577616
0.577616
0.577617
0.577618
0.577619
0.57762
0.57762
0.577622
0.577623
0.577624
0.577625
0.577625
0.577626
0.577627
0.577628
0.577629
0.577629
0.577631
0.577632
0.577633
0.577634
0.577634
0.577635
0.577636
0.577637
0.577638
0.577638
0.57764
0.577641
0.577642
0.577643
0.577643
0.577644
0.577645
0.577646
0.577648
0.577648
0.577649
0.57765
0.577651
0.577652
0.577652
0.577653
0.577655
0.577656
0.577657
0.577657
0.577658
0.577659
0.57766
0.577662
0.577662
0.577663
0.577664
0.577665
0.577666
0.577666
0.577667
0.577669
0.57767
0.577671
0.577671
0.577672
0.577673
0.577675
0.577676
0.577676
0.577677
0.577678
0.577679
0.57768
0.57768
0.577682
0.577683
0.577684
0.577685
0.577685
0.577686
0.577688
0.577689
0.57769
0.57769
0.577691
0.577693
0.577694
0.577695
0.577695
0.577696
0.577697
0.577699
0.5777
0.5777
0.577701
0.577702
0.577703
0.577705
0.577705
0.577706
0.577707
0.577708
0.57771
0.57771
0.577711
0.577712
0.577713
0.577714
0.577714
0.577716
0.577717
0.577718
0.577719
0.577719
0.577721
0.577722
0.577723
0.577724
0.577724
0.577726
0.577727
0.577728
0.57773
0.57773
0.577731
0.577732
0.577733
0.577735
0.577735
0.577736
0.577737
0.577738
0.57774
0.57774
0.577741
0.577742
0.577743
0.577745
0.577745
0.577746
0.577747
0.577749
0.57775
0.57775
0.577751
0.577752
0.577754
0.577755
0.577755
0.577756
0.577758
0.577759
0.57776
0.57776
0.577761
0.577763
0.577764
0.577765
0.577765
0.577767
0.577768
0.577769
0.577771
0.577771
0.577772
0.577773
0.577774
0.577776
0.577776
0.577777
0.577778
0.57778
0.577781
0.577781
0.577782
0.577784
0.577785
0.577786
0.577786
0.577788
0.577789
0.57779
0.577792
0.577792
0.577793
0.577794
0.577796
0.577797
0.577797
0.577798
0.5778
0.577801
0.577802
0.577802
0.577804
0.577805
0.577806
0.577808
0.577808
0.577809
0.57781
0.577812
0.577813
0.577813
0.577814
0.577816
0.577817
0.577819
0.577819
0.57782
0.577821
0.577823
0.577824
0.577824
0.577825
0.577827
0.577828
0.57783
0.57783
0.577831
0.577832
0.577834
0.577835
0.577835
0.577836
0.577838
0.577839
0.577841
0.577841
0.577842
0.577843
0.577845
0.577846
0.577846
0.577848
0.577849
0.57785
0.577852
0.577852
0.577853
0.577855
0.577856
0.577857
0.577857
0.577859
0.57786
0.577862
0.577863
0.577863
0.577864
0.577866
0.577867
0.577869
0.577869
0.57787
0.577872
0.577873
0.577874
0.577874
0.577876
0.577877
0.577879
0.57788
0.57788
0.577882
0.577883
0.577884
0.577886
0.577886
0.577887
0.577889
0.57789
0.577892
0.577892
0.577893
0.577894
0.577896
0.577897
0.577897
0.577899
0.5779
0.577902
0.577903
0.577903
0.577905
0.577906
0.577908
0.577909
0.577909
0.577911
0.577912
0.577913
0.577915
0.577915
0.577916
0.577918
0.577919
0.577921
0.577921
0.577922
0.577924
0.577925
0.577927
0.577927
0.577928
0.57793
0.577931
0.577933
0.577933
0.577934
0.577936
0.577937
0.577939
0.577939
0.57794
0.577942
0.577943
0.577945
0.577945
0.577946
0.577948
0.577949
0.577951
0.577951
0.577952
0.577954
0.577955
0.577957
0.577957
0.577958
0.57796
0.577961
0.577963
0.577963
0.577964
0.577966
0.577967
0.577969
0.577969
0.57797
0.577972
0.577973
0.577975
0.577975
0.577977
0.577978
0.57798
0.577981
0.577981
0.577983
0.577984
0.577986
0.577987
0.577987
0.577989
0.57799
0.577992
0.577994
0.577994
0.577995
0.577997
0.577998
0.578
0.578
0.578001
0.578003
0.578004
0.578006
0.578006
0.578008
0.578009
0.578011
0.578012
0.578012
0.578014
0.578015
0.578017
0.578019
0.578019
0.57802
0.578022
0.578023
0.578025
0.578025
0.578026
0.578028
0.57803
0.578031
0.578031
0.578033
0.578034
0.578036
0.578038
0.578038
0.578039
0.578041
0.578042
0.578044
0.578044
0.578046
0.578047
0.578049
0.57805
0.57805
0.578052
0.578054
0.578055
0.578057
0.578057
0.578059
0.57806
0.578062
0.578063
0.578063
0.578065
0.578067
0.578068
0.57807
0.57807
0.578072
0.578073
0.578075
0.578076
0.578076
0.578078
0.57808
0.578081
0.578083
0.578083
0.578085
0.578086
0.578088
0.57809
0.57809
0.578091
0.578093
0.578095
0.578096
0.578096
0.578098
0.578099
0.578101
0.578103
0.578103
0.578104
0.578106
0.578108
0.578109
0.578109
0.578111
0.578113
0.578114
0.578116
0.578116
0.578118
0.578119
0.578121
0.578123
0.578123
0.578125
0.578126
0.578128
0.57813
0.57813
0.578131
0.578133
0.578135
0.578136
0.578136
0.578138
0.57814
0.578141
0.578143
0.578143
0.578145
0.578147
0.578148
0.57815
0.57815
0.578152
0.578153
0.578155
0.578157
0.578157
0.578159
0.57816
0.578162
0.578164
0.578164
0.578165
0.578167
0.578169
0.578171
0.578171
0.578172
0.578174
0.578176
0.578177
0.578177
0.578179
0.578181
0.578183
0.578184
0.578184
0.578186
0.578188
0.57819
0.578191
0.578191
0.578193
0.578195
0.578197
0.578198
0.578198
0.5782
0.578202
0.578204
0.578205
0.578205
0.578207
0.578209
0.578211
0.578212
0.578212
0.578214
0.578216
0.578218
0.57822
0.57822
0.578221
0.578223
0.578225
0.578227
0.578227
0.578228
0.57823
0.578232
0.578234
0.578234
0.578236
0.578237
0.578239
0.578241
0.578241
0.578243
0.578244
0.578246
0.578248
0.578248
0.57825
0.578252
0.578253
0.578255
0.578255
0.578257
0.578259
0.578261
0.578262
0.578262
0.578264
0.578266
0.578268
0.57827
0.57827
0.578272
0.578273
0.578275
0.578277
0.578277
0.578279
0.578281
0.578282
0.578284
0.578284
0.578286
0.578288
0.57829
0.578292
0.578292
0.578293
0.578295
0.578297
0.578299
0.578299
0.578301
0.578303
0.578305
0.578306
0.578306
0.578308
0.57831
0.578312
0.578314
0.578314
0.578316
0.578318
0.578319
0.578321
0.578321
0.578323
0.578325
0.578327
0.578329
0.578329
0.578331
0.578332
0.578334
0.578336
0.578336
0.578338
0.57834
0.578342
0.578344
0.578344
0.578346
0.578347
0.578349
0.578351
0.578351
0.578353
0.578355
0.578357
0.578359
0.578359
0.578361
0.578363
0.578365
0.578366
0.578366
0.578368
0.57837
0.578372
0.578374
0.578374
0.578376
0.578378
0.57838
0.578382
0.578382
0.578384
0.578386
0.578387
0.578389
0.578389
0.578391
0.578393
0.578395
0.578397
0.578397
0.578399
0.578401
0.578403
0.578405
0.578405
0.578407
0.578409
0.578411
0.578413
0.578413
0.578414
0.578416
0.578418
0.57842
0.57842
0.578422
0.578424
0.578426
0.578428
0.578428
0.57843
0.578432
0.578434
0.578436
0.578436
0.578438
0.57844
0.578442
0.578444
0.578444
0.578446
0.578448
0.57845
0.578452
0.578452
0.578454
0.578456
0.578458
0.57846
0.57846
0.578462
0.578464
0.578466
0.578468
0.578468
0.57847
0.578471
0.578473
0.578475
0.578475
0.578477
0.578479
0.578481
0.578483
0.578483
0.578485
0.578487
0.578489
0.578491
0.578491
0.578493
0.578496
0.578498
0.5785
0.5785
0.578502
0.578504
0.578506
0.578508
0.578508
0.57851
0.578512
0.578514
0.578516
0.578516
0.578518
0.57852
0.578522
0.578524
0.578524
0.578526
0.578528
0.57853
0.578532
0.578532
0.578534
0.578536
0.578538
0.57854
0.57854
0.578542
0.578544
0.578546
0.578548
0.578548
0.57855
0.578552
0.578555
0.578557
0.578557
0.578559
0.578561
0.578563
0.578565
0.578565
0.578567
0.578569
0.578571
0.578573
0.578573
0.578575
0.578577
0.578579
0.578581
0.578581
0.578583
0.578586
0.578588
0.57859
0.57859
0.578592
0.578594
0.578596
0.578598
0.578598
0.5786
0.578602
0.578604
0.578606
0.578606
0.578609
0.578611
0.578613
0.578615
0.578615
0.578617
0.578619
0.578621
0.578623
0.578623
0.578625
0.578628
0.57863
0.578632
0.578632
0.578634
0.578636
0.578638
0.57864
0.57864
0.578642
0.578645
0.578647
0.578649
0.578649
0.578651
0.578653
0.578655
0.578657
0.578657
0.57866
0.578662
0.578664
0.578666
0.578666
0.578668
0.57867
0.578672
0.578675
0.578675
0.578677
0.578679
0.578681
0.578683
0.578683
0.578685
0.578688
0.57869
0.578692
0.578692
0.578694
0.578696
0.578698
0.578701
0.578701
0.578703
0.578705
0.578707
0.578709
0.578709
0.578711
0.578714
0.578716
0.578718
0.578718
0.57872
0.578722
0.578725
0.578727
0.578727
0.578729
0.578731
0.578733
0.578736
0.578736
0.578738
0.57874
0.578742
0.578744
0.578744
0.578747
0.578749
0.578751
0.578753
0.578753
0.578755
0.578758
0.57876
0.578762
0.578762
0.578764
0.578767
0.578769
0.578771
0.578771
0.578773
0.578775
0.578778
0.57878
0.57878
0.578782
0.578784
0.578787
0.578789
0.578789
0.578791
0.578793
0.578796
0.578798
0.578798
0.5788
0.578802
0.578805
0.578807
0.578807
0.578809
0.578811
0.578814
0.578816
0.578816
0.578818
0.57882
0.578823
0.578825
0.578825
0.578827
0.578829
0.578832
0.578834
0.578834
0.578836
0.578839
0.578841
0.578843
0.578843
0.578845
0.578848
0.57885
0.578852
0.578852
0.578855
0.578857
0.578859
0.578861
0.578861
0.578864
0.578866
0.578868
0.578871
0.578871
0.578873
0.578875
0.578878
0.57888
0.57888
0.578882
0.578885
0.578887
0.578889
0.578889
0.578891
0.578894
0.578896
0.578898
0.578898
0.578901
0.578903
0.578905
0.578908
0.578908
0.57891
0.578912
0.578915
0.578917
0.578917
0.578919
0.578922
0.578924
0.578926
0.578926
0.578929
0.578931
0.578934
0.578936
0.578936
0.578938
0.578941
0.578943
0.578945
0.578945
0.578948
0.57895
0.578952
0.578955
0.578955
0.578957
0.578959
0.578962
0.578964
0.578964
0.578967
0.578969
0.578971
0.578974
0.578974
0.578976
0.578978
0.578981
0.578983
0.578983
0.578986
0.578988
0.57899
0.578993
0.578993
0.578995
0.578997
0.579
0.579002
0.579002
0.579004
0.579007
0.579009
0.579012
0.579012
0.579014
0.579017
0.579019
0.579022
0.579022
0.579024
0.579026
0.579029
0.579031
0.579031
0.579034
0.579036
0.579038
0.579041
0.579041
0.579043
0.579046
0.579048
0.579051
0.579051
0.579053
0.579055
0.579058
0.57906
0.57906
0.579063
0.579065
0.579068
0.57907
0.57907
0.579072
0.579075
0.579077
0.57908
0.57908
0.579082
0.579085
0.579087
0.57909
0.57909
0.579092
0.579094
0.579097
0.579099
0.579099
0.579102
0.579104
0.579107
0.579109
0.579109
0.579112
0.579114
0.579117
0.579119
0.579119
0.579122
0.579124
0.579127
0.579129
0.579129
0.579132
0.579134
0.579137
0.579139
0.579139
0.579141
0.579144
0.579146
0.579149
0.579149
0.579151
0.579154
0.579156
0.579159
0.579159
0.579161
0.579164
0.579166
0.579169
0.579169
0.579171
0.579174
0.579177
0.579179
0.579179
0.579182
0.579184
0.579187
0.579189
0.579189
0.579192
0.579194
0.579197
0.579199
0.579199
0.579202
0.579204
0.579207
0.579209
0.579209
0.579212
0.579214
0.579217
0.57922
0.57922
0.579222
0.579225
0.579227
0.57923
0.57923
0.579232
0.579235
0.579237
0.57924
0.57924
0.579242
0.579245
0.579248
0.57925
0.57925
0.579253
0.579255
0.579258
0.57926
0.57926
0.579263
0.579266
0.579268
0.579271
0.579271
0.579273
0.579276
0.579278
0.579281
0.579281
0.579284
0.579286
0.579289
0.579291
0.579291
0.579294
0.579297
0.579299
0.579302
0.579302
0.579304
0.579307
0.57931
0.579312
0.579312
0.579315
0.579317
0.57932
0.579323
0.579323
0.579325
0.579328
0.579331
0.579333
0.579333
0.579336
0.579338
0.579341
0.579344
0.579344
0.579346
0.579349
0.579352
0.579354
0.579354
0.579357
0.579359
0.579362
0.579365
0.579365
0.579367
0.57937
0.579373
0.579375
0.579375
0.579378
0.579381
0.579383
0.579386
0.579386
0.579389
0.579391
0.579394
0.579397
0.579397
0.579399
0.579402
0.579405
0.579407
0.579407
0.57941
0.579413
0.579415
0.579418
0.579418
0.579421
0.579423
0.579426
0.579429
0.579429
0.579431
0.579434
0.579437
0.579439
0.579439
0.579442
0.579445
0.579448
0.57945
0.57945
0.579453
0.579456
0.579458
0.579461
0.579461
0.579464
0.579466
0.579469
0.579472
0.579472
0.579475
0.579477
0.57948
0.579483
0.579483
0.579486
0.579488
0.579491
0.579494
0.579494
0.579496
0.579499
0.579502
0.579505
0.579505
0.579507
0.57951
0.579513
0.579516
0.579516
0.579518
0.579521
0.579524
0.579527
0.579527
0.579529
0.579532
0.579535
0.579538
0.579538
0.57954
0.579543
0.579546
0.579549
0.579549
0.579551
0.579554
0.579557
0.57956
0.57956
0.579562
0.579565
0.579568
0.579571
0.579571
0.579574
0.579576
0.579579
0.579582
0.579582
0.579585
0.579588
0.57959
0.579593
0.579593
0.579596
0.579599
0.579602
0.579604
0.579604
0.579607
0.57961
0.579613
0.579616
0.579616
0.579618
0.579621
0.579624
0.579627
0.579627
0.57963
0.579632
0.579635
0.579638
0.579638
0.579641
0.579644
0.579647
0.579649
0.579649
0.579652
0.579655
0.579658
0.579661
0.579661
0.579664
0.579666
0.579669
0.579672
0.579672
0.579675
0.579678
0.579681
0.579684
0.579684
0.579686
0.579689
0.579692
0.579695
0.579695
0.579698
0.579701
0.579704
0.579706
0.579706
0.579709
0.579712
0.579715
0.579718
0.579718
0.579721
0.579724
0.579727
0.579729
0.579729
0.579732
0.579735
0.579738
0.579741
0.579741
0.579744
0.579747
0.57975
0.579753
0.579753
0.579755
0.579758
0.579761
0.579764
0.579764
0.579767
0.57977
0.579773
0.579776
0.579776
0.579779
0.579782
0.579785
0.579787
0.579787
0.57979
0.579793
0.579796
0.579799
0.579799
0.579802
0.579805
0.579808
0.579811
0.579811
0.579814
0.579817
0.57982
0.579823
0.579823
0.579826
0.579828
0.579831
0.579834
0.579834
0.579837
0.57984
0.579843
0.579846
0.579846
0.579849
0.579852
0.579855
0.579858
0.579858
0.579861
0.579864
0.579867
0.57987
0.57987
0.579873
0.579876
0.579879
0.579882
0.579882
0.579885
0.579888
0.579891
0.579894
0.579894
0.579897
0.5799
0.579903
0.579906
0.579906
0.579909
0.579912
0.579915
0.579918
0.579918
0.579921
0.579924
0.579927
0.57993
0.57993
0.579933
0.579936
0.579939
0.579942
0.579942
0.579945
0.579948
0.579951
0.579954
0.579954
0.579957
0.57996
0.579963
0.579966
0.579966
0.579969
0.579972
0.579975
0.579978
0.579978
0.579981
0.579984
0.579987
0.57999
0.57999
0.579993
0.579996
0.579999
0.580003
0.580003
0.580006
0.580009
0.580012
0.580015
0.580015
0.580018
0.580021
0.580024
0.580027
0.580027
0.58003
0.580033
0.580036
0.580039
0.580039
0.580042
0.580046
0.580049
0.580052
0.580052
0.580055
0.580058
0.580061
0.580064
0.580064
0.580067
0.58007
0.580073
0.580076
0.580076
0.58008
0.580083
0.580086
0.580089
0.580089
0.580092
0.580095
0.580098
0.580101
0.580101
0.580104
0.580108
0.580111
0.580114
0.580114
0.580117
0.58012
0.580123
0.580126
0.580126
0.580129
0.580133
0.580136
0.580139
0.580139
0.580142
0.580145
0.580148
0.580151
0.580151
0.580155
0.580158
0.580161
0.580164
0.580164
0.580167
0.58017
0.580174
0.580177
0.580177
0.58018
0.580183
0.580186
0.580189
0.580189
0.580193
0.580196
0.580199
0.580202
0.580202
0.580205
0.580208
0.580212
0.580215
0.580215
0.580218
0.580221
0.580224
0.580228
0.580228
0.580231
0.580234
0.580237
0.58024
0.58024
0.580244
0.580247
0.58025
0.580253
0.580253
0.580256
0.58026
0.580263
0.580266
0.580266
0.580269
0.580272
0.580276
0.580279
0.580279
0.580282
0.580285
0.580289
0.580292
0.580292
0.580295
0.580298
0.580302
0.580305
0.580305
0.580308
0.580311
0.580314
0.580318
0.580318
0.580321
0.580324
0.580327
0.580331
0.580331
0.580334
0.580337
0.58034
0.580343
0.580343
0.580346
0.58035
0.580353
0.580357
0.580357
0.58036
0.580363
0.580367
0.58037
0.58037
0.580373
0.580376
0.58038
0.580383
0.580383
0.580386
0.58039
0.580393
0.580396
0.580396
0.5804
0.580403
0.580406
0.580409
0.580409
0.580413
0.580416
0.580419
0.580423
0.580423
0.580426
0.580429
0.580433
0.580436
0.580436
0.580439
0.580442
0.580446
0.580449
0.580449
0.580452
0.580456
0.580459
0.580462
0.580462
0.580466
0.580469
0.580472
0.580476
0.580476
0.580479
0.580482
0.580486
0.580489
0.580489
0.580493
0.580496
0.580499
0.580503
0.580503
0.580506
0.580509
0.580513
0.580516
0.580516
0.580519
0.580523
0.580526
0.580529
0.580529
0.580533
0.580536
0.58054
0.580543
0.580543
0.580546
0.58055
0.580553
0.580557
0.580557
0.58056
0.580563
0.580567
0.58057
0.58057
0.580573
0.580577
0.58058
0.580584
0.580584
0.580587
0.580591
0.580594
0.580597
0.580597
0.580601
0.580604
0.580608
0.580611
0.580611
0.580614
0.580618
0.580621
0.580625
0.580625
0.580628
0.580632
0.580635
0.580638
0.580638
0.580642
0.580645
0.580649
0.580652
0.580652
0.580656
0.580659
0.580663
0.580666
0.580666
0.580669
0.580673
0.580676
0.58068
0.58068
0.580683
0.580687
0.58069
0.580694
0.580694
0.580697
0.580701
0.580704
0.580708
0.580708
0.580711
0.580715
0.580718
0.580721
0.580721
0.580725
0.580728
0.580732
0.580735
0.580735
0.580739
0.580742
0.580746
0.580749
0.580749
0.580753
0.580756
0.58076
0.580763
0.580763
0.580767
0.58077
0.580774
0.580777
0.580777
0.580781
0.580785
0.580788
0.580792
0.580792
0.580795
0.580799
0.580802
0.580806
0.580806
0.580809
0.580813
0.580816
0.58082
0.58082
0.580823
0.580827
0.58083
0.580834
0.580834
0.580838
0.580841
0.580845
0.580848
0.580848
0.580852
0.580855
0.580859
0.580863
0.580863
0.580866
0.58087
0.580873
0.580877
0.580877
0.58088
0.580884
0.580888
0.580891
0.580891
0.580895
0.580898
0.580902
0.580905
0.580905
0.580909
0.580913
0.580916
0.58092
0.58092
0.580923
0.580927
0.580931
0.580934
0.580934
0.580938
0.580941
0.580945
0.580949
0.580949
0.580952
0.580956
0.58096
0.580963
0.580963
0.580967
0.58097
0.580974
0.580978
0.580978
0.580981
0.580985
0.580989
0.580992
0.580992
0.580996
0.581
0.581003
0.581007
0.581007
0.581011
0.581014
0.581018
0.581021
0.581021
0.581025
0.581029
0.581032
0.581036
0.581036
0.58104
0.581043
0.581047
0.581051
0.581051
0.581054
0.581058
0.581062
0.581066
0.581066
0.581069
0.581073
0.581077
0.58108
0.58108
0.581084
0.581088
0.581091
0.581095
0.581095
0.581099
0.581102
0.581106
0.58111
0.58111
0.581114
0.581117
0.581121
0.581125
0.581125
0.581128
0.581132
0.581136
0.58114
0.58114
0.581143
0.581147
0.581151
0.581155
0.581155
0.581158
0.581162
0.581166
0.58117
0.58117
0.581173
0.581177
0.581181
0.581185
0.581185
0.581188
0.581192
0.581196
0.5812
0.5812
0.581203
0.581207
0.581211
0.581215
0.581215
0.581218
0.581222
0.581226
0.58123
0.58123
0.581233
0.581237
0.581241
0.581245
0.581245
0.581249
0.581252
0.581256
0.58126
0.58126
0.581264
0.581268
0.581271
0.581275
0.581275
0.581279
0.581283
0.581287
0.58129
0.58129
0.581294
0.581298
0.581302
0.581306
0.581306
0.58131
0.581313
0.581317
0.581321
0.581321
0.581325
0.581329
0.581332
0.581336
0.581336
0.58134
0.581344
0.581348
0.581352
0.581352
0.581356
0.581359
0.581363
0.581367
0.581367
0.581371
0.581375
0.581379
0.581383
0.581383
0.581386
0.58139
0.581394
0.581398
0.581398
0.581402
0.581406
0.58141
0.581414
0.581414
0.581417
0.581421
0.581425
0.581429
0.581429
0.581433
0.581437
0.581441
0.581445
0.581445
0.581449
0.581452
0.581456
0.58146
0.58146
0.581464
0.581468
0.581472
0.581476
0.581476
0.58148
0.581484
0.581488
0.581492
0.581492
0.581496
0.581499
0.581503
0.581507
0.581507
0.581511
0.581515
0.581519
0.581523
0.581523
0.581527
0.581531
0.581535
0.581539
0.581539
0.581543
0.581547
0.581551
0.581555
0.581555
0.581559
0.581563
0.581567
0.581571
0.581571
0.581575
0.581579
0.581583
0.581587
0.581587
0.58159
0.581594
0.581598
0.581602
0.581602
0.581606
0.58161
0.581614
0.581618
0.581618
0.581622
0.581626
0.58163
0.581634
0.581634
0.581638
0.581642
0.581646
0.58165
0.58165
0.581654
0.581659
0.581663
0.581667
0.581667
0.581671
0.581675
0.581679
0.581683
0.581683
0.581687
0.581691
0.581695
0.581699
0.581699
0.581703
0.581707
0.581711
0.581715
0.581715
0.581719
0.581723
0.581727
0.581731
0.581731
0.581735
0.581739
0.581743
0.581747
0.581747
0.581751
0.581755
0.581759
0.581763
0.581763
0.581768
0.581772
0.581776
0.58178
0.58178
0.581784
0.581788
0.581792
0.581797
0.581797
0.581801
0.581805
0.581809
0.581813
0.581813
0.581817
0.581821
0.581825
0.581829
0.581829
0.581833
0.581838
0.581842
0.581846
0.581846
0.58185
0.581854
0.581858
0.581862
0.581862
0.581867
0.581871
0.581875
0.581879
0.581879
0.581883
0.581887
0.581891
0.581896
0.581896
0.5819
0.581904
0.581908
0.581912
0.581912
0.581916
0.58192
0.581925
0.581929
0.581929
0.581933
0.581937
0.581941
0.581946
0.581946
0.58195
0.581954
0.581958
0.581962
0.581962
0.581966
0.581971
0.581975
0.581979
0.581979
0.581983
0.581987
0.581992
0.581996
0.581996
0.582
0.582004
0.582008
0.582013
0.582013
0.582017
0.582021
0.582025
0.58203
0.58203
0.582034
0.582038
0.582042
0.582047
0.582047
0.582051
0.582055
0.582059
0.582063
0.582063
0.582068
0.582072
0.582076
0.58208
0.58208
0.582085
0.582089
0.582093
0.582098
0.582098
0.582102
0.582106
0.58211
0.582115
0.582115
0.582119
0.582123
0.582127
0.582132
0.582132
0.582136
0.58214
0.582145
0.582149
0.582149
0.582153
0.582157
0.582162
0.582166
0.582166
0.58217
0.582175
0.582179
0.582183
0.582183
0.582188
0.582192
0.582196
0.582201
0.582201
0.582205
0.582209
0.582214
0.582218
0.582218
0.582222
0.582227
0.582231
0.582235
0.582235
0.58224
0.582244
0.582248
0.582253
0.582253
0.582257
0.582261
0.582266
0.58227
0.58227
0.582274
0.582279
0.582283
0.582287
0.582287
0.582292
0.582296
0.582301
0.582305
0.582305
0.582309
0.582314
0.582318
0.582323
0.582323
0.582327
0.582331
0.582336
0.58234
0.58234
0.582345
0.582349
0.582353
0.582358
0.582358
0.582362
0.582367
0.582371
0.582375
0.582375
0.58238
0.582384
0.582389
0.582393
0.582393
0.582397
0.582402
0.582406
0.582411
0.582411
0.582415
0.58242
0.582424
0.582429
0.582429
0.582433
0.582437
0.582442
0.582446
0.582446
0.582451
0.582455
0.58246
0.582464
0.582464
0.582469
0.582473
0.582478
0.582482
0.582482
0.582487
0.582491
0.582496
0.5825
0.5825
0.582505
0.582509
0.582514
0.582518
0.582518
0.582523
0.582527
0.582532
0.582536
0.582536
0.582541
0.582545
0.58255
0.582554
0.582554
0.582559
0.582563
0.582568
0.582572
0.582572
0.582577
0.582581
0.582586
0.58259
0.58259
0.582595
0.582599
0.582604
0.582608
0.582608
0.582613
0.582618
0.582622
0.582627
0.582627
0.582631
0.582636
0.58264
0.582645
0.582645
0.58265
0.582654
0.582659
0.582663
0.582663
0.582668
0.582672
0.582677
0.582682
0.582682
0.582686
0.582691
0.582695
0.5827
0.5827
0.582705
0.582709
0.582714
0.582718
0.582718
0.582723
0.582728
0.582732
0.582737
0.582737
0.582741
0.582746
0.582751
0.582755
0.582755
0.58276
0.582765
0.582769
0.582774
0.582774
0.582778
0.582783
0.582788
0.582792
0.582792
0.582797
0.582802
0.582806
0.582811
0.582811
0.582816
0.58282
0.582825
0.58283
0.58283
0.582834
0.582839
0.582844
0.582848
0.582848
0.582853
0.582858
0.582862
0.582867
0.582867
0.582872
0.582877
0.582881
0.582886
0.582886
0.582891
0.582895
0.5829
0.582905
0.582905
0.582909
0.582914
0.582919
0.582924
0.582924
0.582928
0.582933
0.582938
0.582943
0.582943
0.582947
0.582952
0.582957
0.582961
0.582961
0.582966
0.582971
0.582976
0.58298
0.58298
0.582985
0.58299
0.582995
0.582999
0.582999
0.583004
0.583009
0.583014
0.583019
0.583019
0.583023
0.583028
0.583033
0.583038
0.583038
0.583042
0.583047
0.583052
0.583057
0.583057
0.583062
0.583066
0.583071
0.583076
0.583076
0.583081
0.583086
0.58309
0.583095
0.583095
0.5831
0.583105
0.58311
0.583115
0.583115
0.583119
0.583124
0.583129
0.583134
0.583134
0.583139
0.583144
0.583148
0.583153
0.583153
0.583158
0.583163
0.583168
0.583173
0.583173
0.583178
0.583182
0.583187
0.583192
0.583192
0.583197
0.583202
0.583206
0.583211
0.583211
0.583216
0.583221
0.583225
0.58323
0.58323
0.583235
0.58324
0.583246
0.583251
0.583251
0.583256