<?xml version="1.0"?>
<VTKFile type="UnstructuredGrid" version="0.1" byte_order="LittleEndian">
<UnstructuredGrid>
<Piece NumberOfPoints="5000" NumberOfCells="4000">
<PointData Scalars="Reaction 0">
<DataArray type="Float32" Name="Reaction 0" format="ascii">
0.579069
0.579069
0.579069
0.579069
0.579069
0.579069
0.579069
0.579069
0.579069
0.579069
0.579069
0.579069
0.579069
0.579069
0.579069
0.579069
0.579069
0.579069
0.579069
0.579069
0.579069
0.579069
0.579069
0.579069
0.57907
0.57907
0.57907
0.57907
0.57907
0.57907
0.57907
0.57907
0.57907
0.57907
0.57907
0.57907
0.57907
0.57907
0.57907
0.57907
0.57907
0.57907
0.57907
0.57907
0.57907
0.57907
0.57907
0.57907
0.57907
0.57907
0.57907
0.57907
0.57907
0.57907
0.57907
0.57907
0.579071
0.579071
0.579071
0.579071
0.579071
0.579071
0.579071
0.579071
0.579071
0.579071
0.579071
0.579071
0.579071
0.579071
0.579071
0.579071
0.579071
0.579071
0.579072
0.579072
0.579072
0.579072
0.579072
0.579072
0.579072
0.579072
0.579072
0.579072
0.579072
0.579072
0.579072
0.579072
0.579072
0.579073
0.579073
0.579073
0.579073
0.579073
0.579073
0.579073
0.579073
0.579073
0.579073
0.579073
0.579073
0.579073
0.579074
0.579074
0.579074
0.579074
0.579074
0.579074
0.579074
0.579074
0.579074
0.579074
0.579074
0.579075
0.579075
0.579075
0.579075
0.579075
0.579075
0.579075
0.579075
0.579075
0.579075
0.579076
0.579076
0.579076
0.579076
0.579076
0.579076
0.579076
0.579076
0.579076
0.579076
0.579077
0.579077
0.579077
0.579077
0.579077
0.579077
0.579077
0.579077
0.579077
0.579078
0.579078
0.579078
0.579078
0.579078
0.579078
0.579078
0.579078
0.579078
0.579079
0.579079
0.579079
0.579079
0.579079
0.579079
0.579079
0.57908
0.57908
0.57908
0.57908
0.57908
0.57908
0.57908
0.57908
0.579081
0.579081
0.579081
0.579081
0.579081
0.579081
0.579081
0.579082
0.579082
0.579082
0.579082
0.579082
0.579082
0.579083
0.579083
0.579083
0.579083
0.579083
0.579083
0.579083
0.579084
0.579084
0.579084
0.579084
0.579084
0.579084
0.579084
0.579085
0.579085
0.579085
0.579085
0.579085
0.579085
0.579086
0.579086
0.579086
0.579086
0.579086
0.579087
0.579087
0.579087
0.579087
0.579087
0.579087
0.579087
0.579088
0.579088
0.579088
0.579088
0.579088
0.579088
0.579089
0.579089
0.579089
0.579089
0.579089
0.57909
0.57909
0.57909
0.57909
0.57909
0.579091
0.579091
0.579091
0.579091
0.579091
0.579091
0.579092
0.579092
0.579092
0.579092
0.579092
0.579093
0.579093
0.579093
0.579093
0.579093
0.579094
0.579094
0.579094
0.579094
0.579094
0.579095
0.579095
0.579095
0.579095
0.579095
0.579096
0.579096
0.579096
0.579096
0.579097
0.579097
0.579097
0.579097
0.579097
0.579098
0.579098
0.579098
0.579098
0.579098
0.579099
0.579099
0.579099
0.579099
0.5791
0.5791
0.5791
0.5791
0.5791
0.579101
0.579101
0.579101
0.579102
0.579102
0.579102
0.579102
0.579102
0.579103
0.579103
0.579103
0.579103
0.579104
0.579104
0.579104
0.579104
0.579104
0.579105
0.579105
0.579105
0.579105
0.579106
0.579106
0.579106
0.579106
0.579107
0.579107
0.579107
0.579108
0.579108
0.579108
0.579108
0.579108
0.579109
0.579109
0.579109
0.579109
0.57911
0.57911
0.57911
0.57911
0.579111
0.579111
0.579111
0.579111
0.579112
0.579112
0.579112
0.579113
0.579113
0.579113
0.579113
0.579114
0.579114
0.579114
0.579114
0.579115
0.579115
0.579115
0.579115
0.579116
0.579116
0.579117
0.579117
0.579117
0.579117
0.579118
0.579118
0.579118
0.579118
0.579119
0.579119
0.579119
0.57912
0.57912
0.57912
0.57912
0.579121
0.579121
0.579121
0.579122
0.579122
0.579122
0.579123
0.579123
0.579123
0.579123
0.579124
0.579124
0.579124
0.579125
0.579125
0.579125
0.579126
0.579126
0.579126
0.579126
0.579127
0.579127
0.579127
0.579128
0.579128
0.579128
0.579129
0.579129
0.579129
0.57913
0.57913
0.57913
0.57913
0.579131
0.579131
0.579132
0.579132
0.579132
0.579132
0.579133
0.579133
0.579134
0.579134
0.579134
0.579134
0.579135
0.579135
0.579135
0.579136
0.579136
0.579136
0.579137
0.579137
0.579137
0.579138
0.579138
0.579139
0.579139
0.579139
0.579139
0.57914
0.57914
0.57914
0.579141
0.579141
0.579142
0.579142
0.579142
0.579142
0.579143
0.579143
0.579144
0.579144
0.579144
0.579145
0.579145
0.579146
0.579146
0.579146
0.579146
0.579147
0.579147
0.579147
0.579148
0.579148
0.579149
0.579149
0.579149
0.57915
0.57915
0.579151
0.579151
0.579151
0.579151
0.579152
0.579152
0.579153
0.579153
0.579153
0.579154
0.579154
0.579155
0.579155
0.579155
0.579156
0.579156
0.579157
0.579157
0.579157
0.579158
0.579158
0.579159
0.579159
0.579159
0.57916
0.57916
0.579161
0.579161
0.579161
0.579162
0.579162
0.579162
0.579162
0.579163
0.579163
0.579164
0.579164
0.579164
0.579165
0.579165
0.579166
0.579166
0.579166
0.579167
0.579168
0.579168
0.579169
0.579169
0.579169
0.57917
0.57917
0.579171
0.579171
0.579171
0.579172
0.579172
0.579173
0.579173
0.579173
0.579174
0.579174
0.579175
0.579175
0.579175
0.579176
0.579176
0.579177
0.579177
0.579177
0.579178
0.579178
0.579179
0.579179
0.57918
0.57918
0.579181
0.579181
0.579181
0.579182
0.579182
0.579183
0.579183
0.579183
0.579184
0.579184
0.579185
0.579186
0.579186
0.579186
0.579187
0.579187
0.579188
0.579188
0.579188
0.579189
0.579189
0.57919
0.57919
0.579191
0.579191
0.579192
0.579192
0.579192
0.579193
0.579193
0.579194
0.579195
0.579195
0.579195
0.579196
0.579196
0.579197
0.579197
0.579197
0.579198
0.579199
0.579199
0.579199
0.5792
0.5792
0.579201
0.579202
0.579202
0.579202
0.579203
0.579203
0.579204
0.579204
0.579205
0.579205
0.579206
0.579206
0.579206
0.579207
0.579208
0.579208
0.579209
0.579209
0.579209
0.57921
0.579211
0.579211
0.579211
0.579212
0.579212
0.579213
0.579214
0.579214
0.579214
0.579215
0.579216
0.579216
0.579216
0.579217
0.579217
0.579218
0.579219
0.579219
0.579219
0.57922
0.579221
0.579221
0.579221
0.579222
0.579222
0.579223
0.579224
0.579224
0.579224
0.579225
0.579226
0.579226
0.579226
0.579227
0.579228
0.579228
0.579229
0.579229
0.57923
0.57923
0.579231
0.579232
0.579232
0.579232
0.579233
0.579233
0.579234
0.579234
0.579235
0.579235
0.579236
0.579237
0.579237
0.579237
0.579238
0.579239
0.579239
0.579239
0.57924
0.579241
0.579242
0.579242
0.579242
0.579243
0.579244
0.579244
0.579245
0.579245
0.579246
0.579246
0.579247
0.579248
0.579248
0.579248
0.579249
0.57925
0.57925
0.57925
0.579251
0.579252
0.579253
0.579253
0.579253
0.579254
0.579255
0.579255
0.579256
0.579256
0.579257
0.579257
0.579258
0.579259
0.579259
0.57926
0.57926
0.579261
0.579262
0.579262
0.579262
0.579263
0.579264
0.579265
0.579265
0.579265
0.579266
0.579267
0.579268
0.579268
0.579268
0.579269
0.57927
0.57927
0.57927
0.579271
0.579272
0.579273
0.579273
0.579273
0.579274
0.579275
0.579276
0.579276
0.579276
0.579277
0.579278
0.579279
0.579279
0.579279
0.57928
0.579281
0.579282
0.579282
0.579282
0.579283
0.579284
0.579285
0.579285
0.579285
0.579286
0.579287
0.579288
0.579288
0.579288
0.579289
0.57929
0.579291
0.579292
0.579292
0.579292
0.579293
0.579294
0.579295
0.579295
0.579295
0.579296
0.579297
0.579298
0.579298
0.579299
0.579299
0.5793
0.579301
0.579301
0.579302
0.579303
0.579303
0.579304
0.579304
0.579305
0.579306
0.579307
0.579307
0.579307
0.579308
0.579309
0.57931
0.579311
0.579311
0.579311
0.579312
0.579313
0.579314
0.579314
0.579315
0.579315
0.579316
0.579317
0.579317
0.579318
0.579319
0.57932
0.57932
0.57932
0.579321
0.579322
0.579323
0.579324
0.579324
0.579324
0.579325
0.579326
0.579327
0.579327
0.579328
0.579329
0.579329
0.57933
0.57933
0.579331
0.579332
0.579333
0.579334
0.579334
0.579335
0.579335
0.579336
0.579337
0.579337
0.579338
0.579339
0.57934
0.579341
0.579341
0.579341
0.579342
0.579343
0.579344
0.579344
0.579345
0.579346
0.579347
0.579347
0.579347
0.579348
0.579349
0.57935
0.579351
0.579351
0.579352
0.579353
0.579354
0.579354
0.579354
0.579355
0.579356
0.579357
0.579358
0.579358
0.579359
0.57936
0.579361
0.579362
0.579362
0.579362
0.579363
0.579364
0.579365
0.579365
0.579366
0.579367
0.579368
0.579369
0.579369
0.57937
0.579371
0.579371
0.579372
0.579372
0.579373
0.579374
0.579375
0.579376
0.579376
0.579377
0.579378
0.579379
0.57938
0.57938
0.579381
0.579382
0.579382
0.579383
0.579383
0.579384
0.579385
0.579386
0.579387
0.579387
0.579388
0.579389
0.57939
0.579391
0.579391
0.579392
0.579393
0.579394
0.579395
0.579395
0.579396
0.579397
0.579398
0.579398
0.579398
0.579399
0.5794
0.579401
0.579402
0.579402
0.579403
0.579404
0.579405
0.579406
0.579406
0.579407
0.579408
0.579409
0.57941
0.57941
0.579411
0.579412
0.579413
0.579414
0.579414
0.579415
0.579416
0.579417
0.579418
0.579418
0.579419
0.57942
0.579421
0.579422
0.579422
0.579423
0.579424
0.579425
0.579426
0.579426
0.579427
0.579428
0.579429
0.57943
0.57943
0.579431
0.579432
0.579433
0.579434
0.579434
0.579435
0.579436
0.579437
0.579438
0.579438
0.579439
0.57944
0.579441
0.579442
0.579442
0.579443
0.579444
0.579445
0.579446
0.579446
0.579447
0.579448
0.579449
0.57945
0.57945
0.579451
0.579452
0.579453
0.579454
0.579454
0.579455
0.579456
0.579457
0.579458
0.579458
0.579459
0.57946
0.579461
0.579462
0.579462
0.579463
0.579464
0.579465
0.579467
0.579467
0.579468
0.579469
0.57947
0.579471
0.579471
0.579472
0.579473
0.579474
0.579475
0.579475
0.579476
0.579477
0.579478
0.579479
0.579479
0.57948
0.579481
0.579482
0.579484
0.579484
0.579485
0.579486
0.579487
0.579488
0.579488
0.579489
0.57949
0.579491
0.579492
0.579492
0.579493
0.579494
0.579495
0.579497
0.579497
0.579498
0.579499
0.5795
0.579501
0.579501
0.579502
0.579503
0.579504
0.579505
0.579505
0.579506
0.579508
0.579509
0.57951
0.57951
0.579511
0.579512
0.579513
0.579514
0.579514
0.579515
0.579516
0.579518
0.579519
0.579519
0.57952
0.579521
0.579522
0.579523
0.579523
0.579524
0.579525
0.579527
0.579528
0.579528
0.579529
0.57953
0.579531
0.579532
0.579532
0.579533
0.579535
0.579536
0.579537
0.579537
0.579538
0.579539
0.57954
0.579541
0.579541
0.579543
0.579544
0.579545
0.579546
0.579546
0.579547
0.579548
0.579549
0.579551
0.579551
0.579552
0.579553
0.579554
0.579555
0.579555
0.579557
0.579558
0.579559
0.57956
0.57956
0.579561
0.579562
0.579564
0.579565
0.579565
0.579566
0.579567
0.579568
0.579569
0.579569
0.579571
0.579572
0.579573
0.579574
0.579574
0.579575
0.579577
0.579578
0.579579
0.579579
0.57958
0.579581
0.579583
0.579584
0.579584
0.579585
0.579586
0.579587
0.579589
0.579589
0.57959
0.579591
0.579592
0.579594
0.579594
0.579595
0.579596
0.579597
0.579598
0.579598
0.5796
0.579601
0.579602
0.579603
0.579603
0.579605
0.579606
0.579607
0.579608
0.579608
0.57961
0.579611
0.579612
0.579613
0.579613
0.579615
0.579616
0.579617
0.579618
0.579618
0.57962
0.579621
0.579622
0.579623
0.579623
0.579625
0.579626
0.579627
0.579628
0.579628
0.57963
0.579631
0.579632
0.579633
0.579633
0.579635
0.579636
0.579637
0.579639
0.579639
0.57964
0.579641
0.579642
0.579644
0.579644
0.579645
0.579646
0.579647
0.579649
0.579649
0.57965
0.579651
0.579653
0.579654
0.579654
0.579655
0.579657
0.579658
0.579659
0.579659
0.57966
0.579662
0.579663
0.579664
0.579664
0.579666
0.579667
0.579668
0.57967
0.57967
0.579671
0.579672
0.579674
0.579675
0.579675
0.579676
0.579678
0.579679
0.57968
0.57968
0.579682
0.579683
0.579684
0.579685
0.579685
0.579687
0.579688
0.57969
0.579691
0.579691
0.579692
0.579694
0.579695
0.579696
0.579696
0.579698
0.579699
0.5797
0.579702
0.579702
0.579703
0.579704
0.579706
0.579707
0.579707
0.579708
0.57971
0.579711
0.579712
0.579712
0.579714
0.579715
0.579717
0.579718
0.579718
0.579719
0.579721
0.579722
0.579723
0.579723
0.579725
0.579726
0.579728
0.579729
0.579729
0.57973
0.579732
0.579733
0.579735
0.579735
0.579736
0.579737
0.579739
0.57974
0.57974
0.579742
0.579743
0.579744
0.579746
0.579746
0.579747
0.579749
0.57975
0.579751
0.579751
0.579753
0.579754
0.579756
0.579757
0.579757
0.579758
0.57976
0.579761
0.579763
0.579763
0.579764
0.579766
0.579767
0.579768
0.579768
0.57977
0.579771
0.579773
0.579774
0.579774
0.579776
0.579777
0.579778
0.57978
0.57978
0.579781
0.579783
0.579784
0.579786
0.579786
0.579787
0.579789
0.57979
0.579792
0.579792
0.579793
0.579794
0.579796
0.579797
0.579797
0.579799
0.5798
0.579802
0.579803
0.579803
0.579805
0.579806
0.579808
0.579809
0.579809
0.579811
0.579812
0.579814
0.579815
0.579815
0.579817
0.579818
0.57982
0.579821
0.579821
0.579822
0.579824
0.579825
0.579827
0.579827
0.579828
0.57983
0.579831
0.579833
0.579833
0.579834
0.579836
0.579838
0.579839
0.579839
0.579841
0.579842
0.579844
0.579845
0.579845
0.579847
0.579848
0.57985
0.579851
0.579851
0.579853
0.579854
0.579856
0.579857
0.579857
0.579859
0.57986
0.579862
0.579863
0.579863
0.579865
0.579866
0.579868
0.57987
0.57987
0.579871
0.579873
0.579874
0.579876
0.579876
0.579877
0.579879
0.57988
0.579882
0.579882
0.579884
0.579885
0.579887
0.579888
0.579888
0.57989
0.579891
0.579893
0.579894
0.579894
0.579896
0.579898
0.579899
0.579901
0.579901
0.579902
0.579904
0.579906
0.579907
0.579907
0.579909
0.57991
0.579912
0.579913
0.579913
0.579915
0.579917
0.579918
0.57992
0.57992
0.579921
0.579923
0.579925
0.579926
0.579926
0.579928
0.579929
0.579931
0.579933
0.579933
0.579934
0.579936
0.579938
0.579939
0.579939
0.579941
0.579942
0.579944
0.579946
0.579946
0.579947
0.579949
0.579951
0.579952
0.579952
0.579954
0.579955
0.579957
0.579959
0.579959
0.57996
0.579962
0.579964
0.579965
0.579965
0.579967
0.579969
0.57997
0.579972
0.579972
0.579974
0.579975
0.579977
0.579978
0.579978
0.57998
0.579982
0.579983
0.579985
0.579985
0.579987
0.579988
0.57999
0.579992
0.579992
0.579993
0.579995
0.579997
0.579999
0.579999
0.58
0.580002
0.580004
0.580005
0.580005
0.580007
0.580009
0.58001
0.580012
0.580012
0.580014
0.580015
0.580017
0.580019
0.580019
0.580021
0.580022
0.580024
0.580026
0.580026
0.580027
0.580029
0.580031
0.580032
0.580032
0.580034
0.580036
0.580038
0.580039
0.580039
0.580041
0.580043
0.580045
0.580046
0.580046
0.580048
0.58005
0.580051
0.580053
0.580053
0.580055
0.580057
0.580058
0.58006
0.58006
0.580062
0.580064
0.580065
0.580067
0.580067
0.580069
0.580071
0.580072
0.580074
0.580074
0.580076
0.580078
0.580079
0.580081
0.580081
0.580083
0.580085
0.580087
0.580088
0.580088
0.58009
0.580092
0.580094
0.580095
0.580095
0.580097
0.580099
0.580101
0.580103
0.580103
0.580104
0.580106
0.580108
0.58011
0.58011
0.580112
0.580113
0.580115
0.580117
0.580117
0.580119
0.580121
0.580122
0.580124
0.580124
0.580126
0.580128
0.58013
0.580131
0.580131
0.580133
0.580135
0.580137
0.580139
0.580139
0.58014
0.580142
0.580144
0.580146
0.580146
0.580148
0.58015
0.580151
0.580153
0.580153
0.580155
0.580157
0.580159
0.580161
0.580161
0.580163
0.580164
0.580166
0.580168
0.580168
0.58017
0.580172
0.580174
0.580175
0.580175
0.580177
0.580179
0.580181
0.580183
0.580183
0.580185
0.580187
0.580189
0.58019
0.58019
0.580192
0.580194
0.580196
0.580198
0.580198
0.5802
0.580202
0.580204
0.580205
0.580205
0.580207
0.580209
0.580211
0.580213
0.580213
0.580215
0.580217
0.580219
0.580221
0.580221
0.580223
0.580224
0.580226
0.580228
0.580228
0.58023
0.580232
0.580234
0.580236
0.580236
0.580238
0.58024
0.580242
0.580244
0.580244
0.580246
0.580247
0.580249
0.580251
0.580251
0.580253
0.580255
0.580257
0.580259
0.580259
0.580261
0.580263
0.580265
0.580267
0.580267
0.580269
0.580271
0.580273
0.580275
0.580275
0.580277
0.580279
0.580281
0.580283
0.580283
0.580284
0.580286
0.580288
0.58029
0.58029
0.580292
0.580294
0.580296
0.580298
0.580298
0.5803
0.580302
0.580304
0.580306
0.580306
0.580308
0.58031
0.580312
0.580314
0.580314
0.580316
0.580318
0.58032
0.580322
0.580322
0.580324
0.580326
0.580328
0.58033
0.58033
0.580332
0.580334
0.580336
0.580338
0.580338
0.58034
0.580342
0.580344
0.580346
0.580346
0.580348
0.58035
0.580352
0.580354
0.580354
0.580356
0.580358
0.58036
0.580363
0.580363
0.580365
0.580367
0.580369
0.580371
0.580371
0.580373
0.580375
0.580377
0.580379
0.580379
0.580381
0.580383
0.580385
0.580387
0.580387
0.580389
0.580391
0.580393
0.580395
0.580395
0.580397
0.5804
0.580402
0.580404
0.580404
0.580406
0.580408
0.58041
0.580412
0.580412
0.580414
0.580416
0.580418
0.58042
0.58042
0.580422
0.580425
0.580427
0.580429
0.580429
0.580431
0.580433
0.580435
0.580437
0.580437
0.580439
0.580441
0.580443
0.580446
0.580446
0.580448
0.58045
0.580452
0.580454
0.580454
0.580456
0.580458
0.58046
0.580463
0.580463
0.580465
0.580467
0.580469
0.580471
0.580471
0.580473
0.580475
0.580478
0.58048
0.58048
0.580482
0.580484
0.580486
0.580488
0.580488
0.58049
0.580493
0.580495
0.580497
0.580497
0.580499
0.580501
0.580503
0.580506
0.580506
0.580508
0.58051
0.580512
0.580514
0.580514
0.580516
0.580519
0.580521
0.580523
0.580523
0.580525
0.580527
0.58053
0.580532
0.580532
0.580534
0.580536
0.580538
0.580541
0.580541
0.580543
0.580545
0.580547
0.580549
0.580549
0.580552
0.580554
0.580556
0.580558
0.580558
0.58056
0.580563
0.580565
0.580567
0.580567
0.580569
0.580572
0.580574
0.580576
0.580576
0.580578
0.580581
0.580583
0.580585
0.580585
0.580587
0.580589
0.580592
0.580594
0.580594
0.580596
0.580598
0.580601
0.580603
0.580603
0.580605
0.580607
0.580609
0.580612
0.580612
0.580614
0.580616
0.580618
0.580621
0.580621
0.580623
0.580626
0.580628
0.58063
0.58063
0.580632
0.580635
0.580637
0.580639
0.580639
0.580642
0.580644
0.580646
0.580649
0.580649
0.580651
0.580653
0.580655
0.580658
0.580658
0.58066
0.580662
0.580665
0.580667
0.580667
0.580669
0.580672
0.580674
0.580676
0.580676
0.580679
0.580681
0.580683
0.580686
0.580686
0.580688
0.58069
0.580693
0.580695
0.580695
0.580697
0.5807
0.580702
0.580704
0.580704
0.580707
0.580709
0.580711
0.580714
0.580714
0.580716
0.580718
0.580721
0.580723
0.580723
0.580725
0.580728
0.58073
0.580733
0.580733
0.580735
0.580737
0.58074
0.580742
0.580742
0.580744
0.580747
0.580749
0.580752
0.580752
0.580754
0.580756
0.580759
0.580761
0.580761
0.580764
0.580766
0.580768
0.580771
0.580771
0.580773
0.580776
0.580778
0.58078
0.58078
0.580783
0.580785
0.580788
0.58079
0.58079
0.580792
0.580795
0.580797
0.5808
0.5808
0.580802
0.580805
0.580807
0.580809
0.580809
0.580812
0.580814
0.580817
0.580819
0.580819
0.580822
0.580824
0.580827
0.580829
0.580829
0.580832
0.580834
0.580836
0.580839
0.580839
0.580841
0.580844
0.580846
0.580849
0.580849
0.580851
0.580854
0.580856
0.580859
0.580859
0.580861
0.580864
0.580866
0.580869
0.580869
0.580871
0.580874
0.580876
0.580879
0.580879
0.580881
0.580884
0.580886
0.580889
0.580889
0.580891
0.580894
0.580896
0.580899
0.580899
0.580901
0.580904
0.580906
0.580909
0.580909
0.580911
0.580914
0.580916
0.580919
0.580919
0.580921
0.580924
0.580926
0.580929
0.580929
0.580931
0.580934
0.580937
0.580939
0.580939
0.580942
0.580944
0.580947
0.580949
0.580949
0.580952
0.580954
0.580957
0.58096
0.58096
0.580962
0.580965
0.580967
0.58097
0.58097
0.580972
0.580975
0.580978
0.58098
0.58098
0.580983
0.580985
0.580988
0.58099
0.58099
0.580993
0.580996
0.580998
0.581001
0.581001
0.581003
0.581006
0.581009
0.581011
0.581011
0.581014
0.581017
0.581019
0.581022
0.581022
0.581024
0.581027
0.58103
0.581032
0.581032
0.581035
0.581037
0.58104
0.581043
0.581043
0.581045
0.581048
0.581051
0.581053
0.581053
0.581056
0.581059
0.581061
0.581064
0.581064
0.581067
0.581069
0.581072
0.581075
0.581075
0.581077
0.58108
0.581083
0.581085
0.581085
0.581088
0.581091
0.581093
0.581096
0.581096
0.581099
0.581101
0.581104
0.581107
0.581107
0.581109
0.581112
0.581115
0.581117
0.581117
0.58112
0.581123
0.581125
0.581128
0.581128
0.581131
0.581134
0.581136
0.581139
0.581139
0.581142
0.581144
0.581147
0.58115
0.58115
0.581153
0.581155
0.581158
0.581161
0.581161
0.581164
0.581166
0.581169
0.581172
0.581172
0.581174
0.581177
0.58118
0.581183
0.581183
0.581185
0.581188
0.581191
0.581194
0.581194
0.581197
0.581199
0.581202
0.581205
0.581205
0.581208
0.58121
0.581213
0.581216
0.581216
0.581219
0.581221
0.581224
0.581227
0.581227
0.58123
0.581233
0.581235
0.581238
0.581238
0.581241
0.581244
0.581247
0.581249
0.581249
0.581252
0.581255
0.581258
0.581261
0.581261
0.581263
0.581266
0.581269
0.581272
0.581272
0.581275
0.581278
0.58128
0.581283
0.581283
0.581286
0.581289
0.581292
0.581295
0.581295
0.581297
0.5813
0.581303
0.581306
0.581306
0.581309
0.581312
0.581315
0.581317
0.581317
0.58132
0.581323
0.581326
0.581329
0.581329
0.581332
0.581335
0.581337
0.58134
0.58134
0.581343
0.581346
0.581349
0.581352
0.581352
0.581355
0.581358
0.581361
0.581363
0.581363
0.581366
0.581369
0.581372
0.581375
0.581375
0.581378
0.581381
0.581384
0.581387
0.581387
0.58139
0.581393
0.581395
0.581398
0.581398
0.581401
0.581404
0.581407
0.58141
0.58141
0.581413
0.581416
0.581419
0.581422
0.581422
0.581425
0.581428
0.581431
0.581434
0.581434
0.581437
0.58144
0.581442
0.581445
0.581445
0.581448
0.581451
0.581454
0.581457
0.581457
0.58146
0.581463
0.581466
0.581469
0.581469
0.581472
0.581475
0.581478
0.581481
0.581481
0.581484
0.581487
0.58149
0.581493
0.581493
0.581496
0.581499
0.581502
0.581505
0.581505
0.581508
0.581511
0.581514
0.581517
0.581517
0.58152
0.581523
0.581526
0.581529
0.581529
0.581532
0.581535
0.581538
0.581541
0.581541
0.581545
0.581548
0.581551
0.581554
0.581554
0.581557
0.58156
0.581563
0.581566
0.581566
0.581569
0.581572
0.581575
0.581578
0.581578
0.581581
0.581584
0.581587
0.58159
0.58159
0.581593
0.581597
0.5816
0.581603
0.581603
0.581606
0.581609
0.581612
0.581615
0.581615
0.581618
0.581621
0.581624
0.581628
0.581628
0.581631
0.581634
0.581637
0.58164
0.58164
0.581643
0.581646
0.581649
0.581652
0.581652
0.581656
0.581659
0.581662
0.581665
0.581665
0.581668
0.581671
0.581674
0.581678
0.581678
0.581681
0.581684
0.581687
0.58169
0.58169
0.581693
0.581696
0.5817
0.581703
0.581703
0.581706
0.581709
0.581712
0.581715
0.581715
0.581719
0.581722
0.581725
0.581728
0.581728
0.581731
0.581735
0.581738
0.581741
0.581741
0.581744
0.581747
0.581751
0.581754
0.581754
0.581757
0.58176
0.581763
0.581767
0.581767
0.58177
0.581773
0.581776
0.581779
0.581779
0.581783
0.581786
0.581789
0.581792
0.581792
0.581796
0.581799
0.581802
0.581805
0.581805
0.581809
0.581812
0.581815
0.581818
0.581818
0.581822
0.581825
0.581828
0.581831
0.581831
0.581835
0.581838
0.581841
0.581844
0.581844
0.581848
0.581851
0.581854
0.581858
0.581858
0.581861
0.581864
0.581867
0.581871
0.581871
0.581874
0.581877
0.581881
0.581884
0.581884
0.581887
0.581891
0.581894
0.581897
0.581897
0.581901
0.581904
0.581907
0.58191
0.58191
0.581914
0.581917
0.58192
0.581924
0.581924
0.581927
0.58193
0.581933
0.581936
0.581936
0.58194
0.581943
0.581947
0.58195
0.58195
0.581954
0.581957
0.581961
0.581964
0.581964
0.581967
0.581971
0.581974
0.581978
0.581978
0.581981
0.581984
0.581988
0.581991
0.581991
0.581994
0.581998
0.582001
0.582005
0.582005
0.582008
0.582011
0.582015
0.582018
0.582018
0.582022
0.582025
0.582028
0.582032
0.582032
0.582035
0.582039
0.582042
0.582046
0.582046
0.582049
0.582052
0.582056
0.582059
0.582059
0.582063
0.582066
0.58207
0.582073
0.582073
0.582077
0.58208
0.582084
0.582087
0.582087
0.58209
0.582094
0.582097
0.582101
0.582101
0.582104
0.582108
0.582111
0.582115
0.582115
0.582118
0.582122
0.582125
0.582129
0.582129
0.582132
0.582136
0.582139
0.582143
0.582143
0.582146
0.58215
0.582153
0.582157
0.582157
0.58216
0.582164
0.582167
0.582171
0.582171
0.582174
0.582178
0.582181
0.582185
0.582185
0.582188
0.582192
0.582196
0.582199
0.582199
0.582203
0.582206
0.58221
0.582213
0.582213
0.582217
0.58222
0.582224
0.582228
0.582228
0.582231
0.582235
0.582238
0.582242
0.582242
0.582245
0.582249
0.582253
0.582256
0.582256
0.58226
0.582263
0.582267
0.582271
0.582271
0.582274
0.582278
0.582281
0.582285
0.582285
0.582289
0.582292
0.582296
0.582299
0.582299
0.582303
0.582307
0.58231
0.582314
0.582314
0.582318
0.582321
0.582325
0.582329
0.582329
0.582332
0.582336
0.582339
0.582343
0.582343
0.582347
0.58235
0.582354
0.582358
0.582358
0.582361
0.582365
0.582369
0.582372
0.582372
0.582376
0.58238
0.582383
0.582387
0.582387
0.582391
0.582395
0.582398
0.582402
0.582402
0.582406
0.582409
0.582413
0.582417
0.582417
0.58242
0.582424
0.582428
0.582432
0.582432
0.582435
0.582439
0.582443
0.582447
0.582447
0.58245
0.582454
0.582458
0.582461
0.582461
0.582465
0.582469
0.582473
0.582476
0.582476
0.58248
0.582484
0.582488
0.582492
0.582492
0.582495
0.582499
0.582503
0.582507
0.582507
0.58251
0.582514
0.582518
0.582522
0.582522
0.582526
0.582529
0.582533
0.582537
0.582537
0.582541
0.582545
0.582548
0.582552
0.582552
0.582556
0.58256
0.582564
0.582567
0.582567
0.582571
0.582575
0.582579
0.582583
0.582583
0.582587
0.58259
0.582594
0.582598
0.582598
0.582602
0.582606
0.58261
0.582613
0.582613
0.582617
0.582621
0.582625
0.582629
0.582629
0.582633
0.582637
0.582641
0.582644
0.582644
0.582648
0.582652
0.582656
0.58266
0.58266
0.582664
0.582668
0.582672
0.582676
0.582676
0.582679
0.582683
0.582687
0.582691
0.582691
0.582695
0.582699
0.582703
0.582707
0.582707
0.582711
0.582715
0.582719
0.582723
0.582723
0.582726
0.58273
0.582734
0.582738
0.582738
0.582742
0.582746
0.58275
0.582754
0.582754
0.582758
0.582762
0.582766
0.58277
0.58277
0.582774
0.582778
0.582782
0.582786
0.582786
0.58279
0.582794
0.582798
0.582802
0.582802
0.582806
0.58281
0.582814
0.582818
0.582818
0.582822
0.582826
0.58283
0.582834
0.582834
0.582838
0.582842
0.582846
0.58285
0.58285
0.582854
0.582858
0.582862
0.582866
0.582866
0.58287
0.582874
0.582878
0.582882
0.582882
0.582886
0.58289
0.582895
0.582899
0.582899
0.582903
0.582907
0.582911
0.582915
0.582915
0.582919
0.582923
0.582927
0.582931
0.582931
0.582935
0.582939
0.582944
0.582948
0.582948
0.582952
0.582956
0.58296
0.582964
0.582964
0.582968
0.582972
0.582976
0.582981
0.582981
0.582985
0.582989
0.582993
0.582997
0.582997
0.583001
0.583005
0.583009
0.583014
0.583014
0.583018
0.583022
0.583026
0.58303
0.58303
0.583034
0.583039
0.583043
0.583047
0.583047
0.583051
0.583055
0.583059
0.583064
0.583064
0.583068
0.583072
0.583076
0.58308
0.58308
0.583085
0.583089
0.583093
0.583097
0.583097
0.583101
0.583106
0.58311
0.583114
0.583114
0.583118
0.583123
0.583127
0.583131
0.583131
0.583135
0.58314
0.583144
0.583148
0.583148
0.583152
0.583157
0.583161
0.583165
0.583165
0.583169
0.583174
0.583178
0.583182
0.583182
0.583186
0.583191
0.583195
0.583199
0.583199
0.583203
0.583208
0.583212
0.583216
0.583216
0.583221
0.583225
0.583229
0.583234
0.583234
0.583238
0.583242
0.583247
0.583251
0.583251
0.583255
0.583259
0.583264
0.583268
0.583268
0.583272
0.583277
0.583281
0.583286
0.583286
0.58329
0.583294
0.583299
0.583303
0.583303
0.583307
0.583312
0.583316
0.58332
0.58332
0.583325
0.583329
0.583334
0.583338
0.583338
0.583342
0.583347
0.583351
0.583355
0.583355
0.58336
0.583364
0.583369
0.583373
0.583373
0.583377
0.583382
0.583386
0.583391
0.583391
0.583395
0.5834
0.583404
0.583408
0.583408
0.583413
0.583417
0.583421
0.583425
0.583425
0.58343
0.583434
0.583439
0.583444
0.583444
0.583448
0.583453
0.583457
0.583462
0.583462
0.583466
0.583471
0.583475
0.58348
0.58348
0.583484
0.583489
0.583493
0.583498
0.583498
0.583502
0.583507
0.583511
0.583516
0.583516
0.58352
0.583525
0.583529
0.583534
0.583534
0.583538
0.583543
0.583548
0.583552
0.583552
0.583557
0.583561
0.583566
0.58357
0.58357
0.583575
0.583579
0.583584
0.583589
0.583589
0.583593
0.583598
0.583602
0.583607
0.583607
0.583611
0.583616
0.583621
0.583625
0.583625
0.58363
0.583634
0.583639
0.583644
0.583644
0.583648
0.583653
0.583657
0.583662
0.583662
0.583667
0.583671
0.583676
0.58368
0.58368
0.583685
0.58369
0.583694
0.583699
0.583699
0.583704
0.583708
0.583713
0.583718
0.583718
0.583722
0.583727
0.583732
0.583736
0.583736
0.583741
0.583746
0.58375
0.583755
0.583755
0.58376
0.583764
0.583769
0.583774
0.583774
0.583778
0.583783
0.583788
0.583793
0.583793
0.583797
0.583802
0.583807
0.583811
0.583811
0.583816
0.583821
0.583826
0.58383
0.58383
0.583835
0.58384
0.583845
0.583849
0.583849
0.583854
0.583859
0.583864
0.583868
0.583868
0.583873
0.583878
0.583883
0.583888
0.583888
0.583892
0.583897
0.583902
0.583907
0.583907
0.583911
0.583916
0.583921
0.583926
0.583926
0.583931
0.583936
0.58394
0.583945
0.583945
0.58395
0.583955
0.58396
0.583964
0.583964
0.583969
0.583974
0.583979
0.583984
0.583984
0.583989
0.583994
0.583998
0.584003
0.584003
0.584008
0.584013
0.584018
0.584023
0.584023
0.584028
0.584032
0.584037
0.584042
0.584042
0.584047
0.584052
0.584057
0.584062
0.584062
0.584067
0.584072
0.584077
0.584081
0.584081
0.584086
0.584091
0.584096
0.584101
0.584101
0.584106
0.584111
0.584116
0.584121
0.584121
0.584126
0.584131
0.584136
0.584141
0.584141
0.584146
0.584151
0.584156
0.584161
0.584161
0.584166
0.584171
0.584176
0.584181
0.584181
0.584186
0.584191
0.584196
0.584201
0.584201
0.584206
0.584211
0.584216
0.584221
0.584221
0.584226
0.584231
0.584236
0.584241
0.584241
0.584246
0.584251
0.584256
0.584261
0.584261
0.584266
0.584271
0.584276
0.584281
0.584281
0.584286
0.584291
0.584296
0.584301
0.584301
0.584306
0.584311
0.584317
0.584322
0.584322
0.584327
0.584332
0.584337
0.584342
0.584342
0.584347
0.584352
0.584357
0.584362
0.584362
0.584368
0.584373
0.584378
0.584383
0.584383
0.584388
0.584393
0.584398
0.584403
0.584403
0.584409
0.584414
0.584419
0.584424
0.584424
0.584429
0.584434
0.58444
0.584445
0.584445
0.58445
0.584455
0.58446
0.584465
0.584465
0.584471
0.584476
0.584481
0.584486
0.584486
0.584491
0.584497
0.584502
0.584507
0.584507
0.584512
0.584518
0.584523
0.584528
0.584528
0.584533
0.584538
0.584544
0.584549
0.584549
0.584554
0.584559
0.584565
0.58457
0.58457
0.584575
0.584581
0.584586
0.584591
0.584591
0.584596
0.584602
0.584607
0.584612
0.584612
0.584618
0.584623
0.584628
0.584633
0.584633
0.584639
0.584644
0.584649
0.584655
0.584655
0.58466
0.584665
0.584671
0.584676
0.584676
0.584681
0.584687
0.584692
0.584697
0.584697
0.584703
0.584708
0.584713
0.584719
0.584719
0.584724
0.58473
0.584735
0.58474
0.58474
0.584746
0.584751
0.584757
0.584762
0.584762
0.584767
0.584773
0.584778
0.584784
0.584784
0.584789
0.584794
0.5848
0.584805
0.584805
0.584811
0.584816
0.584822
0.584827
0.584827
0.584832
0.584838
0.584843
0.584849
0.584849
0.584854
0.58486
0.584865
0.584871
0.584871
0.584876
0.584882
0.584887
0.584893
0.584893
0.584898
0.584904
0.584909
0.584915
0.584915
0.58492
0.584926
0.584931
0.584937
0.584937
0.584942
0.584948
0.584953
0.584959
0.584959
0.584964
0.58497
0.584975
0.584981
0.584981
0.584987
0.584992
0.584998
0.585003
0.585003
0.585009
0.585014
0.58502
0.585025
0.585025
0.585031
0.585037
0.585042
0.585048
0.585048
0.585053
0.585059
0.585064
0.58507
0.58507
0.585075
0.585081
0.585086
0.585092
0.585092
0.585098
0.585103
0.585109
0.585115