<?xml version="1.0"?>
<VTKFile type="UnstructuredGrid" version="0.1" byte_order="LittleEndian">
<UnstructuredGrid>
<Piece NumberOfPoints="5000" NumberOfCells="4000">
<PointData Scalars="Reaction 0">
<DataArray type="Float32" Name="Reaction 0" format="ascii">
0.579959
0.579959
0.579959
0.579959
0.579959
0.579959
0.579959
0.579959
0.579959
0.579959
0.579959
0.579959
0.579959
0.579959
0.579959
0.579959
0.579959
0.579959
0.579959
0.579959
0.579959
0.579959
0.579959
0.579959
0.579959
0.579959
0.579959
0.579959
0.579959
0.579959
0.579959
0.579959
0.579959
0.579959
0.579959
0.579959
0.579959
0.579959
0.579959
0.579959
0.579959
0.579959
0.579959
0.579959
0.57996
0.57996
0.57996
0.57996
0.57996
0.57996
0.57996
0.57996
0.57996
0.57996
0.57996
0.57996
0.57996
0.57996
0.57996
0.57996
0.57996
0.57996
0.57996
0.57996
0.579961
0.579961
0.579961
0.579961
0.579961
0.579961
0.579961
0.579961
0.579961
0.579961
0.579961
0.579961
0.579961
0.579961
0.579961
0.579961
0.579961
0.579962
0.579962
0.579962
0.579962
0.579962
0.579962
0.579962
0.579962
0.579962
0.579962
0.579962
0.579962
0.579963
0.579963
0.579963
0.579963
0.579963
0.579963
0.579963
0.579963
0.579963
0.579963
0.579963
0.579964
0.579964
0.579964
0.579964
0.579964
0.579964
0.579964
0.579964
0.579964
0.579964
0.579965
0.579965
0.579965
0.579965
0.579965
0.579965
0.579965
0.579965
0.579965
0.579965
0.579966
0.579966
0.579966
0.579966
0.579966
0.579966
0.579966
0.579966
0.579966
0.579967
0.579967
0.579967
0.579967
0.579967
0.579967
0.579967
0.579967
0.579968
0.579968
0.579968
0.579968
0.579968
0.579968
0.579968
0.579968
0.579969
0.579969
0.579969
0.579969
0.579969
0.579969
0.579969
0.57997
0.57997
0.57997
0.57997
0.57997
0.57997
0.57997
0.579971
0.579971
0.579971
0.579971
0.579971
0.579971
0.579971
0.579971
0.579972
0.579972
0.579972
0.579972
0.579972
0.579972
0.579973
0.579973
0.579973
0.579973
0.579973
0.579973
0.579974
0.579974
0.579974
0.579974
0.579974
0.579974
0.579975
0.579975
0.579975
0.579975
0.579975
0.579976
0.579976
0.579976
0.579976
0.579976
0.579976
0.579976
0.579977
0.579977
0.579977
0.579977
0.579977
0.579978
0.579978
0.579978
0.579978
0.579978
0.579978
0.579979
0.579979
0.579979
0.579979
0.579979
0.57998
0.57998
0.57998
0.57998
0.57998
0.579981
0.579981
0.579981
0.579981
0.579981
0.579982
0.579982
0.579982
0.579982
0.579982
0.579983
0.579983
0.579983
0.579983
0.579983
0.579984
0.579984
0.579984
0.579984
0.579985
0.579985
0.579985
0.579985
0.579985
0.579986
0.579986
0.579986
0.579986
0.579986
0.579987
0.579987
0.579987
0.579988
0.579988
0.579988
0.579988
0.579988
0.579989
0.579989
0.579989
0.579989
0.57999
0.57999
0.57999
0.57999
0.57999
0.579991
0.579991
0.579991
0.579991
0.579992
0.579992
0.579992
0.579992
0.579993
0.579993
0.579993
0.579994
0.579994
0.579994
0.579994
0.579994
0.579995
0.579995
0.579995
0.579995
0.579996
0.579996
0.579996
0.579996
0.579997
0.579997
0.579997
0.579997
0.579998
0.579998
0.579998
0.579999
0.579999
0.579999
0.579999
0.58
0.58
0.58
0.58
0.580001
0.580001
0.580001
0.580001
0.580002
0.580002
0.580002
0.580003
0.580003
0.580003
0.580004
0.580004
0.580004
0.580004
0.580005
0.580005
0.580005
0.580006
0.580006
0.580006
0.580006
0.580007
0.580007
0.580007
0.580008
0.580008
0.580008
0.580009
0.580009
0.580009
0.580009
0.58001
0.58001
0.58001
0.580011
0.580011
0.580011
0.580012
0.580012
0.580012
0.580012
0.580013
0.580013
0.580013
0.580014
0.580014
0.580014
0.580015
0.580015
0.580015
0.580016
0.580016
0.580016
0.580016
0.580017
0.580017
0.580018
0.580018
0.580018
0.580018
0.580019
0.580019
0.58002
0.58002
0.58002
0.58002
0.580021
0.580021
0.580021
0.580022
0.580022
0.580023
0.580023
0.580023
0.580023
0.580024
0.580024
0.580025
0.580025
0.580025
0.580026
0.580026
0.580026
0.580026
0.580027
0.580027
0.580028
0.580028
0.580028
0.580029
0.580029
0.58003
0.58003
0.58003
0.58003
0.580031
0.580031
0.580032
0.580032
0.580032
0.580033
0.580033
0.580034
0.580034
0.580034
0.580035
0.580035
0.580035
0.580035
0.580036
0.580036
0.580037
0.580037
0.580037
0.580038
0.580038
0.580039
0.580039
0.580039
0.58004
0.58004
0.580041
0.580041
0.580041
0.580042
0.580042
0.580043
0.580043
0.580043
0.580044
0.580044
0.580045
0.580045
0.580045
0.580046
0.580046
0.580047
0.580047
0.580047
0.580048
0.580048
0.580049
0.580049
0.580049
0.58005
0.58005
0.580051
0.580051
0.580051
0.580052
0.580052
0.580053
0.580053
0.580053
0.580054
0.580054
0.580055
0.580055
0.580055
0.580056
0.580056
0.580057
0.580057
0.580057
0.580058
0.580058
0.580059
0.580059
0.580059
0.58006
0.58006
0.580061
0.580062
0.580062
0.580062
0.580063
0.580063
0.580064
0.580064
0.580064
0.580065
0.580065
0.580066
0.580066
0.580066
0.580067
0.580068
0.580068
0.580068
0.580069
0.580069
0.58007
0.58007
0.58007
0.580071
0.580072
0.580072
0.580073
0.580073
0.580073
0.580074
0.580074
0.580075
0.580075
0.580075
0.580076
0.580077
0.580077
0.580077
0.580078
0.580078
0.580079
0.58008
0.58008
0.58008
0.580081
0.580081
0.580082
0.580082
0.580082
0.580083
0.580084
0.580084
0.580084
0.580085
0.580085
0.580086
0.580087
0.580087
0.580087
0.580088
0.580088
0.580089
0.580089
0.58009
0.58009
0.580091
0.580092
0.580092
0.580092
0.580093
0.580093
0.580094
0.580094
0.580095
0.580095
0.580096
0.580096
0.580096
0.580097
0.580098
0.580098
0.580099
0.580099
0.5801
0.5801
0.580101
0.580102
0.580102
0.580102
0.580103
0.580103
0.580104
0.580104
0.580105
0.580105
0.580106
0.580107
0.580107
0.580107
0.580108
0.580109
0.580109
0.580109
0.58011
0.580111
0.580111
0.580112
0.580112
0.580113
0.580113
0.580114
0.580115
0.580115
0.580115
0.580116
0.580117
0.580117
0.580117
0.580118
0.580119
0.580119
0.58012
0.58012
0.580121
0.580121
0.580122
0.580123
0.580123
0.580123
0.580124
0.580125
0.580125
0.580125
0.580126
0.580127
0.580127
0.580128
0.580128
0.580129
0.58013
0.58013
0.580131
0.580131
0.580132
0.580132
0.580133
0.580134
0.580134
0.580135
0.580135
0.580136
0.580137
0.580137
0.580137
0.580138
0.580139
0.58014
0.58014
0.58014
0.580141
0.580142
0.580142
0.580142
0.580143
0.580144
0.580145
0.580145
0.580145
0.580146
0.580147
0.580147
0.580148
0.580148
0.580149
0.58015
0.58015
0.580151
0.580151
0.580152
0.580153
0.580153
0.580154
0.580154
0.580155
0.580156
0.580156
0.580157
0.580157
0.580158
0.580159
0.580159
0.58016
0.58016
0.580161
0.580162
0.580162
0.580163
0.580163
0.580164
0.580165
0.580166
0.580166
0.580166
0.580167
0.580168
0.580169
0.580169
0.580169
0.58017
0.580171
0.580172
0.580173
0.580173
0.580173
0.580174
0.580175
0.580176
0.580176
0.580176
0.580177
0.580178
0.580179
0.580179
0.58018
0.58018
0.580181
0.580182
0.580182
0.580183
0.580184
0.580184
0.580185
0.580185
0.580186
0.580187
0.580188
0.580189
0.580189
0.580189
0.58019
0.580191
0.580192
0.580192
0.580193
0.580193
0.580194
0.580195
0.580195
0.580196
0.580197
0.580198
0.580198
0.580198
0.580199
0.5802
0.580201
0.580202
0.580202
0.580203
0.580203
0.580204
0.580205
0.580205
0.580206
0.580207
0.580208
0.580208
0.580208
0.580209
0.58021
0.580211
0.580212
0.580212
0.580213
0.580214
0.580214
0.580215
0.580215
0.580216
0.580217
0.580218
0.580219
0.580219
0.58022
0.580221
0.580221
0.580222
0.580222
0.580223
0.580224
0.580225
0.580226
0.580226
0.580227
0.580228
0.580228
0.580229
0.580229
0.58023
0.580231
0.580232
0.580233
0.580233
0.580234
0.580235
0.580236
0.580236
0.580236
0.580237
0.580238
0.580239
0.58024
0.58024
0.580241
0.580242
0.580243
0.580244
0.580244
0.580245
0.580245
0.580246
0.580247
0.580247
0.580248
0.580249
0.58025
0.580251
0.580251
0.580252
0.580253
0.580254
0.580255
0.580255
0.580256
0.580257
0.580257
0.580258
0.580258
0.580259
0.58026
0.580261
0.580262
0.580262
0.580263
0.580264
0.580265
0.580266
0.580266
0.580267
0.580268
0.580269
0.58027
0.58027
0.580271
0.580272
0.580273
0.580274
0.580274
0.580274
0.580275
0.580276
0.580277
0.580277
0.580278
0.580279
0.58028
0.580281
0.580281
0.580282
0.580283
0.580284
0.580285
0.580285
0.580286
0.580287
0.580288
0.580289
0.580289
0.58029
0.580291
0.580292
0.580293
0.580293
0.580294
0.580295
0.580296
0.580297
0.580297
0.580298
0.580299
0.5803
0.580301
0.580301
0.580302
0.580303
0.580304
0.580305
0.580305
0.580306
0.580307
0.580308
0.580309
0.580309
0.58031
0.580311
0.580312
0.580313
0.580313
0.580314
0.580315
0.580316
0.580317
0.580317
0.580318
0.580319
0.58032
0.580321
0.580321
0.580322
0.580323
0.580324
0.580325
0.580325
0.580326
0.580328
0.580329
0.58033
0.58033
0.580331
0.580332
0.580333
0.580334
0.580334
0.580335
0.580336
0.580337
0.580338
0.580338
0.580339
0.58034
0.580341
0.580342
0.580342
0.580343
0.580344
0.580345
0.580347
0.580347
0.580348
0.580349
0.58035
0.580351
0.580351
0.580352
0.580353
0.580354
0.580355
0.580355
0.580356
0.580357
0.580358
0.580359
0.580359
0.580361
0.580362
0.580363
0.580364
0.580364
0.580365
0.580366
0.580367
0.580368
0.580368
0.580369
0.58037
0.580371
0.580373
0.580373
0.580374
0.580375
0.580376
0.580377
0.580377
0.580378
0.580379
0.58038
0.580381
0.580381
0.580382
0.580384
0.580385
0.580386
0.580386
0.580387
0.580388
0.580389
0.580391
0.580391
0.580392
0.580393
0.580394
0.580395
0.580395
0.580396
0.580397
0.580398
0.5804
0.5804
0.580401
0.580402
0.580403
0.580404
0.580404
0.580405
0.580407
0.580408
0.580409
0.580409
0.58041
0.580411
0.580412
0.580413
0.580413
0.580415
0.580416
0.580417
0.580418
0.580418
0.580419
0.58042
0.580422
0.580423
0.580423
0.580424
0.580425
0.580426
0.580428
0.580428
0.580429
0.58043
0.580431
0.580432
0.580432
0.580433
0.580435
0.580436
0.580437
0.580437
0.580438
0.580439
0.580441
0.580442
0.580442
0.580443
0.580444
0.580445
0.580447
0.580447
0.580448
0.580449
0.58045
0.580451
0.580451
0.580453
0.580454
0.580455
0.580456
0.580456
0.580458
0.580459
0.58046
0.580461
0.580461
0.580462
0.580464
0.580465
0.580466
0.580466
0.580467
0.580469
0.58047
0.580471
0.580471
0.580472
0.580474
0.580475
0.580476
0.580476
0.580477
0.580479
0.58048
0.580481
0.580481
0.580482
0.580484
0.580485
0.580486
0.580486
0.580487
0.580489
0.58049
0.580491
0.580491
0.580492
0.580494
0.580495
0.580496
0.580496
0.580498
0.580499
0.5805
0.580501
0.580501
0.580503
0.580504
0.580505
0.580506
0.580506
0.580508
0.580509
0.58051
0.580512
0.580512
0.580513
0.580514
0.580515
0.580517
0.580517
0.580518
0.580519
0.580521
0.580522
0.580522
0.580523
0.580525
0.580526
0.580527
0.580527
0.580529
0.58053
0.580531
0.580532
0.580532
0.580534
0.580535
0.580536
0.580538
0.580538
0.580539
0.58054
0.580542
0.580543
0.580543
0.580544
0.580546
0.580547
0.580548
0.580548
0.58055
0.580551
0.580552
0.580554
0.580554
0.580555
0.580556
0.580558
0.580559
0.580559
0.580561
0.580562
0.580563
0.580565
0.580565
0.580566
0.580567
0.580569
0.58057
0.58057
0.580571
0.580573
0.580574
0.580575
0.580575
0.580577
0.580578
0.58058
0.580581
0.580581
0.580582
0.580584
0.580585
0.580586
0.580586
0.580588
0.580589
0.580591
0.580592
0.580592
0.580593
0.580595
0.580596
0.580598
0.580598
0.580599
0.5806
0.580602
0.580603
0.580603
0.580605
0.580606
0.580607
0.580609
0.580609
0.58061
0.580612
0.580613
0.580615
0.580615
0.580616
0.580617
0.580619
0.58062
0.58062
0.580622
0.580623
0.580624
0.580626
0.580626
0.580627
0.580629
0.58063
0.580632
0.580632
0.580633
0.580635
0.580636
0.580637
0.580637
0.580639
0.58064
0.580642
0.580643
0.580643
0.580645
0.580646
0.580648
0.580649
0.580649
0.58065
0.580652
0.580653
0.580655
0.580655
0.580656
0.580658
0.580659
0.580661
0.580661
0.580662
0.580664
0.580665
0.580667
0.580667
0.580668
0.58067
0.580671
0.580673
0.580673
0.580674
0.580675
0.580677
0.580678
0.580678
0.58068
0.580681
0.580683
0.580684
0.580684
0.580686
0.580687
0.580689
0.58069
0.58069
0.580692
0.580693
0.580695
0.580696
0.580696
0.580698
0.5807
0.580701
0.580703
0.580703
0.580704
0.580706
0.580707
0.580709
0.580709
0.58071
0.580712
0.580713
0.580715
0.580715
0.580716
0.580718
0.580719
0.580721
0.580721
0.580722
0.580724
0.580726
0.580727
0.580727
0.580729
0.58073
0.580732
0.580733
0.580733
0.580735
0.580736
0.580738
0.580739
0.580739
0.580741
0.580743
0.580744
0.580746
0.580746
0.580747
0.580749
0.58075
0.580752
0.580752
0.580754
0.580755
0.580757
0.580758
0.580758
0.58076
0.580761
0.580763
0.580765
0.580765
0.580766
0.580768
0.580769
0.580771
0.580771
0.580773
0.580774
0.580776
0.580777
0.580777
0.580779
0.580781
0.580782
0.580784
0.580784
0.580785
0.580787
0.580789
0.58079
0.58079
0.580792
0.580794
0.580795
0.580797
0.580797
0.580798
0.5808
0.580802
0.580803
0.580803
0.580805
0.580807
0.580808
0.58081
0.58081
0.580811
0.580813
0.580815
0.580816
0.580816
0.580818
0.58082
0.580821
0.580823
0.580823
0.580825
0.580826
0.580828
0.58083
0.58083
0.580831
0.580833
0.580835
0.580836
0.580836
0.580838
0.58084
0.580841
0.580843
0.580843
0.580845
0.580846
0.580848
0.58085
0.58085
0.580851
0.580853
0.580855
0.580856
0.580856
0.580858
0.58086
0.580861
0.580863
0.580863
0.580865
0.580866
0.580868
0.58087
0.58087
0.580872
0.580873
0.580875
0.580877
0.580877
0.580878
0.58088
0.580882
0.580884
0.580884
0.580885
0.580887
0.580889
0.58089
0.58089
0.580892
0.580894
0.580896
0.580897
0.580897
0.580899
0.580901
0.580902
0.580904
0.580904
0.580906
0.580908
0.580909
0.580911
0.580911
0.580913
0.580915
0.580916
0.580918
0.580918
0.58092
0.580922
0.580923
0.580925
0.580925
0.580927
0.580929
0.58093
0.580932
0.580932
0.580934
0.580936
0.580938
0.580939
0.580939
0.580941
0.580943
0.580945
0.580946
0.580946
0.580948
0.58095
0.580952
0.580954
0.580954
0.580955
0.580957
0.580959
0.580961
0.580961
0.580963
0.580964
0.580966
0.580968
0.580968
0.58097
0.580972
0.580973
0.580975
0.580975
0.580977
0.580979
0.580981
0.580982
0.580982
0.580984
0.580986
0.580988
0.58099
0.58099
0.580991
0.580993
0.580995
0.580997
0.580997
0.580999
0.581001
0.581002
0.581004
0.581004
0.581006
0.581008
0.58101
0.581012
0.581012
0.581014
0.581015
0.581017
0.581019
0.581019
0.581021
0.581023
0.581025
0.581026
0.581026
0.581028
0.58103
0.581032
0.581034
0.581034
0.581036
0.581038
0.58104
0.581041
0.581041
0.581043
0.581045
0.581047
0.581049
0.581049
0.581051
0.581053
0.581055
0.581056
0.581056
0.581058
0.58106
0.581062
0.581064
0.581064
0.581066
0.581068
0.58107
0.581072
0.581072
0.581074
0.581075
0.581077
0.581079
0.581079
0.581081
0.581083
0.581085
0.581087
0.581087
0.581089
0.581091
0.581093
0.581095
0.581095
0.581097
0.581099
0.5811
0.581102
0.581102
0.581104
0.581106
0.581108
0.58111
0.58111
0.581112
0.581114
0.581116
0.581118
0.581118
0.58112
0.581122
0.581124
0.581126
0.581126
0.581128
0.58113
0.581132
0.581134
0.581134
0.581136
0.581138
0.581139
0.581141
0.581141
0.581143
0.581145
0.581147
0.581149
0.581149
0.581151
0.581153
0.581155
0.581157
0.581157
0.581159
0.581161
0.581163
0.581165
0.581165
0.581167
0.581169
0.581171
0.581173
0.581173
0.581175
0.581177
0.581179
0.581181
0.581181
0.581183
0.581185
0.581187
0.581189
0.581189
0.581191
0.581193
0.581195
0.581197
0.581197
0.581199
0.581202
0.581204
0.581206
0.581206
0.581208
0.58121
0.581212
0.581214
0.581214
0.581216
0.581218
0.58122
0.581222
0.581222
0.581224
0.581226
0.581228
0.58123
0.58123
0.581232
0.581234
0.581236
0.581238
0.581238
0.58124
0.581243
0.581245
0.581247
0.581247
0.581249
0.581251
0.581253
0.581255
0.581255
0.581257
0.581259
0.581261
0.581263
0.581263
0.581265
0.581267
0.58127
0.581272
0.581272
0.581274
0.581276
0.581278
0.58128
0.58128
0.581282
0.581284
0.581286
0.581289
0.581289
0.581291
0.581293
0.581295
0.581297
0.581297
0.581299
0.581301
0.581303
0.581305
0.581305
0.581308
0.58131
0.581312
0.581314
0.581314
0.581316
0.581318
0.58132
0.581323
0.581323
0.581325
0.581327
0.581329
0.581331
0.581331
0.581333
0.581335
0.581338
0.58134
0.58134
0.581342
0.581344
0.581346
0.581348
0.581348
0.581351
0.581353
0.581355
0.581357
0.581357
0.581359
0.581361
0.581364
0.581366
0.581366
0.581368
0.58137
0.581372
0.581375
0.581375
0.581377
0.581379
0.581381
0.581383
0.581383
0.581386
0.581388
0.58139
0.581392
0.581392
0.581394
0.581397
0.581399
0.581401
0.581401
0.581403
0.581405
0.581408
0.58141
0.58141
0.581412
0.581414
0.581417
0.581419
0.581419
0.581421
0.581423
0.581426
0.581428
0.581428
0.58143
0.581432
0.581435
0.581437
0.581437
0.581439
0.581441
0.581444
0.581446
0.581446
0.581448
0.58145
0.581453
0.581455
0.581455
0.581457
0.581459
0.581462
0.581464
0.581464
0.581466
0.581468
0.581471
0.581473
0.581473
0.581475
0.581478
0.58148
0.581482
0.581482
0.581484
0.581487
0.581489
0.581491
0.581491
0.581494
0.581496
0.581498
0.581501
0.581501
0.581503
0.581505
0.581507
0.58151
0.58151
0.581512
0.581514
0.581517
0.581519
0.581519
0.581521
0.581524
0.581526
0.581528
0.581528
0.581531
0.581533
0.581535
0.581538
0.581538
0.58154
0.581542
0.581545
0.581547
0.581547
0.581549
0.581552
0.581554
0.581556
0.581556
0.581559
0.581561
0.581564
0.581566
0.581566
0.581568
0.581571
0.581573
0.581575
0.581575
0.581578
0.58158
0.581582
0.581585
0.581585
0.581587
0.58159
0.581592
0.581594
0.581594
0.581597
0.581599
0.581601
0.581603
0.581603
0.581606
0.581608
0.581611
0.581613
0.581613
0.581616
0.581618
0.581621
0.581623
0.581623
0.581626
0.581628
0.58163
0.581633
0.581633
0.581635
0.581638
0.58164
0.581643
0.581643
0.581645
0.581647
0.58165
0.581652
0.581652
0.581655
0.581657
0.58166
0.581662
0.581662
0.581665
0.581667
0.58167
0.581672
0.581672
0.581674
0.581677
0.581679
0.581682
0.581682
0.581684
0.581687
0.581689
0.581692
0.581692
0.581694
0.581697
0.581699
0.581702
0.581702
0.581704
0.581707
0.581709
0.581712
0.581712
0.581714
0.581717
0.581719
0.581722
0.581722
0.581724
0.581727
0.581729
0.581732
0.581732
0.581734
0.581737
0.581739
0.581742
0.581742
0.581744
0.581747
0.581749
0.581752
0.581752
0.581754
0.581757
0.581759
0.581762
0.581762
0.581764
0.581767
0.581769
0.581772
0.581772
0.581775
0.581777
0.58178
0.581782
0.581782
0.581785
0.581787
0.58179
0.581792
0.581792
0.581795
0.581798
0.5818
0.581803
0.581803
0.581805
0.581808
0.58181
0.581813
0.581813
0.581816
0.581818
0.581821
0.581823
0.581823
0.581826
0.581828
0.581831
0.581834
0.581834
0.581836
0.581839
0.581841
0.581844
0.581844
0.581847
0.581849
0.581852
0.581855
0.581855
0.581857
0.58186
0.581862
0.581865
0.581865
0.581868
0.58187
0.581873
0.581875
0.581875
0.581878
0.581881
0.581883
0.581886
0.581886
0.581889
0.581891
0.581894
0.581897
0.581897
0.581899
0.581902
0.581905
0.581907
0.581907
0.58191
0.581913
0.581915
0.581918
0.581918
0.581921
0.581923
0.581926
0.581929
0.581929
0.581931
0.581934
0.581937
0.581939
0.581939
0.581942
0.581945
0.581947
0.58195
0.58195
0.581953
0.581955
0.581958
0.581961
0.581961
0.581964
0.581966
0.581969
0.581972
0.581972
0.581974
0.581977
0.58198
0.581983
0.581983
0.581985
0.581988
0.581991
0.581993
0.581993
0.581996
0.581999
0.582002
0.582004
0.582004
0.582007
0.58201
0.582013
0.582015
0.582015
0.582018
0.582021
0.582024
0.582026
0.582026
0.582029
0.582032
0.582035
0.582037
0.582037
0.58204
0.582043
0.582046
0.582049
0.582049
0.582051
0.582054
0.582057
0.58206
0.58206
0.582062
0.582065
0.582068
0.582071
0.582071
0.582074
0.582076
0.582079
0.582082
0.582082
0.582085
0.582088
0.58209
0.582093
0.582093
0.582096
0.582099
0.582102
0.582105
0.582105
0.582107
0.58211
0.582113
0.582116
0.582116
0.582119
0.582122
0.582124
0.582127
0.582127
0.58213
0.582133
0.582136
0.582139
0.582139
0.582141
0.582144
0.582147
0.58215
0.58215
0.582153
0.582156
0.582159
0.582162
0.582162
0.582164
0.582167
0.58217
0.582173
0.582173
0.582176
0.582179
0.582182
0.582185
0.582185
0.582187
0.58219
0.582193
0.582196
0.582196
0.582199
0.582202
0.582205
0.582208
0.582208
0.582211
0.582214
0.582217
0.582219
0.582219
0.582222
0.582225
0.582228
0.582231
0.582231
0.582234
0.582237
0.58224
0.582243
0.582243
0.582246
0.582249
0.582252
0.582255
0.582255
0.582258
0.582261
0.582263
0.582266
0.582266
0.582269
0.582272
0.582275
0.582278
0.582278
0.582281
0.582284
0.582287
0.58229
0.58229
0.582293
0.582296
0.582299
0.582302
0.582302
0.582305
0.582308
0.582311
0.582314
0.582314
0.582317
0.58232
0.582323
0.582326
0.582326
0.582329
0.582332
0.582335
0.582338
0.582338
0.582341
0.582344
0.582347
0.58235
0.58235
0.582353
0.582356
0.582359
0.582362
0.582362
0.582365
0.582368
0.582371
0.582374
0.582374
0.582377
0.582381
0.582384
0.582387
0.582387
0.58239
0.582393
0.582396
0.582399
0.582399
0.582402
0.582405
0.582408
0.582411
0.582411
0.582414
0.582417
0.58242
0.582423
0.582423
0.582427
0.58243
0.582433
0.582436
0.582436
0.582439
0.582442
0.582445
0.582448
0.582448
0.582451
0.582454
0.582458
0.582461
0.582461
0.582464
0.582467
0.58247
0.582473
0.582473
0.582476
0.582479
0.582483
0.582486
0.582486
0.582489
0.582492
0.582495
0.582498
0.582498
0.582501
0.582504
0.582508
0.582511
0.582511
0.582514
0.582517
0.58252
0.582523
0.582523
0.582527
0.58253
0.582533
0.582536
0.582536
0.582539
0.582542
0.582546
0.582549
0.582549
0.582552
0.582555
0.582558
0.582562
0.582562
0.582565
0.582568
0.582571
0.582574
0.582574
0.582578
0.582581
0.582584
0.582587
0.582587
0.58259
0.582594
0.582597
0.5826
0.5826
0.582603
0.582607
0.58261
0.582613
0.582613
0.582616
0.58262
0.582623
0.582626
0.582626
0.582629
0.582632
0.582636
0.582639
0.582639
0.582642
0.582646
0.582649
0.582652
0.582652
0.582655
0.582659
0.582662
0.582665
0.582665
0.582668
0.582672
0.582675
0.582678
0.582678
0.582682
0.582685
0.582688
0.582691
0.582691
0.582695
0.582698
0.582701
0.582705
0.582705
0.582708
0.582711
0.582715
0.582718
0.582718
0.582721
0.582725
0.582728
0.582731
0.582731
0.582735
0.582738
0.582741
0.582745
0.582745
0.582748
0.582751
0.582755
0.582758
0.582758
0.582761
0.582765
0.582768
0.582771
0.582771
0.582775
0.582778
0.582781
0.582785
0.582785
0.582788
0.582792
0.582795
0.582798
0.582798
0.582802
0.582805
0.582808
0.582812
0.582812
0.582815
0.582819
0.582822
0.582825
0.582825
0.582829
0.582832
0.582836
0.582839
0.582839
0.582842
0.582846
0.582849
0.582853
0.582853
0.582856
0.58286
0.582863
0.582866
0.582866
0.58287
0.582873
0.582877
0.58288
0.58288
0.582884
0.582887
0.582891
0.582894
0.582894
0.582898
0.582901
0.582904
0.582908
0.582908
0.582911
0.582915
0.582918
0.582922
0.582922
0.582925
0.582929
0.582932
0.582936
0.582936
0.582939
0.582943
0.582946
0.58295
0.58295
0.582953
0.582957
0.58296
0.582964
0.582964
0.582967
0.582971
0.582974
0.582978
0.582978
0.582981
0.582985
0.582988
0.582992
0.582992
0.582995
0.582998
0.583002
0.583005
0.583005
0.583009
0.583012
0.583016
0.58302
0.58302
0.583024
0.583027
0.583031
0.583034
0.583034
0.583038
0.583042
0.583045
0.583049
0.583049
0.583052
0.583056
0.58306
0.583063
0.583063
0.583067
0.58307
0.583074
0.583077
0.583077
0.583081
0.583085
0.583088
0.583092
0.583092
0.583096
0.583099
0.583103
0.583106
0.583106
0.58311
0.583114
0.583117
0.583121
0.583121
0.583125
0.583128
0.583132
0.583135
0.583135
0.583139
0.583143
0.583146
0.58315
0.58315
0.583154
0.583157
0.583161
0.583165
0.583165
0.583168
0.583172
0.583176
0.583179
0.583179
0.583183
0.583187
0.58319
0.583194
0.583194
0.583198
0.583202
0.583205
0.583209
0.583209
0.583213
0.583216
0.58322
0.583224
0.583224
0.583227
0.583231
0.583235
0.583239
0.583239
0.583242
0.583246
0.58325
0.583254
0.583254
0.583257
0.583261
0.583265
0.583269
0.583269
0.583272
0.583276
0.58328
0.583284
0.583284
0.583287
0.583291
0.583295
0.583299
0.583299
0.583302
0.583306
0.58331
0.583314
0.583314
0.583317
0.583321
0.583325
0.583329
0.583329
0.583333
0.583336
0.58334
0.583344
0.583344
0.583348
0.583352
0.583355
0.583359
0.583359
0.583363
0.583367
0.583371
0.583375
0.583375
0.583378
0.583382
0.583386
0.58339
0.58339
0.583394
0.583398
0.583401
0.583405
0.583405
0.583409
0.583413
0.583417
0.583421
0.583421
0.583425
0.583428
0.583432
0.583436
0.583436
0.58344
0.583444
0.583448
0.583452
0.583452
0.583456
0.58346
0.583463
0.583467
0.583467
0.583471
0.583475
0.583479
0.583483
0.583483
0.583487
0.583491
0.583495
0.583499
0.583499
0.583503
0.583506
0.58351
0.583514
0.583514
0.583518
0.583522
0.583526
0.58353
0.58353
0.583534
0.583538
0.583542
0.583546
0.583546
0.58355
0.583554
0.583558
0.583562
0.583562
0.583566
0.58357
0.583574
0.583578
0.583578
0.583582
0.583586
0.58359
0.583594
0.583594
0.583598
0.583602
0.583606
0.58361
0.58361
0.583614
0.583618
0.583622
0.583626
0.583626
0.58363
0.583634
0.583638
0.583642
0.583642
0.583646
0.58365
0.583654
0.583658
0.583658
0.583662
0.583666
0.58367
0.583674
0.583674
0.583678
0.583682
0.583686
0.58369
0.58369
0.583694
0.583699
0.583703
0.583707
0.583707
0.583711
0.583715
0.583719
0.583723
0.583723
0.583727
0.583731
0.583735
0.583739
0.583739
0.583744
0.583748
0.583752
0.583756
0.583756
0.58376
0.583764
0.583768
0.583772
0.583772
0.583777
0.583781
0.583785
0.583789
0.583789
0.583793
0.583797
0.583801
0.583806
0.583806
0.58381
0.583814
0.583818
0.583822
0.583822
0.583826
0.583831
0.583835
0.583839
0.583839
0.583843
0.583847
0.583851
0.583856
0.583856
0.58386
0.583864
0.583868
0.583872
0.583872
0.583877
0.583881
0.583885
0.583889
0.583889
0.583894
0.583898
0.583902
0.583906
0.583906
0.58391
0.583915
0.583919
0.583923
0.583923
0.583927
0.583932
0.583936
0.58394
0.58394
0.583944
0.583949
0.583953
0.583957
0.583957
0.583961
0.583966
0.58397
0.583974
0.583974
0.583979
0.583983
0.583987
0.583991
0.583991
0.583996
0.584
0.584004
0.584009
0.584009
0.584013
0.584017
0.584022
0.584026
0.584026
0.58403
0.584035
0.584039
0.584043
0.584043
0.584048
0.584052
0.584056
0.584061
0.584061
0.584065
0.584069
0.584074
0.584078
0.584078
0.584082
0.584087
0.584091
0.584096
0.584096
0.5841
0.584104
0.584109
0.584113
0.584113
0.584117
0.584122
0.584126
0.584131
0.584131
0.584135
0.584139
0.584144
0.584148
0.584148
0.584153
0.584157
0.584161
0.584166
0.584166
0.58417
0.584175
0.584179
0.584184
0.584184
0.584188
0.584193
0.584197
0.584201
0.584201
0.584206
0.58421
0.584215
0.584219
0.584219
0.584224
0.584228
0.584233
0.584237
0.584237
0.584242
0.584246
0.584251
0.584255
0.584255
0.58426
0.584264
0.584269
0.584273
0.584273
0.584278
0.584282
0.584287
0.584291
0.584291
0.584296
0.5843
0.584305
0.584309
0.584309
0.584314
0.584318
0.584323
0.584327
0.584327
0.584332
0.584337
0.584341
0.584346
0.584346
0.58435
0.584355
0.584359
0.584364
0.584364
0.584369
0.584373
0.584378
0.584382
0.584382
0.584387
0.584391
0.584396
0.584401
0.584401
0.584405
0.58441
0.584414
0.584419
0.584419
0.584424
0.584428
0.584433
0.584438
0.584438
0.584442
0.584447
0.584451
0.584456
0.584456
0.584461
0.584465
0.58447
0.584475
0.584475
0.584479
0.584484
0.584489
0.584493
0.584493
0.584498
0.584503
0.584507
0.584512
0.584512
0.584517
0.584521
0.584526
0.584531
0.584531
0.584536
0.58454
0.584545
0.58455
0.58455
0.584554
0.584559
0.584564
0.584568
0.584568
0.584573
0.584578
0.584582
0.584587
0.584587
0.584591
0.584596
0.584601
0.584606
0.584606
0.584611
0.584616
0.584621
0.584625
0.584625
0.58463
0.584635
0.58464
0.584645
0.584645
0.584649
0.584654
0.584659
0.584664
0.584664
0.584669
0.584673
0.584678
0.584683
0.584683
0.584688
0.584693
0.584697
0.584702
0.584702
0.584707
0.584712
0.584717
0.584722
0.584722
0.584727
0.584731
0.584736
0.584741
0.584741
0.584746
0.584751
0.584756
0.584761
0.584761
0.584765
0.58477
0.584775
0.58478
0.58478
0.584785
0.58479
0.584795
0.5848
0.5848
0.584804
0.584809
0.584814
0.584819
0.584819
0.584824
0.584829
0.584834
0.584839
0.584839
0.584844
0.584849
0.584854
0.584859
0.584859
0.584864
0.584869
0.584873
0.584878
0.584878
0.584883
0.584888
0.584893
0.584898
0.584898
0.584903
0.584908
0.584913
0.584918
0.584918
0.584923
0.584928
0.584933
0.584938
0.584938
0.584943
0.584948
0.584953
0.584958
0.584958
0.584963
0.584968
0.584973
0.584978
0.584978
0.584983
0.584988
0.584993
0.584998
0.584998
0.585004
0.585009
0.585014
0.585019
0.585019
0.585024
0.585029
0.585034
0.585039
0.585039
0.585044
0.585049
0.585054
0.585059
0.585059
0.585064
0.585069
0.585075
0.58508
0.58508
0.585085
0.58509
0.585095
0.5851
0.5851
0.585105
0.58511
0.585116
0.585121
0.585121
0.585126
0.585131
0.585136
0.585141
0.585141
0.585146
0.585152
0.585157
0.585162
0.585162
0.585167
0.585172
0.585177
0.585183
0.585183
0.585188
0.585193
0.585198
0.585203
0.585203
0.585209
0.585214
0.585219
0.585224
0.585224
0.585229
0.585235
0.58524
0.585245
0.585245
0.58525
0.585255
0.585261
0.585266
0.585266
0.585271
0.585276
0.585282
0.585287
0.585287
0.585292
0.585297
0.585303
0.585308
0.585308
0.585313
0.585319
0.585324
0.585329
0.585329
0.585334
0.58534
0.585345
0.58535
0.58535
0.585356
0.585361
0.585366
0.585372
0.585372
0.585377
0.585382
0.585388
0.585393
0.585393
0.585398
0.585404
0.585409
0.585414
0.585414
0.58542
0.585425
0.58543
0.585436
0.585436
0.585441
0.585446
0.585452
0.585457
0.585457
0.585463
0.585468
0.585473
0.585479
0.585479
0.585484
0.58549
0.585495
0.5855
0.5855
0.585506
0.585511
0.585517
0.585522
0.585522
0.585528
0.585533
0.585538
0.585544
0.585544
0.585549
0.585555
0.58556
0.585566
0.585566
0.585571
0.585577
0.585582
0.585588
0.585588
0.585593
0.585599
0.585604
0.58561
0.58561
0.585615
0.585621
0.585626
0.585632
0.585632
0.585637
0.585643
0.585648
0.585654
0.585654
0.585659
0.585665
0.58567
0.585676
0.585676
0.585681
0.585687
0.585692
0.585698
0.585698
0.585704
0.585709
0.585715
0.58572
0.58572
0.585726
0.585731
0.585737
0.585743
0.585743
0.585748
0.585754
0.585759
0.585765
0.585765
0.585771
0.585776
0.585782
0.585788
0.585788
0.585793
0.585799
0.585804
0.58581
0.58581
0.585816
0.585821
0.585827
0.585833
0.585833
0.585838
0.585844
0.58585
0.585855
0.585855
0.585861
0.585867
0.585872
0.585878
0.585878
0.585884
0.58589
0.585895
0.585901
0.585901
0.585907
0.585912
0.585918
0.585924
0.585924
0.58593
0.585935
0.585941
0.585947
0.585947
0.585952
0.585958
0.585964
0.58597
0.58597
0.585976
0.585981
0.585987
0.585993
0.585993
0.585999
0.586004
0.58601
0.586016
0.586016
0.586022
0.586028
0.586033
0.586039
0.586039
0.586045
0.586051
0.586057
0.586062
0.586062
0.586068
0.586074
0.58608
0.586086
0.586086
0.586092
0.586098
0.586103
0.586109
0.586109
0.586115
0.586121
0.586127
0.586133
0.586133
0.586139
0.586145
0.58615
0.586156
0.586156
0.586162
0.586168
0.586174
0.58618
0.58618
0.586186
0.586192
0.586198
0.586204
0.586204
0.58621
0.586215
0.586221
0.586227
0.586227
0.586233
0.586239
0.586245
0.586251
0.586251
0.586257
0.586263
0.586269
0.586275
0.586275
0.586281
0.586287
0.586293
0.586299
0.586299
0.586305
0.586311
0.586317
0.586323
0.586323
0.586329
0.586335
0.586341
0.586347
0.586347
0.586353
0.586358
0.586364
0.58637
0.58637
0.586377
0.586383
0.586389
0.586395
0.586395