<?xml version="1.0"?>
<VTKFile type="UnstructuredGrid" version="0.1" byte_order="LittleEndian">
<UnstructuredGrid>
<Piece NumberOfPoints="5000" NumberOfCells="4000">
<PointData Scalars="Reaction 0">
<DataArray type="Float32" Name="Reaction 0" format="ascii">
0.598795
0.598795
0.598795
0.598795
0.598795
0.598795
0.598795
0.598795
0.598795
0.598796
0.598796
0.598796
0.598796
0.598796
0.598796
0.598796
0.598796
0.598796
0.598796
0.598796
0.598796
0.598796
0.598796
0.598796
0.598796
0.598796
0.598796
0.598797
0.598797
0.598797
0.598797
0.598797
0.598797
0.598797
0.598797
0.598797
0.598797
0.598798
0.598798
0.598798
0.598798
0.598798
0.598798
0.598798
0.598798
0.598798
0.598799
0.598799
0.598799
0.598799
0.598799
0.598799
0.5988
0.5988
0.5988
0.5988
0.5988
0.5988
0.598801
0.598801
0.598801
0.598801
0.598801
0.598802
0.598802
0.598802
0.598802
0.598802
0.598803
0.598803
0.598803
0.598803
0.598803
0.598804
0.598804
0.598804
0.598804
0.598805
0.598805
0.598805
0.598805
0.598805
0.598806
0.598806
0.598806
0.598806
0.598807
0.598807
0.598807
0.598808
0.598808
0.598808
0.598808
0.598809
0.598809
0.598809
0.59881
0.59881
0.59881
0.598811
0.598811
0.598811
0.598811
0.598812
0.598812
0.598812
0.598813
0.598813
0.598813
0.598814
0.598814
0.598814
0.598815
0.598815
0.598816
0.598816
0.598816
0.598816
0.598817
0.598817
0.598817
0.598818
0.598818
0.598819
0.598819
0.598819
0.59882
0.59882
0.598821
0.598821
0.598821
0.598822
0.598822
0.598823
0.598823
0.598823
0.598824
0.598824
0.598825
0.598825
0.598825
0.598826
0.598826
0.598827
0.598828
0.598828
0.598828
0.598829
0.598829
0.59883
0.59883
0.59883
0.598831
0.598832
0.598832
0.598832
0.598833
0.598833
0.598834
0.598835
0.598835
0.598835
0.598836
0.598836
0.598837
0.598837
0.598838
0.598838
0.598839
0.59884
0.59884
0.59884
0.598841
0.598842
0.598842
0.598842
0.598843
0.598844
0.598844
0.598845
0.598845
0.598846
0.598846
0.598847
0.598848
0.598848
0.598848
0.598849
0.59885
0.598851
0.598851
0.598851
0.598852
0.598853
0.598854
0.598854
0.598854
0.598855
0.598856
0.598857
0.598857
0.598857
0.598858
0.598859
0.59886
0.59886
0.59886
0.598861
0.598862
0.598863
0.598863
0.598864
0.598864
0.598865
0.598866
0.598866
0.598867
0.598868
0.598869
0.598869
0.598869
0.59887
0.598871
0.598872
0.598873
0.598873
0.598874
0.598875
0.598875
0.598876
0.598876
0.598877
0.598878
0.598879
0.59888
0.59888
0.598881
0.598882
0.598883
0.598884
0.598884
0.598884
0.598885
0.598886
0.598887
0.598887
0.598888
0.598889
0.59889
0.598891
0.598891
0.598892
0.598893
0.598894
0.598895
0.598895
0.598896
0.598897
0.598898
0.598899
0.598899
0.5989
0.598901
0.598902
0.598903
0.598903
0.598904
0.598905
0.598906
0.598907
0.598907
0.598908
0.598909
0.59891
0.598911
0.598911
0.598912
0.598913
0.598914
0.598915
0.598915
0.598916
0.598918
0.598919
0.59892
0.59892
0.598921
0.598922
0.598923
0.598924
0.598924
0.598925
0.598926
0.598928
0.598929
0.598929
0.59893
0.598931
0.598932
0.598933
0.598933
0.598934
0.598936
0.598937
0.598938
0.598938
0.598939
0.59894
0.598941
0.598943
0.598943
0.598944
0.598945
0.598946
0.598947
0.598947
0.598949
0.59895
0.598951
0.598952
0.598952
0.598953
0.598955
0.598956
0.598957
0.598957
0.598958
0.59896
0.598961
0.598962
0.598962
0.598963
0.598965
0.598966
0.598967
0.598967
0.598969
0.59897
0.598971
0.598973
0.598973
0.598974
0.598975
0.598976
0.598978
0.598978
0.598979
0.59898
0.598982
0.598983
0.598983
0.598984
0.598986
0.598987
0.598989
0.598989
0.59899
0.598991
0.598993
0.598994
0.598994
0.598995
0.598997
0.598998
0.599
0.599
0.599001
0.599002
0.599004
0.599005
0.599005
0.599007
0.599008
0.59901
0.599011
0.599011
0.599012
0.599014
0.599015
0.599017
0.599017
0.599018
0.59902
0.599021
0.599023
0.599023
0.599024
0.599026
0.599027
0.599029
0.599029
0.59903
0.599032
0.599033
0.599035
0.599035
0.599036
0.599038
0.599039
0.599041
0.599041
0.599042
0.599044
0.599045
0.599047
0.599047
0.599049
0.59905
0.599052
0.599053
0.599053
0.599055
0.599056
0.599058
0.59906
0.59906
0.599061
0.599063
0.599064
0.599066
0.599066
0.599068
0.599069
0.599071
0.599073
0.599073
0.599074
0.599076
0.599077
0.599079
0.599079
0.599081
0.599082
0.599084
0.599086
0.599086
0.599087
0.599089
0.599091
0.599093
0.599093
0.599094
0.599096
0.599098
0.599099
0.599099
0.599101
0.599103
0.599105
0.599106
0.599106
0.599108
0.59911
0.599112
0.599113
0.599113
0.599115
0.599117
0.599119
0.59912
0.59912
0.599122
0.599124
0.599126
0.599127
0.599127
0.599129
0.599131
0.599133
0.599135
0.599135
0.599136
0.599138
0.59914
0.599142
0.599142
0.599144
0.599146
0.599147
0.599149
0.599149
0.599151
0.599153
0.599155
0.599157
0.599157
0.599159
0.599161
0.599162
0.599164
0.599164
0.599166
0.599168
0.59917
0.599172
0.599172
0.599174
0.599176
0.599178
0.59918
0.59918
0.599182
0.599183
0.599185
0.599187
0.599187
0.599189
0.599191
0.599193
0.599195
0.599195
0.599197
0.599199
0.599201
0.599203
0.599203
0.599205
0.599207
0.599209
0.599211
0.599211
0.599213
0.599215
0.599217
0.599219
0.599219
0.599221
0.599223
0.599225
0.599227
0.599227
0.599229
0.599231
0.599234
0.599236
0.599236
0.599238
0.59924
0.599242
0.599244
0.599244
0.599246
0.599248
0.59925
0.599252
0.599252
0.599254
0.599257
0.599259
0.599261
0.599261
0.599263
0.599265
0.599267
0.599269
0.599269
0.599272
0.599274
0.599276
0.599278
0.599278
0.59928
0.599282
0.599285
0.599287
0.599287
0.599289
0.599291
0.599293
0.599296
0.599296
0.599298
0.5993
0.599302
0.599304
0.599304
0.599307
0.599309
0.599311
0.599313
0.599313
0.599316
0.599318
0.59932
0.599322
0.599322
0.599325
0.599327
0.599329
0.599332
0.599332
0.599334
0.599336
0.599338
0.599341
0.599341
0.599343
0.599345
0.599348
0.59935
0.59935
0.599352
0.599355
0.599357
0.599359
0.599359
0.599362
0.599364
0.599366
0.599369
0.599369
0.599371
0.599374
0.599376
0.599378
0.599378
0.599381
0.599383
0.599386
0.599388
0.599388
0.59939
0.599393
0.599395
0.599398
0.599398
0.5994
0.599402
0.599405
0.599407
0.599407
0.59941
0.599412
0.599415
0.599417
0.599417
0.59942
0.599422
0.599425
0.599427
0.599427
0.59943
0.599432
0.599435
0.599437
0.599437
0.59944
0.599442
0.599445
0.599447
0.599447
0.59945
0.599452
0.599455
0.599457
0.599457
0.59946
0.599462
0.599465
0.599468
0.599468
0.59947
0.599473
0.599475
0.599478
0.599478
0.599481
0.599483
0.599486
0.599488
0.599488
0.599491
0.599494
0.599496
0.599499
0.599499
0.599501
0.599504
0.599507
0.599509
0.599509
0.599512
0.599515
0.599517
0.59952
0.59952
0.599523
0.599525
0.599528
0.599531
0.599531
0.599533
0.599536
0.599539
0.599542
0.599542
0.599544
0.599547
0.59955
0.599552
0.599552
0.599555
0.599558
0.599561
0.599563
0.599563
0.599566
0.599569
0.599572
0.599574
0.599574
0.599577
0.59958
0.599583
0.599586
0.599586
0.599588
0.599591
0.599594
0.599597
0.599597
0.5996
0.599602
0.599605
0.599608
0.599608
0.599611
0.599614
0.599617
0.599619
0.599619
0.599622
0.599625
0.599628
0.599631
0.599631
0.599634
0.599637
0.59964
0.599642
0.599642
0.599645
0.599648
0.599651
0.599654
0.599654
0.599657
0.59966
0.599663
0.599666
0.599666
0.599669
0.599672
0.599675
0.599678
0.599678
0.599681
0.599684
0.599687
0.599689
0.599689
0.599692
0.599695
0.599698
0.599701
0.599701
0.599704
0.599707
0.59971
0.599713
0.599713
0.599717
0.59972
0.599723
0.599726
0.599726
0.599729
0.599732
0.599735
0.599738
0.599738
0.599741
0.599744
0.599747
0.59975
0.59975
0.599753
0.599756
0.599759
0.599762
0.599762
0.599766
0.599769
0.599772
0.599775
0.599775
0.599778
0.599781
0.599784
0.599787
0.599787
0.599791
0.599794
0.599797
0.5998
0.5998
0.599803
0.599806
0.59981
0.599813
0.599813
0.599816
0.599819
0.599822
0.599826
0.599826
0.599829
0.599832
0.599835
0.599838
0.599838
0.599842
0.599845
0.599848
0.599851
0.599851
0.599855
0.599858
0.599861
0.599864
0.599864
0.599868
0.599871
0.599874
0.599877
0.599877
0.599881
0.599884
0.599887
0.599891
0.599891
0.599894
0.599897
0.599901
0.599904
0.599904
0.599907
0.599911
0.599914
0.599917
0.599917
0.599921
0.599924
0.599927
0.599931
0.599931
0.599934
0.599938
0.599941
0.599944
0.599944
0.599948
0.599951
0.599955
0.599958
0.599958
0.599961
0.599965
0.599968
0.599972
0.599972
0.599975
0.599979
0.599982
0.599985
0.599985
0.599989
0.599992
0.599996
0.599999
0.599999
0.600003
0.600006
0.60001
0.600013
0.600013
0.600017
0.60002
0.600024
0.600027
0.600027
0.600031
0.600034
0.600038
0.600041
0.600041
0.600045
0.600049
0.600052
0.600056
0.600056
0.600059
0.600063
0.600066
0.60007
0.60007
0.600074
0.600077
0.600081
0.600084
0.600084
0.600088
0.600092
0.600095
0.600099
0.600099
0.600102
0.600106
0.60011
0.600113
0.600113
0.600117
0.600121
0.600124
0.600128
0.600128
0.600132
0.600135
0.600139
0.600143
0.600143
0.600146
0.60015
0.600154
0.600157
0.600157
0.600161
0.600165
0.600169
0.600172
0.600172
0.600176
0.60018
0.600184
0.600187
0.600187
0.600191
0.600195
0.600199
0.600202
0.600202
0.600206
0.60021
0.600214
0.600217
0.600217
0.600221
0.600225
0.600228
0.600232
0.600232
0.600236
0.60024
0.600244
0.600247
0.600247
0.600251
0.600255
0.600259
0.600263
0.600263
0.600267
0.600271
0.600275
0.600279
0.600279
0.600283
0.600287
0.600291
0.600295
0.600295
0.600298
0.600302
0.600306
0.60031
0.60031
0.600314
0.600318
0.600322
0.600326
0.600326
0.60033
0.600334
0.600338
0.600342
0.600342
0.600346
0.60035
0.600354
0.600358
0.600358
0.600362
0.600366
0.60037
0.600374
0.600374
0.600378
0.600382
0.600386
0.60039
0.60039
0.600394
0.600398
0.600402
0.600406
0.600406
0.60041
0.600414
0.600418
0.600422
0.600422
0.600426
0.60043
0.600435
0.600439
0.600439
0.600443
0.600447
0.600451
0.600455
0.600455
0.600459
0.600463
0.600467
0.600472
0.600472
0.600476
0.60048
0.600484
0.600488
0.600488
0.600492
0.600497
0.600501
0.600505
0.600505
0.600509
0.600513
0.600518
0.600522
0.600522
0.600526
0.60053
0.600534
0.600539
0.600539
0.600543
0.600547
0.600551
0.600556
0.600556
0.60056
0.600564
0.600568
0.600573
0.600573
0.600577
0.600581
0.600585
0.60059
0.60059
0.600594
0.600598
0.600603
0.600607
0.600607
0.600611
0.600616
0.60062
0.600624
0.600624
0.600629
0.600633
0.600637
0.600642
0.600642
0.600646
0.60065
0.600655
0.600659
0.600659
0.600664
0.600668
0.600672
0.600677
0.600677
0.600681
0.600686
0.60069
0.600695
0.600695
0.600699
0.600703
0.600708
0.600712
0.600712
0.600717
0.600721
0.600726
0.60073
0.60073
0.600735
0.600739
0.600744
0.600748
0.600748
0.600753
0.600757
0.600762
0.600766
0.600766
0.600771
0.600775
0.60078
0.600784
0.600784
0.600789
0.600793
0.600798
0.600802
0.600802
0.600807
0.600812
0.600816
0.600821
0.600821
0.600825
0.60083
0.600835
0.600839
0.600839
0.600844
0.600848
0.600853
0.600858
0.600858
0.600862
0.600867
0.600872
0.600876
0.600876
0.600881
0.600886
0.60089
0.600895
0.600895
0.6009
0.600904
0.600909
0.600914
0.600914
0.600918
0.600923
0.600928
0.600932
0.600932
0.600937
0.600942
0.600947
0.600951
0.600951
0.600956
0.600961
0.600966
0.60097
0.60097
0.600975
0.60098
0.600985
0.60099
0.60099
0.600994
0.600999
0.601004
0.601009
0.601009
0.601014
0.601018
0.601023
0.601028
0.601028
0.601033
0.601038
0.601043
0.601047
0.601047
0.601052
0.601057
0.601062
0.601067
0.601067
0.601072
0.601077
0.601082
0.601086
0.601086
0.601091
0.601096
0.601101
0.601106
0.601106
0.601111
0.601116
0.601121
0.601126
0.601126
0.601131
0.601136
0.601141
0.601146
0.601146
0.601151
0.601156
0.601161
0.601166
0.601166
0.601171
0.601176
0.601181
0.601186
0.601186
0.601191
0.601196
0.601201
0.601206
0.601206
0.601211
0.601216
0.601221
0.601226
0.601226
0.601231
0.601236
0.601241
0.601246
0.601246
0.601251
0.601257
0.601262
0.601267
0.601267
0.601272
0.601277
0.601282
0.601287
0.601287
0.601292
0.601298
0.601303
0.601308
0.601308
0.601313
0.601318
0.601323
0.601329
0.601329
0.601334
0.601339
0.601344
0.601349
0.601349
0.601355
0.60136
0.601365
0.60137
0.60137
0.601375
0.601381
0.601386
0.601391
0.601391
0.601396
0.601402
0.601407
0.601412
0.601412
0.601417
0.601423
0.601428
0.601433
0.601433
0.601439
0.601444
0.601449
0.601455
0.601455
0.60146
0.601465
0.601471
0.601476
0.601476
0.601481
0.601487
0.601492
0.601497
0.601497
0.601503
0.601508
0.601513
0.601519
0.601519
0.601524
0.60153
0.601535
0.60154
0.60154
0.601546
0.601551
0.601557
0.601562
0.601562
0.601568
0.601573
0.601579
0.601584
0.601584
0.601589
0.601595
0.6016
0.601606
0.601606
0.601611
0.601617
0.601622
0.601628
0.601628
0.601633
0.601639
0.601644
0.60165
0.60165
0.601656
0.601661
0.601667
0.601672
0.601672
0.601678
0.601683
0.601689
0.601694
0.601694
0.6017
0.601706
0.601711
0.601717
0.601717
0.601722
0.601728
0.601734
0.601739
0.601739
0.601745
0.601751
0.601756
0.601762
0.601762
0.601768
0.601773
0.601779
0.601785
0.601785
0.60179
0.601796
0.601802
0.601807
0.601807
0.601813
0.601819
0.601824
0.60183
0.60183
0.601836
0.601842
0.601847
0.601853
0.601853
0.601859
0.601865
0.60187
0.601876
0.601876
0.601882
0.601888
0.601894
0.601899
0.601899
0.601905
0.601911
0.601917
0.601923
0.601923
0.601928
0.601934
0.60194
0.601946
0.601946
0.601952
0.601958
0.601964
0.601969
0.601969
0.601975
0.601981
0.601987
0.601993
0.601993
0.601999
0.602005
0.602011
0.602017
0.602017
0.602022
0.602028
0.602034
0.60204
0.60204
0.602046
0.602052
0.602058
0.602064
0.602064
0.60207
0.602076
0.602082
0.602088
0.602088
0.602094
0.6021
0.602106
0.602112
0.602112
0.602118
0.602124
0.60213
0.602136
0.602136
0.602142
0.602148
0.602154
0.60216
0.60216
0.602167
0.602173
0.602179
0.602185
0.602185
0.602191
0.602197
0.602203
0.602209
0.602209
0.602215
0.602221
0.602228
0.602234
0.602234
0.60224
0.602246
0.602252
0.602258
0.602258
0.602265
0.602271
0.602277
0.602283
0.602283
0.602289
0.602295
0.602302
0.602308
0.602308
0.602314
0.60232
0.602327
0.602333
0.602333
0.602339
0.602345
0.602352
0.602358
0.602358
0.602364
0.60237
0.602377
0.602383
0.602383
0.602389
0.602396
0.602402
0.602408
0.602408
0.602414
0.602421
0.602427
0.602433
0.602433
0.60244
0.602446
0.602453
0.602459
0.602459
0.602465
0.602472
0.602478
0.602484
0.602484
0.602491
0.602497
0.602504
0.60251
0.60251
0.602516
0.602523
0.602529
0.602536
0.602536
0.602542
0.602549
0.602555
0.602562
0.602562
0.602568
0.602575
0.602581
0.602588
0.602588
0.602594
0.602601
0.602607
0.602614
0.602614
0.60262
0.602627
0.602633
0.60264
0.60264
0.602646
0.602653
0.602659
0.602666
0.602666
0.602673
0.602679
0.602686
0.602692
0.602692
0.602699
0.602705
0.602712
0.602719
0.602719
0.602725
0.602732
0.602739
0.602745
0.602745
0.602752
0.602759
0.602765
0.602772
0.602772
0.602779
0.602785
0.602792
0.602799
0.602799
0.602805
0.602812
0.602819
0.602826
0.602826
0.602832
0.602839
0.602846
0.602852
0.602852
0.602859
0.602866
0.602873
0.60288
0.60288
0.602886
0.602893
0.6029
0.602907
0.602907
0.602913
0.60292
0.602927
0.602934
0.602934
0.602941
0.602948
0.602954
0.602961
0.602961
0.602968
0.602975
0.602982
0.602989
0.602989
0.602996
0.603003
0.603009
0.603016
0.603016
0.603023
0.60303
0.603037
0.603044
0.603044
0.603051
0.603058
0.603065
0.603072
0.603072
0.603079
0.603086
0.603093
0.6031
0.6031
0.603107
0.603114
0.603121
0.603128
0.603128
0.603135
0.603142
0.603149
0.603156
0.603156
0.603163
0.60317
0.603177
0.603184
0.603184
0.603191
0.603198
0.603205
0.603212
0.603212
0.603219
0.603227
0.603234
0.603241
0.603241
0.603248
0.603255
0.603262
0.603269
0.603269
0.603276
0.603284
0.603291
0.603298
0.603298
0.603305
0.603312
0.603319
0.603327
0.603327
0.603334
0.603341
0.603348
0.603356
0.603356
0.603363
0.60337
0.603377
0.603384
0.603384
0.603392
0.603399
0.603406
0.603414
0.603414
0.603421
0.603428
0.603435
0.603443
0.603443
0.60345
0.603457
0.603465
0.603472
0.603472
0.603479
0.603487
0.603494
0.603501
0.603501
0.603509
0.603516
0.603523
0.603531
0.603531
0.603538
0.603546
0.603553
0.60356
0.60356
0.603568
0.603575
0.603583
0.60359
0.60359
0.603598
0.603605
0.603612
0.60362
0.60362
0.603627
0.603635
0.603642
0.60365
0.60365
0.603657
0.603665
0.603672
0.60368
0.60368
0.603687
0.603695
0.603703
0.60371
0.60371
0.603718
0.603725
0.603733
0.60374
0.60374
0.603748
0.603755
0.603763
0.603771
0.603771
0.603778
0.603786
0.603794
0.603801
0.603801
0.603809
0.603816
0.603824
0.603832
0.603832
0.603839
0.603847
0.603855
0.603862
0.603862
0.60387
0.603878
0.603885
0.603893
0.603893
0.603901
0.603909
0.603916
0.603924
0.603924
0.603932
0.60394
0.603947
0.603955
0.603955
0.603963
0.603971
0.603978
0.603986
0.603986
0.603994
0.604002
0.60401
0.604018
0.604018
0.604025
0.604033
0.604041
0.604049
0.604049
0.604057
0.604065
0.604072
0.60408
0.60408
0.604088
0.604096
0.604104
0.604112
0.604112
0.60412
0.604128
0.604136
0.604144
0.604144
0.604152
0.604159
0.604167
0.604175
0.604175
0.604183
0.604191
0.604199
0.604207
0.604207
0.604215
0.604223
0.604231
0.604239
0.604239
0.604247
0.604255
0.604263
0.604271
0.604271
0.60428
0.604288
0.604296
0.604304
0.604304
0.604312
0.60432
0.604328
0.604336
0.604336
0.604344
0.604352
0.60436
0.604368
0.604368
0.604376
0.604385
0.604393
0.604401
0.604401
0.604409
0.604417
0.604425
0.604433
0.604433
0.604441
0.604449
0.604457
0.604466
0.604466
0.604474
0.604483
0.604491
0.604499
0.604499
0.604508
0.604516
0.604524
0.604533
0.604533
0.604541
0.604549
0.604558
0.604566
0.604566
0.604574
0.604582
0.604591
0.604599
0.604599
0.604607
0.604616
0.604624
0.604633
0.604633
0.604641
0.604649
0.604658
0.604666
0.604666
0.604674
0.604683
0.604691
0.6047
0.6047
0.604708
0.604717
0.604725
0.604733
0.604733
0.604742
0.60475
0.604759
0.604767
0.604767
0.604776
0.604784
0.604793
0.604801
0.604801
0.60481
0.604818
0.604827
0.604835
0.604835
0.604844
0.604852
0.604861
0.60487
0.60487
0.604878
0.604887
0.604895
0.604904
0.604904
0.604912
0.604921
0.60493
0.604938
0.604938
0.604947
0.604956
0.604964
0.604973
0.604973
0.604982
0.60499
0.604999
0.605008
0.605008
0.605016
0.605025
0.605034
0.605042
0.605042
0.605051
0.60506
0.605069
0.605077
0.605077
0.605086
0.605095
0.605104
0.605112
0.605112
0.605121
0.60513
0.605139
0.605147
0.605147
0.605156
0.605165
0.605174
0.605183
0.605183
0.605192
0.6052
0.605209
0.605218
0.605218
0.605227
0.605236
0.605245
0.605254
0.605254
0.605263
0.605271
0.60528
0.605289
0.605289
0.605298
0.605307
0.605316
0.605325
0.605325
0.605334
0.605343
0.605352
0.605361
0.605361
0.60537
0.605379
0.605388
0.605397
0.605397
0.605406
0.605415
0.605424
0.605433
0.605433
0.605442
0.605451
0.60546
0.605469
0.605469
0.605478
0.605487
0.605497
0.605506
0.605506
0.605515
0.605524
0.605533
0.605542
0.605542
0.605551
0.60556
0.60557
0.605579
0.605579
0.605588
0.605597
0.605606
0.605615
0.605615
0.605625
0.605634
0.605643
0.605652
0.605652
0.605662
0.605671
0.60568
0.605689
0.605689
0.605699
0.605708
0.605717
0.605726
0.605726
0.605736
0.605745
0.605754
0.605764
0.605764
0.605773
0.605782
0.605792
0.605801
0.605801
0.60581
0.60582
0.605829
0.605838
0.605838
0.605848
0.605857
0.605867
0.605876
0.605876
0.605885
0.605895
0.605904
0.605914
0.605914
0.605923
0.605933
0.605942
0.605951
0.605951
0.605961
0.60597
0.60598
0.605989
0.605989
0.605999
0.606008
0.606018
0.606028
0.606028
0.606037
0.606047
0.606056
0.606066
0.606066
0.606075
0.606085
0.606094
0.606104
0.606104
0.606114
0.606123
0.606133
0.606143
0.606143
0.606152
0.606162
0.606171
0.606181
0.606181
0.606191
0.6062
0.60621
0.60622
0.60622
0.60623
0.606239
0.606249
0.606259
0.606259
0.606268
0.606278
0.606288
0.606298
0.606298
0.606307
0.606317
0.606327
0.606337
0.606337
0.606346
0.606356
0.606366
0.606376
0.606376
0.606386
0.606396
0.606405
0.606415
0.606415
0.606425
0.606435
0.606445
0.606455
0.606455
0.606465
0.606475
0.606484
0.606494
0.606494
0.606504
0.606514
0.606524
0.606534
0.606534
0.606544
0.606554
0.606564
0.606574
0.606574
0.606584
0.606594
0.606604
0.606614
0.606614
0.606624
0.606634
0.606644
0.606654
0.606654
0.606664
0.606674
0.606684
0.606694
0.606694
0.606704
0.606714
0.606725
0.606735
0.606735
0.606745
0.606755
0.606765
0.606775
0.606775
0.606785
0.606795
0.606806
0.606816
0.606816
0.606826
0.606836
0.606846
0.606857
0.606857
0.606867
0.606877
0.606887
0.606897
0.606897
0.606908
0.606918
0.606928
0.606938
0.606938
0.606949
0.606959
0.606969
0.60698
0.60698
0.60699
0.607
0.607011
0.607021
0.607021
0.607031
0.607042
0.607052
0.607062
0.607062
0.607073
0.607083
0.607093
0.607104
0.607104
0.607114
0.607125
0.607135
0.607146
0.607146
0.607156
0.607166
0.607177
0.607187
0.607187
0.607198
0.607208
0.607219
0.607229
0.607229
0.60724
0.60725
0.607261
0.607271
0.607271
0.607282
0.607293
0.607303
0.607314
0.607314
0.607324
0.607335
0.607345
0.607356
0.607356
0.607367
0.607377
0.607388
0.607398
0.607398
0.607409
0.60742
0.60743
0.607441
0.607441
0.607452
0.607462
0.607473
0.607484
0.607484
0.607495
0.607505
0.607516
0.607527
0.607527
0.607538
0.607548
0.607559
0.60757
0.60757
0.607581
0.607591
0.607602
0.607613
0.607613
0.607624
0.607635
0.607645
0.607656
0.607656
0.607667
0.607678
0.607689
0.6077
0.6077
0.607711
0.607721
0.607732
0.607743
0.607743
0.607754
0.607765
0.607776
0.607787
0.607787
0.607798
0.607809
0.60782
0.607831
0.607831
0.607842
0.607853
0.607864
0.607875
0.607875
0.607886
0.607897
0.607908
0.607919
0.607919
0.60793
0.607941
0.607952
0.607963
0.607963
0.607974
0.607985
0.607996
0.608008
0.608008
0.608019
0.60803
0.608041
0.608052
0.608052
0.608063
0.608074
0.608086
0.608097
0.608097
0.608108
0.608119
0.60813
0.608142
0.608142
0.608153
0.608164
0.608175
0.608187
0.608187
0.608198
0.608209
0.60822
0.608232
0.608232
0.608243
0.608254
0.608266
0.608277
0.608277
0.608288
0.6083
0.608311
0.608322
0.608322
0.608334
0.608345
0.608356
0.608368
0.608368
0.608379
0.608391
0.608402
0.608413
0.608413
0.608425
0.608436
0.608448
0.608459
0.608459
0.608471
0.608482
0.608494
0.608505
0.608505
0.608517
0.608528
0.60854
0.608551
0.608551
0.608563
0.608574
0.608586
0.608597
0.608597
0.608609
0.608621
0.608632
0.608644
0.608644
0.608655
0.608667
0.608679
0.60869
0.60869
0.608702
0.608714
0.608725
0.608737
0.608737
0.608749
0.60876
0.608772
0.608784
0.608784
0.608796
0.608807
0.608819
0.608831
0.608831
0.608843
0.608854
0.608866
0.608878
0.608878
0.60889
0.608901
0.608913
0.608925
0.608925
0.608937
0.608949
0.608961
0.608972
0.608972
0.608984
0.608996
0.609008
0.60902
0.60902
0.609032
0.609044
0.609056
0.609068
0.609068
0.609079
0.609091
0.609103
0.609115
0.609115
0.609127
0.609139
0.609151
0.609163
0.609163
0.609174
0.609186
0.609198
0.60921
0.60921
0.609222
0.609234
0.609247
0.609259
0.609259
0.609271
0.609283
0.609296
0.609308
0.609308
0.60932
0.609332
0.609344
0.609357
0.609357
0.609369
0.609381
0.609393
0.609405
0.609405
0.609418
0.60943
0.609442
0.609454
0.609454
0.609466
0.609479
0.609491
0.609503
0.609503
0.609516
0.609528
0.60954
0.609552
0.609552
0.609565
0.609577
0.609589
0.609602
0.609602
0.609614
0.609626
0.609639
0.609651
0.609651
0.609664
0.609676
0.609688
0.609701
0.609701
0.609713
0.609726
0.609738
0.60975
0.60975
0.609763
0.609775
0.609788
0.6098
0.6098
0.609813
0.609825
0.609838
0.60985
0.60985
0.609863
0.609875
0.609888
0.609901
0.609901
0.609913
0.609926
0.609938
0.609951
0.609951
0.609964
0.609976
0.609989
0.610001
0.610001
0.610014
0.610027
0.610039
0.610052
0.610052
0.610065
0.610077
0.61009
0.610103
0.610103
0.610116
0.610128
0.610141
0.610154
0.610154
0.610167
0.610179
0.610192
0.610205
0.610205
0.610218
0.610231
0.610243
0.610256
0.610256
0.610269
0.610282
0.610295
0.610308
0.610308
0.610321
0.610333
0.610346
0.610359
0.610359
0.610372
0.610385
0.610398
0.610411
0.610411
0.610424
0.610437
0.61045
0.610463
0.610463
0.610476
0.610489
0.610502
0.610515
0.610515
0.610528
0.610541
0.610554
0.610567
0.610567
0.61058
0.610593
0.610606
0.610619
0.610619
0.610633
0.610646
0.610659
0.610672
0.610672
0.610685
0.610698
0.610711
0.610725
0.610725
0.610738
0.610751
0.610764
0.610777
0.610777
0.610791
0.610804
0.610817
0.61083
0.61083
0.610844
0.610857
0.61087
0.610884
0.610884
0.610897
0.61091
0.610923
0.610937
0.610937
0.61095
0.610964
0.610977
0.61099
0.61099
0.611004
0.611017
0.61103
0.611044
0.611044
0.611057
0.611071
0.611084
0.611098
0.611098
0.611111
0.611125
0.611138
0.611152
0.611152
0.611165
0.611179
0.611192
0.611206
0.611206
0.611219
0.611233
0.611246
0.61126
0.61126
0.611274
0.611287
0.611301
0.611314
0.611314
0.611328
0.611342
0.611355
0.611369
0.611369
0.611383
0.611396
0.61141
0.611424
0.611424
0.611437
0.611451
0.611465
0.611479
0.611479
0.611492
0.611506
0.61152
0.611534
0.611534
0.611547
0.611561
0.611575
0.611589
0.611589
0.611603
0.611617
0.61163
0.611644
0.611644
0.611658
0.611672
0.611686
0.6117
0.6117
0.611714
0.611728
0.611742
0.611756
0.611756
0.611769
0.611783
0.611797
0.611811
0.611811
0.611825
0.611839
0.611853
0.611867
0.611867
0.611881
0.611896
0.61191
0.611924
0.611924
0.611938
0.611952
0.611966
0.61198
0.61198
0.611994
0.612008
0.612022
0.612037
0.612037
0.612051
0.612065
0.612079
0.612093
0.612093
0.612108
0.612122
0.612136
0.61215
0.61215
0.612164
0.612179
0.612193
0.612207
0.612207
0.612222
0.612236
0.61225
0.612264
0.612264
0.612279
0.612293
0.612307
0.612322
0.612322
0.612336
0.612351
0.612365
0.612379
0.612379
0.612394
0.612408
0.612423
0.612437
0.612437
0.612452
0.612466
0.61248
0.612495
0.612495
0.612509
0.612524
0.612538
0.612553
0.612553
0.612568
0.612582
0.612597
0.612611
0.612611
0.612626
0.61264
0.612655
0.61267
0.61267
0.612684
0.612699
0.612714
0.612728
0.612728
0.612743
0.612758
0.612772
0.612787
0.612787
0.612802
0.612816
0.612831
0.612846
0.612846
0.612861
0.612875
0.61289
0.612905
0.612905
0.61292
0.612935
0.612949
0.612964
0.612964
0.612979
0.612994
0.613009
0.613024
0.613024
0.613038
0.613053
0.613068
0.613083
0.613083
0.613098
0.613113
0.613128
0.613143
0.613143
0.613158
0.613173
0.613188
0.613203
0.613203
0.613218
0.613233
0.613248
0.613263
0.613263
0.613278
0.613293
0.613308
0.613323
0.613323
0.613338
0.613354
0.613369
0.613384
0.613384
0.613399
0.613414
0.613429
0.613444
0.613444
0.61346
0.613475
0.61349
0.613505
0.613505
0.613521
0.613536
0.613551
0.613566
0.613566
0.613582
0.613597
0.613612
0.613627
0.613627
0.613643
0.613658
0.613673
0.613689
0.613689
0.613704
0.61372
0.613735
0.61375
0.61375
0.613766
0.613781
0.613797
0.613812
0.613812
0.613827
0.613843
0.613858
0.613874
0.613874
0.613889
0.613905
0.61392
0.613936
0.613936
0.613952
0.613967
0.613983
0.613998
0.613998
0.614014
0.614029
0.614045
0.614061
0.614061
0.614076
0.614092
0.614108
0.614123
0.614123
0.614139
0.614155
0.61417
0.614186
0.614186
0.614202
0.614218
0.614233
0.614249
0.614249
0.614265
0.614281
0.614296
0.614312
0.614312
0.614328
0.614344
0.61436
0.614375
0.614375
0.614391
0.614407
0.614423
0.614439
0.614439
0.614454
0.61447
0.614486
0.614502
0.614502
0.614518
0.614533
0.614549
0.614565
0.614565
0.614581
0.614597
0.614613
0.614629
0.614629
0.614646
0.614662
0.614678
0.614694
0.614694
0.614711
0.614727
0.614743
0.614759
0.614759
0.614775
0.614791
0.614808
0.614824
0.614824
0.61484
0.614856
0.614872
0.614889
0.614889
0.614905
0.614921
0.614937
0.614954
0.614954
0.61497
0.614986
0.615003
0.615019
0.615019
0.615035
0.615052
0.615068
0.615084
0.615084
0.615101
0.615117
0.615133
0.61515
0.61515
0.615166
0.615183
0.615199
0.615216
0.615216
0.615232
0.615248
0.615265
0.615281
0.615281
0.615298
0.615314
0.615331
0.615348
0.615348
0.615364
0.615381
0.615397
0.615414
0.615414
0.61543
0.615447
0.615464
0.61548
0.61548
0.615497
0.615514
0.61553
0.615547
0.615547
0.615564
0.61558
0.615597
0.615614
0.615614
0.615631
0.615647
0.615664
0.615681
0.615681
0.615698
0.615715
0.615731
0.615748
0.615748
0.615765
0.615782
0.615799
0.615816
0.615816
0.615833
0.615849
0.615866
0.615883
0.615883
0.6159
0.615917
0.615934
0.615951
0.615951
0.615968
0.615985
0.616002
0.616019
0.616019
0.616036
0.616053
0.61607
0.616087
0.616087
0.616104
0.616122
0.616139
0.616156
0.616156
0.616173
0.61619
0.616207
0.616224
0.616224
0.616242
0.616259
0.616276
0.616293
0.616293
0.61631
0.616328
0.616345
0.616362
0.616362
0.616379
0.616397
0.616414
0.616431
0.616431
0.616449
0.616466
0.616483
0.616501
0.616501
0.616518
0.616535
0.616553
0.61657
0.61657
0.616588
0.616605
0.616623
0.61664
0.61664
0.616658
0.616675
0.616693
0.61671
0.61671
0.616728
0.616745
0.616763
0.61678
0.61678
0.616798
0.616815
0.616833
0.616851
0.616851
0.616868
0.616886
0.616904
0.616921
0.616921
0.616939
0.616957
0.616974
0.616992
0.616992
0.61701
0.617027
0.617045
0.617063
0.617063
0.617081
0.617098
0.617116
0.617134
0.617134
0.617152
0.61717
0.617188
0.617205
0.617205
0.617223
0.617241
0.617259
0.617277
0.617277
0.617295
0.617313
0.617331
0.617349
0.617349
0.617367
0.617385
0.617403
0.617421
0.617421
0.617439
0.617457
0.617475
0.617493
0.617493
0.617511
0.617529
0.617547
0.617565
0.617565
0.617583
0.617602
0.61762
0.617638
0.617638
0.617656
0.617674
0.617693
0.617711
0.617711
0.617729
0.617747
0.617765
0.617784
0.617784
0.617802
0.61782
0.617839
0.617857
0.617857
0.617875
0.617894
0.617912
0.61793
0.61793
0.617949
0.617967
0.617986
0.618004
0.618004
0.618022
0.618041
0.618059
0.618078
0.618078
0.618096
0.618115
0.618133
0.618152
0.618152
0.61817
0.618189
0.618207
0.618226
0.618226
0.618245
0.618263
0.618282
0.6183
0.6183
0.618319
0.618338
0.618356
0.618375
0.618375
0.618394
0.618413
0.618431
0.61845
0.61845
0.618469
0.618488
0.618506
0.618525
0.618525
0.618544
0.618563
0.618582
0.6186
0.6186
0.618619
0.618638
0.618657
0.618676
0.618676
0.618695
0.618714
0.618733
0.618752
0.618752
0.618771
0.618789
0.618808
0.618827
0.618827
0.618846
0.618866
0.618885
0.618904
0.618904
0.618923
0.618942
0.618961
0.61898
0.61898
0.618999
0.619018
0.619037
0.619057
0.619057
0.619076
0.619095
0.619114
0.619133
0.619133
0.619152
0.619172
0.619191
0.61921
0.61921
0.61923
0.619249
0.619268
0.619287
0.619287
0.619307
0.619326
0.619345
0.619365
0.619365
0.619384
0.619404
0.619423
0.619442
0.619442
0.619462
0.619481
0.619501
0.61952
0.61952
0.61954
0.619559
0.619579
0.619598
0.619598
0.619618
0.619638
0.619657
0.619677
0.619677
0.619696
0.619716
0.619736
0.619755
0.619755
0.619775
0.619795
0.619814
0.619834
0.619834
0.619854
0.619873
0.619893
0.619913
0.619913
0.619933
0.619952
0.619972
0.619992
0.619992
0.620012
0.620032
0.620051
0.620071
0.620071
0.620091
0.620111
0.620131
0.620151
0.620151
0.620171
0.620191
0.620211
0.620231
0.620231
0.620251
0.620271
0.620291
0.62031
0.62031
0.62033
0.62035
0.62037
0.62039
0.62039
0.62041
0.62043
0.62045
0.62047
0.62047
0.62049
0.62051
0.62053
0.62055
0.62055
0.620571
0.620591
0.620612
0.620632
0.620632
0.620653