<?xml version="1.0"?>
<VTKFile type="UnstructuredGrid" version="0.1" byte_order="LittleEndian">
<UnstructuredGrid>
<Piece NumberOfPoints="5000" NumberOfCells="4000">
<PointData Scalars="Reaction 0">
<DataArray type="Float32" Name="Reaction 0" format="ascii">
0.511563
0.511563
0.511563
0.511563
0.511563
0.511563
0.511563
0.511564
0.511564
0.511564
0.511564
0.511565
0.511565
0.511565
0.511566
0.511566
0.511566
0.511567
0.511568
0.511568
0.511568
0.511569
0.51157
0.51157
0.511571
0.511571
0.511572
0.511573
0.511574
0.511575
0.511575
0.511576
0.511577
0.511578
0.511579
0.511579
0.511581
0.511582
0.511583
0.511584
0.511584
0.511586
0.511587
0.511589
0.51159
0.51159
0.511592
0.511593
0.511595
0.511597
0.511597
0.511598
0.5116
0.511602
0.511604
0.511604
0.511605
0.511607
0.511609
0.511611
0.511611
0.511613
0.511615
0.511618
0.51162
0.51162
0.511622
0.511624
0.511627
0.511629
0.511629
0.511631
0.511634
0.511636
0.511639
0.511639
0.511641
0.511644
0.511646
0.511649
0.511649
0.511652
0.511655
0.511657
0.51166
0.51166
0.511663
0.511666
0.511669
0.511672
0.511672
0.511675
0.511678
0.511681
0.511684
0.511684
0.511688
0.511691
0.511694
0.511698
0.511698
0.511701
0.511704
0.511708
0.511711
0.511711
0.511715
0.511719
0.511722
0.511726
0.511726
0.51173
0.511733
0.511737
0.511741
0.511741
0.511745
0.511749
0.511753
0.511757
0.511757
0.511761
0.511765
0.511769
0.511773
0.511773
0.511778
0.511782
0.511786
0.511791
0.511791
0.511795
0.511799
0.511804
0.511808
0.511808
0.511813
0.511818
0.511822
0.511827
0.511827
0.511832
0.511836
0.511841
0.511846
0.511846
0.511851
0.511856
0.511861
0.511866
0.511866
0.511871
0.511876
0.511881
0.511887
0.511887
0.511892
0.511897
0.511902
0.511908
0.511908
0.511913
0.511919
0.511924
0.51193
0.51193
0.511935
0.511941
0.511947
0.511952
0.511952
0.511958
0.511964
0.51197
0.511976
0.511976
0.511982
0.511987
0.511994
0.512
0.512
0.512006
0.512012
0.512018
0.512024
0.512024
0.51203
0.512037
0.512043
0.512049
0.512049
0.512056
0.512062
0.512069
0.512075
0.512075
0.512082
0.512089
0.512095
0.512102
0.512102
0.512109
0.512116
0.512122
0.512129
0.512129
0.512136
0.512143
0.51215
0.512157
0.512157
0.512164
0.512172
0.512179
0.512186
0.512186
0.512193
0.512201
0.512208
0.512215
0.512215
0.512223
0.51223
0.512238
0.512245
0.512245
0.512253
0.512261
0.512268
0.512276
0.512276
0.512284
0.512292
0.5123
0.512307
0.512307
0.512315
0.512323
0.512331
0.512339
0.512339
0.512348
0.512356
0.512364
0.512372
0.512372
0.51238
0.512389
0.512397
0.512406
0.512406
0.512414
0.512423
0.512431
0.51244
0.51244
0.512448
0.512457
0.512466
0.512474
0.512474
0.512483
0.512492
0.512501
0.51251
0.51251
0.512519
0.512528
0.512537
0.512546
0.512546
0.512555
0.512564
0.512574
0.512583
0.512583
0.512592
0.512601
0.512611
0.51262
0.51262
0.51263
0.512639
0.512649
0.512658
0.512658
0.512668
0.512678
0.512687
0.512697
0.512697
0.512707
0.512717
0.512727
0.512737
0.512737
0.512747
0.512757
0.512767
0.512777
0.512777
0.512787
0.512797
0.512807
0.512818
0.512818
0.512828
0.512838
0.512849
0.512859
0.512859
0.51287
0.51288
0.512891
0.512901
0.512901
0.512912
0.512923
0.512934
0.512944
0.512944
0.512955
0.512966
0.512977
0.512988
0.512988
0.512999
0.51301
0.513021
0.513032
0.513032
0.513043
0.513055
0.513066
0.513077
0.513077
0.513088
0.5131
0.513111
0.513123
0.513123
0.513134
0.513146
0.513157
0.513169
0.513169
0.513181
0.513192
0.513204
0.513216
0.513216
0.513228
0.51324
0.513252
0.513264
0.513264
0.513276
0.513288
0.5133
0.513312
0.513312
0.513324
0.513336
0.513349
0.513361
0.513361
0.513373
0.513386
0.513398
0.513411
0.513411
0.513423
0.513436
0.513448
0.513461
0.513461
0.513474
0.513487
0.513499
0.513512
0.513512
0.513525
0.513538
0.513551
0.513564
0.513564
0.513577
0.51359
0.513603
0.513616
0.513616
0.513629
0.513643
0.513656
0.513669
0.513669
0.513683
0.513696
0.51371
0.513723
0.513723
0.513737
0.51375
0.513764
0.513778
0.513778
0.513791
0.513805
0.513819
0.513833
0.513833
0.513847
0.513861
0.513875
0.513889
0.513889
0.513903
0.513917
0.513931
0.513945
0.513945
0.513959
0.513974
0.513988
0.514002
0.514002
0.514017
0.514031
0.514046
0.51406
0.51406
0.514075
0.514089
0.514104
0.514119
0.514119
0.514134
0.514148
0.514163
0.514178
0.514178
0.514193
0.514208
0.514223
0.514238
0.514238
0.514253
0.514268
0.514283
0.514299
0.514299
0.514314
0.514329
0.514344
0.51436
0.51436
0.514375
0.514391
0.514406
0.514422
0.514422
0.514437
0.514453
0.514469
0.514485
0.514485
0.5145
0.514516
0.514532
0.514548
0.514548
0.514564
0.51458
0.514596
0.514612
0.514612
0.514628
0.514644
0.51466
0.514677
0.514677
0.514693
0.514709
0.514726
0.514742
0.514742
0.514759
0.514775
0.514792
0.514808
0.514808
0.514825
0.514841
0.514858
0.514875
0.514875
0.514892
0.514909
0.514926
0.514942
0.514942
0.514959
0.514976
0.514993
0.515011
0.515011
0.515028
0.515045
0.515062
0.515079
0.515079
0.515097
0.515114
0.515132
0.515149
0.515149
0.515166
0.515184
0.515202
0.515219
0.515219
0.515237
0.515255
0.515272
0.51529
0.51529
0.515308
0.515326
0.515344
0.515362
0.515362
0.51538
0.515398
0.515416
0.515434
0.515434
0.515452
0.51547
0.515489
0.515507
0.515507
0.515525
0.515544
0.515562
0.515581
0.515581
0.515599
0.515618
0.515636
0.515655
0.515655
0.515674
0.515692
0.515711
0.51573
0.51573
0.515749
0.515768
0.515787
0.515806
0.515806
0.515825
0.515844
0.515863
0.515882
0.515882
0.515901
0.515921
0.51594
0.515959
0.515959
0.515979
0.515998
0.516018
0.516037
0.516037
0.516057
0.516076
0.516096
0.516116
0.516116
0.516135
0.516155
0.516175
0.516195
0.516195
0.516215
0.516235
0.516255
0.516275
0.516275
0.516295
0.516315
0.516335
0.516355
0.516355
0.516376
0.516396
0.516416
0.516437
0.516437
0.516457
0.516478
0.516498
0.516519
0.516519
0.516539
0.51656
0.516581
0.516601
0.516601
0.516622
0.516643
0.516664
0.516685
0.516685
0.516706
0.516727
0.516748
0.516769
0.516769
0.51679
0.516811
0.516832
0.516853
0.516853
0.516875
0.516896
0.516918
0.516939
0.516939
0.51696
0.516982
0.517003
0.517025
0.517025
0.517047
0.517068
0.51709
0.517112
0.517112
0.517134
0.517156
0.517178
0.517199
0.517199
0.517221
0.517243
0.517266
0.517288
0.517288
0.51731
0.517332
0.517354
0.517377
0.517377
0.517399
0.517421
0.517444
0.517466
0.517466
0.517489
0.517511
0.517534
0.517557
0.517557
0.517579
0.517602
0.517625
0.517648
0.517648
0.51767
0.517693
0.517716
0.517739
0.517739
0.517762
0.517785
0.517809
0.517832
0.517832
0.517855
0.517878
0.517901
0.517925
0.517925
0.517948
0.517972
0.517995
0.518019
0.518019
0.518042
0.518066
0.518089
0.518113
0.518113
0.518137
0.518161
0.518185
0.518208
0.518208
0.518232
0.518256
0.51828
0.518304
0.518304
0.518328
0.518353
0.518377
0.518401
0.518401
0.518425
0.518449
0.518474
0.518498
0.518498
0.518523
0.518547
0.518572
0.518596
0.518596
0.518621
0.518646
0.51867
0.518695
0.518695
0.51872
0.518745
0.518769
0.518794
0.518794
0.518819
0.518844
0.518869
0.518895
0.518895
0.51892
0.518945
0.51897
0.518995
0.518995
0.519021
0.519046
0.519071
0.519097
0.519097
0.519122
0.519148
0.519174
0.519199
0.519199
0.519225
0.519251
0.519276
0.519302
0.519302
0.519328
0.519354
0.51938
0.519406
0.519406
0.519432
0.519458
0.519484
0.51951
0.51951
0.519536
0.519563
0.519589
0.519615
0.519615
0.519642
0.519668
0.519694
0.519721
0.519721
0.519747
0.519774
0.519801
0.519827
0.519827
0.519854
0.519881
0.519908
0.519935
0.519935
0.519962
0.519988
0.520015
0.520042
0.520042
0.52007
0.520097
0.520124
0.520151
0.520151
0.520178
0.520206
0.520233
0.52026
0.52026
0.520288
0.520315
0.520343
0.52037
0.52037
0.520398
0.520426
0.520453
0.520481
0.520481
0.520509
0.520537
0.520565
0.520593
0.520593
0.520621
0.520649
0.520677
0.520705
0.520705
0.520733
0.520761
0.520789
0.520818
0.520818
0.520846
0.520874
0.520903
0.520931
0.520931
0.52096
0.520988
0.521017
0.521045
0.521045
0.521074
0.521103
0.521132
0.52116
0.52116
0.521189
0.521218
0.521247
0.521276
0.521276
0.521305
0.521334
0.521363
0.521393
0.521393
0.521422
0.521451
0.52148
0.52151
0.52151
0.521539
0.521569
0.521598
0.521628
0.521628
0.521657
0.521687
0.521716
0.521746
0.521746
0.521776
0.521806
0.521836
0.521865
0.521865
0.521895
0.521925
0.521955
0.521985
0.521985
0.522016
0.522046
0.522076
0.522106
0.522106
0.522136
0.522167
0.522197
0.522228
0.522228
0.522258
0.522289
0.522319
0.52235
0.52235
0.52238
0.522411
0.522442
0.522473
0.522473
0.522503
0.522534
0.522565
0.522596
0.522596
0.522627
0.522658
0.522689
0.522721
0.522721
0.522752
0.522783
0.522814
0.522846
0.522846
0.522877
0.522908
0.52294
0.522971
0.522971
0.523003
0.523034
0.523066
0.523098
0.523098
0.523129
0.523161
0.523193
0.523225
0.523225
0.523257
0.523289
0.523321
0.523353
0.523353
0.523385
0.523417
0.523449
0.523481
0.523481
0.523514
0.523546
0.523578
0.523611
0.523611
0.523643
0.523676
0.523708
0.523741
0.523741
0.523774
0.523806
0.523839
0.523872
0.523872
0.523905
0.523937
0.52397
0.524003
0.524003
0.524036
0.524069
0.524102
0.524136
0.524136
0.524169
0.524202
0.524235
0.524268
0.524268
0.524302
0.524335
0.524369
0.524402
0.524402
0.524436
0.524469
0.524503
0.524537
0.524537
0.52457
0.524604
0.524638
0.524672
0.524672
0.524706
0.52474
0.524774
0.524808
0.524808
0.524842
0.524876
0.52491
0.524944
0.524944
0.524979
0.525013
0.525047
0.525082
0.525082
0.525116
0.525151
0.525185
0.52522
0.52522
0.525254
0.525289
0.525324
0.525359
0.525359
0.525393
0.525428
0.525463
0.525498
0.525498
0.525533
0.525568
0.525603
0.525638
0.525638
0.525673
0.525709
0.525744
0.525779
0.525779
0.525815
0.52585
0.525886
0.525921
0.525921
0.525957
0.525992
0.526028
0.526064
0.526064
0.526099
0.526135
0.526171
0.526207
0.526207
0.526243
0.526279
0.526315
0.526351
0.526351
0.526387
0.526423
0.526459
0.526495
0.526495
0.526532
0.526568
0.526604
0.526641
0.526641
0.526677
0.526714
0.52675
0.526787
0.526787
0.526823
0.52686
0.526897
0.526934
0.526934
0.526971
0.527007
0.527044
0.527081
0.527081
0.527118
0.527155
0.527193
0.52723
0.52723
0.527267
0.527304
0.527341
0.527379
0.527379
0.527416
0.527454
0.527491
0.527529
0.527529
0.527566
0.527604
0.527641
0.527679
0.527679
0.527717
0.527755
0.527793
0.52783
0.52783
0.527868
0.527906
0.527944
0.527983
0.527983
0.528021
0.528059
0.528097
0.528135
0.528135
0.528174
0.528212
0.52825
0.528289
0.528289
0.528327
0.528366
0.528405
0.528443
0.528443
0.528482
0.528521
0.528559
0.528598
0.528598
0.528637
0.528676
0.528715
0.528754
0.528754
0.528793
0.528832
0.528871
0.52891
0.52891
0.52895
0.528989
0.529028
0.529068
0.529068
0.529107
0.529147
0.529186
0.529226
0.529226
0.529265
0.529305
0.529345
0.529385
0.529385
0.529424
0.529464
0.529504
0.529544
0.529544
0.529584
0.529624
0.529664
0.529704
0.529704
0.529744
0.529785
0.529825
0.529865
0.529865
0.529906
0.529946
0.529987
0.530027
0.530027
0.530068
0.530108
0.530149
0.53019
0.53019
0.53023
0.530271
0.530312
0.530353
0.530353
0.530394
0.530435
0.530476
0.530517
0.530517
0.530558
0.530599
0.53064
0.530682
0.530682
0.530723
0.530764
0.530806
0.530847
0.530847
0.530889
0.53093
0.530972
0.531013
0.531013
0.531055
0.531097
0.531139
0.53118
0.53118
0.531222
0.531264
0.531306
0.531348
0.531348
0.53139
0.531432
0.531474
0.531517
0.531517
0.531559
0.531601
0.531644
0.531686
0.531686
0.531728
0.531771
0.531813
0.531856
0.531856
0.531899
0.531941
0.531984
0.532027
0.532027
0.53207
0.532113
0.532155
0.532198
0.532198
0.532241
0.532284
0.532328
0.532371
0.532371
0.532414
0.532457
0.5325
0.532544
0.532544
0.532587
0.532631
0.532674
0.532718
0.532718
0.532761
0.532805
0.532849
0.532892
0.532892
0.532936
0.53298
0.533024
0.533068
0.533068
0.533112
0.533156
0.5332
0.533244
0.533244
0.533288
0.533332
0.533376
0.533421
0.533421
0.533465
0.53351
0.533554
0.533598
0.533598
0.533643
0.533688
0.533732
0.533777
0.533777
0.533822
0.533866
0.533911
0.533956
0.533956
0.534001
0.534046
0.534091
0.534136
0.534136
0.534181
0.534226
0.534272
0.534317
0.534317
0.534362
0.534407
0.534453
0.534498
0.534498
0.534544
0.534589
0.534635
0.534681
0.534681
0.534726
0.534772
0.534818
0.534864
0.534864
0.53491
0.534956
0.535001
0.535048
0.535048
0.535094
0.53514
0.535186
0.535232
0.535232
0.535278
0.535325
0.535371
0.535418
0.535418
0.535464
0.53551
0.535557
0.535604
0.535604
0.53565
0.535697
0.535744
0.535791
0.535791
0.535837
0.535884
0.535931
0.535978
0.535978
0.536025
0.536072
0.53612
0.536167
0.536167
0.536214
0.536261
0.536309
0.536356
0.536356
0.536403
0.536451
0.536499
0.536546
0.536546
0.536594
0.536641
0.536689
0.536737
0.536737
0.536785
0.536833
0.536881
0.536929
0.536929
0.536977
0.537025
0.537073
0.537121
0.537121
0.537169
0.537217
0.537266
0.537314
0.537314
0.537362
0.537411
0.537459
0.537508
0.537508
0.537557
0.537605
0.537654
0.537703
0.537703
0.537752
0.5378
0.537849
0.537898
0.537898
0.537947
0.537996
0.538045
0.538095
0.538095
0.538144
0.538193
0.538242
0.538292
0.538292
0.538341
0.53839
0.53844
0.53849
0.53849
0.538539
0.538589
0.538638
0.538688
0.538688
0.538738
0.538788
0.538838
0.538888
0.538888
0.538938
0.538988
0.539038
0.539088
0.539088
0.539138
0.539188
0.539239
0.539289
0.539289
0.539339
0.53939
0.53944
0.539491
0.539491
0.539541
0.539592
0.539643
0.539693
0.539693
0.539744
0.539795
0.539846
0.539897
0.539897
0.539948
0.539999
0.54005
0.540101
0.540101
0.540152
0.540203
0.540255
0.540306
0.540306
0.540357
0.540409
0.54046
0.540512
0.540512
0.540563
0.540615
0.540667
0.540718
0.540718
0.54077
0.540822
0.540874
0.540926
0.540926
0.540978
0.54103
0.541082
0.541134
0.541134
0.541186
0.541238
0.541291
0.541343
0.541343
0.541395
0.541448
0.5415
0.541553
0.541553
0.541605
0.541658
0.541711
0.541763
0.541763
0.541816
0.541869
0.541922
0.541975
0.541975
0.542028
0.542081
0.542134
0.542187
0.542187
0.54224
0.542293
0.542347
0.5424
0.5424
0.542453
0.542507
0.54256
0.542614
0.542614
0.542667
0.542721
0.542775
0.542828
0.542828
0.542882
0.542936
0.54299
0.543044
0.543044
0.543098
0.543152
0.543206
0.54326
0.54326
0.543314
0.543369
0.543423
0.543477
0.543477
0.543532
0.543586
0.543641
0.543695
0.543695
0.54375
0.543804
0.543859
0.543914
0.543914
0.543969
0.544023
0.544078
0.544133
0.544133
0.544188
0.544243
0.544298
0.544354
0.544354
0.544409
0.544464
0.544519
0.544575
0.544575
0.54463
0.544686
0.544741
0.544797
0.544797
0.544852
0.544908
0.544964
0.545019
0.545019
0.545075
0.545131
0.545187
0.545243
0.545243
0.545299
0.545355
0.545411
0.545467
0.545467
0.545524
0.54558
0.545636
0.545693
0.545693
0.545749
0.545805
0.545862
0.545919
0.545919
0.545975
0.546032
0.546089
0.546145
0.546145
0.546202
0.546259
0.546316
0.546373
0.546373
0.54643
0.546487
0.546544
0.546602
0.546602
0.546659
0.546716
0.546774
0.546831
0.546831
0.546888
0.546946
0.547004
0.547061
0.547061
0.547119
0.547177
0.547234
0.547292
0.547292
0.54735
0.547408
0.547466
0.547524
0.547524
0.547582
0.54764
0.547698
0.547757
0.547757
0.547815
0.547873
0.547932
0.54799
0.54799
0.548049
0.548107
0.548166
0.548224
0.548224
0.548283
0.548342
0.548401
0.548459
0.548459
0.548518
0.548577
0.548636
0.548695
0.548695
0.548755
0.548814
0.548873
0.548932
0.548932
0.548992
0.549051
0.54911
0.54917
0.54917
0.549229
0.549289
0.549349
0.549408
0.549408
0.549468
0.549528
0.549588
0.549648
0.549648
0.549708
0.549768
0.549828
0.549888
0.549888
0.549948
0.550008
0.550069
0.550129
0.550129
0.550189
0.55025
0.55031
0.550371
0.550371
0.550431
0.550492
0.550553
0.550613
0.550613
0.550674
0.550735
0.550796
0.550857
0.550857
0.550918
0.550979
0.55104
0.551101
0.551101
0.551163
0.551224
0.551285
0.551347
0.551347
0.551408
0.551469
0.551531
0.551593
0.551593
0.551654
0.551716
0.551778
0.55184
0.55184
0.551901
0.551963
0.552025
0.552087
0.552087
0.552149
0.552212
0.552274
0.552336
0.552336
0.552398
0.552461
0.552523
0.552585
0.552585
0.552648
0.55271
0.552773
0.552836
0.552836
0.552898
0.552961
0.553024
0.553087
0.553087
0.55315
0.553213
0.553276
0.553339
0.553339
0.553402
0.553465
0.553529
0.553592
0.553592
0.553655
0.553719
0.553782
0.553846
0.553846
0.553909
0.553973
0.554036
0.5541
0.5541
0.554164
0.554228
0.554292
0.554356
0.554356
0.55442
0.554484
0.554548
0.554612
0.554612
0.554676
0.554741
0.554805
0.554869
0.554869
0.554934
0.554998
0.555063
0.555127
0.555127
0.555192
0.555257
0.555321
0.555386
0.555386
0.555451
0.555516
0.555581
0.555646
0.555646
0.555711
0.555776
0.555841
0.555907
0.555907
0.555972
0.556037
0.556103
0.556168
0.556168
0.556234
0.556299
0.556365
0.556431
0.556431
0.556496
0.556562
0.556628
0.556694
0.556694
0.55676
0.556826
0.556892
0.556958
0.556958
0.557024
0.55709
0.557157
0.557223
0.557223
0.55729
0.557356
0.557422
0.557489
0.557489
0.557556
0.557622
0.557689
0.557756
0.557756
0.557823
0.55789
0.557956
0.558023
0.558023
0.558091
0.558158
0.558225
0.558292
0.558292
0.558359
0.558427
0.558494
0.558561
0.558561
0.558629
0.558696
0.558764
0.558832
0.558832
0.558899
0.558967
0.559035
0.559103
0.559103
0.559171
0.559239
0.559307
0.559374
0.559374
0.559442
0.55951
0.559577
0.559644
0.559644
0.559711
0.559775
0.559837
0.559897
0.559897
0.55995
0.559992
0.560021
0.560038
0.560038
0.560053
0.560069
0.560083
0.560097
0.560097
0.560112
0.560126
0.56014
0.560155
0.560155
0.560169
0.560183
0.560198
0.560212
0.560212
0.560226
0.560241
0.560255
0.560269
0.560269
0.560284
0.560298
0.560313
0.560327
0.560327
0.560342
0.560356
0.560371
0.560385
0.560385
0.5604
0.560414
0.560429
0.560443
0.560443
0.560458
0.560472
0.560487
0.560502
0.560502
0.560516
0.560531
0.560545
0.56056
0.56056
0.560575
0.560589
0.560604
0.560619
0.560619
0.560634
0.560648
0.560663
0.560678
0.560678
0.560692
0.560707
0.560722
0.560737
0.560737
0.560752
0.560766
0.560781
0.560796
0.560796
0.560811
0.560826
0.560841
0.560856
0.560856
0.56087
0.560885
0.5609
0.560915
0.560915
0.56093
0.560945
0.56096
0.560975
0.560975
0.56099
0.561005
0.56102
0.561035
0.561035
0.56105
0.561065
0.56108
0.561095
0.561095
0.56111
0.561125
0.561141
0.561156
0.561156
0.561171
0.561186
0.561201
0.561216
0.561216
0.561231
0.561247
0.561262
0.561277
0.561277
0.561292
0.561308
0.561323
0.561338
0.561338
0.561353
0.561369
0.561384
0.561399
0.561399
0.561414
0.56143
0.561445
0.56146
0.56146
0.561476
0.561491
0.561507
0.561522
0.561522
0.561537
0.561553
0.561568
0.561584
0.561584
0.561599
0.561615
0.56163
0.561645
0.561645
0.561661
0.561676
0.561692
0.561708
0.561708
0.561723
0.561739
0.561754
0.56177
0.56177
0.561785
0.561801
0.561816
0.561832
0.561832
0.561848
0.561863
0.561879
0.561895
0.561895
0.56191
0.561926
0.561942
0.561957
0.561957
0.561973
0.561989
0.562004
0.56202
0.56202
0.562036
0.562052
0.562067
0.562083
0.562083
0.562099
0.562115
0.562131
0.562146
0.562146
0.562162
0.562178
0.562194
0.56221
0.56221
0.562226
0.562242
0.562257
0.562273
0.562273
0.562289
0.562305
0.562321
0.562337
0.562337
0.562353
0.562369
0.562385
0.562401
0.562401
0.562417
0.562433
0.562449
0.562465
0.562465
0.562481
0.562497
0.562513
0.562529
0.562529
0.562545
0.562561
0.562577
0.562594
0.562594
0.56261
0.562626
0.562642
0.562658
0.562658
0.562674
0.56269
0.562707
0.562723
0.562723
0.562739
0.562755
0.562771
0.562788
0.562788
0.562804
0.56282
0.562836
0.562853
0.562853
0.562869
0.562885
0.562901
0.562918
0.562918
0.562934
0.56295
0.562967
0.562983
0.562983
0.562999
0.563016
0.563032
0.563048
0.563048
0.563065
0.563081
0.563098
0.563114
0.563114
0.56313
0.563147
0.563163
0.56318
0.56318
0.563196
0.563213
0.563229
0.563246
0.563246
0.563262
0.563279
0.563295
0.563312
0.563312
0.563328
0.563345
0.563361
0.563378
0.563378
0.563394
0.563411
0.563428
0.563444
0.563444
0.563461
0.563477
0.563494
0.563511
0.563511
0.563527
0.563544
0.563561
0.563577
0.563577
0.563594
0.563611
0.563627
0.563644
0.563644
0.563661
0.563678
0.563694
0.563711
0.563711
0.563728
0.563744
0.563761
0.563778
0.563778
0.563795
0.563812
0.563828
0.563845
0.563845
0.563862
0.563879
0.563896
0.563913
0.563913
0.563929
0.563946
0.563963
0.56398
0.56398
0.563997
0.564014
0.564031
0.564048
0.564048
0.564064
0.564081
0.564098
0.564115
0.564115
0.564132
0.564149
0.564166
0.564183
0.564183
0.5642
0.564217
0.564234
0.564251
0.564251
0.564268
0.564285
0.564302
0.564319
0.564319
0.564336
0.564353
0.56437
0.564387
0.564387
0.564404
0.564422
0.564439
0.564456
0.564456
0.564473
0.56449
0.564507
0.564524
0.564524
0.564541
0.564558
0.564576
0.564593
0.564593
0.56461
0.564627
0.564644
0.564662
0.564662
0.564679
0.564696
0.564713
0.56473
0.56473
0.564748
0.564765
0.564782
0.564799
0.564799
0.564817
0.564834
0.564851
0.564868
0.564868
0.564886
0.564903
0.56492
0.564938
0.564938
0.564955
0.564972
0.56499
0.565007
0.565007
0.565024
0.565042
0.565059
0.565076
0.565076
0.565094
0.565111
0.565128
0.565146
0.565146
0.565163
0.565181
0.565198
0.565216
0.565216
0.565233
0.56525
0.565268
0.565285
0.565285
0.565303
0.56532
0.565338
0.565355
0.565355
0.565373
0.56539
0.565408
0.565425
0.565425
0.565443
0.56546
0.565478
0.565495
0.565495
0.565513
0.56553
0.565548
0.565565
0.565565
0.565583
0.565601
0.565618
0.565636
0.565636
0.565653
0.565671
0.565688
0.565706
0.565706
0.565724
0.565741
0.565759
0.565777
0.565777
0.565794
0.565812
0.565829
0.565847
0.565847
0.565865
0.565882
0.5659
0.565918
0.565918
0.565935
0.565953
0.565971
0.565989
0.565989
0.566006
0.566024
0.566042
0.566059
0.566059
0.566077
0.566095
0.566113
0.56613
0.56613
0.566148
0.566166
0.566184
0.566201
0.566201
0.566219
0.566237
0.566255
0.566273
0.566273
0.56629
0.566308
0.566326
0.566344
0.566344
0.566362
0.56638
0.566397
0.566415
0.566415
0.566433
0.566451
0.566469
0.566487
0.566487
0.566504
0.566522
0.56654
0.566558
0.566558
0.566576
0.566594
0.566612
0.56663
0.56663
0.566648
0.566665
0.566683
0.566701
0.566701
0.566719
0.566737
0.566755
0.566773
0.566773
0.566791
0.566809
0.566827
0.566845
0.566845
0.566863
0.566881
0.566899
0.566917
0.566917
0.566935
0.566953
0.566971
0.566989
0.566989
0.567007
0.567025
0.567043
0.567061
0.567061
0.567079
0.567097
0.567115
0.567133
0.567133
0.567151
0.567169
0.567187
0.567205
0.567205
0.567223
0.567241
0.567259
0.567277
0.567277
0.567295
0.567313
0.567331
0.56735
0.56735
0.567368
0.567386
0.567404
0.567422
0.567422
0.56744
0.567458
0.567476
0.567494
0.567494
0.567512
0.567531
0.567549
0.567567
0.567567
0.567585
0.567603
0.567621
0.567639
0.567639
0.567657
0.567676
0.567694
0.567712
0.567712
0.56773
0.567747
0.567765
0.567782
0.567782
0.567799
0.567814
0.567828
0.567841
0.567841
0.56785
0.567856
0.56786
0.567862
0.567862
0.567863
0.567864
0.567865
0.567865
0.567865
0.567866
0.567867
0.567867
0.567868
0.567868
0.567869
0.567869
0.56787
0.56787
0.56787
0.567871
0.567871
0.567872
0.567873
0.567873
0.567873
0.567874
0.567874
0.567875
0.567875
0.567875
0.567876
0.567876
0.567877
0.567877
0.567877
0.567878
0.567878
0.567879
0.567879
0.567879
0.56788
0.56788
0.56788
0.56788
0.567881
0.567881
0.567882
0.567882
0.567882
0.567882
0.567883
0.567883
0.567884
0.567884
0.567884
0.567884
0.567885
0.567885
0.567885
0.567885
0.567886
0.567886
0.567886
0.567886
0.567887
0.567887
0.567887
0.567888
0.567888
0.567888
0.567888
0.567888
0.567889
0.567889
0.567889
0.567889
0.567889
0.56789
0.56789
0.56789
0.56789
0.56789
0.567891
0.567891
0.567891
0.567891
0.567891
0.567891
0.567891
0.567892
0.567892
0.567892
0.567892
0.567892
0.567892
0.567892
0.567893
0.567893
0.567893
0.567893
0.567893
0.567893
0.567893
0.567893
0.567893
0.567893
0.567893
0.567894
0.567894
0.567894
0.567894
0.567894
0.567894
0.567894
0.567894
0.567894
0.567894
0.567894
0.567894
0.567894
0.567894
0.567894
0.567894
0.567894
0.567894
0.567894
0.567894
0.567894
0.567894
0.567894
0.567894
0.567894
0.567894
0.567894
0.567894
0.567894
0.567894
0.567894
0.567894
0.567894
0.567894
0.567894
0.567894
0.567894
0.567894
0.567894
0.567894
0.567894
0.567894
0.567893
0.567893
0.567893
0.567893
0.567893
0.567893
0.567893
0.567893
0.567893
0.567893
0.567893
0.567892
0.567892
0.567892
0.567892
0.567892
0.567892
0.567892
0.567892
0.567892
0.567891
0.567891
0.567891
0.567891
0.567891
0.567891
0.567891
0.56789
0.56789
0.56789
0.56789
0.56789
0.56789
0.567889
0.567889
0.567889
0.567889
0.567889
0.567888
0.567888
0.567888
0.567888
0.567888
0.567887
0.567887
0.567887
0.567887
0.567887
0.567886
0.567886
0.567886
0.567886
0.567886
0.567885
0.567885
0.567885
0.567885
0.567884
0.567884
0.567884
0.567884
0.567884
0.567883
0.567883
0.567883
0.567883
0.567882
0.567882
0.567882
0.567882
0.567881
0.567881
0.567881
0.56788
0.56788
0.56788
0.56788
0.567879
0.567879
0.567879
0.567879
0.567878
0.567878
0.567878
0.567878
0.567877
0.567877
0.567876
0.567876
0.567876
0.567876
0.567875
0.567875
0.567874
0.567874
0.567874
0.567874
0.567873
0.567873
0.567873
0.567872
0.567872
0.567872
0.567871
0.567871
0.567871
0.56787
0.56787
0.56787
0.56787
0.567869
0.567869
0.567868
0.567868
0.567868
0.567867
0.567867
0.567866
0.567866
0.567866
0.567866
0.567865
0.567865
0.567864
0.567864
0.567864
0.567863
0.567863
0.567862
0.567862
0.567862
0.567861
0.567861
0.56786
0.56786
0.56786
0.56786
0.567859
0.567859
0.567859
0.567858
0.567858
0.567857
0.567857
0.567857
0.567856
0.567856
0.567855
0.567855
0.567855
0.567854
0.567854
0.567853
0.567853
0.567853
0.567852
0.567852
0.567851
0.567851
0.567851
0.56785
0.56785
0.567849
0.567849
0.567849
0.567848
0.567847
0.567847
0.567846
0.567846
0.567846
0.567845
0.567845
0.567844
0.567844
0.567844
0.567843
0.567843
0.567842
0.567842
0.567842
0.567841
0.567841
0.56784
0.56784
0.567839
0.567839
0.567838
0.567838
0.567838
0.567837
0.567837
0.567836
0.567836
0.567836
0.567835
0.567835
0.567834
0.567833
0.567833
0.567833
0.567832
0.567832
0.567831
0.567831
0.567831
0.56783
0.56783
0.567829
0.567829
0.567829
0.567828
0.567827
0.567827
0.567827
0.567826
0.567826
0.567825
0.567825
0.567825
0.567824
0.567823
0.567823
0.567822
0.567822
0.567822
0.567821
0.567821
0.56782
0.56782
0.56782
0.567819
0.567818
0.567818
0.567818
0.567817
0.567817
0.567816
0.567816
0.567816
0.567815
0.567815
0.567814
0.567813
0.567813
0.567813
0.567812
0.567812
0.567811
0.567811
0.567811
0.56781
0.56781
0.567809
0.567809
0.567808
0.567808
0.567807
0.567807
0.567807
0.567806
0.567806
0.567805
0.567805
0.567805
0.567804
0.567804
0.567803
0.567802
0.567802
0.567802
0.567801
0.567801
0.5678
0.5678
0.5678
0.567799
0.567799
0.567798
0.567798
0.567798
0.567797
0.567797
0.567796
0.567796
0.567796
0.567795
0.567794
0.567794
0.567794
0.567793
0.567793
0.567792
0.567792
0.567792
0.567791
0.567791
0.56779
0.56779
0.56779
0.567789
0.567789
0.567788
0.567788
0.567788
0.567787
0.567787
0.567786
0.567786
0.567786
0.567785
0.567785
0.567784
0.567784
0.567784
0.567783
0.567783
0.567782
0.567782
0.567782
0.567781
0.567781
0.56778
0.56778
0.56778
0.567779
0.567778
0.567778
0.567777
0.567777
0.567776
0.567775
0.567774
0.567774
0.567774
0.567773
0.567772
0.567771
0.56777
0.56777
0.567769
0.567768
0.567766
0.567765
0.567765
0.567764
0.567763
0.567762
0.567761
0.567761
0.56776
0.567759
0.567758
0.567757
0.567757
0.567755
0.567754
0.567753
0.567752
0.567752
0.567751
0.56775
0.567749
0.567748
0.567748
0.567747
0.567746
0.567745
0.567743
0.567743
0.567742
0.567741
0.56774
0.567739
0.567739
0.567738
0.567737
0.567736
0.567735
0.567735
0.567734
0.567732
0.567731
0.56773
0.56773
0.567729
0.567728
0.567727
0.567726
0.567726
0.567725
0.567724
0.567723
0.567722
0.567722
0.56772
0.567719
0.567718
0.567717
0.567717
0.567716
0.567715
0.567714
0.567713
0.567713
0.567712
0.567711
0.56771
0.567709
0.567709
0.567707
0.567706
0.567705
0.567704
0.567704
0.567703
0.567702
0.567701
0.5677
0.5677
0.567699
0.567698
0.567697
0.567695
0.567695
0.567694
0.567693
0.567692
0.567691
0.567691
0.56769
0.567689
0.567688
0.567687
0.567687
0.567686
0.567685
0.567684
0.567683
0.567683
0.567681
0.56768
0.567679
0.567678
0.567678
0.567677
0.567676
0.567675
0.567674
0.567674
0.567673
0.567672
0.567671
0.56767
0.56767
0.567669
0.567667
0.567666
0.567665
0.567665
0.567664
0.567663
0.567662
0.567661
0.567661
0.56766
0.567659
0.567658
0.567657
0.567657
0.567656
0.567655
0.567654
0.567652
0.567652
0.567651
0.56765
0.567649
0.567648
0.567648
0.567647
0.567646
0.567645
0.567644
0.567644
0.567643
0.567642
0.567641
0.56764
0.56764
0.567639
0.567638
0.567636
0.567635
0.567635
0.567634
0.567633
0.567632
0.567631
0.567631
0.56763
0.567629
0.567628
0.567627
0.567627
0.567626
0.567625
0.567624
0.567623
0.567623
0.567622
0.567621
0.56762
0.567618
0.567618
0.567617
0.567616
0.567615
0.567614
0.567614
0.567613
0.567612
0.567611
0.56761
0.56761
0.567609
0.567608
0.567607
0.567606
0.567606
0.567605
0.567604
0.567603
0.567602
0.567602
0.567601
0.5676
0.567598
0.567597
0.567597
0.567596
0.567595
0.567594
0.567593
0.567593
0.567592
0.567591
0.56759
0.567589
0.567589
0.567588
0.567587
0.567586
0.567585
0.567585
0.567584
0.567583
0.567582
0.567581
0.567581
0.56758
0.567579
0.567578
0.567577
0.567577
0.567576
0.567575
0.567574
0.567573
0.567573
0.567571
0.56757
0.567569
0.567568
0.567568
0.567567
0.567566
0.567565
0.567564
0.567564
0.567563
0.567562
0.567561
0.56756
0.56756
0.567559
0.567558
0.567557
0.567556
0.567556
0.567555
0.567554
0.567553
0.567552
0.567552
0.567551
0.56755
0.567549
0.567548
0.567548
0.567547
0.567546
0.567545
0.567544
0.567544
0.567543
0.567542
0.567541
0.56754
0.56754
0.567539
0.567538
0.567537
0.567536
0.567536
0.567535
0.567534
0.567533
0.567532
0.567532
0.567531
0.56753
0.567529
0.567528
0.567528
0.567527
0.567526
0.567525
0.567524
0.567524
0.567523
0.567522
0.567521
0.56752
0.56752
0.567519
0.567518
0.567517
0.567516
0.567516
0.567515
0.567514
0.567513
0.567512
0.567512
0.567511
0.56751
0.567509
0.567508
0.567508
0.567507
0.567506
0.567505
0.567504
0.567504
0.567503
0.567502
0.567501
0.5675
0.5675
0.567499
0.567498
0.567497
0.567496
0.567496
0.567495
0.567494
0.567493
0.567492
0.567492
0.567491
0.56749
0.567489
0.567488
0.567488
0.567487
0.567486
0.567485
0.567484
0.567484
0.567483
0.567482
0.567481
0.567481
0.567481
0.56748
0.567479
0.567478
0.567477
0.567477
0.567476
0.567475
0.567474
0.567473
0.567473
0.567472
0.567471
0.56747
0.567469
0.567469
0.567468
0.567467
0.567466
0.567465
0.567465
0.567464
0.567463
0.567462
0.567461
0.567461
0.56746
0.56746
0.567459
0.567458
0.567458
0.567457
0.567456
0.567455
0.567454
0.567454
0.567453
0.567452
0.567451
0.56745
0.56745
0.567449
0.567448
0.567447
0.567446
0.567446
0.567446
0.567445
0.567444
0.567443
0.567443
0.567442
0.567441
0.56744
0.567439
0.567439
0.567438
0.567438
0.567437
0.567437
0.567437
0.567437