<?xml version="1.0"?>
<VTKFile type="UnstructuredGrid" version="0.1" byte_order="LittleEndian">
<UnstructuredGrid>
<Piece NumberOfPoints="5000" NumberOfCells="4000">
<PointData Scalars="Reaction 0">
<DataArray type="Float32" Name="Reaction 0" format="ascii">
0.578136
0.578136
0.578136
0.578136
0.578136
0.578136
0.578136
0.578136
0.578136
0.578136
0.578136
0.578136
0.578136
0.578136
0.578136
0.578136
0.578136
0.578136
0.578136
0.578136
0.578136
0.578136
0.578136
0.578136
0.578136
0.578136
0.578136
0.578136
0.578136
0.578136
0.578136
0.578136
0.578136
0.578136
0.578136
0.578136
0.578136
0.578136
0.578136
0.578136
0.578136
0.578136
0.578137
0.578137
0.578137
0.578137
0.578137
0.578137
0.578137
0.578137
0.578137
0.578137
0.578137
0.578137
0.578137
0.578137
0.578137
0.578137
0.578137
0.578137
0.578137
0.578137
0.578137
0.578137
0.578138
0.578138
0.578138
0.578138
0.578138
0.578138
0.578138
0.578138
0.578138
0.578138
0.578138
0.578138
0.578138
0.578138
0.578138
0.578138
0.578138
0.578139
0.578139
0.578139
0.578139
0.578139
0.578139
0.578139
0.578139
0.578139
0.578139
0.578139
0.578139
0.578139
0.57814
0.57814
0.57814
0.57814
0.57814
0.57814
0.57814
0.57814
0.57814
0.57814
0.57814
0.57814
0.578141
0.578141
0.578141
0.578141
0.578141
0.578141
0.578141
0.578141
0.578141
0.578141
0.578141
0.578142
0.578142
0.578142
0.578142
0.578142
0.578142
0.578142
0.578142
0.578142
0.578142
0.578143
0.578143
0.578143
0.578143
0.578143
0.578143
0.578143
0.578143
0.578143
0.578144
0.578144
0.578144
0.578144
0.578144
0.578144
0.578144
0.578144
0.578145
0.578145
0.578145
0.578145
0.578145
0.578145
0.578145
0.578145
0.578146
0.578146
0.578146
0.578146
0.578146
0.578146
0.578146
0.578147
0.578147
0.578147
0.578147
0.578147
0.578147
0.578147
0.578147
0.578148
0.578148
0.578148
0.578148
0.578148
0.578148
0.578148
0.578149
0.578149
0.578149
0.578149
0.578149
0.578149
0.578149
0.57815
0.57815
0.57815
0.57815
0.57815
0.57815
0.578151
0.578151
0.578151
0.578151
0.578151
0.578151
0.578152
0.578152
0.578152
0.578152
0.578152
0.578152
0.578153
0.578153
0.578153
0.578153
0.578153
0.578154
0.578154
0.578154
0.578154
0.578154
0.578154
0.578154
0.578155
0.578155
0.578155
0.578155
0.578155
0.578156
0.578156
0.578156
0.578156
0.578156
0.578156
0.578157
0.578157
0.578157
0.578157
0.578157
0.578158
0.578158
0.578158
0.578158
0.578158
0.578159
0.578159
0.578159
0.578159
0.578159
0.57816
0.57816
0.57816
0.57816
0.57816
0.578161
0.578161
0.578161
0.578161
0.578161
0.578162
0.578162
0.578162
0.578162
0.578162
0.578163
0.578163
0.578163
0.578163
0.578164
0.578164
0.578164
0.578164
0.578164
0.578165
0.578165
0.578165
0.578165
0.578165
0.578166
0.578166
0.578166
0.578167
0.578167
0.578167
0.578167
0.578167
0.578168
0.578168
0.578168
0.578168
0.578169
0.578169
0.578169
0.578169
0.57817
0.57817
0.57817
0.57817
0.57817
0.578171
0.578171
0.578171
0.578171
0.578172
0.578172
0.578172
0.578173
0.578173
0.578173
0.578173
0.578174
0.578174
0.578174
0.578174
0.578174
0.578175
0.578175
0.578175
0.578175
0.578176
0.578176
0.578176
0.578176
0.578177
0.578177
0.578177
0.578178
0.578178
0.578178
0.578178
0.578179
0.578179
0.578179
0.578179
0.57818
0.57818
0.57818
0.57818
0.578181
0.578181
0.578182
0.578182
0.578182
0.578182
0.578183
0.578183
0.578183
0.578183
0.578184
0.578184
0.578184
0.578185
0.578185
0.578185
0.578185
0.578186
0.578186
0.578186
0.578187
0.578187
0.578187
0.578188
0.578188
0.578188
0.578188
0.578189
0.578189
0.578189
0.57819
0.57819
0.57819
0.578191
0.578191
0.578191
0.578191
0.578192
0.578192
0.578192
0.578193
0.578193
0.578193
0.578194
0.578194
0.578194
0.578195
0.578195
0.578195
0.578195
0.578196
0.578196
0.578197
0.578197
0.578197
0.578197
0.578198
0.578198
0.578199
0.578199
0.578199
0.578199
0.5782
0.5782
0.5782
0.578201
0.578201
0.578201
0.578202
0.578202
0.578202
0.578203
0.578203
0.578204
0.578204
0.578204
0.578204
0.578205
0.578205
0.578205
0.578206
0.578206
0.578207
0.578207
0.578207
0.578207
0.578208
0.578208
0.578209
0.578209
0.578209
0.57821
0.57821
0.578211
0.578211
0.578211
0.578211
0.578212
0.578212
0.578212
0.578213
0.578213
0.578214
0.578214
0.578214
0.578215
0.578215
0.578216
0.578216
0.578216
0.578217
0.578217
0.578217
0.578218
0.578218
0.578218
0.578219
0.578219
0.57822
0.57822
0.57822
0.578221
0.578221
0.578222
0.578222
0.578222
0.578223
0.578223
0.578224
0.578224
0.578224
0.578225
0.578225
0.578226
0.578226
0.578226
0.578227
0.578227
0.578228
0.578228
0.578228
0.578229
0.578229
0.57823
0.57823
0.57823
0.578231
0.578231
0.578232
0.578232
0.578232
0.578233
0.578233
0.578234
0.578234
0.578234
0.578235
0.578235
0.578236
0.578236
0.578236
0.578237
0.578237
0.578238
0.578238
0.578238
0.578239
0.578239
0.57824
0.57824
0.57824
0.578241
0.578242
0.578242
0.578242
0.578243
0.578243
0.578244
0.578244
0.578244
0.578245
0.578245
0.578246
0.578246
0.578246
0.578247
0.578247
0.578248
0.578249
0.578249
0.578249
0.57825
0.57825
0.578251
0.578251
0.578251
0.578252
0.578252
0.578253
0.578253
0.578254
0.578254
0.578255
0.578255
0.578255
0.578256
0.578256
0.578257
0.578258
0.578258
0.578258
0.578259
0.578259
0.57826
0.57826
0.57826
0.578261
0.578262
0.578262
0.578262
0.578263
0.578263
0.578264
0.578265
0.578265
0.578265
0.578266
0.578266
0.578267
0.578267
0.578268
0.578268
0.578269
0.578269
0.578269
0.57827
0.578271
0.578271
0.578272
0.578272
0.578272
0.578273
0.578274
0.578274
0.578274
0.578275
0.578275
0.578276
0.578277
0.578277
0.578277
0.578278
0.578279
0.578279
0.578279
0.57828
0.57828
0.578281
0.578282
0.578282
0.578282
0.578283
0.578284
0.578284
0.578284
0.578285
0.578285
0.578286
0.578287
0.578287
0.578287
0.578288
0.578289
0.578289
0.578289
0.57829
0.578291
0.578291
0.578292
0.578292
0.578293
0.578293
0.578294
0.578295
0.578295
0.578295
0.578296
0.578297
0.578297
0.578297
0.578298
0.578299
0.578299
0.5783
0.5783
0.578301
0.578301
0.578302
0.578303
0.578303
0.578303
0.578304
0.578305
0.578305
0.578305
0.578306
0.578307
0.578307
0.578308
0.578308
0.578309
0.578309
0.57831
0.578311
0.578311
0.578311
0.578312
0.578313
0.578314
0.578314
0.578314
0.578315
0.578316
0.578316
0.578316
0.578317
0.578318
0.578318
0.578319
0.578319
0.57832
0.578321
0.578321
0.578322
0.578322
0.578323
0.578323
0.578324
0.578325
0.578325
0.578326
0.578326
0.578327
0.578328
0.578328
0.578328
0.578329
0.57833
0.578331
0.578331
0.578331
0.578332
0.578333
0.578334
0.578334
0.578334
0.578335
0.578336
0.578337
0.578337
0.578337
0.578338
0.578339
0.57834
0.57834
0.57834
0.578341
0.578342
0.578343
0.578343
0.578343
0.578344
0.578345
0.578346
0.578346
0.578346
0.578347
0.578348
0.578349
0.578349
0.578349
0.57835
0.578351
0.578352
0.578352
0.578352
0.578353
0.578354
0.578355
0.578355
0.578356
0.578356
0.578357
0.578358
0.578358
0.578359
0.578359
0.57836
0.578361
0.578361
0.578362
0.578363
0.578363
0.578364
0.578364
0.578365
0.578366
0.578367
0.578367
0.578367
0.578368
0.578369
0.57837
0.578371
0.578371
0.578371
0.578372
0.578373
0.578374
0.578374
0.578375
0.578375
0.578376
0.578377
0.578377
0.578378
0.578379
0.57838
0.57838
0.57838
0.578381
0.578382
0.578383
0.578384
0.578384
0.578385
0.578385
0.578386
0.578387
0.578387
0.578388
0.578389
0.57839
0.57839
0.57839
0.578391
0.578392
0.578393
0.578394
0.578394
0.578395
0.578395
0.578396
0.578397
0.578397
0.578398
0.578399
0.5784
0.578401
0.578401
0.578401
0.578402
0.578403
0.578404
0.578404
0.578405
0.578406
0.578407
0.578407
0.578407
0.578408
0.578409
0.57841
0.578411
0.578411
0.578412
0.578413
0.578414
0.578414
0.578414
0.578415
0.578416
0.578417
0.578418
0.578418
0.578419
0.57842
0.578421
0.578422
0.578422
0.578422
0.578423
0.578424
0.578425
0.578425
0.578426
0.578427
0.578428
0.578429
0.578429
0.57843
0.578431
0.578431
0.578432
0.578432
0.578433
0.578434
0.578435
0.578436
0.578436
0.578437
0.578438
0.578439
0.57844
0.57844
0.578441
0.578442
0.578443
0.578443
0.578443
0.578444
0.578445
0.578446
0.578447
0.578447
0.578448
0.578449
0.57845
0.578451
0.578451
0.578452
0.578453
0.578454
0.578455
0.578455
0.578456
0.578457
0.578458
0.578458
0.578458
0.578459
0.57846
0.578461
0.578462
0.578462
0.578463
0.578464
0.578465
0.578466
0.578466
0.578467
0.578468
0.578469
0.57847
0.57847
0.578471
0.578472
0.578473
0.578474
0.578474
0.578475
0.578476
0.578477
0.578478
0.578478
0.578479
0.57848
0.578481
0.578482
0.578482
0.578483
0.578484
0.578485
0.578486
0.578486
0.578487
0.578488
0.578489
0.57849
0.57849
0.578491
0.578492
0.578493
0.578494
0.578494
0.578495
0.578496
0.578497
0.578498
0.578498
0.578499
0.5785
0.578501
0.578502
0.578502
0.578503
0.578504
0.578505
0.578506
0.578506
0.578507
0.578508
0.578509
0.57851
0.57851
0.578511
0.578512
0.578513
0.578514
0.578514
0.578515
0.578516
0.578517
0.578518
0.578518
0.578519
0.57852
0.578521
0.578522
0.578522
0.578524
0.578525
0.578526
0.578527
0.578527
0.578528
0.578529
0.57853
0.578531
0.578531
0.578532
0.578533
0.578534
0.578535
0.578535
0.578536
0.578537
0.578538
0.578539
0.578539
0.57854
0.578541
0.578543
0.578544
0.578544
0.578545
0.578546
0.578547
0.578548
0.578548
0.578549
0.57855
0.578551
0.578552
0.578552
0.578553
0.578554
0.578556
0.578557
0.578557
0.578558
0.578559
0.57856
0.578561
0.578561
0.578562
0.578563
0.578564
0.578565
0.578565
0.578567
0.578568
0.578569
0.57857
0.57857
0.578571
0.578572
0.578573
0.578574
0.578574
0.578575
0.578577
0.578578
0.578579
0.578579
0.57858
0.578581
0.578582
0.578583
0.578583
0.578584
0.578586
0.578587
0.578588
0.578588
0.578589
0.57859
0.578591
0.578592
0.578592
0.578593
0.578595
0.578596
0.578597
0.578597
0.578598
0.578599
0.5786
0.578601
0.578601
0.578603
0.578604
0.578605
0.578606
0.578606
0.578607
0.578608
0.57861
0.578611
0.578611
0.578612
0.578613
0.578614
0.578615
0.578615
0.578617
0.578618
0.578619
0.57862
0.57862
0.578621
0.578622
0.578624
0.578625
0.578625
0.578626
0.578627
0.578628
0.57863
0.57863
0.578631
0.578632
0.578633
0.578634
0.578634
0.578635
0.578637
0.578638
0.578639
0.578639
0.57864
0.578641
0.578643
0.578644
0.578644
0.578645
0.578646
0.578648
0.578649
0.578649
0.57865
0.578651
0.578652
0.578654
0.578654
0.578655
0.578656
0.578657
0.578658
0.578658
0.57866
0.578661
0.578662
0.578663
0.578663
0.578665
0.578666
0.578667
0.578668
0.578668
0.57867
0.578671
0.578672
0.578673
0.578673
0.578675
0.578676
0.578677
0.578678
0.578678
0.57868
0.578681
0.578682
0.578683
0.578683
0.578685
0.578686
0.578687
0.578688
0.578688
0.57869
0.578691
0.578692
0.578693
0.578693
0.578695
0.578696
0.578697
0.578699
0.578699
0.5787
0.578701
0.578702
0.578704
0.578704
0.578705
0.578706
0.578707
0.578709
0.578709
0.57871
0.578711
0.578713
0.578714
0.578714
0.578715
0.578717
0.578718
0.578719
0.578719
0.57872
0.578722
0.578723
0.578724
0.578724
0.578726
0.578727
0.578728
0.57873
0.57873
0.578731
0.578732
0.578734
0.578735
0.578735
0.578736
0.578737
0.578739
0.57874
0.57874
0.578741
0.578743
0.578744
0.578745
0.578745
0.578747
0.578748
0.578749
0.578751
0.578751
0.578752
0.578753
0.578755
0.578756
0.578756
0.578758
0.578759
0.57876
0.578762
0.578762
0.578763
0.578764
0.578766
0.578767
0.578767
0.578768
0.57877
0.578771
0.578772
0.578772
0.578774
0.578775
0.578777
0.578778
0.578778
0.578779
0.578781
0.578782
0.578783
0.578783
0.578785
0.578786
0.578788
0.578789
0.578789
0.57879
0.578792
0.578793
0.578794
0.578794
0.578796
0.578797
0.578799
0.5788
0.5788
0.578801
0.578803
0.578804
0.578806
0.578806
0.578807
0.578808
0.57881
0.578811
0.578811
0.578813
0.578814
0.578816
0.578817
0.578817
0.578818
0.57882
0.578821
0.578823
0.578823
0.578824
0.578825
0.578827
0.578828
0.578828
0.57883
0.578831
0.578833
0.578834
0.578834
0.578835
0.578837
0.578838
0.57884
0.57884
0.578841
0.578843
0.578844
0.578846
0.578846
0.578847
0.578848
0.57885
0.578851
0.578851
0.578853
0.578854
0.578856
0.578857
0.578857
0.578859
0.57886
0.578862
0.578863
0.578863
0.578865
0.578866
0.578868
0.578869
0.578869
0.57887
0.578872
0.578873
0.578875
0.578875
0.578876
0.578878
0.578879
0.578881
0.578881
0.578882
0.578884
0.578885
0.578887
0.578887
0.578888
0.57889
0.578891
0.578893
0.578893
0.578894
0.578896
0.578897
0.578899
0.578899
0.5789
0.578902
0.578903
0.578905
0.578905
0.578906
0.578908
0.578909
0.578911
0.578911
0.578912
0.578914
0.578916
0.578917
0.578917
0.578919
0.57892
0.578922
0.578923
0.578923
0.578925
0.578926
0.578928
0.578929
0.578929
0.578931
0.578932
0.578934
0.578936
0.578936
0.578937
0.578939
0.57894
0.578942
0.578942
0.578943
0.578945
0.578946
0.578948
0.578948
0.57895
0.578951
0.578953
0.578954
0.578954
0.578956
0.578957
0.578959
0.578961
0.578961
0.578962
0.578964
0.578965
0.578967
0.578967
0.578968
0.57897
0.578972
0.578973
0.578973
0.578975
0.578976
0.578978
0.57898
0.57898
0.578981
0.578983
0.578984
0.578986
0.578986
0.578988
0.578989
0.578991
0.578992
0.578992
0.578994
0.578996
0.578997
0.578999
0.578999
0.579
0.579002
0.579004
0.579005
0.579005
0.579007
0.579009
0.57901
0.579012
0.579012
0.579013
0.579015
0.579017
0.579018
0.579018
0.57902
0.579022
0.579023
0.579025
0.579025
0.579027
0.579028
0.57903
0.579031
0.579031
0.579033
0.579035
0.579036
0.579038
0.579038
0.57904
0.579041
0.579043
0.579045
0.579045
0.579046
0.579048
0.57905
0.579051
0.579051
0.579053
0.579055
0.579056
0.579058
0.579058
0.57906
0.579061
0.579063
0.579065
0.579065
0.579067
0.579068
0.57907
0.579072
0.579072
0.579073
0.579075
0.579077
0.579078
0.579078
0.57908
0.579082
0.579083
0.579085
0.579085
0.579087
0.579089
0.57909
0.579092
0.579092
0.579094
0.579095
0.579097
0.579099
0.579099
0.579101
0.579102
0.579104
0.579106
0.579106
0.579108
0.579109
0.579111
0.579113
0.579113
0.579114
0.579116
0.579118
0.57912
0.57912
0.579121
0.579123
0.579125
0.579127
0.579127
0.579128
0.57913
0.579132
0.579134
0.579134
0.579135
0.579137
0.579139
0.579141
0.579141
0.579142
0.579144
0.579146
0.579148
0.579148
0.579149
0.579151
0.579153
0.579155
0.579155
0.579157
0.579158
0.57916
0.579162
0.579162
0.579164
0.579165
0.579167
0.579169
0.579169
0.579171
0.579173
0.579174
0.579176
0.579176
0.579178
0.57918
0.579182
0.579183
0.579183
0.579185
0.579187
0.579189
0.579191
0.579191
0.579192
0.579194
0.579196
0.579198
0.579198
0.5792
0.579202
0.579203
0.579205
0.579205
0.579207
0.579209
0.579211
0.579213
0.579213
0.579214
0.579216
0.579218
0.57922
0.57922
0.579222
0.579224
0.579225
0.579227
0.579227
0.579229
0.579231
0.579233
0.579235
0.579235
0.579236
0.579238
0.57924
0.579242
0.579242
0.579244
0.579246
0.579248
0.57925
0.57925
0.579251
0.579253
0.579255
0.579257
0.579257
0.579259
0.579261
0.579263
0.579265
0.579265
0.579266
0.579268
0.57927
0.579272
0.579272
0.579274
0.579276
0.579278
0.57928
0.57928
0.579282
0.579283
0.579285
0.579287
0.579287
0.579289
0.579291
0.579293
0.579295
0.579295
0.579297
0.579299
0.579301
0.579303
0.579303
0.579304
0.579306
0.579308
0.57931
0.57931
0.579312
0.579314
0.579316
0.579318
0.579318
0.57932
0.579322
0.579324
0.579326
0.579326
0.579328
0.57933
0.579331
0.579333
0.579333
0.579335
0.579337
0.579339
0.579341
0.579341
0.579343
0.579345
0.579347
0.579349
0.579349
0.579351
0.579353
0.579355
0.579357
0.579357
0.579359
0.579361
0.579363
0.579365
0.579365
0.579367
0.579369
0.579371
0.579373
0.579373
0.579375
0.579377
0.579379
0.579381
0.579381
0.579383
0.579385
0.579387
0.579389
0.579389
0.579391
0.579393
0.579395
0.579397
0.579397
0.579399
0.579401
0.579403
0.579405
0.579405
0.579407
0.579409
0.579411
0.579413
0.579413
0.579415
0.579417
0.579419
0.579421
0.579421
0.579423
0.579425
0.579427
0.579429
0.579429
0.579431
0.579433
0.579435
0.579437
0.579437
0.579439
0.579441
0.579443
0.579445
0.579445
0.579447
0.579449
0.579452
0.579454
0.579454
0.579456
0.579458
0.57946
0.579462
0.579462
0.579464
0.579466
0.579468
0.57947
0.57947
0.579472
0.579474
0.579476
0.579478
0.579478
0.579481
0.579483
0.579485
0.579487
0.579487
0.579489
0.579491
0.579493
0.579495
0.579495
0.579497
0.579499
0.579501
0.579504
0.579504
0.579506
0.579508
0.57951
0.579512
0.579512
0.579514
0.579516
0.579518
0.57952
0.57952
0.579523
0.579525
0.579527
0.579529
0.579529
0.579531
0.579533
0.579535
0.579537
0.579537
0.57954
0.579542
0.579544
0.579546
0.579546
0.579548
0.57955
0.579552
0.579555
0.579555
0.579557
0.579559
0.579561
0.579563
0.579563
0.579565
0.579567
0.57957
0.579572
0.579572
0.579574
0.579576
0.579578
0.57958
0.57958
0.579583
0.579585
0.579587
0.579589
0.579589
0.579591
0.579594
0.579596
0.579598
0.579598
0.5796
0.579602
0.579604
0.579607
0.579607
0.579609
0.579611
0.579613
0.579615
0.579615
0.579618
0.57962
0.579622
0.579624
0.579624
0.579626
0.579629
0.579631
0.579633
0.579633
0.579635
0.579638
0.57964
0.579642
0.579642
0.579644
0.579646
0.579649
0.579651
0.579651
0.579653
0.579655
0.579658
0.57966
0.57966
0.579662
0.579664
0.579667
0.579669
0.579669
0.579671
0.579673
0.579676
0.579678
0.579678
0.57968
0.579682
0.579685
0.579687
0.579687
0.579689
0.579691
0.579694
0.579696
0.579696
0.579698
0.5797
0.579702
0.579705
0.579705
0.579707
0.579709
0.579711
0.579714
0.579714
0.579716
0.579719
0.579721
0.579723
0.579723
0.579726
0.579728
0.57973
0.579733
0.579733
0.579735
0.579737
0.579739
0.579742
0.579742
0.579744
0.579746
0.579749
0.579751
0.579751
0.579753
0.579756
0.579758
0.57976
0.57976
0.579763
0.579765
0.579767
0.57977
0.57977
0.579772
0.579774
0.579777
0.579779
0.579779
0.579781
0.579784
0.579786
0.579788
0.579788
0.579791
0.579793
0.579795
0.579798
0.579798
0.5798
0.579802
0.579805
0.579807
0.579807
0.579809
0.579812
0.579814
0.579817
0.579817
0.579819
0.579821
0.579824
0.579826
0.579826
0.579828
0.579831
0.579833
0.579836
0.579836
0.579838
0.57984
0.579843
0.579845
0.579845
0.579848
0.57985
0.579852
0.579855
0.579855
0.579857
0.57986
0.579862
0.579864
0.579864
0.579867
0.579869
0.579872
0.579874
0.579874
0.579876
0.579879
0.579881
0.579884
0.579884
0.579886
0.579889
0.579891
0.579893
0.579893
0.579896
0.579898
0.579901
0.579903
0.579903
0.579906
0.579908
0.579911
0.579913
0.579913
0.579915
0.579918
0.57992
0.579923
0.579923
0.579925
0.579928
0.57993
0.579933
0.579933
0.579935
0.579938
0.57994
0.579943
0.579943
0.579945
0.579947
0.57995
0.579952
0.579952
0.579955
0.579957
0.57996
0.579962
0.579962
0.579965
0.579967
0.57997
0.579972
0.579972
0.579975
0.579977
0.57998
0.579982
0.579982
0.579985
0.579987
0.57999
0.579992
0.579992
0.579995
0.579997
0.58
0.580003
0.580003
0.580005
0.580008
0.58001
0.580013
0.580013
0.580015
0.580018
0.58002
0.580023
0.580023
0.580025
0.580028
0.58003
0.580033
0.580033
0.580035
0.580038
0.580041
0.580043
0.580043
0.580046
0.580048
0.580051
0.580053
0.580053
0.580056
0.580059
0.580061
0.580064
0.580064
0.580066
0.580069
0.580071
0.580074
0.580074
0.580077
0.580079
0.580082
0.580084
0.580084
0.580087
0.580089
0.580092
0.580095
0.580095
0.580097
0.5801
0.580102
0.580105
0.580105
0.580108
0.58011
0.580113
0.580116
0.580116
0.580118
0.580121
0.580123
0.580126
0.580126
0.580129
0.580131
0.580134
0.580136
0.580136
0.580139
0.580142
0.580144
0.580147
0.580147
0.58015
0.580152
0.580155
0.580158
0.580158
0.58016
0.580163
0.580166
0.580168
0.580168
0.580171
0.580174
0.580176
0.580179
0.580179
0.580182
0.580184
0.580187
0.58019
0.58019
0.580192
0.580195
0.580198
0.5802
0.5802
0.580203
0.580206
0.580208
0.580211
0.580211
0.580214
0.580216
0.580219
0.580222
0.580222
0.580224
0.580227
0.58023
0.580233
0.580233
0.580235
0.580238
0.580241
0.580243
0.580243
0.580246
0.580249
0.580252
0.580254
0.580254
0.580257
0.58026
0.580262
0.580265
0.580265
0.580268
0.580271
0.580273
0.580276
0.580276
0.580279
0.580282
0.580284
0.580287
0.580287
0.58029
0.580293
0.580295
0.580298
0.580298
0.580301
0.580304
0.580306
0.580309
0.580309
0.580312
0.580315
0.580317
0.58032
0.58032
0.580323
0.580326
0.580329
0.580331
0.580331
0.580334
0.580337
0.58034
0.580343
0.580343
0.580345
0.580348
0.580351
0.580354
0.580354
0.580356
0.580359
0.580362
0.580365
0.580365
0.580368
0.580371
0.580373
0.580376
0.580376
0.580379
0.580382
0.580385
0.580387
0.580387
0.58039
0.580393
0.580396
0.580399
0.580399
0.580402
0.580404
0.580407
0.58041
0.58041
0.580413
0.580416
0.580419
0.580422
0.580422
0.580424
0.580427
0.58043
0.580433
0.580433
0.580436
0.580439
0.580442
0.580444
0.580444
0.580447
0.58045
0.580453
0.580456
0.580456
0.580459
0.580462
0.580465
0.580467
0.580467
0.58047
0.580473
0.580476
0.580479
0.580479
0.580482
0.580485
0.580488
0.580491
0.580491
0.580494
0.580496
0.580499
0.580502
0.580502
0.580505
0.580508
0.580511
0.580514
0.580514
0.580517
0.58052
0.580523
0.580526
0.580526
0.580529
0.580531
0.580534
0.580537
0.580537
0.58054
0.580543
0.580546
0.580549
0.580549
0.580552
0.580555
0.580558
0.580561
0.580561
0.580564
0.580567
0.58057
0.580573
0.580573
0.580576
0.580579
0.580582
0.580585
0.580585
0.580588
0.580591
0.580594
0.580597
0.580597
0.5806
0.580603
0.580606
0.580609
0.580609
0.580612
0.580615
0.580618
0.580621
0.580621
0.580624
0.580627
0.58063
0.580633
0.580633
0.580636
0.580639
0.580642
0.580645
0.580645
0.580648
0.580651
0.580654
0.580657
0.580657
0.58066
0.580663
0.580666
0.580669
0.580669
0.580672
0.580675
0.580678
0.580681
0.580681
0.580684
0.580687
0.58069
0.580693
0.580693
0.580696
0.580699
0.580702
0.580705
0.580705
0.580709
0.580712
0.580715
0.580718
0.580718
0.580721
0.580724
0.580727
0.58073
0.58073
0.580733
0.580736
0.580739
0.580742
0.580742
0.580746
0.580749
0.580752
0.580755
0.580755
0.580758
0.580761
0.580764
0.580767
0.580767
0.58077
0.580773
0.580777
0.58078
0.58078
0.580783
0.580786
0.580789
0.580792
0.580792
0.580795
0.580798
0.580802
0.580805
0.580805
0.580808
0.580811
0.580814
0.580817
0.580817
0.58082
0.580824
0.580827
0.58083
0.58083
0.580833
0.580836
0.580839
0.580843
0.580843
0.580846
0.580849
0.580852
0.580855
0.580855
0.580858
0.580862
0.580865
0.580868
0.580868
0.580871
0.580874
0.580878
0.580881
0.580881
0.580884
0.580887
0.58089
0.580894
0.580894
0.580897
0.5809
0.580903
0.580906
0.580906
0.58091
0.580913
0.580916
0.580919
0.580919
0.580922
0.580926
0.580929
0.580932
0.580932
0.580935
0.580939
0.580942
0.580945
0.580945
0.580948
0.580952
0.580955
0.580958
0.580958
0.580961
0.580965
0.580968
0.580971
0.580971
0.580974
0.580978
0.580981
0.580984
0.580984
0.580987
0.580991
0.580994
0.580997
0.580997
0.581
0.581004
0.581007
0.58101
0.58101
0.581013
0.581016
0.58102
0.581023
0.581023
0.581026
0.581029
0.581033
0.581036
0.581036
0.58104
0.581043
0.581047
0.58105
0.58105
0.581053
0.581057
0.58106
0.581063
0.581063
0.581067
0.58107
0.581073
0.581077
0.581077
0.58108
0.581083
0.581087
0.58109
0.58109
0.581093
0.581097
0.5811
0.581103
0.581103
0.581107
0.58111
0.581113
0.581117
0.581117
0.58112
0.581123
0.581127
0.58113
0.58113
0.581134
0.581137
0.58114
0.581144
0.581144
0.581147
0.58115
0.581154
0.581157
0.581157
0.581161
0.581164
0.581167
0.581171
0.581171
0.581174
0.581178
0.581181
0.581184
0.581184
0.581188
0.581191
0.581195
0.581198
0.581198
0.581202
0.581205
0.581208
0.581212
0.581212
0.581215
0.581219
0.581222
0.581226
0.581226
0.581229
0.581232
0.581236
0.581239
0.581239
0.581243
0.581246
0.58125
0.581253
0.581253
0.581257
0.58126
0.581264
0.581267
0.581267
0.58127
0.581274
0.581277
0.581281
0.581281
0.581284
0.581288
0.581291
0.581295
0.581295
0.581298
0.581302
0.581305
0.581309
0.581309
0.581312
0.581316
0.581319
0.581323
0.581323
0.581326
0.58133
0.581333
0.581337
0.581337
0.58134
0.581344
0.581347
0.581351
0.581351
0.581354
0.581358
0.581362
0.581365
0.581365
0.581369
0.581372
0.581376
0.581379
0.581379
0.581383
0.581386
0.58139
0.581393
0.581393
0.581397
0.581401
0.581404
0.581408
0.581408
0.581411
0.581415
0.581418
0.581422
0.581422
0.581426
0.581429
0.581433
0.581436
0.581436
0.58144
0.581444
0.581447
0.581451
0.581451
0.581454
0.581458
0.581462
0.581465
0.581465
0.581469
0.581472
0.581476
0.58148
0.58148
0.581483
0.581487
0.58149
0.581494
0.581494
0.581498
0.581501
0.581505
0.581509
0.581509
0.581512
0.581516
0.581519
0.581523
0.581523
0.581527
0.58153
0.581534
0.581538
0.581538
0.581541
0.581545
0.581549
0.581552
0.581552
0.581556
0.58156
0.581563
0.581567
0.581567
0.581571
0.581574
0.581578
0.581582
0.581582
0.581586
0.581589
0.581593
0.581597
0.581597
0.5816
0.581604
0.581608
0.581611
0.581611
0.581615
0.581619
0.581623
0.581626
0.581626
0.58163
0.581634
0.581637
0.581641
0.581641
0.581645
0.581649
0.581652
0.581656
0.581656
0.58166
0.581664
0.581667
0.581671
0.581671
0.581675
0.581679
0.581682
0.581686
0.581686
0.58169
0.581694
0.581697
0.581701
0.581701
0.581705
0.581709
0.581712
0.581716
0.581716
0.58172
0.581724
0.581728
0.581731
0.581731
0.581735
0.581739
0.581743
0.581747
0.581747
0.58175
0.581754
0.581758
0.581762
0.581762
0.581766
0.581769
0.581773
0.581777
0.581777
0.581781
0.581785
0.581789
0.581792
0.581792
0.581796
0.5818
0.581804
0.581808
0.581808
0.581812
0.581815
0.581819
0.581823
0.581823
0.581827
0.581831
0.581835
0.581839
0.581839
0.581842
0.581846
0.58185
0.581854
0.581854
0.581858
0.581862
0.581866
0.581869
0.581869
0.581873
0.581877
0.581881
0.581885
0.581885
0.581889
0.581893
0.581897
0.581901
0.581901
0.581905
0.581908
0.581912
0.581916
0.581916
0.58192
0.581924
0.581928
0.581932
0.581932
0.581936
0.58194
0.581944
0.581948
0.581948
0.581952
0.581956
0.58196
0.581963
0.581963
0.581967
0.581971
0.581975
0.581979
0.581979
0.581983
0.581987
0.581991
0.581995
0.581995
0.581999
0.582003
0.582007
0.582011
0.582011
0.582015
0.582019
0.582023
0.582027
0.582027
0.582031
0.582035
0.582039
0.582043
0.582043
0.582047
0.582051
0.582055
0.582059
0.582059
0.582063
0.582067
0.582071
0.582075
0.582075
0.582079
0.582083
0.582087
0.582091
0.582091
0.582095
0.582099
0.582103
0.582107
0.582107
0.582111
0.582115
0.582119
0.582123
0.582123
0.582128
0.582132
0.582136
0.58214
0.58214
0.582144
0.582148
0.582152
0.582156
0.582156
0.58216
0.582164
0.582168
0.582172
0.582172
0.582176
0.582181
0.582185
0.582189
0.582189
0.582193
0.582197
0.582201
0.582205
0.582205
0.582209
0.582213
0.582217
0.582222
0.582222
0.582226
0.58223
0.582234
0.582238
0.582238
0.582242
0.582246
0.582251
0.582255
0.582255
0.582259
0.582263
0.582267
0.582271
0.582271
0.582275
0.58228
0.582284
0.582288
0.582288
0.582292
0.582296
0.5823
0.582305
0.582305
0.582309
0.582313
0.582317
0.582321
0.582321
0.582325
0.58233
0.582334
0.582338
0.582338
0.582342
0.582346
0.582351
0.582355
0.582355
0.582359
0.582363
0.582367
0.582372
0.582372
0.582376
0.58238
0.582384
0.582389
0.582389
0.582393
0.582397
0.582401
0.582406
0.582406
0.58241
0.582414
0.582418
0.582423
0.582423
0.582427
0.582431
0.582435
0.58244
0.58244
0.582444
0.582448
0.582452
0.582456
0.582456
0.582461
0.582465
0.582469
0.582473
0.582473
0.582477
0.582482
0.582486
0.582491
0.582491
0.582495
0.582499
0.582504
0.582508
0.582508
0.582512
0.582517
0.582521
0.582525
0.582525
0.58253
0.582534
0.582538
0.582543
0.582543
0.582547
0.582551
0.582556
0.58256
0.58256
0.582564
0.582569
0.582573
0.582578
0.582578
0.582582
0.582586
0.582591
0.582595
0.582595
0.582599
0.582604
0.582608
0.582612
0.582612
0.582617
0.582621
0.582626
0.58263
0.58263
0.582634
0.582639
0.582643
0.582648
0.582648
0.582652
0.582656
0.582661
0.582665
0.582665
0.58267
0.582674
0.582678
0.582683
0.582683
0.582687
0.582692
0.582696
0.582701
0.582701
0.582705
0.582709
0.582714
0.582718
0.582718
0.582723
0.582727
0.582732
0.582736
0.582736
0.582741
0.582745
0.58275
0.582754
0.582754
0.582759
0.582763
0.582767
0.582772
0.582772
0.582776
0.582781
0.582785
0.58279
0.58279
0.582794
0.582799
0.582803
0.582808
0.582808
0.582812
0.582817
0.582821
0.582826
0.582826
0.58283
0.582835
0.58284
0.582844
0.582844
0.582849
0.582853
0.582858
0.582862
0.582862
0.582867
0.582871
0.582876
0.58288
0.58288
0.582885
0.58289
0.582894
0.582899
0.582899
0.582903
0.582908
0.582912
0.582917
0.582917
0.582922
0.582926
0.582931
0.582935
0.582935
0.58294
0.582944
0.582949
0.582954
0.582954
0.582958
0.582963
0.582967
0.582972
0.582972
0.582977
0.582981
0.582986
0.582991
0.582991
0.582995
0.583
0.583004
0.583009
0.583009
0.583014
0.583018
0.583023
0.583028
0.583028
0.583032
0.583037
0.583042
0.583046
0.583046
0.583051
0.583056
0.58306
0.583065
0.583065
0.58307
0.583074
0.583079
0.583084
0.583084
0.583088
0.583093
0.583098
0.583102
0.583102
0.583107
0.583112
0.583117
0.583121
0.583121
0.583126
0.583131
0.583135
0.58314
0.58314
0.583145
0.58315
0.583154
0.583159
0.583159
0.583164
0.583169
0.583173
0.583178
0.583178
0.583183
0.583187
0.583192
0.583197
0.583197
0.583202
0.583207
0.583211
0.583216
0.583216
0.583221
0.583226
0.58323
0.583235
0.583235
0.58324
0.583245
0.58325
0.583254
0.583254
0.583259
0.583264
0.583269
0.583274
0.583274
0.583278
0.583283
0.583288
0.583293
0.583293
0.583298
0.583302
0.583307
0.583312
0.583312
0.583317
0.583322
0.583327
0.583331
0.583331
0.583336
0.583341
0.583346
0.583351
0.583351
0.583356
0.583361
0.583365
0.58337
0.58337
0.583375
0.58338
0.583385
0.58339
0.58339
0.583395
0.5834
0.583405
0.583409
0.583409
0.583414
0.583419
0.583424
0.583429
0.583429
0.583434
0.583439
0.583444
0.583449
0.583449
0.583454
0.583459
0.583463
0.583468
0.583468
0.583473
0.583478
0.583483
0.583488
0.583488
0.583493
0.583498
0.583503
0.583508
0.583508
0.583513
0.583518
0.583523
0.583528
0.583528
0.583533
0.583538
0.583543
0.583548
0.583548
0.583553
0.583558
0.583563
0.583568
0.583568
0.583573
0.583578
0.583583
0.583588
0.583588
0.583593
0.583598
0.583603
0.583608
0.583608
0.583613
0.583618
0.583623
0.583628
0.583628
0.583633
0.583638
0.583643
0.583648
0.583648
0.583653
0.583658
0.583663
0.583668
0.583668
0.583673
0.583678
0.583684
0.583689
0.583689
0.583694
0.583699
0.583704
0.583709
0.583709
0.583714
0.583719
0.583724
0.583729
0.583729
0.583734
0.58374
0.583745
0.58375
0.58375
0.583755
0.58376
0.583765
0.58377
0.58377
0.583775
0.583781
0.583786
0.583791
0.583791
0.583796
0.583801
0.583806
0.583811
0.583811
0.583817
0.583822
0.583827
0.583832
0.583832
0.583837
0.583842
0.583848
0.583853
0.583853
0.583858
0.583863
0.583868
0.583873
0.583873
0.583879
0.583884
0.583889
0.583894
0.583894
0.583899
0.583905
0.58391
0.583915
0.583915
0.58392
0.583926
0.583931
0.583936
0.583936
0.583941
0.583947
0.583952
0.583957
0.583957
0.583962
0.583967
0.583973
0.583978
0.583978
0.583983
0.583989
0.583994
0.583999
0.583999
0.584004
0.58401
0.584015
0.58402
0.58402
0.584025
0.584031
0.584036
0.584041
0.584041
0.584046
0.584051
0.584056
0.584062
0.584062
0.584067
0.584073
0.584078
0.584084
0.584084