<?xml version="1.0"?>
<VTKFile type="UnstructuredGrid" version="0.1" byte_order="LittleEndian">
<UnstructuredGrid>
<Piece NumberOfPoints="5000" NumberOfCells="4000">
<PointData Scalars="Reaction 0">
<DataArray type="Float32" Name="Reaction 0" format="ascii">
0.328358
0.328358
0.328358
0.328359
0.328359
0.328359
0.328359
0.328359
0.328359
0.328359
0.328359
0.32836
0.32836
0.32836
0.328361
0.328361
0.328361
0.328361
0.328362
0.328362
0.328362
0.328363
0.328363
0.328364
0.328365
0.328365
0.328365
0.328366
0.328367
0.328367
0.328367
0.328368
0.328369
0.32837
0.328371
0.328371
0.328371
0.328372
0.328373
0.328374
0.328374
0.328375
0.328376
0.328377
0.328378
0.328378
0.32838
0.328381
0.328382
0.328383
0.328383
0.328384
0.328386
0.328387
0.328388
0.328388
0.32839
0.328391
0.328393
0.328394
0.328394
0.328396
0.328397
0.328399
0.3284
0.3284
0.328402
0.328404
0.328405
0.328407
0.328407
0.328409
0.328411
0.328412
0.328414
0.328414
0.328416
0.328418
0.32842
0.328422
0.328422
0.328424
0.328426
0.328428
0.32843
0.32843
0.328432
0.328434
0.328437
0.328439
0.328439
0.328441
0.328443
0.328446
0.328448
0.328448
0.32845
0.328453
0.328455
0.328458
0.328458
0.32846
0.328463
0.328465
0.328468
0.328468
0.32847
0.328473
0.328476
0.328478
0.328478
0.328481
0.328484
0.328487
0.32849
0.32849
0.328492
0.328495
0.328498
0.328501
0.328501
0.328504
0.328507
0.32851
0.328513
0.328513
0.328516
0.32852
0.328523
0.328526
0.328526
0.328529
0.328533
0.328536
0.328539
0.328539
0.328543
0.328546
0.328549
0.328553
0.328553
0.328556
0.32856
0.328563
0.328567
0.328567
0.328571
0.328574
0.328578
0.328582
0.328582
0.328585
0.328589
0.328593
0.328597
0.328597
0.328601
0.328604
0.328608
0.328612
0.328612
0.328616
0.32862
0.328624
0.328628
0.328628
0.328633
0.328637
0.328641
0.328645
0.328645
0.328649
0.328653
0.328658
0.328662
0.328662
0.328666
0.328671
0.328675
0.32868
0.32868
0.328684
0.328689
0.328693
0.328698
0.328698
0.328702
0.328707
0.328712
0.328716
0.328716
0.328721
0.328726
0.328731
0.328735
0.328735
0.32874
0.328745
0.32875
0.328755
0.328755
0.32876
0.328765
0.32877
0.328775
0.328775
0.32878
0.328785
0.328791
0.328796
0.328796
0.328801
0.328806
0.328811
0.328817
0.328817
0.328822
0.328828
0.328833
0.328838
0.328838
0.328844
0.328849
0.328855
0.32886
0.32886
0.328866
0.328872
0.328877
0.328883
0.328883
0.328889
0.328894
0.3289
0.328906
0.328906
0.328912
0.328918
0.328924
0.32893
0.32893
0.328936
0.328942
0.328948
0.328954
0.328954
0.32896
0.328966
0.328972
0.328978
0.328978
0.328984
0.328991
0.328997
0.329003
0.329003
0.32901
0.329016
0.329022
0.329029
0.329029
0.329035
0.329042
0.329048
0.329055
0.329055
0.329061
0.329068
0.329075
0.329081
0.329081
0.329088
0.329095
0.329101
0.329108
0.329108
0.329115
0.329122
0.329129
0.329136
0.329136
0.329143
0.32915
0.329157
0.329164
0.329164
0.329171
0.329178
0.329185
0.329192
0.329192
0.3292
0.329207
0.329214
0.329221
0.329221
0.329229
0.329236
0.329243
0.329251
0.329251
0.329258
0.329266
0.329273
0.329281
0.329281
0.329288
0.329296
0.329304
0.329311
0.329311
0.329319
0.329327
0.329334
0.329342
0.329342
0.32935
0.329358
0.329366
0.329374
0.329374
0.329382
0.32939
0.329398
0.329406
0.329406
0.329414
0.329422
0.32943
0.329438
0.329438
0.329446
0.329455
0.329463
0.329471
0.329471
0.329479
0.329488
0.329496
0.329505
0.329505
0.329513
0.329521
0.32953
0.329539
0.329539
0.329547
0.329556
0.329564
0.329573
0.329573
0.329582
0.32959
0.329599
0.329608
0.329608
0.329617
0.329626
0.329634
0.329643
0.329643
0.329652
0.329661
0.32967
0.329679
0.329679
0.329688
0.329697
0.329707
0.329716
0.329716
0.329725
0.329734
0.329743
0.329753
0.329753
0.329762
0.329771
0.329781
0.32979
0.32979
0.329799
0.329809
0.329818
0.329828
0.329828
0.329837
0.329847
0.329857
0.329866
0.329866
0.329876
0.329886
0.329895
0.329905
0.329905
0.329915
0.329925
0.329935
0.329945
0.329945
0.329955
0.329964
0.329974
0.329984
0.329984
0.329995
0.330005
0.330015
0.330025
0.330025
0.330035
0.330045
0.330055
0.330066
0.330066
0.330076
0.330086
0.330097
0.330107
0.330107
0.330118
0.330128
0.330138
0.330149
0.330149
0.33016
0.33017
0.330181
0.330191
0.330191
0.330202
0.330213
0.330223
0.330234
0.330234
0.330245
0.330256
0.330267
0.330278
0.330278
0.330288
0.330299
0.33031
0.330321
0.330321
0.330332
0.330344
0.330355
0.330366
0.330366
0.330377
0.330388
0.330399
0.330411
0.330411
0.330422
0.330433
0.330445
0.330456
0.330456
0.330467
0.330479
0.33049
0.330502
0.330502
0.330513
0.330525
0.330536
0.330548
0.330548
0.33056
0.330571
0.330583
0.330595
0.330595
0.330607
0.330618
0.33063
0.330642
0.330642
0.330654
0.330666
0.330678
0.33069
0.33069
0.330702
0.330714
0.330726
0.330738
0.330738
0.33075
0.330763
0.330775
0.330787
0.330787
0.330799
0.330812
0.330824
0.330836
0.330836
0.330849
0.330861
0.330874
0.330886
0.330886
0.330899
0.330911
0.330924
0.330936
0.330936
0.330949
0.330962
0.330974
0.330987
0.330987
0.331
0.331013
0.331026
0.331038
0.331038
0.331051
0.331064
0.331077
0.33109
0.33109
0.331103
0.331116
0.331129
0.331142
0.331142
0.331156
0.331169
0.331182
0.331195
0.331195
0.331208
0.331222
0.331235
0.331248
0.331248
0.331262
0.331275
0.331289
0.331302
0.331302
0.331316
0.331329
0.331343
0.331356
0.331356
0.33137
0.331384
0.331397
0.331411
0.331411
0.331425
0.331439
0.331452
0.331466
0.331466
0.33148
0.331494
0.331508
0.331522
0.331522
0.331536
0.33155
0.331564
0.331578
0.331578
0.331592
0.331606
0.331621
0.331635
0.331635
0.331649
0.331663
0.331678
0.331692
0.331692
0.331706
0.331721
0.331735
0.33175
0.33175
0.331764
0.331779
0.331793
0.331808
0.331808
0.331822
0.331837
0.331852
0.331867
0.331867
0.331881
0.331896
0.331911
0.331926
0.331926
0.331941
0.331955
0.33197
0.331985
0.331985
0.332
0.332015
0.33203
0.332045
0.332045
0.332061
0.332076
0.332091
0.332106
0.332106
0.332121
0.332137
0.332152
0.332167
0.332167
0.332183
0.332198
0.332213
0.332229
0.332229
0.332244
0.33226
0.332275
0.332291
0.332291
0.332307
0.332322
0.332338
0.332354
0.332354
0.332369
0.332385
0.332401
0.332417
0.332417
0.332433
0.332448
0.332464
0.33248
0.33248
0.332496
0.332512
0.332528
0.332544
0.332544
0.33256
0.332577
0.332593
0.332609
0.332609
0.332625
0.332641
0.332658
0.332674
0.332674
0.33269
0.332707
0.332723
0.33274
0.33274
0.332756
0.332773
0.332789
0.332806
0.332806
0.332822
0.332839
0.332856
0.332872
0.332872
0.332889
0.332906
0.332922
0.332939
0.332939
0.332956
0.332973
0.33299
0.333007
0.333007
0.333024
0.333041
0.333058
0.333075
0.333075
0.333092
0.333109
0.333126
0.333143
0.333143
0.333161
0.333178
0.333195
0.333212
0.333212
0.33323
0.333247
0.333264
0.333282
0.333282
0.333299
0.333317
0.333334
0.333352
0.333352
0.333369
0.333387
0.333405
0.333422
0.333422
0.33344
0.333458
0.333476
0.333493
0.333493
0.333511
0.333529
0.333547
0.333565
0.333565
0.333583
0.333601
0.333619
0.333637
0.333637
0.333655
0.333673
0.333691
0.333709
0.333709
0.333727
0.333746
0.333764
0.333782
0.333782
0.333801
0.333819
0.333837
0.333856
0.333856
0.333874
0.333893
0.333911
0.33393
0.33393
0.333948
0.333967
0.333985
0.334004
0.334004
0.334023
0.334041
0.33406
0.334079
0.334079
0.334098
0.334117
0.334135
0.334154
0.334154
0.334173
0.334192
0.334211
0.33423
0.33423
0.334249
0.334268
0.334288
0.334307
0.334307
0.334326
0.334345
0.334364
0.334384
0.334384
0.334403
0.334422
0.334442
0.334461
0.334461
0.33448
0.3345
0.334519
0.334539
0.334539
0.334558
0.334578
0.334598
0.334617
0.334617
0.334637
0.334657
0.334676
0.334696
0.334696
0.334716
0.334736
0.334755
0.334775
0.334775
0.334795
0.334815
0.334835
0.334855
0.334855
0.334875
0.334895
0.334915
0.334936
0.334936
0.334956
0.334976
0.334996
0.335016
0.335016
0.335037
0.335057
0.335077
0.335098
0.335098
0.335118
0.335138
0.335159
0.335179
0.335179
0.3352
0.335221
0.335241
0.335262
0.335262
0.335282
0.335303
0.335324
0.335345
0.335345
0.335365
0.335386
0.335407
0.335428
0.335428
0.335449
0.33547
0.335491
0.335512
0.335512
0.335533
0.335554
0.335575
0.335596
0.335596
0.335617
0.335638
0.335659
0.335681
0.335681
0.335702
0.335723
0.335744
0.335766
0.335766
0.335787
0.335809
0.33583
0.335852
0.335852
0.335873
0.335895
0.335916
0.335938
0.335938
0.335959
0.335981
0.336003
0.336024
0.336024
0.336046
0.336068
0.33609
0.336112
0.336112
0.336134
0.336155
0.336177
0.336199
0.336199
0.336221
0.336243
0.336265
0.336288
0.336288
0.33631
0.336332
0.336354
0.336376
0.336376
0.336398
0.336421
0.336443
0.336465
0.336465
0.336488
0.33651
0.336533
0.336555
0.336555
0.336578
0.3366
0.336623
0.336645
0.336645
0.336668
0.33669
0.336713
0.336736
0.336736
0.336759
0.336781
0.336804
0.336827
0.336827
0.33685
0.336873
0.336896
0.336919
0.336919
0.336942
0.336965
0.336988
0.337011
0.337011
0.337034
0.337057
0.33708
0.337103
0.337103
0.337126
0.33715
0.337173
0.337196
0.337196
0.33722
0.337243
0.337266
0.33729
0.33729
0.337313
0.337337
0.33736
0.337384
0.337384
0.337408
0.337431
0.337455
0.337479
0.337479
0.337502
0.337526
0.33755
0.337574
0.337574
0.337597
0.337621
0.337645
0.337669
0.337669
0.337693
0.337717
0.337741
0.337765
0.337765
0.337789
0.337813
0.337837
0.337862
0.337862
0.337886
0.33791
0.337934
0.337959
0.337959
0.337983
0.338007
0.338032
0.338056
0.338056
0.338081
0.338105
0.33813
0.338154
0.338154
0.338179
0.338203
0.338228
0.338253
0.338253
0.338277
0.338302
0.338327
0.338351
0.338351
0.338376
0.338401
0.338426
0.338451
0.338451
0.338476
0.338501
0.338526
0.338551
0.338551
0.338576
0.338601
0.338626
0.338651
0.338651
0.338676
0.338702
0.338727
0.338752
0.338752
0.338777
0.338803
0.338828
0.338854
0.338854
0.338879
0.338904
0.33893
0.338955
0.338955
0.338981
0.339007
0.339032
0.339058
0.339058
0.339083
0.339109
0.339135
0.339161
0.339161
0.339186
0.339212
0.339238
0.339264
0.339264
0.33929
0.339316
0.339342
0.339368
0.339368
0.339394
0.33942
0.339446
0.339472
0.339472
0.339498
0.339525
0.339551
0.339577
0.339577
0.339603
0.33963
0.339656
0.339682
0.339682
0.339709
0.339735
0.339762
0.339788
0.339788
0.339815
0.339841
0.339868
0.339894
0.339894
0.339921
0.339948
0.339974
0.340001
0.340001
0.340028
0.340055
0.340082
0.340108
0.340108
0.340135
0.340162
0.340189
0.340216
0.340216
0.340243
0.34027
0.340297
0.340324
0.340324
0.340351
0.340379
0.340406
0.340433
0.340433
0.34046
0.340488
0.340515
0.340542
0.340542
0.34057
0.340597
0.340624
0.340652
0.340652
0.340679
0.340707
0.340735
0.340762
0.340762
0.34079
0.340817
0.340845
0.340873
0.340873
0.340901
0.340928
0.340956
0.340984
0.340984
0.341012
0.34104
0.341068
0.341096
0.341096
0.341124
0.341152
0.34118
0.341208
0.341208
0.341236
0.341264
0.341292
0.34132
0.34132
0.341349
0.341377
0.341405
0.341433
0.341433
0.341462
0.34149
0.341519
0.341547
0.341547
0.341575
0.341604
0.341633
0.341661
0.341661
0.34169
0.341718
0.341747
0.341776
0.341776
0.341804
0.341833
0.341862
0.341891
0.341891
0.34192
0.341948
0.341977
0.342006
0.342006
0.342035
0.342064
0.342093
0.342122
0.342122
0.342151
0.34218
0.34221
0.342239
0.342239
0.342268
0.342297
0.342326
0.342356
0.342356
0.342385
0.342414
0.342444
0.342473
0.342473
0.342503
0.342532
0.342562
0.342591
0.342591
0.342621
0.34265
0.34268
0.34271
0.34271
0.342739
0.342769
0.342799
0.342829
0.342829
0.342858
0.342888
0.342918
0.342948
0.342948
0.342978
0.343008
0.343038
0.343068
0.343068
0.343098
0.343128
0.343158
0.343188
0.343188
0.343218
0.343249
0.343279
0.343309
0.343309
0.343339
0.34337
0.3434
0.34343
0.34343
0.343461
0.343491
0.343522
0.343552
0.343552
0.343583
0.343613
0.343644
0.343675
0.343675
0.343705
0.343736
0.343767
0.343797
0.343797
0.343828
0.343859
0.34389
0.343921
0.343921
0.343952
0.343983
0.344014
0.344045
0.344045
0.344076
0.344107
0.344138
0.344169
0.344169
0.3442
0.344231
0.344262
0.344294
0.344294
0.344325
0.344356
0.344387
0.344419
0.344419
0.34445
0.344482
0.344513
0.344545
0.344545
0.344576
0.344608
0.344639
0.344671
0.344671
0.344702
0.344734
0.344766
0.344797
0.344797
0.344829
0.344861
0.344893
0.344925
0.344925
0.344956
0.344988
0.34502
0.345052
0.345052
0.345084
0.345116
0.345148
0.34518
0.34518
0.345213
0.345245
0.345277
0.345309
0.345309
0.345341
0.345374
0.345406
0.345438
0.345438
0.34547
0.345503
0.345535
0.345568
0.345568
0.3456
0.345633
0.345665
0.345698
0.345698
0.34573
0.345763
0.345796
0.345828
0.345828
0.345861
0.345894
0.345927
0.345959
0.345959
0.345992
0.346025
0.346058
0.346091
0.346091
0.346124
0.346157
0.34619
0.346223
0.346223
0.346256
0.346289
0.346322
0.346355
0.346355
0.346389
0.346422
0.346455
0.346488
0.346488
0.346522
0.346555
0.346588
0.346622
0.346622
0.346655
0.346689
0.346722
0.346756
0.346756
0.346789
0.346823
0.346857
0.34689
0.34689
0.346924
0.346958
0.346991
0.347025
0.347025
0.347059
0.347093
0.347127
0.347161
0.347161
0.347195
0.347228
0.347262
0.347296
0.347296
0.34733
0.347365
0.347399
0.347433
0.347433
0.347467
0.347501
0.347535
0.34757
0.34757
0.347604
0.347638
0.347673
0.347707
0.347707
0.347741
0.347776
0.34781
0.347845
0.347845
0.347879
0.347914
0.347948
0.347983
0.347983
0.348018
0.348052
0.348087
0.348122
0.348122
0.348157
0.348191
0.348226
0.348261
0.348261
0.348296
0.348331
0.348366
0.348401
0.348401
0.348436
0.348471
0.348506
0.348541
0.348541
0.348576
0.348611
0.348647
0.348682
0.348682
0.348717
0.348752
0.348788
0.348823
0.348823
0.348858
0.348894
0.348929
0.348965
0.348965
0.349
0.349036
0.349071
0.349107
0.349107
0.349142
0.349178
0.349214
0.349249
0.349249
0.349285
0.349321
0.349357
0.349392
0.349392
0.349428
0.349464
0.3495
0.349536
0.349536
0.349572
0.349608
0.349644
0.34968
0.34968
0.349716
0.349752
0.349788
0.349825
0.349825
0.349861
0.349897
0.349933
0.34997
0.34997
0.350006
0.350042
0.350079
0.350115
0.350115
0.350152
0.350188
0.350225
0.350261
0.350261
0.350298
0.350334
0.350371
0.350408
0.350408
0.350444
0.350481
0.350518
0.350555
0.350555
0.350591
0.350628
0.350665
0.350702
0.350702
0.350739
0.350776
0.350813
0.35085
0.35085
0.350887
0.350924
0.350961
0.350998
0.350998
0.351035
0.351073
0.35111
0.351147
0.351147
0.351184
0.351222
0.351259
0.351297
0.351297
0.351334
0.351371
0.351409
0.351446
0.351446
0.351484
0.351521
0.351559
0.351597
0.351597
0.351634
0.351672
0.35171
0.351747
0.351747
0.351785
0.351823
0.351861
0.351899
0.351899
0.351937
0.351975
0.352012
0.35205
0.35205
0.352088
0.352126
0.352165
0.352203
0.352203
0.352241
0.352279
0.352317
0.352355
0.352355
0.352394
0.352432
0.35247
0.352509
0.352509
0.352547
0.352585
0.352624
0.352662
0.352662
0.352701
0.352739
0.352778
0.352816
0.352816
0.352855
0.352894
0.352932
0.352971
0.352971
0.35301
0.353048
0.353087
0.353126
0.353126
0.353165
0.353204
0.353243
0.353282
0.353282
0.353321
0.35336
0.353399
0.353438
0.353438
0.353477
0.353516
0.353555
0.353594
0.353594
0.353633
0.353673
0.353712
0.353751
0.353751
0.353791
0.35383
0.353869
0.353909
0.353909
0.353948
0.353988
0.354027
0.354067
0.354067
0.354106
0.354146
0.354185
0.354225
0.354225
0.354265
0.354305
0.354344
0.354384
0.354384
0.354424
0.354464
0.354504
0.354543
0.354543
0.354583
0.354623
0.354663
0.354703
0.354703
0.354743
0.354783
0.354824
0.354864
0.354864
0.354904
0.354944
0.354984
0.355024
0.355024
0.355065
0.355105
0.355145
0.355186
0.355186
0.355226
0.355267
0.355307
0.355348
0.355348
0.355388
0.355429
0.355469
0.35551
0.35551
0.35555
0.355591
0.355632
0.355673
0.355673
0.355713
0.355754
0.355795
0.355836
0.355836
0.355877
0.355918
0.355959
0.355999
0.355999
0.35604
0.356082
0.356123
0.356164
0.356164
0.356205
0.356246
0.356287
0.356328
0.356328
0.35637
0.356411
0.356452
0.356493
0.356493
0.356535
0.356576
0.356618
0.356659
0.356659
0.3567
0.356742
0.356784
0.356825
0.356825
0.356867
0.356908
0.35695
0.356992
0.356992
0.357033
0.357075
0.357117
0.357159
0.357159
0.3572
0.357242
0.357284
0.357326
0.357326
0.357368
0.35741
0.357452
0.357494
0.357494
0.357536
0.357578
0.35762
0.357663
0.357663
0.357705
0.357747
0.357789
0.357831
0.357831
0.357874
0.357916
0.357958
0.358001
0.358001
0.358043
0.358086
0.358128
0.358171
0.358171
0.358213
0.358256
0.358298
0.358341
0.358341
0.358384
0.358426
0.358469
0.358512
0.358512
0.358555
0.358597
0.35864
0.358683
0.358683
0.358726
0.358769
0.358812
0.358855
0.358855
0.358898
0.358941
0.358984
0.359027
0.359027
0.35907
0.359114
0.359157
0.3592
0.3592
0.359243
0.359286
0.35933
0.359373
0.359373
0.359417
0.35946
0.359503
0.359547
0.359547
0.35959
0.359634
0.359677
0.359721
0.359721
0.359765
0.359808
0.359852
0.359896
0.359896
0.359939
0.359983
0.360027
0.360071
0.360071
0.360114
0.360158
0.360202
0.360246
0.360246
0.36029
0.360334
0.360378
0.360422
0.360422
0.360466
0.36051
0.360555
0.360599
0.360599
0.360643
0.360687
0.360731
0.360776
0.360776
0.36082
0.360864
0.360909
0.360953
0.360953
0.360998
0.361042
0.361087
0.361131
0.361131
0.361176
0.36122
0.361265
0.361309
0.361309
0.361354
0.361399
0.361444
0.361488
0.361488
0.361533
0.361578
0.361623
0.361668
0.361668
0.361713
0.361758
0.361803
0.361848
0.361848
0.361893
0.361938
0.361983
0.362028
0.362028
0.362073
0.362118
0.362163
0.362209
0.362209
0.362254
0.362299
0.362344
0.36239
0.36239
0.362435
0.362481
0.362526
0.362572
0.362572
0.362617
0.362663
0.362708
0.362754
0.362754
0.362799
0.362845
0.362891
0.362936
0.362936
0.362982
0.363028
0.363074
0.363119
0.363119
0.363165
0.363211
0.363257
0.363303
0.363303
0.363349
0.363395
0.363441
0.363487
0.363487
0.363533
0.363579
0.363625
0.363672
0.363672
0.363718
0.363764
0.36381
0.363857
0.363857
0.363903
0.363949
0.363996
0.364042
0.364042
0.364089
0.364135
0.364182
0.364228
0.364228
0.364275
0.364321
0.364368
0.364414
0.364414
0.364461
0.364508
0.364555
0.364601
0.364601
0.364648
0.364695
0.364742
0.364789
0.364789
0.364836
0.364883
0.36493
0.364977
0.364977
0.365024
0.365071
0.365118
0.365165
0.365165
0.365212
0.365259
0.365306
0.365354
0.365354
0.365401
0.365448
0.365495
0.365543
0.365543
0.36559
0.365638
0.365685
0.365733
0.365733
0.36578
0.365828
0.365875
0.365923
0.365923
0.36597
0.366018
0.366066
0.366113
0.366113
0.366161
0.366209
0.366257
0.366304
0.366304
0.366352
0.3664
0.366448
0.366496
0.366496
0.366544
0.366592
0.36664
0.366688
0.366688
0.366736
0.366784
0.366832
0.366881
0.366881
0.366929
0.366977
0.367025
0.367074
0.367074
0.367122
0.36717
0.367219
0.367267
0.367267
0.367315
0.367364
0.367412
0.367461
0.367461
0.36751
0.367558
0.367607
0.367655
0.367655
0.367704
0.367753
0.367801
0.36785
0.36785
0.367899
0.367948
0.367997
0.368046
0.368046
0.368094
0.368143
0.368192
0.368241
0.368241
0.36829
0.368339
0.368388
0.368438
0.368438
0.368487
0.368536
0.368585
0.368634
0.368634
0.368684
0.368733
0.368782
0.368832
0.368832
0.368881
0.36893
0.36898
0.369029
0.369029
0.369079
0.369128
0.369178
0.369227
0.369227
0.369277
0.369327
0.369376
0.369426
0.369426
0.369476
0.369525
0.369575
0.369625
0.369625
0.369675
0.369725
0.369775
0.369824
0.369824
0.369874
0.369924
0.369974
0.370024
0.370024
0.370075
0.370125
0.370175
0.370225
0.370225
0.370275
0.370325
0.370376
0.370426
0.370426
0.370476
0.370527
0.370577
0.370627
0.370627
0.370678
0.370728
0.370779
0.370829
0.370829
0.37088
0.37093
0.370981
0.371031
0.371031
0.371082
0.371133
0.371184
0.371234
0.371234
0.371285
0.371336
0.371387
0.371438
0.371438
0.371488
0.371539
0.37159
0.371641
0.371641
0.371692
0.371743
0.371794
0.371845
0.371845
0.371897
0.371948
0.371999
0.37205
0.37205
0.372101
0.372153
0.372204
0.372255
0.372255
0.372307
0.372358
0.372409
0.372461
0.372461
0.372512
0.372564
0.372615
0.372667
0.372667
0.372718
0.37277
0.372822
0.372873
0.372873
0.372925
0.372977
0.373029
0.37308
0.37308
0.373132
0.373184
0.373236
0.373288
0.373288
0.37334
0.373392
0.373444
0.373496
0.373496
0.373548
0.3736
0.373652
0.373704
0.373704
0.373756
0.373808
0.373861
0.373913
0.373913
0.373965
0.374017
0.37407
0.374122
0.374122
0.374175
0.374227
0.374279
0.374332
0.374332
0.374384
0.374437
0.37449
0.374542
0.374542
0.374595
0.374647
0.3747
0.374753
0.374753
0.374806
0.374858
0.374911
0.374964
0.374964
0.375017
0.37507
0.375123
0.375176
0.375176
0.375229
0.375282
0.375335
0.375388
0.375388
0.375441
0.375494
0.375547
0.3756
0.3756
0.375653
0.375707
0.37576
0.375813
0.375813
0.375867
0.37592
0.375973
0.376027
0.376027
0.37608
0.376134
0.376187
0.376241
0.376241
0.376294
0.376348
0.376401
0.376455
0.376455
0.376509
0.376562
0.376616
0.37667
0.37667
0.376724
0.376777
0.376831
0.376885
0.376885
0.376939
0.376993
0.377047
0.377101
0.377101
0.377155
0.377209
0.377263
0.377317
0.377317
0.377371
0.377425
0.37748
0.377534
0.377534
0.377588
0.377642
0.377697
0.377751
0.377751
0.377805
0.37786
0.377914
0.377969
0.377969
0.378023
0.378078
0.378132
0.378187
0.378187
0.378241
0.378296
0.378351
0.378405
0.378405
0.37846
0.378515
0.378569
0.378624
0.378624
0.378679
0.378734
0.378789
0.378844
0.378844
0.378899
0.378954
0.379009
0.379064
0.379064
0.379119
0.379174
0.379229
0.379284
0.379284
0.379339
0.379394
0.37945
0.379505
0.379505
0.37956
0.379615
0.379671
0.379726
0.379726
0.379782
0.379837
0.379892
0.379948
0.379948
0.380003
0.380059
0.380114
0.38017
0.38017
0.380226
0.380281
0.380337
0.380393
0.380393
0.380449
0.380504
0.38056
0.380616
0.380616
0.380672
0.380728
0.380784
0.380839
0.380839
0.380895
0.380951
0.381007
0.381064
0.381064
0.38112
0.381176
0.381232
0.381288
0.381288
0.381344
0.3814
0.381457
0.381513
0.381513
0.381569
0.381626
0.381682
0.381738
0.381738
0.381795
0.381851
0.381908
0.381964
0.381964
0.382021
0.382077
0.382134
0.382191
0.382191
0.382247
0.382304
0.382361
0.382417
0.382417
0.382474
0.382531
0.382588
0.382645
0.382645
0.382702
0.382759
0.382815
0.382872
0.382872
0.382929
0.382986
0.383044
0.383101
0.383101
0.383158
0.383215
0.383272
0.383329
0.383329
0.383386
0.383444
0.383501
0.383558
0.383558
0.383616
0.383673
0.38373
0.383788
0.383788
0.383845
0.383903
0.38396
0.384018
0.384018
0.384075
0.384133
0.384191
0.384248
0.384248
0.384306
0.384364
0.384421
0.384479
0.384479
0.384537
0.384595
0.384653
0.384711
0.384711
0.384768
0.384826
0.384884
0.384942
0.384942
0.385
0.385058
0.385117
0.385175
0.385175
0.385233
0.385291
0.385349
0.385407
0.385407
0.385466
0.385524
0.385582
0.385641
0.385641
0.385699
0.385757
0.385816
0.385874
0.385874
0.385933
0.385991
0.38605
0.386108
0.386108
0.386167
0.386226
0.386284
0.386343
0.386343
0.386402
0.38646
0.386519
0.386578
0.386578
0.386637
0.386696
0.386754
0.386813
0.386813
0.386872
0.386931
0.38699
0.387049
0.387049
0.387108
0.387167
0.387227
0.387286
0.387286
0.387345
0.387404
0.387463
0.387522
0.387522
0.387582
0.387641
0.3877
0.38776
0.38776
0.387819
0.387879
0.387938
0.387998
0.387998
0.388057
0.388117
0.388176
0.388236
0.388236
0.388295
0.388355
0.388415
0.388474
0.388474
0.388534
0.388594
0.388654
0.388713
0.388713
0.388773
0.388833
0.388893
0.388953
0.388953
0.389013
0.389073
0.389133
0.389193
0.389193
0.389253
0.389313
0.389373
0.389433
0.389433
0.389494
0.389554
0.389614
0.389674
0.389674
0.389735
0.389795
0.389855
0.389916
0.389916
0.389976
0.390037
0.390097
0.390158
0.390158
0.390218
0.390279
0.390339
0.3904
0.3904
0.39046
0.390521
0.390582
0.390642
0.390642
0.390703
0.390764
0.390825
0.390886
0.390886
0.390947
0.391007
0.391068
0.391129
0.391129
0.39119
0.391251
0.391312
0.391373
0.391373
0.391434
0.391496
0.391557
0.391618
0.391618
0.391679
0.39174
0.391802
0.391863
0.391863
0.391924
0.391985
0.392047
0.392108
0.392108
0.39217
0.392231
0.392293
0.392354
0.392354
0.392416
0.392477
0.392539
0.3926
0.3926
0.392662
0.392724
0.392785
0.392847
0.392847
0.392909
0.392971
0.393033
0.393094
0.393094
0.393156
0.393218
0.39328
0.393342
0.393342
0.393404
0.393466
0.393528
0.39359
0.39359
0.393652
0.393714
0.393777
0.393839
0.393839
0.393901
0.393963
0.394026
0.394088
0.394088
0.39415
0.394212
0.394275
0.394337
0.394337
0.3944
0.394462
0.394525
0.394587
0.394587
0.39465
0.394712
0.394775
0.394838
0.394838
0.3949
0.394963
0.395026
0.395088
0.395088
0.395151
0.395214
0.395277
0.39534
0.39534
0.395403
0.395465
0.395528
0.395591
0.395591
0.395654
0.395717
0.39578
0.395844
0.395844
0.395907
0.39597
0.396033
0.396096
0.396096
0.396159
0.396223
0.396286
0.396349
0.396349
0.396413
0.396476
0.396539
0.396603
0.396603
0.396666
0.39673
0.396793
0.396857
0.396857
0.39692
0.396984
0.397047
0.397111
0.397111
0.397175
0.397238
0.397302
0.397366
0.397366
0.39743
0.397493
0.397557
0.397621
0.397621
0.397685
0.397749
0.397813
0.397877
0.397877
0.397941
0.398005
0.398069
0.398133
0.398133
0.398197
0.398261
0.398326
0.39839
0.39839
0.398454
0.398518
0.398583
0.398647
0.398647
0.398711
0.398776
0.39884
0.398904
0.398904
0.398969
0.399033
0.399098
0.399162
0.399162
0.399227
0.399291
0.399356
0.399421
0.399421
0.399485
0.39955
0.399615
0.39968
0.39968
0.399744
0.399809
0.399874
0.399939
0.399939
0.400004
0.400069
0.400134
0.400199
0.400199
0.400264
0.400329
0.400394
0.400459
0.400459
0.400524
0.400589
0.400654
0.400719
0.400719
0.400785
0.40085
0.400915
0.400981
0.400981
0.401046
0.401111
0.401177
0.401242
0.401242
0.401308
0.401373
0.401439
0.401504
0.401504
0.40157
0.401635
0.401701
0.401767
0.401767
0.401832
0.401898
0.401964
0.402029
0.402029
0.402095
0.402161
0.402227
0.402293
0.402293
0.402359
0.402424
0.40249
0.402556
0.402556
0.402622
0.402688
0.402755
0.402821
0.402821
0.402887
0.402953
0.403019
0.403085
0.403085
0.403151
0.403218
0.403284
0.40335
0.40335
0.403417
0.403483
0.403549
0.403616
0.403616
0.403682
0.403749
0.403815
0.403882
0.403882
0.403948
0.404015
0.404082
0.404148
0.404148
0.404215
0.404282
0.404348
0.404415
0.404415
0.404482
0.404549
0.404615
0.404682
0.404682
0.404749
0.404816
0.404883
0.40495
0.40495
0.405017
0.405084
0.405151
0.405218
0.405218
0.405285
0.405353
0.40542
0.405487
0.405487
0.405554
0.405621
0.405689
0.405756
0.405756
0.405823
0.405891
0.405958
0.406025
0.406025
0.406093
0.40616
0.406228
0.406295
0.406295
0.406363
0.40643
0.406498
0.406566
0.406566
0.406633
0.406701
0.406769
0.406837
0.406837
0.406904
0.406972
0.40704
0.407108
0.407108
0.407176
0.407244
0.407312
0.40738
0.40738
0.407447
0.407516
0.407584
0.407652
0.407652
0.40772
0.407788
0.407856
0.407924
0.407924
0.407992
0.408061
0.408129
0.408197
0.408197
0.408266
0.408334
0.408402
0.408471
0.408471
0.408539
0.408608
0.408676
0.408745
0.408745
0.408813
0.408882
0.40895
0.409019
0.409019
0.409088
0.409156
0.409225
0.409294
0.409294
0.409362
0.409431
0.4095
0.409569
0.409569
0.409638
0.409707
0.409776
0.409845
0.409845
0.409914
0.409983
0.410052
0.410121
0.410121
0.41019
0.410259
0.410328
0.410397
0.410397
0.410466
0.410536
0.410605
0.410674
0.410674
0.410743
0.410813
0.410882
0.410952
0.410952
0.411021
0.41109
0.41116
0.411229
0.411229
0.411299
0.411368
0.411438
0.411508
0.411508
0.411577
0.411647
0.411717
0.411786
0.411786
0.411856
0.411926
0.411996
0.412065
0.412065
0.412135
0.412205
0.412275
0.412345
0.412345
0.412415
0.412485
0.412555
0.412625
0.412625
0.412695
0.412765
0.412835
0.412906
0.412906
0.412976
0.413046
0.413116
0.413186
0.413186
0.413257
0.413327
0.413397
0.413468
0.413468
0.413538
0.413609
0.413679
0.41375
0.41375
0.41382
0.413891
0.413961
0.414032
0.414032
0.414102
0.414173
0.414244
0.414314
0.414314
0.414385
0.414456
0.414527
0.414597
0.414597
0.414668
0.414739
0.41481
0.414881
0.414881
0.414952
0.415023
0.415094
0.415165
0.415165
0.415236
0.415307
0.415378
0.415449
0.415449
0.41552
0.415592
0.415663
0.415734
0.415734
0.415805
0.415877
0.415948
0.416019
0.416019
0.416091
0.416162
0.416233
0.416305
0.416305
0.416376
0.416448
0.416519
0.416591
0.416591
0.416663
0.416734
0.416806
0.416878
0.416878
0.416949
0.417021
0.417093
0.417165
0.417165
0.417236
0.417308
0.41738
0.417452
0.417452
0.417524
0.417596
0.417668
0.41774
0.41774
0.417812
0.417884
0.417956
0.418028
0.418028
0.4181
0.418172
0.418245
0.418317
0.418317
0.418389
0.418461
0.418534
0.418606
0.418606
0.418678
0.418751
0.418823
0.418895
0.418895
0.418968
0.41904
0.419113
0.419185
0.419185
0.419258
0.419331
0.419403
0.419476
0.419476
0.419549
0.419621
0.419694
0.419767
0.419767
0.41984
0.419912
0.419985
0.420058
0.420058
0.420131
0.420204
0.420277
0.42035
0.42035
0.420423
0.420496
0.420569
0.420642
0.420642
0.420715
0.420788
0.420861
0.420934
0.420934
0.421008
0.421081
0.421154
0.421228
0.421228
0.421301
0.421374
0.421448
0.421521
0.421521
0.421594
0.421668
0.421741
0.421815
0.421815
0.421888
0.421962
0.422036
0.422109
0.422109
0.422183
0.422256
0.42233
0.422404
0.422404
0.422478
0.422551
0.422625
0.422699
0.422699
0.422773
0.422847
0.422921
0.422995
0.422995
0.423069
0.423143
0.423217
0.423291
0.423291
0.423365
0.423439
0.423513
0.423587
0.423587
0.423661
0.423735
0.42381
0.423884
0.423884
0.423958
0.424033
0.424107
0.424181
0.424181
0.424256
0.42433
0.424404
0.424479
0.424479
0.424553
0.424628
0.424703
0.424777
0.424777
0.424852
0.424926
0.425001
0.425076
0.425076
0.42515
0.425225
0.4253
0.425375
0.425375
0.42545
0.425524
0.425599
0.425674
0.425674
0.425749
0.425824
0.425899
0.425974
0.425974
0.426049
0.426124
0.426199
0.426274
0.426274
0.426349
0.426425
0.4265
0.426575
0.426575
0.42665
0.426726
0.426801
0.426876
0.426876
0.426952
0.427027
0.427102
0.427178
0.427178
0.427253
0.427329
0.427404
0.42748
0.42748
0.427555
0.427631
0.427707
0.427782
0.427782
0.427858
0.427934
0.428009
0.428085
0.428085
0.428161
0.428237
0.428312
0.428388
0.428388
0.428464
0.42854
0.428616
0.428692
0.428692
0.428768
0.428844
0.42892
0.428996
0.428996
0.429072
0.429148
0.429224
0.429301
0.429301
0.429377
0.429453
0.429529
0.429606
0.429606
0.429682
0.429758
0.429835
0.429911
0.429911
0.429987
0.430064
0.43014
0.430217
0.430217
0.430293
0.43037
0.430446
0.430523
0.430523
0.4306
0.430676
0.430753
0.43083
0.43083
0.430906
0.430983
0.43106
0.431137
0.431137
0.431214
0.431291
0.431367
0.431444
0.431444
0.431521
0.431598
0.431675
0.431752
0.431752
0.431829
0.431906
0.431983
0.432061
0.432061
0.432138
0.432215
0.432292
0.432369
0.432369
0.432447
0.432524
0.432601
0.432679
0.432679
0.432756
0.432833
0.432911
0.432988
0.432988
0.433066
0.433143
0.433221
0.433298
0.433298
0.433376
0.433453
0.433531
0.433609
0.433609
0.433686
0.433764
0.433842
0.43392
0.43392
0.433997
0.434075
0.434153
0.434231
0.434231
0.434309
0.434387
0.434465
0.434543
0.434543
0.434621
0.434699
0.434777
0.434855
0.434855
0.434933
0.435011
0.435089
0.435167
0.435167
0.435246
0.435324
0.435402
0.43548
0.43548
0.435559
0.435637
0.435715
0.435794
0.435794
0.435872
0.435951
0.436029
0.436108
0.436108
0.436186
0.436265
0.436343