<?xml version="1.0"?>
<VTKFile type="UnstructuredGrid" version="0.1" byte_order="LittleEndian">
<UnstructuredGrid>
<Piece NumberOfPoints="5000" NumberOfCells="4000">
<PointData Scalars="Reaction 0">
<DataArray type="Float32" Name="Reaction 0" format="ascii">
0.764443
0.764443
0.764443
0.764443
0.764443
0.764443
0.764443
0.764443
0.764443
0.764443
0.764443
0.764444
0.764444
0.764444
0.764444
0.764444
0.764444
0.764444
0.764444
0.764444
0.764444
0.764445
0.764445
0.764445
0.764445
0.764445
0.764445
0.764446
0.764446
0.764446
0.764446
0.764446
0.764447
0.764447
0.764447
0.764447
0.764448
0.764448
0.764448
0.764449
0.764449
0.764449
0.764449
0.76445
0.76445
0.76445
0.764451
0.764451
0.764451
0.764452
0.764452
0.764452
0.764453
0.764453
0.764454
0.764454
0.764454
0.764455
0.764455
0.764456
0.764456
0.764456
0.764457
0.764457
0.764458
0.764458
0.764458
0.764459
0.76446
0.76446
0.76446
0.764461
0.764461
0.764462
0.764463
0.764463
0.764463
0.764464
0.764465
0.764465
0.764465
0.764466
0.764467
0.764468
0.764468
0.764468
0.764469
0.76447
0.764471
0.764471
0.764471
0.764472
0.764473
0.764474
0.764475
0.764475
0.764475
0.764476
0.764477
0.764478
0.764478
0.764479
0.76448
0.764481
0.764482
0.764482
0.764483
0.764483
0.764484
0.764485
0.764485
0.764486
0.764487
0.764488
0.764489
0.764489
0.76449
0.764491
0.764492
0.764493
0.764493
0.764494
0.764495
0.764497
0.764498
0.764498
0.764499
0.7645
0.764501
0.764502
0.764502
0.764503
0.764504
0.764506
0.764507
0.764507
0.764508
0.764509
0.76451
0.764512
0.764512
0.764513
0.764514
0.764515
0.764517
0.764517
0.764518
0.764519
0.76452
0.764522
0.764522
0.764523
0.764524
0.764526
0.764527
0.764527
0.764528
0.76453
0.764531
0.764532
0.764532
0.764534
0.764535
0.764537
0.764538
0.764538
0.76454
0.764541
0.764543
0.764544
0.764544
0.764545
0.764547
0.764549
0.76455
0.76455
0.764552
0.764553
0.764555
0.764556
0.764556
0.764558
0.764559
0.764561
0.764563
0.764563
0.764564
0.764566
0.764567
0.764569
0.764569
0.764571
0.764572
0.764574
0.764576
0.764576
0.764578
0.764579
0.764581
0.764583
0.764583
0.764585
0.764586
0.764588
0.76459
0.76459
0.764592
0.764593
0.764595
0.764597
0.764597
0.764599
0.764601
0.764603
0.764604
0.764604
0.764606
0.764608
0.76461
0.764612
0.764612
0.764614
0.764616
0.764618
0.76462
0.76462
0.764622
0.764624
0.764626
0.764628
0.764628
0.76463
0.764632
0.764634
0.764636
0.764636
0.764638
0.76464
0.764642
0.764644
0.764644
0.764646
0.764648
0.764651
0.764653
0.764653
0.764655
0.764657
0.764659
0.764661
0.764661
0.764663
0.764666
0.764668
0.76467
0.76467
0.764672
0.764675
0.764677
0.764679
0.764679
0.764681
0.764684
0.764686
0.764688
0.764688
0.764691
0.764693
0.764695
0.764698
0.764698
0.7647
0.764702
0.764705
0.764707
0.764707
0.76471
0.764712
0.764714
0.764717
0.764717
0.764719
0.764722
0.764724
0.764727
0.764727
0.764729
0.764732
0.764734
0.764737
0.764737
0.764739
0.764742
0.764744
0.764747
0.764747
0.764749
0.764752
0.764755
0.764757
0.764757
0.76476
0.764763
0.764765
0.764768
0.764768
0.764771
0.764773
0.764776
0.764779
0.764779
0.764781
0.764784
0.764787
0.764789
0.764789
0.764792
0.764795
0.764798
0.764801
0.764801
0.764803
0.764806
0.764809
0.764812
0.764812
0.764815
0.764818
0.76482
0.764823
0.764823
0.764826
0.764829
0.764832
0.764835
0.764835
0.764838
0.764841
0.764844
0.764847
0.764847
0.76485
0.764853
0.764856
0.764859
0.764859
0.764862
0.764865
0.764868
0.764871
0.764871
0.764874
0.764877
0.76488
0.764883
0.764883
0.764886
0.764889
0.764892
0.764895
0.764895
0.764899
0.764902
0.764905
0.764908
0.764908
0.764911
0.764915
0.764918
0.764921
0.764921
0.764924
0.764927
0.764931
0.764934
0.764934
0.764937
0.76494
0.764944
0.764947
0.764947
0.76495
0.764954
0.764957
0.76496
0.76496
0.764964
0.764967
0.764971
0.764974
0.764974
0.764977
0.764981
0.764984
0.764988
0.764988
0.764991
0.764995
0.764998
0.765002
0.765002
0.765005
0.765009
0.765012
0.765016
0.765016
0.765019
0.765023
0.765026
0.76503
0.76503
0.765033
0.765037
0.765041
0.765044
0.765044
0.765048
0.765051
0.765055
0.765059
0.765059
0.765062
0.765066
0.76507
0.765073
0.765073
0.765077
0.765081
0.765085
0.765088
0.765088
0.765092
0.765096
0.7651
0.765103
0.765103
0.765107
0.765111
0.765115
0.765119
0.765119
0.765123
0.765126
0.76513
0.765134
0.765134
0.765138
0.765142
0.765146
0.76515
0.76515
0.765154
0.765158
0.765162
0.765166
0.765166
0.765169
0.765173
0.765177
0.765181
0.765181
0.765185
0.765189
0.765194
0.765198
0.765198
0.765202
0.765206
0.76521
0.765214
0.765214
0.765218
0.765222
0.765226
0.76523
0.76523
0.765234
0.765239
0.765243
0.765247
0.765247
0.765251
0.765255
0.76526
0.765264
0.765264
0.765268
0.765272
0.765277
0.765281
0.765281
0.765285
0.765289
0.765294
0.765298
0.765298
0.765302
0.765307
0.765311
0.765315
0.765315
0.76532
0.765324
0.765328
0.765333
0.765333
0.765337
0.765342
0.765346
0.765351
0.765351
0.765355
0.765359
0.765364
0.765368
0.765368
0.765373
0.765377
0.765382
0.765386
0.765386
0.765391
0.765395
0.7654
0.765405
0.765405
0.765409
0.765414
0.765418
0.765423
0.765423
0.765428
0.765432
0.765437
0.765442
0.765442
0.765446
0.765451
0.765456
0.76546
0.76546
0.765465
0.76547
0.765474
0.765479
0.765479
0.765484
0.765489
0.765493
0.765498
0.765498
0.765503
0.765508
0.765513
0.765518
0.765518
0.765522
0.765527
0.765532
0.765537
0.765537
0.765542
0.765547
0.765552
0.765557
0.765557
0.765561
0.765566
0.765571
0.765576
0.765576
0.765581
0.765586
0.765591
0.765596
0.765596
0.765601
0.765606
0.765611
0.765616
0.765616
0.765621
0.765626
0.765632
0.765637
0.765637
0.765642
0.765647
0.765652
0.765657
0.765657
0.765662
0.765667
0.765673
0.765678
0.765678
0.765683
0.765688
0.765693
0.765699
0.765699
0.765704
0.765709
0.765714
0.76572
0.76572
0.765725
0.76573
0.765735
0.765741
0.765741
0.765746
0.765751
0.765757
0.765762
0.765762
0.765767
0.765773
0.765778
0.765783
0.765783
0.765789
0.765794
0.7658
0.765805
0.765805
0.765811
0.765816
0.765822
0.765827
0.765827
0.765833
0.765838
0.765844
0.765849
0.765849
0.765855
0.76586
0.765866
0.765871
0.765871
0.765877
0.765882
0.765888
0.765894
0.765894
0.765899
0.765905
0.76591
0.765916
0.765916
0.765922
0.765927
0.765933
0.765939
0.765939
0.765945
0.76595
0.765956
0.765962
0.765962
0.765967
0.765973
0.765979
0.765985
0.765985
0.765991
0.765996
0.766002
0.766008
0.766008
0.766014
0.76602
0.766026
0.766031
0.766031
0.766037
0.766043
0.766049
0.766055
0.766055
0.766061
0.766067
0.766073
0.766079
0.766079
0.766085
0.766091
0.766097
0.766103
0.766103
0.766109
0.766115
0.766121
0.766127
0.766127
0.766133
0.766139
0.766145
0.766151
0.766151
0.766157
0.766163
0.766169
0.766175
0.766175
0.766182
0.766188
0.766194
0.7662
0.7662
0.766206
0.766212
0.766219
0.766225
0.766225
0.766231
0.766237
0.766244
0.76625
0.76625
0.766256
0.766262
0.766269
0.766275
0.766275
0.766281
0.766288
0.766294
0.7663
0.7663
0.766307
0.766313
0.766319
0.766326
0.766326
0.766332
0.766338
0.766345
0.766351
0.766351
0.766358
0.766364
0.766371
0.766377
0.766377
0.766384
0.76639
0.766397
0.766403
0.766403
0.76641
0.766416
0.766423
0.766429
0.766429
0.766436
0.766442
0.766449
0.766456
0.766456
0.766462
0.766469
0.766475
0.766482
0.766482
0.766489
0.766495
0.766502
0.766509
0.766509
0.766516
0.766522
0.766529
0.766536
0.766536
0.766542
0.766549
0.766556
0.766563
0.766563
0.766569
0.766576
0.766583
0.76659
0.76659
0.766597
0.766604
0.76661
0.766617
0.766617
0.766624
0.766631
0.766638
0.766645
0.766645
0.766652
0.766659
0.766666
0.766672
0.766672
0.766679
0.766686
0.766693
0.7667
0.7667
0.766707
0.766714
0.766721
0.766728
0.766728
0.766735
0.766743
0.76675
0.766757
0.766757
0.766764
0.766771
0.766778
0.766785
0.766785
0.766792
0.766799
0.766806
0.766814
0.766814
0.766821
0.766828
0.766835
0.766842
0.766842
0.76685
0.766857
0.766864
0.766871
0.766871
0.766879
0.766886
0.766893
0.7669
0.7669
0.766908
0.766915
0.766922
0.76693
0.76693
0.766937
0.766944
0.766952
0.766959
0.766959
0.766966
0.766974
0.766981
0.766989
0.766989
0.766996
0.767003
0.767011
0.767018
0.767018
0.767026
0.767033
0.767041
0.767048
0.767048
0.767056
0.767063
0.767071
0.767078
0.767078
0.767086
0.767094
0.767101
0.767109
0.767109
0.767116
0.767124
0.767132
0.767139
0.767139
0.767147
0.767154
0.767162
0.76717
0.76717
0.767178
0.767185
0.767193
0.767201
0.767201
0.767208
0.767216
0.767224
0.767232
0.767232
0.767239
0.767247
0.767255
0.767263
0.767263
0.767271
0.767278
0.767286
0.767294
0.767294
0.767302
0.76731
0.767318
0.767326
0.767326
0.767333
0.767341
0.767349
0.767357
0.767357
0.767365
0.767373
0.767381
0.767389
0.767389
0.767397
0.767405
0.767413
0.767421
0.767421
0.767429
0.767437
0.767445
0.767453
0.767453
0.767461
0.767469
0.767477
0.767485
0.767485
0.767494
0.767502
0.76751
0.767518
0.767518
0.767526
0.767534
0.767542
0.76755
0.76755
0.767559
0.767567
0.767575
0.767583
0.767583
0.767591
0.767599
0.767607
0.767616
0.767616
0.767624
0.767632
0.76764
0.767648
0.767648
0.767656
0.767665
0.767673
0.767681
0.767681
0.76769
0.767698
0.767707
0.767716
0.767716
0.767724
0.767733
0.767741
0.76775
0.76775
0.767758
0.767767
0.767775
0.767784
0.767784
0.767793
0.767801
0.76781
0.767818
0.767818
0.767827
0.767835
0.767844
0.767852
0.767852
0.767861
0.76787
0.767878
0.767887
0.767887
0.767896
0.767904
0.767913
0.767921
0.767921
0.76793
0.767939
0.767947
0.767956
0.767956
0.767965
0.767974
0.767982
0.767991
0.767991
0.768
0.768009
0.768017
0.768026
0.768026
0.768035
0.768044
0.768053
0.768061
0.768061
0.76807
0.768079
0.768088
0.768097
0.768097
0.768106
0.768115
0.768123
0.768132
0.768132
0.768141
0.76815
0.768159
0.768168
0.768168
0.768177
0.768186
0.768195
0.768204
0.768204
0.768213
0.768222
0.768231
0.76824
0.76824
0.768249
0.768258
0.768267
0.768276
0.768276
0.768286
0.768295
0.768304
0.768313
0.768313
0.768322
0.768331
0.76834
0.768349
0.768349
0.768359
0.768368
0.768377
0.768386
0.768386
0.768395
0.768405
0.768414
0.768423
0.768423
0.768432
0.768442
0.768451
0.76846
0.76846
0.76847
0.768479
0.768488
0.768498
0.768498
0.768507
0.768516
0.768526
0.768535
0.768535
0.768544
0.768554
0.768563
0.768573
0.768573
0.768582
0.768592
0.768601
0.76861
0.76861
0.76862
0.768629
0.768639
0.768648
0.768648
0.768658
0.768667
0.768677
0.768687
0.768687
0.768696
0.768706
0.768715
0.768725
0.768725
0.768734
0.768744
0.768754
0.768763
0.768763
0.768773
0.768783
0.768792
0.768802
0.768802
0.768812
0.768821
0.768831
0.768841
0.768841
0.768851
0.76886
0.76887
0.76888
0.76888
0.76889
0.768899
0.768909
0.768919
0.768919
0.768929
0.768939
0.768948
0.768958
0.768958
0.768968
0.768978
0.768988
0.768998
0.768998
0.769008
0.769018
0.769027
0.769037
0.769037
0.769047
0.769057
0.769067
0.769077
0.769077
0.769087
0.769097
0.769107
0.769117
0.769117
0.769127
0.769137
0.769147
0.769157
0.769157
0.769167
0.769177
0.769188
0.769198
0.769198
0.769208
0.769218
0.769228
0.769238
0.769238
0.769248
0.769259
0.769269
0.769279
0.769279
0.769289
0.769299
0.769309
0.76932
0.76932
0.76933
0.76934
0.76935
0.769361
0.769361
0.769371
0.769381
0.769392
0.769402
0.769402
0.769412
0.769423
0.769433
0.769443
0.769443
0.769454
0.769464
0.769474
0.769485
0.769485
0.769495
0.769506
0.769516
0.769526
0.769526
0.769537
0.769547
0.769558
0.769568
0.769568
0.769579
0.769589
0.7696
0.76961
0.76961
0.769621
0.769631
0.769642
0.769653
0.769653
0.769663
0.769674
0.769684
0.769695
0.769695
0.769705
0.769716
0.769727
0.769737
0.769737
0.769748
0.769759
0.769769
0.76978
0.76978
0.769791
0.769801
0.769812
0.769823
0.769823
0.769834
0.769844
0.769855
0.769866
0.769866
0.769877
0.769888
0.769898
0.769909
0.769909
0.76992
0.769931
0.769942
0.769953
0.769953
0.769963
0.769974
0.769985
0.769996
0.769996
0.770007
0.770018
0.770029
0.77004
0.77004
0.770051
0.770062
0.770073
0.770084
0.770084
0.770095
0.770106
0.770117
0.770128
0.770128
0.770139
0.77015
0.770161
0.770172
0.770172
0.770183
0.770194
0.770205
0.770216
0.770216
0.770227
0.770239
0.77025
0.770261
0.770261
0.770272
0.770283
0.770294
0.770306
0.770306
0.770317
0.770328
0.770339
0.77035
0.77035
0.770362
0.770373
0.770384
0.770395
0.770395
0.770407
0.770418
0.770429
0.770441
0.770441
0.770452
0.770463
0.770475
0.770486
0.770486
0.770497
0.770509
0.77052
0.770532
0.770532
0.770543
0.770554
0.770566
0.770577
0.770577
0.770589
0.7706
0.770612
0.770623
0.770623
0.770635
0.770646
0.770658
0.770669
0.770669
0.770681
0.770692
0.770704
0.770716
0.770716
0.770727
0.770739
0.77075
0.770762
0.770762
0.770774
0.770785
0.770797
0.770808
0.770808
0.77082
0.770832
0.770844
0.770855
0.770855
0.770867
0.770879
0.77089
0.770902
0.770902
0.770914
0.770926
0.770937
0.770949
0.770949
0.770961
0.770973
0.770985
0.770996
0.770996
0.771008
0.77102
0.771032
0.771044
0.771044
0.771056
0.771068
0.771079
0.771091
0.771091
0.771103
0.771115
0.771127
0.771139
0.771139
0.771151
0.771163
0.771175
0.771187
0.771187
0.771199
0.771211
0.771223
0.771235
0.771235
0.771247
0.771259
0.771271
0.771283
0.771283
0.771295
0.771307
0.77132
0.771332
0.771332
0.771344
0.771356
0.771368
0.77138
0.77138
0.771392
0.771405
0.771417
0.771429
0.771429
0.771441
0.771453
0.771466
0.771478
0.771478
0.77149
0.771502
0.771515
0.771527
0.771527
0.771539
0.771551
0.771564
0.771576
0.771576
0.771588
0.771601
0.771613
0.771626
0.771626
0.771638
0.77165
0.771663
0.771675
0.771675
0.771687
0.7717
0.771712
0.771725
0.771725
0.771737
0.77175
0.771762
0.771775
0.771775
0.771787
0.7718
0.771812
0.771825
0.771825
0.771837
0.77185
0.771862
0.771875
0.771875
0.771888
0.7719
0.771913
0.771925
0.771925
0.771938
0.771951
0.771963
0.771976
0.771976
0.771989
0.772001
0.772014
0.772027
0.772027
0.772039
0.772052
0.772065
0.772078
0.772078
0.77209
0.772103
0.772116
0.772129
0.772129
0.772141
0.772154
0.772167
0.77218
0.77218
0.772193
0.772205
0.772218
0.772231
0.772231
0.772244
0.772257
0.77227
0.772283
0.772283
0.772296
0.772309
0.772322
0.772334
0.772334
0.772347
0.77236
0.772373
0.772386
0.772386
0.772399
0.772412
0.772425
0.772438
0.772438
0.772451
0.772464
0.772478
0.772491
0.772491
0.772504
0.772517
0.77253
0.772543
0.772543
0.772556
0.772569
0.772582
0.772596
0.772596
0.772609
0.772622
0.772635
0.772648
0.772648
0.772661
0.772675
0.772688
0.772701
0.772701
0.772714
0.772728
0.772741
0.772754
0.772754
0.772767
0.772781
0.772794
0.772807
0.772807
0.772821
0.772834
0.772847
0.772861
0.772861
0.772874
0.772887
0.772901
0.772914
0.772914
0.772928
0.772941
0.772955
0.772968
0.772968
0.772981
0.772995
0.773008
0.773022
0.773022
0.773035
0.773049
0.773062
0.773076
0.773076
0.773089
0.773103
0.773117
0.77313
0.77313
0.773144
0.773157
0.773171
0.773184
0.773184
0.773198
0.773212
0.773225
0.773239
0.773239
0.773253
0.773266
0.77328
0.773294
0.773294
0.773307
0.773321
0.773335
0.773349
0.773349
0.773362
0.773376
0.77339
0.773404
0.773404
0.773417
0.773431
0.773445
0.773459
0.773459
0.773473
0.773486
0.7735
0.773514
0.773514
0.773528
0.773542
0.773556
0.77357
0.77357
0.773583
0.773597
0.773611
0.773625
0.773625
0.773639
0.773653
0.773667
0.773681
0.773681
0.773695
0.773709
0.773723
0.773737
0.773737
0.773751
0.773765
0.773779
0.773793
0.773793
0.773807
0.773821
0.773836
0.77385
0.77385
0.773864
0.773878
0.773892
0.773906
0.773906
0.77392
0.773934
0.773949
0.773963
0.773963
0.773977
0.773991
0.774005
0.77402
0.77402
0.774034
0.774048
0.774062
0.774077
0.774077
0.774091
0.774105
0.774119
0.774134
0.774134
0.774148
0.774162
0.774177
0.774191
0.774191
0.774205
0.77422
0.774234
0.774249
0.774249
0.774263
0.774277
0.774292
0.774306
0.774306
0.774321
0.774335
0.77435
0.774364
0.774364
0.774378
0.774393
0.774407
0.774422
0.774422
0.774437
0.774451
0.774466
0.77448
0.77448
0.774495
0.774509
0.774524
0.774538
0.774538
0.774553
0.774568
0.774582
0.774597
0.774597
0.774612
0.774626
0.774641
0.774656
0.774656
0.77467
0.774685
0.7747
0.774714
0.774714
0.774729
0.774744
0.774758
0.774773
0.774773
0.774788
0.774803
0.774818
0.774832
0.774832
0.774847
0.774862
0.774877
0.774892
0.774892
0.774906
0.774921
0.774936
0.774951
0.774951
0.774966
0.774981
0.774996
0.775011
0.775011
0.775026
0.775041
0.775056
0.77507
0.77507
0.775085
0.7751
0.775115
0.77513
0.77513
0.775145
0.77516
0.775175
0.77519
0.77519
0.775206
0.775221
0.775236
0.775251
0.775251
0.775266
0.775281
0.775296
0.775311
0.775311
0.775326
0.775341
0.775357
0.775372
0.775372
0.775387
0.775402
0.775417
0.775432
0.775432
0.775448
0.775463
0.775478
0.775493
0.775493
0.775509
0.775524
0.775539
0.775554
0.775554
0.77557
0.775585
0.7756
0.775616
0.775616
0.775631
0.775646
0.775662
0.775677
0.775677
0.775692
0.775708
0.775723
0.775739
0.775739
0.775754
0.775769
0.775785
0.7758
0.7758
0.775816
0.775831
0.775847
0.775862
0.775862
0.775878
0.775893
0.775909
0.775924
0.775924
0.77594
0.775955
0.775971
0.775986
0.775986
0.776002
0.776017
0.776033
0.776048
0.776048
0.776064
0.776079
0.776095
0.77611
0.77611
0.776126
0.776141
0.776157
0.776172
0.776172
0.776188
0.776203
0.776219
0.776234
0.776234
0.77625
0.776266
0.776281
0.776297
0.776297
0.776313
0.776329
0.776345
0.776361
0.776361
0.776378
0.776394
0.77641
0.776426
0.776426
0.776442
0.776458
0.776473
0.776489
0.776489
0.776505
0.776521
0.776537
0.776553
0.776553
0.776569
0.776585
0.776601
0.776617
0.776617
0.776633
0.776649
0.776665
0.776681
0.776681
0.776697
0.776713
0.776729
0.776745
0.776745
0.776762
0.776778
0.776794
0.77681
0.77681
0.776826
0.776842
0.776858
0.776874
0.776874
0.77689
0.776907
0.776923
0.776939
0.776939
0.776955
0.776971
0.776987
0.777004
0.777004
0.77702
0.777036
0.777052
0.777069
0.777069
0.777085
0.777101
0.777117
0.777134
0.777134
0.77715
0.777166
0.777183
0.777199
0.777199
0.777215
0.777232
0.777248
0.777264
0.777264
0.777281
0.777297
0.777314
0.77733
0.77733
0.777346
0.777363
0.777379
0.777396
0.777396
0.777412
0.777429
0.777445
0.777462
0.777462
0.777478
0.777495
0.777511
0.777528
0.777528
0.777544
0.777561
0.777577
0.777594
0.777594
0.777611
0.777627
0.777644
0.77766
0.77766
0.777677
0.777694
0.77771
0.777727
0.777727
0.777744
0.77776
0.777777
0.777794
0.777794
0.77781
0.777827
0.777844
0.777861
0.777861
0.777877
0.777894
0.777911
0.777928
0.777928
0.777944
0.777961
0.777978
0.777995
0.777995
0.778012
0.778028
0.778045
0.778062
0.778062
0.778079
0.778096
0.778113
0.77813
0.77813
0.778147
0.778163
0.77818
0.778197
0.778197
0.778214
0.778231
0.778248
0.778265
0.778265
0.778282
0.778299
0.778316
0.778333
0.778333
0.77835
0.778367
0.778384
0.778401
0.778401
0.778418
0.778435
0.778453
0.77847
0.77847
0.778487
0.778504
0.778521
0.778538
0.778538
0.778555
0.778572
0.77859
0.778607
0.778607
0.778624
0.778641
0.778658
0.778675
0.778675
0.778693
0.77871
0.778727
0.778744
0.778744
0.778762
0.778779
0.778796
0.778814
0.778814
0.778831
0.778848
0.778865
0.778883
0.778883
0.7789
0.778918
0.778935
0.778952
0.778952
0.77897
0.778987
0.779004
0.779022
0.779022
0.779039
0.779057
0.779074
0.779092
0.779092
0.779109
0.779127
0.779144
0.779161
0.779161
0.779179
0.779196
0.779214
0.779232
0.779232
0.779249
0.779267
0.779284
0.779302
0.779302
0.779319
0.779337
0.779355
0.779372
0.779372
0.77939
0.779407
0.779425
0.779443
0.779443
0.77946
0.779478
0.779496
0.779513
0.779513
0.779531
0.779549
0.779567
0.779584
0.779584
0.779602
0.77962
0.779637
0.779655
0.779655
0.779673
0.779691
0.779709
0.779726
0.779726
0.779744
0.779762
0.77978
0.779798
0.779798
0.779816
0.779833
0.779851
0.779869
0.779869
0.779887
0.779905
0.779923
0.779941
0.779941
0.779959
0.779977
0.779995
0.780013
0.780013
0.780031
0.780049
0.780067
0.780085
0.780085
0.780103
0.780121
0.780139
0.780157
0.780157
0.780175
0.780193
0.780211
0.780229
0.780229
0.780247
0.780265
0.780283
0.780302
0.780302
0.78032
0.780338
0.780356
0.780374
0.780374
0.780392
0.78041
0.780429
0.780447
0.780447
0.780465
0.780483
0.780502
0.78052
0.78052
0.780538
0.780556
0.780575
0.780593
0.780593
0.780611
0.780629
0.780648
0.780666
0.780666
0.780684
0.780703
0.780721
0.780739
0.780739
0.780758
0.780776
0.780795
0.780813
0.780813
0.780831
0.78085
0.780868
0.780887
0.780887
0.780905
0.780924
0.780942
0.780961
0.780961
0.780979
0.780998
0.781016
0.781035
0.781035
0.781053
0.781072
0.78109
0.781109
0.781109
0.781127
0.781146
0.781164
0.781183
0.781183
0.781202
0.78122
0.781239
0.781258
0.781258
0.781276
0.781295
0.781313
0.781332
0.781332
0.781351
0.78137
0.781388
0.781407
0.781407
0.781426
0.781444
0.781463
0.781482
0.781482
0.781501
0.781519
0.781538
0.781557
0.781557
0.781576
0.781595
0.781613
0.781632
0.781632
0.781651
0.78167
0.781689
0.781708
0.781708
0.781727
0.781745
0.781764
0.781783
0.781783
0.781802
0.781821
0.78184
0.781859
0.781859
0.781878
0.781897
0.781916
0.781935
0.781935
0.781954
0.781973
0.781992
0.782011
0.782011
0.78203
0.782049
0.782068
0.782087
0.782087
0.782106
0.782125
0.782144
0.782164
0.782164
0.782183
0.782202
0.782221
0.78224
0.78224
0.782259
0.782278
0.782298
0.782317
0.782317
0.782336
0.782355
0.782374
0.782394
0.782394
0.782413
0.782432
0.782451
0.782471
0.782471
0.78249
0.782509
0.782528
0.782548
0.782548
0.782567
0.782586
0.782606
0.782625
0.782625
0.782644
0.782664
0.782683
0.782702
0.782702
0.782722
0.782741
0.782761
0.78278
0.78278
0.782799
0.782819
0.782838
0.782858
0.782858
0.782877
0.782897
0.782916
0.782936
0.782936
0.782955
0.782975
0.782994
0.783014
0.783014
0.783033
0.783053
0.783072
0.783092
0.783092
0.783112
0.783131
0.783151
0.78317
0.78317
0.78319
0.78321
0.783229
0.783249
0.783249
0.783269
0.783288
0.783308
0.783328
0.783328
0.783347
0.783367
0.783387
0.783407
0.783407
0.783426
0.783446
0.783466
0.783486
0.783486
0.783505
0.783525
0.783545
0.783565
0.783565
0.783585
0.783604
0.783624
0.783644
0.783644
0.783664
0.783684
0.783704
0.783723
0.783723
0.783743
0.783763
0.783783
0.783803
0.783803
0.783823
0.783843
0.783863
0.783883
0.783883
0.783903
0.783923
0.783943
0.783963
0.783963
0.783983
0.784003
0.784023
0.784043
0.784043
0.784063
0.784083
0.784103
0.784123
0.784123
0.784143
0.784163
0.784183
0.784204
0.784204
0.784224
0.784244
0.784264
0.784284
0.784284
0.784304
0.784324
0.784345
0.784365
0.784365
0.784385
0.784405
0.784425
0.784445
0.784445
0.784466
0.784486
0.784506
0.784526
0.784526
0.784546
0.784567
0.784587
0.784607
0.784607
0.784627
0.784647
0.784667
0.784688
0.784688
0.784708
0.784728
0.784748
0.784768
0.784768
0.784788
0.784808
0.784829
0.784849
0.784849
0.784869
0.78489
0.784911
0.784931
0.784931
0.784952
0.784973
0.784993
0.785014
0.785014
0.785035
0.785056
0.785076
0.785097
0.785097
0.785118
0.785138
0.785159
0.78518
0.78518
0.7852
0.785221
0.785242
0.785262
0.785262
0.785283
0.785304
0.785324
0.785345
0.785345
0.785366
0.785386
0.785407
0.785428
0.785428
0.785449
0.785469
0.78549
0.785511
0.785511
0.785532
0.785552
0.785573
0.785594
0.785594
0.785615
0.785635
0.785656
0.785677
0.785677
0.785698
0.785719
0.785739
0.78576
0.78576
0.785781
0.785802
0.785823
0.785844
0.785844
0.785865
0.785886
0.785906
0.785927
0.785927
0.785948
0.785969
0.78599
0.786011
0.786011
0.786032
0.786053
0.786074
0.786095
0.786095
0.786116
0.786137
0.786158
0.786179
0.786179
0.7862
0.786221
0.786242
0.786263
0.786263
0.786284
0.786306
0.786327
0.786348
0.786348
0.786369
0.78639
0.786411
0.786432
0.786432
0.786453
0.786475
0.786496
0.786517
0.786517
0.786538
0.786559
0.786581
0.786602
0.786602
0.786623
0.786644
0.786666
0.786687
0.786687
0.786708
0.786729
0.786751
0.786772
0.786772
0.786793
0.786815
0.786836
0.786857
0.786857
0.786879
0.7869
0.786921
0.786943
0.786943
0.786964
0.786985
0.787007
0.787028
0.787028
0.78705
0.787071
0.787093
0.787114
0.787114
0.787136
0.787157
0.787178
0.7872
0.7872
0.787221
0.787243
0.787264
0.787286
0.787286
0.787308
0.787329
0.787351
0.787372
0.787372
0.787394
0.787415
0.787437
0.787459
0.787459
0.78748
0.787502
0.787523
0.787545
0.787545
0.787567
0.787588
0.78761
0.787632
0.787632
0.787653
0.787675
0.787697
0.787719
0.787719
0.78774
0.787762
0.787784
0.787806
0.787806
0.787827
0.787849
0.787871
0.787893
0.787893
0.787914
0.787936
0.787958
0.78798
0.78798
0.788002
0.788024
0.788045
0.788067
0.788067
0.788089
0.788111
0.788133
0.788155
0.788155
0.788177
0.788199
0.788221
0.788243
0.788243
0.788265
0.788287
0.788308
0.78833
0.78833
0.788352
0.788374
0.788396
0.788418
0.788418
0.788441
0.788463
0.788485
0.788507
0.788507
0.788529
0.788551
0.788573
0.788595
0.788595
0.788617
0.788639
0.788661
0.788683
0.788683
0.788706
0.788728
0.78875
0.788772
0.788772
0.788794
0.788816
0.788839
0.788861
0.788861
0.788883
0.788905
0.788928
0.78895
0.78895
0.788972
0.788994
0.789017
0.789039
0.789039
0.789061
0.789083
0.789106
0.789128
0.789128
0.78915
0.789173
0.789195
0.789217
0.789217
0.78924
0.789262
0.789285
0.789307
0.789307
0.789329
0.789352
0.789374
0.789397
0.789397
0.789419
0.789442
0.789464
0.789486
0.789486
0.789509
0.789531
0.789554
0.789576
0.789576
0.789599
0.789621
0.789644
0.789667
0.789667
0.789689
0.789712
0.789734
0.789757
0.789757
0.789779
0.789802
0.789825
0.789847
0.789847
0.78987
0.789892
0.789915
0.789938
0.789938
0.78996
0.789983
0.790006
0.790029
0.790029
0.790051
0.790074
0.790097
0.790119
0.790119
0.790142
0.790165
0.790188
0.79021
0.79021
0.790233
0.790256
0.790279
0.790302
0.790302
0.790324
0.790347
0.79037
0.790393
0.790393
0.790416
0.790439
0.790461
0.790484
0.790484
0.790507
0.79053
0.790553
0.790576
0.790576
0.790599
0.790622
0.790645
0.790668
0.790668
0.790691
0.790714
0.790737
0.79076
0.79076
0.790783
0.790806
0.790829
0.790852
0.790852
0.790875
0.790898
0.790921
0.790944
0.790944
0.790967
0.79099
0.791013
0.791036
0.791036
0.791059
0.791082
0.791106
0.791129
0.791129
0.791152
0.791175
0.791198
0.791221
0.791221
0.791245
0.791268
0.791291
0.791314
0.791314
0.791337
0.791361
0.791384
0.791407
0.791407
0.79143
0.791454
0.791477
0.7915
0.7915
0.791524
0.791547
0.79157
0.791593
0.791593
0.791617
0.79164
0.791663
0.791687
0.791687
0.79171
0.791734
0.791757
0.79178
0.79178
0.791804
0.791827
0.791851
0.791874
0.791874
0.791898
0.791921
0.791944
0.791968
0.791968
0.791991
0.792015
0.792038
0.792062
0.792062
0.792085
0.792109
0.792132
0.792156
0.792156
0.79218
0.792203
0.792227
0.79225
0.79225
0.792274
0.792297
0.792321
0.792345
0.792345
0.792368
0.792392
0.792416
0.792439
0.792439
0.792463
0.792487
0.79251
0.792534
0.792534
0.792558
0.792581
0.792605
0.792629
0.792629
0.792653
0.792676
0.7927
0.792724
0.792724
0.792748
0.792771
0.792795
0.792819
0.792819
0.792843
0.792866
0.79289
0.792914
0.792914
0.792938
0.792962
0.792985
0.793009
0.793009
0.793033
0.793057
0.793081
0.793104
0.793104
0.793128
0.793152
0.793176
0.793199
0.793199
0.793223
0.793247
0.79327
0.793294
0.793294
0.793318
0.793342
0.793366
0.79339
0.79339
0.793413
0.793438
0.793462
0.793486
0.793486
0.79351
0.793535
0.793559
0.793583
0.793583
0.793608
0.793632
0.793656
0.793681
0.793681
0.793705
0.793729
0.793754
0.793778
0.793778
0.793802
0.793826
0.793851
0.793875
0.793875
0.793899
0.793924
0.793948
0.793972
0.793972
0.793996
0.794021
0.794045
0.794069
0.794069
0.794094
0.794118
0.794142
0.794166
0.794166
0.794191
0.794215
0.794239
0.794264
0.794264
0.794288
0.794313
0.794337
0.794361
0.794361
0.794386
0.79441
0.794435
0.794459
0.794459
0.794483
0.794508
0.794532
0.794557
0.794557
0.794581
0.794606
0.79463
0.794655
0.794655
0.794679
0.794704
0.794728
0.794753
0.794753
0.794777
0.794802
0.794826
0.794851
0.794851
0.794876
0.7949
0.794925
0.794949
0.794949
0.794974
0.794999
0.795023
0.795048
0.795048
0.795073
0.795097
0.795122
0.795147
0.795147
0.795171
0.795196
0.795221
0.795245
0.795245
0.79527
0.795295
0.795319
0.795344
0.795344
0.795369
0.795394
0.795419
0.795443
0.795443
0.795468
0.795493
0.795518
0.795543
0.795543
0.795567
0.795592
0.795617
0.795642
0.795642
0.795667
0.795692
0.795717
0.795741
0.795741
0.795766
0.795791
0.795816
0.795841
0.795841
0.795866
0.795891
0.795916
0.795941
0.795941
0.795966
0.795991
0.796016
0.796041
0.796041
0.796066
0.796091
0.796116
0.796141
0.796141
0.796166
0.796191
0.796216
0.796241
0.796241
0.796266
0.796291
0.796316
0.796342
0.796342
0.796367
0.796392
0.796417
0.796442
0.796442
0.796467
0.796492
0.796518
0.796543
0.796543
0.796568
0.796593
0.796618
0.796644
0.796644
0.796669
0.796694
0.796719
0.796745
0.796745
0.79677
0.796795
0.79682
0.796846
0.796846
0.796871
0.796896
0.796922
0.796947
0.796947
0.796972
0.796998
0.797023
0.797048
0.797048
0.797074
0.797099
0.797124
0.79715
0.79715
0.797175
0.797201
0.797226
0.797251
0.797251
0.797277
0.797302
0.797328
0.797353
0.797353
0.797379
0.797404
0.79743
0.797455
0.797455
0.797481
0.797506
0.797532
0.797557
0.797557
0.797583
0.797608
0.797634
0.79766
0.79766
0.797685
0.797711
0.797736
0.797762
0.797762
0.797788
0.797813
0.797839
0.797864
0.797864
0.79789
0.797916
0.797941
0.797967
0.797967
0.797993
0.798019
0.798044
0.79807
0.79807
0.798096
0.798121
0.798147
0.798173
0.798173
0.798199
0.798224
0.79825
0.798276
0.798276
0.798302
0.798328
0.798353
0.798379
0.798379
0.798405
0.798431
0.798457
0.798483
0.798483
0.798508
0.798534
0.79856
0.798586
0.798586
0.798612
0.798638
0.798664
0.79869
0.79869
0.798716
0.798742
0.798768
0.798794
0.798794
0.79882
0.798846
0.798872
0.798898
0.798898
0.798924
0.79895
0.798976
0.799002
0.799002
0.799028
0.799054
0.79908
0.799106
0.799106
0.799132
0.799158
0.799184
0.79921
0.79921
0.799236
0.799262
0.799289
0.799315
0.799315
0.799341
0.799367
0.799393
0.799419
0.799419
0.799446
0.799472
0.799498
0.799524
0.799524
0.79955
0.799577
0.799603
0.799629
0.799629
0.799655
0.799682
0.799708
0.799734
0.799734
0.79976
0.799787
0.799813
0.799839
0.799839
0.799866
0.799892
0.799918
0.799945
0.799945
0.799971
0.799997
0.800024
0.80005
0.80005
0.800077
0.800103
0.800129
0.800156
0.800156
0.800182
0.800209
0.800235
0.800262
0.800262
0.800288
0.800315
0.800341
0.800368
0.800368
0.800394
0.800421
0.800447
0.800474
0.800474
0.8005
0.800527
0.800553
0.80058
0.80058
0.800606
0.800633
0.800659
0.800686
0.800686
0.800713
0.800739
0.800766
0.800793
0.800793
0.800819
0.800846
0.800872
0.800899
0.800899
0.800926
0.800952
0.800979
0.801006
0.801006
0.801033
0.801059
0.801086
0.801113
0.801113
0.801139
0.801166
0.801193
0.80122
0.80122
0.801246
0.801273
0.8013
0.801327
0.801327
0.801353
0.80138
0.801407
0.801433
0.801433
0.80146
0.801487
0.801514
0.80154
0.80154
0.801567
0.801594
0.80162
0.801647
0.801647
0.801674
0.8017
0.801727
0.801754
0.801754
0.80178
0.801807
0.801834
0.801861
0.801861
0.801888
0.801915
0.801943