<?xml version="1.0"?>
<VTKFile type="UnstructuredGrid" version="0.1" byte_order="LittleEndian">
<UnstructuredGrid>
<Piece NumberOfPoints="5000" NumberOfCells="4000">
<PointData Scalars="Reaction 0">
<DataArray type="Float32" Name="Reaction 0" format="ascii">
0.404512
0.404512
0.404512
0.404512
0.404512
0.404512
0.404512
0.404512
0.404513
0.404513
0.404513
0.404513
0.404513
0.404514
0.404514
0.404514
0.404514
0.404515
0.404515
0.404516
0.404516
0.404516
0.404517
0.404517
0.404518
0.404518
0.404518
0.404519
0.40452
0.40452
0.40452
0.404521
0.404522
0.404523
0.404523
0.404523
0.404524
0.404525
0.404526
0.404527
0.404527
0.404528
0.404529
0.40453
0.404531
0.404531
0.404532
0.404533
0.404534
0.404535
0.404535
0.404536
0.404538
0.404539
0.40454
0.40454
0.404541
0.404543
0.404544
0.404545
0.404545
0.404547
0.404548
0.40455
0.404551
0.404551
0.404553
0.404554
0.404556
0.404558
0.404558
0.404559
0.404561
0.404563
0.404564
0.404564
0.404566
0.404568
0.40457
0.404572
0.404572
0.404573
0.404575
0.404577
0.404579
0.404579
0.404581
0.404583
0.404585
0.404587
0.404587
0.40459
0.404592
0.404594
0.404596
0.404596
0.404598
0.404601
0.404603
0.404605
0.404605
0.404608
0.40461
0.404612
0.404615
0.404615
0.404617
0.40462
0.404622
0.404625
0.404625
0.404627
0.40463
0.404633
0.404635
0.404635
0.404638
0.404641
0.404643
0.404646
0.404646
0.404649
0.404652
0.404655
0.404658
0.404658
0.404661
0.404664
0.404667
0.40467
0.40467
0.404673
0.404676
0.404679
0.404682
0.404682
0.404685
0.404688
0.404692
0.404695
0.404695
0.404698
0.404701
0.404705
0.404708
0.404708
0.404711
0.404715
0.404718
0.404722
0.404722
0.404725
0.404729
0.404732
0.404736
0.404736
0.40474
0.404743
0.404747
0.404751
0.404751
0.404754
0.404758
0.404762
0.404766
0.404766
0.40477
0.404774
0.404778
0.404782
0.404782
0.404786
0.40479
0.404794
0.404798
0.404798
0.404802
0.404806
0.40481
0.404814
0.404814
0.404818
0.404823
0.404827
0.404831
0.404831
0.404836
0.40484
0.404844
0.404849
0.404849
0.404853
0.404858
0.404862
0.404867
0.404867
0.404871
0.404876
0.40488
0.404885
0.404885
0.40489
0.404894
0.404899
0.404904
0.404904
0.404909
0.404914
0.404918
0.404923
0.404923
0.404928
0.404933
0.404938
0.404943
0.404943
0.404948
0.404953
0.404958
0.404963
0.404963
0.404969
0.404974
0.404979
0.404984
0.404984
0.404989
0.404995
0.405
0.405005
0.405005
0.405011
0.405016
0.405022
0.405027
0.405027
0.405033
0.405038
0.405044
0.405049
0.405049
0.405055
0.405061
0.405066
0.405072
0.405072
0.405078
0.405083
0.405089
0.405095
0.405095
0.405101
0.405107
0.405113
0.405119
0.405119
0.405125
0.405131
0.405137
0.405143
0.405143
0.405149
0.405155
0.405161
0.405167
0.405167
0.405173
0.40518
0.405186
0.405192
0.405192
0.405198
0.405205
0.405211
0.405217
0.405217
0.405224
0.40523
0.405237
0.405243
0.405243
0.40525
0.405257
0.405263
0.40527
0.40527
0.405276
0.405283
0.40529
0.405297
0.405297
0.405303
0.40531
0.405317
0.405324
0.405324
0.405331
0.405338
0.405345
0.405352
0.405352
0.405359
0.405366
0.405373
0.40538
0.40538
0.405387
0.405394
0.405401
0.405409
0.405409
0.405416
0.405423
0.40543
0.405438
0.405438
0.405445
0.405452
0.40546
0.405467
0.405467
0.405475
0.405482
0.40549
0.405497
0.405497
0.405505
0.405513
0.40552
0.405528
0.405528
0.405536
0.405543
0.405551
0.405559
0.405559
0.405567
0.405575
0.405583
0.405591
0.405591
0.405598
0.405606
0.405614
0.405622
0.405622
0.405631
0.405639
0.405647
0.405655
0.405655
0.405663
0.405671
0.40568
0.405688
0.405688
0.405696
0.405704
0.405713
0.405721
0.405721
0.40573
0.405738
0.405746
0.405755
0.405755
0.405764
0.405772
0.405781
0.405789
0.405789
0.405798
0.405807
0.405815
0.405824
0.405824
0.405833
0.405842
0.40585
0.405859
0.405859
0.405868
0.405877
0.405886
0.405895
0.405895
0.405904
0.405913
0.405922
0.405931
0.405931
0.40594
0.405949
0.405959
0.405968
0.405968
0.405977
0.405986
0.405996
0.406005
0.406005
0.406014
0.406024
0.406033
0.406042
0.406042
0.406052
0.406061
0.406071
0.40608
0.40608
0.40609
0.4061
0.406109
0.406119
0.406119
0.406129
0.406138
0.406148
0.406158
0.406158
0.406168
0.406178
0.406187
0.406197
0.406197
0.406207
0.406217
0.406227
0.406237
0.406237
0.406247
0.406257
0.406267
0.406278
0.406278
0.406288
0.406298
0.406308
0.406318
0.406318
0.406329
0.406339
0.406349
0.40636
0.40636
0.40637
0.406381
0.406391
0.406401
0.406401
0.406412
0.406423
0.406433
0.406444
0.406444
0.406454
0.406465
0.406476
0.406486
0.406486
0.406497
0.406508
0.406519
0.40653
0.40653
0.40654
0.406551
0.406562
0.406573
0.406573
0.406584
0.406595
0.406606
0.406617
0.406617
0.406628
0.40664
0.406651
0.406662
0.406662
0.406673
0.406684
0.406696
0.406707
0.406707
0.406718
0.40673
0.406741
0.406752
0.406752
0.406764
0.406775
0.406787
0.406798
0.406798
0.40681
0.406822
0.406833
0.406845
0.406845
0.406856
0.406868
0.40688
0.406892
0.406892
0.406903
0.406915
0.406927
0.406939
0.406939
0.406951
0.406963
0.406975
0.406987
0.406987
0.406999
0.407011
0.407023
0.407035
0.407035
0.407047
0.40706
0.407072
0.407084
0.407084
0.407096
0.407109
0.407121
0.407133
0.407133
0.407146
0.407158
0.40717
0.407183
0.407183
0.407195
0.407208
0.40722
0.407233
0.407233
0.407246
0.407258
0.407271
0.407284
0.407284
0.407296
0.407309
0.407322
0.407335
0.407335
0.407348
0.407361
0.407373
0.407386
0.407386
0.407399
0.407412
0.407425
0.407438
0.407438
0.407452
0.407465
0.407478
0.407491
0.407491
0.407504
0.407517
0.407531
0.407544
0.407544
0.407557
0.407571
0.407584
0.407597
0.407597
0.407611
0.407624
0.407638
0.407651
0.407651
0.407665
0.407678
0.407692
0.407706
0.407706
0.407719
0.407733
0.407747
0.40776
0.40776
0.407774
0.407788
0.407802
0.407816
0.407816
0.40783
0.407844
0.407858
0.407872
0.407872
0.407886
0.4079
0.407914
0.407928
0.407928
0.407942
0.407956
0.40797
0.407985
0.407985
0.407999
0.408013
0.408027
0.408042
0.408042
0.408056
0.40807
0.408085
0.408099
0.408099
0.408114
0.408128
0.408143
0.408157
0.408157
0.408172
0.408187
0.408201
0.408216
0.408216
0.408231
0.408246
0.40826
0.408275
0.408275
0.40829
0.408305
0.40832
0.408335
0.408335
0.40835
0.408365
0.40838
0.408395
0.408395
0.40841
0.408425
0.40844
0.408455
0.408455
0.40847
0.408485
0.408501
0.408516
0.408516
0.408531
0.408547
0.408562
0.408577
0.408577
0.408593
0.408608
0.408624
0.408639
0.408639
0.408655
0.40867
0.408686
0.408702
0.408702
0.408717
0.408733
0.408749
0.408764
0.408764
0.40878
0.408796
0.408812
0.408828
0.408828
0.408843
0.408859
0.408875
0.408891
0.408891
0.408907
0.408923
0.408939
0.408955
0.408955
0.408972
0.408988
0.409004
0.40902
0.40902
0.409036
0.409053
0.409069
0.409085
0.409085
0.409102
0.409118
0.409134
0.409151
0.409151
0.409167
0.409184
0.4092
0.409217
0.409217
0.409234
0.40925
0.409267
0.409283
0.409283
0.4093
0.409317
0.409334
0.40935
0.40935
0.409367
0.409384
0.409401
0.409418
0.409418
0.409435
0.409452
0.409469
0.409486
0.409486
0.409503
0.40952
0.409537
0.409554
0.409554
0.409571
0.409589
0.409606
0.409623
0.409623
0.40964
0.409658
0.409675
0.409692
0.409692
0.40971
0.409727
0.409745
0.409762
0.409762
0.40978
0.409797
0.409815
0.409833
0.409833
0.40985
0.409868
0.409886
0.409903
0.409903
0.409921
0.409939
0.409957
0.409974
0.409974
0.409992
0.41001
0.410028
0.410046
0.410046
0.410064
0.410082
0.4101
0.410118
0.410118
0.410136
0.410155
0.410173
0.410191
0.410191
0.410209
0.410227
0.410246
0.410264
0.410264
0.410282
0.410301
0.410319
0.410338
0.410338
0.410356
0.410375
0.410393
0.410412
0.410412
0.41043
0.410449
0.410467
0.410486
0.410486
0.410505
0.410523
0.410542
0.410561
0.410561
0.41058
0.410599
0.410618
0.410636
0.410636
0.410655
0.410674
0.410693
0.410712
0.410712
0.410731
0.41075
0.41077
0.410789
0.410789
0.410808
0.410827
0.410846
0.410866
0.410866
0.410885
0.410904
0.410923
0.410943
0.410943
0.410962
0.410982
0.411001
0.411021
0.411021
0.41104
0.41106
0.411079
0.411099
0.411099
0.411118
0.411138
0.411158
0.411177
0.411177
0.411197
0.411217
0.411237
0.411257
0.411257
0.411277
0.411296
0.411316
0.411336
0.411336
0.411356
0.411376
0.411396
0.411416
0.411416
0.411436
0.411457
0.411477
0.411497
0.411497
0.411517
0.411537
0.411558
0.411578
0.411578
0.411598
0.411619
0.411639
0.41166
0.41166
0.41168
0.4117
0.411721
0.411741
0.411741
0.411762
0.411783
0.411803
0.411824
0.411824
0.411845
0.411865
0.411886
0.411907
0.411907
0.411928
0.411948
0.411969
0.41199
0.41199
0.412011
0.412032
0.412053
0.412074
0.412074
0.412095
0.412116
0.412137
0.412158
0.412158
0.41218
0.412201
0.412222
0.412243
0.412243
0.412264
0.412286
0.412307
0.412328
0.412328
0.41235
0.412371
0.412393
0.412414
0.412414
0.412436
0.412457
0.412479
0.4125
0.4125
0.412522
0.412544
0.412565
0.412587
0.412587
0.412609
0.412631
0.412652
0.412674
0.412674
0.412696
0.412718
0.41274
0.412762
0.412762
0.412784
0.412806
0.412828
0.41285
0.41285
0.412872
0.412894
0.412916
0.412938
0.412938
0.412961
0.412983
0.413005
0.413027
0.413027
0.41305
0.413072
0.413094
0.413117
0.413117
0.413139
0.413162
0.413184
0.413207
0.413207
0.413229
0.413252
0.413275
0.413297
0.413297
0.41332
0.413343
0.413365
0.413388
0.413388
0.413411
0.413434
0.413457
0.413479
0.413479
0.413502
0.413525
0.413548
0.413571
0.413571
0.413594
0.413617
0.41364
0.413664
0.413664
0.413687
0.41371
0.413733
0.413756
0.413756
0.41378
0.413803
0.413826
0.41385
0.41385
0.413873
0.413896
0.41392
0.413943
0.413943
0.413967
0.41399
0.414014
0.414037
0.414037
0.414061
0.414085
0.414108
0.414132
0.414132
0.414156
0.41418
0.414203
0.414227
0.414227
0.414251
0.414275
0.414299
0.414323
0.414323
0.414347
0.414371
0.414395
0.414419
0.414419
0.414443
0.414467
0.414491
0.414515
0.414515
0.414539
0.414564
0.414588
0.414612
0.414612
0.414637
0.414661
0.414685
0.41471
0.41471
0.414734
0.414759
0.414783
0.414808
0.414808
0.414832
0.414857
0.414881
0.414906
0.414906
0.414931
0.414955
0.41498
0.415005
0.415005
0.41503
0.415054
0.415079
0.415104
0.415104
0.415129
0.415154
0.415179
0.415204
0.415204
0.415229
0.415254
0.415279
0.415304
0.415304
0.415329
0.415355
0.41538
0.415405
0.415405
0.41543
0.415456
0.415481
0.415506
0.415506
0.415532
0.415557
0.415582
0.415608
0.415608
0.415633
0.415659
0.415684
0.41571
0.41571
0.415736
0.415761
0.415787
0.415813
0.415813
0.415838
0.415864
0.41589
0.415916
0.415916
0.415942
0.415967
0.415993
0.416019
0.416019
0.416045
0.416071
0.416097
0.416123
0.416123
0.416149
0.416175
0.416202
0.416228
0.416228
0.416254
0.41628
0.416306
0.416333
0.416333
0.416359
0.416385
0.416412
0.416438
0.416438
0.416465
0.416491
0.416518
0.416544
0.416544
0.416571
0.416597
0.416624
0.41665
0.41665
0.416677
0.416704
0.416731
0.416757
0.416757
0.416784
0.416811
0.416838
0.416865
0.416865
0.416892
0.416918
0.416945
0.416972
0.416972
0.416999
0.417026
0.417054
0.417081
0.417081
0.417108
0.417135
0.417162
0.417189
0.417189
0.417217
0.417244
0.417271
0.417299
0.417299
0.417326
0.417353
0.417381
0.417408
0.417408
0.417436
0.417463
0.417491
0.417518
0.417518
0.417546
0.417574
0.417601
0.417629
0.417629
0.417657
0.417684
0.417712
0.41774
0.41774
0.417768
0.417796
0.417824
0.417852
0.417852
0.41788
0.417908
0.417936
0.417964
0.417964
0.417992
0.41802
0.418048
0.418076
0.418076
0.418104
0.418133
0.418161
0.418189
0.418189
0.418217
0.418246
0.418274
0.418303
0.418303
0.418331
0.418359
0.418388
0.418416
0.418416
0.418445
0.418474
0.418502
0.418531
0.418531
0.418559
0.418588
0.418617
0.418646
0.418646
0.418674
0.418703
0.418732
0.418761
0.418761
0.41879
0.418819
0.418848
0.418877
0.418877
0.418906
0.418935
0.418964
0.418993
0.418993
0.419022
0.419051
0.41908
0.41911
0.41911
0.419139
0.419168
0.419198
0.419227
0.419227
0.419256
0.419286
0.419315
0.419345
0.419345
0.419374
0.419404
0.419433
0.419463
0.419463
0.419492
0.419522
0.419552
0.419581
0.419581
0.419611
0.419641
0.419671
0.4197
0.4197
0.41973
0.41976
0.41979
0.41982
0.41982
0.41985
0.41988
0.41991
0.41994
0.41994
0.41997
0.42
0.42003
0.42006
0.42006
0.420091
0.420121
0.420151
0.420181
0.420181
0.420212
0.420242
0.420272
0.420303
0.420303
0.420333
0.420364
0.420394
0.420425
0.420425
0.420455
0.420486
0.420517
0.420547
0.420547
0.420578
0.420609
0.420639
0.42067
0.42067
0.420701
0.420732
0.420762
0.420793
0.420793
0.420824
0.420855
0.420886
0.420917
0.420917
0.420948
0.420979
0.42101
0.421041
0.421041
0.421073
0.421104
0.421135
0.421166
0.421166
0.421197
0.421229
0.42126
0.421291
0.421291
0.421323
0.421354
0.421386
0.421417
0.421417
0.421449
0.42148
0.421512
0.421543
0.421543
0.421575
0.421606
0.421638
0.42167
0.42167
0.421702
0.421733
0.421765
0.421797
0.421797
0.421829
0.421861
0.421893
0.421924
0.421924
0.421956
0.421988
0.42202
0.422053
0.422053
0.422085
0.422117
0.422149
0.422181
0.422181
0.422213
0.422245
0.422278
0.42231
0.42231
0.422342
0.422375
0.422407
0.422439
0.422439
0.422472
0.422504
0.422537
0.422569
0.422569
0.422602
0.422635
0.422667
0.4227
0.4227
0.422732
0.422765
0.422798
0.422831
0.422831
0.422863
0.422896
0.422929
0.422962
0.422962
0.422995
0.423028
0.423061
0.423094
0.423094
0.423127
0.42316
0.423193
0.423226
0.423226
0.423259
0.423292
0.423326
0.423359
0.423359
0.423392
0.423425
0.423459
0.423492
0.423492
0.423526
0.423559
0.423592
0.423626
0.423626
0.423659
0.423693
0.423726
0.42376
0.42376
0.423794
0.423827
0.423861
0.423895
0.423895
0.423928
0.423962
0.423996
0.42403
0.42403
0.424064
0.424098
0.424131
0.424165
0.424165
0.424199
0.424233
0.424267
0.424301
0.424301
0.424336
0.42437
0.424404
0.424438
0.424438
0.424472
0.424506
0.424541
0.424575
0.424575
0.424609
0.424644
0.424678
0.424713
0.424713
0.424747
0.424781
0.424816
0.424851
0.424851
0.424885
0.42492
0.424954
0.424989
0.424989
0.425024
0.425058
0.425093
0.425128
0.425128
0.425163
0.425198
0.425232
0.425267
0.425267
0.425302
0.425337
0.425372
0.425407
0.425407
0.425442
0.425477
0.425512
0.425547
0.425547
0.425583
0.425618
0.425653
0.425688
0.425688
0.425724
0.425759
0.425794
0.42583
0.42583
0.425865
0.4259
0.425936
0.425971
0.425971
0.426007
0.426042
0.426078
0.426114
0.426114
0.426149
0.426185
0.42622
0.426256
0.426256
0.426292
0.426328
0.426364
0.426399
0.426399
0.426435
0.426471
0.426507
0.426543
0.426543
0.426579
0.426615
0.426651
0.426687
0.426687
0.426723
0.426759
0.426796
0.426832
0.426832
0.426868
0.426904
0.426941
0.426977
0.426977
0.427013
0.42705
0.427086
0.427122
0.427122
0.427159
0.427195
0.427232
0.427268
0.427268
0.427305
0.427342
0.427378
0.427415
0.427415
0.427452
0.427488
0.427525
0.427562
0.427562
0.427599
0.427636
0.427672
0.427709
0.427709
0.427746
0.427783
0.42782
0.427857
0.427857
0.427894
0.427931
0.427968
0.428006
0.428006
0.428043
0.42808
0.428117
0.428154
0.428154
0.428192
0.428229
0.428266
0.428304
0.428304
0.428341
0.428379
0.428416
0.428454
0.428454
0.428491
0.428529
0.428566
0.428604
0.428604
0.428642
0.428679
0.428717
0.428755
0.428755
0.428792
0.42883
0.428868
0.428906
0.428906
0.428944
0.428982
0.42902
0.429058
0.429058
0.429096
0.429134
0.429172
0.42921
0.42921
0.429248
0.429286
0.429324
0.429363
0.429363
0.429401
0.429439
0.429477
0.429516
0.429516
0.429554
0.429592
0.429631
0.429669
0.429669
0.429708
0.429746
0.429785
0.429823
0.429823
0.429862
0.429901
0.429939
0.429978
0.429978
0.430017
0.430055
0.430094
0.430133
0.430133
0.430172
0.430211
0.43025
0.430288
0.430288
0.430327
0.430366
0.430405
0.430444
0.430444
0.430484
0.430523
0.430562
0.430601
0.430601
0.43064
0.430679
0.430719
0.430758
0.430758
0.430797
0.430837
0.430876
0.430915
0.430915
0.430955
0.430994
0.431034
0.431073
0.431073
0.431113
0.431152
0.431192
0.431232
0.431232
0.431271
0.431311
0.431351
0.43139
0.43139
0.43143
0.43147
0.43151
0.43155
0.43155
0.43159
0.43163
0.43167
0.43171
0.43171
0.43175
0.43179
0.43183
0.43187
0.43187
0.43191
0.43195
0.43199
0.432031
0.432031
0.432071
0.432111
0.432151
0.432192
0.432192
0.432232
0.432273
0.432313
0.432354
0.432354
0.432394
0.432435
0.432475
0.432516
0.432516
0.432556
0.432597
0.432638
0.432678
0.432678
0.432719
0.43276
0.432801
0.432842
0.432842
0.432882
0.432923
0.432964
0.433005
0.433005
0.433046
0.433087
0.433128
0.433169
0.433169
0.43321
0.433251
0.433293
0.433334
0.433334
0.433375
0.433416
0.433458
0.433499
0.433499
0.43354
0.433582
0.433623
0.433664
0.433664
0.433706
0.433747
0.433789
0.43383
0.43383
0.433872
0.433914
0.433955
0.433997
0.433997
0.434039
0.43408
0.434122
0.434164
0.434164
0.434206
0.434247
0.434289
0.434331
0.434331
0.434373
0.434415
0.434457
0.434499
0.434499
0.434541
0.434583
0.434625
0.434668
0.434668
0.43471
0.434752
0.434794
0.434836
0.434836
0.434879
0.434921
0.434963
0.435006
0.435006
0.435048
0.435091
0.435133
0.435176
0.435176
0.435218
0.435261
0.435303
0.435346
0.435346
0.435389
0.435431
0.435474
0.435517
0.435517
0.435559
0.435602
0.435645
0.435688
0.435688
0.435731
0.435774
0.435817
0.43586
0.43586
0.435903
0.435946
0.435989
0.436032
0.436032
0.436075
0.436118
0.436161
0.436205
0.436205
0.436248
0.436291
0.436334
0.436378
0.436378
0.436421
0.436464
0.436508
0.436551
0.436551
0.436595
0.436638
0.436682
0.436726
0.436726
0.436769
0.436813
0.436856
0.4369
0.4369
0.436944
0.436988
0.437031
0.437075
0.437075
0.437119
0.437163
0.437207
0.437251
0.437251
0.437295
0.437339
0.437383
0.437427
0.437427
0.437471
0.437515
0.437559
0.437603
0.437603
0.437648
0.437692
0.437736
0.43778
0.43778
0.437825
0.437869
0.437913
0.437958
0.437958
0.438002
0.438047
0.438091
0.438136
0.438136
0.43818
0.438225
0.43827
0.438314
0.438314
0.438359
0.438404
0.438448
0.438493
0.438493
0.438538
0.438583
0.438628
0.438673
0.438673
0.438717
0.438762
0.438807
0.438852
0.438852
0.438897
0.438943
0.438988
0.439033
0.439033
0.439078
0.439123
0.439168
0.439214
0.439214
0.439259
0.439304
0.43935
0.439395
0.439395
0.43944
0.439486
0.439531
0.439577
0.439577
0.439622
0.439668
0.439713
0.439759
0.439759
0.439805
0.43985
0.439896
0.439942
0.439942
0.439988
0.440033
0.440079
0.440125
0.440125
0.440171
0.440217
0.440263
0.440309
0.440309
0.440355
0.440401
0.440447
0.440493
0.440493
0.440539
0.440585
0.440631
0.440678
0.440678
0.440724
0.44077
0.440817
0.440863
0.440863
0.440909
0.440956
0.441002
0.441049
0.441049
0.441095
0.441142
0.441188
0.441235
0.441235
0.441281
0.441328
0.441375
0.441421
0.441421
0.441468
0.441515
0.441562
0.441608
0.441608
0.441655
0.441702
0.441749
0.441796
0.441796
0.441843
0.44189
0.441937
0.441984
0.441984
0.442031
0.442078
0.442125
0.442173
0.442173
0.44222
0.442267
0.442314
0.442362
0.442362
0.442409
0.442456
0.442504
0.442551
0.442551
0.442598
0.442646
0.442693
0.442741
0.442741
0.442789
0.442836
0.442884
0.442931
0.442931
0.442979
0.443027
0.443075
0.443122
0.443122
0.44317
0.443218
0.443266
0.443314
0.443314
0.443362
0.44341
0.443458
0.443506
0.443506
0.443554
0.443602
0.44365
0.443698
0.443698
0.443746
0.443795
0.443843
0.443891
0.443891
0.443939
0.443988
0.444036
0.444084
0.444084
0.444133
0.444181
0.44423
0.444278
0.444278
0.444327
0.444375
0.444424
0.444473
0.444473
0.444521
0.44457
0.444619
0.444667
0.444667
0.444716
0.444765
0.444814
0.444863
0.444863
0.444912
0.444961
0.44501
0.445058
0.445058
0.445108
0.445157
0.445206
0.445255
0.445255
0.445304
0.445353
0.445402
0.445452
0.445452
0.445501
0.44555
0.445599
0.445649
0.445649
0.445698
0.445748
0.445797
0.445846
0.445846
0.445896
0.445945
0.445995
0.446045
0.446045
0.446094
0.446144
0.446194
0.446243
0.446243
0.446293
0.446343
0.446393
0.446443
0.446443
0.446492
0.446542
0.446592
0.446642
0.446642
0.446692
0.446742
0.446792
0.446842
0.446842
0.446892
0.446943
0.446993
0.447043
0.447043
0.447093
0.447143
0.447194
0.447244
0.447244
0.447294
0.447345
0.447395
0.447446
0.447446
0.447496
0.447547
0.447597
0.447648
0.447648
0.447698
0.447749
0.4478
0.44785
0.44785
0.447901
0.447952
0.448003
0.448053
0.448053
0.448104
0.448155
0.448206
0.448257
0.448257
0.448308
0.448359
0.44841
0.448461
0.448461
0.448512
0.448563
0.448614
0.448665
0.448665
0.448717
0.448768
0.448819
0.44887
0.44887
0.448922
0.448973
0.449024
0.449076
0.449076
0.449127
0.449179
0.44923
0.449282
0.449282
0.449333
0.449385
0.449437
0.449488
0.449488
0.44954
0.449592
0.449643
0.449695
0.449695
0.449747
0.449799
0.449851
0.449903
0.449903
0.449955
0.450006
0.450058
0.450111
0.450111
0.450163
0.450215
0.450267
0.450319
0.450319
0.450371
0.450423
0.450476
0.450528
0.450528
0.45058
0.450632
0.450685
0.450737
0.450737
0.45079
0.450842
0.450895
0.450947
0.450947
0.451
0.451052
0.451105
0.451157
0.451157
0.45121
0.451263
0.451315
0.451368
0.451368
0.451421
0.451474
0.451527
0.45158
0.45158
0.451632
0.451685
0.451738
0.451791
0.451791
0.451844
0.451897
0.45195
0.452004
0.452004
0.452057
0.45211
0.452163
0.452216
0.452216
0.45227
0.452323
0.452376
0.45243
0.45243
0.452483
0.452536
0.45259
0.452643
0.452643
0.452697
0.45275
0.452804
0.452858
0.452858
0.452911
0.452965
0.453019
0.453072
0.453072
0.453126
0.45318
0.453234
0.453288
0.453288
0.453342
0.453395
0.453449
0.453503
0.453503
0.453557
0.453611
0.453665
0.45372
0.45372
0.453774
0.453828
0.453882
0.453936
0.453936
0.453991
0.454045
0.454099
0.454153
0.454153
0.454208
0.454262
0.454317
0.454371
0.454371
0.454426
0.45448
0.454535
0.454589
0.454589
0.454644
0.454699
0.454753
0.454808
0.454808
0.454863
0.454917
0.454972
0.455027
0.455027
0.455082
0.455137
0.455192
0.455247
0.455247
0.455302
0.455357
0.455412
0.455467
0.455467
0.455522
0.455577
0.455632
0.455687
0.455687
0.455743
0.455798
0.455853
0.455909
0.455909
0.455964
0.456019
0.456075
0.45613
0.45613
0.456186
0.456241
0.456297
0.456352
0.456352
0.456408
0.456463
0.456519
0.456575
0.456575
0.456631
0.456686
0.456742
0.456798
0.456798
0.456854
0.45691
0.456965
0.457021
0.457021
0.457077
0.457133
0.457189
0.457245
0.457245
0.457302
0.457358
0.457414
0.45747
0.45747
0.457526
0.457582
0.457639
0.457695
0.457695
0.457751
0.457808
0.457864
0.457921
0.457921
0.457977
0.458034
0.45809
0.458147
0.458147
0.458203
0.45826
0.458316
0.458373
0.458373
0.45843
0.458487
0.458543
0.4586
0.4586
0.458657
0.458714
0.458771
0.458828
0.458828
0.458885
0.458942
0.458999
0.459056
0.459056
0.459113
0.45917
0.459227
0.459284
0.459284
0.459341
0.459398
0.459456
0.459513
0.459513
0.45957
0.459628
0.459685
0.459743
0.459743
0.4598
0.459857
0.459915
0.459972
0.459972
0.46003
0.460088
0.460145
0.460203
0.460203
0.460261
0.460318
0.460376
0.460434
0.460434
0.460492
0.46055
0.460607
0.460665
0.460665
0.460723
0.460781
0.460839
0.460897
0.460897
0.460955
0.461013
0.461072
0.46113
0.46113
0.461188
0.461246
0.461304
0.461363
0.461363
0.461421
0.461479
0.461538
0.461596
0.461596
0.461654
0.461713
0.461771
0.46183
0.46183
0.461889
0.461947
0.462006
0.462064
0.462064
0.462123
0.462182
0.462241
0.462299
0.462299
0.462358
0.462417
0.462476
0.462535
0.462535
0.462594
0.462653
0.462712
0.462771
0.462771
0.46283
0.462889
0.462948
0.463007
0.463007
0.463066
0.463125
0.463185
0.463244
0.463244
0.463303
0.463362
0.463422
0.463481
0.463481
0.463541
0.4636
0.46366
0.463719
0.463719
0.463779
0.463838
0.463898
0.463958
0.463958
0.464017
0.464077
0.464137
0.464196
0.464196
0.464256
0.464316
0.464376
0.464436
0.464436
0.464496
0.464556
0.464616
0.464676
0.464676
0.464736
0.464796
0.464856
0.464916
0.464916
0.464976
0.465036
0.465097
0.465157
0.465157
0.465217
0.465277
0.465338
0.465398
0.465398
0.465459
0.465519
0.46558
0.46564
0.46564
0.465701
0.465761
0.465822
0.465882
0.465882
0.465943
0.466004
0.466065
0.466125
0.466125
0.466186
0.466247
0.466308
0.466369
0.466369
0.46643
0.466491
0.466551
0.466612
0.466612
0.466674
0.466735
0.466796
0.466857
0.466857
0.466918
0.466979
0.46704
0.467102
0.467102
0.467163
0.467224
0.467286
0.467347
0.467347
0.467408
0.46747
0.467531
0.467593
0.467593
0.467654
0.467716
0.467778
0.467839
0.467839
0.467901
0.467963
0.468024
0.468086
0.468086
0.468148
0.46821
0.468272
0.468333
0.468333
0.468395
0.468457
0.468519
0.468581
0.468581
0.468643
0.468705
0.468768
0.46883
0.46883
0.468892
0.468954
0.469016
0.469078
0.469078
0.469141
0.469203
0.469265
0.469328
0.469328
0.46939
0.469453
0.469515
0.469578
0.469578
0.46964
0.469703
0.469765
0.469828
0.469828
0.469891
0.469953
0.470016
0.470079
0.470079
0.470142
0.470205
0.470267
0.47033
0.47033
0.470393
0.470456
0.470519
0.470582
0.470582
0.470645
0.470708
0.470771
0.470834
0.470834
0.470898
0.470961
0.471024
0.471087
0.471087
0.471151
0.471214
0.471277
0.471341
0.471341
0.471404
0.471468
0.471531
0.471595
0.471595
0.471658
0.471722
0.471785
0.471849
0.471849
0.471913
0.471976
0.47204
0.472104
0.472104
0.472168
0.472231
0.472295
0.472359
0.472359
0.472423
0.472487
0.472551
0.472615
0.472615
0.472679
0.472743
0.472807
0.472871
0.472871
0.472936
0.473
0.473064
0.473128
0.473128
0.473193
0.473257
0.473321
0.473386
0.473386
0.47345
0.473515
0.473579
0.473644
0.473644
0.473708
0.473773
0.473837
0.473902
0.473902
0.473967
0.474031
0.474096
0.474161
0.474161
0.474226
0.474291
0.474355
0.47442
0.47442
0.474485
0.47455
0.474615
0.47468
0.47468
0.474745
0.47481
0.474876
0.474941
0.474941
0.475006
0.475071
0.475136
0.475202
0.475202
0.475267
0.475332
0.475398
0.475463
0.475463
0.475528
0.475594
0.475659
0.475725
0.475725
0.475791
0.475856
0.475922
0.475987
0.475987
0.476053
0.476119
0.476185
0.47625
0.47625
0.476316
0.476382
0.476448
0.476514
0.476514
0.47658
0.476646
0.476712
0.476778
0.476778
0.476844
0.47691
0.476976
0.477042
0.477042
0.477108
0.477175
0.477241
0.477307
0.477307
0.477374
0.47744
0.477506
0.477573
0.477573
0.477639
0.477706
0.477772
0.477839
0.477839
0.477905
0.477972
0.478039
0.478105
0.478105
0.478172
0.478239
0.478305
0.478372
0.478372
0.478439
0.478506
0.478573
0.47864
0.47864
0.478707
0.478774
0.478841
0.478908
0.478908
0.478975
0.479042
0.479109
0.479176
0.479176
0.479244
0.479311
0.479378
0.479445
0.479445
0.479513
0.47958
0.479648
0.479715
0.479715
0.479782
0.47985
0.479918
0.479985
0.479985
0.480053
0.48012
0.480188
0.480256
0.480256
0.480323
0.480391
0.480459
0.480527
0.480527
0.480595
0.480662
0.48073
0.480798
0.480798
0.480866
0.480934
0.481002
0.48107
0.48107
0.481139
0.481207
0.481275
0.481343
0.481343
0.481411
0.48148
0.481548
0.481616
0.481616
0.481685
0.481753
0.481821
0.48189
0.48189
0.481958
0.482027
0.482095
0.482164
0.482164
0.482233
0.482301
0.48237
0.482439
0.482439
0.482507
0.482576
0.482645
0.482714
0.482714
0.482783
0.482852
0.482921
0.48299
0.48299
0.483059
0.483128
0.483197
0.483266
0.483266
0.483335
0.483404
0.483473
0.483543
0.483543
0.483612
0.483681
0.48375
0.48382
0.48382
0.483889
0.483959
0.484028
0.484098
0.484098
0.484167
0.484237
0.484306
0.484376
0.484376
0.484445
0.484515
0.484585
0.484655
0.484655
0.484724
0.484794
0.484864
0.484934
0.484934
0.485004
0.485074
0.485144
0.485214
0.485214
0.485284
0.485354
0.485424
0.485494
0.485494
0.485564
0.485634
0.485705
0.485775
0.485775
0.485845
0.485915
0.485986
0.486056
0.486056
0.486127
0.486197
0.486268
0.486338
0.486338
0.486409
0.486479
0.48655
0.48662
0.48662
0.486691
0.486762
0.486833
0.486903
0.486903
0.486974
0.487045
0.487116
0.487187
0.487187
0.487258
0.487329
0.4874
0.487471
0.487471
0.487542
0.487613
0.487684
0.487755
0.487755
0.487826
0.487898
0.487969
0.48804
0.48804
0.488112
0.488183
0.488254
0.488326
0.488326
0.488397
0.488469
0.48854
0.488612
0.488612
0.488683
0.488755
0.488827
0.488898
0.488898
0.48897
0.489042
0.489113
0.489185
0.489185
0.489257
0.489329
0.489401
0.489473
0.489473
0.489545
0.489617
0.489689
0.489761
0.489761
0.489833
0.489905
0.489977
0.49005
0.49005
0.490122
0.490194
0.490266
0.490339
0.490339
0.490411
0.490483
0.490556
0.490628
0.490628
0.490701
0.490773
0.490846
0.490918
0.490918
0.490991
0.491064
0.491136
0.491209
0.491209
0.491282
0.491355
0.491428
0.4915
0.4915
0.491573
0.491646
0.491719
0.491792
0.491792
0.491865
0.491938
0.492011
0.492084
0.492084
0.492158
0.492231
0.492304
0.492377
0.492377
0.49245
0.492524
0.492597
0.49267
0.49267
0.492744
0.492817
0.492891
0.492964
0.492964
0.493038
0.493111
0.493185
0.493259
0.493259
0.493332
0.493406
0.49348
0.493553
0.493553
0.493627
0.493701
0.493775
0.493849
0.493849
0.493923
0.493997
0.494071
0.494145
0.494145
0.494219
0.494293
0.494367
0.494441
0.494441
0.494515
0.49459
0.494664
0.494738
0.494738
0.494813
0.494887
0.494961
0.495036
0.495036
0.49511
0.495185
0.495259
0.495334
0.495334
0.495408
0.495483
0.495558
0.495632
0.495632
0.495707
0.495782
0.495856
0.495931
0.495931
0.496006
0.496081
0.496156
0.496231
0.496231
0.496306
0.496381
0.496456
0.496531
0.496531
0.496606
0.496681
0.496756
0.496832
0.496832
0.496907
0.496982
0.497057
0.497133
0.497133
0.497208
0.497284
0.497359
0.497435
0.497435
0.49751
0.497586
0.497661
0.497737
0.497737
0.497812
0.497888
0.497964
0.498039
0.498039
0.498115
0.498191
0.498267
0.498343
0.498343
0.498419
0.498495
0.498571
0.498647
0.498647
0.498723
0.498799
0.498875
0.498951
0.498951
0.499027
0.499103
0.49918
0.499256
0.499256
0.499332
0.499408
0.499485
0.499561
0.499561
0.499638
0.499714
0.499791
0.499867
0.499867
0.499944
0.50002
0.500097
0.500174
0.500174
0.50025
0.500327
0.500404
0.500481
0.500481
0.500557
0.500634
0.500711
0.500788
0.500788
0.500865
0.500942
0.501019
0.501096
0.501096
0.501173
0.50125
0.501328
0.501405
0.501405
0.501482
0.501559
0.501636
0.501714
0.501714
0.501791
0.501869
0.501946
0.502023
0.502023
0.502101
0.502178
0.502256
0.502334
0.502334
0.502411
0.502489
0.502567
0.502644
0.502644
0.502722
0.5028
0.502878
0.502956
0.502956
0.503034
0.503111
0.503189
0.503267
0.503267
0.503345
0.503423
0.503502
0.50358
0.50358
0.503658
0.503736
0.503814
0.503893
0.503893
0.503971
0.504049
0.504128
0.504206
0.504206
0.504284
0.504363
0.504441
0.50452
0.50452
0.504598
0.504677
0.504756
0.504834
0.504834
0.504913
0.504992
0.50507
0.505149
0.505149
0.505228
0.505307
0.505386
0.505465
0.505465
0.505544
0.505623
0.505702
0.505781
0.505781
0.50586
0.505939
0.506018
0.506097
0.506097
0.506177
0.506256
0.506335
0.506415
0.506415
0.506494
0.506573
0.506653
0.506732
0.506732
0.506812
0.506891
0.506971
0.50705
0.50705
0.50713
0.50721
0.507289
0.507369
0.507369
0.507449
0.507529
0.507609
0.507689
0.507689
0.507768
0.507848
0.507928
0.508008
0.508008
0.508088
0.508168
0.508249
0.508329
0.508329
0.508409
0.508489
0.508569
0.50865
0.50865
0.50873
0.50881
0.508891
0.508971
0.508971
0.509052
0.509132
0.509212
0.509293
0.509293
0.509374
0.509454
0.509535
0.509616
0.509616
0.509696
0.509777
0.509858
0.509939
0.509939
0.510019
0.5101
0.510181
0.510262
0.510262
0.510343
0.510424
0.510505
0.510586
0.510586
0.510668
0.510749