<?xml version="1.0"?>
<VTKFile type="UnstructuredGrid" version="0.1" byte_order="LittleEndian">
<UnstructuredGrid>
<Piece NumberOfPoints="5000" NumberOfCells="4000">
<PointData Scalars="Reaction 0">
<DataArray type="Float32" Name="Reaction 0" format="ascii">
0.708861
0.708861
0.708861
0.708861
0.708861
0.708861
0.708861
0.708861
0.708861
0.708861
0.708861
0.708861
0.708862
0.708862
0.708862
0.708862
0.708862
0.708862
0.708862
0.708862
0.708862
0.708863
0.708863
0.708863
0.708863
0.708863
0.708864
0.708864
0.708864
0.708864
0.708864
0.708865
0.708865
0.708865
0.708866
0.708866
0.708866
0.708866
0.708867
0.708867
0.708867
0.708867
0.708868
0.708868
0.708869
0.708869
0.708869
0.70887
0.70887
0.708871
0.708871
0.708871
0.708872
0.708872
0.708873
0.708873
0.708873
0.708874
0.708874
0.708875
0.708875
0.708875
0.708876
0.708877
0.708877
0.708877
0.708878
0.708878
0.708879
0.70888
0.70888
0.70888
0.708881
0.708882
0.708883
0.708883
0.708883
0.708884
0.708885
0.708885
0.708885
0.708886
0.708887
0.708888
0.708889
0.708889
0.708889
0.70889
0.708891
0.708892
0.708892
0.708893
0.708894
0.708895
0.708896
0.708896
0.708896
0.708897
0.708898
0.708899
0.708899
0.7089
0.708901
0.708902
0.708903
0.708903
0.708904
0.708905
0.708906
0.708907
0.708907
0.708908
0.708909
0.708911
0.708912
0.708912
0.708913
0.708914
0.708915
0.708916
0.708916
0.708917
0.708918
0.70892
0.708921
0.708921
0.708922
0.708923
0.708925
0.708926
0.708926
0.708927
0.708928
0.70893
0.708931
0.708931
0.708932
0.708933
0.708935
0.708936
0.708936
0.708937
0.708939
0.70894
0.708942
0.708942
0.708943
0.708944
0.708946
0.708947
0.708947
0.708949
0.70895
0.708952
0.708953
0.708953
0.708955
0.708956
0.708958
0.708959
0.708959
0.708961
0.708962
0.708964
0.708965
0.708965
0.708967
0.708969
0.70897
0.708972
0.708972
0.708973
0.708975
0.708977
0.708978
0.708978
0.70898
0.708982
0.708983
0.708985
0.708985
0.708987
0.708989
0.70899
0.708992
0.708992
0.708994
0.708996
0.708998
0.708999
0.708999
0.709001
0.709003
0.709005
0.709007
0.709007
0.709009
0.709011
0.709012
0.709014
0.709014
0.709016
0.709018
0.70902
0.709022
0.709022
0.709024
0.709026
0.709028
0.70903
0.70903
0.709032
0.709034
0.709036
0.709038
0.709038
0.70904
0.709042
0.709044
0.709047
0.709047
0.709049
0.709051
0.709053
0.709055
0.709055
0.709057
0.709059
0.709062
0.709064
0.709064
0.709066
0.709068
0.70907
0.709073
0.709073
0.709075
0.709077
0.70908
0.709082
0.709082
0.709084
0.709086
0.709089
0.709091
0.709091
0.709093
0.709096
0.709098
0.709101
0.709101
0.709103
0.709105
0.709108
0.70911
0.70911
0.709113
0.709115
0.709118
0.70912
0.70912
0.709123
0.709125
0.709128
0.70913
0.70913
0.709133
0.709135
0.709138
0.709141
0.709141
0.709143
0.709146
0.709148
0.709151
0.709151
0.709154
0.709156
0.709159
0.709162
0.709162
0.709164
0.709167
0.70917
0.709172
0.709172
0.709175
0.709178
0.709181
0.709183
0.709183
0.709186
0.709189
0.709192
0.709195
0.709195
0.709198
0.7092
0.709203
0.709206
0.709206
0.709209
0.709212
0.709215
0.709218
0.709218
0.709221
0.709224
0.709227
0.709229
0.709229
0.709232
0.709235
0.709238
0.709241
0.709241
0.709244
0.709248
0.709251
0.709254
0.709254
0.709257
0.70926
0.709263
0.709266
0.709266
0.709269
0.709272
0.709275
0.709279
0.709279
0.709282
0.709285
0.709288
0.709291
0.709291
0.709295
0.709298
0.709301
0.709304
0.709304
0.709308
0.709311
0.709314
0.709317
0.709317
0.709321
0.709324
0.709327
0.709331
0.709331
0.709334
0.709337
0.709341
0.709344
0.709344
0.709348
0.709351
0.709355
0.709358
0.709358
0.709361
0.709365
0.709368
0.709372
0.709372
0.709375
0.709379
0.709382
0.709386
0.709386
0.70939
0.709393
0.709397
0.7094
0.7094
0.709404
0.709407
0.709411
0.709415
0.709415
0.709418
0.709422
0.709426
0.709429
0.709429
0.709433
0.709437
0.709441
0.709444
0.709444
0.709448
0.709452
0.709456
0.709459
0.709459
0.709463
0.709467
0.709471
0.709475
0.709475
0.709478
0.709482
0.709486
0.70949
0.70949
0.709494
0.709498
0.709502
0.709506
0.709506
0.70951
0.709514
0.709517
0.709521
0.709521
0.709525
0.709529
0.709533
0.709537
0.709537
0.709541
0.709546
0.70955
0.709554
0.709554
0.709558
0.709562
0.709566
0.70957
0.70957
0.709574
0.709578
0.709582
0.709587
0.709587
0.709591
0.709595
0.709599
0.709603
0.709603
0.709608
0.709612
0.709616
0.70962
0.70962
0.709625
0.709629
0.709633
0.709638
0.709638
0.709642
0.709646
0.709651
0.709655
0.709655
0.709659
0.709664
0.709668
0.709672
0.709672
0.709677
0.709681
0.709686
0.70969
0.70969
0.709695
0.709699
0.709704
0.709708
0.709708
0.709713
0.709717
0.709722
0.709726
0.709726
0.709731
0.709735
0.70974
0.709745
0.709745
0.709749
0.709754
0.709758
0.709763
0.709763
0.709768
0.709772
0.709777
0.709782
0.709782
0.709786
0.709791
0.709796
0.709801
0.709801
0.709805
0.70981
0.709815
0.70982
0.70982
0.709825
0.709829
0.709834
0.709839
0.709839
0.709844
0.709849
0.709854
0.709858
0.709858
0.709863
0.709868
0.709873
0.709878
0.709878
0.709883
0.709888
0.709893
0.709898
0.709898
0.709903
0.709908
0.709913
0.709918
0.709918
0.709923
0.709928
0.709933
0.709938
0.709938
0.709943
0.709948
0.709954
0.709959
0.709959
0.709964
0.709969
0.709974
0.709979
0.709979
0.709984
0.70999
0.709995
0.71
0.71
0.710005
0.710011
0.710016
0.710021
0.710021
0.710026
0.710032
0.710037
0.710042
0.710042
0.710048
0.710053
0.710058
0.710064
0.710064
0.710069
0.710074
0.71008
0.710085
0.710085
0.710091
0.710096
0.710102
0.710107
0.710107
0.710112
0.710118
0.710123
0.710129
0.710129
0.710134
0.71014
0.710146
0.710151
0.710151
0.710157
0.710162
0.710168
0.710173
0.710173
0.710179
0.710185
0.71019
0.710196
0.710196
0.710202
0.710207
0.710213
0.710219
0.710219
0.710224
0.71023
0.710236
0.710242
0.710242
0.710247
0.710253
0.710259
0.710265
0.710265
0.710271
0.710276
0.710282
0.710288
0.710288
0.710294
0.7103
0.710306
0.710312
0.710312
0.710317
0.710323
0.710329
0.710335
0.710335
0.710341
0.710347
0.710353
0.710359
0.710359
0.710365
0.710371
0.710377
0.710383
0.710383
0.710389
0.710395
0.710401
0.710407
0.710407
0.710414
0.71042
0.710426
0.710432
0.710432
0.710438
0.710444
0.71045
0.710457
0.710457
0.710463
0.710469
0.710475
0.710481
0.710481
0.710488
0.710494
0.7105
0.710506
0.710506
0.710513
0.710519
0.710525
0.710532
0.710532
0.710538
0.710544
0.710551
0.710557
0.710557
0.710563
0.71057
0.710576
0.710583
0.710583
0.710589
0.710596
0.710602
0.710608
0.710608
0.710615
0.710621
0.710628
0.710634
0.710634
0.710641
0.710647
0.710654
0.710661
0.710661
0.710667
0.710674
0.71068
0.710687
0.710687
0.710694
0.7107
0.710707
0.710714
0.710714
0.71072
0.710727
0.710734
0.71074
0.71074
0.710747
0.710754
0.71076
0.710767
0.710767
0.710774
0.710781
0.710788
0.710794
0.710794
0.710801
0.710808
0.710815
0.710822
0.710822
0.710829
0.710835
0.710842
0.710849
0.710849
0.710856
0.710863
0.71087
0.710877
0.710877
0.710884
0.710891
0.710898
0.710905
0.710905
0.710912
0.710919
0.710926
0.710933
0.710933
0.71094
0.710947
0.710954
0.710961
0.710961
0.710968
0.710975
0.710983
0.71099
0.71099
0.710997
0.711004
0.711011
0.711018
0.711018
0.711026
0.711033
0.71104
0.711047
0.711047
0.711054
0.711062
0.711069
0.711076
0.711076
0.711084
0.711091
0.711098
0.711106
0.711106
0.711113
0.71112
0.711128
0.711135
0.711135
0.711142
0.71115
0.711157
0.711165
0.711165
0.711172
0.71118
0.711187
0.711194
0.711194
0.711202
0.711209
0.711217
0.711224
0.711224
0.711232
0.71124
0.711247
0.711255
0.711255
0.711262
0.71127
0.711277
0.711285
0.711285
0.711293
0.7113
0.711308
0.711316
0.711316
0.711323
0.711331
0.711339
0.711346
0.711346
0.711354
0.711362
0.71137
0.711377
0.711377
0.711385
0.711393
0.711401
0.711409
0.711409
0.711416
0.711424
0.711432
0.71144
0.71144
0.711448
0.711456
0.711464
0.711471
0.711471
0.711479
0.711487
0.711495
0.711503
0.711503
0.711511
0.711519
0.711527
0.711535
0.711535
0.711543
0.711551
0.711559
0.711567
0.711567
0.711575
0.711583
0.711592
0.7116
0.7116
0.711608
0.711616
0.711624
0.711632
0.711632
0.71164
0.711648
0.711657
0.711665
0.711665
0.711673
0.711681
0.711689
0.711698
0.711698
0.711706
0.711714
0.711723
0.711731
0.711731
0.711739
0.711747
0.711756
0.711764
0.711764
0.711772
0.711781
0.711789
0.711798
0.711798
0.711806
0.711814
0.711823
0.711831
0.711831
0.71184
0.711848
0.711857
0.711865
0.711865
0.711874
0.711882
0.711891
0.711899
0.711899
0.711908
0.711916
0.711925
0.711933
0.711933
0.711942
0.711951
0.711959
0.711968
0.711968
0.711976
0.711985
0.711994
0.712002
0.712002
0.712011
0.71202
0.712028
0.712037
0.712037
0.712046
0.712055
0.712063
0.712072
0.712072
0.712081
0.71209
0.712099
0.712107
0.712107
0.712116
0.712125
0.712134
0.712143
0.712143
0.712152
0.712161
0.712169
0.712178
0.712178
0.712187
0.712196
0.712205
0.712214
0.712214
0.712223
0.712232
0.712241
0.71225
0.71225
0.712259
0.712268
0.712277
0.712286
0.712286
0.712295
0.712304
0.712313
0.712322
0.712322
0.712331
0.71234
0.712349
0.712358
0.712358
0.712367
0.712376
0.712385
0.712395
0.712395
0.712404
0.712413
0.712422
0.712431
0.712431
0.712441
0.71245
0.71246
0.712469
0.712469
0.712478
0.712488
0.712497
0.712507
0.712507
0.712516
0.712526
0.712535
0.712544
0.712544
0.712554
0.712563
0.712573
0.712582
0.712582
0.712592
0.712601
0.712611
0.71262
0.71262
0.71263
0.712639
0.712649
0.712658
0.712658
0.712668
0.712677
0.712687
0.712697
0.712697
0.712706
0.712716
0.712725
0.712735
0.712735
0.712745
0.712754
0.712764
0.712774
0.712774
0.712783
0.712793
0.712803
0.712813
0.712813
0.712822
0.712832
0.712842
0.712852
0.712852
0.712861
0.712871
0.712881
0.712891
0.712891
0.712901
0.712911
0.71292
0.71293
0.71293
0.71294
0.71295
0.71296
0.71297
0.71297
0.71298
0.71299
0.713
0.71301
0.71301
0.71302
0.71303
0.71304
0.71305
0.71305
0.71306
0.71307
0.71308
0.71309
0.71309
0.7131
0.71311
0.71312
0.71313
0.71313
0.71314
0.71315
0.713161
0.713171
0.713171
0.713181
0.713191
0.713201
0.713212
0.713212
0.713222
0.713232
0.713242
0.713253
0.713253
0.713263
0.713273
0.713283
0.713294
0.713294
0.713304
0.713314
0.713325
0.713335
0.713335
0.713345
0.713356
0.713366
0.713377
0.713377
0.713387
0.713397
0.713408
0.713418
0.713418
0.713429
0.713439
0.71345
0.71346
0.71346
0.713471
0.713481
0.713492
0.713502
0.713502
0.713513
0.713523
0.713534
0.713545
0.713545
0.713555
0.713566
0.713576
0.713587
0.713587
0.713598
0.713608
0.713619
0.71363
0.71363
0.71364
0.713651
0.713662
0.713673
0.713673
0.713683
0.713694
0.713705
0.713716
0.713716
0.713726
0.713737
0.713748
0.713759
0.713759
0.71377
0.713781
0.713792
0.713802
0.713802
0.713813
0.713824
0.713835
0.713846
0.713846
0.713857
0.713868
0.713879
0.71389
0.71389
0.713901
0.713912
0.713923
0.713934
0.713934
0.713945
0.713956
0.713967
0.713978
0.713978
0.713989
0.714
0.714011
0.714023
0.714023
0.714034
0.714045
0.714056
0.714067
0.714067
0.714078
0.714089
0.714101
0.714112
0.714112
0.714123
0.714134
0.714146
0.714157
0.714157
0.714168
0.714179
0.714191
0.714202
0.714202
0.714213
0.714225
0.714236
0.714247
0.714247
0.714259
0.71427
0.714282
0.714293
0.714293
0.714304
0.714316
0.714327
0.714339
0.714339
0.71435
0.714362
0.714373
0.714385
0.714385
0.714396
0.714408
0.714419
0.714431
0.714431
0.714442
0.714454
0.714466
0.714477
0.714477
0.714489
0.7145
0.714512
0.714524
0.714524
0.714535
0.714547
0.714559
0.71457
0.71457
0.714582
0.714594
0.714606
0.714617
0.714617
0.714629
0.714641
0.714653
0.714664
0.714664
0.714676
0.714688
0.7147
0.714712
0.714712
0.714724
0.714735
0.714747
0.714759
0.714759
0.714771
0.714783
0.714795
0.714807
0.714807
0.714819
0.714831
0.714843
0.714855
0.714855
0.714867
0.714879
0.714891
0.714903
0.714903
0.714915
0.714927
0.714939
0.714951
0.714951
0.714963
0.714975
0.714987
0.714999
0.714999
0.715012
0.715024
0.715036
0.715048
0.715048
0.71506
0.715072
0.715085
0.715097
0.715097
0.715109
0.715121
0.715134
0.715146
0.715146
0.715158
0.71517
0.715183
0.715195
0.715195
0.715207
0.71522
0.715232
0.715245
0.715245
0.715257
0.715269
0.715282
0.715294
0.715294
0.715307
0.715319
0.715331
0.715344
0.715344
0.715356
0.715369
0.715381
0.715394
0.715394
0.715406
0.715419
0.715431
0.715444
0.715444
0.715457
0.715469
0.715482
0.715494
0.715494
0.715507
0.71552
0.715532
0.715545
0.715545
0.715558
0.71557
0.715583
0.715596
0.715596
0.715608
0.715621
0.715634
0.715647
0.715647
0.715659
0.715672
0.715685
0.715698
0.715698
0.715711
0.715723
0.715736
0.715749
0.715749
0.715762
0.715775
0.715788
0.715801
0.715801
0.715813
0.715826
0.715839
0.715852
0.715852
0.715865
0.715878
0.715891
0.715904
0.715904
0.715917
0.71593
0.715943
0.715956
0.715956
0.715969
0.715982
0.715995
0.716009
0.716009
0.716022
0.716035
0.716048
0.716061
0.716061
0.716074
0.716087
0.7161
0.716114
0.716114
0.716127
0.71614
0.716153
0.716166
0.716166
0.71618
0.716193
0.716206
0.71622
0.71622
0.716233
0.716246
0.716259
0.716273
0.716273
0.716286
0.716299
0.716313
0.716326
0.716326
0.71634
0.716353
0.716366
0.71638
0.71638
0.716393
0.716407
0.71642
0.716434
0.716434
0.716447
0.716461
0.716474
0.716488
0.716488
0.716501
0.716515
0.716528
0.716542
0.716542
0.716555
0.716569
0.716583
0.716596
0.716596
0.71661
0.716623
0.716637
0.716651
0.716651
0.716664
0.716678
0.716692
0.716706
0.716706
0.716719
0.716733
0.716747
0.716761
0.716761
0.716774
0.716788
0.716802
0.716816
0.716816
0.71683
0.716843
0.716857
0.716871
0.716871
0.716885
0.716899
0.716913
0.716927
0.716927
0.716941
0.716954
0.716968
0.716982
0.716982
0.716996
0.71701
0.717024
0.717038
0.717038
0.717052
0.717066
0.71708
0.717094
0.717094
0.717108
0.717122
0.717137
0.717151
0.717151
0.717165
0.717179
0.717193
0.717207
0.717207
0.717221
0.717235
0.71725
0.717264
0.717264
0.717278
0.717292
0.717307
0.717321
0.717321
0.717335
0.717349
0.717364
0.717378
0.717378
0.717392
0.717406
0.717421
0.717435
0.717435
0.717449
0.717464
0.717478
0.717493
0.717493
0.717507
0.717521
0.717536
0.71755
0.71755
0.717565
0.717579
0.717594
0.717608
0.717608
0.717623
0.717637
0.717652
0.717666
0.717666
0.717681
0.717695
0.71771
0.717724
0.717724
0.717739
0.717753
0.717768
0.717783
0.717783
0.717797
0.717812
0.717827
0.717841
0.717841
0.717856
0.717871
0.717885
0.7179
0.7179
0.717915
0.71793
0.717944
0.717959
0.717959
0.717974
0.717989
0.718003
0.718018
0.718018
0.718033
0.718048
0.718063
0.718078
0.718078
0.718093
0.718107
0.718122
0.718137
0.718137
0.718152
0.718167
0.718182
0.718197
0.718197
0.718212
0.718227
0.718242
0.718257
0.718257
0.718272
0.718287
0.718302
0.718317
0.718317
0.718332
0.718347
0.718362
0.718377
0.718377
0.718393
0.718408
0.718423
0.718438
0.718438
0.718453
0.718468
0.718483
0.718499
0.718499
0.718514
0.718529
0.718544
0.71856
0.71856
0.718575
0.71859
0.718605
0.718621
0.718621
0.718636
0.718651
0.718667
0.718682
0.718682
0.718697
0.718713
0.718728
0.718743
0.718743
0.718759
0.718774
0.71879
0.718805
0.718805
0.718821
0.718836
0.718852
0.718867
0.718867
0.718883
0.718898
0.718914
0.718929
0.718929
0.718945
0.71896
0.718976
0.718991
0.718991
0.719007
0.719023
0.719038
0.719054
0.719054
0.719069
0.719085
0.719101
0.719116
0.719116
0.719132
0.719148
0.719164
0.719179
0.719179
0.719195
0.719211
0.719227
0.719242
0.719242
0.719258
0.719274
0.71929
0.719306
0.719306
0.719321
0.719337
0.719353
0.719369
0.719369
0.719385
0.719401
0.719417
0.719433
0.719433
0.719448
0.719464
0.71948
0.719496
0.719496
0.719512
0.719528
0.719544
0.71956
0.71956
0.719576
0.719592
0.719608
0.719624
0.719624
0.719641
0.719657
0.719673
0.719689
0.719689
0.719705
0.719721
0.719737
0.719753
0.719753
0.71977
0.719786
0.719802
0.719818
0.719818
0.719834
0.719851
0.719867
0.719883
0.719883
0.719899
0.719916
0.719932
0.719948
0.719948
0.719965
0.719981
0.719997
0.720014
0.720014
0.72003
0.720046
0.720063
0.720079
0.720079
0.720095
0.720112
0.720128
0.720145
0.720145
0.720161
0.720178
0.720194
0.720211
0.720211
0.720227
0.720244
0.72026
0.720277
0.720277
0.720293
0.72031
0.720326
0.720343
0.720343
0.72036
0.720376
0.720393
0.720409
0.720409
0.720426
0.720443
0.720459
0.720476
0.720476
0.720493
0.72051
0.720526
0.720543
0.720543
0.72056
0.720577
0.720593
0.72061
0.72061
0.720627
0.720644
0.72066
0.720677
0.720677
0.720694
0.720711
0.720728
0.720745
0.720745
0.720762
0.720779
0.720795
0.720812
0.720812
0.720829
0.720846
0.720863
0.72088
0.72088
0.720897
0.720914
0.720931
0.720948
0.720948
0.720965
0.720982
0.720999
0.721016
0.721016
0.721033
0.721051
0.721068
0.721085
0.721085
0.721102
0.721119
0.721136
0.721153
0.721153
0.721171
0.721188
0.721205
0.721222
0.721222
0.721239
0.721257
0.721274
0.721291
0.721291
0.721308
0.721326
0.721343
0.72136
0.72136
0.721378
0.721395
0.721412
0.72143
0.72143
0.721447
0.721464
0.721482
0.721499
0.721499
0.721517
0.721534
0.721551
0.721569
0.721569
0.721586
0.721604
0.721621
0.721639
0.721639
0.721656
0.721674
0.721691
0.721709
0.721709
0.721726
0.721744
0.721761
0.721779
0.721779
0.721796
0.721814
0.721831
0.721849
0.721849
0.721866
0.721884
0.721901
0.721919
0.721919
0.721936
0.721954
0.721971
0.721989
0.721989
0.722007
0.722024
0.722042
0.72206
0.72206
0.722078
0.722096
0.722114
0.722132
0.722132
0.72215
0.722168
0.722186
0.722204
0.722204
0.722222
0.72224
0.722258
0.722276
0.722276
0.722294
0.722312
0.72233
0.722348
0.722348
0.722366
0.722384
0.722402
0.722421
0.722421
0.722439
0.722457
0.722475
0.722493
0.722493
0.722511
0.722529
0.722547
0.722565
0.722565
0.722583
0.722601
0.72262
0.722638
0.722638
0.722656
0.722674
0.722692
0.722711
0.722711
0.722729
0.722747
0.722765
0.722784
0.722784
0.722802
0.72282
0.722838
0.722857
0.722857
0.722875
0.722893
0.722912
0.72293
0.72293
0.722949
0.722967
0.722985
0.723004
0.723004
0.723022
0.723041
0.723059
0.723077
0.723077
0.723096
0.723114
0.723133
0.723151
0.723151
0.72317
0.723188
0.723207
0.723226
0.723226
0.723244
0.723263
0.723281
0.7233
0.7233
0.723319
0.723337
0.723356
0.723374
0.723374
0.723393
0.723412
0.72343
0.723449
0.723449
0.723468
0.723487
0.723505
0.723524
0.723524
0.723543
0.723562
0.72358
0.723599
0.723599
0.723618
0.723637
0.723656
0.723674
0.723674
0.723693
0.723712
0.723731
0.72375
0.72375
0.723769
0.723788
0.723807
0.723826
0.723826
0.723845
0.723863
0.723882
0.723901
0.723901
0.72392
0.723939
0.723958
0.723977
0.723977
0.723997
0.724016
0.724035
0.724054
0.724054
0.724073
0.724092
0.724111
0.72413
0.72413
0.724149
0.724168
0.724188
0.724207
0.724207
0.724226
0.724245
0.724264
0.724284
0.724284
0.724303
0.724322
0.724341
0.724361
0.724361
0.72438
0.724399
0.724419
0.724438
0.724438
0.724457
0.724477
0.724496
0.724515
0.724515
0.724535
0.724554
0.724573
0.724593
0.724593
0.724612
0.724632
0.724651
0.724671
0.724671
0.72469
0.72471
0.724729
0.724749
0.724749
0.724768
0.724788
0.724807
0.724827
0.724827
0.724846
0.724866
0.724885
0.724905
0.724905
0.724925
0.724944
0.724964
0.724984
0.724984
0.725003
0.725023
0.725043
0.725062
0.725062
0.725082
0.725102
0.725122
0.725141
0.725141
0.725161
0.725181
0.725201
0.72522
0.72522
0.72524
0.72526
0.72528
0.7253
0.7253
0.72532
0.725339
0.725359
0.725379
0.725379
0.725399
0.725419
0.725439
0.725459
0.725459
0.725479
0.725499
0.725519
0.725539
0.725539
0.725559
0.725579
0.725599
0.725619
0.725619
0.725639
0.725659
0.725679
0.725699
0.725699
0.725719
0.725739
0.725759
0.72578
0.72578
0.7258
0.72582
0.72584
0.72586
0.72586
0.72588
0.725901
0.725921
0.725941
0.725941
0.725961
0.725982
0.726002
0.726022
0.726022
0.726042
0.726063
0.726083
0.726103
0.726103
0.726124
0.726144
0.726164
0.726185
0.726185
0.726205
0.726225
0.726246
0.726266
0.726266
0.726287
0.726307
0.726328
0.726348
0.726348
0.726369
0.726389
0.72641
0.72643
0.72643
0.726451
0.726471
0.726492
0.726512
0.726512
0.726533
0.726553
0.726574
0.726595
0.726595
0.726615
0.726636
0.726657
0.726677
0.726677
0.726698
0.726719
0.726739
0.72676
0.72676
0.726781
0.726801
0.726822
0.726843
0.726843
0.726864
0.726884
0.726905
0.726926
0.726926
0.726947
0.726968
0.726988
0.727009
0.727009
0.72703
0.727051
0.727072
0.727093
0.727093
0.727114
0.727135
0.727156
0.727177
0.727177
0.727197
0.727218
0.727239
0.72726
0.72726
0.727281
0.727302
0.727323
0.727345
0.727345
0.727366
0.727387
0.727408
0.727429
0.727429
0.72745
0.727471
0.727492
0.727513
0.727513
0.727534
0.727556
0.727577
0.727598
0.727598
0.727619
0.72764
0.727662
0.727683
0.727683
0.727704
0.727725
0.727747
0.727768
0.727768
0.727789
0.72781
0.727832
0.727853
0.727853
0.727874
0.727896
0.727917
0.727938
0.727938
0.72796
0.727981
0.728003
0.728024
0.728024
0.728046
0.728067
0.728088
0.72811
0.72811
0.728131
0.728153
0.728174
0.728196
0.728196
0.728217
0.728239
0.728261
0.728282
0.728282
0.728304
0.728325
0.728347
0.728368
0.728368
0.72839
0.728412
0.728433
0.728455
0.728455
0.728477
0.728498
0.72852
0.728542
0.728542
0.728564
0.728585
0.728607
0.728629
0.728629
0.728651
0.728672
0.728694
0.728716
0.728716
0.728738
0.72876
0.728781
0.728803
0.728803
0.728825
0.728847
0.728869
0.728891
0.728891
0.728913
0.728935
0.728957
0.728978
0.728978
0.729
0.729022
0.729044
0.729066
0.729066
0.729088
0.72911
0.729132
0.729154
0.729154
0.729177
0.729199
0.729221
0.729243
0.729243
0.729265
0.729287
0.729309
0.729331
0.729331
0.729353
0.729376
0.729398
0.72942
0.72942
0.729442
0.729464
0.729487
0.729509
0.729509
0.729531
0.729553
0.729576
0.729598
0.729598
0.72962
0.729642
0.729665
0.729687
0.729687
0.729709
0.729732
0.729754
0.729776
0.729776
0.729799
0.729821
0.729844
0.729866
0.729866
0.729889
0.729911
0.729933
0.729956
0.729956
0.729978
0.730001
0.730023
0.730046
0.730046
0.730068
0.730091
0.730114
0.730136
0.730136
0.730159
0.730181
0.730204
0.730226
0.730226
0.730249
0.730272
0.730294
0.730317
0.730317
0.73034
0.730362
0.730385
0.730408
0.730408
0.730431
0.730453
0.730476
0.730499
0.730499
0.730522
0.730544
0.730567
0.73059
0.73059
0.730613
0.730636
0.730658
0.730681
0.730681
0.730704
0.730727
0.73075
0.730773
0.730773
0.730796
0.730819
0.730842
0.730865
0.730865
0.730887
0.73091
0.730933
0.730956
0.730956
0.730979
0.731002
0.731025
0.731049
0.731049
0.731072
0.731095
0.731118
0.731141
0.731141
0.731164
0.731187
0.73121
0.731233
0.731233
0.731256
0.731279
0.731303
0.731326
0.731326
0.731349
0.731372
0.731395
0.731418
0.731418
0.731442
0.731465
0.731488
0.731511
0.731511
0.731534
0.731557
0.731581
0.731604
0.731604
0.731627
0.73165
0.731673
0.731696
0.731696
0.731719
0.731743
0.731766
0.731789
0.731789
0.731813
0.731836
0.73186
0.731884
0.731884
0.731907
0.731931
0.731955
0.731978
0.731978
0.732002
0.732026
0.73205
0.732073
0.732073
0.732097
0.732121
0.732144
0.732168
0.732168
0.732192
0.732216
0.732239
0.732263
0.732263
0.732287
0.73231
0.732334
0.732358
0.732358
0.732382
0.732405
0.732429
0.732453
0.732453
0.732477
0.7325
0.732524
0.732548
0.732548
0.732572
0.732596
0.732619
0.732643
0.732643
0.732667
0.732691
0.732715
0.732739
0.732739
0.732763
0.732787
0.732811
0.732835
0.732835
0.732858
0.732882
0.732906
0.73293
0.73293
0.732954
0.732978
0.733002
0.733027
0.733027
0.733051
0.733075
0.733099
0.733123
0.733123
0.733147
0.733171
0.733195
0.733219
0.733219
0.733243
0.733268
0.733292
0.733316
0.733316
0.73334
0.733364
0.733389
0.733413
0.733413
0.733437
0.733461
0.733486
0.73351
0.73351
0.733534
0.733558
0.733583
0.733607
0.733607
0.733631
0.733656
0.73368
0.733704
0.733704
0.733729
0.733753
0.733778
0.733802
0.733802
0.733827
0.733851
0.733875
0.7339
0.7339
0.733924
0.733949
0.733973
0.733998
0.733998
0.734022
0.734047
0.734072
0.734096
0.734096
0.734121
0.734145
0.73417
0.734194
0.734194
0.734219
0.734244
0.734268
0.734293
0.734293
0.734318
0.734342
0.734367
0.734392
0.734392
0.734417
0.734441
0.734466
0.734491
0.734491
0.734515
0.73454
0.734565
0.73459
0.73459
0.734615
0.734639
0.734664
0.734689
0.734689
0.734714
0.734739
0.734764
0.734789
0.734789
0.734814
0.734839
0.734863
0.734888
0.734888
0.734913
0.734938
0.734963
0.734988
0.734988
0.735013
0.735038
0.735063
0.735088
0.735088
0.735113
0.735138
0.735164
0.735189
0.735189
0.735214
0.735239
0.735264
0.735289
0.735289
0.735314
0.735339
0.735365
0.73539
0.73539
0.735415
0.73544
0.735465
0.735491
0.735491
0.735516
0.735541
0.735566
0.735592
0.735592
0.735617
0.735642
0.735668
0.735693
0.735693
0.735718
0.735744
0.735769
0.735794
0.735794
0.73582
0.735845
0.73587
0.735896
0.735896
0.735921
0.735947
0.735972
0.735998
0.735998
0.736023
0.736049
0.736074
0.7361
0.7361
0.736125
0.736151
0.736176
0.736202
0.736202
0.736227
0.736253
0.736279
0.736304
0.736304
0.73633
0.736355
0.736381
0.736407
0.736407
0.736432
0.736458
0.736484
0.736509
0.736509
0.736535
0.736561
0.736587
0.736612
0.736612
0.736638
0.736664
0.73669
0.736715
0.736715
0.736741
0.736767
0.736793
0.736819
0.736819
0.736845
0.73687
0.736896
0.736922
0.736922
0.736948
0.736974
0.737
0.737026
0.737026
0.737052
0.737078
0.737104
0.73713
0.73713
0.737156
0.737182
0.737208
0.737234
0.737234
0.73726
0.737286
0.737312
0.737338
0.737338
0.737364
0.73739
0.737416
0.737442
0.737442
0.737469
0.737495
0.737521
0.737547
0.737547
0.737573
0.7376
0.737626
0.737652
0.737652
0.737678
0.737704
0.737731
0.737757
0.737757
0.737783
0.73781
0.737836
0.737862
0.737862
0.737888
0.737915
0.737941
0.737968
0.737968
0.737994
0.73802
0.738047
0.738073
0.738073
0.738099
0.738126
0.738152
0.738179
0.738179
0.738205
0.738232
0.738258
0.738285
0.738285
0.738311
0.738338
0.738364
0.738391
0.738391
0.738417
0.738444
0.738471
0.738497
0.738497
0.738524
0.73855
0.738577
0.738604
0.738604
0.73863
0.738657
0.738684
0.73871
0.73871
0.738737
0.738764
0.738791
0.738817
0.738817
0.738844
0.738871
0.738898
0.738924
0.738924
0.738951
0.738978
0.739005
0.739032
0.739032
0.739059
0.739085
0.739112
0.739139
0.739139
0.739166
0.739193
0.73922
0.739247
0.739247
0.739274
0.739301
0.739328
0.739355
0.739355
0.739382
0.739409
0.739436
0.739463
0.739463
0.73949
0.739517
0.739544
0.739571
0.739571
0.739598
0.739625
0.739652
0.739679
0.739679
0.739706
0.739734
0.739761
0.739788
0.739788
0.739815
0.739842
0.739869
0.739897
0.739897
0.739924
0.739951
0.739978
0.740006
0.740006
0.740033
0.74006
0.740087
0.740115
0.740115
0.740142
0.740169
0.740197
0.740224
0.740224
0.740251
0.740279
0.740306
0.740334
0.740334
0.740361
0.740388
0.740416
0.740443
0.740443
0.740471
0.740498
0.740526
0.740553
0.740553
0.740581
0.740608
0.740636
0.740663
0.740663
0.740691
0.740718
0.740746
0.740774
0.740774
0.740801
0.740829
0.740856
0.740884
0.740884
0.740912
0.740939
0.740967
0.740995
0.740995
0.741022
0.74105
0.741078
0.741105
0.741105
0.741133
0.741161
0.741188
0.741216
0.741216
0.741244
0.741272
0.741299
0.741327
0.741327
0.741355
0.741382
0.74141
0.741438
0.741438
0.741465
0.741493
0.741521
0.741548
0.741548
0.741576
0.741604
0.741632
0.741659
0.741659
0.741687
0.741715
0.741743
0.741772
0.741772
0.7418
0.741828
0.741857
0.741885
0.741885
0.741913
0.741941
0.74197
0.741998
0.741998
0.742026
0.742054
0.742083
0.742111
0.742111
0.742139
0.742167
0.742196
0.742224
0.742224
0.742252
0.742281
0.742309
0.742337
0.742337
0.742365
0.742394
0.742422
0.74245
0.74245
0.742479
0.742507
0.742535
0.742564
0.742564
0.742592
0.74262
0.742649
0.742677
0.742677
0.742705
0.742734
0.742762
0.742791
0.742791
0.742819
0.742848
0.742876
0.742904
0.742904
0.742933
0.742961
0.74299
0.743019
0.743019
0.743047
0.743076
0.743104
0.743133
0.743133
0.743161
0.74319
0.743219
0.743247
0.743247
0.743276
0.743304
0.743333
0.743362
0.743362
0.74339
0.743419
0.743448
0.743477
0.743477
0.743505
0.743534
0.743563
0.743591
0.743591
0.74362
0.743649
0.743678
0.743707
0.743707
0.743735
0.743764
0.743793
0.743822
0.743822
0.743851
0.74388
0.743909
0.743937
0.743937
0.743966
0.743995
0.744024
0.744053
0.744053
0.744082
0.744111
0.74414
0.744169
0.744169
0.744198
0.744227
0.744256
0.744285
0.744285
0.744314
0.744343
0.744372
0.744401
0.744401
0.744431
0.74446
0.744489
0.744518
0.744518
0.744547
0.744576
0.744605
0.744635
0.744635
0.744664
0.744693
0.744722
0.744751
0.744751
0.744781
0.74481
0.744839
0.744868
0.744868
0.744898
0.744927
0.744956
0.744986
0.744986
0.745015
0.745044
0.745074
0.745103
0.745103
0.745132
0.745162
0.745191
0.745221
0.745221
0.74525
0.745279
0.745309
0.745338
0.745338
0.745368
0.745397
0.745427
0.745456
0.745456
0.745486
0.745515
0.745545
0.745574
0.745574
0.745604
0.745634
0.745663
0.745693
0.745693
0.745722
0.745752
0.745782
0.745811
0.745811
0.745841
0.745871
0.7459
0.74593
0.74593
0.74596
0.745989
0.746019
0.746049
0.746049
0.746079
0.746108
0.746138
0.746168
0.746168
0.746198
0.746228
0.746257
0.746287
0.746287
0.746317
0.746347
0.746377
0.746407
0.746407
0.746437
0.746466
0.746496
0.746526
0.746526
0.746556
0.746586
0.746616
0.746646
0.746646
0.746676
0.746706
0.746736
0.746766
0.746766
0.746796
0.746826
0.746856
0.746886
0.746886
0.746916
0.746946
0.746977
0.747007
0.747007
0.747037
0.747067
0.747097
0.747127
0.747127
0.747157
0.747188
0.747218
0.747248
0.747248
0.747278
0.747308
0.747339
0.747369
0.747369
0.747399
0.747429
0.74746
0.74749
0.74749
0.74752
0.747551
0.747581
0.747611
0.747611
0.747642
0.747672
0.747702
0.747733
0.747733
0.747763
0.747794
0.747824
0.747854
0.747854
0.747885
0.747915
0.747946
0.747976
0.747976
0.748007
0.748037
0.748068
0.748098
0.748098
0.748129
0.748159
0.74819
0.748221
0.748221
0.748251
0.748282
0.748312
0.748343
0.748343
0.748374
0.748404
0.748435
0.748466
0.748466
0.748496
0.748527
0.748558
0.748588
0.748588
0.748619
0.74865
0.74868
0.748711
0.748711
0.748742
0.748773
0.748804
0.748834
0.748834
0.748865
0.748896
0.748927
0.748958
0.748958
0.748989
0.749019
0.74905
0.749081
0.749081
0.749112
0.749143
0.749174
0.749205
0.749205
0.749236
0.749267
0.749298
0.749329
0.749329
0.74936
0.749391
0.749422
0.749453
0.749453
0.749484
0.749515
0.749546
0.749577
0.749577
0.749608
0.749639
0.74967
0.749702
0.749702
0.749733
0.749764
0.749795
0.749826
0.749826
0.749857
0.749889
0.74992
0.749951
0.749951
0.749982
0.750013
0.750045
0.750076
0.750076
0.750107
0.750139
0.75017
0.750201
0.750201
0.750232
0.750264
0.750295
0.750327
0.750327
0.750358
0.750389
0.750421
0.750452
0.750452
0.750483
0.750515
0.750546
0.750578
0.750578
0.750609
0.750641
0.750672
0.750704
0.750704
0.750735
0.750767
0.750798
0.75083
0.75083
0.750861
0.750893
0.750924
0.750956
0.750956
0.750987
0.751019
0.75105
0.751082
0.751082
0.751113
0.751145
0.751176
0.751208
0.751208
0.751239
0.751271
0.751302
0.751334
0.751334
0.751365
0.751397
0.751428
0.75146
0.75146
0.751491
0.751523
0.751555
0.751587
0.751587
0.751619
0.751651
0.751683
0.751715
0.751715