<?xml version="1.0"?>
<VTKFile type="UnstructuredGrid" version="0.1" byte_order="LittleEndian">
<UnstructuredGrid>
<Piece NumberOfPoints="5000" NumberOfCells="4000">
<PointData Scalars="Reaction 0">
<DataArray type="Float32" Name="Reaction 0" format="ascii">
0.63464
0.63464
0.63464
0.63464
0.63464
0.63464
0.63464
0.63464
0.63464
0.63464
0.63464
0.634641
0.634641
0.634641
0.634641
0.634641
0.634641
0.634641
0.634641
0.634641
0.634641
0.634641
0.634642
0.634642
0.634642
0.634642
0.634642
0.634642
0.634643
0.634643
0.634643
0.634643
0.634643
0.634644
0.634644
0.634644
0.634644
0.634644
0.634645
0.634645
0.634645
0.634645
0.634646
0.634646
0.634646
0.634646
0.634647
0.634647
0.634647
0.634648
0.634648
0.634648
0.634648
0.634649
0.634649
0.634649
0.63465
0.63465
0.634651
0.634651
0.634651
0.634651
0.634652
0.634652
0.634653
0.634653
0.634653
0.634654
0.634654
0.634655
0.634655
0.634655
0.634656
0.634656
0.634657
0.634657
0.634658
0.634658
0.634659
0.634659
0.634659
0.63466
0.634661
0.634661
0.634662
0.634662
0.634663
0.634663
0.634664
0.634665
0.634665
0.634665
0.634666
0.634667
0.634667
0.634667
0.634668
0.634669
0.634669
0.63467
0.63467
0.634671
0.634672
0.634673
0.634673
0.634673
0.634674
0.634675
0.634676
0.634677
0.634677
0.634677
0.634678
0.634679
0.63468
0.63468
0.634681
0.634682
0.634683
0.634683
0.634683
0.634684
0.634685
0.634686
0.634687
0.634687
0.634688
0.634689
0.63469
0.634691
0.634691
0.634692
0.634693
0.634694
0.634695
0.634695
0.634696
0.634697
0.634698
0.634699
0.634699
0.6347
0.634701
0.634702
0.634703
0.634703
0.634705
0.634706
0.634707
0.634708
0.634708
0.634709
0.63471
0.634711
0.634712
0.634712
0.634714
0.634715
0.634716
0.634717
0.634717
0.634718
0.63472
0.634721
0.634722
0.634722
0.634723
0.634725
0.634726
0.634727
0.634727
0.634728
0.63473
0.634731
0.634732
0.634732
0.634734
0.634735
0.634736
0.634738
0.634738
0.634739
0.63474
0.634742
0.634743
0.634743
0.634745
0.634746
0.634747
0.634749
0.634749
0.63475
0.634752
0.634753
0.634755
0.634755
0.634756
0.634758
0.634759
0.634761
0.634761
0.634762
0.634764
0.634765
0.634767
0.634767
0.634768
0.63477
0.634771
0.634773
0.634773
0.634775
0.634776
0.634778
0.634779
0.634779
0.634781
0.634783
0.634784
0.634786
0.634786
0.634788
0.634789
0.634791
0.634793
0.634793
0.634794
0.634796
0.634798
0.6348
0.6348
0.634801
0.634803
0.634805
0.634807
0.634807
0.634808
0.63481
0.634812
0.634814
0.634814
0.634815
0.634817
0.634819
0.634821
0.634821
0.634823
0.634825
0.634827
0.634828
0.634828
0.63483
0.634832
0.634834
0.634836
0.634836
0.634838
0.63484
0.634842
0.634844
0.634844
0.634846
0.634848
0.63485
0.634852
0.634852
0.634854
0.634856
0.634858
0.63486
0.63486
0.634862
0.634864
0.634866
0.634868
0.634868
0.63487
0.634872
0.634874
0.634876
0.634876
0.634879
0.634881
0.634883
0.634885
0.634885
0.634887
0.634889
0.634891
0.634894
0.634894
0.634896
0.634898
0.6349
0.634902
0.634902
0.634905
0.634907
0.634909
0.634911
0.634911
0.634914
0.634916
0.634918
0.634921
0.634921
0.634923
0.634925
0.634927
0.63493
0.63493
0.634932
0.634935
0.634937
0.634939
0.634939
0.634942
0.634944
0.634946
0.634949
0.634949
0.634951
0.634954
0.634956
0.634959
0.634959
0.634961
0.634963
0.634966
0.634968
0.634968
0.634971
0.634973
0.634976
0.634978
0.634978
0.634981
0.634984
0.634986
0.634989
0.634989
0.634991
0.634994
0.634996
0.634999
0.634999
0.635002
0.635004
0.635007
0.63501
0.63501
0.635012
0.635015
0.635017
0.63502
0.63502
0.635023
0.635026
0.635028
0.635031
0.635031
0.635034
0.635036
0.635039
0.635042
0.635042
0.635045
0.635047
0.63505
0.635053
0.635053
0.635056
0.635059
0.635061
0.635064
0.635064
0.635067
0.63507
0.635073
0.635076
0.635076
0.635079
0.635081
0.635084
0.635087
0.635087
0.63509
0.635093
0.635096
0.635099
0.635099
0.635102
0.635105
0.635108
0.635111
0.635111
0.635114
0.635117
0.63512
0.635123
0.635123
0.635126
0.635129
0.635132
0.635135
0.635135
0.635138
0.635141
0.635144
0.635147
0.635147
0.63515
0.635154
0.635157
0.63516
0.63516
0.635163
0.635166
0.635169
0.635172
0.635172
0.635176
0.635179
0.635182
0.635185
0.635185
0.635188
0.635192
0.635195
0.635198
0.635198
0.635201
0.635205
0.635208
0.635211
0.635211
0.635215
0.635218
0.635221
0.635224
0.635224
0.635228
0.635231
0.635234
0.635238
0.635238
0.635241
0.635245
0.635248
0.635251
0.635251
0.635255
0.635258
0.635262
0.635265
0.635265
0.635269
0.635272
0.635275
0.635279
0.635279
0.635282
0.635286
0.635289
0.635293
0.635293
0.635296
0.6353
0.635304
0.635307
0.635307
0.635311
0.635314
0.635318
0.635321
0.635321
0.635325
0.635329
0.635332
0.635336
0.635336
0.635339
0.635343
0.635347
0.63535
0.63535
0.635354
0.635358
0.635362
0.635365
0.635365
0.635369
0.635373
0.635376
0.63538
0.63538
0.635384
0.635388
0.635391
0.635395
0.635395
0.635399
0.635403
0.635407
0.63541
0.63541
0.635414
0.635418
0.635422
0.635426
0.635426
0.63543
0.635434
0.635437
0.635441
0.635441
0.635445
0.635449
0.635453
0.635457
0.635457
0.635461
0.635465
0.635469
0.635473
0.635473
0.635477
0.635481
0.635485
0.635489
0.635489
0.635493
0.635497
0.635501
0.635505
0.635505
0.635509
0.635513
0.635517
0.635521
0.635521
0.635525
0.63553
0.635534
0.635538
0.635538
0.635542
0.635546
0.63555
0.635554
0.635554
0.635559
0.635563
0.635567
0.635571
0.635571
0.635575
0.63558
0.635584
0.635588
0.635588
0.635592
0.635597
0.635601
0.635605
0.635605
0.635609
0.635614
0.635618
0.635622
0.635622
0.635627
0.635631
0.635635
0.63564
0.63564
0.635644
0.635649
0.635653
0.635657
0.635657
0.635662
0.635666
0.635671
0.635675
0.635675
0.635679
0.635684
0.635688
0.635693
0.635693
0.635697
0.635702
0.635706
0.635711
0.635711
0.635715
0.63572
0.635724
0.635729
0.635729
0.635734
0.635738
0.635743
0.635747
0.635747
0.635752
0.635757
0.635761
0.635766
0.635766
0.63577
0.635775
0.63578
0.635784
0.635784
0.635789
0.635794
0.635798
0.635803
0.635803
0.635808
0.635813
0.635817
0.635822
0.635822
0.635827
0.635832
0.635836
0.635841
0.635841
0.635846
0.635851
0.635856
0.63586
0.63586
0.635865
0.63587
0.635875
0.63588
0.63588
0.635885
0.63589
0.635894
0.635899
0.635899
0.635904
0.635909
0.635914
0.635919
0.635919
0.635924
0.635929
0.635934
0.635939
0.635939
0.635944
0.635949
0.635954
0.635959
0.635959
0.635964
0.635969
0.635974
0.635979
0.635979
0.635984
0.635989
0.635994
0.635999
0.635999
0.636004
0.63601
0.636015
0.63602
0.63602
0.636025
0.63603
0.636035
0.636041
0.636041
0.636046
0.636051
0.636056
0.636061
0.636061
0.636067
0.636072
0.636077
0.636082
0.636082
0.636088
0.636093
0.636098
0.636103
0.636103
0.636109
0.636114
0.636119
0.636125
0.636125
0.63613
0.636135
0.636141
0.636146
0.636146
0.636151
0.636157
0.636162
0.636168
0.636168
0.636173
0.636178
0.636184
0.636189
0.636189
0.636195
0.6362
0.636206
0.636211
0.636211
0.636217
0.636222
0.636228
0.636233
0.636233
0.636239
0.636244
0.63625
0.636255
0.636255
0.636261
0.636267
0.636272
0.636278
0.636278
0.636283
0.636289
0.636295
0.6363
0.6363
0.636306
0.636312
0.636317
0.636323
0.636323
0.636329
0.636334
0.63634
0.636346
0.636346
0.636352
0.636357
0.636363
0.636369
0.636369
0.636375
0.63638
0.636386
0.636392
0.636392
0.636398
0.636404
0.636409
0.636415
0.636415
0.636421
0.636427
0.636433
0.636439
0.636439
0.636445
0.63645
0.636456
0.636462
0.636462
0.636468
0.636474
0.63648
0.636486
0.636486
0.636492
0.636498
0.636504
0.63651
0.63651
0.636516
0.636522
0.636528
0.636534
0.636534
0.63654
0.636546
0.636552
0.636558
0.636558
0.636564
0.63657
0.636577
0.636583
0.636583
0.636589
0.636595
0.636601
0.636607
0.636607
0.636613
0.63662
0.636626
0.636632
0.636632
0.636638
0.636644
0.636651
0.636657
0.636657
0.636663
0.636669
0.636676
0.636682
0.636682
0.636688
0.636694
0.636701
0.636707
0.636707
0.636713
0.63672
0.636726
0.636732
0.636732
0.636739
0.636745
0.636752
0.636758
0.636758
0.636764
0.636771
0.636777
0.636784
0.636784
0.63679
0.636796
0.636803
0.636809
0.636809
0.636816
0.636822
0.636829
0.636835
0.636835
0.636842
0.636848
0.636855
0.636862
0.636862
0.636868
0.636875
0.636881
0.636888
0.636888
0.636894
0.636901
0.636908
0.636914
0.636914
0.636921
0.636928
0.636934
0.636941
0.636941
0.636948
0.636954
0.636961
0.636968
0.636968
0.636974
0.636981
0.636988
0.636995
0.636995
0.637001
0.637008
0.637015
0.637022
0.637022
0.637028
0.637035
0.637042
0.637049
0.637049
0.637056
0.637063
0.637069
0.637076
0.637076
0.637083
0.63709
0.637097
0.637104
0.637104
0.637111
0.637118
0.637125
0.637132
0.637132
0.637139
0.637146
0.637153
0.63716
0.63716
0.637167
0.637174
0.637181
0.637188
0.637188
0.637195
0.637202
0.637209
0.637216
0.637216
0.637223
0.63723
0.637237
0.637244
0.637244
0.637251
0.637258
0.637266
0.637273
0.637273
0.63728
0.637287
0.637294
0.637301
0.637301
0.637309
0.637316
0.637323
0.63733
0.63733
0.637337
0.637345
0.637352
0.637359
0.637359
0.637366
0.637374
0.637381
0.637388
0.637388
0.637395
0.637403
0.63741
0.637417
0.637417
0.637425
0.637432
0.637439
0.637446
0.637446
0.637454
0.637461
0.637468
0.637476
0.637476
0.637483
0.637491
0.637499
0.637506
0.637506
0.637514
0.637521
0.637529
0.637536
0.637536
0.637544
0.637552
0.637559
0.637567
0.637567
0.637574
0.637582
0.63759
0.637597
0.637597
0.637605
0.637612
0.63762
0.637628
0.637628
0.637635
0.637643
0.637651
0.637658
0.637658
0.637666
0.637674
0.637681
0.637689
0.637689
0.637697
0.637704
0.637712
0.63772
0.63772
0.637728
0.637736
0.637743
0.637751
0.637751
0.637759
0.637767
0.637775
0.637782
0.637782
0.63779
0.637798
0.637806
0.637814
0.637814
0.637822
0.63783
0.637837
0.637845
0.637845
0.637853
0.637861
0.637869
0.637877
0.637877
0.637885
0.637893
0.637901
0.637909
0.637909
0.637917
0.637925
0.637933
0.637941
0.637941
0.637949
0.637957
0.637965
0.637973
0.637973
0.637982
0.63799
0.637998
0.638006
0.638006
0.638014
0.638022
0.63803
0.638038
0.638038
0.638047
0.638055
0.638063
0.638071
0.638071
0.638079
0.638088
0.638096
0.638104
0.638104
0.638112
0.638121
0.638129
0.638137
0.638137
0.638145
0.638154
0.638162
0.63817
0.63817
0.638179
0.638187
0.638195
0.638204
0.638204
0.638212
0.63822
0.638229
0.638237
0.638237
0.638246
0.638254
0.638263
0.638271
0.638271
0.638279
0.638288
0.638296
0.638305
0.638305
0.638313
0.638322
0.63833
0.638339
0.638339
0.638347
0.638356
0.638365
0.638373
0.638373
0.638382
0.63839
0.638399
0.638408
0.638408
0.638416
0.638425
0.638433
0.638442
0.638442
0.638451
0.638459
0.638468
0.638477
0.638477
0.638485
0.638494
0.638503
0.638512
0.638512
0.63852
0.638529
0.638538
0.638547
0.638547
0.638555
0.638564
0.638573
0.638582
0.638582
0.638591
0.6386
0.638608
0.638617
0.638617
0.638626
0.638635
0.638644
0.638653
0.638653
0.638662
0.638671
0.63868
0.638688
0.638688
0.638697
0.638706
0.638715
0.638724
0.638724
0.638733
0.638742
0.638751
0.63876
0.63876
0.638769
0.638778
0.638787
0.638797
0.638797
0.638806
0.638815
0.638824
0.638833
0.638833
0.638842
0.638851
0.63886
0.638869
0.638869
0.638879
0.638888
0.638897
0.638906
0.638906
0.638915
0.638925
0.638934
0.638943
0.638943
0.638952
0.638961
0.638971
0.63898
0.63898
0.638989
0.638999
0.639008
0.639017
0.639017
0.639027
0.639036
0.639045
0.639055
0.639055
0.639064
0.639073
0.639083
0.639092
0.639092
0.639101
0.639111
0.63912
0.63913
0.63913
0.639139
0.639149
0.639158
0.639168
0.639168
0.639177
0.639187
0.639196
0.639206
0.639206
0.639215
0.639225
0.639234
0.639244
0.639244
0.639253
0.639263
0.639273
0.639282
0.639282
0.639292
0.639301
0.639311
0.639321
0.639321
0.63933
0.63934
0.63935
0.639359
0.639359
0.639369
0.639379
0.639389
0.639398
0.639398
0.639408
0.639418
0.639428
0.639437
0.639437
0.639447
0.639457
0.639467
0.639477
0.639477
0.639486
0.639496
0.639506
0.639516
0.639516
0.639526
0.639536
0.639546
0.639555
0.639555
0.639565
0.639575
0.639585
0.639595
0.639595
0.639605
0.639615
0.639625
0.639635
0.639635
0.639645
0.639655
0.639665
0.639675
0.639675
0.639685
0.639695
0.639705
0.639715
0.639715
0.639725
0.639735
0.639746
0.639756
0.639756
0.639766
0.639776
0.639786
0.639796
0.639796
0.639806
0.639817
0.639827
0.639837
0.639837
0.639847
0.639857
0.639868
0.639878
0.639878
0.639888
0.639898
0.639909
0.639919
0.639919
0.639929
0.639939
0.63995
0.63996
0.63996
0.63997
0.639981
0.639991
0.640001
0.640001
0.640012
0.640022
0.640033
0.640043
0.640043
0.640053
0.640064
0.640074
0.640085
0.640085
0.640095
0.640106
0.640116
0.640127
0.640127
0.640137
0.640148
0.640158
0.640169
0.640169
0.640179
0.64019
0.6402
0.640211
0.640211
0.640222
0.640232
0.640243
0.640253
0.640253
0.640264
0.640275
0.640285
0.640296
0.640296
0.640307
0.640317
0.640328
0.640339
0.640339
0.64035
0.64036
0.640371
0.640382
0.640382
0.640392
0.640403
0.640414
0.640425
0.640425
0.640436
0.640446
0.640457
0.640468
0.640468
0.640479
0.64049
0.640501
0.640512
0.640512
0.640522
0.640533
0.640544
0.640555
0.640555
0.640566
0.640577
0.640588
0.640599
0.640599
0.64061
0.640621
0.640632
0.640643
0.640643
0.640654
0.640665
0.640676
0.640687
0.640687
0.640698
0.640709
0.64072
0.640731
0.640731
0.640743
0.640754
0.640765
0.640776
0.640776
0.640787
0.640798
0.640809
0.640821
0.640821
0.640832
0.640843
0.640854
0.640865
0.640865
0.640877
0.640888
0.640899
0.64091
0.64091
0.640922
0.640933
0.640944
0.640956
0.640956
0.640967
0.640978
0.64099
0.641001
0.641001
0.641012
0.641024
0.641035
0.641046
0.641046
0.641058
0.641069
0.641081
0.641092
0.641092
0.641104
0.641115
0.641127
0.641138
0.641138
0.64115
0.641161
0.641173
0.641184
0.641184
0.641196
0.641207
0.641219
0.64123
0.64123
0.641242
0.641253
0.641265
0.641277
0.641277
0.641288
0.6413
0.641312
0.641323
0.641323
0.641335
0.641347
0.641358
0.64137
0.64137
0.641382
0.641393
0.641405
0.641417
0.641417
0.641429
0.64144
0.641452
0.641464
0.641464
0.641476
0.641488
0.641499
0.641511
0.641511
0.641523
0.641535
0.641547
0.641559
0.641559
0.641571
0.641583
0.641594
0.641606
0.641606
0.641618
0.64163
0.641642
0.641654
0.641654
0.641666
0.641678
0.64169
0.641702
0.641702
0.641714
0.641726
0.641738
0.64175
0.64175
0.641762
0.641774
0.641787
0.641799
0.641799
0.641811
0.641823
0.641835
0.641847
0.641847
0.641859
0.641871
0.641884
0.641896
0.641896
0.641908
0.64192
0.641932
0.641945
0.641945
0.641957
0.641969
0.641981
0.641994
0.641994
0.642006
0.642018
0.642031
0.642043
0.642043
0.642055
0.642068
0.64208
0.642092
0.642092
0.642105
0.642117
0.642129
0.642142
0.642142
0.642154
0.642167
0.642179
0.642192
0.642192
0.642204
0.642217
0.642229
0.642242
0.642242
0.642254
0.642267
0.642279
0.642292
0.642292
0.642304
0.642317
0.642329
0.642342
0.642342
0.642354
0.642367
0.64238
0.642392
0.642392
0.642405
0.642418
0.64243
0.642443
0.642443
0.642456
0.642468
0.642481
0.642494
0.642494
0.642507
0.642519
0.642532
0.642545
0.642545
0.642558
0.64257
0.642583
0.642596
0.642596
0.642609
0.642622
0.642634
0.642647
0.642647
0.64266
0.642673
0.642686
0.642699
0.642699
0.642712
0.642725
0.642738
0.642751
0.642751
0.642763
0.642776
0.642789
0.642802
0.642802
0.642815
0.642828
0.642841
0.642854
0.642854
0.642868
0.642881
0.642894
0.642907
0.642907
0.64292
0.642933
0.642946
0.642959
0.642959
0.642972
0.642985
0.642999
0.643012
0.643012
0.643025
0.643038
0.643051
0.643065
0.643065
0.643078
0.643091
0.643104
0.643118
0.643118
0.643131
0.643144
0.643157
0.643171
0.643171
0.643184
0.643197
0.643211
0.643224
0.643224
0.643237
0.643251
0.643264
0.643278
0.643278
0.643291
0.643304
0.643318
0.643331
0.643331
0.643345
0.643358
0.643372
0.643385
0.643385
0.643399
0.643412
0.643426
0.643439
0.643439
0.643453
0.643466
0.64348
0.643493
0.643493
0.643507
0.643521
0.643534
0.643548
0.643548
0.643561
0.643575
0.643589
0.643602
0.643602
0.643616
0.64363
0.643644
0.643657
0.643657
0.643671
0.643685
0.643698
0.643712
0.643712
0.643726
0.64374
0.643754
0.643767
0.643767
0.643781
0.643795
0.643809
0.643823
0.643823
0.643837
0.64385
0.643864
0.643878
0.643878
0.643892
0.643906
0.64392
0.643934
0.643934
0.643948
0.643962
0.643976
0.64399
0.64399
0.644004
0.644018
0.644032
0.644046
0.644046
0.64406
0.644074
0.644088
0.644102
0.644102
0.644116
0.64413
0.644144
0.644159
0.644159
0.644173
0.644187
0.644201
0.644215
0.644215
0.644229
0.644244
0.644258
0.644272
0.644272
0.644286
0.6443
0.644315
0.644329
0.644329
0.644343
0.644358
0.644372
0.644386
0.644386
0.6444
0.644415
0.644429
0.644444
0.644444
0.644458
0.644472
0.644487
0.644501
0.644501
0.644515
0.64453
0.644544
0.644559
0.644559
0.644573
0.644588
0.644602
0.644617
0.644617
0.644631
0.644646
0.64466
0.644675
0.644675
0.644689
0.644704
0.644719
0.644733
0.644733
0.644748
0.644762
0.644777
0.644792
0.644792
0.644806
0.644821
0.644836
0.64485
0.64485
0.644865
0.64488
0.644894
0.644909
0.644909
0.644924
0.644939
0.644953
0.644968
0.644968
0.644983
0.644998
0.645013
0.645027
0.645027
0.645042
0.645057
0.645072
0.645087
0.645087
0.645102
0.645117
0.645131
0.645146
0.645146
0.645161
0.645176
0.645191
0.645206
0.645206
0.645221
0.645236
0.645251
0.645266
0.645266
0.645281
0.645295
0.64531
0.645325
0.645325
0.64534
0.645355
0.64537
0.645385
0.645385
0.6454
0.645415
0.64543
0.645446
0.645446
0.645461
0.645476
0.645492
0.645507
0.645507
0.645522
0.645538
0.645553
0.645568
0.645568
0.645584
0.645599
0.645614
0.64563
0.64563
0.645645
0.64566
0.645676
0.645691
0.645691
0.645707
0.645722
0.645737
0.645753
0.645753
0.645768
0.645784
0.645799
0.645814
0.645814
0.64583
0.645845
0.645861
0.645876
0.645876
0.645892
0.645907
0.645923
0.645938
0.645938
0.645954
0.645969
0.645985
0.646001
0.646001
0.646016
0.646032
0.646047
0.646063
0.646063
0.646079
0.646094
0.64611
0.646126
0.646126
0.646141
0.646157
0.646173
0.646188
0.646188
0.646204
0.64622
0.646236
0.646251
0.646251
0.646267
0.646283
0.646299
0.646315
0.646315
0.646331
0.646346
0.646362
0.646378
0.646378
0.646394
0.64641
0.646426
0.646442
0.646442
0.646458
0.646474
0.646489
0.646505
0.646505
0.646521
0.646537
0.646553
0.646569
0.646569
0.646585
0.646601
0.646618
0.646634
0.646634
0.64665
0.646666
0.646682
0.646698
0.646698
0.646714
0.64673
0.646746
0.646762
0.646762
0.646779
0.646795
0.646811
0.646827
0.646827
0.646843
0.64686
0.646876
0.646892
0.646892
0.646908
0.646925
0.646941
0.646957
0.646957
0.646974
0.64699
0.647006
0.647023
0.647023
0.647039
0.647055
0.647072
0.647088
0.647088
0.647104
0.647121
0.647137
0.647154
0.647154
0.64717
0.647187
0.647203
0.64722
0.64722
0.647236
0.647253
0.647269
0.647286
0.647286
0.647302
0.647319
0.647335
0.647352
0.647352
0.647369
0.647385
0.647402
0.647419
0.647419
0.647435
0.647452
0.647469
0.647485
0.647485
0.647502
0.647519
0.647535
0.647552
0.647552
0.647569
0.647586
0.647602
0.647619
0.647619
0.647636
0.647653
0.64767
0.647686
0.647686
0.647703
0.64772
0.647737
0.647754
0.647754
0.647771
0.647788
0.647805
0.647822
0.647822
0.647839
0.647855
0.647872
0.647889
0.647889
0.647906
0.647923
0.64794
0.647957
0.647957
0.647975
0.647992
0.648009
0.648026
0.648026
0.648043
0.64806
0.648077
0.648094
0.648094
0.648111
0.648128
0.648146
0.648163
0.648163
0.64818
0.648197
0.648214
0.648232
0.648232
0.648249
0.648266
0.648283
0.648301
0.648301
0.648318
0.648335
0.648353
0.64837
0.64837
0.648387
0.648405
0.648422
0.648439
0.648439
0.648457
0.648474
0.648492
0.648509
0.648509
0.648526
0.648544
0.648561
0.648579
0.648579
0.648596
0.648614
0.648631
0.648649
0.648649
0.648666
0.648684
0.648701
0.648719
0.648719
0.648737
0.648754
0.648772
0.648789
0.648789
0.648807
0.648825
0.648842
0.64886
0.64886
0.648878
0.648895
0.648913
0.648931
0.648931
0.648949
0.648966
0.648984
0.649002
0.649002
0.64902
0.649038
0.649055
0.649073
0.649073
0.649091
0.649109
0.649127
0.649145
0.649145
0.649162
0.64918
0.649198
0.649216
0.649216
0.649234
0.649252
0.64927
0.649288
0.649288
0.649306
0.649324
0.649342
0.64936
0.64936
0.649378
0.649396
0.649414
0.649432
0.649432
0.64945
0.649468
0.649487
0.649505
0.649505
0.649523
0.649541
0.649559
0.649577
0.649577
0.649596
0.649614
0.649632
0.64965
0.64965
0.649668
0.649687
0.649705
0.649723
0.649723
0.649742
0.64976
0.649778
0.649796
0.649796
0.649815
0.649833
0.649852
0.64987
0.64987
0.649888
0.649907
0.649925
0.649944
0.649944
0.649962
0.64998
0.649999
0.650017
0.650017
0.650036
0.650054
0.650073
0.650091
0.650091
0.65011
0.650129
0.650147
0.650166
0.650166
0.650184
0.650203
0.650221
0.65024
0.65024
0.650259
0.650277
0.650296
0.650315
0.650315
0.650333
0.650352
0.650371
0.65039
0.65039
0.650408
0.650427
0.650446
0.650465
0.650465
0.650483
0.650502
0.650521
0.65054
0.65054
0.650559
0.650578
0.650597
0.650615
0.650615
0.650634
0.650653
0.650672
0.650691
0.650691
0.65071
0.650729
0.650748
0.650767
0.650767
0.650786
0.650805
0.650824
0.650843
0.650843
0.650862
0.650881
0.6509
0.650919
0.650919
0.650938
0.650958
0.650977
0.650996
0.650996
0.651015
0.651034
0.651053
0.651073
0.651073
0.651092
0.651111
0.65113
0.651149
0.651149
0.651169
0.651188
0.651207
0.651227
0.651227
0.651246
0.651265
0.651285
0.651304
0.651304
0.651323
0.651343
0.651362
0.651381
0.651381
0.651401
0.65142
0.65144
0.651459
0.651459
0.651479
0.651498
0.651518
0.651537
0.651537
0.651557
0.651576
0.651596
0.651615
0.651615
0.651635
0.651654
0.651674
0.651694
0.651694
0.651713
0.651733
0.651753
0.651772
0.651772
0.651792
0.651812
0.651831
0.651851
0.651851
0.651871
0.65189
0.65191
0.65193
0.65193
0.65195
0.65197
0.651989
0.652009
0.652009
0.652029
0.652049
0.652069
0.652089
0.652089
0.652108
0.652128
0.652148
0.652168
0.652168
0.652188
0.652208
0.652228
0.652248
0.652248
0.652268
0.652288
0.652308
0.652328
0.652328
0.652348
0.652368
0.652388
0.652408
0.652408
0.652428
0.652448
0.652469
0.652489
0.652489
0.652509
0.652529
0.652549
0.652569
0.652569
0.65259
0.65261
0.65263
0.65265
0.65265
0.652671
0.652691
0.652711
0.652731
0.652731
0.652752
0.652772
0.652792
0.652813
0.652813
0.652833
0.652853
0.652874
0.652894
0.652894
0.652915
0.652935
0.652955
0.652976
0.652976
0.652996
0.653017
0.653037
0.653058
0.653058
0.653078
0.653099
0.653119
0.65314
0.65314
0.653161
0.653181
0.653202
0.653222
0.653222
0.653243
0.653264
0.653284
0.653305
0.653305
0.653326
0.653346
0.653367
0.653388
0.653388
0.653408
0.653429
0.65345
0.653471
0.653471
0.653491
0.653512
0.653533
0.653554
0.653554
0.653575
0.653595
0.653616
0.653637
0.653637
0.653658
0.653679
0.6537
0.65372
0.65372
0.653741
0.653762
0.653783
0.653804
0.653804
0.653825
0.653846
0.653866
0.653887
0.653887
0.653908
0.653929
0.65395
0.653971
0.653971
0.653992
0.654013
0.654034
0.654056
0.654056
0.654077
0.654099
0.65412
0.654141
0.654141
0.654163
0.654184
0.654205
0.654227
0.654227
0.654248
0.654269
0.654291
0.654312
0.654312
0.654333
0.654355
0.654376
0.654398
0.654398
0.654419
0.65444
0.654462
0.654483
0.654483
0.654505
0.654526
0.654547
0.654569
0.654569
0.65459
0.654612
0.654633
0.654655
0.654655
0.654676
0.654698
0.65472
0.654741
0.654741
0.654763
0.654784
0.654806
0.654828
0.654828
0.654849
0.654871
0.654893
0.654914
0.654914
0.654936
0.654958
0.654979
0.655001
0.655001
0.655023
0.655045
0.655066
0.655088
0.655088
0.65511
0.655132
0.655154
0.655175
0.655175
0.655197
0.655219
0.655241
0.655263
0.655263
0.655285
0.655307
0.655329
0.655351
0.655351
0.655373
0.655395
0.655417
0.655439
0.655439
0.655461
0.655483
0.655505
0.655527
0.655527
0.655549
0.655571
0.655593
0.655615
0.655615
0.655637
0.65566
0.655682
0.655704
0.655704
0.655726
0.655748
0.65577
0.655793
0.655793
0.655815
0.655837
0.655859
0.655882
0.655882
0.655904
0.655926
0.655949
0.655971
0.655971
0.655993
0.656016
0.656038
0.65606
0.65606
0.656083
0.656105
0.656128
0.65615
0.65615
0.656173
0.656195
0.656218
0.65624
0.65624
0.656263
0.656285
0.656308
0.65633
0.65633
0.656353
0.656375
0.656398
0.656421
0.656421
0.656443
0.656466
0.656489
0.656511
0.656511
0.656534
0.656557
0.656579
0.656602
0.656602
0.656625
0.656648
0.65667
0.656693
0.656693
0.656716
0.656739
0.656761
0.656784
0.656784
0.656807
0.65683
0.656853
0.656876
0.656876
0.656899
0.656922
0.656945
0.656968
0.656968
0.65699
0.657013
0.657036
0.657059
0.657059
0.657082
0.657105
0.657129
0.657152
0.657152
0.657175
0.657198
0.657221
0.657244
0.657244
0.657267
0.65729
0.657313
0.657337
0.657337
0.65736
0.657383
0.657406
0.657429
0.657429
0.657453
0.657476
0.657499
0.657522
0.657522
0.657546
0.657569
0.657592
0.657616
0.657616
0.657639
0.657662
0.657686
0.657709
0.657709
0.657733
0.657756
0.657779
0.657803
0.657803
0.657826
0.65785
0.657873
0.657897
0.657897
0.65792
0.657944
0.657967
0.657991
0.657991
0.658015
0.658038
0.658062
0.658085
0.658085
0.658109
0.658133
0.658156
0.65818
0.65818
0.658204
0.658227
0.658251
0.658275
0.658275
0.658299
0.658322
0.658346
0.65837
0.65837
0.658394
0.658418
0.658441
0.658465
0.658465
0.658489
0.658513
0.658537
0.658561
0.658561
0.658585
0.658609
0.658632
0.658656
0.658656
0.65868
0.658704
0.658728
0.658752
0.658752
0.658776
0.658801
0.658825
0.658849
0.658849
0.658873
0.658897
0.658921
0.658945
0.658945
0.658969
0.658993
0.659018
0.659042
0.659042
0.659066
0.65909
0.659114
0.659139
0.659139
0.659163
0.659187
0.659211
0.659236
0.659236
0.65926
0.659284
0.659309
0.659333
0.659333
0.659357
0.659382
0.659406
0.659431
0.659431
0.659455
0.65948
0.659504
0.659528
0.659528
0.659553
0.659577
0.659602
0.659626
0.659626
0.659651
0.659676
0.6597
0.659725
0.659725
0.659749
0.659774
0.659799
0.659823
0.659823
0.659848
0.659873
0.659897
0.659922
0.659922
0.659947
0.659971
0.659996
0.660021
0.660021
0.660046
0.66007
0.660095
0.66012
0.66012
0.660145
0.66017
0.660195
0.660219
0.660219
0.660244
0.660269
0.660294
0.660319
0.660319
0.660344
0.660369
0.660394
0.660419
0.660419
0.660444
0.660469
0.660494
0.660519
0.660519
0.660544
0.660569
0.660594
0.660619
0.660619
0.660645
0.66067
0.660695
0.66072
0.66072
0.660745
0.66077
0.660796
0.660821
0.660821
0.660846
0.660871
0.660897
0.660922
0.660922
0.660947
0.660972
0.660998
0.661023
0.661023
0.661048
0.661074
0.661099
0.661125
0.661125
0.66115
0.661175
0.661201
0.661226
0.661226
0.661252
0.661277
0.661303
0.661328
0.661328
0.661354
0.661379
0.661405
0.661431
0.661431
0.661456
0.661482
0.661507
0.661533
0.661533
0.661559
0.661584
0.66161
0.661636
0.661636
0.661661
0.661687
0.661713
0.661739
0.661739
0.661764
0.66179
0.661816
0.661842
0.661842
0.661867
0.661893
0.661919
0.661945
0.661945
0.661971
0.661997
0.662023
0.662049
0.662049
0.662075
0.662101
0.662126
0.662152
0.662152
0.662178
0.662204
0.662231
0.662257
0.662257
0.662283
0.662309
0.662335
0.662361
0.662361
0.662387
0.662413
0.662439
0.662465
0.662465
0.662492
0.662518
0.662544
0.66257
0.66257
0.662596
0.662623
0.662649
0.662675
0.662675
0.662701
0.662728
0.662754
0.66278
0.66278
0.662806
0.662833
0.662859
0.662885
0.662885
0.662911
0.662938
0.662964
0.66299
0.66299
0.663016
0.663043
0.663069
0.663095
0.663095
0.663122
0.663148
0.663175
0.663202
0.663202
0.663229
0.663255
0.663282
0.663309
0.663309
0.663336
0.663363
0.66339
0.663416
0.663416
0.663443
0.66347
0.663497
0.663524
0.663524
0.663551
0.663577
0.663604
0.663631
0.663631
0.663658
0.663685
0.663712
0.663739
0.663739
0.663765
0.663792
0.663819
0.663846
0.663846
0.663873
0.6639
0.663927
0.663954
0.663954
0.663981
0.664008
0.664035
0.664062
0.664062
0.664089
0.664116
0.664143
0.664171
0.664171
0.664198
0.664225
0.664252
0.664279
0.664279
0.664306
0.664334
0.664361
0.664388
0.664388
0.664415
0.664443
0.66447
0.664497
0.664497
0.664524
0.664552
0.664579
0.664606
0.664606
0.664634
0.664661
0.664689
0.664716
0.664716
0.664743
0.664771
0.664798
0.664826
0.664826
0.664853
0.664881
0.664908
0.664936
0.664936
0.664963
0.664991
0.665019
0.665046
0.665046
0.665074
0.665101
0.665129
0.665157
0.665157
0.665184
0.665212
0.66524
0.665267
0.665267
0.665295
0.665323
0.665351
0.665379
0.665379
0.665406
0.665434
0.665462
0.66549
0.66549
0.665518
0.665546
0.665573
0.665601
0.665601
0.665629
0.665657
0.665685
0.665713
0.665713
0.665741
0.665769
0.665797
0.665825
0.665825
0.665853
0.665881
0.665909
0.665937
0.665937
0.665965
0.665994
0.666022
0.66605
0.66605
0.666078
0.666106
0.666134
0.666163
0.666163
0.666191
0.666219
0.666247
0.666275
0.666275
0.666304
0.666332
0.66636
0.666389
0.666389
0.666417
0.666445
0.666474
0.666502
0.666502
0.666531
0.666559
0.666587
0.666616
0.666616
0.666644
0.666673
0.666701
0.66673
0.66673
0.666758
0.666787
0.666815
0.666844
0.666844
0.666873
0.666901
0.66693
0.666958
0.666958
0.666987
0.667016
0.667044
0.667073
0.667073
0.667102
0.667131
0.667159
0.667188
0.667188
0.667217
0.667246
0.667275
0.667303
0.667303
0.667332
0.667361
0.66739
0.667419
0.667419
0.667448
0.667477
0.667506
0.667534
0.667534
0.667563
0.667592
0.667621
0.66765
0.66765
0.667679
0.667708
0.667737
0.667767
0.667767
0.667796
0.667825
0.667854
0.667883
0.667883
0.667912
0.667941
0.66797
0.668
0.668
0.668029
0.668058
0.668087
0.668117
0.668117
0.668146
0.668175
0.668204
0.668234
0.668234
0.668263
0.668292
0.668322
0.668351
0.668351
0.668381
0.66841
0.668439
0.668469
0.668469
0.668498
0.668528
0.668557
0.668587
0.668587
0.668616
0.668646
0.668675
0.668705
0.668705
0.668735
0.668764
0.668794
0.668823
0.668823
0.668853
0.668883
0.668912
0.668942
0.668942
0.668972
0.669002
0.669031
0.669061
0.669061
0.669091
0.669121
0.66915
0.66918
0.66918
0.66921
0.66924
0.66927
0.6693
0.6693
0.669329
0.669359
0.669389
0.669419
0.669419
0.669449
0.669479
0.669509
0.669539
0.669539
0.669569
0.669599
0.669629
0.669659
0.669659
0.669689
0.66972
0.66975
0.66978
0.66978
0.66981
0.66984
0.66987
0.669901
0.669901
0.669931
0.669961
0.669991
0.670021
0.670021
0.670052
0.670082
0.670112
0.670143
0.670143
0.670173
0.670203
0.670234
0.670264
0.670264
0.670294
0.670325
0.670355
0.670386
0.670386
0.670416
0.670447
0.670477
0.670508
0.670508
0.670538
0.670569
0.670599
0.67063
0.67063
0.670661
0.670691
0.670722
0.670752
0.670752
0.670783
0.670814
0.670844
0.670875
0.670875
0.670906
0.670937
0.670967
0.670998
0.670998
0.671029
0.67106
0.67109
0.671121
0.671121
0.671152
0.671183
0.671214
0.671245
0.671245
0.671276
0.671307
0.671338
0.671369
0.671369
0.671399
0.67143
0.671461
0.671492
0.671492
0.671524
0.671555
0.671586
0.671617
0.671617
0.671648
0.671679
0.67171
0.671741
0.671741
0.671772
0.671804
0.671835
0.671866
0.671866
0.671897
0.671928
0.67196
0.671991
0.671991
0.672022
0.672053
0.672085
0.672116
0.672116
0.672147
0.672179
0.67221
0.672241
0.672241
0.672273
0.672304
0.672335
0.672367
0.672367
0.672398
0.672429
0.672461
0.672492
0.672492
0.672523
0.672555
0.672586
0.672618
0.672618
0.672649
0.67268
0.672712
0.672744
0.672744
0.672776
0.672807
0.672839