<?xml version="1.0"?>
<VTKFile type="UnstructuredGrid" version="0.1" byte_order="LittleEndian">
<UnstructuredGrid>
<Piece NumberOfPoints="5000" NumberOfCells="4000">
<PointData Scalars="Reaction 0">
<DataArray type="Float32" Name="Reaction 0" format="ascii">
0.571545
0.571545
0.571545
0.571545
0.571545
0.571545
0.571545
0.571545
0.571545
0.571545
0.571545
0.571546
0.571546
0.571546
0.571546
0.571546
0.571546
0.571546
0.571546
0.571547
0.571547
0.571547
0.571547
0.571547
0.571548
0.571548
0.571548
0.571548
0.571548
0.571549
0.571549
0.571549
0.571549
0.57155
0.57155
0.57155
0.57155
0.571551
0.571551
0.571552
0.571552
0.571552
0.571552
0.571553
0.571553
0.571553
0.571554
0.571554
0.571555
0.571555
0.571555
0.571556
0.571556
0.571557
0.571557
0.571557
0.571558
0.571558
0.571559
0.57156
0.57156
0.57156
0.571561
0.571562
0.571562
0.571562
0.571563
0.571564
0.571564
0.571565
0.571565
0.571566
0.571566
0.571567
0.571568
0.571568
0.571569
0.571569
0.57157
0.571571
0.571571
0.571572
0.571573
0.571574
0.571574
0.571574
0.571575
0.571576
0.571577
0.571578
0.571578
0.571579
0.57158
0.571581
0.571582
0.571582
0.571583
0.571584
0.571585
0.571586
0.571586
0.571587
0.571588
0.571589
0.57159
0.57159
0.571591
0.571592
0.571593
0.571594
0.571594
0.571595
0.571597
0.571598
0.571599
0.571599
0.5716
0.571601
0.571602
0.571604
0.571604
0.571605
0.571606
0.571607
0.571609
0.571609
0.57161
0.571611
0.571612
0.571614
0.571614
0.571615
0.571616
0.571618
0.571619
0.571619
0.571621
0.571622
0.571623
0.571625
0.571625
0.571626
0.571628
0.571629
0.571631
0.571631
0.571632
0.571633
0.571635
0.571636
0.571636
0.571638
0.57164
0.571641
0.571643
0.571643
0.571644
0.571646
0.571647
0.571649
0.571649
0.571651
0.571652
0.571654
0.571656
0.571656
0.571657
0.571659
0.571661
0.571662
0.571662
0.571664
0.571666
0.571668
0.571669
0.571669
0.571671
0.571673
0.571675
0.571677
0.571677
0.571678
0.57168
0.571682
0.571684
0.571684
0.571686
0.571688
0.57169
0.571692
0.571692
0.571694
0.571696
0.571697
0.571699
0.571699
0.571701
0.571703
0.571705
0.571707
0.571707
0.571709
0.571711
0.571714
0.571716
0.571716
0.571718
0.57172
0.571722
0.571724
0.571724
0.571726
0.571728
0.57173
0.571733
0.571733
0.571735
0.571737
0.571739
0.571741
0.571741
0.571744
0.571746
0.571748
0.57175
0.57175
0.571753
0.571755
0.571757
0.57176
0.57176
0.571762
0.571764
0.571767
0.571769
0.571769
0.571771
0.571774
0.571776
0.571779
0.571779
0.571781
0.571783
0.571786
0.571788
0.571788
0.571791
0.571793
0.571796
0.571798
0.571798
0.571801
0.571803
0.571806
0.571809
0.571809
0.571811
0.571814
0.571816
0.571819
0.571819
0.571822
0.571824
0.571827
0.57183
0.57183
0.571832
0.571835
0.571838
0.57184
0.57184
0.571843
0.571846
0.571849
0.571851
0.571851
0.571854
0.571857
0.57186
0.571862
0.571862
0.571865
0.571868
0.571871
0.571874
0.571874
0.571877
0.57188
0.571882
0.571885
0.571885
0.571888
0.571891
0.571894
0.571897
0.571897
0.5719
0.571903
0.571906
0.571909
0.571909
0.571912
0.571915
0.571918
0.571921
0.571921
0.571924
0.571927
0.571931
0.571934
0.571934
0.571937
0.57194
0.571943
0.571946
0.571946
0.571949
0.571953
0.571956
0.571959
0.571959
0.571962
0.571965
0.571969
0.571972
0.571972
0.571975
0.571978
0.571982
0.571985
0.571985
0.571988
0.571992
0.571995
0.571998
0.571998
0.572002
0.572005
0.572008
0.572012
0.572012
0.572015
0.572019
0.572022
0.572026
0.572026
0.572029
0.572032
0.572036
0.572039
0.572039
0.572043
0.572046
0.57205
0.572054
0.572054
0.572057
0.572061
0.572064
0.572068
0.572068
0.572071
0.572075
0.572079
0.572082
0.572082
0.572086
0.57209
0.572093
0.572097
0.572097
0.572101
0.572104
0.572108
0.572112
0.572112
0.572116
0.572119
0.572123
0.572127
0.572127
0.572131
0.572134
0.572138
0.572142
0.572142
0.572146
0.57215
0.572154
0.572158
0.572158
0.572161
0.572165
0.572169
0.572173
0.572173
0.572177
0.572181
0.572185
0.572189
0.572189
0.572193
0.572197
0.572201
0.572205
0.572205
0.572209
0.572213
0.572217
0.572221
0.572221
0.572225
0.572229
0.572233
0.572238
0.572238
0.572242
0.572246
0.57225
0.572254
0.572254
0.572258
0.572262
0.572267
0.572271
0.572271
0.572275
0.572279
0.572284
0.572288
0.572288
0.572292
0.572296
0.572301
0.572305
0.572305
0.572309
0.572314
0.572318
0.572322
0.572322
0.572327
0.572331
0.572335
0.57234
0.57234
0.572344
0.572349
0.572353
0.572357
0.572357
0.572362
0.572366
0.572371
0.572375
0.572375
0.57238
0.572384
0.572389
0.572393
0.572393
0.572398
0.572403
0.572407
0.572412
0.572412
0.572416
0.572421
0.572425
0.57243
0.57243
0.572435
0.572439
0.572444
0.572449
0.572449
0.572453
0.572458
0.572463
0.572468
0.572468
0.572472
0.572477
0.572482
0.572486
0.572486
0.572491
0.572496
0.572501
0.572506
0.572506
0.57251
0.572515
0.57252
0.572525
0.572525
0.57253
0.572535
0.57254
0.572545
0.572545
0.572549
0.572554
0.572559
0.572564
0.572564
0.572569
0.572574
0.572579
0.572584
0.572584
0.572589
0.572594
0.572599
0.572604
0.572604
0.572609
0.572614
0.572619
0.572624
0.572624
0.57263
0.572635
0.57264
0.572645
0.572645
0.57265
0.572655
0.57266
0.572665
0.572665
0.572671
0.572676
0.572681
0.572686
0.572686
0.572691
0.572697
0.572702
0.572707
0.572707
0.572712
0.572718
0.572723
0.572728
0.572728
0.572734
0.572739
0.572744
0.57275
0.57275
0.572755
0.57276
0.572766
0.572771
0.572771
0.572777
0.572782
0.572787
0.572793
0.572793
0.572798
0.572804
0.572809
0.572815
0.572815
0.57282
0.572826
0.572831
0.572837
0.572837
0.572842
0.572848
0.572853
0.572859
0.572859
0.572864
0.57287
0.572876
0.572881
0.572881
0.572887
0.572893
0.572898
0.572904
0.572904
0.572909
0.572915
0.572921
0.572927
0.572927
0.572932
0.572938
0.572944
0.572949
0.572949
0.572955
0.572961
0.572967
0.572972
0.572972
0.572978
0.572984
0.57299
0.572996
0.572996
0.573001
0.573007
0.573013
0.573019
0.573019
0.573025
0.573031
0.573037
0.573043
0.573043
0.573049
0.573054
0.57306
0.573066
0.573066
0.573072
0.573078
0.573084
0.57309
0.57309
0.573096
0.573102
0.573108
0.573114
0.573114
0.57312
0.573126
0.573132
0.573139
0.573139
0.573145
0.573151
0.573157
0.573163
0.573163
0.573169
0.573175
0.573181
0.573188
0.573188
0.573194
0.5732
0.573206
0.573212
0.573212
0.573218
0.573225
0.573231
0.573237
0.573237
0.573243
0.57325
0.573256
0.573262
0.573262
0.573268
0.573275
0.573281
0.573287
0.573287
0.573294
0.5733
0.573306
0.573313
0.573313
0.573319
0.573326
0.573332
0.573338
0.573338
0.573345
0.573351
0.573358
0.573364
0.573364
0.573371
0.573377
0.573383
0.57339
0.57339
0.573396
0.573403
0.573409
0.573416
0.573416
0.573423
0.573429
0.573436
0.573442
0.573442
0.573449
0.573455
0.573462
0.573469
0.573469
0.573475
0.573482
0.573488
0.573495
0.573495
0.573502
0.573508
0.573515
0.573522
0.573522
0.573528
0.573535
0.573542
0.573548
0.573548
0.573555
0.573562
0.573569
0.573575
0.573575
0.573582
0.573589
0.573596
0.573603
0.573603
0.573609
0.573616
0.573623
0.57363
0.57363
0.573637
0.573644
0.57365
0.573657
0.573657
0.573664
0.573671
0.573678
0.573685
0.573685
0.573692
0.573699
0.573706
0.573713
0.573713
0.57372
0.573727
0.573734
0.573741
0.573741
0.573748
0.573755
0.573762
0.573769
0.573769
0.573776
0.573783
0.57379
0.573797
0.573797
0.573804
0.573811
0.573818
0.573825
0.573825
0.573832
0.573839
0.573846
0.573854
0.573854
0.573861
0.573868
0.573875
0.573882
0.573882
0.573889
0.573897
0.573904
0.573911
0.573911
0.573918
0.573926
0.573933
0.57394
0.57394
0.573947
0.573955
0.573962
0.573969
0.573969
0.573976
0.573984
0.573991
0.573998
0.573998
0.574006
0.574013
0.57402
0.574028
0.574028
0.574035
0.574042
0.57405
0.574057
0.574057
0.574065
0.574072
0.574079
0.574087
0.574087
0.574094
0.574102
0.574109
0.574117
0.574117
0.574124
0.574132
0.574139
0.574147
0.574147
0.574154
0.574162
0.574169
0.574177
0.574177
0.574184
0.574192
0.574199
0.574207
0.574207
0.574214
0.574222
0.57423
0.574237
0.574237
0.574245
0.574252
0.57426
0.574268
0.574268
0.574275
0.574283
0.574291
0.574298
0.574298
0.574306
0.574314
0.574321
0.574329
0.574329
0.574337
0.574344
0.574352
0.57436
0.57436
0.574368
0.574375
0.574383
0.574391
0.574391
0.574399
0.574406
0.574414
0.574422
0.574422
0.57443
0.574438
0.574446
0.574453
0.574453
0.574461
0.574469
0.574477
0.574485
0.574485
0.574493
0.574501
0.574508
0.574516
0.574516
0.574524
0.574532
0.57454
0.574548
0.574548
0.574556
0.574564
0.574572
0.57458
0.57458
0.574588
0.574596
0.574604
0.574612
0.574612
0.57462
0.574628
0.574636
0.574644
0.574644
0.574652
0.57466
0.574668
0.574676
0.574676
0.574684
0.574692
0.5747
0.574708
0.574708
0.574716
0.574724
0.574733
0.574741
0.574741
0.574749
0.574757
0.574765
0.574773
0.574773
0.574781
0.57479
0.574798
0.574806
0.574806
0.574814
0.574822
0.57483
0.574839
0.574839
0.574847
0.574855
0.574863
0.574872
0.574872
0.57488
0.574888
0.574896
0.574905
0.574905
0.574913
0.574921
0.574929
0.574938
0.574938
0.574946
0.574954
0.574963
0.574971
0.574971
0.574979
0.574987
0.574996
0.575004
0.575004
0.575012
0.57502
0.575027
0.575034
0.575034
0.57504
0.575045
0.575048
0.57505
0.57505
0.57505
0.57505
0.575049
0.575047
0.575047
0.575046
0.575045
0.575044
0.575042
0.575042
0.575041
0.57504
0.575038
0.575037
0.575037
0.575036
0.575034
0.575033
0.575032
0.575032
0.57503
0.575029
0.575028
0.575026
0.575026
0.575025
0.575024
0.575022
0.575021
0.575021
0.575019
0.575018
0.575016
0.575015
0.575015
0.575014
0.575012
0.575011
0.575009
0.575009
0.575008
0.575006
0.575005
0.575003
0.575003
0.575002
0.575
0.574999
0.574997
0.574997
0.574996
0.574994
0.574993
0.574991
0.574991
0.57499
0.574988
0.574987
0.574985
0.574985
0.574984
0.574982
0.57498
0.574979
0.574979
0.574977
0.574976
0.574974
0.574972
0.574972
0.574971
0.574969
0.574968
0.574966
0.574966
0.574964
0.574963
0.574961
0.574959
0.574959
0.574958
0.574956
0.574954
0.574953
0.574953
0.574951
0.574949
0.574948
0.574946
0.574946
0.574944
0.574942
0.574941
0.574939
0.574939
0.574937
0.574936
0.574934
0.574932
0.574932
0.57493
0.574928
0.574927
0.574925
0.574925
0.574923
0.574921
0.57492
0.574918
0.574918
0.574916
0.574914
0.574912
0.57491
0.57491
0.574909
0.574907
0.574905
0.574903
0.574903
0.574901
0.574899
0.574898
0.574896
0.574896
0.574894
0.574892
0.57489
0.574888
0.574888
0.574886
0.574884
0.574882
0.57488
0.57488
0.574879
0.574877
0.574875
0.574873
0.574873
0.574871
0.574869
0.574867
0.574865
0.574865
0.574863
0.574861
0.574859
0.574857
0.574857
0.574855
0.574853
0.574851
0.574849
0.574849
0.574847
0.574845
0.574843
0.574841
0.574841
0.574839
0.574837
0.574835
0.574833
0.574833
0.574831
0.574829
0.574826
0.574824
0.574824
0.574822
0.57482
0.574818
0.574816
0.574816
0.574814
0.574812
0.57481
0.574808
0.574808
0.574805
0.574803
0.574801
0.574799
0.574799
0.574797
0.574795
0.574793
0.57479
0.57479
0.574788
0.574786
0.574784
0.574782
0.574782
0.57478
0.574777
0.574775
0.574773
0.574773
0.574771
0.574768
0.574766
0.574764
0.574764
0.574762
0.57476
0.574757
0.574755
0.574755
0.574753
0.574751
0.574748
0.574746
0.574746
0.574744
0.574741
0.574739
0.574737
0.574737
0.574735
0.574732
0.57473
0.574728
0.574728
0.574725
0.574723
0.574721
0.574718
0.574718
0.574716
0.574714
0.574711
0.574709
0.574709
0.574707
0.574704
0.574702
0.5747
0.5747
0.574697
0.574695
0.574692
0.57469
0.57469
0.574688
0.574685
0.574683
0.57468
0.57468
0.574678
0.574676
0.574673
0.574671
0.574671
0.574668
0.574666
0.574663
0.574661
0.574661
0.574659
0.574656
0.574654
0.574651
0.574651
0.574649
0.574646
0.574644
0.574641
0.574641
0.574639
0.574636
0.574634
0.574631
0.574631
0.574629
0.574626
0.574624
0.574621
0.574621
0.574619
0.574616
0.574614
0.574611
0.574611
0.574609
0.574606
0.574603
0.574601
0.574601
0.574598
0.574596
0.574593
0.574591
0.574591
0.574588
0.574585
0.574583
0.57458
0.57458
0.574578
0.574575
0.574573
0.57457
0.57457
0.574567
0.574565
0.574562
0.574559
0.574559
0.574557
0.574554
0.574552
0.574549
0.574549
0.574546
0.574544
0.574541
0.574538
0.574538
0.574536
0.574533
0.57453
0.574528
0.574528
0.574525
0.574522
0.57452
0.574517
0.574517
0.574514
0.574511
0.574509
0.574506
0.574506
0.574503
0.574501
0.574498
0.574495
0.574495
0.574492
0.57449
0.574487
0.574484
0.574484
0.574481
0.574479
0.574476
0.574473
0.574473
0.57447
0.574468
0.574465
0.574462
0.574462
0.574459
0.574457
0.574454
0.574451
0.574451
0.574448
0.574445
0.574443
0.57444
0.57444
0.574437
0.574434
0.574431
0.574429
0.574429
0.574426
0.574423
0.57442
0.574417
0.574417
0.574414
0.574412
0.574409
0.574406
0.574406
0.574403
0.5744
0.574397
0.574394
0.574394
0.574392
0.574389
0.574386
0.574383
0.574383
0.57438
0.574377
0.574374
0.574371
0.574371
0.574369
0.574366
0.574363
0.57436
0.57436
0.574357
0.574354
0.574351
0.574348
0.574348
0.574345
0.574342
0.574339
0.574336
0.574336
0.574334
0.574331
0.574328
0.574325
0.574325
0.574322
0.574319
0.574316
0.574313
0.574313
0.57431
0.574307
0.574304
0.574301
0.574301
0.574298
0.574295
0.574292
0.574289
0.574289
0.574286
0.574283
0.57428
0.574277
0.574277
0.574274
0.574271
0.574268
0.574265
0.574265
0.574262
0.574259
0.574256
0.574253
0.574253
0.57425
0.574247
0.574244
0.574241
0.574241
0.574238
0.574235
0.574232
0.574229
0.574229
0.574226
0.574223
0.57422
0.574217
0.574217
0.574214
0.574211
0.574207
0.574204
0.574204
0.574201
0.574198
0.574195
0.574192
0.574192
0.574189
0.574186
0.574183
0.57418
0.57418
0.574177
0.574174
0.57417
0.574167
0.574167
0.574164
0.574161
0.574158
0.574155
0.574155
0.574152
0.574149
0.574146
0.574143
0.574143
0.574139
0.574136
0.574133
0.57413
0.57413
0.574127
0.574124
0.574121
0.574118
0.574118
0.574114
0.574111
0.574108
0.574105
0.574105
0.574102
0.574099
0.574095
0.574092
0.574092
0.574089
0.574086
0.574083
0.57408
0.57408
0.574077
0.574073
0.57407
0.574067
0.574067
0.574064
0.574061
0.574058
0.574054
0.574054
0.574051
0.574048
0.574045
0.574042
0.574042
0.574038
0.574035
0.574032
0.574029
0.574029
0.574026
0.574022
0.574019
0.574016
0.574016
0.574013
0.57401
0.574006
0.574003
0.574003
0.574
0.573997
0.573994
0.57399
0.57399
0.573987
0.573984
0.573981
0.573977
0.573977
0.573974
0.573971
0.573968
0.573965
0.573965
0.573961
0.573958
0.573955
0.573952
0.573952
0.573948
0.573945
0.573942
0.573939
0.573939
0.573935
0.573932
0.573929
0.573926
0.573926
0.573922
0.573919
0.573916
0.573913
0.573913
0.573909
0.573906
0.573903
0.5739
0.5739
0.573896
0.573893
0.57389
0.573886
0.573886
0.573883
0.57388
0.573877
0.573873
0.573873
0.57387
0.573867
0.573864
0.57386
0.57386
0.573857
0.573854
0.57385
0.573847
0.573847
0.573844
0.573841
0.573837
0.573834
0.573834
0.573831
0.573827
0.573824
0.573821
0.573821
0.573818
0.573814
0.573811
0.573808
0.573808
0.573804
0.573801
0.573798
0.573795
0.573795
0.573791
0.573788
0.573785
0.573781
0.573781
0.573778
0.573775
0.573771
0.573768
0.573768
0.573765
0.573762
0.573758
0.573755
0.573755
0.573752
0.573748
0.573745
0.573742
0.573742
0.573738
0.573735
0.573732
0.573729
0.573729
0.573725
0.573722
0.573719
0.573715
0.573715
0.573712
0.573709
0.573705
0.573702
0.573702
0.573699
0.573695
0.573692
0.573689
0.573689
0.573685
0.573682
0.573679
0.573676
0.573676
0.573672
0.573669
0.573666
0.573662
0.573662
0.573659
0.573656
0.573652
0.573649
0.573649
0.573646
0.573642
0.573639
0.573636
0.573636
0.573632
0.573629
0.573626
0.573622
0.573622
0.573619
0.573616
0.573613
0.573609
0.573609
0.573606
0.573603
0.573599
0.573596
0.573596
0.573593
0.573589
0.573586
0.573583
0.573583
0.573579
0.573576
0.573573
0.573569
0.573569
0.573566
0.573563
0.57356
0.573556
0.573556
0.573553
0.57355
0.573546
0.573543
0.573543
0.57354
0.573536
0.573533
0.57353
0.57353
0.573526
0.573523
0.57352
0.573517
0.573517
0.573513
0.57351
0.573507
0.573503
0.573503
0.5735
0.573497
0.573493
0.57349
0.57349
0.573487
0.573484
0.57348
0.573477
0.573477
0.573474
0.57347
0.573467
0.573464
0.573464
0.573461
0.573457
0.573454
0.573451
0.573451
0.573447
0.573444
0.573441
0.573438
0.573438
0.573434
0.573431
0.573428
0.573424
0.573424
0.573421
0.573418
0.573415
0.573411
0.573411
0.573408
0.573405
0.573402
0.573398
0.573398
0.573395
0.573392
0.573388
0.573385
0.573385
0.573382
0.573379
0.573375
0.573372
0.573372
0.573369
0.573366
0.573362
0.573359
0.573359
0.573356
0.573353
0.573349
0.573346
0.573346
0.573343
0.57334
0.573337
0.573333
0.573333
0.57333
0.573327
0.573324
0.57332
0.57332
0.573317
0.573314
0.573311
0.573307
0.573307
0.573304
0.573301
0.573298
0.573295
0.573295
0.573291
0.573288
0.573285
0.573282
0.573282
0.573279
0.573275
0.573272
0.573269
0.573269
0.573266
0.573263
0.573259
0.573256
0.573256
0.573253
0.57325
0.573247
0.573244
0.573244
0.57324
0.573237
0.573234
0.573231
0.573231
0.573228
0.573225
0.573221
0.573218
0.573218
0.573215
0.573212
0.573209
0.573206
0.573206
0.573202
0.573199
0.573196
0.573193
0.573193
0.57319
0.573187
0.573184
0.573181
0.573181
0.573177
0.573174
0.573171
0.573168
0.573168
0.573165
0.573162
0.573159
0.573156
0.573156
0.573153
0.573149
0.573146
0.573143
0.573143
0.57314
0.573137
0.573134
0.573131
0.573131
0.573128
0.573124
0.573121
0.573118
0.573118
0.573114
0.573111
0.573108
0.573104
0.573104
0.573101
0.573098
0.573094
0.573091
0.573091
0.573087
0.573083
0.57308
0.573076
0.573076
0.573073
0.573069
0.573065
0.573062
0.573062
0.573058
0.573055
0.573051
0.573048
0.573048
0.573044
0.57304
0.573037
0.573033
0.573033
0.57303
0.573026
0.573023
0.573019
0.573019
0.573016
0.573012
0.573008
0.573005
0.573005
0.573001
0.572998
0.572994
0.572991
0.572991
0.572987
0.572984
0.57298
0.572977
0.572977
0.572973
0.572969
0.572966
0.572962
0.572962
0.572959
0.572955
0.572952
0.572948
0.572948
0.572945
0.572941
0.572938
0.572934
0.572934
0.572931
0.572927
0.572924
0.57292
0.57292
0.572917
0.572913
0.57291
0.572906
0.572906
0.572903
0.572899
0.572896
0.572892
0.572892
0.572889
0.572885
0.572882
0.572878
0.572878
0.572875
0.572871
0.572868
0.572864
0.572864
0.572861
0.572857
0.572854
0.57285
0.57285
0.572847
0.572843
0.57284
0.572836
0.572836
0.572833
0.572829
0.572826
0.572822
0.572822
0.572819
0.572816
0.572812
0.572809
0.572809
0.572805
0.572802
0.572798
0.572795
0.572795
0.572791
0.572788
0.572784
0.572781
0.572781
0.572778
0.572774
0.572771
0.572767
0.572767
0.572764
0.57276
0.572757
0.572753
0.572753
0.57275
0.572747
0.572743
0.57274
0.57274
0.572736
0.572733
0.572729
0.572726
0.572726
0.572723
0.572719
0.572716
0.572712
0.572712
0.572709
0.572706
0.572702
0.572699
0.572699
0.572695
0.572692
0.572688
0.572685
0.572685
0.572682
0.572678
0.572675
0.572671
0.572671
0.572668
0.572665
0.572661
0.572658
0.572658
0.572654
0.572651
0.572648
0.572644
0.572644
0.572641
0.572638
0.572634
0.572631
0.572631
0.572627
0.572624
0.572621
0.572617
0.572617
0.572614
0.572611
0.572607
0.572604
0.572604
0.5726
0.572597
0.572594
0.57259
0.57259
0.572587
0.572584
0.57258
0.572577
0.572577
0.572574
0.57257
0.572567
0.572564
0.572564
0.57256
0.572557
0.572554
0.57255
0.57255
0.572547
0.572544
0.57254
0.572537
0.572537
0.572534
0.57253
0.572527
0.572524
0.572524
0.57252
0.572517
0.572514
0.57251
0.57251
0.572507
0.572504
0.5725
0.572497
0.572497
0.572494
0.57249
0.572487
0.572484
0.572484
0.57248
0.572477
0.572474
0.572471
0.572471
0.572467
0.572464
0.572461
0.572457
0.572457
0.572454
0.572451
0.572447
0.572444
0.572444
0.572441
0.572438
0.572434
0.572431
0.572431
0.572428
0.572424
0.572421
0.572418
0.572418
0.572415
0.572411
0.572408
0.572405
0.572405
0.572402
0.572398
0.572395
0.572392
0.572392
0.572389
0.572385
0.572382
0.572379
0.572379
0.572375
0.572372
0.572369
0.572366
0.572366
0.572362
0.572359
0.572356
0.572353
0.572353
0.57235
0.572346
0.572343
0.57234
0.57234
0.572337
0.572333
0.57233
0.572327
0.572327
0.572324
0.57232
0.572317
0.572314
0.572314
0.572311
0.572308
0.572304
0.572301
0.572301
0.572298
0.572295
0.572291
0.572288
0.572288
0.572285
0.572282
0.572279
0.572275
0.572275
0.572272
0.572269
0.572266
0.572263
0.572263
0.572259
0.572256
0.572253
0.57225
0.57225
0.572247
0.572244
0.57224
0.572237
0.572237
0.572234
0.572231
0.572228
0.572224
0.572224
0.572221
0.572218
0.572215
0.572212
0.572212
0.572209
0.572205
0.572202
0.572199
0.572199
0.572196
0.572193
0.57219
0.572186
0.572186
0.572183
0.57218
0.572177
0.572174
0.572174
0.572171
0.572168
0.572164
0.572161
0.572161
0.572158
0.572155
0.572152
0.572149
0.572149
0.572146
0.572143
0.572139
0.572136
0.572136
0.572133
0.57213
0.572127
0.572124
0.572124
0.572121
0.572118
0.572114
0.572111
0.572111
0.572108
0.572105
0.572102
0.572099
0.572099
0.572096
0.572093
0.57209
0.572087
0.572087
0.572083
0.57208
0.572077
0.572074
0.572074
0.572071
0.572068
0.572065
0.572062
0.572062
0.572059
0.572056
0.572053
0.57205
0.57205
0.572047
0.572043
0.57204
0.572037
0.572037
0.572034
0.572031
0.572028
0.572025
0.572025
0.572022
0.572019
0.572016
0.572013
0.572013
0.57201
0.572007
0.572004
0.572001
0.572001
0.571998
0.571995
0.571992
0.571989
0.571989
0.571986
0.571982
0.571979
0.571976
0.571976
0.571973
0.57197
0.571967
0.571964
0.571964
0.571961
0.571958
0.571955
0.571952
0.571952
0.571949
0.571946
0.571943
0.57194
0.57194
0.571937
0.571934
0.571931
0.571928
0.571928
0.571925
0.571922
0.571919
0.571916
0.571916
0.571913
0.57191
0.571907
0.571904
0.571904
0.571901
0.571898
0.571895
0.571893
0.571893
0.57189
0.571887
0.571884
0.571881
0.571881
0.571878
0.571875
0.571872
0.571869
0.571869
0.571866
0.571863
0.57186
0.571857
0.571857
0.571854
0.571851
0.571848
0.571845
0.571845
0.571842
0.571839
0.571836
0.571834
0.571834
0.571831
0.571828
0.571825
0.571822
0.571822
0.571819
0.571816
0.571813
0.57181
0.57181
0.571807
0.571804
0.571801
0.571799
0.571799
0.571796
0.571793
0.57179
0.571787
0.571787
0.571784
0.571781
0.571778
0.571775
0.571775
0.571773
0.57177
0.571767
0.571764
0.571764
0.571761
0.571758
0.571755
0.571752
0.571752
0.57175
0.571747
0.571744
0.571741
0.571741
0.571738
0.571735
0.571732
0.57173
0.57173
0.571727
0.571724
0.571721
0.571718
0.571718
0.571715
0.571712
0.57171
0.571707
0.571707
0.571704
0.571701
0.571698
0.571696
0.571696
0.571693
0.57169
0.571687
0.571684
0.571684
0.571681
0.571679
0.571676
0.571673
0.571673
0.57167
0.571667
0.571665
0.571662
0.571662
0.571659
0.571656
0.571653
0.571651
0.571651
0.571648
0.571645
0.571642
0.57164
0.57164
0.571637
0.571634
0.571631
0.571628
0.571628
0.571626
0.571623
0.57162
0.571617
0.571617
0.571615
0.571612
0.571609
0.571606
0.571606
0.571604
0.571601
0.571598
0.571596
0.571596
0.571594
0.571592
0.57159
0.571588
0.571588
0.571587
0.571585
0.571583
0.571582
0.571582
0.57158
0.571579
0.571577
0.571575
0.571575
0.571574
0.571572
0.57157
0.571569
0.571569
0.571567
0.571565
0.571564
0.571562
0.571562
0.571561
0.571559
0.571557
0.571556
0.571556
0.571554
0.571552
0.571551
0.571549
0.571549
0.571548
0.571546
0.571544
0.571543
0.571543
0.571541
0.57154
0.571538
0.571536
0.571536
0.571535
0.571533
0.571532
0.57153
0.57153
0.571529
0.571527
0.571525
0.571524
0.571524
0.571522
0.571521
0.571519
0.571518
0.571518
0.571516
0.571515
0.571513
0.571512
0.571512
0.57151
0.571508
0.571507
0.571505
0.571505
0.571504
0.571502
0.571501
0.571499
0.571499
0.571498
0.571496
0.571495
0.571493
0.571493
0.571492
0.57149
0.571489
0.571487
0.571487
0.571486
0.571484
0.571483
0.571481
0.571481
0.57148
0.571478
0.571477
0.571476
0.571476
0.571474
0.571473
0.571471
0.57147
0.57147
0.571468
0.571467
0.571465
0.571464
0.571464
0.571462
0.571461
0.571459
0.571458
0.571458
0.571457
0.571455
0.571454
0.571452
0.571452
0.571451
0.571449
0.571448
0.571447
0.571447
0.571445
0.571444
0.571442
0.571441
0.571441
0.57144
0.571438
0.571437
0.571435
0.571435
0.571434
0.571433
0.571431
0.57143
0.57143
0.571428
0.571427
0.571426
0.571424
0.571424
0.571423
0.571422
0.57142
0.571419
0.571419
0.571417
0.571416
0.571415
0.571413
0.571413
0.571412
0.571411
0.571409
0.571408
0.571408
0.571407
0.571405
0.571404
0.571403
0.571403
0.571401
0.5714
0.571399
0.571397
0.571397
0.571396
0.571395
0.571393
0.571392
0.571392
0.571391
0.571389
0.571388
0.571387
0.571387
0.571386
0.571384
0.571383
0.571382
0.571382
0.57138
0.571379
0.571378
0.571377
0.571377
0.571375
0.571374
0.571373
0.571371
0.571371
0.57137
0.571369
0.571368
0.571366
0.571366
0.571365
0.571364
0.571363
0.571361
0.571361
0.57136
0.571359
0.571358
0.571356
0.571356
0.571355
0.571354
0.571353
0.571351
0.571351
0.57135
0.571349
0.571348
0.571346
0.571346
0.571345
0.571344
0.571343
0.571342
0.571342
0.57134
0.571339
0.571338
0.571337
0.571337
0.571336
0.571334
0.571333
0.571332
0.571332
0.571331
0.57133
0.571328
0.571327
0.571327
0.571326
0.571325
0.571324
0.571322
0.571322
0.571321
0.57132
0.571319
0.571318
0.571318
0.571317
0.571315
0.571314
0.571313
0.571313
0.571312
0.571311
0.57131
0.571308
0.571308
0.571307
0.571306
0.571305
0.571304
0.571304
0.571303
0.571302
0.571301
0.571299
0.571299
0.571298
0.571297
0.571296
0.571295
0.571295
0.571294
0.571293
0.571292
0.57129
0.57129
0.571289
0.571288
0.571287
0.571286
0.571286
0.571285
0.571284
0.571283
0.571282
0.571282
0.57128
0.571279
0.571278
0.571277
0.571277
0.571276
0.571275
0.571274
0.571273
0.571273
0.571272
0.571271
0.57127
0.571269
0.571269
0.571268
0.571266
0.571265
0.571264
0.571264
0.571263
0.571262
0.571261
0.57126
0.57126
0.571259
0.571258
0.571257
0.571256
0.571256
0.571255
0.571254
0.571253
0.571252
0.571252
0.571251
0.57125
0.571249
0.571248
0.571248
0.571247
0.571246
0.571245
0.571244
0.571244
0.571243
0.571242
0.571241
0.57124
0.57124
0.571239
0.571237
0.571236
0.571235
0.571235
0.571234
0.571233
0.571232
0.571232
0.571232
0.571231
0.57123
0.571229
0.571228
0.571228
0.571227
0.571226
0.571225
0.571224
0.571224
0.571223
0.571222
0.571221
0.57122
0.57122
0.571219
0.571218
0.571217
0.571216
0.571216
0.571215
0.571214
0.571213
0.571212
0.571212
0.571211
0.57121
0.571209
0.571208
0.571208
0.571207
0.571206
0.571205
0.571204
0.571204
0.571204
0.571203
0.571202
0.571201
0.571201
0.5712
0.571199
0.571198
0.571197
0.571197
0.571196
0.571195
0.571194
0.571193
0.571193
0.571192
0.571192
0.571191
0.57119
0.57119
0.571189
0.571188
0.571187
0.571186
0.571186
0.571185
0.571184
0.571183
0.571183
0.571183
0.571182
0.571181
0.57118
0.571179
0.571179
0.571178
0.571177
0.571176
0.571175
0.571175
0.571175
0.571174
0.571173
0.571172
0.571172
0.571171
0.57117
0.571169
0.571168
0.571168
0.571168
0.571167
0.571166
0.571165
0.571165
0.571164
0.571163
0.571162
0.571162
0.571162
0.571161
0.57116
0.571159
0.571158
0.571158
0.571157
0.571157
0.571156
0.571155
0.571155
0.571154
0.571153
0.571152
0.571152
0.571152
0.571151
0.57115
0.571149
0.571148
0.571148
0.571147
0.571147
0.571146
0.571145
0.571145
0.571144
0.571143
0.571142
0.571142
0.571142
0.571141
0.57114
0.571139
0.571138
0.571138
0.571138
0.571137
0.571136
0.571135
0.571135
0.571135
0.571134
0.571134
0.571133
0.571133
0.571133
0.571133
0.571132
0.571132
0.571132
0.571132
0.571131
0.571131
0.571131
0.571131
0.57113
0.57113
0.571129
0.571129
0.571129
0.571129
0.571128
0.571128
0.571128
0.571128
0.571127
0.571127
0.571127
0.571126
0.571126
0.571126
0.571126
0.571125
0.571125
0.571125
0.571125
0.571125
0.571124
0.571124
0.571124
0.571124
0.571123
0.571123
0.571123
0.571123
0.571122
0.571122
0.571122
0.571121
0.571121
0.571121
0.571121
0.571121
0.57112
0.57112
0.57112
0.57112
0.571119
0.571119
0.571119
0.571119
0.571119
0.571118
0.571118
0.571118
0.571118
0.571117
0.571117
0.571117
0.571117
0.571117
0.571116
0.571116
0.571116
0.571116
0.571116
0.571115
0.571115
0.571115
0.571115
0.571115
0.571114
0.571114
0.571114
0.571114
0.571114
0.571113
0.571113
0.571113
0.571113
0.571113
0.571113
0.571112
0.571112
0.571112
0.571112
0.571112
0.571111
0.571111
0.571111
0.571111
0.571111
0.571111
0.57111
0.57111
0.57111
0.57111
0.57111
0.57111
0.57111
0.571109
0.571109
0.571109
0.571109
0.571109
0.571109
0.571108
0.571108
0.571108
0.571108
0.571108
0.571108
0.571107
0.571107
0.571107
0.571107
0.571107
0.571107
0.571107
0.571107
0.571106
0.571106
0.571106
0.571106
0.571106
0.571106
0.571106
0.571105
0.571105
0.571105
0.571105
0.571105
0.571105
0.571105
0.571105
0.571105
0.571104
0.571104
0.571104
0.571104
0.571104
0.571104
0.571104
0.571104
0.571104
0.571103
0.571103
0.571103
0.571103
0.571103
0.571103
0.571103
0.571103
0.571103
0.571103
0.571102
0.571102
0.571102
0.571102
0.571102
0.571102
0.571102
0.571102
0.571102
0.571102
0.571102
0.571102
0.571101
0.571101
0.571101
0.571101
0.571101
0.571101
0.571101
0.571101
0.571101
0.571101
0.571101
0.571101
0.571101
0.571101
0.571101
0.5711
0.5711
0.5711
0.5711
0.5711
0.5711
0.5711
0.5711
0.5711
0.5711
0.5711
0.5711
0.5711
0.5711
0.5711
0.5711
0.5711
0.5711
0.5711
0.5711
0.5711
0.5711
0.5711
0.571099
0.571099
0.571099
0.571099
0.571099
0.571099
0.571099
0.571099
0.571099
0.571099
0.571099
0.571099
0.571099
0.571099
0.571099
0.571099
0.571099
0.571099
0.571099
0.571099
0.571099
0.571099
0.571099
0.571099
0.571099
0.571099
0.571099
0.571099
0.571099
0.571099
0.571099
0.571099
0.571099
0.571099
0.571099
0.571099
0.571099
0.571099
0.571099
0.571099
0.571099
0.571099
0.571099
0.571099
0.571099
0.571099
0.571099
0.571099
0.571099
0.571099
0.571099
0.5711
0.5711
0.5711
0.5711
0.5711
0.5711
0.5711
0.5711
0.5711
0.5711
0.5711
0.5711
0.5711
0.5711
0.5711
0.5711
0.5711
0.5711
0.5711
0.5711
0.5711
0.5711
0.5711
0.5711
0.571101
0.571101
0.571101
0.571101
0.571101
0.571101
0.571101
0.571101
0.571101
0.571101
0.571101
0.571101
0.571101
0.571101
0.571101
0.571102
0.571102
0.571102
0.571102
0.571102
0.571102
0.571102
0.571102
0.571102
0.571102
0.571102
0.571102
0.571103
0.571103
0.571103
0.571103
0.571103
0.571103
0.571103
0.571103
0.571103
0.571103
0.571103
0.571104
0.571104
0.571104
0.571104
0.571104
0.571104
0.571104
0.571104
0.571104
0.571105
0.571105
0.571105
0.571105
0.571105
0.571105
0.571105
0.571105
0.571105
0.571106
0.571106
0.571106
0.571106
0.571106
0.571106
0.571106
0.571106
0.571106
0.571107
0.571107
0.571107
0.571107
0.571107
0.571107
0.571107
0.571108
0.571108
0.571108
0.571108
0.571108
0.571108
0.571109
0.571109
0.571109
0.571109
0.571109
0.571109
0.571109
0.571109
0.57111
0.57111
0.57111
0.57111
0.57111
0.57111
0.571111
0.571111
0.571111
0.571111
0.571111
0.571111
0.571112
0.571112
0.571112
0.571112
0.571112
0.571112
0.571112
0.571113
0.571113
0.571113
0.571113
0.571113
0.571114
0.571114
0.571114
0.571114
0.571114
0.571114
0.571115
0.571115
0.571115
0.571115
0.571115
0.571115
0.571116
0.571116
0.571116
0.571116
0.571117
0.571117
0.571117
0.571117
0.571118
0.571118
0.571118
0.571119
0.571119