<?xml version="1.0"?>
<VTKFile type="UnstructuredGrid" version="0.1" byte_order="LittleEndian">
<UnstructuredGrid>
<Piece NumberOfPoints="5000" NumberOfCells="4000">
<PointData Scalars="Reaction 0">
<DataArray type="Float32" Name="Reaction 0" format="ascii">
0.347929
0.347929
0.347929
0.34793
0.34793
0.34793
0.34793
0.34793
0.34793
0.34793
0.34793
0.347931
0.347931
0.347931
0.347932
0.347932
0.347932
0.347932
0.347933
0.347933
0.347933
0.347934
0.347934
0.347935
0.347935
0.347935
0.347936
0.347937
0.347937
0.347938
0.347938
0.347939
0.34794
0.34794
0.347941
0.347941
0.347942
0.347943
0.347944
0.347945
0.347945
0.347946
0.347947
0.347948
0.347949
0.347949
0.34795
0.347951
0.347952
0.347954
0.347954
0.347955
0.347956
0.347957
0.347959
0.347959
0.34796
0.347961
0.347963
0.347964
0.347964
0.347966
0.347967
0.347969
0.34797
0.34797
0.347972
0.347973
0.347975
0.347977
0.347977
0.347978
0.34798
0.347982
0.347984
0.347984
0.347986
0.347987
0.347989
0.347991
0.347991
0.347993
0.347995
0.347997
0.347999
0.347999
0.348001
0.348003
0.348005
0.348008
0.348008
0.34801
0.348012
0.348014
0.348017
0.348017
0.348019
0.348021
0.348024
0.348026
0.348026
0.348028
0.348031
0.348033
0.348036
0.348036
0.348038
0.348041
0.348044
0.348046
0.348046
0.348049
0.348052
0.348054
0.348057
0.348057
0.34806
0.348063
0.348066
0.348068
0.348068
0.348071
0.348074
0.348077
0.34808
0.34808
0.348083
0.348086
0.348089
0.348093
0.348093
0.348096
0.348099
0.348102
0.348105
0.348105
0.348109
0.348112
0.348115
0.348119
0.348119
0.348122
0.348125
0.348129
0.348132
0.348132
0.348136
0.348139
0.348143
0.348147
0.348147
0.34815
0.348154
0.348158
0.348161
0.348161
0.348165
0.348169
0.348173
0.348176
0.348176
0.34818
0.348184
0.348188
0.348192
0.348192
0.348196
0.3482
0.348204
0.348208
0.348208
0.348212
0.348217
0.348221
0.348225
0.348225
0.348229
0.348233
0.348238
0.348242
0.348242
0.348246
0.348251
0.348255
0.34826
0.34826
0.348264
0.348269
0.348273
0.348278
0.348278
0.348282
0.348287
0.348292
0.348296
0.348296
0.348301
0.348306
0.348311
0.348315
0.348315
0.34832
0.348325
0.34833
0.348335
0.348335
0.34834
0.348345
0.34835
0.348355
0.348355
0.34836
0.348365
0.34837
0.348376
0.348376
0.348381
0.348386
0.348391
0.348397
0.348397
0.348402
0.348407
0.348413
0.348418
0.348418
0.348423
0.348429
0.348434
0.34844
0.34844
0.348445
0.348451
0.348457
0.348462
0.348462
0.348468
0.348474
0.34848
0.348485
0.348485
0.348491
0.348497
0.348503
0.348509
0.348509
0.348515
0.348521
0.348527
0.348533
0.348533
0.348539
0.348545
0.348551
0.348557
0.348557
0.348563
0.348569
0.348576
0.348582
0.348582
0.348588
0.348594
0.348601
0.348607
0.348607
0.348614
0.34862
0.348626
0.348633
0.348633
0.348639
0.348646
0.348653
0.348659
0.348659
0.348666
0.348673
0.348679
0.348686
0.348686
0.348693
0.3487
0.348706
0.348713
0.348713
0.34872
0.348727
0.348734
0.348741
0.348741
0.348748
0.348755
0.348762
0.348769
0.348769
0.348776
0.348783
0.348791
0.348798
0.348798
0.348805
0.348812
0.34882
0.348827
0.348827
0.348834
0.348842
0.348849
0.348857
0.348857
0.348864
0.348872
0.348879
0.348887
0.348887
0.348894
0.348902
0.34891
0.348918
0.348918
0.348925
0.348933
0.348941
0.348949
0.348949
0.348956
0.348964
0.348972
0.34898
0.34898
0.348988
0.348996
0.349004
0.349012
0.349012
0.34902
0.349029
0.349037
0.349045
0.349045
0.349053
0.349061
0.34907
0.349078
0.349078
0.349086
0.349095
0.349103
0.349111
0.349111
0.34912
0.349128
0.349137
0.349145
0.349145
0.349154
0.349163
0.349171
0.34918
0.34918
0.349189
0.349197
0.349206
0.349215
0.349215
0.349224
0.349233
0.349241
0.34925
0.34925
0.349259
0.349268
0.349277
0.349286
0.349286
0.349295
0.349304
0.349314
0.349323
0.349323
0.349332
0.349341
0.34935
0.34936
0.34936
0.349369
0.349378
0.349388
0.349397
0.349397
0.349406
0.349416
0.349425
0.349435
0.349435
0.349444
0.349454
0.349463
0.349473
0.349473
0.349483
0.349492
0.349502
0.349512
0.349512
0.349522
0.349532
0.349541
0.349551
0.349551
0.349561
0.349571
0.349581
0.349591
0.349591
0.349601
0.349611
0.349621
0.349631
0.349631
0.349641
0.349652
0.349662
0.349672
0.349672
0.349682
0.349693
0.349703
0.349713
0.349713
0.349724
0.349734
0.349745
0.349755
0.349755
0.349765
0.349776
0.349787
0.349797
0.349797
0.349808
0.349818
0.349829
0.34984
0.34984
0.349851
0.349861
0.349872
0.349883
0.349883
0.349894
0.349905
0.349916
0.349927
0.349927
0.349938
0.349949
0.34996
0.349971
0.349971
0.349982
0.349993
0.350004
0.350015
0.350015
0.350027
0.350038
0.350049
0.35006
0.35006
0.350072
0.350083
0.350095
0.350106
0.350106
0.350117
0.350129
0.35014
0.350152
0.350152
0.350164
0.350175
0.350187
0.350199
0.350199
0.35021
0.350222
0.350234
0.350246
0.350246
0.350257
0.350269
0.350281
0.350293
0.350293
0.350305
0.350317
0.350329
0.350341
0.350341
0.350353
0.350365
0.350377
0.350389
0.350389
0.350402
0.350414
0.350426
0.350438
0.350438
0.350451
0.350463
0.350475
0.350488
0.350488
0.3505
0.350513
0.350525
0.350538
0.350538
0.35055
0.350563
0.350575
0.350588
0.350588
0.350601
0.350613
0.350626
0.350639
0.350639
0.350652
0.350664
0.350677
0.35069
0.35069
0.350703
0.350716
0.350729
0.350742
0.350742
0.350755
0.350768
0.350781
0.350794
0.350794
0.350807
0.350821
0.350834
0.350847
0.350847
0.35086
0.350874
0.350887
0.3509
0.3509
0.350914
0.350927
0.350941
0.350954
0.350954
0.350968
0.350981
0.350995
0.351008
0.351008
0.351022
0.351036
0.351049
0.351063
0.351063
0.351077
0.35109
0.351104
0.351118
0.351118
0.351132
0.351146
0.35116
0.351174
0.351174
0.351188
0.351202
0.351216
0.35123
0.35123
0.351244
0.351258
0.351272
0.351287
0.351287
0.351301
0.351315
0.351329
0.351344
0.351344
0.351358
0.351372
0.351387
0.351401
0.351401
0.351416
0.35143
0.351445
0.351459
0.351459
0.351474
0.351488
0.351503
0.351518
0.351518
0.351533
0.351547
0.351562
0.351577
0.351577
0.351592
0.351607
0.351621
0.351636
0.351636
0.351651
0.351666
0.351681
0.351696
0.351696
0.351711
0.351726
0.351742
0.351757
0.351757
0.351772
0.351787
0.351802
0.351818
0.351818
0.351833
0.351848
0.351864
0.351879
0.351879
0.351895
0.35191
0.351926
0.351941
0.351941
0.351957
0.351972
0.351988
0.352003
0.352003
0.352019
0.352035
0.35205
0.352066
0.352066
0.352082
0.352098
0.352114
0.35213
0.35213
0.352146
0.352161
0.352177
0.352193
0.352193
0.352209
0.352226
0.352242
0.352258
0.352258
0.352274
0.35229
0.352306
0.352322
0.352322
0.352339
0.352355
0.352371
0.352388
0.352388
0.352404
0.352421
0.352437
0.352453
0.352453
0.35247
0.352487
0.352503
0.35252
0.35252
0.352536
0.352553
0.35257
0.352586
0.352586
0.352603
0.35262
0.352637
0.352654
0.352654
0.35267
0.352687
0.352704
0.352721
0.352721
0.352738
0.352755
0.352772
0.352789
0.352789
0.352806
0.352824
0.352841
0.352858
0.352858
0.352875
0.352892
0.35291
0.352927
0.352927
0.352944
0.352962
0.352979
0.352997
0.352997
0.353014
0.353032
0.353049
0.353067
0.353067
0.353084
0.353102
0.35312
0.353137
0.353137
0.353155
0.353173
0.35319
0.353208
0.353208
0.353226
0.353244
0.353262
0.35328
0.35328
0.353298
0.353316
0.353334
0.353352
0.353352
0.35337
0.353388
0.353406
0.353424
0.353424
0.353442
0.353461
0.353479
0.353497
0.353497
0.353515
0.353534
0.353552
0.35357
0.35357
0.353589
0.353607
0.353626
0.353644
0.353644
0.353663
0.353681
0.3537
0.353719
0.353719
0.353737
0.353756
0.353775
0.353794
0.353794
0.353812
0.353831
0.35385
0.353869
0.353869
0.353888
0.353907
0.353926
0.353945
0.353945
0.353964
0.353983
0.354002
0.354021
0.354021
0.35404
0.354059
0.354078
0.354098
0.354098
0.354117
0.354136
0.354156
0.354175
0.354175
0.354194
0.354214
0.354233
0.354253
0.354253
0.354272
0.354292
0.354311
0.354331
0.354331
0.35435
0.35437
0.35439
0.354409
0.354409
0.354429
0.354449
0.354469
0.354489
0.354489
0.354508
0.354528
0.354548
0.354568
0.354568
0.354588
0.354608
0.354628
0.354648
0.354648
0.354668
0.354689
0.354709
0.354729
0.354729
0.354749
0.354769
0.35479
0.35481
0.35481
0.35483
0.354851
0.354871
0.354892
0.354892
0.354912
0.354932
0.354953
0.354974
0.354974
0.354994
0.355015
0.355035
0.355056
0.355056
0.355077
0.355097
0.355118
0.355139
0.355139
0.35516
0.355181
0.355202
0.355222
0.355222
0.355243
0.355264
0.355285
0.355306
0.355306
0.355327
0.355348
0.35537
0.355391
0.355391
0.355412
0.355433
0.355454
0.355476
0.355476
0.355497
0.355518
0.35554
0.355561
0.355561
0.355582
0.355604
0.355625
0.355647
0.355647
0.355668
0.35569
0.355712
0.355733
0.355733
0.355755
0.355776
0.355798
0.35582
0.35582
0.355842
0.355864
0.355885
0.355907
0.355907
0.355929
0.355951
0.355973
0.355995
0.355995
0.356017
0.356039
0.356061
0.356083
0.356083
0.356105
0.356127
0.35615
0.356172
0.356172
0.356194
0.356216
0.356239
0.356261
0.356261
0.356283
0.356306
0.356328
0.356351
0.356351
0.356373
0.356396
0.356418
0.356441
0.356441
0.356463
0.356486
0.356509
0.356531
0.356531
0.356554
0.356577
0.3566
0.356623
0.356623
0.356645
0.356668
0.356691
0.356714
0.356714
0.356737
0.35676
0.356783
0.356806
0.356806
0.356829
0.356852
0.356875
0.356899
0.356899
0.356922
0.356945
0.356968
0.356992
0.356992
0.357015
0.357038
0.357062
0.357085
0.357085
0.357109
0.357132
0.357155
0.357179
0.357179
0.357203
0.357226
0.35725
0.357273
0.357273
0.357297
0.357321
0.357345
0.357368
0.357368
0.357392
0.357416
0.35744
0.357464
0.357464
0.357488
0.357512
0.357536
0.35756
0.35756
0.357584
0.357608
0.357632
0.357656
0.357656
0.35768
0.357704
0.357728
0.357753
0.357753
0.357777
0.357801
0.357826
0.35785
0.35785
0.357874
0.357899
0.357923
0.357948
0.357948
0.357972
0.357997
0.358021
0.358046
0.358046
0.358071
0.358095
0.35812
0.358145
0.358145
0.358169
0.358194
0.358219
0.358244
0.358244
0.358269
0.358294
0.358319
0.358343
0.358343
0.358368
0.358393
0.358419
0.358444
0.358444
0.358469
0.358494
0.358519
0.358544
0.358544
0.358569
0.358595
0.35862
0.358645
0.358645
0.358671
0.358696
0.358721
0.358747
0.358747
0.358772
0.358798
0.358823
0.358849
0.358849
0.358874
0.3589
0.358926
0.358951
0.358951
0.358977
0.359003
0.359029
0.359054
0.359054
0.35908
0.359106
0.359132
0.359158
0.359158
0.359184
0.35921
0.359236
0.359262
0.359262
0.359288
0.359314
0.35934
0.359366
0.359366
0.359392
0.359419
0.359445
0.359471
0.359471
0.359497
0.359524
0.35955
0.359576
0.359576
0.359603
0.359629
0.359656
0.359682
0.359682
0.359709
0.359735
0.359762
0.359789
0.359789
0.359815
0.359842
0.359869
0.359895
0.359895
0.359922
0.359949
0.359976
0.360003
0.360003
0.36003
0.360056
0.360083
0.36011
0.36011
0.360137
0.360164
0.360191
0.360219
0.360219
0.360246
0.360273
0.3603
0.360327
0.360327
0.360354
0.360382
0.360409
0.360436
0.360436
0.360464
0.360491
0.360519
0.360546
0.360546
0.360574
0.360601
0.360629
0.360656
0.360656
0.360684
0.360711
0.360739
0.360767
0.360767
0.360794
0.360822
0.36085
0.360878
0.360878
0.360906
0.360933
0.360961
0.360989
0.360989
0.361017
0.361045
0.361073
0.361101
0.361101
0.361129
0.361157
0.361186
0.361214
0.361214
0.361242
0.36127
0.361298
0.361327
0.361327
0.361355
0.361383
0.361412
0.36144
0.36144
0.361469
0.361497
0.361526
0.361554
0.361554
0.361583
0.361611
0.36164
0.361668
0.361668
0.361697
0.361726
0.361755
0.361783
0.361783
0.361812
0.361841
0.36187
0.361899
0.361899
0.361927
0.361956
0.361985
0.362014
0.362014
0.362043
0.362072
0.362102
0.362131
0.362131
0.36216
0.362189
0.362218
0.362247
0.362247
0.362277
0.362306
0.362335
0.362365
0.362365
0.362394
0.362423
0.362453
0.362482
0.362482
0.362512
0.362541
0.362571
0.3626
0.3626
0.36263
0.36266
0.362689
0.362719
0.362719
0.362749
0.362779
0.362808
0.362838
0.362838
0.362868
0.362898
0.362928
0.362958
0.362958
0.362988
0.363018
0.363048
0.363078
0.363078
0.363108
0.363138
0.363168
0.363198
0.363198
0.363228
0.363259
0.363289
0.363319
0.363319
0.36335
0.36338
0.36341
0.363441
0.363441
0.363471
0.363502
0.363532
0.363563
0.363563
0.363593
0.363624
0.363654
0.363685
0.363685
0.363716
0.363746
0.363777
0.363808
0.363808
0.363839
0.36387
0.3639
0.363931
0.363931
0.363962
0.363993
0.364024
0.364055
0.364055
0.364086
0.364117
0.364148
0.364179
0.364179
0.364211
0.364242
0.364273
0.364304
0.364304
0.364335
0.364367
0.364398
0.364429
0.364429
0.364461
0.364492
0.364524
0.364555
0.364555
0.364587
0.364618
0.36465
0.364681
0.364681
0.364713
0.364745
0.364776
0.364808
0.364808
0.36484
0.364871
0.364903
0.364935
0.364935
0.364967
0.364999
0.365031
0.365063
0.365063
0.365095
0.365127
0.365159
0.365191
0.365191
0.365223
0.365255
0.365287
0.365319
0.365319
0.365351
0.365384
0.365416
0.365448
0.365448
0.365481
0.365513
0.365545
0.365578
0.365578
0.36561
0.365643
0.365675
0.365708
0.365708
0.36574
0.365773
0.365806
0.365838
0.365838
0.365871
0.365904
0.365936
0.365969
0.365969
0.366002
0.366035
0.366068
0.3661
0.3661
0.366133
0.366166
0.366199
0.366232
0.366232
0.366265
0.366298
0.366331
0.366365
0.366365
0.366398
0.366431
0.366464
0.366497
0.366497
0.366531
0.366564
0.366597
0.366631
0.366631
0.366664
0.366697
0.366731
0.366764
0.366764
0.366798
0.366831
0.366865
0.366898
0.366898
0.366932
0.366966
0.366999
0.367033
0.367033
0.367067
0.367101
0.367134
0.367168
0.367168
0.367202
0.367236
0.36727
0.367304
0.367304
0.367338
0.367372
0.367406
0.36744
0.36744
0.367474
0.367508
0.367542
0.367576
0.367576
0.367611
0.367645
0.367679
0.367713
0.367713
0.367748
0.367782
0.367817
0.367851
0.367851
0.367885
0.36792
0.367954
0.367989
0.367989
0.368023
0.368058
0.368093
0.368127
0.368127
0.368162
0.368197
0.368231
0.368266
0.368266
0.368301
0.368336
0.368371
0.368406
0.368406
0.36844
0.368475
0.36851
0.368545
0.368545
0.36858
0.368615
0.368651
0.368686
0.368686
0.368721
0.368756
0.368791
0.368826
0.368826
0.368862
0.368897
0.368932
0.368968
0.368968
0.369003
0.369038
0.369074
0.369109
0.369109
0.369145
0.36918
0.369216
0.369251
0.369251
0.369287
0.369323
0.369358
0.369394
0.369394
0.36943
0.369466
0.369501
0.369537
0.369537
0.369573
0.369609
0.369645
0.369681
0.369681
0.369717
0.369753
0.369789
0.369825
0.369825
0.369861
0.369897
0.369933
0.369969
0.369969
0.370006
0.370042
0.370078
0.370114
0.370114
0.370151
0.370187
0.370223
0.37026
0.37026
0.370296
0.370333
0.370369
0.370406
0.370406
0.370442
0.370479
0.370515
0.370552
0.370552
0.370589
0.370625
0.370662
0.370699
0.370699
0.370736
0.370772
0.370809
0.370846
0.370846
0.370883
0.37092
0.370957
0.370994
0.370994
0.371031
0.371068
0.371105
0.371142
0.371142
0.371179
0.371217
0.371254
0.371291
0.371291
0.371328
0.371365
0.371403
0.37144
0.37144
0.371477
0.371515
0.371552
0.37159
0.37159
0.371627
0.371665
0.371702
0.37174
0.37174
0.371777
0.371815
0.371853
0.37189
0.37189
0.371928
0.371966
0.372004
0.372041
0.372041
0.372079
0.372117
0.372155
0.372193
0.372193
0.372231
0.372269
0.372307
0.372345
0.372345
0.372383
0.372421
0.372459
0.372497
0.372497
0.372536
0.372574
0.372612
0.37265
0.37265
0.372689
0.372727
0.372765
0.372804
0.372804
0.372842
0.372881
0.372919
0.372958
0.372958
0.372996
0.373035
0.373073
0.373112
0.373112
0.373151
0.373189
0.373228
0.373267
0.373267
0.373305
0.373344
0.373383
0.373422
0.373422
0.373461
0.3735
0.373539
0.373578
0.373578
0.373617
0.373656
0.373695
0.373734
0.373734
0.373773
0.373812
0.373851
0.37389
0.37389
0.37393
0.373969
0.374008
0.374048
0.374048
0.374087
0.374126
0.374166
0.374205
0.374205
0.374245
0.374284
0.374324
0.374363
0.374363
0.374403
0.374442
0.374482
0.374522
0.374522
0.374561
0.374601
0.374641
0.374681
0.374681
0.37472
0.37476
0.3748
0.37484
0.37484
0.37488
0.37492
0.37496
0.375
0.375
0.37504
0.37508
0.37512
0.37516
0.37516
0.375201
0.375241
0.375281
0.375321
0.375321
0.375361
0.375402
0.375442
0.375482
0.375482
0.375523
0.375563
0.375604
0.375644
0.375644
0.375685
0.375725
0.375766
0.375806
0.375806
0.375847
0.375888
0.375928
0.375969
0.375969
0.37601
0.376051
0.376091
0.376132
0.376132
0.376173
0.376214
0.376255
0.376296
0.376296
0.376337
0.376378
0.376419
0.37646
0.37646
0.376501
0.376542
0.376583
0.376625
0.376625
0.376666
0.376707
0.376748
0.37679
0.37679
0.376831
0.376872
0.376914
0.376955
0.376955
0.376996
0.377038
0.377079
0.377121
0.377121
0.377163
0.377204
0.377246
0.377287
0.377287
0.377329
0.377371
0.377412
0.377454
0.377454
0.377496
0.377538
0.37758
0.377622
0.377622
0.377663
0.377705
0.377747
0.377789
0.377789
0.377831
0.377873
0.377915
0.377958
0.377958
0.378
0.378042
0.378084
0.378126
0.378126
0.378169
0.378211
0.378253
0.378295
0.378295
0.378338
0.37838
0.378423
0.378465
0.378465
0.378508
0.37855
0.378593
0.378635
0.378635
0.378678
0.37872
0.378763
0.378806
0.378806
0.378849
0.378891
0.378934
0.378977
0.378977
0.37902
0.379063
0.379105
0.379148
0.379148
0.379191
0.379234
0.379277
0.37932
0.37932
0.379363
0.379406
0.37945
0.379493
0.379493
0.379536
0.379579
0.379622
0.379666
0.379666
0.379709
0.379752
0.379796
0.379839
0.379839
0.379882
0.379926
0.379969
0.380013
0.380013
0.380056
0.3801
0.380143
0.380187
0.380187
0.380231
0.380274
0.380318
0.380362
0.380362
0.380405
0.380449
0.380493
0.380537
0.380537
0.380581
0.380625
0.380669
0.380713
0.380713
0.380757
0.380801
0.380845
0.380889
0.380889
0.380933
0.380977
0.381021
0.381065
0.381065
0.381109
0.381154
0.381198
0.381242
0.381242
0.381287
0.381331
0.381375
0.38142
0.38142
0.381464
0.381509
0.381553
0.381598
0.381598
0.381642
0.381687
0.381731
0.381776
0.381776
0.381821
0.381865
0.38191
0.381955
0.381955
0.382
0.382045
0.382089
0.382134
0.382134
0.382179
0.382224
0.382269
0.382314
0.382314
0.382359
0.382404
0.382449
0.382494
0.382494
0.382539
0.382585
0.38263
0.382675
0.382675
0.38272
0.382766
0.382811
0.382856
0.382856
0.382902
0.382947
0.382992
0.383038
0.383038
0.383083
0.383129
0.383174
0.38322
0.38322
0.383266
0.383311
0.383357
0.383402
0.383402
0.383448
0.383494
0.38354
0.383586
0.383586
0.383631
0.383677
0.383723
0.383769
0.383769
0.383815
0.383861
0.383907
0.383953
0.383953
0.383999
0.384045
0.384091
0.384137
0.384137
0.384183
0.38423
0.384276
0.384322
0.384322
0.384368
0.384415
0.384461
0.384507
0.384507
0.384554
0.3846
0.384647
0.384693
0.384693
0.38474
0.384786
0.384833
0.384879
0.384879
0.384926
0.384973
0.385019
0.385066
0.385066
0.385113
0.38516
0.385206
0.385253
0.385253
0.3853
0.385347
0.385394
0.385441
0.385441
0.385488
0.385535
0.385582
0.385629
0.385629
0.385676
0.385723
0.38577
0.385817
0.385817
0.385865
0.385912
0.385959
0.386006
0.386006
0.386054
0.386101
0.386148
0.386196
0.386196
0.386243
0.386291
0.386338
0.386386
0.386386
0.386433
0.386481
0.386528
0.386576
0.386576
0.386624
0.386671
0.386719
0.386767
0.386767
0.386815
0.386862
0.38691
0.386958
0.386958
0.387006
0.387054
0.387102
0.38715
0.38715
0.387198
0.387246
0.387294
0.387342
0.387342
0.38739
0.387438
0.387487
0.387535
0.387535
0.387583
0.387631
0.387679
0.387728
0.387728
0.387776
0.387825
0.387873
0.387921
0.387921
0.38797
0.388018
0.388067
0.388115
0.388115
0.388164
0.388213
0.388261
0.38831
0.38831
0.388359
0.388407
0.388456
0.388505
0.388505
0.388554
0.388602
0.388651
0.3887
0.3887
0.388749
0.388798
0.388847
0.388896
0.388896
0.388945
0.388994
0.389043
0.389092
0.389092
0.389141
0.389191
0.38924
0.389289
0.389289
0.389338
0.389388
0.389437
0.389486
0.389486
0.389536
0.389585
0.389634
0.389684
0.389684
0.389733
0.389783
0.389832
0.389882
0.389882
0.389932
0.389981
0.390031
0.390081
0.390081
0.39013
0.39018
0.39023
0.39028
0.39028
0.390329
0.390379
0.390429
0.390479
0.390479
0.390529
0.390579
0.390629
0.390679
0.390679
0.390729
0.390779
0.390829
0.390879
0.390879
0.39093
0.39098
0.39103
0.39108
0.39108
0.39113
0.391181
0.391231
0.391281
0.391281
0.391332
0.391382
0.391433
0.391483
0.391483
0.391534
0.391584
0.391635
0.391685
0.391685
0.391736
0.391787
0.391837
0.391888
0.391888
0.391939
0.39199
0.39204
0.392091
0.392091
0.392142
0.392193
0.392244
0.392295
0.392295
0.392346
0.392397
0.392448
0.392499
0.392499
0.39255
0.392601
0.392652
0.392703
0.392703
0.392754
0.392806
0.392857
0.392908
0.392908
0.39296
0.393011
0.393062
0.393114
0.393114
0.393165
0.393216
0.393268
0.393319
0.393319
0.393371
0.393423
0.393474
0.393526
0.393526
0.393577
0.393629
0.393681
0.393732
0.393732
0.393784
0.393836
0.393888
0.39394
0.39394
0.393992
0.394043
0.394095
0.394147
0.394147
0.394199
0.394251
0.394303
0.394355
0.394355
0.394408
0.39446
0.394512
0.394564
0.394564
0.394616
0.394668
0.394721
0.394773
0.394773
0.394825
0.394878
0.39493
0.394982
0.394982
0.395035
0.395087
0.39514
0.395192
0.395192
0.395245
0.395298
0.39535
0.395403
0.395403
0.395455
0.395508
0.395561
0.395614
0.395614
0.395666
0.395719
0.395772
0.395825
0.395825
0.395878
0.395931
0.395984
0.396037
0.396037
0.39609
0.396143
0.396196
0.396249
0.396249
0.396302
0.396355
0.396408
0.396461
0.396461
0.396515
0.396568
0.396621
0.396674
0.396674
0.396728
0.396781
0.396835
0.396888
0.396888
0.396941
0.396995
0.397048
0.397102
0.397102
0.397156
0.397209
0.397263
0.397316
0.397316
0.39737
0.397424
0.397478
0.397531
0.397531
0.397585
0.397639
0.397693
0.397747
0.397747
0.397801
0.397854
0.397908
0.397962
0.397962
0.398016
0.39807
0.398125
0.398179
0.398179
0.398233
0.398287
0.398341
0.398395
0.398395
0.39845
0.398504
0.398558
0.398612
0.398612
0.398667
0.398721
0.398776
0.39883
0.39883
0.398885
0.398939
0.398994
0.399048
0.399048
0.399103
0.399157
0.399212
0.399267
0.399267
0.399321
0.399376
0.399431
0.399486
0.399486
0.39954
0.399595
0.39965
0.399705
0.399705
0.39976
0.399815
0.39987
0.399925
0.399925
0.39998
0.400035
0.40009
0.400145
0.400145
0.4002
0.400255
0.400311
0.400366
0.400366
0.400421
0.400476
0.400532
0.400587
0.400587
0.400642
0.400698
0.400753
0.400809
0.400809
0.400864
0.40092
0.400975
0.401031
0.401031
0.401086
0.401142
0.401198
0.401253
0.401253
0.401309
0.401365
0.40142
0.401476
0.401476
0.401532
0.401588
0.401644
0.4017
0.4017
0.401756
0.401812
0.401868
0.401924
0.401924
0.40198
0.402036
0.402092
0.402148
0.402148
0.402204
0.40226
0.402316
0.402373
0.402373
0.402429
0.402485
0.402541
0.402598
0.402598
0.402654
0.402711
0.402767
0.402824
0.402824
0.40288
0.402937
0.402993
0.40305
0.40305
0.403106
0.403163
0.40322
0.403276
0.403276
0.403333
0.40339
0.403446
0.403503
0.403503
0.40356
0.403617
0.403674
0.403731
0.403731
0.403788
0.403845
0.403902
0.403959
0.403959
0.404016
0.404073
0.40413
0.404187
0.404187
0.404244
0.404301
0.404359
0.404416
0.404416
0.404473
0.40453
0.404588
0.404645
0.404645
0.404702
0.40476
0.404817
0.404875
0.404875
0.404932
0.40499
0.405047
0.405105
0.405105
0.405162
0.40522
0.405278
0.405335
0.405335
0.405393
0.405451
0.405509
0.405566
0.405566
0.405624
0.405682
0.40574
0.405798
0.405798
0.405856
0.405914
0.405972
0.40603
0.40603
0.406088
0.406146
0.406204
0.406262
0.406262
0.40632
0.406379
0.406437
0.406495
0.406495
0.406553
0.406612
0.40667
0.406728
0.406728
0.406787
0.406845
0.406904
0.406962
0.406962
0.407021
0.407079
0.407138
0.407196
0.407196
0.407255
0.407313
0.407372
0.407431
0.407431
0.40749
0.407548
0.407607
0.407666
0.407666
0.407725
0.407784
0.407842
0.407901
0.407901
0.40796
0.408019
0.408078
0.408137
0.408137
0.408196
0.408255
0.408315
0.408374
0.408374
0.408433
0.408492
0.408551
0.408611
0.408611
0.40867
0.408729
0.408788
0.408848
0.408848
0.408907
0.408967
0.409026
0.409086
0.409086
0.409145
0.409205
0.409264
0.409324
0.409324
0.409383
0.409443
0.409503
0.409562
0.409562
0.409622
0.409682
0.409742
0.409801
0.409801
0.409861
0.409921
0.409981
0.410041
0.410041
0.410101
0.410161
0.410221
0.410281
0.410281
0.410341
0.410401
0.410461
0.410521
0.410521
0.410581
0.410642
0.410702
0.410762
0.410762
0.410822
0.410883
0.410943
0.411003
0.411003
0.411064
0.411124
0.411184
0.411245
0.411245
0.411305
0.411366
0.411427
0.411487
0.411487
0.411548
0.411608
0.411669
0.41173
0.41173
0.41179
0.411851
0.411912
0.411973
0.411973
0.412034
0.412094
0.412155
0.412216
0.412216
0.412277
0.412338
0.412399
0.41246
0.41246
0.412521
0.412582
0.412643
0.412705
0.412705
0.412766
0.412827
0.412888
0.412949
0.412949
0.413011
0.413072
0.413133
0.413195
0.413195
0.413256
0.413317
0.413379
0.41344
0.41344
0.413502
0.413563
0.413625
0.413686
0.413686
0.413748
0.41381
0.413871
0.413933
0.413933
0.413995
0.414056
0.414118
0.41418
0.41418
0.414242
0.414304
0.414366
0.414427
0.414427
0.414489
0.414551
0.414613
0.414675
0.414675
0.414737
0.414799
0.414862
0.414924
0.414924
0.414986
0.415048
0.41511
0.415172
0.415172
0.415235
0.415297
0.415359
0.415422
0.415422
0.415484
0.415546
0.415609
0.415671
0.415671
0.415734
0.415796
0.415859
0.415921
0.415921
0.415984
0.416047
0.416109
0.416172
0.416172
0.416235
0.416297
0.41636
0.416423
0.416423
0.416486
0.416549
0.416612
0.416674
0.416674
0.416737
0.4168
0.416863
0.416926
0.416926
0.416989
0.417052
0.417116
0.417179
0.417179
0.417242
0.417305
0.417368
0.417431
0.417431
0.417495
0.417558
0.417621
0.417685
0.417685
0.417748
0.417811
0.417875
0.417938
0.417938
0.418002
0.418065
0.418129
0.418192
0.418192
0.418256
0.418319
0.418383
0.418447
0.418447
0.41851
0.418574
0.418638
0.418702
0.418702
0.418766
0.418829
0.418893
0.418957
0.418957
0.419021
0.419085
0.419149
0.419213
0.419213
0.419277
0.419341
0.419405
0.419469
0.419469
0.419533
0.419597
0.419662
0.419726
0.419726
0.41979
0.419854
0.419919
0.419983
0.419983
0.420047
0.420112
0.420176
0.420241
0.420241
0.420305
0.42037
0.420434
0.420499
0.420499
0.420563
0.420628
0.420692
0.420757
0.420757
0.420822
0.420886
0.420951
0.421016
0.421016
0.421081
0.421146
0.42121
0.421275
0.421275
0.42134
0.421405
0.42147
0.421535
0.421535
0.4216
0.421665
0.42173
0.421795
0.421795
0.42186
0.421925
0.421991
0.422056
0.422056
0.422121
0.422186
0.422252
0.422317
0.422317
0.422382
0.422448
0.422513
0.422578
0.422578
0.422644
0.422709
0.422775
0.42284
0.42284
0.422906
0.422972
0.423037
0.423103
0.423103
0.423168
0.423234
0.4233
0.423366
0.423366
0.423431
0.423497
0.423563
0.423629
0.423629
0.423695
0.423761
0.423827
0.423893
0.423893
0.423959
0.424025
0.424091
0.424157
0.424157
0.424223
0.424289
0.424355
0.424421
0.424421
0.424487
0.424554
0.42462
0.424686
0.424686
0.424753
0.424819
0.424885
0.424952
0.424952
0.425018
0.425085
0.425151
0.425218
0.425218
0.425284
0.425351
0.425417
0.425484
0.425484
0.425551
0.425617
0.425684
0.425751
0.425751
0.425817
0.425884
0.425951
0.426018
0.426018
0.426085
0.426152
0.426219
0.426285
0.426285
0.426352
0.426419
0.426486
0.426554
0.426554
0.426621
0.426688
0.426755
0.426822
0.426822
0.426889
0.426956
0.427024
0.427091
0.427091
0.427158
0.427226
0.427293
0.42736
0.42736
0.427428
0.427495
0.427563
0.42763
0.42763
0.427698
0.427765
0.427833
0.4279
0.4279
0.427968
0.428036
0.428103
0.428171
0.428171
0.428239
0.428306
0.428374
0.428442
0.428442
0.42851
0.428578
0.428646
0.428714
0.428714
0.428782
0.42885
0.428918
0.428986
0.428986
0.429054
0.429122
0.42919
0.429258
0.429258
0.429326
0.429394
0.429463
0.429531
0.429531
0.429599
0.429667
0.429736
0.429804
0.429804
0.429872
0.429941
0.430009
0.430078
0.430078
0.430146
0.430215
0.430283
0.430352
0.430352
0.43042
0.430489
0.430558
0.430626
0.430626
0.430695
0.430764
0.430833
0.430901
0.430901
0.43097
0.431039
0.431108
0.431177
0.431177
0.431246
0.431315
0.431384
0.431453
0.431453
0.431522
0.431591
0.43166
0.431729
0.431729
0.431798
0.431867
0.431937
0.432006
0.432006
0.432075
0.432144
0.432214
0.432283
0.432283
0.432352
0.432422
0.432491
0.43256
0.43256
0.43263
0.432699
0.432769
0.432838
0.432838
0.432908
0.432978
0.433047
0.433117
0.433117
0.433187
0.433256
0.433326
0.433396
0.433396
0.433466
0.433535
0.433605
0.433675
0.433675
0.433745
0.433815
0.433885
0.433955
0.433955
0.434025
0.434095
0.434165
0.434235
0.434235
0.434305
0.434375
0.434445
0.434516
0.434516
0.434586
0.434656
0.434726
0.434797
0.434797
0.434867
0.434937
0.435008
0.435078
0.435078
0.435149
0.435219
0.43529
0.43536
0.43536
0.435431
0.435501
0.435572
0.435642
0.435642
0.435713
0.435784
0.435854
0.435925
0.435925
0.435996
0.436067
0.436138
0.436208
0.436208
0.436279
0.43635
0.436421
0.436492
0.436492
0.436563
0.436634
0.436705
0.436776
0.436776
0.436847
0.436918
0.436989
0.437061
0.437061
0.437132
0.437203
0.437274
0.437345
0.437345
0.437417
0.437488
0.437559
0.437631
0.437631
0.437702
0.437774
0.437845
0.437917
0.437917
0.437988
0.43806
0.438131
0.438203
0.438203
0.438274
0.438346
0.438418
0.438489
0.438489
0.438561
0.438633
0.438705
0.438776
0.438776
0.438848
0.43892
0.438992
0.439064
0.439064
0.439136
0.439208
0.43928
0.439352
0.439352
0.439424
0.439496
0.439568
0.43964
0.43964
0.439712
0.439785
0.439857
0.439929
0.439929
0.440001
0.440074
0.440146
0.440218
0.440218
0.440291
0.440363
0.440435
0.440508
0.440508
0.44058
0.440653
0.440725
0.440798
0.440798
0.44087
0.440943
0.441016
0.441088
0.441088
0.441161
0.441234
0.441306
0.441379
0.441379
0.441452
0.441525
0.441598
0.441671
0.441671
0.441743
0.441816
0.441889
0.441962
0.441962
0.442035
0.442108
0.442181
0.442255
0.442255
0.442328
0.442401
0.442474
0.442547
0.442547
0.44262
0.442694
0.442767
0.44284
0.44284
0.442914
0.442987
0.44306
0.443134
0.443134
0.443207
0.443281
0.443354
0.443428
0.443428
0.443501
0.443575
0.443648
0.443722
0.443722
0.443796
0.443869
0.443943
0.444017
0.444017
0.44409
0.444164
0.444238
0.444312
0.444312
0.444386
0.44446
0.444534
0.444608
0.444608
0.444681
0.444755
0.444829
0.444904
0.444904
0.444978
0.445052
0.445126
0.4452
0.4452
0.445274
0.445348
0.445423
0.445497
0.445497
0.445571
0.445645
0.44572
0.445794
0.445794
0.445869
0.445943
0.446017
0.446092
0.446092
0.446166
0.446241
0.446316
0.44639
0.44639
0.446465
0.446539
0.446614
0.446689
0.446689
0.446763
0.446838
0.446913
0.446988
0.446988
0.447063
0.447137
0.447212
0.447287
0.447287
0.447362
0.447437
0.447512
0.447587
0.447587
0.447662
0.447737
0.447812
0.447887
0.447887
0.447962
0.448038
0.448113
0.448188
0.448188
0.448263
0.448339
0.448414
0.448489
0.448489
0.448565
0.44864
0.448715
0.448791
0.448791
0.448866
0.448942
0.449017
0.449093
0.449093
0.449168
0.449244
0.44932
0.449395
0.449395
0.449471
0.449547
0.449622
0.449698
0.449698
0.449774
0.44985
0.449925
0.450001
0.450001
0.450077
0.450153
0.450229
0.450305
0.450305
0.450381
0.450457
0.450533
0.450609
0.450609
0.450685
0.450761
0.450837
0.450914
0.450914
0.45099
0.451066
0.451142
0.451219
0.451219
0.451295
0.451371
0.451448
0.451524
0.451524
0.4516
0.451677
0.451753
0.45183
0.45183
0.451906
0.451983
0.452059
0.452136
0.452136
0.452213
0.452289
0.452366
0.452443
0.452443
0.452519
0.452596
0.452673
0.45275
0.45275
0.452827
0.452903
0.45298
0.453057
0.453057
0.453134
0.453211
0.453288
0.453365
0.453365
0.453442
0.453519
0.453596