<?xml version="1.0"?>
<VTKFile type="UnstructuredGrid" version="0.1" byte_order="LittleEndian">
<UnstructuredGrid>
<Piece NumberOfPoints="5000" NumberOfCells="4000">
<PointData Scalars="Reaction 0">
<DataArray type="Float32" Name="Reaction 0" format="ascii">
0.590358
0.590358
0.590358
0.590358
0.590358
0.590358
0.590358
0.590358
0.590358
0.590358
0.590358
0.590358
0.590358
0.590359
0.590359
0.590359
0.590359
0.590359
0.590359
0.590359
0.590359
0.590359
0.590359
0.590359
0.590359
0.590359
0.590359
0.590359
0.590359
0.590359
0.590359
0.590359
0.590359
0.59036
0.59036
0.59036
0.59036
0.59036
0.59036
0.59036
0.59036
0.59036
0.59036
0.59036
0.59036
0.59036
0.590361
0.590361
0.590361
0.590361
0.590361
0.590361
0.590361
0.590361
0.590362
0.590362
0.590362
0.590362
0.590362
0.590362
0.590362
0.590362
0.590362
0.590363
0.590363
0.590363
0.590363
0.590363
0.590363
0.590363
0.590363
0.590364
0.590364
0.590364
0.590364
0.590364
0.590364
0.590365
0.590365
0.590365
0.590365
0.590365
0.590365
0.590366
0.590366
0.590366
0.590366
0.590366
0.590367
0.590367
0.590367
0.590367
0.590367
0.590368
0.590368
0.590368
0.590368
0.590368
0.590369
0.590369
0.590369
0.590369
0.590369
0.59037
0.59037
0.59037
0.59037
0.59037
0.590371
0.590371
0.590371
0.590371
0.590372
0.590372
0.590372
0.590372
0.590373
0.590373
0.590373
0.590373
0.590373
0.590374
0.590374
0.590374
0.590375
0.590375
0.590375
0.590375
0.590376
0.590376
0.590376
0.590376
0.590377
0.590377
0.590377
0.590377
0.590378
0.590378
0.590379
0.590379
0.590379
0.590379
0.59038
0.59038
0.59038
0.59038
0.590381
0.590381
0.590382
0.590382
0.590382
0.590382
0.590383
0.590383
0.590384
0.590384
0.590384
0.590384
0.590385
0.590385
0.590385
0.590386
0.590386
0.590387
0.590387
0.590387
0.590387
0.590388
0.590388
0.590389
0.590389
0.590389
0.59039
0.59039
0.590391
0.590391
0.590391
0.590391
0.590392
0.590392
0.590392
0.590393
0.590393
0.590394
0.590394
0.590394
0.590395
0.590395
0.590396
0.590396
0.590396
0.590397
0.590397
0.590398
0.590398
0.590398
0.590399
0.590399
0.5904
0.5904
0.5904
0.590401
0.590401
0.590402
0.590403
0.590403
0.590403
0.590404
0.590404
0.590405
0.590405
0.590405
0.590406
0.590406
0.590407
0.590407
0.590408
0.590408
0.590409
0.590409
0.590409
0.59041
0.59041
0.590411
0.590412
0.590412
0.590412
0.590413
0.590413
0.590414
0.590414
0.590415
0.590415
0.590416
0.590416
0.590416
0.590417
0.590418
0.590418
0.590419
0.590419
0.59042
0.59042
0.590421
0.590421
0.590421
0.590422
0.590423
0.590423
0.590424
0.590424
0.590425
0.590425
0.590426
0.590427
0.590427
0.590427
0.590428
0.590429
0.590429
0.590429
0.59043
0.590431
0.590432
0.590432
0.590432
0.590433
0.590434
0.590434
0.590435
0.590435
0.590436
0.590436
0.590437
0.590438
0.590438
0.590439
0.590439
0.59044
0.590441
0.590441
0.590442
0.590442
0.590443
0.590444
0.590444
0.590445
0.590445
0.590446
0.590447
0.590447
0.590448
0.590448
0.590449
0.59045
0.59045
0.590451
0.590452
0.590452
0.590453
0.590453
0.590454
0.590455
0.590455
0.590456
0.590456
0.590457
0.590458
0.590459
0.59046
0.59046
0.59046
0.590461
0.590462
0.590463
0.590463
0.590464
0.590464
0.590465
0.590466
0.590466
0.590467
0.590468
0.590469
0.59047
0.59047
0.59047
0.590471
0.590472
0.590473
0.590473
0.590474
0.590475
0.590476
0.590477
0.590477
0.590477
0.590478
0.590479
0.59048
0.59048
0.590481
0.590482
0.590483
0.590484
0.590484
0.590485
0.590486
0.590486
0.590487
0.590487
0.590488
0.590489
0.59049
0.590491
0.590491
0.590492
0.590493
0.590494
0.590495
0.590495
0.590496
0.590497
0.590498
0.590499
0.590499
0.5905
0.590501
0.590502
0.590503
0.590503
0.590504
0.590505
0.590506
0.590507
0.590507
0.590508
0.590509
0.59051
0.590511
0.590511
0.590512
0.590513
0.590514
0.590515
0.590515
0.590516
0.590517
0.590518
0.590519
0.590519
0.59052
0.590521
0.590522
0.590523
0.590523
0.590524
0.590525
0.590526
0.590527
0.590527
0.590528
0.590529
0.59053
0.590531
0.590531
0.590532
0.590533
0.590535
0.590536
0.590536
0.590537
0.590538
0.590539
0.59054
0.59054
0.590541
0.590542
0.590543
0.590544
0.590544
0.590546
0.590547
0.590548
0.590549
0.590549
0.59055
0.590551
0.590552
0.590553
0.590553
0.590555
0.590556
0.590557
0.590558
0.590558
0.590559
0.59056
0.590561
0.590563
0.590563
0.590564
0.590565
0.590566
0.590567
0.590567
0.590569
0.59057
0.590571
0.590572
0.590572
0.590573
0.590574
0.590576
0.590577
0.590577
0.590578
0.590579
0.590581
0.590582
0.590582
0.590583
0.590584
0.590585
0.590587
0.590587
0.590588
0.590589
0.59059
0.590592
0.590592
0.590593
0.590594
0.590595
0.590597
0.590597
0.590598
0.590599
0.5906
0.590602
0.590602
0.590603
0.590604
0.590606
0.590607
0.590607
0.590608
0.590609
0.590611
0.590612
0.590612
0.590613
0.590615
0.590616
0.590617
0.590617
0.590619
0.59062
0.590621
0.590623
0.590623
0.590624
0.590625
0.590627
0.590628
0.590628
0.590629
0.590631
0.590632
0.590633
0.590633
0.590635
0.590636
0.590637
0.590639
0.590639
0.59064
0.590641
0.590643
0.590644
0.590644
0.590646
0.590647
0.590648
0.59065
0.59065
0.590651
0.590653
0.590654
0.590655
0.590655
0.590657
0.590658
0.59066
0.590661
0.590661
0.590662
0.590664
0.590665
0.590667
0.590667
0.590668
0.59067
0.590671
0.590673
0.590673
0.590674
0.590675
0.590677
0.590678
0.590678
0.59068
0.590681
0.590683
0.590684
0.590684
0.590686
0.590687
0.590689
0.59069
0.59069
0.590692
0.590693
0.590695
0.590696
0.590696
0.590698
0.590699
0.590701
0.590702
0.590702
0.590704
0.590705
0.590707
0.590708
0.590708
0.59071
0.590711
0.590713
0.590715
0.590715
0.590716
0.590718
0.590719
0.590721
0.590721
0.590722
0.590724
0.590725
0.590727
0.590727
0.590729
0.59073
0.590732
0.590733
0.590733
0.590735
0.590737
0.590738
0.59074
0.59074
0.590741
0.590743
0.590745
0.590746
0.590746
0.590748
0.590749
0.590751
0.590753
0.590753
0.590754
0.590756
0.590758
0.590759
0.590759
0.590761
0.590762
0.590764
0.590766
0.590766
0.590767
0.590769
0.590771
0.590772
0.590772
0.590774
0.590776
0.590777
0.590779
0.590779
0.590781
0.590783
0.590784
0.590786
0.590786
0.590788
0.590789
0.590791
0.590793
0.590793
0.590794
0.590796
0.590798
0.5908
0.5908
0.590801
0.590803
0.590805
0.590807
0.590807
0.590808
0.59081
0.590812
0.590814
0.590814
0.590815
0.590817
0.590819
0.590821
0.590821
0.590822
0.590824
0.590826
0.590828
0.590828
0.590829
0.590831
0.590833
0.590835
0.590835
0.590837
0.590838
0.59084
0.590842
0.590842
0.590844
0.590846
0.590848
0.590849
0.590849
0.590851
0.590853
0.590855
0.590857
0.590857
0.590859
0.59086
0.590862
0.590864
0.590864
0.590866
0.590868
0.59087
0.590871
0.590871
0.590873
0.590875
0.590877
0.590879
0.590879
0.590881
0.590883
0.590885
0.590887
0.590887
0.590888
0.59089
0.590892
0.590894
0.590894
0.590896
0.590898
0.5909
0.590902
0.590902
0.590904
0.590906
0.590908
0.59091
0.59091
0.590911
0.590913
0.590915
0.590917
0.590917
0.590919
0.590921
0.590923
0.590925
0.590925
0.590927
0.590929
0.590931
0.590933
0.590933
0.590935
0.590937
0.590939
0.590941
0.590941
0.590943
0.590945
0.590947
0.590949
0.590949
0.590951
0.590953
0.590955
0.590957
0.590957
0.590959
0.590961
0.590963
0.590965
0.590965
0.590967
0.590969
0.590971
0.590973
0.590973
0.590975
0.590977
0.590979
0.590982
0.590982
0.590984
0.590986
0.590988
0.59099
0.59099
0.590992
0.590994
0.590996
0.590998
0.590998
0.591
0.591002
0.591004
0.591007
0.591007
0.591009
0.591011
0.591013
0.591015
0.591015
0.591017
0.591019
0.591021
0.591023
0.591023
0.591026
0.591028
0.59103
0.591032
0.591032
0.591034
0.591036
0.591039
0.591041
0.591041
0.591043
0.591045
0.591047
0.591049
0.591049
0.591052
0.591054
0.591056
0.591058
0.591058
0.59106
0.591062
0.591065
0.591067
0.591067
0.591069
0.591071
0.591074
0.591076
0.591076
0.591078
0.59108
0.591082
0.591085
0.591085
0.591087
0.591089
0.591091
0.591094
0.591094
0.591096
0.591098
0.5911
0.591103
0.591103
0.591105
0.591107
0.591109
0.591112
0.591112
0.591114
0.591116
0.591119
0.591121
0.591121
0.591123
0.591125
0.591128
0.59113
0.59113
0.591132
0.591135
0.591137
0.591139
0.591139
0.591142
0.591144
0.591146
0.591149
0.591149
0.591151
0.591153
0.591156
0.591158
0.591158
0.59116
0.591163
0.591165
0.591167
0.591167
0.59117
0.591172
0.591175
0.591177
0.591177
0.591179
0.591182
0.591184
0.591187
0.591187
0.591189
0.591191
0.591194
0.591196
0.591196
0.591199
0.591201
0.591203
0.591206
0.591206
0.591208
0.591211
0.591213
0.591215
0.591215
0.591218
0.59122
0.591223
0.591225
0.591225
0.591228
0.59123
0.591233
0.591235
0.591235
0.591238
0.59124
0.591243
0.591245
0.591245
0.591247
0.59125
0.591252
0.591255
0.591255
0.591257
0.59126
0.591262
0.591265
0.591265
0.591268
0.59127
0.591273
0.591275
0.591275
0.591278
0.59128
0.591283
0.591285
0.591285
0.591288
0.59129
0.591293
0.591295
0.591295
0.591298
0.591301
0.591303
0.591306
0.591306
0.591308
0.591311
0.591313
0.591316
0.591316
0.591319
0.591321
0.591324
0.591326
0.591326
0.591329
0.591331
0.591334
0.591337
0.591337
0.591339
0.591342
0.591344
0.591347
0.591347
0.591349
0.591352
0.591355
0.591357
0.591357
0.59136
0.591363
0.591365
0.591368
0.591368
0.591371
0.591374
0.591376
0.591379
0.591379
0.591382
0.591384
0.591387
0.59139
0.59139
0.591392
0.591395
0.591398
0.591401
0.591401
0.591403
0.591406
0.591409
0.591411
0.591411
0.591414
0.591417
0.59142
0.591422
0.591422
0.591425
0.591428
0.591431
0.591433
0.591433
0.591436
0.591439
0.591442
0.591444
0.591444
0.591447
0.59145
0.591453
0.591455
0.591455
0.591458
0.591461
0.591464
0.591467
0.591467
0.591469
0.591472
0.591475
0.591478
0.591478
0.591481
0.591483
0.591486
0.591489
0.591489
0.591492
0.591495
0.591497
0.5915
0.5915
0.591503
0.591506
0.591509
0.591512
0.591512
0.591515
0.591517
0.59152
0.591523
0.591523
0.591526
0.591529
0.591532
0.591535
0.591535
0.591538
0.59154
0.591543
0.591546
0.591546
0.591549
0.591552
0.591555
0.591558
0.591558
0.591561
0.591564
0.591567
0.59157
0.59157
0.591572
0.591575
0.591578
0.591581
0.591581
0.591584
0.591587
0.59159
0.591593
0.591593
0.591596
0.591599
0.591602
0.591605
0.591605
0.591608
0.591611
0.591614
0.591617
0.591617
0.59162
0.591623
0.591626
0.591629
0.591629
0.591632
0.591635
0.591638
0.591641
0.591641
0.591644
0.591647
0.59165
0.591653
0.591653
0.591656
0.591659
0.591662
0.591665
0.591665
0.591668
0.591671
0.591674
0.591677
0.591677
0.591681
0.591684
0.591687
0.59169
0.59169
0.591693
0.591696
0.591699
0.591702
0.591702
0.591705
0.591708
0.591711
0.591715
0.591715
0.591718
0.591721
0.591724
0.591727
0.591727
0.59173
0.591733
0.591736
0.59174
0.59174
0.591743
0.591746
0.591749
0.591752
0.591752
0.591755
0.591759
0.591762
0.591765
0.591765
0.591768
0.591771
0.591774
0.591778
0.591778
0.591781
0.591784
0.591787
0.59179
0.59179
0.591794
0.591797
0.5918
0.591803
0.591803
0.591807
0.59181
0.591813
0.591816
0.591816
0.591819
0.591823
0.591826
0.591829
0.591829
0.591832
0.591836
0.591839
0.591842
0.591842
0.591846
0.591849
0.591852
0.591855
0.591855
0.591859
0.591862
0.591865
0.591869
0.591869
0.591872
0.591875
0.591878
0.591882
0.591882
0.591885
0.591888
0.591892
0.591895
0.591895
0.591898
0.591902
0.591905
0.591908
0.591908
0.591912
0.591915
0.591918
0.591922
0.591922
0.591925
0.591929
0.591932
0.591935
0.591935
0.591939
0.591942
0.591945
0.591949
0.591949
0.591952
0.591956
0.591959
0.591963
0.591963
0.591966
0.591969
0.591973
0.591976
0.591976
0.59198
0.591983
0.591986
0.59199
0.59199
0.591993
0.591997
0.592
0.592004
0.592004
0.592007
0.592011
0.592014
0.592018
0.592018
0.592021
0.592025
0.592028
0.592032
0.592032
0.592035
0.592039
0.592042
0.592046
0.592046
0.592049
0.592053
0.592056
0.59206
0.59206
0.592063
0.592067
0.59207
0.592074
0.592074
0.592077
0.592081
0.592084
0.592088
0.592088
0.592091
0.592095
0.592099
0.592102
0.592102
0.592106
0.592109
0.592113
0.592117
0.592117
0.59212
0.592124
0.592127
0.592131
0.592131
0.592134
0.592138
0.592142
0.592145
0.592145
0.592149
0.592153
0.592156
0.59216
0.59216
0.592163
0.592167
0.592171
0.592174
0.592174
0.592178
0.592182
0.592185
0.592189
0.592189
0.592193
0.592196
0.5922
0.592204
0.592204
0.592207
0.592211
0.592215
0.592219
0.592219
0.592222
0.592226
0.59223
0.592233
0.592233
0.592237
0.592241
0.592245
0.592248
0.592248
0.592252
0.592256
0.59226
0.592263
0.592263
0.592267
0.592271
0.592275
0.592278
0.592278
0.592282
0.592286
0.59229
0.592293
0.592293
0.592297
0.592301
0.592305
0.592309
0.592309
0.592312
0.592316
0.59232
0.592324
0.592324
0.592328
0.592332
0.592335
0.592339
0.592339
0.592343
0.592347
0.592351
0.592355
0.592355
0.592358
0.592362
0.592366
0.59237
0.59237
0.592374
0.592378
0.592382
0.592385
0.592385
0.592389
0.592393
0.592397
0.592401
0.592401
0.592405
0.592409
0.592413
0.592417
0.592417
0.592421
0.592425
0.592428
0.592432
0.592432
0.592436
0.59244
0.592444
0.592448
0.592448
0.592452
0.592456
0.59246
0.592464
0.592464
0.592468
0.592472
0.592476
0.59248
0.59248
0.592484
0.592488
0.592492
0.592496
0.592496
0.5925
0.592504
0.592508
0.592512
0.592512
0.592516
0.59252
0.592524
0.592528
0.592528
0.592532
0.592536
0.59254
0.592544
0.592544
0.592548
0.592552
0.592556
0.59256
0.59256
0.592565
0.592569
0.592573
0.592577
0.592577
0.592581
0.592585
0.592589
0.592593
0.592593
0.592597
0.592601
0.592605
0.59261
0.59261
0.592614
0.592618
0.592622
0.592626
0.592626
0.59263
0.592634
0.592639
0.592643
0.592643
0.592647
0.592651
0.592655
0.592659
0.592659
0.592664
0.592668
0.592672
0.592676
0.592676
0.59268
0.592684
0.592689
0.592693
0.592693
0.592697
0.592701
0.592705
0.59271
0.59271
0.592714
0.592718
0.592722
0.592727
0.592727
0.592731
0.592735
0.592739
0.592744
0.592744
0.592748
0.592752
0.592756
0.592761
0.592761
0.592765
0.592769
0.592774
0.592778
0.592778
0.592782
0.592786
0.592791
0.592795
0.592795
0.592799
0.592804
0.592808
0.592812
0.592812
0.592817
0.592821
0.592825
0.59283
0.59283
0.592834
0.592838
0.592843
0.592847
0.592847
0.592851
0.592856
0.59286
0.592865
0.592865
0.592869
0.592873
0.592878
0.592882
0.592882
0.592886
0.592891
0.592895
0.5929
0.5929
0.592904
0.592909
0.592913
0.592917
0.592917
0.592922
0.592926
0.592931
0.592935
0.592935
0.59294
0.592944
0.592949
0.592953
0.592953
0.592957
0.592962
0.592966
0.592971
0.592971
0.592975
0.59298
0.592984
0.592989
0.592989
0.592993
0.592998
0.593002
0.593007
0.593007
0.593011
0.593016
0.593021
0.593025
0.593025
0.59303
0.593034
0.593039
0.593043
0.593043
0.593048
0.593052
0.593057
0.593062
0.593062
0.593066
0.593071
0.593075
0.59308
0.59308
0.593084
0.593089
0.593094
0.593098
0.593098
0.593103
0.593107
0.593112
0.593117
0.593117
0.593121
0.593126
0.593131
0.593135
0.593135
0.59314
0.593145
0.593149
0.593154
0.593154
0.593159
0.593163
0.593168
0.593173
0.593173
0.593177
0.593182
0.593187
0.593191
0.593191
0.593196
0.593201
0.593205
0.59321
0.59321
0.593215
0.59322
0.593224
0.593229
0.593229
0.593234
0.593239
0.593243
0.593248
0.593248
0.593253
0.593258
0.593262
0.593267
0.593267
0.593272
0.593277
0.593281
0.593286
0.593286
0.593291
0.593296
0.593301
0.593305
0.593305
0.59331
0.593315
0.59332
0.593325
0.593325
0.59333
0.593334
0.593339
0.593344
0.593344
0.593349
0.593354
0.593359
0.593364
0.593364
0.593368
0.593373
0.593378
0.593383
0.593383
0.593388
0.593393
0.593398
0.593403
0.593403
0.593408
0.593412
0.593417
0.593422
0.593422
0.593427
0.593432
0.593437
0.593442
0.593442
0.593447
0.593452
0.593457
0.593462
0.593462
0.593467
0.593472
0.593477
0.593482
0.593482
0.593487
0.593492
0.593497
0.593502
0.593502
0.593507
0.593512
0.593517
0.593522
0.593522
0.593527
0.593532
0.593537
0.593542
0.593542
0.593547
0.593552
0.593557
0.593562
0.593562
0.593567
0.593572
0.593577
0.593582
0.593582
0.593587
0.593592
0.593597
0.593602
0.593602
0.593608
0.593613
0.593618
0.593623
0.593623
0.593628
0.593633
0.593638
0.593643
0.593643
0.593648
0.593654
0.593659
0.593664
0.593664
0.593669
0.593674
0.593679
0.593684
0.593684
0.59369
0.593695
0.5937
0.593705
0.593705
0.59371
0.593716
0.593721
0.593726
0.593726
0.593731
0.593736
0.593742
0.593747
0.593747
0.593752
0.593757
0.593762
0.593768
0.593768
0.593773
0.593778
0.593783
0.593789
0.593789
0.593794
0.593799
0.593804
0.59381
0.59381
0.593815
0.59382
0.593826
0.593831
0.593831
0.593836
0.593842
0.593847
0.593852
0.593852
0.593857
0.593863
0.593868
0.593873
0.593873
0.593879
0.593884
0.593889
0.593895
0.593895
0.5939
0.593906
0.593911
0.593916
0.593916
0.593922
0.593927
0.593932
0.593938
0.593938
0.593943
0.593949
0.593954
0.593959
0.593959
0.593965
0.59397
0.593976
0.593981
0.593981
0.593987
0.593992
0.593998
0.594003
0.594003
0.594008
0.594014
0.594019
0.594025
0.594025
0.59403
0.594036
0.594041
0.594047
0.594047
0.594052
0.594058
0.594063
0.594069
0.594069
0.594074
0.59408
0.594085
0.594091
0.594091
0.594096
0.594102
0.594107
0.594113
0.594113
0.594119
0.594124
0.59413
0.594135
0.594135
0.594141
0.594146
0.594152
0.594158
0.594158
0.594163
0.594169
0.594174
0.59418
0.59418
0.594186
0.594191
0.594197
0.594202
0.594202
0.594208
0.594214
0.594219
0.594225
0.594225
0.59423
0.594236
0.594241
0.594247
0.594247
0.594252
0.594258
0.594264
0.59427
0.59427
0.594276
0.594281
0.594287
0.594293
0.594293
0.594299
0.594305
0.59431
0.594316
0.594316
0.594322
0.594328
0.594333
0.594339
0.594339
0.594345
0.594351
0.594356
0.594362
0.594362
0.594368
0.594374
0.59438
0.594385
0.594385
0.594391
0.594397
0.594403
0.594409
0.594409
0.594414
0.59442
0.594426
0.594432
0.594432
0.594438
0.594444
0.594449
0.594455
0.594455
0.594461
0.594467
0.594473
0.594479
0.594479
0.594485
0.59449
0.594496
0.594502
0.594502
0.594508
0.594514
0.59452
0.594526
0.594526
0.594532
0.594538
0.594544
0.59455
0.59455
0.594555
0.594561
0.594567
0.594573
0.594573
0.594579
0.594585
0.594591
0.594597
0.594597
0.594603
0.594609
0.594615
0.594621
0.594621
0.594627
0.594633
0.594639
0.594645
0.594645
0.594651
0.594657
0.594663
0.594669
0.594669
0.594675
0.594681
0.594687
0.594694
0.594694
0.5947
0.594706
0.594712
0.594718
0.594718
0.594724
0.59473
0.594736
0.594742
0.594742
0.594748
0.594754
0.594761
0.594767
0.594767
0.594773
0.594779
0.594785
0.594791
0.594791
0.594797
0.594803
0.59481
0.594816
0.594816
0.594822
0.594828
0.594834
0.594841
0.594841
0.594847
0.594853
0.594859
0.594865
0.594865
0.594872
0.594878
0.594884
0.59489
0.59489
0.594896
0.594903
0.594909
0.594915
0.594915
0.594921
0.594928
0.594934
0.59494
0.59494
0.594946
0.594953
0.594959
0.594965
0.594965
0.594972
0.594978
0.594984
0.594991
0.594991
0.594997
0.595003
0.59501
0.595016
0.595016
0.595022
0.595029
0.595035
0.595041
0.595041
0.595048
0.595054
0.59506
0.595067
0.595067
0.595073
0.59508
0.595086
0.595092
0.595092
0.595099
0.595105
0.595112
0.595118
0.595118
0.595124
0.595131
0.595137
0.595144
0.595144
0.59515
0.595157
0.595163
0.59517
0.59517
0.595176
0.595182
0.595189
0.595195
0.595195
0.595202
0.595208
0.595215
0.595221
0.595221
0.595228
0.595234
0.595241
0.595248
0.595248
0.595254
0.595261
0.595267
0.595274
0.595274
0.59528
0.595287
0.595293
0.5953
0.5953
0.595307
0.595313
0.59532
0.595326
0.595326
0.595333
0.59534
0.595346
0.595353
0.595353
0.595359
0.595366
0.595373
0.595379
0.595379
0.595386
0.595393
0.595399
0.595406
0.595406
0.595413
0.595419
0.595426
0.595433
0.595433
0.595439
0.595446
0.595453
0.595459
0.595459
0.595466
0.595473
0.59548
0.595486
0.595486
0.595493
0.5955
0.595506
0.595513
0.595513
0.59552
0.595527
0.595534
0.59554
0.59554
0.595547
0.595554
0.595561
0.595567
0.595567
0.595574
0.595581
0.595588
0.595595
0.595595
0.595602
0.595608
0.595615
0.595622
0.595622
0.595629
0.595636
0.595643
0.595649
0.595649
0.595656
0.595663
0.59567
0.595677
0.595677
0.595684
0.595691
0.595698
0.595705
0.595705
0.595711
0.595718
0.595725
0.595732
0.595732
0.595739
0.595746
0.595753
0.59576
0.59576
0.595767
0.595774
0.595781
0.595788
0.595788
0.595795
0.595802
0.595809
0.595816
0.595816
0.595823
0.59583
0.595837
0.595844
0.595844
0.595851
0.595858
0.595865
0.595872
0.595872
0.595879
0.595886
0.595893
0.5959
0.5959
0.595907
0.595915
0.595922
0.595929
0.595929
0.595936
0.595943
0.59595
0.595957
0.595957
0.595964
0.595971
0.595979
0.595986
0.595986
0.595993
0.596
0.596007
0.596014
0.596014
0.596021
0.596029
0.596036
0.596043
0.596043
0.59605
0.596057
0.596065
0.596072
0.596072
0.596079
0.596086
0.596094
0.596101
0.596101
0.596108
0.596115
0.596122
0.59613
0.59613
0.596137
0.596144
0.596152
0.596159
0.596159
0.596166
0.596173
0.596181
0.596188
0.596188
0.596195
0.596203
0.59621
0.596217
0.596217
0.596225
0.596232
0.596239
0.596247
0.596247
0.596254
0.596261
0.596269
0.596276
0.596276
0.596284
0.596291
0.596298
0.596306
0.596306
0.596313
0.596321
0.596328
0.596335
0.596335
0.596343
0.59635
0.596358
0.596365
0.596365
0.596373
0.59638
0.596388
0.596395
0.596395
0.596402
0.59641
0.596417
0.596425
0.596425
0.596432
0.59644
0.596448
0.596455
0.596455
0.596463
0.59647
0.596478
0.596485
0.596485
0.596493
0.5965
0.596508
0.596515
0.596515
0.596523
0.596531
0.596538
0.596546
0.596546
0.596553
0.596561
0.596569
0.596576
0.596576
0.596584
0.596591
0.596599
0.596607
0.596607
0.596614
0.596622
0.59663
0.596637
0.596637
0.596645
0.596653
0.59666
0.596668
0.596668
0.596676
0.596684
0.596691
0.596699
0.596699
0.596707
0.596714
0.596722
0.59673
0.59673
0.596738
0.596745
0.596753
0.596761
0.596761
0.596769
0.596776
0.596784
0.596792
0.596792
0.5968
0.596808
0.596815
0.596823
0.596823
0.596831
0.596839
0.596847
0.596855
0.596855
0.596862
0.59687
0.596878
0.596886
0.596886
0.596894
0.596902
0.59691
0.596918
0.596918
0.596925
0.596933
0.596941
0.596949
0.596949
0.596957
0.596965
0.596973
0.596981
0.596981
0.596989
0.596997
0.597005
0.597013
0.597013
0.597021
0.597029
0.597037
0.597045
0.597045
0.597053
0.597061
0.597069
0.597077
0.597077
0.597085
0.597093
0.597101
0.597109
0.597109
0.597117
0.597125
0.597133
0.597141
0.597141
0.597149
0.597157
0.597165
0.597173
0.597173
0.597182
0.59719
0.597198
0.597206
0.597206
0.597214
0.597222
0.59723
0.597238
0.597238
0.597247
0.597255
0.597263
0.597271
0.597271
0.597279
0.597287
0.597296
0.597304
0.597304
0.597312
0.59732
0.597328
0.597337
0.597337
0.597345
0.597353
0.597361
0.59737
0.59737
0.597378
0.597386
0.597394
0.597403
0.597403
0.597411
0.597419
0.597428
0.597436
0.597436
0.597444
0.597452
0.597461
0.597469
0.597469
0.597477
0.597486
0.597494
0.597502
0.597502
0.597511
0.597519
0.597527
0.597535
0.597535
0.597544
0.597552
0.59756
0.597568
0.597568
0.597577
0.597585
0.597594
0.597603
0.597603
0.597611
0.59762
0.597628
0.597637
0.597637
0.597645
0.597654
0.597662
0.597671
0.597671
0.597679
0.597688
0.597697
0.597705
0.597705
0.597714
0.597722
0.597731
0.597739
0.597739
0.597748
0.597756
0.597765
0.597773
0.597773
0.597782
0.597791
0.597799
0.597808
0.597808
0.597816
0.597825
0.597834
0.597842
0.597842
0.597851
0.597859
0.597868
0.597877
0.597877
0.597885
0.597894
0.597903
0.597911
0.597911
0.59792
0.597929
0.597937
0.597946
0.597946
0.597955
0.597964
0.597972
0.597981
0.597981
0.59799
0.597999
0.598007
0.598016
0.598016
0.598025
0.598034
0.598042
0.598051
0.598051
0.59806
0.598069
0.598078
0.598086
0.598086
0.598095
0.598104
0.598113
0.598122
0.598122
0.59813
0.598139
0.598148
0.598157
0.598157
0.598166
0.598175
0.598184
0.598193
0.598193
0.598201
0.59821
0.598219
0.598228
0.598228
0.598237
0.598246
0.598255
0.598264
0.598264
0.598273
0.598282
0.598291
0.5983
0.5983
0.598309
0.598318
0.598327
0.598336
0.598336
0.598345
0.598354
0.598363
0.598372
0.598372
0.598381
0.59839
0.598399
0.598408
0.598408
0.598417
0.598426
0.598435
0.598444
0.598444
0.598454
0.598463
0.598472
0.598481
0.598481
0.59849
0.598499
0.598508
0.598517
0.598517
0.598527
0.598536
0.598545
0.598554
0.598554
0.598563
0.598572
0.598582
0.598591
0.598591
0.5986
0.598609
0.598619
0.598628
0.598628
0.598637
0.598646
0.598655
0.598665
0.598665
0.598674
0.598683
0.598693
0.598702
0.598702
0.598711
0.59872
0.59873
0.598739
0.598739
0.598748
0.598758
0.598767
0.598776
0.598776
0.598786
0.598795
0.598804
0.598814
0.598814
0.598823
0.598833
0.598842
0.598851
0.598851
0.598861
0.59887
0.59888
0.598889
0.598889
0.598899
0.598908
0.598917
0.598927
0.598927
0.598936
0.598946
0.598955
0.598965
0.598965
0.598974
0.598984
0.598993
0.599003
0.599003
0.599012
0.599022
0.599031
0.599041
0.599041
0.599051
0.59906
0.59907
0.599079
0.599079
0.599089
0.599098
0.599108
0.599118
0.599118
0.599127
0.599137
0.599147
0.599156
0.599156
0.599166
0.599175
0.599185
0.599195
0.599195
0.599204
0.599214
0.599224
0.599234
0.599234
0.599243
0.599253
0.599263
0.599272
0.599272
0.599282
0.599292
0.599302
0.599311
0.599311
0.599321
0.599331
0.599341
0.599351
0.599351
0.59936
0.59937
0.59938
0.59939
0.59939
0.5994
0.599409
0.599419
0.599429
0.599429
0.599439
0.599449
0.599459
0.599469
0.599469
0.599478
0.599488
0.599498
0.599508
0.599508
0.599518
0.599528
0.599538
0.599548
0.599548
0.599558
0.599568
0.599578
0.599588
0.599588
0.599598
0.599608
0.599618
0.599628
0.599628
0.599638
0.599648
0.599658
0.599668
0.599668
0.599678
0.599688
0.599698
0.599708
0.599708
0.599718
0.599728
0.599738
0.599748
0.599748
0.599758
0.599768
0.599778
0.599789
0.599789
0.599799
0.599809
0.599819
0.599829
0.599829
0.599839
0.599849
0.59986
0.59987
0.59987
0.59988
0.59989
0.5999
0.599911
0.599911
0.599921
0.599931
0.599941
0.599952
0.599952
0.599962
0.599972
0.599982
0.599993
0.599993
0.600003
0.600013
0.600024
0.600034
0.600034
0.600044
0.600054
0.600065
0.600075
0.600075
0.600085
0.600096
0.600106
0.600117
0.600117
0.600127
0.600137
0.600148
0.600158
0.600158
0.600169
0.600179
0.600189
0.6002
0.6002
0.60021
0.600221
0.600231
0.600242
0.600242
0.600252
0.600263
0.600273
0.600284
0.600284
0.600294
0.600305
0.600315
0.600326
0.600326
0.600336
0.600347
0.600357
0.600368
0.600368
0.600378
0.600389
0.6004
0.60041
0.60041
0.600421
0.600431
0.600442
0.600453
0.600453
0.600463
0.600474
0.600485
0.600495
0.600495
0.600506
0.600517
0.600527
0.600538
0.600538
0.600549
0.600559
0.60057
0.600581
0.600581
0.600591
0.600602
0.600613
0.600624
0.600624
0.600634
0.600645
0.600656
0.600667
0.600667
0.600678
0.600688
0.600699
0.60071
0.60071
0.600721
0.600732
0.600743
0.600753
0.600753
0.600764
0.600775
0.600786
0.600797
0.600797
0.600808
0.600819
0.60083
0.60084
0.60084
0.600851
0.600862
0.600873
0.600884
0.600884
0.600895
0.600906
0.600917
0.600928
0.600928
0.600939
0.60095
0.600961
0.600972
0.600972
0.600983
0.600994
0.601005
0.601016
0.601016
0.601027
0.601038
0.60105
0.601061
0.601061
0.601072
0.601083
0.601094
0.601105
0.601105
0.601116
0.601127
0.601138
0.60115
0.60115
0.601161
0.601172
0.601183
0.601194
0.601194
0.601205
0.601216
0.601228
0.601239
0.601239
0.60125
0.601261
0.601272
0.601283
0.601283
0.601294
0.601306
0.601317
0.601328
0.601328
0.601339
0.60135
0.601362
0.601373
0.601373
0.601385
0.601396
0.601408
0.601419
0.601419
0.601431
0.601442
0.601454
0.601465
0.601465
0.601477
0.601488
0.601499
0.601511
0.601511
0.601522
0.601534
0.601545
0.601557
0.601557
0.601568
0.60158
0.601591
0.601603
0.601603
0.601614
0.601626
0.601637
0.601649
0.601649
0.60166
0.601672
0.601683
0.601695
0.601695
0.601706
0.601718
0.60173
0.601741
0.601741
0.601753
0.601764
0.601776
0.601788
0.601788
0.601799
0.601811
0.601823
0.601834
0.601834
0.601846
0.601858
0.601869
0.601881
0.601881
0.601893
0.601904
0.601916
0.601928
0.601928
0.60194
0.601951
0.601963
0.601975
0.601975
0.601987
0.601998
0.60201
0.602022
0.602022
0.602034
0.602046
0.602058
0.602069
0.602069
0.602081
0.602093
0.602105
0.602117
0.602117
0.602129
0.602141
0.602152
0.602164
0.602164
0.602176
0.602188
0.6022
0.602212
0.602212
0.602224
0.602236
0.602248
0.60226
0.60226
0.602272
0.602284
0.602296
0.602308
0.602308
0.60232
0.602332
0.602344
0.602356
0.602356
0.602368
0.60238
0.602392
0.602405
0.602405
0.602417
0.602429
0.602441
0.602453
0.602453
0.602465
0.602477
0.602489
0.602502
0.602502
0.602514
0.602526
0.602538
0.60255
0.60255
0.602563
0.602575
0.602587
0.602599
0.602599
0.602612
0.602624
0.602636
0.602648
0.602648
0.602661
0.602673
0.602685
0.602697
0.602697
0.60271
0.602722
0.602734
0.602747
0.602747
0.602759
0.602772
0.602784
0.602796
0.602796
0.602809
0.602821
0.602834
0.602846
0.602846
0.602858
0.602871
0.602883
0.602896
0.602896
0.602908
0.602921
0.602933
0.602946
0.602946
0.602958
0.602971
0.602983
0.602996
0.602996
0.603008
0.603021
0.603033
0.603046
0.603046
0.603059
0.603071
0.603084
0.603096
0.603096
0.603109
0.603122
0.603134
0.603147
0.603147
0.60316
0.603172
0.603185
0.603198
0.603198
0.60321
0.603223
0.603236
0.603248
0.603248
0.603261
0.603274
0.603287
0.603299
0.603299
0.603312
0.603325
0.603338
0.60335
0.60335
0.603363
0.603376
0.603389
0.603402
0.603402
0.603415
0.603427
0.60344
0.603453
0.603453
0.603466
0.603479
0.603492
0.603505
0.603505
0.603518
0.603531
0.603544
0.603557
0.603557
0.60357
0.603582
0.603595
0.603608
0.603608
0.603621
0.603634
0.603647
0.603661
0.603661
0.603674
0.603687
0.6037
0.603713
0.603713
0.603726
0.603739
0.603752
0.603765
0.603765
0.603778
0.603791
0.603804
0.603818
0.603818
0.603831
0.603844
0.603857
0.60387
0.60387
0.603884
0.603897
0.60391
0.603923
0.603923
0.603936
0.60395
0.603963
0.603976
0.603976
0.603989
0.604003
0.604016
0.604029
0.604029
0.604043
0.604056
0.604069
0.604083
0.604083
0.604096
0.604109
0.604123
0.604136
0.604136
0.604149
0.604163
0.604176
0.60419
0.60419
0.604203
0.604217
0.60423
0.604243
0.604243
0.604257
0.60427
0.604284
0.604297
0.604297
0.604311
0.604324
0.604338
0.604352
0.604352
0.604365
0.604379
0.604392
0.604406
0.604406
0.604419
0.604433
0.604447
0.60446
0.60446
0.604474
0.604488
0.604501
0.604515
0.604515
0.604529
0.604542
0.604556
0.60457
0.60457
0.604583
0.604597
0.604611
0.604625
0.604625
0.604638
0.604652
0.604666
0.60468
0.60468
0.604693
0.604707
0.604721
0.604735
0.604735
0.604749
0.604763
0.604776
0.60479
0.60479
0.604804
0.604818
0.604832
0.604846
0.604846
0.60486
0.604874
0.604888
0.604902
0.604902
0.604915
0.604929
0.604943
0.604957
0.604957
0.604971
0.604985
0.604999
0.605014
0.605014
0.605028
0.605042
0.605056
0.60507
0.60507
0.605084
0.605098
0.605112
0.605126
0.605126
0.60514
0.605154
0.605169
0.605183
0.605183
0.605197
0.605211
0.605225
0.605239
0.605239
0.605254
0.605268
0.605282
0.605296
0.605296
0.605311
0.605325
0.605339
0.605353
0.605353
0.605368
0.605382
0.605396
0.60541
0.60541
0.605425
0.605439
0.605453
0.605468
0.605468
0.605482
0.605496
0.60551
0.605525
0.605525
0.605539
0.605553
0.605567
0.605582
0.605582
0.605596
0.605611
0.605626
0.605641
0.605641