<?xml version="1.0"?>
<VTKFile type="UnstructuredGrid" version="0.1" byte_order="LittleEndian">
<UnstructuredGrid>
<Piece NumberOfPoints="5000" NumberOfCells="4000">
<PointData Scalars="Reaction 0">
<DataArray type="Float32" Name="Reaction 0" format="ascii">
0.972781
0.972781
0.972781
0.972781
0.972781
0.972781
0.972781
0.972781
0.972781
0.972781
0.972781
0.972781
0.972781
0.972781
0.972781
0.972781
0.972781
0.972781
0.972781
0.972781
0.972781
0.972781
0.972781
0.972781
0.972781
0.972781
0.972781
0.972781
0.972781
0.972781
0.972781
0.972781
0.972781
0.972781
0.972781
0.972781
0.972781
0.972781
0.972781
0.972781
0.972781
0.972781
0.972781
0.972781
0.972781
0.972781
0.97278
0.97278
0.97278
0.97278
0.97278
0.97278
0.97278
0.97278
0.97278
0.97278
0.97278
0.97278
0.97278
0.97278
0.97278
0.97278
0.97278
0.97278
0.97278
0.97278
0.97278
0.97278
0.97278
0.97278
0.97278
0.97278
0.97278
0.97278
0.97278
0.97278
0.97278
0.97278
0.97278
0.97278
0.97278
0.972779
0.972779
0.972779
0.972779
0.972779
0.972779
0.972779
0.972779
0.972779
0.972779
0.972779
0.972779
0.972779
0.972779
0.972779
0.972779
0.972779
0.972779
0.972779
0.972779
0.972779
0.972779
0.972779
0.972778
0.972778
0.972778
0.972778
0.972778
0.972778
0.972778
0.972778
0.972778
0.972778
0.972778
0.972778
0.972778
0.972778
0.972778
0.972778
0.972778
0.972778
0.972778
0.972777
0.972777
0.972777
0.972777
0.972777
0.972777
0.972777
0.972777
0.972777
0.972777
0.972777
0.972777
0.972777
0.972777
0.972777
0.972777
0.972777
0.972777
0.972776
0.972776
0.972776
0.972776
0.972776
0.972776
0.972776
0.972776
0.972776
0.972776
0.972776
0.972776
0.972776
0.972776
0.972776
0.972775
0.972775
0.972775
0.972775
0.972775
0.972775
0.972775
0.972775
0.972775
0.972775
0.972775
0.972775
0.972774
0.972774
0.972774
0.972774
0.972774
0.972774
0.972774
0.972774
0.972774
0.972774
0.972774
0.972774
0.972774
0.972773
0.972773
0.972773
0.972773
0.972773
0.972773
0.972773
0.972773
0.972773
0.972773
0.972773
0.972773
0.972772
0.972772
0.972772
0.972772
0.972772
0.972772
0.972772
0.972772
0.972772
0.972772
0.972772
0.972771
0.972771
0.972771
0.972771
0.972771
0.972771
0.972771
0.972771
0.972771
0.972771
0.97277
0.97277
0.97277
0.97277
0.97277
0.97277
0.97277
0.97277
0.97277
0.97277
0.972769
0.972769
0.972769
0.972769
0.972769
0.972769
0.972769
0.972769
0.972769
0.972769
0.972768
0.972768
0.972768
0.972768
0.972768
0.972768
0.972768
0.972768
0.972768
0.972767
0.972767
0.972767
0.972767
0.972767
0.972767
0.972767
0.972767
0.972767
0.972766
0.972766
0.972766
0.972766
0.972766
0.972766
0.972766
0.972766
0.972766
0.972765
0.972765
0.972765
0.972765
0.972765
0.972765
0.972765
0.972765
0.972764
0.972764
0.972764
0.972764
0.972764
0.972764
0.972764
0.972764
0.972763
0.972763
0.972763
0.972763
0.972763
0.972763
0.972763
0.972762
0.972762
0.972762
0.972762
0.972762
0.972762
0.972762
0.972762
0.972761
0.972761
0.972761
0.972761
0.972761
0.972761
0.972761
0.97276
0.97276
0.97276
0.97276
0.97276
0.97276
0.97276
0.97276
0.972759
0.972759
0.972759
0.972759
0.972759
0.972759
0.972759
0.972758
0.972758
0.972758
0.972758
0.972758
0.972758
0.972758
0.972757
0.972757
0.972757
0.972757
0.972757
0.972757
0.972757
0.972756
0.972756
0.972756
0.972756
0.972756
0.972756
0.972755
0.972755
0.972755
0.972755
0.972755
0.972755
0.972755
0.972754
0.972754
0.972754
0.972754
0.972754
0.972754
0.972753
0.972753
0.972753
0.972753
0.972753
0.972753
0.972752
0.972752
0.972752
0.972752
0.972752
0.972752
0.972751
0.972751
0.972751
0.972751
0.972751
0.972751
0.972751
0.97275
0.97275
0.97275
0.97275
0.97275
0.97275
0.972749
0.972749
0.972749
0.972749
0.972749
0.972748
0.972748
0.972748
0.972748
0.972748
0.972748
0.972747
0.972747
0.972747
0.972747
0.972747
0.972747
0.972746
0.972746
0.972746
0.972746
0.972746
0.972745
0.972745
0.972745
0.972745
0.972745
0.972745
0.972745
0.972744
0.972744
0.972744
0.972744
0.972744
0.972743
0.972743
0.972743
0.972743
0.972743
0.972742
0.972742
0.972742
0.972742
0.972742
0.972741
0.972741
0.972741
0.972741
0.972741
0.972741
0.97274
0.97274
0.97274
0.97274
0.97274
0.972739
0.972739
0.972739
0.972739
0.972739
0.972738
0.972738
0.972738
0.972738
0.972738
0.972737
0.972737
0.972737
0.972737
0.972737
0.972736
0.972736
0.972736
0.972736
0.972736
0.972735
0.972735
0.972735
0.972735
0.972735
0.972734
0.972734
0.972734
0.972734
0.972734
0.972733
0.972733
0.972733
0.972733
0.972732
0.972732
0.972732
0.972732
0.972732
0.972731
0.972731
0.972731
0.972731
0.972731
0.97273
0.97273
0.97273
0.97273
0.97273
0.972729
0.972729
0.972729
0.972728
0.972728
0.972728
0.972728
0.972728
0.972727
0.972727
0.972727
0.972727
0.972727
0.972726
0.972726
0.972726
0.972726
0.972725
0.972725
0.972725
0.972725
0.972725
0.972724
0.972724
0.972724
0.972724
0.972723
0.972723
0.972723
0.972723
0.972723
0.972722
0.972722
0.972722
0.972722
0.972721
0.972721
0.972721
0.972721
0.972721
0.97272
0.97272
0.97272
0.972719
0.972719
0.972719
0.972719
0.972718
0.972718
0.972718
0.972718
0.972718
0.972717
0.972717
0.972717
0.972717
0.972716
0.972716
0.972716
0.972716
0.972715
0.972715
0.972715
0.972714
0.972714
0.972714
0.972714
0.972714
0.972713
0.972713
0.972713
0.972713
0.972712
0.972712
0.972712
0.972712
0.972711
0.972711
0.972711
0.972711
0.97271
0.97271
0.97271
0.972709
0.972709
0.972709
0.972709
0.972709
0.972708
0.972708
0.972708
0.972708
0.972707
0.972707
0.972707
0.972707
0.972706
0.972706
0.972706
0.972706
0.972705
0.972705
0.972705
0.972704
0.972704
0.972704
0.972704
0.972703
0.972703
0.972703
0.972703
0.972702
0.972702
0.972702
0.972702
0.972701
0.972701
0.972701
0.9727
0.9727
0.9727
0.9727
0.972699
0.972699
0.972699
0.972699
0.972698
0.972698
0.972698
0.972698
0.972697
0.972697
0.972696
0.972696
0.972696
0.972696
0.972695
0.972695
0.972695
0.972695
0.972694
0.972694
0.972694
0.972693
0.972693
0.972693
0.972693
0.972692
0.972692
0.972692
0.972692
0.972691
0.972691
0.97269
0.97269
0.97269
0.97269
0.972689
0.972689
0.972689
0.972689
0.972688
0.972688
0.972688
0.972688
0.972687
0.972687
0.972686
0.972686
0.972686
0.972686
0.972685
0.972685
0.972685
0.972685
0.972684
0.972684
0.972683
0.972683
0.972683
0.972683
0.972682
0.972682
0.972682
0.972682
0.972681
0.972681
0.97268
0.97268
0.97268
0.97268
0.972679
0.972679
0.972679
0.972679
0.972678
0.972678
0.972677
0.972677
0.972677
0.972677
0.972676
0.972676
0.972675
0.972675
0.972675
0.972675
0.972674
0.972674
0.972674
0.972674
0.972673
0.972673
0.972672
0.972672
0.972672
0.972672
0.972671
0.972671
0.972671
0.97267
0.97267
0.97267
0.972669
0.972669
0.972669
0.972668
0.972668
0.972668
0.972668
0.972667
0.972667
0.972666
0.972666
0.972666
0.972666
0.972665
0.972665
0.972664
0.972664
0.972664
0.972664
0.972663
0.972663
0.972663
0.972662
0.972662
0.972661
0.972661
0.972661
0.972661
0.97266
0.97266
0.972659
0.972659
0.972659
0.972659
0.972658
0.972658
0.972658
0.972657
0.972657
0.972656
0.972656
0.972656
0.972656
0.972655
0.972655
0.972654
0.972654
0.972654
0.972653
0.972653
0.972653
0.972653
0.972652
0.972652
0.972651
0.972651
0.972651
0.97265
0.97265
0.97265
0.972649
0.972649
0.972649
0.972648
0.972648
0.972647
0.972647
0.972647
0.972647
0.972646
0.972646
0.972646
0.972645
0.972645
0.972644
0.972644
0.972644
0.972643
0.972643
0.972643
0.972642
0.972642
0.972642
0.972641
0.972641
0.97264
0.97264
0.97264
0.972639
0.972639
0.972639
0.972639
0.972638
0.972638
0.972637
0.972637
0.972637
0.972636
0.972636
0.972635
0.972635
0.972635
0.972634
0.972634
0.972634
0.972633
0.972633
0.972633
0.972632
0.972632
0.972631
0.972631
0.972631
0.97263
0.97263
0.972629
0.972629
0.972629
0.972628
0.972628
0.972628
0.972628
0.972627
0.972627
0.972626
0.972626
0.972626
0.972625
0.972625
0.972624
0.972624
0.972624
0.972623
0.972623
0.972622
0.972622
0.972622
0.972621
0.972621
0.97262
0.97262
0.97262
0.972619
0.972619
0.972618
0.972618
0.972618
0.972618
0.972617
0.972617
0.972616
0.972616
0.972616
0.972615
0.972615
0.972614
0.972614
0.972614
0.972613
0.972613
0.972612
0.972612
0.972612
0.972611
0.972611
0.97261
0.97261
0.97261
0.972609
0.972609
0.972608
0.972608
0.972608
0.972607
0.972607
0.972606
0.972606
0.972606
0.972605
0.972605
0.972604
0.972604
0.972604
0.972603
0.972603
0.972602
0.972602
0.972602
0.972601
0.972601
0.9726
0.9726
0.9726
0.972599
0.972599
0.972598
0.972598
0.972598
0.972597
0.972597
0.972596
0.972596
0.972596
0.972595
0.972594
0.972594
0.972594
0.972593
0.972593
0.972592
0.972592
0.972592
0.972591
0.972591
0.97259
0.97259
0.97259
0.972589
0.972589
0.972588
0.972588
0.972588
0.972587
0.972587
0.972586
0.972586
0.972586
0.972585
0.972585
0.972584
0.972583
0.972583
0.972583
0.972582
0.972582
0.972581
0.972581
0.972581
0.97258
0.97258
0.972579
0.972579
0.972579
0.972578
0.972578
0.972577
0.972577
0.972576
0.972576
0.972575
0.972575
0.972575
0.972574
0.972574
0.972573
0.972573
0.972573
0.972572
0.972572
0.972571
0.97257
0.97257
0.97257
0.972569
0.972569
0.972568
0.972568
0.972568
0.972567
0.972567
0.972566
0.972566
0.972566
0.972565
0.972564
0.972564
0.972564
0.972563
0.972563
0.972562
0.972562
0.972562
0.972561
0.97256
0.97256
0.972559
0.972559
0.972559
0.972558
0.972558
0.972557
0.972557
0.972557
0.972556
0.972555
0.972555
0.972555
0.972554
0.972554
0.972553
0.972553
0.972553
0.972552
0.972551
0.972551
0.97255
0.97255
0.97255
0.972549
0.972549
0.972548
0.972548
0.972547
0.972547
0.972546
0.972546
0.972546
0.972545
0.972544
0.972544
0.972543
0.972543
0.972543
0.972542
0.972542
0.972541
0.972541
0.97254
0.97254
0.972539
0.972539
0.972539
0.972538
0.972537
0.972537
0.972536
0.972536
0.972536
0.972535
0.972534
0.972534
0.972534
0.972533
0.972533
0.972532
0.972531
0.972531
0.972531
0.97253
0.97253
0.972529
0.972529
0.972528
0.972528
0.972527
0.972527
0.972527
0.972526
0.972525
0.972525
0.972524
0.972524
0.972524
0.972523
0.972522
0.972522
0.972522
0.972521
0.97252
0.97252
0.972519
0.972519
0.972519
0.972518
0.972517
0.972517
0.972517
0.972516
0.972515
0.972515
0.972514
0.972514
0.972514
0.972513
0.972512
0.972512
0.972512
0.972511
0.97251
0.97251
0.972509
0.972509
0.972508
0.972508
0.972507
0.972507
0.972507
0.972506
0.972505
0.972505
0.972504
0.972504
0.972503
0.972503
0.972502
0.972501
0.972501
0.972501
0.9725
0.9725
0.972499
0.972499
0.972498
0.972498
0.972497
0.972496
0.972496
0.972496
0.972495
0.972494
0.972494
0.972494
0.972493
0.972493
0.972492
0.972491
0.972491
0.972491
0.97249
0.972489
0.972489
0.972489
0.972488
0.972487
0.972487
0.972486
0.972486
0.972486
0.972485
0.972484
0.972484
0.972484
0.972483
0.972482
0.972482
0.972481
0.972481
0.97248
0.97248
0.972479
0.972478
0.972478
0.972478
0.972477
0.972476
0.972476
0.972476
0.972475
0.972474
0.972474
0.972473
0.972473
0.972472
0.972472
0.972471
0.97247
0.97247
0.97247
0.972469
0.972468
0.972468
0.972468
0.972467
0.972466
0.972466
0.972465
0.972465
0.972464
0.972464
0.972463
0.972462
0.972462
0.972462
0.972461
0.97246
0.97246
0.97246
0.972459
0.972458
0.972457
0.972457
0.972457
0.972456
0.972455
0.972455
0.972454
0.972454
0.972453
0.972453
0.972452
0.972451
0.972451
0.972451
0.97245
0.972449
0.972448
0.972448
0.972448
0.972447
0.972446
0.972446
0.972446
0.972445
0.972444
0.972444
0.972443
0.972443
0.972442
0.972441
0.972441
0.97244
0.97244
0.972439
0.972439
0.972438
0.972437
0.972437
0.972437
0.972436
0.972435
0.972434
0.972434
0.972434
0.972433
0.972432
0.972432
0.972432
0.972431
0.97243
0.972429
0.972429
0.972429
0.972428
0.972427
0.972427
0.972426
0.972426
0.972425
0.972424
0.972424
0.972423
0.972423
0.972422
0.972421
0.972421
0.97242
0.97242
0.972419
0.972419
0.972418
0.972417
0.972417
0.972416
0.972416
0.972415
0.972414
0.972414
0.972413
0.972413
0.972412
0.972411
0.972411
0.97241
0.97241
0.972409
0.972408
0.972408
0.972408
0.972407
0.972406
0.972405
0.972405
0.972405
0.972404
0.972403
0.972402
0.972402
0.972402
0.972401
0.9724
0.972399
0.972399
0.972399
0.972398
0.972397
0.972396
0.972396
0.972396
0.972395
0.972394
0.972393
0.972393
0.972393
0.972392
0.972391
0.97239
0.97239
0.97239
0.972389
0.972388
0.972387
0.972387
0.972387
0.972386
0.972385
0.972384
0.972384
0.972384
0.972383
0.972382
0.972381
0.972381
0.97238
0.97238
0.972379
0.972378
0.972378
0.972377
0.972377
0.972376
0.972375
0.972375
0.972374
0.972374
0.972373
0.972372
0.972372
0.972371
0.97237
0.97237
0.972369
0.972369
0.972368
0.972367
0.972367
0.972366
0.972366
0.972365
0.972364
0.972363
0.972363
0.972363
0.972362
0.972361
0.97236
0.97236
0.97236
0.972359
0.972358
0.972357
0.972356
0.972356
0.972356
0.972355
0.972354
0.972353
0.972353
0.972352
0.972352
0.972351
0.97235
0.97235
0.972349
0.972348
0.972348
0.972347
0.972347
0.972346
0.972345
0.972344
0.972344
0.972344
0.972343
0.972342
0.972341
0.97234
0.97234
0.97234
0.972339
0.972338
0.972337
0.972337
0.972336
0.972336
0.972335
0.972334
0.972334
0.972333
0.972332
0.972332
0.972331
0.972331
0.97233
0.972329
0.972328
0.972328
0.972328
0.972327
0.972326
0.972325
0.972324
0.972324
0.972323
0.972323
0.972322
0.972321
0.972321
0.97232
0.972319
0.972319
0.972318
0.972318
0.972317
0.972316
0.972315
0.972314
0.972314
0.972314
0.972313
0.972312
0.972311
0.972311
0.97231
0.972309
0.972309
0.972308
0.972308
0.972307
0.972306
0.972305
0.972304
0.972304
0.972304
0.972303
0.972302
0.972301
0.972301
0.9723
0.972299
0.972299
0.972298
0.972298
0.972297
0.972296
0.972295
0.972294
0.972294
0.972293
0.972293
0.972292
0.972291
0.972291
0.97229
0.972289
0.972288
0.972288
0.972288
0.972287
0.972286
0.972285
0.972284
0.972284
0.972283
0.972282
0.972282
0.972281
0.972281
0.97228
0.972279
0.972278
0.972277
0.972277
0.972276
0.972276
0.972275
0.972274
0.972274
0.972273
0.972272
0.972271
0.97227
0.97227
0.97227
0.972269
0.972268
0.972267
0.972267
0.972266
0.972265
0.972264
0.972263
0.972263
0.972263
0.972262
0.972261
0.97226
0.97226
0.972259
0.972258
0.972257
0.972256
0.972256
0.972256
0.972255
0.972254
0.972253
0.972253
0.972252
0.972251
0.97225
0.972249
0.972249
0.972249
0.972248
0.972247
0.972246
0.972246
0.972245
0.972244
0.972243
0.972242
0.972242
0.972241
0.972241
0.97224
0.972239
0.972239
0.972238
0.972237
0.972236
0.972235
0.972235
0.972234
0.972233
0.972233
0.972232
0.972232
0.972231
0.97223
0.972229
0.972228
0.972228
0.972227
0.972226
0.972225
0.972224
0.972224
0.972223
0.972223
0.972222
0.972221
0.972221
0.97222
0.972219
0.972218
0.972217
0.972217
0.972216
0.972215
0.972214
0.972213
0.972213
0.972213
0.972212
0.972211
0.97221
0.97221
0.972209
0.972208
0.972207
0.972206
0.972206
0.972205
0.972204
0.972203
0.972202
0.972202
0.972201
0.972201
0.9722
0.972199
0.972199
0.972198
0.972197
0.972196
0.972195
0.972195
0.972194
0.972193
0.972192
0.972191
0.972191
0.97219
0.972189
0.972188
0.972187
0.972187
0.972186
0.972185
0.972184
0.972184
0.972184
0.972183
0.972182
0.972181
0.97218
0.97218
0.972179
0.972178
0.972177
0.972176
0.972176
0.972175
0.972174
0.972173
0.972172
0.972172
0.972171
0.97217
0.972169
0.972168
0.972168
0.972167
0.972166
0.972165
0.972164
0.972164
0.972163
0.972162
0.972162
0.972161
0.972161
0.97216
0.972159
0.972158
0.972157
0.972157
0.972156
0.972155
0.972154
0.972153
0.972153
0.972152
0.972151
0.97215
0.972149
0.972149
0.972148
0.972147
0.972146
0.972145
0.972145
0.972144
0.972143
0.972143
0.972142
0.972142
0.972141
0.97214
0.972139
0.972138
0.972138
0.972137
0.972136
0.972135
0.972134
0.972134
0.972133
0.972132
0.972131
0.97213
0.97213
0.972129
0.972128
0.972127
0.972126
0.972126
0.972125
0.972124
0.972123
0.972122
0.972122
0.972121
0.97212
0.972119
0.972118
0.972118
0.972117
0.972116
0.972115
0.972114
0.972114
0.972113
0.972112
0.972111
0.97211
0.97211
0.972109
0.972108
0.972107
0.972106
0.972106
0.972105
0.972104
0.972103
0.972102
0.972102
0.972101
0.9721
0.972099
0.972098
0.972098
0.972097
0.972096
0.972095
0.972094
0.972094
0.972093
0.972092
0.972091
0.97209
0.97209
0.972089
0.972088
0.972087
0.972086
0.972086
0.972085
0.972084
0.972083
0.972082
0.972082
0.972081
0.97208
0.972079
0.972078
0.972078
0.972077
0.972076
0.972075
0.972074
0.972074
0.972073
0.972072
0.97207
0.972069
0.972069
0.972068
0.972067
0.972066
0.972065
0.972065
0.972064
0.972063
0.972062
0.972061
0.972061
0.97206
0.972059
0.972058
0.972057
0.972057
0.972056
0.972055
0.972054
0.972053
0.972053
0.972052
0.972051
0.97205
0.972049
0.972049
0.972048
0.972047
0.972046
0.972044
0.972044
0.972043
0.972042
0.972041
0.97204
0.97204
0.972039
0.972038
0.972037
0.972036
0.972036
0.972035
0.972034
0.972033
0.972032
0.972032
0.972031
0.97203
0.972029
0.972028
0.972028
0.972027
0.972025
0.972024
0.972023
0.972023
0.972022
0.972021
0.97202
0.972019
0.972019
0.972018
0.972017
0.972016
0.972015
0.972015
0.972014
0.972013
0.972012
0.972011
0.972011
0.972009
0.972008
0.972007
0.972006
0.972006
0.972005
0.972004
0.972003
0.972002
0.972002
0.972001
0.972
0.971999
0.971998
0.971998
0.971996
0.971995
0.971994
0.971993
0.971993
0.971992
0.971991
0.97199
0.971989
0.971989
0.971988
0.971987
0.971986
0.971985
0.971985
0.971983
0.971982
0.971981
0.97198
0.97198
0.971979
0.971978
0.971977
0.971976
0.971976
0.971975
0.971974
0.971972
0.971971
0.971971
0.97197
0.971969
0.971968
0.971967
0.971967
0.971966
0.971965
0.971964
0.971963
0.971963
0.971961
0.97196
0.971959
0.971958
0.971958
0.971957
0.971956
0.971955
0.971954
0.971954
0.971953
0.971951
0.97195
0.971949
0.971949
0.971948
0.971947
0.971946
0.971945
0.971945
0.971944
0.971942
0.971941
0.97194
0.97194
0.971939
0.971938
0.971937
0.971936
0.971936
0.971935
0.971933
0.971932
0.971931
0.971931
0.97193
0.971929
0.971928
0.971927
0.971927
0.971926
0.971924
0.971923
0.971922
0.971922
0.971921
0.97192
0.971919
0.971918
0.971918
0.971916
0.971915
0.971914
0.971913
0.971913
0.971912
0.971911
0.97191
0.971908
0.971908
0.971907
0.971906
0.971905
0.971904
0.971904
0.971903
0.971902
0.9719
0.971899
0.971899
0.971898
0.971897
0.971896
0.971895
0.971895
0.971893
0.971892
0.971891
0.97189
0.97189
0.971889
0.971888
0.971887
0.971885
0.971885
0.971884
0.971883
0.971882
0.971881
0.971881
0.97188
0.971878
0.971877
0.971876
0.971876
0.971875
0.971874
0.971873
0.971871
0.971871
0.97187
0.971869
0.971868
0.971867
0.971867
0.971865
0.971864
0.971863
0.971862
0.971862
0.971861
0.971859
0.971858
0.971857
0.971857
0.971856
0.971855
0.971853
0.971852
0.971852
0.971851
0.97185
0.971849
0.971847
0.971847
0.971846
0.971845
0.971844
0.971843
0.971843
0.971841
0.97184
0.971839
0.971838
0.971838
0.971837
0.971835
0.971834
0.971833
0.971833
0.971832
0.971831
0.971829
0.971828
0.971828
0.971827
0.971826
0.971824
0.971823
0.971823
0.971822
0.971821
0.97182
0.971819
0.971819
0.971817
0.971816
0.971815
0.971814
0.971814
0.971813
0.971811
0.97181
0.971809
0.971809
0.971808
0.971807
0.971805
0.971804
0.971804
0.971803
0.971802
0.971801
0.971799
0.971799
0.971798
0.971797
0.971796
0.971795
0.971795
0.971793
0.971792
0.971791
0.97179
0.97179
0.971789
0.971787
0.971786
0.971785
0.971785
0.971784
0.971782
0.971781
0.97178
0.97178
0.971779
0.971777
0.971776
0.971775
0.971775
0.971774
0.971773
0.971771
0.97177
0.97177
0.971769
0.971768
0.971766
0.971765
0.971765
0.971764
0.971763
0.971761
0.97176
0.97176
0.971759
0.971758
0.971756
0.971755
0.971755
0.971754
0.971753
0.971751
0.97175
0.97175
0.971749
0.971748
0.971746
0.971745
0.971745
0.971744
0.971743
0.971741
0.97174
0.97174
0.971739
0.971738
0.971736
0.971735
0.971735
0.971734
0.971733
0.971731
0.97173
0.97173
0.971729
0.971727
0.971726
0.971725
0.971725
0.971724
0.971722
0.971721
0.97172
0.97172
0.971719
0.971717
0.971716
0.971715
0.971715
0.971713
0.971712
0.971711
0.97171
0.97171
0.971708
0.971707
0.971706
0.971704
0.971704
0.971703
0.971702
0.971701
0.971699
0.971699
0.971698
0.971697
0.971695
0.971694
0.971694
0.971693
0.971692
0.97169
0.971689
0.971689
0.971688
0.971686
0.971685
0.971684
0.971684
0.971683
0.971681
0.97168
0.971679
0.971679
0.971677
0.971676
0.971675
0.971673
0.971673
0.971672
0.971671
0.97167
0.971668
0.971668
0.971667
0.971666
0.971664
0.971663
0.971663
0.971662
0.97166
0.971659
0.971658
0.971658
0.971656
0.971655
0.971654
0.971653
0.971653
0.971651
0.97165
0.971649
0.971647
0.971647
0.971646
0.971645
0.971643
0.971642
0.971642
0.971641
0.971639
0.971638
0.971637
0.971637
0.971635
0.971634
0.971633
0.971631
0.971631
0.97163
0.971629
0.971627
0.971626
0.971626
0.971625
0.971623
0.971622
0.971621
0.971621
0.971619
0.971618
0.971617
0.971615
0.971615
0.971614
0.971613
0.971611
0.97161
0.97161
0.971609
0.971607
0.971606
0.971605
0.971605
0.971603
0.971602
0.971601
0.971599
0.971599
0.971598
0.971597
0.971595
0.971594
0.971594
0.971593
0.971591
0.97159
0.971589
0.971589
0.971587
0.971586
0.971584
0.971583
0.971583
0.971582
0.97158
0.971579
0.971578
0.971578
0.971576
0.971575
0.971574
0.971572
0.971572
0.971571
0.97157
0.971568
0.971567
0.971567
0.971565
0.971564
0.971563
0.971561
0.971561
0.97156
0.971559
0.971557
0.971556
0.971556
0.971554
0.971553
0.971552
0.97155
0.97155
0.971549
0.971548
0.971546
0.971545
0.971545
0.971543
0.971542
0.971541
0.971539
0.971539
0.971538
0.971536
0.971535
0.971534
0.971534
0.971532
0.971531
0.97153
0.971528
0.971528
0.971527
0.971525
0.971524
0.971522
0.971522
0.971521
0.97152
0.971518
0.971517
0.971517
0.971515
0.971514
0.971513
0.971511
0.971511
0.97151
0.971508
0.971507
0.971505
0.971505
0.971504
0.971503
0.971501
0.9715
0.9715
0.971498
0.971497
0.971495
0.971494
0.971494
0.971493
0.971491
0.97149
0.971488
0.971488
0.971487
0.971485
0.971484
0.971483
0.971483
0.971481
0.97148
0.971478
0.971477
0.971477
0.971476
0.971474
0.971473
0.971471
0.971471
0.97147
0.971469
0.971467
0.971466
0.971466
0.971464
0.971463
0.971462
0.97146
0.97146
0.971459
0.971457
0.971456
0.971454
0.971454
0.971453
0.971452
0.97145
0.971449
0.971449
0.971447
0.971446
0.971445
0.971443
0.971443
0.971442
0.97144
0.971439
0.971437
0.971437
0.971436
0.971435
0.971433
0.971432
0.971432
0.97143
0.971429
0.971427
0.971426
0.971426
0.971424
0.971423
0.971422
0.97142
0.97142
0.971419
0.971417
0.971416
0.971414
0.971414
0.971413
0.971411
0.97141
0.971408
0.971408
0.971407
0.971406
0.971404
0.971403
0.971403
0.971401
0.9714
0.971398
0.971397
0.971397
0.971395
0.971394
0.971392
0.971391
0.971391
0.971389
0.971388
0.971386
0.971385
0.971385
0.971384
0.971382
0.971381
0.971379
0.971379
0.971378
0.971376
0.971375
0.971373
0.971373
0.971372
0.97137
0.971369
0.971367
0.971367
0.971366
0.971364
0.971363
0.971361
0.971361
0.97136
0.971358
0.971357
0.971355
0.971355
0.971354
0.971352
0.971351
0.971349
0.971349
0.971348
0.971346
0.971345
0.971343
0.971343
0.971342
0.97134
0.971339
0.971337
0.971337
0.971336
0.971334
0.971333
0.971331
0.971331
0.97133
0.971328
0.971327
0.971325
0.971325
0.971324
0.971322
0.971321
0.971319
0.971319
0.971318
0.971316
0.971315
0.971313
0.971313
0.971312
0.97131
0.971309
0.971307
0.971307
0.971306
0.971304
0.971303
0.971301
0.971301
0.9713
0.971298
0.971297
0.971295
0.971295
0.971293
0.971292
0.97129
0.971289
0.971289
0.971287
0.971286
0.971284
0.971283
0.971283
0.971281
0.97128
0.971278
0.971277
0.971277
0.971275
0.971274
0.971272
0.97127
0.97127
0.971269
0.971267
0.971266
0.971264
0.971264
0.971263
0.971261
0.97126
0.971258
0.971258
0.971257
0.971255
0.971254
0.971252
0.971252
0.97125
0.971249
0.971247
0.971246
0.971246
0.971244
0.971243
0.971241
0.97124
0.97124
0.971238
0.971236
0.971235
0.971233
0.971233
0.971232
0.97123
0.971229
0.971227
0.971227
0.971226
0.971224
0.971222
0.971221
0.971221
0.971219
0.971218
0.971216
0.971215
0.971215
0.971213
0.971211
0.97121
0.971208
0.971208
0.971207
0.971205
0.971204
0.971202
0.971202
0.9712
0.971199
0.971197
0.971196
0.971196
0.971194
0.971192
0.971191
0.971189
0.971189
0.971188
0.971186
0.971184
0.971183
0.971183
0.971181
0.97118
0.971178
0.971176
0.971176
0.971175
0.971173
0.971172
0.97117
0.97117
0.971168
0.971167
0.971165
0.971164
0.971164
0.971162
0.97116
0.971159
0.971157
0.971157
0.971155
0.971154
0.971152
0.971151
0.971151
0.971149
0.971147
0.971146
0.971144
0.971144
0.971142
0.971141
0.971139
0.971137
0.971137
0.971136
0.971134
0.971133
0.971131
0.971131
0.971129
0.971128
0.971126
0.971125
0.971125
0.971123
0.971121
0.97112
0.971118
0.971118
0.971117
0.971115
0.971113
0.971112
0.971112
0.97111
0.971109
0.971107
0.971105
0.971105
0.971104
0.971102
0.971101
0.971099
0.971099
0.971097
0.971096
0.971094
0.971093
0.971093
0.971091
0.971089
0.971088
0.971086
0.971086
0.971084
0.971083
0.971081
0.97108
0.97108
0.971078
0.971076
0.971075
0.971073
0.971073
0.971071
0.97107
0.971068
0.971066
0.971066
0.971065
0.971063
0.971062
0.97106
0.97106
0.971058
0.971057
0.971055
0.971053
0.971053
0.971052
0.97105
0.971048
0.971047
0.971047
0.971045
0.971043
0.971042
0.97104
0.97104
0.971038
0.971037
0.971035
0.971033
0.971033
0.971032
0.97103
0.971028
0.971027
0.971027
0.971025
0.971023
0.971022
0.97102
0.97102
0.971018
0.971017
0.971015
0.971013
0.971013
0.971012
0.97101
0.971008
0.971007
0.971007
0.971005
0.971003
0.971002
0.971
0.971
0.970998
0.970996
0.970995
0.970993
0.970993
0.970991
0.97099
0.970988
0.970986
0.970986
0.970985
0.970983
0.970981
0.97098
0.97098
0.970978
0.970976
0.970974
0.970973
0.970973
0.970971
0.970969
0.970968
0.970966
0.970966
0.970964
0.970963
0.970961
0.970959
0.970959
0.970957
0.970956
0.970954
0.970952
0.970952
0.970951
0.970949
0.970947
0.970945
0.970945
0.970944
0.970942
0.97094
0.970939
0.970939
0.970937
0.970935
0.970933
0.970932
0.970932
0.97093
0.970928
0.970927
0.970925
0.970925
0.970923
0.970921
0.97092
0.970918
0.970918
0.970916
0.970915
0.970913
0.970911
0.970911
0.970909
0.970908
0.970906
0.970904
0.970904
0.970902
0.970901
0.970899
0.970897
0.970897
0.970895
0.970894
0.970892
0.97089
0.97089
0.970888
0.970887
0.970885
0.970883
0.970883
0.970882
0.97088
0.970878
0.970876
0.970876
0.970875
0.970873
0.970871
0.970869
0.970869
0.970867
0.970866
0.970864
0.970862
0.970862
0.97086
0.970859
0.970857
0.970855
0.970855
0.970853
0.970852
0.97085
0.970848
0.970848
0.970846
0.970845
0.970843
0.970841
0.970841
0.970839
0.970837
0.970836
0.970834
0.970834
0.970832
0.97083
0.970828
0.970827
0.970827
0.970825
0.970823
0.970821
0.97082
0.97082
0.970818
0.970816
0.970814
0.970812
0.970812
0.97081
0.970809
0.970807
0.970805
0.970805
0.970803
0.970801
0.9708
0.970798
0.970798
0.970796
0.970794
0.970792
0.970791
0.970791
0.970789
0.970787
0.970785
0.970783
0.970783
0.970782
0.97078
0.970778
0.970776
0.970776
0.970774
0.970773
0.970771
0.970769
0.970769
0.970767
0.970766
0.970764
0.970762
0.970762
0.97076
0.970758
0.970757
0.970755
0.970755
0.970753
0.970751
0.970749
0.970748
0.970748
0.970746
0.970744
0.970742
0.970741
0.970741
0.970739
0.970737
0.970735
0.970733
0.970733
0.970732
0.97073
0.970728
0.970726
0.970726
0.970724
0.970722
0.970721
0.970719
0.970719
0.970717
0.970715
0.970713
0.970712
0.970712
0.97071
0.970708
0.970706
0.970704
0.970704
0.970702
0.970701
0.970699
0.970697
0.970697
0.970695
0.970693
0.970691
0.97069
0.97069
0.970688
0.970686
0.970684
0.970682
0.970682
0.97068
0.970679
0.970677
0.970675
0.970675
0.970673
0.970671
0.970669
0.970667
0.970667
0.970666
0.970664
0.970662
0.97066
0.97066
0.970658
0.970656
0.970654
0.970653
0.970653
0.970651
0.970649
0.970647
0.970645
0.970645
0.970643
0.970641
0.97064
0.970638
0.970638
0.970636
0.970634
0.970632
0.97063
0.97063
0.970628
0.970626
0.970625
0.970623
0.970623
0.970621
0.970619
0.970617
0.970615
0.970615
0.970613
0.970611
0.97061
0.970608
0.970608
0.970606
0.970604
0.970602
0.9706
0.9706
0.970598
0.970596
0.970595
0.970593
0.970593
0.970591
0.970589
0.970587
0.970585
0.970585
0.970583
0.970581
0.970579
0.970577
0.970577
0.970576
0.970574
0.970572
0.97057
0.97057
0.970568
0.970566
0.970564
0.970562
0.970562
0.97056
0.970558
0.970557
0.970555
0.970555
0.970553
0.970551
0.970549
0.970547
0.970547
0.970545
0.970543
0.970541
0.970539
0.970539
0.970537
0.970536
0.970534
0.970532
0.970532
0.97053
0.970528
0.970526
0.970524
0.970524
0.970522
0.97052
0.970518
0.970516
0.970516
0.970514
0.970512
0.97051
0.970509
0.970509
0.970507
0.970505
0.970503
0.970501
0.970501
0.970499
0.970497
0.970495
0.970493
0.970493
0.970491
0.970489
0.970487
0.970485
0.970485
0.970483
0.970481
0.970479
0.970477
0.970477
0.970475
0.970473
0.970471
0.970469
0.970469
0.970467
0.970465
0.970463
0.970461
0.970461
0.97046
0.970458
0.970456
0.970454
0.970454
0.970452
0.97045
0.970448
0.970446
0.970446
0.970444
0.970442
0.97044
0.970438
0.970438
0.970436
0.970434
0.970432
0.97043
0.97043
0.970428
0.970426
0.970424
0.970422
0.970422
0.97042
0.970418
0.970416
0.970414
0.970414
0.970412
0.97041
0.970408
0.970406
0.970406
0.970404
0.970402
0.970401
0.970399
0.970399
0.970397
0.970395
0.970393
0.970391
0.970391
0.970389
0.970387
0.970385
0.970383
0.970383
0.970381
0.970379
0.970377
0.970375
0.970375
0.970373
0.970371
0.970369
0.970367
0.970367
0.970365
0.970363
0.970361
0.970359
0.970359
0.970357
0.970355
0.970353
0.970351
0.970351
0.970349
0.970347
0.970345
0.970343
0.970343
0.970341
0.970339
0.970337
0.970335
0.970335
0.970333
0.970331
0.970329
0.970327
0.970327
0.970325
0.970323
0.970321
0.970319
0.970319
0.970317
0.970315
0.970313
0.970311
0.970311
0.970309
0.970307
0.970305
0.970303
0.970303
0.970301
0.970299
0.970297
0.970295
0.970295
0.970293
0.970291
0.970289
0.970287
0.970287
0.970285
0.970283
0.970281
0.970279
0.970279
0.970276
0.970274
0.970272
0.97027
0.97027
0.970268
0.970266
0.970264
0.970262
0.970262
0.97026
0.970258
0.970256
0.970254
0.970254
0.970252
0.97025
0.970248
0.970246
0.970246
0.970244
0.970242
0.97024
0.970238
0.970238
0.970236
0.970233
0.970231
0.970229
0.970229
0.970227
0.970225
0.970223
0.970221
0.970221
0.970219
0.970217
0.970215
0.970213
0.970213
0.970211
0.970209
0.970207
0.970205
0.970205
0.970202
0.9702
0.970198
0.970196
0.970196
0.970194
0.970192
0.97019
0.970188
0.970188
0.970186
0.970184
0.970182
0.97018
0.97018
0.970177
0.970175
0.970173
0.970171
0.970171
0.970169
0.970167
0.970165
0.970163
0.970163
0.970161
0.970159
0.970157
0.970154
0.970154
0.970152
0.97015
0.970148
0.970146
0.970146
0.970144
0.970142
0.97014
0.970137
0.970137
0.970135
0.970133
0.970131
0.970129
0.970129
0.970127
0.970125
0.970123
0.97012
0.97012
0.970118
0.970116
0.970114
0.970112
0.970112
0.97011
0.970108
0.970105
0.970103
0.970103
0.970101
0.970099
0.970097
0.970095
0.970095
0.970092
0.97009
0.970088
0.970086
0.970086
0.970084
0.970082
0.97008