<?xml version="1.0"?>
<VTKFile type="UnstructuredGrid" version="0.1" byte_order="LittleEndian">
<UnstructuredGrid>
<Piece NumberOfPoints="5000" NumberOfCells="4000">
<PointData Scalars="Reaction 0">
<DataArray type="Float32" Name="Reaction 0" format="ascii">
0.94732
0.94732
0.94732
0.94732
0.94732
0.94732
0.94732
0.94732
0.94732
0.94732
0.94732
0.94732
0.94732
0.94732
0.94732
0.94732
0.94732
0.94732
0.94732
0.94732
0.94732
0.94732
0.94732
0.94732
0.94732
0.94732
0.94732
0.94732
0.94732
0.94732
0.94732
0.94732
0.94732
0.94732
0.94732
0.94732
0.94732
0.947319
0.947319
0.947319
0.947319
0.947319
0.947319
0.947319
0.947319
0.947319
0.947319
0.947319
0.947319
0.947319
0.947319
0.947319
0.947319
0.947319
0.947319
0.947319
0.947319
0.947319
0.947319
0.947319
0.947319
0.947319
0.947319
0.947319
0.947319
0.947319
0.947319
0.947319
0.947319
0.947319
0.947319
0.947319
0.947319
0.947319
0.947319
0.947319
0.947319
0.947319
0.947319
0.947319
0.947319
0.947319
0.947319
0.947319
0.947319
0.947319
0.947319
0.947319
0.947319
0.947319
0.947319
0.947319
0.947318
0.947318
0.947318
0.947318
0.947318
0.947318
0.947318
0.947318
0.947318
0.947318
0.947318
0.947318
0.947318
0.947318
0.947318
0.947318
0.947318
0.947318
0.947318
0.947318
0.947318
0.947318
0.947318
0.947318
0.947318
0.947318
0.947318
0.947318
0.947318
0.947318
0.947318
0.947318
0.947318
0.947318
0.947317
0.947317
0.947317
0.947317
0.947317
0.947317
0.947317
0.947317
0.947317
0.947317
0.947317
0.947317
0.947317
0.947317
0.947317
0.947317
0.947317
0.947317
0.947317
0.947317
0.947317
0.947317
0.947317
0.947317
0.947317
0.947317
0.947316
0.947316
0.947316
0.947316
0.947316
0.947316
0.947316
0.947316
0.947316
0.947316
0.947316
0.947316
0.947316
0.947316
0.947316
0.947316
0.947316
0.947316
0.947316
0.947316
0.947316
0.947315
0.947315
0.947315
0.947315
0.947315
0.947315
0.947315
0.947315
0.947315
0.947315
0.947315
0.947315
0.947315
0.947315
0.947315
0.947315
0.947315
0.947315
0.947315
0.947315
0.947314
0.947314
0.947314
0.947314
0.947314
0.947314
0.947314
0.947314
0.947314
0.947314
0.947314
0.947314
0.947314
0.947314
0.947314
0.947314
0.947314
0.947314
0.947313
0.947313
0.947313
0.947313
0.947313
0.947313
0.947313
0.947313
0.947313
0.947313
0.947313
0.947313
0.947313
0.947313
0.947313
0.947313
0.947312
0.947312
0.947312
0.947312
0.947312
0.947312
0.947312
0.947312
0.947312
0.947312
0.947312
0.947312
0.947312
0.947312
0.947312
0.947311
0.947311
0.947311
0.947311
0.947311
0.947311
0.947311
0.947311
0.947311
0.947311
0.947311
0.947311
0.947311
0.947311
0.947311
0.94731
0.94731
0.94731
0.94731
0.94731
0.94731
0.94731
0.94731
0.94731
0.94731
0.94731
0.94731
0.94731
0.94731
0.947309
0.947309
0.947309
0.947309
0.947309
0.947309
0.947309
0.947309
0.947309
0.947309
0.947309
0.947309
0.947308
0.947308
0.947308
0.947308
0.947308
0.947308
0.947308
0.947308
0.947308
0.947308
0.947308
0.947308
0.947308
0.947307
0.947307
0.947307
0.947307
0.947307
0.947307
0.947307
0.947307
0.947307
0.947307
0.947307
0.947307
0.947306
0.947306
0.947306
0.947306
0.947306
0.947306
0.947306
0.947306
0.947306
0.947306
0.947306
0.947305
0.947305
0.947305
0.947305
0.947305
0.947305
0.947305
0.947305
0.947305
0.947305
0.947305
0.947305
0.947304
0.947304
0.947304
0.947304
0.947304
0.947304
0.947304
0.947304
0.947304
0.947304
0.947303
0.947303
0.947303
0.947303
0.947303
0.947303
0.947303
0.947303
0.947303
0.947303
0.947302
0.947302
0.947302
0.947302
0.947302
0.947302
0.947302
0.947302
0.947302
0.947302
0.947301
0.947301
0.947301
0.947301
0.947301
0.947301
0.947301
0.947301
0.947301
0.947301
0.9473
0.9473
0.9473
0.9473
0.9473
0.9473
0.9473
0.9473
0.9473
0.9473
0.947299
0.947299
0.947299
0.947299
0.947299
0.947299
0.947299
0.947299
0.947298
0.947298
0.947298
0.947298
0.947298
0.947298
0.947298
0.947298
0.947298
0.947298
0.947297
0.947297
0.947297
0.947297
0.947297
0.947297
0.947297
0.947297
0.947297
0.947296
0.947296
0.947296
0.947296
0.947296
0.947296
0.947296
0.947296
0.947296
0.947295
0.947295
0.947295
0.947295
0.947295
0.947295
0.947295
0.947295
0.947295
0.947294
0.947294
0.947294
0.947294
0.947294
0.947294
0.947294
0.947293
0.947293
0.947293
0.947293
0.947293
0.947293
0.947293
0.947293
0.947293
0.947292
0.947292
0.947292
0.947292
0.947292
0.947292
0.947292
0.947291
0.947291
0.947291
0.947291
0.947291
0.947291
0.947291
0.947291
0.94729
0.94729
0.94729
0.94729
0.94729
0.94729
0.94729
0.94729
0.94729
0.947289
0.947289
0.947289
0.947289
0.947289
0.947289
0.947289
0.947288
0.947288
0.947288
0.947288
0.947288
0.947288
0.947288
0.947288
0.947287
0.947287
0.947287
0.947287
0.947287
0.947287
0.947287
0.947286
0.947286
0.947286
0.947286
0.947286
0.947286
0.947286
0.947286
0.947285
0.947285
0.947285
0.947285
0.947285
0.947285
0.947284
0.947284
0.947284
0.947284
0.947284
0.947284
0.947284
0.947283
0.947283
0.947283
0.947283
0.947283
0.947283
0.947283
0.947283
0.947282
0.947282
0.947282
0.947282
0.947282
0.947282
0.947281
0.947281
0.947281
0.947281
0.947281
0.947281
0.94728
0.94728
0.94728
0.94728
0.94728
0.94728
0.94728
0.94728
0.947279
0.947279
0.947279
0.947279
0.947279
0.947279
0.947278
0.947278
0.947278
0.947278
0.947278
0.947278
0.947277
0.947277
0.947277
0.947277
0.947277
0.947277
0.947277
0.947277
0.947276
0.947276
0.947276
0.947276
0.947276
0.947276
0.947275
0.947275
0.947275
0.947275
0.947275
0.947275
0.947274
0.947274
0.947274
0.947274
0.947274
0.947274
0.947274
0.947273
0.947273
0.947273
0.947273
0.947273
0.947273
0.947272
0.947272
0.947272
0.947272
0.947272
0.947272
0.947271
0.947271
0.947271
0.947271
0.947271
0.94727
0.94727
0.94727
0.94727
0.94727
0.94727
0.947269
0.947269
0.947269
0.947269
0.947269
0.947269
0.947269
0.947268
0.947268
0.947268
0.947268
0.947268
0.947268
0.947267
0.947267
0.947267
0.947267
0.947267
0.947266
0.947266
0.947266
0.947266
0.947266
0.947266
0.947265
0.947265
0.947265
0.947265
0.947265
0.947264
0.947264
0.947264
0.947264
0.947264
0.947264
0.947263
0.947263
0.947263
0.947263
0.947263
0.947263
0.947263
0.947262
0.947262
0.947262
0.947262
0.947262
0.947261
0.947261
0.947261
0.947261
0.947261
0.94726
0.94726
0.94726
0.94726
0.94726
0.94726
0.947259
0.947259
0.947259
0.947259
0.947259
0.947258
0.947258
0.947258
0.947258
0.947258
0.947257
0.947257
0.947257
0.947257
0.947257
0.947257
0.947256
0.947256
0.947256
0.947256
0.947256
0.947255
0.947255
0.947255
0.947255
0.947255
0.947254
0.947254
0.947254
0.947254
0.947254
0.947253
0.947253
0.947253
0.947253
0.947253
0.947252
0.947252
0.947252
0.947252
0.947252
0.947251
0.947251
0.947251
0.947251
0.947251
0.947251
0.94725
0.94725
0.94725
0.94725
0.94725
0.947249
0.947249
0.947249
0.947249
0.947249
0.947248
0.947248
0.947248
0.947248
0.947248
0.947247
0.947247
0.947247
0.947247
0.947247
0.947246
0.947246
0.947246
0.947246
0.947245
0.947245
0.947245
0.947245
0.947245
0.947244
0.947244
0.947244
0.947244
0.947244
0.947243
0.947243
0.947243
0.947243
0.947243
0.947242
0.947242
0.947242
0.947242
0.947242
0.947241
0.947241
0.947241
0.947241
0.947241
0.94724
0.94724
0.94724
0.94724
0.94724
0.947239
0.947239
0.947239
0.947239
0.947238
0.947238
0.947238
0.947238
0.947238
0.947237
0.947237
0.947237
0.947237
0.947237
0.947236
0.947236
0.947236
0.947236
0.947235
0.947235
0.947235
0.947235
0.947235
0.947234
0.947234
0.947234
0.947234
0.947234
0.947233
0.947233
0.947233
0.947232
0.947232
0.947232
0.947232
0.947232
0.947231
0.947231
0.947231
0.947231
0.947231
0.94723
0.94723
0.94723
0.94723
0.947229
0.947229
0.947229
0.947229
0.947229
0.947228
0.947228
0.947228
0.947228
0.947227
0.947227
0.947227
0.947227
0.947227
0.947226
0.947226
0.947226
0.947226
0.947225
0.947225
0.947225
0.947225
0.947225
0.947224
0.947224
0.947224
0.947223
0.947223
0.947223
0.947223
0.947222
0.947222
0.947222
0.947222
0.947222
0.947221
0.947221
0.947221
0.947221
0.94722
0.94722
0.94722
0.94722
0.94722
0.947219
0.947219
0.947219
0.947219
0.947218
0.947218
0.947218
0.947217
0.947217
0.947217
0.947217
0.947217
0.947216
0.947216
0.947216
0.947216
0.947215
0.947215
0.947215
0.947215
0.947214
0.947214
0.947214
0.947214
0.947214
0.947213
0.947213
0.947213
0.947213
0.947212
0.947212
0.947212
0.947211
0.947211
0.947211
0.947211
0.94721
0.94721
0.94721
0.94721
0.94721
0.947209
0.947209
0.947209
0.947209
0.947208
0.947208
0.947208
0.947208
0.947207
0.947207
0.947207
0.947206
0.947206
0.947206
0.947206
0.947205
0.947205
0.947205
0.947205
0.947204
0.947204
0.947204
0.947204
0.947204
0.947203
0.947203
0.947203
0.947203
0.947202
0.947202
0.947202
0.947201
0.947201
0.947201
0.947201
0.9472
0.9472
0.9472
0.9472
0.947199
0.947199
0.947199
0.947199
0.947198
0.947198
0.947198
0.947197
0.947197
0.947197
0.947197
0.947196
0.947196
0.947196
0.947196
0.947195
0.947195
0.947195
0.947195
0.947194
0.947194
0.947194
0.947193
0.947193
0.947193
0.947193
0.947192
0.947192
0.947192
0.947192
0.947191
0.947191
0.947191
0.947191
0.94719
0.94719
0.94719
0.947189
0.947189
0.947189
0.947189
0.947188
0.947188
0.947188
0.947188
0.947187
0.947187
0.947187
0.947187
0.947186
0.947186
0.947186
0.947185
0.947185
0.947185
0.947185
0.947184
0.947184
0.947184
0.947184
0.947183
0.947183
0.947182
0.947182
0.947182
0.947182
0.947181
0.947181
0.947181
0.947181
0.94718
0.94718
0.94718
0.94718
0.947179
0.947179
0.947179
0.947178
0.947178
0.947178
0.947178
0.947177
0.947177
0.947177
0.947176
0.947176
0.947176
0.947175
0.947175
0.947175
0.947175
0.947174
0.947174
0.947174
0.947174
0.947173
0.947173
0.947173
0.947173
0.947172
0.947172
0.947171
0.947171
0.947171
0.947171
0.94717
0.94717
0.94717
0.94717
0.947169
0.947169
0.947169
0.947168
0.947168
0.947168
0.947167
0.947167
0.947167
0.947167
0.947166
0.947166
0.947166
0.947165
0.947165
0.947165
0.947164
0.947164
0.947164
0.947164
0.947163
0.947163
0.947163
0.947162
0.947162
0.947162
0.947161
0.947161
0.947161
0.947161
0.94716
0.94716
0.94716
0.947159
0.947159
0.947159
0.947158
0.947158
0.947158
0.947158
0.947157
0.947157
0.947156
0.947156
0.947156
0.947156
0.947155
0.947155
0.947154
0.947154
0.947154
0.947154
0.947153
0.947153
0.947153
0.947152
0.947152
0.947152
0.947151
0.947151
0.947151
0.94715
0.94715
0.94715
0.94715
0.947149
0.947149
0.947148
0.947148
0.947148
0.947148
0.947147
0.947147
0.947146
0.947146
0.947146
0.947146
0.947145
0.947145
0.947145
0.947145
0.947144
0.947144
0.947143
0.947143
0.947143
0.947143
0.947142
0.947142
0.947142
0.947141
0.947141
0.947141
0.94714
0.94714
0.94714
0.947139
0.947139
0.947139
0.947139
0.947138
0.947138
0.947137
0.947137
0.947137
0.947137
0.947136
0.947136
0.947135
0.947135
0.947135
0.947135
0.947134
0.947134
0.947134
0.947133
0.947133
0.947133
0.947132
0.947132
0.947132
0.947131
0.947131
0.947131
0.947131
0.94713
0.94713
0.947129
0.947129
0.947129
0.947128
0.947128
0.947128
0.947127
0.947127
0.947127
0.947126
0.947126
0.947125
0.947125
0.947125
0.947125
0.947124
0.947124
0.947124
0.947123
0.947123
0.947123
0.947122
0.947122
0.947122
0.947121
0.947121
0.94712
0.94712
0.94712
0.94712
0.947119
0.947119
0.947119
0.947118
0.947118
0.947117
0.947117
0.947117
0.947116
0.947116
0.947116
0.947115
0.947115
0.947115
0.947114
0.947114
0.947113
0.947113
0.947113
0.947113
0.947112
0.947112
0.947112
0.947111
0.947111
0.94711
0.94711
0.94711
0.947109
0.947109
0.947109
0.947108
0.947108
0.947108
0.947107
0.947107
0.947106
0.947106
0.947106
0.947105
0.947105
0.947105
0.947105
0.947104
0.947104
0.947103
0.947103
0.947103
0.947102
0.947102
0.947101
0.947101
0.947101
0.947101
0.9471
0.9471
0.947099
0.947099
0.947099
0.947098
0.947098
0.947097
0.947097
0.947097
0.947096
0.947096
0.947096
0.947096
0.947095
0.947095
0.947094
0.947094
0.947094
0.947093
0.947093
0.947092
0.947092
0.947092
0.947091
0.947091
0.947091
0.94709
0.94709
0.94709
0.947089
0.947089
0.947088
0.947088
0.947088
0.947087
0.947087
0.947086
0.947086
0.947086
0.947085
0.947085
0.947085
0.947085
0.947084
0.947084
0.947083
0.947083
0.947083
0.947082
0.947082
0.947081
0.947081
0.947081
0.94708
0.94708
0.947079
0.947079
0.947079
0.947078
0.947078
0.947077
0.947077
0.947077
0.947077
0.947076
0.947076
0.947075
0.947075
0.947075
0.947074
0.947074
0.947073
0.947073
0.947073
0.947072
0.947072
0.947071
0.947071
0.947071
0.94707
0.94707
0.947069
0.947069
0.947069
0.947068
0.947068
0.947067
0.947067
0.947067
0.947066
0.947066
0.947065
0.947065
0.947065
0.947064
0.947064
0.947064
0.947064
0.947063
0.947063
0.947062
0.947062
0.947062
0.947061
0.947061
0.94706
0.94706
0.94706
0.947059
0.947059
0.947058
0.947058
0.947058
0.947057
0.947057
0.947056
0.947056
0.947056
0.947055
0.947055
0.947054
0.947054
0.947054
0.947053
0.947053
0.947052
0.947052
0.947052
0.947051
0.947051
0.94705
0.94705
0.94705
0.947049
0.947049
0.947048
0.947048
0.947048
0.947047
0.947047
0.947046
0.947046
0.947046
0.947045
0.947045
0.947044
0.947044
0.947044
0.947043
0.947043
0.947042
0.947042
0.947042
0.947041
0.947041
0.94704
0.94704
0.94704
0.947039
0.947039
0.947038
0.947038
0.947038
0.947037
0.947037
0.947036
0.947035
0.947035
0.947035
0.947034
0.947034
0.947033
0.947033
0.947033
0.947032
0.947032
0.947031
0.947031
0.947031
0.94703
0.94703
0.947029
0.947029
0.947029
0.947028
0.947028
0.947027
0.947027
0.947027
0.947026
0.947026
0.947025
0.947025
0.947025
0.947024
0.947024
0.947023
0.947023
0.947022
0.947022
0.947021
0.947021
0.947021
0.94702
0.94702
0.947019
0.947019
0.947019
0.947018
0.947018
0.947017
0.947017
0.947017
0.947016
0.947016
0.947015
0.947015
0.947015
0.947014
0.947013
0.947013
0.947012
0.947012
0.947012
0.947011
0.947011
0.94701
0.94701
0.94701
0.947009
0.947009
0.947008
0.947008
0.947008
0.947007
0.947006
0.947006
0.947006
0.947005
0.947005
0.947004
0.947004
0.947004
0.947003
0.947003
0.947002
0.947002
0.947002
0.947001
0.947001
0.947
0.946999
0.946999
0.946999
0.946998
0.946998
0.946997
0.946997
0.946997
0.946996
0.946996
0.946995
0.946995
0.946995
0.946994
0.946993
0.946993
0.946993
0.946992
0.946992
0.946991
0.946991
0.946991
0.94699
0.94699
0.946989
0.946988
0.946988
0.946988
0.946987
0.946987
0.946986
0.946986
0.946986
0.946985
0.946985
0.946984
0.946984
0.946983
0.946983
0.946982
0.946982
0.946982
0.946981
0.946981
0.94698
0.946979
0.946979
0.946979
0.946978
0.946978
0.946977
0.946977
0.946977
0.946976
0.946976
0.946975
0.946975
0.946974
0.946974
0.946973
0.946973
0.946973
0.946972
0.946972
0.946971
0.94697
0.94697
0.94697
0.946969
0.946969
0.946968
0.946968
0.946967
0.946967
0.946966
0.946966
0.946966
0.946965
0.946965
0.946964
0.946963
0.946963
0.946963
0.946962
0.946962
0.946961
0.946961
0.946961
0.94696
0.946959
0.946959
0.946959
0.946958
0.946958
0.946957
0.946956
0.946956
0.946956
0.946955
0.946955
0.946954
0.946954
0.946953
0.946953
0.946952
0.946952
0.946952
0.946951
0.94695
0.94695
0.946949
0.946949
0.946949
0.946948
0.946947
0.946947
0.946947
0.946946
0.946945
0.946945
0.946944
0.946944
0.946944
0.946943
0.946942
0.946942
0.946942
0.946941
0.946941
0.94694
0.946939
0.946939
0.946939
0.946938
0.946938
0.946937
0.946937
0.946936
0.946936
0.946935
0.946935
0.946935
0.946934
0.946933
0.946933
0.946932
0.946932
0.946932
0.946931
0.94693
0.94693
0.94693
0.946929
0.946929
0.946928
0.946927
0.946927
0.946927
0.946926
0.946926
0.946925
0.946925
0.946924
0.946924
0.946923
0.946923
0.946923
0.946922
0.946921
0.946921
0.94692
0.94692
0.94692
0.946919
0.946918
0.946918
0.946918
0.946917
0.946917
0.946916
0.946915
0.946915
0.946915
0.946914
0.946913
0.946913
0.946913
0.946912
0.946912
0.946911
0.94691
0.94691
0.94691
0.946909
0.946908
0.946908
0.946908
0.946907
0.946906
0.946906
0.946905
0.946905
0.946905
0.946904
0.946903
0.946903
0.946903
0.946902
0.946901
0.946901
0.9469
0.9469
0.9469
0.946899
0.946898
0.946898
0.946898
0.946897
0.946896
0.946896
0.946895
0.946895
0.946894
0.946894
0.946893
0.946892
0.946892
0.946892
0.946891
0.946891
0.94689
0.94689
0.946889
0.946889
0.946888
0.946887
0.946887
0.946887
0.946886
0.946885
0.946885
0.946885
0.946884
0.946883
0.946883
0.946882
0.946882
0.946881
0.946881
0.94688
0.946879
0.946879
0.946879
0.946878
0.946877
0.946877
0.946877
0.946876
0.946876
0.946875
0.946874
0.946874
0.946874
0.946873
0.946872
0.946872
0.946872
0.946871
0.94687
0.94687
0.946869
0.946869
0.946868
0.946868
0.946867
0.946866
0.946866
0.946866
0.946865
0.946864
0.946864
0.946864
0.946863
0.946862
0.946862
0.946861
0.946861
0.94686
0.94686
0.946859
0.946858
0.946858
0.946858
0.946857
0.946856
0.946856
0.946856
0.946855
0.946854
0.946854
0.946853
0.946853
0.946852
0.946851
0.946851
0.94685
0.94685
0.946849
0.946849
0.946848
0.946847
0.946847
0.946847
0.946846
0.946845
0.946845
0.946845
0.946844
0.946843
0.946843
0.946842
0.946842
0.946841
0.946841
0.94684
0.946839
0.946839
0.946839
0.946838
0.946837
0.946836
0.946836
0.946836
0.946835
0.946834
0.946834
0.946834
0.946833
0.946832
0.946832
0.946831
0.946831
0.94683
0.94683
0.946829
0.946828
0.946828
0.946828
0.946827
0.946826
0.946825
0.946825
0.946825
0.946824
0.946823
0.946823
0.946823
0.946822
0.946821
0.946821
0.94682
0.94682
0.946819
0.946818
0.946818
0.946817
0.946817
0.946816
0.946816
0.946815
0.946814
0.946814
0.946814
0.946813
0.946812
0.946811
0.946811
0.946811
0.94681
0.946809
0.946809
0.946809
0.946808
0.946807
0.946806
0.946806
0.946806
0.946805
0.946804
0.946804
0.946803
0.946803
0.946802
0.946802
0.946801
0.9468
0.9468
0.946799
0.946799
0.946798
0.946797
0.946797
0.946797
0.946796
0.946795
0.946794
0.946794
0.946794
0.946793
0.946792
0.946791
0.946791
0.946791
0.94679
0.946789
0.946789
0.946789
0.946788
0.946787
0.946786
0.946786
0.946786
0.946785
0.946784
0.946784
0.946783
0.946783
0.946782
0.946781
0.946781
0.94678
0.94678
0.946779
0.946778
0.946778
0.946777
0.946777
0.946776
0.946776
0.946775
0.946774
0.946774
0.946773
0.946773
0.946772
0.946771
0.946771
0.94677
0.94677
0.946769
0.946768
0.946768
0.946767
0.946767
0.946766
0.946765
0.946765
0.946765
0.946764
0.946763
0.946762
0.946762
0.946762
0.946761
0.94676
0.946759
0.946759
0.946759
0.946758
0.946757
0.946756
0.946756
0.946756
0.946755
0.946754
0.946753
0.946753
0.946753
0.946752
0.946751
0.94675
0.94675
0.94675
0.946749
0.946748
0.946747
0.946747
0.946747
0.946746
0.946745
0.946744
0.946744
0.946743
0.946743
0.946742
0.946741
0.946741
0.94674
0.94674
0.946739
0.946738
0.946738
0.946737
0.946736
0.946736
0.946735
0.946735
0.946734
0.946733
0.946733
0.946732
0.946732
0.946731
0.94673
0.946729
0.946729
0.946729
0.946728
0.946727
0.946726
0.946725
0.946725
0.946725
0.946724
0.946723
0.946722
0.946722
0.946722
0.946721
0.94672
0.946719
0.946719
0.946718
0.946718
0.946717
0.946716
0.946716
0.946715
0.946715
0.946714
0.946713
0.946713
0.946712
0.946712
0.946711
0.94671
0.94671
0.946709
0.946709
0.946708
0.946707
0.946707
0.946706
0.946706
0.946705
0.946704
0.946704
0.946703
0.946702
0.946702
0.946701
0.946701
0.9467
0.946699
0.946699
0.946698
0.946698
0.946697
0.946696
0.946695
0.946695
0.946695
0.946694
0.946693
0.946692
0.946691
0.946691
0.946691
0.94669
0.946689
0.946688
0.946688
0.946687
0.946687
0.946686
0.946685
0.946685
0.946684
0.946683
0.946683
0.946682
0.946682
0.946681
0.94668
0.946679
0.946679
0.946679
0.946678
0.946677
0.946676
0.946675
0.946675
0.946675
0.946674
0.946673
0.946672
0.946672
0.946671
0.946671
0.94667
0.946669
0.946669
0.946668
0.946667
0.946666
0.946666
0.946666
0.946665
0.946664
0.946663
0.946662
0.946662
0.946662
0.946661
0.94666
0.946659
0.946659
0.946658
0.946657
0.946657
0.946656
0.946656
0.946655
0.946654
0.946653
0.946652
0.946652
0.946652
0.946651
0.94665
0.946649
0.946649
0.946648
0.946648
0.946647
0.946646
0.946646
0.946645
0.946644
0.946643
0.946643
0.946643
0.946642
0.946641
0.94664
0.946639
0.946639
0.946638
0.946638
0.946637
0.946636
0.946636
0.946635
0.946634
0.946633
0.946633
0.946633
0.946632
0.946631
0.94663
0.946629
0.946629
0.946628
0.946627
0.946627
0.946626
0.946626
0.946625
0.946624
0.946623
0.946622
0.946622
0.946622
0.946621
0.94662
0.946619
0.946619
0.946618
0.946617
0.946616
0.946616
0.946616
0.946615
0.946614
0.946613
0.946612
0.946612
0.946611
0.946611
0.94661
0.946609
0.946609
0.946608
0.946607
0.946606
0.946605
0.946605
0.946605
0.946604
0.946603
0.946602
0.946602
0.946601
0.9466
0.946599
0.946599
0.946599
0.946598
0.946597
0.946596
0.946595
0.946595
0.946594
0.946593
0.946592
0.946592
0.946592
0.946591
0.94659
0.946589
0.946588
0.946588
0.946587
0.946586
0.946586
0.946585
0.946585
0.946584
0.946583
0.946582
0.946581
0.946581
0.94658
0.946579
0.946579
0.946578
0.946578
0.946577
0.946576
0.946575
0.946574
0.946574
0.946573
0.946572
0.946572
0.946571
0.946571
0.94657
0.946569
0.946568
0.946567
0.946567
0.946566
0.946565
0.946565
0.946564
0.946564
0.946563
0.946562
0.946561
0.94656
0.94656
0.946559
0.946558
0.946557
0.946557
0.946557
0.946556
0.946555
0.946554
0.946553
0.946553
0.946552
0.946551
0.94655
0.946549
0.946549
0.946549
0.946548
0.946547
0.946546
0.946546
0.946545
0.946544
0.946543
0.946542
0.946542
0.946541
0.946541
0.94654
0.946539
0.946539
0.946538
0.946537
0.946536
0.946535
0.946535
0.946534
0.946533
0.946532
0.946531
0.946531
0.946531
0.94653
0.946529
0.946528
0.946528
0.946527
0.946526
0.946525
0.946524
0.946524
0.946523
0.946522
0.946521
0.94652
0.94652
0.94652
0.946519
0.946518
0.946517
0.946517
0.946516
0.946515
0.946514
0.946513
0.946513
0.946512
0.946511
0.94651
0.946509
0.946509
0.946508
0.946507
0.946506
0.946505
0.946505
0.946504
0.946503
0.946503
0.946502
0.946502
0.946501
0.9465
0.946499
0.946498
0.946498
0.946497
0.946496
0.946495
0.946494
0.946494
0.946493
0.946492
0.946491
0.946491
0.946491
0.94649
0.946489
0.946488
0.946487
0.946487
0.946486
0.946485
0.946484
0.946483
0.946483
0.946482
0.946481
0.94648
0.94648
0.94648
0.946479
0.946478
0.946477
0.946476
0.946476
0.946475
0.946474
0.946473
0.946472
0.946472
0.946471
0.94647
0.946469
0.946468
0.946468
0.946467
0.946466
0.946466
0.946465
0.946465
0.946464
0.946463
0.946462
0.946461
0.946461
0.94646
0.946459
0.946458
0.946457
0.946457
0.946456
0.946455
0.946454
0.946453
0.946453
0.946452
0.946451
0.94645
0.946449
0.946449
0.946448
0.946447
0.946446
0.946446
0.946446
0.946445
0.946444
0.946443
0.946442
0.946442
0.946441
0.94644
0.946439
0.946438
0.946438
0.946437
0.946436
0.946435
0.946434
0.946434
0.946433
0.946432
0.946431
0.94643
0.94643
0.946429
0.946428
0.946427
0.946426
0.946426
0.946425
0.946424
0.946423
0.946422
0.946422
0.946421
0.94642
0.946419
0.946418
0.946418
0.946417
0.946416
0.946415
0.946414
0.946414
0.946413
0.946412
0.946411
0.94641
0.94641
0.946409
0.946408
0.946407
0.946406
0.946406
0.946405
0.946404
0.946403
0.946402
0.946402
0.946401
0.9464
0.946399
0.946398
0.946398
0.946397
0.946396
0.946395
0.946394
0.946394
0.946393
0.946392
0.946391
0.946391
0.946391
0.94639
0.946389
0.946388
0.946387
0.946387
0.946386
0.946385
0.946383
0.946382
0.946382
0.946381
0.94638
0.946379
0.946378
0.946378
0.946377
0.946376
0.946375
0.946374
0.946374
0.946373
0.946372
0.946371
0.94637
0.94637
0.946369
0.946368
0.946367
0.946366
0.946366
0.946365
0.946364
0.946363
0.946362
0.946362
0.946361
0.94636
0.946359
0.946358
0.946358
0.946357
0.946356
0.946355
0.946354
0.946354
0.946353
0.946352
0.946351
0.94635
0.94635
0.946349
0.946348
0.946347
0.946346
0.946346
0.946345
0.946344
0.946343
0.946342
0.946342
0.946341
0.94634
0.946339
0.946338
0.946338
0.946337
0.946336
0.946335
0.946334
0.946334
0.946333
0.946332
0.946331
0.94633
0.94633
0.946329
0.946327
0.946326
0.946325
0.946325
0.946324
0.946323
0.946322
0.946321
0.946321
0.94632
0.946319
0.946318
0.946317
0.946317
0.946316
0.946315
0.946314
0.946313
0.946313
0.946312
0.946311
0.94631
0.946309
0.946309
0.946308
0.946307
0.946306
0.946304
0.946304
0.946303
0.946302
0.946301
0.9463
0.9463
0.946299
0.946298
0.946297
0.946296
0.946296
0.946295
0.946294
0.946293
0.946292
0.946292
0.946291
0.946289
0.946288
0.946287
0.946287
0.946286
0.946285
0.946284
0.946283
0.946283
0.946282
0.946281
0.94628
0.946279
0.946279
0.946277
0.946276
0.946275
0.946274
0.946274
0.946273
0.946272
0.946271
0.94627
0.94627
0.946269
0.946268
0.946267
0.946266
0.946266
0.946264
0.946263
0.946262
0.946261
0.946261
0.94626
0.946259
0.946258
0.946257
0.946257
0.946256
0.946255
0.946254
0.946253
0.946253
0.946252
0.946251
0.94625
0.946249
0.946249
0.946248
0.946246
0.946245
0.946244
0.946244
0.946243
0.946242
0.946241
0.94624
0.94624
0.946239
0.946238
0.946237
0.946236
0.946236
0.946235
0.946234
0.946233
0.946231
0.946231
0.94623
0.946229
0.946228
0.946227
0.946227
0.946226
0.946225
0.946224
0.946223
0.946223
0.946222
0.94622
0.946219
0.946218
0.946218
0.946217
0.946216
0.946215
0.946214
0.946214
0.946213
0.946212
0.946211
0.946209
0.946209
0.946208
0.946207
0.946206
0.946205
0.946205
0.946204
0.946203
0.946202
0.946201
0.946201
0.946199
0.946198
0.946197
0.946196
0.946196
0.946195
0.946194
0.946193
0.946192
0.946192
0.94619
0.946189
0.946188
0.946187
0.946187
0.946186
0.946185
0.946184
0.946183
0.946183
0.946181
0.94618
0.946179
0.946178
0.946178
0.946177
0.946176
0.946175
0.946174
0.946174
0.946172
0.946171
0.94617
0.946169
0.946169
0.946168
0.946167
0.946166
0.946164
0.946164
0.946163
0.946162
0.946161
0.94616
0.94616
0.946159
0.946158
0.946156
0.946155
0.946155
0.946154
0.946153
0.946152
0.946151
0.946151
0.94615
0.946148
0.946147
0.946146
0.946146
0.946145
0.946144
0.946143
0.946142
0.946142
0.94614
0.946139
0.946138
0.946137
0.946137
0.946136
0.946135
0.946134
0.946132
0.946132
0.946131
0.94613
0.946129
0.946128
0.946128
0.946127
0.946125
0.946124
0.946123
0.946123
0.946122
0.946121
0.94612
0.946118
0.946118
0.946117
0.946116
0.946115
0.946114
0.946114
0.946113
0.946111
0.94611
0.946109
0.946109
0.946108
0.946107
0.946106
0.946104
0.946104
0.946103
0.946102
0.946101
0.9461
0.9461
0.946099
0.946097
0.946096
0.946095
0.946095
0.946094
0.946093
0.946092
0.94609
0.94609
0.946089
0.946088
0.946087
0.946086
0.946086
0.946084
0.946083
0.946082
0.946081
0.946081
0.94608
0.946078
0.946077
0.946076
0.946076
0.946075
0.946074
0.946072
0.946071
0.946071
0.94607
0.946069
0.946068
0.946066
0.946066
0.946065
0.946064
0.946063
0.946062
0.946062
0.94606
0.946059
0.946058
0.946057
0.946057
0.946056
0.946054
0.946053
0.946052
0.946052
0.946051
0.946049
0.946048
0.946047
0.946047
0.946046
0.946044
0.946043
0.946042
0.946042
0.946041
0.946039
0.946038
0.946037
0.946037
0.946036
0.946035
0.946033
0.946032
0.946032
0.946031
0.94603
0.946029
0.946027
0.946027
0.946026
0.946025
0.946024
0.946023
0.946023
0.946021
0.94602
0.946019
0.946018
0.946018
0.946017
0.946015
0.946014
0.946013
0.946013
0.946012
0.946011
0.946009
0.946008
0.946008
0.946007
0.946006
0.946005
0.946003
0.946003
0.946002
0.946001
0.946
0.945999
0.945999
0.945997
0.945996
0.945995
0.945994
0.945994
0.945992
0.945991
0.94599
0.945989
0.945989
0.945987
0.945986
0.945985
0.945984
0.945984
0.945983
0.945981
0.94598
0.945979
0.945979
0.945978
0.945976
0.945975
0.945974
0.945974
0.945973
0.945971
0.94597
0.945969
0.945969
0.945968
0.945966
0.945965
0.945964
0.945964
0.945963
0.945961
0.94596
0.945959
0.945959
0.945958
0.945956
0.945955
0.945954
0.945954
0.945953
0.945951
0.94595
0.945949
0.945949
0.945947
0.945946
0.945945
0.945944
0.945944
0.945942
0.945941
0.94594
0.945939
0.945939
0.945937
0.945936
0.945935
0.945934
0.945934
0.945932
0.945931
0.94593
0.945928
0.945928
0.945927
0.945926
0.945925
0.945923
0.945923
0.945922
0.945921
0.94592
0.945918
0.945918
0.945917
0.945916
0.945914
0.945913
0.945913
0.945912
0.945911
0.945909
0.945908
0.945908
0.945907
0.945905
0.945904
0.945903
0.945903
0.945902
0.9459
0.945899
0.945898
0.945898
0.945896
0.945895
0.945894
0.945893
0.945893
0.945891
0.94589
0.945889
0.945887
0.945887
0.945886
0.945885
0.945883
0.945882
0.945882
0.945881
0.94588
0.945878
0.945877
0.945877
0.945876
0.945874
0.945873
0.945872
0.945872
0.94587
0.945869
0.945868
0.945867
0.945867
0.945865
0.945864
0.945863
0.945861
0.945861
0.94586
0.945859
0.945857
0.945856
0.945856
0.945855
0.945853
0.945852
0.945851
0.945851
0.945849
0.945848
0.945847
0.945845
0.945845
0.945844
0.945843
0.945842
0.94584
0.94584
0.945839
0.945838
0.945836
0.945835
0.945835
0.945833
0.945832
0.945831
0.945829
0.945829
0.945828
0.945827
0.945825
0.945824
0.945824
0.945823
0.945821
0.94582
0.945819
0.945819
0.945817
0.945816
0.945815
0.945813
0.945813
0.945812
0.94581
0.945809
0.945808
0.945808
0.945806
0.945805
0.945804
0.945802
0.945802
0.945801
0.945799
0.945798
0.945797
0.945797
0.945795
0.945794
0.945793
0.945791
0.945791
0.94579
0.945789
0.945787
0.945786
0.945786
0.945785
0.945783
0.945782
0.945781
0.945781
0.945779
0.945778
0.945777
0.945775
0.945775
0.945774
0.945773
0.945771
0.94577
0.94577
0.945769
0.945767
0.945766
0.945765
0.945765
0.945763
0.945762
0.945761
0.945759
0.945759
0.945758
0.945757
0.945755
0.945754
0.945754
0.945753
0.945751
0.94575
0.945749
0.945749
0.945747
0.945746
0.945744
0.945743
0.945743
0.945742
0.94574
0.945739
0.945738
0.945738
0.945736
0.945735
0.945733
0.945732
0.945732
0.945731
0.945729
0.945728
0.945727
0.945727
0.945725
0.945724
0.945722
0.945721
0.945721
0.94572
0.945718
0.945717
0.945715
0.945715
0.945714
0.945713
0.945711
0.94571
0.94571
0.945708
0.945707
0.945706
0.945704
0.945704
0.945703
0.945701
0.9457
0.945699
0.945699
0.945697
0.945696
0.945694
0.945693
0.945693
0.945692
0.94569
0.945689
0.945687
0.945687
0.945686
0.945685
0.945683
0.945682
0.945682
0.94568
0.945679
0.945678
0.945676
0.945676
0.945675
0.945673
0.945672
0.945671
0.945671
0.945669
0.945668
0.945666
0.945665
0.945665
0.945663
0.945662
0.945661
0.945659
0.945659
0.945658
0.945656
0.945655
0.945653
0.945653
0.945652
0.945651
0.945649
0.945648
0.945648
0.945646
0.945645
0.945644
0.945642
0.945642
0.945641
0.945639
0.945638
0.945636
0.945636
0.945635
0.945633
0.945632
0.945631
0.945631
0.945629
0.945628
0.945626
0.945625
0.945625
0.945623
0.945622
0.945621
0.945619
0.945619
0.945618
0.945616
0.945615
0.945613
0.945613
0.945612
0.94561
0.945609
0.945607
0.945607
0.945606
0.945605
0.945603
0.945602
0.945602
0.9456
0.945599
0.945597
0.945596
0.945596
0.945594
0.945593
0.945591
0.94559
0.94559
0.945588
0.945587
0.945585
0.945584
0.945584
0.945582
0.945581
0.945579
0.945578
0.945578
0.945577
0.945575
0.945574
0.945572
0.945572
0.945571
0.945569
0.945567
0.945566
0.945566
0.945564
0.945563
0.945561
0.94556
0.94556
0.945558
0.945557
0.945555
0.945554
0.945554