<?xml version="1.0"?>
<VTKFile type="UnstructuredGrid" version="0.1" byte_order="LittleEndian">
<UnstructuredGrid>
<Piece NumberOfPoints="5000" NumberOfCells="4000">
<PointData Scalars="Reaction 0">
<DataArray type="Float32" Name="Reaction 0" format="ascii">
0.846416
0.846416
0.846416
0.846416
0.846416
0.846416
0.846416
0.846416
0.846416
0.846416
0.846416
0.846416
0.846416
0.846416
0.846416
0.846416
0.846416
0.846417
0.846417
0.846417
0.846417
0.846417
0.846417
0.846417
0.846417
0.846417
0.846417
0.846418
0.846418
0.846418
0.846418
0.846418
0.846418
0.846418
0.846419
0.846419
0.846419
0.846419
0.846419
0.84642
0.84642
0.84642
0.84642
0.84642
0.846421
0.846421
0.846421
0.846421
0.846421
0.846422
0.846422
0.846422
0.846422
0.846423
0.846423
0.846423
0.846423
0.846423
0.846424
0.846424
0.846424
0.846425
0.846425
0.846425
0.846426
0.846426
0.846426
0.846426
0.846427
0.846427
0.846427
0.846428
0.846428
0.846428
0.846429
0.846429
0.846429
0.84643
0.84643
0.846431
0.846431
0.846431
0.846432
0.846432
0.846433
0.846433
0.846433
0.846434
0.846434
0.846435
0.846435
0.846435
0.846436
0.846436
0.846437
0.846437
0.846437
0.846438
0.846438
0.846439
0.846439
0.84644
0.84644
0.846441
0.846441
0.846441
0.846442
0.846443
0.846443
0.846444
0.846444
0.846444
0.846445
0.846446
0.846446
0.846446
0.846447
0.846448
0.846448
0.846449
0.846449
0.84645
0.846451
0.846451
0.846452
0.846452
0.846453
0.846453
0.846454
0.846455
0.846455
0.846456
0.846457
0.846457
0.846458
0.846458
0.846459
0.84646
0.84646
0.846461
0.846461
0.846462
0.846463
0.846464
0.846465
0.846465
0.846465
0.846466
0.846467
0.846468
0.846468
0.846469
0.84647
0.846471
0.846471
0.846471
0.846472
0.846473
0.846474
0.846475
0.846475
0.846476
0.846477
0.846478
0.846479
0.846479
0.84648
0.846481
0.846482
0.846483
0.846483
0.846484
0.846485
0.846486
0.846487
0.846487
0.846488
0.846489
0.84649
0.846491
0.846491
0.846492
0.846493
0.846494
0.846495
0.846495
0.846496
0.846497
0.846498
0.846499
0.846499
0.846501
0.846502
0.846503
0.846504
0.846504
0.846505
0.846506
0.846507
0.846509
0.846509
0.84651
0.846511
0.846512
0.846513
0.846513
0.846514
0.846516
0.846517
0.846518
0.846518
0.846519
0.84652
0.846522
0.846523
0.846523
0.846524
0.846525
0.846527
0.846528
0.846528
0.846529
0.846531
0.846532
0.846533
0.846533
0.846534
0.846536
0.846537
0.846538
0.846538
0.84654
0.846541
0.846542
0.846544
0.846544
0.846545
0.846547
0.846548
0.846549
0.846549
0.846551
0.846552
0.846554
0.846555
0.846555
0.846556
0.846558
0.846559
0.846561
0.846561
0.846562
0.846564
0.846565
0.846567
0.846567
0.846568
0.846569
0.846571
0.846572
0.846572
0.846574
0.846576
0.846577
0.846579
0.846579
0.84658
0.846582
0.846583
0.846585
0.846585
0.846586
0.846588
0.846589
0.846591
0.846591
0.846593
0.846594
0.846596
0.846598
0.846598
0.846599
0.846601
0.846602
0.846604
0.846604
0.846606
0.846607
0.846609
0.846611
0.846611
0.846612
0.846614
0.846616
0.846617
0.846617
0.846619
0.846621
0.846623
0.846624
0.846624
0.846626
0.846628
0.84663
0.846631
0.846631
0.846633
0.846635
0.846637
0.846639
0.846639
0.84664
0.846642
0.846644
0.846646
0.846646
0.846648
0.846649
0.846651
0.846653
0.846653
0.846655
0.846657
0.846659
0.846661
0.846661
0.846662
0.846664
0.846666
0.846668
0.846668
0.84667
0.846672
0.846674
0.846676
0.846676
0.846678
0.84668
0.846682
0.846684
0.846684
0.846686
0.846688
0.84669
0.846692
0.846692
0.846694
0.846696
0.846698
0.8467
0.8467
0.846702
0.846704
0.846706
0.846708
0.846708
0.84671
0.846712
0.846714
0.846716
0.846716
0.846718
0.84672
0.846722
0.846725
0.846725
0.846727
0.846729
0.846731
0.846733
0.846733
0.846735
0.846737
0.846739
0.846742
0.846742
0.846744
0.846746
0.846748
0.84675
0.84675
0.846753
0.846755
0.846757
0.846759
0.846759
0.846761
0.846764
0.846766
0.846768
0.846768
0.846771
0.846773
0.846775
0.846777
0.846777
0.84678
0.846782
0.846784
0.846787
0.846787
0.846789
0.846791
0.846794
0.846796
0.846796
0.846798
0.846801
0.846803
0.846805
0.846805
0.846808
0.84681
0.846812
0.846815
0.846815
0.846817
0.84682
0.846822
0.846825
0.846825
0.846827
0.846829
0.846832
0.846834
0.846834
0.846837
0.846839
0.846842
0.846844
0.846844
0.846847
0.846849
0.846852
0.846854
0.846854
0.846857
0.846859
0.846862
0.846864
0.846864
0.846867
0.846869
0.846872
0.846875
0.846875
0.846877
0.84688
0.846882
0.846885
0.846885
0.846888
0.84689
0.846893
0.846895
0.846895
0.846898
0.846901
0.846903
0.846906
0.846906
0.846909
0.846911
0.846914
0.846917
0.846917
0.846919
0.846922
0.846925
0.846928
0.846928
0.84693
0.846933
0.846936
0.846938
0.846938
0.846941
0.846944
0.846947
0.84695
0.84695
0.846952
0.846955
0.846958
0.846961
0.846961
0.846964
0.846966
0.846969
0.846972
0.846972
0.846975
0.846978
0.846981
0.846983
0.846983
0.846986
0.846989
0.846992
0.846995
0.846995
0.846998
0.847001
0.847004
0.847007
0.847007
0.847009
0.847012
0.847015
0.847018
0.847018
0.847021
0.847024
0.847027
0.84703
0.84703
0.847033
0.847036
0.847039
0.847042
0.847042
0.847045
0.847048
0.847051
0.847054
0.847054
0.847057
0.84706
0.847063
0.847066
0.847066
0.84707
0.847073
0.847076
0.847079
0.847079
0.847082
0.847085
0.847088
0.847091
0.847091
0.847094
0.847097
0.847101
0.847104
0.847104
0.847107
0.84711
0.847113
0.847116
0.847116
0.84712
0.847123
0.847126
0.847129
0.847129
0.847132
0.847136
0.847139
0.847142
0.847142
0.847145
0.847149
0.847152
0.847155
0.847155
0.847158
0.847162
0.847165
0.847168
0.847168
0.847172
0.847175
0.847178
0.847182
0.847182
0.847185
0.847188
0.847192
0.847195
0.847195
0.847198
0.847202
0.847205
0.847208
0.847208
0.847212
0.847215
0.847219
0.847222
0.847222
0.847225
0.847229
0.847232
0.847236
0.847236
0.847239
0.847243
0.847246
0.847249
0.847249
0.847253
0.847256
0.84726
0.847263
0.847263
0.847267
0.84727
0.847274
0.847277
0.847277
0.847281
0.847285
0.847288
0.847292
0.847292
0.847295
0.847299
0.847302
0.847306
0.847306
0.847309
0.847313
0.847317
0.84732
0.84732
0.847324
0.847328
0.847331
0.847335
0.847335
0.847338
0.847342
0.847346
0.847349
0.847349
0.847353
0.847357
0.84736
0.847364
0.847364
0.847368
0.847372
0.847375
0.847379
0.847379
0.847383
0.847387
0.84739
0.847394
0.847394
0.847398
0.847402
0.847405
0.847409
0.847409
0.847413
0.847417
0.847421
0.847424
0.847424
0.847428
0.847432
0.847436
0.84744
0.84744
0.847443
0.847447
0.847451
0.847455
0.847455
0.847459
0.847463
0.847467
0.847471
0.847471
0.847475
0.847478
0.847482
0.847486
0.847486
0.84749
0.847494
0.847498
0.847502
0.847502
0.847506
0.84751
0.847514
0.847518
0.847518
0.847522
0.847526
0.84753
0.847534
0.847534
0.847538
0.847542
0.847546
0.84755
0.84755
0.847554
0.847558
0.847562
0.847566
0.847566
0.84757
0.847574
0.847579
0.847583
0.847583
0.847587
0.847591
0.847595
0.847599
0.847599
0.847603
0.847607
0.847612
0.847616
0.847616
0.84762
0.847624
0.847628
0.847632
0.847632
0.847637
0.847641
0.847645
0.847649
0.847649
0.847653
0.847658
0.847662
0.847666
0.847666
0.84767
0.847675
0.847679
0.847683
0.847683
0.847687
0.847692
0.847696
0.8477
0.8477
0.847705
0.847709
0.847713
0.847718
0.847718
0.847722
0.847726
0.847731
0.847735
0.847735
0.847739
0.847744
0.847748
0.847753
0.847753
0.847757
0.847761
0.847766
0.84777
0.84777
0.847775
0.847779
0.847783
0.847788
0.847788
0.847792
0.847797
0.847801
0.847806
0.847806
0.84781
0.847815
0.847819
0.847824
0.847824
0.847828
0.847833
0.847837
0.847842
0.847842
0.847846
0.847851
0.847855
0.84786
0.84786
0.847865
0.847869
0.847874
0.847878
0.847878
0.847883
0.847887
0.847892
0.847897
0.847897
0.847901
0.847906
0.847911
0.847915
0.847915
0.84792
0.847925
0.847929
0.847934
0.847934
0.847939
0.847943
0.847948
0.847953
0.847953
0.847957
0.847962
0.847967
0.847971
0.847971
0.847976
0.847981
0.847986
0.84799
0.84799
0.847995
0.848
0.848005
0.84801
0.84801
0.848014
0.848019
0.848024
0.848029
0.848029
0.848034
0.848038
0.848043
0.848048
0.848048
0.848053
0.848058
0.848063
0.848068
0.848068
0.848072
0.848077
0.848082
0.848087
0.848087
0.848092
0.848097
0.848102
0.848107
0.848107
0.848112
0.848117
0.848122
0.848127
0.848127
0.848132
0.848137
0.848142
0.848147
0.848147
0.848152
0.848157
0.848162
0.848167
0.848167
0.848172
0.848177
0.848182
0.848187
0.848187
0.848192
0.848197
0.848202
0.848207
0.848207
0.848212
0.848217
0.848222
0.848227
0.848227
0.848232
0.848238
0.848243
0.848248
0.848248
0.848253
0.848258
0.848263
0.848268
0.848268
0.848274
0.848279
0.848284
0.848289
0.848289
0.848294
0.8483
0.848305
0.84831
0.84831
0.848315
0.84832
0.848326
0.848331
0.848331
0.848336
0.848341
0.848347
0.848352
0.848352
0.848357
0.848362
0.848368
0.848373
0.848373
0.848378
0.848384
0.848389
0.848394
0.848394
0.8484
0.848405
0.84841
0.848416
0.848416
0.848421
0.848426
0.848432
0.848437
0.848437
0.848443
0.848448
0.848453
0.848459
0.848459
0.848464
0.84847
0.848475
0.848481
0.848481
0.848486
0.848492
0.848497
0.848502
0.848502
0.848508
0.848513
0.848519
0.848524
0.848524
0.84853
0.848535
0.848541
0.848547
0.848547
0.848552
0.848558
0.848563
0.848569
0.848569
0.848574
0.84858
0.848585
0.848591
0.848591
0.848597
0.848602
0.848608
0.848613
0.848613
0.848619
0.848625
0.84863
0.848636
0.848636
0.848642
0.848647
0.848653
0.848659
0.848659
0.848664
0.84867
0.848676
0.848681
0.848681
0.848687
0.848693
0.848699
0.848704
0.848704
0.84871
0.848716
0.848721
0.848727
0.848727
0.848733
0.848739
0.848745
0.84875
0.84875
0.848756
0.848762
0.848768
0.848774
0.848774
0.848779
0.848785
0.848791
0.848797
0.848797
0.848803
0.848809
0.848814
0.84882
0.84882
0.848826
0.848832
0.848838
0.848844
0.848844
0.84885
0.848856
0.848862
0.848868
0.848868
0.848874
0.848879
0.848885
0.848891
0.848891
0.848897
0.848903
0.848909
0.848915
0.848915
0.848921
0.848927
0.848933
0.848939
0.848939
0.848945
0.848951
0.848957
0.848963
0.848963
0.848969
0.848976
0.848982
0.848988
0.848988
0.848994
0.849
0.849006
0.849012
0.849012
0.849018
0.849024
0.84903
0.849036
0.849036
0.849043
0.849049
0.849055
0.849061
0.849061
0.849067
0.849073
0.84908
0.849086
0.849086
0.849092
0.849098
0.849104
0.849111
0.849111
0.849117
0.849123
0.849129
0.849136
0.849136
0.849142
0.849148
0.849154
0.849161
0.849161
0.849167
0.849173
0.849179
0.849186
0.849186
0.849192
0.849198
0.849205
0.849211
0.849211
0.849217
0.849224
0.84923
0.849236
0.849236
0.849243
0.849249
0.849255
0.849262
0.849262
0.849268
0.849275
0.849281
0.849287
0.849287
0.849294
0.8493
0.849307
0.849313
0.849313
0.84932
0.849326
0.849333
0.849339
0.849339
0.849345
0.849352
0.849358
0.849365
0.849365
0.849371
0.849378
0.849384
0.849391
0.849391
0.849398
0.849404
0.849411
0.849417
0.849417
0.849424
0.84943
0.849437
0.849443
0.849443
0.84945
0.849457
0.849463
0.84947
0.84947
0.849476
0.849483
0.84949
0.849496
0.849496
0.849503
0.84951
0.849516
0.849523
0.849523
0.84953
0.849536
0.849543
0.84955
0.84955
0.849556
0.849563
0.84957
0.849577
0.849577
0.849583
0.84959
0.849597
0.849604
0.849604
0.84961
0.849617
0.849624
0.849631
0.849631
0.849637
0.849644
0.849651
0.849658
0.849658
0.849665
0.849671
0.849678
0.849685
0.849685
0.849692
0.849699
0.849706
0.849713
0.849713
0.849719
0.849726
0.849733
0.84974
0.84974
0.849747
0.849754
0.849761
0.849768
0.849768
0.849775
0.849782
0.849789
0.849795
0.849795
0.849802
0.849809
0.849816
0.849823
0.849823
0.84983
0.849837
0.849844
0.849851
0.849851
0.849858
0.849865
0.849872
0.849879
0.849879
0.849886
0.849893
0.849901
0.849908
0.849908
0.849915
0.849922
0.849929
0.849936
0.849936
0.849943
0.84995
0.849957
0.849964
0.849964
0.849971
0.849979
0.849986
0.849993
0.849993
0.85
0.850007
0.850014
0.850022
0.850022
0.850029
0.850036
0.850043
0.85005
0.85005
0.850058
0.850065
0.850072
0.850079
0.850079
0.850086
0.850094
0.850101
0.850108
0.850108
0.850115
0.850123
0.85013
0.850137
0.850137
0.850145
0.850152
0.850159
0.850167
0.850167
0.850174
0.850181
0.850189
0.850196
0.850196
0.850203
0.850211
0.850218
0.850225
0.850225
0.850233
0.85024
0.850248
0.850255
0.850255
0.850262
0.85027
0.850277
0.850285
0.850285
0.850292
0.850299
0.850307
0.850314
0.850314
0.850322
0.850329
0.850337
0.850344
0.850344
0.850352
0.850359
0.850367
0.850374
0.850374
0.850382
0.850389
0.850397
0.850404
0.850404
0.850412
0.85042
0.850427
0.850435
0.850435
0.850442
0.85045
0.850457
0.850465
0.850465
0.850473
0.85048
0.850488
0.850495
0.850495
0.850503
0.850511
0.850518
0.850526
0.850526
0.850534
0.850541
0.850549
0.850557
0.850557
0.850564
0.850572
0.85058
0.850588
0.850588
0.850595
0.850603
0.850611
0.850618
0.850618
0.850626
0.850634
0.850642
0.850649
0.850649
0.850657
0.850665
0.850673
0.850681
0.850681
0.850688
0.850696
0.850704
0.850712
0.850712
0.85072
0.850727
0.850735
0.850743
0.850743
0.850751
0.850759
0.850767
0.850775
0.850775
0.850783
0.85079
0.850798
0.850806
0.850806
0.850814
0.850822
0.85083
0.850838
0.850838
0.850846
0.850854
0.850862
0.85087
0.85087
0.850878
0.850886
0.850894
0.850902
0.850902
0.85091
0.850918
0.850926
0.850934
0.850934
0.850942
0.85095
0.850958
0.850966
0.850966
0.850974
0.850982
0.85099
0.850998
0.850998
0.851006
0.851014
0.851022
0.85103
0.85103
0.851039
0.851047
0.851055
0.851063
0.851063
0.851071
0.851079
0.851087
0.851096
0.851096
0.851104
0.851112
0.85112
0.851128
0.851128
0.851136
0.851145
0.851153
0.851161
0.851161
0.851169
0.851177
0.851186
0.851194
0.851194
0.851202
0.85121
0.851219
0.851227
0.851227
0.851235
0.851244
0.851252
0.85126
0.85126
0.851268
0.851277
0.851285
0.851293
0.851293
0.851302
0.85131
0.851318
0.851327
0.851327
0.851335
0.851344
0.851352
0.85136
0.85136
0.851369
0.851377
0.851385
0.851394
0.851394
0.851402
0.851411
0.851419
0.851428
0.851428
0.851436
0.851444
0.851453
0.851461
0.851461
0.85147
0.851478
0.851487
0.851495
0.851495
0.851504
0.851512
0.851521
0.851529
0.851529
0.851538
0.851546
0.851555
0.851564
0.851564
0.851572
0.851581
0.851589
0.851598
0.851598
0.851606
0.851615
0.851624
0.851632
0.851632
0.851641
0.851649
0.851658
0.851667
0.851667
0.851675
0.851684
0.851693
0.851701
0.851701
0.85171
0.851719
0.851727
0.851736
0.851736
0.851745
0.851753
0.851762
0.851771
0.851771
0.85178
0.851788
0.851797
0.851806
0.851806
0.851814
0.851823
0.851832
0.851841
0.851841
0.85185
0.851858
0.851867
0.851876
0.851876
0.851885
0.851894
0.851902
0.851911
0.851911
0.85192
0.851929
0.851938
0.851947
0.851947
0.851955
0.851964
0.851973
0.851982
0.851982
0.851991
0.852
0.852009
0.852018
0.852018
0.852027
0.852036
0.852044
0.852053
0.852053
0.852062
0.852071
0.85208
0.852089
0.852089
0.852098
0.852107
0.852116
0.852125
0.852125
0.852134
0.852143
0.852152
0.852161
0.852161
0.85217
0.852179
0.852188
0.852197
0.852197
0.852206
0.852215
0.852225
0.852234
0.852234
0.852243
0.852252
0.852261
0.85227
0.85227
0.852279
0.852288
0.852297
0.852306
0.852306
0.852316
0.852325
0.852334
0.852343
0.852343
0.852352
0.852361
0.852371
0.85238
0.85238
0.852389
0.852398
0.852407
0.852417
0.852417
0.852426
0.852435
0.852444
0.852454
0.852454
0.852463
0.852472
0.852481
0.852491
0.852491
0.8525
0.852509
0.852518
0.852528
0.852528
0.852537
0.852546
0.852556
0.852565
0.852565
0.852574
0.852584
0.852593
0.852602
0.852602
0.852612
0.852621
0.85263
0.85264
0.85264
0.852649
0.852659
0.852668
0.852677
0.852677
0.852687
0.852696
0.852706
0.852715
0.852715
0.852725
0.852734
0.852743
0.852753
0.852753
0.852762
0.852772
0.852781
0.852791
0.852791
0.8528
0.85281
0.852819
0.852829
0.852829
0.852838
0.852848
0.852858
0.852867
0.852867
0.852877
0.852886
0.852896
0.852905
0.852905
0.852915
0.852924
0.852934
0.852944
0.852944
0.852953
0.852963
0.852973
0.852982
0.852982
0.852992
0.853001
0.853011
0.853021
0.853021
0.85303
0.85304
0.85305
0.853059
0.853059
0.853069
0.853079
0.853089
0.853098
0.853098
0.853108
0.853118
0.853127
0.853137
0.853137
0.853147
0.853157
0.853166
0.853176
0.853176
0.853186
0.853196
0.853206
0.853215
0.853215
0.853225
0.853235
0.853245
0.853255
0.853255
0.853264
0.853274
0.853284
0.853294
0.853294
0.853304
0.853314
0.853324
0.853333
0.853333
0.853343
0.853353
0.853363
0.853373
0.853373
0.853383
0.853393
0.853403
0.853413
0.853413
0.853423
0.853433
0.853443
0.853452
0.853452
0.853462
0.853472
0.853482
0.853492
0.853492
0.853502
0.853512
0.853522
0.853532
0.853532
0.853542
0.853552
0.853562
0.853573
0.853573
0.853583
0.853593
0.853603
0.853613
0.853613
0.853623
0.853633
0.853643
0.853653
0.853653
0.853663
0.853673
0.853683
0.853694
0.853694
0.853704
0.853714
0.853724
0.853734
0.853734
0.853744
0.853754
0.853765
0.853775
0.853775
0.853785
0.853795
0.853805
0.853816
0.853816
0.853826
0.853836
0.853846
0.853856
0.853856
0.853867
0.853877
0.853887
0.853897
0.853897
0.853908
0.853918
0.853928
0.853939
0.853939
0.853949
0.853959
0.85397
0.85398
0.85398
0.85399
0.854
0.854011
0.854021
0.854021
0.854032
0.854042
0.854052
0.854063
0.854063
0.854073
0.854083
0.854094
0.854104
0.854104
0.854115
0.854125
0.854135
0.854146
0.854146
0.854156
0.854167
0.854177
0.854188
0.854188
0.854198
0.854209
0.854219
0.854229
0.854229
0.85424
0.85425
0.854261
0.854271
0.854271
0.854282
0.854292
0.854303
0.854314
0.854314
0.854324
0.854335
0.854345
0.854356
0.854356
0.854366
0.854377
0.854387
0.854398
0.854398
0.854409
0.854419
0.85443
0.85444
0.85444
0.854451
0.854462
0.854472
0.854483
0.854483
0.854494
0.854504
0.854515
0.854526
0.854526
0.854536
0.854547
0.854558
0.854568
0.854568
0.854579
0.85459
0.854601
0.854611
0.854611
0.854622
0.854633
0.854643
0.854654
0.854654
0.854665
0.854676
0.854687
0.854697
0.854697
0.854708
0.854719
0.85473
0.85474
0.85474
0.854751
0.854762
0.854773
0.854784
0.854784
0.854795
0.854805
0.854816
0.854827
0.854827
0.854838
0.854849
0.85486
0.854871
0.854871
0.854882
0.854892
0.854903
0.854914
0.854914
0.854925
0.854936
0.854947
0.854958
0.854958
0.854969
0.85498
0.854991
0.855002
0.855002
0.855013
0.855024
0.855035
0.855046
0.855046
0.855057
0.855068
0.855079
0.85509
0.85509
0.855101
0.855112
0.855123
0.855134
0.855134
0.855145
0.855156
0.855167
0.855178
0.855178
0.855189
0.8552
0.855212
0.855223
0.855223
0.855234
0.855245
0.855256
0.855267
0.855267
0.855278
0.855289
0.855301
0.855312
0.855312
0.855323
0.855334
0.855345
0.855356
0.855356
0.855368
0.855379
0.85539
0.855401
0.855401
0.855413
0.855424
0.855435
0.855446
0.855446
0.855457
0.855469
0.85548
0.855491
0.855491
0.855502
0.855514
0.855525
0.855536
0.855536
0.855548
0.855559
0.85557
0.855582
0.855582
0.855593
0.855604
0.855616
0.855627
0.855627
0.855638
0.85565
0.855661
0.855672
0.855672
0.855684
0.855695
0.855707
0.855718
0.855718
0.855729
0.855741
0.855752
0.855764
0.855764
0.855775
0.855787
0.855798
0.855809
0.855809
0.855821
0.855832
0.855844
0.855855
0.855855
0.855867
0.855878
0.85589
0.855901
0.855901
0.855913
0.855924
0.855936
0.855947
0.855947
0.855959
0.855971
0.855982
0.855994
0.855994
0.856005
0.856017
0.856028
0.85604
0.85604
0.856052
0.856063
0.856075
0.856086
0.856086
0.856098
0.85611
0.856121
0.856133
0.856133
0.856145
0.856156
0.856168
0.85618
0.85618
0.856191
0.856203
0.856215
0.856226
0.856226
0.856238
0.85625
0.856261
0.856273
0.856273
0.856285
0.856297
0.856308
0.85632
0.85632
0.856332
0.856344
0.856355
0.856367
0.856367
0.856379
0.856391
0.856403
0.856414
0.856414
0.856426
0.856438
0.85645
0.856462
0.856462
0.856474
0.856485
0.856497
0.856509
0.856509
0.856521
0.856533
0.856545
0.856557
0.856557
0.856568
0.85658
0.856592
0.856604
0.856604
0.856616
0.856628
0.85664
0.856652
0.856652
0.856664
0.856676
0.856688
0.8567
0.8567
0.856712
0.856724
0.856736
0.856748
0.856748
0.85676
0.856772
0.856784
0.856796
0.856796
0.856808
0.85682
0.856832
0.856844
0.856844
0.856856
0.856868
0.85688
0.856892
0.856892
0.856904
0.856916
0.856928
0.85694
0.85694
0.856953
0.856965
0.856977
0.856989
0.856989
0.857001
0.857013
0.857025
0.857037
0.857037
0.85705
0.857062
0.857074
0.857086
0.857086
0.857098
0.857111
0.857123
0.857135
0.857135
0.857147
0.857159
0.857172
0.857184
0.857184
0.857196
0.857208
0.857221
0.857233
0.857233
0.857245
0.857257
0.85727
0.857282
0.857282
0.857294
0.857307
0.857319
0.857331
0.857331
0.857343
0.857356
0.857368
0.85738
0.85738
0.857393
0.857405
0.857417
0.85743
0.85743
0.857442
0.857455
0.857467
0.857479
0.857479
0.857492
0.857504
0.857517
0.857529
0.857529
0.857541
0.857554
0.857566
0.857579
0.857579
0.857591
0.857604
0.857616
0.857629
0.857629
0.857641
0.857654
0.857666
0.857679
0.857679
0.857691
0.857704
0.857716
0.857729
0.857729
0.857741
0.857754
0.857766
0.857779
0.857779
0.857791
0.857804
0.857816
0.857829
0.857829
0.857842
0.857854
0.857867
0.857879
0.857879
0.857892
0.857905
0.857917
0.85793
0.85793
0.857943
0.857955
0.857968
0.857981
0.857981
0.857993
0.858006
0.858019
0.858031
0.858031
0.858044
0.858057
0.858069
0.858082
0.858082
0.858095
0.858107
0.85812
0.858133
0.858133
0.858146
0.858158
0.858171
0.858184
0.858184
0.858197
0.858209
0.858222
0.858235
0.858235
0.858248
0.858261
0.858273
0.858286
0.858286
0.858299
0.858312
0.858325
0.858338
0.858338
0.85835
0.858363
0.858376
0.858389
0.858389
0.858402
0.858415
0.858428
0.858441
0.858441
0.858453
0.858466
0.858479
0.858492
0.858492
0.858505
0.858518
0.858531
0.858544
0.858544
0.858557
0.85857
0.858583
0.858596
0.858596
0.858609
0.858622
0.858635
0.858648
0.858648
0.858661
0.858674
0.858687
0.8587
0.8587
0.858713
0.858726
0.858739
0.858752
0.858752
0.858765
0.858778
0.858791
0.858804
0.858804
0.858817
0.85883
0.858844
0.858857
0.858857
0.85887
0.858883
0.858896
0.858909
0.858909
0.858922
0.858935
0.858949
0.858962
0.858962
0.858975
0.858988
0.859001
0.859014
0.859014
0.859028
0.859041
0.859054
0.859067
0.859067
0.85908
0.859094
0.859107
0.85912
0.85912
0.859133
0.859147
0.85916
0.859173
0.859173
0.859186
0.8592
0.859213
0.859226
0.859226
0.85924
0.859253
0.859266
0.85928
0.85928
0.859293
0.859306
0.85932
0.859333
0.859333
0.859346
0.85936
0.859373
0.859386
0.859386
0.8594
0.859413
0.859426
0.85944
0.85944
0.859453
0.859467
0.85948
0.859493
0.859493
0.859507
0.85952
0.859534
0.859547
0.859547
0.859561
0.859574
0.859588
0.859601
0.859601
0.859615
0.859628
0.859642
0.859655
0.859655
0.859669
0.859682
0.859696
0.859709
0.859709
0.859723
0.859736
0.85975
0.859763
0.859763
0.859777
0.85979
0.859804
0.859817
0.859817
0.859831
0.859845
0.859858
0.859872
0.859872
0.859885
0.859899
0.859913
0.859926
0.859926
0.85994
0.859954
0.859967
0.859981
0.859981
0.859995
0.860008
0.860022
0.860036
0.860036
0.860049
0.860063
0.860077
0.86009
0.86009
0.860104
0.860118
0.860132
0.860145
0.860145
0.860159
0.860173
0.860187
0.8602
0.8602
0.860214
0.860228
0.860242
0.860255
0.860255
0.860269
0.860283
0.860297
0.860311
0.860311
0.860324
0.860338
0.860352
0.860366
0.860366
0.86038
0.860394
0.860407
0.860421
0.860421
0.860435
0.860449
0.860463
0.860477
0.860477
0.860491
0.860505
0.860519
0.860532
0.860532
0.860546
0.86056
0.860574
0.860588
0.860588
0.860602
0.860616
0.86063
0.860644
0.860644
0.860658
0.860672
0.860686
0.8607
0.8607
0.860714
0.860728
0.860742
0.860756
0.860756
0.86077
0.860784
0.860798
0.860812
0.860812
0.860826
0.86084
0.860854
0.860868
0.860868
0.860882
0.860896
0.860911
0.860925
0.860925
0.860939
0.860953
0.860967
0.860981
0.860981
0.860995
0.861009
0.861024
0.861038
0.861038
0.861052
0.861066
0.86108
0.861094
0.861094
0.861108
0.861123
0.861137
0.861151
0.861151
0.861165
0.861179
0.861194
0.861208
0.861208
0.861222
0.861236
0.861251
0.861265
0.861265
0.861279
0.861293
0.861308
0.861322
0.861322
0.861336
0.861351
0.861365
0.861379
0.861379
0.861393
0.861408
0.861422
0.861436
0.861436
0.861451
0.861465
0.861479
0.861494
0.861494
0.861508
0.861522
0.861537
0.861551
0.861551
0.861566
0.86158
0.861594
0.861609
0.861609
0.861623
0.861638
0.861652
0.861666
0.861666
0.861681
0.861695
0.86171
0.861724
0.861724
0.861739
0.861753
0.861768
0.861782
0.861782
0.861797
0.861811
0.861826
0.86184
0.86184
0.861855
0.861869
0.861884
0.861898
0.861898
0.861913
0.861927
0.861942
0.861956
0.861956
0.861971
0.861986
0.862
0.862015
0.862015
0.862029
0.862044
0.862059
0.862073
0.862073
0.862088
0.862102
0.862117
0.862132
0.862132
0.862146
0.862161
0.862176
0.86219
0.86219
0.862205
0.86222
0.862234
0.862249
0.862249
0.862264
0.862278
0.862293
0.862308
0.862308
0.862322
0.862337
0.862352
0.862367
0.862367
0.862381
0.862396
0.862411
0.862426
0.862426
0.86244
0.862455
0.86247
0.862485
0.862485
0.8625
0.862514
0.862529
0.862544
0.862544
0.862559
0.862574
0.862588
0.862603
0.862603
0.862618
0.862633
0.862648
0.862663
0.862663
0.862678
0.862692
0.862707
0.862722
0.862722
0.862737
0.862752
0.862767
0.862782
0.862782
0.862797
0.862812
0.862827
0.862842
0.862842
0.862857
0.862871
0.862886
0.862901
0.862901
0.862916
0.862931
0.862946
0.862961
0.862961
0.862976
0.862991
0.863006
0.863021
0.863021
0.863036
0.863051
0.863066
0.863081
0.863081
0.863097
0.863112
0.863127
0.863142
0.863142
0.863157
0.863172
0.863187
0.863202
0.863202
0.863217
0.863232
0.863247
0.863262
0.863262
0.863278
0.863293
0.863308
0.863323
0.863323
0.863338
0.863353
0.863368
0.863384
0.863384
0.863399
0.863414
0.863429
0.863444
0.863444
0.86346
0.863475
0.86349
0.863505
0.863505
0.86352
0.863536
0.863551
0.863566
0.863566
0.863581
0.863597
0.863612
0.863627
0.863627
0.863642
0.863658
0.863673
0.863688
0.863688
0.863704
0.863719
0.863734
0.86375
0.86375
0.863765
0.86378
0.863796
0.863811
0.863811
0.863826
0.863842
0.863857
0.863872
0.863872
0.863888
0.863903
0.863919
0.863934
0.863934
0.863949
0.863965
0.86398
0.863996
0.863996
0.864011
0.864026
0.864042
0.864057
0.864057
0.864073
0.864088
0.864104
0.864119
0.864119
0.864135
0.86415
0.864166
0.864181
0.864181
0.864197
0.864212
0.864228
0.864243
0.864243
0.864259
0.864274
0.86429
0.864305
0.864305
0.864321
0.864336
0.864352
0.864368
0.864368
0.864383
0.864399
0.864414
0.86443
0.86443
0.864445
0.864461
0.864477
0.864492
0.864492
0.864508
0.864524
0.864539
0.864555
0.864555
0.864571
0.864586
0.864602
0.864618
0.864618
0.864633
0.864649
0.864665
0.86468
0.86468
0.864696
0.864712
0.864727
0.864743
0.864743
0.864759
0.864775
0.86479
0.864806
0.864806
0.864822
0.864838
0.864853
0.864869
0.864869
0.864885
0.864901
0.864916
0.864932
0.864932
0.864948
0.864964
0.86498
0.864996
0.864996
0.865011
0.865027
0.865043
0.865059
0.865059
0.865075
0.865091
0.865106
0.865122
0.865122
0.865138
0.865154
0.86517
0.865186
0.865186
0.865202
0.865218
0.865234
0.865249
0.865249
0.865265
0.865281
0.865297
0.865313
0.865313
0.865329
0.865345
0.865361
0.865377
0.865377
0.865393
0.865409
0.865425
0.865441
0.865441
0.865457
0.865473
0.865489
0.865505
0.865505
0.865521
0.865537
0.865553
0.865569
0.865569
0.865585
0.865601
0.865617
0.865633
0.865633
0.86565
0.865666
0.865682
0.865698
0.865698
0.865714
0.86573
0.865746
0.865762
0.865762
0.865778
0.865794
0.865811
0.865827
0.865827
0.865843
0.865859
0.865875
0.865891
0.865891
0.865908
0.865924
0.86594
0.865956
0.865956
0.865972
0.865989
0.866005
0.866021
0.866021
0.866037
0.866053
0.86607
0.866086
0.866086
0.866102
0.866118
0.866135
0.866151
0.866151
0.866167
0.866183
0.8662
0.866216
0.866216
0.866232
0.866249
0.866265
0.866281
0.866281
0.866298
0.866314
0.86633
0.866347
0.866347
0.866363
0.866379
0.866396
0.866412
0.866412
0.866428
0.866445
0.866461
0.866478
0.866478
0.866494
0.86651
0.866527
0.866543
0.866543
0.86656
0.866576
0.866592
0.866609
0.866609
0.866625
0.866642
0.866658
0.866675
0.866675
0.866691
0.866708
0.866724
0.866741
0.866741
0.866757
0.866774
0.86679
0.866807
0.866807
0.866823
0.86684
0.866856
0.866873
0.866873
0.866889
0.866906
0.866922
0.866939
0.866939
0.866956
0.866972
0.866989
0.867005
0.867005
0.867022
0.867039
0.867055
0.867072
0.867072
0.867088
0.867105
0.867122
0.867138
0.867138
0.867155
0.867172
0.867188
0.867205
0.867205
0.867222
0.867238
0.867255
0.867272
0.867272
0.867288
0.867305
0.867322
0.867338
0.867338
0.867355
0.867372
0.867389
0.867405
0.867405
0.867422
0.867439
0.867455
0.867472
0.867472
0.867489
0.867506
0.867523
0.867539
0.867539
0.867556
0.867573
0.86759
0.867607
0.867607
0.867623
0.86764
0.867657
0.867674
0.867674
0.867691
0.867707
0.867724
0.867741
0.867741
0.867758
0.867775
0.867792
0.867809
0.867809
0.867826
0.867842
0.867859
0.867876
0.867876
0.867893
0.86791
0.867927
0.867944
0.867944
0.867961
0.867978
0.867995
0.868012
0.868012
0.868029
0.868046
0.868063
0.86808
0.86808
0.868097
0.868114
0.868131
0.868148
0.868148
0.868165
0.868182
0.868199
0.868216
0.868216
0.868233
0.86825
0.868267
0.868284
0.868284
0.868301
0.868318
0.868335
0.868352
0.868352
0.868369
0.868386
0.868403
0.86842
0.86842
0.868437
0.868455
0.868472
0.868489
0.868489
0.868506
0.868523
0.86854
0.868557
0.868557
0.868575
0.868592
0.868609
0.868626
0.868626
0.868643
0.86866
0.868678
0.868695
0.868695
0.868712
0.868729
0.868746
0.868764
0.868764
0.868781
0.868798
0.868815
0.868833
0.868833
0.86885
0.868867
0.868884
0.868902
0.868902
0.868919
0.868936
0.868953
0.868971
0.868971
0.868988
0.869005
0.869023
0.86904
0.86904
0.869057
0.869075
0.869092
0.869109
0.869109
0.869127
0.869144
0.869161
0.869179
0.869179
0.869196
0.869213
0.869231
0.869248
0.869248
0.869266
0.869283
0.8693
0.869318
0.869318
0.869335
0.869353
0.86937
0.869387
0.869387
0.869405
0.869422
0.86944
0.869457
0.869457
0.869475
0.869492
0.86951
0.869527
0.869527
0.869545
0.869562
0.86958
0.869597
0.869597
0.869615
0.869632
0.86965
0.869667
0.869667
0.869685
0.869702
0.86972
0.869737
0.869737
0.869755
0.869773
0.86979
0.869808
0.869808
0.869825
0.869843
0.86986
0.869878
0.869878
0.869896
0.869913
0.869931
0.869949
0.869949
0.869966
0.869984
0.870001
0.870019
0.870019
0.870037
0.870054
0.870072
0.87009
0.87009
0.870107
0.870125
0.870143
0.870161
0.870161
0.870178
0.870196
0.870214
0.870231
0.870231
0.870249
0.870267
0.870285
0.870302
0.870302
0.87032
0.870338
0.870356
0.870373
0.870373
0.870391
0.870409
0.870427
0.870444
0.870444
0.870462
0.87048
0.870498
0.870516
0.870516
0.870534
0.870551
0.870569
0.870587
0.870587
0.870605
0.870623
0.870641
0.870658
0.870658
0.870676
0.870694
0.870712
0.87073
0.87073
0.870748
0.870766
0.870784
0.870802
0.870802
0.87082
0.870837
0.870855
0.870873
0.870873
0.870891
0.870909
0.870927
0.870945
0.870945
0.870963
0.870981
0.870999
0.871017
0.871017
0.871035
0.871053
0.871071
0.871089
0.871089
0.871107
0.871125
0.871143
0.871161
0.871161
0.871179
0.871197
0.871215
0.871233
0.871233
0.871251
0.871269
0.871287
0.871305
0.871305
0.871324
0.871342
0.87136
0.871378
0.871378
0.871396
0.871414
0.871432
0.87145
0.87145
0.871468
0.871487