<?xml version="1.0"?>
<VTKFile type="UnstructuredGrid" version="0.1" byte_order="LittleEndian">
<UnstructuredGrid>
<Piece NumberOfPoints="5000" NumberOfCells="4000">
<PointData Scalars="Reaction 0">
<DataArray type="Float32" Name="Reaction 0" format="ascii">
0.857816
0.857816
0.857816
0.857816
0.857816
0.857816
0.857816
0.857816
0.857816
0.857816
0.857816
0.857816
0.857816
0.857816
0.857816
0.857816
0.857816
0.857816
0.857816
0.857816
0.857816
0.857817
0.857817
0.857817
0.857817
0.857817
0.857817
0.857817
0.857817
0.857818
0.857818
0.857818
0.857818
0.857818
0.857818
0.857818
0.857818
0.857819
0.857819
0.857819
0.857819
0.857819
0.85782
0.85782
0.85782
0.85782
0.85782
0.85782
0.857821
0.857821
0.857821
0.857821
0.857822
0.857822
0.857822
0.857822
0.857822
0.857823
0.857823
0.857823
0.857823
0.857824
0.857824
0.857824
0.857825
0.857825
0.857825
0.857825
0.857826
0.857826
0.857826
0.857827
0.857827
0.857827
0.857828
0.857828
0.857828
0.857829
0.857829
0.857829
0.857829
0.85783
0.85783
0.857831
0.857831
0.857831
0.857832
0.857832
0.857833
0.857833
0.857833
0.857834
0.857834
0.857835
0.857835
0.857835
0.857836
0.857836
0.857837
0.857837
0.857837
0.857838
0.857838
0.857839
0.857839
0.857839
0.85784
0.85784
0.857841
0.857842
0.857842
0.857842
0.857843
0.857843
0.857844
0.857844
0.857845
0.857845
0.857846
0.857847
0.857847
0.857847
0.857848
0.857849
0.857849
0.857849
0.85785
0.857851
0.857851
0.857852
0.857852
0.857853
0.857853
0.857854
0.857855
0.857855
0.857856
0.857856
0.857857
0.857858
0.857858
0.857859
0.857859
0.85786
0.857861
0.857861
0.857862
0.857862
0.857863
0.857864
0.857864
0.857865
0.857866
0.857866
0.857867
0.857867
0.857868
0.857869
0.85787
0.857871
0.857871
0.857872
0.857872
0.857873
0.857874
0.857874
0.857875
0.857876
0.857877
0.857878
0.857878
0.857879
0.85788
0.857881
0.857881
0.857881
0.857882
0.857883
0.857884
0.857885
0.857885
0.857886
0.857887
0.857888
0.857889
0.857889
0.85789
0.857891
0.857892
0.857893
0.857893
0.857894
0.857895
0.857896
0.857897
0.857897
0.857898
0.8579
0.857901
0.857902
0.857902
0.857903
0.857904
0.857905
0.857906
0.857906
0.857907
0.857908
0.857909
0.85791
0.85791
0.857912
0.857913
0.857914
0.857915
0.857915
0.857916
0.857917
0.857919
0.85792
0.85792
0.857921
0.857922
0.857923
0.857924
0.857924
0.857926
0.857927
0.857928
0.857929
0.857929
0.857931
0.857932
0.857933
0.857934
0.857934
0.857936
0.857937
0.857938
0.857939
0.857939
0.857941
0.857942
0.857943
0.857945
0.857945
0.857946
0.857947
0.857949
0.85795
0.85795
0.857951
0.857953
0.857954
0.857955
0.857955
0.857957
0.857958
0.85796
0.857961
0.857961
0.857962
0.857964
0.857965
0.857967
0.857967
0.857968
0.85797
0.857971
0.857972
0.857972
0.857974
0.857975
0.857977
0.857978
0.857978
0.85798
0.857981
0.857983
0.857984
0.857984
0.857986
0.857987
0.857989
0.85799
0.85799
0.857992
0.857993
0.857995
0.857996
0.857996
0.857998
0.858
0.858001
0.858003
0.858003
0.858004
0.858006
0.858008
0.858009
0.858009
0.858011
0.858012
0.858014
0.858016
0.858016
0.858017
0.858019
0.858021
0.858022
0.858022
0.858024
0.858026
0.858027
0.858029
0.858029
0.858031
0.858032
0.858034
0.858036
0.858036
0.858038
0.858039
0.858041
0.858043
0.858043
0.858044
0.858046
0.858048
0.85805
0.85805
0.858052
0.858053
0.858055
0.858057
0.858057
0.858059
0.858061
0.858062
0.858064
0.858064
0.858066
0.858068
0.85807
0.858072
0.858072
0.858073
0.858075
0.858077
0.858079
0.858079
0.858081
0.858083
0.858085
0.858087
0.858087
0.858089
0.85809
0.858092
0.858094
0.858094
0.858096
0.858098
0.8581
0.858102
0.858102
0.858104
0.858106
0.858108
0.85811
0.85811
0.858112
0.858114
0.858116
0.858118
0.858118
0.85812
0.858122
0.858124
0.858126
0.858126
0.858128
0.85813
0.858132
0.858134
0.858134
0.858136
0.858138
0.858141
0.858143
0.858143
0.858145
0.858147
0.858149
0.858151
0.858151
0.858153
0.858155
0.858157
0.85816
0.85816
0.858162
0.858164
0.858166
0.858168
0.858168
0.85817
0.858173
0.858175
0.858177
0.858177
0.858179
0.858181
0.858184
0.858186
0.858186
0.858188
0.85819
0.858193
0.858195
0.858195
0.858197
0.858199
0.858202
0.858204
0.858204
0.858206
0.858209
0.858211
0.858213
0.858213
0.858215
0.858218
0.85822
0.858222
0.858222
0.858225
0.858227
0.858229
0.858232
0.858232
0.858234
0.858237
0.858239
0.858241
0.858241
0.858244
0.858246
0.858249
0.858251
0.858251
0.858253
0.858256
0.858258
0.858261
0.858261
0.858263
0.858266
0.858268
0.85827
0.85827
0.858273
0.858275
0.858278
0.85828
0.85828
0.858283
0.858285
0.858288
0.85829
0.85829
0.858293
0.858296
0.858298
0.858301
0.858301
0.858303
0.858306
0.858308
0.858311
0.858311
0.858313
0.858316
0.858319
0.858321
0.858321
0.858324
0.858326
0.858329
0.858332
0.858332
0.858334
0.858337
0.85834
0.858342
0.858342
0.858345
0.858348
0.85835
0.858353
0.858353
0.858356
0.858358
0.858361
0.858364
0.858364
0.858366
0.858369
0.858372
0.858375
0.858375
0.858377
0.85838
0.858383
0.858386
0.858386
0.858388
0.858391
0.858394
0.858397
0.858397
0.8584
0.858402
0.858405
0.858408
0.858408
0.858411
0.858414
0.858416
0.858419
0.858419
0.858422
0.858425
0.858428
0.858431
0.858431
0.858434
0.858437
0.858439
0.858442
0.858442
0.858445
0.858448
0.858451
0.858454
0.858454
0.858457
0.85846
0.858463
0.858466
0.858466
0.858469
0.858472
0.858475
0.858478
0.858478
0.858481
0.858484
0.858487
0.85849
0.85849
0.858493
0.858496
0.858499
0.858502
0.858502
0.858505
0.858508
0.858511
0.858514
0.858514
0.858517
0.85852
0.858523
0.858526
0.858526
0.858529
0.858532
0.858535
0.858538
0.858538
0.858542
0.858545
0.858548
0.858551
0.858551
0.858554
0.858557
0.85856
0.858564
0.858564
0.858567
0.85857
0.858573
0.858576
0.858576
0.858579
0.858583
0.858586
0.858589
0.858589
0.858592
0.858596
0.858599
0.858602
0.858602
0.858605
0.858609
0.858612
0.858615
0.858615
0.858618
0.858622
0.858625
0.858628
0.858628
0.858632
0.858635
0.858638
0.858641
0.858641
0.858645
0.858648
0.858652
0.858655
0.858655
0.858658
0.858662
0.858665
0.858668
0.858668
0.858672
0.858675
0.858678
0.858682
0.858682
0.858685
0.858689
0.858692
0.858696
0.858696
0.858699
0.858702
0.858706
0.858709
0.858709
0.858713
0.858716
0.85872
0.858723
0.858723
0.858727
0.85873
0.858734
0.858737
0.858737
0.858741
0.858744
0.858748
0.858751
0.858751
0.858755
0.858758
0.858762
0.858766
0.858766
0.858769
0.858773
0.858776
0.85878
0.85878
0.858783
0.858787
0.858791
0.858794
0.858794
0.858798
0.858802
0.858805
0.858809
0.858809
0.858812
0.858816
0.85882
0.858823
0.858823
0.858827
0.858831
0.858835
0.858838
0.858838
0.858842
0.858846
0.858849
0.858853
0.858853
0.858857
0.858861
0.858864
0.858868
0.858868
0.858872
0.858876
0.858879
0.858883
0.858883
0.858887
0.858891
0.858894
0.858898
0.858898
0.858902
0.858906
0.85891
0.858914
0.858914
0.858917
0.858921
0.858925
0.858929
0.858929
0.858933
0.858937
0.858941
0.858944
0.858944
0.858948
0.858952
0.858956
0.85896
0.85896
0.858964
0.858968
0.858972
0.858976
0.858976
0.85898
0.858984
0.858988
0.858992
0.858992
0.858996
0.859
0.859003
0.859007
0.859007
0.859011
0.859015
0.859019
0.859024
0.859024
0.859028
0.859032
0.859036
0.85904
0.85904
0.859044
0.859048
0.859052
0.859056
0.859056
0.85906
0.859064
0.859068
0.859072
0.859072
0.859076
0.85908
0.859085
0.859089
0.859089
0.859093
0.859097
0.859101
0.859105
0.859105
0.859109
0.859114
0.859118
0.859122
0.859122
0.859126
0.85913
0.859134
0.859139
0.859139
0.859143
0.859147
0.859151
0.859156
0.859156
0.85916
0.859164
0.859168
0.859173
0.859173
0.859177
0.859181
0.859185
0.85919
0.85919
0.859194
0.859198
0.859202
0.859207
0.859207
0.859211
0.859215
0.85922
0.859224
0.859224
0.859228
0.859233
0.859237
0.859242
0.859242
0.859246
0.85925
0.859255
0.859259
0.859259
0.859263
0.859268
0.859272
0.859277
0.859277
0.859281
0.859285
0.85929
0.859294
0.859294
0.859299
0.859303
0.859308
0.859312
0.859312
0.859317
0.859321
0.859326
0.85933
0.85933
0.859335
0.859339
0.859344
0.859348
0.859348
0.859353
0.859357
0.859362
0.859366
0.859366
0.859371
0.859375
0.85938
0.859385
0.859385
0.859389
0.859394
0.859398
0.859403
0.859403
0.859408
0.859412
0.859417
0.859421
0.859421
0.859426
0.859431
0.859435
0.85944
0.85944
0.859445
0.859449
0.859454
0.859459
0.859459
0.859463
0.859468
0.859473
0.859477
0.859477
0.859482
0.859487
0.859492
0.859496
0.859496
0.859501
0.859506
0.859511
0.859515
0.859515
0.85952
0.859525
0.85953
0.859534
0.859534
0.859539
0.859544
0.859549
0.859554
0.859554
0.859559
0.859563
0.859568
0.859573
0.859573
0.859578
0.859583
0.859588
0.859592
0.859592
0.859597
0.859602
0.859607
0.859612
0.859612
0.859617
0.859622
0.859627
0.859632
0.859632
0.859637
0.859641
0.859646
0.859651
0.859651
0.859656
0.859661
0.859666
0.859671
0.859671
0.859676
0.859681
0.859686
0.859691
0.859691
0.859696
0.859701
0.859706
0.859711
0.859711
0.859716
0.859721
0.859726
0.859731
0.859731
0.859736
0.859742
0.859747
0.859752
0.859752
0.859757
0.859762
0.859767
0.859772
0.859772
0.859777
0.859782
0.859787
0.859793
0.859793
0.859798
0.859803
0.859808
0.859813
0.859813
0.859818
0.859823
0.859829
0.859834
0.859834
0.859839
0.859844
0.859849
0.859855
0.859855
0.85986
0.859865
0.85987
0.859876
0.859876
0.859881
0.859886
0.859891
0.859897
0.859897
0.859902
0.859907
0.859912
0.859918
0.859918
0.859923
0.859928
0.859934
0.859939
0.859939
0.859944
0.85995
0.859955
0.85996
0.85996
0.859966
0.859971
0.859976
0.859982
0.859982
0.859987
0.859992
0.859998
0.860003
0.860003
0.860009
0.860014
0.860019
0.860025
0.860025
0.86003
0.860036
0.860041
0.860047
0.860047
0.860052
0.860057
0.860063
0.860068
0.860068
0.860074
0.860079
0.860085
0.86009
0.86009
0.860096
0.860101
0.860107
0.860112
0.860112
0.860118
0.860124
0.860129
0.860135
0.860135
0.86014
0.860146
0.860151
0.860157
0.860157
0.860162
0.860168
0.860174
0.860179
0.860179
0.860185
0.860191
0.860196
0.860202
0.860202
0.860207
0.860213
0.860219
0.860224
0.860224
0.86023
0.860236
0.860241
0.860247
0.860247
0.860253
0.860258
0.860264
0.86027
0.86027
0.860276
0.860281
0.860287
0.860293
0.860293
0.860299
0.860304
0.86031
0.860316
0.860316
0.860322
0.860327
0.860333
0.860339
0.860339
0.860345
0.860351
0.860356
0.860362
0.860362
0.860368
0.860374
0.86038
0.860385
0.860385
0.860391
0.860397
0.860403
0.860409
0.860409
0.860415
0.860421
0.860427
0.860432
0.860432
0.860438
0.860444
0.86045
0.860456
0.860456
0.860462
0.860468
0.860474
0.86048
0.86048
0.860486
0.860492
0.860498
0.860504
0.860504
0.86051
0.860516
0.860522
0.860528
0.860528
0.860534
0.86054
0.860546
0.860552
0.860552
0.860558
0.860564
0.86057
0.860576
0.860576
0.860582
0.860588
0.860594
0.8606
0.8606
0.860606
0.860612
0.860619
0.860625
0.860625
0.860631
0.860637
0.860643
0.860649
0.860649
0.860655
0.860661
0.860668
0.860674
0.860674
0.86068
0.860686
0.860692
0.860698
0.860698
0.860705
0.860711
0.860717
0.860723
0.860723
0.860729
0.860736
0.860742
0.860748
0.860748
0.860754
0.860761
0.860767
0.860773
0.860773
0.860779
0.860786
0.860792
0.860798
0.860798
0.860805
0.860811
0.860817
0.860823
0.860823
0.86083
0.860836
0.860842
0.860849
0.860849
0.860855
0.860862
0.860868
0.860874
0.860874
0.860881
0.860887
0.860893
0.8609
0.8609
0.860906
0.860913
0.860919
0.860925
0.860925
0.860932
0.860938
0.860945
0.860951
0.860951
0.860958
0.860964
0.860971
0.860977
0.860977
0.860984
0.86099
0.860996
0.861003
0.861003
0.861009
0.861016
0.861023
0.861029
0.861029
0.861036
0.861042
0.861049
0.861055
0.861055
0.861062
0.861068
0.861075
0.861081
0.861081
0.861088
0.861095
0.861101
0.861108
0.861108
0.861114
0.861121
0.861128
0.861134
0.861134
0.861141
0.861148
0.861154
0.861161
0.861161
0.861168
0.861174
0.861181
0.861188
0.861188
0.861194
0.861201
0.861208
0.861214
0.861214
0.861221
0.861228
0.861235
0.861241
0.861241
0.861248
0.861255
0.861262
0.861268
0.861268
0.861275
0.861282
0.861289
0.861295
0.861295
0.861302
0.861309
0.861316
0.861323
0.861323
0.861329
0.861336
0.861343
0.86135
0.86135
0.861357
0.861364
0.861371
0.861377
0.861377
0.861384
0.861391
0.861398
0.861405
0.861405
0.861412
0.861419
0.861426
0.861433
0.861433
0.861439
0.861446
0.861453
0.86146
0.86146
0.861467
0.861474
0.861481
0.861488
0.861488
0.861495
0.861502
0.861509
0.861516
0.861516
0.861523
0.86153
0.861537
0.861544
0.861544
0.861551
0.861558
0.861565
0.861572
0.861572
0.861579
0.861586
0.861593
0.861601
0.861601
0.861608
0.861615
0.861622
0.861629
0.861629
0.861636
0.861643
0.86165
0.861657
0.861657
0.861664
0.861672
0.861679
0.861686
0.861686
0.861693
0.8617
0.861707
0.861715
0.861715
0.861722
0.861729
0.861736
0.861743
0.861743
0.861751
0.861758
0.861765
0.861772
0.861772
0.861779
0.861787
0.861794
0.861801
0.861801
0.861809
0.861816
0.861823
0.86183
0.86183
0.861838
0.861845
0.861852
0.86186
0.86186
0.861867
0.861874
0.861881
0.861889
0.861889
0.861896
0.861904
0.861911
0.861918
0.861918
0.861926
0.861933
0.86194
0.861948
0.861948
0.861955
0.861963
0.86197
0.861977
0.861977
0.861985
0.861992
0.862
0.862007
0.862007
0.862014
0.862022
0.862029
0.862037
0.862037
0.862044
0.862052
0.862059
0.862067
0.862067
0.862074
0.862082
0.862089
0.862097
0.862097
0.862104
0.862112
0.862119
0.862127
0.862127
0.862134
0.862142
0.86215
0.862157
0.862157
0.862165
0.862172
0.86218
0.862188
0.862188
0.862195
0.862203
0.86221
0.862218
0.862218
0.862226
0.862233
0.862241
0.862248
0.862248
0.862256
0.862264
0.862271
0.862279
0.862279
0.862287
0.862295
0.862302
0.86231
0.86231
0.862318
0.862325
0.862333
0.862341
0.862341
0.862348
0.862356
0.862364
0.862372
0.862372
0.862379
0.862387
0.862395
0.862403
0.862403
0.862411
0.862418
0.862426
0.862434
0.862434
0.862442
0.86245
0.862457
0.862465
0.862465
0.862473
0.862481
0.862489
0.862497
0.862497
0.862504
0.862512
0.86252
0.862528
0.862528
0.862536
0.862544
0.862552
0.86256
0.86256
0.862568
0.862575
0.862583
0.862591
0.862591
0.862599
0.862607
0.862615
0.862623
0.862623
0.862631
0.862639
0.862647
0.862655
0.862655
0.862663
0.862671
0.862679
0.862687
0.862687
0.862695
0.862703
0.862711
0.862719
0.862719
0.862727
0.862735
0.862743
0.862751
0.862751
0.862759
0.862767
0.862775
0.862784
0.862784
0.862792
0.8628
0.862808
0.862816
0.862816
0.862824
0.862832
0.86284
0.862848
0.862848
0.862857
0.862865
0.862873
0.862881
0.862881
0.862889
0.862897
0.862906
0.862914
0.862914
0.862922
0.86293
0.862938
0.862947
0.862947
0.862955
0.862963
0.862971
0.86298
0.86298
0.862988
0.862996
0.863004
0.863013
0.863013
0.863021
0.863029
0.863037
0.863046
0.863046
0.863054
0.863062
0.863071
0.863079
0.863079
0.863087
0.863096
0.863104
0.863112
0.863112
0.863121
0.863129
0.863137
0.863146
0.863146
0.863154
0.863162
0.863171
0.863179
0.863179
0.863188
0.863196
0.863204
0.863213
0.863213
0.863221
0.86323
0.863238
0.863247
0.863247
0.863255
0.863263
0.863272
0.86328
0.86328
0.863289
0.863297
0.863306
0.863314
0.863314
0.863323
0.863331
0.86334
0.863348
0.863348
0.863357
0.863365
0.863374
0.863383
0.863383
0.863391
0.8634
0.863408
0.863417
0.863417
0.863425
0.863434
0.863443
0.863451
0.863451
0.86346
0.863468
0.863477
0.863486
0.863486
0.863494
0.863503
0.863512
0.86352
0.86352
0.863529
0.863538
0.863546
0.863555
0.863555
0.863564
0.863572
0.863581
0.86359
0.86359
0.863598
0.863607
0.863616
0.863625
0.863625
0.863633
0.863642
0.863651
0.863659
0.863659
0.863668
0.863677
0.863686
0.863695
0.863695
0.863703
0.863712
0.863721
0.86373
0.86373
0.863739
0.863747
0.863756
0.863765
0.863765
0.863774
0.863783
0.863792
0.8638
0.8638
0.863809
0.863818
0.863827
0.863836
0.863836
0.863845
0.863854
0.863863
0.863871
0.863871
0.86388
0.863889
0.863898
0.863907
0.863907
0.863916
0.863925
0.863934
0.863943
0.863943
0.863952
0.863961
0.86397
0.863979
0.863979
0.863988
0.863997
0.864006
0.864015
0.864015
0.864024
0.864033
0.864042
0.864051
0.864051
0.86406
0.864069
0.864078
0.864087
0.864087
0.864096
0.864105
0.864114
0.864123
0.864123
0.864133
0.864142
0.864151
0.86416
0.86416
0.864169
0.864178
0.864187
0.864196
0.864196
0.864205
0.864215
0.864224
0.864233
0.864233
0.864242
0.864251
0.86426
0.86427
0.86427
0.864279
0.864288
0.864297
0.864306
0.864306
0.864316
0.864325
0.864334
0.864343
0.864343
0.864353
0.864362
0.864371
0.86438
0.86438
0.86439
0.864399
0.864408
0.864418
0.864418
0.864427
0.864436
0.864445
0.864455
0.864455
0.864464
0.864473
0.864483
0.864492
0.864492
0.864501
0.864511
0.86452
0.864529
0.864529
0.864539
0.864548
0.864558
0.864567
0.864567
0.864576
0.864586
0.864595
0.864605
0.864605
0.864614
0.864623
0.864633
0.864642
0.864642
0.864652
0.864661
0.864671
0.86468
0.86468
0.86469
0.864699
0.864709
0.864718
0.864718
0.864728
0.864737
0.864747
0.864756
0.864756
0.864766
0.864775
0.864785
0.864794
0.864794
0.864804
0.864813
0.864823
0.864832
0.864832
0.864842
0.864852
0.864861
0.864871
0.864871
0.86488
0.86489
0.8649
0.864909
0.864909
0.864919
0.864929
0.864938
0.864948
0.864948
0.864957
0.864967
0.864977
0.864986
0.864986
0.864996
0.865006
0.865015
0.865025
0.865025
0.865035
0.865045
0.865054
0.865064
0.865064
0.865074
0.865083
0.865093
0.865103
0.865103
0.865113
0.865122
0.865132
0.865142
0.865142
0.865152
0.865162
0.865171
0.865181
0.865181
0.865191
0.865201
0.865211
0.86522
0.86522
0.86523
0.86524
0.86525
0.86526
0.86526
0.86527
0.865279
0.865289
0.865299
0.865299
0.865309
0.865319
0.865329
0.865339
0.865339
0.865349
0.865359
0.865368
0.865378
0.865378
0.865388
0.865398
0.865408
0.865418
0.865418
0.865428
0.865438
0.865448
0.865458
0.865458
0.865468
0.865478
0.865488
0.865498
0.865498
0.865508
0.865518
0.865528
0.865538
0.865538
0.865548
0.865558
0.865568
0.865578
0.865578
0.865588
0.865598
0.865608
0.865618
0.865618
0.865628
0.865639
0.865649
0.865659
0.865659
0.865669
0.865679
0.865689
0.865699
0.865699
0.865709
0.865719
0.86573
0.86574
0.86574
0.86575
0.86576
0.86577
0.86578
0.86578
0.865791
0.865801
0.865811
0.865821
0.865821
0.865831
0.865842
0.865852
0.865862
0.865862
0.865872
0.865882
0.865893
0.865903
0.865903
0.865913
0.865923
0.865934
0.865944
0.865944
0.865954
0.865965
0.865975
0.865985
0.865985
0.865995
0.866006
0.866016
0.866026
0.866026
0.866037
0.866047
0.866057
0.866068
0.866068
0.866078
0.866088
0.866099
0.866109
0.866109
0.86612
0.86613
0.86614
0.866151
0.866151
0.866161
0.866172
0.866182
0.866192
0.866192
0.866203
0.866213
0.866224
0.866234
0.866234
0.866245
0.866255
0.866266
0.866276
0.866276
0.866287
0.866297
0.866308
0.866318
0.866318
0.866329
0.866339
0.86635
0.86636
0.86636
0.866371
0.866381
0.866392
0.866402
0.866402
0.866413
0.866423
0.866434
0.866444
0.866444
0.866455
0.866466
0.866476
0.866487
0.866487
0.866497
0.866508
0.866519
0.866529
0.866529
0.86654
0.866551
0.866561
0.866572
0.866572
0.866583
0.866593
0.866604
0.866615
0.866615
0.866625
0.866636
0.866647
0.866657
0.866657
0.866668
0.866679
0.866689
0.8667
0.8667
0.866711
0.866722
0.866732
0.866743
0.866743
0.866754
0.866765
0.866775
0.866786
0.866786
0.866797
0.866808
0.866818
0.866829
0.866829
0.86684
0.866851
0.866862
0.866873
0.866873
0.866883
0.866894
0.866905
0.866916
0.866916
0.866927
0.866938
0.866948
0.866959
0.866959
0.86697
0.866981
0.866992
0.867003
0.867003
0.867014
0.867025
0.867036
0.867047
0.867047
0.867057
0.867068
0.867079
0.86709
0.86709
0.867101
0.867112
0.867123
0.867134
0.867134
0.867145
0.867156
0.867167
0.867178
0.867178
0.867189
0.8672
0.867211
0.867222
0.867222
0.867233
0.867244
0.867255
0.867266
0.867266
0.867277
0.867288
0.867299
0.867311
0.867311
0.867322
0.867333
0.867344
0.867355
0.867355
0.867366
0.867377
0.867388
0.867399
0.867399
0.86741
0.867422
0.867433
0.867444
0.867444
0.867455
0.867466
0.867477
0.867489
0.867489
0.8675
0.867511
0.867522
0.867533
0.867533
0.867544
0.867556
0.867567
0.867578
0.867578
0.867589
0.867601
0.867612
0.867623
0.867623
0.867634
0.867646
0.867657
0.867668
0.867668
0.867679
0.867691
0.867702
0.867713
0.867713
0.867725
0.867736
0.867747
0.867758
0.867758
0.86777
0.867781
0.867792
0.867804
0.867804
0.867815
0.867827
0.867838
0.867849
0.867849
0.867861
0.867872
0.867883
0.867895
0.867895
0.867906
0.867918
0.867929
0.86794
0.86794
0.867952
0.867963
0.867975
0.867986
0.867986
0.867998
0.868009
0.86802
0.868032
0.868032
0.868043
0.868055
0.868066
0.868078
0.868078
0.868089
0.868101
0.868112
0.868124
0.868124
0.868135
0.868147
0.868158
0.86817
0.86817
0.868182
0.868193
0.868205
0.868216
0.868216
0.868228
0.868239
0.868251
0.868263
0.868263
0.868274
0.868286
0.868297
0.868309
0.868309
0.868321
0.868332
0.868344
0.868356
0.868356
0.868367
0.868379
0.86839
0.868402
0.868402
0.868414
0.868425
0.868437
0.868449
0.868449
0.868461
0.868472
0.868484
0.868496
0.868496
0.868507
0.868519
0.868531
0.868543
0.868543
0.868554
0.868566
0.868578
0.86859
0.86859
0.868601
0.868613
0.868625
0.868637
0.868637
0.868648
0.86866
0.868672
0.868684
0.868684
0.868696
0.868708
0.868719
0.868731
0.868731
0.868743
0.868755
0.868767
0.868779
0.868779
0.86879
0.868802
0.868814
0.868826
0.868826
0.868838
0.86885
0.868862
0.868874
0.868874
0.868886
0.868897
0.868909
0.868921
0.868921
0.868933
0.868945
0.868957
0.868969
0.868969
0.868981
0.868993
0.869005
0.869017
0.869017
0.869029
0.869041
0.869053
0.869065
0.869065
0.869077
0.869089
0.869101
0.869113
0.869113
0.869125
0.869137
0.869149
0.869161
0.869161
0.869173
0.869185
0.869197
0.86921
0.86921
0.869222
0.869234
0.869246
0.869258
0.869258
0.86927
0.869282
0.869294
0.869306
0.869306
0.869319
0.869331
0.869343
0.869355
0.869355
0.869367
0.869379
0.869391
0.869404
0.869404
0.869416
0.869428
0.86944
0.869452
0.869452
0.869465
0.869477
0.869489
0.869501
0.869501
0.869513
0.869526
0.869538
0.86955
0.86955
0.869562
0.869575
0.869587
0.869599
0.869599
0.869612
0.869624
0.869636
0.869648
0.869648
0.869661
0.869673
0.869685
0.869698
0.869698
0.86971
0.869722
0.869735
0.869747
0.869747
0.869759
0.869772
0.869784
0.869796
0.869796
0.869809
0.869821
0.869834
0.869846
0.869846
0.869858
0.869871
0.869883
0.869896
0.869896
0.869908
0.869921
0.869933
0.869945
0.869945
0.869958
0.86997
0.869983
0.869995
0.869995
0.870008
0.87002
0.870033
0.870045
0.870045
0.870058
0.87007
0.870083
0.870095
0.870095
0.870108
0.87012
0.870133
0.870145
0.870145
0.870158
0.87017
0.870183
0.870196
0.870196
0.870208
0.870221
0.870233
0.870246
0.870246
0.870258
0.870271
0.870284
0.870296
0.870296
0.870309
0.870321
0.870334
0.870347
0.870347
0.870359
0.870372
0.870385
0.870397
0.870397
0.87041
0.870423
0.870435
0.870448
0.870448
0.870461
0.870473
0.870486
0.870499
0.870499
0.870512
0.870524
0.870537
0.87055
0.87055
0.870562
0.870575
0.870588
0.870601
0.870601
0.870613
0.870626
0.870639
0.870652
0.870652
0.870665
0.870677
0.87069
0.870703
0.870703
0.870716
0.870729
0.870741
0.870754
0.870754
0.870767
0.87078
0.870793
0.870806
0.870806
0.870818
0.870831
0.870844
0.870857
0.870857
0.87087
0.870883
0.870896
0.870909
0.870909
0.870922
0.870934
0.870947
0.87096
0.87096
0.870973
0.870986
0.870999
0.871012
0.871012
0.871025
0.871038
0.871051
0.871064
0.871064
0.871077
0.87109
0.871103
0.871116
0.871116
0.871129
0.871142
0.871155
0.871168
0.871168
0.871181
0.871194
0.871207
0.87122
0.87122
0.871233
0.871246
0.871259
0.871272
0.871272
0.871285
0.871298
0.871312
0.871325
0.871325
0.871338
0.871351
0.871364
0.871377
0.871377
0.87139
0.871403
0.871416
0.87143
0.87143
0.871443
0.871456
0.871469
0.871482
0.871482
0.871495
0.871509
0.871522
0.871535
0.871535
0.871548
0.871561
0.871575
0.871588
0.871588
0.871601
0.871614
0.871627
0.871641
0.871641
0.871654
0.871667
0.87168
0.871694
0.871694
0.871707
0.87172
0.871733
0.871747
0.871747
0.87176
0.871773
0.871787
0.8718
0.8718
0.871813
0.871827
0.87184
0.871853
0.871853
0.871867
0.87188
0.871893
0.871907
0.871907
0.87192
0.871933
0.871947
0.87196
0.87196
0.871973
0.871987
0.872
0.872014
0.872014
0.872027
0.87204
0.872054
0.872067
0.872067
0.872081
0.872094
0.872108
0.872121
0.872121
0.872134
0.872148
0.872161
0.872175
0.872175
0.872188
0.872202
0.872215
0.872229
0.872229
0.872242
0.872256
0.872269
0.872283
0.872283
0.872296
0.87231
0.872323
0.872337
0.872337
0.872351
0.872364
0.872378
0.872391
0.872391
0.872405
0.872418
0.872432
0.872446
0.872446
0.872459
0.872473
0.872486
0.8725
0.8725
0.872514
0.872527
0.872541
0.872555
0.872555
0.872568
0.872582
0.872595
0.872609
0.872609
0.872623
0.872636
0.87265
0.872664
0.872664
0.872678
0.872691
0.872705
0.872719
0.872719
0.872732
0.872746
0.87276
0.872774
0.872774
0.872787
0.872801
0.872815
0.872829
0.872829
0.872842
0.872856
0.87287
0.872884
0.872884
0.872897
0.872911
0.872925
0.872939
0.872939
0.872953
0.872966
0.87298
0.872994
0.872994
0.873008
0.873022
0.873036
0.873049
0.873049
0.873063
0.873077
0.873091
0.873105
0.873105
0.873119
0.873133
0.873147
0.87316
0.87316
0.873174
0.873188
0.873202
0.873216
0.873216
0.87323
0.873244
0.873258
0.873272
0.873272
0.873286
0.8733
0.873314
0.873328
0.873328
0.873342
0.873356
0.87337
0.873384
0.873384
0.873398
0.873412
0.873426
0.87344
0.87344
0.873454
0.873468
0.873482
0.873496
0.873496
0.87351
0.873524
0.873538
0.873552
0.873552
0.873566
0.87358
0.873594
0.873608
0.873608
0.873622
0.873636
0.87365
0.873665
0.873665
0.873679
0.873693
0.873707
0.873721
0.873721
0.873735
0.873749
0.873764
0.873778
0.873778
0.873792
0.873806
0.87382
0.873834
0.873834
0.873849
0.873863
0.873877
0.873891
0.873891
0.873905
0.87392
0.873934
0.873948
0.873948
0.873962
0.873976
0.873991
0.874005
0.874005
0.874019
0.874033
0.874048
0.874062
0.874062
0.874076
0.874091
0.874105
0.874119
0.874119
0.874133
0.874148
0.874162
0.874176
0.874176
0.874191
0.874205
0.874219
0.874234
0.874234
0.874248
0.874262
0.874277
0.874291
0.874291
0.874305
0.87432
0.874334
0.874349
0.874349
0.874363
0.874377
0.874392
0.874406
0.874406
0.874421
0.874435
0.874449
0.874464
0.874464
0.874478
0.874493
0.874507
0.874522
0.874522
0.874536
0.874551
0.874565
0.87458
0.87458
0.874594
0.874609
0.874623
0.874638
0.874638
0.874652
0.874667
0.874681
0.874696
0.874696
0.87471
0.874725
0.874739
0.874754
0.874754
0.874768
0.874783
0.874797
0.874812
0.874812
0.874827
0.874841
0.874856
0.87487
0.87487
0.874885
0.8749
0.874914
0.874929
0.874929
0.874943
0.874958
0.874973
0.874987
0.874987
0.875002
0.875017
0.875031
0.875046
0.875046
0.875061
0.875075
0.87509
0.875105
0.875105
0.875119
0.875134
0.875149
0.875164
0.875164
0.875178
0.875193
0.875208
0.875222
0.875222
0.875237
0.875252
0.875267
0.875281
0.875281
0.875296
0.875311
0.875326
0.875341
0.875341
0.875355
0.87537
0.875385
0.8754
0.8754
0.875414
0.875429
0.875444
0.875459
0.875459
0.875474
0.875489
0.875503
0.875518
0.875518
0.875533
0.875548
0.875563
0.875578
0.875578
0.875593
0.875608
0.875622
0.875637
0.875637
0.875652
0.875667
0.875682
0.875697
0.875697
0.875712
0.875727
0.875742
0.875757
0.875757
0.875772
0.875787
0.875802
0.875816
0.875816
0.875831
0.875846
0.875861
0.875876
0.875876
0.875891
0.875906
0.875921
0.875936
0.875936
0.875951
0.875966
0.875981
0.875996
0.875996
0.876012
0.876027
0.876042
0.876057
0.876057
0.876072
0.876087
0.876102
0.876117
0.876117
0.876132
0.876147
0.876162
0.876177
0.876177
0.876192
0.876208
0.876223
0.876238
0.876238
0.876253
0.876268
0.876283
0.876298
0.876298
0.876313
0.876329
0.876344
0.876359
0.876359
0.876374
0.876389
0.876404
0.87642
0.87642
0.876435
0.87645
0.876465
0.876481
0.876481
0.876496
0.876511
0.876526
0.876541
0.876541
0.876557
0.876572
0.876587
0.876602
0.876602
0.876618
0.876633
0.876648
0.876664
0.876664
0.876679
0.876694
0.876709
0.876725
0.876725
0.87674
0.876755
0.876771
0.876786
0.876786
0.876801
0.876817
0.876832
0.876847
0.876847
0.876863
0.876878
0.876893
0.876909
0.876909
0.876924
0.87694
0.876955
0.87697
0.87697
0.876986
0.877001
0.877017
0.877032
0.877032
0.877047
0.877063
0.877078
0.877094
0.877094
0.877109
0.877125
0.87714
0.877156
0.877156
0.877171
0.877186
0.877202
0.877217
0.877217
0.877233
0.877248
0.877264
0.877279
0.877279
0.877295
0.87731
0.877326
0.877342
0.877342
0.877357
0.877373
0.877388
0.877404
0.877404
0.877419
0.877435
0.87745
0.877466
0.877466
0.877482
0.877497
0.877513
0.877528
0.877528
0.877544
0.87756
0.877575
0.877591
0.877591
0.877606
0.877622
0.877638
0.877653
0.877653
0.877669
0.877685
0.8777
0.877716
0.877716
0.877732
0.877747
0.877763
0.877779
0.877779
0.877794
0.87781
0.877826
0.877842
0.877842
0.877857
0.877873
0.877889
0.877904
0.877904
0.87792
0.877936
0.877952
0.877967
0.877967
0.877983
0.877999
0.878015
0.87803
0.87803
0.878046
0.878062
0.878078
0.878094
0.878094
0.878109
0.878125
0.878141
0.878157
0.878157
0.878173
0.878189
0.878204
0.87822
0.87822
0.878236
0.878252
0.878268
0.878284
0.878284
0.8783
0.878315
0.878331
0.878347
0.878347
0.878363
0.878379
0.878395
0.878411
0.878411
0.878427
0.878443
0.878459
0.878475
0.878475
0.87849
0.878506
0.878522
0.878538
0.878538
0.878554
0.87857
0.878586
0.878602
0.878602
0.878618
0.878634
0.87865
0.878666
0.878666
0.878682
0.878698
0.878714
0.87873
0.87873
0.878746
0.878762
0.878778
0.878794
0.878794
0.87881
0.878826
0.878843
0.878859
0.878859
0.878875
0.878891
0.878907
0.878923
0.878923
0.878939
0.878955
0.878971
0.878987
0.878987
0.879003
0.87902
0.879036
0.879052
0.879052
0.879068
0.879084
0.8791
0.879116
0.879116
0.879133
0.879149
0.879165
0.879181
0.879181
0.879197
0.879214
0.87923
0.879246
0.879246
0.879262
0.879278
0.879295
0.879311
0.879311
0.879327
0.879343
0.879359
0.879376
0.879376
0.879392
0.879408
0.879424
0.879441
0.879441
0.879457
0.879473
0.87949
0.879506
0.879506
0.879522
0.879538
0.879555
0.879571
0.879571
0.879587
0.879604
0.87962
0.879636
0.879636
0.879653
0.879669
0.879685
0.879702
0.879702
0.879718
0.879735
0.879751
0.879767
0.879767
0.879784
0.8798
0.879816
0.879833
0.879833
0.879849
0.879866
0.879882
0.879898
0.879898
0.879915
0.879931
0.879948
0.879964
0.879964
0.879981
0.879997
0.880014
0.88003
0.88003
0.880047
0.880063
0.880079
0.880096
0.880096
0.880112
0.880129
0.880145
0.880162
0.880162
0.880178
0.880195
0.880212
0.880228
0.880228
0.880245
0.880261
0.880278
0.880294
0.880294
0.880311
0.880327
0.880344
0.880361
0.880361
0.880377
0.880394
0.88041
0.880427
0.880427
0.880443
0.88046
0.880477
0.880493
0.880493
0.88051
0.880527
0.880543
0.88056
0.88056
0.880576
0.880593
0.88061
0.880626
0.880626
0.880643
0.88066
0.880676
0.880693
0.880693
0.88071
0.880727
0.880743
0.88076
0.88076
0.880777
0.880793
0.88081
0.880827
0.880827
0.880844
0.88086
0.880877
0.880894
0.880894
0.880911
0.880927
0.880944
0.880961
0.880961
0.880978
0.880994
0.881011
0.881028
0.881028
0.881045
0.881062
0.881078
0.881095