<?xml version="1.0"?>
<VTKFile type="UnstructuredGrid" version="0.1" byte_order="LittleEndian">
<UnstructuredGrid>
<Piece NumberOfPoints="5000" NumberOfCells="4000">
<PointData Scalars="Reaction 0">
<DataArray type="Float32" Name="Reaction 0" format="ascii">
0.787108
0.787108
0.787109
0.787109
0.787109
0.787109
0.787109
0.787109
0.787109
0.787109
0.787109
0.78711
0.78711
0.78711
0.787111
0.787111
0.787111
0.787111
0.787112
0.787112
0.787112
0.787113
0.787113
0.787114
0.787114
0.787114
0.787115
0.787115
0.787116
0.787117
0.787117
0.787117
0.787118
0.787119
0.78712
0.78712
0.787121
0.787121
0.787122
0.787123
0.787123
0.787124
0.787125
0.787126
0.787127
0.787127
0.787128
0.787129
0.78713
0.787132
0.787132
0.787133
0.787134
0.787135
0.787136
0.787136
0.787138
0.787139
0.78714
0.787142
0.787142
0.787143
0.787145
0.787146
0.787147
0.787147
0.787149
0.787151
0.787152
0.787154
0.787154
0.787155
0.787157
0.787159
0.78716
0.78716
0.787162
0.787164
0.787166
0.787168
0.787168
0.787169
0.787171
0.787173
0.787175
0.787175
0.787177
0.787179
0.787181
0.787183
0.787183
0.787185
0.787187
0.78719
0.787192
0.787192
0.787194
0.787196
0.787198
0.787201
0.787201
0.787203
0.787205
0.787208
0.78721
0.78721
0.787213
0.787215
0.787218
0.78722
0.78722
0.787223
0.787225
0.787228
0.78723
0.78723
0.787233
0.787236
0.787239
0.787241
0.787241
0.787244
0.787247
0.78725
0.787253
0.787253
0.787256
0.787258
0.787261
0.787264
0.787264
0.787267
0.78727
0.787273
0.787277
0.787277
0.78728
0.787283
0.787286
0.787289
0.787289
0.787292
0.787296
0.787299
0.787302
0.787302
0.787306
0.787309
0.787312
0.787316
0.787316
0.787319
0.787323
0.787326
0.78733
0.78733
0.787334
0.787337
0.787341
0.787344
0.787344
0.787348
0.787352
0.787356
0.787359
0.787359
0.787363
0.787367
0.787371
0.787375
0.787375
0.787379
0.787383
0.787387
0.787391
0.787391
0.787395
0.787399
0.787403
0.787407
0.787407
0.787411
0.787415
0.78742
0.787424
0.787424
0.787428
0.787432
0.787437
0.787441
0.787441
0.787445
0.78745
0.787454
0.787459
0.787459
0.787463
0.787468
0.787472
0.787477
0.787477
0.787481
0.787486
0.787491
0.787495
0.787495
0.7875
0.787505
0.78751
0.787514
0.787514
0.787519
0.787524
0.787529
0.787534
0.787534
0.787539
0.787544
0.787549
0.787554
0.787554
0.787559
0.787564
0.787569
0.787574
0.787574
0.787579
0.787585
0.78759
0.787595
0.787595
0.7876
0.787606
0.787611
0.787616
0.787616
0.787622
0.787627
0.787633
0.787638
0.787638
0.787644
0.787649
0.787655
0.78766
0.78766
0.787666
0.787672
0.787677
0.787683
0.787683
0.787689
0.787694
0.7877
0.787706
0.787706
0.787712
0.787718
0.787724
0.787729
0.787729
0.787735
0.787741
0.787747
0.787753
0.787753
0.78776
0.787766
0.787772
0.787778
0.787778
0.787784
0.78779
0.787797
0.787803
0.787803
0.787809
0.787815
0.787822
0.787828
0.787828
0.787834
0.787841
0.787847
0.787854
0.787854
0.78786
0.787867
0.787873
0.78788
0.78788
0.787887
0.787893
0.7879
0.787907
0.787907
0.787913
0.78792
0.787927
0.787934
0.787934
0.787941
0.787947
0.787954
0.787961
0.787961
0.787968
0.787975
0.787982
0.787989
0.787989
0.787996
0.788003
0.788011
0.788018
0.788018
0.788025
0.788032
0.788039
0.788047
0.788047
0.788054
0.788061
0.788068
0.788076
0.788076
0.788083
0.788091
0.788098
0.788106
0.788106
0.788113
0.788121
0.788128
0.788136
0.788136
0.788143
0.788151
0.788159
0.788166
0.788166
0.788174
0.788182
0.78819
0.788197
0.788197
0.788205
0.788213
0.788221
0.788229
0.788229
0.788237
0.788245
0.788253
0.788261
0.788261
0.788269
0.788277
0.788285
0.788293
0.788293
0.788301
0.788309
0.788318
0.788326
0.788326
0.788334
0.788342
0.788351
0.788359
0.788359
0.788367
0.788376
0.788384
0.788393
0.788393
0.788401
0.78841
0.788418
0.788427
0.788427
0.788435
0.788444
0.788453
0.788461
0.788461
0.78847
0.788479
0.788487
0.788496
0.788496
0.788505
0.788514
0.788523
0.788532
0.788532
0.78854
0.788549
0.788558
0.788567
0.788567
0.788576
0.788585
0.788594
0.788604
0.788604
0.788613
0.788622
0.788631
0.78864
0.78864
0.788649
0.788659
0.788668
0.788677
0.788677
0.788687
0.788696
0.788705
0.788715
0.788715
0.788724
0.788734
0.788743
0.788753
0.788753
0.788762
0.788772
0.788781
0.788791
0.788791
0.788801
0.78881
0.78882
0.78883
0.78883
0.78884
0.788849
0.788859
0.788869
0.788869
0.788879
0.788889
0.788899
0.788909
0.788909
0.788918
0.788928
0.788939
0.788949
0.788949
0.788959
0.788969
0.788979
0.788989
0.788989
0.788999
0.789009
0.78902
0.78903
0.78903
0.78904
0.78905
0.789061
0.789071
0.789071
0.789081
0.789092
0.789102
0.789113
0.789113
0.789123
0.789134
0.789144
0.789155
0.789155
0.789165
0.789176
0.789187
0.789197
0.789197
0.789208
0.789219
0.78923
0.78924
0.78924
0.789251
0.789262
0.789273
0.789284
0.789284
0.789295
0.789305
0.789316
0.789327
0.789327
0.789338
0.789349
0.78936
0.789372
0.789372
0.789383
0.789394
0.789405
0.789416
0.789416
0.789427
0.789439
0.78945
0.789461
0.789461
0.789472
0.789484
0.789495
0.789506
0.789506
0.789518
0.789529
0.789541
0.789552
0.789552
0.789564
0.789575
0.789587
0.789598
0.789598
0.78961
0.789622
0.789633
0.789645
0.789645
0.789657
0.789668
0.78968
0.789692
0.789692
0.789704
0.789716
0.789727
0.789739
0.789739
0.789751
0.789763
0.789775
0.789787
0.789787
0.789799
0.789811
0.789823
0.789835
0.789835
0.789847
0.78986
0.789872
0.789884
0.789884
0.789896
0.789908
0.789921
0.789933
0.789933
0.789945
0.789957
0.78997
0.789982
0.789982
0.789995
0.790007
0.79002
0.790032
0.790032
0.790044
0.790057
0.79007
0.790082
0.790082
0.790095
0.790107
0.79012
0.790133
0.790133
0.790145
0.790158
0.790171
0.790184
0.790184
0.790196
0.790209
0.790222
0.790235
0.790235
0.790248
0.790261
0.790274
0.790287
0.790287
0.7903
0.790313
0.790326
0.790339
0.790339
0.790352
0.790365
0.790378
0.790391
0.790391
0.790405
0.790418
0.790431
0.790444
0.790444
0.790457
0.790471
0.790484
0.790497
0.790497
0.790511
0.790524
0.790538
0.790551
0.790551
0.790565
0.790578
0.790592
0.790605
0.790605
0.790619
0.790632
0.790646
0.79066
0.79066
0.790673
0.790687
0.790701
0.790714
0.790714
0.790728
0.790742
0.790756
0.79077
0.79077
0.790783
0.790797
0.790811
0.790825
0.790825
0.790839
0.790853
0.790867
0.790881
0.790881
0.790895
0.790909
0.790923
0.790937
0.790937
0.790951
0.790966
0.79098
0.790994
0.790994
0.791008
0.791022
0.791037
0.791051
0.791051
0.791065
0.79108
0.791094
0.791108
0.791108
0.791123
0.791137
0.791152
0.791166
0.791166
0.791181
0.791195
0.79121
0.791224
0.791224
0.791239
0.791254
0.791268
0.791283
0.791283
0.791298
0.791312
0.791327
0.791342
0.791342
0.791357
0.791371
0.791386
0.791401
0.791401
0.791416
0.791431
0.791446
0.791461
0.791461
0.791476
0.791491
0.791506
0.791521
0.791521
0.791536
0.791551
0.791566
0.791581
0.791581
0.791596
0.791611
0.791626
0.791642
0.791642
0.791657
0.791672
0.791687
0.791703
0.791703
0.791718
0.791733
0.791749
0.791764
0.791764
0.79178
0.791795
0.79181
0.791826
0.791826
0.791841
0.791857
0.791872
0.791888
0.791888
0.791904
0.791919
0.791935
0.79195
0.79195
0.791966
0.791982
0.791998
0.792013
0.792013
0.792029
0.792045
0.792061
0.792076
0.792076
0.792092
0.792108
0.792124
0.79214
0.79214
0.792156
0.792172
0.792188
0.792204
0.792204
0.79222
0.792236
0.792252
0.792268
0.792268
0.792284
0.7923
0.792316
0.792333
0.792333
0.792349
0.792365
0.792381
0.792398
0.792398
0.792414
0.79243
0.792446
0.792463
0.792463
0.792479
0.792496
0.792512
0.792528
0.792528
0.792545
0.792561
0.792578
0.792594
0.792594
0.792611
0.792627
0.792644
0.792661
0.792661
0.792677
0.792694
0.792711
0.792727
0.792727
0.792744
0.792761
0.792777
0.792794
0.792794
0.792811
0.792828
0.792845
0.792862
0.792862
0.792878
0.792895
0.792912
0.792929
0.792929
0.792946
0.792963
0.79298
0.792997
0.792997
0.793014
0.793031
0.793048
0.793065
0.793065
0.793082
0.7931
0.793117
0.793134
0.793134
0.793151
0.793168
0.793186
0.793203
0.793203
0.79322
0.793237
0.793255
0.793272
0.793272
0.79329
0.793307
0.793324
0.793342
0.793342
0.793359
0.793377
0.793394
0.793412
0.793412
0.793429
0.793447
0.793464
0.793482
0.793482
0.7935
0.793517
0.793535
0.793552
0.793552
0.79357
0.793588
0.793606
0.793623
0.793623
0.793641
0.793659
0.793677
0.793695
0.793695
0.793712
0.79373
0.793748
0.793766
0.793766
0.793784
0.793802
0.79382
0.793838
0.793838
0.793856
0.793874
0.793892
0.79391
0.79391
0.793928
0.793946
0.793964
0.793983
0.793983
0.794001
0.794019
0.794037
0.794055
0.794055
0.794074
0.794092
0.79411
0.794128
0.794128
0.794147
0.794165
0.794183
0.794202
0.794202
0.79422
0.794239
0.794257
0.794275
0.794275
0.794294
0.794312
0.794331
0.794349
0.794349
0.794368
0.794387
0.794405
0.794424
0.794424
0.794442
0.794461
0.79448
0.794498
0.794498
0.794517
0.794536
0.794555
0.794573
0.794573
0.794592
0.794611
0.79463
0.794648
0.794648
0.794667
0.794686
0.794705
0.794724
0.794724
0.794743
0.794762
0.794781
0.7948
0.7948
0.794819
0.794838
0.794857
0.794876
0.794876
0.794895
0.794914
0.794933
0.794952
0.794952
0.794971
0.794991
0.79501
0.795029
0.795029
0.795048
0.795067
0.795087
0.795106
0.795106
0.795125
0.795145
0.795164
0.795183
0.795183
0.795203
0.795222
0.795241
0.795261
0.795261
0.79528
0.7953
0.795319
0.795339
0.795339
0.795358
0.795378
0.795397
0.795417
0.795417
0.795436
0.795456
0.795476
0.795495
0.795495
0.795515
0.795535
0.795554
0.795574
0.795574
0.795594
0.795613
0.795633
0.795653
0.795653
0.795673
0.795693
0.795712
0.795732
0.795732
0.795752
0.795772
0.795792
0.795812
0.795812
0.795832
0.795852
0.795872
0.795892
0.795892
0.795912
0.795932
0.795952
0.795972
0.795972
0.795992
0.796012
0.796032
0.796052
0.796052
0.796072
0.796092
0.796113
0.796133
0.796133
0.796153
0.796173
0.796193
0.796214
0.796214
0.796234
0.796254
0.796275
0.796295
0.796295
0.796315
0.796336
0.796356
0.796376
0.796376
0.796397
0.796417
0.796438
0.796458
0.796458
0.796479
0.796499
0.79652
0.79654
0.79654
0.796561
0.796581
0.796602
0.796622
0.796622
0.796643
0.796664
0.796684
0.796705
0.796705
0.796726
0.796746
0.796767
0.796788
0.796788
0.796809
0.796829
0.79685
0.796871
0.796871
0.796892
0.796912
0.796933
0.796954
0.796954
0.796975
0.796996
0.797017
0.797038
0.797038
0.797059
0.79708
0.797101
0.797122
0.797122
0.797143
0.797164
0.797185
0.797206
0.797206
0.797227
0.797248
0.797269
0.79729
0.79729
0.797311
0.797332
0.797353
0.797375
0.797375
0.797396
0.797417
0.797438
0.797459
0.797459
0.797481
0.797502
0.797523
0.797545
0.797545
0.797566
0.797587
0.797609
0.79763
0.79763
0.797651
0.797673
0.797694
0.797716
0.797716
0.797737
0.797758
0.79778
0.797801
0.797801
0.797823
0.797844
0.797866
0.797887
0.797887
0.797909
0.797931
0.797952
0.797974
0.797974
0.797995
0.798017
0.798039
0.79806
0.79806
0.798082
0.798104
0.798125
0.798147
0.798147
0.798169
0.798191
0.798212
0.798234
0.798234
0.798256
0.798278
0.7983
0.798322
0.798322
0.798343
0.798365
0.798387
0.798409
0.798409
0.798431
0.798453
0.798475
0.798497
0.798497
0.798519
0.798541
0.798563
0.798585
0.798585
0.798607
0.798629
0.798651
0.798673
0.798673
0.798695
0.798717
0.798739
0.798762
0.798762
0.798784
0.798806
0.798828
0.79885
0.79885
0.798872
0.798895
0.798917
0.798939
0.798939
0.798961
0.798984
0.799006
0.799028
0.799028
0.799051
0.799073
0.799095
0.799118
0.799118
0.79914
0.799162
0.799185
0.799207
0.799207
0.79923
0.799252
0.799275
0.799297
0.799297
0.79932
0.799342
0.799365
0.799387
0.799387
0.79941
0.799432
0.799455
0.799477
0.799477
0.7995
0.799523
0.799545
0.799568
0.799568
0.79959
0.799613
0.799636
0.799658
0.799658
0.799681
0.799704
0.799727
0.799749
0.799749
0.799772
0.799795
0.799818
0.799841
0.799841
0.799863
0.799886
0.799909
0.799932
0.799932
0.799955
0.799978
0.800001
0.800023
0.800023
0.800046
0.800069
0.800092
0.800115
0.800115
0.800138
0.800161
0.800184
0.800207
0.800207
0.80023
0.800253
0.800276
0.800299
0.800299
0.800322
0.800345
0.800369
0.800392
0.800392
0.800415
0.800438
0.800461
0.800484
0.800484
0.800507
0.800531
0.800554
0.800577
0.800577
0.8006
0.800624
0.800647
0.80067
0.80067
0.800693
0.800717
0.80074
0.800763
0.800763
0.800787
0.80081
0.800833
0.800857
0.800857
0.80088
0.800903
0.800927
0.80095
0.80095
0.800974
0.800997
0.801021
0.801044
0.801044
0.801068
0.801091
0.801115
0.801138
0.801138
0.801162
0.801185
0.801209
0.801232
0.801232
0.801256
0.801279
0.801303
0.801327
0.801327
0.80135
0.801374
0.801398
0.801421
0.801421
0.801445
0.801469
0.801492
0.801516
0.801516
0.80154
0.801563
0.801587
0.801611
0.801611
0.801635
0.801658
0.801682
0.801706
0.801706
0.80173
0.801754
0.801778
0.801801
0.801801
0.801825
0.801849
0.801873
0.801897
0.801897
0.801921
0.801945
0.801969
0.801993
0.801993
0.802017
0.802041
0.802064
0.802088
0.802088
0.802112
0.802136
0.802161
0.802185
0.802185
0.802209
0.802233
0.802257
0.802281
0.802281
0.802305
0.802329
0.802353
0.802377
0.802377
0.802401
0.802426
0.80245
0.802474
0.802474
0.802498
0.802522
0.802546
0.802571
0.802571
0.802595
0.802619
0.802643
0.802668
0.802668
0.802692
0.802716
0.80274
0.802765
0.802765
0.802789
0.802813
0.802838
0.802862
0.802862
0.802886
0.802911
0.802935
0.802959
0.802959
0.802984
0.803008
0.803033
0.803057
0.803057
0.803082
0.803106
0.80313
0.803155
0.803155
0.803179
0.803204
0.803228
0.803253
0.803253
0.803277
0.803302
0.803327
0.803351
0.803351
0.803376
0.8034
0.803425
0.803449
0.803449
0.803474
0.803499
0.803523
0.803548
0.803548
0.803573
0.803597
0.803622
0.803647
0.803647
0.803671
0.803696
0.803721
0.803745
0.803745
0.80377
0.803795
0.80382
0.803844
0.803844
0.803869
0.803894
0.803919
0.803943
0.803943
0.803968
0.803993
0.804018
0.804043
0.804043
0.804068
0.804092
0.804117
0.804142
0.804142
0.804167
0.804192
0.804217
0.804242
0.804242
0.804267
0.804292
0.804317
0.804342
0.804342
0.804367
0.804392
0.804417
0.804442
0.804442
0.804467
0.804492
0.804517
0.804542
0.804542
0.804567
0.804592
0.804617
0.804642
0.804642
0.804667
0.804692
0.804717
0.804742
0.804742
0.804767
0.804792
0.804818
0.804843
0.804843
0.804868
0.804893
0.804918
0.804943
0.804943
0.804969
0.804994
0.805019
0.805044
0.805044
0.805069
0.805095
0.80512
0.805145
0.805145
0.80517
0.805196
0.805221
0.805246
0.805246
0.805272
0.805297
0.805322
0.805348
0.805348
0.805373
0.805398
0.805424
0.805449
0.805449
0.805474
0.8055
0.805525
0.805551
0.805551
0.805576
0.805601
0.805627
0.805652
0.805652
0.805678
0.805703
0.805729
0.805754
0.805754
0.80578
0.805805
0.80583
0.805856
0.805856
0.805882
0.805907
0.805933
0.805958
0.805958
0.805984
0.806009
0.806035
0.80606
0.80606
0.806086
0.806112
0.806137
0.806163
0.806163
0.806188
0.806214
0.80624
0.806265
0.806265
0.806291
0.806317
0.806342
0.806368
0.806368
0.806394
0.806419
0.806445
0.806471
0.806471
0.806496
0.806522
0.806548
0.806574
0.806574
0.806599
0.806625
0.806651
0.806677
0.806677
0.806702
0.806728
0.806754
0.80678
0.80678
0.806806
0.806831
0.806857
0.806883
0.806883
0.806909
0.806935
0.806961
0.806986
0.806986
0.807012
0.807038
0.807064
0.80709
0.80709
0.807116
0.807142
0.807168
0.807194
0.807194
0.80722
0.807246
0.807272
0.807297
0.807297
0.807323
0.807349
0.807375
0.807401
0.807401
0.807427
0.807453
0.807479
0.807505
0.807505
0.807531
0.807558
0.807584
0.80761
0.80761
0.807636
0.807662
0.807688
0.807714
0.807714
0.80774
0.807766
0.807792
0.807818
0.807818
0.807844
0.807871
0.807897
0.807923
0.807923
0.807949
0.807975
0.808001
0.808027
0.808027
0.808054
0.80808
0.808106
0.808132
0.808132
0.808158
0.808185
0.808211
0.808237
0.808237
0.808263
0.80829
0.808316
0.808342
0.808342
0.808368
0.808395
0.808421
0.808447
0.808447
0.808473
0.8085
0.808526
0.808552
0.808552
0.808579
0.808605
0.808631
0.808658
0.808658
0.808684
0.80871
0.808737
0.808763
0.808763
0.808789
0.808816
0.808842
0.808869
0.808869
0.808895
0.808921
0.808948
0.808974
0.808974
0.809001
0.809027
0.809054
0.80908
0.80908
0.809107
0.809133
0.809159
0.809186
0.809186
0.809212
0.809239
0.809265
0.809292
0.809292
0.809318
0.809345
0.809371
0.809398
0.809398
0.809424
0.809451
0.809478
0.809504
0.809504
0.809531
0.809557
0.809584
0.80961
0.80961
0.809637
0.809664
0.80969
0.809717
0.809717
0.809743
0.80977
0.809797
0.809823
0.809823
0.80985
0.809877
0.809903
0.80993
0.80993
0.809957
0.809983
0.81001
0.810037
0.810037
0.810063
0.81009
0.810117
0.810143
0.810143
0.81017
0.810197
0.810223
0.81025
0.81025
0.810277
0.810304
0.81033
0.810357
0.810357
0.810384
0.810411
0.810437
0.810464
0.810464
0.810491
0.810518
0.810545
0.810571
0.810571
0.810598
0.810625
0.810652
0.810679
0.810679
0.810706
0.810732
0.810759
0.810786
0.810786
0.810813
0.81084
0.810867
0.810893
0.810893
0.81092
0.810947
0.810974
0.811001
0.811001
0.811028
0.811055
0.811082
0.811109
0.811109
0.811136
0.811162
0.811189
0.811216
0.811216
0.811243
0.81127
0.811297
0.811324
0.811324
0.811351
0.811378
0.811405
0.811432
0.811432
0.811459
0.811486
0.811513
0.81154
0.81154
0.811567
0.811594
0.811621
0.811648
0.811648
0.811675
0.811702
0.811729
0.811756
0.811756
0.811783
0.81181
0.811837
0.811865
0.811865
0.811892
0.811919
0.811946
0.811973
0.811973
0.812
0.812027
0.812054
0.812081
0.812081
0.812108
0.812135
0.812163
0.81219
0.81219
0.812217
0.812244
0.812271
0.812298
0.812298
0.812325
0.812353
0.81238
0.812407
0.812407
0.812434
0.812461
0.812489
0.812516
0.812516
0.812543
0.81257
0.812597
0.812625
0.812625
0.812652
0.812679
0.812706
0.812733
0.812733
0.812761
0.812788
0.812815
0.812842
0.812842
0.81287
0.812897
0.812924
0.812951
0.812951
0.812979
0.813006
0.813033
0.813061
0.813061
0.813088
0.813115
0.813142
0.81317
0.81317
0.813197
0.813224
0.813252
0.813279
0.813279
0.813306
0.813334
0.813361
0.813388
0.813388
0.813416
0.813443
0.81347
0.813498
0.813498
0.813525
0.813553
0.81358
0.813607
0.813607
0.813635
0.813662
0.813689
0.813717
0.813717
0.813744
0.813772
0.813799
0.813827
0.813827
0.813854
0.813881
0.813909
0.813936
0.813936
0.813964
0.813991
0.814019
0.814046
0.814046
0.814073
0.814101
0.814128
0.814156
0.814156
0.814183
0.814211
0.814238
0.814266
0.814266
0.814293
0.814321
0.814348
0.814376
0.814376
0.814403
0.814431
0.814458
0.814486
0.814486
0.814513
0.814541
0.814568
0.814596
0.814596
0.814624
0.814651
0.814679
0.814706
0.814706
0.814734
0.814761
0.814789
0.814816
0.814816
0.814844
0.814872
0.814899
0.814927
0.814927
0.814954
0.814982
0.81501
0.815037
0.815037
0.815065
0.815092
0.81512
0.815148
0.815148
0.815175
0.815203
0.81523
0.815258
0.815258
0.815286
0.815313
0.815341
0.815369
0.815369
0.815396
0.815424
0.815452
0.815479
0.815479
0.815507
0.815535
0.815562
0.81559
0.81559
0.815618
0.815645
0.815673
0.815701
0.815701
0.815728
0.815756
0.815784
0.815812
0.815812
0.815839
0.815867
0.815895
0.815922
0.815922
0.81595
0.815978
0.816006
0.816033
0.816033
0.816061
0.816089
0.816117
0.816144
0.816144
0.816172
0.8162
0.816228
0.816255
0.816255
0.816283
0.816311
0.816339
0.816366
0.816366
0.816394
0.816422
0.81645
0.816478
0.816478
0.816505
0.816533
0.816561
0.816589
0.816589
0.816617
0.816645
0.816672
0.8167
0.8167
0.816728
0.816756
0.816784
0.816811
0.816811
0.816839
0.816867
0.816895
0.816923
0.816923
0.816951
0.816979
0.817006
0.817034
0.817034
0.817062
0.81709
0.817118
0.817146
0.817146
0.817174
0.817202
0.817229
0.817257
0.817257
0.817285
0.817313
0.817341
0.817369
0.817369
0.817397
0.817425
0.817453
0.817481
0.817481
0.817508
0.817536
0.817564
0.817592
0.817592
0.81762
0.817648
0.817676
0.817704
0.817704
0.817732
0.81776
0.817788
0.817816
0.817816
0.817844
0.817872
0.8179
0.817928
0.817928
0.817956
0.817984
0.818012
0.818039
0.818039
0.818067
0.818095
0.818123
0.818151
0.818151
0.818179
0.818207
0.818235
0.818263
0.818263
0.818291
0.818319
0.818347
0.818375
0.818375
0.818403
0.818431
0.818459
0.818488
0.818488
0.818516
0.818544
0.818572
0.8186
0.8186
0.818628
0.818656
0.818684
0.818712
0.818712
0.81874
0.818768
0.818796
0.818824
0.818824
0.818852
0.81888
0.818908
0.818936
0.818936
0.818964
0.818992
0.81902
0.819049
0.819049
0.819077
0.819105
0.819133
0.819161
0.819161
0.819189
0.819217
0.819245
0.819273
0.819273
0.819301
0.819329
0.819358
0.819386
0.819386
0.819414
0.819442
0.81947
0.819498
0.819498
0.819526
0.819554
0.819583
0.819611
0.819611
0.819639
0.819667
0.819695
0.819723
0.819723
0.819751
0.81978
0.819808
0.819836
0.819836
0.819864
0.819892
0.81992
0.819948
0.819948
0.819977
0.820005
0.820033
0.820061
0.820061
0.820089
0.820117
0.820146
0.820174
0.820174
0.820202
0.82023
0.820258
0.820287
0.820287
0.820315
0.820343
0.820371
0.820399
0.820399
0.820428
0.820456
0.820484
0.820512
0.820512
0.82054
0.820569
0.820597
0.820625
0.820625
0.820653
0.820682
0.82071
0.820738
0.820738
0.820766
0.820794
0.820823
0.820851
0.820851
0.820879
0.820907
0.820936
0.820964
0.820964
0.820992
0.82102
0.821049
0.821077
0.821077
0.821105
0.821133
0.821162
0.82119
0.82119
0.821218
0.821246
0.821275
0.821303
0.821303
0.821331
0.82136
0.821388
0.821416
0.821416
0.821444
0.821473
0.821501
0.821529
0.821529
0.821558
0.821586
0.821614
0.821642
0.821642
0.821671
0.821699
0.821727
0.821756
0.821756
0.821784
0.821812
0.821841
0.821869
0.821869
0.821897
0.821926
0.821954
0.821982
0.821982
0.822011
0.822039
0.822067
0.822095
0.822095
0.822124
0.822152
0.82218
0.822209
0.822209
0.822237
0.822266
0.822294
0.822322
0.822322
0.822351
0.822379
0.822407
0.822436
0.822436
0.822464
0.822492
0.822521
0.822549
0.822549
0.822577
0.822606
0.822634
0.822663
0.822663
0.822691
0.822719
0.822748
0.822776
0.822776
0.822804
0.822833
0.822861
0.82289
0.82289
0.822918
0.822946
0.822975
0.823003
0.823003
0.823031
0.82306
0.823088
0.823117
0.823117
0.823145
0.823173
0.823202
0.82323
0.82323
0.823259
0.823287
0.823315
0.823344
0.823344
0.823372
0.823401
0.823429
0.823458
0.823458
0.823486
0.823514
0.823543
0.823571
0.823571
0.8236
0.823628
0.823657
0.823685
0.823685
0.823713
0.823742
0.82377
0.823799
0.823799
0.823827
0.823856
0.823884
0.823913
0.823913
0.823941
0.823969
0.823998
0.824026
0.824026
0.824055
0.824083
0.824112
0.82414
0.82414
0.824169
0.824197
0.824226
0.824254
0.824254
0.824282
0.824311
0.824339
0.824368
0.824368
0.824396
0.824425
0.824453
0.824482
0.824482
0.82451
0.824539
0.824567
0.824596
0.824596
0.824624
0.824653
0.824681
0.82471
0.82471
0.824738
0.824767
0.824795
0.824824
0.824824
0.824852
0.824881
0.824909
0.824938
0.824938
0.824966
0.824995
0.825023
0.825052
0.825052
0.82508
0.825109
0.825137
0.825166
0.825166
0.825194
0.825223
0.825251
0.82528
0.82528
0.825308
0.825337
0.825365
0.825394
0.825394
0.825422
0.825451
0.825479
0.825508
0.825508
0.825536
0.825565
0.825594
0.825622
0.825622
0.825651
0.825679
0.825708
0.825736
0.825736
0.825765
0.825793
0.825822
0.82585
0.82585
0.825879
0.825908
0.825936
0.825965
0.825965
0.825993
0.826022
0.82605
0.826079
0.826079
0.826107
0.826136
0.826165
0.826193
0.826193
0.826222
0.82625
0.826279
0.826307
0.826307
0.826336
0.826364
0.826393
0.826422
0.826422
0.82645
0.826479
0.826507
0.826536
0.826536
0.826564
0.826593
0.826622
0.82665
0.82665
0.826679
0.826707
0.826736
0.826765
0.826765
0.826793
0.826822
0.82685
0.826879
0.826879
0.826908
0.826936
0.826965
0.826993
0.826993
0.827022
0.82705
0.827079
0.827108
0.827108
0.827136
0.827165
0.827194
0.827222
0.827222
0.827251
0.827279
0.827308
0.827337
0.827337
0.827365
0.827394
0.827422
0.827451
0.827451
0.82748
0.827508
0.827537
0.827565
0.827565
0.827594
0.827623
0.827651
0.82768
0.82768
0.827709
0.827737
0.827766
0.827794
0.827794
0.827823
0.827852
0.82788
0.827909
0.827909
0.827938
0.827966
0.827995
0.828023
0.828023
0.828052
0.828081
0.828109
0.828138
0.828138
0.828167
0.828195
0.828224
0.828253
0.828253
0.828281
0.82831
0.828339
0.828367
0.828367
0.828396
0.828424
0.828453
0.828482
0.828482
0.82851
0.828539
0.828568
0.828596
0.828596
0.828625
0.828654
0.828682
0.828711
0.828711
0.82874
0.828768
0.828797
0.828826
0.828826
0.828854
0.828883
0.828912
0.82894
0.82894
0.828969
0.828998
0.829026
0.829055
0.829055
0.829084
0.829112
0.829141
0.82917
0.82917
0.829198
0.829227
0.829256
0.829284
0.829284
0.829313
0.829342
0.82937
0.829399
0.829399
0.829428
0.829456
0.829485
0.829514
0.829514
0.829543
0.829571
0.8296
0.829629
0.829629
0.829657
0.829686
0.829715
0.829743
0.829743
0.829772
0.829801
0.829829
0.829858
0.829858
0.829887
0.829916
0.829944
0.829973
0.829973
0.830002
0.83003
0.830059
0.830088
0.830088
0.830116
0.830145
0.830174
0.830203
0.830203
0.830231
0.83026
0.830289
0.830317
0.830317
0.830346
0.830375
0.830403
0.830432
0.830432
0.830461
0.83049
0.830518
0.830547
0.830547
0.830576
0.830604
0.830633
0.830662
0.830662
0.830691
0.830719
0.830748
0.830777
0.830777
0.830805
0.830834
0.830863
0.830892
0.830892
0.83092
0.830949
0.830978
0.831007
0.831007
0.831035
0.831064
0.831093
0.831121
0.831121
0.83115
0.831179
0.831208
0.831236
0.831236
0.831265
0.831294
0.831323
0.831351
0.831351
0.83138
0.831409
0.831437
0.831466
0.831466
0.831495
0.831524
0.831552
0.831581
0.831581
0.83161
0.831639
0.831667
0.831696
0.831696
0.831725
0.831754
0.831782
0.831811
0.831811
0.83184
0.831869
0.831897
0.831926
0.831926
0.831955
0.831984
0.832012
0.832041
0.832041
0.83207
0.832099
0.832127
0.832156
0.832156
0.832185
0.832214
0.832242
0.832271
0.832271
0.8323
0.832329
0.832357
0.832386
0.832386
0.832415
0.832444
0.832472
0.832501
0.832501
0.83253
0.832559
0.832587
0.832616
0.832616
0.832645
0.832674
0.832702
0.832731
0.832731
0.83276
0.832789
0.832818
0.832846
0.832846
0.832875
0.832904
0.832933
0.832961
0.832961
0.83299
0.833019
0.833048
0.833076
0.833076
0.833105
0.833134
0.833163
0.833192
0.833192
0.83322
0.833249
0.833278
0.833307
0.833307
0.833335
0.833364
0.833393
0.833422
0.833422
0.833451
0.833479
0.833508
0.833537
0.833537
0.833566
0.833594
0.833623
0.833652
0.833652
0.833681
0.83371
0.833738
0.833767
0.833767
0.833796
0.833825
0.833853
0.833882
0.833882
0.833911
0.83394
0.833969
0.833997
0.833997
0.834026
0.834055
0.834084
0.834113
0.834113
0.834141
0.83417
0.834199
0.834228
0.834228
0.834257
0.834285
0.834314
0.834343
0.834343
0.834372
0.8344
0.834429
0.834458
0.834458
0.834487
0.834516
0.834544
0.834573
0.834573
0.834602
0.834631
0.83466
0.834688
0.834688
0.834717
0.834746
0.834775
0.834804
0.834804
0.834832
0.834861
0.83489
0.834919
0.834919
0.834948
0.834976
0.835005
0.835034
0.835034
0.835063
0.835092
0.83512
0.835149
0.835149
0.835178
0.835207
0.835236
0.835264
0.835264
0.835293
0.835322
0.835351
0.83538
0.83538
0.835409
0.835437
0.835466
0.835495
0.835495
0.835524
0.835553
0.835581
0.83561
0.83561
0.835639
0.835668
0.835697
0.835725
0.835725
0.835754
0.835783
0.835812
0.835841
0.835841
0.83587
0.835898
0.835927
0.835956
0.835956
0.835985
0.836014
0.836042
0.836071
0.836071
0.8361
0.836129
0.836158
0.836187
0.836187
0.836215
0.836244
0.836273
0.836302
0.836302
0.836331
0.836359
0.836388
0.836417
0.836417
0.836446
0.836475
0.836504
0.836532
0.836532
0.836561
0.83659
0.836619
0.836648
0.836648
0.836677
0.836705
0.836734
0.836763
0.836763
0.836792
0.836821
0.836849
0.836878
0.836878
0.836907
0.836936
0.836965
0.836994
0.836994
0.837022
0.837051
0.83708
0.837109
0.837109
0.837138
0.837167
0.837195
0.837224
0.837224
0.837253
0.837282
0.837311
0.83734
0.83734
0.837368
0.837397
0.837426
0.837455
0.837455
0.837484
0.837513
0.837541
0.83757
0.83757
0.837599
0.837628
0.837657
0.837686
0.837686
0.837714
0.837743
0.837772
0.837801
0.837801
0.83783
0.837859
0.837887
0.837916
0.837916
0.837945
0.837974
0.838003
0.838032
0.838032
0.838061
0.838089
0.838118
0.838147
0.838147
0.838176
0.838205
0.838234
0.838262
0.838262
0.838291
0.83832
0.838349
0.838378
0.838378
0.838407
0.838435
0.838464
0.838493
0.838493
0.838522
0.838551
0.83858
0.838609
0.838609
0.838637
0.838666
0.838695
0.838724
0.838724
0.838753
0.838782
0.83881
0.838839
0.838839
0.838868
0.838897
0.838926
0.838955
0.838955
0.838984
0.839012
0.839041
0.83907
0.83907
0.839099
0.839128
0.839157
0.839186
0.839186
0.839214
0.839243
0.839272
0.839301
0.839301
0.83933
0.839359
0.839388
0.839416
0.839416
0.839445
0.839474
0.839503
0.839532
0.839532
0.839561
0.839589
0.839618
0.839647
0.839647
0.839676
0.839705
0.839734
0.839763
0.839763
0.839791
0.83982
0.839849
0.839878
0.839878
0.839907
0.839936
0.839965
0.839993
0.839993
0.840022
0.840051
0.84008
0.840109
0.840109
0.840138
0.840167
0.840195
0.840224
0.840224
0.840253
0.840282
0.840311
0.84034
0.84034
0.840369
0.840397
0.840426
0.840455
0.840455
0.840484
0.840513
0.840542
0.840571
0.840571
0.8406
0.840628
0.840657
0.840686
0.840686
0.840715
0.840744
0.840773
0.840802
0.840802
0.84083
0.840859
0.840888
0.840917
0.840917
0.840946
0.840975
0.841004
0.841032
0.841032
0.841061
0.84109
0.841119
0.841148
0.841148
0.841177
0.841206
0.841235
0.841263
0.841263
0.841292
0.841321
0.84135
0.841379
0.841379
0.841408
0.841437
0.841465
0.841494
0.841494
0.841523
0.841552
0.841581
0.84161
0.84161
0.841639
0.841668
0.841696
0.841725
0.841725
0.841754
0.841783
0.841812
0.841841
0.841841
0.84187
0.841898
0.841927
0.841956
0.841956
0.841985
0.842014
0.842043
0.842072
0.842072
0.842101
0.842129
0.842158
0.842187
0.842187
0.842216
0.842245
0.842274
0.842303
0.842303
0.842332
0.84236
0.842389
0.842418
0.842418
0.842447
0.842476
0.842505
0.842534
0.842534
0.842563
0.842591
0.84262
0.842649
0.842649
0.842678
0.842707
0.842736
0.842765
0.842765
0.842794
0.842822
0.842851
0.84288
0.84288
0.842909
0.842938
0.842967
0.842996
0.842996
0.843025
0.843053
0.843082
0.843111
0.843111
0.84314
0.843169
0.843198
0.843227
0.843227
0.843256
0.843284
0.843313
0.843342
0.843342
0.843371
0.8434
0.843429
0.843458
0.843458
0.843487
0.843515
0.843544
0.843573
0.843573
0.843602
0.843631
0.84366
0.843689
0.843689
0.843718
0.843746
0.843775
0.843804
0.843804
0.843833
0.843862
0.843891
0.84392
0.84392
0.843949
0.843978
0.844006
0.844035
0.844035
0.844064
0.844093
0.844122
0.844151
0.844151
0.84418
0.844209
0.844237
0.844266
0.844266
0.844295
0.844324
0.844353
0.844382
0.844382
0.844411
0.84444
0.844469
0.844497
0.844497
0.844526
0.844555
0.844584
0.844613
0.844613
0.844642
0.844671
0.8447
0.844728
0.844728
0.844757
0.844786
0.844815
0.844844
0.844844
0.844873
0.844902
0.844931
0.84496
0.84496
0.844988
0.845017
0.845046
0.845075
0.845075
0.845104
0.845133
0.845162
0.845191
0.845191
0.845219
0.845248
0.845277
0.845306
0.845306
0.845335
0.845364
0.845393
0.845422
0.845422
0.845451
0.845479
0.845508
0.845537
0.845537
0.845566
0.845595
0.845624
0.845653
0.845653
0.845682
0.845711
0.845739
0.845768
0.845768
0.845797
0.845826
0.845855
0.845884
0.845884
0.845913
0.845942
0.845971
0.845999
0.845999
0.846028
0.846057
0.846086