<?xml version="1.0"?>
<VTKFile type="UnstructuredGrid" version="0.1" byte_order="LittleEndian">
<UnstructuredGrid>
<Piece NumberOfPoints="5000" NumberOfCells="4000">
<PointData Scalars="Reaction 0">
<DataArray type="Float32" Name="Reaction 0" format="ascii">
0.496611
0.496611
0.496611
0.496611
0.496611
0.496611
0.496611
0.496611
0.496611
0.496612
0.496612
0.496612
0.496612
0.496612
0.496612
0.496612
0.496613
0.496613
0.496613
0.496613
0.496613
0.496614
0.496614
0.496614
0.496615
0.496615
0.496615
0.496615
0.496616
0.496616
0.496616
0.496617
0.496617
0.496618
0.496618
0.496618
0.496619
0.496619
0.49662
0.49662
0.49662
0.496621
0.496622
0.496622
0.496623
0.496623
0.496624
0.496624
0.496625
0.496626
0.496626
0.496626
0.496627
0.496628
0.496629
0.496629
0.49663
0.49663
0.496631
0.496632
0.496632
0.496633
0.496634
0.496635
0.496636
0.496636
0.496637
0.496638
0.496639
0.49664
0.49664
0.496641
0.496642
0.496643
0.496644
0.496644
0.496645
0.496646
0.496647
0.496649
0.496649
0.49665
0.496651
0.496652
0.496654
0.496654
0.496655
0.496656
0.496657
0.496659
0.496659
0.49666
0.496661
0.496663
0.496664
0.496664
0.496666
0.496667
0.496668
0.49667
0.49667
0.496671
0.496673
0.496674
0.496676
0.496676
0.496677
0.496679
0.496681
0.496682
0.496682
0.496684
0.496685
0.496687
0.496689
0.496689
0.496691
0.496692
0.496694
0.496696
0.496696
0.496698
0.496699
0.496701
0.496703
0.496703
0.496705
0.496707
0.496709
0.49671
0.49671
0.496712
0.496714
0.496716
0.496718
0.496718
0.49672
0.496722
0.496724
0.496726
0.496726
0.496728
0.496731
0.496733
0.496735
0.496735
0.496737
0.496739
0.496741
0.496743
0.496743
0.496746
0.496748
0.49675
0.496752
0.496752
0.496755
0.496757
0.496759
0.496762
0.496762
0.496764
0.496766
0.496769
0.496771
0.496771
0.496774
0.496776
0.496779
0.496781
0.496781
0.496784
0.496786
0.496789
0.496791
0.496791
0.496794
0.496796
0.496799
0.496802
0.496802
0.496804
0.496807
0.49681
0.496812
0.496812
0.496815
0.496818
0.496821
0.496824
0.496824
0.496826
0.496829
0.496832
0.496835
0.496835
0.496838
0.496841
0.496844
0.496846
0.496846
0.496849
0.496852
0.496855
0.496858
0.496858
0.496861
0.496864
0.496868
0.496871
0.496871
0.496874
0.496877
0.49688
0.496883
0.496883
0.496886
0.496889
0.496893
0.496896
0.496896
0.496899
0.496902
0.496906
0.496909
0.496909
0.496912
0.496916
0.496919
0.496922
0.496922
0.496926
0.496929
0.496933
0.496936
0.496936
0.49694
0.496943
0.496947
0.49695
0.49695
0.496954
0.496957
0.496961
0.496964
0.496964
0.496968
0.496972
0.496975
0.496979
0.496979
0.496983
0.496986
0.49699
0.496994
0.496994
0.496997
0.497001
0.497005
0.497009
0.497009
0.497013
0.497017
0.49702
0.497024
0.497024
0.497028
0.497032
0.497036
0.49704
0.49704
0.497044
0.497048
0.497052
0.497056
0.497056
0.49706
0.497064
0.497068
0.497072
0.497072
0.497077
0.497081
0.497085
0.497089
0.497089
0.497093
0.497097
0.497102
0.497106
0.497106
0.49711
0.497115
0.497119
0.497123
0.497123
0.497128
0.497132
0.497136
0.497141
0.497141
0.497145
0.49715
0.497154
0.497158
0.497158
0.497163
0.497167
0.497172
0.497177
0.497177
0.497181
0.497186
0.49719
0.497195
0.497195
0.4972
0.497204
0.497209
0.497214
0.497214
0.497218
0.497223
0.497228
0.497233
0.497233
0.497237
0.497242
0.497247
0.497252
0.497252
0.497257
0.497262
0.497266
0.497271
0.497271
0.497276
0.497281
0.497286
0.497291
0.497291
0.497296
0.497301
0.497306
0.497311
0.497311
0.497316
0.497322
0.497327
0.497332
0.497332
0.497337
0.497342
0.497347
0.497353
0.497353
0.497358
0.497363
0.497368
0.497374
0.497374
0.497379
0.497384
0.497389
0.497395
0.497395
0.4974
0.497406
0.497411
0.497416
0.497416
0.497422
0.497427
0.497433
0.497438
0.497438
0.497444
0.497449
0.497455
0.497461
0.497461
0.497466
0.497472
0.497477
0.497483
0.497483
0.497489
0.497494
0.4975
0.497506
0.497506
0.497512
0.497517
0.497523
0.497529
0.497529
0.497535
0.497541
0.497546
0.497552
0.497552
0.497558
0.497564
0.49757
0.497576
0.497576
0.497582
0.497588
0.497594
0.4976
0.4976
0.497606
0.497612
0.497618
0.497624
0.497624
0.49763
0.497636
0.497642
0.497649
0.497649
0.497655
0.497661
0.497667
0.497673
0.497673
0.49768
0.497686
0.497692
0.497699
0.497699
0.497705
0.497711
0.497718
0.497724
0.497724
0.49773
0.497737
0.497743
0.49775
0.49775
0.497756
0.497763
0.497769
0.497776
0.497776
0.497782
0.497789
0.497795
0.497802
0.497802
0.497809
0.497815
0.497822
0.497828
0.497828
0.497835
0.497842
0.497849
0.497855
0.497855
0.497862
0.497869
0.497876
0.497883
0.497883
0.497889
0.497896
0.497903
0.49791
0.49791
0.497917
0.497924
0.497931
0.497938
0.497938
0.497945
0.497952
0.497959
0.497966
0.497966
0.497973
0.49798
0.497987
0.497994
0.497994
0.498001
0.498008
0.498016
0.498023
0.498023
0.49803
0.498037
0.498044
0.498052
0.498052
0.498059
0.498066
0.498073
0.498081
0.498081
0.498088
0.498096
0.498103
0.49811
0.49811
0.498118
0.498125
0.498133
0.49814
0.49814
0.498148
0.498155
0.498163
0.49817
0.49817
0.498178
0.498185
0.498193
0.498201
0.498201
0.498208
0.498216
0.498223
0.498231
0.498231
0.498239
0.498247
0.498254
0.498262
0.498262
0.49827
0.498278
0.498286
0.498293
0.498293
0.498301
0.498309
0.498317
0.498325
0.498325
0.498333
0.498341
0.498349
0.498357
0.498357
0.498365
0.498373
0.498381
0.498389
0.498389
0.498397
0.498405
0.498413
0.498421
0.498421
0.498429
0.498438
0.498446
0.498454
0.498454
0.498462
0.49847
0.498479
0.498487
0.498487
0.498495
0.498504
0.498512
0.49852
0.49852
0.498529
0.498537
0.498545
0.498554
0.498554
0.498562
0.498571
0.498579
0.498588
0.498588
0.498596
0.498605
0.498613
0.498622
0.498622
0.49863
0.498639
0.498648
0.498656
0.498656
0.498665
0.498674
0.498682
0.498691
0.498691
0.4987
0.498708
0.498717
0.498726
0.498726
0.498735
0.498744
0.498752
0.498761
0.498761
0.49877
0.498779
0.498788
0.498797
0.498797
0.498806
0.498815
0.498824
0.498833
0.498833
0.498842
0.498851
0.49886
0.498869
0.498869
0.498878
0.498887
0.498896
0.498905
0.498905
0.498915
0.498924
0.498933
0.498942
0.498942
0.498951
0.498961
0.49897
0.498979
0.498979
0.498989
0.498998
0.499007
0.499017
0.499017
0.499026
0.499035
0.499045
0.499054
0.499054
0.499064
0.499073
0.499083
0.499092
0.499092
0.499102
0.499111
0.499121
0.49913
0.49913
0.49914
0.49915
0.499159
0.499169
0.499169
0.499179
0.499188
0.499198
0.499208
0.499208
0.499217
0.499227
0.499237
0.499247
0.499247
0.499257
0.499266
0.499276
0.499286
0.499286
0.499296
0.499306
0.499316
0.499326
0.499326
0.499336
0.499346
0.499356
0.499366
0.499366
0.499376
0.499386
0.499396
0.499406
0.499406
0.499416
0.499426
0.499436
0.499447
0.499447
0.499457
0.499467
0.499477
0.499487
0.499487
0.499498
0.499508
0.499518
0.499528
0.499528
0.499539
0.499549
0.499559
0.49957
0.49957
0.49958
0.499591
0.499601
0.499612
0.499612
0.499622
0.499632
0.499643
0.499653
0.499653
0.499664
0.499675
0.499685
0.499696
0.499696
0.499706
0.499717
0.499728
0.499738
0.499738
0.499749
0.49976
0.49977
0.499781
0.499781
0.499792
0.499803
0.499813
0.499824
0.499824
0.499835
0.499846
0.499857
0.499868
0.499868
0.499879
0.499889
0.4999
0.499911
0.499911
0.499922
0.499933
0.499944
0.499955
0.499955
0.499966
0.499977
0.499989
0.5
0.5
0.500011
0.500022
0.500033
0.500044
0.500044
0.500055
0.500067
0.500078
0.500089
0.500089
0.5001
0.500112
0.500123
0.500134
0.500134
0.500145
0.500157
0.500168
0.50018
0.50018
0.500191
0.500202
0.500214
0.500225
0.500225
0.500237
0.500248
0.50026
0.500271
0.500271
0.500283
0.500294
0.500306
0.500318
0.500318
0.500329
0.500341
0.500352
0.500364
0.500364
0.500376
0.500388
0.500399
0.500411
0.500411
0.500423
0.500435
0.500446
0.500458
0.500458
0.50047
0.500482
0.500494
0.500506
0.500506
0.500518
0.500529
0.500541
0.500553
0.500553
0.500565
0.500577
0.500589
0.500601
0.500601
0.500613
0.500625
0.500638
0.50065
0.50065
0.500662
0.500674
0.500686
0.500698
0.500698
0.50071
0.500723
0.500735
0.500747
0.500747
0.500759
0.500772
0.500784
0.500796
0.500796
0.500809
0.500821
0.500833
0.500846
0.500846
0.500858
0.500871
0.500883
0.500895
0.500895
0.500908
0.50092
0.500933
0.500945
0.500945
0.500958
0.500971
0.500983
0.500996
0.500996
0.501008
0.501021
0.501034
0.501046
0.501046
0.501059
0.501072
0.501084
0.501097
0.501097
0.50111
0.501123
0.501136
0.501148
0.501148
0.501161
0.501174
0.501187
0.5012
0.5012
0.501213
0.501226
0.501239
0.501252
0.501252
0.501264
0.501277
0.501291
0.501304
0.501304
0.501317
0.50133
0.501343
0.501356
0.501356
0.501369
0.501382
0.501395
0.501408
0.501408
0.501422
0.501435
0.501448
0.501461
0.501461
0.501475
0.501488
0.501501
0.501514
0.501514
0.501528
0.501541
0.501554
0.501568
0.501568
0.501581
0.501595
0.501608
0.501622
0.501622
0.501635
0.501649
0.501662
0.501676
0.501676
0.501689
0.501703
0.501716
0.50173
0.50173
0.501744
0.501757
0.501771
0.501784
0.501784
0.501798
0.501812
0.501826
0.501839
0.501839
0.501853
0.501867
0.501881
0.501894
0.501894
0.501908
0.501922
0.501936
0.50195
0.50195
0.501964
0.501978
0.501992
0.502006
0.502006
0.50202
0.502034
0.502048
0.502062
0.502062
0.502076
0.50209
0.502104
0.502118
0.502118
0.502132
0.502146
0.50216
0.502174
0.502174
0.502189
0.502203
0.502217
0.502231
0.502231
0.502246
0.50226
0.502274
0.502288
0.502288
0.502303
0.502317
0.502331
0.502346
0.502346
0.50236
0.502375
0.502389
0.502404
0.502404
0.502418
0.502433
0.502447
0.502462
0.502462
0.502476
0.502491
0.502505
0.50252
0.50252
0.502534
0.502549
0.502564
0.502578
0.502578
0.502593
0.502608
0.502622
0.502637
0.502637
0.502652
0.502667
0.502681
0.502696
0.502696
0.502711
0.502726
0.502741
0.502756
0.502756
0.502771
0.502785
0.5028
0.502815
0.502815
0.50283
0.502845
0.50286
0.502875
0.502875
0.50289
0.502905
0.50292
0.502936
0.502936
0.502951
0.502966
0.502981
0.502996
0.502996
0.503011
0.503026
0.503042
0.503057
0.503057
0.503072
0.503087
0.503103
0.503118
0.503118
0.503133
0.503149
0.503164
0.503179
0.503179
0.503195
0.50321
0.503226
0.503241
0.503241
0.503256
0.503272
0.503287
0.503303
0.503303
0.503318
0.503334
0.50335
0.503365
0.503365
0.503381
0.503396
0.503412
0.503428
0.503428
0.503443
0.503459
0.503475
0.50349
0.50349
0.503506
0.503522
0.503538
0.503553
0.503553
0.503569
0.503585
0.503601
0.503617
0.503617
0.503633
0.503649
0.503664
0.50368
0.50368
0.503696
0.503712
0.503728
0.503744
0.503744
0.50376
0.503776
0.503792
0.503808
0.503808
0.503825
0.503841
0.503857
0.503873
0.503873
0.503889
0.503905
0.503921
0.503938
0.503938
0.503954
0.50397
0.503986
0.504003
0.504003
0.504019
0.504035
0.504052
0.504068
0.504068
0.504084
0.504101
0.504117
0.504134
0.504134
0.50415
0.504166
0.504183
0.504199
0.504199
0.504216
0.504232
0.504249
0.504266
0.504266
0.504282
0.504299
0.504315
0.504332
0.504332
0.504349
0.504365
0.504382
0.504399
0.504399
0.504415
0.504432
0.504449
0.504466
0.504466
0.504482
0.504499
0.504516
0.504533
0.504533
0.50455
0.504567
0.504584
0.5046
0.5046
0.504617
0.504634
0.504651
0.504668
0.504668
0.504685
0.504702
0.504719
0.504736
0.504736
0.504753
0.504771
0.504788
0.504805
0.504805
0.504822
0.504839
0.504856
0.504873
0.504873
0.504891
0.504908
0.504925
0.504942
0.504942
0.50496
0.504977
0.504994
0.505012
0.505012
0.505029
0.505046
0.505064
0.505081
0.505081
0.505098
0.505116
0.505133
0.505151
0.505151
0.505168
0.505186
0.505203
0.505221
0.505221
0.505238
0.505256
0.505273
0.505291
0.505291
0.505309
0.505326
0.505344
0.505362
0.505362
0.505379
0.505397
0.505415
0.505433
0.505433
0.50545
0.505468
0.505486
0.505504
0.505504
0.505522
0.505539
0.505557
0.505575
0.505575
0.505593
0.505611
0.505629
0.505647
0.505647
0.505665
0.505683
0.505701
0.505719
0.505719
0.505737
0.505755
0.505773
0.505791
0.505791
0.505809
0.505827
0.505845
0.505864
0.505864
0.505882
0.5059
0.505918
0.505936
0.505936
0.505955
0.505973
0.505991
0.506009
0.506009
0.506028
0.506046
0.506064
0.506083
0.506083
0.506101
0.50612
0.506138
0.506156
0.506156
0.506175
0.506193
0.506212
0.50623
0.50623
0.506249
0.506267
0.506286
0.506305
0.506305
0.506323
0.506342
0.50636
0.506379
0.506379
0.506398
0.506416
0.506435
0.506454
0.506454
0.506472
0.506491
0.50651
0.506529
0.506529
0.506548
0.506566
0.506585
0.506604
0.506604
0.506623
0.506642
0.506661
0.50668
0.50668
0.506699
0.506717
0.506736
0.506755
0.506755
0.506774
0.506793
0.506812
0.506832
0.506832
0.506851
0.50687
0.506889
0.506908
0.506908
0.506927
0.506946
0.506965
0.506985
0.506985
0.507004
0.507023
0.507042
0.507062
0.507062
0.507081
0.5071
0.507119
0.507139
0.507139
0.507158
0.507177
0.507197
0.507216
0.507216
0.507236
0.507255
0.507274
0.507294
0.507294
0.507313
0.507333
0.507352
0.507372
0.507372
0.507392
0.507411
0.507431
0.50745
0.50745
0.50747
0.50749
0.507509
0.507529
0.507529
0.507549
0.507568
0.507588
0.507608
0.507608
0.507627
0.507647
0.507667
0.507687
0.507687
0.507707
0.507726
0.507746
0.507766
0.507766
0.507786
0.507806
0.507826
0.507846
0.507846
0.507866
0.507886
0.507906
0.507926
0.507926
0.507946
0.507966
0.507986
0.508006
0.508006
0.508026
0.508046
0.508066
0.508086
0.508086
0.508107
0.508127
0.508147
0.508167
0.508167
0.508187
0.508208
0.508228
0.508248
0.508248
0.508269
0.508289
0.508309
0.50833
0.50833
0.50835
0.50837
0.508391
0.508411
0.508411
0.508432
0.508452
0.508472
0.508493
0.508493
0.508513
0.508534
0.508554
0.508575
0.508575
0.508596
0.508616
0.508637
0.508657
0.508657
0.508678
0.508699
0.508719
0.50874
0.50874
0.508761
0.508781
0.508802
0.508823
0.508823
0.508844
0.508865
0.508885
0.508906
0.508906
0.508927
0.508948
0.508969
0.50899
0.50899
0.509011
0.509031
0.509052
0.509073
0.509073
0.509094
0.509115
0.509136
0.509157
0.509157
0.509178
0.509199
0.509221
0.509242
0.509242
0.509263
0.509284
0.509305
0.509326
0.509326
0.509347
0.509369
0.50939
0.509411
0.509411
0.509432
0.509453
0.509475
0.509496
0.509496
0.509517
0.509539
0.50956
0.509581
0.509581
0.509603
0.509624
0.509646
0.509667
0.509667
0.509688
0.50971
0.509731
0.509753
0.509753
0.509774
0.509796
0.509817
0.509839
0.509839
0.509861
0.509882
0.509904
0.509925
0.509925
0.509947
0.509969
0.50999
0.510012
0.510012
0.510034
0.510056
0.510077
0.510099
0.510099
0.510121
0.510143
0.510164
0.510186
0.510186
0.510208
0.51023
0.510252
0.510274
0.510274
0.510296
0.510318
0.51034
0.510362
0.510362
0.510384
0.510406
0.510428
0.51045
0.51045
0.510472
0.510494
0.510516
0.510538
0.510538
0.51056
0.510582
0.510604
0.510626
0.510626
0.510649
0.510671
0.510693
0.510715
0.510715
0.510737
0.51076
0.510782
0.510804
0.510804
0.510827
0.510849
0.510871
0.510894
0.510894
0.510916
0.510938
0.510961
0.510983
0.510983
0.511006
0.511028
0.511051
0.511073
0.511073
0.511096
0.511118
0.511141
0.511163
0.511163
0.511186
0.511209
0.511231
0.511254
0.511254
0.511276
0.511299
0.511322
0.511344
0.511344
0.511367
0.51139
0.511413
0.511435
0.511435
0.511458
0.511481
0.511504
0.511527
0.511527
0.511549
0.511572
0.511595
0.511618
0.511618
0.511641
0.511664
0.511687
0.51171
0.51171
0.511733
0.511756
0.511779
0.511802
0.511802
0.511825
0.511848
0.511871
0.511894
0.511894
0.511917
0.51194
0.511964
0.511987
0.511987
0.51201
0.512033
0.512056
0.512079
0.512079
0.512103
0.512126
0.512149
0.512173
0.512173
0.512196
0.512219
0.512243
0.512266
0.512266
0.512289
0.512313
0.512336
0.512359
0.512359
0.512383
0.512406
0.51243
0.512453
0.512453
0.512477
0.5125
0.512524
0.512547
0.512547
0.512571
0.512595
0.512618
0.512642
0.512642
0.512665
0.512689
0.512713
0.512736
0.512736
0.51276
0.512784
0.512808
0.512831
0.512831
0.512855
0.512879
0.512903
0.512927
0.512927
0.51295
0.512974
0.512998
0.513022
0.513022
0.513046
0.51307
0.513094
0.513118
0.513118
0.513142
0.513166
0.51319
0.513214
0.513214
0.513238
0.513262
0.513286
0.51331
0.51331
0.513334
0.513358
0.513382
0.513406
0.513406
0.513431
0.513455
0.513479
0.513503
0.513503
0.513527
0.513552
0.513576
0.5136
0.5136
0.513624
0.513649
0.513673
0.513697
0.513697
0.513722
0.513746
0.51377
0.513795
0.513795
0.513819
0.513844
0.513868
0.513893
0.513893
0.513917
0.513942
0.513966
0.513991
0.513991
0.514015
0.51404
0.514064
0.514089
0.514089
0.514114
0.514138
0.514163
0.514188
0.514188
0.514212
0.514237
0.514262
0.514286
0.514286
0.514311
0.514336
0.514361
0.514385
0.514385
0.51441
0.514435
0.51446
0.514485
0.514485
0.51451
0.514535
0.514559
0.514584
0.514584
0.514609
0.514634
0.514659
0.514684
0.514684
0.514709
0.514734
0.514759
0.514784
0.514784
0.514809
0.514835
0.51486
0.514885
0.514885
0.51491
0.514935
0.51496
0.514985
0.514985
0.515011
0.515036
0.515061
0.515086
0.515086
0.515112
0.515137
0.515162
0.515187
0.515187
0.515213
0.515238
0.515263
0.515289
0.515289
0.515314
0.51534
0.515365
0.51539
0.51539
0.515416
0.515441
0.515467
0.515492
0.515492
0.515518
0.515543
0.515569
0.515595
0.515595
0.51562
0.515646
0.515671
0.515697
0.515697
0.515723
0.515748
0.515774
0.5158
0.5158
0.515825
0.515851
0.515877
0.515903
0.515903
0.515928
0.515954
0.51598
0.516006
0.516006
0.516032
0.516058
0.516083
0.516109
0.516109
0.516135
0.516161
0.516187
0.516213
0.516213
0.516239
0.516265
0.516291
0.516317
0.516317
0.516343
0.516369
0.516395
0.516421
0.516421
0.516447
0.516473
0.5165
0.516526
0.516526
0.516552
0.516578
0.516604
0.51663
0.51663
0.516657
0.516683
0.516709
0.516735
0.516735
0.516762
0.516788
0.516814
0.516841
0.516841
0.516867
0.516893
0.51692
0.516946
0.516946
0.516973
0.516999
0.517025
0.517052
0.517052
0.517078
0.517105
0.517131
0.517158
0.517158
0.517184
0.517211
0.517238
0.517264
0.517264
0.517291
0.517317
0.517344
0.517371
0.517371
0.517397
0.517424
0.517451
0.517477
0.517477
0.517504
0.517531
0.517558
0.517584
0.517584
0.517611
0.517638
0.517665
0.517692
0.517692
0.517719
0.517745
0.517772
0.517799
0.517799
0.517826
0.517853
0.51788
0.517907
0.517907
0.517934
0.517961
0.517988
0.518015
0.518015
0.518042
0.518069
0.518096
0.518123
0.518123
0.51815
0.518177
0.518205
0.518232
0.518232
0.518259
0.518286
0.518313
0.518341
0.518341
0.518368
0.518395
0.518422
0.51845
0.51845
0.518477
0.518504
0.518532
0.518559
0.518559
0.518586
0.518614
0.518641
0.518668
0.518668
0.518696
0.518723
0.518751
0.518778
0.518778
0.518806
0.518833
0.518861
0.518888
0.518888
0.518916
0.518943
0.518971
0.518998
0.518998
0.519026
0.519054
0.519081
0.519109
0.519109
0.519137
0.519164
0.519192
0.51922
0.51922
0.519248
0.519275
0.519303
0.519331
0.519331
0.519359
0.519386
0.519414
0.519442
0.519442
0.51947
0.519498
0.519526
0.519554
0.519554
0.519582
0.519609
0.519637
0.519665
0.519665
0.519693
0.519721
0.519749
0.519777
0.519777
0.519805
0.519834
0.519862
0.51989
0.51989
0.519918
0.519946
0.519974
0.520002
0.520002
0.52003
0.520059
0.520087
0.520115
0.520115
0.520143
0.520171
0.5202
0.520228
0.520228
0.520256
0.520285
0.520313
0.520341
0.520341
0.52037
0.520398
0.520426
0.520455
0.520455
0.520483
0.520512
0.52054
0.520569
0.520569
0.520597
0.520625
0.520654
0.520683
0.520683
0.520711
0.52074
0.520768
0.520797
0.520797
0.520825
0.520854
0.520883
0.520911
0.520911
0.52094
0.520969
0.520997
0.521026
0.521026
0.521055
0.521083
0.521112
0.521141
0.521141
0.52117
0.521199
0.521227
0.521256
0.521256
0.521285
0.521314
0.521343
0.521372
0.521372
0.521401
0.52143
0.521458
0.521487
0.521487
0.521516
0.521545
0.521574
0.521603
0.521603
0.521632
0.521661
0.521691
0.52172
0.52172
0.521749
0.521778
0.521807
0.521836
0.521836
0.521865
0.521894
0.521924
0.521953
0.521953
0.521982
0.522011
0.52204
0.52207
0.52207
0.522099
0.522128
0.522158
0.522187
0.522187
0.522216
0.522246
0.522275
0.522304
0.522304
0.522334
0.522363
0.522393
0.522422
0.522422
0.522451
0.522481
0.52251
0.52254
0.52254
0.522569
0.522599
0.522628
0.522658
0.522658
0.522688
0.522717
0.522747
0.522776
0.522776
0.522806
0.522836
0.522865
0.522895
0.522895
0.522925
0.522954
0.522984
0.523014
0.523014
0.523044
0.523073
0.523103
0.523133
0.523133
0.523163
0.523193
0.523223
0.523252
0.523252
0.523282
0.523312
0.523342
0.523372
0.523372
0.523402
0.523432
0.523462
0.523492
0.523492
0.523522
0.523552
0.523582
0.523612
0.523612
0.523642
0.523672
0.523702
0.523732
0.523732
0.523762
0.523793
0.523823
0.523853
0.523853
0.523883
0.523913
0.523943
0.523974
0.523974
0.524004
0.524034
0.524064
0.524095
0.524095
0.524125
0.524155
0.524186
0.524216
0.524216
0.524246
0.524277
0.524307
0.524338
0.524338
0.524368
0.524398
0.524429
0.524459
0.524459
0.52449
0.52452
0.524551
0.524581
0.524581
0.524612
0.524642
0.524673
0.524704
0.524704
0.524734
0.524765
0.524795
0.524826
0.524826
0.524857
0.524887
0.524918
0.524949
0.524949
0.524979
0.52501
0.525041
0.525072
0.525072
0.525102
0.525133
0.525164
0.525195
0.525195
0.525226
0.525257
0.525287
0.525318
0.525318
0.525349
0.52538
0.525411
0.525442
0.525442
0.525473
0.525504
0.525535
0.525566
0.525566
0.525597
0.525628
0.525659
0.52569
0.52569
0.525721
0.525752
0.525783
0.525814
0.525814
0.525845
0.525877
0.525908
0.525939
0.525939
0.52597
0.526001
0.526033
0.526064
0.526064
0.526095
0.526126
0.526158
0.526189
0.526189
0.52622
0.526251
0.526283
0.526314
0.526314
0.526346
0.526377
0.526408
0.52644
0.52644
0.526471
0.526503
0.526534
0.526565
0.526565
0.526597
0.526628
0.52666
0.526691
0.526691
0.526723
0.526755
0.526786
0.526818
0.526818
0.526849
0.526881
0.526913
0.526944
0.526944
0.526976
0.527008
0.527039
0.527071
0.527071
0.527103
0.527134
0.527166
0.527198
0.527198
0.52723
0.527261
0.527293
0.527325
0.527325
0.527357
0.527389
0.527421
0.527452
0.527452
0.527484
0.527516
0.527548
0.52758
0.52758
0.527612
0.527644
0.527676
0.527708
0.527708
0.52774
0.527772
0.527804
0.527836
0.527836
0.527868
0.5279
0.527932
0.527964
0.527964
0.527997
0.528029
0.528061
0.528093
0.528093
0.528125
0.528157
0.52819
0.528222
0.528222
0.528254
0.528286
0.528319
0.528351
0.528351
0.528383
0.528415
0.528448
0.52848
0.52848
0.528512
0.528545
0.528577
0.52861
0.52861
0.528642
0.528674
0.528707
0.528739
0.528739
0.528772
0.528804
0.528837
0.528869
0.528869
0.528902
0.528934
0.528967
0.528999
0.528999
0.529032
0.529065
0.529097
0.52913
0.52913
0.529162
0.529195
0.529228
0.52926
0.52926
0.529293
0.529326
0.529359
0.529391
0.529391
0.529424
0.529457
0.52949
0.529522
0.529522
0.529555
0.529588
0.529621
0.529654
0.529654
0.529687
0.52972
0.529752
0.529785
0.529785
0.529818
0.529851
0.529884
0.529917
0.529917
0.52995
0.529983
0.530016
0.530049
0.530049
0.530082
0.530115
0.530148
0.530181
0.530181
0.530214
0.530248
0.530281
0.530314
0.530314
0.530347
0.53038
0.530413
0.530446
0.530446
0.53048
0.530513
0.530546
0.530579
0.530579
0.530613
0.530646
0.530679
0.530713
0.530713
0.530746
0.530779
0.530813
0.530846
0.530846
0.530879
0.530913
0.530946
0.530979
0.530979
0.531013
0.531046
0.53108
0.531113
0.531113
0.531147
0.53118
0.531214
0.531247
0.531247
0.531281
0.531314
0.531348
0.531382
0.531382
0.531415
0.531449
0.531482
0.531516
0.531516
0.53155
0.531583
0.531617
0.531651
0.531651
0.531684
0.531718
0.531752
0.531786
0.531786
0.531819
0.531853
0.531887
0.531921
0.531921
0.531955
0.531988
0.532022
0.532056
0.532056
0.53209
0.532124
0.532158
0.532192
0.532192
0.532226
0.53226
0.532294
0.532328
0.532328
0.532362
0.532396
0.53243
0.532464
0.532464
0.532498
0.532532
0.532566
0.5326
0.5326
0.532634
0.532668
0.532702
0.532736
0.532736
0.532771
0.532805
0.532839
0.532873
0.532873
0.532907
0.532942
0.532976
0.53301
0.53301
0.533044
0.533079
0.533113
0.533147
0.533147
0.533182
0.533216
0.53325
0.533285
0.533285
0.533319
0.533353
0.533388
0.533422
0.533422
0.533457
0.533491
0.533525
0.53356
0.53356
0.533594
0.533629
0.533663
0.533698
0.533698
0.533733
0.533767
0.533802
0.533836
0.533836
0.533871
0.533905
0.53394
0.533975
0.533975
0.534009
0.534044
0.534079
0.534113
0.534113
0.534148
0.534183
0.534218
0.534252
0.534252
0.534287
0.534322
0.534357
0.534391
0.534391
0.534426
0.534461
0.534496
0.534531
0.534531
0.534566
0.5346
0.534635
0.53467
0.53467
0.534705
0.53474
0.534775
0.53481
0.53481
0.534845
0.53488
0.534915
0.53495
0.53495
0.534985
0.53502
0.535055
0.53509
0.53509
0.535125
0.53516
0.535196
0.535231
0.535231
0.535266
0.535301
0.535336
0.535371
0.535371
0.535406
0.535442
0.535477
0.535512
0.535512
0.535547
0.535583
0.535618
0.535653
0.535653
0.535688
0.535724
0.535759
0.535794
0.535794
0.53583
0.535865
0.535901
0.535936
0.535936
0.535971
0.536007
0.536042
0.536078
0.536078
0.536113
0.536149
0.536184
0.53622
0.53622
0.536255
0.536291
0.536326
0.536362
0.536362
0.536397
0.536433
0.536468
0.536504
0.536504
0.53654
0.536575
0.536611
0.536647
0.536647
0.536682
0.536718
0.536754
0.536789
0.536789
0.536825
0.536861
0.536897
0.536932
0.536932
0.536968
0.537004
0.53704
0.537076
0.537076
0.537111
0.537147
0.537183
0.537219
0.537219
0.537255
0.537291
0.537327
0.537363
0.537363
0.537399
0.537435
0.537471
0.537506
0.537506
0.537542
0.537578
0.537614
0.537651
0.537651
0.537687
0.537723
0.537759
0.537795
0.537795
0.537831
0.537867
0.537903
0.537939
0.537939
0.537975
0.538012
0.538048
0.538084
0.538084
0.53812
0.538156
0.538193
0.538229
0.538229
0.538265
0.538301
0.538338
0.538374
0.538374
0.53841
0.538447
0.538483
0.538519
0.538519
0.538556
0.538592
0.538628
0.538665
0.538665
0.538701
0.538738
0.538774
0.53881
0.53881
0.538847
0.538883
0.53892
0.538956
0.538956
0.538993
0.539029
0.539066
0.539103
0.539103
0.539139
0.539176
0.539212
0.539249
0.539249
0.539285
0.539322
0.539359
0.539395
0.539395
0.539432
0.539469
0.539505
0.539542
0.539542
0.539579
0.539616
0.539652
0.539689
0.539689
0.539726
0.539763
0.539799
0.539836
0.539836
0.539873
0.53991
0.539947
0.539984
0.539984
0.540021
0.540057
0.540094
0.540131
0.540131
0.540168
0.540205
0.540242
0.540279
0.540279
0.540316
0.540353
0.54039
0.540427
0.540427
0.540464
0.540501
0.540538
0.540575
0.540575
0.540612
0.540649
0.540687
0.540724
0.540724
0.540761
0.540798
0.540835
0.540872
0.540872
0.540909
0.540947
0.540984
0.541021
0.541021
0.541058
0.541096
0.541133
0.54117
0.54117
0.541207
0.541245
0.541282
0.541319
0.541319
0.541357
0.541394
0.541431
0.541469
0.541469
0.541506
0.541543
0.541581
0.541618
0.541618
0.541656
0.541693
0.541731
0.541768
0.541768
0.541806
0.541843
0.541881
0.541918
0.541918
0.541956
0.541993
0.542031
0.542068
0.542068
0.542106
0.542144
0.542181
0.542219
0.542219
0.542256
0.542294
0.542332
0.542369
0.542369
0.542407
0.542445
0.542483
0.54252
0.54252
0.542558
0.542596
0.542634
0.542671
0.542671
0.542709
0.542747
0.542785
0.542823
0.542823
0.54286
0.542898
0.542936
0.542974
0.542974
0.543012
0.54305
0.543088
0.543126
0.543126
0.543164
0.543201
0.543239
0.543277
0.543277
0.543315
0.543353
0.543391
0.543429
0.543429
0.543467
0.543506
0.543544
0.543582
0.543582
0.54362
0.543658
0.543696
0.543734
0.543734
0.543772
0.54381
0.543849
0.543887
0.543887
0.543925
0.543963
0.544001
0.54404
0.54404
0.544078
0.544116
0.544154
0.544193
0.544193
0.544231
0.544269
0.544307
0.544346
0.544346
0.544384
0.544422
0.544461
0.544499
0.544499
0.544538
0.544576
0.544614
0.544653
0.544653
0.544691
0.54473
0.544768
0.544807
0.544807
0.544845
0.544884
0.544922
0.544961
0.544961
0.544999
0.545038
0.545076
0.545115
0.545115
0.545153
0.545192
0.54523
0.545269
0.545269
0.545308
0.545346
0.545385
0.545424
0.545424
0.545462
0.545501
0.54554
0.545578
0.545578
0.545617
0.545656
0.545695
0.545733
0.545733
0.545772
0.545811
0.54585
0.545889
0.545889
0.545927
0.545966
0.546005
0.546044
0.546044
0.546083
0.546122
0.546161
0.546199
0.546199
0.546238
0.546277
0.546316
0.546355
0.546355
0.546394
0.546433
0.546472
0.546511
0.546511
0.54655
0.546589
0.546628
0.546667
0.546667
0.546706
0.546745
0.546784
0.546823
0.546823
0.546863
0.546902
0.546941
0.54698
0.54698
0.547019
0.547058
0.547097
0.547137
0.547137
0.547176
0.547215
0.547254
0.547294
0.547294
0.547333
0.547372
0.547411
0.547451
0.547451
0.54749
0.547529
0.547569
0.547608
0.547608
0.547647
0.547687
0.547726
0.547765
0.547765
0.547805
0.547844
0.547884
0.547923
0.547923
0.547962
0.548002
0.548041
0.548081
0.548081
0.54812
0.54816
0.548199
0.548239
0.548239
0.548278
0.548318
0.548357
0.548397
0.548397
0.548437
0.548476
0.548516
0.548555
0.548555
0.548595
0.548635
0.548674
0.548714
0.548714
0.548754
0.548793
0.548833
0.548873
0.548873
0.548912
0.548952
0.548992
0.549032
0.549032
0.549071
0.549111
0.549151
0.549191
0.549191
0.549231
0.54927
0.54931
0.54935
0.54935
0.54939
0.54943
0.54947
0.54951
0.54951
0.549549
0.549589
0.549629
0.549669
0.549669
0.549709
0.549749
0.549789
0.549829
0.549829
0.549869
0.549909
0.549949
0.549989
0.549989
0.550029
0.550069
0.550109
0.550149
0.550149
0.550189
0.55023
0.55027
0.55031
0.55031
0.55035
0.55039
0.55043
0.55047
0.55047
0.550511
0.550551
0.550591
0.550631
0.550631
0.550671
0.550712
0.550752
0.550792
0.550792
0.550832
0.550873
0.550913
0.550953
0.550953
0.550994
0.551034
0.551074
0.551115
0.551115
0.551155
0.551195
0.551236
0.551276
0.551276
0.551317
0.551357
0.551397
0.551438
0.551438
0.551478
0.551519
0.551559
0.5516
0.5516
0.55164
0.551681
0.551721
0.551762
0.551762
0.551802
0.551843
0.551883
0.551924
0.551924
0.551965
0.552005
0.552046
0.552086
0.552086
0.552127
0.552168
0.552208
0.552249
0.552249
0.55229
0.55233
0.552371
0.552412
0.552412
0.552453
0.552493
0.552534
0.552575
0.552575
0.552616
0.552656
0.552697
0.552738
0.552738
0.552779
0.55282
0.55286
0.552901
0.552901
0.552942
0.552983
0.553024
0.553065
0.553065
0.553106
0.553146
0.553187
0.553228
0.553228
0.553269
0.55331
0.553351
0.553392
0.553392
0.553433
0.553474
0.553515
0.553556
0.553556
0.553597
0.553638
0.553679
0.55372
0.55372
0.553761
0.553803
0.553844
0.553885
0.553885
0.553926
0.553967
0.554008
0.554049
0.554049
0.55409
0.554132
0.554173
0.554214
0.554214
0.554255
0.554296
0.554338
0.554379
0.554379
0.55442
0.554461
0.554503
0.554544
0.554544
0.554585
0.554627
0.554668
0.554709
0.554709
0.55475
0.554792
0.554833
0.554875
0.554875
0.554916
0.554957
0.554999
0.55504
0.55504
0.555082
0.555123
0.555164
0.555206
0.555206
0.555247
0.555289
0.55533
0.555372
0.555372
0.555413
0.555455
0.555496
0.555538
0.555538
0.555579
0.555621
0.555663
0.555704
0.555704
0.555746
0.555787
0.555829
0.555871
0.555871
0.555912
0.555954
0.555996
0.556037
0.556037
0.556079
0.556121
0.556162
0.556204
0.556204
0.556246
0.556287
0.556329
0.556371
0.556371
0.556413
0.556454
0.556496
0.556538
0.556538
0.55658
0.556622
0.556664
0.556705
0.556705
0.556747
0.556789
0.556831
0.556873
0.556873
0.556915
0.556957
0.556999
0.55704
0.55704
0.557082
0.557124
0.557166
0.557208
0.557208
0.55725
0.557292
0.557334
0.557376
0.557376
0.557418
0.55746
0.557502
0.557544
0.557544
0.557586
0.557628
0.557671
0.557713