<?xml version="1.0"?>
<VTKFile type="UnstructuredGrid" version="0.1" byte_order="LittleEndian">
<UnstructuredGrid>
<Piece NumberOfPoints="5000" NumberOfCells="4000">
<PointData Scalars="Reaction 0">
<DataArray type="Float32" Name="Reaction 0" format="ascii">
0.561605
0.561605
0.561605
0.561606
0.561606
0.561606
0.561606
0.561606
0.561606
0.561606
0.561606
0.561606
0.561606
0.561606
0.561606
0.561606
0.561606
0.561606
0.561606
0.561606
0.561606
0.561606
0.561606
0.561606
0.561606
0.561606
0.561606
0.561607
0.561607
0.561607
0.561607
0.561607
0.561607
0.561607
0.561607
0.561607
0.561607
0.561607
0.561608
0.561608
0.561608
0.561608
0.561608
0.561608
0.561608
0.561608
0.561608
0.561609
0.561609
0.561609
0.561609
0.561609
0.561609
0.561609
0.56161
0.56161
0.56161
0.56161
0.56161
0.56161
0.56161
0.561611
0.561611
0.561611
0.561611
0.561611
0.561612
0.561612
0.561612
0.561612
0.561612
0.561612
0.561613
0.561613
0.561613
0.561613
0.561613
0.561614
0.561614
0.561614
0.561614
0.561615
0.561615
0.561615
0.561615
0.561615
0.561616
0.561616
0.561616
0.561617
0.561617
0.561617
0.561617
0.561618
0.561618
0.561618
0.561618
0.561619
0.561619
0.561619
0.561619
0.56162
0.56162
0.56162
0.561621
0.561621
0.561621
0.561621
0.561622
0.561622
0.561622
0.561623
0.561623
0.561623
0.561624
0.561624
0.561624
0.561625
0.561625
0.561625
0.561625
0.561626
0.561626
0.561627
0.561627
0.561627
0.561627
0.561628
0.561628
0.561629
0.561629
0.561629
0.56163
0.56163
0.561631
0.561631
0.561631
0.561632
0.561632
0.561632
0.561632
0.561633
0.561633
0.561634
0.561634
0.561634
0.561635
0.561635
0.561636
0.561636
0.561636
0.561637
0.561638
0.561638
0.561639
0.561639
0.561639
0.56164
0.56164
0.561641
0.561641
0.561641
0.561642
0.561642
0.561643
0.561643
0.561644
0.561644
0.561645
0.561645
0.561645
0.561646
0.561647
0.561647
0.561648
0.561648
0.561648
0.561649
0.56165
0.56165
0.56165
0.561651
0.561651
0.561652
0.561653
0.561653
0.561653
0.561654
0.561655
0.561655
0.561655
0.561656
0.561657
0.561657
0.561658
0.561658
0.561659
0.561659
0.56166
0.561661
0.561661
0.561661
0.561662
0.561663
0.561664
0.561664
0.561664
0.561665
0.561666
0.561666
0.561666
0.561667
0.561668
0.561669
0.561669
0.561669
0.56167
0.561671
0.561672
0.561672
0.561672
0.561673
0.561674
0.561675
0.561675
0.561675
0.561676
0.561677
0.561678
0.561679
0.561679
0.561679
0.56168
0.561681
0.561682
0.561682
0.561683
0.561683
0.561684
0.561685
0.561685
0.561686
0.561687
0.561688
0.561688
0.561688
0.561689
0.56169
0.561691
0.561692
0.561692
0.561693
0.561694
0.561695
0.561695
0.561695
0.561696
0.561697
0.561698
0.561699
0.561699
0.5617
0.561701
0.561702
0.561703
0.561703
0.561704
0.561705
0.561705
0.561706
0.561706
0.561707
0.561708
0.561709
0.56171
0.56171
0.561711
0.561712
0.561713
0.561714
0.561714
0.561715
0.561716
0.561717
0.561718
0.561718
0.561719
0.56172
0.561721
0.561722
0.561722
0.561723
0.561724
0.561725
0.561726
0.561726
0.561727
0.561728
0.561729
0.56173
0.56173
0.561731
0.561732
0.561733
0.561734
0.561734
0.561736
0.561737
0.561738
0.561739
0.561739
0.56174
0.561741
0.561742
0.561743
0.561743
0.561744
0.561745
0.561746
0.561748
0.561748
0.561749
0.56175
0.561751
0.561752
0.561752
0.561753
0.561754
0.561756
0.561757
0.561757
0.561758
0.561759
0.56176
0.561761
0.561761
0.561763
0.561764
0.561765
0.561766
0.561766
0.561767
0.561768
0.56177
0.561771
0.561771
0.561772
0.561773
0.561775
0.561776
0.561776
0.561777
0.561778
0.561779
0.561781
0.561781
0.561782
0.561783
0.561784
0.561786
0.561786
0.561787
0.561788
0.56179
0.561791
0.561791
0.561792
0.561793
0.561795
0.561796
0.561796
0.561797
0.561799
0.5618
0.561801
0.561801
0.561803
0.561804
0.561805
0.561807
0.561807
0.561808
0.561809
0.561811
0.561812
0.561812
0.561813
0.561815
0.561816
0.561817
0.561817
0.561819
0.56182
0.561822
0.561823
0.561823
0.561824
0.561826
0.561827
0.561829
0.561829
0.56183
0.561831
0.561833
0.561834
0.561834
0.561836
0.561837
0.561839
0.56184
0.56184
0.561842
0.561843
0.561844
0.561846
0.561846
0.561847
0.561849
0.56185
0.561852
0.561852
0.561853
0.561855
0.561856
0.561858
0.561858
0.561859
0.561861
0.561862
0.561864
0.561864
0.561865
0.561867
0.561868
0.56187
0.56187
0.561872
0.561873
0.561875
0.561876
0.561876
0.561878
0.561879
0.561881
0.561883
0.561883
0.561884
0.561886
0.561887
0.561889
0.561889
0.56189
0.561892
0.561894
0.561895
0.561895
0.561897
0.561899
0.5619
0.561902
0.561902
0.561903
0.561905
0.561907
0.561908
0.561908
0.56191
0.561912
0.561913
0.561915
0.561915
0.561917
0.561918
0.56192
0.561922
0.561922
0.561924
0.561925
0.561927
0.561929
0.561929
0.56193
0.561932
0.561934
0.561936
0.561936
0.561937
0.561939
0.561941
0.561943
0.561943
0.561944
0.561946
0.561948
0.56195
0.56195
0.561951
0.561953
0.561955
0.561957
0.561957
0.561959
0.56196
0.561962
0.561964
0.561964
0.561966
0.561968
0.561969
0.561971
0.561971
0.561973
0.561975
0.561977
0.561979
0.561979
0.56198
0.561982
0.561984
0.561986
0.561986
0.561988
0.56199
0.561992
0.561994
0.561994
0.561996
0.561997
0.561999
0.562001
0.562001
0.562003
0.562005
0.562007
0.562009
0.562009
0.562011
0.562013
0.562015
0.562017
0.562017
0.562019
0.562021
0.562023
0.562025
0.562025
0.562026
0.562028
0.56203
0.562032
0.562032
0.562034
0.562036
0.562038
0.56204
0.56204
0.562042
0.562044
0.562046
0.562049
0.562049
0.562051
0.562053
0.562055
0.562057
0.562057
0.562059
0.562061
0.562063
0.562065
0.562065
0.562067
0.562069
0.562071
0.562073
0.562073
0.562075
0.562077
0.56208
0.562082
0.562082
0.562084
0.562086
0.562088
0.56209
0.56209
0.562092
0.562094
0.562097
0.562099
0.562099
0.562101
0.562103
0.562105
0.562107
0.562107
0.56211
0.562112
0.562114
0.562116
0.562116
0.562118
0.56212
0.562123
0.562125
0.562125
0.562127
0.562129
0.562132
0.562134
0.562134
0.562136
0.562138
0.56214
0.562143
0.562143
0.562145
0.562147
0.56215
0.562152
0.562152
0.562154
0.562156
0.562159
0.562161
0.562161
0.562163
0.562166
0.562168
0.56217
0.56217
0.562172
0.562175
0.562177
0.562179
0.562179
0.562182
0.562184
0.562187
0.562189
0.562189
0.562191
0.562194
0.562196
0.562198
0.562198
0.562201
0.562203
0.562205
0.562208
0.562208
0.56221
0.562213
0.562215
0.562218
0.562218
0.56222
0.562222
0.562225
0.562227
0.562227
0.56223
0.562232
0.562235
0.562237
0.562237
0.56224
0.562242
0.562244
0.562247
0.562247
0.562249
0.562252
0.562254
0.562257
0.562257
0.562259
0.562262
0.562264
0.562267
0.562267
0.56227
0.562272
0.562275
0.562277
0.562277
0.56228
0.562282
0.562285
0.562287
0.562287
0.56229
0.562293
0.562295
0.562298
0.562298
0.5623
0.562303
0.562306
0.562308
0.562308
0.562311
0.562313
0.562316
0.562319
0.562319
0.562321
0.562324
0.562327
0.562329
0.562329
0.562332
0.562335
0.562337
0.56234
0.56234
0.562343
0.562345
0.562348
0.562351
0.562351
0.562353
0.562356
0.562359
0.562361
0.562361
0.562364
0.562367
0.56237
0.562372
0.562372
0.562375
0.562378
0.562381
0.562383
0.562383
0.562386
0.562389
0.562392
0.562395
0.562395
0.562397
0.5624
0.562403
0.562406
0.562406
0.562409
0.562411
0.562414
0.562417
0.562417
0.56242
0.562423
0.562426
0.562428
0.562428
0.562431
0.562434
0.562437
0.56244
0.56244
0.562443
0.562446
0.562449
0.562451
0.562451
0.562454
0.562457
0.56246
0.562463
0.562463
0.562466
0.562469
0.562472
0.562475
0.562475
0.562478
0.562481
0.562484
0.562487
0.562487
0.56249
0.562493
0.562496
0.562499
0.562499
0.562502
0.562505
0.562508
0.562511
0.562511
0.562514
0.562517
0.56252
0.562523
0.562523
0.562526
0.562529
0.562532
0.562535
0.562535
0.562538
0.562541
0.562544
0.562547
0.562547
0.56255
0.562553
0.562556
0.56256
0.56256
0.562563
0.562566
0.562569
0.562572
0.562572
0.562575
0.562578
0.562581
0.562585
0.562585
0.562588
0.562591
0.562594
0.562597
0.562597
0.5626
0.562604
0.562607
0.56261
0.56261
0.562613
0.562616
0.56262
0.562623
0.562623
0.562626
0.562629
0.562633
0.562636
0.562636
0.562639
0.562642
0.562646
0.562649
0.562649
0.562652
0.562655
0.562659
0.562662
0.562662
0.562665
0.562669
0.562672
0.562675
0.562675
0.562679
0.562682
0.562685
0.562689
0.562689
0.562692
0.562695
0.562699
0.562702
0.562702
0.562705
0.562709
0.562712
0.562716
0.562716
0.562719
0.562722
0.562726
0.562729
0.562729
0.562733
0.562736
0.562739
0.562743
0.562743
0.562746
0.56275
0.562753
0.562757
0.562757
0.56276
0.562764
0.562767
0.562771
0.562771
0.562774
0.562778
0.562781
0.562785
0.562785
0.562788
0.562792
0.562795
0.562799
0.562799
0.562802
0.562806
0.562809
0.562813
0.562813
0.562817
0.56282
0.562824
0.562827
0.562827
0.562831
0.562834
0.562838
0.562842
0.562842
0.562845
0.562849
0.562853
0.562856
0.562856
0.56286
0.562864
0.562867
0.562871
0.562871
0.562875
0.562878
0.562882
0.562886
0.562886
0.562889
0.562893
0.562897
0.5629
0.5629
0.562904
0.562908
0.562912
0.562915
0.562915
0.562919
0.562923
0.562927
0.56293
0.56293
0.562934
0.562938
0.562942
0.562945
0.562945
0.562949
0.562953
0.562957
0.562961
0.562961
0.562964
0.562968
0.562972
0.562976
0.562976
0.56298
0.562984
0.562988
0.562991
0.562991
0.562995
0.562999
0.563003
0.563007
0.563007
0.563011
0.563015
0.563019
0.563023
0.563023
0.563027
0.56303
0.563034
0.563038
0.563038
0.563042
0.563046
0.56305
0.563054
0.563054
0.563058
0.563062
0.563066
0.56307
0.56307
0.563074
0.563078
0.563082
0.563086
0.563086
0.56309
0.563094
0.563098
0.563102
0.563102
0.563106
0.563111
0.563115
0.563119
0.563119
0.563123
0.563127
0.563131
0.563135
0.563135
0.563139
0.563143
0.563147
0.563152
0.563152
0.563156
0.56316
0.563164
0.563168
0.563168
0.563172
0.563176
0.563181
0.563185
0.563185
0.563189
0.563193
0.563197
0.563202
0.563202
0.563206
0.56321
0.563214
0.563219
0.563219
0.563223
0.563227
0.563231
0.563236
0.563236
0.56324
0.563244
0.563248
0.563253
0.563253
0.563257
0.563261
0.563266
0.56327
0.56327
0.563274
0.563279
0.563283
0.563287
0.563287
0.563292
0.563296
0.563301
0.563305
0.563305
0.563309
0.563314
0.563318
0.563322
0.563322
0.563327
0.563331
0.563336
0.56334
0.56334
0.563345
0.563349
0.563354
0.563358
0.563358
0.563362
0.563367
0.563371
0.563376
0.563376
0.56338
0.563385
0.563389
0.563394
0.563394
0.563399
0.563403
0.563408
0.563412
0.563412
0.563417
0.563421
0.563426
0.56343
0.56343
0.563435
0.56344
0.563444
0.563449
0.563449
0.563453
0.563458
0.563463
0.563467
0.563467
0.563472
0.563477
0.563481
0.563486
0.563486
0.563491
0.563495
0.5635
0.563505
0.563505
0.563509
0.563514
0.563519
0.563524
0.563524
0.563528
0.563533
0.563538
0.563543
0.563543
0.563547
0.563552
0.563557
0.563562
0.563562
0.563566
0.563571
0.563576
0.563581
0.563581
0.563586
0.563591
0.563595
0.5636
0.5636
0.563605
0.56361
0.563615
0.56362
0.56362
0.563625
0.563629
0.563634
0.563639
0.563639
0.563644
0.563649
0.563654
0.563659
0.563659
0.563664
0.563669
0.563674
0.563679
0.563679
0.563684
0.563689
0.563694
0.563699
0.563699
0.563704
0.563709
0.563714
0.563719
0.563719
0.563724
0.563729
0.563734
0.563739
0.563739
0.563744
0.563749
0.563754
0.563759
0.563759
0.563764
0.563769
0.563775
0.56378
0.56378
0.563785
0.56379
0.563795
0.5638
0.5638
0.563805
0.563811
0.563816
0.563821
0.563821
0.563826
0.563831
0.563836
0.563842
0.563842
0.563847
0.563852
0.563857
0.563863
0.563863
0.563868
0.563873
0.563878
0.563884
0.563884
0.563889
0.563894
0.5639
0.563905
0.563905
0.56391
0.563915
0.563921
0.563926
0.563926
0.563932
0.563937
0.563942
0.563948
0.563948
0.563953
0.563958
0.563964
0.563969
0.563969
0.563975
0.56398
0.563985
0.563991
0.563991
0.563996
0.564002
0.564007
0.564013
0.564013
0.564018
0.564024
0.564029
0.564035
0.564035
0.56404
0.564046
0.564051
0.564057
0.564057
0.564062
0.564068
0.564073
0.564079
0.564079
0.564085
0.56409
0.564096
0.564101
0.564101
0.564107
0.564113
0.564118
0.564124
0.564124
0.564129
0.564135
0.564141
0.564146
0.564146
0.564152
0.564158
0.564163
0.564169
0.564169
0.564175
0.564181
0.564186
0.564192
0.564192
0.564198
0.564204
0.564209
0.564215
0.564215
0.564221
0.564227
0.564232
0.564238
0.564238
0.564244
0.56425
0.564256
0.564261
0.564261
0.564267
0.564273
0.564279
0.564285
0.564285
0.564291
0.564297
0.564303
0.564308
0.564308
0.564314
0.56432
0.564326
0.564332
0.564332
0.564338
0.564344
0.56435
0.564356
0.564356
0.564362
0.564368
0.564374
0.56438
0.56438
0.564386
0.564392
0.564398
0.564404
0.564404
0.56441
0.564416
0.564422
0.564428
0.564428
0.564434
0.564441
0.564447
0.564453
0.564453
0.564459
0.564465
0.564471
0.564477
0.564477
0.564483
0.56449
0.564496
0.564502
0.564502
0.564508
0.564514
0.564521
0.564527
0.564527
0.564533
0.564539
0.564546
0.564552
0.564552
0.564558
0.564564
0.564571
0.564577
0.564577
0.564583
0.564589
0.564596
0.564602
0.564602
0.564608
0.564615
0.564621
0.564628
0.564628
0.564634
0.56464
0.564647
0.564653
0.564653
0.564659
0.564666
0.564672
0.564679
0.564679
0.564685
0.564692
0.564698
0.564705
0.564705
0.564711
0.564718
0.564724
0.564731
0.564731
0.564737
0.564744
0.56475
0.564757
0.564757
0.564763
0.56477
0.564776
0.564783
0.564783
0.56479
0.564796
0.564803
0.564809
0.564809
0.564816
0.564823
0.564829
0.564836
0.564836
0.564843
0.564849
0.564856
0.564863
0.564863
0.564869
0.564876
0.564883
0.56489
0.56489
0.564896
0.564903
0.56491
0.564917
0.564917
0.564923
0.56493
0.564937
0.564944
0.564944
0.564951
0.564958
0.564964
0.564971
0.564971
0.564978
0.564985
0.564992
0.564999
0.564999
0.565006
0.565013
0.565019
0.565026
0.565026
0.565033
0.56504
0.565047
0.565054
0.565054
0.565061
0.565068
0.565075
0.565082
0.565082
0.565089
0.565096
0.565103
0.56511
0.56511
0.565117
0.565124
0.565131
0.565139
0.565139
0.565146
0.565153
0.56516
0.565167
0.565167
0.565174
0.565181
0.565188
0.565196
0.565196
0.565203
0.56521
0.565217
0.565224
0.565224
0.565232
0.565239
0.565246
0.565253
0.565253
0.565261
0.565268
0.565275
0.565282
0.565282
0.56529
0.565297
0.565304
0.565312
0.565312
0.565319
0.565326
0.565334
0.565341
0.565341
0.565348
0.565356
0.565363
0.565371
0.565371
0.565378
0.565385
0.565393
0.5654
0.5654
0.565408
0.565415
0.565423
0.56543
0.56543
0.565438
0.565445
0.565453
0.56546
0.56546
0.565468
0.565475
0.565483
0.565491
0.565491
0.565498
0.565506
0.565513
0.565521
0.565521
0.565529
0.565536
0.565544
0.565551
0.565551
0.565559
0.565567
0.565575
0.565582
0.565582
0.56559
0.565598
0.565605
0.565613
0.565613
0.565621
0.565629
0.565636
0.565644
0.565644
0.565652
0.56566
0.565668
0.565675
0.565675
0.565683
0.565691
0.565699
0.565707
0.565707
0.565715
0.565723
0.565731
0.565738
0.565738
0.565746
0.565754
0.565762
0.56577
0.56577
0.565778
0.565786
0.565794
0.565802
0.565802
0.56581
0.565818
0.565826
0.565834
0.565834
0.565842
0.56585
0.565858
0.565867
0.565867
0.565875
0.565883
0.565891
0.565899
0.565899
0.565907
0.565915
0.565923
0.565932
0.565932
0.56594
0.565948
0.565956
0.565964
0.565964
0.565973
0.565981
0.565989
0.565997
0.565997
0.566006
0.566014
0.566022
0.566031
0.566031
0.566039
0.566047
0.566056
0.566064
0.566064
0.566072
0.566081
0.566089
0.566098
0.566098
0.566106
0.566114
0.566123
0.566131
0.566131
0.56614
0.566148
0.566157
0.566165
0.566165
0.566174
0.566182
0.566191
0.566199
0.566199
0.566208
0.566216
0.566225
0.566234
0.566234
0.566242
0.566251
0.566259
0.566268
0.566268
0.566277
0.566285
0.566294
0.566303
0.566303
0.566311
0.56632
0.566329
0.566337
0.566337
0.566346
0.566355
0.566364
0.566373
0.566373
0.566381
0.56639
0.566399
0.566408
0.566408
0.566417
0.566425
0.566434
0.566443
0.566443
0.566452
0.566461
0.56647
0.566479
0.566479
0.566488
0.566497
0.566506
0.566515
0.566515
0.566523
0.566532
0.566541
0.56655
0.56655
0.56656
0.566569
0.566578
0.566587
0.566587
0.566596
0.566605
0.566614
0.566623
0.566623
0.566632
0.566641
0.56665
0.56666
0.56666
0.566669
0.566678
0.566687
0.566696
0.566696
0.566706
0.566715
0.566724
0.566733
0.566733
0.566743
0.566752
0.566761
0.56677
0.56677
0.56678
0.566789
0.566798
0.566808
0.566808
0.566817
0.566827
0.566836
0.566845
0.566845
0.566855
0.566864
0.566874
0.566883
0.566883
0.566893
0.566902
0.566912
0.566921
0.566921
0.566931
0.56694
0.56695
0.566959
0.566959
0.566969
0.566978
0.566988
0.566998
0.566998
0.567007
0.567017
0.567026
0.567036
0.567036
0.567046
0.567055
0.567065
0.567075
0.567075
0.567085
0.567094
0.567104
0.567114
0.567114
0.567124
0.567133
0.567143
0.567153
0.567153
0.567163
0.567173
0.567183
0.567192
0.567192
0.567202
0.567212
0.567222
0.567232
0.567232
0.567242
0.567252
0.567262
0.567272
0.567272
0.567282
0.567292
0.567302
0.567312
0.567312
0.567322
0.567332
0.567342
0.567352
0.567352
0.567362
0.567372
0.567382
0.567392
0.567392
0.567403
0.567413
0.567423
0.567433
0.567433
0.567443
0.567454
0.567464
0.567474
0.567474
0.567484
0.567494
0.567505
0.567515
0.567515
0.567525
0.567536
0.567546
0.567556
0.567556
0.567567
0.567577
0.567587
0.567598
0.567598
0.567608
0.567619
0.567629
0.56764
0.56764
0.56765
0.567661
0.567671
0.567682
0.567682
0.567692
0.567703
0.567713
0.567724
0.567724
0.567734
0.567745
0.567756
0.567766
0.567766
0.567777
0.567787
0.567798
0.567809
0.567809
0.567819
0.56783
0.567841
0.567852
0.567852
0.567862
0.567873
0.567884
0.567895
0.567895
0.567905
0.567916
0.567927
0.567938
0.567938
0.567949
0.56796
0.567971
0.567981
0.567981
0.567992
0.568003
0.568014
0.568025
0.568025
0.568036
0.568047
0.568058
0.568069
0.568069
0.56808
0.568091
0.568102
0.568113
0.568113
0.568125
0.568136
0.568147
0.568158
0.568158
0.568169
0.56818
0.568191
0.568203
0.568203
0.568214
0.568225
0.568236
0.568247
0.568247
0.568259
0.56827
0.568281
0.568293
0.568293
0.568304
0.568315
0.568327
0.568338
0.568338
0.568349
0.568361
0.568372
0.568384
0.568384
0.568395
0.568406
0.568418
0.568429
0.568429
0.568441
0.568452
0.568464
0.568475
0.568475
0.568487
0.568499
0.56851
0.568522
0.568522
0.568533
0.568545
0.568557
0.568568
0.568568
0.56858
0.568592
0.568603
0.568615
0.568615
0.568627
0.568639
0.56865
0.568662
0.568662
0.568674
0.568686
0.568698
0.568709
0.568709
0.568721
0.568733
0.568745
0.568757
0.568757
0.568769
0.568781
0.568793
0.568805
0.568805
0.568817
0.568829
0.568841
0.568853
0.568853
0.568865
0.568877
0.568889
0.568901
0.568901
0.568913
0.568925
0.568937
0.56895
0.56895
0.568962
0.568974
0.568986
0.568998
0.568998
0.569011
0.569023
0.569035
0.569047
0.569047
0.56906
0.569072
0.569084
0.569097
0.569097
0.569109
0.569121
0.569134
0.569146
0.569146
0.569159
0.569171
0.569184
0.569196
0.569196
0.569209
0.569221
0.569234
0.569246
0.569246
0.569259
0.569271
0.569284
0.569296
0.569296
0.569309
0.569322
0.569334
0.569347
0.569347
0.56936
0.569372
0.569385
0.569398
0.569398
0.569411
0.569423
0.569436
0.569449
0.569449
0.569462
0.569474
0.569487
0.5695
0.5695
0.569513
0.569526
0.569539
0.569552
0.569552
0.569565
0.569578
0.569591
0.569604
0.569604
0.569617
0.56963
0.569643
0.569656
0.569656
0.569669
0.569682
0.569695
0.569708
0.569708
0.569721
0.569734
0.569748
0.569761
0.569761
0.569774
0.569787
0.569801
0.569814
0.569814
0.569827
0.56984
0.569854
0.569867
0.569867
0.56988
0.569894
0.569907
0.56992
0.56992
0.569934
0.569947
0.569961
0.569974
0.569974
0.569988
0.570001
0.570015
0.570028
0.570028
0.570042
0.570055
0.570069
0.570083
0.570083
0.570096
0.57011
0.570123
0.570137
0.570137
0.570151
0.570165
0.570178
0.570192
0.570192
0.570206
0.570219
0.570233
0.570247
0.570247
0.570261
0.570275
0.570289
0.570303
0.570303
0.570316
0.57033
0.570344
0.570358
0.570358
0.570372
0.570386
0.5704
0.570414
0.570414
0.570428
0.570442
0.570456
0.57047
0.57047
0.570485
0.570499
0.570513
0.570527
0.570527
0.570541
0.570555
0.57057
0.570584
0.570584
0.570598
0.570612
0.570627
0.570641
0.570641
0.570655
0.57067
0.570684
0.570698
0.570698
0.570713
0.570727
0.570742
0.570756
0.570756
0.57077
0.570785
0.570799
0.570814
0.570814
0.570829
0.570843
0.570858
0.570872
0.570872
0.570887
0.570902
0.570916
0.570931
0.570931
0.570946
0.57096
0.570975
0.57099
0.57099
0.571004
0.571019
0.571034
0.571049
0.571049
0.571064
0.571079
0.571093
0.571108
0.571108
0.571123
0.571138
0.571153
0.571168
0.571168
0.571183
0.571198
0.571213
0.571228
0.571228
0.571243
0.571258
0.571273
0.571289
0.571289
0.571304
0.571319
0.571334
0.571349
0.571349
0.571364
0.57138
0.571395
0.57141
0.57141
0.571425
0.571441
0.571456
0.571471
0.571471
0.571487
0.571502
0.571518
0.571533
0.571533
0.571548
0.571564
0.571579
0.571595
0.571595
0.57161
0.571626
0.571641
0.571657
0.571657
0.571673
0.571688
0.571704
0.57172
0.57172
0.571735
0.571751
0.571767
0.571782
0.571782
0.571798
0.571814
0.57183
0.571846
0.571846
0.571861
0.571877
0.571893
0.571909
0.571909
0.571925
0.571941
0.571957
0.571973
0.571973
0.571989
0.572005
0.572021
0.572037
0.572037
0.572053
0.572069
0.572085
0.572101
0.572101
0.572117
0.572134
0.57215
0.572166
0.572166
0.572182
0.572198
0.572215
0.572231
0.572231
0.572247
0.572264
0.57228
0.572296
0.572296
0.572313
0.572329
0.572346
0.572362
0.572362
0.572378
0.572395
0.572411
0.572428
0.572428
0.572445
0.572461
0.572478
0.572494
0.572494
0.572511
0.572528
0.572544
0.572561
0.572561
0.572578
0.572594
0.572611
0.572628
0.572628
0.572645
0.572662
0.572678
0.572695
0.572695
0.572712
0.572729
0.572746
0.572763
0.572763
0.57278
0.572797
0.572814
0.572831
0.572831
0.572848
0.572865
0.572882
0.572899
0.572899
0.572916
0.572934
0.572951
0.572968
0.572968
0.572985
0.573002
0.57302
0.573037
0.573037
0.573054
0.573072
0.573089
0.573106
0.573106
0.573124
0.573141
0.573159
0.573176
0.573176
0.573194
0.573211
0.573229
0.573246
0.573246
0.573264
0.573281
0.573299
0.573316
0.573316
0.573334
0.573352
0.573369
0.573387
0.573387
0.573405
0.573423
0.57344
0.573458
0.573458
0.573476
0.573494
0.573512
0.57353
0.57353
0.573548
0.573565
0.573583
0.573601
0.573601
0.573619
0.573637
0.573655
0.573674
0.573674
0.573692
0.57371
0.573728
0.573746
0.573746
0.573764
0.573782
0.573801
0.573819
0.573819
0.573837
0.573855
0.573874
0.573892
0.573892
0.57391
0.573929
0.573947
0.573966
0.573966
0.573984
0.574002
0.574021
0.574039
0.574039
0.574058
0.574076
0.574095
0.574114
0.574114
0.574132
0.574151
0.57417
0.574188
0.574188
0.574207
0.574226
0.574244
0.574263
0.574263
0.574282
0.574301
0.57432
0.574339
0.574339
0.574357
0.574376
0.574395
0.574414
0.574414
0.574433
0.574452
0.574471
0.57449
0.57449
0.574509
0.574529
0.574548
0.574567
0.574567
0.574586
0.574605
0.574624
0.574644
0.574644
0.574663
0.574682
0.574701
0.574721
0.574721
0.57474
0.57476
0.574779
0.574798
0.574798
0.574818
0.574837
0.574857
0.574876
0.574876
0.574896
0.574915
0.574935
0.574955
0.574955
0.574974
0.574994
0.575014
0.575033
0.575033
0.575053
0.575073
0.575093
0.575112
0.575112
0.575132
0.575152
0.575172
0.575192
0.575192
0.575212
0.575232
0.575252
0.575272
0.575272
0.575292
0.575312
0.575332
0.575352
0.575352
0.575372
0.575392
0.575412
0.575432
0.575432
0.575453
0.575473
0.575493
0.575513
0.575513
0.575534
0.575554
0.575574
0.575595
0.575595
0.575615
0.575636
0.575656
0.575677
0.575677
0.575697
0.575718
0.575738
0.575759
0.575759
0.575779
0.5758
0.575821
0.575841
0.575841
0.575862
0.575883
0.575903
0.575924
0.575924
0.575945
0.575966
0.575987
0.576008
0.576008
0.576028
0.576049
0.57607
0.576091
0.576091
0.576112
0.576133
0.576154
0.576175
0.576175
0.576197
0.576218
0.576239
0.57626
0.57626
0.576281
0.576302
0.576324
0.576345
0.576345
0.576366
0.576388
0.576409
0.57643
0.57643
0.576452
0.576473
0.576495
0.576516
0.576516
0.576538
0.576559
0.576581
0.576602
0.576602
0.576624
0.576645
0.576667
0.576689
0.576689
0.57671
0.576732
0.576754
0.576776
0.576776
0.576798
0.576819
0.576841
0.576863
0.576863
0.576885
0.576907
0.576929
0.576951
0.576951
0.576973
0.576995
0.577017
0.577039
0.577039
0.577061
0.577083
0.577106
0.577128
0.577128
0.57715
0.577172
0.577194
0.577217
0.577217
0.577239
0.577261
0.577284
0.577306
0.577306
0.577329
0.577351
0.577374
0.577396
0.577396
0.577419
0.577441
0.577464
0.577486
0.577486
0.577509
0.577532
0.577554
0.577577
0.577577
0.5776
0.577623
0.577646
0.577668
0.577668
0.577691
0.577714
0.577737
0.57776
0.57776
0.577783
0.577806
0.577829
0.577852
0.577852
0.577875
0.577898
0.577921
0.577944
0.577944
0.577968
0.577991
0.578014
0.578037
0.578037
0.578061
0.578084
0.578107
0.578131
0.578131
0.578154
0.578177
0.578201
0.578224
0.578224
0.578248
0.578271
0.578295
0.578319
0.578319
0.578342
0.578366
0.578389
0.578413
0.578413
0.578437
0.578461
0.578484
0.578508
0.578508
0.578532
0.578556
0.57858
0.578604
0.578604
0.578628
0.578652
0.578676
0.5787
0.5787
0.578724
0.578748
0.578772
0.578796
0.578796
0.57882
0.578844
0.578869
0.578893
0.578893
0.578917
0.578942
0.578966
0.57899
0.57899
0.579015
0.579039
0.579063
0.579088
0.579088
0.579112
0.579137
0.579162
0.579186
0.579186
0.579211
0.579235
0.57926
0.579285
0.579285
0.57931
0.579334
0.579359
0.579384
0.579384
0.579409
0.579434
0.579458
0.579483
0.579483
0.579508
0.579533
0.579558
0.579583
0.579583
0.579609
0.579634
0.579659
0.579684
0.579684
0.579709
0.579734
0.57976
0.579785
0.579785
0.57981
0.579835
0.579861
0.579886
0.579886
0.579912
0.579937
0.579963
0.579988
0.579988
0.580014
0.580039
0.580065
0.58009
0.58009
0.580116
0.580142
0.580167
0.580193
0.580193
0.580219
0.580245
0.580271
0.580296
0.580296
0.580322
0.580348
0.580374
0.5804
0.5804
0.580426
0.580452
0.580478
0.580504
0.580504
0.580531
0.580557
0.580583
0.580609
0.580609
0.580635
0.580662
0.580688
0.580714
0.580714
0.580741
0.580767
0.580793
0.58082
0.58082
0.580846
0.580873
0.580899
0.580926
0.580926
0.580953
0.580979
0.581006
0.581033
0.581033
0.581059
0.581086
0.581113
0.58114
0.58114
0.581166
0.581193
0.58122
0.581247
0.581247
0.581274
0.581301
0.581328
0.581355
0.581355
0.581382
0.581409
0.581437
0.581464
0.581464
0.581491
0.581518
0.581545
0.581573
0.581573
0.5816
0.581627
0.581655
0.581682
0.581682
0.58171
0.581737
0.581765
0.581792
0.581792
0.58182
0.581847
0.581875
0.581903
0.581903
0.58193
0.581958
0.581986
0.582014
0.582014
0.582042
0.582069
0.582097
0.582125
0.582125
0.582153
0.582181
0.582209
0.582237
0.582237
0.582265
0.582293
0.582322
0.58235
0.58235
0.582378
0.582406
0.582434
0.582463
0.582463
0.582491
0.582519
0.582548
0.582576
0.582576
0.582605
0.582633
0.582662
0.58269
0.58269
0.582719
0.582747
0.582776
0.582805
0.582805
0.582833
0.582862
0.582891
0.58292
0.58292
0.582948
0.582977
0.583006
0.583035
0.583035
0.583064
0.583093
0.583122
0.583151
0.583151
0.58318
0.583209
0.583238
0.583268
0.583268
0.583297
0.583326
0.583355
0.583385
0.583385
0.583414
0.583443
0.583473
0.583502
0.583502
0.583532
0.583561
0.583591
0.58362
0.58362
0.58365
0.58368
0.583709
0.583739
0.583739
0.583769
0.583798
0.583828
0.583858
0.583858
0.583888
0.583918
0.583948
0.583978
0.583978
0.584008
0.584038
0.584068
0.584098
0.584098
0.584128
0.584158
0.584188
0.584218
0.584218
0.584249
0.584279
0.584309
0.58434
0.58434
0.58437
0.5844
0.584431
0.584461
0.584461
0.584492
0.584522
0.584553
0.584584
0.584584
0.584614
0.584645
0.584676
0.584706
0.584706
0.584737
0.584768
0.584799
0.58483
0.58483
0.584861
0.584892
0.584923
0.584954
0.584954
0.584985
0.585016
0.585047
0.585078
0.585078
0.585109
0.58514
0.585172
0.585203
0.585203
0.585234
0.585266
0.585297
0.585328
0.585328
0.58536
0.585391
0.585423
0.585454
0.585454
0.585486
0.585518
0.585549
0.585581
0.585581
0.585613
0.585644
0.585676
0.585708
0.585708
0.58574
0.585772
0.585804
0.585836
0.585836
0.585868
0.5859
0.585932
0.585964
0.585964
0.585996
0.586028
0.58606
0.586092
0.586092
0.586125
0.586157
0.586189
0.586222
0.586222
0.586254
0.586287
0.586319
0.586352
0.586352
0.586384
0.586417
0.586449
0.586482
0.586482
0.586515
0.586547
0.58658
0.586613
0.586613
0.586646
0.586678
0.586711
0.586744
0.586744
0.586777
0.58681
0.586843
0.586876
0.586876
0.586909
0.586943
0.586976
0.587009
0.587009
0.587042
0.587075
0.587109
0.587142
0.587142
0.587175
0.587209
0.587242
0.587276
0.587276
0.587309
0.587343
0.587376
0.58741
0.58741
0.587444
0.587477
0.587511
0.587545
0.587545
0.587579
0.587612
0.587646
0.58768
0.58768
0.587714
0.587748
0.587782
0.587816
0.587816
0.58785
0.587884
0.587919
0.587953
0.587953
0.587987
0.588021
0.588055
0.58809
0.58809
0.588124
0.588159
0.588193
0.588227
0.588227
0.588262
0.588296
0.588331
0.588366
0.588366
0.5884
0.588435
0.58847
0.588504
0.588504
0.588539
0.588574
0.588609
0.588644
0.588644
0.588679
0.588714
0.588749
0.588784
0.588784
0.588819
0.588854
0.588889
0.588924
0.588924
0.58896
0.588995
0.58903
0.589065
0.589065
0.589101
0.589136
0.589172
0.589207
0.589207
0.589243
0.589278
0.589314
0.589349
0.589349
0.589385
0.589421
0.589456
0.589492
0.589492
0.589528
0.589564
0.5896
0.589636
0.589636
0.589672
0.589708
0.589744
0.58978
0.58978
0.589816
0.589852
0.589888
0.589924
0.589924
0.58996
0.589997
0.590033
0.590069
0.590069
0.590106
0.590142
0.590179
0.590215
0.590215
0.590252
0.590288
0.590325
0.590362
0.590362
0.590398
0.590435
0.590472
0.590508
0.590508
0.590545
0.590582
0.590619
0.590656
0.590656
0.590693
0.59073
0.590767
0.590804
0.590804
0.590841
0.590878
0.590916
0.590953
0.590953
0.59099
0.591027
0.591065
0.591102
0.591102
0.59114
0.591177
0.591215
0.591252
0.591252
0.59129
0.591327
0.591365
0.591403
0.591403
0.59144
0.591478
0.591516
0.591554
0.591554
0.591592
0.59163
0.591667
0.591705
0.591705
0.591743
0.591782
0.59182
0.591858
0.591858
0.591896
0.591934
0.591972
0.592011
0.592011
0.592049
0.592087
0.592126
0.592164
0.592164
0.592203
0.592241
0.59228
0.592318
0.592318
0.592357
0.592396
0.592434
0.592473
0.592473
0.592512
0.592551
0.59259
0.592628
0.592628
0.592667
0.592706
0.592745
0.592784
0.592784
0.592823
0.592863
0.592902
0.592941
0.592941
0.59298
0.593019
0.593059
0.593098
0.593098
0.593137
0.593177
0.593216
0.593256
0.593256
0.593295
0.593335
0.593375
0.593414
0.593414
0.593454
0.593494
0.593533
0.593573
0.593573
0.593613
0.593653
0.593693
0.593733
0.593733
0.593773
0.593813
0.593853
0.593893
0.593893
0.593933
0.593973
0.594014
0.594054
0.594054
0.594094
0.594135
0.594175
0.594215
0.594215
0.594256
0.594296
0.594337
0.594377
0.594377
0.594418
0.594459
0.594499
0.59454
0.59454
0.594581
0.594622
0.594663
0.594703
0.594703
0.594744
0.594785
0.594826
0.594867
0.594867
0.594908
0.59495
0.594991
0.595032
0.595032
0.595073
0.595114
0.595156
0.595197
0.595197
0.595238
0.59528
0.595321
0.595363
0.595363
0.595404
0.595446
0.595488
0.595529
0.595529
0.595571
0.595613
0.595655
0.595696
0.595696
0.595738
0.59578
0.595822
0.595864
0.595864
0.595906
0.595948
0.59599
0.596032
0.596032
0.596074
0.596117
0.596159
0.596201
0.596201
0.596244
0.596286
0.596328
0.596371
0.596371
0.596413
0.596456