<?xml version="1.0"?>
<VTKFile type="UnstructuredGrid" version="0.1" byte_order="LittleEndian">
<UnstructuredGrid>
<Piece NumberOfPoints="5000" NumberOfCells="4000">
<PointData Scalars="Reaction 0">
<DataArray type="Float32" Name="Reaction 0" format="ascii">
0.542538
0.542538
0.542538
0.542538
0.542538
0.542538
0.542538
0.542538
0.542538
0.542538
0.542538
0.542538
0.542538
0.542538
0.542538
0.542538
0.542539
0.542539
0.542539
0.542539
0.542539
0.542539
0.542539
0.54254
0.54254
0.54254
0.54254
0.54254
0.542541
0.542541
0.542541
0.542541
0.542541
0.542542
0.542542
0.542542
0.542542
0.542543
0.542543
0.542543
0.542543
0.542544
0.542544
0.542545
0.542545
0.542545
0.542545
0.542546
0.542546
0.542547
0.542547
0.542547
0.542548
0.542548
0.542549
0.542549
0.542549
0.54255
0.54255
0.542551
0.542551
0.542551
0.542552
0.542552
0.542553
0.542553
0.542554
0.542554
0.542555
0.542555
0.542555
0.542556
0.542557
0.542557
0.542558
0.542558
0.542559
0.54256
0.54256
0.542561
0.542561
0.542562
0.542562
0.542563
0.542564
0.542564
0.542565
0.542566
0.542566
0.542567
0.542567
0.542568
0.542569
0.54257
0.542571
0.542571
0.542571
0.542572
0.542573
0.542574
0.542574
0.542575
0.542576
0.542577
0.542578
0.542578
0.542579
0.54258
0.542581
0.542582
0.542582
0.542583
0.542584
0.542585
0.542586
0.542586
0.542587
0.542588
0.542589
0.54259
0.54259
0.542591
0.542592
0.542594
0.542595
0.542595
0.542596
0.542597
0.542598
0.542599
0.542599
0.542601
0.542602
0.542603
0.542604
0.542604
0.542605
0.542607
0.542608
0.542609
0.542609
0.542611
0.542612
0.542613
0.542614
0.542614
0.542616
0.542617
0.542618
0.54262
0.54262
0.542621
0.542623
0.542624
0.542625
0.542625
0.542627
0.542628
0.54263
0.542631
0.542631
0.542633
0.542634
0.542636
0.542637
0.542637
0.542639
0.54264
0.542642
0.542643
0.542643
0.542645
0.542646
0.542648
0.54265
0.54265
0.542651
0.542653
0.542654
0.542656
0.542656
0.542658
0.542659
0.542661
0.542663
0.542663
0.542664
0.542666
0.542668
0.54267
0.54267
0.542671
0.542673
0.542675
0.542677
0.542677
0.542678
0.54268
0.542682
0.542684
0.542684
0.542686
0.542687
0.542689
0.542691
0.542691
0.542693
0.542695
0.542697
0.542699
0.542699
0.542701
0.542703
0.542705
0.542706
0.542706
0.542708
0.54271
0.542712
0.542714
0.542714
0.542716
0.542718
0.542721
0.542723
0.542723
0.542725
0.542727
0.542729
0.542731
0.542731
0.542733
0.542735
0.542737
0.542739
0.542739
0.542742
0.542744
0.542746
0.542748
0.542748
0.54275
0.542752
0.542755
0.542757
0.542757
0.542759
0.542761
0.542764
0.542766
0.542766
0.542768
0.542771
0.542773
0.542775
0.542775
0.542777
0.54278
0.542782
0.542785
0.542785
0.542787
0.542789
0.542792
0.542794
0.542794
0.542797
0.542799
0.542801
0.542804
0.542804
0.542806
0.542809
0.542811
0.542814
0.542814
0.542816
0.542819
0.542821
0.542824
0.542824
0.542827
0.542829
0.542832
0.542834
0.542834
0.542837
0.542839
0.542842
0.542845
0.542845
0.542847
0.54285
0.542853
0.542855
0.542855
0.542858
0.542861
0.542864
0.542866
0.542866
0.542869
0.542872
0.542875
0.542877
0.542877
0.54288
0.542883
0.542886
0.542889
0.542889
0.542891
0.542894
0.542897
0.5429
0.5429
0.542903
0.542906
0.542909
0.542912
0.542912
0.542914
0.542917
0.54292
0.542923
0.542923
0.542926
0.542929
0.542932
0.542935
0.542935
0.542938
0.542941
0.542944
0.542947
0.542947
0.54295
0.542953
0.542957
0.54296
0.54296
0.542963
0.542966
0.542969
0.542972
0.542972
0.542975
0.542978
0.542982
0.542985
0.542985
0.542988
0.542991
0.542994
0.542998
0.542998
0.543001
0.543004
0.543007
0.543011
0.543011
0.543014
0.543017
0.543021
0.543024
0.543024
0.543027
0.543031
0.543034
0.543037
0.543037
0.543041
0.543044
0.543047
0.543051
0.543051
0.543054
0.543058
0.543061
0.543065
0.543065
0.543068
0.543072
0.543075
0.543079
0.543079
0.543082
0.543086
0.543089
0.543093
0.543093
0.543096
0.5431
0.543103
0.543107
0.543107
0.543111
0.543114
0.543118
0.543121
0.543121
0.543125
0.543129
0.543132
0.543136
0.543136
0.54314
0.543144
0.543147
0.543151
0.543151
0.543155
0.543158
0.543162
0.543166
0.543166
0.54317
0.543174
0.543177
0.543181
0.543181
0.543185
0.543189
0.543193
0.543197
0.543197
0.5432
0.543204
0.543208
0.543212
0.543212
0.543216
0.54322
0.543224
0.543228
0.543228
0.543232
0.543236
0.54324
0.543244
0.543244
0.543248
0.543252
0.543256
0.54326
0.54326
0.543264
0.543268
0.543272
0.543276
0.543276
0.54328
0.543284
0.543289
0.543293
0.543293
0.543297
0.543301
0.543305
0.543309
0.543309
0.543314
0.543318
0.543322
0.543326
0.543326
0.54333
0.543335
0.543339
0.543343
0.543343
0.543347
0.543352
0.543356
0.54336
0.54336
0.543365
0.543369
0.543373
0.543378
0.543378
0.543382
0.543386
0.543391
0.543395
0.543395
0.5434
0.543404
0.543409
0.543413
0.543413
0.543417
0.543422
0.543426
0.543431
0.543431
0.543435
0.54344
0.543444
0.543449
0.543449
0.543454
0.543458
0.543463
0.543467
0.543467
0.543472
0.543476
0.543481
0.543486
0.543486
0.54349
0.543495
0.5435
0.543504
0.543504
0.543509
0.543514
0.543518
0.543523
0.543523
0.543528
0.543533
0.543537
0.543542
0.543542
0.543547
0.543552
0.543556
0.543561
0.543561
0.543566
0.543571
0.543576
0.543581
0.543581
0.543585
0.54359
0.543595
0.5436
0.5436
0.543605
0.54361
0.543615
0.54362
0.54362
0.543625
0.54363
0.543635
0.54364
0.54364
0.543645
0.54365
0.543655
0.54366
0.54366
0.543665
0.54367
0.543675
0.54368
0.54368
0.543685
0.54369
0.543695
0.5437
0.5437
0.543706
0.543711
0.543716
0.543721
0.543721
0.543726
0.543731
0.543737
0.543742
0.543742
0.543747
0.543752
0.543758
0.543763
0.543763
0.543768
0.543773
0.543779
0.543784
0.543784
0.543789
0.543795
0.5438
0.543805
0.543805
0.543811
0.543816
0.543821
0.543827
0.543827
0.543832
0.543838
0.543843
0.543848
0.543848
0.543854
0.543859
0.543865
0.54387
0.54387
0.543876
0.543881
0.543887
0.543892
0.543892
0.543898
0.543903
0.543909
0.543914
0.543914
0.54392
0.543926
0.543931
0.543937
0.543937
0.543942
0.543948
0.543954
0.543959
0.543959
0.543965
0.543971
0.543976
0.543982
0.543982
0.543988
0.543994
0.543999
0.544005
0.544005
0.544011
0.544017
0.544022
0.544028
0.544028
0.544034
0.54404
0.544046
0.544051
0.544051
0.544057
0.544063
0.544069
0.544075
0.544075
0.544081
0.544087
0.544093
0.544098
0.544098
0.544104
0.54411
0.544116
0.544122
0.544122
0.544128
0.544134
0.54414
0.544146
0.544146
0.544152
0.544158
0.544164
0.54417
0.54417
0.544176
0.544183
0.544189
0.544195
0.544195
0.544201
0.544207
0.544213
0.544219
0.544219
0.544225
0.544232
0.544238
0.544244
0.544244
0.54425
0.544256
0.544263
0.544269
0.544269
0.544275
0.544281
0.544288
0.544294
0.544294
0.5443
0.544306
0.544313
0.544319
0.544319
0.544325
0.544332
0.544338
0.544344
0.544344
0.544351
0.544357
0.544364
0.54437
0.54437
0.544376
0.544383
0.544389
0.544396
0.544396
0.544402
0.544409
0.544415
0.544422
0.544422
0.544428
0.544435
0.544441
0.544448
0.544448
0.544454
0.544461
0.544468
0.544474
0.544474
0.544481
0.544487
0.544494
0.544501
0.544501
0.544507
0.544514
0.544521
0.544527
0.544527
0.544534
0.544541
0.544547
0.544554
0.544554
0.544561
0.544567
0.544574
0.544581
0.544581
0.544588
0.544595
0.544601
0.544608
0.544608
0.544615
0.544622
0.544629
0.544635
0.544635
0.544642
0.544649
0.544656
0.544663
0.544663
0.54467
0.544677
0.544684
0.544691
0.544691
0.544698
0.544705
0.544712
0.544719
0.544719
0.544726
0.544733
0.54474
0.544747
0.544747
0.544754
0.544761
0.544768
0.544775
0.544775
0.544782
0.544789
0.544796
0.544803
0.544803
0.54481
0.544817
0.544825
0.544832
0.544832
0.544839
0.544846
0.544853
0.54486
0.54486
0.544868
0.544875
0.544882
0.544889
0.544889
0.544897
0.544904
0.544911
0.544918
0.544918
0.544926
0.544933
0.54494
0.544948
0.544948
0.544955
0.544962
0.54497
0.544977
0.544977
0.544985
0.544992
0.544999
0.545007
0.545007
0.545014
0.545022
0.545029
0.545037
0.545037
0.545044
0.545052
0.545059
0.545067
0.545067
0.545074
0.545082
0.545089
0.545097
0.545097
0.545104
0.545112
0.545119
0.545127
0.545127
0.545135
0.545142
0.54515
0.545157
0.545157
0.545165
0.545173
0.54518
0.545188
0.545188
0.545196
0.545204
0.545211
0.545219
0.545219
0.545227
0.545234
0.545242
0.54525
0.54525
0.545258
0.545266
0.545273
0.545281
0.545281
0.545289
0.545297
0.545305
0.545312
0.545312
0.54532
0.545328
0.545336
0.545344
0.545344
0.545352
0.54536
0.545368
0.545376
0.545376
0.545384
0.545392
0.5454
0.545408
0.545408
0.545416
0.545424
0.545432
0.54544
0.54544
0.545448
0.545456
0.545464
0.545472
0.545472
0.54548
0.545488
0.545496
0.545504
0.545504
0.545512
0.54552
0.545529
0.545537
0.545537
0.545545
0.545553
0.545561
0.545569
0.545569
0.545578
0.545586
0.545594
0.545602
0.545602
0.545611
0.545619
0.545627
0.545635
0.545635
0.545644
0.545652
0.54566
0.545669
0.545669
0.545677
0.545685
0.545694
0.545702
0.545702
0.545711
0.545719
0.545727
0.545736
0.545736
0.545744
0.545753
0.545761
0.54577
0.54577
0.545778
0.545786
0.545795
0.545803
0.545803
0.545812
0.54582
0.545829
0.545838
0.545838
0.545846
0.545855
0.545863
0.545872
0.545872
0.54588
0.545889
0.545898
0.545906
0.545906
0.545915
0.545924
0.545932
0.545941
0.545941
0.54595
0.545958
0.545967
0.545976
0.545976
0.545984
0.545993
0.546002
0.546011
0.546011
0.546019
0.546028
0.546037
0.546046
0.546046
0.546055
0.546063
0.546072
0.546081
0.546081
0.54609
0.546099
0.546108
0.546117
0.546117
0.546125
0.546134
0.546143
0.546152
0.546152
0.546161
0.54617
0.546179
0.546188
0.546188
0.546197
0.546206
0.546215
0.546224
0.546224
0.546233
0.546242
0.546251
0.54626
0.54626
0.546269
0.546278
0.546287
0.546297
0.546297
0.546306
0.546315
0.546324
0.546333
0.546333
0.546342
0.546351
0.54636
0.54637
0.54637
0.546379
0.546388
0.546397
0.546407
0.546407
0.546416
0.546425
0.546434
0.546444
0.546444
0.546453
0.546462
0.546471
0.546481
0.546481
0.54649
0.546499
0.546509
0.546518
0.546518
0.546527
0.546537
0.546546
0.546556
0.546556
0.546565
0.546574
0.546584
0.546593
0.546593
0.546603
0.546612
0.546622
0.546631
0.546631
0.546641
0.54665
0.54666
0.546669
0.546669
0.546679
0.546688
0.546698
0.546707
0.546707
0.546717
0.546726
0.546736
0.546746
0.546746
0.546755
0.546765
0.546775
0.546784
0.546784
0.546794
0.546804
0.546813
0.546823
0.546823
0.546833
0.546842
0.546852
0.546862
0.546862
0.546871
0.546881
0.546891
0.546901
0.546901
0.546911
0.54692
0.54693
0.54694
0.54694
0.54695
0.54696
0.546969
0.546979
0.546979
0.546989
0.546999
0.547009
0.547019
0.547019
0.547029
0.547039
0.547049
0.547059
0.547059
0.547069
0.547078
0.547088
0.547098
0.547098
0.547108
0.547118
0.547128
0.547138
0.547138
0.547149
0.547159
0.547169
0.547179
0.547179
0.547189
0.547199
0.547209
0.547219
0.547219
0.547229
0.547239
0.547249
0.54726
0.54726
0.54727
0.54728
0.54729
0.5473
0.5473
0.54731
0.547321
0.547331
0.547341
0.547341
0.547351
0.547362
0.547372
0.547382
0.547382
0.547392
0.547403
0.547413
0.547423
0.547423
0.547434
0.547444
0.547454
0.547465
0.547465
0.547475
0.547485
0.547496
0.547506
0.547506
0.547517
0.547527
0.547538
0.547548
0.547548
0.547558
0.547569
0.547579
0.54759
0.54759
0.5476
0.547611
0.547621
0.547632
0.547632
0.547642
0.547653
0.547663
0.547674
0.547674
0.547685
0.547695
0.547706
0.547716
0.547716
0.547727
0.547738
0.547748
0.547759
0.547759
0.54777
0.54778
0.547791
0.547802
0.547802
0.547812
0.547823
0.547834
0.547844
0.547844
0.547855
0.547866
0.547877
0.547887
0.547887
0.547898
0.547909
0.54792
0.547931
0.547931
0.547941
0.547952
0.547963
0.547974
0.547974
0.547985
0.547996
0.548007
0.548018
0.548018
0.548028
0.548039
0.54805
0.548061
0.548061
0.548072
0.548083
0.548094
0.548105
0.548105
0.548116
0.548127
0.548138
0.548149
0.548149
0.54816
0.548171
0.548182
0.548193
0.548193
0.548204
0.548215
0.548226
0.548238
0.548238
0.548249
0.54826
0.548271
0.548282
0.548282
0.548293
0.548304
0.548315
0.548327
0.548327
0.548338
0.548349
0.54836
0.548371
0.548371
0.548383
0.548394
0.548405
0.548416
0.548416
0.548428
0.548439
0.54845
0.548462
0.548462
0.548473
0.548484
0.548496
0.548507
0.548507
0.548518
0.54853
0.548541
0.548552
0.548552
0.548564
0.548575
0.548587
0.548598
0.548598
0.548609
0.548621
0.548632
0.548644
0.548644
0.548655
0.548667
0.548678
0.54869
0.54869
0.548701
0.548713
0.548724
0.548736
0.548736
0.548747
0.548759
0.54877
0.548782
0.548782
0.548794
0.548805
0.548817
0.548829
0.548829
0.54884
0.548852
0.548863
0.548875
0.548875
0.548887
0.548898
0.54891
0.548922
0.548922
0.548934
0.548945
0.548957
0.548969
0.548969
0.548981
0.548992
0.549004
0.549016
0.549016
0.549028
0.549039
0.549051
0.549063
0.549063
0.549075
0.549087
0.549099
0.54911
0.54911
0.549122
0.549134
0.549146
0.549158
0.549158
0.54917
0.549182
0.549194
0.549206
0.549206
0.549218
0.54923
0.549242
0.549254
0.549254
0.549266
0.549278
0.54929
0.549302
0.549302
0.549314
0.549326
0.549338
0.54935
0.54935
0.549362
0.549374
0.549386
0.549398
0.549398
0.54941
0.549422
0.549435
0.549447
0.549447
0.549459
0.549471
0.549483
0.549495
0.549495
0.549508
0.54952
0.549532
0.549544
0.549544
0.549556
0.549569
0.549581
0.549593
0.549593
0.549605
0.549618
0.54963
0.549642
0.549642
0.549655
0.549667
0.549679
0.549692
0.549692
0.549704
0.549716
0.549729
0.549741
0.549741
0.549753
0.549766
0.549778
0.549791
0.549791
0.549803
0.549816
0.549828
0.54984
0.54984
0.549853
0.549865
0.549878
0.54989
0.54989
0.549903
0.549915
0.549928
0.54994
0.54994
0.549953
0.549966
0.549978
0.549991
0.549991
0.550003
0.550016
0.550029
0.550041
0.550041
0.550054
0.550066
0.550079
0.550092
0.550092
0.550104
0.550117
0.55013
0.550142
0.550142
0.550155
0.550168
0.550181
0.550193
0.550193
0.550206
0.550219
0.550232
0.550244
0.550244
0.550257
0.55027
0.550283
0.550295
0.550295
0.550308
0.550321
0.550334
0.550347
0.550347
0.55036
0.550373
0.550385
0.550398
0.550398
0.550411
0.550424
0.550437
0.55045
0.55045
0.550463
0.550476
0.550489
0.550502
0.550502
0.550515
0.550528
0.550541
0.550554
0.550554
0.550567
0.55058
0.550593
0.550606
0.550606
0.550619
0.550632
0.550645
0.550658
0.550658
0.550671
0.550684
0.550697
0.550711
0.550711
0.550724
0.550737
0.55075
0.550763
0.550763
0.550776
0.550789
0.550803
0.550816
0.550816
0.550829
0.550842
0.550855
0.550869
0.550869
0.550882
0.550895
0.550908
0.550922
0.550922
0.550935
0.550948
0.550962
0.550975
0.550975
0.550988
0.551002
0.551015
0.551028
0.551028
0.551042
0.551055
0.551068
0.551082
0.551082
0.551095
0.551109
0.551122
0.551135
0.551135
0.551149
0.551162
0.551176
0.551189
0.551189
0.551203
0.551216
0.55123
0.551243
0.551243
0.551257
0.55127
0.551284
0.551297
0.551297
0.551311
0.551324
0.551338
0.551352
0.551352
0.551365
0.551379
0.551392
0.551406
0.551406
0.55142
0.551433
0.551447
0.551461
0.551461
0.551474
0.551488
0.551502
0.551515
0.551515
0.551529
0.551543
0.551556
0.55157
0.55157
0.551584
0.551598
0.551611
0.551625
0.551625
0.551639
0.551653
0.551666
0.55168
0.55168
0.551694
0.551708
0.551722
0.551736
0.551736
0.551749
0.551763
0.551777
0.551791
0.551791
0.551805
0.551819
0.551833
0.551847
0.551847
0.551861
0.551875
0.551888
0.551902
0.551902
0.551916
0.55193
0.551944
0.551958
0.551958
0.551972
0.551986
0.552
0.552014
0.552014
0.552028
0.552043
0.552057
0.552071
0.552071
0.552085
0.552099
0.552113
0.552127
0.552127
0.552141
0.552155
0.552169
0.552184
0.552184
0.552198
0.552212
0.552226
0.55224
0.55224
0.552254
0.552269
0.552283
0.552297
0.552297
0.552311
0.552325
0.55234
0.552354
0.552354
0.552368
0.552382
0.552397
0.552411
0.552411
0.552425
0.55244
0.552454
0.552468
0.552468
0.552483
0.552497
0.552511
0.552526
0.552526
0.55254
0.552554
0.552569
0.552583
0.552583
0.552598
0.552612
0.552627
0.552641
0.552641
0.552655
0.55267
0.552684
0.552699
0.552699
0.552713
0.552728
0.552742
0.552757
0.552757
0.552771
0.552786
0.5528
0.552815
0.552815
0.552829
0.552844
0.552859
0.552873
0.552873
0.552888
0.552902
0.552917
0.552932
0.552932
0.552946
0.552961
0.552976
0.55299
0.55299
0.553005
0.55302
0.553034
0.553049
0.553049
0.553064
0.553078
0.553093
0.553108
0.553108
0.553123
0.553137
0.553152
0.553167
0.553167
0.553182
0.553196
0.553211
0.553226
0.553226
0.553241
0.553256
0.55327
0.553285
0.553285
0.5533
0.553315
0.55333
0.553345
0.553345
0.55336
0.553374
0.553389
0.553404
0.553404
0.553419
0.553434
0.553449
0.553464
0.553464
0.553479
0.553494
0.553509
0.553524
0.553524
0.553539
0.553554
0.553569
0.553584
0.553584
0.553599
0.553614
0.553629
0.553644
0.553644
0.553659
0.553674
0.553689
0.553704
0.553704
0.553719
0.553735
0.55375
0.553765
0.553765
0.55378
0.553795
0.55381
0.553825
0.553825
0.553841
0.553856
0.553871
0.553886
0.553886
0.553901
0.553917
0.553932
0.553947
0.553947
0.553962
0.553977
0.553993
0.554008
0.554008
0.554023
0.554039
0.554054
0.554069
0.554069
0.554084
0.5541
0.554115
0.55413
0.55413
0.554146
0.554161
0.554177
0.554192
0.554192
0.554207
0.554223
0.554238
0.554254
0.554254
0.554269
0.554284
0.5543
0.554315
0.554315
0.554331
0.554346
0.554362
0.554377
0.554377
0.554393
0.554408
0.554424
0.554439
0.554439
0.554455
0.55447
0.554486
0.554501
0.554501
0.554517
0.554532
0.554548
0.554564
0.554564
0.554579
0.554595
0.55461
0.554626
0.554626
0.554642
0.554657
0.554673
0.554689
0.554689
0.554704
0.55472
0.554736
0.554751
0.554751
0.554767
0.554783
0.554798
0.554814
0.554814
0.55483
0.554846
0.554861
0.554877
0.554877
0.554893
0.554909
0.554924
0.55494
0.55494
0.554956
0.554972
0.554988
0.555003
0.555003
0.555019
0.555035
0.555051
0.555067
0.555067
0.555083
0.555099
0.555114
0.55513
0.55513
0.555146
0.555162
0.555178
0.555194
0.555194
0.55521
0.555226
0.555242
0.555258
0.555258
0.555274
0.55529
0.555306
0.555322
0.555322
0.555338
0.555354
0.55537
0.555386
0.555386
0.555402
0.555418
0.555434
0.55545
0.55545
0.555466
0.555482
0.555498
0.555514
0.555514
0.555531
0.555547
0.555563
0.555579
0.555579
0.555595
0.555611
0.555627
0.555644
0.555644
0.55566
0.555676
0.555692
0.555708
0.555708
0.555725
0.555741
0.555757
0.555773
0.555773
0.555789
0.555806
0.555822
0.555838
0.555838
0.555855
0.555871
0.555887
0.555903
0.555903
0.55592
0.555936
0.555952
0.555969
0.555969
0.555985
0.556001
0.556018
0.556034
0.556034
0.556051
0.556067
0.556083
0.5561
0.5561
0.556116
0.556133
0.556149
0.556165
0.556165
0.556182
0.556198
0.556215
0.556231
0.556231
0.556248
0.556264
0.556281
0.556297
0.556297
0.556314
0.55633
0.556347
0.556363
0.556363
0.55638
0.556396
0.556413
0.55643
0.55643
0.556446
0.556463
0.556479
0.556496
0.556496
0.556513
0.556529
0.556546
0.556562
0.556562
0.556579
0.556596
0.556612
0.556629
0.556629
0.556646
0.556662
0.556679
0.556696
0.556696
0.556713
0.556729
0.556746
0.556763
0.556763
0.556779
0.556796
0.556813
0.55683
0.55683
0.556847
0.556863
0.55688
0.556897
0.556897
0.556914
0.556931
0.556947
0.556964
0.556964
0.556981
0.556998
0.557015
0.557032
0.557032
0.557048
0.557065
0.557082
0.557099
0.557099
0.557116
0.557133
0.55715
0.557167
0.557167
0.557184
0.557201
0.557218
0.557235
0.557235
0.557252
0.557269
0.557286
0.557303
0.557303
0.55732
0.557337
0.557354
0.557371
0.557371
0.557388
0.557405
0.557422
0.557439
0.557439
0.557456
0.557473
0.55749
0.557507
0.557507
0.557524
0.557541
0.557558
0.557576
0.557576
0.557593
0.55761
0.557627
0.557644
0.557644
0.557661
0.557679
0.557696
0.557713
0.557713
0.55773
0.557747
0.557765
0.557782
0.557782
0.557799
0.557816
0.557833
0.557851
0.557851
0.557868
0.557885
0.557903
0.55792
0.55792
0.557937
0.557954
0.557972
0.557989
0.557989
0.558006
0.558024
0.558041
0.558058
0.558058
0.558076
0.558093
0.55811
0.558128
0.558128
0.558145
0.558163
0.55818
0.558197
0.558197
0.558215
0.558232
0.55825
0.558267
0.558267
0.558285
0.558302
0.55832
0.558337
0.558337
0.558354
0.558372
0.558389
0.558407
0.558407
0.558424
0.558442
0.55846
0.558477
0.558477
0.558495
0.558512
0.55853
0.558547
0.558547
0.558565
0.558582
0.5586
0.558618
0.558618
0.558635
0.558653
0.55867
0.558688
0.558688
0.558706
0.558723
0.558741
0.558759
0.558759
0.558776
0.558794
0.558812
0.558829
0.558829
0.558847
0.558865
0.558882
0.5589
0.5589
0.558918
0.558936
0.558953
0.558971
0.558971
0.558989
0.559007
0.559024
0.559042
0.559042
0.55906
0.559078
0.559096
0.559113
0.559113
0.559131
0.559149
0.559167
0.559185
0.559185
0.559203
0.55922
0.559238
0.559256
0.559256
0.559274
0.559292
0.55931
0.559328
0.559328
0.559346
0.559364
0.559382
0.559399
0.559399
0.559417
0.559435
0.559453
0.559471
0.559471
0.559489
0.559507
0.559525
0.559543
0.559543
0.559561
0.559579
0.559597
0.559615
0.559615
0.559633
0.559651
0.559669
0.559687
0.559687
0.559706
0.559724
0.559742
0.55976
0.55976
0.559778
0.559796
0.559814
0.559832
0.559832
0.55985
0.559868
0.559887
0.559905
0.559905
0.559923
0.559941
0.559959
0.559977
0.559977
0.559995
0.560014
0.560032
0.56005
0.56005
0.560068
0.560087
0.560105
0.560123
0.560123
0.560141
0.560159
0.560178
0.560196
0.560196
0.560214
0.560233
0.560251
0.560269
0.560269
0.560287
0.560306
0.560324
0.560342
0.560342
0.560361
0.560379
0.560397
0.560416
0.560416
0.560434
0.560452
0.560471
0.560489
0.560489
0.560508
0.560526
0.560544
0.560563
0.560563
0.560581
0.5606
0.560618
0.560637
0.560637
0.560655
0.560674
0.560692
0.560711
0.560711
0.560729
0.560748
0.560766
0.560785
0.560785
0.560803
0.560822
0.56084
0.560859
0.560859
0.560877
0.560896
0.560914
0.560933
0.560933
0.560952
0.56097
0.560989
0.561007
0.561007
0.561026
0.561045
0.561063
0.561082
0.561082
0.561101
0.561119
0.561138
0.561157
0.561157
0.561175
0.561194
0.561213
0.561232
0.561232
0.56125
0.561269
0.561288
0.561307
0.561307
0.561325
0.561344
0.561363
0.561382
0.561382
0.561401
0.561419
0.561438
0.561457
0.561457
0.561476
0.561495
0.561514
0.561532
0.561532
0.561551
0.56157
0.561589
0.561608
0.561608
0.561627
0.561646
0.561665
0.561684
0.561684
0.561703
0.561722
0.561741
0.56176
0.56176
0.561779
0.561798
0.561817
0.561836
0.561836
0.561855
0.561874
0.561893
0.561912
0.561912
0.561931
0.56195
0.561969
0.561988
0.561988
0.562008
0.562027
0.562046
0.562065
0.562065
0.562084
0.562103
0.562122
0.562142
0.562142
0.562161
0.56218
0.562199
0.562218
0.562218
0.562238
0.562257
0.562276
0.562296
0.562296
0.562315
0.562334
0.562353
0.562373
0.562373
0.562392
0.562411
0.562431
0.56245
0.56245
0.562469
0.562489
0.562508
0.562528
0.562528
0.562547
0.562566
0.562586
0.562605
0.562605
0.562625
0.562644
0.562664
0.562683
0.562683
0.562703
0.562722
0.562742
0.562761
0.562761
0.562781
0.5628
0.56282
0.562839
0.562839
0.562859
0.562879
0.562898
0.562918
0.562918
0.562937
0.562957
0.562977
0.562996
0.562996
0.563016
0.563036
0.563056
0.563075
0.563075
0.563095
0.563115
0.563134
0.563154
0.563154
0.563174
0.563194
0.563214
0.563233
0.563233
0.563253
0.563273
0.563293
0.563313
0.563313
0.563333
0.563352
0.563372
0.563392
0.563392
0.563412
0.563432
0.563452
0.563472
0.563472
0.563492
0.563512
0.563532
0.563552
0.563552
0.563572
0.563592
0.563612
0.563632
0.563632
0.563652
0.563672
0.563692
0.563712
0.563712
0.563732
0.563752
0.563773
0.563793
0.563793
0.563813
0.563833
0.563853
0.563873
0.563873
0.563894
0.563914
0.563934
0.563954
0.563954
0.563974
0.563995
0.564015
0.564035
0.564035
0.564056
0.564076
0.564096
0.564117
0.564117
0.564137
0.564157
0.564178
0.564198
0.564198
0.564219
0.564239
0.564259
0.56428
0.56428
0.5643
0.564321
0.564341
0.564362
0.564362
0.564382
0.564403
0.564423
0.564444
0.564444
0.564464
0.564485
0.564506
0.564526
0.564526
0.564547
0.564567
0.564588
0.564609
0.564609
0.564629
0.56465
0.564671
0.564692
0.564692
0.564712
0.564733
0.564754
0.564775
0.564775
0.564795
0.564816
0.564837
0.564858
0.564858
0.564879
0.564899
0.56492
0.564941
0.564941
0.564962
0.564983
0.565004
0.565025
0.565025
0.565046
0.565067
0.565088
0.565109
0.565109
0.56513
0.565151
0.565172
0.565193
0.565193
0.565214
0.565235
0.565256
0.565277
0.565277
0.565298
0.56532
0.565341
0.565362
0.565362
0.565383
0.565404
0.565425
0.565447
0.565447
0.565468
0.565489
0.56551
0.565532
0.565532
0.565553
0.565574
0.565596
0.565617
0.565617
0.565638
0.56566
0.565681
0.565703
0.565703
0.565724
0.565745
0.565767
0.565788
0.565788
0.56581
0.565831
0.565853
0.565874
0.565874
0.565896
0.565917
0.565939
0.565961
0.565961
0.565982
0.566004
0.566025
0.566047
0.566047
0.566069
0.56609
0.566112
0.566134
0.566134
0.566156
0.566177
0.566199
0.566221
0.566221
0.566243
0.566264
0.566286
0.566308
0.566308
0.56633
0.566352
0.566374
0.566396
0.566396
0.566417
0.566439
0.566461
0.566483
0.566483
0.566505
0.566527
0.566549
0.566571
0.566571
0.566593
0.566615
0.566638
0.56666
0.56666
0.566682
0.566704
0.566726
0.566748
0.566748
0.56677
0.566793
0.566815
0.566837
0.566837
0.566859
0.566881
0.566904
0.566926
0.566926
0.566948
0.566971
0.566993
0.567015
0.567015
0.567038
0.56706
0.567083
0.567105
0.567105
0.567127
0.56715
0.567172
0.567195
0.567195
0.567217
0.56724
0.567262
0.567285
0.567285
0.567308
0.56733
0.567353
0.567375
0.567375
0.567398
0.567421
0.567443
0.567466
0.567466
0.567489
0.567512
0.567534
0.567557
0.567557
0.56758
0.567603
0.567626
0.567648
0.567648
0.567671
0.567694
0.567717
0.56774
0.56774
0.567763
0.567786
0.567809
0.567832
0.567832
0.567855
0.567878
0.567901
0.567924
0.567924
0.567947
0.56797
0.567993
0.568016
0.568016
0.56804
0.568063
0.568086
0.568109
0.568109
0.568132
0.568156
0.568179
0.568202
0.568202
0.568225
0.568249
0.568272
0.568295
0.568295
0.568319
0.568342
0.568366
0.568389
0.568389
0.568412
0.568436
0.568459
0.568483
0.568483
0.568506
0.56853
0.568553
0.568577
0.568577
0.568601
0.568624
0.568648
0.568672
0.568672
0.568695
0.568719
0.568743
0.568766
0.568766
0.56879
0.568814
0.568838
0.568861
0.568861
0.568885
0.568909
0.568933
0.568957
0.568957
0.568981
0.569005
0.569029
0.569053
0.569053
0.569077
0.569101
0.569125
0.569149
0.569149
0.569173
0.569197
0.569221
0.569245
0.569245
0.569269
0.569293
0.569317
0.569342
0.569342
0.569366
0.56939
0.569414
0.569439
0.569439
0.569463
0.569487
0.569512
0.569536
0.569536
0.56956
0.569585
0.569609
0.569634
0.569634
0.569658
0.569682
0.569707
0.569731
0.569731
0.569756
0.569781
0.569805
0.56983
0.56983
0.569854
0.569879
0.569904
0.569928
0.569928
0.569953
0.569978
0.570003
0.570027
0.570027
0.570052
0.570077
0.570102
0.570127
0.570127
0.570151
0.570176
0.570201
0.570226
0.570226
0.570251
0.570276
0.570301
0.570326
0.570326
0.570351
0.570376
0.570401
0.570426
0.570426
0.570452
0.570477
0.570502
0.570527
0.570527
0.570552
0.570578
0.570603
0.570628
0.570628
0.570653
0.570679
0.570704
0.570729
0.570729
0.570755
0.57078
0.570806
0.570831
0.570831
0.570857
0.570882
0.570908
0.570933
0.570933
0.570959
0.570984
0.57101
0.571035
0.571035
0.571061
0.571087
0.571112
0.571138
0.571138
0.571164
0.57119
0.571215
0.571241
0.571241
0.571267
0.571293
0.571319
0.571345
0.571345
0.571371
0.571397
0.571423
0.571449
0.571449
0.571475
0.571501
0.571527
0.571553
0.571553
0.571579
0.571605
0.571631
0.571657
0.571657
0.571683
0.57171
0.571736
0.571762
0.571762
0.571788
0.571815
0.571841
0.571867
0.571867
0.571894
0.57192
0.571947
0.571973
0.571973
0.572
0.572026
0.572053
0.572079
0.572079
0.572106
0.572132
0.572159
0.572185
0.572185
0.572212
0.572239
0.572266
0.572292
0.572292
0.572319
0.572346
0.572373
0.572399
0.572399
0.572426
0.572453
0.57248
0.572507
0.572507
0.572534
0.572561
0.572588
0.572615
0.572615
0.572642
0.572669
0.572696
0.572723
0.572723
0.57275
0.572777
0.572805
0.572832
0.572832
0.572859
0.572886
0.572914
0.572941
0.572941
0.572968
0.572996
0.573023
0.57305
0.57305
0.573078
0.573105
0.573133
0.57316
0.57316
0.573188
0.573215
0.573243
0.573271
0.573271
0.573298
0.573326
0.573354
0.573381
0.573381
0.573409
0.573437
0.573464
0.573492
0.573492
0.57352
0.573548
0.573576
0.573604
0.573604
0.573632
0.57366
0.573688
0.573716
0.573716
0.573744
0.573772
0.5738
0.573828
0.573828
0.573856
0.573884
0.573912
0.573941
0.573941
0.573969
0.573997
0.574025
0.574054
0.574054
0.574082
0.57411
0.574139
0.574167
0.574167
0.574196
0.574224
0.574253
0.574281
0.574281
0.57431
0.574338
0.574367
0.574396
0.574396
0.574424
0.574453
0.574482
0.57451
0.57451
0.574539
0.574568
0.574597
0.574626
0.574626
0.574654
0.574683
0.574712
0.574741
0.574741
0.57477
0.574799
0.574828
0.574857
0.574857
0.574886
0.574915
0.574945
0.574974
0.574974
0.575003
0.575032
0.575061
0.575091
0.575091
0.57512
0.575149
0.575179
0.575208
0.575208
0.575237
0.575267
0.575296
0.575326
0.575326
0.575355
0.575385
0.575414
0.575444
0.575444
0.575474
0.575503
0.575533
0.575563
0.575563
0.575592
0.575622
0.575652
0.575682
0.575682
0.575712
0.575742
0.575772
0.575801
0.575801
0.575831
0.575861
0.575891
0.575921
0.575921
0.575952
0.575982
0.576012
0.576042
0.576042
0.576072
0.576102
0.576133
0.576163
0.576163
0.576193
0.576223
0.576254
0.576284
0.576284
0.576315
0.576345
0.576376
0.576406
0.576406
0.576437
0.576467
0.576498
0.576528
0.576528
0.576559
0.57659
0.57662
0.576651
0.576651
0.576682
0.576713
0.576743
0.576774
0.576774
0.576805
0.576836
0.576867
0.576898
0.576898
0.576929
0.57696
0.576991
0.577022
0.577022
0.577053
0.577084
0.577116
0.577147
0.577147
0.577178
0.577209
0.57724
0.577272
0.577272
0.577303
0.577335
0.577366
0.577397
0.577397
0.577429
0.57746
0.577492
0.577523
0.577523
0.577555
0.577587
0.577618
0.57765
0.57765
0.577682
0.577713
0.577745
0.577777
0.577777
0.577809
0.577841
0.577872
0.577904
0.577904
0.577936
0.577968
0.578
0.578032
0.578032
0.578064
0.578097
0.578129
0.578161
0.578161
0.578193
0.578225
0.578257
0.57829
0.57829
0.578322
0.578354
0.578387
0.578419
0.578419
0.578452
0.578484
0.578517
0.578549
0.578549
0.578582
0.578614
0.578647
0.57868
0.57868
0.578712
0.578745
0.578778
0.57881
0.57881
0.578843
0.578876
0.578909
0.578942
0.578942
0.578975
0.579008
0.579041
0.579074
0.579074
0.579107
0.57914
0.579173
0.579206
0.579206
0.579239
0.579273
0.579306
0.579339
0.579339
0.579372
0.579406
0.579439
0.579473
0.579473
0.579506
0.57954
0.579573
0.579607
0.579607
0.57964
0.579674
0.579707
0.579741
0.579741
0.579775
0.579808
0.579842
0.579876
0.579876
0.57991
0.579944
0.579978
0.580012
0.580012
0.580045
0.580079
0.580114
0.580148
0.580148
0.580182
0.580216
0.58025
0.580284
0.580284
0.580318
0.580353
0.580387
0.580421
0.580421
0.580456
0.58049
0.580524
0.580559
0.580559
0.580593
0.580628
0.580662
0.580697
0.580697
0.580732
0.580766
0.580801
0.580836
0.580836
0.58087
0.580905
0.58094
0.580975
0.580975
0.58101
0.581045
0.58108
0.581115
0.581115
0.58115
0.581185
0.58122
0.581255
0.581255
0.58129
0.581325
0.58136
0.581396
0.581396
0.581431
0.581466
0.581502
0.581537
0.581537
0.581572
0.581608
0.581643
0.581679
0.581679
0.581714
0.58175
0.581786
0.581821
0.581821