<?xml version="1.0"?>
<VTKFile type="UnstructuredGrid" version="0.1" byte_order="LittleEndian">
<UnstructuredGrid>
<Piece NumberOfPoints="5000" NumberOfCells="4000">
<PointData Scalars="Reaction 0">
<DataArray type="Float32" Name="Reaction 0" format="ascii">
0.570657
0.570657
0.570657
0.570657
0.570657
0.570657
0.570657
0.570657
0.570657
0.570657
0.570657
0.570657
0.570657
0.570658
0.570658
0.570658
0.570658
0.570658
0.570658
0.570659
0.570659
0.570659
0.570659
0.570659
0.57066
0.57066
0.57066
0.57066
0.570661
0.570661
0.570661
0.570662
0.570662
0.570662
0.570663
0.570663
0.570663
0.570664
0.570664
0.570665
0.570665
0.570665
0.570666
0.570666
0.570667
0.570667
0.570667
0.570668
0.570669
0.570669
0.570669
0.57067
0.57067
0.570671
0.570672
0.570672
0.570672
0.570673
0.570674
0.570675
0.570675
0.570675
0.570676
0.570677
0.570678
0.570678
0.570679
0.570679
0.57068
0.570681
0.570681
0.570682
0.570683
0.570684
0.570685
0.570685
0.570686
0.570687
0.570688
0.570689
0.570689
0.57069
0.570691
0.570692
0.570693
0.570693
0.570694
0.570695
0.570696
0.570697
0.570697
0.570698
0.570699
0.570701
0.570702
0.570702
0.570703
0.570704
0.570705
0.570707
0.570707
0.570708
0.570709
0.57071
0.570712
0.570712
0.570713
0.570714
0.570716
0.570717
0.570717
0.570718
0.57072
0.570721
0.570723
0.570723
0.570724
0.570726
0.570727
0.570729
0.570729
0.57073
0.570732
0.570733
0.570735
0.570735
0.570736
0.570738
0.570739
0.570741
0.570741
0.570743
0.570744
0.570746
0.570748
0.570748
0.570749
0.570751
0.570753
0.570755
0.570755
0.570756
0.570758
0.57076
0.570762
0.570762
0.570764
0.570765
0.570767
0.570769
0.570769
0.570771
0.570773
0.570775
0.570777
0.570777
0.570779
0.570781
0.570783
0.570785
0.570785
0.570787
0.570789
0.570791
0.570793
0.570793
0.570795
0.570797
0.570799
0.570801
0.570801
0.570803
0.570805
0.570808
0.57081
0.57081
0.570812
0.570814
0.570816
0.570819
0.570819
0.570821
0.570823
0.570825
0.570828
0.570828
0.57083
0.570832
0.570835
0.570837
0.570837
0.57084
0.570842
0.570844
0.570847
0.570847
0.570849
0.570852
0.570854
0.570857
0.570857
0.570859
0.570862
0.570864
0.570867
0.570867
0.570869
0.570872
0.570875
0.570877
0.570877
0.57088
0.570883
0.570885
0.570888
0.570888
0.570891
0.570893
0.570896
0.570899
0.570899
0.570902
0.570904
0.570907
0.57091
0.57091
0.570913
0.570916
0.570919
0.570921
0.570921
0.570924
0.570927
0.57093
0.570933
0.570933
0.570936
0.570939
0.570942
0.570945
0.570945
0.570948
0.570951
0.570954
0.570957
0.570957
0.57096
0.570963
0.570967
0.57097
0.57097
0.570973
0.570976
0.570979
0.570982
0.570982
0.570986
0.570989
0.570992
0.570995
0.570995
0.570999
0.571002
0.571005
0.571009
0.571009
0.571012
0.571015
0.571019
0.571022
0.571022
0.571025
0.571029
0.571032
0.571036
0.571036
0.571039
0.571043
0.571046
0.57105
0.57105
0.571053
0.571057
0.57106
0.571064
0.571064
0.571068
0.571071
0.571075
0.571078
0.571078
0.571082
0.571086
0.57109
0.571093
0.571093
0.571097
0.571101
0.571104
0.571108
0.571108
0.571112
0.571116
0.57112
0.571124
0.571124
0.571127
0.571131
0.571135
0.571139
0.571139
0.571143
0.571147
0.571151
0.571155
0.571155
0.571159
0.571163
0.571167
0.571171
0.571171
0.571175
0.571179
0.571183
0.571187
0.571187
0.571191
0.571195
0.5712
0.571204
0.571204
0.571208
0.571212
0.571216
0.571221
0.571221
0.571225
0.571229
0.571233
0.571238
0.571238
0.571242
0.571246
0.571251
0.571255
0.571255
0.571259
0.571264
0.571268
0.571273
0.571273
0.571277
0.571281
0.571286
0.57129
0.57129
0.571295
0.571299
0.571304
0.571308
0.571308
0.571313
0.571318
0.571322
0.571327
0.571327
0.571332
0.571336
0.571341
0.571346
0.571346
0.57135
0.571355
0.57136
0.571364
0.571364
0.571369
0.571374
0.571379
0.571384
0.571384
0.571388
0.571393
0.571398
0.571403
0.571403
0.571408
0.571413
0.571418
0.571423
0.571423
0.571428
0.571433
0.571438
0.571443
0.571443
0.571448
0.571453
0.571458
0.571463
0.571463
0.571468
0.571473
0.571478
0.571483
0.571483
0.571488
0.571494
0.571499
0.571504
0.571504
0.571509
0.571515
0.57152
0.571525
0.571525
0.57153
0.571536
0.571541
0.571546
0.571546
0.571552
0.571557
0.571562
0.571568
0.571568
0.571573
0.571579
0.571584
0.57159
0.57159
0.571595
0.571601
0.571606
0.571612
0.571612
0.571617
0.571623
0.571628
0.571634
0.571634
0.57164
0.571645
0.571651
0.571657
0.571657
0.571662
0.571668
0.571674
0.57168
0.57168
0.571685
0.571691
0.571697
0.571703
0.571703
0.571709
0.571714
0.57172
0.571726
0.571726
0.571732
0.571738
0.571744
0.57175
0.57175
0.571756
0.571762
0.571768
0.571774
0.571774
0.57178
0.571786
0.571792
0.571798
0.571798
0.571804
0.57181
0.571816
0.571822
0.571822
0.571829
0.571835
0.571841
0.571847
0.571847
0.571853
0.57186
0.571866
0.571872
0.571872
0.571879
0.571885
0.571891
0.571898
0.571898
0.571904
0.57191
0.571917
0.571923
0.571923
0.57193
0.571936
0.571942
0.571949
0.571949
0.571955
0.571962
0.571968
0.571975
0.571975
0.571982
0.571988
0.571995
0.572001
0.572001
0.572008
0.572015
0.572021
0.572028
0.572028
0.572035
0.572041
0.572048
0.572055
0.572055
0.572062
0.572069
0.572075
0.572082
0.572082
0.572089
0.572096
0.572103
0.57211
0.57211
0.572117
0.572124
0.57213
0.572137
0.572137
0.572144
0.572151
0.572158
0.572165
0.572165
0.572173
0.57218
0.572187
0.572194
0.572194
0.572201
0.572208
0.572215
0.572222
0.572222
0.57223
0.572237
0.572244
0.572251
0.572251
0.572258
0.572266
0.572273
0.57228
0.57228
0.572288
0.572295
0.572302
0.57231
0.57231
0.572317
0.572325
0.572332
0.572339
0.572339
0.572347
0.572354
0.572362
0.572369
0.572369
0.572377
0.572385
0.572392
0.5724
0.5724
0.572407
0.572415
0.572423
0.57243
0.57243
0.572438
0.572446
0.572453
0.572461
0.572461
0.572469
0.572477
0.572484
0.572492
0.572492
0.5725
0.572508
0.572516
0.572523
0.572523
0.572531
0.572539
0.572547
0.572555
0.572555
0.572563
0.572571
0.572579
0.572587
0.572587
0.572595
0.572603
0.572611
0.572619
0.572619
0.572627
0.572636
0.572644
0.572652
0.572652
0.57266
0.572668
0.572676
0.572685
0.572685
0.572693
0.572701
0.572709
0.572718
0.572718
0.572726
0.572734
0.572743
0.572751
0.572751
0.572759
0.572768
0.572776
0.572785
0.572785
0.572793
0.572802
0.57281
0.572819
0.572819
0.572827
0.572836
0.572844
0.572853
0.572853
0.572861
0.57287
0.572879
0.572887
0.572887
0.572896
0.572905
0.572913
0.572922
0.572922
0.572931
0.57294
0.572948
0.572957
0.572957
0.572966
0.572975
0.572984
0.572993
0.572993
0.573001
0.57301
0.573019
0.573028
0.573028
0.573037
0.573046
0.573055
0.573064
0.573064
0.573073
0.573082
0.573091
0.5731
0.5731
0.57311
0.573119
0.573128
0.573137
0.573137
0.573146
0.573155
0.573165
0.573174
0.573174
0.573183
0.573192
0.573202
0.573211
0.573211
0.57322
0.57323
0.573239
0.573248
0.573248
0.573258
0.573267
0.573277
0.573286
0.573286
0.573295
0.573305
0.573314
0.573324
0.573324
0.573334
0.573343
0.573353
0.573362
0.573362
0.573372
0.573382
0.573391
0.573401
0.573401
0.573411
0.57342
0.57343
0.57344
0.57344
0.57345
0.573459
0.573469
0.573479
0.573479
0.573489
0.573499
0.573509
0.573518
0.573518
0.573528
0.573538
0.573548
0.573558
0.573558
0.573568
0.573578
0.573588
0.573598
0.573598
0.573608
0.573618
0.573629
0.573639
0.573639
0.573649
0.573659
0.573669
0.573679
0.573679
0.57369
0.5737
0.57371
0.57372
0.57372
0.573731
0.573741
0.573751
0.573762
0.573762
0.573772
0.573782
0.573793
0.573803
0.573803
0.573814
0.573824
0.573835
0.573845
0.573845
0.573856
0.573866
0.573877
0.573887
0.573887
0.573898
0.573908
0.573919
0.57393
0.57393
0.57394
0.573951
0.573962
0.573973
0.573973
0.573983
0.573994
0.574005
0.574016
0.574016
0.574026
0.574037
0.574048
0.574059
0.574059
0.57407
0.574081
0.574092
0.574103
0.574103
0.574114
0.574125
0.574136
0.574147
0.574147
0.574158
0.574169
0.57418
0.574191
0.574191
0.574202
0.574213
0.574225
0.574236
0.574236
0.574247
0.574258
0.574269
0.574281
0.574281
0.574292
0.574303
0.574315
0.574326
0.574326
0.574337
0.574349
0.57436
0.574371
0.574371
0.574383
0.574394
0.574406
0.574417
0.574417
0.574429
0.57444
0.574452
0.574464
0.574464
0.574475
0.574487
0.574498
0.57451
0.57451
0.574522
0.574533
0.574545
0.574557
0.574557
0.574569
0.57458
0.574592
0.574604
0.574604
0.574616
0.574628
0.57464
0.574651
0.574651
0.574663
0.574675
0.574687
0.574699
0.574699
0.574711
0.574723
0.574735
0.574747
0.574747
0.574759
0.574771
0.574784
0.574796
0.574796
0.574808
0.57482
0.574832
0.574844
0.574844
0.574857
0.574869
0.574881
0.574893
0.574893
0.574906
0.574918
0.57493
0.574943
0.574943
0.574955
0.574968
0.57498
0.574992
0.574992
0.575005
0.575017
0.57503
0.575042
0.575042
0.575055
0.575068
0.57508
0.575093
0.575093
0.575105
0.575118
0.575131
0.575143
0.575143
0.575156
0.575169
0.575182
0.575194
0.575194
0.575207
0.57522
0.575233
0.575246
0.575246
0.575258
0.575271
0.575284
0.575297
0.575297
0.57531
0.575323
0.575336
0.575349
0.575349
0.575362
0.575375
0.575388
0.575401
0.575401
0.575414
0.575428
0.575441
0.575454
0.575454
0.575467
0.57548
0.575494
0.575507
0.575507
0.57552
0.575533
0.575547
0.57556
0.57556
0.575573
0.575587
0.5756
0.575614
0.575614
0.575627
0.575641
0.575654
0.575667
0.575667
0.575681
0.575695
0.575708
0.575722
0.575722
0.575735
0.575749
0.575763
0.575776
0.575776
0.57579
0.575804
0.575817
0.575831
0.575831
0.575845
0.575859
0.575873
0.575886
0.575886
0.5759
0.575914
0.575928
0.575942
0.575942
0.575956
0.57597
0.575984
0.575998
0.575998
0.576012
0.576026
0.57604
0.576054
0.576054
0.576068
0.576082
0.576096
0.576111
0.576111
0.576125
0.576139
0.576153
0.576167
0.576167
0.576182
0.576196
0.57621
0.576225
0.576225
0.576239
0.576253
0.576268
0.576282
0.576282
0.576297
0.576311
0.576326
0.57634
0.57634
0.576355
0.576369
0.576384
0.576398
0.576398
0.576413
0.576428
0.576442
0.576457
0.576457
0.576472
0.576486
0.576501
0.576516
0.576516
0.576531
0.576545
0.57656
0.576575
0.576575
0.57659
0.576605
0.57662
0.576635
0.576635
0.57665
0.576665
0.57668
0.576695
0.576695
0.57671
0.576725
0.57674
0.576755
0.576755
0.57677
0.576785
0.5768
0.576816
0.576816
0.576831
0.576846
0.576861
0.576877
0.576877
0.576892
0.576907
0.576923
0.576938
0.576938
0.576953
0.576969
0.576984
0.577
0.577
0.577015
0.577031
0.577046
0.577062
0.577062
0.577077
0.577093
0.577108
0.577124
0.577124
0.57714
0.577155
0.577171
0.577187
0.577187
0.577203
0.577218
0.577234
0.57725
0.57725
0.577266
0.577282
0.577297
0.577313
0.577313
0.577329
0.577345
0.577361
0.577377
0.577377
0.577393
0.577409
0.577425
0.577441
0.577441
0.577457
0.577473
0.57749
0.577506
0.577506
0.577522
0.577538
0.577554
0.577571
0.577571
0.577587
0.577603
0.577619
0.577636
0.577636
0.577652
0.577668
0.577685
0.577701
0.577701
0.577718
0.577734
0.577751
0.577767
0.577767
0.577784
0.5778
0.577817
0.577834
0.577834
0.57785
0.577867
0.577883
0.5779
0.5779
0.577917
0.577934
0.57795
0.577967
0.577967
0.577984
0.578001
0.578018
0.578034
0.578034
0.578051
0.578068
0.578085
0.578102
0.578102
0.578119
0.578136
0.578153
0.57817
0.57817
0.578187
0.578204
0.578222
0.578239
0.578239
0.578256
0.578273
0.57829
0.578308
0.578308
0.578325
0.578342
0.578359
0.578377
0.578377
0.578394
0.578411
0.578429
0.578446
0.578446
0.578464
0.578481
0.578499
0.578516
0.578516
0.578534
0.578551
0.578569
0.578586
0.578586
0.578604
0.578622
0.578639
0.578657
0.578657
0.578675
0.578692
0.57871
0.578728
0.578728
0.578746
0.578764
0.578781
0.578799
0.578799
0.578817
0.578835
0.578853
0.578871
0.578871
0.578889
0.578907
0.578925
0.578943
0.578943
0.578961
0.578979
0.578998
0.579016
0.579016
0.579034
0.579052
0.57907
0.579089
0.579089
0.579107
0.579125
0.579143
0.579162
0.579162
0.57918
0.579199
0.579217
0.579235
0.579235
0.579254
0.579272
0.579291
0.579309
0.579309
0.579328
0.579347
0.579365
0.579384
0.579384
0.579402
0.579421
0.57944
0.579458
0.579458
0.579477
0.579496
0.579515
0.579534
0.579534
0.579552
0.579571
0.57959
0.579609
0.579609
0.579628
0.579647
0.579666
0.579685
0.579685
0.579704
0.579723
0.579742
0.579761
0.579761
0.57978
0.579799
0.579819
0.579838
0.579838
0.579857
0.579876
0.579896
0.579915
0.579915
0.579934
0.579954
0.579973
0.579992
0.579992
0.580012
0.580031
0.580051
0.58007
0.58007
0.58009
0.580109
0.580129
0.580148
0.580148
0.580168
0.580187
0.580207
0.580227
0.580227
0.580246
0.580266
0.580286
0.580306
0.580306
0.580326
0.580345
0.580365
0.580385
0.580385
0.580405
0.580425
0.580445
0.580465
0.580465
0.580485
0.580505
0.580525
0.580545
0.580545
0.580565
0.580585
0.580605
0.580625
0.580625
0.580646
0.580666
0.580686
0.580706
0.580706
0.580727
0.580747
0.580767
0.580788
0.580788
0.580808
0.580828
0.580849
0.580869
0.580869
0.58089
0.58091
0.580931
0.580951
0.580951
0.580972
0.580992
0.581013
0.581034
0.581034
0.581054
0.581075
0.581096
0.581117
0.581117
0.581137
0.581158
0.581179
0.5812
0.5812
0.581221
0.581242
0.581263
0.581283
0.581283
0.581304
0.581325
0.581346
0.581368
0.581368
0.581389
0.58141
0.581431
0.581452
0.581452
0.581473
0.581494
0.581516
0.581537
0.581537
0.581558
0.581579
0.581601
0.581622
0.581622
0.581643
0.581665
0.581686
0.581708
0.581708
0.581729
0.581751
0.581772
0.581794
0.581794
0.581815
0.581837
0.581859
0.58188
0.58188
0.581902
0.581924
0.581945
0.581967
0.581967
0.581989
0.582011
0.582032
0.582054
0.582054
0.582076
0.582098
0.58212
0.582142
0.582142
0.582164
0.582186
0.582208
0.58223
0.58223
0.582252
0.582274
0.582296
0.582318
0.582318
0.582341
0.582363
0.582385
0.582407
0.582407
0.58243
0.582452
0.582474
0.582497
0.582497
0.582519
0.582541
0.582564
0.582586
0.582586
0.582609
0.582631
0.582654
0.582676
0.582676
0.582699
0.582722
0.582744
0.582767
0.582767
0.58279
0.582812
0.582835
0.582858
0.582858
0.582881
0.582903
0.582926
0.582949
0.582949
0.582972
0.582995
0.583018
0.583041
0.583041
0.583064
0.583087
0.58311
0.583133
0.583133
0.583156
0.583179
0.583202
0.583226
0.583226
0.583249
0.583272
0.583295
0.583319
0.583319
0.583342
0.583365
0.583389
0.583412
0.583412
0.583435
0.583459
0.583482
0.583506
0.583506
0.583529
0.583553
0.583577
0.5836
0.5836
0.583624
0.583647
0.583671
0.583695
0.583695
0.583719
0.583742
0.583766
0.58379
0.58379
0.583814
0.583838
0.583861
0.583885
0.583885
0.583909
0.583933
0.583957
0.583981
0.583981
0.584005
0.584029
0.584054
0.584078
0.584078
0.584102
0.584126
0.58415
0.584174
0.584174
0.584199
0.584223
0.584247
0.584272
0.584272
0.584296
0.58432
0.584345
0.584369
0.584369
0.584394
0.584418
0.584443
0.584467
0.584467
0.584492
0.584516
0.584541
0.584566
0.584566
0.58459
0.584615
0.58464
0.584665
0.584665
0.584689
0.584714
0.584739
0.584764
0.584764
0.584789
0.584814
0.584839
0.584864
0.584864
0.584889
0.584914
0.584939
0.584964
0.584964
0.584989
0.585014
0.585039
0.585064
0.585064
0.58509
0.585115
0.58514
0.585165
0.585165
0.585191
0.585216
0.585242
0.585267
0.585267
0.585292
0.585318
0.585343
0.585369
0.585369
0.585394
0.58542
0.585446
0.585471
0.585471
0.585497
0.585523
0.585548
0.585574
0.585574
0.5856
0.585625
0.585651
0.585677
0.585677
0.585703
0.585729
0.585755
0.585781
0.585781
0.585807
0.585833
0.585859
0.585885
0.585885
0.585911
0.585937
0.585963
0.585989
0.585989
0.586016
0.586042
0.586068
0.586094
0.586094
0.586121
0.586147
0.586173
0.5862
0.5862
0.586226
0.586253
0.586279
0.586305
0.586305
0.586332
0.586359
0.586385
0.586412
0.586412
0.586438
0.586465
0.586492
0.586518
0.586518
0.586545
0.586572
0.586599
0.586626
0.586626
0.586652
0.586679
0.586706
0.586733
0.586733
0.58676
0.586787
0.586814
0.586841
0.586841
0.586868
0.586895
0.586922
0.58695
0.58695
0.586977
0.587004
0.587031
0.587058
0.587058
0.587086
0.587113
0.58714
0.587168
0.587168
0.587195
0.587223
0.58725
0.587278
0.587278
0.587305
0.587333
0.58736
0.587388
0.587388
0.587415
0.587443
0.587471
0.587499
0.587499
0.587526
0.587554
0.587582
0.58761
0.58761
0.587638
0.587665
0.587693
0.587721
0.587721
0.587749
0.587777
0.587805
0.587833
0.587833
0.587861
0.587889
0.587918
0.587946
0.587946
0.587974
0.588002
0.58803
0.588059
0.588059
0.588087
0.588115
0.588144
0.588172
0.588172
0.5882
0.588229
0.588257
0.588286
0.588286
0.588314
0.588343
0.588371
0.5884
0.5884
0.588429
0.588457
0.588486
0.588515
0.588515
0.588544
0.588572
0.588601
0.58863
0.58863
0.588659
0.588688
0.588717
0.588746
0.588746
0.588775
0.588804
0.588833
0.588862
0.588862
0.588891
0.58892
0.588949
0.588978
0.588978
0.589007
0.589037
0.589066
0.589095
0.589095
0.589125
0.589154
0.589183
0.589213
0.589213
0.589242
0.589272
0.589301
0.589331
0.589331
0.58936
0.58939
0.589419
0.589449
0.589449
0.589479
0.589508
0.589538
0.589568
0.589568
0.589597
0.589627
0.589657
0.589687
0.589687
0.589717
0.589747
0.589777
0.589807
0.589807
0.589837
0.589867
0.589897
0.589927
0.589927
0.589957
0.589987
0.590017
0.590048
0.590048
0.590078
0.590108
0.590138
0.590169
0.590169
0.590199
0.590229
0.59026
0.59029
0.59029
0.590321
0.590351
0.590382
0.590412
0.590412
0.590443
0.590473
0.590504
0.590535
0.590535
0.590565
0.590596
0.590627
0.590658
0.590658
0.590688
0.590719
0.59075
0.590781
0.590781
0.590812
0.590843
0.590874
0.590905
0.590905
0.590936
0.590967
0.590998
0.591029
0.591029
0.59106
0.591092
0.591123
0.591154
0.591154
0.591185
0.591217
0.591248
0.591279
0.591279
0.591311
0.591342
0.591374
0.591405
0.591405
0.591437
0.591468
0.5915
0.591531
0.591531
0.591563
0.591595
0.591626
0.591658
0.591658
0.59169
0.591721
0.591753
0.591785
0.591785
0.591817
0.591849
0.591881
0.591913
0.591913
0.591945
0.591977
0.592009
0.592041
0.592041
0.592073
0.592105
0.592137
0.592169
0.592169
0.592201
0.592234
0.592266
0.592298
0.592298
0.59233
0.592363
0.592395
0.592428
0.592428
0.59246
0.592493
0.592525
0.592558
0.592558
0.59259
0.592623
0.592655
0.592688
0.592688
0.592721
0.592753
0.592786
0.592819
0.592819
0.592852
0.592884
0.592917
0.59295
0.59295
0.592983
0.593016
0.593049
0.593082
0.593082
0.593115
0.593148
0.593181
0.593214
0.593214
0.593247
0.593281
0.593314
0.593347
0.593347
0.59338
0.593414
0.593447
0.59348
0.59348
0.593514
0.593547
0.59358
0.593614
0.593614
0.593647
0.593681
0.593714
0.593748
0.593748
0.593782
0.593815
0.593849
0.593883
0.593883
0.593916
0.59395
0.593984
0.594018
0.594018
0.594052
0.594086
0.594119
0.594153
0.594153
0.594187
0.594221
0.594255
0.594289
0.594289
0.594324
0.594358
0.594392
0.594426
0.594426
0.59446
0.594494
0.594529
0.594563
0.594563
0.594597
0.594632
0.594666
0.5947
0.5947
0.594735
0.594769
0.594804
0.594838
0.594838
0.594873
0.594908
0.594942
0.594977
0.594977
0.595011
0.595046
0.595081
0.595116
0.595116
0.59515
0.595185
0.59522
0.595255
0.595255
0.59529
0.595325
0.59536
0.595395
0.595395
0.59543
0.595465
0.5955
0.595535
0.595535
0.59557
0.595606
0.595641
0.595676
0.595676
0.595711
0.595747
0.595782
0.595817
0.595817
0.595853
0.595888
0.595924
0.595959
0.595959
0.595995
0.59603
0.596066
0.596101
0.596101
0.596137
0.596173
0.596208
0.596244
0.596244
0.59628
0.596316
0.596351
0.596387
0.596387
0.596423
0.596459
0.596495
0.596531
0.596531
0.596567
0.596603
0.596639
0.596675
0.596675
0.596711
0.596747
0.596783
0.59682
0.59682
0.596856
0.596892
0.596928
0.596965
0.596965
0.597001
0.597037
0.597074
0.59711
0.59711
0.597147
0.597183
0.59722
0.597256
0.597256
0.597293
0.59733
0.597366
0.597403
0.597403
0.59744
0.597476
0.597513
0.59755
0.59755
0.597587
0.597624
0.59766
0.597697
0.597697
0.597734
0.597771
0.597808
0.597845
0.597845
0.597882
0.597919
0.597957
0.597994
0.597994
0.598031
0.598068
0.598105
0.598143
0.598143
0.59818
0.598217
0.598255
0.598292
0.598292
0.598329
0.598367
0.598404
0.598442
0.598442
0.598479
0.598517
0.598555
0.598592
0.598592
0.59863
0.598668
0.598705
0.598743
0.598743
0.598781
0.598819
0.598857
0.598894
0.598894
0.598932
0.59897
0.599008
0.599046
0.599046
0.599084
0.599122
0.59916
0.599198
0.599198
0.599237
0.599275
0.599313
0.599351
0.599351
0.599389
0.599428
0.599466
0.599504
0.599504
0.599543
0.599581
0.59962
0.599658
0.599658
0.599697
0.599735
0.599774
0.599812
0.599812
0.599851
0.59989
0.599928
0.599967
0.599967
0.600006
0.600045
0.600083
0.600122
0.600122
0.600161
0.6002
0.600239
0.600278
0.600278
0.600317
0.600356
0.600395
0.600434
0.600434
0.600473
0.600512
0.600551
0.60059
0.60059
0.60063
0.600669
0.600708
0.600747
0.600747
0.600787
0.600826
0.600866
0.600905
0.600905
0.600944
0.600984
0.601023
0.601063
0.601063
0.601103
0.601142
0.601182
0.601222
0.601222
0.601261
0.601301
0.601341
0.60138
0.60138
0.60142
0.60146
0.6015
0.60154
0.60154
0.60158
0.60162
0.60166
0.6017
0.6017
0.60174
0.60178
0.60182
0.60186
0.60186
0.6019
0.601941
0.601981
0.602021
0.602021
0.602061
0.602102
0.602142
0.602182
0.602182
0.602223
0.602263
0.602304
0.602344
0.602344
0.602385
0.602425
0.602466
0.602507
0.602507
0.602547
0.602588
0.602629
0.602669
0.602669
0.60271
0.602751
0.602792
0.602833
0.602833
0.602874
0.602914
0.602955
0.602996
0.602996
0.603037
0.603078
0.60312
0.603161
0.603161
0.603202
0.603243
0.603284
0.603325
0.603325
0.603367
0.603408
0.603449
0.60349
0.60349
0.603532
0.603573
0.603615
0.603656
0.603656
0.603698
0.603739
0.603781
0.603822
0.603822
0.603864
0.603905
0.603947
0.603989
0.603989
0.604031
0.604072
0.604114
0.604156
0.604156
0.604198
0.60424
0.604281
0.604323
0.604323
0.604365
0.604407
0.604449
0.604491
0.604491
0.604533
0.604576
0.604618
0.60466
0.60466
0.604702
0.604744
0.604787
0.604829
0.604829
0.604871
0.604914
0.604956
0.604998
0.604998
0.605041
0.605083
0.605126
0.605168
0.605168
0.605211
0.605253
0.605296
0.605339
0.605339
0.605381
0.605424
0.605467
0.605509
0.605509
0.605552
0.605595
0.605638
0.605681
0.605681
0.605724
0.605767
0.60581
0.605852
0.605852
0.605896
0.605939
0.605982
0.606025
0.606025
0.606068
0.606111
0.606154
0.606197
0.606197
0.606241
0.606284
0.606327
0.606371
0.606371
0.606414
0.606457
0.606501
0.606544
0.606544
0.606588
0.606631
0.606675
0.606718
0.606718
0.606762
0.606806
0.606849
0.606893
0.606893
0.606937
0.606981
0.607024
0.607068
0.607068
0.607112
0.607156
0.6072
0.607244
0.607244
0.607288
0.607332
0.607376
0.60742
0.60742
0.607464
0.607508
0.607552
0.607596
0.607596
0.60764
0.607684
0.607729
0.607773
0.607773
0.607817
0.607862
0.607906
0.60795
0.60795
0.607995
0.608039
0.608084
0.608128
0.608128
0.608173
0.608217
0.608262
0.608307
0.608307
0.608351
0.608396
0.608441
0.608485
0.608485
0.60853
0.608575
0.60862
0.608665
0.608665
0.608709
0.608754
0.608799
0.608844
0.608844
0.608889
0.608934
0.608979
0.609024
0.609024
0.60907
0.609115
0.60916
0.609205
0.609205
0.60925
0.609296
0.609341
0.609386
0.609386
0.609432
0.609477
0.609522
0.609568
0.609568
0.609613
0.609659
0.609704
0.60975
0.60975
0.609795
0.609841
0.609887
0.609932
0.609932
0.609978
0.610024
0.610069
0.610115
0.610115
0.610161
0.610207
0.610253
0.610298
0.610298
0.610344
0.61039
0.610436
0.610482
0.610482
0.610528
0.610574
0.610621
0.610667
0.610667
0.610713
0.610759
0.610805
0.610851
0.610851
0.610898
0.610944
0.61099
0.611037
0.611037
0.611083
0.611129
0.611176
0.611222
0.611222
0.611269
0.611315
0.611362
0.611408
0.611408
0.611455
0.611502
0.611548
0.611595
0.611595
0.611642
0.611688
0.611735
0.611782
0.611782
0.611829
0.611876
0.611922
0.611969
0.611969
0.612016
0.612063
0.61211
0.612157
0.612157
0.612204
0.612251
0.612298
0.612346
0.612346
0.612393
0.61244
0.612487
0.612534
0.612534
0.612582
0.612629
0.612676
0.612724
0.612724
0.612771
0.612818
0.612866
0.612913
0.612913
0.612961
0.613008
0.613056
0.613103
0.613103
0.613151
0.613199
0.613246
0.613294
0.613294
0.613342
0.613389
0.613437
0.613485
0.613485
0.613533
0.613581
0.613629
0.613676
0.613676
0.613724
0.613772
0.61382
0.613868
0.613868
0.613916
0.613964
0.614013
0.614061
0.614061
0.614109
0.614157
0.614205
0.614254
0.614254
0.614302
0.61435
0.614398
0.614447
0.614447
0.614495
0.614544
0.614592
0.61464
0.61464
0.614689
0.614737
0.614786
0.614834
0.614834
0.614883
0.614932
0.61498
0.615029
0.615029
0.615078
0.615126
0.615175
0.615224
0.615224
0.615273
0.615322
0.615371
0.615419
0.615419
0.615468
0.615517
0.615566
0.615615
0.615615
0.615664
0.615713
0.615762
0.615812
0.615812
0.615861
0.61591
0.615959
0.616008
0.616008
0.616057
0.616107
0.616156
0.616205
0.616205
0.616255
0.616304
0.616353
0.616403
0.616403
0.616452
0.616502
0.616551
0.616601
0.616601
0.61665
0.6167
0.61675
0.616799
0.616799
0.616849
0.616899
0.616948
0.616998
0.616998
0.617048
0.617098
0.617148
0.617197
0.617197
0.617247
0.617297
0.617347
0.617397
0.617397
0.617447
0.617497
0.617547
0.617597
0.617597
0.617647
0.617697
0.617748
0.617798
0.617798
0.617848
0.617898
0.617948
0.617999
0.617999
0.618049
0.618099
0.61815
0.6182
0.6182
0.61825
0.618301
0.618351
0.618402
0.618402
0.618452
0.618503
0.618553
0.618604
0.618604
0.618655
0.618705
0.618756
0.618807
0.618807
0.618857
0.618908
0.618959
0.61901
0.61901
0.619061
0.619111
0.619162
0.619213
0.619213
0.619264
0.619315
0.619366
0.619417
0.619417
0.619468
0.619519
0.61957
0.619621
0.619621
0.619672
0.619724
0.619775
0.619826
0.619826
0.619877
0.619928
0.61998
0.620031
0.620031
0.620082
0.620134
0.620185
0.620237
0.620237
0.620288
0.620339
0.620391
0.620442
0.620442
0.620494
0.620546
0.620597
0.620649
0.620649
0.6207
0.620752
0.620804
0.620856
0.620856
0.620907
0.620959
0.621011
0.621063
0.621063
0.621114
0.621166
0.621218
0.62127
0.62127
0.621322
0.621374
0.621426
0.621478
0.621478
0.62153
0.621582
0.621634
0.621686
0.621686
0.621739
0.621791
0.621843
0.621895
0.621895
0.621947
0.622
0.622052
0.622104
0.622104
0.622157
0.622209
0.622261
0.622314
0.622314
0.622366
0.622419
0.622471
0.622524
0.622524
0.622576
0.622629
0.622681
0.622734
0.622734
0.622787
0.622839
0.622892
0.622945
0.622945
0.622997
0.62305
0.623103
0.623156
0.623156
0.623209
0.623261
0.623314
0.623367
0.623367
0.62342
0.623473
0.623526
0.623579
0.623579
0.623632
0.623685
0.623738
0.623791
0.623791
0.623844
0.623898
0.623951
0.624004
0.624004
0.624057
0.62411
0.624164
0.624217
0.624217
0.62427
0.624324
0.624377
0.62443
0.62443
0.624484
0.624537
0.624591
0.624644
0.624644
0.624698
0.624751
0.624805
0.624858
0.624858
0.624912
0.624966
0.625019
0.625073
0.625073
0.625127
0.62518
0.625234
0.625288
0.625288
0.625342
0.625395
0.625449
0.625503
0.625503
0.625557
0.625611
0.625665
0.625719
0.625719
0.625773
0.625827
0.625881
0.625935
0.625935
0.625989
0.626043
0.626097
0.626151
0.626151
0.626205
0.62626
0.626314
0.626368
0.626368
0.626422
0.626476
0.626531
0.626585
0.626585
0.626639
0.626694
0.626748
0.626803
0.626803
0.626857
0.626912
0.626966
0.62702
0.62702
0.627075
0.62713
0.627184
0.627239
0.627239
0.627293
0.627348
0.627403
0.627457
0.627457
0.627512
0.627567
0.627622
0.627676
0.627676
0.627731
0.627786
0.627841
0.627896
0.627896
0.627951
0.628005
0.62806
0.628115
0.628115
0.62817
0.628225
0.62828
0.628335
0.628335
0.62839
0.628446
0.628501
0.628556
0.628556
0.628611
0.628666
0.628721
0.628777
0.628777
0.628832
0.628887
0.628942
0.628998
0.628998
0.629053
0.629108
0.629164
0.629219
0.629219
0.629274
0.62933
0.629385
0.629441
0.629441
0.629496
0.629552
0.629607
0.629663
0.629663
0.629719
0.629774
0.62983
0.629886
0.629886
0.629941
0.629997
0.630053
0.630108
0.630108
0.630164
0.63022
0.630276
0.630332
0.630332
0.630387
0.630443
0.630499
0.630555
0.630555
0.630611
0.630667
0.630723
0.630779
0.630779
0.630835
0.630891
0.630947
0.631003
0.631003
0.631059
0.631115
0.631172
0.631228
0.631228
0.631284
0.63134
0.631396
0.631453
0.631453
0.631509
0.631565
0.631621
0.631678
0.631678
0.631734
0.631791
0.631847
0.631903
0.631903
0.63196
0.632016
0.632073
0.632129
0.632129
0.632186
0.632242
0.632299
0.632355
0.632355
0.632412
0.632469
0.632525
0.632582
0.632582
0.632639
0.632695
0.632752
0.632809
0.632809
0.632866
0.632922
0.632979
0.633036
0.633036
0.633093
0.63315
0.633207
0.633264
0.633264
0.63332
0.633377
0.633434
0.633491
0.633491
0.633548
0.633605
0.633662
0.63372
0.63372
0.633777
0.633834
0.633891
0.633948
0.633948
0.634005
0.634062
0.63412
0.634177
0.634177
0.634234
0.634291
0.634349
0.634406
0.634406
0.634463
0.634521
0.634578
0.634635
0.634635
0.634693
0.63475
0.634808
0.634865
0.634865
0.634923
0.63498
0.635038
0.635095
0.635095
0.635153
0.63521
0.635268
0.635325
0.635325
0.635383
0.635441
0.635498
0.635556
0.635556
0.635614
0.635672
0.635729
0.635787
0.635787
0.635845
0.635903
0.63596
0.636018
0.636018
0.636076
0.636134
0.636192
0.63625
0.63625
0.636308
0.636366
0.636424
0.636482
0.636482
0.63654
0.636598
0.636656
0.636714
0.636714
0.636772
0.63683
0.636888
0.636946
0.636946
0.637005
0.637063
0.637121
0.637179
0.637179
0.637237
0.637296
0.637354
0.637412
0.637412
0.637471
0.637529
0.637587
0.637646
0.637646
0.637704
0.637762
0.637821
0.637879
0.637879
0.637938
0.637996
0.638055
0.638113
0.638113
0.638172
0.63823
0.638289
0.638347
0.638347
0.638406
0.638465
0.638523
0.638582
0.638582
0.638641
0.638699
0.638758
0.638817
0.638817
0.638875
0.638934
0.638993
0.639052
0.639052
0.639111
0.639169
0.639228
0.639287
0.639287
0.639346
0.639405
0.639464
0.639523
0.639523
0.639582
0.639641
0.6397
0.639759
0.639759
0.639818
0.639877
0.639936
0.639995
0.639995
0.640054
0.640113
0.640172
0.640231
0.640231
0.640291
0.64035
0.640409
0.640468
0.640468
0.640527
0.640587
0.640646
0.640705
0.640705
0.640764
0.640824
0.640883
0.640942
0.640942
0.641002
0.641061
0.641121
0.64118
0.64118
0.641239
0.641299
0.641358
0.641418
0.641418
0.641477
0.641537
0.641596
0.641656
0.641656
0.641715
0.641775
0.641835
0.641894
0.641894
0.641954
0.642014
0.642073
0.642133
0.642133
0.642193
0.642252
0.642312
0.642372
0.642372
0.642431
0.642491
0.642551
0.642611
0.642611
0.642671
0.642731
0.64279
0.64285
0.64285
0.64291
0.64297
0.64303
0.64309
0.64309
0.64315
0.64321
0.64327
0.64333
0.64333
0.64339
0.64345
0.64351
0.64357
0.64357
0.64363
0.64369
0.64375
0.64381
0.64381
0.643871
0.643931
0.643991
0.644051
0.644051
0.644111
0.644171
0.644232
0.644292
0.644292
0.644352
0.644412
0.644473
0.644533
0.644533
0.644593
0.644654
0.644714
0.644774
0.644774
0.644835
0.644895
0.644956
0.645016
0.645016
0.645077
0.645137
0.645197
0.645258
0.645258
0.645318
0.645379
0.64544
0.6455
0.6455
0.645561
0.645621
0.645682
0.645742
0.645742
0.645803
0.645864
0.645924
0.645985
0.645985
0.646046
0.646106
0.646167
0.646228
0.646228
0.646289
0.646349
0.64641
0.646471
0.646471
0.646532
0.646593
0.646653
0.646714
0.646714
0.646775
0.646836
0.646897
0.646958
0.646958
0.647019
0.64708
0.647141
0.647201
0.647201
0.647262
0.647323
0.647384
0.647445
0.647445
0.647506
0.647568
0.647629
0.64769
0.64769
0.647751
0.647812
0.647873
0.647934
0.647934
0.647995
0.648056
0.648118
0.648179