<?xml version="1.0"?>
<VTKFile type="UnstructuredGrid" version="0.1" byte_order="LittleEndian">
<UnstructuredGrid>
<Piece NumberOfPoints="5000" NumberOfCells="4000">
<PointData Scalars="Reaction 0">
<DataArray type="Float32" Name="Reaction 0" format="ascii">
0.404334
0.404334
0.404334
0.404334
0.404334
0.404334
0.404334
0.404334
0.404334
0.404335
0.404335
0.404335
0.404335
0.404335
0.404336
0.404336
0.404336
0.404336
0.404337
0.404337
0.404337
0.404338
0.404338
0.404339
0.404339
0.404339
0.40434
0.40434
0.404341
0.404342
0.404342
0.404342
0.404343
0.404344
0.404344
0.404344
0.404345
0.404346
0.404347
0.404348
0.404348
0.404349
0.404349
0.40435
0.404351
0.404351
0.404352
0.404353
0.404354
0.404356
0.404356
0.404357
0.404358
0.404359
0.40436
0.40436
0.404361
0.404362
0.404364
0.404365
0.404365
0.404366
0.404368
0.404369
0.40437
0.40437
0.404372
0.404373
0.404375
0.404376
0.404376
0.404378
0.404379
0.404381
0.404383
0.404383
0.404384
0.404386
0.404388
0.404389
0.404389
0.404391
0.404393
0.404395
0.404396
0.404396
0.404398
0.4044
0.404402
0.404404
0.404404
0.404406
0.404408
0.40441
0.404412
0.404412
0.404414
0.404416
0.404418
0.404421
0.404421
0.404423
0.404425
0.404427
0.404429
0.404429
0.404432
0.404434
0.404436
0.404439
0.404439
0.404441
0.404444
0.404446
0.404449
0.404449
0.404451
0.404454
0.404456
0.404459
0.404459
0.404461
0.404464
0.404467
0.404469
0.404469
0.404472
0.404475
0.404478
0.40448
0.40448
0.404483
0.404486
0.404489
0.404492
0.404492
0.404495
0.404498
0.404501
0.404504
0.404504
0.404507
0.40451
0.404513
0.404516
0.404516
0.404519
0.404523
0.404526
0.404529
0.404529
0.404532
0.404536
0.404539
0.404542
0.404542
0.404546
0.404549
0.404552
0.404556
0.404556
0.404559
0.404563
0.404566
0.40457
0.40457
0.404574
0.404577
0.404581
0.404584
0.404584
0.404588
0.404592
0.404596
0.404599
0.404599
0.404603
0.404607
0.404611
0.404615
0.404615
0.404619
0.404623
0.404627
0.404631
0.404631
0.404635
0.404639
0.404643
0.404647
0.404647
0.404651
0.404655
0.404659
0.404664
0.404664
0.404668
0.404672
0.404676
0.404681
0.404681
0.404685
0.404689
0.404694
0.404698
0.404698
0.404703
0.404707
0.404712
0.404716
0.404716
0.404721
0.404725
0.40473
0.404735
0.404735
0.404739
0.404744
0.404749
0.404754
0.404754
0.404758
0.404763
0.404768
0.404773
0.404773
0.404778
0.404783
0.404788
0.404793
0.404793
0.404798
0.404803
0.404808
0.404813
0.404813
0.404818
0.404823
0.404828
0.404833
0.404833
0.404839
0.404844
0.404849
0.404854
0.404854
0.40486
0.404865
0.40487
0.404876
0.404876
0.404881
0.404887
0.404892
0.404898
0.404898
0.404903
0.404909
0.404914
0.40492
0.40492
0.404926
0.404931
0.404937
0.404943
0.404943
0.404949
0.404954
0.40496
0.404966
0.404966
0.404972
0.404978
0.404984
0.40499
0.40499
0.404996
0.405002
0.405008
0.405014
0.405014
0.40502
0.405026
0.405032
0.405038
0.405038
0.405044
0.405051
0.405057
0.405063
0.405063
0.405069
0.405076
0.405082
0.405088
0.405088
0.405095
0.405101
0.405108
0.405114
0.405114
0.405121
0.405127
0.405134
0.40514
0.40514
0.405147
0.405154
0.40516
0.405167
0.405167
0.405174
0.405181
0.405187
0.405194
0.405194
0.405201
0.405208
0.405215
0.405222
0.405222
0.405229
0.405236
0.405243
0.40525
0.40525
0.405257
0.405264
0.405271
0.405278
0.405278
0.405285
0.405292
0.4053
0.405307
0.405307
0.405314
0.405321
0.405329
0.405336
0.405336
0.405344
0.405351
0.405358
0.405366
0.405366
0.405373
0.405381
0.405388
0.405396
0.405396
0.405404
0.405411
0.405419
0.405426
0.405426
0.405434
0.405442
0.40545
0.405457
0.405457
0.405465
0.405473
0.405481
0.405489
0.405489
0.405497
0.405505
0.405513
0.405521
0.405521
0.405529
0.405537
0.405545
0.405553
0.405553
0.405561
0.405569
0.405577
0.405586
0.405586
0.405594
0.405602
0.405611
0.405619
0.405619
0.405627
0.405636
0.405644
0.405652
0.405652
0.405661
0.405669
0.405678
0.405686
0.405686
0.405695
0.405704
0.405712
0.405721
0.405721
0.40573
0.405738
0.405747
0.405756
0.405756
0.405765
0.405773
0.405782
0.405791
0.405791
0.4058
0.405809
0.405818
0.405827
0.405827
0.405836
0.405845
0.405854
0.405863
0.405863
0.405872
0.405881
0.40589
0.4059
0.4059
0.405909
0.405918
0.405927
0.405937
0.405937
0.405946
0.405955
0.405965
0.405974
0.405974
0.405983
0.405993
0.406002
0.406012
0.406012
0.406022
0.406031
0.406041
0.40605
0.40605
0.40606
0.40607
0.406079
0.406089
0.406089
0.406099
0.406109
0.406118
0.406128
0.406128
0.406138
0.406148
0.406158
0.406168
0.406168
0.406178
0.406188
0.406198
0.406208
0.406208
0.406218
0.406228
0.406238
0.406248
0.406248
0.406259
0.406269
0.406279
0.406289
0.406289
0.4063
0.40631
0.40632
0.406331
0.406331
0.406341
0.406352
0.406362
0.406372
0.406372
0.406383
0.406394
0.406404
0.406415
0.406415
0.406425
0.406436
0.406447
0.406457
0.406457
0.406468
0.406479
0.40649
0.4065
0.4065
0.406511
0.406522
0.406533
0.406544
0.406544
0.406555
0.406566
0.406577
0.406588
0.406588
0.406599
0.40661
0.406621
0.406632
0.406632
0.406643
0.406655
0.406666
0.406677
0.406677
0.406688
0.4067
0.406711
0.406722
0.406722
0.406734
0.406745
0.406756
0.406768
0.406768
0.406779
0.406791
0.406802
0.406814
0.406814
0.406826
0.406837
0.406849
0.406861
0.406861
0.406872
0.406884
0.406896
0.406908
0.406908
0.406919
0.406931
0.406943
0.406955
0.406955
0.406967
0.406979
0.406991
0.407003
0.407003
0.407015
0.407027
0.407039
0.407051
0.407051
0.407063
0.407075
0.407087
0.4071
0.4071
0.407112
0.407124
0.407136
0.407149
0.407149
0.407161
0.407173
0.407186
0.407198
0.407198
0.407211
0.407223
0.407236
0.407248
0.407248
0.407261
0.407273
0.407286
0.407299
0.407299
0.407311
0.407324
0.407337
0.40735
0.40735
0.407362
0.407375
0.407388
0.407401
0.407401
0.407414
0.407427
0.40744
0.407452
0.407452
0.407465
0.407478
0.407492
0.407505
0.407505
0.407518
0.407531
0.407544
0.407557
0.407557
0.40757
0.407584
0.407597
0.40761
0.40761
0.407623
0.407637
0.40765
0.407664
0.407664
0.407677
0.40769
0.407704
0.407717
0.407717
0.407731
0.407744
0.407758
0.407772
0.407772
0.407785
0.407799
0.407813
0.407826
0.407826
0.40784
0.407854
0.407868
0.407882
0.407882
0.407895
0.407909
0.407923
0.407937
0.407937
0.407951
0.407965
0.407979
0.407993
0.407993
0.408007
0.408021
0.408035
0.40805
0.40805
0.408064
0.408078
0.408092
0.408106
0.408106
0.408121
0.408135
0.408149
0.408164
0.408164
0.408178
0.408192
0.408207
0.408221
0.408221
0.408236
0.40825
0.408265
0.40828
0.40828
0.408294
0.408309
0.408323
0.408338
0.408338
0.408353
0.408368
0.408382
0.408397
0.408397
0.408412
0.408427
0.408442
0.408457
0.408457
0.408471
0.408486
0.408501
0.408516
0.408516
0.408531
0.408546
0.408562
0.408577
0.408577
0.408592
0.408607
0.408622
0.408637
0.408637
0.408653
0.408668
0.408683
0.408699
0.408699
0.408714
0.408729
0.408745
0.40876
0.40876
0.408776
0.408791
0.408807
0.408822
0.408822
0.408838
0.408853
0.408869
0.408885
0.408885
0.4089
0.408916
0.408932
0.408947
0.408947
0.408963
0.408979
0.408995
0.409011
0.409011
0.409027
0.409043
0.409059
0.409074
0.409074
0.40909
0.409106
0.409123
0.409139
0.409139
0.409155
0.409171
0.409187
0.409203
0.409203
0.409219
0.409236
0.409252
0.409268
0.409268
0.409285
0.409301
0.409317
0.409334
0.409334
0.40935
0.409367
0.409383
0.4094
0.4094
0.409416
0.409433
0.409449
0.409466
0.409466
0.409482
0.409499
0.409516
0.409533
0.409533
0.409549
0.409566
0.409583
0.4096
0.4096
0.409617
0.409633
0.40965
0.409667
0.409667
0.409684
0.409701
0.409718
0.409735
0.409735
0.409752
0.409769
0.409787
0.409804
0.409804
0.409821
0.409838
0.409855
0.409873
0.409873
0.40989
0.409907
0.409924
0.409942
0.409942
0.409959
0.409977
0.409994
0.410012
0.410012
0.410029
0.410047
0.410064
0.410082
0.410082
0.410099
0.410117
0.410135
0.410152
0.410152
0.41017
0.410188
0.410205
0.410223
0.410223
0.410241
0.410259
0.410277
0.410295
0.410295
0.410313
0.410331
0.410349
0.410367
0.410367
0.410385
0.410403
0.410421
0.410439
0.410439
0.410457
0.410475
0.410493
0.410512
0.410512
0.41053
0.410548
0.410566
0.410585
0.410585
0.410603
0.410621
0.41064
0.410658
0.410658
0.410677
0.410695
0.410714
0.410732
0.410732
0.410751
0.410769
0.410788
0.410807
0.410807
0.410825
0.410844
0.410863
0.410882
0.410882
0.4109
0.410919
0.410938
0.410957
0.410957
0.410976
0.410995
0.411014
0.411032
0.411032
0.411051
0.41107
0.41109
0.411109
0.411109
0.411128
0.411147
0.411166
0.411185
0.411185
0.411204
0.411224
0.411243
0.411262
0.411262
0.411281
0.411301
0.41132
0.41134
0.41134
0.411359
0.411378
0.411398
0.411417
0.411417
0.411437
0.411456
0.411476
0.411496
0.411496
0.411515
0.411535
0.411555
0.411574
0.411574
0.411594
0.411614
0.411634
0.411653
0.411653
0.411673
0.411693
0.411713
0.411733
0.411733
0.411753
0.411773
0.411793
0.411813
0.411813
0.411833
0.411853
0.411873
0.411893
0.411893
0.411913
0.411934
0.411954
0.411974
0.411974
0.411994
0.412015
0.412035
0.412055
0.412055
0.412076
0.412096
0.412117
0.412137
0.412137
0.412157
0.412178
0.412198
0.412219
0.412219
0.41224
0.41226
0.412281
0.412302
0.412302
0.412322
0.412343
0.412364
0.412384
0.412384
0.412405
0.412426
0.412447
0.412468
0.412468
0.412489
0.41251
0.412531
0.412552
0.412552
0.412573
0.412594
0.412615
0.412636
0.412636
0.412657
0.412678
0.412699
0.41272
0.41272
0.412742
0.412763
0.412784
0.412806
0.412806
0.412827
0.412848
0.41287
0.412891
0.412891
0.412912
0.412934
0.412955
0.412977
0.412977
0.412998
0.41302
0.413042
0.413063
0.413063
0.413085
0.413107
0.413128
0.41315
0.41315
0.413172
0.413194
0.413215
0.413237
0.413237
0.413259
0.413281
0.413303
0.413325
0.413325
0.413347
0.413369
0.413391
0.413413
0.413413
0.413435
0.413457
0.413479
0.413501
0.413501
0.413523
0.413546
0.413568
0.41359
0.41359
0.413612
0.413635
0.413657
0.413679
0.413679
0.413702
0.413724
0.413747
0.413769
0.413769
0.413792
0.413814
0.413837
0.413859
0.413859
0.413882
0.413905
0.413927
0.41395
0.41395
0.413973
0.413995
0.414018
0.414041
0.414041
0.414064
0.414087
0.414109
0.414132
0.414132
0.414155
0.414178
0.414201
0.414224
0.414224
0.414247
0.41427
0.414293
0.414316
0.414316
0.41434
0.414363
0.414386
0.414409
0.414409
0.414432
0.414456
0.414479
0.414502
0.414502
0.414526
0.414549
0.414572
0.414596
0.414596
0.414619
0.414643
0.414666
0.41469
0.41469
0.414713
0.414737
0.41476
0.414784
0.414784
0.414808
0.414831
0.414855
0.414879
0.414879
0.414903
0.414926
0.41495
0.414974
0.414974
0.414998
0.415022
0.415046
0.41507
0.41507
0.415094
0.415118
0.415142
0.415166
0.415166
0.41519
0.415214
0.415238
0.415262
0.415262
0.415286
0.415311
0.415335
0.415359
0.415359
0.415383
0.415408
0.415432
0.415457
0.415457
0.415481
0.415505
0.41553
0.415554
0.415554
0.415579
0.415603
0.415628
0.415652
0.415652
0.415677
0.415702
0.415726
0.415751
0.415751
0.415776
0.415801
0.415825
0.41585
0.41585
0.415875
0.4159
0.415925
0.41595
0.41595
0.415974
0.415999
0.416024
0.416049
0.416049
0.416074
0.416099
0.416125
0.41615
0.41615
0.416175
0.4162
0.416225
0.41625
0.41625
0.416276
0.416301
0.416326
0.416351
0.416351
0.416377
0.416402
0.416428
0.416453
0.416453
0.416478
0.416504
0.416529
0.416555
0.416555
0.416581
0.416606
0.416632
0.416657
0.416657
0.416683
0.416709
0.416734
0.41676
0.41676
0.416786
0.416812
0.416838
0.416863
0.416863
0.416889
0.416915
0.416941
0.416967
0.416967
0.416993
0.417019
0.417045
0.417071
0.417071
0.417097
0.417123
0.417149
0.417176
0.417176
0.417202
0.417228
0.417254
0.41728
0.41728
0.417307
0.417333
0.417359
0.417386
0.417386
0.417412
0.417439
0.417465
0.417492
0.417492
0.417518
0.417545
0.417571
0.417598
0.417598
0.417624
0.417651
0.417678
0.417704
0.417704
0.417731
0.417758
0.417785
0.417811
0.417811
0.417838
0.417865
0.417892
0.417919
0.417919
0.417946
0.417973
0.418
0.418027
0.418027
0.418054
0.418081
0.418108
0.418135
0.418135
0.418162
0.418189
0.418216
0.418243
0.418243
0.418271
0.418298
0.418325
0.418353
0.418353
0.41838
0.418407
0.418435
0.418462
0.418462
0.41849
0.418517
0.418544
0.418572
0.418572
0.4186
0.418627
0.418655
0.418682
0.418682
0.41871
0.418738
0.418765
0.418793
0.418793
0.418821
0.418849
0.418876
0.418904
0.418904
0.418932
0.41896
0.418988
0.419016
0.419016
0.419044
0.419072
0.4191
0.419128
0.419128
0.419156
0.419184
0.419212
0.41924
0.41924
0.419269
0.419297
0.419325
0.419353
0.419353
0.419382
0.41941
0.419438
0.419467
0.419467
0.419495
0.419523
0.419552
0.41958
0.41958
0.419609
0.419637
0.419666
0.419694
0.419694
0.419723
0.419752
0.41978
0.419809
0.419809
0.419838
0.419866
0.419895
0.419924
0.419924
0.419953
0.419981
0.42001
0.420039
0.420039
0.420068
0.420097
0.420126
0.420155
0.420155
0.420184
0.420213
0.420242
0.420271
0.420271
0.4203
0.420329
0.420359
0.420388
0.420388
0.420417
0.420446
0.420475
0.420505
0.420505
0.420534
0.420563
0.420593
0.420622
0.420622
0.420652
0.420681
0.420711
0.42074
0.42074
0.42077
0.420799
0.420829
0.420858
0.420858
0.420888
0.420918
0.420947
0.420977
0.420977
0.421007
0.421036
0.421066
0.421096
0.421096
0.421126
0.421156
0.421186
0.421216
0.421216
0.421246
0.421276
0.421306
0.421336
0.421336
0.421366
0.421396
0.421426
0.421456
0.421456
0.421486
0.421516
0.421546
0.421577
0.421577
0.421607
0.421637
0.421667
0.421698
0.421698
0.421728
0.421759
0.421789
0.421819
0.421819
0.42185
0.42188
0.421911
0.421941
0.421941
0.421972
0.422003
0.422033
0.422064
0.422064
0.422094
0.422125
0.422156
0.422187
0.422187
0.422217
0.422248
0.422279
0.42231
0.42231
0.422341
0.422372
0.422403
0.422434
0.422434
0.422465
0.422496
0.422527
0.422558
0.422558
0.422589
0.42262
0.422651
0.422682
0.422682
0.422713
0.422745
0.422776
0.422807
0.422807
0.422838
0.42287
0.422901
0.422932
0.422932
0.422964
0.422995
0.423027
0.423058
0.423058
0.42309
0.423121
0.423153
0.423184
0.423184
0.423216
0.423247
0.423279
0.423311
0.423311
0.423343
0.423374
0.423406
0.423438
0.423438
0.42347
0.423501
0.423533
0.423565
0.423565
0.423597
0.423629
0.423661
0.423693
0.423693
0.423725
0.423757
0.423789
0.423821
0.423821
0.423853
0.423885
0.423918
0.42395
0.42395
0.423982
0.424014
0.424047
0.424079
0.424079
0.424111
0.424143
0.424176
0.424208
0.424208
0.424241
0.424273
0.424306
0.424338
0.424338
0.424371
0.424403
0.424436
0.424468
0.424468
0.424501
0.424534
0.424566
0.424599
0.424599
0.424632
0.424665
0.424697
0.42473
0.42473
0.424763
0.424796
0.424829
0.424862
0.424862
0.424895
0.424928
0.424961
0.424994
0.424994
0.425027
0.42506
0.425093
0.425126
0.425126
0.425159
0.425192
0.425225
0.425259
0.425259
0.425292
0.425325
0.425358
0.425392
0.425392
0.425425
0.425458
0.425492
0.425525
0.425525
0.425559
0.425592
0.425626
0.425659
0.425659
0.425693
0.425726
0.42576
0.425794
0.425794
0.425827
0.425861
0.425895
0.425928
0.425928
0.425962
0.425996
0.42603
0.426064
0.426064
0.426097
0.426131
0.426165
0.426199
0.426199
0.426233
0.426267
0.426301
0.426335
0.426335
0.426369
0.426403
0.426438
0.426472
0.426472
0.426506
0.42654
0.426574
0.426609
0.426609
0.426643
0.426677
0.426711
0.426746
0.426746
0.42678
0.426815
0.426849
0.426883
0.426883
0.426918
0.426952
0.426987
0.427021
0.427021
0.427056
0.427091
0.427125
0.42716
0.42716
0.427195
0.427229
0.427264
0.427299
0.427299
0.427334
0.427368
0.427403
0.427438
0.427438
0.427473
0.427508
0.427543
0.427578
0.427578
0.427613
0.427648
0.427683
0.427718
0.427718
0.427753
0.427788
0.427823
0.427858
0.427858
0.427894
0.427929
0.427964
0.427999
0.427999
0.428035
0.42807
0.428105
0.428141
0.428141
0.428176
0.428211
0.428247
0.428282
0.428282
0.428318
0.428353
0.428389
0.428425
0.428425
0.42846
0.428496
0.428531
0.428567
0.428567
0.428603
0.428639
0.428674
0.42871
0.42871
0.428746
0.428782
0.428818
0.428853
0.428853
0.428889
0.428925
0.428961
0.428997
0.428997
0.429033
0.429069
0.429105
0.429141
0.429141
0.429177
0.429214
0.42925
0.429286
0.429286
0.429322
0.429358
0.429395
0.429431
0.429431
0.429467
0.429504
0.42954
0.429576
0.429576
0.429613
0.429649
0.429686
0.429722
0.429722
0.429759
0.429795
0.429832
0.429868
0.429868
0.429905
0.429942
0.429978
0.430015
0.430015
0.430052
0.430088
0.430125
0.430162
0.430162
0.430199
0.430236
0.430272
0.430309
0.430309
0.430346
0.430383
0.43042
0.430457
0.430457
0.430494
0.430531
0.430568
0.430605
0.430605
0.430642
0.43068
0.430717
0.430754
0.430754
0.430791
0.430828
0.430866
0.430903
0.430903
0.43094
0.430978
0.431015
0.431052
0.431052
0.43109
0.431127
0.431165
0.431202
0.431202
0.43124
0.431277
0.431315
0.431353
0.431353
0.43139
0.431428
0.431466
0.431503
0.431503
0.431541
0.431579
0.431616
0.431654
0.431654
0.431692
0.43173
0.431768
0.431806
0.431806
0.431844
0.431882
0.43192
0.431958
0.431958
0.431996
0.432034
0.432072
0.43211
0.43211
0.432148
0.432186
0.432224
0.432263
0.432263
0.432301
0.432339
0.432377
0.432416
0.432416
0.432454
0.432492
0.432531
0.432569
0.432569
0.432608
0.432646
0.432684
0.432723
0.432723
0.432761
0.4328
0.432839
0.432877
0.432877
0.432916
0.432955
0.432993
0.433032
0.433032
0.433071
0.433109
0.433148
0.433187
0.433187
0.433226
0.433265
0.433304
0.433342
0.433342
0.433381
0.43342
0.433459
0.433498
0.433498
0.433537
0.433576
0.433616
0.433655
0.433655
0.433694
0.433733
0.433772
0.433811
0.433811
0.433851
0.43389
0.433929
0.433968
0.433968
0.434008
0.434047
0.434087
0.434126
0.434126
0.434165
0.434205
0.434244
0.434284
0.434284
0.434323
0.434363
0.434402
0.434442
0.434442
0.434482
0.434521
0.434561
0.434601
0.434601
0.434641
0.43468
0.43472
0.43476
0.43476
0.4348
0.43484
0.434879
0.434919
0.434919
0.434959
0.434999
0.435039
0.435079
0.435079
0.435119
0.435159
0.435199
0.43524
0.43524
0.43528
0.43532
0.43536
0.4354
0.4354
0.43544
0.435481
0.435521
0.435561
0.435561
0.435602
0.435642
0.435682
0.435723
0.435723
0.435763
0.435804
0.435844
0.435885
0.435885
0.435925
0.435966
0.436006
0.436047
0.436047
0.436088
0.436128
0.436169
0.43621
0.43621
0.43625
0.436291
0.436332
0.436373
0.436373
0.436414
0.436454
0.436495
0.436536
0.436536
0.436577
0.436618
0.436659
0.4367
0.4367
0.436741
0.436782
0.436823
0.436864
0.436864
0.436905
0.436947
0.436988
0.437029
0.437029
0.43707
0.437111
0.437153
0.437194
0.437194
0.437235
0.437277
0.437318
0.437359
0.437359
0.437401
0.437442
0.437484
0.437525
0.437525
0.437567
0.437608
0.43765
0.437692
0.437692
0.437733
0.437775
0.437817
0.437858
0.437858
0.4379
0.437942
0.437984
0.438025
0.438025
0.438067
0.438109
0.438151
0.438193
0.438193
0.438235
0.438277
0.438319
0.438361
0.438361
0.438403
0.438445
0.438487
0.438529
0.438529
0.438571
0.438613
0.438655
0.438697
0.438697
0.43874
0.438782
0.438824
0.438866
0.438866
0.438909
0.438951
0.438993
0.439036
0.439036
0.439078
0.439121
0.439163
0.439206
0.439206
0.439248
0.439291
0.439333
0.439376
0.439376
0.439419
0.439461
0.439504
0.439546
0.439546
0.439589
0.439632
0.439675
0.439717
0.439717
0.43976
0.439803
0.439846
0.439889
0.439889
0.439932
0.439975
0.440018
0.440061
0.440061
0.440104
0.440147
0.44019
0.440233
0.440233
0.440276
0.440319
0.440362
0.440405
0.440405
0.440449
0.440492
0.440535
0.440578
0.440578
0.440622
0.440665
0.440708
0.440752
0.440752
0.440795
0.440839
0.440882
0.440925
0.440925
0.440969
0.441012
0.441056
0.4411
0.4411
0.441143
0.441187
0.44123
0.441274
0.441274
0.441318
0.441362
0.441405
0.441449
0.441449
0.441493
0.441537
0.441581
0.441624
0.441624
0.441668
0.441712
0.441756
0.4418
0.4418
0.441844
0.441888
0.441932
0.441976
0.441976
0.44202
0.442064
0.442109
0.442153
0.442153
0.442197
0.442241
0.442285
0.44233
0.44233
0.442374
0.442418
0.442462
0.442507
0.442507
0.442551
0.442596
0.44264
0.442684
0.442684
0.442729
0.442773
0.442818
0.442863
0.442863
0.442907
0.442952
0.442996
0.443041
0.443041
0.443086
0.44313
0.443175
0.44322
0.44322
0.443265
0.443309
0.443354
0.443399
0.443399
0.443444
0.443489
0.443534
0.443579
0.443579
0.443624
0.443669
0.443714
0.443759
0.443759
0.443804
0.443849
0.443894
0.443939
0.443939
0.443984
0.444029
0.444075
0.44412
0.44412
0.444165
0.44421
0.444256
0.444301
0.444301
0.444346
0.444392
0.444437
0.444483
0.444483
0.444528
0.444573
0.444619
0.444664
0.444664
0.44471
0.444756
0.444801
0.444847
0.444847
0.444892
0.444938
0.444984
0.44503
0.44503
0.445075
0.445121
0.445167
0.445213
0.445213
0.445258
0.445304
0.44535
0.445396
0.445396
0.445442
0.445488
0.445534
0.44558
0.44558
0.445626
0.445672
0.445718
0.445764
0.445764
0.44581
0.445857
0.445903
0.445949
0.445949
0.445995
0.446041
0.446088
0.446134
0.446134
0.44618
0.446227
0.446273
0.446319
0.446319
0.446366
0.446412
0.446459
0.446505
0.446505
0.446552
0.446598
0.446645
0.446691
0.446691
0.446738
0.446785
0.446831
0.446878
0.446878
0.446925
0.446971
0.447018
0.447065
0.447065
0.447112
0.447159
0.447205
0.447252
0.447252
0.447299
0.447346
0.447393
0.44744
0.44744
0.447487
0.447534
0.447581
0.447628
0.447628
0.447675
0.447722
0.44777
0.447817
0.447817
0.447864
0.447911
0.447958
0.448006
0.448006
0.448053
0.4481
0.448147
0.448195
0.448195
0.448242
0.44829
0.448337
0.448385
0.448385
0.448432
0.448479
0.448527
0.448575
0.448575
0.448622
0.44867
0.448717
0.448765
0.448765
0.448813
0.44886
0.448908
0.448956
0.448956
0.449004
0.449051
0.449099
0.449147
0.449147
0.449195
0.449243
0.449291
0.449339
0.449339
0.449387
0.449434
0.449482
0.449531
0.449531
0.449579
0.449627
0.449675
0.449723
0.449723
0.449771
0.449819
0.449867
0.449916
0.449916
0.449964
0.450012
0.45006
0.450109
0.450109
0.450157
0.450205
0.450254
0.450302
0.450302
0.450351
0.450399
0.450448
0.450496
0.450496
0.450545
0.450593
0.450642
0.45069
0.45069
0.450739
0.450788
0.450836
0.450885
0.450885
0.450934
0.450982
0.451031
0.45108
0.45108
0.451129
0.451178
0.451226
0.451275
0.451275
0.451324
0.451373
0.451422
0.451471
0.451471
0.45152
0.451569
0.451618
0.451667
0.451667
0.451716
0.451765
0.451815
0.451864
0.451864
0.451913
0.451962
0.452011
0.452061
0.452061
0.45211
0.452159
0.452209
0.452258
0.452258
0.452307
0.452357
0.452406
0.452456
0.452456
0.452505
0.452555
0.452604
0.452654
0.452654
0.452703
0.452753
0.452802
0.452852
0.452852
0.452902
0.452951
0.453001
0.453051
0.453051
0.453101
0.45315
0.4532
0.45325
0.45325
0.4533
0.45335
0.4534
0.45345
0.45345
0.453499
0.453549
0.453599
0.453649
0.453649
0.4537
0.45375
0.4538
0.45385
0.45385
0.4539
0.45395
0.454
0.45405
0.45405
0.454101
0.454151
0.454201
0.454252
0.454252
0.454302
0.454352
0.454403
0.454453
0.454453
0.454503
0.454554
0.454604
0.454655
0.454655
0.454705
0.454756
0.454806
0.454857
0.454857
0.454908
0.454958
0.455009
0.455059
0.455059
0.45511
0.455161
0.455212
0.455262
0.455262
0.455313
0.455364
0.455415
0.455466
0.455466
0.455517
0.455568
0.455618
0.455669
0.455669
0.45572
0.455771
0.455822
0.455873
0.455873
0.455925
0.455976
0.456027
0.456078
0.456078
0.456129
0.45618
0.456232
0.456283
0.456283
0.456334
0.456385
0.456437
0.456488
0.456488
0.456539
0.456591
0.456642
0.456693
0.456693
0.456745
0.456796
0.456848
0.456899
0.456899
0.456951
0.457003
0.457054
0.457106
0.457106
0.457157
0.457209
0.457261
0.457312
0.457312
0.457364
0.457416
0.457468
0.457519
0.457519
0.457571
0.457623
0.457675
0.457727
0.457727
0.457779
0.457831
0.457883
0.457935
0.457935
0.457987
0.458039
0.458091
0.458143
0.458143
0.458195
0.458247
0.458299
0.458351
0.458351
0.458404
0.458456
0.458508
0.45856
0.45856
0.458613
0.458665
0.458717
0.45877
0.45877
0.458822
0.458874
0.458927
0.458979
0.458979
0.459032
0.459084
0.459137
0.459189
0.459189
0.459242
0.459294
0.459347
0.4594
0.4594
0.459452
0.459505
0.459558
0.45961
0.45961
0.459663
0.459716
0.459769
0.459821
0.459821
0.459874
0.459927
0.45998
0.460033
0.460033
0.460086
0.460139
0.460192
0.460245
0.460245
0.460298
0.460351
0.460404
0.460457
0.460457
0.46051
0.460563
0.460616
0.46067
0.46067
0.460723
0.460776
0.460829
0.460883
0.460883
0.460936
0.460989
0.461043
0.461096
0.461096
0.461149
0.461203
0.461256
0.46131
0.46131
0.461363
0.461417
0.46147
0.461524
0.461524
0.461577
0.461631
0.461685
0.461738
0.461738
0.461792
0.461846
0.461899
0.461953
0.461953
0.462007
0.462061
0.462114
0.462168
0.462168
0.462222
0.462276
0.46233
0.462384
0.462384
0.462438
0.462492
0.462546
0.4626
0.4626
0.462654
0.462708
0.462762
0.462816
0.462816
0.46287
0.462924
0.462978
0.463032
0.463032
0.463087
0.463141
0.463195
0.463249
0.463249
0.463304
0.463358
0.463412
0.463467
0.463467
0.463521
0.463576
0.46363
0.463685
0.463685
0.463739
0.463794
0.463848
0.463903
0.463903
0.463957
0.464012
0.464067
0.464121
0.464121
0.464176
0.464231
0.464285
0.46434
0.46434
0.464395
0.46445
0.464504
0.464559
0.464559
0.464614
0.464669
0.464724
0.464779
0.464779
0.464834
0.464889
0.464944
0.464999
0.464999
0.465054
0.465109
0.465164
0.465219
0.465219
0.465274
0.465329
0.465384
0.46544
0.46544
0.465495
0.46555
0.465605
0.465661
0.465661
0.465716
0.465771
0.465827
0.465882
0.465882
0.465937
0.465993
0.466048
0.466104
0.466104
0.466159
0.466215
0.46627
0.466326
0.466326
0.466381
0.466437
0.466493
0.466548
0.466548
0.466604
0.46666
0.466715
0.466771
0.466771
0.466827
0.466882
0.466938
0.466994
0.466994
0.46705
0.467106
0.467162
0.467218
0.467218
0.467274
0.46733
0.467386
0.467442
0.467442
0.467498
0.467554
0.46761
0.467666
0.467666
0.467722
0.467778
0.467834
0.46789
0.46789
0.467947
0.468003
0.468059
0.468115
0.468115
0.468172
0.468228
0.468284
0.468341
0.468341
0.468397
0.468453
0.46851
0.468566
0.468566
0.468623
0.468679
0.468736
0.468792
0.468792
0.468849
0.468906
0.468962
0.469019
0.469019
0.469075
0.469132
0.469189
0.469246
0.469246
0.469302
0.469359
0.469416
0.469473
0.469473
0.46953
0.469586
0.469643
0.4697
0.4697
0.469757
0.469814
0.469871
0.469928
0.469928
0.469985
0.470042
0.470099
0.470156
0.470156
0.470213
0.47027
0.470328
0.470385
0.470385
0.470442
0.470499
0.470556
0.470614
0.470614
0.470671
0.470728
0.470785
0.470843
0.470843
0.4709
0.470958
0.471015
0.471072
0.471072
0.47113
0.471187
0.471245
0.471302
0.471302
0.47136
0.471418
0.471475
0.471533
0.471533
0.47159
0.471648
0.471706
0.471763
0.471763
0.471821
0.471879
0.471937
0.471994
0.471994
0.472052
0.47211
0.472168
0.472226
0.472226
0.472284
0.472342
0.4724
0.472457
0.472457
0.472515
0.472573
0.472632
0.47269
0.47269
0.472748
0.472806
0.472864
0.472922
0.472922
0.47298
0.473038
0.473097
0.473155
0.473155
0.473213
0.473271
0.47333
0.473388
0.473388
0.473446
0.473505
0.473563
0.473621
0.473621
0.47368
0.473738
0.473797
0.473855
0.473855
0.473914
0.473972
0.474031
0.474089
0.474089
0.474148
0.474207
0.474265
0.474324
0.474324
0.474383
0.474441
0.4745
0.474559
0.474559
0.474618
0.474676
0.474735
0.474794
0.474794
0.474853
0.474912
0.474971
0.47503
0.47503
0.475089
0.475148
0.475207
0.475266
0.475266
0.475325
0.475384
0.475443
0.475502
0.475502
0.475561
0.47562
0.475679
0.475739
0.475739
0.475798
0.475857
0.475916
0.475976
0.475976
0.476035
0.476094
0.476154
0.476213
0.476213
0.476272
0.476332
0.476391
0.476451
0.476451
0.47651
0.47657
0.476629
0.476689
0.476689
0.476748
0.476808
0.476867
0.476927
0.476927
0.476987
0.477046
0.477106
0.477166
0.477166
0.477226
0.477285
0.477345
0.477405
0.477405
0.477465
0.477525
0.477584
0.477644
0.477644
0.477704
0.477764
0.477824
0.477884
0.477884
0.477944
0.478004
0.478064
0.478124
0.478124
0.478184
0.478244
0.478305
0.478365
0.478365
0.478425
0.478485
0.478545
0.478605
0.478605
0.478666
0.478726
0.478786
0.478847
0.478847
0.478907
0.478967
0.479028
0.479088
0.479088
0.479149
0.479209
0.479269
0.47933
0.47933
0.47939
0.479451
0.479512
0.479572
0.479572
0.479633
0.479693
0.479754
0.479815
0.479815
0.479875
0.479936
0.479997
0.480058
0.480058
0.480118
0.480179
0.48024
0.480301
0.480301
0.480362
0.480423
0.480483
0.480544
0.480544
0.480605
0.480666
0.480727
0.480788
0.480788
0.480849
0.48091
0.480971
0.481032
0.481032
0.481094
0.481155
0.481216
0.481277
0.481277
0.481338
0.481399
0.481461
0.481522
0.481522
0.481583
0.481645
0.481706
0.481767
0.481767
0.481829
0.48189
0.481951
0.482013
0.482013
0.482074
0.482136
0.482197
0.482259
0.482259
0.48232
0.482382
0.482443
0.482505
0.482505
0.482567
0.482628
0.48269
0.482752
0.482752
0.482813
0.482875
0.482937
0.482999
0.482999
0.48306
0.483122
0.483184
0.483246
0.483246
0.483308
0.48337
0.483432
0.483494
0.483494
0.483556
0.483618
0.48368
0.483742
0.483742
0.483804
0.483866
0.483928
0.48399
0.48399
0.484052
0.484114
0.484176
0.484239
0.484239
0.484301
0.484363
0.484425
0.484488
0.484488
0.48455
0.484612
0.484675
0.484737
0.484737
0.484799
0.484862
0.484924
0.484987
0.484987
0.485049
0.485112
0.485174
0.485237
0.485237
0.485299
0.485362
0.485424
0.485487
0.485487
0.48555
0.485612
0.485675
0.485738
0.485738
0.4858
0.485863
0.485926
0.485989
0.485989
0.486051
0.486114
0.486177
0.48624
0.48624
0.486303
0.486366
0.486429
0.486492
0.486492
0.486555
0.486618
0.486681
0.486744
0.486744
0.486807
0.48687
0.486933
0.486996
0.486996
0.487059
0.487122
0.487186
0.487249
0.487249
0.487312
0.487375
0.487438
0.487502
0.487502
0.487565
0.487628
0.487692
0.487755
0.487755
0.487819
0.487882
0.487945
0.488009
0.488009
0.488072
0.488136
0.488199
0.488263
0.488263
0.488326
0.48839
0.488454
0.488517
0.488517
0.488581
0.488644
0.488708
0.488772
0.488772
0.488836
0.488899
0.488963
0.489027
0.489027
0.489091
0.489154
0.489218
0.489282
0.489282
0.489346
0.48941
0.489474
0.489538
0.489538
0.489602
0.489666
0.48973
0.489794
0.489794
0.489858
0.489922
0.489986
0.49005
0.49005
0.490114
0.490179
0.490243
0.490307
0.490307
0.490371
0.490435
0.4905
0.490564
0.490564
0.490628
0.490692
0.490757
0.490821
0.490821
0.490886
0.49095
0.491014
0.491079
0.491079
0.491143
0.491208
0.491272
0.491337
0.491337
0.491401
0.491466
0.491531
0.491595
0.491595
0.49166
0.491724
0.491789
0.491854
0.491854
0.491918
0.491983
0.492048
0.492113
0.492113
0.492178
0.492242
0.492307
0.492372
0.492372
0.492437
0.492502
0.492567
0.492632
0.492632
0.492697
0.492762
0.492827
0.492892
0.492892
0.492957
0.493022
0.493087
0.493152
0.493152
0.493217
0.493282
0.493347
0.493412
0.493412
0.493478
0.493543
0.493608
0.493673
0.493673
0.493739
0.493804
0.493869
0.493935
0.493935
0.494
0.494065
0.494131
0.494196
0.494196
0.494262
0.494327
0.494393
0.494458
0.494458
0.494524
0.494589
0.494655
0.49472
0.49472
0.494786
0.494851
0.494917
0.494983
0.494983
0.495048
0.495114
0.49518
0.495246
0.495246
0.495311
0.495377
0.495443
0.495509
0.495509
0.495575
0.495641
0.495706
0.495772
0.495772
0.495838
0.495904
0.49597
0.496036
0.496036
0.496102
0.496168
0.496234
0.4963
0.4963
0.496366
0.496432
0.496499
0.496565
0.496565
0.496631
0.496697
0.496763
0.49683
0.49683
0.496896
0.496962
0.497028
0.497095
0.497095
0.497161
0.497227
0.497294
0.49736
0.49736
0.497426
0.497493
0.497559
0.497626