<?xml version="1.0"?>
<VTKFile type="UnstructuredGrid" version="0.1" byte_order="LittleEndian">
<UnstructuredGrid>
<Piece NumberOfPoints="5000" NumberOfCells="4000">
<PointData Scalars="Reaction 0">
<DataArray type="Float32" Name="Reaction 0" format="ascii">
0.564665
0.564665
0.564665
0.564665
0.564665
0.564665
0.564665
0.564665
0.564665
0.564665
0.564665
0.564665
0.564665
0.564665
0.564665
0.564665
0.564665
0.564666
0.564666
0.564666
0.564666
0.564666
0.564666
0.564666
0.564666
0.564666
0.564667
0.564667
0.564667
0.564667
0.564667
0.564667
0.564667
0.564668
0.564668
0.564668
0.564668
0.564668
0.564669
0.564669
0.564669
0.564669
0.564669
0.56467
0.56467
0.56467
0.56467
0.56467
0.564671
0.564671
0.564671
0.564671
0.564672
0.564672
0.564672
0.564672
0.564673
0.564673
0.564673
0.564674
0.564674
0.564674
0.564674
0.564675
0.564675
0.564675
0.564676
0.564676
0.564677
0.564677
0.564677
0.564677
0.564678
0.564678
0.564679
0.564679
0.564679
0.56468
0.56468
0.564681
0.564681
0.564681
0.564682
0.564682
0.564683
0.564683
0.564683
0.564684
0.564684
0.564685
0.564685
0.564685
0.564686
0.564687
0.564687
0.564687
0.564688
0.564688
0.564689
0.56469
0.56469
0.56469
0.564691
0.564691
0.564692
0.564692
0.564693
0.564693
0.564694
0.564695
0.564695
0.564695
0.564696
0.564697
0.564698
0.564698
0.564698
0.564699
0.5647
0.564701
0.564701
0.564701
0.564702
0.564703
0.564704
0.564704
0.564704
0.564705
0.564706
0.564707
0.564707
0.564708
0.564708
0.564709
0.56471
0.56471
0.564711
0.564712
0.564713
0.564713
0.564713
0.564714
0.564715
0.564716
0.564717
0.564717
0.564718
0.564719
0.56472
0.564721
0.564721
0.564722
0.564722
0.564723
0.564724
0.564724
0.564725
0.564726
0.564727
0.564728
0.564728
0.564729
0.56473
0.564731
0.564732
0.564732
0.564733
0.564734
0.564735
0.564737
0.564737
0.564738
0.564739
0.56474
0.564741
0.564741
0.564742
0.564743
0.564744
0.564745
0.564745
0.564746
0.564747
0.564749
0.56475
0.56475
0.564751
0.564752
0.564753
0.564754
0.564754
0.564756
0.564757
0.564758
0.564759
0.564759
0.56476
0.564762
0.564763
0.564764
0.564764
0.564765
0.564767
0.564768
0.564769
0.564769
0.56477
0.564772
0.564773
0.564774
0.564774
0.564776
0.564777
0.564778
0.56478
0.56478
0.564781
0.564782
0.564784
0.564785
0.564785
0.564786
0.564788
0.564789
0.564791
0.564791
0.564792
0.564793
0.564795
0.564796
0.564796
0.564798
0.564799
0.564801
0.564802
0.564802
0.564804
0.564805
0.564807
0.564808
0.564808
0.56481
0.564811
0.564813
0.564814
0.564814
0.564816
0.564817
0.564819
0.56482
0.56482
0.564822
0.564823
0.564825
0.564827
0.564827
0.564828
0.56483
0.564831
0.564833
0.564833
0.564835
0.564836
0.564838
0.56484
0.56484
0.564841
0.564843
0.564845
0.564846
0.564846
0.564848
0.56485
0.564851
0.564853
0.564853
0.564855
0.564857
0.564858
0.56486
0.56486
0.564862
0.564864
0.564865
0.564867
0.564867
0.564869
0.564871
0.564873
0.564874
0.564874
0.564876
0.564878
0.56488
0.564882
0.564882
0.564884
0.564885
0.564887
0.564889
0.564889
0.564891
0.564893
0.564895
0.564897
0.564897
0.564899
0.564901
0.564903
0.564905
0.564905
0.564906
0.564908
0.56491
0.564912
0.564912
0.564914
0.564916
0.564918
0.56492
0.56492
0.564922
0.564924
0.564926
0.564929
0.564929
0.564931
0.564933
0.564935
0.564937
0.564937
0.564939
0.564941
0.564943
0.564945
0.564945
0.564947
0.564949
0.564951
0.564954
0.564954
0.564956
0.564958
0.56496
0.564962
0.564962
0.564964
0.564967
0.564969
0.564971
0.564971
0.564973
0.564975
0.564978
0.56498
0.56498
0.564982
0.564984
0.564987
0.564989
0.564989
0.564991
0.564994
0.564996
0.564998
0.564998
0.565
0.565003
0.565005
0.565007
0.565007
0.56501
0.565012
0.565015
0.565017
0.565017
0.565019
0.565022
0.565024
0.565026
0.565026
0.565029
0.565031
0.565034
0.565036
0.565036
0.565039
0.565041
0.565043
0.565046
0.565046
0.565048
0.565051
0.565053
0.565056
0.565056
0.565058
0.565061
0.565063
0.565066
0.565066
0.565069
0.565071
0.565074
0.565076
0.565076
0.565079
0.565081
0.565084
0.565087
0.565087
0.565089
0.565092
0.565094
0.565097
0.565097
0.5651
0.565102
0.565105
0.565108
0.565108
0.56511
0.565113
0.565116
0.565118
0.565118
0.565121
0.565124
0.565127
0.565129
0.565129
0.565132
0.565135
0.565138
0.56514
0.56514
0.565143
0.565146
0.565149
0.565152
0.565152
0.565154
0.565157
0.56516
0.565163
0.565163
0.565166
0.565169
0.565171
0.565174
0.565174
0.565177
0.56518
0.565183
0.565186
0.565186
0.565189
0.565192
0.565195
0.565198
0.565198
0.565201
0.565204
0.565207
0.565209
0.565209
0.565212
0.565215
0.565218
0.565221
0.565221
0.565224
0.565228
0.565231
0.565234
0.565234
0.565237
0.56524
0.565243
0.565246
0.565246
0.565249
0.565252
0.565255
0.565258
0.565258
0.565261
0.565265
0.565268
0.565271
0.565271
0.565274
0.565277
0.56528
0.565283
0.565283
0.565287
0.56529
0.565293
0.565296
0.565296
0.5653
0.565303
0.565306
0.565309
0.565309
0.565313
0.565316
0.565319
0.565322
0.565322
0.565326
0.565329
0.565332
0.565336
0.565336
0.565339
0.565342
0.565346
0.565349
0.565349
0.565352
0.565356
0.565359
0.565362
0.565362
0.565366
0.565369
0.565373
0.565376
0.565376
0.56538
0.565383
0.565386
0.56539
0.56539
0.565393
0.565397
0.5654
0.565404
0.565404
0.565407
0.565411
0.565414
0.565418
0.565418
0.565421
0.565425
0.565429
0.565432
0.565432
0.565436
0.565439
0.565443
0.565447
0.565447
0.56545
0.565454
0.565457
0.565461
0.565461
0.565465
0.565468
0.565472
0.565476
0.565476
0.565479
0.565483
0.565487
0.56549
0.56549
0.565494
0.565498
0.565502
0.565505
0.565505
0.565509
0.565513
0.565517
0.565521
0.565521
0.565524
0.565528
0.565532
0.565536
0.565536
0.56554
0.565543
0.565547
0.565551
0.565551
0.565555
0.565559
0.565563
0.565567
0.565567
0.565571
0.565574
0.565578
0.565582
0.565582
0.565586
0.56559
0.565594
0.565598
0.565598
0.565602
0.565606
0.56561
0.565614
0.565614
0.565618
0.565622
0.565626
0.56563
0.56563
0.565634
0.565638
0.565642
0.565646
0.565646
0.56565
0.565655
0.565659
0.565663
0.565663
0.565667
0.565671
0.565675
0.565679
0.565679
0.565684
0.565688
0.565692
0.565696
0.565696
0.5657
0.565704
0.565709
0.565713
0.565713
0.565717
0.565721
0.565726
0.56573
0.56573
0.565734
0.565738
0.565743
0.565747
0.565747
0.565751
0.565756
0.56576
0.565764
0.565764
0.565769
0.565773
0.565777
0.565782
0.565782
0.565786
0.565791
0.565795
0.565799
0.565799
0.565804
0.565808
0.565813
0.565817
0.565817
0.565822
0.565826
0.56583
0.565835
0.565835
0.565839
0.565844
0.565848
0.565853
0.565853
0.565858
0.565862
0.565867
0.565871
0.565871
0.565876
0.56588
0.565885
0.56589
0.56589
0.565894
0.565899
0.565903
0.565908
0.565908
0.565913
0.565917
0.565922
0.565927
0.565927
0.565931
0.565936
0.565941
0.565946
0.565946
0.56595
0.565955
0.56596
0.565965
0.565965
0.565969
0.565974
0.565979
0.565984
0.565984
0.565988
0.565993
0.565998
0.566003
0.566003
0.566008
0.566013
0.566017
0.566022
0.566022
0.566027
0.566032
0.566037
0.566042
0.566042
0.566047
0.566052
0.566057
0.566062
0.566062
0.566067
0.566072
0.566077
0.566082
0.566082
0.566087
0.566092
0.566097
0.566102
0.566102
0.566107
0.566112
0.566117
0.566122
0.566122
0.566127
0.566132
0.566137
0.566142
0.566142
0.566147
0.566153
0.566158
0.566163
0.566163
0.566168
0.566173
0.566178
0.566184
0.566184
0.566189
0.566194
0.566199
0.566204
0.566204
0.56621
0.566215
0.56622
0.566225
0.566225
0.566231
0.566236
0.566241
0.566247
0.566247
0.566252
0.566257
0.566263
0.566268
0.566268
0.566273
0.566279
0.566284
0.566289
0.566289
0.566295
0.5663
0.566306
0.566311
0.566311
0.566317
0.566322
0.566327
0.566333
0.566333
0.566338
0.566344
0.566349
0.566355
0.566355
0.56636
0.566366
0.566372
0.566377
0.566377
0.566383
0.566388
0.566394
0.566399
0.566399
0.566405
0.566411
0.566416
0.566422
0.566422
0.566428
0.566433
0.566439
0.566445
0.566445
0.56645
0.566456
0.566462
0.566467
0.566467
0.566473
0.566479
0.566485
0.56649
0.56649
0.566496
0.566502
0.566508
0.566514
0.566514
0.566519
0.566525
0.566531
0.566537
0.566537
0.566543
0.566549
0.566554
0.56656
0.56656
0.566566
0.566572
0.566578
0.566584
0.566584
0.56659
0.566596
0.566602
0.566608
0.566608
0.566614
0.56662
0.566626
0.566632
0.566632
0.566638
0.566644
0.56665
0.566656
0.566656
0.566662
0.566668
0.566674
0.56668
0.56668
0.566687
0.566693
0.566699
0.566705
0.566705
0.566711
0.566717
0.566723
0.56673
0.56673
0.566736
0.566742
0.566748
0.566754
0.566754
0.566761
0.566767
0.566773
0.56678
0.56678
0.566786
0.566792
0.566798
0.566805
0.566805
0.566811
0.566817
0.566824
0.56683
0.56683
0.566836
0.566843
0.566849
0.566856
0.566856
0.566862
0.566869
0.566875
0.566881
0.566881
0.566888
0.566894
0.566901
0.566907
0.566907
0.566914
0.56692
0.566927
0.566933
0.566933
0.56694
0.566947
0.566953
0.56696
0.56696
0.566966
0.566973
0.566979
0.566986
0.566986
0.566993
0.566999
0.567006
0.567013
0.567013
0.567019
0.567026
0.567033
0.56704
0.56704
0.567046
0.567053
0.56706
0.567067
0.567067
0.567073
0.56708
0.567087
0.567094
0.567094
0.567101
0.567107
0.567114
0.567121
0.567121
0.567128
0.567135
0.567142
0.567149
0.567149
0.567156
0.567162
0.567169
0.567176
0.567176
0.567183
0.56719
0.567197
0.567204
0.567204
0.567211
0.567218
0.567225
0.567232
0.567232
0.567239
0.567246
0.567253
0.567261
0.567261
0.567268
0.567275
0.567282
0.567289
0.567289
0.567296
0.567303
0.56731
0.567318
0.567318
0.567325
0.567332
0.567339
0.567346
0.567346
0.567354
0.567361
0.567368
0.567375
0.567375
0.567383
0.56739
0.567397
0.567405
0.567405
0.567412
0.567419
0.567427
0.567434
0.567434
0.567441
0.567449
0.567456
0.567464
0.567464
0.567471
0.567478
0.567486
0.567493
0.567493
0.567501
0.567508
0.567516
0.567523
0.567523
0.567531
0.567538
0.567546
0.567553
0.567553
0.567561
0.567569
0.567576
0.567584
0.567584
0.567591
0.567599
0.567607
0.567614
0.567614
0.567622
0.56763
0.567637
0.567645
0.567645
0.567653
0.567661
0.567668
0.567676
0.567676
0.567684
0.567692
0.567699
0.567707
0.567707
0.567715
0.567723
0.567731
0.567738
0.567738
0.567746
0.567754
0.567762
0.56777
0.56777
0.567778
0.567786
0.567794
0.567802
0.567802
0.56781
0.567818
0.567826
0.567834
0.567834
0.567842
0.56785
0.567858
0.567866
0.567866
0.567874
0.567882
0.56789
0.567898
0.567898
0.567906
0.567914
0.567922
0.56793
0.56793
0.567939
0.567947
0.567955
0.567963
0.567963
0.567971
0.56798
0.567988
0.567996
0.567996
0.568004
0.568013
0.568021
0.568029
0.568029
0.568037
0.568046
0.568054
0.568062
0.568062
0.568071
0.568079
0.568088
0.568096
0.568096
0.568104
0.568113
0.568121
0.56813
0.56813
0.568138
0.568147
0.568155
0.568164
0.568164
0.568172
0.568181
0.568189
0.568198
0.568198
0.568206
0.568215
0.568223
0.568232
0.568232
0.568241
0.568249
0.568258
0.568267
0.568267
0.568275
0.568284
0.568293
0.568301
0.568301
0.56831
0.568319
0.568327
0.568336
0.568336
0.568345
0.568354
0.568363
0.568371
0.568371
0.56838
0.568389
0.568398
0.568407
0.568407
0.568416
0.568424
0.568433
0.568442
0.568442
0.568451
0.56846
0.568469
0.568478
0.568478
0.568487
0.568496
0.568505
0.568514
0.568514
0.568523
0.568532
0.568541
0.56855
0.56855
0.568559
0.568568
0.568578
0.568587
0.568587
0.568596
0.568605
0.568614
0.568623
0.568623
0.568633
0.568642
0.568651
0.56866
0.56866
0.568669
0.568679
0.568688
0.568697
0.568697
0.568707
0.568716
0.568725
0.568735
0.568735
0.568744
0.568753
0.568763
0.568772
0.568772
0.568782
0.568791
0.5688
0.56881
0.56881
0.568819
0.568829
0.568838
0.568848
0.568848
0.568857
0.568867
0.568876
0.568886
0.568886
0.568896
0.568905
0.568915
0.568924
0.568924
0.568934
0.568944
0.568953
0.568963
0.568963
0.568973
0.568982
0.568992
0.569002
0.569002
0.569012
0.569021
0.569031
0.569041
0.569041
0.569051
0.56906
0.56907
0.56908
0.56908
0.56909
0.5691
0.56911
0.56912
0.56912
0.56913
0.569139
0.569149
0.569159
0.569159
0.569169
0.569179
0.569189
0.569199
0.569199
0.569209
0.569219
0.569229
0.56924
0.56924
0.56925
0.56926
0.56927
0.56928
0.56928
0.56929
0.5693
0.56931
0.569321
0.569321
0.569331
0.569341
0.569351
0.569361
0.569361
0.569372
0.569382
0.569392
0.569403
0.569403
0.569413
0.569423
0.569434
0.569444
0.569444
0.569454
0.569465
0.569475
0.569485
0.569485
0.569496
0.569506
0.569517
0.569527
0.569527
0.569538
0.569548
0.569559
0.569569
0.569569
0.56958
0.56959
0.569601
0.569612
0.569612
0.569622
0.569633
0.569643
0.569654
0.569654
0.569665
0.569675
0.569686
0.569697
0.569697
0.569708
0.569718
0.569729
0.56974
0.56974
0.569751
0.569761
0.569772
0.569783
0.569783
0.569794
0.569805
0.569816
0.569827
0.569827
0.569837
0.569848
0.569859
0.56987
0.56987
0.569881
0.569892
0.569903
0.569914
0.569914
0.569925
0.569936
0.569947
0.569958
0.569958
0.569969
0.569981
0.569992
0.570003
0.570003
0.570014
0.570025
0.570036
0.570048
0.570048
0.570059
0.57007
0.570081
0.570092
0.570092
0.570104
0.570115
0.570126
0.570138
0.570138
0.570149
0.57016
0.570172
0.570183
0.570183
0.570194
0.570206
0.570217
0.570229
0.570229
0.57024
0.570252
0.570263
0.570275
0.570275
0.570286
0.570298
0.570309
0.570321
0.570321
0.570332
0.570344
0.570356
0.570367
0.570367
0.570379
0.570391
0.570402
0.570414
0.570414
0.570426
0.570437
0.570449
0.570461
0.570461
0.570473
0.570484
0.570496
0.570508
0.570508
0.57052
0.570532
0.570544
0.570555
0.570555
0.570567
0.570579
0.570591
0.570603
0.570603
0.570615
0.570627
0.570639
0.570651
0.570651
0.570663
0.570675
0.570687
0.570699
0.570699
0.570711
0.570723
0.570736
0.570748
0.570748
0.57076
0.570772
0.570784
0.570796
0.570796
0.570809
0.570821
0.570833
0.570845
0.570845
0.570858
0.57087
0.570882
0.570895
0.570895
0.570907
0.570919
0.570932
0.570944
0.570944
0.570957
0.570969
0.570982
0.570994
0.570994
0.571006
0.571019
0.571031
0.571044
0.571044
0.571057
0.571069
0.571082
0.571094
0.571094
0.571107
0.57112
0.571132
0.571145
0.571145
0.571158
0.57117
0.571183
0.571196
0.571196
0.571208
0.571221
0.571234
0.571247
0.571247
0.57126
0.571273
0.571285
0.571298
0.571298
0.571311
0.571324
0.571337
0.57135
0.57135
0.571363
0.571376
0.571389
0.571402
0.571402
0.571415
0.571428
0.571441
0.571454
0.571454
0.571467
0.57148
0.571493
0.571506
0.571506
0.57152
0.571533
0.571546
0.571559
0.571559
0.571572
0.571586
0.571599
0.571612
0.571612
0.571626
0.571639
0.571652
0.571666
0.571666
0.571679
0.571692
0.571706
0.571719
0.571719
0.571733
0.571746
0.571759
0.571773
0.571773
0.571786
0.5718
0.571814
0.571827
0.571827
0.571841
0.571854
0.571868
0.571881
0.571881
0.571895
0.571909
0.571922
0.571936
0.571936
0.57195
0.571964
0.571977
0.571991
0.571991
0.572005
0.572019
0.572033
0.572046
0.572046
0.57206
0.572074
0.572088
0.572102
0.572102
0.572116
0.57213
0.572144
0.572158
0.572158
0.572172
0.572186
0.5722
0.572214
0.572214
0.572228
0.572242
0.572256
0.57227
0.57227
0.572284
0.572299
0.572313
0.572327
0.572327
0.572341
0.572355
0.57237
0.572384
0.572384
0.572398
0.572413
0.572427
0.572441
0.572441
0.572456
0.57247
0.572484
0.572499
0.572499
0.572513
0.572528
0.572542
0.572557
0.572557
0.572571
0.572586
0.5726
0.572615
0.572615
0.572629
0.572644
0.572659
0.572673
0.572673
0.572688
0.572703
0.572717
0.572732
0.572732
0.572747
0.572762
0.572776
0.572791
0.572791
0.572806
0.572821
0.572836
0.57285
0.57285
0.572865
0.57288
0.572895
0.57291
0.57291
0.572925
0.57294
0.572955
0.57297
0.57297
0.572985
0.573
0.573015
0.57303
0.57303
0.573045
0.573061
0.573076
0.573091
0.573091
0.573106
0.573121
0.573137
0.573152
0.573152
0.573167
0.573182
0.573198
0.573213
0.573213
0.573228
0.573244
0.573259
0.573274
0.573274
0.57329
0.573305
0.573321
0.573336
0.573336
0.573352
0.573367
0.573383
0.573398
0.573398
0.573414
0.573429
0.573445
0.573461
0.573461
0.573476
0.573492
0.573508
0.573523
0.573523
0.573539
0.573555
0.573571
0.573586
0.573586
0.573602
0.573618
0.573634
0.57365
0.57365
0.573666
0.573682
0.573698
0.573713
0.573713
0.573729
0.573745
0.573761
0.573777
0.573777
0.573793
0.57381
0.573826
0.573842
0.573842
0.573858
0.573874
0.57389
0.573906
0.573906
0.573923
0.573939
0.573955
0.573971
0.573971
0.573988
0.574004
0.57402
0.574036
0.574036
0.574053
0.574069
0.574086
0.574102
0.574102
0.574119
0.574135
0.574151
0.574168
0.574168
0.574184
0.574201
0.574218
0.574234
0.574234
0.574251
0.574267
0.574284
0.574301
0.574301
0.574317
0.574334
0.574351
0.574368
0.574368
0.574384
0.574401
0.574418
0.574435
0.574435
0.574452
0.574468
0.574485
0.574502
0.574502
0.574519
0.574536
0.574553
0.57457
0.57457
0.574587
0.574604
0.574621
0.574638
0.574638
0.574655
0.574673
0.57469
0.574707
0.574707
0.574724
0.574741
0.574758
0.574776
0.574776
0.574793
0.57481
0.574828
0.574845
0.574845
0.574862
0.57488
0.574897
0.574914
0.574914
0.574932
0.574949
0.574967
0.574984
0.574984
0.575002
0.575019
0.575037
0.575054
0.575054
0.575072
0.57509
0.575107
0.575125
0.575125
0.575143
0.57516
0.575178
0.575196
0.575196
0.575214
0.575231
0.575249
0.575267
0.575267
0.575285
0.575303
0.575321
0.575339
0.575339
0.575357
0.575375
0.575393
0.575411
0.575411
0.575429
0.575447
0.575465
0.575483
0.575483
0.575501
0.575519
0.575537
0.575555
0.575555
0.575574
0.575592
0.57561
0.575628
0.575628
0.575647
0.575665
0.575683
0.575702
0.575702
0.57572
0.575738
0.575757
0.575775
0.575775
0.575794
0.575812
0.575831
0.575849
0.575849
0.575868
0.575886
0.575905
0.575924
0.575924
0.575942
0.575961
0.57598
0.575998
0.575998
0.576017
0.576036
0.576055
0.576073
0.576073
0.576092
0.576111
0.57613
0.576149
0.576149
0.576168
0.576187
0.576206
0.576225
0.576225
0.576244
0.576263
0.576282
0.576301
0.576301
0.57632
0.576339
0.576358
0.576377
0.576377
0.576396
0.576415
0.576435
0.576454
0.576454
0.576473
0.576493
0.576512
0.576531
0.576531
0.576551
0.57657
0.576589
0.576609
0.576609
0.576628
0.576648
0.576667
0.576687
0.576687
0.576706
0.576726
0.576745
0.576765
0.576765
0.576785
0.576804
0.576824
0.576844
0.576844
0.576863
0.576883
0.576903
0.576923
0.576923
0.576942
0.576962
0.576982
0.577002
0.577002
0.577022
0.577042
0.577062
0.577082
0.577082
0.577102
0.577122
0.577142
0.577162
0.577162
0.577182
0.577202
0.577222
0.577242
0.577242
0.577263
0.577283
0.577303
0.577323
0.577323
0.577344
0.577364
0.577384
0.577405
0.577405
0.577425
0.577445
0.577466
0.577486
0.577486
0.577507
0.577527
0.577548
0.577568
0.577568
0.577589
0.577609
0.57763
0.577651
0.577651
0.577671
0.577692
0.577713
0.577733
0.577733
0.577754
0.577775
0.577796
0.577817
0.577817
0.577837
0.577858
0.577879
0.5779
0.5779
0.577921
0.577942
0.577963
0.577984
0.577984
0.578005
0.578026
0.578047
0.578068
0.578068
0.57809
0.578111
0.578132
0.578153
0.578153
0.578174
0.578196
0.578217
0.578238
0.578238
0.57826
0.578281
0.578302
0.578324
0.578324
0.578345
0.578367
0.578388
0.57841
0.57841
0.578431
0.578453
0.578474
0.578496
0.578496
0.578517
0.578539
0.578561
0.578582
0.578582
0.578604
0.578626
0.578648
0.57867
0.57867
0.578691
0.578713
0.578735
0.578757
0.578757
0.578779
0.578801
0.578823
0.578845
0.578845
0.578867
0.578889
0.578911
0.578933
0.578933
0.578955
0.578977
0.578999
0.579022
0.579022
0.579044
0.579066
0.579088
0.579111
0.579111
0.579133
0.579155
0.579178
0.5792
0.5792
0.579223
0.579245
0.579267
0.57929
0.57929
0.579312
0.579335
0.579358
0.57938
0.57938
0.579403
0.579425
0.579448
0.579471
0.579471
0.579494
0.579516
0.579539
0.579562
0.579562
0.579585
0.579608
0.57963
0.579653
0.579653
0.579676
0.579699
0.579722
0.579745
0.579745
0.579768
0.579791
0.579814
0.579837
0.579837
0.579861
0.579884
0.579907
0.57993
0.57993
0.579953
0.579977
0.58
0.580023
0.580023
0.580047
0.58007
0.580093
0.580117
0.580117
0.58014
0.580164
0.580187
0.580211
0.580211
0.580234
0.580258
0.580281
0.580305
0.580305
0.580329
0.580352
0.580376
0.5804
0.5804
0.580424
0.580447
0.580471
0.580495
0.580495
0.580519
0.580543
0.580567
0.580591
0.580591
0.580615
0.580639
0.580663
0.580687
0.580687
0.580711
0.580735
0.580759
0.580783
0.580783
0.580807
0.580831
0.580856
0.58088
0.58088
0.580904
0.580928
0.580953
0.580977
0.580977
0.581002
0.581026
0.58105
0.581075
0.581075
0.581099
0.581124
0.581148
0.581173
0.581173
0.581198
0.581222
0.581247
0.581272
0.581272
0.581296
0.581321
0.581346
0.581371
0.581371
0.581395
0.58142
0.581445
0.58147
0.58147
0.581495
0.58152
0.581545
0.58157
0.58157
0.581595
0.58162
0.581645
0.58167
0.58167
0.581695
0.581721
0.581746
0.581771
0.581771
0.581796
0.581821
0.581847
0.581872
0.581872
0.581897
0.581923
0.581948
0.581974
0.581974
0.581999
0.582025
0.58205
0.582076
0.582076
0.582101
0.582127
0.582153
0.582178
0.582178
0.582204
0.58223
0.582255
0.582281
0.582281
0.582307
0.582333
0.582359
0.582384
0.582384
0.58241
0.582436
0.582462
0.582488
0.582488
0.582514
0.58254
0.582566
0.582593
0.582593
0.582619
0.582645
0.582671
0.582697
0.582697
0.582723
0.58275
0.582776
0.582802
0.582802
0.582829
0.582855
0.582882
0.582908
0.582908
0.582934
0.582961
0.582987
0.583014
0.583014
0.583041
0.583067
0.583094
0.58312
0.58312
0.583147
0.583174
0.583201
0.583227
0.583227
0.583254
0.583281
0.583308
0.583335
0.583335
0.583362
0.583389
0.583416
0.583443
0.583443
0.58347
0.583497
0.583524
0.583551
0.583551
0.583578
0.583605
0.583632
0.58366
0.58366
0.583687
0.583714
0.583742
0.583769
0.583769
0.583796
0.583824
0.583851
0.583879
0.583879
0.583906
0.583934
0.583961
0.583989
0.583989
0.584016
0.584044
0.584072
0.584099
0.584099
0.584127
0.584155
0.584182
0.58421
0.58421
0.584238
0.584266
0.584294
0.584322
0.584322
0.58435
0.584378
0.584406
0.584434
0.584434
0.584462
0.58449
0.584518
0.584546
0.584546
0.584574
0.584603
0.584631
0.584659
0.584659
0.584687
0.584716
0.584744
0.584772
0.584772
0.584801
0.584829
0.584858
0.584886
0.584886
0.584915
0.584943
0.584972
0.585001
0.585001
0.585029
0.585058
0.585087
0.585115
0.585115
0.585144
0.585173
0.585202
0.585231
0.585231
0.585259
0.585288
0.585317
0.585346
0.585346
0.585375
0.585404
0.585433
0.585463
0.585463
0.585492
0.585521
0.58555
0.585579
0.585579
0.585608
0.585638
0.585667
0.585696
0.585696
0.585726
0.585755
0.585784
0.585814
0.585814
0.585843
0.585873
0.585902
0.585932
0.585932
0.585962
0.585991
0.586021
0.586051
0.586051
0.58608
0.58611
0.58614
0.58617
0.58617
0.586199
0.586229
0.586259
0.586289
0.586289
0.586319
0.586349
0.586379
0.586409
0.586409
0.586439
0.586469
0.5865
0.58653
0.58653
0.58656
0.58659
0.58662
0.586651
0.586651
0.586681
0.586711
0.586742
0.586772
0.586772
0.586803
0.586833
0.586864
0.586894
0.586894
0.586925
0.586955
0.586986
0.587017
0.587017
0.587047
0.587078
0.587109
0.58714
0.58714
0.58717
0.587201
0.587232
0.587263
0.587263
0.587294
0.587325
0.587356
0.587387
0.587387
0.587418
0.587449
0.58748
0.587511
0.587511
0.587542
0.587574
0.587605
0.587636
0.587636
0.587667
0.587699
0.58773
0.587762
0.587762
0.587793
0.587824
0.587856
0.587887
0.587887
0.587919
0.587951
0.587982
0.588014
0.588014
0.588045
0.588077
0.588109
0.588141
0.588141
0.588172
0.588204
0.588236
0.588268
0.588268
0.5883
0.588332
0.588364
0.588396
0.588396
0.588428
0.58846
0.588492
0.588524
0.588524
0.588557
0.588589
0.588621
0.588653
0.588653
0.588686
0.588718
0.58875
0.588783
0.588783
0.588815
0.588847
0.58888
0.588912
0.588912
0.588945
0.588978
0.58901
0.589043
0.589043
0.589076
0.589108
0.589141
0.589174
0.589174
0.589207
0.589239
0.589272
0.589305
0.589305
0.589338
0.589371
0.589404
0.589437
0.589437
0.58947
0.589503
0.589536
0.589569
0.589569
0.589603
0.589636
0.589669
0.589702
0.589702
0.589736
0.589769
0.589802
0.589836
0.589836
0.589869
0.589903
0.589936
0.58997
0.58997
0.590003
0.590037
0.59007
0.590104
0.590104
0.590138
0.590172
0.590205
0.590239
0.590239
0.590273
0.590307
0.590341
0.590375
0.590375
0.590409
0.590442
0.590476
0.590511
0.590511
0.590545
0.590579
0.590613
0.590647
0.590647
0.590681
0.590715
0.59075
0.590784
0.590784
0.590818
0.590853
0.590887
0.590922
0.590922
0.590956
0.590991
0.591025
0.59106
0.59106
0.591094
0.591129
0.591163
0.591198
0.591198
0.591233
0.591268
0.591302
0.591337
0.591337
0.591372
0.591407
0.591442
0.591477
0.591477
0.591512
0.591547
0.591582
0.591617
0.591617
0.591652
0.591687
0.591722
0.591758
0.591758
0.591793
0.591828
0.591863
0.591899
0.591899
0.591934
0.59197
0.592005
0.59204
0.59204
0.592076
0.592111
0.592147
0.592183
0.592183
0.592218
0.592254
0.59229
0.592325
0.592325
0.592361
0.592397
0.592433
0.592469
0.592469
0.592504
0.59254
0.592576
0.592612
0.592612
0.592648
0.592684
0.592721
0.592757
0.592757
0.592793
0.592829
0.592865
0.592901
0.592901
0.592938
0.592974
0.59301
0.593047
0.593047
0.593083
0.59312
0.593156
0.593193
0.593193
0.593229
0.593266
0.593302
0.593339
0.593339
0.593376
0.593413
0.593449
0.593486
0.593486
0.593523
0.59356
0.593597
0.593634
0.593634
0.593671
0.593707
0.593745
0.593782
0.593782
0.593819
0.593856
0.593893
0.59393
0.59393
0.593967
0.594005
0.594042
0.594079
0.594079
0.594116
0.594154
0.594191
0.594229
0.594229
0.594266
0.594304
0.594341
0.594379
0.594379
0.594416
0.594454
0.594492
0.59453
0.59453
0.594567
0.594605
0.594643
0.594681
0.594681
0.594719
0.594757
0.594794
0.594832
0.594832
0.59487
0.594909
0.594947
0.594985
0.594985
0.595023
0.595061
0.595099
0.595138
0.595138
0.595176
0.595214
0.595252
0.595291
0.595291
0.595329
0.595368
0.595406
0.595445
0.595445
0.595483
0.595522
0.595561
0.595599
0.595599
0.595638
0.595677
0.595715
0.595754
0.595754
0.595793
0.595832
0.595871
0.59591
0.59591
0.595949
0.595988
0.596027
0.596066
0.596066
0.596105
0.596144
0.596183
0.596222
0.596222
0.596261
0.596301
0.59634
0.596379
0.596379
0.596419
0.596458
0.596498
0.596537
0.596537
0.596576
0.596616
0.596656
0.596695
0.596695
0.596735
0.596774
0.596814
0.596854
0.596854
0.596894
0.596933
0.596973
0.597013
0.597013
0.597053
0.597093
0.597133
0.597173
0.597173
0.597213
0.597253
0.597293
0.597333
0.597333
0.597374
0.597414
0.597454
0.597494
0.597494
0.597535
0.597575
0.597615
0.597656
0.597656
0.597696
0.597737
0.597777
0.597818
0.597818
0.597858
0.597899
0.59794
0.59798
0.59798
0.598021
0.598062
0.598102
0.598143
0.598143
0.598184
0.598225
0.598266
0.598307
0.598307
0.598348
0.598389
0.59843
0.598471
0.598471
0.598512
0.598553
0.598595
0.598636
0.598636
0.598677
0.598718
0.59876
0.598801
0.598801
0.598842
0.598884
0.598925
0.598967
0.598967
0.599008
0.59905
0.599092
0.599133
0.599133
0.599175
0.599217
0.599258
0.5993
0.5993
0.599342
0.599384
0.599426
0.599468
0.599468
0.59951
0.599552
0.599594
0.599636
0.599636
0.599678
0.59972
0.599762
0.599804
0.599804
0.599846
0.599889
0.599931
0.599973
0.599973
0.600016
0.600058
0.6001
0.600143
0.600143
0.600185
0.600228
0.60027
0.600313
0.600313
0.600356
0.600398
0.600441
0.600484
0.600484
0.600527
0.600569
0.600612
0.600655
0.600655
0.600698
0.600741
0.600784
0.600827
0.600827
0.60087
0.600913
0.600956
0.600999
0.600999
0.601042
0.601086
0.601129
0.601172
0.601172
0.601215
0.601259
0.601302
0.601346
0.601346
0.601389
0.601433
0.601476
0.60152
0.60152
0.601563
0.601607
0.601651
0.601694
0.601694
0.601738
0.601782
0.601826
0.601869
0.601869
0.601913
0.601957
0.602001
0.602045
0.602045
0.602089
0.602133
0.602177
0.602221
0.602221
0.602265
0.60231
0.602354
0.602398
0.602398
0.602442
0.602487
0.602531
0.602575
0.602575
0.60262
0.602664
0.602709
0.602753
0.602753
0.602798
0.602842
0.602887
0.602932
0.602932
0.602976
0.603021
0.603066
0.603111
0.603111
0.603155
0.6032
0.603245
0.60329
0.60329
0.603335
0.60338
0.603425
0.60347
0.60347
0.603515
0.60356
0.603606
0.603651
0.603651
0.603696
0.603741
0.603787
0.603832
0.603832
0.603877
0.603923
0.603968
0.604014
0.604014
0.604059
0.604105
0.60415
0.604196
0.604196
0.604241
0.604287
0.604333
0.604379
0.604379
0.604424
0.60447
0.604516
0.604562
0.604562
0.604608
0.604654
0.6047
0.604746
0.604746
0.604792
0.604838
0.604884
0.60493
0.60493
0.604977
0.605023
0.605069
0.605115
0.605115
0.605162
0.605208
0.605254
0.605301
0.605301
0.605347
0.605394
0.60544
0.605487
0.605487
0.605534
0.60558
0.605627
0.605674
0.605674
0.60572
0.605767
0.605814
0.605861
0.605861
0.605908
0.605955
0.606002
0.606048
0.606048
0.606096
0.606143
0.60619
0.606237
0.606237
0.606284
0.606331
0.606378
0.606426
0.606426
0.606473
0.60652
0.606568
0.606615
0.606615
0.606662
0.60671
0.606757
0.606805
0.606805
0.606852
0.6069
0.606948
0.606995
0.606995
0.607043
0.607091
0.607139
0.607186
0.607186
0.607234
0.607282
0.60733
0.607378
0.607378
0.607426
0.607474
0.607522
0.60757
0.60757
0.607618
0.607666
0.607714
0.607763
0.607763
0.607811
0.607859
0.607907
0.607956
0.607956
0.608004
0.608053
0.608101
0.608149
0.608149
0.608198
0.608247
0.608295
0.608344
0.608344
0.608392
0.608441
0.60849
0.608538
0.608538
0.608587
0.608636
0.608685
0.608734
0.608734
0.608783
0.608832
0.608881
0.60893
0.60893
0.608979
0.609028
0.609077
0.609126
0.609126
0.609175
0.609225
0.609274
0.609323
0.609323
0.609372
0.609422
0.609471
0.609521
0.609521
0.60957
0.60962
0.609669
0.609719
0.609719
0.609768
0.609818
0.609867
0.609917
0.609917
0.609967
0.610017
0.610066
0.610116
0.610116
0.610166
0.610216
0.610266
0.610316
0.610316
0.610366
0.610416
0.610466
0.610516
0.610516
0.610566
0.610616
0.610667
0.610717
0.610717
0.610767
0.610817
0.610868
0.610918
0.610918
0.610968
0.611019
0.611069
0.61112
0.61112
0.61117
0.611221
0.611272
0.611322
0.611322
0.611373
0.611424
0.611474
0.611525
0.611525
0.611576
0.611627
0.611677
0.611728
0.611728
0.611779
0.61183
0.611881
0.611932
0.611932
0.611983
0.612034
0.612086
0.612137
0.612137
0.612188
0.612239
0.61229
0.612342
0.612342
0.612393
0.612444
0.612496
0.612547
0.612547
0.612599
0.61265
0.612702
0.612753
0.612753
0.612805
0.612856
0.612908
0.61296
0.61296
0.613011
0.613063
0.613115
0.613167
0.613167
0.613219
0.613271
0.613323
0.613374
0.613374
0.613426
0.613478
0.613531
0.613583
0.613583
0.613635
0.613687
0.613739
0.613791
0.613791
0.613843
0.613896
0.613948
0.614
0.614
0.614053
0.614105
0.614158
0.61421
0.61421
0.614263
0.614315
0.614368
0.61442
0.61442
0.614473
0.614526
0.614578
0.614631
0.614631
0.614684
0.614737
0.614789
0.614842
0.614842
0.614895
0.614948
0.615001
0.615054
0.615054
0.615107
0.61516
0.615213
0.615266
0.615266
0.61532
0.615373
0.615426
0.615479
0.615479
0.615532
0.615586
0.615639
0.615693
0.615693
0.615746
0.615799
0.615853
0.615906
0.615906
0.61596
0.616013
0.616067
0.616121
0.616121
0.616174
0.616228
0.616282
0.616336
0.616336
0.616389
0.616443
0.616497
0.616551
0.616551
0.616605
0.616659
0.616713
0.616767
0.616767
0.616821
0.616875
0.616929
0.616983
0.616983
0.617037
0.617092
0.617146
0.6172
0.6172
0.617254
0.617309
0.617363
0.617418
0.617418
0.617472
0.617526
0.617581
0.617635
0.617635
0.61769
0.617745
0.617799
0.617854
0.617854
0.617909
0.617963
0.618018