<?xml version="1.0"?>
<VTKFile type="UnstructuredGrid" version="0.1" byte_order="LittleEndian">
<UnstructuredGrid>
<Piece NumberOfPoints="5000" NumberOfCells="4000">
<PointData Scalars="Reaction 0">
<DataArray type="Float32" Name="Reaction 0" format="ascii">
0.62647
0.62647
0.62647
0.62647
0.62647
0.62647
0.62647
0.62647
0.62647
0.626471
0.626471
0.626471
0.626471
0.626471
0.626471
0.626471
0.626472
0.626472
0.626472
0.626472
0.626472
0.626473
0.626473
0.626473
0.626474
0.626474
0.626474
0.626474
0.626475
0.626475
0.626475
0.626476
0.626476
0.626477
0.626477
0.626477
0.626478
0.626478
0.626479
0.626479
0.626479
0.62648
0.62648
0.626481
0.626482
0.626482
0.626482
0.626483
0.626484
0.626484
0.626484
0.626485
0.626486
0.626486
0.626487
0.626487
0.626488
0.626489
0.62649
0.62649
0.62649
0.626491
0.626492
0.626493
0.626494
0.626494
0.626495
0.626496
0.626497
0.626498
0.626498
0.626499
0.6265
0.626501
0.626502
0.626502
0.626503
0.626504
0.626505
0.626506
0.626506
0.626508
0.626509
0.62651
0.626511
0.626511
0.626512
0.626514
0.626515
0.626516
0.626516
0.626517
0.626519
0.62652
0.626521
0.626521
0.626523
0.626524
0.626525
0.626527
0.626527
0.626528
0.62653
0.626531
0.626533
0.626533
0.626534
0.626536
0.626537
0.626539
0.626539
0.62654
0.626542
0.626544
0.626545
0.626545
0.626547
0.626548
0.62655
0.626552
0.626552
0.626554
0.626555
0.626557
0.626559
0.626559
0.626561
0.626562
0.626564
0.626566
0.626566
0.626568
0.62657
0.626572
0.626574
0.626574
0.626575
0.626577
0.626579
0.626581
0.626581
0.626583
0.626585
0.626587
0.626589
0.626589
0.626592
0.626594
0.626596
0.626598
0.626598
0.6266
0.626602
0.626604
0.626606
0.626606
0.626609
0.626611
0.626613
0.626615
0.626615
0.626618
0.62662
0.626622
0.626625
0.626625
0.626627
0.626629
0.626632
0.626634
0.626634
0.626637
0.626639
0.626641
0.626644
0.626644
0.626646
0.626649
0.626651
0.626654
0.626654
0.626657
0.626659
0.626662
0.626664
0.626664
0.626667
0.62667
0.626672
0.626675
0.626675
0.626678
0.62668
0.626683
0.626686
0.626686
0.626689
0.626692
0.626694
0.626697
0.626697
0.6267
0.626703
0.626706
0.626709
0.626709
0.626712
0.626715
0.626717
0.62672
0.62672
0.626723
0.626726
0.626729
0.626733
0.626733
0.626736
0.626739
0.626742
0.626745
0.626745
0.626748
0.626751
0.626754
0.626757
0.626757
0.626761
0.626764
0.626767
0.62677
0.62677
0.626774
0.626777
0.62678
0.626784
0.626784
0.626787
0.62679
0.626794
0.626797
0.626797
0.6268
0.626804
0.626807
0.626811
0.626811
0.626814
0.626818
0.626821
0.626825
0.626825
0.626828
0.626832
0.626836
0.626839
0.626839
0.626843
0.626846
0.62685
0.626854
0.626854
0.626858
0.626861
0.626865
0.626869
0.626869
0.626872
0.626876
0.62688
0.626884
0.626884
0.626888
0.626892
0.626895
0.626899
0.626899
0.626903
0.626907
0.626911
0.626915
0.626915
0.626919
0.626923
0.626927
0.626931
0.626931
0.626935
0.626939
0.626943
0.626947
0.626947
0.626952
0.626956
0.62696
0.626964
0.626964
0.626968
0.626972
0.626977
0.626981
0.626981
0.626985
0.626989
0.626994
0.626998
0.626998
0.627002
0.627007
0.627011
0.627016
0.627016
0.62702
0.627024
0.627029
0.627033
0.627033
0.627038
0.627042
0.627047
0.627051
0.627051
0.627056
0.62706
0.627065
0.62707
0.62707
0.627074
0.627079
0.627083
0.627088
0.627088
0.627093
0.627098
0.627102
0.627107
0.627107
0.627112
0.627117
0.627121
0.627126
0.627126
0.627131
0.627136
0.627141
0.627146
0.627146
0.62715
0.627155
0.62716
0.627165
0.627165
0.62717
0.627175
0.62718
0.627185
0.627185
0.62719
0.627195
0.6272
0.627206
0.627206
0.627211
0.627216
0.627221
0.627226
0.627226
0.627231
0.627236
0.627242
0.627247
0.627247
0.627252
0.627257
0.627263
0.627268
0.627268
0.627273
0.627279
0.627284
0.627289
0.627289
0.627295
0.6273
0.627306
0.627311
0.627311
0.627317
0.627322
0.627328
0.627333
0.627333
0.627339
0.627344
0.62735
0.627355
0.627355
0.627361
0.627367
0.627372
0.627378
0.627378
0.627384
0.627389
0.627395
0.627401
0.627401
0.627406
0.627412
0.627418
0.627424
0.627424
0.62743
0.627435
0.627441
0.627447
0.627447
0.627453
0.627459
0.627465
0.627471
0.627471
0.627477
0.627483
0.627489
0.627495
0.627495
0.627501
0.627507
0.627513
0.627519
0.627519
0.627525
0.627531
0.627537
0.627543
0.627543
0.62755
0.627556
0.627562
0.627568
0.627568
0.627574
0.627581
0.627587
0.627593
0.627593
0.6276
0.627606
0.627612
0.627619
0.627619
0.627625
0.627631
0.627638
0.627644
0.627644
0.627651
0.627657
0.627664
0.62767
0.62767
0.627677
0.627683
0.62769
0.627696
0.627696
0.627703
0.62771
0.627716
0.627723
0.627723
0.627729
0.627736
0.627743
0.62775
0.62775
0.627756
0.627763
0.62777
0.627777
0.627777
0.627783
0.62779
0.627797
0.627804
0.627804
0.627811
0.627818
0.627825
0.627832
0.627832
0.627838
0.627845
0.627852
0.627859
0.627859
0.627866
0.627873
0.627881
0.627888
0.627888
0.627895
0.627902
0.627909
0.627916
0.627916
0.627923
0.62793
0.627938
0.627945
0.627945
0.627952
0.627959
0.627966
0.627974
0.627974
0.627981
0.627988
0.627996
0.628003
0.628003
0.62801
0.628018
0.628025
0.628033
0.628033
0.62804
0.628047
0.628055
0.628062
0.628062
0.62807
0.628077
0.628085
0.628093
0.628093
0.6281
0.628108
0.628115
0.628123
0.628123
0.628131
0.628138
0.628146
0.628154
0.628154
0.628161
0.628169
0.628177
0.628185
0.628185
0.628192
0.6282
0.628208
0.628216
0.628216
0.628224
0.628232
0.628239
0.628247
0.628247
0.628255
0.628263
0.628271
0.628279
0.628279
0.628287
0.628295
0.628303
0.628311
0.628311
0.628319
0.628327
0.628336
0.628344
0.628344
0.628352
0.62836
0.628368
0.628376
0.628376
0.628385
0.628393
0.628401
0.628409
0.628409
0.628418
0.628426
0.628434
0.628442
0.628442
0.628451
0.628459
0.628468
0.628476
0.628476
0.628484
0.628493
0.628501
0.62851
0.62851
0.628518
0.628527
0.628535
0.628544
0.628544
0.628552
0.628561
0.628569
0.628578
0.628578
0.628587
0.628595
0.628604
0.628613
0.628613
0.628621
0.62863
0.628639
0.628648
0.628648
0.628656
0.628665
0.628674
0.628683
0.628683
0.628692
0.6287
0.628709
0.628718
0.628718
0.628727
0.628736
0.628745
0.628754
0.628754
0.628763
0.628772
0.628781
0.62879
0.62879
0.628799
0.628808
0.628817
0.628826
0.628826
0.628835
0.628844
0.628854
0.628863
0.628863
0.628872
0.628881
0.62889
0.6289
0.6289
0.628909
0.628918
0.628927
0.628937
0.628937
0.628946
0.628955
0.628965
0.628974
0.628974
0.628984
0.628993
0.629002
0.629012
0.629012
0.629021
0.629031
0.62904
0.62905
0.62905
0.629059
0.629069
0.629078
0.629088
0.629088
0.629098
0.629107
0.629117
0.629127
0.629127
0.629136
0.629146
0.629156
0.629165
0.629165
0.629175
0.629185
0.629195
0.629204
0.629204
0.629214
0.629224
0.629234
0.629244
0.629244
0.629254
0.629264
0.629273
0.629283
0.629283
0.629293
0.629303
0.629313
0.629323
0.629323
0.629333
0.629343
0.629353
0.629363
0.629363
0.629374
0.629384
0.629394
0.629404
0.629404
0.629414
0.629424
0.629434
0.629445
0.629445
0.629455
0.629465
0.629475
0.629486
0.629486
0.629496
0.629506
0.629517
0.629527
0.629527
0.629537
0.629548
0.629558
0.629569
0.629569
0.629579
0.629589
0.6296
0.62961
0.62961
0.629621
0.629631
0.629642
0.629653
0.629653
0.629663
0.629674
0.629684
0.629695
0.629695
0.629706
0.629716
0.629727
0.629738
0.629738
0.629748
0.629759
0.62977
0.629781
0.629781
0.629791
0.629802
0.629813
0.629824
0.629824
0.629835
0.629846
0.629856
0.629867
0.629867
0.629878
0.629889
0.6299
0.629911
0.629911
0.629922
0.629933
0.629944
0.629955
0.629955
0.629966
0.629977
0.629988
0.63
0.63
0.630011
0.630022
0.630033
0.630044
0.630044
0.630055
0.630067
0.630078
0.630089
0.630089
0.6301
0.630112
0.630123
0.630134
0.630134
0.630146
0.630157
0.630168
0.63018
0.63018
0.630191
0.630203
0.630214
0.630225
0.630225
0.630237
0.630248
0.63026
0.630271
0.630271
0.630283
0.630295
0.630306
0.630318
0.630318
0.630329
0.630341
0.630353
0.630364
0.630364
0.630376
0.630388
0.630399
0.630411
0.630411
0.630423
0.630435
0.630446
0.630458
0.630458
0.63047
0.630482
0.630494
0.630506
0.630506
0.630517
0.630529
0.630541
0.630553
0.630553
0.630565
0.630577
0.630589
0.630601
0.630601
0.630613
0.630625
0.630637
0.630649
0.630649
0.630661
0.630674
0.630686
0.630698
0.630698
0.63071
0.630722
0.630734
0.630747
0.630747
0.630759
0.630771
0.630783
0.630796
0.630796
0.630808
0.63082
0.630833
0.630845
0.630845
0.630857
0.63087
0.630882
0.630895
0.630895
0.630907
0.630919
0.630932
0.630944
0.630944
0.630957
0.630969
0.630982
0.630995
0.630995
0.631007
0.63102
0.631032
0.631045
0.631045
0.631058
0.63107
0.631083
0.631096
0.631096
0.631108
0.631121
0.631134
0.631147
0.631147
0.631159
0.631172
0.631185
0.631198
0.631198
0.631211
0.631224
0.631236
0.631249
0.631249
0.631262
0.631275
0.631288
0.631301
0.631301
0.631314
0.631327
0.63134
0.631353
0.631353
0.631366
0.631379
0.631392
0.631405
0.631405
0.631419
0.631432
0.631445
0.631458
0.631458
0.631471
0.631485
0.631498
0.631511
0.631511
0.631524
0.631538
0.631551
0.631564
0.631564
0.631577
0.631591
0.631604
0.631618
0.631618
0.631631
0.631644
0.631658
0.631671
0.631671
0.631685
0.631698
0.631712
0.631725
0.631725
0.631739
0.631752
0.631766
0.631779
0.631779
0.631793
0.631807
0.63182
0.631834
0.631834
0.631848
0.631861
0.631875
0.631889
0.631889
0.631902
0.631916
0.63193
0.631944
0.631944
0.631958
0.631971
0.631985
0.631999
0.631999
0.632013
0.632027
0.632041
0.632055
0.632055
0.632069
0.632083
0.632097
0.632111
0.632111
0.632125
0.632139
0.632153
0.632167
0.632167
0.632181
0.632195
0.632209
0.632223
0.632223
0.632237
0.632252
0.632266
0.63228
0.63228
0.632294
0.632308
0.632323
0.632337
0.632337
0.632351
0.632365
0.63238
0.632394
0.632394
0.632408
0.632423
0.632437
0.632452
0.632452
0.632466
0.63248
0.632495
0.632509
0.632509
0.632524
0.632538
0.632553
0.632567
0.632567
0.632582
0.632597
0.632611
0.632626
0.632626
0.63264
0.632655
0.63267
0.632684
0.632684
0.632699
0.632714
0.632728
0.632743
0.632743
0.632758
0.632773
0.632788
0.632802
0.632802
0.632817
0.632832
0.632847
0.632862
0.632862
0.632877
0.632892
0.632907
0.632921
0.632921
0.632936
0.632951
0.632966
0.632981
0.632981
0.632996
0.633011
0.633027
0.633042
0.633042
0.633057
0.633072
0.633087
0.633102
0.633102
0.633117
0.633132
0.633148
0.633163
0.633163
0.633178
0.633193
0.633209
0.633224
0.633224
0.633239
0.633255
0.63327
0.633285
0.633285
0.633301
0.633316
0.633331
0.633347
0.633347
0.633362
0.633378
0.633393
0.633409
0.633409
0.633424
0.63344
0.633455
0.633471
0.633471
0.633486
0.633502
0.633517
0.633533
0.633533
0.633549
0.633564
0.63358
0.633596
0.633596
0.633611
0.633627
0.633643
0.633659
0.633659
0.633674
0.63369
0.633706
0.633722
0.633722
0.633738
0.633754
0.633769
0.633785
0.633785
0.633801
0.633817
0.633833
0.633849
0.633849
0.633865
0.633881
0.633897
0.633913
0.633913
0.633929
0.633945
0.633961
0.633977
0.633977
0.633993
0.634009
0.634025
0.634041
0.634041
0.634057
0.634073
0.634089
0.634105
0.634105
0.634121
0.634136
0.634152
0.634168
0.634168
0.634184
0.634199
0.634215
0.634231
0.634231
0.634246
0.634262
0.634277
0.634293
0.634293
0.634308
0.634324
0.634339
0.634355
0.634355
0.63437
0.634386
0.634401
0.634416
0.634416
0.634432
0.634447
0.634463
0.634479
0.634479
0.634494
0.63451
0.634525
0.634541
0.634541
0.634556
0.634572
0.634588
0.634603
0.634603
0.634619
0.634635
0.63465
0.634666
0.634666
0.634682
0.634698
0.634713
0.634729
0.634729
0.634745
0.634761
0.634777
0.634792
0.634792
0.634808
0.634824
0.63484
0.634856
0.634856
0.634872
0.634888
0.634904
0.63492
0.63492
0.634936
0.634952
0.634968
0.634984
0.634984
0.635
0.635016
0.635032
0.635048
0.635048
0.635064
0.63508
0.635096
0.635112
0.635112
0.635129
0.635145
0.635161
0.635177
0.635177
0.635193
0.63521
0.635226
0.635242
0.635242
0.635259
0.635275
0.635291
0.635307
0.635307
0.635324
0.63534
0.635357
0.635373
0.635373
0.635389
0.635406
0.635422
0.635439
0.635439
0.635455
0.635472
0.635488
0.635505
0.635505
0.635521
0.635538
0.635554
0.635571
0.635571
0.635588
0.635604
0.635621
0.635637
0.635637
0.635654
0.635671
0.635687
0.635704
0.635704
0.635721
0.635738
0.635754
0.635771
0.635771
0.635788
0.635805
0.635822
0.635838
0.635838
0.635855
0.635872
0.635889
0.635906
0.635906
0.635923
0.63594
0.635957
0.635974
0.635974
0.635991
0.636008
0.636025
0.636042
0.636042
0.636059
0.636076
0.636093
0.63611
0.63611
0.636127
0.636144
0.636161
0.636178
0.636178
0.636195
0.636213
0.63623
0.636247
0.636247
0.636264
0.636281
0.636299
0.636316
0.636316
0.636333
0.63635
0.636368
0.636385
0.636385
0.636402
0.63642
0.636437
0.636455
0.636455
0.636472
0.636489
0.636507
0.636524
0.636524
0.636542
0.636559
0.636577
0.636594
0.636594
0.636612
0.636629
0.636647
0.636664
0.636664
0.636682
0.636699
0.636717
0.636735
0.636735
0.636752
0.63677
0.636788
0.636805
0.636805
0.636823
0.636841
0.636859
0.636876
0.636876
0.636894
0.636912
0.63693
0.636947
0.636947
0.636965
0.636983
0.637001
0.637019
0.637019
0.637037
0.637055
0.637073
0.63709
0.63709
0.637108
0.637126
0.637144
0.637162
0.637162
0.63718
0.637198
0.637216
0.637235
0.637235
0.637253
0.637271
0.637289
0.637307
0.637307
0.637325
0.637343
0.637361
0.637379
0.637379
0.637398
0.637416
0.637434
0.637452
0.637452
0.637471
0.637489
0.637507
0.637525
0.637525
0.637544
0.637562
0.63758
0.637599
0.637599
0.637617
0.637636
0.637654
0.637672
0.637672
0.637691
0.637709
0.637728
0.637746
0.637746
0.637765
0.637783
0.637802
0.63782
0.63782
0.637839
0.637857
0.637876
0.637895
0.637895
0.637913
0.637932
0.63795
0.637969
0.637969
0.637988
0.638007
0.638025
0.638044
0.638044
0.638063
0.638081
0.6381
0.638119
0.638119
0.638138
0.638157
0.638175
0.638194
0.638194
0.638213
0.638232
0.638251
0.63827
0.63827
0.638289
0.638308
0.638327
0.638346
0.638346
0.638365
0.638384
0.638403
0.638422
0.638422
0.638441
0.63846
0.638479
0.638498
0.638498
0.638517
0.638536
0.638555
0.638574
0.638574
0.638593
0.638613
0.638632
0.638651
0.638651
0.63867
0.63869
0.638709
0.638728
0.638728
0.638747
0.638767
0.638786
0.638805
0.638805
0.638825
0.638844
0.638863
0.638883
0.638883
0.638902
0.638922
0.638941
0.63896
0.63896
0.63898
0.638999
0.639019
0.639038
0.639038
0.639058
0.639077
0.639097
0.639117
0.639117
0.639136
0.639156
0.639175
0.639195
0.639195
0.639215
0.639234
0.639254
0.639274
0.639274
0.639293
0.639313
0.639333
0.639352
0.639352
0.639372
0.639392
0.639412
0.639432
0.639432
0.639451
0.639471
0.639491
0.639511
0.639511
0.639531
0.639551
0.639571
0.639591
0.639591
0.639611
0.63963
0.63965
0.63967
0.63967
0.63969
0.63971
0.63973
0.639751
0.639751
0.639771
0.639791
0.639811
0.639831
0.639831
0.639851
0.639871
0.639891
0.639911
0.639911
0.639932
0.639952
0.639972
0.639992
0.639992
0.640012
0.640033
0.640053
0.640073
0.640073
0.640094
0.640114
0.640134
0.640155
0.640155
0.640175
0.640195
0.640216
0.640236
0.640236
0.640256
0.640277
0.640297
0.640318
0.640318
0.640338
0.640359
0.640379
0.6404
0.6404
0.64042
0.640441
0.640461
0.640482
0.640482
0.640503
0.640523
0.640544
0.640564
0.640564
0.640585
0.640606
0.640627
0.640647
0.640647
0.640668
0.640689
0.640709
0.64073
0.64073
0.640751
0.640772
0.640792
0.640813
0.640813
0.640834
0.640855
0.640876
0.640897
0.640897
0.640918
0.640939
0.640959
0.64098
0.64098
0.641001
0.641022
0.641043
0.641064
0.641064
0.641085
0.641106
0.641127
0.641148
0.641148
0.641169
0.641191
0.641212
0.641233
0.641233
0.641254
0.641275
0.641296
0.641317
0.641317
0.641339
0.64136
0.641381
0.641402
0.641402
0.641423
0.641445
0.641466
0.641487
0.641487
0.641509
0.64153
0.641551
0.641573
0.641573
0.641594
0.641615
0.641637
0.641658
0.641658
0.641679
0.641701
0.641722
0.641744
0.641744
0.641765
0.641787
0.641808
0.64183
0.64183
0.641851
0.641873
0.641894
0.641916
0.641916
0.641938
0.641959
0.641981
0.642003
0.642003
0.642024
0.642046
0.642068
0.642089
0.642089
0.642111
0.642133
0.642154
0.642176
0.642176
0.642198
0.64222
0.642242
0.642263
0.642263
0.642285
0.642307
0.642329
0.642351
0.642351
0.642373
0.642395
0.642416
0.642438
0.642438
0.64246
0.642482
0.642504
0.642526
0.642526
0.642548
0.64257
0.642592
0.642614
0.642614
0.642636
0.642659
0.642681
0.642703
0.642703
0.642725
0.642747
0.642769
0.642791
0.642791
0.642813
0.642836
0.642858
0.64288
0.64288
0.642902
0.642925
0.642947
0.642969
0.642969
0.642991
0.643014
0.643036
0.643058
0.643058
0.643081
0.643103
0.643126
0.643148
0.643148
0.64317
0.643193
0.643215
0.643238
0.643238
0.64326
0.643283
0.643305
0.643328
0.643328
0.64335
0.643373
0.643395
0.643418
0.643418
0.64344
0.643463
0.643486
0.643508
0.643508
0.643531
0.643554
0.643576
0.643599
0.643599
0.643622
0.643644
0.643667
0.64369
0.64369
0.643713
0.643735
0.643758
0.643781
0.643781
0.643804
0.643827
0.643849
0.643872
0.643872
0.643895
0.643918
0.643941
0.643964
0.643964
0.643987
0.64401
0.644033
0.644056
0.644056
0.644079
0.644102
0.644125
0.644148
0.644148
0.644171
0.644194
0.644216
0.644239
0.644239
0.644262
0.644285
0.644308
0.644331
0.644331
0.644354
0.644377
0.6444
0.644422
0.644422
0.644445
0.644468
0.64449
0.644513
0.644513
0.644535
0.644557
0.64458
0.644602
0.644602
0.644624
0.644646
0.644668
0.644691
0.644691
0.644713
0.644735
0.644757
0.644779
0.644779
0.644801
0.644822
0.644844
0.644866
0.644866
0.644888
0.64491
0.644932
0.644954
0.644954
0.644976
0.644998
0.64502
0.645042
0.645042
0.645064
0.645086
0.645108
0.64513
0.64513
0.645152
0.645174
0.645196
0.645219
0.645219
0.645241
0.645263
0.645285
0.645307
0.645307
0.645329
0.645351
0.645374
0.645396
0.645396
0.645418
0.64544
0.645462
0.645485
0.645485
0.645507
0.645529
0.645552
0.645574
0.645574
0.645596
0.645618
0.645641
0.645663
0.645663
0.645686
0.645708
0.64573
0.645753
0.645753
0.645775
0.645798
0.64582
0.645843
0.645843
0.645865
0.645888
0.64591
0.645933
0.645933
0.645955
0.645978
0.646
0.646023
0.646023
0.646045
0.646068
0.646091
0.646113
0.646113
0.646136
0.646158
0.646181
0.646204
0.646204
0.646226
0.646249
0.646272
0.646295
0.646295
0.646317
0.64634
0.646363
0.646386
0.646386
0.646408
0.646431
0.646454
0.646477
0.646477
0.6465
0.646523
0.646545
0.646568
0.646568
0.646591
0.646614
0.646637
0.64666
0.64666
0.646683
0.646706
0.646729
0.646752
0.646752
0.646775
0.646798
0.646821
0.646844
0.646844
0.646867
0.64689
0.646913
0.646936
0.646936
0.646959
0.646982
0.647006
0.647029
0.647029
0.647052
0.647075
0.647098
0.647121
0.647121
0.647145
0.647168
0.647191
0.647214
0.647214
0.647238
0.647261
0.647284
0.647308
0.647308
0.647331
0.647354
0.647377
0.647401
0.647401
0.647424
0.647448
0.647471
0.647494
0.647494
0.647518
0.647541
0.647565
0.647588
0.647588
0.647612
0.647635
0.647659
0.647682
0.647682
0.647706
0.647729
0.647753
0.647776
0.647776
0.6478
0.647823
0.647847
0.647871
0.647871
0.647894
0.647918
0.647942
0.647965
0.647965
0.647989
0.648013
0.648036
0.64806
0.64806
0.648084
0.648107
0.648131
0.648155
0.648155
0.648179
0.648203
0.648226
0.64825
0.64825
0.648274
0.648298
0.648322
0.648346
0.648346
0.648369
0.648393
0.648417
0.648441
0.648441
0.648465
0.648489
0.648513
0.648537
0.648537
0.648561
0.648585
0.648609
0.648633
0.648633
0.648657
0.648681
0.648705
0.648729
0.648729
0.648753
0.648777
0.648801
0.648826
0.648826
0.64885
0.648874
0.648898
0.648922
0.648922
0.648946
0.648971
0.648995
0.649019
0.649019
0.649043
0.649068
0.649092
0.649116
0.649116
0.64914
0.649165
0.649189
0.649213
0.649213
0.649238
0.649262
0.649286
0.649311
0.649311
0.649335
0.64936
0.649384
0.649408
0.649408
0.649433
0.649457
0.649482
0.649506
0.649506
0.649531
0.649555
0.64958
0.649604
0.649604
0.649629
0.649653
0.649678
0.649703
0.649703
0.649727
0.649752
0.649776
0.649801
0.649801
0.649826
0.64985
0.649875
0.6499
0.6499
0.649924
0.649949
0.649974
0.649999
0.649999
0.650023
0.650048
0.650073
0.650098
0.650098
0.650122
0.650147
0.650172
0.650197
0.650197
0.650222
0.650247
0.650271
0.650296
0.650296
0.650321
0.650346
0.650371
0.650396
0.650396
0.650421
0.650446
0.650471
0.650496
0.650496
0.650521
0.650546
0.650571
0.650596
0.650596
0.650621
0.650646
0.650671
0.650696
0.650696
0.650721
0.650746
0.650772
0.650797
0.650797
0.650822
0.650847
0.650872
0.650897
0.650897
0.650923
0.650948
0.650973
0.650998
0.650998
0.651024
0.651049
0.651074
0.651099
0.651099
0.651125
0.65115
0.651175
0.651201
0.651201
0.651226
0.651251
0.651277
0.651302
0.651302
0.651328
0.651353
0.651378
0.651404
0.651404
0.651429
0.651455
0.65148
0.651506
0.651506
0.651531
0.651557
0.651582
0.651608
0.651608
0.651633
0.651659
0.651684
0.65171
0.65171
0.651736
0.651761
0.651787
0.651813
0.651813
0.651838
0.651864
0.65189
0.651915
0.651915
0.651941
0.651967
0.651992
0.652018
0.652018
0.652044
0.65207
0.652095
0.652121
0.652121
0.652147
0.652173
0.652199
0.652224
0.652224
0.65225
0.652276
0.652302
0.652328
0.652328
0.652354
0.65238
0.652406
0.652432
0.652432
0.652458
0.652484
0.652509
0.652535
0.652535
0.652561
0.652587
0.652614
0.65264
0.65264
0.652666
0.652692
0.652718
0.652744
0.652744
0.65277
0.652796
0.652822
0.652848
0.652848
0.652874
0.652901
0.652927
0.652953
0.652953
0.652979
0.653005
0.653032
0.653058
0.653058
0.653084
0.65311
0.653137
0.653163
0.653163
0.653189
0.653215
0.653242
0.653268
0.653268
0.653294
0.653321
0.653347
0.653373
0.653373
0.6534
0.653426
0.653452
0.653479
0.653479
0.653505
0.653531
0.653557
0.653583
0.653583
0.65361
0.653636
0.653662
0.653688
0.653688
0.653714
0.65374
0.653765
0.653791
0.653791
0.653817
0.653842
0.653868
0.653893
0.653893
0.653919
0.653944
0.653969
0.653995
0.653995
0.65402
0.654045
0.65407
0.654095
0.654095
0.65412
0.654145
0.65417
0.654195
0.654195
0.65422
0.654245
0.65427
0.654295
0.654295
0.65432
0.654345
0.65437
0.654395
0.654395
0.65442
0.654445
0.65447
0.654495
0.654495
0.65452
0.654545
0.65457
0.654595
0.654595
0.65462
0.654645
0.65467
0.654696
0.654696
0.654721
0.654746
0.654771
0.654796
0.654796
0.654821
0.654846
0.654871
0.654897
0.654897
0.654922
0.654947
0.654972
0.654998
0.654998
0.655023
0.655048
0.655073
0.655099
0.655099
0.655124
0.655149
0.655174
0.6552
0.6552
0.655225
0.65525
0.655276
0.655301
0.655301
0.655327
0.655352
0.655377
0.655403
0.655403
0.655428
0.655454
0.655479
0.655504
0.655504
0.65553
0.655555
0.655581
0.655606
0.655606
0.655632
0.655657
0.655683
0.655708
0.655708
0.655734
0.65576
0.655785
0.655811
0.655811
0.655836
0.655862
0.655888
0.655913
0.655913
0.655939
0.655964
0.65599
0.656016
0.656016
0.656041
0.656067
0.656093
0.656119
0.656119
0.656144
0.65617
0.656196
0.656222
0.656222
0.656247
0.656273
0.656299
0.656325
0.656325
0.656351
0.656376
0.656402
0.656428
0.656428
0.656454
0.65648
0.656506
0.656532
0.656532
0.656558
0.656583
0.656609
0.656635
0.656635
0.656661
0.656687
0.656713
0.656739
0.656739
0.656765
0.656791
0.656817
0.656843
0.656843
0.656869
0.656895
0.656921
0.656947
0.656947
0.656973
0.657
0.657026
0.657052
0.657052
0.657078
0.657104
0.65713
0.657156
0.657156
0.657183
0.657209
0.657235
0.657261
0.657261
0.657287
0.657314
0.65734
0.657366
0.657366
0.657392
0.657419
0.657445
0.657471
0.657471
0.657497
0.657524
0.65755
0.657576
0.657576
0.657603
0.657629
0.657655
0.657682
0.657682
0.657708
0.657735
0.657761
0.657787
0.657787
0.657814
0.65784
0.657867
0.657893
0.657893
0.65792
0.657946
0.657973
0.657999
0.657999
0.658026
0.658052
0.658079
0.658105
0.658105
0.658132
0.658158
0.658185
0.658212
0.658212
0.658238
0.658265
0.658292
0.658318
0.658318
0.658345
0.658371
0.658398
0.658425
0.658425
0.658451
0.658478
0.658505
0.658532
0.658532
0.658558
0.658585
0.658612
0.658639
0.658639
0.658665
0.658692
0.658719
0.658746
0.658746
0.658773
0.658799
0.658826
0.658853
0.658853
0.65888
0.658907
0.658934
0.658961
0.658961
0.658988
0.659015
0.659041
0.659068
0.659068
0.659095
0.659122
0.659149
0.659176
0.659176
0.659203
0.65923
0.659257
0.659284
0.659284
0.659311
0.659338
0.659365
0.659393
0.659393
0.65942
0.659447
0.659474
0.659501
0.659501
0.659528
0.659555
0.659582
0.659609
0.659609
0.659637
0.659664
0.659691
0.659718
0.659718
0.659745
0.659773
0.6598
0.659827
0.659827
0.659854
0.659882
0.659909
0.659936
0.659936
0.659963
0.659991
0.660018
0.660045
0.660045
0.660073
0.6601
0.660127
0.660155
0.660155
0.660182
0.66021
0.660237
0.660264
0.660264
0.660292
0.660319
0.660347
0.660374
0.660374
0.660402
0.660429
0.660457
0.660484
0.660484
0.660512
0.660539
0.660567
0.660594
0.660594
0.660622
0.660649
0.660677
0.660704
0.660704
0.660732
0.66076
0.660787
0.660815
0.660815
0.660842
0.66087
0.660898
0.660925
0.660925
0.660953
0.660981
0.661008
0.661036
0.661036
0.661064
0.661092
0.661119
0.661147
0.661147
0.661175
0.661203
0.66123
0.661258
0.661258
0.661286
0.661314
0.661342
0.661369
0.661369
0.661397
0.661425
0.661453
0.661481
0.661481
0.661509
0.661537
0.661564
0.661592
0.661592
0.66162
0.661648
0.661676
0.661704
0.661704
0.661732
0.661759
0.661787
0.661815
0.661815
0.661843
0.66187
0.661898
0.661926
0.661926
0.661953
0.661981
0.662008
0.662035
0.662035
0.662063
0.66209
0.662117
0.662144
0.662144
0.662171
0.662198
0.662225
0.662252
0.662252
0.662279
0.662305
0.662332
0.662358
0.662358
0.662385
0.662411
0.662438
0.662464
0.662464
0.662491
0.662517
0.662543
0.66257
0.66257
0.662596
0.662622
0.662649
0.662675
0.662675
0.662701
0.662727
0.662754
0.66278
0.66278
0.662806
0.662833
0.662859
0.662885
0.662885
0.662912
0.662938
0.662964
0.662991
0.662991
0.663017
0.663043
0.66307
0.663096
0.663096
0.663123
0.663149
0.663175
0.663202
0.663202
0.663228
0.663255
0.663281
0.663308
0.663308
0.663334
0.663361
0.663387
0.663414
0.663414
0.66344
0.663467
0.663493
0.66352
0.66352
0.663546
0.663573
0.663599
0.663626
0.663626
0.663653
0.663679
0.663706
0.663732
0.663732
0.663759
0.663786
0.663812
0.663839
0.663839
0.663866
0.663892
0.663919
0.663946
0.663946
0.663972
0.663999
0.664026
0.664053
0.664053
0.664079
0.664106
0.664133
0.66416
0.66416
0.664186
0.664213
0.66424
0.664267
0.664267
0.664294
0.664321
0.664347
0.664374
0.664374
0.664401
0.664428
0.664455
0.664482
0.664482
0.664509
0.664536
0.664562
0.664589
0.664589
0.664616
0.664643
0.66467
0.664697
0.664697
0.664724
0.664751
0.664778
0.664805
0.664805
0.664832
0.664859
0.664886
0.664913
0.664913
0.66494
0.664967
0.664994
0.665021
0.665021
0.665049
0.665076
0.665103
0.66513
0.66513
0.665157
0.665184
0.665211
0.665238
0.665238
0.665266
0.665293
0.66532
0.665347
0.665347
0.665374
0.665402
0.665429
0.665456
0.665456
0.665483
0.66551
0.665538
0.665565
0.665565
0.665592
0.66562
0.665647
0.665674
0.665674
0.665701
0.665729
0.665756
0.665783
0.665783
0.665811
0.665838
0.665865
0.665893
0.665893
0.66592
0.665948
0.665975
0.666002
0.666002
0.66603
0.666057
0.666085
0.666112
0.666112
0.66614
0.666167
0.666195
0.666222
0.666222
0.66625
0.666277
0.666305
0.666332
0.666332
0.66636
0.666387
0.666415
0.666442
0.666442
0.66647
0.666497
0.666525
0.666553
0.666553
0.66658
0.666608
0.666636
0.666663
0.666663
0.666691
0.666718
0.666746
0.666774
0.666774
0.666801
0.666829
0.666857
0.666885
0.666885
0.666912
0.66694
0.666968
0.666996
0.666996
0.667023
0.667051
0.667079
0.667107
0.667107
0.667134
0.667162
0.66719
0.667218
0.667218
0.667246
0.667273
0.667301
0.667329
0.667329
0.667357
0.667385
0.667413
0.667441
0.667441
0.667469
0.667497
0.667524
0.667552
0.667552
0.66758
0.667608
0.667636
0.667664
0.667664
0.667692
0.66772
0.667748
0.667776
0.667776
0.667804
0.667832
0.66786
0.667888
0.667888
0.667916
0.667944
0.667972
0.668
0.668
0.668029
0.668057
0.668085
0.668113
0.668113
0.668141
0.668169
0.668197
0.668225
0.668225
0.668254
0.668282
0.66831
0.668338
0.668338
0.668366
0.668395
0.668423
0.668451
0.668451
0.668479
0.668507
0.668536
0.668564
0.668564
0.668592
0.66862
0.668649
0.668677
0.668677
0.668705
0.668734
0.668762
0.66879
0.66879
0.668819
0.668847
0.668875
0.668904
0.668904
0.668932
0.66896
0.668989
0.669017
0.669017
0.669045
0.669073
0.669102
0.66913
0.66913
0.669158
0.669186
0.669214
0.669243
0.669243
0.669271
0.669299
0.669327
0.669354
0.669354
0.669382
0.66941
0.669438
0.669465
0.669465
0.669493
0.66952
0.669548
0.669575
0.669575
0.669602
0.66963
0.669657
0.669684
0.669684
0.669711
0.669738
0.669765
0.669792
0.669792
0.669818
0.669845
0.669872
0.669899
0.669899
0.669925
0.669952
0.669979
0.670005
0.670005
0.670032
0.670058
0.670085
0.670112
0.670112
0.670138
0.670165
0.670191
0.670218
0.670218
0.670244
0.670271
0.670298
0.670324
0.670324
0.670351
0.670378
0.670404
0.670431
0.670431
0.670458
0.670484
0.670511
0.670538
0.670538
0.670564
0.670591
0.670618
0.670644
0.670644
0.670671
0.670698
0.670725
0.670751
0.670751
0.670778
0.670805
0.670832
0.670858
0.670858
0.670885
0.670912
0.670939
0.670965
0.670965
0.670992
0.671019
0.671046
0.671073
0.671073
0.6711
0.671127
0.671153
0.67118
0.67118
0.671207
0.671234
0.671261
0.671288
0.671288
0.671315
0.671342
0.671369
0.671396
0.671396
0.671423
0.671449
0.671476
0.671503
0.671503
0.67153
0.671557
0.671584
0.671611
0.671611
0.671638
0.671665
0.671692
0.671719
0.671719
0.671747
0.671774
0.671801
0.671828
0.671828
0.671855
0.671882
0.671909
0.671936
0.671936
0.671963
0.67199
0.672017
0.672045
0.672045
0.672072
0.672099
0.672126
0.672153
0.672153
0.67218
0.672208
0.672235
0.672262
0.672262
0.672289
0.672316
0.672344
0.672371
0.672371
0.672398
0.672425
0.672453
0.67248
0.67248
0.672507
0.672534
0.672562
0.672589
0.672589
0.672616
0.672644
0.672671
0.672698
0.672698
0.672726
0.672753
0.67278
0.672808
0.672808
0.672835
0.672862
0.67289
0.672917
0.672917
0.672945
0.672972
0.672999
0.673027
0.673027
0.673054
0.673082
0.673109
0.673137
0.673137
0.673164
0.673192
0.673219
0.673247
0.673247
0.673274
0.673302
0.673329
0.673357
0.673357
0.673384
0.673412
0.673439
0.673467
0.673467
0.673494
0.673522
0.67355
0.673577
0.673577
0.673605
0.673632
0.67366
0.673688
0.673688
0.673715
0.673743
0.67377
0.673798
0.673798
0.673826
0.673853
0.673881
0.673909
0.673909
0.673937
0.673964
0.673992
0.67402
0.67402
0.674047
0.674075
0.674103
0.674131
0.674131
0.674158
0.674186
0.674214
0.674242
0.674242
0.674269
0.674297
0.674325
0.674353
0.674353
0.674381
0.674409
0.674436
0.674464
0.674464
0.674492
0.67452
0.674548
0.674576
0.674576
0.674604
0.674631
0.674659
0.674687
0.674687
0.674715
0.674743
0.674771
0.674799
0.674799
0.674827
0.674855
0.674883
0.674911
0.674911
0.674939
0.674967
0.674995
0.675023
0.675023
0.675051
0.675079
0.675107
0.675135
0.675135
0.675163
0.675191
0.675219
0.675247
0.675247
0.675275
0.675303
0.675331
0.675359
0.675359
0.675387
0.675415
0.675443
0.675472
0.675472
0.6755
0.675528
0.675556
0.675584
0.675584
0.675612
0.67564
0.675668
0.675695
0.675695
0.675723
0.675751
0.675779
0.675807
0.675807
0.675834
0.675862
0.67589