<?xml version="1.0"?>
<VTKFile type="UnstructuredGrid" version="0.1" byte_order="LittleEndian">
<UnstructuredGrid>
<Piece NumberOfPoints="5000" NumberOfCells="4000">
<PointData Scalars="Reaction 0">
<DataArray type="Float32" Name="Reaction 0" format="ascii">
0.954437
0.954437
0.954437
0.954437
0.954437
0.954437
0.954437
0.954437
0.954437
0.954437
0.954437
0.954437
0.954437
0.954437
0.954437
0.954437
0.954437
0.954437
0.954437
0.954437
0.954437
0.954437
0.954437
0.954437
0.954437
0.954437
0.954437
0.954437
0.954436
0.954436
0.954436
0.954436
0.954436
0.954436
0.954436
0.954436
0.954436
0.954436
0.954436
0.954436
0.954436
0.954436
0.954436
0.954436
0.954436
0.954436
0.954436
0.954436
0.954436
0.954436
0.954436
0.954436
0.954435
0.954435
0.954435
0.954435
0.954435
0.954435
0.954435
0.954435
0.954435
0.954435
0.954435
0.954435
0.954435
0.954435
0.954435
0.954434
0.954434
0.954434
0.954434
0.954434
0.954434
0.954434
0.954434
0.954434
0.954434
0.954434
0.954434
0.954433
0.954433
0.954433
0.954433
0.954433
0.954433
0.954433
0.954433
0.954433
0.954433
0.954433
0.954433
0.954432
0.954432
0.954432
0.954432
0.954432
0.954432
0.954432
0.954432
0.954432
0.954432
0.954431
0.954431
0.954431
0.954431
0.954431
0.954431
0.954431
0.954431
0.95443
0.95443
0.95443
0.95443
0.95443
0.95443
0.95443
0.95443
0.954429
0.954429
0.954429
0.954429
0.954429
0.954429
0.954429
0.954428
0.954428
0.954428
0.954428
0.954428
0.954428
0.954428
0.954428
0.954427
0.954427
0.954427
0.954427
0.954427
0.954427
0.954426
0.954426
0.954426
0.954426
0.954426
0.954426
0.954426
0.954426
0.954425
0.954425
0.954425
0.954425
0.954425
0.954425
0.954424
0.954424
0.954424
0.954424
0.954424
0.954423
0.954423
0.954423
0.954423
0.954423
0.954423
0.954422
0.954422
0.954422
0.954422
0.954422
0.954421
0.954421
0.954421
0.954421
0.954421
0.954421
0.95442
0.95442
0.95442
0.95442
0.95442
0.954419
0.954419
0.954419
0.954419
0.954419
0.954418
0.954418
0.954418
0.954418
0.954418
0.954417
0.954417
0.954417
0.954417
0.954417
0.954416
0.954416
0.954416
0.954416
0.954416
0.954415
0.954415
0.954415
0.954415
0.954414
0.954414
0.954414
0.954414
0.954414
0.954413
0.954413
0.954413
0.954413
0.954412
0.954412
0.954412
0.954412
0.954412
0.954411
0.954411
0.954411
0.954411
0.95441
0.95441
0.95441
0.954409
0.954409
0.954409
0.954409
0.954409
0.954408
0.954408
0.954408
0.954408
0.954407
0.954407
0.954407
0.954407
0.954406
0.954406
0.954406
0.954406
0.954405
0.954405
0.954405
0.954404
0.954404
0.954404
0.954404
0.954403
0.954403
0.954403
0.954403
0.954402
0.954402
0.954402
0.954402
0.954401
0.954401
0.954401
0.9544
0.9544
0.9544
0.9544
0.954399
0.954399
0.954399
0.954398
0.954398
0.954398
0.954397
0.954397
0.954397
0.954397
0.954396
0.954396
0.954396
0.954396
0.954395
0.954395
0.954394
0.954394
0.954394
0.954394
0.954393
0.954393
0.954393
0.954392
0.954392
0.954392
0.954391
0.954391
0.954391
0.954391
0.95439
0.95439
0.95439
0.954389
0.954389
0.954389
0.954388
0.954388
0.954388
0.954387
0.954387
0.954386
0.954386
0.954386
0.954386
0.954385
0.954385
0.954385
0.954384
0.954384
0.954384
0.954383
0.954383
0.954383
0.954382
0.954382
0.954381
0.954381
0.954381
0.954381
0.95438
0.95438
0.95438
0.954379
0.954379
0.954378
0.954378
0.954378
0.954377
0.954377
0.954377
0.954376
0.954376
0.954376
0.954375
0.954375
0.954374
0.954374
0.954374
0.954373
0.954373
0.954372
0.954372
0.954372
0.954371
0.954371
0.954371
0.954371
0.95437
0.95437
0.954369
0.954369
0.954369
0.954368
0.954368
0.954367
0.954367
0.954367
0.954366
0.954366
0.954365
0.954365
0.954365
0.954364
0.954364
0.954363
0.954363
0.954363
0.954362
0.954362
0.954361
0.954361
0.954361
0.95436
0.95436
0.954359
0.954359
0.954359
0.954358
0.954358
0.954357
0.954357
0.954357
0.954356
0.954356
0.954355
0.954354
0.954354
0.954354
0.954353
0.954353
0.954352
0.954352
0.954352
0.954351
0.954351
0.95435
0.95435
0.95435
0.954349
0.954349
0.954348
0.954348
0.954347
0.954347
0.954346
0.954346
0.954346
0.954345
0.954345
0.954344
0.954344
0.954344
0.954343
0.954342
0.954342
0.954341
0.954341
0.954341
0.95434
0.95434
0.954339
0.954339
0.954338
0.954338
0.954337
0.954337
0.954337
0.954336
0.954336
0.954335
0.954334
0.954334
0.954334
0.954333
0.954333
0.954332
0.954332
0.954331
0.954331
0.95433
0.95433
0.95433
0.954329
0.954328
0.954328
0.954327
0.954327
0.954327
0.954326
0.954325
0.954325
0.954325
0.954324
0.954323
0.954323
0.954322
0.954322
0.954322
0.954321
0.95432
0.95432
0.95432
0.954319
0.954318
0.954318
0.954317
0.954317
0.954317
0.954316
0.954315
0.954315
0.954315
0.954314
0.954313
0.954313
0.954312
0.954312
0.954311
0.954311
0.95431
0.954309
0.954309
0.954309
0.954308
0.954307
0.954307
0.954307
0.954306
0.954305
0.954305
0.954304
0.954304
0.954303
0.954303
0.954302
0.954301
0.954301
0.954301
0.9543
0.954299
0.954299
0.954299
0.954298
0.954297
0.954297
0.954296
0.954296
0.954295
0.954295
0.954294
0.954293
0.954293
0.954292
0.954292
0.954291
0.95429
0.95429
0.95429
0.954289
0.954288
0.954288
0.954288
0.954287
0.954286
0.954285
0.954285
0.954285
0.954284
0.954283
0.954283
0.954282
0.954282
0.954281
0.95428
0.95428
0.954279
0.954279
0.954278
0.954277
0.954277
0.954276
0.954276
0.954275
0.954274
0.954274
0.954273
0.954273
0.954272
0.954272
0.954271
0.95427
0.95427
0.954269
0.954269
0.954268
0.954267
0.954267
0.954266
0.954265
0.954265
0.954264
0.954264
0.954263
0.954262
0.954262
0.954261
0.954261
0.95426
0.954259
0.954259
0.954258
0.954258
0.954257
0.954256
0.954255
0.954255
0.954255
0.954254
0.954253
0.954252
0.954252
0.954252
0.954251
0.95425
0.954249
0.954248
0.954248
0.954248
0.954247
0.954246
0.954245
0.954245
0.954244
0.954244
0.954243
0.954242
0.954242
0.954241
0.95424
0.954239
0.954239
0.954239
0.954238
0.954237
0.954236
0.954235
0.954235
0.954235
0.954234
0.954233
0.954232
0.954232
0.954231
0.95423
0.95423
0.954229
0.954229
0.954228
0.954227
0.954226
0.954225
0.954225
0.954224
0.954224
0.954223
0.954222
0.954222
0.954221
0.95422
0.954219
0.954219
0.954219
0.954218
0.954217
0.954216
0.954215
0.954215
0.954214
0.954213
0.954212
0.954212
0.954212
0.954211
0.95421
0.954209
0.954208
0.954208
0.954207
0.954206
0.954205
0.954205
0.954205
0.954204
0.954203
0.954202
0.954201
0.954201
0.9542
0.954199
0.954198
0.954197
0.954197
0.954197
0.954196
0.954195
0.954194
0.954194
0.954193
0.954192
0.954191
0.95419
0.95419
0.954189
0.954188
0.954187
0.954187
0.954187
0.954186
0.954185
0.954184
0.954183
0.954183
0.954182
0.954181
0.95418
0.954179
0.954179
0.954178
0.954177
0.954176
0.954175
0.954175
0.954174
0.954174
0.954173
0.954172
0.954172
0.954171
0.95417
0.954169
0.954168
0.954168
0.954167
0.954166
0.954165
0.954164
0.954164
0.954163
0.954162
0.954161
0.95416
0.95416
0.954159
0.954158
0.954157
0.954156
0.954156
0.954155
0.954154
0.954153
0.954152
0.954152
0.954151
0.95415
0.954149
0.954148
0.954148
0.954147
0.954146
0.954145
0.954144
0.954144
0.954144
0.954143
0.954142
0.954141
0.954141
0.95414
0.954139
0.954138
0.954137
0.954137
0.954135
0.954134
0.954133
0.954132
0.954132
0.954131
0.95413
0.954129
0.954128
0.954128
0.954127
0.954126
0.954125
0.954124
0.954124
0.954123
0.954122
0.954121
0.95412
0.95412
0.954119
0.954118
0.954117
0.954116
0.954116
0.954115
0.954114
0.954113
0.954112
0.954112
0.954111
0.95411
0.954109
0.954108
0.954108
0.954107
0.954106
0.954105
0.954103
0.954103
0.954102
0.954101
0.9541
0.954099
0.954099
0.954098
0.954097
0.954096
0.954095
0.954095
0.954094
0.954093
0.954092
0.954091
0.954091
0.95409
0.954088
0.954087
0.954086
0.954086
0.954085
0.954084
0.954083
0.954082
0.954082
0.954081
0.95408
0.954079
0.954078
0.954078
0.954076
0.954075
0.954074
0.954073
0.954073
0.954072
0.954071
0.95407
0.954069
0.954069
0.954068
0.954066
0.954065
0.954064
0.954064
0.954063
0.954062
0.954061
0.95406
0.95406
0.954059
0.954058
0.954056
0.954055
0.954055
0.954054
0.954053
0.954052
0.954051
0.954051
0.95405
0.954048
0.954047
0.954046
0.954046
0.954045
0.954044
0.954043
0.954042
0.954042
0.95404
0.954039
0.954038
0.954037
0.954037
0.954036
0.954035
0.954033
0.954032
0.954032
0.954031
0.95403
0.954029
0.954028
0.954028
0.954026
0.954025
0.954024
0.954023
0.954023
0.954022
0.954021
0.954019
0.954018
0.954018
0.954017
0.954016
0.954015
0.954013
0.954013
0.954012
0.954011
0.95401
0.954009
0.954009
0.954007
0.954006
0.954005
0.954004
0.954004
0.954003
0.954001
0.954
0.953999
0.953999
0.953998
0.953997
0.953995
0.953994
0.953994
0.953993
0.953992
0.95399
0.953989
0.953989
0.953988
0.953987
0.953986
0.953984
0.953984
0.953983
0.953982
0.953981
0.953979
0.953979
0.953978
0.953977
0.953976
0.953974
0.953974
0.953973
0.953972
0.953971
0.953969
0.953969
0.953968
0.953967
0.953966
0.953964
0.953964
0.953963
0.953962
0.953961
0.953959
0.953959
0.953958
0.953957
0.953956
0.953954
0.953954
0.953953
0.953952
0.95395
0.953949
0.953949
0.953948
0.953947
0.953945
0.953944
0.953944
0.953943
0.953941
0.95394
0.953939
0.953939
0.953938
0.953936
0.953935
0.953934
0.953934
0.953932
0.953931
0.95393
0.953928
0.953928
0.953927
0.953926
0.953925
0.953923
0.953923
0.953922
0.953921
0.953919
0.953918
0.953918
0.953917
0.953915
0.953914
0.953913
0.953913
0.953911
0.95391
0.953909
0.953907
0.953907
0.953906
0.953905
0.953903
0.953902
0.953902
0.953901
0.953899
0.953898
0.953897
0.953897
0.953895
0.953894
0.953893
0.953891
0.953891
0.95389
0.953889
0.953887
0.953886
0.953886
0.953885
0.953883
0.953882
0.95388
0.95388
0.953879
0.953878
0.953876
0.953875
0.953875
0.953874
0.953872
0.953871
0.953869
0.953869
0.953868
0.953867
0.953865
0.953864
0.953864
0.953863
0.953861
0.95386
0.953858
0.953858
0.953857
0.953856
0.953854
0.953853
0.953853
0.953851
0.95385
0.953849
0.953847
0.953847
0.953846
0.953844
0.953843
0.953842
0.953842
0.95384
0.953839
0.953837
0.953836
0.953836
0.953835
0.953833
0.953832
0.95383
0.95383
0.953829
0.953827
0.953826
0.953825
0.953825
0.953823
0.953822
0.95382
0.953819
0.953819
0.953817
0.953816
0.953815
0.953813
0.953813
0.953812
0.95381
0.953809
0.953807
0.953807
0.953806
0.953804
0.953803
0.953801
0.953801
0.9538
0.953799
0.953797
0.953796
0.953796
0.953794
0.953793
0.953791
0.95379
0.95379
0.953788
0.953787
0.953785
0.953784
0.953784
0.953782
0.953781
0.953779
0.953778
0.953778
0.953776
0.953775
0.953773
0.953772
0.953772
0.95377
0.953769
0.953767
0.953766
0.953766
0.953764
0.953763
0.953761
0.95376
0.95376
0.953758
0.953757
0.953755
0.953754
0.953754
0.953752
0.953751
0.953749
0.953748
0.953748
0.953746
0.953745
0.953743
0.953742
0.953742
0.95374
0.953739
0.953737
0.953736
0.953736
0.953734
0.953732
0.953731
0.953729
0.953729
0.953728
0.953726
0.953725
0.953723
0.953723
0.953722
0.95372
0.953718
0.953717
0.953717
0.953715
0.953714
0.953712
0.953711
0.953711
0.953709
0.953707
0.953706
0.953704
0.953704
0.953703
0.953701
0.953699
0.953698
0.953698
0.953696
0.953695
0.953693
0.953691
0.953691
0.95369
0.953688
0.953687
0.953685
0.953685
0.953683
0.953682
0.95368
0.953679
0.953679
0.953677
0.953675
0.953674
0.953672
0.953672
0.953671
0.953669
0.953667
0.953666
0.953666
0.953664
0.953662
0.953661
0.953659
0.953659
0.953657
0.953656
0.953654
0.953653
0.953653
0.953651
0.953649
0.953648
0.953646
0.953646
0.953644
0.953643
0.953641
0.953639
0.953639
0.953638
0.953636
0.953634
0.953633
0.953633
0.953631
0.953629
0.953627
0.953626
0.953626
0.953624
0.953622
0.953621
0.953619
0.953619
0.953617
0.953616
0.953614
0.953612
0.953612
0.953611
0.953609
0.953607
0.953605
0.953605
0.953604
0.953602
0.9536
0.953599
0.953599
0.953597
0.953595
0.953593
0.953592
0.953592
0.95359
0.953588
0.953587
0.953585
0.953585
0.953583
0.953581
0.95358
0.953578
0.953578
0.953576
0.953574
0.953573
0.953571
0.953571
0.953569
0.953567
0.953566
0.953564
0.953564
0.953562
0.95356
0.953559
0.953557
0.953557
0.953555
0.953553
0.953552
0.95355
0.95355
0.953548
0.953546
0.953545
0.953543
0.953543
0.953541
0.953539
0.953537
0.953536
0.953536
0.953534
0.953532
0.95353
0.953529
0.953529
0.953527
0.953525
0.953523
0.953521
0.953521
0.95352
0.953518
0.953516
0.953514
0.953514
0.953512
0.953511
0.953509
0.953507
0.953507
0.953505
0.953503
0.953502
0.9535
0.9535
0.953498
0.953496
0.953494
0.953493
0.953493
0.953491
0.953489
0.953487
0.953485
0.953485
0.953483
0.953482
0.95348
0.953478
0.953478
0.953476
0.953474
0.953472
0.953471
0.953471
0.953469
0.953467
0.953465
0.953463
0.953463
0.953461
0.95346
0.953458
0.953456
0.953456
0.953454
0.953452
0.95345
0.953448
0.953448
0.953447
0.953445
0.953443
0.953441
0.953441
0.953439
0.953437
0.953435
0.953434
0.953434
0.953432
0.95343
0.953428
0.953426
0.953426
0.953424
0.953422
0.95342
0.953418
0.953418
0.953417
0.953415
0.953413
0.953411
0.953411
0.953409
0.953407
0.953405
0.953403
0.953403
0.953401
0.9534
0.953398
0.953396
0.953396
0.953394
0.953392
0.95339
0.953388
0.953388
0.953386
0.953384
0.953382
0.95338
0.95338
0.953379
0.953377
0.953375
0.953373
0.953373
0.953371
0.953369
0.953367
0.953365
0.953365
0.953363
0.953361
0.953359
0.953357
0.953357
0.953355
0.953353
0.953352
0.95335
0.95335
0.953348
0.953346
0.953344
0.953342
0.953342
0.95334
0.953338
0.953336
0.953334
0.953334
0.953332
0.95333
0.953328
0.953326
0.953326
0.953324
0.953322
0.95332
0.953318
0.953318
0.953316
0.953314
0.953312
0.95331
0.95331
0.953308
0.953306
0.953304
0.953302
0.953302
0.9533
0.953298
0.953296
0.953294
0.953294
0.953292
0.95329
0.953288
0.953286
0.953286
0.953285
0.953283
0.95328
0.953278
0.953278
0.953276
0.953274
0.953272
0.95327
0.95327
0.953268
0.953266
0.953264
0.953262
0.953262
0.95326
0.953258
0.953256
0.953254
0.953254
0.953252
0.95325
0.953248
0.953246
0.953246
0.953244
0.953242
0.95324
0.953238
0.953238
0.953236
0.953234
0.953232
0.95323
0.95323
0.953228
0.953226
0.953224
0.953222
0.953222
0.95322
0.953218
0.953216
0.953214
0.953214
0.953211
0.953209
0.953207
0.953205
0.953205
0.953203
0.953201
0.953199
0.953197
0.953197
0.953195
0.953193
0.953191
0.953189
0.953189
0.953187
0.953185
0.953182
0.95318
0.95318
0.953178
0.953176
0.953174
0.953172
0.953172
0.95317
0.953168
0.953166
0.953164
0.953164
0.953162
0.953159
0.953157
0.953155
0.953155
0.953153
0.953151
0.953149
0.953147
0.953147
0.953145
0.953143
0.953141
0.953138
0.953138
0.953136
0.953134
0.953132
0.95313
0.95313
0.953128
0.953126
0.953124
0.953121
0.953121
0.953119
0.953117
0.953115
0.953113
0.953113
0.953111
0.953109
0.953106
0.953104
0.953104
0.953102
0.9531
0.953098
0.953096
0.953096
0.953094
0.953091
0.953089
0.953087
0.953087
0.953085
0.953083
0.953081
0.953079
0.953079
0.953076
0.953074
0.953072
0.95307
0.95307
0.953068
0.953065
0.953063
0.953061
0.953061
0.953059
0.953057
0.953055
0.953052
0.953052
0.95305
0.953048
0.953046
0.953044
0.953044
0.953042
0.953039
0.953037
0.953035
0.953035
0.953033
0.953031
0.953028
0.953026
0.953026
0.953024
0.953022
0.95302
0.953017
0.953017
0.953015
0.953013
0.953011
0.953008
0.953008
0.953006
0.953004
0.953002
0.953
0.953
0.952997
0.952995
0.952993
0.952991
0.952991
0.952988
0.952986
0.952984
0.952982
0.952982
0.95298
0.952977
0.952975
0.952973
0.952973
0.952971
0.952968
0.952966
0.952964
0.952964
0.952962
0.952959
0.952957
0.952955
0.952955
0.952953
0.95295
0.952948
0.952946
0.952946
0.952944
0.952941
0.952939
0.952937
0.952937
0.952934
0.952932
0.95293
0.952928
0.952928
0.952925
0.952923
0.952921
0.952919
0.952919
0.952916
0.952914
0.952912
0.952909
0.952909
0.952907
0.952905
0.952903
0.9529
0.9529
0.952898
0.952896
0.952893
0.952891
0.952891
0.952889
0.952887
0.952884
0.952882
0.952882
0.95288
0.952877
0.952875
0.952873
0.952873
0.95287
0.952868
0.952866
0.952863
0.952863
0.952861
0.952859
0.952856
0.952854
0.952854
0.952852
0.952849
0.952847
0.952845
0.952845
0.952842
0.95284
0.952838
0.952835
0.952835
0.952833
0.952831
0.952828
0.952826
0.952826
0.952824
0.952821
0.952819
0.952817
0.952817
0.952814
0.952812
0.95281
0.952807
0.952807
0.952805
0.952803
0.9528
0.952798
0.952798
0.952795
0.952793
0.952791
0.952788
0.952788
0.952786
0.952784
0.952781
0.952779
0.952779
0.952776
0.952774
0.952772
0.952769
0.952769
0.952767
0.952765
0.952762
0.95276
0.95276
0.952757
0.952755
0.952753
0.95275
0.95275
0.952748
0.952745
0.952743
0.952741
0.952741
0.952738
0.952736
0.952733
0.952731
0.952731
0.952729
0.952726
0.952724
0.952721
0.952721
0.952719
0.952716
0.952714
0.952712
0.952712
0.952709
0.952707
0.952704
0.952702
0.952702
0.952699
0.952697
0.952695
0.952692
0.952692
0.95269
0.952687
0.952685
0.952682
0.952682
0.95268
0.952677
0.952675
0.952673
0.952673
0.95267
0.952668
0.952665
0.952663
0.952663
0.95266
0.952658
0.952655
0.952653
0.952653
0.95265
0.952648
0.952645
0.952643
0.952643
0.95264
0.952638
0.952635
0.952633
0.952633
0.95263
0.952628
0.952625
0.952623
0.952623
0.95262
0.952618
0.952615
0.952613
0.952613
0.95261
0.952608
0.952605
0.952602
0.952602
0.9526
0.952597
0.952595
0.952592
0.952592
0.95259
0.952587
0.952585
0.952582
0.952582
0.95258
0.952577
0.952575
0.952572
0.952572
0.952569
0.952567
0.952564
0.952562
0.952562
0.952559
0.952557
0.952554
0.952552
0.952552
0.952549
0.952546
0.952544
0.952541
0.952541
0.952539
0.952536
0.952534
0.952531
0.952531
0.952528
0.952526
0.952523
0.952521
0.952521
0.952518
0.952515
0.952513
0.95251
0.95251
0.952508
0.952505
0.952502
0.9525
0.9525
0.952497
0.952495
0.952492
0.952489
0.952489
0.952487
0.952484
0.952481
0.952479
0.952479
0.952476
0.952473
0.952471
0.952468
0.952468
0.952466
0.952463
0.95246
0.952458
0.952458
0.952455
0.952452
0.95245
0.952447
0.952447
0.952444
0.952442
0.952439
0.952436
0.952436
0.952434
0.952431
0.952428
0.952426
0.952426
0.952423
0.95242
0.952418
0.952415
0.952415
0.952412
0.95241
0.952407
0.952404
0.952404
0.952401
0.952399
0.952396
0.952393
0.952393
0.952391
0.952388
0.952385
0.952383
0.952383
0.95238
0.952377
0.952374
0.952372
0.952372
0.952369
0.952366
0.952364
0.952361
0.952361
0.952358
0.952355
0.952353
0.95235
0.95235
0.952347
0.952345
0.952342
0.952339
0.952339
0.952336
0.952334
0.952331
0.952328
0.952328
0.952325
0.952323
0.95232
0.952317
0.952317
0.952314
0.952312
0.952309
0.952306
0.952306
0.952304
0.952301
0.952298
0.952295
0.952295
0.952292
0.95229
0.952287
0.952284
0.952284
0.952281
0.952279
0.952276
0.952273
0.952273
0.95227
0.952268
0.952265
0.952262
0.952262
0.952259
0.952257
0.952254
0.952251
0.952251
0.952248
0.952245
0.952243
0.95224
0.95224
0.952237
0.952234
0.952231
0.952229
0.952229
0.952226
0.952223
0.95222
0.952217
0.952217
0.952215
0.952212
0.952209
0.952206
0.952206
0.952203
0.952201
0.952198
0.952195
0.952195
0.952192
0.952189
0.952187
0.952184
0.952184
0.952181
0.952178
0.952175
0.952172
0.952172
0.95217
0.952167
0.952164
0.952161
0.952161
0.952158
0.952155
0.952153
0.95215
0.95215
0.952147
0.952144
0.952141
0.952138
0.952138
0.952136
0.952133
0.95213
0.952127
0.952127
0.952124
0.952121
0.952118
0.952116
0.952116
0.952113
0.95211
0.952107
0.952104
0.952104
0.952101
0.952098
0.952096
0.952093
0.952093
0.95209
0.952087
0.952084
0.952081
0.952081
0.952078
0.952075
0.952073
0.95207
0.95207
0.952067
0.952064
0.952061
0.952058
0.952058
0.952055
0.952052
0.952049
0.952046
0.952046
0.952044
0.952041
0.952038
0.952035
0.952035
0.952032
0.952029
0.952026
0.952023
0.952023
0.95202
0.952017
0.952015
0.952012
0.952012
0.952009
0.952006
0.952003
0.952
0.952
0.951997
0.951994
0.951991
0.951988
0.951988
0.951985
0.951982
0.951979
0.951976
0.951976
0.951974
0.951971
0.951968
0.951965
0.951965
0.951962
0.951959
0.951956
0.951953
0.951953
0.95195
0.951947
0.951944
0.951941
0.951941
0.951938
0.951935
0.951932
0.951929
0.951929
0.951926
0.951923
0.95192
0.951917
0.951917
0.951914
0.951911
0.951909
0.951906
0.951906
0.951903
0.9519
0.951897
0.951894
0.951894
0.951891
0.951888
0.951885
0.951882
0.951882
0.951879
0.951876
0.951873
0.95187
0.95187
0.951867
0.951864
0.951861
0.951858
0.951858
0.951855
0.951852
0.951849
0.951846
0.951846
0.951843
0.95184
0.951837
0.951834
0.951834
0.951831
0.951828
0.951825
0.951822
0.951822
0.951819
0.951816
0.951813
0.951809
0.951809
0.951806
0.951803
0.9518
0.951797
0.951797
0.951794
0.951791
0.951788
0.951785
0.951785
0.951782
0.951779
0.951776
0.951773
0.951773
0.95177
0.951767
0.951764
0.951761
0.951761
0.951758
0.951755
0.951752
0.951749
0.951749
0.951746
0.951743
0.951739
0.951736
0.951736
0.951733
0.95173
0.951727
0.951724
0.951724
0.951721
0.951718
0.951715
0.951712
0.951712
0.951709
0.951706
0.951703
0.9517
0.9517
0.951696
0.951693
0.95169
0.951687
0.951687
0.951684
0.951681
0.951678
0.951675
0.951675
0.951672
0.951669
0.951665
0.951662
0.951662
0.951659
0.951656
0.951653
0.95165
0.95165
0.951647
0.951644
0.951641
0.951637
0.951637
0.951634
0.951631
0.951628
0.951625
0.951625
0.951622
0.951619
0.951616
0.951612
0.951612
0.951609
0.951606
0.951603
0.9516
0.9516
0.951597
0.951594
0.95159
0.951587
0.951587
0.951584
0.951581
0.951578
0.951575
0.951575
0.951571
0.951568
0.951565
0.951562
0.951562
0.951559
0.951556
0.951552
0.951549
0.951549
0.951546
0.951543
0.95154
0.951536
0.951536
0.951533
0.95153
0.951527
0.951524
0.951524
0.95152
0.951517
0.951514
0.951511
0.951511
0.951507
0.951504
0.951501
0.951498
0.951498
0.951494
0.951491
0.951488
0.951485
0.951485
0.951481
0.951478
0.951475
0.951472
0.951472
0.951469
0.951465
0.951462
0.951459
0.951459
0.951456
0.951452
0.951449
0.951446
0.951446
0.951443
0.951439
0.951436
0.951433
0.951433
0.95143
0.951426
0.951423
0.95142
0.95142
0.951417
0.951413
0.95141
0.951407
0.951407
0.951403
0.9514
0.951397
0.951394
0.951394
0.95139
0.951387
0.951384
0.95138
0.95138
0.951377
0.951374
0.95137
0.951367
0.951367
0.951364
0.95136
0.951357
0.951354
0.951354
0.95135
0.951347
0.951344
0.95134
0.95134
0.951337
0.951334
0.95133
0.951327
0.951327
0.951324
0.95132
0.951317
0.951314
0.951314
0.95131
0.951307
0.951303
0.9513
0.9513
0.951297
0.951293
0.95129
0.951287
0.951287
0.951283
0.95128
0.951277
0.951273
0.951273
0.95127
0.951266
0.951263
0.95126
0.95126
0.951256
0.951253
0.951249
0.951246
0.951246
0.951243
0.951239
0.951236
0.951232
0.951232
0.951229
0.951226
0.951222
0.951219
0.951219
0.951215
0.951212
0.951209
0.951205
0.951205
0.951202
0.951198
0.951195
0.951192
0.951192
0.951188
0.951185
0.951181
0.951178
0.951178
0.951174
0.951171
0.951168
0.951164
0.951164
0.951161
0.951157
0.951154
0.95115
0.95115
0.951147
0.951144
0.95114
0.951137
0.951137
0.951133
0.95113
0.951126
0.951123
0.951123
0.951119
0.951116
0.951112
0.951109
0.951109
0.951106
0.951102
0.951099
0.951095
0.951095
0.951092
0.951088
0.951085
0.951081
0.951081
0.951078
0.951074
0.951071
0.951067
0.951067
0.951064
0.95106
0.951057
0.951054
0.951054
0.95105
0.951047
0.951043
0.95104
0.95104
0.951036
0.951033
0.951029
0.951026
0.951026
0.951022
0.951019
0.951015
0.951012
0.951012
0.951008
0.951005
0.951001
0.950998
0.950998
0.950994
0.950991
0.950987
0.950984
0.950984
0.95098
0.950976
0.950973
0.950969
0.950969
0.950966
0.950962
0.950959
0.950955
0.950955
0.950952
0.950948
0.950945
0.950941
0.950941
0.950938
0.950934
0.950931
0.950927
0.950927
0.950924
0.95092
0.950916
0.950913
0.950913
0.950909
0.950906
0.950902
0.950899
0.950899
0.950895
0.950892
0.950888
0.950884
0.950884
0.950881
0.950877
0.950874
0.95087
0.95087
0.950867
0.950863
0.95086
0.950856
0.950856
0.950852
0.950849
0.950845
0.950842
0.950842
0.950838
0.950834
0.950831
0.950827
0.950827
0.950824
0.95082
0.950817
0.950813
0.950813
0.950809
0.950806
0.950802
0.950799
0.950799
0.950795
0.950791
0.950788
0.950784
0.950784
0.950781
0.950777
0.950773
0.95077
0.95077
0.950766
0.950763
0.950759
0.950755
0.950755
0.950752
0.950748
0.950744
0.950741
0.950741
0.950737
0.950734
0.95073
0.950726
0.950726
0.950723
0.950719
0.950715
0.950712
0.950712
0.950708
0.950704
0.950701
0.950697
0.950697
0.950694
0.95069
0.950686
0.950683
0.950683
0.950679
0.950675
0.950672
0.950668
0.950668
0.950664
0.950661
0.950657
0.950653
0.950653
0.95065
0.950646
0.950642
0.950639
0.950639
0.950635
0.950631
0.950628
0.950624
0.950624
0.95062
0.950617
0.950613
0.950609
0.950609
0.950606
0.950602
0.950598
0.950595
0.950595
0.950591
0.950587
0.950584
0.95058
0.95058
0.950576
0.950572
0.950569
0.950565
0.950565
0.950561
0.950558
0.950554
0.95055
0.95055
0.950547
0.950543
0.950539
0.950535
0.950535
0.950532
0.950528
0.950524
0.95052
0.95052
0.950517
0.950513
0.950509
0.950506
0.950506
0.950502
0.950498
0.950494
0.950491
0.950491
0.950487
0.950483
0.950479
0.950476
0.950476
0.950472
0.950468
0.950464
0.95046
0.95046
0.950457
0.950453
0.950449
0.950445
0.950445
0.950442
0.950438
0.950434
0.95043
0.95043
0.950426
0.950423
0.950419
0.950415
0.950415
0.950411
0.950407
0.950403
0.9504
0.9504
0.950396
0.950392
0.950388
0.950384
0.950384
0.95038
0.950377
0.950373
0.950369
0.950369
0.950365
0.950361
0.950357
0.950354
0.950354
0.95035
0.950346
0.950342
0.950338
0.950338
0.950335
0.950331
0.950327
0.950323
0.950323
0.950319
0.950315
0.950312
0.950308
0.950308
0.950304
0.9503
0.950296
0.950292
0.950292
0.950288
0.950284
0.950281
0.950277
0.950277
0.950273
0.950269
0.950265
0.950261
0.950261
0.950257
0.950253
0.950249
0.950246
0.950246
0.950242
0.950238
0.950234
0.95023
0.95023
0.950226
0.950222
0.950218
0.950214
0.950214
0.95021
0.950206
0.950202
0.950199
0.950199
0.950195
0.950191
0.950187
0.950183
0.950183
0.950179
0.950175
0.950171
0.950167
0.950167
0.950163
0.950159
0.950155
0.950151
0.950151
0.950147
0.950143
0.950139
0.950135
0.950135
0.950131
0.950127
0.950123
0.950119
0.950119
0.950115
0.950111
0.950107
0.950103
0.950103
0.950099
0.950095
0.950091
0.950088
0.950088
0.950084
0.95008
0.950076
0.950072
0.950072
0.950068
0.950064
0.95006
0.950056
0.950056
0.950052
0.950048
0.950044
0.95004
0.95004
0.950036
0.950032
0.950027
0.950023
0.950023
0.950019
0.950015
0.950011
0.950007
0.950007
0.950003
0.949999
0.949995
0.949991
0.949991
0.949987
0.949983
0.949979
0.949975
0.949975
0.949971
0.949967
0.949963
0.949959
0.949959
0.949955
0.949951
0.949947
0.949943
0.949943
0.949939
0.949935
0.949931
0.949927
0.949927
0.949923
0.949919
0.949915
0.94991
0.94991
0.949906
0.949902
0.949898
0.949894
0.949894
0.94989
0.949886
0.949882
0.949878
0.949878
0.949874
0.94987
0.949866
0.949862
0.949862
0.949858
0.949853
0.949849
0.949845
0.949845
0.949841
0.949837
0.949833
0.949829
0.949829
0.949825
0.949821
0.949817
0.949813
0.949813
0.949808
0.949804
0.9498
0.949796
0.949796
0.949792
0.949788
0.949784
0.94978
0.94978
0.949776
0.949772
0.949767
0.949763
0.949763
0.949759
0.949755
0.949751
0.949747
0.949747
0.949743
0.949739
0.949734
0.94973
0.94973
0.949726
0.949722
0.949718
0.949714
0.949714
0.94971
0.949706
0.949701
0.949697
0.949697
0.949693
0.949689
0.949685
0.949681
0.949681
0.949677
0.949672
0.949668
0.949664
0.949664
0.94966
0.949656
0.949652
0.949647
0.949647
0.949643
0.949639
0.949635
0.949631
0.949631
0.949627
0.949623
0.949618
0.949614
0.949614
0.94961
0.949606
0.949602
0.949597
0.949597
0.949593
0.949589
0.949585
0.949581
0.949581
0.949577
0.949572
0.949568
0.949564
0.949564
0.94956
0.949556
0.949551
0.949547
0.949547
0.949543
0.949539
0.949535
0.94953
0.94953
0.949526
0.949522
0.949518
0.949514
0.949514
0.949509
0.949505
0.949501
0.949497
0.949497
0.949493
0.949488
0.949484
0.94948
0.94948
0.949476
0.949471
0.949467
0.949463
0.949463
0.949459
0.949454
0.94945
0.949446
0.949446
0.949442
0.949437
0.949433
0.949429
0.949429
0.949425
0.94942
0.949416
0.949412
0.949412
0.949408
0.949403
0.949399
0.949395
0.949395
0.949391
0.949386
0.949382
0.949378
0.949378
0.949373
0.949369
0.949365
0.949361
0.949361
0.949356
0.949352
0.949348
0.949343
0.949343
0.949339
0.949335
0.94933
0.949326
0.949326
0.949322
0.949317
0.949313
0.949309
0.949309
0.949304
0.9493
0.949296
0.949291
0.949291
0.949287
0.949282
0.949278
0.949274
0.949274
0.949269
0.949265
0.949261
0.949256
0.949256
0.949252
0.949248
0.949243
0.949239
0.949239
0.949235
0.94923
0.949226
0.949222
0.949222
0.949217
0.949213
0.949209
0.949204
0.949204
0.9492
0.949195
0.949191
0.949187
0.949187
0.949182
0.949178
0.949174
0.949169
0.949169
0.949165
0.94916
0.949156
0.949152
0.949152
0.949147
0.949143
0.949138
0.949134
0.949134
0.949129
0.949125
0.949121
0.949116
0.949116
0.949112
0.949107
0.949103
0.949098
0.949098
0.949094
0.94909
0.949085
0.949081
0.949081
0.949076
0.949072
0.949067
0.949063
0.949063
0.949058
0.949054
0.949049
0.949045
0.949045
0.94904
0.949036
0.949031
0.949027
0.949027
0.949022
0.949018
0.949014
0.949009
0.949009
0.949005
0.949
0.948996
0.948991
0.948991
0.948987
0.948982
0.948978
0.948973
0.948973
0.948969
0.948964
0.94896
0.948955
0.948955
0.948951
0.948946
0.948942
0.948937
0.948937
0.948932
0.948928
0.948923
0.948919
0.948919
0.948914
0.94891
0.948905
0.948901
0.948901
0.948896
0.948892
0.948887
0.948883
0.948883
0.948878
0.948874
0.948869
0.948865
0.948865
0.94886
0.948855
0.948851
0.948846
0.948846
0.948842
0.948837
0.948833
0.948828
0.948828
0.948824
0.948819
0.948814
0.94881
0.94881
0.948805
0.948801
0.948796
0.948792
0.948792
0.948787
0.948783
0.948778
0.948773
0.948773
0.948769
0.948764
0.94876
0.948755
0.948755
0.948751
0.948746
0.948741
0.948737
0.948737
0.948732
0.948728
0.948723
0.948718
0.948718
0.948714
0.948709
0.948705
0.9487
0.9487
0.948695
0.948691
0.948686
0.948682
0.948682
0.948677
0.948672
0.948668
0.948663
0.948663
0.948659
0.948654
0.948649
0.948645
0.948645
0.94864
0.948636
0.948631
0.948626
0.948626
0.948622
0.948617
0.948612
0.948608
0.948608
0.948603
0.948599
0.948594
0.948589
0.948589
0.948585
0.94858
0.948575
0.948571
0.948571
0.948566
0.948561
0.948557
0.948552
0.948552
0.948547
0.948543
0.948538
0.948534
0.948534
0.948529
0.948524
0.94852
0.948515
0.948515
0.94851
0.948506
0.948501
0.948496
0.948496
0.948492
0.948487
0.948482
0.948478
0.948478
0.948473
0.948468
0.948464
0.948459
0.948459
0.948454
0.94845
0.948445
0.94844
0.94844
0.948435
0.948431
0.948426
0.948421
0.948421
0.948417
0.948412
0.948407
0.948403
0.948403
0.948398
0.948393
0.948388
0.948384
0.948384
0.948379
0.948374
0.94837
0.948365
0.948365
0.94836
0.948355
0.948351
0.948346
0.948346
0.948341
0.948337
0.948332
0.948327
0.948327
0.948322
0.948318
0.948313
0.948308
0.948308
0.948303
0.948299
0.948294
0.948289
0.948289
0.948284
0.948279
0.948275
0.94827
0.94827
0.948265
0.94826
0.948256
0.948251
0.948251
0.948246
0.948241
0.948236
0.948231
0.948231
0.948227
0.948222
0.948217
0.948212
0.948212
0.948207
0.948203
0.948198
0.948193
0.948193
0.948188