<?xml version="1.0"?>
<VTKFile type="UnstructuredGrid" version="0.1" byte_order="LittleEndian">
<UnstructuredGrid>
<Piece NumberOfPoints="5000" NumberOfCells="4000">
<PointData Scalars="Reaction 0">
<DataArray type="Float32" Name="Reaction 0" format="ascii">
0.889728
0.889728
0.889728
0.889728
0.889728
0.889728
0.889728
0.889728
0.889728
0.889728
0.889728
0.889728
0.889728
0.889728
0.889728
0.889728
0.889728
0.889728
0.889728
0.889728
0.889728
0.889728
0.889728
0.889728
0.889728
0.889728
0.889728
0.889728
0.889728
0.889728
0.889728
0.889728
0.889728
0.889728
0.889728
0.889728
0.889728
0.889728
0.889728
0.889728
0.889728
0.889728
0.889728
0.889727
0.889727
0.889727
0.889727
0.889727
0.889727
0.889727
0.889727
0.889727
0.889727
0.889727
0.889727
0.889727
0.889727
0.889727
0.889727
0.889727
0.889727
0.889727
0.889726
0.889726
0.889726
0.889726
0.889726
0.889726
0.889726
0.889726
0.889726
0.889726
0.889726
0.889726
0.889726
0.889726
0.889725
0.889725
0.889725
0.889725
0.889725
0.889725
0.889725
0.889725
0.889725
0.889725
0.889725
0.889725
0.889724
0.889724
0.889724
0.889724
0.889724
0.889724
0.889724
0.889724
0.889724
0.889724
0.889723
0.889723
0.889723
0.889723
0.889723
0.889723
0.889723
0.889723
0.889723
0.889723
0.889722
0.889722
0.889722
0.889722
0.889722
0.889722
0.889722
0.889722
0.889722
0.889721
0.889721
0.889721
0.889721
0.889721
0.889721
0.889721
0.889721
0.889721
0.88972
0.88972
0.88972
0.88972
0.88972
0.88972
0.88972
0.889719
0.889719
0.889719
0.889719
0.889719
0.889719
0.889719
0.889719
0.889718
0.889718
0.889718
0.889718
0.889718
0.889718
0.889717
0.889717
0.889717
0.889717
0.889717
0.889717
0.889716
0.889716
0.889716
0.889716
0.889716
0.889716
0.889715
0.889715
0.889715
0.889715
0.889715
0.889715
0.889715
0.889714
0.889714
0.889714
0.889714
0.889714
0.889714
0.889713
0.889713
0.889713
0.889713
0.889713
0.889712
0.889712
0.889712
0.889712
0.889712
0.889712
0.889711
0.889711
0.889711
0.889711
0.889711
0.88971
0.88971
0.88971
0.88971
0.88971
0.889709
0.889709
0.889709
0.889709
0.889709
0.889708
0.889708
0.889708
0.889708
0.889708
0.889707
0.889707
0.889707
0.889707
0.889707
0.889706
0.889706
0.889706
0.889706
0.889706
0.889705
0.889705
0.889705
0.889705
0.889704
0.889704
0.889704
0.889704
0.889704
0.889703
0.889703
0.889703
0.889703
0.889703
0.889702
0.889702
0.889702
0.889702
0.889701
0.889701
0.889701
0.8897
0.8897
0.8897
0.8897
0.8897
0.889699
0.889699
0.889699
0.889699
0.889698
0.889698
0.889698
0.889698
0.889697
0.889697
0.889697
0.889697
0.889697
0.889696
0.889696
0.889696
0.889696
0.889695
0.889695
0.889695
0.889694
0.889694
0.889694
0.889694
0.889693
0.889693
0.889693
0.889693
0.889692
0.889692
0.889692
0.889692
0.889691
0.889691
0.889691
0.88969
0.88969
0.88969
0.889689
0.889689
0.889689
0.889689
0.889688
0.889688
0.889688
0.889687
0.889687
0.889687
0.889687
0.889686
0.889686
0.889686
0.889686
0.889685
0.889685
0.889684
0.889684
0.889684
0.889684
0.889683
0.889683
0.889683
0.889683
0.889682
0.889682
0.889681
0.889681
0.889681
0.889681
0.88968
0.88968
0.88968
0.889679
0.889679
0.889679
0.889678
0.889678
0.889678
0.889677
0.889677
0.889677
0.889677
0.889676
0.889676
0.889675
0.889675
0.889675
0.889675
0.889674
0.889674
0.889673
0.889673
0.889673
0.889673
0.889672
0.889672
0.889672
0.889671
0.889671
0.88967
0.88967
0.88967
0.88967
0.889669
0.889669
0.889668
0.889668
0.889668
0.889667
0.889667
0.889667
0.889667
0.889666
0.889666
0.889665
0.889665
0.889665
0.889664
0.889664
0.889663
0.889663
0.889663
0.889663
0.889662
0.889662
0.889661
0.889661
0.889661
0.88966
0.88966
0.889659
0.889659
0.889659
0.889658
0.889658
0.889657
0.889657
0.889657
0.889656
0.889656
0.889656
0.889656
0.889655
0.889655
0.889654
0.889654
0.889654
0.889653
0.889653
0.889652
0.889652
0.889652
0.889651
0.889651
0.88965
0.88965
0.88965
0.889649
0.889649
0.889648
0.889648
0.889648
0.889647
0.889647
0.889646
0.889646
0.889646
0.889645
0.889645
0.889644
0.889644
0.889644
0.889643
0.889643
0.889642
0.889642
0.889642
0.889641
0.88964
0.88964
0.889639
0.889639
0.889639
0.889638
0.889638
0.889637
0.889637
0.889637
0.889636
0.889636
0.889635
0.889635
0.889635
0.889634
0.889634
0.889633
0.889633
0.889632
0.889632
0.889631
0.889631
0.889631
0.88963
0.88963
0.889629
0.889629
0.889629
0.889628
0.889627
0.889627
0.889626
0.889626
0.889626
0.889625
0.889625
0.889624
0.889624
0.889623
0.889623
0.889622
0.889622
0.889622
0.889621
0.889621
0.88962
0.889619
0.889619
0.889619
0.889618
0.889618
0.889617
0.889617
0.889616
0.889616
0.889615
0.889615
0.889615
0.889614
0.889613
0.889613
0.889612
0.889612
0.889612
0.889611
0.88961
0.88961
0.88961
0.889609
0.889609
0.889608
0.889607
0.889607
0.889607
0.889606
0.889606
0.889605
0.889605
0.889604
0.889604
0.889603
0.889602
0.889602
0.889602
0.889601
0.889601
0.8896
0.8896
0.889599
0.889599
0.889598
0.889597
0.889597
0.889597
0.889596
0.889595
0.889595
0.889595
0.889594
0.889594
0.889593
0.889592
0.889592
0.889592
0.889591
0.88959
0.88959
0.88959
0.889589
0.889588
0.889588
0.889587
0.889587
0.889586
0.889586
0.889585
0.889584
0.889584
0.889584
0.889583
0.889582
0.889582
0.889582
0.889581
0.88958
0.88958
0.889579
0.889579
0.889578
0.889578
0.889577
0.889576
0.889576
0.889575
0.889575
0.889574
0.889573
0.889573
0.889573
0.889572
0.889571
0.889571
0.889571
0.88957
0.889569
0.889569
0.889568
0.889568
0.889567
0.889566
0.889566
0.889565
0.889565
0.889564
0.889564
0.889563
0.889562
0.889562
0.889561
0.889561
0.88956
0.889559
0.889559
0.889558
0.889558
0.889557
0.889556
0.889556
0.889556
0.889555
0.889554
0.889553
0.889553
0.889553
0.889552
0.889551
0.88955
0.88955
0.88955
0.889549
0.889548
0.889547
0.889547
0.889547
0.889546
0.889545
0.889544
0.889544
0.889544
0.889543
0.889542
0.889541
0.889541
0.889541
0.88954
0.889539
0.889538
0.889538
0.889538
0.889537
0.889536
0.889535
0.889535
0.889534
0.889534
0.889533
0.889532
0.889532
0.889531
0.889531
0.88953
0.889529
0.889529
0.889528
0.889527
0.889527
0.889526
0.889526
0.889525
0.889524
0.889523
0.889523
0.889523
0.889522
0.889521
0.88952
0.889519
0.889519
0.889519
0.889518
0.889517
0.889516
0.889516
0.889515
0.889515
0.889514
0.889513
0.889513
0.889512
0.889511
0.889511
0.88951
0.88951
0.889509
0.889508
0.889507
0.889506
0.889506
0.889506
0.889505
0.889504
0.889503
0.889503
0.889502
0.889501
0.889501
0.8895
0.8895
0.889499
0.889498
0.889497
0.889496
0.889496
0.889496
0.889495
0.889494
0.889493
0.889493
0.889492
0.889491
0.88949
0.88949
0.88949
0.889489
0.889488
0.889487
0.889486
0.889486
0.889485
0.889484
0.889484
0.889483
0.889483
0.889482
0.889481
0.88948
0.889479
0.889479
0.889478
0.889477
0.889477
0.889476
0.889476
0.889475
0.889474
0.889473
0.889472
0.889472
0.889471
0.88947
0.889469
0.889469
0.889469
0.889468
0.889467
0.889466
0.889465
0.889465
0.889464
0.889463
0.889462
0.889461
0.889461
0.889461
0.88946
0.889459
0.889458
0.889458
0.889457
0.889456
0.889455
0.889454
0.889454
0.889453
0.889452
0.889451
0.88945
0.88945
0.88945
0.889449
0.889448
0.889447
0.889447
0.889446
0.889445
0.889444
0.889443
0.889443
0.889442
0.889441
0.88944
0.889439
0.889439
0.889438
0.889437
0.889436
0.889435
0.889435
0.889435
0.889434
0.889433
0.889432
0.889432
0.889431
0.88943
0.889429
0.889428
0.889428
0.889427
0.889426
0.889425
0.889424
0.889424
0.889423
0.889422
0.889421
0.88942
0.88942
0.889419
0.889418
0.889417
0.889416
0.889416
0.889415
0.889414
0.889413
0.889412
0.889412
0.889411
0.88941
0.889409
0.889408
0.889408
0.889407
0.889406
0.889405
0.889404
0.889404
0.889403
0.889402
0.889401
0.8894
0.8894
0.889399
0.889398
0.889397
0.889396
0.889396
0.889395
0.889394
0.889393
0.889392
0.889392
0.889391
0.88939
0.889389
0.889388
0.889388
0.889387
0.889386
0.889385
0.889384
0.889384
0.889383
0.889382
0.889381
0.88938
0.88938
0.889379
0.889378
0.889377
0.889376
0.889376
0.889375
0.889374
0.889373
0.889372
0.889372
0.889371
0.88937
0.889369
0.889368
0.889368
0.889367
0.889366
0.889365
0.889364
0.889364
0.889363
0.889361
0.88936
0.889359
0.889359
0.889358
0.889357
0.889356
0.889355
0.889355
0.889354
0.889353
0.889352
0.889351
0.889351
0.88935
0.889349
0.889348
0.889347
0.889347
0.889345
0.889344
0.889343
0.889342
0.889342
0.889341
0.88934
0.889339
0.889338
0.889338
0.889337
0.889336
0.889335
0.889334
0.889334
0.889332
0.889331
0.88933
0.889329
0.889329
0.889328
0.889327
0.889326
0.889325
0.889325
0.889324
0.889323
0.889321
0.88932
0.88932
0.889319
0.889318
0.889317
0.889316
0.889316
0.889315
0.889314
0.889313
0.889311
0.889311
0.88931
0.889309
0.889308
0.889307
0.889307
0.889306
0.889305
0.889304
0.889302
0.889302
0.889301
0.8893
0.889299
0.889298
0.889298
0.889297
0.889296
0.889294
0.889293
0.889293
0.889292
0.889291
0.88929
0.889289
0.889289
0.889288
0.889286
0.889285
0.889284
0.889284
0.889283
0.889282
0.889281
0.88928
0.88928
0.889278
0.889277
0.889276
0.889275
0.889275
0.889274
0.889273
0.889271
0.88927
0.88927
0.889269
0.889268
0.889267
0.889265
0.889265
0.889264
0.889263
0.889262
0.889261
0.889261
0.88926
0.889258
0.889257
0.889256
0.889256
0.889255
0.889254
0.889252
0.889251
0.889251
0.88925
0.889249
0.889248
0.889246
0.889246
0.889245
0.889244
0.889243
0.889242
0.889242
0.88924
0.889239
0.889238
0.889237
0.889237
0.889236
0.889234
0.889233
0.889232
0.889232
0.889231
0.88923
0.889228
0.889227
0.889227
0.889226
0.889225
0.889223
0.889222
0.889222
0.889221
0.88922
0.889219
0.889217
0.889217
0.889216
0.889215
0.889214
0.889212
0.889212
0.889211
0.88921
0.889209
0.889207
0.889207
0.889206
0.889205
0.889204
0.889202
0.889202
0.889201
0.8892
0.889199
0.889197
0.889197
0.889196
0.889195
0.889194
0.889192
0.889192
0.889191
0.88919
0.889189
0.889187
0.889187
0.889186
0.889185
0.889183
0.889182
0.889182
0.889181
0.88918
0.889178
0.889177
0.889177
0.889176
0.889175
0.889173
0.889172
0.889172
0.889171
0.889169
0.889168
0.889167
0.889167
0.889166
0.889164
0.889163
0.889162
0.889162
0.88916
0.889159
0.889158
0.889156
0.889156
0.889155
0.889154
0.889153
0.889151
0.889151
0.88915
0.889149
0.889147
0.889146
0.889146
0.889145
0.889143
0.889142
0.889141
0.889141
0.889139
0.889138
0.889137
0.889136
0.889136
0.889134
0.889133
0.889132
0.88913
0.88913
0.889129
0.889128
0.889126
0.889125
0.889125
0.889124
0.889122
0.889121
0.88912
0.88912
0.889118
0.889117
0.889116
0.889114
0.889114
0.889113
0.889111
0.88911
0.889109
0.889109
0.889107
0.889106
0.889105
0.889103
0.889103
0.889102
0.889101
0.889099
0.889098
0.889098
0.889097
0.889095
0.889094
0.889092
0.889092
0.889091
0.88909
0.889088
0.889087
0.889087
0.889085
0.889084
0.889083
0.889081
0.889081
0.88908
0.889078
0.889077
0.889076
0.889076
0.889074
0.889073
0.889071
0.88907
0.88907
0.889068
0.889067
0.889066
0.889064
0.889064
0.889063
0.889061
0.88906
0.889058
0.889058
0.889057
0.889055
0.889054
0.889052
0.889052
0.889051
0.889049
0.889048
0.889046
0.889046
0.889045
0.889043
0.889042
0.88904
0.88904
0.889039
0.889037
0.889036
0.889034
0.889034
0.889033
0.889031
0.88903
0.889028
0.889028
0.889027
0.889025
0.889024
0.889022
0.889022
0.889021
0.889019
0.889018
0.889016
0.889016
0.889014
0.889013
0.889011
0.88901
0.88901
0.889008
0.889007
0.889005
0.889004
0.889004
0.889002
0.889
0.888999
0.888997
0.888997
0.888996
0.888994
0.888992
0.888991
0.888991
0.888989
0.888988
0.888986
0.888984
0.888984
0.888983
0.888981
0.88898
0.888978
0.888978
0.888976
0.888975
0.888973
0.888972
0.888972
0.88897
0.888968
0.888967
0.888965
0.888965
0.888963
0.888962
0.88896
0.888959
0.888959
0.888957
0.888955
0.888954
0.888952
0.888952
0.88895
0.888949
0.888947
0.888945
0.888945
0.888944
0.888942
0.888941
0.888939
0.888939
0.888937
0.888936
0.888934
0.888932
0.888932
0.888931
0.888929
0.888927
0.888926
0.888926
0.888924
0.888922
0.888921
0.888919
0.888919
0.888917
0.888916
0.888914
0.888912
0.888912
0.888911
0.888909
0.888907
0.888906
0.888906
0.888904
0.888902
0.888901
0.888899
0.888899
0.888897
0.888896
0.888894
0.888892
0.888892
0.888891
0.888889
0.888887
0.888885
0.888885
0.888884
0.888882
0.88888
0.888879
0.888879
0.888877
0.888875
0.888874
0.888872
0.888872
0.88887
0.888868
0.888867
0.888865
0.888865
0.888863
0.888862
0.88886
0.888858
0.888858
0.888856
0.888855
0.888853
0.888851
0.888851
0.88885
0.888848
0.888846
0.888844
0.888844
0.888843
0.888841
0.888839
0.888837
0.888837
0.888836
0.888834
0.888832
0.888831
0.888831
0.888829
0.888827
0.888825
0.888824
0.888824
0.888822
0.88882
0.888818
0.888817
0.888817
0.888815
0.888813
0.888811
0.88881
0.88881
0.888808
0.888806
0.888804
0.888803
0.888803
0.888801
0.888799
0.888797
0.888796
0.888796
0.888794
0.888792
0.88879
0.888788
0.888788
0.888787
0.888785
0.888783
0.888781
0.888781
0.88878
0.888778
0.888776
0.888774
0.888774
0.888772
0.888771
0.888769
0.888767
0.888767
0.888765
0.888763
0.888762
0.88876
0.88876
0.888758
0.888756
0.888755
0.888753
0.888753
0.888751
0.888749
0.888747
0.888745
0.888745
0.888744
0.888742
0.88874
0.888738
0.888738
0.888736
0.888735
0.888733
0.888731
0.888731
0.888729
0.888727
0.888726
0.888724
0.888724
0.888722
0.88872
0.888718
0.888716
0.888716
0.888715
0.888713
0.888711
0.888709
0.888709
0.888707
0.888705
0.888704
0.888702
0.888702
0.8887
0.888698
0.888696
0.888694
0.888694
0.888693
0.888691
0.888689
0.888687
0.888687
0.888685
0.888683
0.888681
0.88868
0.88868
0.888678
0.888676
0.888674
0.888672
0.888672
0.88867
0.888668
0.888667
0.888665
0.888665
0.888663
0.888661
0.888659
0.888657
0.888657
0.888655
0.888654
0.888652
0.88865
0.88865
0.888648
0.888646
0.888644
0.888642
0.888642
0.88864
0.888639
0.888637
0.888635
0.888635
0.888633
0.888631
0.888629
0.888627
0.888627
0.888625
0.888623
0.888621
0.88862
0.88862
0.888618
0.888616
0.888614
0.888612
0.888612
0.88861
0.888608
0.888606
0.888604
0.888604
0.888602
0.888601
0.888599
0.888597
0.888597
0.888595
0.888593
0.888591
0.888589
0.888589
0.888587
0.888585
0.888583
0.888581
0.888581
0.888579
0.888578
0.888576
0.888574
0.888574
0.888572
0.88857
0.888568
0.888566
0.888566
0.888564
0.888562
0.88856
0.888558
0.888558
0.888556
0.888554
0.888552
0.88855
0.88855
0.888548
0.888547
0.888545
0.888543
0.888543
0.888541
0.888539
0.888537
0.888535
0.888535
0.888533
0.888531
0.888529
0.888527
0.888527
0.888525
0.888523
0.888521
0.888519
0.888519
0.888517
0.888515
0.888513
0.888511
0.888511
0.888509
0.888507
0.888505
0.888503
0.888503
0.888501
0.888499
0.888497
0.888495
0.888495
0.888493
0.888491
0.88849
0.888488
0.888488
0.888486
0.888484
0.888482
0.88848
0.88848
0.888478
0.888476
0.888474
0.888472
0.888472
0.88847
0.888468
0.888466
0.888464
0.888464
0.888462
0.88846
0.888458
0.888456
0.888456
0.888454
0.888452
0.88845
0.888448
0.888448
0.888446
0.888444
0.888441
0.888439
0.888439
0.888437
0.888435
0.888433
0.888431
0.888431
0.888429
0.888427
0.888425
0.888423
0.888423
0.888421
0.888419
0.888417
0.888415
0.888415
0.888413
0.888411
0.888409
0.888407
0.888407
0.888405
0.888403
0.888401
0.888399
0.888399
0.888397
0.888395
0.888393
0.888391
0.888391
0.888389
0.888387
0.888385
0.888383
0.888383
0.88838
0.888378
0.888376
0.888374
0.888374
0.888372
0.88837
0.888368
0.888366
0.888366
0.888364
0.888362
0.88836
0.888358
0.888358
0.888356
0.888354
0.888352
0.88835
0.88835
0.888347
0.888345
0.888343
0.888341
0.888341
0.888339
0.888337
0.888335
0.888333
0.888333
0.888331
0.888329
0.888327
0.888325
0.888325
0.888322
0.88832
0.888318
0.888316
0.888316
0.888314
0.888312
0.88831
0.888308
0.888308
0.888306
0.888304
0.888302
0.888299
0.888299
0.888297
0.888295
0.888293
0.888291
0.888291
0.888289
0.888287
0.888285
0.888283
0.888283
0.88828
0.888278
0.888276
0.888274
0.888274
0.888272
0.88827
0.888268
0.888266
0.888266
0.888263
0.888261
0.888259
0.888257
0.888257
0.888255
0.888253
0.888251
0.888249
0.888249
0.888246
0.888244
0.888242
0.88824
0.88824
0.888238
0.888236
0.888234
0.888232
0.888232
0.888229
0.888227
0.888225
0.888223
0.888223
0.888221
0.888219
0.888217
0.888214
0.888214
0.888212
0.88821
0.888208
0.888206
0.888206
0.888204
0.888201
0.888199
0.888197
0.888197
0.888195
0.888193
0.888191
0.888188
0.888188
0.888186
0.888184
0.888182
0.88818
0.88818
0.888178
0.888175
0.888173
0.888171
0.888171
0.888169
0.888167
0.888165
0.888162
0.888162
0.88816
0.888158
0.888156
0.888154
0.888154
0.888151
0.888149
0.888147
0.888145
0.888145
0.888143
0.888141
0.888138
0.888136
0.888136
0.888134
0.888132
0.88813
0.888127
0.888127
0.888125
0.888123
0.888121
0.888119
0.888119
0.888116
0.888114
0.888112
0.88811
0.88811
0.888107
0.888105
0.888103
0.888101
0.888101
0.888099
0.888096
0.888094
0.888092
0.888092
0.88809
0.888087
0.888085
0.888083
0.888083
0.888081
0.888078
0.888076
0.888074
0.888074
0.888072
0.888069
0.888067
0.888065
0.888065
0.888062
0.88806
0.888058
0.888055
0.888055
0.888053
0.888051
0.888049
0.888046
0.888046
0.888044
0.888042
0.888039
0.888037
0.888037
0.888035
0.888032
0.88803
0.888027
0.888027
0.888025
0.888023
0.88802
0.888018
0.888018
0.888016
0.888013
0.888011
0.888009
0.888009
0.888006
0.888004
0.888001
0.887999
0.887999
0.887997
0.887994
0.887992
0.887989
0.887989
0.887987
0.887985
0.887982
0.88798
0.88798
0.887977
0.887975
0.887972
0.88797
0.88797
0.887968
0.887965
0.887963
0.88796
0.88796
0.887958
0.887955
0.887953
0.88795
0.88795
0.887948
0.887945
0.887943
0.88794
0.88794
0.887938
0.887935
0.887933
0.88793
0.88793
0.887928
0.887925
0.887923
0.88792
0.88792
0.887918
0.887915
0.887913
0.88791
0.88791
0.887908
0.887905
0.887903
0.8879
0.8879
0.887898
0.887895
0.887893
0.88789
0.88789
0.887888
0.887885
0.887883
0.88788
0.88788
0.887878
0.887875
0.887873
0.88787
0.88787
0.887867
0.887865
0.887862
0.88786
0.88786
0.887857
0.887855
0.887852
0.88785
0.88785
0.887847
0.887845
0.887842
0.887839
0.887839
0.887837
0.887834
0.887832
0.887829
0.887829
0.887827
0.887824
0.887822
0.887819
0.887819
0.887817
0.887814
0.887811
0.887809
0.887809
0.887806
0.887804
0.887801
0.887799
0.887799
0.887796
0.887793
0.887791
0.887788
0.887788
0.887786
0.887783
0.887781
0.887778
0.887778
0.887775
0.887773
0.88777
0.887768
0.887768
0.887765
0.887763
0.88776
0.887757
0.887757
0.887755
0.887752
0.88775
0.887747
0.887747
0.887744
0.887742
0.887739
0.887737
0.887737
0.887734
0.887731
0.887729
0.887726
0.887726
0.887724
0.887721
0.887718
0.887716
0.887716
0.887713
0.887711
0.887708
0.887705
0.887705
0.887703
0.8877
0.887698
0.887695
0.887695
0.887692
0.88769
0.887687
0.887684
0.887684
0.887682
0.887679
0.887677
0.887674
0.887674
0.887671
0.887669
0.887666
0.887663
0.887663
0.887661
0.887658
0.887656
0.887653
0.887653
0.88765
0.887648
0.887645
0.887642
0.887642
0.88764
0.887637
0.887635
0.887632
0.887632
0.887629
0.887627
0.887624
0.887621
0.887621
0.887619
0.887616
0.887613
0.887611
0.887611
0.887608
0.887605
0.887603
0.8876
0.8876
0.887597
0.887595
0.887592
0.887589
0.887589
0.887587
0.887584
0.887581
0.887579
0.887579
0.887576
0.887573
0.887571
0.887568
0.887568
0.887565
0.887563
0.88756
0.887557
0.887557
0.887555
0.887552
0.887549
0.887547
0.887547
0.887544
0.887541
0.887539
0.887536
0.887536
0.887533
0.887531
0.887528
0.887525
0.887525
0.887523
0.88752
0.887517
0.887515
0.887515
0.887512
0.887509
0.887506
0.887504
0.887504
0.887501
0.887498
0.887496
0.887493
0.887493
0.88749
0.887488
0.887485
0.887482
0.887482
0.887479
0.887477
0.887474
0.887471
0.887471
0.887469
0.887466
0.887463
0.88746
0.88746
0.887458
0.887455
0.887452
0.88745
0.88745
0.887447
0.887444
0.887441
0.887439
0.887439
0.887436
0.887433
0.887431
0.887428
0.887428
0.887425
0.887422
0.88742
0.887417
0.887417
0.887414
0.887411
0.887409
0.887406
0.887406
0.887403
0.887401
0.887398
0.887395
0.887395
0.887392
0.88739
0.887387
0.887384
0.887384
0.887381
0.887379
0.887376
0.887373
0.887373
0.88737
0.887368
0.887365
0.887362
0.887362
0.887359
0.887357
0.887354
0.887351
0.887351
0.887348
0.887346
0.887343
0.88734
0.88734
0.887337
0.887335
0.887332
0.887329
0.887329
0.887326
0.887323
0.887321
0.887318
0.887318
0.887315
0.887312
0.88731
0.887307
0.887307
0.887304
0.887301
0.887299
0.887296
0.887296
0.887293
0.88729
0.887287
0.887285
0.887285
0.887282
0.887279
0.887276
0.887273
0.887273
0.887271
0.887268
0.887265
0.887262
0.887262
0.88726
0.887257
0.887254
0.887251
0.887251
0.887248
0.887246
0.887243
0.88724
0.88724
0.887237
0.887234
0.887232
0.887229
0.887229
0.887226
0.887223
0.88722
0.887218
0.887218
0.887215
0.887212
0.887209
0.887206
0.887206
0.887204
0.887201
0.887198
0.887195
0.887195
0.887192
0.887189
0.887187
0.887184
0.887184
0.887181
0.887178
0.887175
0.887173
0.887173
0.88717
0.887167
0.887164
0.887161
0.887161
0.887158
0.887156
0.887153
0.88715
0.88715
0.887147
0.887144
0.887141
0.887139
0.887139
0.887136
0.887133
0.88713
0.887127
0.887127
0.887124
0.887122
0.887119
0.887116
0.887116
0.887113
0.88711
0.887107
0.887104
0.887104
0.887102
0.887099
0.887096
0.887093
0.887093
0.88709
0.887087
0.887084
0.887081
0.887081
0.887079
0.887076
0.887073
0.88707
0.88707
0.887067
0.887064
0.887061
0.887058
0.887058
0.887055
0.887052
0.88705
0.887047
0.887047
0.887044
0.887041
0.887038
0.887035
0.887035
0.887032
0.887029
0.887026
0.887023
0.887023
0.88702
0.887017
0.887014
0.887011
0.887011
0.887008
0.887005
0.887002
0.886999
0.886999
0.886996
0.886993
0.88699
0.886987
0.886987
0.886984
0.886981
0.886978
0.886975
0.886975
0.886972
0.886969
0.886966
0.886963
0.886963
0.88696
0.886957
0.886954
0.886951
0.886951
0.886948
0.886944
0.886941
0.886938
0.886938
0.886935
0.886932
0.886929
0.886926
0.886926
0.886923
0.88692
0.886917
0.886913
0.886913
0.88691
0.886907
0.886904
0.886901
0.886901
0.886898
0.886895
0.886892
0.886888
0.886888
0.886885
0.886882
0.886879
0.886876
0.886876
0.886873
0.88687
0.886866
0.886863
0.886863
0.88686
0.886857
0.886854
0.886851
0.886851
0.886847
0.886844
0.886841
0.886838
0.886838
0.886835
0.886831
0.886828
0.886825
0.886825
0.886822
0.886819
0.886816
0.886812
0.886812
0.886809
0.886806
0.886803
0.8868
0.8868
0.886796
0.886793
0.88679
0.886787
0.886787
0.886784
0.88678
0.886777
0.886774
0.886774
0.886771
0.886768
0.886764
0.886761
0.886761
0.886758
0.886755
0.886752
0.886748
0.886748
0.886745
0.886742
0.886739
0.886736
0.886736
0.886732
0.886729
0.886726
0.886723
0.886723
0.88672
0.886716
0.886713
0.88671
0.88671
0.886707
0.886703
0.8867
0.886697
0.886697
0.886694
0.886691
0.886687
0.886684
0.886684
0.886681
0.886678
0.886674
0.886671
0.886671
0.886668
0.886665
0.886662
0.886658
0.886658
0.886655
0.886652
0.886649
0.886645
0.886645
0.886642
0.886639
0.886636
0.886632
0.886632
0.886629
0.886626
0.886623
0.886619
0.886619
0.886616
0.886613
0.88661
0.886606
0.886606
0.886603
0.8866
0.886597
0.886593
0.886593
0.88659
0.886587
0.886584
0.88658
0.88658
0.886577
0.886574
0.886571
0.886567
0.886567
0.886564
0.886561
0.886558
0.886554
0.886554
0.886551
0.886548
0.886544
0.886541
0.886541
0.886538
0.886535
0.886531
0.886528
0.886528
0.886525
0.886522
0.886518
0.886515
0.886515
0.886512
0.886508
0.886505
0.886502
0.886502
0.886499
0.886495
0.886492
0.886489
0.886489
0.886486
0.886482
0.886479
0.886476
0.886476
0.886472
0.886469
0.886466
0.886463
0.886463
0.886459
0.886456
0.886453
0.886449
0.886449
0.886446
0.886443
0.886439
0.886436
0.886436
0.886433
0.88643
0.886426
0.886423
0.886423
0.88642
0.886416
0.886413
0.88641
0.88641
0.886406
0.886403
0.8864
0.886397
0.886397
0.886393
0.88639
0.886387
0.886383
0.886383
0.88638
0.886377
0.886373
0.88637
0.88637
0.886367
0.886363
0.88636
0.886357
0.886357
0.886353
0.88635
0.886347
0.886343
0.886343
0.88634
0.886337
0.886333
0.88633
0.88633
0.886327
0.886323
0.88632
0.886317
0.886317
0.886314
0.88631
0.886307
0.886304
0.886304
0.8863
0.886297
0.886294
0.88629
0.88629
0.886287
0.886283
0.88628
0.886277
0.886277
0.886273
0.88627
0.886267
0.886263
0.886263
0.88626
0.886257
0.886253
0.88625
0.88625
0.886247
0.886243
0.88624
0.886237
0.886237
0.886233
0.88623
0.886227
0.886223
0.886223
0.88622
0.886217
0.886213
0.88621
0.88621
0.886206
0.886203
0.8862
0.886196
0.886196
0.886193
0.88619
0.886186
0.886183
0.886183
0.88618
0.886176
0.886173
0.886169
0.886169
0.886166
0.886163
0.886159
0.886156
0.886156
0.886153
0.886149
0.886146
0.886143
0.886143
0.886139
0.886136
0.886132
0.886129
0.886129
0.886126
0.886122
0.886119
0.886115
0.886115
0.886112
0.886109
0.886105
0.886102
0.886102
0.886098
0.886095
0.886092
0.886088
0.886088
0.886085
0.886081
0.886078
0.886075
0.886075
0.886071
0.886068
0.886064
0.886061
0.886061
0.886058
0.886054
0.886051
0.886047
0.886047
0.886044
0.88604
0.886037
0.886033
0.886033
0.88603
0.886026
0.886023
0.886019
0.886019
0.886016
0.886012
0.886009
0.886005
0.886005
0.886002
0.885998
0.885995
0.885991
0.885991
0.885988
0.885984
0.885981
0.885977
0.885977
0.885974
0.88597
0.885967
0.885963
0.885963
0.885959
0.885956
0.885952
0.885949
0.885949
0.885945
0.885942
0.885938
0.885935
0.885935
0.885931
0.885927
0.885924
0.88592
0.88592
0.885917
0.885913
0.885909
0.885906
0.885906
0.885902
0.885899
0.885895
0.885891
0.885891
0.885888
0.885884
0.88588
0.885877
0.885877
0.885873
0.885869
0.885866
0.885862
0.885862
0.885858
0.885855
0.885851
0.885847
0.885847
0.885844
0.88584
0.885836
0.885833
0.885833
0.885829
0.885825
0.885821
0.885818
0.885818
0.885814
0.88581
0.885807
0.885803
0.885803
0.885799
0.885795
0.885792
0.885788
0.885788
0.885784
0.885781
0.885777
0.885773
0.885773
0.885769
0.885766
0.885762
0.885758
0.885758
0.885754
0.885751
0.885747
0.885743
0.885743
0.88574
0.885736
0.885732
0.885728
0.885728
0.885725
0.885721
0.885717
0.885713
0.885713
0.88571
0.885706
0.885702
0.885698
0.885698
0.885695
0.885691
0.885687
0.885683
0.885683
0.88568
0.885676
0.885672
0.885668
0.885668
0.885665
0.885661
0.885657
0.885653
0.885653
0.88565
0.885646
0.885642
0.885638
0.885638
0.885635
0.885631
0.885627
0.885623
0.885623
0.88562
0.885616
0.885612
0.885608
0.885608
0.885604
0.885601
0.885597
0.885593
0.885593
0.885589
0.885586
0.885582
0.885578
0.885578
0.885574
0.885571
0.885567
0.885563
0.885563
0.885559
0.885555
0.885552
0.885548
0.885548
0.885544
0.88554
0.885537
0.885533
0.885533
0.885529
0.885525
0.885521
0.885518
0.885518
0.885514
0.88551
0.885506
0.885503
0.885503
0.885499
0.885495
0.885491
0.885487
0.885487
0.885484
0.88548
0.885476
0.885472
0.885472
0.885468
0.885465
0.885461
0.885457
0.885457
0.885453
0.885449
0.885446
0.885442
0.885442
0.885438
0.885434
0.88543
0.885427
0.885427
0.885423
0.885419
0.885415
0.885411
0.885411
0.885408
0.885404
0.8854
0.885396
0.885396
0.885392
0.885389
0.885385
0.885381
0.885381
0.885377
0.885373
0.88537
0.885366
0.885366
0.885362
0.885358
0.885354
0.88535
0.88535
0.885347
0.885343
0.885339
0.885335
0.885335
0.885331
0.885328
0.885324
0.88532
0.88532
0.885316
0.885312
0.885308
0.885305
0.885305
0.885301
0.885297
0.885293
0.885289
0.885289
0.885285
0.885282
0.885278
0.885274
0.885274
0.88527
0.885266
0.885263
0.885259
0.885259
0.885255
0.885251
0.885247
0.885243
0.885243
0.885239
0.885236
0.885232
0.885228
0.885228
0.885224
0.88522
0.885216
0.885213
0.885213
0.885209
0.885205
0.885201
0.885197
0.885197
0.885193
0.88519
0.885186
0.885182
0.885182
0.885178
0.885174
0.88517
0.885166
0.885166
0.885163
0.885159
0.885155
0.885151
0.885151
0.885147
0.885143
0.88514
0.885136
0.885136
0.885132
0.885128
0.885124
0.88512
0.88512
0.885116
0.885112
0.885109
0.885105
0.885105
0.885101
0.885097
0.885093
0.885089
0.885089
0.885085
0.885081
0.885078
0.885074
0.885074
0.88507
0.885066
0.885062
0.885058
0.885058
0.885054
0.88505
0.885046
0.885042
0.885042
0.885039
0.885035
0.885031
0.885027
0.885027
0.885023
0.885019
0.885015
0.885011
0.885011
0.885007
0.885003
0.884999
0.884995
0.884995
0.884991
0.884987
0.884983
0.884979
0.884979
0.884975
0.884971
0.884967
0.884963
0.884963
0.884959
0.884955
0.884951
0.884947
0.884947
0.884943
0.884939
0.884935
0.884931
0.884931
0.884927
0.884923
0.884919
0.884915
0.884915
0.884911
0.884907
0.884903
0.884899
0.884899
0.884895
0.88489
0.884886
0.884882
0.884882
0.884878
0.884874
0.88487
0.884866
0.884866
0.884862
0.884858
0.884854
0.884849
0.884849
0.884845
0.884841
0.884837
0.884833
0.884833
0.884829
0.884825
0.88482
0.884816
0.884816
0.884812
0.884808
0.884804
0.8848
0.8848
0.884795
0.884791
0.884787
0.884783
0.884783
0.884779
0.884775
0.88477
0.884766
0.884766
0.884762
0.884758
0.884754
0.884749
0.884749
0.884745
0.884741
0.884737
0.884733
0.884733
0.884728
0.884724
0.88472
0.884716
0.884716
0.884712
0.884707
0.884703
0.884699
0.884699
0.884695
0.88469
0.884686
0.884682
0.884682
0.884678
0.884674
0.884669
0.884665
0.884665
0.884661
0.884657
0.884653
0.884648
0.884648
0.884644
0.88464
0.884636
0.884631
0.884631
0.884627
0.884623
0.884619
0.884615
0.884615
0.88461
0.884606
0.884602
0.884598
0.884598
0.884593
0.884589
0.884585
0.884581
0.884581
0.884576
0.884572
0.884568
0.884564
0.884564
0.88456
0.884555
0.884551
0.884547
0.884547
0.884543
0.884538
0.884534
0.88453
0.88453
0.884526
0.884521
0.884517
0.884513
0.884513
0.884509
0.884504
0.8845
0.884496
0.884496
0.884492
0.884488
0.884483
0.884479
0.884479
0.884475
0.884471
0.884466
0.884462
0.884462
0.884458
0.884454
0.884449
0.884445
0.884445
0.884441
0.884437
0.884432
0.884428
0.884428
0.884424
0.88442
0.884415
0.884411
0.884411
0.884407
0.884403
0.884398
0.884394
0.884394
0.88439
0.884385
0.884381
0.884377
0.884377
0.884373
0.884368
0.884364
0.88436
0.88436
0.884356
0.884351
0.884347
0.884343
0.884343
0.884339
0.884334
0.88433
0.884326
0.884326
0.884322
0.884317
0.884313
0.884309
0.884309
0.884304
0.8843
0.884296
0.884292
0.884292
0.884287
0.884283
0.884279
0.884275
0.884275
0.88427
0.884266
0.884262
0.884257
0.884257
0.884253
0.884249
0.884245
0.88424
0.88424
0.884236
0.884232
0.884228
0.884223
0.884223
0.884219
0.884215
0.88421
0.884206
0.884206
0.884202
0.884198
0.884193
0.884189
0.884189
0.884185
0.88418
0.884176
0.884172
0.884172
0.884168
0.884163
0.884159
0.884155
0.884155
0.88415
0.884146
0.884142
0.884138
0.884138
0.884133
0.884129
0.884125
0.88412
0.88412
0.884116
0.884112
0.884107
0.884103
0.884103
0.884099
0.884095
0.88409
0.884086
0.884086
0.884082
0.884077
0.884073
0.884069
0.884069
0.884064
0.88406
0.884056
0.884051
0.884051
0.884047
0.884043
0.884038
0.884034
0.884034
0.88403
0.884025
0.884021
0.884016
0.884016
0.884012
0.884008
0.884003
0.883999
0.883999
0.883995
0.88399
0.883986
0.883981
0.883981
0.883977
0.883972
0.883968
0.883964
0.883964
0.883959
0.883955
0.88395
0.883946
0.883946
0.883941
0.883937