<?xml version="1.0"?>
<VTKFile type="UnstructuredGrid" version="0.1" byte_order="LittleEndian">
<UnstructuredGrid>
<Piece NumberOfPoints="5000" NumberOfCells="4000">
<PointData Scalars="Reaction 0">
<DataArray type="Float32" Name="Reaction 0" format="ascii">
0.932374
0.932374
0.932374
0.932374
0.932374
0.932374
0.932374
0.932374
0.932374
0.932374
0.932374
0.932374
0.932374
0.932374
0.932373
0.932373
0.932373
0.932373
0.932373
0.932373
0.932373
0.932373
0.932373
0.932373
0.932373
0.932373
0.932373
0.932373
0.932373
0.932373
0.932373
0.932373
0.932373
0.932373
0.932373
0.932373
0.932373
0.932373
0.932373
0.932373
0.932373
0.932373
0.932373
0.932373
0.932373
0.932373
0.932372
0.932372
0.932372
0.932372
0.932372
0.932372
0.932372
0.932372
0.932372
0.932372
0.932372
0.932372
0.932372
0.932372
0.932372
0.932372
0.932371
0.932371
0.932371
0.932371
0.932371
0.932371
0.932371
0.932371
0.932371
0.932371
0.932371
0.932371
0.932371
0.932371
0.93237
0.93237
0.93237
0.93237
0.93237
0.93237
0.93237
0.93237
0.93237
0.93237
0.93237
0.932369
0.932369
0.932369
0.932369
0.932369
0.932369
0.932369
0.932369
0.932369
0.932369
0.932368
0.932368
0.932368
0.932368
0.932368
0.932368
0.932368
0.932368
0.932368
0.932367
0.932367
0.932367
0.932367
0.932367
0.932367
0.932367
0.932366
0.932366
0.932366
0.932366
0.932366
0.932366
0.932366
0.932366
0.932366
0.932365
0.932365
0.932365
0.932365
0.932365
0.932365
0.932364
0.932364
0.932364
0.932364
0.932364
0.932364
0.932364
0.932364
0.932363
0.932363
0.932363
0.932363
0.932363
0.932363
0.932362
0.932362
0.932362
0.932362
0.932362
0.932362
0.932361
0.932361
0.932361
0.932361
0.932361
0.932361
0.93236
0.93236
0.93236
0.93236
0.93236
0.93236
0.93236
0.932359
0.932359
0.932359
0.932359
0.932359
0.932358
0.932358
0.932358
0.932358
0.932358
0.932357
0.932357
0.932357
0.932357
0.932357
0.932357
0.932356
0.932356
0.932356
0.932356
0.932356
0.932355
0.932355
0.932355
0.932355
0.932355
0.932354
0.932354
0.932354
0.932354
0.932353
0.932353
0.932353
0.932353
0.932353
0.932352
0.932352
0.932352
0.932352
0.932352
0.932351
0.932351
0.932351
0.93235
0.93235
0.93235
0.93235
0.93235
0.932349
0.932349
0.932349
0.932349
0.932348
0.932348
0.932348
0.932348
0.932348
0.932347
0.932347
0.932347
0.932347
0.932346
0.932346
0.932346
0.932346
0.932345
0.932345
0.932345
0.932344
0.932344
0.932344
0.932344
0.932344
0.932343
0.932343
0.932343
0.932343
0.932342
0.932342
0.932342
0.932342
0.932341
0.932341
0.932341
0.932341
0.93234
0.93234
0.93234
0.932339
0.932339
0.932339
0.932338
0.932338
0.932338
0.932338
0.932337
0.932337
0.932337
0.932336
0.932336
0.932336
0.932336
0.932335
0.932335
0.932335
0.932335
0.932334
0.932334
0.932333
0.932333
0.932333
0.932333
0.932332
0.932332
0.932332
0.932332
0.932331
0.932331
0.93233
0.93233
0.93233
0.93233
0.932329
0.932329
0.932329
0.932328
0.932328
0.932328
0.932327
0.932327
0.932327
0.932326
0.932326
0.932326
0.932326
0.932325
0.932325
0.932324
0.932324
0.932324
0.932324
0.932323
0.932323
0.932322
0.932322
0.932322
0.932322
0.932321
0.932321
0.932321
0.93232
0.93232
0.932319
0.932319
0.932319
0.932319
0.932318
0.932318
0.932317
0.932317
0.932317
0.932316
0.932316
0.932315
0.932315
0.932315
0.932315
0.932314
0.932314
0.932314
0.932313
0.932313
0.932312
0.932312
0.932312
0.932311
0.932311
0.93231
0.93231
0.93231
0.932309
0.932309
0.932309
0.932308
0.932308
0.932308
0.932307
0.932307
0.932306
0.932306
0.932306
0.932305
0.932305
0.932304
0.932304
0.932304
0.932303
0.932303
0.932302
0.932302
0.932302
0.932301
0.932301
0.9323
0.9323
0.9323
0.932299
0.932299
0.932298
0.932298
0.932298
0.932297
0.932297
0.932296
0.932296
0.932296
0.932295
0.932295
0.932294
0.932294
0.932294
0.932293
0.932293
0.932292
0.932292
0.932291
0.932291
0.93229
0.93229
0.93229
0.932289
0.932289
0.932288
0.932288
0.932288
0.932287
0.932287
0.932286
0.932286
0.932286
0.932285
0.932284
0.932284
0.932283
0.932283
0.932283
0.932282
0.932282
0.932281
0.932281
0.932281
0.93228
0.932279
0.932279
0.932279
0.932278
0.932278
0.932277
0.932277
0.932277
0.932276
0.932275
0.932275
0.932274
0.932274
0.932274
0.932273
0.932272
0.932272
0.932272
0.932271
0.932271
0.93227
0.932269
0.932269
0.932269
0.932268
0.932268
0.932267
0.932267
0.932266
0.932266
0.932265
0.932265
0.932265
0.932264
0.932263
0.932263
0.932262
0.932262
0.932262
0.932261
0.93226
0.93226
0.93226
0.932259
0.932258
0.932258
0.932257
0.932257
0.932257
0.932256
0.932255
0.932255
0.932255
0.932254
0.932253
0.932253
0.932252
0.932252
0.932251
0.932251
0.93225
0.932249
0.932249
0.932249
0.932248
0.932248
0.932247
0.932247
0.932246
0.932246
0.932245
0.932244
0.932244
0.932244
0.932243
0.932242
0.932242
0.932242
0.932241
0.93224
0.93224
0.932239
0.932239
0.932238
0.932237
0.932237
0.932236
0.932236
0.932235
0.932235
0.932234
0.932233
0.932233
0.932233
0.932232
0.932231
0.932231
0.932231
0.93223
0.932229
0.932228
0.932228
0.932228
0.932227
0.932226
0.932226
0.932225
0.932225
0.932224
0.932223
0.932223
0.932222
0.932222
0.932221
0.932221
0.93222
0.932219
0.932219
0.932218
0.932218
0.932217
0.932216
0.932216
0.932215
0.932215
0.932214
0.932213
0.932213
0.932213
0.932212
0.932211
0.93221
0.93221
0.93221
0.932209
0.932208
0.932207
0.932207
0.932207
0.932206
0.932205
0.932204
0.932204
0.932204
0.932203
0.932202
0.932201
0.932201
0.9322
0.9322
0.932199
0.932198
0.932198
0.932197
0.932197
0.932196
0.932195
0.932195
0.932194
0.932193
0.932193
0.932192
0.932192
0.932191
0.93219
0.93219
0.932189
0.932189
0.932188
0.932187
0.932186
0.932186
0.932186
0.932185
0.932184
0.932183
0.932182
0.932182
0.932181
0.932181
0.93218
0.932179
0.932179
0.932178
0.932177
0.932177
0.932176
0.932176
0.932175
0.932174
0.932173
0.932172
0.932172
0.932172
0.932171
0.93217
0.932169
0.932169
0.932168
0.932167
0.932167
0.932166
0.932166
0.932165
0.932164
0.932163
0.932162
0.932162
0.932162
0.932161
0.93216
0.932159
0.932159
0.932158
0.932157
0.932156
0.932156
0.932156
0.932155
0.932154
0.932153
0.932152
0.932152
0.932151
0.93215
0.932149
0.932149
0.932149
0.932148
0.932147
0.932146
0.932145
0.932145
0.932144
0.932143
0.932142
0.932142
0.932142
0.932141
0.93214
0.932139
0.932138
0.932138
0.932137
0.932136
0.932135
0.932134
0.932134
0.932133
0.932133
0.932132
0.932131
0.932131
0.93213
0.932129
0.932128
0.932127
0.932127
0.932126
0.932125
0.932124
0.932123
0.932123
0.932123
0.932122
0.932121
0.93212
0.93212
0.932119
0.932118
0.932117
0.932116
0.932116
0.932115
0.932114
0.932113
0.932112
0.932112
0.932111
0.93211
0.932109
0.932108
0.932108
0.932107
0.932107
0.932106
0.932105
0.932105
0.932104
0.932103
0.932102
0.932101
0.932101
0.9321
0.932099
0.932098
0.932097
0.932097
0.932096
0.932095
0.932094
0.932093
0.932093
0.932092
0.932091
0.93209
0.932089
0.932089
0.932088
0.932087
0.932086
0.932085
0.932085
0.932084
0.932083
0.932082
0.932081
0.932081
0.93208
0.932079
0.932078
0.932077
0.932077
0.932076
0.932075
0.932074
0.932073
0.932073
0.932072
0.932071
0.93207
0.932069
0.932069
0.932068
0.932067
0.932066
0.932065
0.932065
0.932064
0.932063
0.932062
0.932061
0.932061
0.93206
0.932059
0.932058
0.932057
0.932057
0.932056
0.932055
0.932054
0.932053
0.932053
0.932052
0.932051
0.932049
0.932048
0.932048
0.932047
0.932046
0.932045
0.932044
0.932044
0.932043
0.932042
0.932041
0.93204
0.93204
0.932039
0.932038
0.932037
0.932036
0.932036
0.932035
0.932034
0.932032
0.932031
0.932031
0.93203
0.932029
0.932028
0.932027
0.932027
0.932026
0.932025
0.932024
0.932023
0.932023
0.932022
0.932021
0.932019
0.932018
0.932018
0.932017
0.932016
0.932015
0.932014
0.932014
0.932013
0.932012
0.932011
0.932009
0.932009
0.932008
0.932007
0.932006
0.932005
0.932005
0.932004
0.932003
0.932002
0.932001
0.932001
0.931999
0.931998
0.931997
0.931996
0.931996
0.931995
0.931994
0.931993
0.931992
0.931992
0.93199
0.931989
0.931988
0.931987
0.931987
0.931986
0.931985
0.931984
0.931982
0.931982
0.931981
0.93198
0.931979
0.931978
0.931978
0.931977
0.931975
0.931974
0.931973
0.931973
0.931972
0.931971
0.93197
0.931968
0.931968
0.931967
0.931966
0.931965
0.931964
0.931964
0.931963
0.931961
0.93196
0.931959
0.931959
0.931958
0.931957
0.931955
0.931954
0.931954
0.931953
0.931952
0.931951
0.931949
0.931949
0.931948
0.931947
0.931946
0.931945
0.931945
0.931943
0.931942
0.931941
0.93194
0.93194
0.931939
0.931937
0.931936
0.931935
0.931935
0.931934
0.931933
0.931931
0.93193
0.93193
0.931929
0.931928
0.931926
0.931925
0.931925
0.931924
0.931923
0.931922
0.93192
0.93192
0.931919
0.931918
0.931917
0.931915
0.931915
0.931914
0.931913
0.931912
0.93191
0.93191
0.931909
0.931908
0.931907
0.931905
0.931905
0.931904
0.931903
0.931902
0.9319
0.9319
0.931899
0.931898
0.931896
0.931895
0.931895
0.931894
0.931893
0.931891
0.93189
0.93189
0.931889
0.931888
0.931886
0.931885
0.931885
0.931884
0.931882
0.931881
0.93188
0.93188
0.931879
0.931877
0.931876
0.931875
0.931875
0.931873
0.931872
0.931871
0.931869
0.931869
0.931868
0.931867
0.931866
0.931864
0.931864
0.931863
0.931862
0.93186
0.931859
0.931859
0.931858
0.931856
0.931855
0.931854
0.931854
0.931852
0.931851
0.93185
0.931848
0.931848
0.931847
0.931846
0.931844
0.931843
0.931843
0.931842
0.93184
0.931839
0.931838
0.931838
0.931836
0.931835
0.931834
0.931832
0.931832
0.931831
0.93183
0.931828
0.931827
0.931827
0.931826
0.931824
0.931823
0.931821
0.931821
0.93182
0.931819
0.931817
0.931816
0.931816
0.931815
0.931813
0.931812
0.931811
0.931811
0.931809
0.931808
0.931806
0.931805
0.931805
0.931804
0.931802
0.931801
0.931799
0.931799
0.931798
0.931797
0.931795
0.931794
0.931794
0.931793
0.931791
0.93179
0.931788
0.931788
0.931787
0.931786
0.931784
0.931783
0.931783
0.931781
0.93178
0.931778
0.931777
0.931777
0.931776
0.931774
0.931773
0.931771
0.931771
0.93177
0.931769
0.931767
0.931766
0.931766
0.931764
0.931763
0.931761
0.93176
0.93176
0.931759
0.931757
0.931756
0.931754
0.931754
0.931753
0.931751
0.93175
0.931748
0.931748
0.931747
0.931746
0.931744
0.931743
0.931743
0.931741
0.93174
0.931738
0.931737
0.931737
0.931735
0.931734
0.931732
0.931731
0.931731
0.93173
0.931728
0.931727
0.931725
0.931725
0.931724
0.931722
0.931721
0.931719
0.931719
0.931718
0.931716
0.931715
0.931713
0.931713
0.931712
0.93171
0.931709
0.931707
0.931707
0.931706
0.931704
0.931703
0.931701
0.931701
0.9317
0.931698
0.931697
0.931695
0.931695
0.931694
0.931692
0.931691
0.931689
0.931689
0.931688
0.931686
0.931685
0.931683
0.931683
0.931682
0.93168
0.931679
0.931677
0.931677
0.931675
0.931674
0.931672
0.931671
0.931671
0.931669
0.931668
0.931666
0.931665
0.931665
0.931663
0.931662
0.93166
0.931658
0.931658
0.931657
0.931655
0.931654
0.931652
0.931652
0.931651
0.931649
0.931647
0.931646
0.931646
0.931644
0.931643
0.931641
0.931639
0.931639
0.931638
0.931636
0.931635
0.931633
0.931633
0.931631
0.93163
0.931628
0.931626
0.931626
0.931625
0.931623
0.931622
0.93162
0.93162
0.931618
0.931617
0.931615
0.931614
0.931614
0.931612
0.93161
0.931609
0.931607
0.931607
0.931605
0.931604
0.931602
0.9316
0.9316
0.931599
0.931597
0.931595
0.931594
0.931594
0.931592
0.931591
0.931589
0.931587
0.931587
0.931585
0.931584
0.931582
0.93158
0.93158
0.931579
0.931577
0.931575
0.931574
0.931574
0.931572
0.93157
0.931569
0.931567
0.931567
0.931565
0.931564
0.931562
0.93156
0.93156
0.931558
0.931557
0.931555
0.931553
0.931553
0.931552
0.93155
0.931548
0.931546
0.931546
0.931545
0.931543
0.931541
0.931539
0.931539
0.931538
0.931536
0.931534
0.931532
0.931532
0.931531
0.931529
0.931527
0.931525
0.931525
0.931524
0.931522
0.93152
0.931518
0.931518
0.931517
0.931515
0.931513
0.931511
0.931511
0.93151
0.931508
0.931506
0.931504
0.931504
0.931503
0.931501
0.931499
0.931497
0.931497
0.931495
0.931494
0.931492
0.93149
0.93149
0.931488
0.931487
0.931485
0.931483
0.931483
0.931481
0.931479
0.931478
0.931476
0.931476
0.931474
0.931472
0.93147
0.931469
0.931469
0.931467
0.931465
0.931463
0.931461
0.931461
0.93146
0.931458
0.931456
0.931454
0.931454
0.931452
0.931451
0.931449
0.931447
0.931447
0.931445
0.931443
0.931441
0.93144
0.93144
0.931438
0.931436
0.931434
0.931432
0.931432
0.93143
0.931429
0.931427
0.931425
0.931425
0.931423
0.931421
0.931419
0.931417
0.931417
0.931416
0.931414
0.931412
0.93141
0.93141
0.931408
0.931406
0.931405
0.931403
0.931403
0.931401
0.931399
0.931397
0.931395
0.931395
0.931393
0.931391
0.93139
0.931388
0.931388
0.931386
0.931384
0.931382
0.93138
0.93138
0.931378
0.931376
0.931375
0.931373
0.931373
0.931371
0.931369
0.931367
0.931365
0.931365
0.931363
0.931361
0.931359
0.931357
0.931357
0.931356
0.931354
0.931352
0.93135
0.93135
0.931348
0.931346
0.931344
0.931342
0.931342
0.93134
0.931338
0.931336
0.931335
0.931335
0.931333
0.931331
0.931329
0.931327
0.931327
0.931325
0.931323
0.931321
0.931319
0.931319
0.931317
0.931315
0.931313
0.931311
0.931311
0.931309
0.931307
0.931305
0.931304
0.931304
0.931302
0.9313
0.931298
0.931296
0.931296
0.931294
0.931292
0.93129
0.931288
0.931288
0.931286
0.931284
0.931282
0.93128
0.93128
0.931278
0.931276
0.931274
0.931272
0.931272
0.93127
0.931268
0.931266
0.931264
0.931264
0.931262
0.93126
0.931258
0.931256
0.931256
0.931254
0.931252
0.93125
0.931248
0.931248
0.931246
0.931244
0.931242
0.93124
0.93124
0.931238
0.931236
0.931234
0.931232
0.931232
0.93123
0.931228
0.931226
0.931224
0.931224
0.931222
0.93122
0.931218
0.931216
0.931216
0.931214
0.931212
0.93121
0.931208
0.931208
0.931206
0.931204
0.931202
0.9312
0.9312
0.931198
0.931196
0.931194
0.931192
0.931192
0.93119
0.931188
0.931186
0.931184
0.931184
0.931182
0.93118
0.931178
0.931175
0.931175
0.931173
0.931171
0.931169
0.931167
0.931167
0.931165
0.931163
0.931161
0.931159
0.931159
0.931157
0.931155
0.931153
0.931151
0.931151
0.931149
0.931147
0.931144
0.931142
0.931142
0.93114
0.931138
0.931136
0.931134
0.931134
0.931132
0.93113
0.931128
0.931126
0.931126
0.931124
0.931122
0.931119
0.931117
0.931117
0.931115
0.931113
0.931111
0.931109
0.931109
0.931107
0.931105
0.931103
0.9311
0.9311
0.931098
0.931096
0.931094
0.931092
0.931092
0.93109
0.931088
0.931086
0.931084
0.931084
0.931081
0.931079
0.931077
0.931075
0.931075
0.931073
0.931071
0.931069
0.931067
0.931067
0.931064
0.931062
0.93106
0.931058
0.931058
0.931056
0.931054
0.931052
0.931049
0.931049
0.931047
0.931045
0.931043
0.931041
0.931041
0.931039
0.931036
0.931034
0.931032
0.931032
0.93103
0.931028
0.931026
0.931023
0.931023
0.931021
0.931019
0.931017
0.931015
0.931015
0.931013
0.93101
0.931008
0.931006
0.931006
0.931004
0.931002
0.930999
0.930997
0.930997
0.930995
0.930993
0.930991
0.930989
0.930989
0.930986
0.930984
0.930982
0.93098
0.93098
0.930978
0.930975
0.930973
0.930971
0.930971
0.930969
0.930966
0.930964
0.930962
0.930962
0.93096
0.930958
0.930955
0.930953
0.930953
0.930951
0.930949
0.930947
0.930944
0.930944
0.930942
0.93094
0.930938
0.930935
0.930935
0.930933
0.930931
0.930929
0.930926
0.930926
0.930924
0.930922
0.93092
0.930917
0.930917
0.930915
0.930913
0.930911
0.930908
0.930908
0.930906
0.930904
0.930902
0.930899
0.930899
0.930897
0.930895
0.930893
0.93089
0.93089
0.930888
0.930886
0.930884
0.930881
0.930881
0.930879
0.930877
0.930875
0.930872
0.930872
0.93087
0.930868
0.930865
0.930863
0.930863
0.930861
0.930859
0.930856
0.930854
0.930854
0.930852
0.930849
0.930847
0.930845
0.930845
0.930842
0.93084
0.930838
0.930836
0.930836
0.930833
0.930831
0.930829
0.930826
0.930826
0.930824
0.930822
0.930819
0.930817
0.930817
0.930815
0.930812
0.93081
0.930808
0.930808
0.930806
0.930803
0.930801
0.930799
0.930799
0.930796
0.930794
0.930792
0.930789
0.930789
0.930787
0.930785
0.930782
0.93078
0.93078
0.930778
0.930775
0.930773
0.930771
0.930771
0.930768
0.930766
0.930763
0.930761
0.930761
0.930759
0.930756
0.930754
0.930752
0.930752
0.930749
0.930747
0.930745
0.930742
0.930742
0.93074
0.930737
0.930735
0.930733
0.930733
0.93073
0.930728
0.930726
0.930723
0.930723
0.930721
0.930718
0.930716
0.930714
0.930714
0.930711
0.930709
0.930707
0.930704
0.930704
0.930702
0.930699
0.930697
0.930695
0.930695
0.930692
0.93069
0.930687
0.930685
0.930685
0.930683
0.93068
0.930678
0.930675
0.930675
0.930673
0.930671
0.930668
0.930666
0.930666
0.930663
0.930661
0.930658
0.930656
0.930656
0.930654
0.930651
0.930649
0.930646
0.930646
0.930644
0.930641
0.930639
0.930637
0.930637
0.930634
0.930632
0.930629
0.930627
0.930627
0.930624
0.930622
0.93062
0.930617
0.930617
0.930615
0.930612
0.93061
0.930607
0.930607
0.930605
0.930602
0.9306
0.930597
0.930597
0.930595
0.930592
0.93059
0.930587
0.930587
0.930585
0.930583
0.93058
0.930578
0.930578
0.930575
0.930573
0.93057
0.930568
0.930568
0.930565
0.930563
0.93056
0.930558
0.930558
0.930555
0.930552
0.93055
0.930547
0.930547
0.930545
0.930542
0.93054
0.930537
0.930537
0.930535
0.930532
0.93053
0.930527
0.930527
0.930524
0.930522
0.930519
0.930517
0.930517
0.930514
0.930512
0.930509
0.930507
0.930507
0.930504
0.930501
0.930499
0.930496
0.930496
0.930494
0.930491
0.930489
0.930486
0.930486
0.930483
0.930481
0.930478
0.930476
0.930476
0.930473
0.93047
0.930468
0.930465
0.930465
0.930463
0.93046
0.930457
0.930455
0.930455
0.930452
0.93045
0.930447
0.930444
0.930444
0.930442
0.930439
0.930436
0.930434
0.930434
0.930431
0.930428
0.930426
0.930423
0.930423
0.93042
0.930418
0.930415
0.930412
0.930412
0.93041
0.930407
0.930404
0.930402
0.930402
0.930399
0.930396
0.930394
0.930391
0.930391
0.930388
0.930386
0.930383
0.93038
0.93038
0.930378
0.930375
0.930372
0.930369
0.930369
0.930367
0.930364
0.930361
0.930359
0.930359
0.930356
0.930353
0.930351
0.930348
0.930348
0.930345
0.930342
0.93034
0.930337
0.930337
0.930334
0.930331
0.930329
0.930326
0.930326
0.930323
0.930321
0.930318
0.930315
0.930315
0.930312
0.93031
0.930307
0.930304
0.930304
0.930301
0.930299
0.930296
0.930293
0.930293
0.93029
0.930288
0.930285
0.930282
0.930282
0.930279
0.930277
0.930274
0.930271
0.930271
0.930268
0.930266
0.930263
0.93026
0.93026
0.930257
0.930255
0.930252
0.930249
0.930249
0.930246
0.930243
0.930241
0.930238
0.930238
0.930235
0.930232
0.93023
0.930227
0.930227
0.930224
0.930221
0.930218
0.930216
0.930216
0.930213
0.93021
0.930207
0.930204
0.930204
0.930202
0.930199
0.930196
0.930193
0.930193
0.93019
0.930188
0.930185
0.930182
0.930182
0.930179
0.930176
0.930174
0.930171
0.930171
0.930168
0.930165
0.930162
0.930159
0.930159
0.930157
0.930154
0.930151
0.930148
0.930148
0.930145
0.930142
0.93014
0.930137
0.930137
0.930134
0.930131
0.930128
0.930125
0.930125
0.930123
0.93012
0.930117
0.930114
0.930114
0.930111
0.930108
0.930106
0.930103
0.930103
0.9301
0.930097
0.930094
0.930091
0.930091
0.930088
0.930086
0.930083
0.93008
0.93008
0.930077
0.930074
0.930071
0.930068
0.930068
0.930065
0.930063
0.93006
0.930057
0.930057
0.930054
0.930051
0.930048
0.930045
0.930045
0.930042
0.930039
0.930037
0.930034
0.930034
0.930031
0.930028
0.930025
0.930022
0.930022
0.930019
0.930016
0.930013
0.930011
0.930011
0.930008
0.930005
0.930002
0.929999
0.929999
0.929996
0.929993
0.92999
0.929987
0.929987
0.929984
0.929981
0.929978
0.929976
0.929976
0.929973
0.92997
0.929967
0.929964
0.929964
0.929961
0.929958
0.929955
0.929952
0.929952
0.929949
0.929946
0.929943
0.92994
0.92994
0.929937
0.929934
0.929932
0.929929
0.929929
0.929926
0.929923
0.92992
0.929917
0.929917
0.929914
0.929911
0.929908
0.929905
0.929905
0.929902
0.929899
0.929896
0.929893
0.929893
0.92989
0.929887
0.929884
0.929881
0.929881
0.929878
0.929875
0.929872
0.929869
0.929869
0.929866
0.929863
0.92986
0.929857
0.929857
0.929854
0.929851
0.929848
0.929845
0.929845
0.929842
0.929839
0.929837
0.929834
0.929834
0.929831
0.929828
0.929825
0.929822
0.929822
0.929819
0.929816
0.929812
0.929809
0.929809
0.929806
0.929803
0.9298
0.929797
0.929797
0.929794
0.929791
0.929788
0.929785
0.929785
0.929782
0.929779
0.929776
0.929773
0.929773
0.92977
0.929767
0.929764
0.929761
0.929761
0.929758
0.929755
0.929752
0.929749
0.929749
0.929746
0.929743
0.92974
0.929737
0.929737
0.929734
0.929731
0.929728
0.929725
0.929725
0.929722
0.929719
0.929716
0.929712
0.929712
0.929709
0.929706
0.929703
0.9297
0.9297
0.929697
0.929694
0.929691
0.929688
0.929688
0.929685
0.929682
0.929679
0.929676
0.929676
0.929673
0.92967
0.929666
0.929663
0.929663
0.92966
0.929657
0.929654
0.929651
0.929651
0.929648
0.929645
0.929642
0.929639
0.929639
0.929636
0.929633
0.929629
0.929626
0.929626
0.929623
0.92962
0.929617
0.929614
0.929614
0.929611
0.929608
0.929605
0.929601
0.929601
0.929598
0.929595
0.929592
0.929589
0.929589
0.929586
0.929583
0.92958
0.929577
0.929577
0.929573
0.92957
0.929567
0.929564
0.929564
0.929561
0.929558
0.929555
0.929552
0.929552
0.929548
0.929545
0.929542
0.929539
0.929539
0.929536
0.929533
0.92953
0.929526
0.929526
0.929523
0.92952
0.929517
0.929514
0.929514
0.929511
0.929507
0.929504
0.929501
0.929501
0.929498
0.929495
0.929492
0.929488
0.929488
0.929485
0.929482
0.929479
0.929476
0.929476
0.929472
0.929469
0.929466
0.929463
0.929463
0.92946
0.929456
0.929453
0.92945
0.92945
0.929447
0.929444
0.92944
0.929437
0.929437
0.929434
0.929431
0.929427
0.929424
0.929424
0.929421
0.929418
0.929414
0.929411
0.929411
0.929408
0.929405
0.929401
0.929398
0.929398
0.929395
0.929391
0.929388
0.929385
0.929385
0.929382
0.929378
0.929375
0.929372
0.929372
0.929369
0.929365
0.929362
0.929359
0.929359
0.929355
0.929352
0.929349
0.929346
0.929346
0.929342
0.929339
0.929336
0.929332
0.929332
0.929329
0.929326
0.929322
0.929319
0.929319
0.929316
0.929312
0.929309
0.929306
0.929306
0.929302
0.929299
0.929296
0.929292
0.929292
0.929289
0.929286
0.929282
0.929279
0.929279
0.929276
0.929272
0.929269
0.929265
0.929265
0.929262
0.929259
0.929255
0.929252
0.929252
0.929249
0.929245
0.929242
0.929238
0.929238
0.929235
0.929232
0.929228
0.929225
0.929225
0.929221
0.929218
0.929215
0.929211
0.929211
0.929208
0.929204
0.929201
0.929197
0.929197
0.929194
0.929191
0.929187
0.929184
0.929184
0.92918
0.929177
0.929173
0.92917
0.92917
0.929167
0.929163
0.92916
0.929156
0.929156
0.929153
0.929149
0.929146
0.929142
0.929142
0.929139
0.929136
0.929132
0.929129
0.929129
0.929125
0.929122
0.929118
0.929115
0.929115
0.929111
0.929108
0.929104
0.929101
0.929101
0.929098
0.929094
0.929091
0.929087
0.929087
0.929084
0.92908
0.929077
0.929073
0.929073
0.92907
0.929066
0.929063
0.929059
0.929059
0.929056
0.929052
0.929049
0.929045
0.929045
0.929042
0.929038
0.929035
0.929031
0.929031
0.929028
0.929024
0.929021
0.929017
0.929017
0.929014
0.92901
0.929007
0.929003
0.929003
0.929
0.928996
0.928993
0.928989
0.928989
0.928986
0.928982
0.928979
0.928975
0.928975
0.928972
0.928968
0.928965
0.928961
0.928961
0.928958
0.928954
0.928951
0.928947
0.928947
0.928944
0.92894
0.928937
0.928933
0.928933
0.928929
0.928926
0.928922
0.928919
0.928919
0.928915
0.928912
0.928908
0.928905
0.928905
0.928901
0.928898
0.928894
0.92889
0.92889
0.928887
0.928883
0.92888
0.928876
0.928876
0.928873
0.928869
0.928866
0.928862
0.928862
0.928858
0.928855
0.928851
0.928848
0.928848
0.928844
0.928841
0.928837
0.928833
0.928833
0.92883
0.928826
0.928823
0.928819
0.928819
0.928816
0.928812
0.928808
0.928805
0.928805
0.928801
0.928798
0.928794
0.92879
0.92879
0.928787
0.928783
0.92878
0.928776
0.928776
0.928772
0.928769
0.928765
0.928762
0.928762
0.928758
0.928754
0.928751
0.928747
0.928747
0.928744
0.92874
0.928736
0.928733
0.928733
0.928729
0.928725
0.928722
0.928718
0.928718
0.928715
0.928711
0.928707
0.928704
0.928704
0.9287
0.928696
0.928693
0.928689
0.928689
0.928686
0.928682
0.928678
0.928675
0.928675
0.928671
0.928667
0.928664
0.92866
0.92866
0.928656
0.928653
0.928649
0.928645
0.928645
0.928642
0.928638
0.928635
0.928631
0.928631
0.928627
0.928624
0.92862
0.928616
0.928616
0.928613
0.928609
0.928605
0.928602
0.928602
0.928598
0.928594
0.928591
0.928587
0.928587
0.928583
0.92858
0.928576
0.928572
0.928572
0.928568
0.928565
0.928561
0.928557
0.928557
0.928554
0.92855
0.928546
0.928543
0.928543
0.928539
0.928535
0.928532
0.928528
0.928528
0.928524
0.92852
0.928517
0.928513
0.928513
0.928509
0.928506
0.928502
0.928498
0.928498
0.928495
0.928491
0.928487
0.928483
0.928483
0.92848
0.928476
0.928472
0.928469
0.928469
0.928465
0.928461
0.928457
0.928454
0.928454
0.92845
0.928446
0.928442
0.928439
0.928439
0.928435
0.928431
0.928427
0.928424
0.928424
0.92842
0.928416
0.928412
0.928409
0.928409
0.928405
0.928401
0.928397
0.928394
0.928394
0.92839
0.928386
0.928382
0.928379
0.928379
0.928375
0.928371
0.928367
0.928363
0.928363
0.92836
0.928356
0.928352
0.928348
0.928348
0.928344
0.928341
0.928337
0.928333
0.928333
0.928329
0.928325
0.928322
0.928318
0.928318
0.928314
0.92831
0.928306
0.928302
0.928302
0.928298
0.928295
0.928291
0.928287
0.928287
0.928283
0.928279
0.928275
0.928271
0.928271
0.928268
0.928264
0.92826
0.928256
0.928256
0.928252
0.928248
0.928244
0.92824
0.92824
0.928237
0.928233
0.928229
0.928225
0.928225
0.928221
0.928217
0.928213
0.928209
0.928209
0.928206
0.928202
0.928198
0.928194
0.928194
0.92819
0.928186
0.928182
0.928178
0.928178
0.928174
0.92817
0.928166
0.928162
0.928162
0.928158
0.928155
0.928151
0.928147
0.928147
0.928143
0.928139
0.928135
0.928131
0.928131
0.928127
0.928123
0.928119
0.928115
0.928115
0.928111
0.928107
0.928103
0.928099
0.928099
0.928095
0.928091
0.928087
0.928083
0.928083
0.928079
0.928075
0.928071
0.928067
0.928067
0.928063
0.928059
0.928055
0.928051
0.928051
0.928047
0.928043
0.928039
0.928035
0.928035
0.928031
0.928027
0.928023
0.928019
0.928019
0.928015
0.928011
0.928007
0.928003
0.928003
0.927999
0.927995
0.927991
0.927987
0.927987
0.927983
0.927978
0.927974
0.92797
0.92797
0.927966
0.927962
0.927958
0.927954
0.927954
0.92795
0.927946
0.927942
0.927938
0.927938
0.927934
0.92793
0.927926
0.927922
0.927922
0.927918
0.927914
0.92791
0.927905
0.927905
0.927901
0.927897
0.927893
0.927889
0.927889
0.927885
0.927881
0.927877
0.927873
0.927873
0.927869
0.927865
0.927861
0.927857
0.927857
0.927852
0.927848
0.927844
0.92784
0.92784
0.927836
0.927832
0.927828
0.927824
0.927824
0.92782
0.927816
0.927812
0.927807
0.927807
0.927803
0.927799
0.927795
0.927791
0.927791
0.927787
0.927783
0.927779
0.927775
0.927775
0.92777
0.927766
0.927762
0.927758
0.927758
0.927754
0.92775
0.927746
0.927742
0.927742
0.927738
0.927733
0.927729
0.927725
0.927725
0.927721
0.927717
0.927713
0.927709
0.927709
0.927704
0.9277
0.927696
0.927692
0.927692
0.927688
0.927684
0.92768
0.927675
0.927675
0.927671
0.927667
0.927663
0.927659
0.927659
0.927655
0.927651
0.927646
0.927642
0.927642
0.927638
0.927634
0.92763
0.927626
0.927626
0.927621
0.927617
0.927613
0.927609
0.927609
0.927605
0.927601
0.927596
0.927592
0.927592
0.927588
0.927584
0.92758
0.927576
0.927576
0.927571
0.927567
0.927563
0.927559
0.927559
0.927555
0.92755
0.927546
0.927542
0.927542
0.927538
0.927534
0.92753
0.927525
0.927525
0.927521
0.927517
0.927513
0.927509
0.927509
0.927504
0.9275
0.927496
0.927492
0.927492
0.927487
0.927483
0.927479
0.927475
0.927475
0.927471
0.927466
0.927462
0.927458
0.927458
0.927454
0.92745
0.927445
0.927441
0.927441
0.927437
0.927433
0.927428
0.927424
0.927424
0.92742
0.927416
0.927412
0.927407
0.927407
0.927403
0.927399
0.927395
0.92739
0.92739
0.927386
0.927382
0.927378
0.927373
0.927373
0.927369
0.927365
0.927361
0.927356
0.927356
0.927352
0.927348
0.927344
0.927339
0.927339
0.927335
0.927331
0.927326
0.927322
0.927322
0.927318
0.927314
0.927309
0.927305
0.927305
0.927301
0.927297
0.927292
0.927288
0.927288
0.927284
0.927279
0.927275
0.927271
0.927271
0.927266
0.927262
0.927258
0.927254
0.927254
0.927249
0.927245
0.927241
0.927236
0.927236
0.927232
0.927228
0.927223
0.927219
0.927219
0.927214
0.92721
0.927206
0.927201
0.927201
0.927197
0.927193
0.927188
0.927184
0.927184
0.927179
0.927175
0.927171
0.927166
0.927166
0.927162
0.927157
0.927153
0.927149
0.927149
0.927144
0.92714
0.927136
0.927131
0.927131
0.927127
0.927122
0.927118
0.927114
0.927114
0.927109
0.927105
0.9271
0.927096
0.927096
0.927092
0.927087
0.927083
0.927078
0.927078
0.927074
0.927069
0.927065
0.927061
0.927061
0.927056
0.927052
0.927047
0.927043
0.927043
0.927038
0.927034
0.927029
0.927025
0.927025
0.927021
0.927016
0.927012
0.927007
0.927007
0.927003
0.926998
0.926994
0.926989
0.926989
0.926985
0.92698
0.926976
0.926971
0.926971
0.926967
0.926962
0.926958
0.926953
0.926953
0.926949
0.926944
0.92694
0.926935
0.926935
0.92693
0.926926
0.926921
0.926917
0.926917
0.926912
0.926908
0.926903
0.926899
0.926899
0.926894
0.92689
0.926885
0.926881
0.926881
0.926876
0.926871
0.926867
0.926862
0.926862
0.926858
0.926853
0.926849
0.926844
0.926844
0.92684
0.926835
0.92683
0.926826
0.926826
0.926821
0.926817
0.926812
0.926808
0.926808
0.926803
0.926798
0.926794
0.926789
0.926789
0.926785
0.92678
0.926776
0.926771
0.926771
0.926766
0.926762
0.926757
0.926753
0.926753
0.926748
0.926743
0.926739
0.926734
0.926734
0.92673
0.926725
0.92672
0.926716
0.926716
0.926711
0.926707
0.926702
0.926697
0.926697
0.926693
0.926688
0.926684
0.926679
0.926679
0.926674
0.92667
0.926665
0.926661
0.926661
0.926656
0.926651
0.926647
0.926642
0.926642
0.926637
0.926633
0.926628
0.926624
0.926624
0.926619
0.926614
0.92661
0.926605
0.926605
0.9266
0.926596
0.926591
0.926587
0.926587
0.926582
0.926577
0.926573
0.926568
0.926568
0.926563
0.926559
0.926554
0.926549
0.926549
0.926545
0.92654
0.926535
0.926531
0.926531
0.926526
0.926522
0.926517
0.926512
0.926512
0.926508
0.926503
0.926498
0.926494
0.926494
0.926489
0.926484
0.92648
0.926475
0.926475
0.92647
0.926466
0.926461
0.926456
0.926456
0.926452
0.926447
0.926442
0.926438
0.926438
0.926433
0.926428
0.926423
0.926419
0.926419
0.926414
0.926409
0.926405
0.9264
0.9264
0.926395
0.926391
0.926386
0.926381
0.926381
0.926377
0.926372
0.926367
0.926362
0.926362
0.926358
0.926353
0.926348
0.926344
0.926344
0.926339
0.926334
0.92633
0.926325
0.926325
0.92632
0.926315
0.926311
0.926306
0.926306
0.926301
0.926297
0.926292
0.926287
0.926287
0.926282
0.926278
0.926273
0.926268
0.926268
0.926263
0.926259
0.926254
0.926249
0.926249
0.926244
0.92624
0.926235
0.92623
0.92623
0.926226
0.926221
0.926216
0.926211
0.926211
0.926206
0.926202
0.926197
0.926192
0.926192
0.926187
0.926183
0.926178
0.926173
0.926173
0.926168
0.926163
0.926159
0.926154
0.926154
0.926149
0.926144
0.926139
0.926135
0.926135
0.92613
0.926125
0.92612
0.926115
0.926115
0.926111
0.926106
0.926101
0.926096
0.926096
0.926091
0.926086
0.926081
0.926077
0.926077
0.926072
0.926067