<?xml version="1.0"?>
<VTKFile type="UnstructuredGrid" version="0.1" byte_order="LittleEndian">
<UnstructuredGrid>
<Piece NumberOfPoints="5000" NumberOfCells="4000">
<PointData Scalars="Reaction 0">
<DataArray type="Float32" Name="Reaction 0" format="ascii">
0.740751
0.740751
0.740751
0.740751
0.740751
0.740751
0.740751
0.740751
0.740751
0.740751
0.740751
0.740751
0.740751
0.740751
0.740751
0.740751
0.740751
0.740751
0.740751
0.740751
0.740751
0.740751
0.740751
0.740751
0.740752
0.740752
0.740752
0.740752
0.740752
0.740752
0.740752
0.740752
0.740752
0.740752
0.740753
0.740753
0.740753
0.740753
0.740753
0.740753
0.740753
0.740753
0.740754
0.740754
0.740754
0.740754
0.740754
0.740754
0.740754
0.740755
0.740755
0.740755
0.740755
0.740755
0.740756
0.740756
0.740756
0.740756
0.740756
0.740756
0.740756
0.740757
0.740757
0.740757
0.740757
0.740757
0.740758
0.740758
0.740758
0.740759
0.740759
0.740759
0.740759
0.740759
0.74076
0.74076
0.74076
0.74076
0.740761
0.740761
0.740761
0.740761
0.740762
0.740762
0.740762
0.740762
0.740763
0.740763
0.740763
0.740764
0.740764
0.740764
0.740765
0.740765
0.740765
0.740765
0.740766
0.740766
0.740766
0.740767
0.740767
0.740767
0.740768
0.740768
0.740769
0.740769
0.740769
0.740769
0.74077
0.74077
0.74077
0.740771
0.740771
0.740772
0.740772
0.740772
0.740773
0.740773
0.740774
0.740774
0.740774
0.740775
0.740775
0.740776
0.740776
0.740776
0.740777
0.740777
0.740778
0.740778
0.740778
0.740779
0.740779
0.74078
0.74078
0.74078
0.740781
0.740781
0.740782
0.740783
0.740783
0.740783
0.740784
0.740784
0.740785
0.740785
0.740785
0.740786
0.740787
0.740787
0.740787
0.740788
0.740789
0.740789
0.74079
0.74079
0.74079
0.740791
0.740792
0.740792
0.740792
0.740793
0.740794
0.740794
0.740795
0.740795
0.740796
0.740796
0.740797
0.740798
0.740798
0.740798
0.740799
0.7408
0.740801
0.740801
0.740801
0.740802
0.740803
0.740803
0.740803
0.740804
0.740805
0.740806
0.740806
0.740806
0.740807
0.740808
0.740809
0.74081
0.74081
0.74081
0.740811
0.740812
0.740813
0.740813
0.740813
0.740814
0.740815
0.740816
0.740816
0.740817
0.740818
0.740818
0.740819
0.740819
0.74082
0.740821
0.740822
0.740823
0.740823
0.740823
0.740824
0.740825
0.740826
0.740826
0.740827
0.740828
0.740829
0.74083
0.74083
0.74083
0.740831
0.740832
0.740833
0.740833
0.740834
0.740835
0.740836
0.740837
0.740837
0.740838
0.740839
0.74084
0.740841
0.740841
0.740842
0.740843
0.740844
0.740845
0.740845
0.740846
0.740847
0.740848
0.740849
0.740849
0.74085
0.740851
0.740852
0.740853
0.740853
0.740854
0.740855
0.740856
0.740857
0.740857
0.740858
0.740859
0.74086
0.740861
0.740861
0.740862
0.740863
0.740864
0.740865
0.740865
0.740866
0.740867
0.740869
0.74087
0.74087
0.740871
0.740872
0.740873
0.740874
0.740874
0.740875
0.740876
0.740877
0.740879
0.740879
0.74088
0.740881
0.740882
0.740883
0.740883
0.740884
0.740886
0.740887
0.740888
0.740888
0.740889
0.74089
0.740891
0.740893
0.740893
0.740894
0.740895
0.740896
0.740898
0.740898
0.740899
0.7409
0.740901
0.740902
0.740902
0.740904
0.740905
0.740906
0.740908
0.740908
0.740909
0.74091
0.740911
0.740913
0.740913
0.740914
0.740915
0.740916
0.740918
0.740918
0.740919
0.74092
0.740922
0.740923
0.740923
0.740924
0.740926
0.740927
0.740928
0.740928
0.74093
0.740931
0.740932
0.740934
0.740934
0.740935
0.740937
0.740938
0.740939
0.740939
0.740941
0.740942
0.740944
0.740945
0.740945
0.740946
0.740948
0.740949
0.740951
0.740951
0.740952
0.740954
0.740955
0.740956
0.740956
0.740958
0.740959
0.740961
0.740962
0.740962
0.740964
0.740965
0.740967
0.740968
0.740968
0.74097
0.740971
0.740973
0.740974
0.740974
0.740976
0.740977
0.740979
0.74098
0.74098
0.740982
0.740983
0.740985
0.740986
0.740986
0.740988
0.74099
0.740991
0.740993
0.740993
0.740994
0.740996
0.740997
0.740999
0.740999
0.741001
0.741002
0.741004
0.741005
0.741005
0.741007
0.741009
0.74101
0.741012
0.741012
0.741014
0.741015
0.741017
0.741018
0.741018
0.74102
0.741022
0.741023
0.741025
0.741025
0.741027
0.741029
0.74103
0.741032
0.741032
0.741034
0.741035
0.741037
0.741039
0.741039
0.74104
0.741042
0.741044
0.741046
0.741046
0.741047
0.741049
0.741051
0.741053
0.741053
0.741054
0.741056
0.741058
0.74106
0.74106
0.741061
0.741063
0.741065
0.741067
0.741067
0.741069
0.74107
0.741072
0.741074
0.741074
0.741076
0.741078
0.74108
0.741081
0.741081
0.741083
0.741085
0.741087
0.741089
0.741089
0.741091
0.741092
0.741094
0.741096
0.741096
0.741098
0.7411
0.741102
0.741104
0.741104
0.741106
0.741108
0.74111
0.741111
0.741111
0.741113
0.741115
0.741117
0.741119
0.741119
0.741121
0.741123
0.741125
0.741127
0.741127
0.741129
0.741131
0.741133
0.741135
0.741135
0.741137
0.741139
0.741141
0.741143
0.741143
0.741145
0.741147
0.741149
0.741151
0.741151
0.741153
0.741155
0.741157
0.741159
0.741159
0.741161
0.741163
0.741165
0.741167
0.741167
0.741169
0.741171
0.741173
0.741176
0.741176
0.741178
0.74118
0.741182
0.741184
0.741184
0.741186
0.741188
0.74119
0.741192
0.741192
0.741194
0.741197
0.741199
0.741201
0.741201
0.741203
0.741205
0.741207
0.74121
0.74121
0.741212
0.741214
0.741216
0.741218
0.741218
0.74122
0.741223
0.741225
0.741227
0.741227
0.741229
0.741231
0.741234
0.741236
0.741236
0.741238
0.74124
0.741243
0.741245
0.741245
0.741247
0.741249
0.741252
0.741254
0.741254
0.741256
0.741258
0.741261
0.741263
0.741263
0.741265
0.741268
0.74127
0.741272
0.741272
0.741275
0.741277
0.741279
0.741281
0.741281
0.741284
0.741286
0.741289
0.741291
0.741291
0.741293
0.741296
0.741298
0.7413
0.7413
0.741303
0.741305
0.741307
0.74131
0.74131
0.741312
0.741315
0.741317
0.741319
0.741319
0.741322
0.741324
0.741327
0.741329
0.741329
0.741332
0.741334
0.741336
0.741339
0.741339
0.741341
0.741344
0.741346
0.741349
0.741349
0.741351
0.741354
0.741356
0.741359
0.741359
0.741361
0.741364
0.741366
0.741369
0.741369
0.741371
0.741374
0.741376
0.741379
0.741379
0.741381
0.741384
0.741386
0.741389
0.741389
0.741392
0.741394
0.741397
0.741399
0.741399
0.741402
0.741404
0.741407
0.74141
0.74141
0.741412
0.741415
0.741417
0.74142
0.74142
0.741423
0.741425
0.741428
0.741431
0.741431
0.741433
0.741436
0.741438
0.741441
0.741441
0.741444
0.741446
0.741449
0.741452
0.741452
0.741455
0.741457
0.74146
0.741463
0.741463
0.741465
0.741468
0.741471
0.741473
0.741473
0.741476
0.741479
0.741482
0.741484
0.741484
0.741487
0.74149
0.741493
0.741495
0.741495
0.741498
0.741501
0.741504
0.741506
0.741506
0.741509
0.741512
0.741515
0.741518
0.741518
0.74152
0.741523
0.741526
0.741529
0.741529
0.741532
0.741535
0.741537
0.74154
0.74154
0.741543
0.741546
0.741549
0.741552
0.741552
0.741554
0.741557
0.74156
0.741563
0.741563
0.741566
0.741569
0.741572
0.741575
0.741575
0.741578
0.741581
0.741583
0.741586
0.741586
0.741589
0.741592
0.741595
0.741598
0.741598
0.741601
0.741604
0.741607
0.74161
0.74161
0.741613
0.741616
0.741619
0.741622
0.741622
0.741625
0.741628
0.741631
0.741634
0.741634
0.741637
0.74164
0.741643
0.741646
0.741646
0.741649
0.741652
0.741655
0.741658
0.741658
0.741661
0.741664
0.741667
0.74167
0.74167
0.741673
0.741676
0.74168
0.741683
0.741683
0.741686
0.741689
0.741692
0.741695
0.741695
0.741698
0.741701
0.741704
0.741708
0.741708
0.741711
0.741714
0.741717
0.74172
0.74172
0.741723
0.741726
0.74173
0.741733
0.741733
0.741736
0.741739
0.741742
0.741745
0.741745
0.741749
0.741752
0.741755
0.741758
0.741758
0.741762
0.741765
0.741768
0.741771
0.741771
0.741774
0.741778
0.741781
0.741784
0.741784
0.741787
0.741791
0.741794
0.741797
0.741797
0.741801
0.741804
0.741807
0.74181
0.74181
0.741814
0.741817
0.74182
0.741824
0.741824
0.741827
0.74183
0.741834
0.741837
0.741837
0.74184
0.741844
0.741847
0.74185
0.74185
0.741854
0.741857
0.74186
0.741864
0.741864
0.741867
0.741871
0.741874
0.741877
0.741877
0.741881
0.741884
0.741888
0.741891
0.741891
0.741894
0.741898
0.741901
0.741905
0.741905
0.741908
0.741912
0.741915
0.741919
0.741919
0.741922
0.741925
0.741929
0.741932
0.741932
0.741936
0.741939
0.741943
0.741946
0.741946
0.74195
0.741953
0.741957
0.74196
0.74196
0.741964
0.741967
0.741971
0.741975
0.741975
0.741978
0.741982
0.741985
0.741989
0.741989
0.741992
0.741996
0.741999
0.742003
0.742003
0.742007
0.74201
0.742014
0.742017
0.742017
0.742021
0.742025
0.742028
0.742032
0.742032
0.742036
0.742039
0.742043
0.742046
0.742046
0.74205
0.742054
0.742057
0.742061
0.742061
0.742065
0.742068
0.742072
0.742076
0.742076
0.74208
0.742083
0.742087
0.742091
0.742091
0.742094
0.742098
0.742102
0.742105
0.742105
0.742109
0.742113
0.742117
0.74212
0.74212
0.742124
0.742128
0.742132
0.742135
0.742135
0.742139
0.742143
0.742147
0.742151
0.742151
0.742154
0.742158
0.742162
0.742166
0.742166
0.74217
0.742173
0.742177
0.742181
0.742181
0.742185
0.742189
0.742193
0.742196
0.742196
0.7422
0.742204
0.742208
0.742212
0.742212
0.742216
0.74222
0.742224
0.742227
0.742227
0.742231
0.742235
0.742239
0.742243
0.742243
0.742247
0.742251
0.742255
0.742259
0.742259
0.742263
0.742267
0.742271
0.742275
0.742275
0.742279
0.742283
0.742287
0.74229
0.74229
0.742294
0.742298
0.742302
0.742306
0.742306
0.74231
0.742314
0.742318
0.742322
0.742322
0.742327
0.742331
0.742335
0.742339
0.742339
0.742343
0.742347
0.742351
0.742355
0.742355
0.742359
0.742363
0.742367
0.742371
0.742371
0.742375
0.742379
0.742383
0.742387
0.742387
0.742392
0.742396
0.7424
0.742404
0.742404
0.742408
0.742412
0.742416
0.74242
0.74242
0.742425
0.742429
0.742433
0.742437
0.742437
0.742441
0.742445
0.74245
0.742454
0.742454
0.742458
0.742462
0.742466
0.742471
0.742471
0.742475
0.742479
0.742483
0.742487
0.742487
0.742492
0.742496
0.7425
0.742504
0.742504
0.742509
0.742513
0.742517
0.742521
0.742521
0.742526
0.74253
0.742534
0.742539
0.742539
0.742543
0.742547
0.742551
0.742556
0.742556
0.74256
0.742564
0.742569
0.742573
0.742573
0.742577
0.742582
0.742586
0.74259
0.74259
0.742595
0.742599
0.742603
0.742608
0.742608
0.742612
0.742617
0.742621
0.742625
0.742625
0.74263
0.742634
0.742639
0.742643
0.742643
0.742647
0.742652
0.742656
0.742661
0.742661
0.742665
0.74267
0.742674
0.742678
0.742678
0.742683
0.742687
0.742692
0.742696
0.742696
0.742701
0.742705
0.74271
0.742714
0.742714
0.742719
0.742723
0.742728
0.742732
0.742732
0.742737
0.742741
0.742746
0.74275
0.74275
0.742755
0.742759
0.742764
0.742769
0.742769
0.742773
0.742778
0.742782
0.742787
0.742787
0.742791
0.742796
0.742801
0.742805
0.742805
0.74281
0.742814
0.742819
0.742824
0.742824
0.742828
0.742833
0.742837
0.742842
0.742842
0.742847
0.742851
0.742856
0.742861
0.742861
0.742865
0.74287
0.742875
0.742879
0.742879
0.742884
0.742889
0.742893
0.742898
0.742898
0.742903
0.742907
0.742912
0.742917
0.742917
0.742921
0.742926
0.74293
0.742935
0.742935
0.74294
0.742944
0.742949
0.742954
0.742954
0.742958
0.742963
0.742967
0.742972
0.742972
0.742976
0.742981
0.742985
0.74299
0.74299
0.742994
0.742999
0.743003
0.743008
0.743008
0.743012
0.743017
0.743021
0.743025
0.743025
0.74303
0.743034
0.743038
0.743043
0.743043
0.743047
0.743052
0.743056
0.74306
0.74306
0.743065
0.743069
0.743073
0.743078
0.743078
0.743082
0.743086
0.74309
0.743095
0.743095
0.743099
0.743103
0.743108
0.743112
0.743112
0.743116
0.743121
0.743125
0.74313
0.74313
0.743134
0.743138
0.743143
0.743147
0.743147
0.743151
0.743156
0.74316
0.743164
0.743164
0.743169
0.743173
0.743178
0.743182
0.743182
0.743186
0.743191
0.743195
0.7432
0.7432
0.743204
0.743208
0.743213
0.743217
0.743217
0.743222
0.743226
0.743231
0.743235
0.743235
0.74324
0.743244
0.743248
0.743253
0.743253
0.743257
0.743262
0.743266
0.743271
0.743271
0.743275
0.74328
0.743284
0.743289
0.743289
0.743293
0.743298
0.743302
0.743307
0.743307
0.743311
0.743316
0.74332
0.743325
0.743325
0.74333
0.743334
0.743339
0.743343
0.743343
0.743348
0.743352
0.743357
0.743362
0.743362
0.743366
0.743371
0.743375
0.74338
0.74338
0.743384
0.743389
0.743394
0.743398
0.743398
0.743403
0.743408
0.743412
0.743417
0.743417
0.743421
0.743426
0.743431
0.743435
0.743435
0.74344
0.743445
0.743449
0.743454
0.743454
0.743459
0.743463
0.743468
0.743473
0.743473
0.743478
0.743482
0.743487
0.743492
0.743492
0.743496
0.743501
0.743506
0.74351
0.74351
0.743515
0.74352
0.743525
0.743529
0.743529
0.743534
0.743539
0.743544
0.743548
0.743548
0.743553
0.743558
0.743563
0.743568
0.743568
0.743572
0.743577
0.743582
0.743587
0.743587
0.743592
0.743596
0.743601
0.743606
0.743606
0.743611
0.743616
0.74362
0.743625
0.743625
0.74363
0.743635
0.74364
0.743645
0.743645
0.74365
0.743654
0.743659
0.743664
0.743664
0.743669
0.743674
0.743679
0.743684
0.743684
0.743689
0.743694
0.743698
0.743703
0.743703
0.743708
0.743713
0.743718
0.743723
0.743723
0.743728
0.743733
0.743738
0.743743
0.743743
0.743748
0.743753
0.743758
0.743763
0.743763
0.743768
0.743773
0.743778
0.743783
0.743783
0.743788
0.743793
0.743798
0.743803
0.743803
0.743808
0.743813
0.743818
0.743823
0.743823
0.743828
0.743833
0.743838
0.743843
0.743843
0.743848
0.743853
0.743858
0.743863
0.743863
0.743868
0.743873
0.743878
0.743883
0.743883
0.743888
0.743893
0.743898
0.743904
0.743904
0.743909
0.743914
0.743919
0.743924
0.743924
0.743929
0.743934
0.743939
0.743945
0.743945
0.74395
0.743955
0.74396
0.743965
0.743965
0.74397
0.743975
0.743981
0.743986
0.743986
0.743991
0.743996
0.744001
0.744006
0.744006
0.744012
0.744017
0.744022
0.744027
0.744027
0.744032
0.744038
0.744043
0.744048
0.744048
0.744053
0.744059
0.744064
0.744069
0.744069
0.744074
0.74408
0.744085
0.74409
0.74409
0.744095
0.744101
0.744106
0.744111
0.744111
0.744117
0.744122
0.744127
0.744132
0.744132
0.744138
0.744143
0.744148
0.744154
0.744154
0.744159
0.744164
0.74417
0.744175
0.744175
0.74418
0.744186
0.744191
0.744196
0.744196
0.744202
0.744207
0.744212
0.744218
0.744218
0.744223
0.744229
0.744234
0.744239
0.744239
0.744245
0.74425
0.744256
0.744261
0.744261
0.744266
0.744272
0.744277
0.744283
0.744283
0.744288
0.744294
0.744299
0.744305
0.744305
0.74431
0.744315
0.744321
0.744326
0.744326
0.744332
0.744337
0.744343
0.744348
0.744348
0.744354
0.744359
0.744365
0.74437
0.74437
0.744376
0.744381
0.744387
0.744392
0.744392
0.744398
0.744403
0.744409
0.744415
0.744415
0.74442
0.744426
0.744431
0.744437
0.744437
0.744442
0.744448
0.744453
0.744459
0.744459
0.744465
0.74447
0.744476
0.744481
0.744481
0.744487
0.744493
0.744498
0.744504
0.744504
0.744509
0.744515
0.744521
0.744526
0.744526
0.744532
0.744538
0.744543
0.744549
0.744549
0.744555
0.74456
0.744566
0.744572
0.744572
0.744577
0.744583
0.744589
0.744594
0.744594
0.7446
0.744606
0.744611
0.744617
0.744617
0.744623
0.744629
0.744634
0.74464
0.74464
0.744646
0.744652
0.744657
0.744663
0.744663
0.744669
0.744675
0.74468
0.744686
0.744686
0.744692
0.744698
0.744703
0.744709
0.744709
0.744715
0.744721
0.744727
0.744732
0.744732
0.744738
0.744744
0.74475
0.744756
0.744756
0.744762
0.744767
0.744773
0.744779
0.744779
0.744785
0.744791
0.744797
0.744803
0.744803
0.744808
0.744814
0.74482
0.744826
0.744826
0.744832
0.744838
0.744844
0.74485
0.74485
0.744855
0.744861
0.744867
0.744873
0.744873
0.744879
0.744885
0.744891
0.744897
0.744897
0.744903
0.744909
0.744915
0.744921
0.744921
0.744927
0.744933
0.744939
0.744945
0.744945
0.744951
0.744957
0.744963
0.744969
0.744969
0.744975
0.744981
0.744987
0.744993
0.744993
0.744999
0.745005
0.745011
0.745017
0.745017
0.745023
0.745029
0.745035
0.745041
0.745041
0.745047
0.745053
0.745059
0.745065
0.745065
0.745071
0.745077
0.745083
0.74509
0.74509
0.745096
0.745102
0.745108
0.745114
0.745114
0.74512
0.745126
0.745132
0.745138
0.745138
0.745145
0.745151
0.745157
0.745163
0.745163
0.745169
0.745175
0.745181
0.745188
0.745188
0.745194
0.7452
0.745206
0.745212
0.745212
0.745219
0.745225
0.745231
0.745237
0.745237
0.745243
0.74525
0.745256
0.745262
0.745262
0.745268
0.745274
0.745281
0.745287
0.745287
0.745293
0.745299
0.745306
0.745312
0.745312
0.745318
0.745324
0.745331
0.745337
0.745337
0.745343
0.74535
0.745356
0.745362
0.745362
0.745368
0.745375
0.745381
0.745387
0.745387
0.745394
0.7454
0.745406
0.745413
0.745413
0.745419
0.745425
0.745432
0.745438
0.745438
0.745445
0.745451
0.745457
0.745464
0.745464
0.74547
0.745476
0.745483
0.745489
0.745489
0.745496
0.745502
0.745508
0.745515
0.745515
0.745521
0.745528
0.745534
0.74554
0.74554
0.745547
0.745553
0.74556
0.745566
0.745566
0.745573
0.745579
0.745586
0.745592
0.745592
0.745599
0.745605
0.745612
0.745618
0.745618
0.745625
0.745631
0.745638
0.745644
0.745644
0.745651
0.745657
0.745664
0.74567
0.74567
0.745677
0.745683
0.74569
0.745696
0.745696
0.745703
0.745709
0.745716
0.745722
0.745722
0.745729
0.745736
0.745742
0.745749
0.745749
0.745755
0.745762
0.745768
0.745775
0.745775
0.745781
0.745788
0.745794
0.745801
0.745801
0.745807
0.745814
0.74582
0.745827
0.745827
0.745833
0.74584
0.745846
0.745853
0.745853
0.745859
0.745865
0.745872
0.745878
0.745878
0.745884
0.745891
0.745897
0.745903
0.745903
0.745909
0.745916
0.745922
0.745928
0.745928
0.745934
0.74594
0.745947
0.745953
0.745953
0.745959
0.745965
0.745971
0.745977
0.745977
0.745983
0.745989
0.745995
0.746001
0.746001
0.746007
0.746013
0.746019
0.746025
0.746025
0.746031
0.746037
0.746043
0.746049
0.746049
0.746055
0.746061
0.746067
0.746073
0.746073
0.746078
0.746084
0.74609
0.746096
0.746096
0.746102
0.746108
0.746114
0.74612
0.74612
0.746126
0.746132
0.746138
0.746144
0.746144
0.74615
0.746156
0.746162
0.746168
0.746168
0.746174
0.74618
0.746186
0.746192
0.746192
0.746198
0.746204
0.74621
0.746216
0.746216
0.746222
0.746228
0.746234
0.74624
0.74624
0.746246
0.746252
0.746259
0.746265
0.746265
0.746271
0.746277
0.746283
0.746289
0.746289
0.746295
0.746301
0.746307
0.746313
0.746313
0.746319
0.746326
0.746332
0.746338
0.746338
0.746344
0.74635
0.746356
0.746362
0.746362
0.746368
0.746375
0.746381
0.746387
0.746387
0.746393
0.746399
0.746405
0.746411
0.746411
0.746418
0.746424
0.74643
0.746436
0.746436
0.746442
0.746449
0.746455
0.746461
0.746461
0.746467
0.746473
0.74648
0.746486
0.746486
0.746492
0.746498
0.746505
0.746511
0.746511
0.746517
0.746523
0.74653
0.746536
0.746536
0.746542
0.746548
0.746555
0.746561
0.746561
0.746567
0.746573
0.74658
0.746586
0.746586
0.746592
0.746599
0.746605
0.746611
0.746611
0.746617
0.746624
0.74663
0.746636
0.746636
0.746643
0.746649
0.746655
0.746662
0.746662
0.746668
0.746674
0.746681
0.746687
0.746687
0.746694
0.7467
0.746706
0.746713
0.746713
0.746719
0.746725
0.746732
0.746738
0.746738
0.746745
0.746751
0.746757
0.746764
0.746764
0.74677
0.746777
0.746783
0.74679
0.74679
0.746796
0.746802
0.746809
0.746815
0.746815
0.746822
0.746828
0.746835
0.746841
0.746841
0.746848
0.746854
0.746861
0.746867
0.746867
0.746873
0.74688
0.746886
0.746893
0.746893
0.746899
0.746906
0.746912
0.746919
0.746919
0.746926
0.746932
0.746939
0.746945
0.746945
0.746952
0.746958
0.746965
0.746971
0.746971
0.746978
0.746984
0.746991
0.746998
0.746998
0.747004
0.747011
0.747017
0.747024
0.747024
0.74703
0.747037
0.747044
0.74705
0.74705
0.747057
0.747063
0.74707
0.747077
0.747077
0.747083
0.74709
0.747097
0.747103
0.747103
0.74711
0.747116
0.747123
0.74713
0.74713
0.747136
0.747143
0.74715
0.747156
0.747156
0.747163
0.74717
0.747176
0.747183
0.747183
0.74719
0.747197
0.747203
0.74721
0.74721
0.747217
0.747223
0.74723
0.747237
0.747237
0.747244
0.74725
0.747257
0.747264
0.747264
0.747271
0.747277
0.747284
0.747291
0.747291
0.747298
0.747304
0.747311
0.747318
0.747318
0.747325
0.747331
0.747338
0.747345
0.747345
0.747352
0.747359
0.747365
0.747372
0.747372
0.747379
0.747386
0.747393
0.7474
0.7474
0.747406
0.747413
0.74742
0.747427
0.747427
0.747434
0.747441
0.747448
0.747454
0.747454
0.747461
0.747468
0.747475
0.747482
0.747482
0.747489
0.747496
0.747503
0.747509
0.747509
0.747516
0.747523
0.74753
0.747537
0.747537
0.747544
0.747551
0.747558
0.747565
0.747565
0.747572
0.747579
0.747586
0.747593
0.747593
0.7476
0.747607
0.747614
0.74762
0.74762
0.747627
0.747634
0.747641
0.747648
0.747648
0.747655
0.747662
0.747669
0.747676
0.747676
0.747683
0.74769
0.747697
0.747705
0.747705
0.747712
0.747719
0.747726
0.747733
0.747733
0.74774
0.747747
0.747754
0.747761
0.747761
0.747768
0.747775
0.747782
0.747789
0.747789
0.747796
0.747803
0.74781
0.747818
0.747818
0.747825
0.747832
0.747839
0.747846
0.747846
0.747853
0.74786
0.747867
0.747874
0.747874
0.747882
0.747889
0.747896
0.747903
0.747903
0.74791
0.747917
0.747924
0.747932
0.747932
0.747939
0.747946
0.747953
0.74796
0.74796
0.747968
0.747975
0.747982
0.747989
0.747989
0.747996
0.748004
0.748011
0.748018
0.748018
0.748025
0.748032
0.74804
0.748047
0.748047
0.748054
0.748061
0.748069
0.748076
0.748076
0.748083
0.74809
0.748098
0.748105
0.748105
0.748112
0.74812
0.748127
0.748134
0.748134
0.748141
0.748149
0.748156
0.748163
0.748163
0.748171
0.748178
0.748185
0.748193
0.748193
0.7482
0.748207
0.748215
0.748222
0.748222
0.748229
0.748237
0.748244
0.748251
0.748251
0.748259
0.748266
0.748273
0.748281
0.748281
0.748288
0.748295
0.748303
0.74831
0.74831
0.748317
0.748325
0.748332
0.748339
0.748339
0.748347
0.748354
0.748361
0.748368
0.748368
0.748376
0.748383
0.74839
0.748397
0.748397
0.748404
0.748412
0.748419
0.748426
0.748426
0.748433
0.74844
0.748447
0.748454
0.748454
0.748461
0.748468
0.748475
0.748482
0.748482
0.748489
0.748495
0.748502
0.748509
0.748509
0.748516
0.748523
0.74853
0.748536
0.748536
0.748543
0.74855
0.748556
0.748563
0.748563
0.74857
0.748576
0.748583
0.74859
0.74859
0.748596
0.748603
0.74861
0.748616
0.748616
0.748623
0.748629
0.748636
0.748643
0.748643
0.748649
0.748656
0.748662
0.748669
0.748669
0.748676
0.748682
0.748689
0.748695
0.748695
0.748702
0.748709
0.748715
0.748722
0.748722
0.748728
0.748735
0.748742
0.748748
0.748748
0.748755
0.748762
0.748768
0.748775
0.748775
0.748782
0.748788
0.748795
0.748801
0.748801
0.748808
0.748815
0.748821
0.748828
0.748828
0.748835
0.748842
0.748848
0.748855
0.748855
0.748862
0.748868
0.748875
0.748882
0.748882
0.748888
0.748895
0.748902
0.748909
0.748909
0.748915
0.748922
0.748929
0.748936
0.748936
0.748942
0.748949
0.748956
0.748963
0.748963
0.748969
0.748976
0.748983
0.74899
0.74899
0.748996
0.749003
0.74901
0.749017
0.749017
0.749024
0.74903
0.749037
0.749044
0.749044
0.749051
0.749058
0.749064
0.749071
0.749071
0.749078
0.749085
0.749092
0.749099
0.749099
0.749105
0.749112
0.749119
0.749126
0.749126
0.749133
0.74914
0.749147
0.749153
0.749153
0.74916
0.749167
0.749174
0.749181
0.749181
0.749188
0.749195
0.749202
0.749209
0.749209
0.749216
0.749222
0.749229
0.749236
0.749236
0.749243
0.74925
0.749257
0.749264
0.749264
0.749271
0.749278
0.749285
0.749292
0.749292
0.749299
0.749306
0.749313
0.74932
0.74932
0.749327
0.749334
0.749341
0.749348
0.749348
0.749355
0.749362
0.749369
0.749376
0.749376
0.749383
0.74939
0.749397
0.749404
0.749404
0.749411
0.749418
0.749425
0.749432
0.749432
0.749439
0.749446
0.749453
0.74946
0.74946
0.749467
0.749474
0.749481
0.749488
0.749488
0.749495
0.749502
0.74951
0.749517
0.749517
0.749524
0.749531
0.749538
0.749545
0.749545
0.749552
0.749559
0.749566
0.749573
0.749573
0.749581
0.749588
0.749595
0.749602
0.749602
0.749609
0.749616
0.749623
0.749631
0.749631
0.749638
0.749645
0.749652
0.749659
0.749659
0.749666
0.749674
0.749681
0.749688
0.749688
0.749695
0.749702
0.74971
0.749717
0.749717
0.749724
0.749731
0.749738
0.749746
0.749746
0.749753
0.74976
0.749767
0.749775
0.749775
0.749782
0.749789
0.749796
0.749804
0.749804
0.749811
0.749818
0.749825
0.749833
0.749833
0.74984
0.749847
0.749855
0.749862
0.749862
0.749869
0.749876
0.749884
0.749891
0.749891
0.749898
0.749906
0.749913
0.74992
0.74992
0.749928
0.749935
0.749942
0.74995
0.74995
0.749957
0.749964
0.749972
0.749979
0.749979
0.749987
0.749994
0.750001
0.750009
0.750009
0.750016
0.750023
0.750031
0.750038
0.750038
0.750046
0.750053
0.75006
0.750068
0.750068
0.750075
0.750083
0.75009
0.750097
0.750097
0.750105
0.750112
0.75012
0.750127
0.750127
0.750135
0.750142
0.75015
0.750157
0.750157
0.750165
0.750172
0.750179
0.750187
0.750187
0.750194
0.750202
0.750209
0.750217
0.750217
0.750224
0.750232
0.750239
0.750247
0.750247
0.750254
0.750262
0.75027
0.750277
0.750277
0.750285
0.750292
0.7503
0.750307
0.750307
0.750315
0.750322
0.75033
0.750337
0.750337
0.750345
0.750353
0.75036
0.750368
0.750368
0.750375
0.750383
0.750391
0.750398
0.750398
0.750406
0.750413
0.750421
0.750429
0.750429
0.750436
0.750444
0.750451
0.750459
0.750459
0.750467
0.750474
0.750482
0.750489
0.750489
0.750497
0.750505
0.750512
0.75052
0.75052
0.750528
0.750535
0.750543
0.75055
0.75055
0.750558
0.750565
0.750573
0.750581
0.750581
0.750588
0.750596
0.750603
0.750611
0.750611
0.750618
0.750625
0.750633
0.75064
0.75064
0.750648
0.750655
0.750662
0.75067
0.75067
0.750677
0.750684
0.750691
0.750698
0.750698
0.750706
0.750713
0.75072
0.750727
0.750727
0.750734
0.750741
0.750748
0.750755
0.750755
0.750762
0.750769
0.750776
0.750783
0.750783
0.75079
0.750797
0.750804
0.750811
0.750811
0.750817
0.750824
0.750831
0.750838
0.750838
0.750845
0.750852
0.750858
0.750865
0.750865
0.750872
0.750879
0.750886
0.750892
0.750892
0.750899
0.750906
0.750913
0.750919
0.750919
0.750926
0.750933
0.75094
0.750947
0.750947
0.750953
0.75096
0.750967
0.750974
0.750974
0.750981
0.750987
0.750994
0.751001
0.751001
0.751008
0.751015
0.751021
0.751028
0.751028
0.751035
0.751042
0.751049
0.751056
0.751056
0.751063
0.751069
0.751076
0.751083
0.751083
0.75109
0.751097
0.751104
0.751111
0.751111
0.751117
0.751124
0.751131
0.751138
0.751138
0.751145
0.751152
0.751159
0.751166
0.751166
0.751173
0.75118
0.751186
0.751193
0.751193
0.7512
0.751207
0.751214
0.751221
0.751221
0.751228
0.751235
0.751242
0.751249
0.751249
0.751256
0.751263
0.75127
0.751277
0.751277
0.751284
0.751291
0.751298
0.751305
0.751305
0.751312
0.751319
0.751326
0.751333
0.751333
0.75134
0.751347
0.751354
0.751361
0.751361
0.751368
0.751375
0.751382
0.751389
0.751389
0.751396
0.751403
0.75141
0.751417
0.751417
0.751424
0.751431
0.751438
0.751445
0.751445
0.751452
0.751459
0.751467
0.751474
0.751474
0.751481
0.751488
0.751495
0.751502
0.751502
0.751509
0.751516
0.751523
0.75153
0.75153
0.751538
0.751545
0.751552
0.751559
0.751559
0.751566
0.751573
0.75158
0.751588
0.751588
0.751595
0.751602
0.751609
0.751616
0.751616
0.751623
0.751631
0.751638
0.751645
0.751645
0.751652
0.751659
0.751666
0.751674
0.751674
0.751681
0.751688
0.751695
0.751702
0.751702
0.75171
0.751717
0.751724
0.751731
0.751731
0.751739
0.751746
0.751753
0.75176
0.75176
0.751768
0.751775
0.751782
0.751789
0.751789
0.751797
0.751804
0.751811
0.751819
0.751819
0.751826
0.751833
0.75184
0.751848
0.751848
0.751855
0.751862
0.75187
0.751877
0.751877
0.751884
0.751892
0.751899
0.751906
0.751906
0.751914
0.751921
0.751928
0.751936
0.751936
0.751943
0.75195
0.751958
0.751965
0.751965
0.751972
0.75198
0.751987
0.751995
0.751995
0.752002
0.752009
0.752017
0.752024
0.752024
0.752031
0.752039
0.752046
0.752054
0.752054
0.752061
0.752069
0.752076
0.752083
0.752083
0.752091
0.752098
0.752106
0.752113
0.752113
0.752121
0.752128
0.752136
0.752143
0.752143
0.75215
0.752158
0.752165
0.752173
0.752173
0.75218
0.752188
0.752195
0.752203
0.752203
0.75221
0.752218
0.752225
0.752233
0.752233
0.75224
0.752248
0.752255
0.752263
0.752263
0.752271
0.752278
0.752286
0.752293
0.752293
0.752301
0.752308
0.752316
0.752323
0.752323
0.752331
0.752339
0.752346
0.752354
0.752354
0.752361
0.752369
0.752376
0.752384
0.752384
0.752392
0.752399
0.752407
0.752414
0.752414
0.752422
0.75243
0.752437
0.752445
0.752445
0.752452
0.75246
0.752467
0.752475
0.752475
0.752483
0.75249
0.752498
0.752505
0.752505
0.752513
0.75252
0.752528
0.752535
0.752535
0.752543
0.75255
0.752557
0.752565
0.752565
0.752572
0.752579
0.752587
0.752594
0.752594
0.752601
0.752609
0.752616
0.752623
0.752623
0.75263
0.752637
0.752645
0.752652
0.752652
0.752659
0.752666
0.752673
0.75268
0.75268
0.752687
0.752694
0.752701
0.752708
0.752708
0.752714
0.752721
0.752728
0.752735
0.752735
0.752742
0.752749
0.752755
0.752762
0.752762
0.752769
0.752776
0.752782
0.752789
0.752789
0.752796
0.752803
0.752809
0.752816
0.752816
0.752823
0.752829
0.752836
0.752843
0.752843
0.75285
0.752856
0.752863
0.75287
0.75287
0.752876
0.752883
0.75289
0.752896
0.752896
0.752903
0.75291
0.752917
0.752923
0.752923
0.75293
0.752937
0.752944
0.75295
0.75295
0.752957
0.752964
0.75297
0.752977
0.752977
0.752984
0.752991
0.752997
0.753004
0.753004
0.753011
0.753018
0.753025
0.753031
0.753031
0.753038
0.753045
0.753052
0.753059
0.753059
0.753065
0.753072
0.753079
0.753086
0.753086
0.753093
0.753099
0.753106
0.753113
0.753113
0.75312
0.753127
0.753134
0.75314
0.75314
0.753147
0.753154
0.753161
0.753168
0.753168
0.753175
0.753182
0.753188
0.753195
0.753195
0.753202
0.753209
0.753216
0.753223
0.753223
0.75323
0.753237
0.753243
0.75325
0.75325
0.753257
0.753264
0.753271
0.753278
0.753278
0.753285
0.753292
0.753299
0.753306
0.753306
0.753313
0.75332
0.753327
0.753334
0.753334
0.753341
0.753348
0.753354
0.753361
0.753361
0.753368
0.753375
0.753382
0.753389
0.753389
0.753396
0.753403
0.75341
0.753417
0.753417
0.753424
0.753431
0.753438
0.753445
0.753445
0.753452
0.753459
0.753467
0.753474
0.753474
0.753481
0.753488
0.753495
0.753502
0.753502
0.753509
0.753516
0.753523
0.75353
0.75353
0.753537
0.753544
0.753551
0.753558
0.753558
0.753565
0.753573
0.75358
0.753587
0.753587
0.753594
0.753601
0.753608
0.753615
0.753615
0.753622
0.753629
0.753637
0.753644
0.753644
0.753651
0.753658
0.753665
0.753672
0.753672
0.753679
0.753687
0.753694
0.753701
0.753701
0.753708
0.753715
0.753722
0.75373
0.75373
0.753737
0.753744
0.753751
0.753758
0.753758
0.753766
0.753773
0.75378
0.753787
0.753787
0.753794
0.753802
0.753809
0.753816
0.753816
0.753823
0.753831
0.753838
0.753845
0.753845
0.753852
0.75386
0.753867
0.753874
0.753874
0.753881
0.753889
0.753896
0.753903
0.753903
0.753911
0.753918
0.753925
0.753932
0.753932
0.75394
0.753947
0.753954
0.753962
0.753962
0.753969
0.753976
0.753984
0.753991
0.753991
0.753998
0.754006
0.754013
0.75402
0.75402
0.754028
0.754035
0.754042
0.75405
0.75405
0.754057
0.754065
0.754072
0.754079
0.754079
0.754087
0.754094
0.754101
0.754109
0.754109
0.754116
0.754123
0.754131
0.754138
0.754138
0.754145
0.754153
0.75416
0.754167
0.754167
0.754175
0.754182
0.754189
0.754197
0.754197
0.754204
0.754211
0.754218
0.754226
0.754226
0.754233
0.75424
0.754247
0.754254
0.754254
0.754261
0.754268
0.754275