<?xml version="1.0"?>
<VTKFile type="UnstructuredGrid" version="0.1" byte_order="LittleEndian">
<UnstructuredGrid>
<Piece NumberOfPoints="5000" NumberOfCells="4000">
<PointData Scalars="Reaction 0">
<DataArray type="Float32" Name="Reaction 0" format="ascii">
0.139007
0.139007
0.139007
0.139007
0.139007
0.139007
0.139007
0.139007
0.139007
0.139008
0.139008
0.139008
0.139008
0.139008
0.139009
0.139009
0.139009
0.139009
0.13901
0.13901
0.13901
0.139011
0.139011
0.139012
0.139012
0.139012
0.139013
0.139013
0.139014
0.139015
0.139015
0.139015
0.139016
0.139017
0.139018
0.139018
0.139019
0.139019
0.13902
0.139021
0.139021
0.139022
0.139023
0.139024
0.139025
0.139025
0.139026
0.139027
0.139028
0.139029
0.139029
0.13903
0.139032
0.139033
0.139034
0.139034
0.139035
0.139037
0.139038
0.139039
0.139039
0.139041
0.139042
0.139043
0.139045
0.139045
0.139046
0.139048
0.139049
0.139051
0.139051
0.139053
0.139054
0.139056
0.139058
0.139058
0.139059
0.139061
0.139063
0.139065
0.139065
0.139066
0.139068
0.13907
0.139072
0.139072
0.139074
0.139076
0.139078
0.13908
0.13908
0.139082
0.139084
0.139086
0.139088
0.139088
0.139091
0.139093
0.139095
0.139097
0.139097
0.1391
0.139102
0.139104
0.139107
0.139107
0.139109
0.139111
0.139114
0.139116
0.139116
0.139119
0.139121
0.139124
0.139127
0.139127
0.139129
0.139132
0.139134
0.139137
0.139137
0.13914
0.139143
0.139145
0.139148
0.139148
0.139151
0.139154
0.139157
0.13916
0.13916
0.139163
0.139166
0.139169
0.139172
0.139172
0.139175
0.139178
0.139181
0.139184
0.139184
0.139188
0.139191
0.139194
0.139197
0.139197
0.139201
0.139204
0.139207
0.139211
0.139211
0.139214
0.139218
0.139221
0.139225
0.139225
0.139228
0.139232
0.139235
0.139239
0.139239
0.139242
0.139246
0.13925
0.139254
0.139254
0.139257
0.139261
0.139265
0.139269
0.139269
0.139273
0.139277
0.13928
0.139284
0.139284
0.139288
0.139292
0.139296
0.139301
0.139301
0.139305
0.139309
0.139313
0.139317
0.139317
0.139321
0.139326
0.13933
0.139334
0.139334
0.139338
0.139343
0.139347
0.139352
0.139352
0.139356
0.13936
0.139365
0.13937
0.13937
0.139374
0.139379
0.139383
0.139388
0.139388
0.139393
0.139397
0.139402
0.139407
0.139407
0.139412
0.139416
0.139421
0.139426
0.139426
0.139431
0.139436
0.139441
0.139446
0.139446
0.139451
0.139456
0.139461
0.139466
0.139466
0.139471
0.139476
0.139481
0.139487
0.139487
0.139492
0.139497
0.139502
0.139508
0.139508
0.139513
0.139518
0.139524
0.139529
0.139529
0.139535
0.13954
0.139546
0.139551
0.139551
0.139557
0.139563
0.139568
0.139574
0.139574
0.13958
0.139585
0.139591
0.139597
0.139597
0.139603
0.139608
0.139614
0.13962
0.13962
0.139626
0.139632
0.139638
0.139644
0.139644
0.13965
0.139656
0.139662
0.139668
0.139668
0.139674
0.139681
0.139687
0.139693
0.139693
0.139699
0.139706
0.139712
0.139718
0.139718
0.139725
0.139731
0.139738
0.139744
0.139744
0.13975
0.139757
0.139764
0.13977
0.13977
0.139777
0.139783
0.13979
0.139797
0.139797
0.139803
0.13981
0.139817
0.139824
0.139824
0.139831
0.139837
0.139844
0.139851
0.139851
0.139858
0.139865
0.139872
0.139879
0.139879
0.139886
0.139893
0.1399
0.139908
0.139908
0.139915
0.139922
0.139929
0.139937
0.139937
0.139944
0.139951
0.139958
0.139966
0.139966
0.139973
0.139981
0.139988
0.139996
0.139996
0.140003
0.140011
0.140018
0.140026
0.140026
0.140034
0.140041
0.140049
0.140057
0.140057
0.140064
0.140072
0.14008
0.140088
0.140088
0.140096
0.140104
0.140111
0.140119
0.140119
0.140127
0.140135
0.140143
0.140151
0.140151
0.14016
0.140168
0.140176
0.140184
0.140184
0.140192
0.1402
0.140209
0.140217
0.140217
0.140225
0.140234
0.140242
0.14025
0.14025
0.140259
0.140267
0.140276
0.140284
0.140284
0.140293
0.140302
0.14031
0.140319
0.140319
0.140327
0.140336
0.140345
0.140354
0.140354
0.140362
0.140371
0.14038
0.140389
0.140389
0.140398
0.140407
0.140416
0.140425
0.140425
0.140434
0.140443
0.140452
0.140461
0.140461
0.14047
0.140479
0.140488
0.140498
0.140498
0.140507
0.140516
0.140525
0.140535
0.140535
0.140544
0.140553
0.140563
0.140572
0.140572
0.140582
0.140591
0.140601
0.14061
0.14061
0.14062
0.14063
0.140639
0.140649
0.140649
0.140659
0.140668
0.140678
0.140688
0.140688
0.140698
0.140708
0.140717
0.140727
0.140727
0.140737
0.140747
0.140757
0.140767
0.140767
0.140777
0.140787
0.140797
0.140808
0.140808
0.140818
0.140828
0.140838
0.140848
0.140848
0.140859
0.140869
0.140879
0.14089
0.14089
0.1409
0.14091
0.140921
0.140931
0.140931
0.140942
0.140952
0.140963
0.140974
0.140974
0.140984
0.140995
0.141006
0.141016
0.141016
0.141027
0.141038
0.141049
0.141059
0.141059
0.14107
0.141081
0.141092
0.141103
0.141103
0.141114
0.141125
0.141136
0.141147
0.141147
0.141158
0.141169
0.14118
0.141192
0.141192
0.141203
0.141214
0.141225
0.141237
0.141237
0.141248
0.141259
0.141271
0.141282
0.141282
0.141293
0.141305
0.141316
0.141328
0.141328
0.14134
0.141351
0.141363
0.141374
0.141374
0.141386
0.141398
0.141409
0.141421
0.141421
0.141433
0.141445
0.141457
0.141468
0.141468
0.14148
0.141492
0.141504
0.141516
0.141516
0.141528
0.14154
0.141552
0.141565
0.141565
0.141577
0.141589
0.141601
0.141613
0.141613
0.141625
0.141638
0.14165
0.141662
0.141662
0.141675
0.141687
0.1417
0.141712
0.141712
0.141724
0.141737
0.14175
0.141762
0.141762
0.141775
0.141787
0.1418
0.141813
0.141813
0.141825
0.141838
0.141851
0.141864
0.141864
0.141877
0.141889
0.141902
0.141915
0.141915
0.141928
0.141941
0.141954
0.141967
0.141967
0.14198
0.141993
0.142006
0.14202
0.14202
0.142033
0.142046
0.142059
0.142072
0.142072
0.142086
0.142099
0.142112
0.142126
0.142126
0.142139
0.142153
0.142166
0.14218
0.14218
0.142193
0.142207
0.14222
0.142234
0.142234
0.142248
0.142261
0.142275
0.142289
0.142289
0.142303
0.142316
0.14233
0.142344
0.142344
0.142358
0.142372
0.142386
0.1424
0.1424
0.142414
0.142428
0.142442
0.142456
0.142456
0.14247
0.142484
0.142498
0.142513
0.142513
0.142527
0.142541
0.142555
0.14257
0.14257
0.142584
0.142598
0.142613
0.142627
0.142627
0.142642
0.142656
0.142671
0.142685
0.142685
0.1427
0.142714
0.142729
0.142744
0.142744
0.142758
0.142773
0.142788
0.142803
0.142803
0.142818
0.142832
0.142847
0.142862
0.142862
0.142877
0.142892
0.142907
0.142922
0.142922
0.142937
0.142952
0.142967
0.142983
0.142983
0.142998
0.143013
0.143028
0.143043
0.143043
0.143059
0.143074
0.143089
0.143105
0.143105
0.14312
0.143136
0.143151
0.143167
0.143167
0.143182
0.143198
0.143213
0.143229
0.143229
0.143245
0.14326
0.143276
0.143292
0.143292
0.143307
0.143323
0.143339
0.143355
0.143355
0.143371
0.143387
0.143403
0.143419
0.143419
0.143435
0.143451
0.143467
0.143483
0.143483
0.143499
0.143515
0.143531
0.143547
0.143547
0.143564
0.14358
0.143596
0.143613
0.143613
0.143629
0.143645
0.143662
0.143678
0.143678
0.143695
0.143711
0.143728
0.143744
0.143744
0.143761
0.143777
0.143794
0.143811
0.143811
0.143827
0.143844
0.143861
0.143878
0.143878
0.143895
0.143911
0.143928
0.143945
0.143945
0.143962
0.143979
0.143996
0.144013
0.144013
0.14403
0.144047
0.144065
0.144082
0.144082
0.144099
0.144116
0.144133
0.144151
0.144151
0.144168
0.144185
0.144203
0.14422
0.14422
0.144237
0.144255
0.144272
0.14429
0.14429
0.144307
0.144325
0.144343
0.14436
0.14436
0.144378
0.144396
0.144413
0.144431
0.144431
0.144449
0.144467
0.144485
0.144502
0.144502
0.14452
0.144538
0.144556
0.144574
0.144574
0.144592
0.14461
0.144628
0.144647
0.144647
0.144665
0.144683
0.144701
0.144719
0.144719
0.144738
0.144756
0.144774
0.144792
0.144792
0.144811
0.144829
0.144848
0.144866
0.144866
0.144885
0.144903
0.144922
0.14494
0.14494
0.144959
0.144978
0.144996
0.145015
0.145015
0.145034
0.145053
0.145071
0.14509
0.14509
0.145109
0.145128
0.145147
0.145166
0.145166
0.145185
0.145204
0.145223
0.145242
0.145242
0.145261
0.14528
0.145299
0.145319
0.145319
0.145338
0.145357
0.145376
0.145396
0.145396
0.145415
0.145434
0.145454
0.145473
0.145473
0.145493
0.145512
0.145532
0.145551
0.145551
0.145571
0.14559
0.14561
0.14563
0.14563
0.145649
0.145669
0.145689
0.145709
0.145709
0.145729
0.145748
0.145768
0.145788
0.145788
0.145808
0.145828
0.145848
0.145868
0.145868
0.145888
0.145908
0.145928
0.145949
0.145949
0.145969
0.145989
0.146009
0.14603
0.14603
0.14605
0.14607
0.146091
0.146111
0.146111
0.146131
0.146152
0.146172
0.146193
0.146193
0.146213
0.146234
0.146255
0.146275
0.146275
0.146296
0.146317
0.146337
0.146358
0.146358
0.146379
0.1464
0.146421
0.146441
0.146441
0.146462
0.146483
0.146504
0.146525
0.146525
0.146546
0.146567
0.146588
0.14661
0.14661
0.146631
0.146652
0.146673
0.146694
0.146694
0.146716
0.146737
0.146758
0.14678
0.14678
0.146801
0.146823
0.146844
0.146866
0.146866
0.146887
0.146909
0.14693
0.146952
0.146952
0.146973
0.146995
0.147017
0.147039
0.147039
0.14706
0.147082
0.147104
0.147126
0.147126
0.147148
0.14717
0.147192
0.147214
0.147214
0.147236
0.147258
0.14728
0.147302
0.147302
0.147324
0.147346
0.147368
0.147391
0.147391
0.147413
0.147435
0.147457
0.14748
0.14748
0.147502
0.147525
0.147547
0.147569
0.147569
0.147592
0.147614
0.147637
0.14766
0.14766
0.147682
0.147705
0.147728
0.14775
0.14775
0.147773
0.147796
0.147819
0.147841
0.147841
0.147864
0.147887
0.14791
0.147933
0.147933
0.147956
0.147979
0.148002
0.148025
0.148025
0.148048
0.148072
0.148095
0.148118
0.148118
0.148141
0.148164
0.148188
0.148211
0.148211
0.148234
0.148258
0.148281
0.148305
0.148305
0.148328
0.148352
0.148375
0.148399
0.148399
0.148422
0.148446
0.14847
0.148493
0.148493
0.148517
0.148541
0.148565
0.148589
0.148589
0.148612
0.148636
0.14866
0.148684
0.148684
0.148708
0.148732
0.148756
0.14878
0.14878
0.148804
0.148829
0.148853
0.148877
0.148877
0.148901
0.148925
0.14895
0.148974
0.148974
0.148998
0.149023
0.149047
0.149072
0.149072
0.149096
0.149121
0.149145
0.14917
0.14917
0.149194
0.149219
0.149244
0.149268
0.149268
0.149293
0.149318
0.149343
0.149367
0.149367
0.149392
0.149417
0.149442
0.149467
0.149467
0.149492
0.149517
0.149542
0.149567
0.149567
0.149592
0.149617
0.149642
0.149668
0.149668
0.149693
0.149718
0.149743
0.149769
0.149769
0.149794
0.149819
0.149845
0.14987
0.14987
0.149896
0.149921
0.149947
0.149972
0.149972
0.149998
0.150024
0.150049
0.150075
0.150075
0.150101
0.150126
0.150152
0.150178
0.150178
0.150204
0.15023
0.150256
0.150282
0.150282
0.150308
0.150334
0.15036
0.150386
0.150386
0.150412
0.150438
0.150464
0.15049
0.15049
0.150517
0.150543
0.150569
0.150595
0.150595
0.150622
0.150648
0.150675
0.150701
0.150701
0.150728
0.150754
0.150781
0.150807
0.150807
0.150834
0.15086
0.150887
0.150914
0.150914
0.15094
0.150967
0.150994
0.151021
0.151021
0.151048
0.151075
0.151101
0.151128
0.151128
0.151155
0.151182
0.151209
0.151237
0.151237
0.151264
0.151291
0.151318
0.151345
0.151345
0.151372
0.1514
0.151427
0.151454
0.151454
0.151482
0.151509
0.151536
0.151564
0.151564
0.151591
0.151619
0.151646
0.151674
0.151674
0.151702
0.151729
0.151757
0.151785
0.151785
0.151812
0.15184
0.151868
0.151896
0.151896
0.151924
0.151952
0.15198
0.152007
0.152007
0.152035
0.152064
0.152092
0.15212
0.15212
0.152148
0.152176
0.152204
0.152232
0.152232
0.152261
0.152289
0.152317
0.152346
0.152346
0.152374
0.152402
0.152431
0.152459
0.152459
0.152488
0.152516
0.152545
0.152573
0.152573
0.152602
0.152631
0.152659
0.152688
0.152688
0.152717
0.152746
0.152774
0.152803
0.152803
0.152832
0.152861
0.15289
0.152919
0.152919
0.152948
0.152977
0.153006
0.153035
0.153035
0.153064
0.153094
0.153123
0.153152
0.153152
0.153181
0.153211
0.15324
0.153269
0.153269
0.153299
0.153328
0.153358
0.153387
0.153387
0.153417
0.153446
0.153476
0.153505
0.153505
0.153535
0.153565
0.153594
0.153624
0.153624
0.153654
0.153684
0.153714
0.153744
0.153744
0.153773
0.153803
0.153833
0.153863
0.153863
0.153893
0.153924
0.153954
0.153984
0.153984
0.154014
0.154044
0.154074
0.154105
0.154105
0.154135
0.154165
0.154196
0.154226
0.154226
0.154256
0.154287
0.154317
0.154348
0.154348
0.154378
0.154409
0.15444
0.15447
0.15447
0.154501
0.154532
0.154562
0.154593
0.154593
0.154624
0.154655
0.154686
0.154717
0.154717
0.154748
0.154779
0.15481
0.154841
0.154841
0.154872
0.154903
0.154934
0.154965
0.154965
0.154996
0.155028
0.155059
0.15509
0.15509
0.155122
0.155153
0.155184
0.155216
0.155216
0.155247
0.155279
0.15531
0.155342
0.155342
0.155373
0.155405
0.155437
0.155468
0.155468
0.1555
0.155532
0.155564
0.155595
0.155595
0.155627
0.155659
0.155691
0.155723
0.155723
0.155755
0.155787
0.155819
0.155851
0.155851
0.155883
0.155915
0.155948
0.15598
0.15598
0.156012
0.156044
0.156077
0.156109
0.156109
0.156141
0.156174
0.156206
0.156239
0.156239
0.156271
0.156304
0.156336
0.156369
0.156369
0.156402
0.156434
0.156467
0.1565
0.1565
0.156532
0.156565
0.156598
0.156631
0.156631
0.156664
0.156697
0.15673
0.156763
0.156763
0.156796
0.156829
0.156862
0.156895
0.156895
0.156928
0.156961
0.156995
0.157028
0.157028
0.157061
0.157095
0.157128
0.157161
0.157161
0.157195
0.157228
0.157262
0.157295
0.157295
0.157329
0.157362
0.157396
0.15743
0.15743
0.157463
0.157497
0.157531
0.157565
0.157565
0.157598
0.157632
0.157666
0.1577
0.1577
0.157734
0.157768
0.157802
0.157836
0.157836
0.15787
0.157904
0.157938
0.157973
0.157973
0.158007
0.158041
0.158075
0.15811
0.15811
0.158144
0.158178
0.158213
0.158247
0.158247
0.158282
0.158316
0.158351
0.158385
0.158385
0.15842
0.158455
0.158489
0.158524
0.158524
0.158559
0.158594
0.158628
0.158663
0.158663
0.158698
0.158733
0.158768
0.158803
0.158803
0.158838
0.158873
0.158908
0.158943
0.158943
0.158978
0.159014
0.159049
0.159084
0.159084
0.159119
0.159155
0.15919
0.159225
0.159225
0.159261
0.159296
0.159332
0.159367
0.159367
0.159403
0.159438
0.159474
0.15951
0.15951
0.159545
0.159581
0.159617
0.159653
0.159653
0.159688
0.159724
0.15976
0.159796
0.159796
0.159832
0.159868
0.159904
0.15994
0.15994
0.159976
0.160012
0.160048
0.160085
0.160085
0.160121
0.160157
0.160193
0.16023
0.16023
0.160266
0.160302
0.160339
0.160375
0.160375
0.160412
0.160448
0.160485
0.160521
0.160521
0.160558
0.160595
0.160631
0.160668
0.160668
0.160705
0.160742
0.160778
0.160815
0.160815
0.160852
0.160889
0.160926
0.160963
0.160963
0.161
0.161037
0.161074
0.161111
0.161111
0.161149
0.161186
0.161223
0.16126
0.16126
0.161298
0.161335
0.161372
0.16141
0.16141
0.161447
0.161485
0.161522
0.16156
0.16156
0.161597
0.161635
0.161672
0.16171
0.16171
0.161748
0.161785
0.161823
0.161861
0.161861
0.161899
0.161937
0.161975
0.162013
0.162013
0.162051
0.162089
0.162127
0.162165
0.162165
0.162203
0.162241
0.162279
0.162317
0.162317
0.162356
0.162394
0.162432
0.16247
0.16247
0.162509
0.162547
0.162586
0.162624
0.162624
0.162663
0.162701
0.16274
0.162778
0.162778
0.162817
0.162856
0.162895
0.162933
0.162933
0.162972
0.163011
0.16305
0.163089
0.163089
0.163128
0.163167
0.163206
0.163245
0.163245
0.163284
0.163323
0.163362
0.163401
0.163401
0.16344
0.163479
0.163519
0.163558
0.163558
0.163597
0.163637
0.163676
0.163716
0.163716
0.163755
0.163795
0.163834
0.163874
0.163874
0.163913
0.163953
0.163993
0.164032
0.164032
0.164072
0.164112
0.164152
0.164192
0.164192
0.164231
0.164271
0.164311
0.164351
0.164351
0.164391
0.164431
0.164471
0.164512
0.164512
0.164552
0.164592
0.164632
0.164672
0.164672
0.164713
0.164753
0.164793
0.164834
0.164834
0.164874
0.164915
0.164955
0.164996
0.164996
0.165036
0.165077
0.165118
0.165158
0.165158
0.165199
0.16524
0.165281
0.165321
0.165321
0.165362
0.165403
0.165444
0.165485
0.165485
0.165526
0.165567
0.165608
0.165649
0.165649
0.16569
0.165731
0.165773
0.165814
0.165814
0.165855
0.165896
0.165938
0.165979
0.165979
0.166021
0.166062
0.166103
0.166145
0.166145
0.166186
0.166228
0.16627
0.166311
0.166311
0.166353
0.166395
0.166436
0.166478
0.166478
0.16652
0.166562
0.166604
0.166646
0.166646
0.166688
0.16673
0.166772
0.166814
0.166814
0.166856
0.166898
0.16694
0.166982
0.166982
0.167025
0.167067
0.167109
0.167152
0.167152
0.167194
0.167236
0.167279
0.167321
0.167321
0.167364
0.167406
0.167449
0.167492
0.167492
0.167534
0.167577
0.16762
0.167662
0.167662
0.167705
0.167748
0.167791
0.167834
0.167834
0.167877
0.16792
0.167963
0.168006
0.168006
0.168049
0.168092
0.168135
0.168178
0.168178
0.168222
0.168265
0.168308
0.168351
0.168351
0.168395
0.168438
0.168482
0.168525
0.168525
0.168569
0.168612
0.168656
0.168699
0.168699
0.168743
0.168787
0.16883
0.168874
0.168874
0.168918
0.168962
0.169006
0.169049
0.169049
0.169093
0.169137
0.169181
0.169225
0.169225
0.169269
0.169314
0.169358
0.169402
0.169402
0.169446
0.16949
0.169535
0.169579
0.169579
0.169623
0.169668
0.169712
0.169757
0.169757
0.169801
0.169846
0.16989
0.169935
0.169935
0.169979
0.170024
0.170069
0.170113
0.170113
0.170158
0.170203
0.170248
0.170293
0.170293
0.170338
0.170383
0.170428
0.170473
0.170473
0.170518
0.170563
0.170608
0.170653
0.170653
0.170698
0.170743
0.170789
0.170834
0.170834
0.170879
0.170925
0.17097
0.171016
0.171016
0.171061
0.171107
0.171152
0.171198
0.171198
0.171243
0.171289
0.171335
0.171381
0.171381
0.171426
0.171472
0.171518
0.171564
0.171564
0.17161
0.171656
0.171702
0.171748
0.171748
0.171794
0.17184
0.171886
0.171932
0.171932
0.171978
0.172025
0.172071
0.172117
0.172117
0.172163
0.17221
0.172256
0.172303
0.172303
0.172349
0.172396
0.172442
0.172489
0.172489
0.172535
0.172582
0.172629
0.172676
0.172676
0.172722
0.172769
0.172816
0.172863
0.172863
0.17291
0.172957
0.173004
0.173051
0.173051
0.173098
0.173145
0.173192
0.173239
0.173239
0.173286
0.173334
0.173381
0.173428
0.173428
0.173476
0.173523
0.17357
0.173618
0.173618
0.173665
0.173713
0.17376
0.173808
0.173808
0.173856
0.173903
0.173951
0.173999
0.173999
0.174047
0.174094
0.174142
0.17419
0.17419
0.174238
0.174286
0.174334
0.174382
0.174382
0.17443
0.174478
0.174526
0.174574
0.174574
0.174623
0.174671
0.174719
0.174768
0.174768
0.174816
0.174864
0.174913
0.174961
0.174961
0.17501
0.175058
0.175107
0.175155
0.175155
0.175204
0.175253
0.175301
0.17535
0.17535
0.175399
0.175448
0.175497
0.175546
0.175546
0.175595
0.175644
0.175693
0.175742
0.175742
0.175791
0.17584
0.175889
0.175938
0.175938
0.175987
0.176037
0.176086
0.176135
0.176135
0.176185
0.176234
0.176284
0.176333
0.176333
0.176383
0.176432
0.176482
0.176531
0.176531
0.176581
0.176631
0.17668
0.17673
0.17673
0.17678
0.17683
0.17688
0.17693
0.17693
0.17698
0.17703
0.17708
0.17713
0.17713
0.17718
0.17723
0.17728
0.17733
0.17733
0.177381
0.177431
0.177481
0.177532
0.177532
0.177582
0.177632
0.177683
0.177733
0.177733
0.177784
0.177835
0.177885
0.177936
0.177936
0.177987
0.178037
0.178088
0.178139
0.178139
0.17819
0.178241
0.178291
0.178342
0.178342
0.178393
0.178444
0.178495
0.178547
0.178547
0.178598
0.178649
0.1787
0.178751
0.178751
0.178803
0.178854
0.178905
0.178957
0.178957
0.179008
0.17906
0.179111
0.179163
0.179163
0.179214
0.179266
0.179317
0.179369
0.179369
0.179421
0.179473
0.179524
0.179576
0.179576
0.179628
0.17968
0.179732
0.179784
0.179784
0.179836
0.179888
0.17994
0.179992
0.179992
0.180044
0.180097
0.180149
0.180201
0.180201
0.180253
0.180306
0.180358
0.180411
0.180411
0.180463
0.180516
0.180568
0.180621
0.180621
0.180673
0.180726
0.180779
0.180831
0.180831
0.180884
0.180937
0.18099
0.181043
0.181043
0.181096
0.181148
0.181201
0.181254
0.181254
0.181308
0.181361
0.181414
0.181467
0.181467
0.18152
0.181573
0.181627
0.18168
0.18168
0.181733
0.181787
0.18184
0.181894
0.181894
0.181947
0.182001
0.182054
0.182108
0.182108
0.182162
0.182215
0.182269
0.182323
0.182323
0.182377
0.18243
0.182484
0.182538
0.182538
0.182592
0.182646
0.1827
0.182754
0.182754
0.182808
0.182862
0.182917
0.182971
0.182971
0.183025
0.183079
0.183134
0.183188
0.183188
0.183242
0.183297
0.183351
0.183406
0.183406
0.18346
0.183515
0.18357
0.183624
0.183624
0.183679
0.183734
0.183789
0.183843
0.183843
0.183898
0.183953
0.184008
0.184063
0.184063
0.184118
0.184173
0.184228
0.184283
0.184283
0.184338
0.184394
0.184449
0.184504
0.184504
0.184559
0.184615
0.18467
0.184726
0.184726
0.184781
0.184837
0.184892
0.184948
0.184948
0.185003
0.185059
0.185115
0.18517
0.18517
0.185226
0.185282
0.185338
0.185394
0.185394
0.185449
0.185505
0.185561
0.185617
0.185617
0.185673
0.18573
0.185786
0.185842
0.185842
0.185898
0.185954
0.186011
0.186067
0.186067
0.186123
0.18618
0.186236
0.186293
0.186293
0.186349
0.186406
0.186462
0.186519
0.186519
0.186576
0.186632
0.186689
0.186746
0.186746
0.186803
0.186859
0.186916
0.186973
0.186973
0.18703
0.187087
0.187144
0.187201
0.187201
0.187258
0.187316
0.187373
0.18743
0.18743
0.187487
0.187545
0.187602
0.187659
0.187659
0.187717
0.187774
0.187832
0.187889
0.187889
0.187947
0.188004
0.188062
0.18812
0.18812
0.188178
0.188235
0.188293
0.188351
0.188351
0.188409
0.188467
0.188525
0.188583
0.188583
0.188641
0.188699
0.188757
0.188815
0.188815
0.188873
0.188931
0.18899
0.189048
0.189048
0.189106
0.189165
0.189223
0.189282
0.189282
0.18934
0.189399
0.189457
0.189516
0.189516
0.189574
0.189633
0.189692
0.189751
0.189751
0.189809
0.189868
0.189927
0.189986
0.189986
0.190045
0.190104
0.190163
0.190222
0.190222
0.190281
0.19034
0.1904
0.190459
0.190459
0.190518
0.190577
0.190637
0.190696
0.190696
0.190755
0.190815
0.190874
0.190934
0.190934
0.190993
0.191053
0.191113
0.191172
0.191172
0.191232
0.191292
0.191352
0.191412
0.191412
0.191471
0.191531
0.191591
0.191651
0.191651
0.191711
0.191771
0.191831
0.191892
0.191892
0.191952
0.192012
0.192072
0.192133
0.192133
0.192193
0.192253
0.192314
0.192374
0.192374
0.192435
0.192495
0.192556
0.192616
0.192616
0.192677
0.192738
0.192798
0.192859
0.192859
0.19292
0.192981
0.193042
0.193103
0.193103
0.193164
0.193225
0.193286
0.193347
0.193347
0.193408
0.193469
0.19353
0.193591
0.193591
0.193653
0.193714
0.193775
0.193837
0.193837
0.193898
0.193959
0.194021
0.194083
0.194083
0.194144
0.194206
0.194267
0.194329
0.194329
0.194391
0.194453
0.194514
0.194576
0.194576
0.194638
0.1947
0.194762
0.194824
0.194824
0.194886
0.194948
0.19501
0.195072
0.195072
0.195135
0.195197
0.195259
0.195321
0.195321
0.195384
0.195446
0.195509
0.195571
0.195571
0.195634
0.195696
0.195759
0.195821
0.195821
0.195884
0.195947
0.196009
0.196072
0.196072
0.196135
0.196198
0.196261
0.196324
0.196324
0.196387
0.19645
0.196513
0.196576
0.196576
0.196639
0.196702
0.196765
0.196829
0.196829
0.196892
0.196955
0.197019
0.197082
0.197082
0.197145
0.197209
0.197272
0.197336
0.197336
0.1974
0.197463
0.197527
0.197591
0.197591
0.197654
0.197718
0.197782
0.197846
0.197846
0.19791
0.197974
0.198038
0.198102
0.198102
0.198166
0.19823
0.198294
0.198358
0.198358
0.198423
0.198487
0.198551
0.198616
0.198616
0.19868
0.198744
0.198809
0.198873
0.198873
0.198938
0.199002
0.199067
0.199132
0.199132
0.199196
0.199261
0.199326
0.199391
0.199391
0.199456
0.199521
0.199585
0.19965
0.19965
0.199715
0.199781
0.199846
0.199911
0.199911
0.199976
0.200041
0.200106
0.200172
0.200172
0.200237
0.200302
0.200368
0.200433
0.200433
0.200499
0.200564
0.20063
0.200695
0.200695
0.200761
0.200827
0.200893
0.200958
0.200958
0.201024
0.20109
0.201156
0.201222
0.201222
0.201288
0.201354
0.20142
0.201486
0.201486
0.201552
0.201618
0.201684
0.201751
0.201751
0.201817
0.201883
0.20195
0.202016
0.202016
0.202082
0.202149
0.202215
0.202282
0.202282
0.202348
0.202415
0.202482
0.202549
0.202549
0.202615
0.202682
0.202749
0.202816
0.202816
0.202883
0.20295
0.203017
0.203084
0.203084
0.203151
0.203218
0.203285
0.203352
0.203352
0.203419
0.203487
0.203554
0.203621
0.203621
0.203689
0.203756
0.203824
0.203891
0.203891
0.203959
0.204026
0.204094
0.204162
0.204162
0.204229
0.204297
0.204365
0.204433
0.204433
0.204501
0.204568
0.204636
0.204704
0.204704
0.204772
0.20484
0.204909
0.204977
0.204977
0.205045
0.205113
0.205181
0.20525
0.20525
0.205318
0.205386
0.205455
0.205523
0.205523
0.205592
0.20566
0.205729
0.205798
0.205798
0.205866
0.205935
0.206004
0.206072
0.206072
0.206141
0.20621
0.206279
0.206348
0.206348
0.206417
0.206486
0.206555
0.206624
0.206624
0.206693
0.206763
0.206832
0.206901
0.206901
0.20697
0.20704
0.207109
0.207178
0.207178
0.207248
0.207317
0.207387
0.207457
0.207457
0.207526
0.207596
0.207666
0.207735
0.207735
0.207805
0.207875
0.207945
0.208015
0.208015
0.208085
0.208155
0.208225
0.208295
0.208295
0.208365
0.208435
0.208505
0.208575
0.208575
0.208646
0.208716
0.208786
0.208857
0.208857
0.208927
0.208998
0.209068
0.209139
0.209139
0.209209
0.20928
0.209351
0.209421
0.209421
0.209492
0.209563
0.209634
0.209704
0.209704
0.209775
0.209846
0.209917
0.209988
0.209988
0.210059
0.210131
0.210202
0.210273
0.210273
0.210344
0.210415
0.210487
0.210558
0.210558
0.210629
0.210701
0.210772
0.210844
0.210844
0.210915
0.210987
0.211059
0.21113
0.21113
0.211202
0.211274
0.211346
0.211417
0.211417
0.211489
0.211561
0.211633
0.211705
0.211705
0.211777
0.211849
0.211921
0.211994
0.211994
0.212066
0.212138
0.21221
0.212283
0.212283
0.212355
0.212427
0.2125
0.212572
0.212572
0.212645
0.212717
0.21279
0.212863
0.212863
0.212935
0.213008
0.213081
0.213154
0.213154
0.213227
0.213299
0.213372
0.213445
0.213445
0.213518
0.213591
0.213664
0.213738
0.213738
0.213811
0.213884
0.213957
0.214031
0.214031
0.214104
0.214177
0.214251
0.214324
0.214324
0.214398
0.214471
0.214545
0.214618
0.214618
0.214692
0.214766
0.214839
0.214913
0.214913
0.214987
0.215061
0.215135
0.215209
0.215209
0.215283
0.215357
0.215431
0.215505
0.215505
0.215579
0.215653
0.215727
0.215802
0.215802
0.215876
0.21595
0.216025
0.216099
0.216099
0.216174
0.216248
0.216323
0.216397
0.216397
0.216472
0.216547
0.216621
0.216696
0.216696
0.216771
0.216846
0.216921
0.216996
0.216996
0.217071
0.217146
0.217221
0.217296
0.217296
0.217371
0.217446
0.217521
0.217596
0.217596
0.217672
0.217747
0.217822
0.217898
0.217898
0.217973
0.218049
0.218124
0.2182
0.2182
0.218275
0.218351
0.218427
0.218503
0.218503
0.218578
0.218654
0.21873
0.218806
0.218806
0.218882
0.218958
0.219034
0.21911
0.21911
0.219186
0.219262
0.219338
0.219415
0.219415
0.219491
0.219567
0.219643
0.21972
0.21972
0.219796
0.219873
0.219949
0.220026
0.220026
0.220102
0.220179
0.220256
0.220332
0.220332
0.220409
0.220486
0.220563
0.22064
0.22064
0.220717
0.220794
0.220871
0.220948
0.220948
0.221025
0.221102
0.221179
0.221256
0.221256
0.221333
0.221411
0.221488
0.221565
0.221565
0.221643
0.22172
0.221798
0.221875
0.221875
0.221953
0.222031
0.222108
0.222186
0.222186
0.222264
0.222341
0.222419
0.222497
0.222497
0.222575
0.222653
0.222731
0.222809
0.222809
0.222887
0.222965
0.223043
0.223122
0.223122
0.2232
0.223278
0.223356
0.223435
0.223435
0.223513
0.223592
0.22367
0.223749
0.223749
0.223827
0.223906
0.223984
0.224063
0.224063
0.224142
0.224221
0.224299
0.224378
0.224378
0.224457
0.224536
0.224615
0.224694
0.224694
0.224773
0.224852
0.224931
0.225011
0.225011
0.22509
0.225169
0.225248
0.225328
0.225328
0.225407
0.225486
0.225566
0.225645
0.225645
0.225725
0.225805
0.225884
0.225964
0.225964
0.226044
0.226123
0.226203
0.226283
0.226283
0.226363
0.226443
0.226523
0.226603
0.226603
0.226683
0.226763
0.226843
0.226923
0.226923
0.227003
0.227084
0.227164
0.227244
0.227244
0.227325
0.227405
0.227486
0.227566
0.227566
0.227647
0.227727
0.227808
0.227888
0.227888
0.227969
0.22805
0.228131
0.228212
0.228212
0.228292
0.228373
0.228454
0.228535
0.228535
0.228616
0.228697
0.228779
0.22886
0.22886
0.228941
0.229022
0.229103
0.229185
0.229185
0.229266
0.229348
0.229429
0.22951
0.22951
0.229592
0.229674
0.229755
0.229837
0.229837
0.229919
0.23
0.230082
0.230164
0.230164
0.230246
0.230328
0.23041
0.230492
0.230492
0.230574
0.230656
0.230738
0.23082
0.23082
0.230902
0.230984
0.231067
0.231149
0.231149
0.231231
0.231314
0.231396
0.231479
0.231479
0.231561
0.231644
0.231726
0.231809
0.231809
0.231892
0.231975
0.232057
0.23214
0.23214
0.232223
0.232306
0.232389
0.232472
0.232472
0.232555
0.232638
0.232721
0.232804
0.232804
0.232887
0.232971
0.233054
0.233137
0.233137
0.233221
0.233304
0.233387
0.233471
0.233471
0.233554
0.233638
0.233722
0.233805
0.233805
0.233889
0.233973
0.234056
0.23414
0.23414
0.234224
0.234308
0.234392
0.234476
0.234476
0.23456
0.234644
0.234728
0.234812
0.234812
0.234897
0.234981
0.235065
0.235149
0.235149
0.235234
0.235318
0.235403
0.235487
0.235487
0.235572
0.235656
0.235741
0.235825
0.235825
0.23591
0.235995
0.23608
0.236164
0.236164
0.236249
0.236334
0.236419
0.236504
0.236504
0.236589
0.236674
0.236759
0.236844
0.236844
0.23693
0.237015
0.2371
0.237185
0.237185
0.237271
0.237356
0.237442
0.237527
0.237527
0.237613
0.237698
0.237784
0.237869
0.237869
0.237955
0.238041
0.238127
0.238212
0.238212
0.238298
0.238384
0.23847
0.238556
0.238556
0.238642
0.238728
0.238814
0.2389
0.2389
0.238987
0.239073
0.239159
0.239246
0.239246
0.239332
0.239418
0.239505
0.239591
0.239591
0.239678
0.239764
0.239851
0.239938
0.239938
0.240024
0.240111
0.240198
0.240285
0.240285
0.240371
0.240458
0.240545
0.240632
0.240632
0.240719
0.240806
0.240893
0.240981
0.240981
0.241068
0.241155
0.241242
0.24133
0.24133
0.241417
0.241504
0.241592
0.241679
0.241679
0.241767
0.241854
0.241942
0.24203
0.24203
0.242117
0.242205
0.242293
0.242381
0.242381
0.242469
0.242556
0.242644
0.242732
0.242732
0.24282
0.242909
0.242997
0.243085
0.243085
0.243173
0.243261
0.24335
0.243438
0.243438
0.243526
0.243615
0.243703
0.243792
0.243792
0.24388
0.243969
0.244057
0.244146
0.244146
0.244235
0.244323
0.244412
0.244501
0.244501
0.24459
0.244679
0.244768
0.244857
0.244857
0.244946
0.245035
0.245124
0.245213
0.245213
0.245302
0.245392
0.245481
0.24557
0.24557
0.24566
0.245749
0.245838
0.245928
0.245928
0.246017
0.246107
0.246197
0.246286
0.246286
0.246376
0.246466
0.246556
0.246645
0.246645
0.246735
0.246825
0.246915
0.247005
0.247005
0.247095
0.247185
0.247275
0.247366
0.247366
0.247456
0.247546
0.247636
0.247727
0.247727
0.247817
0.247907
0.247998
0.248088
0.248088
0.248179
0.248269
0.24836
0.248451
0.248451
0.248541
0.248632
0.248723
0.248814
0.248814
0.248905
0.248996
0.249087
0.249178
0.249178
0.249269
0.24936
0.249451
0.249542
0.249542
0.249633
0.249725
0.249816
0.249907
0.249907
0.249999
0.25009
0.250181
0.250273
0.250273
0.250365
0.250456
0.250548
0.250639
0.250639
0.250731
0.250823
0.250915
0.251007
0.251007
0.251098
0.25119
0.251282
0.251374
0.251374
0.251466
0.251559
0.251651
0.251743
0.251743
0.251835
0.251927
0.25202
0.252112
0.252112
0.252204
0.252297
0.252389
0.252482
0.252482
0.252574
0.252667
0.25276
0.252852
0.252852
0.252945
0.253038
0.253131
0.253223
0.253223
0.253316
0.253409
0.253502
0.253595
0.253595
0.253688
0.253781
0.253875