<?xml version="1.0"?>
<VTKFile type="UnstructuredGrid" version="0.1" byte_order="LittleEndian">
<UnstructuredGrid>
<Piece NumberOfPoints="5000" NumberOfCells="4000">
<PointData Scalars="Reaction 0">
<DataArray type="Float32" Name="Reaction 0" format="ascii">
0.879269
0.879269
0.879269
0.879269
0.879269
0.879269
0.879269
0.879269
0.879269
0.879269
0.879269
0.879269
0.879269
0.879269
0.879269
0.879269
0.879269
0.879269
0.879269
0.879269
0.879269
0.879269
0.879269
0.879269
0.879269
0.879269
0.879269
0.879269
0.879269
0.879269
0.879269
0.879269
0.879269
0.879269
0.879269
0.879269
0.879269
0.879269
0.879269
0.879269
0.879269
0.879268
0.879268
0.879268
0.879268
0.879268
0.879268
0.879268
0.879268
0.879268
0.879268
0.879268
0.879268
0.879268
0.879268
0.879268
0.879268
0.879268
0.879268
0.879268
0.879268
0.879267
0.879267
0.879267
0.879267
0.879267
0.879267
0.879267
0.879267
0.879267
0.879267
0.879267
0.879267
0.879267
0.879267
0.879267
0.879267
0.879266
0.879266
0.879266
0.879266
0.879266
0.879266
0.879266
0.879266
0.879266
0.879266
0.879266
0.879266
0.879265
0.879265
0.879265
0.879265
0.879265
0.879265
0.879265
0.879265
0.879265
0.879265
0.879265
0.879265
0.879264
0.879264
0.879264
0.879264
0.879264
0.879264
0.879264
0.879264
0.879264
0.879264
0.879263
0.879263
0.879263
0.879263
0.879263
0.879263
0.879263
0.879263
0.879262
0.879262
0.879262
0.879262
0.879262
0.879262
0.879262
0.879262
0.879262
0.879261
0.879261
0.879261
0.879261
0.879261
0.879261
0.879261
0.879261
0.87926
0.87926
0.87926
0.87926
0.87926
0.87926
0.87926
0.879259
0.879259
0.879259
0.879259
0.879259
0.879259
0.879259
0.879259
0.879258
0.879258
0.879258
0.879258
0.879258
0.879258
0.879258
0.879257
0.879257
0.879257
0.879257
0.879257
0.879257
0.879256
0.879256
0.879256
0.879256
0.879256
0.879256
0.879256
0.879255
0.879255
0.879255
0.879255
0.879255
0.879255
0.879254
0.879254
0.879254
0.879254
0.879254
0.879253
0.879253
0.879253
0.879253
0.879253
0.879253
0.879252
0.879252
0.879252
0.879252
0.879252
0.879251
0.879251
0.879251
0.879251
0.879251
0.879251
0.87925
0.87925
0.87925
0.87925
0.87925
0.879249
0.879249
0.879249
0.879249
0.879249
0.879248
0.879248
0.879248
0.879248
0.879248
0.879247
0.879247
0.879247
0.879247
0.879247
0.879246
0.879246
0.879246
0.879246
0.879246
0.879245
0.879245
0.879245
0.879245
0.879244
0.879244
0.879244
0.879244
0.879244
0.879243
0.879243
0.879243
0.879243
0.879243
0.879242
0.879242
0.879242
0.879242
0.879241
0.879241
0.879241
0.879241
0.879241
0.87924
0.87924
0.87924
0.87924
0.879239
0.879239
0.879239
0.879238
0.879238
0.879238
0.879238
0.879238
0.879237
0.879237
0.879237
0.879237
0.879236
0.879236
0.879236
0.879236
0.879235
0.879235
0.879235
0.879235
0.879234
0.879234
0.879234
0.879233
0.879233
0.879233
0.879233
0.879232
0.879232
0.879232
0.879232
0.879231
0.879231
0.879231
0.879231
0.87923
0.87923
0.87923
0.879229
0.879229
0.879229
0.879229
0.879228
0.879228
0.879228
0.879228
0.879227
0.879227
0.879227
0.879227
0.879226
0.879226
0.879226
0.879225
0.879225
0.879225
0.879225
0.879224
0.879224
0.879224
0.879223
0.879223
0.879223
0.879222
0.879222
0.879222
0.879222
0.879221
0.879221
0.879221
0.87922
0.87922
0.87922
0.879219
0.879219
0.879219
0.879219
0.879218
0.879218
0.879218
0.879217
0.879217
0.879217
0.879216
0.879216
0.879216
0.879215
0.879215
0.879215
0.879215
0.879214
0.879214
0.879213
0.879213
0.879213
0.879213
0.879212
0.879212
0.879211
0.879211
0.879211
0.879211
0.87921
0.87921
0.87921
0.879209
0.879209
0.879208
0.879208
0.879208
0.879208
0.879207
0.879207
0.879206
0.879206
0.879206
0.879205
0.879205
0.879205
0.879205
0.879204
0.879204
0.879203
0.879203
0.879203
0.879202
0.879202
0.879201
0.879201
0.879201
0.879201
0.8792
0.8792
0.879199
0.879199
0.879199
0.879198
0.879198
0.879197
0.879197
0.879197
0.879196
0.879196
0.879196
0.879196
0.879195
0.879195
0.879194
0.879194
0.879194
0.879193
0.879193
0.879192
0.879192
0.879192
0.879191
0.879191
0.87919
0.87919
0.87919
0.879189
0.879189
0.879188
0.879188
0.879188
0.879187
0.879187
0.879186
0.879186
0.879186
0.879185
0.879185
0.879184
0.879184
0.879184
0.879183
0.879183
0.879182
0.879182
0.879182
0.879181
0.879181
0.87918
0.87918
0.87918
0.879179
0.879179
0.879178
0.879178
0.879178
0.879177
0.879177
0.879176
0.879176
0.879176
0.879175
0.879175
0.879174
0.879174
0.879174
0.879173
0.879173
0.879172
0.879172
0.879172
0.879171
0.879171
0.87917
0.879169
0.879169
0.879169
0.879168
0.879168
0.879167
0.879167
0.879167
0.879166
0.879166
0.879165
0.879165
0.879165
0.879164
0.879163
0.879163
0.879163
0.879162
0.879162
0.879161
0.879161
0.879161
0.87916
0.879159
0.879159
0.879158
0.879158
0.879158
0.879157
0.879157
0.879156
0.879156
0.879155
0.879155
0.879154
0.879154
0.879154
0.879153
0.879153
0.879152
0.879151
0.879151
0.879151
0.87915
0.87915
0.879149
0.879149
0.879148
0.879148
0.879147
0.879147
0.879147
0.879146
0.879145
0.879145
0.879144
0.879144
0.879144
0.879143
0.879142
0.879142
0.879142
0.879141
0.879141
0.87914
0.879139
0.879139
0.879139
0.879138
0.879138
0.879137
0.879137
0.879136
0.879136
0.879135
0.879134
0.879134
0.879134
0.879133
0.879133
0.879132
0.879132
0.879131
0.879131
0.87913
0.879129
0.879129
0.879129
0.879128
0.879127
0.879127
0.879127
0.879126
0.879126
0.879125
0.879124
0.879124
0.879124
0.879123
0.879122
0.879122
0.879122
0.879121
0.87912
0.87912
0.879119
0.879119
0.879118
0.879118
0.879117
0.879116
0.879116
0.879116
0.879115
0.879114
0.879114
0.879114
0.879113
0.879112
0.879112
0.879111
0.879111
0.87911
0.87911
0.879109
0.879108
0.879108
0.879108
0.879107
0.879106
0.879106
0.879106
0.879105
0.879104
0.879103
0.879103
0.879103
0.879102
0.879101
0.879101
0.8791
0.8791
0.879099
0.879099
0.879098
0.879097
0.879097
0.879097
0.879096
0.879095
0.879094
0.879094
0.879094
0.879093
0.879092
0.879092
0.879092
0.879091
0.87909
0.879089
0.879089
0.879089
0.879088
0.879087
0.879086
0.879086
0.879086
0.879085
0.879084
0.879084
0.879083
0.879083
0.879082
0.879081
0.879081
0.87908
0.87908
0.879079
0.879078
0.879078
0.879077
0.879077
0.879076
0.879075
0.879075
0.879074
0.879074
0.879073
0.879072
0.879072
0.879071
0.879071
0.87907
0.879069
0.879069
0.879068
0.879068
0.879067
0.879066
0.879066
0.879065
0.879065
0.879064
0.879063
0.879063
0.879062
0.879062
0.879061
0.87906
0.879059
0.879059
0.879059
0.879058
0.879057
0.879056
0.879056
0.879056
0.879055
0.879054
0.879053
0.879052
0.879052
0.879052
0.879051
0.87905
0.879049
0.879049
0.879048
0.879048
0.879047
0.879046
0.879046
0.879045
0.879044
0.879044
0.879043
0.879043
0.879042
0.879041
0.87904
0.87904
0.87904
0.879039
0.879038
0.879037
0.879036
0.879036
0.879036
0.879035
0.879034
0.879033
0.879033
0.879032
0.879031
0.879031
0.87903
0.87903
0.879029
0.879028
0.879027
0.879026
0.879026
0.879026
0.879025
0.879024
0.879023
0.879023
0.879022
0.879021
0.879021
0.87902
0.87902
0.879019
0.879018
0.879017
0.879016
0.879016
0.879016
0.879015
0.879014
0.879013
0.879013
0.879012
0.879011
0.87901
0.87901
0.87901
0.879009
0.879008
0.879007
0.879006
0.879006
0.879005
0.879004
0.879004
0.879003
0.879003
0.879002
0.879001
0.879
0.878999
0.878999
0.878998
0.878997
0.878997
0.878996
0.878996
0.878995
0.878994
0.878993
0.878992
0.878992
0.878991
0.87899
0.878989
0.878989
0.878989
0.878988
0.878987
0.878986
0.878985
0.878985
0.878984
0.878983
0.878982
0.878981
0.878981
0.87898
0.87898
0.878979
0.878978
0.878978
0.878977
0.878976
0.878975
0.878974
0.878974
0.878973
0.878972
0.878971
0.87897
0.87897
0.878969
0.878969
0.878968
0.878967
0.878967
0.878966
0.878965
0.878964
0.878963
0.878963
0.878962
0.878961
0.87896
0.878959
0.878959
0.878958
0.878957
0.878956
0.878956
0.878956
0.878955
0.878954
0.878953
0.878952
0.878952
0.878951
0.87895
0.878949
0.878948
0.878948
0.878947
0.878946
0.878945
0.878944
0.878944
0.878943
0.878942
0.878941
0.87894
0.87894
0.878939
0.878938
0.878937
0.878936
0.878936
0.878935
0.878935
0.878934
0.878933
0.878933
0.878932
0.878931
0.87893
0.878929
0.878929
0.878928
0.878927
0.878926
0.878925
0.878925
0.878924
0.878923
0.878922
0.878921
0.878921
0.87892
0.878919
0.878918
0.878917
0.878917
0.878916
0.878915
0.878914
0.878913
0.878913
0.878912
0.878911
0.87891
0.878909
0.878909
0.878908
0.878907
0.878906
0.878905
0.878905
0.878904
0.878903
0.878902
0.878901
0.878901
0.8789
0.878899
0.878898
0.878897
0.878897
0.878896
0.878895
0.878894
0.878893
0.878893
0.878892
0.878891
0.87889
0.878888
0.878888
0.878887
0.878886
0.878885
0.878884
0.878884
0.878883
0.878882
0.878881
0.87888
0.87888
0.878879
0.878878
0.878877
0.878876
0.878876
0.878875
0.878874
0.878873
0.878872
0.878872
0.878871
0.87887
0.878869
0.878868
0.878868
0.878867
0.878865
0.878864
0.878863
0.878863
0.878862
0.878861
0.87886
0.878859
0.878859
0.878858
0.878857
0.878856
0.878855
0.878855
0.878854
0.878853
0.878852
0.878851
0.878851
0.878849
0.878848
0.878847
0.878846
0.878846
0.878845
0.878844
0.878843
0.878842
0.878842
0.878841
0.87884
0.878839
0.878837
0.878837
0.878836
0.878835
0.878834
0.878833
0.878833
0.878832
0.878831
0.87883
0.878829
0.878829
0.878828
0.878826
0.878825
0.878824
0.878824
0.878823
0.878822
0.878821
0.87882
0.87882
0.878819
0.878818
0.878816
0.878815
0.878815
0.878814
0.878813
0.878812
0.878811
0.878811
0.87881
0.878809
0.878808
0.878806
0.878806
0.878805
0.878804
0.878803
0.878802
0.878802
0.878801
0.8788
0.878798
0.878797
0.878797
0.878796
0.878795
0.878794
0.878793
0.878793
0.878792
0.87879
0.878789
0.878788
0.878788
0.878787
0.878786
0.878785
0.878784
0.878784
0.878782
0.878781
0.87878
0.878779
0.878779
0.878778
0.878777
0.878775
0.878774
0.878774
0.878773
0.878772
0.878771
0.87877
0.87877
0.878768
0.878767
0.878766
0.878765
0.878765
0.878764
0.878763
0.878761
0.87876
0.87876
0.878759
0.878758
0.878757
0.878755
0.878755
0.878754
0.878753
0.878752
0.878751
0.878751
0.87875
0.878748
0.878747
0.878746
0.878746
0.878745
0.878744
0.878742
0.878741
0.878741
0.87874
0.878739
0.878738
0.878736
0.878736
0.878735
0.878734
0.878733
0.878732
0.878732
0.87873
0.878729
0.878728
0.878727
0.878727
0.878725
0.878724
0.878723
0.878722
0.878722
0.878721
0.878719
0.878718
0.878717
0.878717
0.878716
0.878715
0.878713
0.878712
0.878712
0.878711
0.87871
0.878708
0.878707
0.878707
0.878706
0.878705
0.878703
0.878702
0.878702
0.878701
0.8787
0.878698
0.878697
0.878697
0.878696
0.878695
0.878693
0.878692
0.878692
0.878691
0.87869
0.878688
0.878687
0.878687
0.878686
0.878685
0.878683
0.878682
0.878682
0.878681
0.87868
0.878678
0.878677
0.878677
0.878676
0.878674
0.878673
0.878672
0.878672
0.878671
0.878669
0.878668
0.878667
0.878667
0.878665
0.878664
0.878663
0.878661
0.878661
0.87866
0.878659
0.878657
0.878656
0.878656
0.878655
0.878653
0.878652
0.878651
0.878651
0.878649
0.878648
0.878647
0.878645
0.878645
0.878644
0.878642
0.878641
0.87864
0.87864
0.878638
0.878637
0.878636
0.878634
0.878634
0.878633
0.878631
0.87863
0.878629
0.878629
0.878627
0.878626
0.878624
0.878623
0.878623
0.878622
0.87862
0.878619
0.878617
0.878617
0.878616
0.878614
0.878613
0.878611
0.878611
0.87861
0.878609
0.878607
0.878606
0.878606
0.878604
0.878603
0.878601
0.8786
0.8786
0.878598
0.878597
0.878595
0.878594
0.878594
0.878592
0.878591
0.878589
0.878588
0.878588
0.878586
0.878585
0.878583
0.878582
0.878582
0.87858
0.878579
0.878577
0.878576
0.878576
0.878574
0.878573
0.878571
0.87857
0.87857
0.878568
0.878567
0.878565
0.878564
0.878564
0.878562
0.878561
0.878559
0.878557
0.878557
0.878556
0.878554
0.878553
0.878551
0.878551
0.87855
0.878548
0.878547
0.878545
0.878545
0.878544
0.878542
0.878541
0.878539
0.878539
0.878537
0.878536
0.878534
0.878533
0.878533
0.878531
0.87853
0.878528
0.878527
0.878527
0.878525
0.878523
0.878522
0.87852
0.87852
0.878519
0.878517
0.878516
0.878514
0.878514
0.878512
0.878511
0.878509
0.878508
0.878508
0.878506
0.878505
0.878503
0.878501
0.878501
0.8785
0.878498
0.878497
0.878495
0.878495
0.878493
0.878492
0.87849
0.878489
0.878489
0.878487
0.878486
0.878484
0.878482
0.878482
0.878481
0.878479
0.878478
0.878476
0.878476
0.878474
0.878473
0.878471
0.87847
0.87847
0.878468
0.878466
0.878465
0.878463
0.878463
0.878461
0.87846
0.878458
0.878457
0.878457
0.878455
0.878453
0.878452
0.87845
0.87845
0.878449
0.878447
0.878445
0.878444
0.878444
0.878442
0.87844
0.878439
0.878437
0.878437
0.878435
0.878434
0.878432
0.878431
0.878431
0.878429
0.878427
0.878426
0.878424
0.878424
0.878422
0.878421
0.878419
0.878417
0.878417
0.878416
0.878414
0.878412
0.878411
0.878411
0.878409
0.878408
0.878406
0.878404
0.878404
0.878403
0.878401
0.878399
0.878398
0.878398
0.878396
0.878394
0.878393
0.878391
0.878391
0.878389
0.878388
0.878386
0.878384
0.878384
0.878383
0.878381
0.878379
0.878378
0.878378
0.878376
0.878374
0.878372
0.878371
0.878371
0.878369
0.878367
0.878366
0.878364
0.878364
0.878362
0.878361
0.878359
0.878357
0.878357
0.878356
0.878354
0.878352
0.878351
0.878351
0.878349
0.878347
0.878345
0.878344
0.878344
0.878342
0.87834
0.878339
0.878337
0.878337
0.878335
0.878333
0.878332
0.87833
0.87833
0.878328
0.878327
0.878325
0.878323
0.878323
0.878321
0.87832
0.878318
0.878316
0.878316
0.878315
0.878313
0.878311
0.878309
0.878309
0.878308
0.878306
0.878304
0.878302
0.878302
0.878301
0.878299
0.878297
0.878296
0.878296
0.878294
0.878292
0.87829
0.878289
0.878289
0.878287
0.878285
0.878283
0.878282
0.878282
0.87828
0.878278
0.878276
0.878275
0.878275
0.878273
0.878271
0.878269
0.878268
0.878268
0.878266
0.878264
0.878262
0.878261
0.878261
0.878259
0.878257
0.878255
0.878253
0.878253
0.878252
0.87825
0.878248
0.878246
0.878246
0.878245
0.878243
0.878241
0.878239
0.878239
0.878238
0.878236
0.878234
0.878232
0.878232
0.87823
0.878229
0.878227
0.878225
0.878225
0.878223
0.878221
0.87822
0.878218
0.878218
0.878216
0.878214
0.878213
0.878211
0.878211
0.878209
0.878207
0.878205
0.878204
0.878204
0.878202
0.8782
0.878198
0.878196
0.878196
0.878194
0.878193
0.878191
0.878189
0.878189
0.878187
0.878185
0.878184
0.878182
0.878182
0.87818
0.878178
0.878176
0.878175
0.878175
0.878173
0.878171
0.878169
0.878167
0.878167
0.878165
0.878164
0.878162
0.87816
0.87816
0.878158
0.878156
0.878154
0.878153
0.878153
0.878151
0.878149
0.878147
0.878145
0.878145
0.878143
0.878142
0.87814
0.878138
0.878138
0.878136
0.878134
0.878132
0.878131
0.878131
0.878129
0.878127
0.878125
0.878123
0.878123
0.878121
0.878119
0.878118
0.878116
0.878116
0.878114
0.878112
0.87811
0.878108
0.878108
0.878106
0.878105
0.878103
0.878101
0.878101
0.878099
0.878097
0.878095
0.878093
0.878093
0.878091
0.87809
0.878088
0.878086
0.878086
0.878084
0.878082
0.87808
0.878078
0.878078
0.878076
0.878075
0.878073
0.878071
0.878071
0.878069
0.878067
0.878065
0.878063
0.878063
0.878061
0.87806
0.878058
0.878056
0.878056
0.878054
0.878052
0.87805
0.878048
0.878048
0.878046
0.878044
0.878042
0.878041
0.878041
0.878039
0.878037
0.878035
0.878033
0.878033
0.878031
0.878029
0.878027
0.878025
0.878025
0.878023
0.878021
0.87802
0.878018
0.878018
0.878016
0.878014
0.878012
0.87801
0.87801
0.878008
0.878006
0.878004
0.878002
0.878002
0.878
0.877998
0.877997
0.877995
0.877995
0.877993
0.877991
0.877989
0.877987
0.877987
0.877985
0.877983
0.877981
0.877979
0.877979
0.877977
0.877975
0.877973
0.877971
0.877971
0.877969
0.877967
0.877966
0.877964
0.877964
0.877962
0.87796
0.877958
0.877956
0.877956
0.877954
0.877952
0.87795
0.877948
0.877948
0.877946
0.877944
0.877942
0.87794
0.87794
0.877938
0.877936
0.877934
0.877932
0.877932
0.87793
0.877928
0.877926
0.877924
0.877924
0.877922
0.877921
0.877919
0.877917
0.877917
0.877915
0.877913
0.877911
0.877909
0.877909
0.877907
0.877905
0.877903
0.877901
0.877901
0.877899
0.877897
0.877895
0.877893
0.877893
0.877891
0.877889
0.877887
0.877885
0.877885
0.877883
0.877881
0.877879
0.877877
0.877877
0.877875
0.877873
0.877871
0.877869
0.877869
0.877867
0.877865
0.877863
0.877861
0.877861
0.877859
0.877857
0.877855
0.877853
0.877853
0.877851
0.877849
0.877847
0.877845
0.877845
0.877843
0.877841
0.877839
0.877837
0.877837
0.877835
0.877833
0.877831
0.877829
0.877829
0.877827
0.877825
0.877823
0.877821
0.877821
0.877819
0.877817
0.877815
0.877813
0.877813
0.877811
0.877809
0.877807
0.877805
0.877805
0.877802
0.8778
0.877798
0.877796
0.877796
0.877794
0.877792
0.87779
0.877788
0.877788
0.877786
0.877784
0.877782
0.87778
0.87778
0.877778
0.877776
0.877774
0.877772
0.877772
0.87777
0.877768
0.877766
0.877764
0.877764
0.877762
0.87776
0.877757
0.877755
0.877755
0.877753
0.877751
0.877749
0.877747
0.877747
0.877745
0.877743
0.877741
0.877739
0.877739
0.877737
0.877735
0.877733
0.87773
0.87773
0.877728
0.877726
0.877724
0.877722
0.877722
0.87772
0.877718
0.877716
0.877713
0.877713
0.877711
0.877709
0.877707
0.877705
0.877705
0.877703
0.877701
0.877698
0.877696
0.877696
0.877694
0.877692
0.87769
0.877687
0.877687
0.877685
0.877683
0.877681
0.877679
0.877679
0.877676
0.877674
0.877672
0.87767
0.87767
0.877668
0.877665
0.877663
0.877661
0.877661
0.877659
0.877656
0.877654
0.877652
0.877652
0.87765
0.877647
0.877645
0.877643
0.877643
0.87764
0.877638
0.877636
0.877634
0.877634
0.877631
0.877629
0.877627
0.877624
0.877624
0.877622
0.87762
0.877617
0.877615
0.877615
0.877613
0.87761
0.877608
0.877606
0.877606
0.877603
0.877601
0.877599
0.877596
0.877596
0.877594
0.877592
0.877589
0.877587
0.877587
0.877585
0.877582
0.87758
0.877577
0.877577
0.877575
0.877573
0.87757
0.877568
0.877568
0.877566
0.877563
0.877561
0.877558
0.877558
0.877556
0.877554
0.877551
0.877549
0.877549
0.877547
0.877544
0.877542
0.877539
0.877539
0.877537
0.877535
0.877532
0.87753
0.87753
0.877527
0.877525
0.877523
0.87752
0.87752
0.877518
0.877515
0.877513
0.877511
0.877511
0.877508
0.877506
0.877503
0.877501
0.877501
0.877499
0.877496
0.877494
0.877491
0.877491
0.877489
0.877486
0.877484
0.877482
0.877482
0.877479
0.877477
0.877474
0.877472
0.877472
0.87747
0.877467
0.877465
0.877462
0.877462
0.87746
0.877457
0.877455
0.877453
0.877453
0.87745
0.877448
0.877445
0.877443
0.877443
0.87744
0.877438
0.877436
0.877433
0.877433
0.877431
0.877428
0.877426
0.877423
0.877423
0.877421
0.877418
0.877416
0.877414
0.877414
0.877411
0.877409
0.877406
0.877404
0.877404
0.877401
0.877399
0.877396
0.877394
0.877394
0.877392
0.877389
0.877387
0.877384
0.877384
0.877382
0.877379
0.877377
0.877374
0.877374
0.877372
0.877369
0.877367
0.877364
0.877364
0.877362
0.87736
0.877357
0.877355
0.877355
0.877352
0.87735
0.877347
0.877345
0.877345
0.877342
0.87734
0.877337
0.877335
0.877335
0.877332
0.87733
0.877327
0.877325
0.877325
0.877322
0.87732
0.877317
0.877315
0.877315
0.877312
0.87731
0.877307
0.877305
0.877305
0.877302
0.8773
0.877297
0.877295
0.877295
0.877293
0.87729
0.877288
0.877285
0.877285
0.877283
0.87728
0.877278
0.877275
0.877275
0.877273
0.87727
0.877268
0.877265
0.877265
0.877262
0.87726
0.877257
0.877255
0.877255
0.877252
0.87725
0.877247
0.877245
0.877245
0.877242
0.87724
0.877237
0.877235
0.877235
0.877232
0.87723
0.877227
0.877225
0.877225
0.877222
0.87722
0.877217
0.877215
0.877215
0.877212
0.87721
0.877207
0.877205
0.877205
0.877202
0.8772
0.877197
0.877194
0.877194
0.877192
0.877189
0.877187
0.877184
0.877184
0.877182
0.877179
0.877177
0.877174
0.877174
0.877172
0.877169
0.877167
0.877164
0.877164
0.877161
0.877159
0.877156
0.877154
0.877154
0.877151
0.877149
0.877146
0.877144
0.877144
0.877141
0.877139
0.877136
0.877133
0.877133
0.877131
0.877128
0.877126
0.877123
0.877123
0.877121
0.877118
0.877116
0.877113
0.877113
0.87711
0.877108
0.877105
0.877103
0.877103
0.8771
0.877098
0.877095
0.877092
0.877092
0.87709
0.877087
0.877085
0.877082
0.877082
0.87708
0.877077
0.877074
0.877072
0.877072
0.877069
0.877067
0.877064
0.877062
0.877062
0.877059
0.877056
0.877054
0.877051
0.877051
0.877049
0.877046
0.877043
0.877041
0.877041
0.877038
0.877036
0.877033
0.877031
0.877031
0.877028
0.877025
0.877023
0.87702
0.87702
0.877018
0.877015
0.877012
0.87701
0.87701
0.877007
0.877005
0.877002
0.876999
0.876999
0.876997
0.876994
0.876992
0.876989
0.876989
0.876986
0.876984
0.876981
0.876979
0.876979
0.876976
0.876973
0.876971
0.876968
0.876968
0.876965
0.876963
0.87696
0.876958
0.876958
0.876955
0.876952
0.87695
0.876947
0.876947
0.876945
0.876942
0.876939
0.876937
0.876937
0.876934
0.876931
0.876929
0.876926
0.876926
0.876924
0.876921
0.876918
0.876916
0.876916
0.876913
0.87691
0.876908
0.876905
0.876905
0.876903
0.8769
0.876897
0.876895
0.876895
0.876892
0.876889
0.876887
0.876884
0.876884
0.876881
0.876879
0.876876
0.876874
0.876874
0.876871
0.876868
0.876866
0.876863
0.876863
0.87686
0.876858
0.876855
0.876852
0.876852
0.87685
0.876847
0.876844
0.876842
0.876842
0.876839
0.876836
0.876834
0.876831
0.876831
0.876829
0.876826
0.876823
0.876821
0.876821
0.876818
0.876815
0.876813
0.87681
0.87681
0.876807
0.876805
0.876802
0.876799
0.876799
0.876796
0.876794
0.876791
0.876788
0.876788
0.876786
0.876783
0.87678
0.876778
0.876778
0.876775
0.876772
0.876769
0.876767
0.876767
0.876764
0.876761
0.876759
0.876756
0.876756
0.876753
0.87675
0.876747
0.876745
0.876745
0.876742
0.876739
0.876736
0.876734
0.876734
0.876731
0.876728
0.876725
0.876722
0.876722
0.87672
0.876717
0.876714
0.876711
0.876711
0.876708
0.876705
0.876703
0.8767
0.8767
0.876697
0.876694
0.876691
0.876688
0.876688
0.876686
0.876683
0.87668
0.876677
0.876677
0.876674
0.876671
0.876668
0.876665
0.876665
0.876662
0.87666
0.876657
0.876654
0.876654
0.876651
0.876648
0.876645
0.876642
0.876642
0.876639
0.876636
0.876633
0.87663
0.87663
0.876627
0.876624
0.876621
0.876618
0.876618
0.876615
0.876612
0.876609
0.876606
0.876606
0.876603
0.8766
0.876597
0.876595
0.876595
0.876592
0.876589
0.876586
0.876583
0.876583
0.87658
0.876577
0.876574
0.876571
0.876571
0.876568
0.876565
0.876561
0.876558
0.876558
0.876555
0.876552
0.876549
0.876546
0.876546
0.876543
0.87654
0.876537
0.876534
0.876534
0.876531
0.876528
0.876525
0.876522
0.876522
0.876519
0.876516
0.876513
0.87651
0.87651
0.876507
0.876504
0.876501
0.876498
0.876498
0.876495
0.876492
0.876489
0.876486
0.876486
0.876483
0.87648
0.876477
0.876474
0.876474
0.876471
0.876468
0.876465
0.876462
0.876462
0.876459
0.876456
0.876453
0.87645
0.87645
0.876446
0.876443
0.87644
0.876437
0.876437
0.876434
0.876431
0.876428
0.876425
0.876425
0.876422
0.876419
0.876416
0.876413
0.876413
0.87641
0.876407
0.876404
0.876401
0.876401
0.876398
0.876395
0.876392
0.876389
0.876389
0.876385
0.876382
0.876379
0.876376
0.876376
0.876373
0.87637
0.876367
0.876364
0.876364
0.876361
0.876358
0.876355
0.876352
0.876352
0.876349
0.876346
0.876343
0.876339
0.876339
0.876336
0.876333
0.87633
0.876327
0.876327
0.876324
0.876321
0.876318
0.876315
0.876315
0.876312
0.876309
0.876306
0.876303
0.876303
0.8763
0.876296
0.876293
0.87629
0.87629
0.876287
0.876284
0.876281
0.876278
0.876278
0.876275
0.876272
0.876269
0.876266
0.876266
0.876262
0.876259
0.876256
0.876253
0.876253
0.87625
0.876247
0.876244
0.876241
0.876241
0.876238
0.876235
0.876232
0.876228
0.876228
0.876225
0.876222
0.876219
0.876216
0.876216
0.876213
0.87621
0.876207
0.876204
0.876204
0.876201
0.876197
0.876194
0.876191
0.876191
0.876188
0.876185
0.876182
0.876179
0.876179
0.876176
0.876173
0.876169
0.876166
0.876166
0.876163
0.87616
0.876157
0.876154
0.876154
0.876151
0.876148
0.876145
0.876141
0.876141
0.876138
0.876135
0.876132
0.876129
0.876129
0.876126
0.876123
0.87612
0.876117
0.876117
0.876113
0.87611
0.876107
0.876104
0.876104
0.876101
0.876098
0.876095
0.876092
0.876092
0.876088
0.876085
0.876082
0.876079
0.876079
0.876076
0.876073
0.87607
0.876066
0.876066
0.876063
0.87606
0.876057
0.876054
0.876054
0.876051
0.876048
0.876045
0.876041
0.876041
0.876038
0.876035
0.876032
0.876029
0.876029
0.876026
0.876023
0.876019
0.876016
0.876016
0.876013
0.87601
0.876007
0.876004
0.876004
0.876001
0.875997
0.875994
0.875991
0.875991
0.875988
0.875985
0.875982
0.875978
0.875978
0.875975
0.875972
0.875969
0.875966
0.875966
0.875963
0.87596
0.875956
0.875953
0.875953
0.87595
0.875947
0.875944
0.875941
0.875941
0.875937
0.875934
0.875931
0.875928
0.875928
0.875925
0.875922
0.875918
0.875915
0.875915
0.875912
0.875909
0.875906
0.875903
0.875903
0.875899
0.875896
0.875893
0.87589
0.87589
0.875887
0.875884
0.87588
0.875877
0.875877
0.875874
0.875871
0.875868
0.875865
0.875865
0.875861
0.875858
0.875855
0.875852
0.875852
0.875849
0.875845
0.875842
0.875839
0.875839
0.875836
0.875833
0.875829
0.875826
0.875826
0.875823
0.87582
0.875816
0.875813
0.875813
0.87581
0.875807
0.875803
0.8758
0.8758
0.875797
0.875794
0.87579
0.875787
0.875787
0.875784
0.875781
0.875777
0.875774
0.875774
0.875771
0.875767
0.875764
0.875761
0.875761
0.875757
0.875754
0.875751
0.875747
0.875747
0.875744
0.875741
0.875737
0.875734
0.875734
0.875731
0.875727
0.875724
0.875721
0.875721
0.875717
0.875714
0.87571
0.875707
0.875707
0.875704
0.8757
0.875697
0.875694
0.875694
0.87569
0.875687
0.875683
0.87568
0.87568
0.875676
0.875673
0.87567
0.875666
0.875666
0.875663
0.875659
0.875656
0.875652
0.875652
0.875649
0.875645
0.875642
0.875638
0.875638
0.875635
0.875631
0.875628
0.875624
0.875624
0.875621
0.875617
0.875614
0.87561
0.87561
0.875607
0.875603
0.8756
0.875596
0.875596
0.875593
0.875589
0.875586
0.875582
0.875582
0.875579
0.875575
0.875572
0.875568
0.875568
0.875565
0.875561
0.875557
0.875554
0.875554
0.87555
0.875547
0.875543
0.87554
0.87554
0.875536
0.875533
0.875529
0.875526
0.875526
0.875522
0.875518
0.875515
0.875511
0.875511
0.875508
0.875504
0.875501
0.875497
0.875497
0.875494
0.87549
0.875487
0.875483
0.875483
0.875479
0.875476
0.875472
0.875469
0.875469
0.875465
0.875462
0.875458
0.875455
0.875455
0.875451
0.875447
0.875444
0.87544
0.87544
0.875437
0.875433
0.87543
0.875426
0.875426
0.875423
0.875419
0.875415
0.875412
0.875412
0.875408
0.875405
0.875401
0.875398
0.875398
0.875394
0.87539
0.875387
0.875383
0.875383
0.87538
0.875376
0.875373
0.875369
0.875369
0.875366
0.875362
0.875358
0.875355
0.875355
0.875351
0.875348
0.875344
0.875341
0.875341
0.875337
0.875333
0.87533
0.875326
0.875326
0.875323
0.875319
0.875315
0.875312
0.875312
0.875308
0.875305
0.875301
0.875298
0.875298
0.875294
0.87529
0.875287
0.875283
0.875283
0.87528
0.875276
0.875273
0.875269
0.875269
0.875265
0.875262
0.875258
0.875255
0.875255
0.875251
0.875247
0.875244
0.87524
0.87524
0.875237
0.875233
0.875229
0.875226
0.875226
0.875222
0.875219
0.875215
0.875211
0.875211
0.875208
0.875204
0.875201
0.875197
0.875197
0.875194
0.87519
0.875186
0.875183
0.875183
0.875179
0.875176
0.875172
0.875168
0.875168
0.875165
0.875161
0.875158
0.875154
0.875154
0.87515
0.875147
0.875143
0.87514
0.87514
0.875136
0.875132
0.875129
0.875125
0.875125
0.875122
0.875118
0.875114
0.875111
0.875111
0.875107
0.875103
0.8751
0.875096
0.875096
0.875093
0.875089
0.875085
0.875082
0.875082
0.875078
0.875075
0.875071
0.875067
0.875067
0.875064
0.87506
0.875057
0.875053
0.875053
0.875049
0.875046
0.875042
0.875038
0.875038
0.875035
0.875031
0.875028
0.875024
0.875024
0.87502
0.875017
0.875013
0.87501
0.87501
0.875006
0.875002
0.874999
0.874995
0.874995
0.874991
0.874988
0.874984
0.874981
0.874981
0.874977
0.874973
0.87497
0.874966
0.874966
0.874962
0.874959
0.874955
0.874952
0.874952
0.874948
0.874944
0.874941
0.874937
0.874937
0.874933
0.87493
0.874926
0.874922
0.874922
0.874919
0.874915
0.874912
0.874908
0.874908
0.874904
0.874901
0.874897
0.874893
0.874893
0.87489
0.874886
0.874882
0.874879
0.874879
0.874875
0.874871
0.874868
0.874864
0.874864
0.87486
0.874857
0.874853
0.874849
0.874849
0.874845
0.874842
0.874838
0.874834
0.874834
0.874831
0.874827
0.874823
0.874819
0.874819
0.874816
0.874812
0.874808
0.874804
0.874804
0.8748
0.874797
0.874793
0.874789
0.874789
0.874785
0.874782
0.874778
0.874774
0.874774
0.87477
0.874766
0.874762
0.874759
0.874759
0.874755
0.874751
0.874747
0.874743
0.874743
0.87474
0.874736
0.874732
0.874728
0.874728
0.874724
0.87472
0.874716
0.874713
0.874713
0.874709
0.874705
0.874701
0.874697
0.874697
0.874693
0.874689
0.874685
0.874681
0.874681
0.874677
0.874674
0.87467
0.874666
0.874666
0.874662
0.874658
0.874654
0.87465
0.87465
0.874646
0.874642
0.874638
0.874634
0.874634
0.87463
0.874626
0.874622
0.874618
0.874618
0.874614
0.87461
0.874606
0.874602
0.874602
0.874598
0.874594
0.87459
0.874586
0.874586
0.874582
0.874578
0.874574
0.87457
0.87457
0.874566
0.874562
0.874558
0.874554
0.874554
0.87455
0.874546
0.874542
0.874538
0.874538
0.874534
0.87453
0.874526
0.874522
0.874522
0.874518
0.874514
0.87451
0.874506
0.874506
0.874502
0.874498
0.874494
0.87449
0.87449
0.874486
0.874482
0.874478
0.874474
0.874474
0.87447
0.874466
0.874462
0.874458
0.874458
0.874454
0.87445
0.874446
0.874442
0.874442
0.874438
0.874434
0.87443
0.874426
0.874426
0.874422
0.874418
0.874414
0.87441
0.87441
0.874406
0.874402
0.874398
0.874394
0.874394
0.87439
0.874386
0.874382
0.874378
0.874378
0.874374
0.87437
0.874366
0.874362
0.874362
0.874358
0.874354
0.87435
0.874346
0.874346
0.874342
0.874338
0.874334
0.87433
0.87433
0.874326
0.874322
0.874318
0.874314
0.874314
0.87431
0.874306
0.874302
0.874298
0.874298
0.874294
0.87429
0.874286
0.874282
0.874282
0.874278
0.874274
0.874269
0.874265
0.874265
0.874261
0.874257
0.874253
0.874249
0.874249
0.874245
0.874241
0.874237
0.874233
0.874233
0.874229
0.874225
0.874221
0.874217
0.874217
0.874213
0.874209
0.874205
0.874201
0.874201
0.874197
0.874193
0.874189
0.874185
0.874185
0.874181
0.874177
0.874173
0.874169
0.874169
0.874165
0.874161
0.874157
0.874153
0.874153
0.874149
0.874145
0.874141
0.874136
0.874136
0.874132
0.874128
0.874124
0.87412
0.87412
0.874116
0.874112
0.874108
0.874104
0.874104
0.8741
0.874096
0.874092
0.874088
0.874088
0.874084
0.87408
0.874076
0.874072
0.874072
0.874068
0.874064
0.87406
0.874056
0.874056
0.874052
0.874048
0.874044
0.87404
0.87404
0.874035
0.874031
0.874027
0.874023
0.874023
0.874019
0.874015
0.874011
0.874007
0.874007
0.874003
0.873999
0.873995
0.873991
0.873991
0.873987
0.873983
0.873979
0.873975
0.873975
0.873971
0.873967
0.873963
0.873958
0.873958
0.873954
0.87395
0.873946
0.873942
0.873942
0.873938
0.873934
0.87393
0.873926
0.873926
0.873922
0.873918
0.873914
0.873909
0.873909
0.873905
0.873901
0.873897
0.873893
0.873893
0.873889
0.873885
0.873881
0.873876
0.873876
0.873872
0.873868
0.873864
0.87386
0.87386
0.873856
0.873851
0.873847
0.873843
0.873843
0.873839
0.873835
0.87383