<?xml version="1.0"?>
<VTKFile type="UnstructuredGrid" version="0.1" byte_order="LittleEndian">
<UnstructuredGrid>
<Piece NumberOfPoints="5000" NumberOfCells="4000">
<PointData Scalars="Reaction 0">
<DataArray type="Float32" Name="Reaction 0" format="ascii">
0.287605
0.287605
0.287605
0.287605
0.287605
0.287605
0.287605
0.287606
0.287606
0.287606
0.287606
0.287606
0.287607
0.287607
0.287607
0.287607
0.287608
0.287608
0.287609
0.287609
0.287609
0.28761
0.28761
0.287611
0.287611
0.287611
0.287612
0.287613
0.287614
0.287614
0.287614
0.287615
0.287616
0.287617
0.287618
0.287618
0.287619
0.28762
0.287621
0.287622
0.287622
0.287623
0.287624
0.287625
0.287626
0.287626
0.287627
0.287629
0.28763
0.287631
0.287631
0.287632
0.287634
0.287635
0.287637
0.287637
0.287638
0.28764
0.287641
0.287643
0.287643
0.287644
0.287646
0.287647
0.287649
0.287649
0.287651
0.287653
0.287654
0.287656
0.287656
0.287658
0.28766
0.287662
0.287664
0.287664
0.287666
0.287668
0.28767
0.287672
0.287672
0.287674
0.287676
0.287678
0.287681
0.287681
0.287683
0.287685
0.287687
0.28769
0.28769
0.287692
0.287695
0.287697
0.287699
0.287699
0.287702
0.287704
0.287707
0.28771
0.28771
0.287712
0.287715
0.287718
0.28772
0.28772
0.287723
0.287726
0.287729
0.287732
0.287732
0.287735
0.287737
0.28774
0.287743
0.287743
0.287746
0.287749
0.287753
0.287756
0.287756
0.287759
0.287762
0.287765
0.287769
0.287769
0.287772
0.287775
0.287778
0.287782
0.287782
0.287785
0.287789
0.287792
0.287796
0.287796
0.287799
0.287803
0.287806
0.28781
0.28781
0.287814
0.287818
0.287821
0.287825
0.287825
0.287829
0.287833
0.287837
0.28784
0.28784
0.287844
0.287848
0.287852
0.287856
0.287856
0.28786
0.287865
0.287869
0.287873
0.287873
0.287877
0.287881
0.287886
0.28789
0.28789
0.287894
0.287899
0.287903
0.287907
0.287907
0.287912
0.287916
0.287921
0.287926
0.287926
0.28793
0.287935
0.287939
0.287944
0.287944
0.287949
0.287954
0.287958
0.287963
0.287963
0.287968
0.287973
0.287978
0.287983
0.287983
0.287988
0.287993
0.287998
0.288003
0.288003
0.288008
0.288013
0.288018
0.288024
0.288024
0.288029
0.288034
0.288039
0.288045
0.288045
0.28805
0.288056
0.288061
0.288067
0.288067
0.288072
0.288078
0.288083
0.288089
0.288089
0.288094
0.2881
0.288106
0.288112
0.288112
0.288117
0.288123
0.288129
0.288135
0.288135
0.288141
0.288147
0.288153
0.288159
0.288159
0.288165
0.288171
0.288177
0.288183
0.288183
0.288189
0.288195
0.288202
0.288208
0.288208
0.288214
0.28822
0.288227
0.288233
0.288233
0.28824
0.288246
0.288253
0.288259
0.288259
0.288266
0.288272
0.288279
0.288286
0.288286
0.288292
0.288299
0.288306
0.288312
0.288312
0.288319
0.288326
0.288333
0.28834
0.28834
0.288347
0.288354
0.288361
0.288368
0.288368
0.288375
0.288382
0.288389
0.288396
0.288396
0.288404
0.288411
0.288418
0.288425
0.288425
0.288433
0.28844
0.288448
0.288455
0.288455
0.288463
0.28847
0.288478
0.288485
0.288485
0.288493
0.2885
0.288508
0.288516
0.288516
0.288523
0.288531
0.288539
0.288547
0.288547
0.288555
0.288563
0.288571
0.288579
0.288579
0.288587
0.288595
0.288603
0.288611
0.288611
0.288619
0.288627
0.288635
0.288643
0.288643
0.288652
0.28866
0.288668
0.288677
0.288677
0.288685
0.288693
0.288702
0.28871
0.28871
0.288719
0.288727
0.288736
0.288745
0.288745
0.288753
0.288762
0.288771
0.288779
0.288779
0.288788
0.288797
0.288806
0.288815
0.288815
0.288824
0.288833
0.288842
0.288851
0.288851
0.28886
0.288869
0.288878
0.288887
0.288887
0.288896
0.288905
0.288915
0.288924
0.288924
0.288933
0.288942
0.288952
0.288961
0.288961
0.288971
0.28898
0.28899
0.288999
0.288999
0.289009
0.289018
0.289028
0.289038
0.289038
0.289047
0.289057
0.289067
0.289077
0.289077
0.289086
0.289096
0.289106
0.289116
0.289116
0.289126
0.289136
0.289146
0.289156
0.289156
0.289166
0.289176
0.289186
0.289197
0.289197
0.289207
0.289217
0.289227
0.289238
0.289238
0.289248
0.289258
0.289269
0.289279
0.289279
0.28929
0.2893
0.289311
0.289321
0.289321
0.289332
0.289343
0.289353
0.289364
0.289364
0.289375
0.289385
0.289396
0.289407
0.289407
0.289418
0.289429
0.28944
0.289451
0.289451
0.289462
0.289473
0.289484
0.289495
0.289495
0.289506
0.289517
0.289528
0.28954
0.28954
0.289551
0.289562
0.289574
0.289585
0.289585
0.289596
0.289608
0.289619
0.289631
0.289631
0.289642
0.289654
0.289665
0.289677
0.289677
0.289689
0.2897
0.289712
0.289724
0.289724
0.289735
0.289747
0.289759
0.289771
0.289771
0.289783
0.289795
0.289807
0.289819
0.289819
0.289831
0.289843
0.289855
0.289867
0.289867
0.289879
0.289892
0.289904
0.289916
0.289916
0.289928
0.289941
0.289953
0.289966
0.289966
0.289978
0.28999
0.290003
0.290015
0.290015
0.290028
0.290041
0.290053
0.290066
0.290066
0.290079
0.290091
0.290104
0.290117
0.290117
0.29013
0.290143
0.290155
0.290168
0.290168
0.290181
0.290194
0.290207
0.29022
0.29022
0.290234
0.290247
0.29026
0.290273
0.290273
0.290286
0.290299
0.290313
0.290326
0.290326
0.290339
0.290353
0.290366
0.29038
0.29038
0.290393
0.290407
0.29042
0.290434
0.290434
0.290447
0.290461
0.290475
0.290488
0.290488
0.290502
0.290516
0.29053
0.290544
0.290544
0.290557
0.290571
0.290585
0.290599
0.290599
0.290613
0.290627
0.290641
0.290655
0.290655
0.29067
0.290684
0.290698
0.290712
0.290712
0.290726
0.290741
0.290755
0.290769
0.290769
0.290784
0.290798
0.290813
0.290827
0.290827
0.290842
0.290856
0.290871
0.290885
0.290885
0.2909
0.290915
0.290929
0.290944
0.290944
0.290959
0.290974
0.290989
0.291003
0.291003
0.291018
0.291033
0.291048
0.291063
0.291063
0.291078
0.291093
0.291109
0.291124
0.291124
0.291139
0.291154
0.291169
0.291185
0.291185
0.2912
0.291215
0.291231
0.291246
0.291246
0.291261
0.291277
0.291292
0.291308
0.291308
0.291323
0.291339
0.291355
0.29137
0.29137
0.291386
0.291402
0.291418
0.291433
0.291433
0.291449
0.291465
0.291481
0.291497
0.291497
0.291513
0.291529
0.291545
0.291561
0.291561
0.291577
0.291593
0.291609
0.291625
0.291625
0.291642
0.291658
0.291674
0.29169
0.29169
0.291707
0.291723
0.29174
0.291756
0.291756
0.291772
0.291789
0.291805
0.291822
0.291822
0.291839
0.291855
0.291872
0.291889
0.291889
0.291905
0.291922
0.291939
0.291956
0.291956
0.291973
0.29199
0.292006
0.292023
0.292023
0.29204
0.292057
0.292075
0.292092
0.292092
0.292109
0.292126
0.292143
0.29216
0.29216
0.292178
0.292195
0.292212
0.29223
0.29223
0.292247
0.292264
0.292282
0.292299
0.292299
0.292317
0.292334
0.292352
0.29237
0.29237
0.292387
0.292405
0.292423
0.29244
0.29244
0.292458
0.292476
0.292494
0.292512
0.292512
0.29253
0.292547
0.292565
0.292583
0.292583
0.292601
0.29262
0.292638
0.292656
0.292656
0.292674
0.292692
0.29271
0.292729
0.292729
0.292747
0.292765
0.292784
0.292802
0.292802
0.29282
0.292839
0.292857
0.292876
0.292876
0.292894
0.292913
0.292932
0.29295
0.29295
0.292969
0.292988
0.293006
0.293025
0.293025
0.293044
0.293063
0.293082
0.293101
0.293101
0.29312
0.293139
0.293158
0.293177
0.293177
0.293196
0.293215
0.293234
0.293253
0.293253
0.293272
0.293292
0.293311
0.29333
0.29333
0.29335
0.293369
0.293388
0.293408
0.293408
0.293427
0.293447
0.293466
0.293486
0.293486
0.293505
0.293525
0.293545
0.293564
0.293564
0.293584
0.293604
0.293624
0.293643
0.293643
0.293663
0.293683
0.293703
0.293723
0.293723
0.293743
0.293763
0.293783
0.293803
0.293803
0.293823
0.293843
0.293864
0.293884
0.293884
0.293904
0.293924
0.293945
0.293965
0.293965
0.293985
0.294006
0.294026
0.294047
0.294047
0.294067
0.294088
0.294108
0.294129
0.294129
0.29415
0.29417
0.294191
0.294212
0.294212
0.294232
0.294253
0.294274
0.294295
0.294295
0.294316
0.294337
0.294358
0.294379
0.294379
0.2944
0.294421
0.294442
0.294463
0.294463
0.294484
0.294505
0.294527
0.294548
0.294548
0.294569
0.29459
0.294612
0.294633
0.294633
0.294654
0.294676
0.294697
0.294719
0.294719
0.29474
0.294762
0.294784
0.294805
0.294805
0.294827
0.294849
0.29487
0.294892
0.294892
0.294914
0.294936
0.294958
0.29498
0.29498
0.295001
0.295023
0.295045
0.295067
0.295067
0.29509
0.295112
0.295134
0.295156
0.295156
0.295178
0.2952
0.295223
0.295245
0.295245
0.295267
0.29529
0.295312
0.295334
0.295334
0.295357
0.295379
0.295402
0.295424
0.295424
0.295447
0.29547
0.295492
0.295515
0.295515
0.295538
0.29556
0.295583
0.295606
0.295606
0.295629
0.295652
0.295674
0.295697
0.295697
0.29572
0.295743
0.295766
0.295789
0.295789
0.295813
0.295836
0.295859
0.295882
0.295882
0.295905
0.295929
0.295952
0.295975
0.295975
0.295999
0.296022
0.296045
0.296069
0.296069
0.296092
0.296116
0.296139
0.296163
0.296163
0.296187
0.29621
0.296234
0.296258
0.296258
0.296281
0.296305
0.296329
0.296353
0.296353
0.296377
0.296401
0.296424
0.296448
0.296448
0.296472
0.296496
0.296521
0.296545
0.296545
0.296569
0.296593
0.296617
0.296641
0.296641
0.296666
0.29669
0.296714
0.296739
0.296739
0.296763
0.296787
0.296812
0.296836
0.296836
0.296861
0.296885
0.29691
0.296935
0.296935
0.296959
0.296984
0.297009
0.297033
0.297033
0.297058
0.297083
0.297108
0.297133
0.297133
0.297158
0.297183
0.297208
0.297233
0.297233
0.297258
0.297283
0.297308
0.297333
0.297333
0.297358
0.297383
0.297408
0.297434
0.297434
0.297459
0.297484
0.29751
0.297535
0.297535
0.297561
0.297586
0.297612
0.297637
0.297637
0.297663
0.297688
0.297714
0.297739
0.297739
0.297765
0.297791
0.297817
0.297842
0.297842
0.297868
0.297894
0.29792
0.297946
0.297946
0.297972
0.297998
0.298024
0.29805
0.29805
0.298076
0.298102
0.298128
0.298154
0.298154
0.29818
0.298207
0.298233
0.298259
0.298259
0.298286
0.298312
0.298338
0.298365
0.298365
0.298391
0.298418
0.298444
0.298471
0.298471
0.298497
0.298524
0.298551
0.298577
0.298577
0.298604
0.298631
0.298658
0.298684
0.298684
0.298711
0.298738
0.298765
0.298792
0.298792
0.298819
0.298846
0.298873
0.2989
0.2989
0.298927
0.298954
0.298981
0.299009
0.299009
0.299036
0.299063
0.29909
0.299118
0.299118
0.299145
0.299173
0.2992
0.299227
0.299227
0.299255
0.299282
0.29931
0.299338
0.299338
0.299365
0.299393
0.299421
0.299448
0.299448
0.299476
0.299504
0.299532
0.299559
0.299559
0.299587
0.299615
0.299643
0.299671
0.299671
0.299699
0.299727
0.299755
0.299783
0.299783
0.299811
0.29984
0.299868
0.299896
0.299896
0.299924
0.299953
0.299981
0.300009
0.300009
0.300038
0.300066
0.300095
0.300123
0.300123
0.300152
0.30018
0.300209
0.300237
0.300237
0.300266
0.300295
0.300323
0.300352
0.300352
0.300381
0.30041
0.300439
0.300467
0.300467
0.300496
0.300525
0.300554
0.300583
0.300583
0.300612
0.300641
0.300671
0.3007
0.3007
0.300729
0.300758
0.300787
0.300816
0.300816
0.300846
0.300875
0.300904
0.300934
0.300934
0.300963
0.300993
0.301022
0.301052
0.301052
0.301081
0.301111
0.30114
0.30117
0.30117
0.3012
0.30123
0.301259
0.301289
0.301289
0.301319
0.301349
0.301379
0.301408
0.301408
0.301438
0.301468
0.301498
0.301528
0.301528
0.301558
0.301589
0.301619
0.301649
0.301649
0.301679
0.301709
0.30174
0.30177
0.30177
0.3018
0.301831
0.301861
0.301891
0.301891
0.301922
0.301952
0.301983
0.302013
0.302013
0.302044
0.302075
0.302105
0.302136
0.302136
0.302167
0.302197
0.302228
0.302259
0.302259
0.30229
0.302321
0.302351
0.302382
0.302382
0.302413
0.302444
0.302475
0.302506
0.302506
0.302538
0.302569
0.3026
0.302631
0.302631
0.302662
0.302693
0.302725
0.302756
0.302756
0.302787
0.302819
0.30285
0.302882
0.302882
0.302913
0.302945
0.302976
0.303008
0.303008
0.303039
0.303071
0.303103
0.303134
0.303134
0.303166
0.303198
0.30323
0.303262
0.303262
0.303293
0.303325
0.303357
0.303389
0.303389
0.303421
0.303453
0.303485
0.303517
0.303517
0.303549
0.303582
0.303614
0.303646
0.303646
0.303678
0.303711
0.303743
0.303775
0.303775
0.303808
0.30384
0.303872
0.303905
0.303905
0.303937
0.30397
0.304003
0.304035
0.304035
0.304068
0.3041
0.304133
0.304166
0.304166
0.304199
0.304231
0.304264
0.304297
0.304297
0.30433
0.304363
0.304396
0.304429
0.304429
0.304462
0.304495
0.304528
0.304561
0.304561
0.304594
0.304627
0.304661
0.304694
0.304694
0.304727
0.30476
0.304794
0.304827
0.304827
0.304861
0.304894
0.304927
0.304961
0.304961
0.304994
0.305028
0.305062
0.305095
0.305095
0.305129
0.305163
0.305196
0.30523
0.30523
0.305264
0.305298
0.305331
0.305365
0.305365
0.305399
0.305433
0.305467
0.305501
0.305501
0.305535
0.305569
0.305603
0.305638
0.305638
0.305672
0.305706
0.30574
0.305774
0.305774
0.305809
0.305843
0.305877
0.305912
0.305912
0.305946
0.305981
0.306015
0.30605
0.30605
0.306084
0.306119
0.306153
0.306188
0.306188
0.306223
0.306258
0.306292
0.306327
0.306327
0.306362
0.306397
0.306432
0.306466
0.306466
0.306501
0.306536
0.306571
0.306606
0.306606
0.306641
0.306677
0.306712
0.306747
0.306747
0.306782
0.306817
0.306852
0.306888
0.306888
0.306923
0.306958
0.306994
0.307029
0.307029
0.307065
0.3071
0.307136
0.307171
0.307171
0.307207
0.307242
0.307278
0.307314
0.307314
0.307349
0.307385
0.307421
0.307457
0.307457
0.307493
0.307528
0.307564
0.3076
0.3076
0.307636
0.307672
0.307708
0.307744
0.307744
0.30778
0.307816
0.307853
0.307889
0.307889
0.307925
0.307961
0.307997
0.308034
0.308034
0.30807
0.308106
0.308143
0.308179
0.308179
0.308216
0.308252
0.308289
0.308325
0.308325
0.308362
0.308399
0.308435
0.308472
0.308472
0.308509
0.308545
0.308582
0.308619
0.308619
0.308656
0.308693
0.30873
0.308767
0.308767
0.308804
0.308841
0.308878
0.308915
0.308915
0.308952
0.308989
0.309026
0.309063
0.309063
0.309101
0.309138
0.309175
0.309212
0.309212
0.30925
0.309287
0.309325
0.309362
0.309362
0.3094
0.309437
0.309475
0.309512
0.309512
0.30955
0.309587
0.309625
0.309663
0.309663
0.309701
0.309738
0.309776
0.309814
0.309814
0.309852
0.30989
0.309928
0.309966
0.309966
0.310004
0.310042
0.31008
0.310118
0.310118
0.310156
0.310194
0.310232
0.31027
0.31027
0.310309
0.310347
0.310385
0.310424
0.310424
0.310462
0.3105
0.310539
0.310577
0.310577
0.310616
0.310654
0.310693
0.310732
0.310732
0.31077
0.310809
0.310848
0.310886
0.310886
0.310925
0.310964
0.311003
0.311041
0.311041
0.31108
0.311119
0.311158
0.311197
0.311197
0.311236
0.311275
0.311314
0.311353
0.311353
0.311393
0.311432
0.311471
0.31151
0.31151
0.311549
0.311589
0.311628
0.311667
0.311667
0.311707
0.311746
0.311786
0.311825
0.311825
0.311865
0.311904
0.311944
0.311983
0.311983
0.312023
0.312063
0.312102
0.312142
0.312142
0.312182
0.312222
0.312262
0.312302
0.312302
0.312341
0.312381
0.312421
0.312461
0.312461
0.312501
0.312541
0.312581
0.312622
0.312622
0.312662
0.312702
0.312742
0.312782
0.312782
0.312823
0.312863
0.312903
0.312944
0.312944
0.312984
0.313025
0.313065
0.313105
0.313105
0.313146
0.313187
0.313227
0.313268
0.313268
0.313308
0.313349
0.31339
0.313431
0.313431
0.313471
0.313512
0.313553
0.313594
0.313594
0.313635
0.313676
0.313717
0.313758
0.313758
0.313799
0.31384
0.313881
0.313922
0.313922
0.313963
0.314005
0.314046
0.314087
0.314087
0.314128
0.31417
0.314211
0.314252
0.314252
0.314294
0.314335
0.314377
0.314418
0.314418
0.31446
0.314501
0.314543
0.314585
0.314585
0.314626
0.314668
0.31471
0.314751
0.314751
0.314793
0.314835
0.314877
0.314919
0.314919
0.314961
0.315003
0.315045
0.315087
0.315087
0.315129
0.315171
0.315213
0.315255
0.315255
0.315297
0.315339
0.315382
0.315424
0.315424
0.315466
0.315509
0.315551
0.315593
0.315593
0.315636
0.315678
0.315721
0.315763
0.315763
0.315806
0.315848
0.315891
0.315934
0.315934
0.315976
0.316019
0.316062
0.316105
0.316105
0.316147
0.31619
0.316233
0.316276
0.316276
0.316319
0.316362
0.316405
0.316448
0.316448
0.316491
0.316534
0.316577
0.31662
0.31662
0.316664
0.316707
0.31675
0.316793
0.316793
0.316837
0.31688
0.316923
0.316967
0.316967
0.31701
0.317054
0.317097
0.317141
0.317141
0.317184
0.317228
0.317271
0.317315
0.317315
0.317359
0.317403
0.317446
0.31749
0.31749
0.317534
0.317578
0.317622
0.317666
0.317666
0.317709
0.317753
0.317797
0.317841
0.317841
0.317886
0.31793
0.317974
0.318018
0.318018
0.318062
0.318106
0.318151
0.318195
0.318195
0.318239
0.318284
0.318328
0.318372
0.318372
0.318417
0.318461
0.318506
0.31855
0.31855
0.318595
0.318639
0.318684
0.318729
0.318729
0.318773
0.318818
0.318863
0.318908
0.318908
0.318953
0.318997
0.319042
0.319087
0.319087
0.319132
0.319177
0.319222
0.319267
0.319267
0.319312
0.319357
0.319403
0.319448
0.319448
0.319493
0.319538
0.319583
0.319629
0.319629
0.319674
0.319719
0.319765
0.31981
0.31981
0.319856
0.319901
0.319947
0.319992
0.319992
0.320038
0.320083
0.320129
0.320175
0.320175
0.32022
0.320266
0.320312
0.320358
0.320358
0.320403
0.320449
0.320495
0.320541
0.320541
0.320587
0.320633
0.320679
0.320725
0.320725
0.320771
0.320817
0.320863
0.32091
0.32091
0.320956
0.321002
0.321048
0.321095
0.321095
0.321141
0.321187
0.321234
0.32128
0.32128
0.321327
0.321373
0.32142
0.321466
0.321466
0.321513
0.321559
0.321606
0.321653
0.321653
0.321699
0.321746
0.321793
0.32184
0.32184
0.321886
0.321933
0.32198
0.322027
0.322027
0.322074
0.322121
0.322168
0.322215
0.322215
0.322262
0.322309
0.322356
0.322404
0.322404
0.322451
0.322498
0.322545
0.322593
0.322593
0.32264
0.322687
0.322735
0.322782
0.322782
0.32283
0.322877
0.322925
0.322972
0.322972
0.32302
0.323067
0.323115
0.323163
0.323163
0.32321
0.323258
0.323306
0.323354
0.323354
0.323401
0.323449
0.323497
0.323545
0.323545
0.323593
0.323641
0.323689
0.323737
0.323737
0.323785
0.323833
0.323881
0.32393
0.32393
0.323978
0.324026
0.324074
0.324123
0.324123
0.324171
0.324219
0.324268
0.324316
0.324316
0.324365
0.324413
0.324462
0.32451
0.32451
0.324559
0.324607
0.324656
0.324705
0.324705
0.324753
0.324802
0.324851
0.3249
0.3249
0.324948
0.324997
0.325046
0.325095
0.325095
0.325144
0.325193
0.325242
0.325291
0.325291
0.32534
0.325389
0.325438
0.325488
0.325488
0.325537
0.325586
0.325635
0.325685
0.325685
0.325734
0.325783
0.325833
0.325882
0.325882
0.325931
0.325981
0.32603
0.32608
0.32608
0.32613
0.326179
0.326229
0.326278
0.326278
0.326328
0.326378
0.326428
0.326477
0.326477
0.326527
0.326577
0.326627
0.326677
0.326677
0.326727
0.326777
0.326827
0.326877
0.326877
0.326927
0.326977
0.327027
0.327077
0.327077
0.327128
0.327178
0.327228
0.327278
0.327278
0.327329
0.327379
0.327429
0.32748
0.32748
0.32753
0.327581
0.327631
0.327682
0.327682
0.327732
0.327783
0.327834
0.327884
0.327884
0.327935
0.327986
0.328036
0.328087
0.328087
0.328138
0.328189
0.32824
0.328291
0.328291
0.328342
0.328393
0.328444
0.328495
0.328495
0.328546
0.328597
0.328648
0.328699
0.328699
0.32875
0.328801
0.328853
0.328904
0.328904
0.328955
0.329007
0.329058
0.329109
0.329109
0.329161
0.329212
0.329264
0.329315
0.329315
0.329367
0.329418
0.32947
0.329522
0.329522
0.329573
0.329625
0.329677
0.329729
0.329729
0.329781
0.329832
0.329884
0.329936
0.329936
0.329988
0.33004
0.330092
0.330144
0.330144
0.330196
0.330248
0.3303
0.330352
0.330352
0.330405
0.330457
0.330509
0.330561
0.330561
0.330614
0.330666
0.330718
0.330771
0.330771
0.330823
0.330876
0.330928
0.330981
0.330981
0.331033
0.331086
0.331138
0.331191
0.331191
0.331244
0.331296
0.331349
0.331402
0.331402
0.331455
0.331508
0.33156
0.331613
0.331613
0.331666
0.331719
0.331772
0.331825
0.331825
0.331878
0.331931
0.331984
0.332038
0.332038
0.332091
0.332144
0.332197
0.33225
0.33225
0.332304
0.332357
0.33241
0.332464
0.332464
0.332517
0.332571
0.332624
0.332678
0.332678
0.332731
0.332785
0.332838
0.332892
0.332892
0.332946
0.332999
0.333053
0.333107
0.333107
0.333161
0.333214
0.333268
0.333322
0.333322
0.333376
0.33343
0.333484
0.333538
0.333538
0.333592
0.333646
0.3337
0.333754
0.333754
0.333808
0.333863
0.333917
0.333971
0.333971
0.334025
0.33408
0.334134
0.334188
0.334188
0.334243
0.334297
0.334352
0.334406
0.334406
0.334461
0.334515
0.33457
0.334624
0.334624
0.334679
0.334734
0.334788
0.334843
0.334843
0.334898
0.334953
0.335008
0.335062
0.335062
0.335117
0.335172
0.335227
0.335282
0.335282
0.335337
0.335392
0.335447
0.335502
0.335502
0.335558
0.335613
0.335668
0.335723
0.335723
0.335778
0.335834
0.335889
0.335944
0.335944
0.336
0.336055
0.336111
0.336166
0.336166
0.336222
0.336277
0.336333
0.336388
0.336388
0.336444
0.3365
0.336555
0.336611
0.336611
0.336667
0.336723
0.336778
0.336834
0.336834
0.33689
0.336946
0.337002
0.337058
0.337058
0.337114
0.33717
0.337226
0.337282
0.337282
0.337338
0.337394
0.337451
0.337507
0.337507
0.337563
0.337619
0.337676
0.337732
0.337732
0.337788
0.337845
0.337901
0.337958
0.337958
0.338014
0.338071
0.338127
0.338184
0.338184
0.33824
0.338297
0.338354
0.33841
0.33841
0.338467
0.338524
0.338581
0.338637
0.338637
0.338694
0.338751
0.338808
0.338865
0.338865
0.338922
0.338979
0.339036
0.339093
0.339093
0.33915
0.339207
0.339265
0.339322
0.339322
0.339379
0.339436
0.339493
0.339551
0.339551
0.339608
0.339666
0.339723
0.33978
0.33978
0.339838
0.339895
0.339953
0.34001
0.34001
0.340068
0.340126
0.340183
0.340241
0.340241
0.340299
0.340356
0.340414
0.340472
0.340472
0.34053
0.340588
0.340646
0.340703
0.340703
0.340761
0.340819
0.340877
0.340935
0.340935
0.340994
0.341052
0.34111
0.341168
0.341168
0.341226
0.341284
0.341343
0.341401
0.341401
0.341459
0.341518
0.341576
0.341634
0.341634
0.341693
0.341751
0.34181
0.341868
0.341868
0.341927
0.341986
0.342044
0.342103
0.342103
0.342161
0.34222
0.342279
0.342338
0.342338
0.342397
0.342455
0.342514
0.342573
0.342573
0.342632
0.342691
0.34275
0.342809
0.342809
0.342868
0.342927
0.342986
0.343045
0.343045
0.343105
0.343164
0.343223
0.343282
0.343282
0.343342
0.343401
0.34346
0.34352
0.34352
0.343579
0.343639
0.343698
0.343757
0.343757
0.343817
0.343877
0.343936
0.343996
0.343996
0.344055
0.344115
0.344175
0.344235
0.344235
0.344294
0.344354
0.344414
0.344474
0.344474
0.344534
0.344594
0.344654
0.344714
0.344714
0.344774
0.344834
0.344894
0.344954
0.344954
0.345014
0.345074
0.345135
0.345195
0.345195
0.345255
0.345315
0.345376
0.345436
0.345436
0.345496
0.345557
0.345617
0.345678
0.345678
0.345738
0.345799
0.345859
0.34592
0.34592
0.345981
0.346041
0.346102
0.346163
0.346163
0.346223
0.346284
0.346345
0.346406
0.346406
0.346467
0.346528
0.346589
0.346649
0.346649
0.34671
0.346771
0.346833
0.346894
0.346894
0.346955
0.347016
0.347077
0.347138
0.347138
0.347199
0.347261
0.347322
0.347383
0.347383
0.347445
0.347506
0.347568
0.347629
0.347629
0.34769
0.347752
0.347813
0.347875
0.347875
0.347937
0.347998
0.34806
0.348122
0.348122
0.348183
0.348245
0.348307
0.348369
0.348369
0.34843
0.348492
0.348554
0.348616
0.348616
0.348678
0.34874
0.348802
0.348864
0.348864
0.348926
0.348988
0.349051
0.349113
0.349113
0.349175
0.349237
0.349299
0.349362
0.349362
0.349424
0.349486
0.349549
0.349611
0.349611
0.349674
0.349736
0.349799
0.349861
0.349861
0.349924
0.349986
0.350049
0.350111
0.350111
0.350174
0.350237
0.3503
0.350362
0.350362
0.350425
0.350488
0.350551
0.350614
0.350614
0.350677
0.35074
0.350803
0.350866
0.350866
0.350929
0.350992
0.351055
0.351118
0.351118
0.351181
0.351244
0.351308
0.351371
0.351371
0.351434
0.351497
0.351561
0.351624
0.351624
0.351688
0.351751
0.351814
0.351878
0.351878
0.351941
0.352005
0.352069
0.352132
0.352132
0.352196
0.352259
0.352323
0.352387
0.352387
0.352451
0.352514
0.352578
0.352642
0.352642
0.352706
0.35277
0.352834
0.352898
0.352898
0.352962
0.353026
0.35309
0.353154
0.353154
0.353218
0.353282
0.353346
0.353411
0.353411
0.353475
0.353539
0.353604
0.353668
0.353668
0.353732
0.353797
0.353861
0.353925
0.353925
0.35399
0.354054
0.354119
0.354184
0.354184
0.354248
0.354313
0.354377
0.354442
0.354442
0.354507
0.354572
0.354636
0.354701
0.354701
0.354766
0.354831
0.354896
0.354961
0.354961
0.355026
0.355091
0.355156
0.355221
0.355221
0.355286
0.355351
0.355416
0.355481
0.355481
0.355546
0.355612
0.355677
0.355742
0.355742
0.355808
0.355873
0.355938
0.356004
0.356004
0.356069
0.356135
0.3562
0.356266
0.356266
0.356331
0.356397
0.356462
0.356528
0.356528
0.356594
0.356659
0.356725
0.356791
0.356791
0.356857
0.356923
0.356988
0.357054
0.357054
0.35712
0.357186
0.357252
0.357318
0.357318
0.357384
0.35745
0.357516
0.357582
0.357582
0.357649
0.357715
0.357781
0.357847
0.357847
0.357913
0.35798
0.358046
0.358112
0.358112
0.358179
0.358245
0.358312
0.358378
0.358378
0.358445
0.358511
0.358578
0.358644
0.358644
0.358711
0.358778
0.358844
0.358911
0.358911
0.358978
0.359045
0.359111
0.359178
0.359178
0.359245
0.359312
0.359379
0.359446
0.359446
0.359513
0.35958
0.359647
0.359714
0.359714
0.359781
0.359848
0.359915
0.359983
0.359983
0.36005
0.360117
0.360184
0.360252
0.360252
0.360319
0.360386
0.360454
0.360521
0.360521
0.360589
0.360656
0.360724
0.360791
0.360791
0.360859
0.360926
0.360994
0.361062
0.361062
0.361129
0.361197
0.361265
0.361333
0.361333
0.361401
0.361468
0.361536
0.361604
0.361604
0.361672
0.36174
0.361808
0.361876
0.361876
0.361944
0.362012
0.36208
0.362148
0.362148
0.362217
0.362285
0.362353
0.362421
0.362421
0.36249
0.362558
0.362626
0.362695
0.362695
0.362763
0.362831
0.3629
0.362968
0.362968
0.363037
0.363106
0.363174
0.363243
0.363243
0.363311
0.36338
0.363449
0.363517
0.363517
0.363586
0.363655
0.363724
0.363793
0.363793
0.363862
0.36393
0.363999
0.364068
0.364068
0.364137
0.364206
0.364275
0.364345
0.364345
0.364414
0.364483
0.364552
0.364621
0.364621
0.36469
0.36476
0.364829
0.364898
0.364898
0.364968
0.365037
0.365106
0.365176
0.365176
0.365245
0.365315
0.365384
0.365454
0.365454
0.365524
0.365593
0.365663
0.365732
0.365732
0.365802
0.365872
0.365942
0.366011
0.366011
0.366081
0.366151
0.366221
0.366291
0.366291
0.366361
0.366431
0.366501
0.366571
0.366571
0.366641
0.366711
0.366781
0.366851
0.366851
0.366921
0.366992
0.367062
0.367132
0.367132
0.367202
0.367273
0.367343
0.367413
0.367413
0.367484
0.367554
0.367625
0.367695
0.367695
0.367766
0.367836
0.367907
0.367978
0.367978
0.368048
0.368119
0.36819
0.36826
0.36826
0.368331
0.368402
0.368473
0.368544
0.368544
0.368614
0.368685
0.368756
0.368827
0.368827
0.368898
0.368969
0.36904
0.369111
0.369111
0.369182
0.369254
0.369325
0.369396
0.369396
0.369467
0.369538
0.36961
0.369681
0.369681
0.369752
0.369824
0.369895
0.369967
0.369967
0.370038
0.37011
0.370181
0.370253
0.370253
0.370324
0.370396
0.370467
0.370539
0.370539
0.370611
0.370683
0.370754
0.370826
0.370826
0.370898
0.37097
0.371042
0.371114
0.371114
0.371185
0.371257
0.371329
0.371401
0.371401
0.371473
0.371546
0.371618
0.37169
0.37169
0.371762
0.371834
0.371906
0.371979
0.371979
0.372051
0.372123
0.372196
0.372268
0.372268
0.37234
0.372413
0.372485
0.372558
0.372558
0.37263
0.372703
0.372775
0.372848
0.372848
0.372921
0.372993
0.373066
0.373139
0.373139
0.373211
0.373284
0.373357
0.37343
0.37343
0.373503
0.373576
0.373648
0.373721
0.373721
0.373794
0.373867
0.37394
0.374013
0.374013
0.374087
0.37416
0.374233
0.374306
0.374306
0.374379
0.374452
0.374526
0.374599
0.374599
0.374672
0.374746
0.374819
0.374893
0.374893
0.374966
0.375039
0.375113
0.375187
0.375187
0.37526
0.375334
0.375407
0.375481
0.375481
0.375555
0.375628
0.375702
0.375776
0.375776
0.37585
0.375923
0.375997
0.376071
0.376071
0.376145
0.376219
0.376293
0.376367
0.376367
0.376441
0.376515
0.376589
0.376663
0.376663
0.376737
0.376812
0.376886
0.37696
0.37696
0.377034
0.377108
0.377183
0.377257
0.377257
0.377331
0.377406
0.37748
0.377555
0.377555
0.377629
0.377704
0.377778
0.377853
0.377853
0.377928
0.378002
0.378077
0.378151
0.378151
0.378226
0.378301
0.378376
0.378451
0.378451
0.378525
0.3786
0.378675
0.37875
0.37875
0.378825
0.3789
0.378975
0.37905
0.37905
0.379125
0.3792
0.379275
0.37935
0.37935
0.379426
0.379501
0.379576
0.379651
0.379651
0.379727
0.379802
0.379877
0.379953
0.379953
0.380028
0.380104
0.380179
0.380254
0.380254
0.38033
0.380406
0.380481
0.380557
0.380557
0.380632
0.380708
0.380784
0.380859
0.380859
0.380935
0.381011
0.381087
0.381163
0.381163
0.381239
0.381314
0.38139
0.381466
0.381466
0.381542
0.381618
0.381694
0.38177
0.38177
0.381847
0.381923
0.381999
0.382075
0.382075
0.382151
0.382227
0.382304
0.38238
0.38238
0.382456
0.382533
0.382609
0.382686
0.382686
0.382762
0.382838
0.382915
0.382991
0.382991
0.383068
0.383145
0.383221
0.383298
0.383298
0.383375
0.383451
0.383528
0.383605
0.383605
0.383682
0.383758
0.383835
0.383912
0.383912
0.383989
0.384066
0.384143
0.38422
0.38422
0.384297
0.384374
0.384451
0.384528
0.384528
0.384605
0.384682
0.38476
0.384837
0.384837
0.384914
0.384991
0.385069
0.385146
0.385146
0.385223
0.385301
0.385378
0.385456
0.385456
0.385533
0.385611
0.385688
0.385766
0.385766
0.385843
0.385921
0.385998
0.386076
0.386076
0.386154
0.386232
0.386309
0.386387
0.386387
0.386465
0.386543
0.386621
0.386699
0.386699
0.386776
0.386854
0.386932
0.38701
0.38701
0.387088
0.387167
0.387245
0.387323
0.387323
0.387401
0.387479
0.387557
0.387636
0.387636
0.387714
0.387792
0.38787
0.387949
0.387949
0.388027
0.388106
0.388184
0.388263
0.388263
0.388341
0.38842
0.388498
0.388577
0.388577
0.388655
0.388734
0.388813
0.388891
0.388891
0.38897
0.389049
0.389128
0.389206
0.389206
0.389285
0.389364
0.389443
0.389522
0.389522
0.389601
0.38968
0.389759
0.389838
0.389838
0.389917
0.389996
0.390075
0.390154
0.390154
0.390234
0.390313
0.390392
0.390471
0.390471
0.390551
0.39063
0.390709
0.390789
0.390789
0.390868
0.390947
0.391027
0.391106
0.391106
0.391186
0.391266
0.391345
0.391425
0.391425
0.391504
0.391584
0.391664
0.391743
0.391743
0.391823
0.391903
0.391983
0.392063
0.392063
0.392142
0.392222
0.392302
0.392382
0.392382
0.392462
0.392542
0.392622
0.392702
0.392702
0.392782
0.392862
0.392943
0.393023
0.393023
0.393103
0.393183
0.393263
0.393344
0.393344
0.393424
0.393504
0.393585
0.393665
0.393665
0.393746
0.393826
0.393907
0.393987
0.393987
0.394068
0.394148
0.394229
0.394309
0.394309
0.39439
0.394471
0.394551
0.394632
0.394632
0.394713
0.394794
0.394874
0.394955
0.394955
0.395036
0.395117
0.395198
0.395279
0.395279
0.39536
0.395441
0.395522
0.395603
0.395603
0.395684
0.395765
0.395847
0.395928
0.395928
0.396009
0.39609
0.396171
0.396253
0.396253
0.396334
0.396415
0.396497
0.396578
0.396578
0.39666
0.396741
0.396823
0.396904
0.396904
0.396986
0.397067
0.397149
0.39723
0.39723
0.397312
0.397394
0.397476
0.397557
0.397557
0.397639
0.397721
0.397803
0.397885
0.397885
0.397966
0.398048
0.39813
0.398212
0.398212
0.398294
0.398376
0.398458
0.39854
0.39854
0.398623
0.398705
0.398787
0.398869
0.398869
0.398951
0.399034
0.399116
0.399198
0.399198
0.39928
0.399363
0.399445
0.399528
0.399528
0.39961
0.399693
0.399775
0.399858
0.399858
0.39994
0.400023
0.400105
0.400188
0.400188
0.400271
0.400353
0.400436
0.400519
0.400519
0.400602
0.400684
0.400767
0.40085
0.40085
0.400933
0.401016
0.401099
0.401182
0.401182
0.401265
0.401348
0.401431
0.401514
0.401514
0.401597
0.40168