<?xml version="1.0"?>
<VTKFile type="UnstructuredGrid" version="0.1" byte_order="LittleEndian">
<UnstructuredGrid>
<Piece NumberOfPoints="5000" NumberOfCells="4000">
<PointData Scalars="Reaction 0">
<DataArray type="Float32" Name="Reaction 0" format="ascii">
0.993519
0.993519
0.993519
0.993519
0.993519
0.993519
0.993519
0.993519
0.993519
0.993519
0.993519
0.993519
0.993519
0.993519
0.993519
0.993519
0.993519
0.993519
0.993518
0.993518
0.993518
0.993518
0.993518
0.993518
0.993518
0.993518
0.993518
0.993518
0.993518
0.993518
0.993518
0.993518
0.993518
0.993518
0.993518
0.993518
0.993518
0.993518
0.993518
0.993518
0.993518
0.993518
0.993518
0.993518
0.993518
0.993518
0.993518
0.993518
0.993518
0.993517
0.993517
0.993517
0.993517
0.993517
0.993517
0.993517
0.993517
0.993517
0.993517
0.993517
0.993517
0.993517
0.993517
0.993517
0.993517
0.993517
0.993517
0.993516
0.993516
0.993516
0.993516
0.993516
0.993516
0.993516
0.993516
0.993516
0.993516
0.993516
0.993516
0.993516
0.993516
0.993515
0.993515
0.993515
0.993515
0.993515
0.993515
0.993515
0.993515
0.993515
0.993515
0.993515
0.993515
0.993514
0.993514
0.993514
0.993514
0.993514
0.993514
0.993514
0.993514
0.993514
0.993514
0.993513
0.993513
0.993513
0.993513
0.993513
0.993513
0.993513
0.993513
0.993513
0.993513
0.993512
0.993512
0.993512
0.993512
0.993512
0.993512
0.993512
0.993512
0.993512
0.993511
0.993511
0.993511
0.993511
0.993511
0.993511
0.993511
0.99351
0.99351
0.99351
0.99351
0.99351
0.99351
0.99351
0.99351
0.99351
0.993509
0.993509
0.993509
0.993509
0.993509
0.993509
0.993508
0.993508
0.993508
0.993508
0.993508
0.993508
0.993508
0.993508
0.993507
0.993507
0.993507
0.993507
0.993507
0.993507
0.993506
0.993506
0.993506
0.993506
0.993506
0.993506
0.993505
0.993505
0.993505
0.993505
0.993505
0.993505
0.993505
0.993504
0.993504
0.993504
0.993504
0.993504
0.993504
0.993503
0.993503
0.993503
0.993503
0.993503
0.993503
0.993502
0.993502
0.993502
0.993502
0.993502
0.993501
0.993501
0.993501
0.993501
0.993501
0.993501
0.9935
0.9935
0.9935
0.9935
0.9935
0.993499
0.993499
0.993499
0.993499
0.993499
0.993498
0.993498
0.993498
0.993498
0.993498
0.993497
0.993497
0.993497
0.993497
0.993497
0.993496
0.993496
0.993496
0.993496
0.993496
0.993495
0.993495
0.993495
0.993495
0.993494
0.993494
0.993494
0.993494
0.993494
0.993493
0.993493
0.993493
0.993493
0.993493
0.993492
0.993492
0.993492
0.993492
0.993491
0.993491
0.993491
0.993491
0.993491
0.99349
0.99349
0.99349
0.99349
0.993489
0.993489
0.993489
0.993488
0.993488
0.993488
0.993488
0.993488
0.993487
0.993487
0.993487
0.993487
0.993486
0.993486
0.993486
0.993486
0.993485
0.993485
0.993485
0.993485
0.993484
0.993484
0.993484
0.993483
0.993483
0.993483
0.993483
0.993482
0.993482
0.993482
0.993482
0.993481
0.993481
0.993481
0.993481
0.99348
0.99348
0.99348
0.993479
0.993479
0.993479
0.993479
0.993478
0.993478
0.993478
0.993478
0.993477
0.993477
0.993477
0.993477
0.993476
0.993476
0.993475
0.993475
0.993475
0.993475
0.993474
0.993474
0.993474
0.993474
0.993473
0.993473
0.993473
0.993472
0.993472
0.993472
0.993471
0.993471
0.993471
0.993471
0.99347
0.99347
0.99347
0.993469
0.993469
0.993469
0.993468
0.993468
0.993468
0.993468
0.993467
0.993467
0.993466
0.993466
0.993466
0.993466
0.993465
0.993465
0.993464
0.993464
0.993464
0.993464
0.993463
0.993463
0.993463
0.993462
0.993462
0.993462
0.993461
0.993461
0.993461
0.99346
0.99346
0.993459
0.993459
0.993459
0.993459
0.993458
0.993458
0.993458
0.993457
0.993457
0.993456
0.993456
0.993456
0.993456
0.993455
0.993455
0.993454
0.993454
0.993454
0.993453
0.993453
0.993452
0.993452
0.993452
0.993452
0.993451
0.993451
0.993451
0.99345
0.99345
0.993449
0.993449
0.993449
0.993448
0.993448
0.993447
0.993447
0.993447
0.993446
0.993446
0.993446
0.993445
0.993445
0.993445
0.993444
0.993444
0.993443
0.993443
0.993443
0.993442
0.993442
0.993441
0.993441
0.993441
0.99344
0.99344
0.993439
0.993439
0.993439
0.993438
0.993438
0.993437
0.993437
0.993437
0.993436
0.993436
0.993435
0.993435
0.993435
0.993434
0.993434
0.993433
0.993433
0.993433
0.993432
0.993432
0.993431
0.993431
0.993431
0.99343
0.99343
0.993429
0.993429
0.993429
0.993428
0.993428
0.993427
0.993427
0.993427
0.993426
0.993426
0.993425
0.993425
0.993424
0.993424
0.993423
0.993423
0.993423
0.993422
0.993422
0.993421
0.993421
0.993421
0.99342
0.99342
0.993419
0.993419
0.993419
0.993418
0.993417
0.993417
0.993416
0.993416
0.993416
0.993415
0.993415
0.993414
0.993414
0.993414
0.993413
0.993412
0.993412
0.993412
0.993411
0.993411
0.99341
0.99341
0.99341
0.993409
0.993408
0.993408
0.993407
0.993407
0.993407
0.993406
0.993405
0.993405
0.993405
0.993404
0.993404
0.993403
0.993403
0.993403
0.993402
0.993401
0.993401
0.9934
0.9934
0.9934
0.993399
0.993398
0.993398
0.993398
0.993397
0.993397
0.993396
0.993395
0.993395
0.993395
0.993394
0.993393
0.993393
0.993393
0.993392
0.993392
0.993391
0.99339
0.99339
0.99339
0.993389
0.993388
0.993388
0.993388
0.993387
0.993387
0.993386
0.993385
0.993385
0.993385
0.993384
0.993383
0.993383
0.993383
0.993382
0.993382
0.993381
0.99338
0.99338
0.99338
0.993379
0.993378
0.993378
0.993378
0.993377
0.993376
0.993376
0.993375
0.993375
0.993374
0.993374
0.993373
0.993372
0.993372
0.993372
0.993371
0.99337
0.99337
0.99337
0.993369
0.993368
0.993368
0.993367
0.993367
0.993366
0.993366
0.993365
0.993364
0.993364
0.993364
0.993363
0.993362
0.993362
0.993362
0.993361
0.99336
0.993359
0.993359
0.993359
0.993358
0.993357
0.993357
0.993356
0.993356
0.993355
0.993355
0.993354
0.993353
0.993353
0.993352
0.993352
0.993351
0.99335
0.99335
0.99335
0.993349
0.993348
0.993347
0.993347
0.993347
0.993346
0.993345
0.993345
0.993345
0.993344
0.993343
0.993342
0.993342
0.993342
0.993341
0.99334
0.993339
0.993339
0.993339
0.993338
0.993337
0.993336
0.993336
0.993336
0.993335
0.993334
0.993333
0.993333
0.993333
0.993332
0.993331
0.99333
0.99333
0.99333
0.993329
0.993328
0.993327
0.993327
0.993327
0.993326
0.993325
0.993324
0.993324
0.993324
0.993323
0.993322
0.993321
0.993321
0.993321
0.99332
0.993319
0.993318
0.993317
0.993317
0.993317
0.993316
0.993315
0.993314
0.993314
0.993314
0.993313
0.993312
0.993311
0.993311
0.99331
0.99331
0.993309
0.993308
0.993308
0.993307
0.993306
0.993306
0.993305
0.993305
0.993304
0.993303
0.993302
0.993302
0.993302
0.993301
0.9933
0.993299
0.993298
0.993298
0.993297
0.993297
0.993296
0.993295
0.993295
0.993294
0.993293
0.993293
0.993292
0.993292
0.993291
0.99329
0.993289
0.993288
0.993288
0.993288
0.993287
0.993286
0.993285
0.993285
0.993284
0.993283
0.993283
0.993282
0.993282
0.993281
0.99328
0.993279
0.993278
0.993278
0.993277
0.993277
0.993276
0.993275
0.993275
0.993274
0.993273
0.993272
0.993271
0.993271
0.993271
0.99327
0.993269
0.993268
0.993268
0.993267
0.993266
0.993265
0.993264
0.993264
0.993264
0.993263
0.993262
0.993261
0.993261
0.99326
0.993259
0.993258
0.993257
0.993257
0.993256
0.993256
0.993255
0.993254
0.993254
0.993253
0.993252
0.993251
0.99325
0.99325
0.993249
0.993248
0.993248
0.993247
0.993247
0.993246
0.993245
0.993244
0.993243
0.993243
0.993242
0.993241
0.99324
0.993239
0.993239
0.993238
0.993237
0.993237
0.993236
0.993236
0.993235
0.993234
0.993233
0.993232
0.993232
0.993231
0.99323
0.993229
0.993228
0.993228
0.993227
0.993226
0.993225
0.993224
0.993224
0.993223
0.993223
0.993222
0.993221
0.993221
0.99322
0.993219
0.993218
0.993217
0.993217
0.993216
0.993215
0.993214
0.993213
0.993213
0.993212
0.993211
0.99321
0.993209
0.993209
0.993208
0.993207
0.993206
0.993205
0.993205
0.993204
0.993203
0.993202
0.993201
0.993201
0.9932
0.993199
0.993198
0.993197
0.993197
0.993196
0.993195
0.993194
0.993193
0.993193
0.993192
0.993191
0.99319
0.993189
0.993189
0.993188
0.993187
0.993186
0.993185
0.993185
0.993184
0.993183
0.993182
0.993181
0.993181
0.99318
0.993179
0.993178
0.993177
0.993177
0.993176
0.993175
0.993174
0.993173
0.993173
0.993172
0.993171
0.99317
0.993169
0.993169
0.993168
0.993167
0.993166
0.993165
0.993165
0.993164
0.993163
0.993162
0.993161
0.993161
0.99316
0.993159
0.993158
0.993157
0.993157
0.993156
0.993155
0.993154
0.993153
0.993153
0.993152
0.993151
0.993149
0.993148
0.993148
0.993147
0.993146
0.993145
0.993144
0.993144
0.993143
0.993142
0.993141
0.99314
0.99314
0.993139
0.993138
0.993137
0.993136
0.993136
0.993135
0.993133
0.993132
0.993131
0.993131
0.99313
0.993129
0.993128
0.993127
0.993127
0.993126
0.993125
0.993124
0.993123
0.993123
0.993121
0.99312
0.993119
0.993118
0.993118
0.993117
0.993116
0.993115
0.993114
0.993114
0.993113
0.993112
0.99311
0.993109
0.993109
0.993108
0.993107
0.993106
0.993105
0.993105
0.993104
0.993103
0.993102
0.9931
0.9931
0.993099
0.993098
0.993097
0.993096
0.993096
0.993095
0.993094
0.993093
0.993091
0.993091
0.99309
0.993089
0.993088
0.993087
0.993087
0.993086
0.993085
0.993083
0.993082
0.993082
0.993081
0.99308
0.993079
0.993078
0.993078
0.993076
0.993075
0.993074
0.993073
0.993073
0.993072
0.993071
0.99307
0.993068
0.993068
0.993067
0.993066
0.993065
0.993064
0.993064
0.993063
0.993061
0.99306
0.993059
0.993059
0.993058
0.993057
0.993055
0.993054
0.993054
0.993053
0.993052
0.993051
0.99305
0.99305
0.993048
0.993047
0.993046
0.993045
0.993045
0.993044
0.993042
0.993041
0.99304
0.99304
0.993039
0.993038
0.993036
0.993035
0.993035
0.993034
0.993033
0.993031
0.99303
0.99303
0.993029
0.993028
0.993027
0.993025
0.993025
0.993024
0.993023
0.993022
0.993021
0.993021
0.993019
0.993018
0.993017
0.993016
0.993016
0.993014
0.993013
0.993012
0.993011
0.993011
0.993009
0.993008
0.993007
0.993006
0.993006
0.993004
0.993003
0.993002
0.993001
0.993001
0.992999
0.992998
0.992997
0.992996
0.992996
0.992994
0.992993
0.992992
0.992991
0.992991
0.992989
0.992988
0.992987
0.992986
0.992986
0.992984
0.992983
0.992982
0.992981
0.992981
0.992979
0.992978
0.992977
0.992975
0.992975
0.992974
0.992973
0.992972
0.99297
0.99297
0.992969
0.992968
0.992966
0.992965
0.992965
0.992964
0.992963
0.992961
0.99296
0.99296
0.992959
0.992957
0.992956
0.992955
0.992955
0.992953
0.992952
0.992951
0.992949
0.992949
0.992948
0.992947
0.992946
0.992944
0.992944
0.992943
0.992942
0.99294
0.992939
0.992939
0.992938
0.992936
0.992935
0.992934
0.992934
0.992932
0.992931
0.99293
0.992928
0.992928
0.992927
0.992926
0.992924
0.992923
0.992923
0.992922
0.99292
0.992919
0.992918
0.992918
0.992916
0.992915
0.992913
0.992912
0.992912
0.992911
0.992909
0.992908
0.992907
0.992907
0.992905
0.992904
0.992903
0.992901
0.992901
0.9929
0.992898
0.992897
0.992896
0.992896
0.992894
0.992893
0.992892
0.99289
0.99289
0.992889
0.992887
0.992886
0.992885
0.992885
0.992883
0.992882
0.99288
0.992879
0.992879
0.992878
0.992876
0.992875
0.992873
0.992873
0.992872
0.992871
0.992869
0.992868
0.992868
0.992866
0.992865
0.992863
0.992862
0.992862
0.992861
0.992859
0.992858
0.992856
0.992856
0.992855
0.992853
0.992852
0.992851
0.992851
0.992849
0.992848
0.992846
0.992845
0.992845
0.992844
0.992842
0.992841
0.992839
0.992839
0.992838
0.992836
0.992835
0.992833
0.992833
0.992832
0.992831
0.992829
0.992828
0.992828
0.992826
0.992825
0.992823
0.992822
0.992822
0.99282
0.992819
0.992818
0.992816
0.992816
0.992815
0.992813
0.992812
0.99281
0.99281
0.992809
0.992807
0.992806
0.992804
0.992804
0.992803
0.992801
0.9928
0.992798
0.992798
0.992797
0.992795
0.992794
0.992792
0.992792
0.992791
0.992789
0.992788
0.992786
0.992786
0.992785
0.992783
0.992782
0.99278
0.99278
0.992779
0.992777
0.992776
0.992774
0.992774
0.992773
0.992771
0.99277
0.992768
0.992768
0.992767
0.992765
0.992764
0.992762
0.992762
0.992761
0.992759
0.992758
0.992756
0.992756
0.992755
0.992753
0.992751
0.99275
0.99275
0.992748
0.992747
0.992745
0.992744
0.992744
0.992742
0.992741
0.992739
0.992738
0.992738
0.992736
0.992734
0.992733
0.992731
0.992731
0.99273
0.992728
0.992727
0.992725
0.992725
0.992724
0.992722
0.99272
0.992719
0.992719
0.992717
0.992716
0.992714
0.992713
0.992713
0.992711
0.992709
0.992708
0.992706
0.992706
0.992705
0.992703
0.992701
0.9927
0.9927
0.992698
0.992697
0.992695
0.992693
0.992693
0.992692
0.99269
0.992689
0.992687
0.992687
0.992685
0.992684
0.992682
0.992681
0.992681
0.992679
0.992677
0.992676
0.992674
0.992674
0.992673
0.992671
0.992669
0.992668
0.992668
0.992666
0.992665
0.992663
0.992661
0.992661
0.99266
0.992658
0.992656
0.992655
0.992655
0.992653
0.992651
0.99265
0.992648
0.992648
0.992647
0.992645
0.992643
0.992642
0.992642
0.99264
0.992638
0.992637
0.992635
0.992635
0.992633
0.992632
0.99263
0.992628
0.992628
0.992627
0.992625
0.992623
0.992622
0.992622
0.99262
0.992618
0.992617
0.992615
0.992615
0.992613
0.992612
0.99261
0.992608
0.992608
0.992607
0.992605
0.992603
0.992602
0.992602
0.9926
0.992598
0.992597
0.992595
0.992595
0.992593
0.992592
0.99259
0.992588
0.992588
0.992587
0.992585
0.992583
0.992581
0.992581
0.99258
0.992578
0.992576
0.992575
0.992575
0.992573
0.992571
0.99257
0.992568
0.992568
0.992566
0.992564
0.992563
0.992561
0.992561
0.992559
0.992558
0.992556
0.992554
0.992554
0.992552
0.992551
0.992549
0.992547
0.992547
0.992545
0.992544
0.992542
0.99254
0.99254
0.992539
0.992537
0.992535
0.992533
0.992533
0.992532
0.99253
0.992528
0.992526
0.992526
0.992525
0.992523
0.992521
0.992519
0.992519
0.992518
0.992516
0.992514
0.992512
0.992512
0.992511
0.992509
0.992507
0.992505
0.992505
0.992504
0.992502
0.9925
0.992498
0.992498
0.992496
0.992495
0.992493
0.992491
0.992491
0.992489
0.992488
0.992486
0.992484
0.992484
0.992482
0.99248
0.992479
0.992477
0.992477
0.992475
0.992473
0.992471
0.99247
0.99247
0.992468
0.992466
0.992464
0.992462
0.992462
0.992461
0.992459
0.992457
0.992455
0.992455
0.992453
0.992452
0.99245
0.992448
0.992448
0.992446
0.992444
0.992443
0.992441
0.992441
0.992439
0.992437
0.992435
0.992433
0.992433
0.992432
0.99243
0.992428
0.992426
0.992426
0.992424
0.992422
0.992421
0.992419
0.992419
0.992417
0.992415
0.992413
0.992411
0.992411
0.99241
0.992408
0.992406
0.992404
0.992404
0.992402
0.9924
0.992398
0.992397
0.992397
0.992395
0.992393
0.992391
0.992389
0.992389
0.992387
0.992385
0.992384
0.992382
0.992382
0.99238
0.992378
0.992376
0.992374
0.992374
0.992372
0.99237
0.992369
0.992367
0.992367
0.992365
0.992363
0.992361
0.992359
0.992359
0.992357
0.992355
0.992354
0.992352
0.992352
0.99235
0.992348
0.992346
0.992344
0.992344
0.992342
0.99234
0.992338
0.992336
0.992336
0.992335
0.992333
0.992331
0.992329
0.992329
0.992327
0.992325
0.992323
0.992321
0.992321
0.992319
0.992317
0.992315
0.992313
0.992313
0.992312
0.99231
0.992308
0.992306
0.992306
0.992304
0.992302
0.9923
0.992298
0.992298
0.992296
0.992294
0.992292
0.99229
0.99229
0.992288
0.992286
0.992284
0.992282
0.992282
0.992281
0.992279
0.992277
0.992275
0.992275
0.992273
0.992271
0.992269
0.992267
0.992267
0.992265
0.992263
0.992261
0.992259
0.992259
0.992257
0.992255
0.992253
0.992251
0.992251
0.992249
0.992247
0.992245
0.992243
0.992243
0.992241
0.992239
0.992237
0.992235
0.992235
0.992233
0.992231
0.992229
0.992227
0.992227
0.992225
0.992223
0.992221
0.992219
0.992219
0.992217
0.992215
0.992213
0.992211
0.992211
0.992209
0.992207
0.992205
0.992203
0.992203
0.992201
0.992199
0.992197
0.992195
0.992195
0.992193
0.992191
0.992189
0.992187
0.992187
0.992185
0.992183
0.992181
0.992179
0.992179
0.992177
0.992175
0.992173
0.992171
0.992171
0.992169
0.992167
0.992165
0.992163
0.992163
0.992161
0.992159
0.992157
0.992155
0.992155
0.992153
0.992151
0.992149
0.992147
0.992147
0.992144
0.992142
0.99214
0.992138
0.992138
0.992136
0.992134
0.992132
0.99213
0.99213
0.992128
0.992126
0.992124
0.992122
0.992122
0.99212
0.992118
0.992116
0.992113
0.992113
0.992111
0.992109
0.992107
0.992105
0.992105
0.992103
0.992101
0.992099
0.992097
0.992097
0.992095
0.992093
0.992091
0.992088
0.992088
0.992086
0.992084
0.992082
0.99208
0.99208
0.992078
0.992076
0.992074
0.992072
0.992072
0.99207
0.992067
0.992065
0.992063
0.992063
0.992061
0.992059
0.992057
0.992055
0.992055
0.992053
0.992051
0.992048
0.992046
0.992046
0.992044
0.992042
0.99204
0.992038
0.992038
0.992036
0.992034
0.992031
0.992029
0.992029
0.992027
0.992025
0.992023
0.992021
0.992021
0.992019
0.992016
0.992014
0.992012
0.992012
0.99201
0.992008
0.992006
0.992003
0.992003
0.992001
0.991999
0.991997
0.991995
0.991995
0.991993
0.991991
0.991988
0.991986
0.991986
0.991984
0.991982
0.99198
0.991977
0.991977
0.991975
0.991973
0.991971
0.991969
0.991969
0.991967
0.991964
0.991962
0.99196
0.99196
0.991958
0.991956
0.991953
0.991951
0.991951
0.991949
0.991947
0.991945
0.991942
0.991942
0.99194
0.991938
0.991936
0.991934
0.991934
0.991931
0.991929
0.991927
0.991925
0.991925
0.991922
0.99192
0.991918
0.991916
0.991916
0.991914
0.991911
0.991909
0.991907
0.991907
0.991905
0.991902
0.9919
0.991898
0.991898
0.991896
0.991893
0.991891
0.991889
0.991889
0.991887
0.991884
0.991882
0.99188
0.99188
0.991877
0.991875
0.991873
0.991871
0.991871
0.991868
0.991866
0.991864
0.991862
0.991862
0.991859
0.991857
0.991855
0.991853
0.991853
0.99185
0.991848
0.991846
0.991844
0.991844
0.991841
0.991839
0.991837
0.991835
0.991835
0.991832
0.99183
0.991828
0.991825
0.991825
0.991823
0.991821
0.991819
0.991816
0.991816
0.991814
0.991812
0.991809
0.991807
0.991807
0.991805
0.991802
0.9918
0.991798
0.991798
0.991796
0.991793
0.991791
0.991789
0.991789
0.991786
0.991784
0.991782
0.991779
0.991779
0.991777
0.991775
0.991772
0.99177
0.99177
0.991768
0.991765
0.991763
0.991761
0.991761
0.991758
0.991756
0.991754
0.991751
0.991751
0.991749
0.991747
0.991744
0.991742
0.991742
0.991739
0.991737
0.991735
0.991732
0.991732
0.99173
0.991728
0.991725
0.991723
0.991723
0.991721
0.991718
0.991716
0.991713
0.991713
0.991711
0.991709
0.991706
0.991704
0.991704
0.991702
0.991699
0.991697
0.991694
0.991694
0.991692
0.99169
0.991687
0.991685
0.991685
0.991682
0.99168
0.991678
0.991675
0.991675
0.991673
0.99167
0.991668
0.991666
0.991666
0.991663
0.991661
0.991658
0.991656
0.991656
0.991654
0.991651
0.991649
0.991646
0.991646
0.991644
0.991642
0.991639
0.991637
0.991637
0.991634
0.991632
0.991629
0.991627
0.991627
0.991625
0.991622
0.99162
0.991617
0.991617
0.991615
0.991612
0.99161
0.991607
0.991607
0.991605
0.991603
0.9916
0.991598
0.991598
0.991595
0.991593
0.99159
0.991588
0.991588
0.991585
0.991583
0.99158
0.991578
0.991578
0.991576
0.991573
0.991571
0.991568
0.991568
0.991566
0.991563
0.991561
0.991558
0.991558
0.991556
0.991553
0.991551
0.991548
0.991548
0.991546
0.991543
0.991541
0.991538
0.991538
0.991536
0.991533
0.991531
0.991528
0.991528
0.991526
0.991523
0.991521
0.991518
0.991518
0.991516
0.991513
0.991511
0.991508
0.991508
0.991506
0.991503
0.991501
0.991498
0.991498
0.991496
0.991493
0.991491
0.991488
0.991488
0.991486
0.991483
0.991481
0.991478
0.991478
0.991476
0.991473
0.991471
0.991468
0.991468
0.991466
0.991463
0.991461
0.991458
0.991458
0.991456
0.991453
0.99145
0.991448
0.991448
0.991445
0.991443
0.99144
0.991438
0.991438
0.991435
0.991433
0.99143
0.991428
0.991428
0.991425
0.991422
0.99142
0.991417
0.991417
0.991415
0.991412
0.99141
0.991407
0.991407
0.991405
0.991402
0.991399
0.991397
0.991397
0.991394
0.991392
0.991389
0.991386
0.991386
0.991384
0.991381
0.991379
0.991376
0.991376
0.991374
0.991371
0.991368
0.991366
0.991366
0.991363
0.991361
0.991358
0.991355
0.991355
0.991353
0.99135
0.991348
0.991345
0.991345
0.991342
0.99134
0.991337
0.991335
0.991335
0.991332
0.991329
0.991327
0.991324
0.991324
0.991322
0.991319
0.991316
0.991314
0.991314
0.991311
0.991308
0.991306
0.991303
0.991303
0.991301
0.991298
0.991295
0.991293
0.991293
0.99129
0.991287
0.991285
0.991282
0.991282
0.991279
0.991277
0.991274
0.991272
0.991272
0.991269
0.991266
0.991264
0.991261
0.991261
0.991258
0.991256
0.991253
0.99125
0.99125
0.991248
0.991245
0.991242
0.99124
0.99124
0.991237
0.991234
0.991232
0.991229
0.991229
0.991226
0.991224
0.991221
0.991218
0.991218
0.991216
0.991213
0.99121
0.991208
0.991208
0.991205
0.991202
0.9912
0.991197
0.991197
0.991194
0.991191
0.991189
0.991186
0.991186
0.991183
0.991181
0.991178
0.991175
0.991175
0.991173
0.99117
0.991167
0.991165
0.991165
0.991162
0.991159
0.991156
0.991154
0.991154
0.991151
0.991148
0.991146
0.991143
0.991143
0.99114
0.991137
0.991135
0.991132
0.991132
0.991129
0.991126
0.991124
0.991121
0.991121
0.991118
0.991116
0.991113
0.99111
0.99111
0.991107
0.991105
0.991102
0.991099
0.991099
0.991096
0.991094
0.991091
0.991088
0.991088
0.991085
0.991083
0.99108
0.991077
0.991077
0.991074
0.991072
0.991069
0.991066
0.991066
0.991063
0.991061
0.991058
0.991055
0.991055
0.991052
0.991049
0.991047
0.991044
0.991044
0.991041
0.991038
0.991036
0.991033
0.991033
0.99103
0.991027
0.991024
0.991022
0.991022
0.991019
0.991016
0.991013
0.99101
0.99101
0.991008
0.991005
0.991002
0.990999
0.990999
0.990996
0.990994
0.990991
0.990988
0.990988
0.990985
0.990982
0.99098
0.990977
0.990977
0.990974
0.990971
0.990968
0.990965
0.990965
0.990963
0.99096
0.990957
0.990954
0.990954
0.990951
0.990948
0.990945
0.990943
0.990943
0.99094
0.990937
0.990934
0.990931
0.990931
0.990928
0.990925
0.990923
0.99092
0.99092
0.990917
0.990914
0.990911
0.990908
0.990908
0.990905
0.990902
0.9909
0.990897
0.990897
0.990894
0.990891
0.990888
0.990885
0.990885
0.990882
0.990879
0.990876
0.990874
0.990874
0.990871
0.990868
0.990865
0.990862
0.990862
0.990859
0.990856
0.990854
0.990851
0.990851
0.990848
0.990845
0.990842
0.990839
0.990839
0.990836
0.990833
0.99083
0.990828
0.990828
0.990825
0.990822
0.990819
0.990816
0.990816
0.990813
0.99081
0.990807
0.990804
0.990804
0.990801
0.990798
0.990796
0.990793
0.990793
0.99079
0.990787
0.990784
0.990781
0.990781
0.990778
0.990775
0.990772
0.990769
0.990769
0.990766
0.990763
0.99076
0.990757
0.990757
0.990754
0.990751
0.990748
0.990746
0.990746
0.990743
0.99074
0.990737
0.990734
0.990734
0.990731
0.990728
0.990725
0.990722
0.990722
0.990719
0.990716
0.990713
0.99071
0.99071
0.990707
0.990704
0.990701
0.990698
0.990698
0.990695
0.990692
0.990689
0.990686
0.990686
0.990683
0.99068
0.990677
0.990674
0.990674
0.990671
0.990668
0.990665
0.990662
0.990662
0.990659
0.990656
0.990653
0.99065
0.99065
0.990647
0.990644
0.990641
0.990638
0.990638
0.990635
0.990632
0.990629
0.990626
0.990626
0.990623
0.99062
0.990617
0.990614
0.990614
0.990611
0.990608
0.990604
0.990601
0.990601
0.990598
0.990595
0.990592
0.990589
0.990589
0.990586
0.990583
0.99058
0.990577
0.990577
0.990574
0.990571
0.990568
0.990565
0.990565
0.990562
0.990559
0.990556
0.990553
0.990553
0.99055
0.990546
0.990543
0.99054
0.99054
0.990537
0.990534
0.990531
0.990528
0.990528
0.990525
0.990522
0.990519
0.990516
0.990516
0.990513
0.99051
0.990506
0.990503
0.990503
0.9905
0.990497
0.990494
0.990491
0.990491
0.990488
0.990485
0.990482
0.990479
0.990479
0.990476
0.990472
0.990469
0.990466
0.990466
0.990463
0.99046
0.990457
0.990454
0.990454
0.990451
0.990448
0.990444
0.990441
0.990441
0.990438
0.990435
0.990432
0.990429
0.990429
0.990426
0.990423
0.990419
0.990416
0.990416
0.990413
0.99041
0.990407
0.990404
0.990404
0.990401
0.990397
0.990394
0.990391
0.990391
0.990388
0.990385
0.990382
0.990379
0.990379
0.990375
0.990372
0.990369
0.990366
0.990366
0.990363
0.99036
0.990356
0.990353
0.990353
0.99035
0.990347
0.990344
0.990341
0.990341
0.990337
0.990334
0.990331
0.990328
0.990328
0.990325
0.990322
0.990318
0.990315
0.990315
0.990312
0.990309
0.990306
0.990302
0.990302
0.990299
0.990296
0.990293
0.99029
0.99029
0.990287
0.990283
0.99028
0.990277
0.990277
0.990274
0.990271
0.990267
0.990264
0.990264
0.990261
0.990258
0.990254
0.990251
0.990251
0.990248
0.990245
0.990242
0.990238
0.990238
0.990235
0.990232
0.990229
0.990225
0.990225
0.990222
0.990219
0.990216
0.990213
0.990213
0.990209
0.990206
0.990203
0.9902
0.9902
0.990196
0.990193
0.99019
0.990187
0.990187
0.990183
0.99018
0.990177
0.990174
0.990174
0.99017
0.990167
0.990164
0.990161
0.990161
0.990157
0.990154
0.990151
0.990148
0.990148
0.990144
0.990141
0.990138
0.990135
0.990135
0.990131
0.990128
0.990125
0.990121
0.990121
0.990118
0.990115
0.990112
0.990108
0.990108
0.990105
0.990102
0.990098
0.990095
0.990095
0.990092
0.990089
0.990085
0.990082
0.990082
0.990079
0.990075
0.990072
0.990069
0.990069
0.990066
0.990062
0.990059
0.990056
0.990056
0.990052
0.990049
0.990046
0.990042
0.990042
0.990039
0.990036
0.990032
0.990029
0.990029
0.990026
0.990022
0.990019
0.990016
0.990016
0.990012
0.990009
0.990006
0.990002
0.990002
0.989999
0.989996
0.989992
0.989989
0.989989
0.989986
0.989982
0.989979
0.989975
0.989975
0.989972
0.989969
0.989965
0.989962
0.989962
0.989959
0.989955
0.989952
0.989948
0.989948
0.989945
0.989942
0.989938
0.989935
0.989935
0.989931
0.989928
0.989925
0.989921
0.989921
0.989918
0.989914
0.989911
0.989908
0.989908
0.989904
0.989901
0.989897
0.989894
0.989894
0.989891
0.989887
0.989884
0.98988
0.98988
0.989877
0.989874
0.98987
0.989867
0.989867
0.989863
0.98986
0.989857
0.989853
0.989853
0.98985
0.989846
0.989843
0.98984
0.98984
0.989836
0.989833
0.989829
0.989826
0.989826
0.989823
0.989819
0.989816
0.989812
0.989812
0.989809
0.989805
0.989802
0.989799
0.989799
0.989795
0.989792
0.989788
0.989785
0.989785
0.989781
0.989778
0.989774
0.989771
0.989771
0.989768
0.989764
0.989761
0.989757
0.989757
0.989754
0.98975
0.989747
0.989743
0.989743
0.98974
0.989736
0.989733
0.989729
0.989729
0.989726
0.989722
0.989719
0.989715
0.989715
0.989712
0.989708
0.989705
0.989701
0.989701
0.989698
0.989694
0.989691
0.989687
0.989687
0.989684
0.98968
0.989677
0.989673
0.989673
0.98967
0.989666
0.989663
0.989659
0.989659
0.989656
0.989652
0.989649
0.989645
0.989645
0.989642
0.989638
0.989635
0.989631
0.989631
0.989628
0.989624
0.98962
0.989617
0.989617
0.989613
0.98961
0.989606
0.989603
0.989603
0.989599
0.989596
0.989592
0.989589
0.989589
0.989585
0.989581
0.989578
0.989574
0.989574
0.989571
0.989567
0.989564
0.98956
0.98956
0.989557
0.989553
0.989549
0.989546
0.989546
0.989542
0.989539
0.989535
0.989531
0.989531
0.989528
0.989524
0.989521
0.989517
0.989517
0.989514
0.98951
0.989506
0.989503
0.989503
0.989499
0.989496
0.989492
0.989488
0.989488
0.989485
0.989481
0.989478
0.989474
0.989474
0.98947
0.989467
0.989463
0.98946
0.98946
0.989456
0.989452
0.989449
0.989445
0.989445
0.989442
0.989438
0.989434
0.989431
0.989431
0.989427
0.989423
0.98942
0.989416
0.989416
0.989413
0.989409
0.989405
0.989402
0.989402
0.989398
0.989394
0.989391
0.989387
0.989387
0.989383
0.98938
0.989376
0.989373
0.989373
0.989369
0.989365
0.989362
0.989358
0.989358
0.989354
0.989351
0.989347
0.989343
0.989343
0.98934
0.989336
0.989332
0.989329
0.989329
0.989325
0.989321
0.989318
0.989314
0.989314
0.98931
0.989307
0.989303
0.989299
0.989299
0.989296
0.989292
0.989288
0.989285
0.989285
0.989281
0.989277
0.989274
0.98927
0.98927
0.989266
0.989262
0.989259
0.989255
0.989255
0.989251
0.989248
0.989244
0.98924
0.98924
0.989237
0.989233
0.989229
0.989225
0.989225
0.989222
0.989218
0.989214
0.989211
0.989211
0.989207
0.989203
0.989199
0.989196
0.989196
0.989192
0.989188
0.989185
0.989181
0.989181
0.989177
0.989173
0.98917
0.989166
0.989166
0.989162
0.989158
0.989155
0.989151
0.989151
0.989147
0.989143
0.98914
0.989136
0.989136
0.989132
0.989128
0.989125
0.989121
0.989121
0.989117
0.989113
0.98911
0.989106
0.989106
0.989102
0.989098
0.989095
0.989091
0.989091
0.989087
0.989083
0.989079
0.989076
0.989076
0.989072
0.989068
0.989064
0.989061
0.989061
0.989057
0.989053
0.989049
0.989045
0.989045
0.989042
0.989038
0.989034
0.98903
0.98903
0.989026
0.989022
0.989019
0.989015
0.989015
0.989011
0.989007
0.989003
0.989
0.989
0.988996
0.988992
0.988988
0.988984
0.988984
0.98898
0.988976
0.988973
0.988969
0.988969
0.988965
0.988961
0.988957
0.988953
0.988953
0.988949
0.988946
0.988942
0.988938
0.988938
0.988934
0.98893
0.988926
0.988922
0.988922
0.988919
0.988915
0.988911
0.988907
0.988907
0.988903
0.988899
0.988895
0.988892
0.988892
0.988888
0.988884
0.98888
0.988876
0.988876
0.988872
0.988868
0.988865
0.988861
0.988861
0.988857
0.988853
0.988849
0.988845
0.988845
0.988841
0.988838
0.988834
0.98883
0.98883
0.988826
0.988822
0.988818
0.988814
0.988814
0.98881
0.988807
0.988803
0.988799
0.988799
0.988795
0.988791
0.988787
0.988783
0.988783
0.988779
0.988775
0.988771
0.988767
0.988767
0.988763
0.98876
0.988756
0.988752
0.988752
0.988748
0.988744
0.98874
0.988736
0.988736
0.988732
0.988728
0.988724
0.98872
0.98872
0.988716
0.988712
0.988708
0.988704
0.988704
0.9887
0.988696
0.988692
0.988689
0.988689
0.988685
0.988681
0.988677
0.988673
0.988673
0.988669
0.988665
0.988661
0.988657
0.988657
0.988653
0.988649
0.988645
0.988641
0.988641
0.988637
0.988633
0.988629
0.988625
0.988625
0.988621
0.988617
0.988613
0.988609
0.988609
0.988605
0.988601
0.988597
0.988593
0.988593
0.988589
0.988585
0.988581
0.988577
0.988577
0.988573
0.988569
0.988565
0.988561
0.988561
0.988557
0.988553
0.988549
0.988545
0.988545
0.988541
0.988537
0.988533
0.988529
0.988529
0.988525
0.988521
0.988517
0.988512
0.988512
0.988508
0.988504
0.9885
0.988496
0.988496
0.988492
0.988488
0.988484
0.98848
0.98848
0.988476
0.988472
0.988468
0.988464
0.988464
0.98846
0.988456
0.988452
0.988448
0.988448
0.988444
0.98844
0.988436
0.988431
0.988431
0.988427
0.988423
0.988419
0.988415
0.988415
0.988411
0.988407
0.988403
0.988399
0.988399
0.988395
0.988391
0.988387
0.988383
0.988383
0.988378
0.988374
0.98837
0.988366
0.988366
0.988362
0.988358
0.988354
0.98835
0.98835
0.988346
0.988342
0.988337
0.988333
0.988333
0.988329
0.988325
0.988321
0.988317
0.988317
0.988313
0.988309
0.988305
0.9883
0.9883
0.988296
0.988292
0.988288
0.988284
0.988284
0.98828
0.988276
0.988272
0.988267
0.988267
0.988263
0.988259
0.988255
0.988251
0.988251
0.988247
0.988243
0.988238
0.988234
0.988234
0.98823
0.988226
0.988222
0.988218
0.988218
0.988214
0.988209
0.988205
0.988201
0.988201
0.988197
0.988193
0.988189
0.988184
0.988184
0.98818
0.988176
0.988172
0.988168
0.988168
0.988164
0.988159
0.988155
0.988151
0.988151
0.988147
0.988143
0.988139
0.988134
0.988134
0.98813
0.988126
0.988122
0.988118
0.988118
0.988113
0.988109
0.988105
0.988101
0.988101
0.988096
0.988092
0.988088
0.988084
0.988084
0.98808
0.988075
0.988071
0.988067
0.988067
0.988063
0.988058
0.988054
0.98805
0.98805
0.988046
0.988041
0.988037
0.988033
0.988033
0.988029
0.988024
0.98802
0.988016
0.988016
0.988012
0.988007
0.988003
0.987999
0.987999
0.987995
0.98799
0.987986
0.987982
0.987982