<?xml version="1.0"?>
<VTKFile type="UnstructuredGrid" version="0.1" byte_order="LittleEndian">
<UnstructuredGrid>
<Piece NumberOfPoints="5000" NumberOfCells="4000">
<PointData Scalars="Reaction 0">
<DataArray type="Float32" Name="Reaction 0" format="ascii">
0.975476
0.975476
0.975476
0.975476
0.975476
0.975476
0.975476
0.975476
0.975476
0.975476
0.975476
0.975476
0.975476
0.975476
0.975476
0.975476
0.975476
0.975476
0.975476
0.975476
0.975476
0.975476
0.975476
0.975476
0.975476
0.975476
0.975476
0.975476
0.975476
0.975476
0.975476
0.975476
0.975476
0.975476
0.975476
0.975476
0.975476
0.975476
0.975476
0.975476
0.975476
0.975476
0.975475
0.975475
0.975475
0.975475
0.975475
0.975475
0.975475
0.975475
0.975475
0.975475
0.975475
0.975475
0.975475
0.975475
0.975475
0.975475
0.975475
0.975475
0.975475
0.975474
0.975474
0.975474
0.975474
0.975474
0.975474
0.975474
0.975474
0.975474
0.975474
0.975474
0.975474
0.975474
0.975473
0.975473
0.975473
0.975473
0.975473
0.975473
0.975473
0.975473
0.975473
0.975473
0.975473
0.975473
0.975473
0.975472
0.975472
0.975472
0.975472
0.975472
0.975472
0.975472
0.975472
0.975472
0.975472
0.975471
0.975471
0.975471
0.975471
0.975471
0.975471
0.975471
0.975471
0.975471
0.975471
0.97547
0.97547
0.97547
0.97547
0.97547
0.97547
0.97547
0.975469
0.975469
0.975469
0.975469
0.975469
0.975469
0.975469
0.975469
0.975469
0.975468
0.975468
0.975468
0.975468
0.975468
0.975468
0.975468
0.975468
0.975467
0.975467
0.975467
0.975467
0.975467
0.975467
0.975467
0.975466
0.975466
0.975466
0.975466
0.975466
0.975466
0.975465
0.975465
0.975465
0.975465
0.975465
0.975465
0.975465
0.975464
0.975464
0.975464
0.975464
0.975464
0.975464
0.975463
0.975463
0.975463
0.975463
0.975463
0.975463
0.975462
0.975462
0.975462
0.975462
0.975462
0.975462
0.975461
0.975461
0.975461
0.975461
0.975461
0.97546
0.97546
0.97546
0.97546
0.97546
0.975459
0.975459
0.975459
0.975459
0.975459
0.975459
0.975459
0.975458
0.975458
0.975458
0.975458
0.975458
0.975457
0.975457
0.975457
0.975457
0.975457
0.975456
0.975456
0.975456
0.975456
0.975456
0.975455
0.975455
0.975455
0.975454
0.975454
0.975454
0.975454
0.975454
0.975453
0.975453
0.975453
0.975453
0.975453
0.975452
0.975452
0.975452
0.975452
0.975451
0.975451
0.975451
0.975451
0.975451
0.97545
0.97545
0.97545
0.97545
0.975449
0.975449
0.975449
0.975449
0.975448
0.975448
0.975448
0.975448
0.975448
0.975447
0.975447
0.975447
0.975446
0.975446
0.975446
0.975446
0.975445
0.975445
0.975445
0.975445
0.975444
0.975444
0.975444
0.975444
0.975443
0.975443
0.975443
0.975442
0.975442
0.975442
0.975442
0.975441
0.975441
0.975441
0.975441
0.97544
0.97544
0.97544
0.97544
0.975439
0.975439
0.975439
0.975438
0.975438
0.975438
0.975438
0.975437
0.975437
0.975437
0.975437
0.975436
0.975436
0.975435
0.975435
0.975435
0.975435
0.975434
0.975434
0.975434
0.975434
0.975433
0.975433
0.975433
0.975433
0.975432
0.975432
0.975431
0.975431
0.975431
0.975431
0.97543
0.97543
0.975429
0.975429
0.975429
0.975429
0.975428
0.975428
0.975428
0.975427
0.975427
0.975427
0.975426
0.975426
0.975426
0.975425
0.975425
0.975425
0.975425
0.975424
0.975424
0.975423
0.975423
0.975423
0.975423
0.975422
0.975422
0.975421
0.975421
0.975421
0.97542
0.97542
0.97542
0.97542
0.975419
0.975419
0.975418
0.975418
0.975418
0.975417
0.975417
0.975417
0.975416
0.975416
0.975416
0.975415
0.975415
0.975414
0.975414
0.975414
0.975413
0.975413
0.975412
0.975412
0.975412
0.975412
0.975411
0.975411
0.975411
0.97541
0.97541
0.975409
0.975409
0.975409
0.975408
0.975408
0.975407
0.975407
0.975407
0.975406
0.975406
0.975405
0.975405
0.975405
0.975404
0.975404
0.975403
0.975403
0.975403
0.975403
0.975402
0.975402
0.975401
0.975401
0.975401
0.9754
0.9754
0.975399
0.975399
0.975399
0.975398
0.975398
0.975397
0.975397
0.975397
0.975396
0.975395
0.975395
0.975395
0.975394
0.975394
0.975393
0.975393
0.975393
0.975392
0.975392
0.975391
0.975391
0.975391
0.97539
0.97539
0.975389
0.975389
0.975389
0.975388
0.975388
0.975387
0.975387
0.975387
0.975386
0.975385
0.975385
0.975384
0.975384
0.975384
0.975383
0.975383
0.975382
0.975382
0.975382
0.975381
0.97538
0.97538
0.97538
0.975379
0.975379
0.975378
0.975378
0.975378
0.975377
0.975377
0.975376
0.975375
0.975375
0.975375
0.975374
0.975374
0.975373
0.975373
0.975372
0.975372
0.975371
0.975371
0.975371
0.97537
0.97537
0.975369
0.975368
0.975368
0.975368
0.975367
0.975367
0.975366
0.975366
0.975365
0.975365
0.975364
0.975364
0.975364
0.975363
0.975362
0.975362
0.975361
0.975361
0.975361
0.97536
0.975359
0.975359
0.975359
0.975358
0.975357
0.975357
0.975356
0.975356
0.975356
0.975355
0.975354
0.975354
0.975354
0.975353
0.975352
0.975352
0.975351
0.975351
0.97535
0.97535
0.975349
0.975349
0.975349
0.975348
0.975347
0.975347
0.975346
0.975346
0.975345
0.975345
0.975344
0.975343
0.975343
0.975343
0.975342
0.975341
0.975341
0.975341
0.97534
0.975339
0.975339
0.975338
0.975338
0.975337
0.975337
0.975336
0.975335
0.975335
0.975335
0.975334
0.975333
0.975333
0.975333
0.975332
0.975331
0.975331
0.97533
0.97533
0.975329
0.975328
0.975328
0.975327
0.975327
0.975326
0.975326
0.975325
0.975324
0.975324
0.975324
0.975323
0.975322
0.975321
0.975321
0.975321
0.97532
0.975319
0.975319
0.975319
0.975318
0.975317
0.975316
0.975316
0.975316
0.975315
0.975314
0.975314
0.975313
0.975313
0.975312
0.975311
0.975311
0.97531
0.97531
0.975309
0.975308
0.975308
0.975307
0.975307
0.975306
0.975305
0.975305
0.975304
0.975304
0.975303
0.975302
0.975302
0.975301
0.975301
0.9753
0.975299
0.975299
0.975298
0.975298
0.975297
0.975296
0.975296
0.975295
0.975295
0.975294
0.975293
0.975292
0.975292
0.975292
0.975291
0.97529
0.975289
0.975289
0.975289
0.975288
0.975287
0.975286
0.975285
0.975285
0.975285
0.975284
0.975283
0.975282
0.975282
0.975282
0.975281
0.97528
0.975279
0.975279
0.975278
0.975278
0.975277
0.975276
0.975276
0.975275
0.975274
0.975273
0.975273
0.975273
0.975272
0.975271
0.97527
0.975269
0.975269
0.975269
0.975268
0.975267
0.975266
0.975266
0.975265
0.975264
0.975264
0.975263
0.975263
0.975262
0.975261
0.97526
0.975259
0.975259
0.975259
0.975258
0.975257
0.975256
0.975256
0.975255
0.975254
0.975253
0.975253
0.975253
0.975252
0.975251
0.97525
0.975249
0.975249
0.975248
0.975247
0.975247
0.975246
0.975246
0.975245
0.975244
0.975243
0.975242
0.975242
0.975241
0.975241
0.97524
0.975239
0.975239
0.975238
0.975237
0.975236
0.975235
0.975235
0.975234
0.975233
0.975233
0.975232
0.975232
0.975231
0.97523
0.975229
0.975228
0.975228
0.975227
0.975226
0.975225
0.975224
0.975224
0.975224
0.975223
0.975222
0.975221
0.975221
0.97522
0.975219
0.975218
0.975217
0.975217
0.975216
0.975215
0.975214
0.975214
0.975214
0.975213
0.975212
0.975211
0.97521
0.97521
0.975209
0.975208
0.975207
0.975206
0.975206
0.975205
0.975204
0.975203
0.975202
0.975202
0.975201
0.9752
0.975199
0.975199
0.975199
0.975198
0.975197
0.975196
0.975195
0.975195
0.975194
0.975193
0.975192
0.975191
0.975191
0.97519
0.975189
0.975188
0.975187
0.975187
0.975186
0.975185
0.975184
0.975183
0.975183
0.975182
0.975181
0.97518
0.975179
0.975179
0.975178
0.975177
0.975176
0.975175
0.975175
0.975174
0.975173
0.975172
0.975171
0.975171
0.97517
0.975169
0.975168
0.975167
0.975167
0.975166
0.975165
0.975164
0.975163
0.975163
0.975162
0.975161
0.97516
0.975159
0.975159
0.975158
0.975157
0.975156
0.975155
0.975155
0.975154
0.975153
0.975152
0.975151
0.975151
0.97515
0.975149
0.975148
0.975147
0.975147
0.975146
0.975145
0.975144
0.975143
0.975143
0.975142
0.975141
0.97514
0.975139
0.975139
0.975138
0.975136
0.975135
0.975134
0.975134
0.975133
0.975132
0.975131
0.97513
0.97513
0.975129
0.975128
0.975127
0.975126
0.975126
0.975125
0.975124
0.975123
0.975122
0.975122
0.975121
0.975119
0.975118
0.975117
0.975117
0.975116
0.975115
0.975114
0.975113
0.975113
0.975112
0.975111
0.97511
0.975109
0.975109
0.975107
0.975106
0.975105
0.975104
0.975104
0.975103
0.975102
0.975101
0.9751
0.9751
0.975099
0.975098
0.975096
0.975095
0.975095
0.975094
0.975093
0.975092
0.975091
0.975091
0.97509
0.975089
0.975088
0.975086
0.975086
0.975085
0.975084
0.975083
0.975082
0.975082
0.975081
0.97508
0.975078
0.975077
0.975077
0.975076
0.975075
0.975074
0.975073
0.975073
0.975072
0.97507
0.975069
0.975068
0.975068
0.975067
0.975066
0.975065
0.975064
0.975064
0.975062
0.975061
0.97506
0.975059
0.975059
0.975058
0.975057
0.975055
0.975054
0.975054
0.975053
0.975052
0.975051
0.97505
0.97505
0.975048
0.975047
0.975046
0.975045
0.975045
0.975044
0.975042
0.975041
0.97504
0.97504
0.975039
0.975038
0.975036
0.975035
0.975035
0.975034
0.975033
0.975032
0.97503
0.97503
0.975029
0.975028
0.975027
0.975026
0.975026
0.975024
0.975023
0.975022
0.975021
0.975021
0.97502
0.975018
0.975017
0.975016
0.975016
0.975015
0.975013
0.975012
0.975011
0.975011
0.97501
0.975009
0.975007
0.975006
0.975006
0.975005
0.975004
0.975002
0.975001
0.975001
0.975
0.974999
0.974997
0.974996
0.974996
0.974995
0.974994
0.974992
0.974991
0.974991
0.97499
0.974989
0.974987
0.974986
0.974986
0.974985
0.974984
0.974982
0.974981
0.974981
0.97498
0.974979
0.974977
0.974976
0.974976
0.974975
0.974973
0.974972
0.974971
0.974971
0.97497
0.974968
0.974967
0.974966
0.974966
0.974964
0.974963
0.974962
0.974961
0.974961
0.974959
0.974958
0.974957
0.974955
0.974955
0.974954
0.974953
0.974951
0.97495
0.97495
0.974949
0.974948
0.974946
0.974945
0.974945
0.974944
0.974942
0.974941
0.97494
0.97494
0.974938
0.974937
0.974936
0.974934
0.974934
0.974933
0.974932
0.97493
0.974929
0.974929
0.974928
0.974926
0.974925
0.974924
0.974924
0.974922
0.974921
0.97492
0.974918
0.974918
0.974917
0.974916
0.974914
0.974913
0.974913
0.974912
0.97491
0.974909
0.974908
0.974908
0.974906
0.974905
0.974903
0.974902
0.974902
0.974901
0.974899
0.974898
0.974897
0.974897
0.974895
0.974894
0.974893
0.974891
0.974891
0.97489
0.974888
0.974887
0.974886
0.974886
0.974884
0.974883
0.974881
0.97488
0.97488
0.974879
0.974877
0.974876
0.974875
0.974875
0.974873
0.974872
0.97487
0.974869
0.974869
0.974868
0.974866
0.974865
0.974863
0.974863
0.974862
0.97486
0.974859
0.974858
0.974858
0.974856
0.974855
0.974853
0.974852
0.974852
0.974851
0.974849
0.974848
0.974846
0.974846
0.974845
0.974843
0.974842
0.974841
0.974841
0.974839
0.974838
0.974836
0.974835
0.974835
0.974833
0.974832
0.97483
0.974829
0.974829
0.974828
0.974826
0.974825
0.974823
0.974823
0.974822
0.97482
0.974819
0.974817
0.974817
0.974816
0.974814
0.974813
0.974811
0.974811
0.97481
0.974808
0.974807
0.974805
0.974805
0.974804
0.974802
0.974801
0.9748
0.9748
0.974798
0.974797
0.974795
0.974794
0.974794
0.974792
0.974791
0.974789
0.974787
0.974787
0.974786
0.974784
0.974783
0.974781
0.974781
0.97478
0.974778
0.974777
0.974775
0.974775
0.974774
0.974772
0.974771
0.974769
0.974769
0.974768
0.974766
0.974765
0.974763
0.974763
0.974762
0.97476
0.974758
0.974757
0.974757
0.974755
0.974754
0.974752
0.974751
0.974751
0.974749
0.974748
0.974746
0.974745
0.974745
0.974743
0.974741
0.97474
0.974738
0.974738
0.974737
0.974735
0.974734
0.974732
0.974732
0.974731
0.974729
0.974727
0.974726
0.974726
0.974724
0.974723
0.974721
0.97472
0.97472
0.974718
0.974716
0.974715
0.974713
0.974713
0.974712
0.97471
0.974708
0.974707
0.974707
0.974705
0.974704
0.974702
0.9747
0.9747
0.974699
0.974697
0.974696
0.974694
0.974694
0.974692
0.974691
0.974689
0.974687
0.974687
0.974686
0.974684
0.974683
0.974681
0.974681
0.974679
0.974678
0.974676
0.974674
0.974674
0.974673
0.974671
0.974669
0.974668
0.974668
0.974666
0.974665
0.974663
0.974661
0.974661
0.97466
0.974658
0.974656
0.974655
0.974655
0.974653
0.974651
0.97465
0.974648
0.974648
0.974646
0.974645
0.974643
0.974641
0.974641
0.97464
0.974638
0.974636
0.974635
0.974635
0.974633
0.974631
0.97463
0.974628
0.974628
0.974626
0.974624
0.974623
0.974621
0.974621
0.974619
0.974618
0.974616
0.974614
0.974614
0.974613
0.974611
0.974609
0.974607
0.974607
0.974606
0.974604
0.974602
0.974601
0.974601
0.974599
0.974597
0.974595
0.974594
0.974594
0.974592
0.97459
0.974589
0.974587
0.974587
0.974585
0.974583
0.974582
0.97458
0.97458
0.974578
0.974576
0.974575
0.974573
0.974573
0.974571
0.97457
0.974568
0.974566
0.974566
0.974564
0.974563
0.974561
0.974559
0.974559
0.974557
0.974556
0.974554
0.974552
0.974552
0.97455
0.974549
0.974547
0.974545
0.974545
0.974543
0.974541
0.97454
0.974538
0.974538
0.974536
0.974534
0.974533
0.974531
0.974531
0.974529
0.974527
0.974525
0.974524
0.974524
0.974522
0.97452
0.974518
0.974517
0.974517
0.974515
0.974513
0.974511
0.974509
0.974509
0.974508
0.974506
0.974504
0.974502
0.974502
0.9745
0.974499
0.974497
0.974495
0.974495
0.974493
0.974491
0.97449
0.974488
0.974488
0.974486
0.974484
0.974482
0.97448
0.97448
0.974479
0.974477
0.974475
0.974473
0.974473
0.974471
0.974469
0.974468
0.974466
0.974466
0.974464
0.974462
0.97446
0.974458
0.974458
0.974457
0.974455
0.974453
0.974451
0.974451
0.974449
0.974447
0.974445
0.974444
0.974444
0.974442
0.97444
0.974438
0.974436
0.974436
0.974434
0.974432
0.974431
0.974429
0.974429
0.974427
0.974425
0.974423
0.974421
0.974421
0.974419
0.974417
0.974416
0.974414
0.974414
0.974412
0.97441
0.974408
0.974406
0.974406
0.974404
0.974402
0.974401
0.974399
0.974399
0.974397
0.974395
0.974393
0.974391
0.974391
0.974389
0.974387
0.974385
0.974383
0.974383
0.974381
0.97438
0.974378
0.974376
0.974376
0.974374
0.974372
0.97437
0.974368
0.974368
0.974366
0.974364
0.974362
0.97436
0.97436
0.974358
0.974357
0.974355
0.974353
0.974353
0.974351
0.974349
0.974347
0.974345
0.974345
0.974343
0.974341
0.974339
0.974337
0.974337
0.974335
0.974333
0.974331
0.974329
0.974329
0.974327
0.974325
0.974323
0.974322
0.974322
0.97432
0.974318
0.974316
0.974314
0.974314
0.974312
0.97431
0.974308
0.974306
0.974306
0.974304
0.974302
0.9743
0.974298
0.974298
0.974296
0.974294
0.974292
0.97429
0.97429
0.974288
0.974286
0.974284
0.974282
0.974282
0.97428
0.974278
0.974276
0.974274
0.974274
0.974272
0.97427
0.974268
0.974266
0.974266
0.974264
0.974262
0.97426
0.974258
0.974258
0.974256
0.974254
0.974252
0.97425
0.97425
0.974248
0.974246
0.974244
0.974242
0.974242
0.97424
0.974238
0.974236
0.974234
0.974234
0.974232
0.97423
0.974228
0.974226
0.974226
0.974224
0.974221
0.974219
0.974217
0.974217
0.974215
0.974213
0.974211
0.974209
0.974209
0.974207
0.974205
0.974203
0.974201
0.974201
0.974199
0.974197
0.974195
0.974193
0.974193
0.974191
0.974189
0.974187
0.974184
0.974184
0.974182
0.97418
0.974178
0.974176
0.974176
0.974174
0.974172
0.97417
0.974168
0.974168
0.974166
0.974164
0.974162
0.97416
0.97416
0.974157
0.974155
0.974153
0.974151
0.974151
0.974149
0.974147
0.974145
0.974143
0.974143
0.974141
0.974139
0.974136
0.974134
0.974134
0.974132
0.97413
0.974128
0.974126
0.974126
0.974124
0.974122
0.97412
0.974117
0.974117
0.974115
0.974113
0.974111
0.974109
0.974109
0.974107
0.974105
0.974103
0.9741
0.9741
0.974098
0.974096
0.974094
0.974092
0.974092
0.97409
0.974088
0.974085
0.974083
0.974083
0.974081
0.974079
0.974077
0.974075
0.974075
0.974072
0.97407
0.974068
0.974066
0.974066
0.974064
0.974062
0.97406
0.974057
0.974057
0.974055
0.974053
0.974051
0.974049
0.974049
0.974047
0.974044
0.974042
0.97404
0.97404
0.974038
0.974036
0.974033
0.974031
0.974031
0.974029
0.974027
0.974025
0.974022
0.974022
0.97402
0.974018
0.974016
0.974014
0.974014
0.974011
0.974009
0.974007
0.974005
0.974005
0.974003
0.974
0.973998
0.973996
0.973996
0.973994
0.973992
0.973989
0.973987
0.973987
0.973985
0.973983
0.973981
0.973978
0.973978
0.973976
0.973974
0.973972
0.973969
0.973969
0.973967
0.973965
0.973963
0.97396
0.97396
0.973958
0.973956
0.973954
0.973951
0.973951
0.973949
0.973947
0.973945
0.973942
0.973942
0.97394
0.973938
0.973936
0.973933
0.973933
0.973931
0.973929
0.973927
0.973924
0.973924
0.973922
0.97392
0.973918
0.973915
0.973915
0.973913
0.973911
0.973909
0.973906
0.973906
0.973904
0.973902
0.973899
0.973897
0.973897
0.973895
0.973893
0.97389
0.973888
0.973888
0.973886
0.973883
0.973881
0.973879
0.973879
0.973877
0.973874
0.973872
0.97387
0.97387
0.973867
0.973865
0.973863
0.97386
0.97386
0.973858
0.973856
0.973853
0.973851
0.973851
0.973849
0.973846
0.973844
0.973842
0.973842
0.97384
0.973837
0.973835
0.973833
0.973833
0.97383
0.973828
0.973826
0.973823
0.973823
0.973821
0.973819
0.973816
0.973814
0.973814
0.973811
0.973809
0.973807
0.973804
0.973804
0.973802
0.9738
0.973797
0.973795
0.973795
0.973793
0.97379
0.973788
0.973786
0.973786
0.973783
0.973781
0.973778
0.973776
0.973776
0.973774
0.973771
0.973769
0.973767
0.973767
0.973764
0.973762
0.973759
0.973757
0.973757
0.973755
0.973752
0.97375
0.973747
0.973747
0.973745
0.973742
0.97374
0.973738
0.973738
0.973735
0.973733
0.97373
0.973728
0.973728
0.973725
0.973723
0.973721
0.973718
0.973718
0.973716
0.973713
0.973711
0.973708
0.973708
0.973706
0.973704
0.973701
0.973699
0.973699
0.973696
0.973694
0.973691
0.973689
0.973689
0.973686
0.973684
0.973682
0.973679
0.973679
0.973677
0.973674
0.973672
0.973669
0.973669
0.973667
0.973664
0.973662
0.97366
0.97366
0.973657
0.973655
0.973652
0.97365
0.97365
0.973647
0.973645
0.973642
0.97364
0.97364
0.973637
0.973635
0.973632
0.97363
0.97363
0.973627
0.973625
0.973622
0.97362
0.97362
0.973617
0.973615
0.973612
0.97361
0.97361
0.973607
0.973605
0.973602
0.9736
0.9736
0.973597
0.973595
0.973592
0.97359
0.97359
0.973587
0.973585
0.973582
0.973579
0.973579
0.973577
0.973574
0.973572
0.973569
0.973569
0.973567
0.973564
0.973562
0.973559
0.973559
0.973557
0.973554
0.973551
0.973549
0.973549
0.973546
0.973544
0.973541
0.973539
0.973539
0.973536
0.973533
0.973531
0.973528
0.973528
0.973526
0.973523
0.973521
0.973518
0.973518
0.973515
0.973513
0.97351
0.973508
0.973508
0.973505
0.973503
0.9735
0.973497
0.973497
0.973495
0.973492
0.97349
0.973487
0.973487
0.973484
0.973482
0.973479
0.973477
0.973477
0.973474
0.973471
0.973469
0.973466
0.973466
0.973463
0.973461
0.973458
0.973456
0.973456
0.973453
0.97345
0.973448
0.973445
0.973445
0.973443
0.97344
0.973437
0.973435
0.973435
0.973432
0.973429
0.973427
0.973424
0.973424
0.973421
0.973419
0.973416
0.973414
0.973414
0.973411
0.973408
0.973406
0.973403
0.973403
0.9734
0.973398
0.973395
0.973392
0.973392
0.97339
0.973387
0.973384
0.973382
0.973382
0.973379
0.973376
0.973374
0.973371
0.973371
0.973368
0.973366
0.973363
0.97336
0.97336
0.973358
0.973355
0.973352
0.97335
0.97335
0.973347
0.973344
0.973341
0.973339
0.973339
0.973336
0.973333
0.973331
0.973328
0.973328
0.973325
0.973323
0.97332
0.973317
0.973317
0.973314
0.973312
0.973309
0.973306
0.973306
0.973304
0.973301
0.973298
0.973296
0.973296
0.973293
0.97329
0.973287
0.973285
0.973285
0.973282
0.973279
0.973276
0.973274
0.973274
0.973271
0.973268
0.973266
0.973263
0.973263
0.97326
0.973257
0.973255
0.973252
0.973252
0.973249
0.973246
0.973244
0.973241
0.973241
0.973238
0.973235
0.973233
0.97323
0.97323
0.973227
0.973224
0.973222
0.973219
0.973219
0.973216
0.973213
0.97321
0.973208
0.973208
0.973205
0.973202
0.973199
0.973197
0.973197
0.973194
0.973191
0.973188
0.973186
0.973186
0.973183
0.97318
0.973177
0.973174
0.973174
0.973172
0.973169
0.973166
0.973163
0.973163
0.97316
0.973158
0.973155
0.973152
0.973152
0.973149
0.973146
0.973144
0.973141
0.973141
0.973138
0.973135
0.973132
0.97313
0.97313
0.973127
0.973124
0.973121
0.973118
0.973118
0.973115
0.973113
0.97311
0.973107
0.973107
0.973104
0.973101
0.973098
0.973096
0.973096
0.973093
0.97309
0.973087
0.973084
0.973084
0.973081
0.973079
0.973076
0.973073
0.973073
0.97307
0.973067
0.973064
0.973062
0.973062
0.973059
0.973056
0.973053
0.97305
0.97305
0.973047
0.973044
0.973041
0.973039
0.973039
0.973036
0.973033
0.97303
0.973027
0.973027
0.973024
0.973021
0.973019
0.973016
0.973016
0.973013
0.97301
0.973007
0.973004
0.973004
0.973001
0.972998
0.972995
0.972993
0.972993
0.97299
0.972987
0.972984
0.972981
0.972981
0.972978
0.972975
0.972972
0.972969
0.972969
0.972966
0.972964
0.972961
0.972958
0.972958
0.972955
0.972952
0.972949
0.972946
0.972946
0.972943
0.97294
0.972937
0.972934
0.972934
0.972931
0.972929
0.972926
0.972923
0.972923
0.97292
0.972917
0.972914
0.972911
0.972911
0.972908
0.972905
0.972902
0.972899
0.972899
0.972896
0.972893
0.97289
0.972887
0.972887
0.972884
0.972881
0.972879
0.972876
0.972876
0.972873
0.97287
0.972867
0.972864
0.972864
0.972861
0.972858
0.972855
0.972852
0.972852
0.972849
0.972846
0.972843
0.97284
0.97284
0.972837
0.972834
0.972831
0.972828
0.972828
0.972825
0.972822
0.972819
0.972816
0.972816
0.972813
0.97281
0.972807
0.972804
0.972804
0.972801
0.972798
0.972795
0.972792
0.972792
0.972789
0.972786
0.972783
0.97278
0.97278
0.972777
0.972774
0.972771
0.972768
0.972768
0.972765
0.972762
0.972759
0.972756
0.972756
0.972753
0.97275
0.972747
0.972744
0.972744
0.972741
0.972738
0.972735
0.972732
0.972732
0.972729
0.972725
0.972722
0.972719
0.972719
0.972716
0.972713
0.97271
0.972707
0.972707
0.972704
0.972701
0.972698
0.972695
0.972695
0.972692
0.972689
0.972686
0.972682
0.972682
0.972679
0.972676
0.972673
0.97267
0.97267
0.972667
0.972664
0.972661
0.972658
0.972658
0.972654
0.972651
0.972648
0.972645
0.972645
0.972642
0.972639
0.972636
0.972633
0.972633
0.97263
0.972626
0.972623
0.97262
0.97262
0.972617
0.972614
0.972611
0.972608
0.972608
0.972605
0.972602
0.972598
0.972595
0.972595
0.972592
0.972589
0.972586
0.972583
0.972583
0.97258
0.972577
0.972573
0.97257
0.97257
0.972567
0.972564
0.972561
0.972558
0.972558
0.972555
0.972551
0.972548
0.972545
0.972545
0.972542
0.972539
0.972536
0.972532
0.972532
0.972529
0.972526
0.972523
0.97252
0.97252
0.972516
0.972513
0.97251
0.972507
0.972507
0.972504
0.9725
0.972497
0.972494
0.972494
0.972491
0.972488
0.972484
0.972481
0.972481
0.972478
0.972475
0.972472
0.972468
0.972468
0.972465
0.972462
0.972459
0.972455
0.972455
0.972452
0.972449
0.972446
0.972443
0.972443
0.972439
0.972436
0.972433
0.97243
0.97243
0.972426
0.972423
0.97242
0.972417
0.972417
0.972413
0.97241
0.972407
0.972404
0.972404
0.9724
0.972397
0.972394
0.972391
0.972391
0.972387
0.972384
0.972381
0.972377
0.972377
0.972374
0.972371
0.972368
0.972364
0.972364
0.972361
0.972358
0.972355
0.972351
0.972351
0.972348
0.972345
0.972341
0.972338
0.972338
0.972335
0.972332
0.972328
0.972325
0.972325
0.972322
0.972318
0.972315
0.972312
0.972312
0.972308
0.972305
0.972302
0.972299
0.972299
0.972295
0.972292
0.972289
0.972285
0.972285
0.972282
0.972279
0.972275
0.972272
0.972272
0.972269
0.972265
0.972262
0.972259
0.972259
0.972255
0.972252
0.972249
0.972245
0.972245
0.972242
0.972239
0.972235
0.972232
0.972232
0.972229
0.972225
0.972222
0.972219
0.972219
0.972215
0.972212
0.972209
0.972205
0.972205
0.972202
0.972199
0.972195
0.972192
0.972192
0.972188
0.972185
0.972182
0.972178
0.972178
0.972175
0.972172
0.972168
0.972165
0.972165
0.972161
0.972158
0.972155
0.972151
0.972151
0.972148
0.972145
0.972141
0.972138
0.972138
0.972134
0.972131
0.972128
0.972124
0.972124
0.972121
0.972117
0.972114
0.972111
0.972111
0.972107
0.972104
0.9721
0.972097
0.972097
0.972094
0.97209
0.972087
0.972083
0.972083
0.97208
0.972077
0.972073
0.97207
0.97207
0.972066
0.972063
0.972059
0.972056
0.972056
0.972053
0.972049
0.972046
0.972042
0.972042
0.972039
0.972035
0.972032
0.972029
0.972029
0.972025
0.972022
0.972018
0.972015
0.972015
0.972011
0.972008
0.972004
0.972001
0.972001
0.971998
0.971994
0.971991
0.971987
0.971987
0.971984
0.97198
0.971977
0.971973
0.971973
0.97197
0.971966
0.971963
0.971959
0.971959
0.971956
0.971953
0.971949
0.971946
0.971946
0.971942
0.971939
0.971935
0.971932
0.971932
0.971928
0.971925
0.971921
0.971918
0.971918
0.971914
0.971911
0.971907
0.971904
0.971904
0.9719
0.971897
0.971893
0.97189
0.97189
0.971886
0.971883
0.971879
0.971876
0.971876
0.971872
0.971869
0.971865
0.971862
0.971862
0.971858
0.971855
0.971851
0.971848
0.971848
0.971844
0.971841
0.971837
0.971833
0.971833
0.97183
0.971826
0.971823
0.971819
0.971819
0.971816
0.971812
0.971809
0.971805
0.971805
0.971802
0.971798
0.971795
0.971791
0.971791
0.971787
0.971784
0.97178
0.971777
0.971777
0.971773
0.97177
0.971766
0.971763
0.971763
0.971759
0.971755
0.971752
0.971748
0.971748
0.971745
0.971741
0.971738
0.971734
0.971734
0.97173
0.971727
0.971723
0.97172
0.97172
0.971716
0.971712
0.971709
0.971705
0.971705
0.971702
0.971698
0.971694
0.971691
0.971691
0.971687
0.971684
0.97168
0.971676
0.971676
0.971673
0.971669
0.971665
0.971662
0.971662
0.971658
0.971655
0.971651
0.971647
0.971647
0.971644
0.97164
0.971636
0.971633
0.971633
0.971629
0.971625
0.971622
0.971618
0.971618
0.971614
0.971611
0.971607
0.971603
0.971603
0.9716
0.971596
0.971592
0.971589
0.971589
0.971585
0.971581
0.971578
0.971574
0.971574
0.97157
0.971566
0.971563
0.971559
0.971559
0.971555
0.971552
0.971548
0.971544
0.971544
0.971541
0.971537
0.971533
0.97153
0.97153
0.971526
0.971522
0.971519
0.971515
0.971515
0.971511
0.971508
0.971504
0.9715
0.9715
0.971496
0.971493
0.971489
0.971485
0.971485
0.971482
0.971478
0.971474
0.97147
0.97147
0.971467
0.971463
0.971459
0.971456
0.971456
0.971452
0.971448
0.971444
0.971441
0.971441
0.971437
0.971433
0.971429
0.971426
0.971426
0.971422
0.971418
0.971414
0.971411
0.971411
0.971407
0.971403
0.971399
0.971395
0.971395
0.971392
0.971388
0.971384
0.97138
0.97138
0.971377
0.971373
0.971369
0.971365
0.971365
0.971361
0.971358
0.971354
0.97135
0.97135
0.971346
0.971342
0.971339
0.971335
0.971335
0.971331
0.971327
0.971323
0.97132
0.97132
0.971316
0.971312
0.971308
0.971304
0.971304
0.9713
0.971297
0.971293
0.971289
0.971289
0.971285
0.971281
0.971277
0.971274
0.971274
0.97127
0.971266
0.971262
0.971258
0.971258
0.971254
0.971251
0.971247
0.971243
0.971243
0.971239
0.971235
0.971231
0.971227
0.971227
0.971224
0.97122
0.971216
0.971212
0.971212
0.971208
0.971204
0.9712
0.971197
0.971197
0.971193
0.971189
0.971185
0.971181
0.971181
0.971177
0.971173
0.971169
0.971166
0.971166
0.971162
0.971158
0.971154
0.97115
0.97115
0.971146
0.971142
0.971138
0.971134
0.971134
0.971131
0.971127
0.971123
0.971119
0.971119
0.971115
0.971111
0.971107
0.971103
0.971103
0.971099
0.971095
0.971091
0.971088
0.971088
0.971084
0.97108
0.971076
0.971072
0.971072
0.971068
0.971064
0.97106
0.971056
0.971056
0.971052
0.971048
0.971044
0.97104
0.97104
0.971037
0.971033
0.971029
0.971025
0.971025
0.971021
0.971017
0.971013
0.971009
0.971009
0.971005
0.971001
0.970997
0.970993
0.970993
0.970989
0.970985
0.970981
0.970977
0.970977
0.970973
0.970969
0.970965
0.970961
0.970961
0.970957
0.970953
0.97095
0.970946
0.970946
0.970942
0.970938
0.970934
0.97093
0.97093
0.970926
0.970922
0.970918
0.970914
0.970914
0.97091
0.970906
0.970902
0.970898
0.970898
0.970894
0.97089
0.970886
0.970882
0.970882
0.970878
0.970874
0.97087
0.970866
0.970866
0.970862
0.970858
0.970854
0.97085
0.97085
0.970846
0.970842
0.970838
0.970834
0.970834
0.97083
0.970826
0.970822
0.970818
0.970818
0.970814
0.970809
0.970805
0.970801
0.970801
0.970797
0.970793
0.970789
0.970785
0.970785
0.970781
0.970777
0.970773
0.970769
0.970769
0.970765
0.970761
0.970757
0.970753
0.970753
0.970749
0.970745
0.970741
0.970737
0.970737
0.970733
0.970729
0.970724
0.97072
0.97072
0.970716
0.970712
0.970708
0.970704
0.970704
0.9707
0.970696
0.970692
0.970688
0.970688
0.970684
0.97068
0.970676
0.970671
0.970671
0.970667
0.970663
0.970659
0.970655
0.970655
0.970651
0.970647
0.970643
0.970639
0.970639
0.970634
0.97063
0.970626
0.970622
0.970622
0.970618
0.970614
0.97061
0.970606
0.970606
0.970601
0.970597
0.970593
0.970589
0.970589
0.970585
0.970581
0.970577
0.970572
0.970572
0.970568
0.970564
0.97056
0.970556
0.970556
0.970551
0.970547
0.970543
0.970539
0.970539
0.970535
0.970531
0.970526
0.970522
0.970522
0.970518
0.970514
0.97051
0.970505
0.970505
0.970501
0.970497
0.970493
0.970489
0.970489
0.970484
0.97048
0.970476
0.970472
0.970472
0.970468
0.970464
0.970459
0.970455
0.970455
0.970451
0.970447
0.970443
0.970438
0.970438
0.970434
0.97043
0.970426
0.970422
0.970422
0.970417
0.970413
0.970409
0.970405
0.970405
0.970401
0.970396
0.970392
0.970388
0.970388
0.970384
0.970379
0.970375
0.970371
0.970371
0.970367
0.970363
0.970358
0.970354
0.970354
0.97035
0.970345
0.970341
0.970337
0.970337
0.970333
0.970328
0.970324
0.97032
0.97032
0.970316
0.970311
0.970307
0.970303
0.970303
0.970298
0.970294
0.97029
0.970286
0.970286
0.970281
0.970277
0.970273
0.970268
0.970268
0.970264
0.97026
0.970256
0.970251
0.970251
0.970247
0.970243
0.970238
0.970234
0.970234
0.97023
0.970225
0.970221
0.970217
0.970217
0.970212
0.970208
0.970204
0.970199
0.970199
0.970195
0.970191
0.970186
0.970182
0.970182
0.970178
0.970173
0.970169
0.970165
0.970165
0.97016
0.970156
0.970152
0.970147
0.970147
0.970143
0.970139
0.970134
0.97013
0.97013
0.970125
0.970121
0.970117
0.970112
0.970112
0.970108
0.970104
0.970099
0.970095
0.970095
0.970091
0.970086
0.970082
0.970077
0.970077
0.970073
0.970069
0.970064
0.97006
0.97006
0.970056
0.970051
0.970047
0.970042
0.970042
0.970038
0.970034
0.970029
0.970025
0.970025
0.97002
0.970016
0.970012
0.970007
0.970007
0.970003
0.969998
0.969994
0.96999
0.96999
0.969985
0.969981
0.969976
0.969972
0.969972
0.969967
0.969963
0.969959
0.969954
0.969954
0.96995
0.969945
0.969941
0.969936
0.969936
0.969932
0.969928
0.969923
0.969919
0.969919
0.969914
0.96991
0.969905
0.969901
0.969901
0.969897
0.969892
0.969888
0.969883
0.969883
0.969879
0.969874
0.96987
0.969865
0.969865
0.969861
0.969856
0.969852
0.969848
0.969848
0.969843
0.969839
0.969834
0.96983
0.96983
0.969825
0.969821
0.969816
0.969812
0.969812
0.969807
0.969803
0.969798
0.969794
0.969794
0.969789
0.969785
0.96978
0.969776
0.969776
0.969771
0.969767
0.969762
0.969758
0.969758
0.969753
0.969749
0.969744
0.96974
0.96974
0.969735
0.969731
0.969726
0.969722
0.969722
0.969717
0.969713
0.969708
0.969704
0.969704
0.969699
0.969695
0.96969
0.969686
0.969686
0.969681
0.969677
0.969672
0.969668
0.969668
0.969663
0.969659
0.969654
0.96965
0.96965
0.969645
0.96964
0.969636
0.969631
0.969631
0.969627
0.969622
0.969618
0.969613
0.969613
0.969609
0.969604
0.969599
0.969595
0.969595
0.96959
0.969586
0.969581
0.969576
0.969576
0.969572
0.969567
0.969563
0.969558
0.969558
0.969554
0.969549
0.969544
0.96954
0.96954
0.969535
0.96953
0.969526
0.969521
0.969521
0.969517
0.969512
0.969507
0.969503
0.969503
0.969498
0.969493
0.969489
0.969484
0.969484
0.969479
0.969475
0.96947
0.969465
0.969465