<?xml version="1.0"?>
<VTKFile type="UnstructuredGrid" version="0.1" byte_order="LittleEndian">
<UnstructuredGrid>
<Piece NumberOfPoints="5000" NumberOfCells="4000">
<PointData Scalars="Reaction 0">
<DataArray type="Float32" Name="Reaction 0" format="ascii">
0.9792
0.9792
0.9792
0.9792
0.9792
0.9792
0.9792
0.9792
0.9792
0.9792
0.9792
0.9792
0.9792
0.9792
0.9792
0.9792
0.9792
0.9792
0.9792
0.9792
0.9792
0.9792
0.9792
0.9792
0.9792
0.9792
0.9792
0.9792
0.9792
0.9792
0.9792
0.9792
0.9792
0.9792
0.9792
0.9792
0.9792
0.9792
0.9792
0.9792
0.9792
0.979199
0.979199
0.979199
0.979199
0.979199
0.979199
0.979199
0.979199
0.979199
0.979199
0.979199
0.979199
0.979199
0.979199
0.979199
0.979199
0.979199
0.979199
0.979199
0.979199
0.979198
0.979198
0.979198
0.979198
0.979198
0.979198
0.979198
0.979198
0.979198
0.979198
0.979198
0.979198
0.979198
0.979197
0.979197
0.979197
0.979197
0.979197
0.979197
0.979197
0.979197
0.979197
0.979197
0.979197
0.979197
0.979197
0.979196
0.979196
0.979196
0.979196
0.979196
0.979196
0.979196
0.979196
0.979196
0.979196
0.979195
0.979195
0.979195
0.979195
0.979195
0.979195
0.979195
0.979195
0.979195
0.979195
0.979194
0.979194
0.979194
0.979194
0.979194
0.979194
0.979194
0.979194
0.979194
0.979193
0.979193
0.979193
0.979193
0.979193
0.979193
0.979193
0.979192
0.979192
0.979192
0.979192
0.979192
0.979192
0.979192
0.979192
0.979191
0.979191
0.979191
0.979191
0.979191
0.979191
0.979191
0.97919
0.97919
0.97919
0.97919
0.97919
0.97919
0.97919
0.97919
0.979189
0.979189
0.979189
0.979189
0.979189
0.979189
0.979188
0.979188
0.979188
0.979188
0.979188
0.979188
0.979187
0.979187
0.979187
0.979187
0.979187
0.979187
0.979186
0.979186
0.979186
0.979186
0.979186
0.979185
0.979185
0.979185
0.979185
0.979185
0.979185
0.979185
0.979184
0.979184
0.979184
0.979184
0.979184
0.979183
0.979183
0.979183
0.979183
0.979183
0.979182
0.979182
0.979182
0.979182
0.979182
0.979181
0.979181
0.979181
0.979181
0.979181
0.97918
0.97918
0.97918
0.97918
0.97918
0.979179
0.979179
0.979179
0.979179
0.979179
0.979178
0.979178
0.979178
0.979178
0.979178
0.979177
0.979177
0.979177
0.979176
0.979176
0.979176
0.979176
0.979176
0.979175
0.979175
0.979175
0.979175
0.979175
0.979174
0.979174
0.979174
0.979174
0.979173
0.979173
0.979173
0.979173
0.979172
0.979172
0.979172
0.979172
0.979172
0.979171
0.979171
0.979171
0.979171
0.97917
0.97917
0.97917
0.979169
0.979169
0.979169
0.979169
0.979168
0.979168
0.979168
0.979168
0.979167
0.979167
0.979167
0.979167
0.979166
0.979166
0.979166
0.979165
0.979165
0.979165
0.979165
0.979164
0.979164
0.979164
0.979164
0.979163
0.979163
0.979163
0.979163
0.979162
0.979162
0.979162
0.979161
0.979161
0.979161
0.979161
0.97916
0.97916
0.97916
0.97916
0.979159
0.979159
0.979158
0.979158
0.979158
0.979158
0.979157
0.979157
0.979157
0.979157
0.979156
0.979156
0.979155
0.979155
0.979155
0.979155
0.979154
0.979154
0.979154
0.979154
0.979153
0.979153
0.979152
0.979152
0.979152
0.979152
0.979151
0.979151
0.979151
0.97915
0.97915
0.97915
0.979149
0.979149
0.979149
0.979148
0.979148
0.979147
0.979147
0.979147
0.979147
0.979146
0.979146
0.979146
0.979145
0.979145
0.979145
0.979144
0.979144
0.979144
0.979143
0.979143
0.979142
0.979142
0.979142
0.979142
0.979141
0.979141
0.979141
0.97914
0.97914
0.979139
0.979139
0.979139
0.979138
0.979138
0.979138
0.979137
0.979137
0.979137
0.979136
0.979136
0.979135
0.979135
0.979135
0.979134
0.979134
0.979133
0.979133
0.979133
0.979133
0.979132
0.979132
0.979132
0.979131
0.979131
0.97913
0.97913
0.97913
0.979129
0.979129
0.979128
0.979128
0.979128
0.979127
0.979127
0.979126
0.979126
0.979126
0.979125
0.979125
0.979124
0.979124
0.979124
0.979123
0.979123
0.979122
0.979122
0.979122
0.979121
0.979121
0.97912
0.97912
0.97912
0.979119
0.979119
0.979118
0.979118
0.979118
0.979117
0.979117
0.979116
0.979116
0.979116
0.979115
0.979115
0.979114
0.979114
0.979114
0.979113
0.979113
0.979112
0.979111
0.979111
0.979111
0.97911
0.97911
0.979109
0.979109
0.979109
0.979108
0.979108
0.979107
0.979107
0.979107
0.979106
0.979105
0.979105
0.979105
0.979104
0.979104
0.979103
0.979103
0.979103
0.979102
0.979102
0.979101
0.9791
0.9791
0.9791
0.979099
0.979099
0.979098
0.979098
0.979098
0.979097
0.979096
0.979096
0.979096
0.979095
0.979095
0.979094
0.979093
0.979093
0.979093
0.979092
0.979092
0.979091
0.979091
0.979091
0.97909
0.979089
0.979089
0.979089
0.979088
0.979088
0.979087
0.979086
0.979086
0.979086
0.979085
0.979084
0.979084
0.979084
0.979083
0.979083
0.979082
0.979081
0.979081
0.979081
0.97908
0.97908
0.979079
0.979079
0.979078
0.979078
0.979077
0.979076
0.979076
0.979076
0.979075
0.979074
0.979074
0.979074
0.979073
0.979073
0.979072
0.979071
0.979071
0.979071
0.97907
0.979069
0.979069
0.979069
0.979068
0.979067
0.979067
0.979066
0.979066
0.979065
0.979065
0.979064
0.979063
0.979063
0.979063
0.979062
0.979061
0.979061
0.979061
0.97906
0.979059
0.979059
0.979058
0.979058
0.979057
0.979057
0.979056
0.979055
0.979055
0.979055
0.979054
0.979053
0.979053
0.979053
0.979052
0.979051
0.979051
0.97905
0.97905
0.979049
0.979048
0.979048
0.979047
0.979047
0.979046
0.979046
0.979045
0.979044
0.979044
0.979043
0.979043
0.979042
0.979041
0.979041
0.979041
0.97904
0.979039
0.979038
0.979038
0.979038
0.979037
0.979036
0.979036
0.979036
0.979035
0.979034
0.979033
0.979033
0.979033
0.979032
0.979031
0.97903
0.97903
0.97903
0.979029
0.979028
0.979027
0.979027
0.979027
0.979026
0.979025
0.979024
0.979024
0.979024
0.979023
0.979022
0.979021
0.979021
0.979021
0.97902
0.979019
0.979018
0.979018
0.979018
0.979017
0.979016
0.979015
0.979015
0.979015
0.979014
0.979013
0.979012
0.979011
0.979011
0.979011
0.97901
0.979009
0.979008
0.979008
0.979007
0.979007
0.979006
0.979005
0.979005
0.979004
0.979004
0.979003
0.979002
0.979002
0.979001
0.979
0.979
0.978999
0.978999
0.978998
0.978997
0.978996
0.978995
0.978995
0.978995
0.978994
0.978993
0.978992
0.978992
0.978991
0.978991
0.97899
0.978989
0.978989
0.978988
0.978987
0.978986
0.978986
0.978986
0.978985
0.978984
0.978983
0.978982
0.978982
0.978981
0.978981
0.97898
0.978979
0.978979
0.978978
0.978977
0.978976
0.978976
0.978976
0.978975
0.978974
0.978973
0.978972
0.978972
0.978971
0.97897
0.97897
0.978969
0.978969
0.978968
0.978967
0.978966
0.978965
0.978965
0.978964
0.978963
0.978963
0.978962
0.978962
0.978961
0.97896
0.978959
0.978958
0.978958
0.978957
0.978956
0.978956
0.978955
0.978955
0.978954
0.978953
0.978952
0.978951
0.978951
0.97895
0.978949
0.978948
0.978947
0.978947
0.978947
0.978946
0.978945
0.978944
0.978944
0.978943
0.978942
0.978941
0.97894
0.97894
0.978939
0.978938
0.978937
0.978937
0.978937
0.978936
0.978935
0.978934
0.978933
0.978933
0.978932
0.978931
0.97893
0.978929
0.978929
0.978928
0.978927
0.978926
0.978925
0.978925
0.978924
0.978923
0.978923
0.978922
0.978922
0.978921
0.97892
0.978919
0.978918
0.978918
0.978917
0.978916
0.978915
0.978914
0.978914
0.978913
0.978912
0.978911
0.97891
0.97891
0.978909
0.978908
0.978907
0.978906
0.978906
0.978905
0.978904
0.978903
0.978902
0.978902
0.978901
0.9789
0.978899
0.978898
0.978898
0.978897
0.978896
0.978895
0.978894
0.978894
0.978893
0.978892
0.978891
0.97889
0.97889
0.978889
0.978888
0.978887
0.978886
0.978886
0.978885
0.978884
0.978883
0.978882
0.978882
0.978881
0.97888
0.978879
0.978878
0.978878
0.978877
0.978876
0.978875
0.978874
0.978874
0.978873
0.978872
0.978871
0.97887
0.97887
0.978869
0.978868
0.978867
0.978866
0.978866
0.978865
0.978864
0.978863
0.978862
0.978862
0.978861
0.97886
0.978859
0.978858
0.978858
0.978857
0.978856
0.978854
0.978853
0.978853
0.978852
0.978851
0.97885
0.978849
0.978849
0.978848
0.978847
0.978846
0.978845
0.978845
0.978844
0.978843
0.978842
0.978841
0.978841
0.97884
0.978838
0.978837
0.978836
0.978836
0.978835
0.978834
0.978833
0.978832
0.978832
0.978831
0.97883
0.978829
0.978828
0.978828
0.978826
0.978825
0.978824
0.978823
0.978823
0.978822
0.978821
0.97882
0.978819
0.978819
0.978818
0.978817
0.978815
0.978814
0.978814
0.978813
0.978812
0.978811
0.97881
0.97881
0.978809
0.978808
0.978806
0.978805
0.978805
0.978804
0.978803
0.978802
0.978801
0.978801
0.9788
0.978799
0.978797
0.978796
0.978796
0.978795
0.978794
0.978793
0.978792
0.978792
0.978791
0.978789
0.978788
0.978787
0.978787
0.978786
0.978785
0.978784
0.978783
0.978783
0.978781
0.97878
0.978779
0.978778
0.978778
0.978777
0.978776
0.978774
0.978773
0.978773
0.978772
0.978771
0.97877
0.978768
0.978768
0.978767
0.978766
0.978765
0.978764
0.978764
0.978763
0.978761
0.97876
0.978759
0.978759
0.978758
0.978757
0.978755
0.978754
0.978754
0.978753
0.978752
0.978751
0.978749
0.978749
0.978748
0.978747
0.978746
0.978745
0.978745
0.978743
0.978742
0.978741
0.97874
0.97874
0.978739
0.978737
0.978736
0.978735
0.978735
0.978734
0.978732
0.978731
0.97873
0.97873
0.978729
0.978727
0.978726
0.978725
0.978725
0.978724
0.978723
0.978721
0.97872
0.97872
0.978719
0.978718
0.978716
0.978715
0.978715
0.978714
0.978713
0.978711
0.97871
0.97871
0.978709
0.978708
0.978706
0.978705
0.978705
0.978704
0.978703
0.978701
0.9787
0.9787
0.978699
0.978697
0.978696
0.978695
0.978695
0.978694
0.978692
0.978691
0.97869
0.97869
0.978689
0.978687
0.978686
0.978685
0.978685
0.978683
0.978682
0.978681
0.978679
0.978679
0.978678
0.978677
0.978676
0.978674
0.978674
0.978673
0.978672
0.97867
0.978669
0.978669
0.978668
0.978666
0.978665
0.978664
0.978664
0.978663
0.978661
0.97866
0.978659
0.978659
0.978657
0.978656
0.978655
0.978653
0.978653
0.978652
0.978651
0.978649
0.978648
0.978648
0.978647
0.978645
0.978644
0.978643
0.978643
0.978641
0.97864
0.978639
0.978637
0.978637
0.978636
0.978635
0.978633
0.978632
0.978632
0.978631
0.978629
0.978628
0.978626
0.978626
0.978625
0.978624
0.978622
0.978621
0.978621
0.97862
0.978618
0.978617
0.978616
0.978616
0.978614
0.978613
0.978611
0.97861
0.97861
0.978609
0.978607
0.978606
0.978605
0.978605
0.978603
0.978602
0.9786
0.978599
0.978599
0.978598
0.978596
0.978595
0.978593
0.978593
0.978592
0.978591
0.978589
0.978588
0.978588
0.978586
0.978585
0.978584
0.978582
0.978582
0.978581
0.978579
0.978578
0.978577
0.978577
0.978575
0.978574
0.978572
0.978571
0.978571
0.978569
0.978568
0.978567
0.978565
0.978565
0.978564
0.978562
0.978561
0.978559
0.978559
0.978558
0.978557
0.978555
0.978554
0.978554
0.978552
0.978551
0.978549
0.978548
0.978548
0.978546
0.978545
0.978543
0.978542
0.978542
0.978541
0.978539
0.978538
0.978536
0.978536
0.978535
0.978533
0.978532
0.97853
0.97853
0.978529
0.978527
0.978526
0.978524
0.978524
0.978523
0.978521
0.97852
0.978518
0.978518
0.978517
0.978515
0.978514
0.978512
0.978512
0.978511
0.978509
0.978508
0.978506
0.978506
0.978505
0.978503
0.978502
0.9785
0.9785
0.978499
0.978497
0.978496
0.978494
0.978494
0.978493
0.978491
0.97849
0.978488
0.978488
0.978487
0.978485
0.978484
0.978482
0.978482
0.97848
0.978479
0.978477
0.978476
0.978476
0.978474
0.978473
0.978471
0.97847
0.97847
0.978468
0.978467
0.978465
0.978464
0.978464
0.978462
0.97846
0.978459
0.978457
0.978457
0.978456
0.978454
0.978453
0.978451
0.978451
0.97845
0.978448
0.978446
0.978445
0.978445
0.978443
0.978442
0.97844
0.978439
0.978439
0.978437
0.978435
0.978434
0.978432
0.978432
0.978431
0.978429
0.978427
0.978426
0.978426
0.978424
0.978423
0.978421
0.978419
0.978419
0.978418
0.978416
0.978415
0.978413
0.978413
0.978411
0.97841
0.978408
0.978406
0.978406
0.978405
0.978403
0.978402
0.9784
0.9784
0.978398
0.978397
0.978395
0.978393
0.978393
0.978392
0.97839
0.978389
0.978387
0.978387
0.978385
0.978384
0.978382
0.97838
0.97838
0.978379
0.978377
0.978375
0.978374
0.978374
0.978372
0.97837
0.978369
0.978367
0.978367
0.978365
0.978364
0.978362
0.97836
0.97836
0.978359
0.978357
0.978355
0.978354
0.978354
0.978352
0.97835
0.978349
0.978347
0.978347
0.978345
0.978344
0.978342
0.97834
0.97834
0.978339
0.978337
0.978335
0.978334
0.978334
0.978332
0.97833
0.978328
0.978327
0.978327
0.978325
0.978323
0.978322
0.97832
0.97832
0.978318
0.978316
0.978315
0.978313
0.978313
0.978311
0.97831
0.978308
0.978306
0.978306
0.978304
0.978303
0.978301
0.978299
0.978299
0.978298
0.978296
0.978294
0.978292
0.978292
0.978291
0.978289
0.978287
0.978285
0.978285
0.978284
0.978282
0.97828
0.978278
0.978278
0.978277
0.978275
0.978273
0.978271
0.978271
0.97827
0.978268
0.978266
0.978264
0.978264
0.978263
0.978261
0.978259
0.978257
0.978257
0.978256
0.978254
0.978252
0.97825
0.97825
0.978249
0.978247
0.978245
0.978243
0.978243
0.978241
0.97824
0.978238
0.978236
0.978236
0.978234
0.978233
0.978231
0.978229
0.978229
0.978227
0.978225
0.978224
0.978222
0.978222
0.97822
0.978218
0.978216
0.978215
0.978215
0.978213
0.978211
0.978209
0.978207
0.978207
0.978206
0.978204
0.978202
0.9782
0.9782
0.978198
0.978196
0.978195
0.978193
0.978193
0.978191
0.978189
0.978187
0.978186
0.978186
0.978184
0.978182
0.97818
0.978178
0.978178
0.978176
0.978175
0.978173
0.978171
0.978171
0.978169
0.978167
0.978165
0.978163
0.978163
0.978162
0.97816
0.978158
0.978156
0.978156
0.978154
0.978152
0.97815
0.978149
0.978149
0.978147
0.978145
0.978143
0.978141
0.978141
0.978139
0.978137
0.978136
0.978134
0.978134
0.978132
0.97813
0.978128
0.978126
0.978126
0.978124
0.978122
0.978121
0.978119
0.978119
0.978117
0.978115
0.978113
0.978111
0.978111
0.978109
0.978107
0.978105
0.978103
0.978103
0.978102
0.9781
0.978098
0.978096
0.978096
0.978094
0.978092
0.97809
0.978088
0.978088
0.978086
0.978084
0.978082
0.978081
0.978081
0.978079
0.978077
0.978075
0.978073
0.978073
0.978071
0.978069
0.978067
0.978065
0.978065
0.978063
0.978061
0.978059
0.978057
0.978057
0.978055
0.978054
0.978052
0.97805
0.97805
0.978048
0.978046
0.978044
0.978042
0.978042
0.97804
0.978038
0.978036
0.978034
0.978034
0.978032
0.97803
0.978028
0.978026
0.978026
0.978024
0.978022
0.97802
0.978018
0.978018
0.978016
0.978014
0.978012
0.97801
0.97801
0.978008
0.978006
0.978004
0.978002
0.978002
0.978
0.977999
0.977997
0.977995
0.977995
0.977993
0.977991
0.977989
0.977987
0.977987
0.977985
0.977983
0.977981
0.977979
0.977979
0.977977
0.977975
0.977973
0.977971
0.977971
0.977969
0.977966
0.977964
0.977962
0.977962
0.97796
0.977958
0.977956
0.977954
0.977954
0.977952
0.97795
0.977948
0.977946
0.977946
0.977944
0.977942
0.97794
0.977938
0.977938
0.977936
0.977934
0.977932
0.97793
0.97793
0.977928
0.977926
0.977924
0.977922
0.977922
0.97792
0.977918
0.977916
0.977914
0.977914
0.977912
0.977909
0.977907
0.977905
0.977905
0.977903
0.977901
0.977899
0.977897
0.977897
0.977895
0.977893
0.977891
0.977889
0.977889
0.977887
0.977885
0.977883
0.977881
0.977881
0.977878
0.977876
0.977874
0.977872
0.977872
0.97787
0.977868
0.977866
0.977864
0.977864
0.977862
0.97786
0.977858
0.977855
0.977855
0.977853
0.977851
0.977849
0.977847
0.977847
0.977845
0.977843
0.977841
0.977839
0.977839
0.977836
0.977834
0.977832
0.97783
0.97783
0.977828
0.977826
0.977824
0.977822
0.977822
0.97782
0.977817
0.977815
0.977813
0.977813
0.977811
0.977809
0.977807
0.977805
0.977805
0.977802
0.9778
0.977798
0.977796
0.977796
0.977794
0.977792
0.97779
0.977787
0.977787
0.977785
0.977783
0.977781
0.977779
0.977779
0.977777
0.977774
0.977772
0.97777
0.97777
0.977768
0.977766
0.977764
0.977761
0.977761
0.977759
0.977757
0.977755
0.977753
0.977753
0.977751
0.977748
0.977746
0.977744
0.977744
0.977742
0.97774
0.977738
0.977735
0.977735
0.977733
0.977731
0.977729
0.977727
0.977727
0.977724
0.977722
0.97772
0.977718
0.977718
0.977716
0.977713
0.977711
0.977709
0.977709
0.977707
0.977704
0.977702
0.9777
0.9777
0.977698
0.977696
0.977693
0.977691
0.977691
0.977689
0.977687
0.977685
0.977682
0.977682
0.97768
0.977678
0.977676
0.977673
0.977673
0.977671
0.977669
0.977667
0.977664
0.977664
0.977662
0.97766
0.977658
0.977655
0.977655
0.977653
0.977651
0.977649
0.977646
0.977646
0.977644
0.977642
0.97764
0.977637
0.977637
0.977635
0.977633
0.977631
0.977628
0.977628
0.977626
0.977624
0.977622
0.977619
0.977619
0.977617
0.977615
0.977612
0.97761
0.97761
0.977608
0.977606
0.977603
0.977601
0.977601
0.977599
0.977596
0.977594
0.977592
0.977592
0.97759
0.977587
0.977585
0.977583
0.977583
0.97758
0.977578
0.977576
0.977573
0.977573
0.977571
0.977569
0.977567
0.977564
0.977564
0.977562
0.97756
0.977557
0.977555
0.977555
0.977553
0.97755
0.977548
0.977546
0.977546
0.977543
0.977541
0.977539
0.977536
0.977536
0.977534
0.977532
0.977529
0.977527
0.977527
0.977525
0.977522
0.97752
0.977518
0.977518
0.977515
0.977513
0.97751
0.977508
0.977508
0.977506
0.977503
0.977501
0.977499
0.977499
0.977496
0.977494
0.977491
0.977489
0.977489
0.977487
0.977484
0.977482
0.97748
0.97748
0.977477
0.977475
0.977472
0.97747
0.97747
0.977467
0.977465
0.977463
0.97746
0.97746
0.977458
0.977455
0.977453
0.977451
0.977451
0.977448
0.977446
0.977443
0.977441
0.977441
0.977439
0.977436
0.977434
0.977431
0.977431
0.977429
0.977426
0.977424
0.977422
0.977422
0.977419
0.977417
0.977414
0.977412
0.977412
0.97741
0.977407
0.977405
0.977402
0.977402
0.9774
0.977397
0.977395
0.977392
0.977392
0.97739
0.977388
0.977385
0.977383
0.977383
0.97738
0.977378
0.977375
0.977373
0.977373
0.97737
0.977368
0.977365
0.977363
0.977363
0.97736
0.977358
0.977356
0.977353
0.977353
0.977351
0.977348
0.977346
0.977343
0.977343
0.977341
0.977338
0.977336
0.977333
0.977333
0.977331
0.977328
0.977326
0.977323
0.977323
0.977321
0.977318
0.977316
0.977313
0.977313
0.97731
0.977308
0.977305
0.977303
0.977303
0.9773
0.977298
0.977295
0.977293
0.977293
0.97729
0.977288
0.977285
0.977283
0.977283
0.97728
0.977278
0.977275
0.977273
0.977273
0.97727
0.977267
0.977265
0.977262
0.977262
0.97726
0.977257
0.977255
0.977252
0.977252
0.97725
0.977247
0.977244
0.977242
0.977242
0.977239
0.977237
0.977234
0.977232
0.977232
0.977229
0.977226
0.977224
0.977221
0.977221
0.977219
0.977216
0.977214
0.977211
0.977211
0.977208
0.977206
0.977203
0.977201
0.977201
0.977198
0.977195
0.977193
0.97719
0.97719
0.977188
0.977185
0.977182
0.97718
0.97718
0.977177
0.977175
0.977172
0.977169
0.977169
0.977167
0.977164
0.977162
0.977159
0.977159
0.977156
0.977154
0.977151
0.977148
0.977148
0.977146
0.977143
0.977141
0.977138
0.977138
0.977135
0.977133
0.97713
0.977127
0.977127
0.977125
0.977122
0.97712
0.977117
0.977117
0.977114
0.977112
0.977109
0.977106
0.977106
0.977104
0.977101
0.977098
0.977096
0.977096
0.977093
0.97709
0.977088
0.977085
0.977085
0.977082
0.97708
0.977077
0.977074
0.977074
0.977072
0.977069
0.977066
0.977064
0.977064
0.977061
0.977058
0.977056
0.977053
0.977053
0.97705
0.977048
0.977045
0.977042
0.977042
0.97704
0.977037
0.977034
0.977031
0.977031
0.977029
0.977026
0.977023
0.977021
0.977021
0.977018
0.977015
0.977013
0.97701
0.97701
0.977007
0.977004
0.977002
0.976999
0.976999
0.976996
0.976994
0.976991
0.976988
0.976988
0.976985
0.976983
0.97698
0.976977
0.976977
0.976975
0.976972
0.976969
0.976966
0.976966
0.976964
0.976961
0.976958
0.976955
0.976955
0.976953
0.97695
0.976947
0.976944
0.976944
0.976942
0.976939
0.976936
0.976933
0.976933
0.976931
0.976928
0.976925
0.976922
0.976922
0.97692
0.976917
0.976914
0.976911
0.976911
0.976909
0.976906
0.976903
0.9769
0.9769
0.976897
0.976895
0.976892
0.976889
0.976889
0.976886
0.976884
0.976881
0.976878
0.976878
0.976875
0.976872
0.97687
0.976867
0.976867
0.976864
0.976861
0.976859
0.976856
0.976856
0.976853
0.97685
0.976847
0.976845
0.976845
0.976842
0.976839
0.976836
0.976833
0.976833
0.97683
0.976828
0.976825
0.976822
0.976822
0.976819
0.976816
0.976814
0.976811
0.976811
0.976808
0.976805
0.976802
0.976799
0.976799
0.976797
0.976794
0.976791
0.976788
0.976788
0.976785
0.976782
0.97678
0.976777
0.976777
0.976774
0.976771
0.976768
0.976765
0.976765
0.976763
0.97676
0.976757
0.976754
0.976754
0.976751
0.976748
0.976745
0.976743
0.976743
0.97674
0.976737
0.976734
0.976731
0.976731
0.976728
0.976725
0.976722
0.97672
0.97672
0.976717
0.976714
0.976711
0.976708
0.976708
0.976705
0.976702
0.976699
0.976697
0.976697
0.976694
0.976691
0.976688
0.976685
0.976685
0.976682
0.976679
0.976676
0.976673
0.976673
0.97667
0.976668
0.976665
0.976662
0.976662
0.976659
0.976656
0.976653
0.97665
0.97665
0.976647
0.976644
0.976641
0.976638
0.976638
0.976636
0.976633
0.97663
0.976627
0.976627
0.976624
0.976621
0.976618
0.976615
0.976615
0.976612
0.976609
0.976606
0.976603
0.976603
0.9766
0.976597
0.976594
0.976592
0.976592
0.976589
0.976586
0.976583
0.97658
0.97658
0.976577
0.976574
0.976571
0.976568
0.976568
0.976565
0.976562
0.976559
0.976556
0.976556
0.976553
0.97655
0.976547
0.976544
0.976544
0.976541
0.976538
0.976535
0.976532
0.976532
0.976529
0.976526
0.976523
0.97652
0.97652
0.976517
0.976514
0.976511
0.976508
0.976508
0.976505
0.976502
0.976499
0.976496
0.976496
0.976493
0.97649
0.976487
0.976484
0.976484
0.976481
0.976478
0.976475
0.976472
0.976472
0.976469
0.976466
0.976463
0.97646
0.97646
0.976457
0.976454
0.976451
0.976448
0.976448
0.976445
0.976442
0.976439
0.976436
0.976436
0.976433
0.976429
0.976426
0.976423
0.976423
0.97642
0.976417
0.976414
0.976411
0.976411
0.976408
0.976405
0.976402
0.976399
0.976399
0.976396
0.976393
0.976389
0.976386
0.976386
0.976383
0.97638
0.976377
0.976374
0.976374
0.976371
0.976368
0.976365
0.976362
0.976362
0.976359
0.976356
0.976352
0.976349
0.976349
0.976346
0.976343
0.97634
0.976337
0.976337
0.976334
0.976331
0.976328
0.976325
0.976325
0.976322
0.976318
0.976315
0.976312
0.976312
0.976309
0.976306
0.976303
0.9763
0.9763
0.976297
0.976293
0.97629
0.976287
0.976287
0.976284
0.976281
0.976278
0.976275
0.976275
0.976271
0.976268
0.976265
0.976262
0.976262
0.976259
0.976256
0.976252
0.976249
0.976249
0.976246
0.976243
0.97624
0.976237
0.976237
0.976233
0.97623
0.976227
0.976224
0.976224
0.976221
0.976218
0.976214
0.976211
0.976211
0.976208
0.976205
0.976202
0.976198
0.976198
0.976195
0.976192
0.976189
0.976186
0.976186
0.976182
0.976179
0.976176
0.976173
0.976173
0.97617
0.976166
0.976163
0.97616
0.97616
0.976157
0.976153
0.97615
0.976147
0.976147
0.976144
0.976141
0.976137
0.976134
0.976134
0.976131
0.976128
0.976124
0.976121
0.976121
0.976118
0.976115
0.976111
0.976108
0.976108
0.976105
0.976102
0.976098
0.976095
0.976095
0.976092
0.976089
0.976085
0.976082
0.976082
0.976079
0.976076
0.976072
0.976069
0.976069
0.976066
0.976063
0.976059
0.976056
0.976056
0.976053
0.976049
0.976046
0.976043
0.976043
0.97604
0.976036
0.976033
0.97603
0.97603
0.976026
0.976023
0.97602
0.976017
0.976017
0.976013
0.97601
0.976007
0.976003
0.976003
0.976
0.975997
0.975994
0.97599
0.97599
0.975987
0.975984
0.97598
0.975977
0.975977
0.975974
0.97597
0.975967
0.975964
0.975964
0.97596
0.975957
0.975954
0.97595
0.97595
0.975947
0.975944
0.97594
0.975937
0.975937
0.975934
0.97593
0.975927
0.975924
0.975924
0.97592
0.975917
0.975914
0.97591
0.97591
0.975907
0.975904
0.9759
0.975897
0.975897
0.975894
0.97589
0.975887
0.975884
0.975884
0.97588
0.975877
0.975874
0.97587
0.97587
0.975867
0.975863
0.97586
0.975857
0.975857
0.975853
0.97585
0.975847
0.975843
0.975843
0.97584
0.975836
0.975833
0.97583
0.97583
0.975826
0.975823
0.97582
0.975816
0.975816
0.975813
0.975809
0.975806
0.975803
0.975803
0.975799
0.975796
0.975792
0.975789
0.975789
0.975786
0.975782
0.975779
0.975775
0.975775
0.975772
0.975769
0.975765
0.975762
0.975762
0.975758
0.975755
0.975751
0.975748
0.975748
0.975745
0.975741
0.975738
0.975734
0.975734
0.975731
0.975727
0.975724
0.975721
0.975721
0.975717
0.975714
0.97571
0.975707
0.975707
0.975703
0.9757
0.975697
0.975693
0.975693
0.97569
0.975686
0.975683
0.975679
0.975679
0.975676
0.975672
0.975669
0.975665
0.975665
0.975662
0.975659
0.975655
0.975652
0.975652
0.975648
0.975645
0.975641
0.975638
0.975638
0.975634
0.975631
0.975627
0.975624
0.975624
0.97562
0.975617
0.975613
0.97561
0.97561
0.975606
0.975603
0.975599
0.975596
0.975596
0.975592
0.975589
0.975585
0.975582
0.975582
0.975578
0.975575
0.975571
0.975568
0.975568
0.975564
0.975561
0.975557
0.975554
0.975554
0.97555
0.975547
0.975543
0.97554
0.97554
0.975536
0.975533
0.975529
0.975526
0.975526
0.975522
0.975519
0.975515
0.975512
0.975512
0.975508
0.975505
0.975501
0.975497
0.975497
0.975494
0.97549
0.975487
0.975483
0.975483
0.97548
0.975476
0.975473
0.975469
0.975469
0.975465
0.975462
0.975458
0.975455
0.975455
0.975451
0.975448
0.975444
0.97544
0.97544
0.975437
0.975433
0.97543
0.975426
0.975426
0.975423
0.975419
0.975415
0.975412
0.975412
0.975408
0.975404
0.975401
0.975397
0.975397
0.975394
0.97539
0.975386
0.975383
0.975383
0.975379
0.975375
0.975372
0.975368
0.975368
0.975365
0.975361
0.975357
0.975354
0.975354
0.97535
0.975346
0.975343
0.975339
0.975339
0.975335
0.975332
0.975328
0.975324
0.975324
0.975321
0.975317
0.975314
0.97531
0.97531
0.975306
0.975303
0.975299
0.975295
0.975295
0.975292
0.975288
0.975284
0.975281
0.975281
0.975277
0.975274
0.97527
0.975266
0.975266
0.975263
0.975259
0.975255
0.975252
0.975252
0.975248
0.975244
0.975241
0.975237
0.975237
0.975233
0.975229
0.975226
0.975222
0.975222
0.975218
0.975215
0.975211
0.975207
0.975207
0.975204
0.9752
0.975196
0.975192
0.975192
0.975189
0.975185
0.975181
0.975178
0.975178
0.975174
0.97517
0.975166
0.975163
0.975163
0.975159
0.975155
0.975151
0.975148
0.975148
0.975144
0.97514
0.975137
0.975133
0.975133
0.975129
0.975125
0.975121
0.975118
0.975118
0.975114
0.97511
0.975106
0.975103
0.975103
0.975099
0.975095
0.975091
0.975088
0.975088
0.975084
0.97508
0.975076
0.975073
0.975073
0.975069
0.975065
0.975061
0.975057
0.975057
0.975054
0.97505
0.975046
0.975042
0.975042
0.975038
0.975035
0.975031
0.975027
0.975027
0.975023
0.975019
0.975016
0.975012
0.975012
0.975008
0.975004
0.975
0.974997
0.974997
0.974993
0.974989
0.974985
0.974981
0.974981
0.974977
0.974974
0.97497
0.974966
0.974966
0.974962
0.974958
0.974955
0.974951
0.974951
0.974947
0.974943
0.974939
0.974935
0.974935
0.974932
0.974928
0.974924
0.97492
0.97492
0.974916
0.974912
0.974908
0.974905
0.974905
0.974901
0.974897
0.974893
0.974889
0.974889
0.974885
0.974881
0.974878
0.974874
0.974874
0.97487
0.974866
0.974862
0.974858
0.974858
0.974854
0.97485
0.974847
0.974843
0.974843
0.974839
0.974835
0.974831
0.974827
0.974827
0.974823
0.974819
0.974816
0.974812
0.974812
0.974808
0.974804
0.9748
0.974796
0.974796
0.974792
0.974788
0.974784
0.97478
0.97478
0.974777
0.974773
0.974769
0.974765
0.974765
0.974761
0.974757
0.974753
0.974749
0.974749
0.974745
0.974741
0.974737
0.974734
0.974734
0.97473
0.974726
0.974722
0.974718
0.974718
0.974714
0.97471
0.974706
0.974702
0.974702
0.974698
0.974694
0.97469
0.974686
0.974686
0.974682
0.974678
0.974674
0.974671
0.974671
0.974667
0.974663
0.974659
0.974655
0.974655
0.974651
0.974647
0.974643
0.974639
0.974639
0.974635
0.974631
0.974627
0.974623
0.974623
0.974619
0.974615
0.974611
0.974607
0.974607
0.974603
0.974599
0.974595
0.974591
0.974591
0.974587
0.974583
0.974579
0.974575
0.974575
0.974571
0.974567
0.974563
0.974559
0.974559
0.974555
0.974551
0.974547
0.974543
0.974543
0.974539
0.974535
0.974531
0.974527
0.974527
0.974523
0.974519
0.974515
0.974511
0.974511
0.974507
0.974503
0.974499
0.974495
0.974495
0.974491
0.974487
0.974483
0.974479
0.974479
0.974475
0.974471
0.974467
0.974463
0.974463
0.974459
0.974455
0.974451
0.974447
0.974447
0.974443
0.974439
0.974435
0.97443
0.97443
0.974426
0.974422
0.974418
0.974414
0.974414
0.97441
0.974406
0.974402
0.974398
0.974398
0.974394
0.97439
0.974386
0.974382
0.974382
0.974377
0.974373
0.974369
0.974365
0.974365
0.974361
0.974357
0.974353
0.974349
0.974349
0.974345
0.97434
0.974336
0.974332
0.974332
0.974328
0.974324
0.97432
0.974316
0.974316
0.974311
0.974307
0.974303
0.974299
0.974299
0.974295
0.974291
0.974287
0.974282
0.974282
0.974278
0.974274
0.97427
0.974266
0.974266
0.974262
0.974258
0.974253
0.974249
0.974249
0.974245
0.974241
0.974237
0.974233
0.974233
0.974229
0.974225
0.97422
0.974216
0.974216
0.974212
0.974208
0.974204
0.9742
0.9742
0.974196
0.974191
0.974187
0.974183
0.974183
0.974179
0.974175
0.97417
0.974166
0.974166
0.974162
0.974158
0.974154
0.97415
0.97415
0.974145
0.974141
0.974137
0.974133
0.974133
0.974129
0.974124
0.97412
0.974116
0.974116
0.974112
0.974107
0.974103
0.974099
0.974099
0.974095
0.974091
0.974086
0.974082
0.974082
0.974078
0.974074
0.974069
0.974065
0.974065
0.974061
0.974057
0.974052
0.974048
0.974048
0.974044
0.97404
0.974035
0.974031
0.974031
0.974027
0.974023
0.974018
0.974014
0.974014
0.97401
0.974006
0.974001
0.973997
0.973997
0.973993
0.973988
0.973984
0.97398
0.97398
0.973976
0.973971
0.973967
0.973963
0.973963
0.973958
0.973954
0.97395
0.973946
0.973946
0.973941
0.973937
0.973933
0.973928
0.973928
0.973924
0.97392
0.973915
0.973911
0.973911
0.973907
0.973903
0.973898
0.973894
0.973894
0.97389
0.973885
0.973881
0.973877
0.973877
0.973872
0.973868
0.973864
0.973859
0.973859
0.973855
0.973851
0.973846
0.973842
0.973842
0.973838
0.973833
0.973829
0.973825
0.973825
0.97382
0.973816
0.973812
0.973807
0.973807
0.973803
0.973799
0.973794
0.97379
0.97379
0.973786
0.973781
0.973777
0.973772
0.973772
0.973768
0.973764
0.973759
0.973755
0.973755
0.973751
0.973746
0.973742
0.973738
0.973738
0.973733
0.973729
0.973724
0.97372
0.97372
0.973716
0.973711
0.973707
0.973702
0.973702
0.973698
0.973694
0.973689
0.973685
0.973685
0.97368
0.973676
0.973672
0.973667
0.973667
0.973663
0.973659
0.973654
0.97365
0.97365
0.973645
0.973641
0.973636
0.973632
0.973632
0.973628
0.973623
0.973619
0.973614
0.973614
0.97361
0.973606
0.973601
0.973597
0.973597
0.973592
0.973588
0.973583
0.973579
0.973579
0.973575
0.97357
0.973566
0.973561
0.973561
0.973557
0.973552
0.973548
0.973543
0.973543
0.973539
0.973535
0.97353
0.973526
0.973526
0.973521
0.973517
0.973512
0.973508
0.973508
0.973503
0.973499
0.973494
0.97349
0.97349
0.973485
0.973481
0.973477
0.973472
0.973472
0.973468
0.973463
0.973459
0.973454
0.973454
0.97345
0.973445
0.973441
0.973436
0.973436
0.973432
0.973427
0.973423
0.973418
0.973418
0.973414
0.973409
0.973405
0.9734
0.9734
0.973396
0.973391
0.973387
0.973382
0.973382
0.973378
0.973373
0.973368
0.973364
0.973364
0.973359
0.973355
0.97335
0.973346
0.973346
0.973341
0.973337
0.973332
0.973328
0.973328
0.973323
0.973318
0.973314
0.973309
0.973309
0.973305
0.9733
0.973295
0.973291
0.973291
0.973286
0.973282
0.973277
0.973273
0.973273
0.973268
0.973263
0.973259
0.973254
0.973254
0.97325
0.973245
0.97324
0.973236
0.973236
0.973231
0.973227
0.973222
0.973217
0.973217
0.973213
0.973208