<?xml version="1.0"?>
<VTKFile type="UnstructuredGrid" version="0.1" byte_order="LittleEndian">
<UnstructuredGrid>
<Piece NumberOfPoints="5000" NumberOfCells="4000">
<PointData Scalars="Reaction 0">
<DataArray type="Float32" Name="Reaction 0" format="ascii">
0.718519
0.718519
0.718519
0.718519
0.718519
0.718519
0.718519
0.718519
0.71852
0.71852
0.71852
0.71852
0.71852
0.71852
0.71852
0.71852
0.71852
0.71852
0.71852
0.71852
0.71852
0.71852
0.718521
0.718521
0.718521
0.718521
0.718521
0.718521
0.718521
0.718521
0.718521
0.718522
0.718522
0.718522
0.718522
0.718522
0.718522
0.718523
0.718523
0.718523
0.718523
0.718523
0.718524
0.718524
0.718524
0.718524
0.718524
0.718525
0.718525
0.718525
0.718525
0.718525
0.718526
0.718526
0.718526
0.718526
0.718527
0.718527
0.718527
0.718528
0.718528
0.718528
0.718528
0.718529
0.718529
0.718529
0.718529
0.71853
0.71853
0.718531
0.718531
0.718531
0.718531
0.718532
0.718532
0.718532
0.718533
0.718533
0.718534
0.718534
0.718534
0.718535
0.718535
0.718536
0.718536
0.718536
0.718537
0.718537
0.718538
0.718538
0.718538
0.718539
0.718539
0.71854
0.71854
0.71854
0.718541
0.718541
0.718542
0.718542
0.718542
0.718543
0.718544
0.718544
0.718545
0.718545
0.718545
0.718546
0.718547
0.718547
0.718547
0.718548
0.718549
0.718549
0.71855
0.71855
0.718551
0.718551
0.718552
0.718553
0.718553
0.718553
0.718554
0.718555
0.718555
0.718555
0.718556
0.718557
0.718558
0.718558
0.718558
0.718559
0.71856
0.718561
0.718561
0.718561
0.718562
0.718563
0.718564
0.718565
0.718565
0.718565
0.718566
0.718567
0.718568
0.718568
0.718569
0.71857
0.71857
0.718571
0.718571
0.718572
0.718573
0.718574
0.718575
0.718575
0.718576
0.718577
0.718578
0.718578
0.718578
0.718579
0.71858
0.718581
0.718582
0.718582
0.718583
0.718584
0.718585
0.718586
0.718586
0.718587
0.718588
0.718589
0.71859
0.71859
0.718591
0.718592
0.718593
0.718594
0.718594
0.718595
0.718596
0.718597
0.718598
0.718598
0.7186
0.718601
0.718602
0.718603
0.718603
0.718604
0.718605
0.718606
0.718607
0.718607
0.718608
0.718609
0.718611
0.718612
0.718612
0.718613
0.718614
0.718615
0.718616
0.718616
0.718618
0.718619
0.71862
0.718621
0.718621
0.718622
0.718624
0.718625
0.718626
0.718626
0.718627
0.718629
0.71863
0.718631
0.718631
0.718632
0.718634
0.718635
0.718636
0.718636
0.718638
0.718639
0.71864
0.718642
0.718642
0.718643
0.718644
0.718646
0.718647
0.718647
0.718648
0.71865
0.718651
0.718652
0.718652
0.718654
0.718655
0.718657
0.718658
0.718658
0.718659
0.718661
0.718662
0.718664
0.718664
0.718665
0.718667
0.718668
0.71867
0.71867
0.718671
0.718673
0.718674
0.718676
0.718676
0.718677
0.718679
0.71868
0.718682
0.718682
0.718683
0.718685
0.718686
0.718688
0.718688
0.718689
0.718691
0.718693
0.718694
0.718694
0.718696
0.718697
0.718699
0.718701
0.718701
0.718702
0.718704
0.718705
0.718707
0.718707
0.718709
0.71871
0.718712
0.718714
0.718714
0.718715
0.718717
0.718719
0.71872
0.71872
0.718722
0.718724
0.718726
0.718727
0.718727
0.718729
0.718731
0.718733
0.718734
0.718734
0.718736
0.718738
0.71874
0.718741
0.718741
0.718743
0.718745
0.718747
0.718749
0.718749
0.71875
0.718752
0.718754
0.718756
0.718756
0.718758
0.71876
0.718762
0.718763
0.718763
0.718765
0.718767
0.718769
0.718771
0.718771
0.718773
0.718775
0.718777
0.718779
0.718779
0.718781
0.718783
0.718784
0.718786
0.718786
0.718788
0.71879
0.718792
0.718794
0.718794
0.718796
0.718798
0.7188
0.718802
0.718802
0.718804
0.718806
0.718808
0.718811
0.718811
0.718813
0.718815
0.718817
0.718819
0.718819
0.718821
0.718823
0.718825
0.718827
0.718827
0.718829
0.718831
0.718834
0.718836
0.718836
0.718838
0.71884
0.718842
0.718844
0.718844
0.718846
0.718849
0.718851
0.718853
0.718853
0.718855
0.718857
0.71886
0.718862
0.718862
0.718864
0.718866
0.718869
0.718871
0.718871
0.718873
0.718875
0.718878
0.71888
0.71888
0.718882
0.718884
0.718887
0.718889
0.718889
0.718891
0.718894
0.718896
0.718898
0.718898
0.718901
0.718903
0.718905
0.718908
0.718908
0.71891
0.718912
0.718915
0.718917
0.718917
0.71892
0.718922
0.718924
0.718927
0.718927
0.718929
0.718932
0.718934
0.718937
0.718937
0.718939
0.718942
0.718944
0.718947
0.718947
0.718949
0.718952
0.718954
0.718957
0.718957
0.718959
0.718962
0.718964
0.718967
0.718967
0.718969
0.718972
0.718974
0.718977
0.718977
0.718979
0.718982
0.718985
0.718987
0.718987
0.71899
0.718992
0.718995
0.718998
0.718998
0.719
0.719003
0.719006
0.719008
0.719008
0.719011
0.719014
0.719016
0.719019
0.719019
0.719022
0.719024
0.719027
0.71903
0.71903
0.719032
0.719035
0.719038
0.719041
0.719041
0.719043
0.719046
0.719049
0.719052
0.719052
0.719054
0.719057
0.71906
0.719063
0.719063
0.719066
0.719068
0.719071
0.719074
0.719074
0.719077
0.71908
0.719083
0.719085
0.719085
0.719088
0.719091
0.719094
0.719097
0.719097
0.7191
0.719103
0.719106
0.719108
0.719108
0.719111
0.719114
0.719117
0.71912
0.71912
0.719123
0.719126
0.719129
0.719132
0.719132
0.719135
0.719138
0.719141
0.719144
0.719144
0.719147
0.71915
0.719153
0.719156
0.719156
0.719159
0.719162
0.719165
0.719168
0.719168
0.719171
0.719174
0.719177
0.719181
0.719181
0.719184
0.719187
0.71919
0.719193
0.719193
0.719196
0.719199
0.719202
0.719205
0.719205
0.719209
0.719212
0.719215
0.719218
0.719218
0.719221
0.719224
0.719228
0.719231
0.719231
0.719234
0.719237
0.71924
0.719244
0.719244
0.719247
0.71925
0.719253
0.719257
0.719257
0.71926
0.719263
0.719267
0.71927
0.71927
0.719273
0.719276
0.71928
0.719283
0.719283
0.719286
0.71929
0.719293
0.719296
0.719296
0.7193
0.719303
0.719306
0.71931
0.71931
0.719313
0.719317
0.71932
0.719323
0.719323
0.719327
0.71933
0.719334
0.719337
0.719337
0.71934
0.719344
0.719347
0.719351
0.719351
0.719354
0.719358
0.719361
0.719365
0.719365
0.719368
0.719372
0.719375
0.719379
0.719379
0.719382
0.719386
0.719389
0.719393
0.719393
0.719396
0.7194
0.719404
0.719407
0.719407
0.719411
0.719414
0.719418
0.719421
0.719421
0.719425
0.719429
0.719432
0.719436
0.719436
0.71944
0.719443
0.719447
0.719451
0.719451
0.719454
0.719458
0.719462
0.719465
0.719465
0.719469
0.719473
0.719476
0.71948
0.71948
0.719484
0.719488
0.719491
0.719495
0.719495
0.719499
0.719503
0.719506
0.71951
0.71951
0.719514
0.719518
0.719521
0.719525
0.719525
0.719529
0.719533
0.719537
0.719541
0.719541
0.719544
0.719548
0.719552
0.719556
0.719556
0.71956
0.719564
0.719568
0.719571
0.719571
0.719575
0.719579
0.719583
0.719587
0.719587
0.719591
0.719595
0.719599
0.719603
0.719603
0.719607
0.719611
0.719615
0.719619
0.719619
0.719623
0.719627
0.719631
0.719635
0.719635
0.719639
0.719643
0.719647
0.719651
0.719651
0.719655
0.719659
0.719663
0.719667
0.719667
0.719671
0.719675
0.719679
0.719683
0.719683
0.719687
0.719692
0.719696
0.7197
0.7197
0.719704
0.719708
0.719712
0.719716
0.719716
0.71972
0.719725
0.719729
0.719733
0.719733
0.719737
0.719741
0.719746
0.71975
0.71975
0.719754
0.719758
0.719762
0.719767
0.719767
0.719771
0.719775
0.719779
0.719784
0.719784
0.719788
0.719792
0.719797
0.719801
0.719801
0.719805
0.719809
0.719814
0.719818
0.719818
0.719822
0.719827
0.719831
0.719835
0.719835
0.71984
0.719844
0.719848
0.719853
0.719853
0.719857
0.719862
0.719866
0.71987
0.71987
0.719875
0.719879
0.719884
0.719888
0.719888
0.719893
0.719897
0.719902
0.719906
0.719906
0.71991
0.719915
0.719919
0.719924
0.719924
0.719928
0.719933
0.719937
0.719942
0.719942
0.719946
0.719951
0.719956
0.71996
0.71996
0.719965
0.719969
0.719974
0.719978
0.719978
0.719983
0.719988
0.719992
0.719997
0.719997
0.720001
0.720006
0.720011
0.720015
0.720015
0.72002
0.720025
0.720029
0.720034
0.720034
0.720039
0.720043
0.720048
0.720053
0.720053
0.720057
0.720062
0.720067
0.720071
0.720071
0.720076
0.720081
0.720086
0.72009
0.72009
0.720095
0.7201
0.720105
0.72011
0.72011
0.720114
0.720119
0.720124
0.720129
0.720129
0.720134
0.720138
0.720143
0.720148
0.720148
0.720153
0.720158
0.720163
0.720167
0.720167
0.720172
0.720177
0.720182
0.720187
0.720187
0.720192
0.720197
0.720202
0.720207
0.720207
0.720212
0.720216
0.720221
0.720226
0.720226
0.720231
0.720236
0.720241
0.720246
0.720246
0.720251
0.720256
0.720261
0.720266
0.720266
0.720271
0.720276
0.720281
0.720286
0.720286
0.720291
0.720296
0.720302
0.720307
0.720307
0.720312
0.720317
0.720322
0.720327
0.720327
0.720332
0.720337
0.720342
0.720347
0.720347
0.720353
0.720358
0.720363
0.720368
0.720368
0.720373
0.720378
0.720383
0.720389
0.720389
0.720394
0.720399
0.720404
0.720409
0.720409
0.720415
0.72042
0.720425
0.72043
0.72043
0.720436
0.720441
0.720446
0.720451
0.720451
0.720457
0.720462
0.720467
0.720473
0.720473
0.720478
0.720483
0.720488
0.720494
0.720494
0.720499
0.720504
0.72051
0.720515
0.720515
0.720521
0.720526
0.720531
0.720537
0.720537
0.720542
0.720547
0.720553
0.720558
0.720558
0.720564
0.720569
0.720574
0.72058
0.72058
0.720585
0.720591
0.720596
0.720602
0.720602
0.720607
0.720613
0.720618
0.720624
0.720624
0.720629
0.720635
0.72064
0.720646
0.720646
0.720651
0.720657
0.720662
0.720668
0.720668
0.720673
0.720679
0.720685
0.72069
0.72069
0.720696
0.720701
0.720707
0.720713
0.720713
0.720718
0.720724
0.720729
0.720735
0.720735
0.720741
0.720746
0.720752
0.720758
0.720758
0.720763
0.720769
0.720775
0.720781
0.720781
0.720786
0.720792
0.720798
0.720803
0.720803
0.720809
0.720815
0.720821
0.720826
0.720826
0.720832
0.720838
0.720844
0.720849
0.720849
0.720855
0.720861
0.720867
0.720873
0.720873
0.720878
0.720884
0.72089
0.720896
0.720896
0.720902
0.720908
0.720913
0.720919
0.720919
0.720925
0.720931
0.720937
0.720943
0.720943
0.720949
0.720955
0.720961
0.720967
0.720967
0.720972
0.720978
0.720984
0.72099
0.72099
0.720996
0.721002
0.721008
0.721014
0.721014
0.72102
0.721026
0.721032
0.721038
0.721038
0.721044
0.72105
0.721056
0.721062
0.721062
0.721068
0.721074
0.72108
0.721087
0.721087
0.721093
0.721099
0.721105
0.721111
0.721111
0.721117
0.721123
0.721129
0.721135
0.721135
0.721141
0.721148
0.721154
0.72116
0.72116
0.721166
0.721172
0.721178
0.721185
0.721185
0.721191
0.721197
0.721203
0.721209
0.721209
0.721216
0.721222
0.721228
0.721234
0.721234
0.721241
0.721247
0.721253
0.721259
0.721259
0.721266
0.721272
0.721278
0.721285
0.721285
0.721291
0.721297
0.721303
0.72131
0.72131
0.721316
0.721322
0.721329
0.721335
0.721335
0.721341
0.721348
0.721354
0.721361
0.721361
0.721367
0.721373
0.72138
0.721386
0.721386
0.721393
0.721399
0.721405
0.721412
0.721412
0.721418
0.721425
0.721431
0.721438
0.721438
0.721444
0.721451
0.721457
0.721464
0.721464
0.72147
0.721477
0.721483
0.72149
0.72149
0.721496
0.721503
0.721509
0.721516
0.721516
0.721522
0.721529
0.721535
0.721542
0.721542
0.721549
0.721555
0.721562
0.721568
0.721568
0.721575
0.721581
0.721588
0.721594
0.721594
0.721601
0.721607
0.721614
0.72162
0.72162
0.721627
0.721633
0.72164
0.721646
0.721646
0.721652
0.721659
0.721665
0.721672
0.721672
0.721678
0.721684
0.721691
0.721697
0.721697
0.721703
0.721709
0.721716
0.721722
0.721722
0.721728
0.721734
0.721741
0.721747
0.721747
0.721753
0.721759
0.721765
0.721772
0.721772
0.721778
0.721784
0.72179
0.721796
0.721796
0.721803
0.721809
0.721815
0.721821
0.721821
0.721827
0.721833
0.72184
0.721846
0.721846
0.721852
0.721858
0.721865
0.721871
0.721871
0.721877
0.721883
0.721889
0.721896
0.721896
0.721902
0.721908
0.721915
0.721921
0.721921
0.721927
0.721933
0.72194
0.721946
0.721946
0.721952
0.721959
0.721965
0.721971
0.721971
0.721978
0.721984
0.72199
0.721997
0.721997
0.722003
0.722009
0.722016
0.722022
0.722022
0.722028
0.722035
0.722041
0.722048
0.722048
0.722054
0.72206
0.722067
0.722073
0.722073
0.72208
0.722086
0.722093
0.722099
0.722099
0.722106
0.722112
0.722118
0.722125
0.722125
0.722131
0.722138
0.722144
0.722151
0.722151
0.722157
0.722164
0.72217
0.722177
0.722177
0.722184
0.72219
0.722197
0.722203
0.722203
0.72221
0.722216
0.722223
0.722229
0.722229
0.722236
0.722243
0.722249
0.722256
0.722256
0.722262
0.722269
0.722276
0.722282
0.722282
0.722289
0.722296
0.722302
0.722309
0.722309
0.722316
0.722322
0.722329
0.722336
0.722336
0.722342
0.722349
0.722356
0.722362
0.722362
0.722369
0.722376
0.722383
0.722389
0.722389
0.722396
0.722403
0.72241
0.722416
0.722416
0.722423
0.72243
0.722437
0.722443
0.722443
0.72245
0.722457
0.722464
0.722471
0.722471
0.722477
0.722484
0.722491
0.722498
0.722498
0.722505
0.722512
0.722518
0.722525
0.722525
0.722532
0.722539
0.722546
0.722553
0.722553
0.72256
0.722567
0.722574
0.72258
0.72258
0.722587
0.722594
0.722601
0.722608
0.722608
0.722615
0.722622
0.722629
0.722636
0.722636
0.722643
0.72265
0.722657
0.722664
0.722664
0.722671
0.722678
0.722685
0.722692
0.722692
0.722699
0.722706
0.722713
0.72272
0.72272
0.722727
0.722734
0.722741
0.722748
0.722748
0.722755
0.722762
0.72277
0.722777
0.722777
0.722784
0.722791
0.722798
0.722805
0.722805
0.722812
0.722819
0.722826
0.722834
0.722834
0.722841
0.722848
0.722855
0.722862
0.722862
0.722869
0.722877
0.722884
0.722891
0.722891
0.722898
0.722905
0.722913
0.72292
0.72292
0.722927
0.722934
0.722941
0.722949
0.722949
0.722956
0.722963
0.72297
0.722978
0.722978
0.722985
0.722992
0.723
0.723007
0.723007
0.723014
0.723021
0.723029
0.723036
0.723036
0.723043
0.723051
0.723058
0.723065
0.723065
0.723073
0.72308
0.723088
0.723095
0.723095
0.723102
0.72311
0.723117
0.723124
0.723124
0.723132
0.723139
0.723147
0.723154
0.723154
0.723162
0.723169
0.723176
0.723184
0.723184
0.723191
0.723199
0.723206
0.723214
0.723214
0.723221
0.723229
0.723236
0.723244
0.723244
0.723251
0.723259
0.723266
0.723274
0.723274
0.723281
0.723289
0.723296
0.723304
0.723304
0.723311
0.723319
0.723327
0.723334
0.723334
0.723342
0.723349
0.723357
0.723365
0.723365
0.723372
0.72338
0.723387
0.723395
0.723395
0.723403
0.72341
0.723418
0.723426
0.723426
0.723433
0.723441
0.723449
0.723456
0.723456
0.723464
0.723472
0.723479
0.723487
0.723487
0.723495
0.723502
0.72351
0.723518
0.723518
0.723526
0.723533
0.723541
0.723549
0.723549
0.723557
0.723564
0.723572
0.72358
0.72358
0.723588
0.723596
0.723603
0.723611
0.723611
0.723619
0.723627
0.723635
0.723642
0.723642
0.72365
0.723658
0.723666
0.723674
0.723674
0.723682
0.72369
0.723697
0.723705
0.723705
0.723713
0.723721
0.723729
0.723737
0.723737
0.723745
0.723753
0.723761
0.723769
0.723769
0.723776
0.723784
0.723792
0.7238
0.7238
0.723808
0.723816
0.723824
0.723832
0.723832
0.72384
0.723848
0.723856
0.723864
0.723864
0.723872
0.72388
0.723888
0.723896
0.723896
0.723904
0.723912
0.72392
0.723929
0.723929
0.723937
0.723945
0.723953
0.723961
0.723961
0.723969
0.723977
0.723985
0.723993
0.723993
0.724001
0.724009
0.724018
0.724026
0.724026
0.724034
0.724042
0.72405
0.724058
0.724058
0.724067
0.724075
0.724083
0.724091
0.724091
0.724099
0.724107
0.724116
0.724124
0.724124
0.724132
0.72414
0.724149
0.724157
0.724157
0.724165
0.724173
0.724182
0.72419
0.72419
0.724198
0.724206
0.724215
0.724223
0.724223
0.724231
0.72424
0.724248
0.724256
0.724256
0.724264
0.724273
0.724281
0.724289
0.724289
0.724298
0.724306
0.724315
0.724323
0.724323
0.724331
0.72434
0.724348
0.724356
0.724356
0.724365
0.724373
0.724382
0.72439
0.72439
0.724398
0.724407
0.724415
0.724424
0.724424
0.724432
0.724441
0.724449
0.724458
0.724458
0.724466
0.724475
0.724483
0.724492
0.724492
0.7245
0.724509
0.724517
0.724526
0.724526
0.724534
0.724543
0.724551
0.72456
0.72456
0.724568
0.724577
0.724585
0.724594
0.724594
0.724602
0.724611
0.72462
0.724628
0.724628
0.724637
0.724645
0.724654
0.724663
0.724663
0.724671
0.72468
0.724689
0.724697
0.724697
0.724706
0.724715
0.724723
0.724732
0.724732
0.724741
0.724749
0.724758
0.724767
0.724767
0.724775
0.724784
0.724793
0.724801
0.724801
0.72481
0.724819
0.724828
0.724836
0.724836
0.724845
0.724854
0.724863
0.724871
0.724871
0.72488
0.724889
0.724898
0.724907
0.724907
0.724915
0.724924
0.724933
0.724942
0.724942
0.724951
0.72496
0.724968
0.724977
0.724977
0.724986
0.724995
0.725004
0.725013
0.725013
0.725022
0.72503
0.725039
0.725048
0.725048
0.725057
0.725066
0.725075
0.725084
0.725084
0.725093
0.725102
0.725111
0.72512
0.72512
0.725129
0.725138
0.725147
0.725156
0.725156
0.725165
0.725174
0.725183
0.725192
0.725192
0.725201
0.72521
0.725219
0.725228
0.725228
0.725237
0.725246
0.725255
0.725264
0.725264
0.725273
0.725282
0.725291
0.7253
0.7253
0.725309
0.725318
0.725327
0.725336
0.725336
0.725345
0.725355
0.725364
0.725373
0.725373
0.725382
0.725391
0.7254
0.725409
0.725409
0.725419
0.725428
0.725437
0.725446
0.725446
0.725455
0.725464
0.725474
0.725483
0.725483
0.725492
0.725501
0.725511
0.72552
0.72552
0.725529
0.725538
0.725547
0.725557
0.725557
0.725566
0.725575
0.725584
0.725594
0.725594
0.725603
0.725612
0.725621
0.725631
0.725631
0.72564
0.725649
0.725658
0.725668
0.725668
0.725677
0.725686
0.725695
0.725704
0.725704
0.725714
0.725723
0.725732
0.725741
0.725741
0.72575
0.725759
0.725768
0.725777
0.725777
0.725786
0.725795
0.725804
0.725813
0.725813
0.725822
0.725831
0.72584
0.725849
0.725849
0.725857
0.725866
0.725875
0.725884
0.725884
0.725892
0.725901
0.72591
0.725918
0.725918
0.725927
0.725936
0.725944
0.725953
0.725953
0.725962
0.72597
0.725979
0.725987
0.725987
0.725996
0.726004
0.726013
0.726022
0.726022
0.72603
0.726039
0.726047
0.726056
0.726056
0.726065
0.726073
0.726082
0.72609
0.72609
0.726099
0.726108
0.726116
0.726125
0.726125
0.726133
0.726142
0.726151
0.726159
0.726159
0.726168
0.726177
0.726185
0.726194
0.726194
0.726203
0.726211
0.72622
0.726229
0.726229
0.726237
0.726246
0.726255
0.726263
0.726263
0.726272
0.726281
0.72629
0.726298
0.726298
0.726307
0.726316
0.726324
0.726333
0.726333
0.726342
0.726351
0.72636
0.726368
0.726368
0.726377
0.726386
0.726395
0.726403
0.726403
0.726412
0.726421
0.72643
0.726439
0.726439
0.726448
0.726456
0.726465
0.726474
0.726474
0.726483
0.726492
0.726501
0.726509
0.726509
0.726518
0.726527
0.726536
0.726545
0.726545
0.726554
0.726563
0.726572
0.726581
0.726581
0.72659
0.726598
0.726607
0.726616
0.726616
0.726625
0.726634
0.726643
0.726652
0.726652
0.726661
0.72667
0.726679
0.726688
0.726688
0.726697
0.726706
0.726715
0.726724
0.726724
0.726733
0.726742
0.726751
0.72676
0.72676
0.726769
0.726778
0.726787
0.726796
0.726796
0.726805
0.726814
0.726823
0.726832
0.726832
0.726842
0.726851
0.72686
0.726869
0.726869
0.726878
0.726887
0.726896
0.726905
0.726905
0.726914
0.726923
0.726933
0.726942
0.726942
0.726951
0.72696
0.726969
0.726978
0.726978
0.726988
0.726997
0.727006
0.727015
0.727015
0.727024
0.727033
0.727043
0.727052
0.727052
0.727061
0.72707
0.72708
0.727089
0.727089
0.727098
0.727107
0.727116
0.727126
0.727126
0.727135
0.727144
0.727154
0.727163
0.727163
0.727172
0.727181
0.727191
0.7272
0.7272
0.727209
0.727219
0.727228
0.727237
0.727237
0.727247
0.727256
0.727265
0.727275
0.727275
0.727284
0.727293
0.727303
0.727312
0.727312
0.727321
0.727331
0.72734
0.72735
0.72735
0.727359
0.727368
0.727378
0.727387
0.727387
0.727397
0.727406
0.727415
0.727425
0.727425
0.727434
0.727444
0.727453
0.727463
0.727463
0.727472
0.727482
0.727491
0.727501
0.727501
0.72751
0.72752
0.727529
0.727539
0.727539
0.727548
0.727558
0.727567
0.727577
0.727577
0.727586
0.727596
0.727605
0.727615
0.727615
0.727624
0.727634
0.727644
0.727653
0.727653
0.727663
0.727672
0.727682
0.727692
0.727692
0.727701
0.727711
0.72772
0.72773
0.72773
0.72774
0.727749
0.727759
0.727769
0.727769
0.727778
0.727788
0.727797
0.727807
0.727807
0.727817
0.727827
0.727836
0.727846
0.727846
0.727856
0.727865
0.727875
0.727885
0.727885
0.727894
0.727904
0.727914
0.727924
0.727924
0.727933
0.727943
0.727953
0.727963
0.727963
0.727972
0.727982
0.727992
0.728002
0.728002
0.728012
0.728021
0.728031
0.728041
0.728041
0.728051
0.728061
0.72807
0.72808
0.72808
0.72809
0.7281
0.72811
0.72812
0.72812
0.728129
0.728139
0.728149
0.728159
0.728159
0.728169
0.728179
0.728189
0.728199
0.728199
0.728209
0.728218
0.728228
0.728238
0.728238
0.728248
0.728258
0.728268
0.728278
0.728278
0.728288
0.728298
0.728308
0.728318
0.728318
0.728328
0.728338
0.728348
0.728358
0.728358
0.728368
0.728378
0.728388
0.728398
0.728398
0.728408
0.728418
0.728428
0.728438
0.728438
0.728448
0.728458
0.728468
0.728478
0.728478
0.728488
0.728498
0.728508
0.728518
0.728518
0.728528
0.728539
0.728549
0.728559
0.728559
0.728569
0.728579
0.728589
0.728599
0.728599
0.728609
0.72862
0.72863
0.72864
0.72864
0.72865
0.72866
0.72867
0.72868
0.72868
0.728691
0.728701
0.728711
0.728721
0.728721
0.728731
0.728742
0.728752
0.728762
0.728762
0.728772
0.728783
0.728793
0.728803
0.728803
0.728813
0.728824
0.728834
0.728844
0.728844
0.728854
0.728865
0.728875
0.728885
0.728885
0.728895
0.728906
0.728916
0.728926
0.728926
0.728937
0.728947
0.728957
0.728968
0.728968
0.728978
0.728988
0.728999
0.729009
0.729009
0.729019
0.72903
0.72904
0.729051
0.729051
0.729061
0.729071
0.729082
0.729092
0.729092
0.729103
0.729113
0.729123
0.729134
0.729134
0.729144
0.729155
0.729165
0.729176
0.729176
0.729186
0.729196
0.729207
0.729217
0.729217
0.729228
0.729238
0.729249
0.729259
0.729259
0.729269
0.72928
0.72929
0.729301
0.729301
0.729311
0.729321
0.729332
0.729342
0.729342
0.729353
0.729363
0.729373
0.729383
0.729383
0.729394
0.729404
0.729414
0.729424
0.729424
0.729434
0.729445
0.729455
0.729465
0.729465
0.729475
0.729485
0.729495
0.729505
0.729505
0.729515
0.729524
0.729534
0.729544
0.729544
0.729554
0.729564
0.729573
0.729583
0.729583
0.729593
0.729603
0.729612
0.729622
0.729622
0.729632
0.729641
0.729651
0.729661
0.729661
0.72967
0.72968
0.729689
0.729699
0.729699
0.729709
0.729718
0.729728
0.729737
0.729737
0.729747
0.729757
0.729766
0.729776
0.729776
0.729785
0.729795
0.729804
0.729814
0.729814
0.729824
0.729833
0.729843
0.729853
0.729853
0.729862
0.729872
0.729881
0.729891
0.729891
0.729901
0.72991
0.72992
0.72993
0.72993
0.729939
0.729949
0.729959
0.729968
0.729968
0.729978
0.729988
0.729998
0.730007
0.730007
0.730017
0.730027
0.730036
0.730046
0.730046
0.730056
0.730066
0.730075
0.730085
0.730085
0.730095
0.730105
0.730114
0.730124
0.730124
0.730134
0.730144
0.730153
0.730163
0.730163
0.730173
0.730183
0.730193
0.730202
0.730202
0.730212
0.730222
0.730232
0.730242
0.730242
0.730252
0.730261
0.730271
0.730281
0.730281
0.730291
0.730301
0.730311
0.730321
0.730321
0.73033
0.73034
0.73035
0.73036
0.73036
0.73037
0.73038
0.73039
0.7304
0.7304
0.73041
0.73042
0.730429
0.730439
0.730439
0.730449
0.730459
0.730469
0.730479
0.730479
0.730489
0.730499
0.730509
0.730519
0.730519
0.730529
0.730539
0.730549
0.730559
0.730559
0.730569
0.730579
0.730589
0.730599
0.730599
0.730609
0.730619
0.730629
0.730639
0.730639
0.730649
0.730659
0.730669
0.730679
0.730679
0.73069
0.7307
0.73071
0.73072
0.73072
0.73073
0.73074
0.73075
0.73076
0.73076
0.73077
0.73078
0.73079
0.730801
0.730801
0.730811
0.730821
0.730831
0.730841
0.730841
0.730851
0.730861
0.730872
0.730882
0.730882
0.730892
0.730902
0.730912
0.730923
0.730923
0.730933
0.730943
0.730953
0.730963
0.730963
0.730974
0.730984
0.730994
0.731004
0.731004
0.731014
0.731025
0.731035
0.731045
0.731045
0.731055
0.731066
0.731076
0.731086
0.731086
0.731097
0.731107
0.731117
0.731127
0.731127
0.731138
0.731148
0.731158
0.731169
0.731169
0.731179
0.731189
0.7312
0.73121
0.73121
0.73122
0.731231
0.731241
0.731251
0.731251
0.731262
0.731272
0.731282
0.731293
0.731293
0.731303
0.731314
0.731324
0.731334
0.731334
0.731345
0.731355
0.731366
0.731376
0.731376
0.731387
0.731397
0.731407
0.731418
0.731418
0.731428
0.731439
0.731449
0.73146
0.73146
0.73147
0.731481
0.731491
0.731502
0.731502
0.731512
0.731523
0.731533
0.731544
0.731544
0.731554
0.731565
0.731575
0.731586
0.731586
0.731596
0.731607
0.731617
0.731628
0.731628
0.731638
0.731649
0.731659
0.73167
0.73167
0.731681
0.731691
0.731702
0.731712
0.731712
0.731723
0.731734
0.731744
0.731755
0.731755
0.731765
0.731776
0.731787
0.731797
0.731797
0.731808
0.731819
0.731829
0.73184
0.73184
0.731851
0.731861
0.731872
0.731883
0.731883
0.731893
0.731904
0.731915
0.731925
0.731925
0.731936
0.731947
0.731957
0.731968
0.731968
0.731979
0.73199
0.732
0.732011
0.732011
0.732022
0.732033
0.732043
0.732054
0.732054
0.732065
0.732076
0.732086
0.732097
0.732097
0.732108
0.732119
0.73213
0.73214
0.73214
0.732151
0.732162
0.732173
0.732184
0.732184
0.732195
0.732205
0.732216
0.732227
0.732227
0.732238
0.732249
0.73226
0.732271
0.732271
0.732281
0.732292
0.732303
0.732314
0.732314
0.732325
0.732336
0.732347
0.732358
0.732358
0.732368
0.732379
0.73239
0.732401
0.732401
0.732412
0.732423
0.732434
0.732445
0.732445
0.732456
0.732467
0.732477
0.732488
0.732488
0.732499
0.73251
0.732521
0.732532
0.732532
0.732543
0.732553
0.732564
0.732575
0.732575
0.732586
0.732596
0.732607
0.732618
0.732618
0.732628
0.732639
0.732649
0.73266
0.73266
0.732671
0.732681
0.732691
0.732702
0.732702
0.732712
0.732723
0.732733
0.732743
0.732743
0.732754
0.732764
0.732774
0.732784
0.732784
0.732794
0.732805
0.732815
0.732825
0.732825
0.732835
0.732845
0.732855
0.732865
0.732865
0.732875
0.732885
0.732895
0.732905
0.732905
0.732915
0.732925
0.732935
0.732945
0.732945
0.732955
0.732965
0.732975
0.732984
0.732984
0.732994
0.733004
0.733014
0.733024
0.733024
0.733034
0.733044
0.733054
0.733064
0.733064
0.733074
0.733084
0.733094
0.733104
0.733104
0.733114
0.733124
0.733134
0.733144
0.733144
0.733154
0.733164
0.733174
0.733184
0.733184
0.733194
0.733204
0.733214
0.733224
0.733224
0.733234
0.733244
0.733254
0.733264
0.733264
0.733274
0.733284
0.733294
0.733304
0.733304
0.733314
0.733324
0.733335
0.733345
0.733345
0.733355
0.733365
0.733375
0.733385
0.733385
0.733395
0.733405
0.733415
0.733425
0.733425
0.733436
0.733446
0.733456
0.733466
0.733466
0.733476
0.733486
0.733497
0.733507
0.733507
0.733517
0.733527
0.733537
0.733547
0.733547
0.733558
0.733568
0.733578
0.733588
0.733588
0.733598
0.733609
0.733619
0.733629
0.733629
0.733639
0.73365
0.73366
0.73367
0.73367
0.73368
0.733691
0.733701
0.733711
0.733711
0.733721
0.733732
0.733742
0.733752
0.733752
0.733762
0.733773
0.733783
0.733793
0.733793
0.733804
0.733814
0.733824
0.733835
0.733835
0.733845
0.733855
0.733866
0.733876
0.733876
0.733886
0.733897
0.733907
0.733917
0.733917
0.733928
0.733938
0.733948
0.733959
0.733959
0.733969
0.73398
0.73399
0.734
0.734
0.734011
0.734021
0.734032
0.734042
0.734042
0.734053
0.734063
0.734073
0.734084
0.734084
0.734094
0.734105
0.734115
0.734126
0.734126
0.734136
0.734147
0.734157
0.734168
0.734168
0.734178
0.734189
0.734199
0.73421
0.73421
0.73422
0.734231
0.734241
0.734252
0.734252
0.734262
0.734273
0.734283
0.734294
0.734294
0.734304
0.734315
0.734325
0.734336
0.734336
0.734347
0.734357
0.734368
0.734378
0.734378
0.734389
0.734399
0.73441
0.734421
0.734421
0.734431
0.734442
0.734453
0.734463
0.734463
0.734474
0.734484
0.734495
0.734506
0.734506
0.734516
0.734527
0.734538
0.734548
0.734548
0.734559
0.73457
0.73458
0.734591
0.734591
0.734602
0.734612
0.734623
0.734634
0.734634
0.734645
0.734655
0.734666
0.734677
0.734677
0.734687
0.734698
0.734709
0.73472
0.73472
0.73473
0.734741
0.734752
0.734763
0.734763
0.734773
0.734784
0.734795
0.734806
0.734806
0.734817
0.734827
0.734838
0.734849
0.734849
0.73486
0.734871
0.734881
0.734892
0.734892
0.734903
0.734914
0.734925
0.734936
0.734936
0.734946
0.734957
0.734968
0.734979
0.734979
0.73499
0.735001
0.735012
0.735023
0.735023
0.735033
0.735044
0.735055
0.735066
0.735066
0.735077
0.735088
0.735099
0.73511
0.73511
0.735121
0.735132
0.735143
0.735153
0.735153
0.735164
0.735175
0.735186
0.735197
0.735197
0.735208
0.735219
0.73523
0.735241
0.735241
0.735252
0.735263
0.735274
0.735285
0.735285
0.735296
0.735307
0.735317
0.735328
0.735328
0.735339
0.73535
0.735361
0.735372
0.735372
0.735382
0.735393
0.735404
0.735415
0.735415
0.735425
0.735436
0.735447
0.735457
0.735457
0.735468
0.735479
0.735489
0.7355
0.7355
0.73551
0.73552
0.735531
0.735541
0.735541
0.735552
0.735562
0.735572
0.735582
0.735582
0.735593
0.735603
0.735613
0.735623
0.735623
0.735633
0.735643
0.735653
0.735664
0.735664
0.735674
0.735684
0.735694
0.735704
0.735704
0.735713
0.735723
0.735733
0.735743
0.735743
0.735753
0.735763
0.735773
0.735783
0.735783
0.735793
0.735803
0.735813
0.735823
0.735823
0.735833
0.735842
0.735852
0.735862
0.735862
0.735872
0.735882
0.735892
0.735902
0.735902
0.735912
0.735922
0.735932
0.735942
0.735942
0.735952
0.735962
0.735972
0.735982
0.735982
0.735991
0.736001
0.736011
0.736021
0.736021
0.736031
0.736041
0.736051
0.736061
0.736061
0.736071
0.736081
0.736091
0.736101
0.736101
0.736111
0.736121
0.736131
0.736141
0.736141
0.736152
0.736162
0.736172
0.736182
0.736182
0.736192
0.736202
0.736212
0.736222
0.736222
0.736232
0.736242
0.736252
0.736262
0.736262
0.736272
0.736282
0.736293
0.736303
0.736303
0.736313
0.736323
0.736333
0.736343
0.736343
0.736353
0.736363
0.736374
0.736384
0.736384
0.736394
0.736404
0.736414
0.736424
0.736424
0.736434
0.736445
0.736455
0.736465
0.736465
0.736475
0.736485
0.736496
0.736506
0.736506
0.736516
0.736526
0.736536
0.736547
0.736547
0.736557
0.736567
0.736577
0.736588
0.736588
0.736598
0.736608
0.736618
0.736629
0.736629
0.736639
0.736649
0.736659
0.73667
0.73667
0.73668
0.73669
0.736701
0.736711
0.736711
0.736721
0.736731
0.736742
0.736752
0.736752
0.736762
0.736773
0.736783
0.736793
0.736793
0.736804
0.736814
0.736824
0.736835
0.736835
0.736845
0.736856
0.736866
0.736876
0.736876
0.736887
0.736897
0.736907
0.736918
0.736918
0.736928
0.736939
0.736949
0.736959
0.736959
0.73697
0.73698
0.736991
0.737001
0.737001
0.737012
0.737022
0.737033
0.737043
0.737043
0.737053
0.737064
0.737074
0.737085
0.737085
0.737095
0.737106
0.737116
0.737127
0.737127
0.737137
0.737148
0.737158
0.737169
0.737169
0.737179
0.73719
0.7372
0.737211
0.737211
0.737221
0.737232
0.737243
0.737253
0.737253
0.737264
0.737274
0.737285
0.737295
0.737295
0.737306
0.737316
0.737327
0.737338
0.737338
0.737348
0.737359
0.737369
0.73738
0.73738
0.737391
0.737401
0.737412
0.737423
0.737423
0.737433
0.737444
0.737454
0.737465
0.737465
0.737476
0.737486
0.737497
0.737508
0.737508
0.737518
0.737529
0.73754
0.73755
0.73755
0.737561
0.737572
0.737582
0.737593
0.737593
0.737604
0.737615
0.737625
0.737636
0.737636
0.737647
0.737657
0.737668
0.737679
0.737679
0.73769
0.7377
0.737711
0.737722
0.737722
0.737732
0.737743
0.737754
0.737764
0.737764
0.737775
0.737786
0.737796
0.737807
0.737807
0.737818
0.737828
0.737839
0.737849
0.737849
0.73786
0.73787
0.737881
0.737891
0.737891
0.737902
0.737912
0.737922
0.737933