<?xml version="1.0"?>
<VTKFile type="UnstructuredGrid" version="0.1" byte_order="LittleEndian">
<UnstructuredGrid>
<Piece NumberOfPoints="5000" NumberOfCells="4000">
<PointData Scalars="Reaction 0">
<DataArray type="Float32" Name="Reaction 0" format="ascii">
0.908582
0.908582
0.908582
0.908582
0.908582
0.908582
0.908582
0.908582
0.908581
0.908581
0.908581
0.908581
0.908581
0.908581
0.908581
0.908581
0.908581
0.908581
0.908581
0.908581
0.908581
0.908581
0.908581
0.908581
0.908581
0.908581
0.908581
0.908581
0.908581
0.908581
0.908581
0.908581
0.908581
0.908581
0.908581
0.908581
0.908581
0.908581
0.908581
0.908581
0.908581
0.908581
0.908581
0.908581
0.90858
0.90858
0.90858
0.90858
0.90858
0.90858
0.90858
0.90858
0.90858
0.90858
0.90858
0.90858
0.90858
0.90858
0.90858
0.90858
0.90858
0.90858
0.908579
0.908579
0.908579
0.908579
0.908579
0.908579
0.908579
0.908579
0.908579
0.908579
0.908579
0.908579
0.908579
0.908579
0.908578
0.908578
0.908578
0.908578
0.908578
0.908578
0.908578
0.908578
0.908578
0.908578
0.908578
0.908577
0.908577
0.908577
0.908577
0.908577
0.908577
0.908577
0.908577
0.908577
0.908577
0.908576
0.908576
0.908576
0.908576
0.908576
0.908576
0.908576
0.908576
0.908576
0.908575
0.908575
0.908575
0.908575
0.908575
0.908575
0.908575
0.908575
0.908574
0.908574
0.908574
0.908574
0.908574
0.908574
0.908574
0.908574
0.908573
0.908573
0.908573
0.908573
0.908573
0.908573
0.908573
0.908572
0.908572
0.908572
0.908572
0.908572
0.908572
0.908572
0.908572
0.908571
0.908571
0.908571
0.908571
0.908571
0.908571
0.90857
0.90857
0.90857
0.90857
0.90857
0.90857
0.908569
0.908569
0.908569
0.908569
0.908569
0.908569
0.908569
0.908568
0.908568
0.908568
0.908568
0.908568
0.908568
0.908567
0.908567
0.908567
0.908567
0.908567
0.908566
0.908566
0.908566
0.908566
0.908566
0.908565
0.908565
0.908565
0.908565
0.908565
0.908565
0.908564
0.908564
0.908564
0.908564
0.908564
0.908563
0.908563
0.908563
0.908563
0.908563
0.908562
0.908562
0.908562
0.908562
0.908562
0.908561
0.908561
0.908561
0.908561
0.90856
0.90856
0.90856
0.90856
0.90856
0.908559
0.908559
0.908559
0.908559
0.908559
0.908558
0.908558
0.908558
0.908558
0.908557
0.908557
0.908557
0.908557
0.908557
0.908556
0.908556
0.908556
0.908555
0.908555
0.908555
0.908555
0.908555
0.908554
0.908554
0.908554
0.908554
0.908553
0.908553
0.908553
0.908553
0.908552
0.908552
0.908552
0.908552
0.908551
0.908551
0.908551
0.90855
0.90855
0.90855
0.90855
0.908549
0.908549
0.908549
0.908549
0.908548
0.908548
0.908548
0.908548
0.908547
0.908547
0.908547
0.908546
0.908546
0.908546
0.908546
0.908545
0.908545
0.908545
0.908545
0.908544
0.908544
0.908544
0.908544
0.908543
0.908543
0.908543
0.908542
0.908542
0.908542
0.908541
0.908541
0.908541
0.908541
0.90854
0.90854
0.90854
0.908539
0.908539
0.908539
0.908538
0.908538
0.908538
0.908538
0.908537
0.908537
0.908537
0.908536
0.908536
0.908536
0.908535
0.908535
0.908535
0.908535
0.908534
0.908534
0.908533
0.908533
0.908533
0.908533
0.908532
0.908532
0.908531
0.908531
0.908531
0.908531
0.90853
0.90853
0.90853
0.908529
0.908529
0.908528
0.908528
0.908528
0.908528
0.908527
0.908527
0.908526
0.908526
0.908526
0.908525
0.908525
0.908525
0.908525
0.908524
0.908524
0.908523
0.908523
0.908523
0.908522
0.908522
0.908521
0.908521
0.908521
0.908521
0.90852
0.90852
0.908519
0.908519
0.908519
0.908518
0.908518
0.908517
0.908517
0.908517
0.908516
0.908516
0.908516
0.908516
0.908515
0.908515
0.908514
0.908514
0.908514
0.908513
0.908513
0.908512
0.908512
0.908512
0.908511
0.908511
0.90851
0.90851
0.90851
0.908509
0.908509
0.908508
0.908508
0.908508
0.908507
0.908507
0.908506
0.908506
0.908506
0.908505
0.908505
0.908504
0.908504
0.908504
0.908503
0.908503
0.908502
0.908502
0.908502
0.908501
0.908501
0.9085
0.9085
0.9085
0.908499
0.908499
0.908498
0.908497
0.908497
0.908497
0.908496
0.908496
0.908495
0.908495
0.908495
0.908494
0.908494
0.908493
0.908493
0.908493
0.908492
0.908492
0.908491
0.908491
0.90849
0.90849
0.908489
0.908489
0.908489
0.908488
0.908488
0.908487
0.908487
0.908487
0.908486
0.908485
0.908485
0.908484
0.908484
0.908484
0.908483
0.908483
0.908482
0.908482
0.908481
0.908481
0.90848
0.90848
0.90848
0.908479
0.908478
0.908478
0.908477
0.908477
0.908477
0.908476
0.908475
0.908475
0.908475
0.908474
0.908474
0.908473
0.908472
0.908472
0.908472
0.908471
0.908471
0.90847
0.90847
0.908469
0.908469
0.908468
0.908468
0.908468
0.908467
0.908466
0.908466
0.908465
0.908465
0.908464
0.908464
0.908463
0.908463
0.908463
0.908462
0.908461
0.908461
0.90846
0.90846
0.908459
0.908459
0.908458
0.908458
0.908458
0.908457
0.908456
0.908456
0.908455
0.908455
0.908454
0.908454
0.908453
0.908452
0.908452
0.908452
0.908451
0.90845
0.90845
0.90845
0.908449
0.908448
0.908448
0.908447
0.908447
0.908446
0.908446
0.908445
0.908444
0.908444
0.908444
0.908443
0.908442
0.908442
0.908442
0.908441
0.90844
0.90844
0.908439
0.908439
0.908438
0.908437
0.908437
0.908436
0.908436
0.908435
0.908435
0.908434
0.908433
0.908433
0.908433
0.908432
0.908431
0.90843
0.90843
0.90843
0.908429
0.908428
0.908428
0.908428
0.908427
0.908426
0.908425
0.908425
0.908425
0.908424
0.908423
0.908423
0.908422
0.908422
0.908421
0.90842
0.90842
0.908419
0.908419
0.908418
0.908417
0.908417
0.908416
0.908416
0.908415
0.908414
0.908414
0.908413
0.908413
0.908412
0.908411
0.908411
0.90841
0.90841
0.908409
0.908408
0.908408
0.908407
0.908407
0.908406
0.908405
0.908405
0.908404
0.908404
0.908403
0.908402
0.908401
0.908401
0.908401
0.9084
0.908399
0.908398
0.908398
0.908398
0.908397
0.908396
0.908395
0.908394
0.908394
0.908394
0.908393
0.908392
0.908391
0.908391
0.90839
0.90839
0.908389
0.908388
0.908388
0.908387
0.908386
0.908386
0.908385
0.908385
0.908384
0.908383
0.908382
0.908382
0.908382
0.908381
0.90838
0.908379
0.908378
0.908378
0.908378
0.908377
0.908376
0.908375
0.908375
0.908374
0.908373
0.908373
0.908372
0.908372
0.908371
0.90837
0.908369
0.908368
0.908368
0.908368
0.908367
0.908366
0.908365
0.908365
0.908364
0.908363
0.908362
0.908362
0.908362
0.908361
0.90836
0.908359
0.908358
0.908358
0.908357
0.908356
0.908356
0.908355
0.908355
0.908354
0.908353
0.908352
0.908351
0.908351
0.90835
0.908349
0.908349
0.908348
0.908348
0.908347
0.908346
0.908345
0.908344
0.908344
0.908343
0.908342
0.908342
0.908341
0.908341
0.90834
0.908339
0.908338
0.908337
0.908337
0.908336
0.908335
0.908334
0.908333
0.908333
0.908333
0.908332
0.908331
0.90833
0.90833
0.908329
0.908328
0.908327
0.908326
0.908326
0.908325
0.908324
0.908323
0.908322
0.908322
0.908321
0.908321
0.90832
0.908319
0.908319
0.908318
0.908317
0.908316
0.908315
0.908315
0.908314
0.908313
0.908312
0.908311
0.908311
0.90831
0.908309
0.908308
0.908307
0.908307
0.908306
0.908305
0.908305
0.908304
0.908304
0.908303
0.908302
0.908301
0.9083
0.9083
0.908299
0.908298
0.908297
0.908296
0.908296
0.908295
0.908294
0.908293
0.908292
0.908292
0.908291
0.90829
0.908289
0.908288
0.908288
0.908287
0.908286
0.908285
0.908284
0.908284
0.908283
0.908282
0.908281
0.90828
0.90828
0.908279
0.908278
0.908277
0.908276
0.908276
0.908275
0.908274
0.908273
0.908272
0.908272
0.908271
0.90827
0.908269
0.908268
0.908268
0.908267
0.908266
0.908265
0.908264
0.908264
0.908263
0.908262
0.908261
0.90826
0.90826
0.908259
0.908258
0.908257
0.908256
0.908256
0.908255
0.908254
0.908253
0.908252
0.908252
0.908251
0.908249
0.908248
0.908247
0.908247
0.908246
0.908245
0.908244
0.908243
0.908243
0.908242
0.908241
0.90824
0.908239
0.908239
0.908238
0.908237
0.908236
0.908235
0.908235
0.908234
0.908233
0.908231
0.90823
0.90823
0.908229
0.908228
0.908227
0.908226
0.908226
0.908225
0.908224
0.908223
0.908222
0.908222
0.908221
0.90822
0.908218
0.908217
0.908217
0.908216
0.908215
0.908214
0.908213
0.908213
0.908212
0.908211
0.90821
0.908209
0.908209
0.908207
0.908206
0.908205
0.908204
0.908204
0.908203
0.908202
0.908201
0.9082
0.9082
0.908199
0.908197
0.908196
0.908195
0.908195
0.908194
0.908193
0.908192
0.908191
0.908191
0.90819
0.908188
0.908187
0.908186
0.908186
0.908185
0.908184
0.908183
0.908182
0.908182
0.90818
0.908179
0.908178
0.908177
0.908177
0.908176
0.908175
0.908174
0.908172
0.908172
0.908171
0.90817
0.908169
0.908168
0.908168
0.908167
0.908165
0.908164
0.908163
0.908163
0.908162
0.908161
0.90816
0.908158
0.908158
0.908157
0.908156
0.908155
0.908154
0.908154
0.908153
0.908151
0.90815
0.908149
0.908149
0.908148
0.908147
0.908145
0.908144
0.908144
0.908143
0.908142
0.908141
0.908139
0.908139
0.908138
0.908137
0.908136
0.908135
0.908135
0.908133
0.908132
0.908131
0.90813
0.90813
0.908129
0.908127
0.908126
0.908125
0.908125
0.908124
0.908122
0.908121
0.90812
0.90812
0.908119
0.908118
0.908116
0.908115
0.908115
0.908114
0.908113
0.908111
0.90811
0.90811
0.908109
0.908108
0.908106
0.908105
0.908105
0.908104
0.908103
0.908101
0.9081
0.9081
0.908099
0.908098
0.908096
0.908095
0.908095
0.908094
0.908093
0.908091
0.90809
0.90809
0.908089
0.908088
0.908086
0.908085
0.908085
0.908084
0.908082
0.908081
0.90808
0.90808
0.908079
0.908077
0.908076
0.908075
0.908075
0.908074
0.908072
0.908071
0.90807
0.90807
0.908068
0.908067
0.908066
0.908065
0.908065
0.908063
0.908062
0.908061
0.908059
0.908059
0.908058
0.908057
0.908055
0.908054
0.908054
0.908053
0.908051
0.90805
0.908049
0.908049
0.908048
0.908046
0.908045
0.908044
0.908044
0.908042
0.908041
0.90804
0.908038
0.908038
0.908037
0.908036
0.908034
0.908033
0.908033
0.908032
0.90803
0.908029
0.908028
0.908028
0.908026
0.908025
0.908024
0.908022
0.908022
0.908021
0.90802
0.908018
0.908017
0.908017
0.908016
0.908014
0.908013
0.908011
0.908011
0.90801
0.908009
0.908007
0.908006
0.908006
0.908005
0.908003
0.908002
0.908001
0.908001
0.907999
0.907998
0.907996
0.907995
0.907995
0.907994
0.907992
0.907991
0.90799
0.90799
0.907988
0.907987
0.907985
0.907984
0.907984
0.907983
0.907981
0.90798
0.907978
0.907978
0.907977
0.907976
0.907974
0.907973
0.907973
0.907972
0.90797
0.907969
0.907967
0.907967
0.907966
0.907964
0.907963
0.907962
0.907962
0.90796
0.907959
0.907957
0.907956
0.907956
0.907955
0.907953
0.907952
0.90795
0.90795
0.907949
0.907947
0.907946
0.907945
0.907945
0.907943
0.907942
0.90794
0.907939
0.907939
0.907937
0.907936
0.907935
0.907933
0.907933
0.907932
0.90793
0.907929
0.907927
0.907927
0.907926
0.907924
0.907923
0.907921
0.907921
0.90792
0.907919
0.907917
0.907916
0.907916
0.907914
0.907913
0.907911
0.90791
0.90791
0.907908
0.907907
0.907905
0.907904
0.907904
0.907902
0.907901
0.907899
0.907898
0.907898
0.907896
0.907895
0.907893
0.907892
0.907892
0.90789
0.907889
0.907887
0.907886
0.907886
0.907884
0.907883
0.907881
0.90788
0.90788
0.907878
0.907877
0.907875
0.907874
0.907874
0.907872
0.90787
0.907869
0.907867
0.907867
0.907866
0.907864
0.907863
0.907861
0.907861
0.90786
0.907858
0.907856
0.907855
0.907855
0.907853
0.907852
0.90785
0.907849
0.907849
0.907847
0.907845
0.907844
0.907842
0.907842
0.907841
0.907839
0.907837
0.907836
0.907836
0.907834
0.907833
0.907831
0.907829
0.907829
0.907828
0.907826
0.907824
0.907823
0.907823
0.907821
0.90782
0.907818
0.907816
0.907816
0.907815
0.907813
0.907811
0.90781
0.90781
0.907808
0.907806
0.907805
0.907803
0.907803
0.907801
0.9078
0.907798
0.907796
0.907796
0.907795
0.907793
0.907791
0.90779
0.90779
0.907788
0.907786
0.907784
0.907783
0.907783
0.907781
0.907779
0.907778
0.907776
0.907776
0.907774
0.907773
0.907771
0.907769
0.907769
0.907767
0.907766
0.907764
0.907762
0.907762
0.907761
0.907759
0.907757
0.907755
0.907755
0.907754
0.907752
0.90775
0.907749
0.907749
0.907747
0.907745
0.907743
0.907742
0.907742
0.90774
0.907738
0.907736
0.907735
0.907735
0.907733
0.907731
0.907729
0.907728
0.907728
0.907726
0.907724
0.907722
0.907721
0.907721
0.907719
0.907717
0.907715
0.907714
0.907714
0.907712
0.90771
0.907708
0.907707
0.907707
0.907705
0.907703
0.907701
0.907699
0.907699
0.907698
0.907696
0.907694
0.907692
0.907692
0.907691
0.907689
0.907687
0.907685
0.907685
0.907683
0.907682
0.90768
0.907678
0.907678
0.907676
0.907674
0.907673
0.907671
0.907671
0.907669
0.907667
0.907665
0.907664
0.907664
0.907662
0.90766
0.907658
0.907656
0.907656
0.907655
0.907653
0.907651
0.907649
0.907649
0.907647
0.907646
0.907644
0.907642
0.907642
0.90764
0.907638
0.907636
0.907635
0.907635
0.907633
0.907631
0.907629
0.907627
0.907627
0.907625
0.907624
0.907622
0.90762
0.90762
0.907618
0.907616
0.907614
0.907612
0.907612
0.907611
0.907609
0.907607
0.907605
0.907605
0.907603
0.907601
0.9076
0.907598
0.907598
0.907596
0.907594
0.907592
0.90759
0.90759
0.907588
0.907586
0.907585
0.907583
0.907583
0.907581
0.907579
0.907577
0.907575
0.907575
0.907573
0.907571
0.90757
0.907568
0.907568
0.907566
0.907564
0.907562
0.90756
0.90756
0.907558
0.907556
0.907554
0.907553
0.907553
0.907551
0.907549
0.907547
0.907545
0.907545
0.907543
0.907541
0.907539
0.907537
0.907537
0.907535
0.907533
0.907532
0.90753
0.90753
0.907528
0.907526
0.907524
0.907522
0.907522
0.90752
0.907518
0.907516
0.907514
0.907514
0.907512
0.90751
0.907508
0.907506
0.907506
0.907505
0.907503
0.907501
0.907499
0.907499
0.907497
0.907495
0.907493
0.907491
0.907491
0.907489
0.907487
0.907485
0.907483
0.907483
0.907481
0.907479
0.907477
0.907475
0.907475
0.907473
0.907471
0.907469
0.907467
0.907467
0.907465
0.907464
0.907462
0.90746
0.90746
0.907458
0.907456
0.907454
0.907452
0.907452
0.90745
0.907448
0.907446
0.907444
0.907444
0.907442
0.90744
0.907438
0.907436
0.907436
0.907434
0.907432
0.90743
0.907428
0.907428
0.907426
0.907424
0.907422
0.90742
0.90742
0.907418
0.907416
0.907414
0.907412
0.907412
0.90741
0.907408
0.907406
0.907404
0.907404
0.907402
0.9074
0.907398
0.907396
0.907396
0.907394
0.907392
0.90739
0.907388
0.907388
0.907386
0.907383
0.907381
0.907379
0.907379
0.907377
0.907375
0.907373
0.907371
0.907371
0.907369
0.907367
0.907365
0.907363
0.907363
0.907361
0.907359
0.907357
0.907355
0.907355
0.907353
0.907351
0.907349
0.907347
0.907347
0.907345
0.907343
0.907341
0.907338
0.907338
0.907336
0.907334
0.907332
0.90733
0.90733
0.907328
0.907326
0.907324
0.907322
0.907322
0.90732
0.907318
0.907316
0.907314
0.907314
0.907312
0.907309
0.907307
0.907305
0.907305
0.907303
0.907301
0.907299
0.907297
0.907297
0.907295
0.907293
0.907291
0.907289
0.907289
0.907286
0.907284
0.907282
0.90728
0.90728
0.907278
0.907276
0.907274
0.907272
0.907272
0.90727
0.907267
0.907265
0.907263
0.907263
0.907261
0.907259
0.907257
0.907255
0.907255
0.907253
0.90725
0.907248
0.907246
0.907246
0.907244
0.907242
0.90724
0.907238
0.907238
0.907236
0.907233
0.907231
0.907229
0.907229
0.907227
0.907225
0.907223
0.907221
0.907221
0.907218
0.907216
0.907214
0.907212
0.907212
0.90721
0.907208
0.907206
0.907203
0.907203
0.907201
0.907199
0.907197
0.907195
0.907195
0.907193
0.90719
0.907188
0.907186
0.907186
0.907184
0.907182
0.90718
0.907177
0.907177
0.907175
0.907173
0.907171
0.907169
0.907169
0.907166
0.907164
0.907162
0.90716
0.90716
0.907158
0.907156
0.907153
0.907151
0.907151
0.907149
0.907147
0.907145
0.907142
0.907142
0.90714
0.907138
0.907136
0.907134
0.907134
0.907131
0.907129
0.907127
0.907125
0.907125
0.907123
0.90712
0.907118
0.907116
0.907116
0.907114
0.907111
0.907109
0.907107
0.907107
0.907105
0.907103
0.9071
0.907098
0.907098
0.907096
0.907094
0.907091
0.907089
0.907089
0.907087
0.907085
0.907082
0.90708
0.90708
0.907078
0.907076
0.907074
0.907071
0.907071
0.907069
0.907067
0.907065
0.907062
0.907062
0.90706
0.907058
0.907056
0.907053
0.907053
0.907051
0.907049
0.907046
0.907044
0.907044
0.907042
0.90704
0.907037
0.907035
0.907035
0.907033
0.907031
0.907028
0.907026
0.907026
0.907024
0.907022
0.907019
0.907017
0.907017
0.907015
0.907012
0.90701
0.907008
0.907008
0.907006
0.907003
0.907001
0.906999
0.906999
0.906996
0.906994
0.906992
0.90699
0.90699
0.906987
0.906985
0.906983
0.90698
0.90698
0.906978
0.906976
0.906973
0.906971
0.906971
0.906969
0.906967
0.906964
0.906962
0.906962
0.90696
0.906957
0.906955
0.906953
0.906953
0.90695
0.906948
0.906946
0.906943
0.906943
0.906941
0.906939
0.906936
0.906934
0.906934
0.906932
0.906929
0.906927
0.906925
0.906925
0.906922
0.90692
0.906918
0.906915
0.906915
0.906913
0.906911
0.906908
0.906906
0.906906
0.906904
0.906901
0.906899
0.906897
0.906897
0.906894
0.906892
0.90689
0.906887
0.906887
0.906885
0.906882
0.90688
0.906878
0.906878
0.906875
0.906873
0.906871
0.906868
0.906868
0.906866
0.906863
0.906861
0.906859
0.906859
0.906856
0.906854
0.906852
0.906849
0.906849
0.906847
0.906844
0.906842
0.90684
0.90684
0.906837
0.906835
0.906832
0.90683
0.90683
0.906828
0.906825
0.906823
0.90682
0.90682
0.906818
0.906815
0.906813
0.906811
0.906811
0.906808
0.906806
0.906803
0.906801
0.906801
0.906798
0.906796
0.906793
0.906791
0.906791
0.906788
0.906786
0.906783
0.906781
0.906781
0.906778
0.906776
0.906773
0.906771
0.906771
0.906768
0.906766
0.906763
0.906761
0.906761
0.906758
0.906756
0.906753
0.906751
0.906751
0.906748
0.906746
0.906743
0.906741
0.906741
0.906738
0.906736
0.906733
0.906731
0.906731
0.906728
0.906726
0.906723
0.90672
0.90672
0.906718
0.906715
0.906713
0.90671
0.90671
0.906708
0.906705
0.906702
0.9067
0.9067
0.906697
0.906695
0.906692
0.90669
0.90669
0.906687
0.906684
0.906682
0.906679
0.906679
0.906676
0.906674
0.906671
0.906669
0.906669
0.906666
0.906663
0.906661
0.906658
0.906658
0.906655
0.906653
0.90665
0.906648
0.906648
0.906645
0.906642
0.90664
0.906637
0.906637
0.906634
0.906632
0.906629
0.906626
0.906626
0.906624
0.906621
0.906618
0.906616
0.906616
0.906613
0.90661
0.906608
0.906605
0.906605
0.906602
0.9066
0.906597
0.906594
0.906594
0.906592
0.906589
0.906586
0.906584
0.906584
0.906581
0.906578
0.906575
0.906573
0.906573
0.90657
0.906567
0.906565
0.906562
0.906562
0.906559
0.906557
0.906554
0.906551
0.906551
0.906549
0.906546
0.906543
0.90654
0.90654
0.906538
0.906535
0.906532
0.90653
0.90653
0.906527
0.906524
0.906521
0.906519
0.906519
0.906516
0.906513
0.906511
0.906508
0.906508
0.906505
0.906502
0.9065
0.906497
0.906497
0.906494
0.906491
0.906489
0.906486
0.906486
0.906483
0.906481
0.906478
0.906475
0.906475
0.906472
0.90647
0.906467
0.906464
0.906464
0.906461
0.906459
0.906456
0.906453
0.906453
0.90645
0.906448
0.906445
0.906442
0.906442
0.906439
0.906437
0.906434
0.906431
0.906431
0.906428
0.906426
0.906423
0.90642
0.90642
0.906417
0.906414
0.906412
0.906409
0.906409
0.906406
0.906403
0.906401
0.906398
0.906398
0.906395
0.906392
0.906389
0.906387
0.906387
0.906384
0.906381
0.906378
0.906376
0.906376
0.906373
0.90637
0.906367
0.906364
0.906364
0.906362
0.906359
0.906356
0.906353
0.906353
0.90635
0.906348
0.906345
0.906342
0.906342
0.906339
0.906336
0.906334
0.906331
0.906331
0.906328
0.906325
0.906322
0.906319
0.906319
0.906317
0.906314
0.906311
0.906308
0.906308
0.906305
0.906303
0.9063
0.906297
0.906297
0.906294
0.906291
0.906288
0.906286
0.906286
0.906283
0.90628
0.906277
0.906274
0.906274
0.906271
0.906269
0.906266
0.906263
0.906263
0.90626
0.906257
0.906254
0.906251
0.906251
0.906249
0.906246
0.906243
0.90624
0.90624
0.906237
0.906234
0.906231
0.906229
0.906229
0.906226
0.906223
0.90622
0.906217
0.906217
0.906214
0.906211
0.906209
0.906206
0.906206
0.906203
0.9062
0.906197
0.906194
0.906194
0.906191
0.906188
0.906186
0.906183
0.906183
0.90618
0.906177
0.906174
0.906171
0.906171
0.906168
0.906165
0.906162
0.90616
0.90616
0.906157
0.906154
0.906151
0.906148
0.906148
0.906145
0.906142
0.906139
0.906136
0.906136
0.906133
0.906131
0.906128
0.906125
0.906125
0.906122
0.906119
0.906116
0.906113
0.906113
0.90611
0.906107
0.906104
0.906101
0.906101
0.906098
0.906096
0.906093
0.90609
0.90609
0.906087
0.906084
0.906081
0.906078
0.906078
0.906075
0.906072
0.906069
0.906066
0.906066
0.906063
0.90606
0.906057
0.906055
0.906055
0.906052
0.906049
0.906046
0.906043
0.906043
0.90604
0.906037
0.906034
0.906031
0.906031
0.906028
0.906025
0.906022
0.906019
0.906019
0.906016
0.906013
0.90601
0.906007
0.906007
0.906004
0.906001
0.905998
0.905995
0.905995
0.905992
0.90599
0.905987
0.905984
0.905984
0.905981
0.905978
0.905975
0.905972
0.905972
0.905969
0.905966
0.905963
0.90596
0.90596
0.905957
0.905954
0.905951
0.905948
0.905948
0.905945
0.905942
0.905939
0.905936
0.905936
0.905933
0.90593
0.905927
0.905924
0.905924
0.905921
0.905918
0.905915
0.905912
0.905912
0.905909
0.905906
0.905903
0.9059
0.9059
0.905897
0.905894
0.905891
0.905888
0.905888
0.905885
0.905882
0.905879
0.905876
0.905876
0.905873
0.90587
0.905867
0.905864
0.905864
0.905861
0.905858
0.905855
0.905852
0.905852
0.905849
0.905846
0.905842
0.905839
0.905839
0.905836
0.905833
0.90583
0.905827
0.905827
0.905824
0.905821
0.905818
0.905815
0.905815
0.905812
0.905809
0.905806
0.905803
0.905803
0.9058
0.905797
0.905794
0.905791
0.905791
0.905788
0.905785
0.905782
0.905778
0.905778
0.905775
0.905772
0.905769
0.905766
0.905766
0.905763
0.90576
0.905757
0.905754
0.905754
0.905751
0.905748
0.905744
0.905741
0.905741
0.905738
0.905735
0.905732
0.905729
0.905729
0.905726
0.905723
0.90572
0.905716
0.905716
0.905713
0.90571
0.905707
0.905704
0.905704
0.905701
0.905697
0.905694
0.905691
0.905691
0.905688
0.905685
0.905682
0.905678
0.905678
0.905675
0.905672
0.905669
0.905666
0.905666
0.905662
0.905659
0.905656
0.905653
0.905653
0.90565
0.905646
0.905643
0.90564
0.90564
0.905637
0.905634
0.90563
0.905627
0.905627
0.905624
0.905621
0.905617
0.905614
0.905614
0.905611
0.905608
0.905604
0.905601
0.905601
0.905598
0.905595
0.905591
0.905588
0.905588
0.905585
0.905582
0.905578
0.905575
0.905575
0.905572
0.905568
0.905565
0.905562
0.905562
0.905558
0.905555
0.905552
0.905548
0.905548
0.905545
0.905542
0.905538
0.905535
0.905535
0.905532
0.905528
0.905525
0.905522
0.905522
0.905518
0.905515
0.905512
0.905508
0.905508
0.905505
0.905502
0.905498
0.905495
0.905495
0.905492
0.905488
0.905485
0.905482
0.905482
0.905478
0.905475
0.905472
0.905468
0.905468
0.905465
0.905461
0.905458
0.905455
0.905455
0.905451
0.905448
0.905445
0.905441
0.905441
0.905438
0.905434
0.905431
0.905428
0.905428
0.905424
0.905421
0.905418
0.905414
0.905414
0.905411
0.905407
0.905404
0.905401
0.905401
0.905397
0.905394
0.90539
0.905387
0.905387
0.905384
0.90538
0.905377
0.905373
0.905373
0.90537
0.905367
0.905363
0.90536
0.90536
0.905356
0.905353
0.90535
0.905346
0.905346
0.905343
0.905339
0.905336
0.905332
0.905332
0.905329
0.905326
0.905322
0.905319
0.905319
0.905315
0.905312
0.905309
0.905305
0.905305
0.905302
0.905298
0.905295
0.905291
0.905291
0.905288
0.905285
0.905281
0.905278
0.905278
0.905274
0.905271
0.905267
0.905264
0.905264
0.90526
0.905257
0.905254
0.90525
0.90525
0.905247
0.905243
0.90524
0.905236
0.905236
0.905233
0.905229
0.905226
0.905222
0.905222
0.905219
0.905216
0.905212
0.905209
0.905209
0.905205
0.905202
0.905198
0.905195
0.905195
0.905191
0.905188
0.905184
0.905181
0.905181
0.905177
0.905174
0.90517
0.905167
0.905167
0.905164
0.90516
0.905157
0.905153
0.905153
0.90515
0.905146
0.905143
0.905139
0.905139
0.905136
0.905132
0.905129
0.905125
0.905125
0.905122
0.905118
0.905115
0.905111
0.905111
0.905108
0.905104
0.905101
0.905097
0.905097
0.905094
0.90509
0.905087
0.905083
0.905083
0.90508
0.905076
0.905073
0.905069
0.905069
0.905066
0.905062
0.905059
0.905055
0.905055
0.905052
0.905048
0.905045
0.905041
0.905041
0.905038
0.905034
0.90503
0.905027
0.905027
0.905023
0.90502
0.905016
0.905013
0.905013
0.905009
0.905006
0.905002
0.904999
0.904999
0.904995
0.904992
0.904988
0.904985
0.904985
0.904981
0.904977
0.904974
0.90497
0.90497
0.904967
0.904963
0.90496
0.904956
0.904956
0.904953
0.904949
0.904946
0.904942
0.904942
0.904938
0.904935
0.904931
0.904928
0.904928
0.904924
0.904921
0.904917
0.904914
0.904914
0.90491
0.904906
0.904903
0.904899
0.904899
0.904896
0.904892
0.904889
0.904885
0.904885
0.904881
0.904878
0.904874
0.904871
0.904871
0.904867
0.904864
0.90486
0.904856
0.904856
0.904853
0.904849
0.904846
0.904842
0.904842
0.904838
0.904835
0.904831
0.904828
0.904828
0.904824
0.904821
0.904817
0.904813
0.904813
0.90481
0.904806
0.904803
0.904799
0.904799
0.904795
0.904792
0.904788
0.904785
0.904785
0.904781
0.904777
0.904774
0.90477
0.90477
0.904766
0.904763
0.904759
0.904756
0.904756
0.904752
0.904748
0.904745
0.904741
0.904741
0.904738
0.904734
0.90473
0.904727
0.904727
0.904723
0.904719
0.904716
0.904712
0.904712
0.904708
0.904705
0.904701
0.904698
0.904698
0.904694
0.90469
0.904687
0.904683
0.904683
0.904679
0.904676
0.904672
0.904668
0.904668
0.904665
0.904661
0.904657
0.904654
0.904654
0.90465
0.904646
0.904642
0.904639
0.904639
0.904635
0.904631
0.904628
0.904624
0.904624
0.90462
0.904616
0.904613
0.904609
0.904609
0.904605
0.904601
0.904598
0.904594
0.904594
0.90459
0.904586
0.904583
0.904579
0.904579
0.904575
0.904571
0.904567
0.904564
0.904564
0.90456
0.904556
0.904552
0.904549
0.904549
0.904545
0.904541
0.904537
0.904533
0.904533
0.90453
0.904526
0.904522
0.904518
0.904518
0.904514
0.904511
0.904507
0.904503
0.904503
0.904499
0.904495
0.904492
0.904488
0.904488
0.904484
0.90448
0.904476
0.904472
0.904472
0.904468
0.904465
0.904461
0.904457
0.904457
0.904453
0.904449
0.904445
0.904441
0.904441
0.904437
0.904433
0.90443
0.904426
0.904426
0.904422
0.904418
0.904414
0.90441
0.90441
0.904406
0.904402
0.904398
0.904394
0.904394
0.90439
0.904386
0.904383
0.904379
0.904379
0.904375
0.904371
0.904367
0.904363
0.904363
0.904359
0.904355
0.904351
0.904347
0.904347
0.904343
0.904339
0.904335
0.904331
0.904331
0.904327
0.904323
0.90432
0.904316
0.904316
0.904312
0.904308
0.904304
0.9043
0.9043
0.904296
0.904292
0.904288
0.904284
0.904284
0.90428
0.904276
0.904272
0.904268
0.904268
0.904264
0.90426
0.904256
0.904252
0.904252
0.904248
0.904244
0.90424
0.904236
0.904236
0.904232
0.904228
0.904224
0.90422
0.90422
0.904216
0.904212
0.904208
0.904204
0.904204
0.9042
0.904196
0.904192
0.904188
0.904188
0.904185
0.904181
0.904177
0.904173
0.904173
0.904169
0.904165
0.904161
0.904157
0.904157
0.904153
0.904149
0.904145
0.904141
0.904141
0.904137
0.904133
0.904129
0.904125
0.904125
0.904121
0.904117
0.904113
0.904108
0.904108
0.904104
0.9041
0.904096
0.904092
0.904092
0.904088
0.904084
0.90408
0.904076
0.904076
0.904072
0.904068
0.904064
0.90406
0.90406
0.904056
0.904052
0.904048
0.904044
0.904044
0.90404
0.904036
0.904032
0.904028
0.904028
0.904024
0.90402
0.904016
0.904012
0.904012
0.904008
0.904004
0.904
0.903996
0.903996
0.903992
0.903988
0.903984
0.90398
0.90398
0.903976
0.903971
0.903967
0.903963
0.903963
0.903959
0.903955
0.903951
0.903947
0.903947
0.903943
0.903939
0.903935
0.903931
0.903931
0.903927
0.903923
0.903919
0.903915
0.903915
0.903911
0.903907
0.903903
0.903898
0.903898
0.903894
0.90389
0.903886
0.903882
0.903882
0.903878
0.903874
0.90387
0.903866
0.903866
0.903862
0.903858
0.903854
0.90385
0.90385
0.903846
0.903841
0.903837
0.903833
0.903833
0.903829
0.903825
0.903821
0.903817
0.903817
0.903813
0.903809
0.903805
0.903801
0.903801
0.903796
0.903792
0.903788
0.903784
0.903784
0.90378
0.903776
0.903772
0.903768
0.903768
0.903764
0.90376
0.903755
0.903751
0.903751
0.903747
0.903743
0.903739
0.903735
0.903735
0.903731
0.903727
0.903723
0.903718
0.903718
0.903714
0.90371
0.903706
0.903702
0.903702
0.903698
0.903694
0.90369
0.903686
0.903686
0.903681
0.903677
0.903673
0.903669
0.903669
0.903665
0.903661
0.903657
0.903652
0.903652
0.903648
0.903644
0.90364
0.903636
0.903636
0.903632
0.903628
0.903623
0.903619
0.903619
0.903615
0.903611
0.903607
0.903603
0.903603
0.903598
0.903594
0.90359
0.903586
0.903586
0.903582
0.903578
0.903573
0.903569
0.903569
0.903565
0.903561
0.903556
0.903552
0.903552
0.903548
0.903544
0.90354
0.903535
0.903535
0.903531
0.903527
0.903523
0.903518
0.903518
0.903514
0.90351
0.903505
0.903501
0.903501
0.903497
0.903493
0.903488
0.903484
0.903484
0.90348
0.903476
0.903471
0.903467
0.903467
0.903463
0.903458
0.903454
0.90345
0.90345
0.903446
0.903441
0.903437
0.903433
0.903433
0.903428
0.903424
0.90342
0.903415
0.903415
0.903411
0.903407
0.903402
0.903398
0.903398
0.903394
0.903389
0.903385
0.903381
0.903381
0.903376
0.903372
0.903368
0.903363
0.903363
0.903359
0.903354
0.90335
0.903346
0.903346
0.903341
0.903337
0.903332
0.903328
0.903328
0.903324
0.903319
0.903315
0.90331
0.90331
0.903306
0.903302
0.903297
0.903293
0.903293
0.903288
0.903284
0.903279
0.903275
0.903275
0.903271
0.903266
0.903262
0.903257
0.903257
0.903253
0.903248
0.903244
0.90324
0.90324
0.903235
0.903231
0.903226
0.903222
0.903222
0.903217
0.903213
0.903208
0.903204
0.903204
0.903199
0.903195
0.903191
0.903186
0.903186
0.903182
0.903177
0.903173
0.903168
0.903168
0.903164
0.903159
0.903155
0.90315
0.90315
0.903146
0.903141
0.903137
0.903132
0.903132
0.903128
0.903124
0.903119
0.903115
0.903115
0.90311
0.903106
0.903101
0.903097
0.903097
0.903092
0.903088
0.903083
0.903079
0.903079
0.903074
0.90307
0.903065
0.903061
0.903061
0.903056
0.903052
0.903047
0.903043
0.903043
0.903038
0.903034
0.903029
0.903025
0.903025
0.90302
0.903016
0.903011
0.903007
0.903007
0.903002
0.902998
0.902993
0.902989
0.902989
0.902984
0.90298
0.902975
0.902971
0.902971
0.902966
0.902962
0.902957
0.902953
0.902953
0.902948
0.902944
0.902939
0.902935
0.902935
0.90293
0.902926
0.902921
0.902917
0.902917
0.902912
0.902908
0.902903
0.902899
0.902899
0.902894
0.90289
0.902885
0.90288
0.90288
0.902876
0.902871
0.902867
0.902862
0.902862
0.902858
0.902853
0.902849
0.902844
0.902844
0.90284
0.902835
0.902831
0.902826
0.902826
0.902822
0.902817
0.902812
0.902808
0.902808
0.902803
0.902799
0.902794
0.90279
0.90279
0.902785
0.902781
0.902776
0.902772
0.902772
0.902767
0.902762
0.902758
0.902753
0.902753
0.902749
0.902744
0.90274
0.902735
0.902735
0.902731
0.902726
0.902721
0.902717
0.902717
0.902712
0.902708
0.902703
0.902699
0.902699
0.902694
0.902689
0.902685
0.90268
0.90268
0.902676
0.902671
0.902667
0.902662
0.902662
0.902657
0.902653
0.902648
0.902644
0.902644
0.902639
0.902635
0.90263
0.902625
0.902625
0.902621
0.902616
0.902612
0.902607
0.902607
0.902602
0.902598
0.902593
0.902589
0.902589
0.902584
0.902579
0.902575
0.90257
0.90257
0.902566
0.902561
0.902556
0.902552
0.902552
0.902547
0.902543
0.902538
0.902533
0.902533
0.902529
0.902524
0.902519
0.902515
0.902515
0.90251
0.902505
0.902501
0.902496
0.902496
0.902491
0.902487
0.902482
0.902477
0.902477
0.902473
0.902468
0.902463
0.902459
0.902459
0.902454
0.902449
0.902444
0.90244
0.90244
0.902435
0.90243
0.902425
0.902421
0.902421
0.902416
0.902411