<?xml version="1.0"?>
<VTKFile type="UnstructuredGrid" version="0.1" byte_order="LittleEndian">
<UnstructuredGrid>
<Piece NumberOfPoints="5000" NumberOfCells="4000">
<PointData Scalars="Reaction 0">
<DataArray type="Float32" Name="Reaction 0" format="ascii">
0.729852
0.729852
0.729852
0.729852
0.729852
0.729852
0.729852
0.729852
0.729852
0.729852
0.729852
0.729852
0.729852
0.729852
0.729853
0.729853
0.729853
0.729853
0.729853
0.729853
0.729853
0.729853
0.729853
0.729853
0.729853
0.729853
0.729853
0.729854
0.729854
0.729854
0.729854
0.729854
0.729854
0.729854
0.729854
0.729854
0.729855
0.729855
0.729855
0.729855
0.729855
0.729855
0.729856
0.729856
0.729856
0.729856
0.729856
0.729856
0.729857
0.729857
0.729857
0.729857
0.729857
0.729858
0.729858
0.729858
0.729858
0.729859
0.729859
0.729859
0.729859
0.729859
0.72986
0.72986
0.72986
0.72986
0.729861
0.729861
0.729861
0.729862
0.729862
0.729862
0.729862
0.729863
0.729863
0.729863
0.729863
0.729864
0.729864
0.729865
0.729865
0.729865
0.729865
0.729866
0.729866
0.729866
0.729867
0.729867
0.729867
0.729868
0.729868
0.729868
0.729869
0.729869
0.72987
0.72987
0.72987
0.729871
0.729871
0.729872
0.729872
0.729872
0.729873
0.729873
0.729874
0.729874
0.729874
0.729875
0.729875
0.729876
0.729876
0.729876
0.729877
0.729877
0.729878
0.729878
0.729878
0.729879
0.72988
0.72988
0.72988
0.729881
0.729881
0.729882
0.729883
0.729883
0.729883
0.729884
0.729884
0.729885
0.729885
0.729886
0.729886
0.729887
0.729888
0.729888
0.729888
0.729889
0.72989
0.72989
0.72989
0.729891
0.729892
0.729892
0.729893
0.729893
0.729894
0.729895
0.729895
0.729896
0.729896
0.729897
0.729898
0.729898
0.729899
0.729899
0.7299
0.729901
0.729901
0.729902
0.729902
0.729903
0.729904
0.729904
0.729905
0.729905
0.729906
0.729907
0.729908
0.729909
0.729909
0.729909
0.72991
0.729911
0.729912
0.729912
0.729913
0.729914
0.729915
0.729915
0.729915
0.729916
0.729917
0.729918
0.729919
0.729919
0.72992
0.729921
0.729922
0.729923
0.729923
0.729924
0.729925
0.729925
0.729926
0.729926
0.729927
0.729928
0.729929
0.72993
0.72993
0.729931
0.729932
0.729933
0.729934
0.729934
0.729935
0.729936
0.729937
0.729938
0.729938
0.729939
0.72994
0.729941
0.729942
0.729942
0.729944
0.729945
0.729946
0.729947
0.729947
0.729948
0.729949
0.72995
0.729951
0.729951
0.729952
0.729953
0.729954
0.729955
0.729955
0.729957
0.729958
0.729959
0.72996
0.72996
0.729961
0.729962
0.729964
0.729965
0.729965
0.729966
0.729967
0.729968
0.729969
0.729969
0.729971
0.729972
0.729973
0.729974
0.729974
0.729975
0.729977
0.729978
0.729979
0.729979
0.72998
0.729982
0.729983
0.729984
0.729984
0.729986
0.729987
0.729988
0.729989
0.729989
0.729991
0.729992
0.729993
0.729995
0.729995
0.729996
0.729997
0.729999
0.73
0.73
0.730001
0.730003
0.730004
0.730005
0.730005
0.730007
0.730008
0.730009
0.730011
0.730011
0.730012
0.730014
0.730015
0.730016
0.730016
0.730018
0.730019
0.730021
0.730022
0.730022
0.730024
0.730025
0.730027
0.730028
0.730028
0.73003
0.730031
0.730032
0.730034
0.730034
0.730035
0.730037
0.730038
0.73004
0.73004
0.730041
0.730043
0.730045
0.730046
0.730046
0.730048
0.730049
0.730051
0.730052
0.730052
0.730054
0.730055
0.730057
0.730059
0.730059
0.73006
0.730062
0.730063
0.730065
0.730065
0.730067
0.730068
0.73007
0.730071
0.730071
0.730073
0.730075
0.730076
0.730078
0.730078
0.73008
0.730081
0.730083
0.730085
0.730085
0.730086
0.730088
0.73009
0.730092
0.730092
0.730093
0.730095
0.730097
0.730098
0.730098
0.7301
0.730102
0.730104
0.730105
0.730105
0.730107
0.730109
0.730111
0.730113
0.730113
0.730114
0.730116
0.730118
0.73012
0.73012
0.730122
0.730123
0.730125
0.730127
0.730127
0.730129
0.730131
0.730133
0.730134
0.730134
0.730136
0.730138
0.73014
0.730142
0.730142
0.730144
0.730146
0.730148
0.730149
0.730149
0.730151
0.730153
0.730155
0.730157
0.730157
0.730159
0.730161
0.730163
0.730165
0.730165
0.730167
0.730169
0.730171
0.730173
0.730173
0.730175
0.730177
0.730179
0.730181
0.730181
0.730183
0.730185
0.730187
0.730189
0.730189
0.730191
0.730193
0.730195
0.730197
0.730197
0.730199
0.730201
0.730203
0.730205
0.730205
0.730207
0.730209
0.730211
0.730214
0.730214
0.730216
0.730218
0.73022
0.730222
0.730222
0.730224
0.730226
0.730228
0.730231
0.730231
0.730233
0.730235
0.730237
0.730239
0.730239
0.730241
0.730244
0.730246
0.730248
0.730248
0.73025
0.730252
0.730255
0.730257
0.730257
0.730259
0.730261
0.730264
0.730266
0.730266
0.730268
0.73027
0.730273
0.730275
0.730275
0.730277
0.730279
0.730282
0.730284
0.730284
0.730286
0.730289
0.730291
0.730293
0.730293
0.730296
0.730298
0.7303
0.730303
0.730303
0.730305
0.730307
0.73031
0.730312
0.730312
0.730314
0.730317
0.730319
0.730322
0.730322
0.730324
0.730326
0.730329
0.730331
0.730331
0.730334
0.730336
0.730338
0.730341
0.730341
0.730343
0.730346
0.730348
0.730351
0.730351
0.730353
0.730356
0.730358
0.730361
0.730361
0.730363
0.730366
0.730368
0.730371
0.730371
0.730373
0.730376
0.730378
0.730381
0.730381
0.730383
0.730386
0.730388
0.730391
0.730391
0.730394
0.730396
0.730399
0.730401
0.730401
0.730404
0.730406
0.730409
0.730412
0.730412
0.730414
0.730417
0.73042
0.730422
0.730422
0.730425
0.730427
0.73043
0.730433
0.730433
0.730435
0.730438
0.730441
0.730444
0.730444
0.730446
0.730449
0.730452
0.730454
0.730454
0.730457
0.73046
0.730462
0.730465
0.730465
0.730468
0.730471
0.730473
0.730476
0.730476
0.730479
0.730482
0.730485
0.730487
0.730487
0.73049
0.730493
0.730496
0.730498
0.730498
0.730501
0.730504
0.730507
0.73051
0.73051
0.730513
0.730515
0.730518
0.730521
0.730521
0.730524
0.730527
0.73053
0.730533
0.730533
0.730536
0.730538
0.730541
0.730544
0.730544
0.730547
0.73055
0.730553
0.730556
0.730556
0.730559
0.730562
0.730565
0.730568
0.730568
0.730571
0.730574
0.730577
0.73058
0.73058
0.730583
0.730586
0.730589
0.730592
0.730592
0.730595
0.730598
0.730601
0.730604
0.730604
0.730607
0.73061
0.730613
0.730616
0.730616
0.730619
0.730622
0.730625
0.730628
0.730628
0.730631
0.730634
0.730637
0.73064
0.73064
0.730644
0.730647
0.73065
0.730653
0.730653
0.730656
0.730659
0.730662
0.730665
0.730665
0.730669
0.730672
0.730675
0.730678
0.730678
0.730681
0.730684
0.730688
0.730691
0.730691
0.730694
0.730697
0.730701
0.730704
0.730704
0.730707
0.73071
0.730713
0.730717
0.730717
0.73072
0.730723
0.730726
0.73073
0.73073
0.730733
0.730736
0.73074
0.730743
0.730743
0.730746
0.73075
0.730753
0.730756
0.730756
0.730759
0.730763
0.730766
0.730769
0.730769
0.730773
0.730776
0.73078
0.730783
0.730783
0.730786
0.73079
0.730793
0.730796
0.730796
0.7308
0.730803
0.730807
0.73081
0.73081
0.730814
0.730817
0.73082
0.730824
0.730824
0.730827
0.730831
0.730834
0.730838
0.730838
0.730841
0.730845
0.730848
0.730852
0.730852
0.730855
0.730859
0.730862
0.730866
0.730866
0.730869
0.730873
0.730876
0.73088
0.73088
0.730883
0.730887
0.73089
0.730894
0.730894
0.730898
0.730901
0.730905
0.730908
0.730908
0.730912
0.730916
0.730919
0.730923
0.730923
0.730926
0.73093
0.730934
0.730937
0.730937
0.730941
0.730945
0.730948
0.730952
0.730952
0.730956
0.730959
0.730963
0.730967
0.730967
0.73097
0.730974
0.730978
0.730981
0.730981
0.730985
0.730989
0.730993
0.730996
0.730996
0.731
0.731004
0.731008
0.731011
0.731011
0.731015
0.731019
0.731023
0.731026
0.731026
0.73103
0.731034
0.731038
0.731042
0.731042
0.731045
0.731049
0.731053
0.731057
0.731057
0.731061
0.731065
0.731068
0.731072
0.731072
0.731076
0.73108
0.731084
0.731088
0.731088
0.731092
0.731096
0.7311
0.731103
0.731103
0.731107
0.731111
0.731115
0.731119
0.731119
0.731123
0.731127
0.731131
0.731135
0.731135
0.731139
0.731143
0.731147
0.731151
0.731151
0.731155
0.731159
0.731163
0.731167
0.731167
0.731171
0.731175
0.731179
0.731183
0.731183
0.731187
0.731191
0.731195
0.731199
0.731199
0.731203
0.731207
0.731211
0.731215
0.731215
0.731219
0.731223
0.731228
0.731232
0.731232
0.731236
0.73124
0.731244
0.731248
0.731248
0.731252
0.731256
0.731261
0.731265
0.731265
0.731269
0.731273
0.731277
0.731281
0.731281
0.731286
0.73129
0.731294
0.731298
0.731298
0.731302
0.731307
0.731311
0.731315
0.731315
0.731319
0.731324
0.731328
0.731332
0.731332
0.731336
0.731341
0.731345
0.731349
0.731349
0.731353
0.731358
0.731362
0.731366
0.731366
0.731371
0.731375
0.731379
0.731383
0.731383
0.731388
0.731392
0.731396
0.731401
0.731401
0.731405
0.73141
0.731414
0.731418
0.731418
0.731423
0.731427
0.731431
0.731436
0.731436
0.73144
0.731445
0.731449
0.731453
0.731453
0.731458
0.731462
0.731467
0.731471
0.731471
0.731476
0.73148
0.731485
0.731489
0.731489
0.731494
0.731498
0.731503
0.731507
0.731507
0.731512
0.731516
0.731521
0.731525
0.731525
0.73153
0.731534
0.731539
0.731543
0.731543
0.731548
0.731552
0.731557
0.731561
0.731561
0.731566
0.731571
0.731575
0.73158
0.73158
0.731584
0.731589
0.731594
0.731598
0.731598
0.731603
0.731607
0.731612
0.731617
0.731617
0.731621
0.731626
0.731631
0.731635
0.731635
0.73164
0.731645
0.731649
0.731654
0.731654
0.731659
0.731663
0.731668
0.731673
0.731673
0.731678
0.731682
0.731687
0.731692
0.731692
0.731697
0.731701
0.731706
0.731711
0.731711
0.731716
0.73172
0.731725
0.73173
0.73173
0.731735
0.73174
0.731744
0.731749
0.731749
0.731754
0.731759
0.731764
0.731768
0.731768
0.731773
0.731778
0.731783
0.731788
0.731788
0.731793
0.731798
0.731802
0.731807
0.731807
0.731812
0.731817
0.731822
0.731827
0.731827
0.731832
0.731837
0.731842
0.731847
0.731847
0.731852
0.731857
0.731862
0.731866
0.731866
0.731871
0.731876
0.731881
0.731886
0.731886
0.731891
0.731896
0.731901
0.731906
0.731906
0.731911
0.731916
0.731921
0.731926
0.731926
0.731932
0.731937
0.731942
0.731947
0.731947
0.731952
0.731957
0.731962
0.731967
0.731967
0.731972
0.731977
0.731982
0.731987
0.731987
0.731992
0.731998
0.732003
0.732008
0.732008
0.732013
0.732018
0.732023
0.732028
0.732028
0.732034
0.732039
0.732044
0.732049
0.732049
0.732054
0.732059
0.732065
0.73207
0.73207
0.732075
0.73208
0.732086
0.732091
0.732091
0.732096
0.732101
0.732106
0.732112
0.732112
0.732117
0.732122
0.732128
0.732133
0.732133
0.732138
0.732143
0.732149
0.732154
0.732154
0.732159
0.732165
0.73217
0.732175
0.732175
0.732181
0.732186
0.732191
0.732197
0.732197
0.732202
0.732207
0.732213
0.732218
0.732218
0.732223
0.732229
0.732234
0.73224
0.73224
0.732245
0.73225
0.732256
0.732261
0.732261
0.732267
0.732272
0.732278
0.732283
0.732283
0.732288
0.732294
0.732299
0.732305
0.732305
0.73231
0.732316
0.732321
0.732327
0.732327
0.732332
0.732338
0.732343
0.732349
0.732349
0.732354
0.73236
0.732365
0.732371
0.732371
0.732377
0.732382
0.732388
0.732393
0.732393
0.732399
0.732404
0.73241
0.732415
0.732415
0.732421
0.732426
0.732432
0.732438
0.732438
0.732443
0.732449
0.732454
0.73246
0.73246
0.732465
0.732471
0.732476
0.732482
0.732482
0.732487
0.732493
0.732498
0.732504
0.732504
0.732509
0.732514
0.73252
0.732525
0.732525
0.73253
0.732536
0.732541
0.732547
0.732547
0.732552
0.732557
0.732562
0.732568
0.732568
0.732573
0.732578
0.732583
0.732589
0.732589
0.732594
0.732599
0.732604
0.73261
0.73261
0.732615
0.73262
0.732625
0.73263
0.73263
0.732636
0.732641
0.732646
0.732651
0.732651
0.732657
0.732662
0.732667
0.732672
0.732672
0.732677
0.732683
0.732688
0.732693
0.732693
0.732698
0.732704
0.732709
0.732714
0.732714
0.732719
0.732725
0.73273
0.732735
0.732735
0.73274
0.732746
0.732751
0.732756
0.732756
0.732762
0.732767
0.732772
0.732778
0.732778
0.732783
0.732788
0.732794
0.732799
0.732799
0.732804
0.73281
0.732815
0.73282
0.73282
0.732826
0.732831
0.732837
0.732842
0.732842
0.732847
0.732853
0.732858
0.732863
0.732863
0.732869
0.732874
0.73288
0.732885
0.732885
0.732891
0.732896
0.732902
0.732907
0.732907
0.732912
0.732918
0.732923
0.732929
0.732929
0.732934
0.73294
0.732945
0.732951
0.732951
0.732956
0.732962
0.732967
0.732973
0.732973
0.732978
0.732984
0.732989
0.732995
0.732995
0.733
0.733006
0.733012
0.733017
0.733017
0.733023
0.733028
0.733034
0.733039
0.733039
0.733045
0.733051
0.733056
0.733062
0.733062
0.733067
0.733073
0.733079
0.733084
0.733084
0.73309
0.733096
0.733101
0.733107
0.733107
0.733113
0.733118
0.733124
0.733129
0.733129
0.733135
0.733141
0.733147
0.733152
0.733152
0.733158
0.733164
0.733169
0.733175
0.733175
0.733181
0.733186
0.733192
0.733198
0.733198
0.733204
0.733209
0.733215
0.733221
0.733221
0.733227
0.733232
0.733238
0.733244
0.733244
0.73325
0.733256
0.733261
0.733267
0.733267
0.733273
0.733279
0.733285
0.73329
0.73329
0.733296
0.733302
0.733308
0.733314
0.733314
0.73332
0.733326
0.733331
0.733337
0.733337
0.733343
0.733349
0.733355
0.733361
0.733361
0.733367
0.733373
0.733378
0.733384
0.733384
0.73339
0.733396
0.733402
0.733408
0.733408
0.733414
0.73342
0.733426
0.733432
0.733432
0.733438
0.733444
0.73345
0.733456
0.733456
0.733462
0.733468
0.733474
0.73348
0.73348
0.733486
0.733492
0.733498
0.733504
0.733504
0.73351
0.733516
0.733522
0.733528
0.733528
0.733534
0.73354
0.733546
0.733552
0.733552
0.733558
0.733564
0.73357
0.733576
0.733576
0.733582
0.733589
0.733595
0.733601
0.733601
0.733607
0.733613
0.733619
0.733625
0.733625
0.733631
0.733638
0.733644
0.73365
0.73365
0.733656
0.733662
0.733668
0.733674
0.733674
0.733681
0.733687
0.733693
0.733699
0.733699
0.733705
0.733712
0.733718
0.733724
0.733724
0.73373
0.733736
0.733743
0.733749
0.733749
0.733755
0.733761
0.733768
0.733774
0.733774
0.73378
0.733787
0.733793
0.733799
0.733799
0.733805
0.733812
0.733818
0.733824
0.733824
0.733831
0.733837
0.733843
0.73385
0.73385
0.733856
0.733862
0.733869
0.733875
0.733875
0.733881
0.733888
0.733894
0.7339
0.7339
0.733907
0.733913
0.733919
0.733926
0.733926
0.733932
0.733939
0.733945
0.733951
0.733951
0.733958
0.733964
0.733971
0.733977
0.733977
0.733984
0.73399
0.733997
0.734003
0.734003
0.734009
0.734016
0.734022
0.734029
0.734029
0.734035
0.734042
0.734048
0.734055
0.734055
0.734061
0.734068
0.734074
0.734081
0.734081
0.734087
0.734094
0.7341
0.734107
0.734107
0.734114
0.73412
0.734127
0.734133
0.734133
0.73414
0.734146
0.734153
0.73416
0.73416
0.734166
0.734173
0.734179
0.734186
0.734186
0.734193
0.734199
0.734206
0.734212
0.734212
0.734219
0.734226
0.734232
0.734239
0.734239
0.734246
0.734252
0.734259
0.734266
0.734266
0.734272
0.734279
0.734286
0.734292
0.734292
0.734299
0.734306
0.734313
0.734319
0.734319
0.734326
0.734333
0.73434
0.734346
0.734346
0.734353
0.73436
0.734367
0.734373
0.734373
0.73438
0.734387
0.734394
0.7344
0.7344
0.734407
0.734414
0.734421
0.734428
0.734428
0.734434
0.734441
0.734448
0.734455
0.734455
0.734462
0.734469
0.734475
0.734482
0.734482
0.734489
0.734496
0.734503
0.73451
0.73451
0.734517
0.734523
0.73453
0.734537
0.734537
0.734544
0.734551
0.734558
0.734565
0.734565
0.734572
0.734579
0.734586
0.734593
0.734593
0.7346
0.734607
0.734613
0.73462
0.73462
0.734627
0.734634
0.734641
0.734648
0.734648
0.734655
0.734662
0.734669
0.734676
0.734676
0.734683
0.73469
0.734697
0.734704
0.734704
0.734711
0.734718
0.734726
0.734733
0.734733
0.73474
0.734747
0.734754
0.734761
0.734761
0.734768
0.734775
0.734782
0.734789
0.734789
0.734796
0.734803
0.73481
0.734818
0.734818
0.734825
0.734832
0.734839
0.734846
0.734846
0.734853
0.73486
0.734868
0.734875
0.734875
0.734882
0.734889
0.734896
0.734903
0.734903
0.734911
0.734918
0.734925
0.734932
0.734932
0.734939
0.734947
0.734954
0.734961
0.734961
0.734968
0.734976
0.734983
0.73499
0.73499
0.734997
0.735005
0.735012
0.735019
0.735019
0.735026
0.735034
0.735041
0.735048
0.735048
0.735056
0.735063
0.73507
0.735077
0.735077
0.735085
0.735092
0.735099
0.735107
0.735107
0.735114
0.735121
0.735129
0.735136
0.735136
0.735144
0.735151
0.735158
0.735166
0.735166
0.735173
0.73518
0.735188
0.735195
0.735195
0.735203
0.73521
0.735217
0.735225
0.735225
0.735232
0.73524
0.735247
0.735255
0.735255
0.735262
0.73527
0.735277
0.735284
0.735284
0.735292
0.735299
0.735307
0.735314
0.735314
0.735322
0.735329
0.735337
0.735344
0.735344
0.735352
0.735359
0.735367
0.735375
0.735375
0.735382
0.73539
0.735397
0.735405
0.735405
0.735412
0.73542
0.735427
0.735435
0.735435
0.735443
0.73545
0.735458
0.735465
0.735465
0.735473
0.735481
0.735488
0.735496
0.735496
0.735503
0.735511
0.735519
0.735526
0.735526
0.735534
0.735542
0.735549
0.735557
0.735557
0.735565
0.735572
0.73558
0.735588
0.735588
0.735595
0.735603
0.735611
0.735619
0.735619
0.735626
0.735634
0.735642
0.735649
0.735649
0.735657
0.735665
0.735673
0.73568
0.73568
0.735688
0.735696
0.735704
0.735712
0.735712
0.735719
0.735727
0.735735
0.735743
0.735743
0.73575
0.735758
0.735766
0.735774
0.735774
0.735782
0.73579
0.735797
0.735805
0.735805
0.735813
0.735821
0.735829
0.735837
0.735837
0.735844
0.735852
0.73586
0.735868
0.735868
0.735876
0.735883
0.735891
0.735899
0.735899
0.735907
0.735915
0.735922
0.73593
0.73593
0.735938
0.735946
0.735953
0.735961
0.735961
0.735969
0.735976
0.735984
0.735992
0.735992
0.735999
0.736007
0.736014
0.736022
0.736022
0.736029
0.736037
0.736044
0.736052
0.736052
0.736059
0.736067
0.736074
0.736081
0.736081
0.736089
0.736096
0.736103
0.736111
0.736111
0.736118
0.736125
0.736132
0.73614
0.73614
0.736147
0.736154
0.736161
0.736169
0.736169
0.736176
0.736183
0.73619
0.736197
0.736197
0.736205
0.736212
0.736219
0.736226
0.736226
0.736233
0.736241
0.736248
0.736255
0.736255
0.736262
0.736269
0.736277
0.736284
0.736284
0.736291
0.736298
0.736306
0.736313
0.736313
0.73632
0.736327
0.736335
0.736342
0.736342
0.736349
0.736356
0.736364
0.736371
0.736371
0.736378
0.736385
0.736393
0.7364
0.7364
0.736407
0.736415
0.736422
0.736429
0.736429
0.736437
0.736444
0.736451
0.736459
0.736459
0.736466
0.736473
0.736481
0.736488
0.736488
0.736495
0.736503
0.73651
0.736518
0.736518
0.736525
0.736532
0.73654
0.736547
0.736547
0.736555
0.736562
0.736569
0.736577
0.736577
0.736584
0.736592
0.736599
0.736607
0.736607
0.736614
0.736621
0.736629
0.736636
0.736636
0.736644
0.736651
0.736659
0.736666
0.736666
0.736674
0.736681
0.736689
0.736696
0.736696
0.736704
0.736711
0.736719
0.736726
0.736726
0.736734
0.736741
0.736749
0.736756
0.736756
0.736764
0.736771
0.736779
0.736787
0.736787
0.736794
0.736802
0.736809
0.736817
0.736817
0.736824
0.736832
0.73684
0.736847
0.736847
0.736855
0.736862
0.73687
0.736878
0.736878
0.736885
0.736893
0.736901
0.736908
0.736908
0.736916
0.736924
0.736931
0.736939
0.736939
0.736947
0.736954
0.736962
0.73697
0.73697
0.736977
0.736985
0.736993
0.737
0.737
0.737008
0.737016
0.737023
0.737031
0.737031
0.737039
0.737047
0.737054
0.737062
0.737062
0.73707
0.737078
0.737085
0.737093
0.737093
0.737101
0.737109
0.737116
0.737124
0.737124
0.737132
0.73714
0.737148
0.737155
0.737155
0.737163
0.737171
0.737179
0.737187
0.737187
0.737194
0.737202
0.73721
0.737218
0.737218
0.737226
0.737234
0.737241
0.737249
0.737249
0.737257
0.737265
0.737273
0.737281
0.737281
0.737289
0.737297
0.737304
0.737312
0.737312
0.73732
0.737328
0.737336
0.737344
0.737344
0.737352
0.73736
0.737368
0.737376
0.737376
0.737384
0.737392
0.7374
0.737408
0.737408
0.737416
0.737424
0.737431
0.737439
0.737439
0.737447
0.737455
0.737463
0.737471
0.737471
0.737479
0.737487
0.737495
0.737503
0.737503
0.737512
0.73752
0.737528
0.737536
0.737536
0.737544
0.737552
0.73756
0.737568
0.737568
0.737576
0.737584
0.737592
0.7376
0.7376
0.737608
0.737616
0.737624
0.737633
0.737633
0.737641
0.737649
0.737657
0.737665
0.737665
0.737673
0.737681
0.737689
0.737697
0.737697
0.737706
0.737714
0.737722
0.73773
0.73773
0.737738
0.737746
0.737755
0.737763
0.737763
0.737771
0.737779
0.737787
0.737796
0.737796
0.737804
0.737812
0.73782
0.737828
0.737828
0.737837
0.737845
0.737853
0.737861
0.737861
0.73787
0.737878
0.737886
0.737894
0.737894
0.737903
0.737911
0.737919
0.737928
0.737928
0.737936
0.737944
0.737952
0.737961
0.737961
0.737969
0.737977
0.737986
0.737994
0.737994
0.738002
0.738011
0.738019
0.738027
0.738027
0.738036
0.738044
0.738052
0.738061
0.738061
0.738069
0.738077
0.738086
0.738094
0.738094
0.738103
0.738111
0.738119
0.738128
0.738128
0.738136
0.738145
0.738153
0.738161
0.738161
0.73817
0.738178
0.738187
0.738195
0.738195
0.738204
0.738212
0.738221
0.738229
0.738229
0.738238
0.738246
0.738254
0.738263
0.738263
0.738271
0.73828
0.738288
0.738297
0.738297
0.738305
0.738314
0.738323
0.738331
0.738331
0.73834
0.738348
0.738357
0.738365
0.738365
0.738374
0.738382
0.738391
0.738399
0.738399
0.738408
0.738417
0.738425
0.738434
0.738434
0.738442
0.738451
0.73846
0.738468
0.738468
0.738477
0.738485
0.738494
0.738503
0.738503
0.738511
0.73852
0.738529
0.738537
0.738537
0.738546
0.738555
0.738563
0.738572
0.738572
0.738581
0.738589
0.738598
0.738607
0.738607
0.738615
0.738624
0.738633
0.738641
0.738641
0.73865
0.738659
0.738668
0.738676
0.738676
0.738685
0.738694
0.738702
0.738711
0.738711
0.73872
0.738729
0.738737
0.738746
0.738746
0.738755
0.738764
0.738773
0.738781
0.738781
0.73879
0.738799
0.738808
0.738817
0.738817
0.738825
0.738834
0.738843
0.738852
0.738852
0.738861
0.738869
0.738878
0.738887
0.738887
0.738896
0.738905
0.738913
0.738922
0.738922
0.738931
0.73894
0.738949
0.738957
0.738957
0.738966
0.738975
0.738984
0.738992
0.738992
0.739001
0.73901
0.739018
0.739027
0.739027
0.739036
0.739044
0.739053
0.739061
0.739061
0.73907
0.739079
0.739087
0.739095
0.739095
0.739104
0.739112
0.739121
0.739129
0.739129
0.739137
0.739146
0.739154
0.739162
0.739162
0.73917
0.739179
0.739187
0.739195
0.739195
0.739203
0.739211
0.739219
0.739228
0.739228
0.739236
0.739244
0.739252
0.73926
0.73926
0.739268
0.739276
0.739284
0.739292
0.739292
0.7393
0.739308
0.739316
0.739324
0.739324
0.739332
0.73934
0.739348
0.739356
0.739356
0.739364
0.739372
0.73938
0.739388
0.739388
0.739396
0.739404
0.739412
0.73942
0.73942
0.739428
0.739436
0.739445
0.739453
0.739453
0.739461
0.739469
0.739477
0.739485
0.739485
0.739493
0.739501
0.739509
0.739517
0.739517
0.739525
0.739533
0.739542
0.73955
0.73955
0.739558
0.739566
0.739574
0.739582
0.739582
0.73959
0.739598
0.739607
0.739615
0.739615
0.739623
0.739631
0.739639
0.739647
0.739647
0.739656
0.739664
0.739672
0.73968
0.73968
0.739688
0.739697
0.739705
0.739713
0.739713
0.739721
0.739729
0.739738
0.739746
0.739746
0.739754
0.739762
0.739771
0.739779
0.739779
0.739787
0.739795
0.739804
0.739812
0.739812
0.73982
0.739828
0.739837
0.739845
0.739845
0.739853
0.739861
0.73987
0.739878
0.739878
0.739886
0.739895
0.739903
0.739911
0.739911
0.73992
0.739928
0.739936
0.739945
0.739945
0.739953
0.739961
0.73997
0.739978
0.739978
0.739986
0.739995
0.740003
0.740012
0.740012
0.74002
0.740028
0.740037
0.740045
0.740045
0.740053
0.740062
0.74007
0.740079
0.740079
0.740087
0.740096
0.740104
0.740112
0.740112
0.740121
0.740129
0.740138
0.740146
0.740146
0.740155
0.740163
0.740172
0.74018
0.74018
0.740188
0.740197
0.740205
0.740214
0.740214
0.740222
0.740231
0.740239
0.740248
0.740248
0.740256
0.740265
0.740273
0.740282
0.740282
0.740291
0.740299
0.740308
0.740316
0.740316
0.740325
0.740333
0.740342
0.74035
0.74035
0.740359
0.740368
0.740376
0.740385
0.740385
0.740393
0.740402
0.74041
0.740419
0.740419
0.740428
0.740436
0.740445
0.740454
0.740454
0.740462
0.740471
0.740479
0.740488
0.740488
0.740497
0.740505
0.740514
0.740523
0.740523
0.740531
0.74054
0.740549
0.740557
0.740557
0.740566
0.740575
0.740583
0.740592
0.740592
0.740601
0.740609
0.740618
0.740627
0.740627
0.740636
0.740644
0.740653
0.740662
0.740662
0.740671
0.740679
0.740688
0.740697
0.740697
0.740706
0.740714
0.740723
0.740732
0.740732
0.740741
0.740749
0.740758
0.740767
0.740767
0.740776
0.740785
0.740793
0.740802
0.740802
0.740811
0.74082
0.740829
0.740837
0.740837
0.740846
0.740855
0.740864
0.740873
0.740873
0.740882
0.740891
0.740899
0.740908
0.740908
0.740917
0.740926
0.740935
0.740944
0.740944
0.740953
0.740962
0.740971
0.740979
0.740979
0.740988
0.740997
0.741006
0.741015
0.741015
0.741024
0.741033
0.741042
0.741051
0.741051
0.74106
0.741069
0.741078
0.741087
0.741087
0.741096
0.741105
0.741114
0.741123
0.741123
0.741132
0.741141
0.74115
0.741159
0.741159
0.741168
0.741177
0.741186
0.741195
0.741195
0.741204
0.741213
0.741222
0.741231
0.741231
0.74124
0.741249
0.741258
0.741267
0.741267
0.741276
0.741285
0.741294
0.741303
0.741303
0.741312
0.741321
0.74133
0.74134
0.74134
0.741349
0.741358
0.741367
0.741376
0.741376
0.741385
0.741394
0.741403
0.741412
0.741412
0.741422
0.741431
0.74144
0.741449
0.741449
0.741458
0.741467
0.741477
0.741486
0.741486
0.741495
0.741504
0.741513
0.741522
0.741522
0.741532
0.741541
0.74155
0.741559
0.741559
0.741568
0.741577
0.741587
0.741596
0.741596
0.741605
0.741614
0.741623
0.741632
0.741632
0.741642
0.741651
0.74166
0.741669
0.741669
0.741678
0.741687
0.741696
0.741705
0.741705
0.741714
0.741723
0.741732
0.741741
0.741741
0.74175
0.741759
0.741768
0.741777
0.741777
0.741785
0.741794
0.741803
0.741812
0.741812
0.74182
0.741829
0.741838
0.741846
0.741846
0.741855
0.741864
0.741872
0.741881
0.741881
0.741889
0.741898
0.741906
0.741914
0.741914
0.741923
0.741931
0.74194
0.741948
0.741948
0.741956
0.741965
0.741973
0.741981
0.741981
0.74199
0.741998
0.742006
0.742015
0.742015
0.742023
0.742031
0.742039
0.742048
0.742048
0.742056
0.742064
0.742073
0.742081
0.742081
0.742089
0.742097
0.742106
0.742114
0.742114
0.742122
0.742131
0.742139
0.742147
0.742147
0.742155
0.742164
0.742172
0.74218
0.74218
0.742189
0.742197
0.742205
0.742214
0.742214
0.742222
0.74223
0.742239
0.742247
0.742247
0.742256
0.742264
0.742272
0.742281
0.742281
0.742289
0.742297
0.742306
0.742314
0.742314
0.742323
0.742331
0.742339
0.742348
0.742348
0.742356
0.742365
0.742373
0.742381
0.742381
0.74239
0.742398
0.742407
0.742415
0.742415
0.742424
0.742432
0.742441
0.742449
0.742449
0.742458
0.742466
0.742474
0.742483
0.742483
0.742491
0.7425
0.742508
0.742517
0.742517
0.742525
0.742534
0.742542
0.742551
0.742551
0.742559
0.742568
0.742577
0.742585
0.742585
0.742594
0.742602
0.742611
0.742619
0.742619
0.742628
0.742636
0.742645
0.742654
0.742654
0.742662
0.742671
0.742679
0.742688
0.742688
0.742696
0.742705
0.742714
0.742722
0.742722
0.742731
0.742739
0.742748
0.742757
0.742757
0.742765
0.742774
0.742783
0.742791
0.742791
0.7428
0.742809
0.742817
0.742826
0.742826
0.742835
0.742843
0.742852
0.742861
0.742861
0.742869
0.742878
0.742887
0.742895
0.742895
0.742904
0.742913
0.742921
0.74293
0.74293
0.742939
0.742948
0.742956
0.742965
0.742965
0.742974
0.742983
0.742991
0.743
0.743
0.743009
0.743018
0.743026
0.743035
0.743035
0.743044
0.743053
0.743061
0.74307
0.74307
0.743079
0.743088
0.743097
0.743105
0.743105
0.743114
0.743123
0.743132
0.743141
0.743141
0.74315
0.743158
0.743167
0.743176
0.743176
0.743185
0.743194
0.743203
0.743211
0.743211
0.74322
0.743229
0.743238
0.743247
0.743247
0.743256
0.743265
0.743274
0.743282
0.743282
0.743291
0.7433
0.743309
0.743318
0.743318
0.743327
0.743336
0.743345
0.743354
0.743354
0.743363
0.743372
0.743381
0.74339
0.74339
0.743399
0.743408
0.743416
0.743425
0.743425
0.743434
0.743443
0.743452
0.743461
0.743461
0.74347
0.743479
0.743488
0.743497
0.743497
0.743506
0.743515
0.743524
0.743533
0.743533
0.743542
0.743552
0.743561
0.74357
0.74357
0.743579
0.743588
0.743597
0.743606
0.743606
0.743615
0.743624
0.743633
0.743642
0.743642
0.743651
0.74366
0.743669
0.743678
0.743678
0.743688
0.743697
0.743706
0.743715
0.743715
0.743724
0.743733
0.743742
0.743751
0.743751
0.743761
0.74377
0.743779
0.743788
0.743788
0.743797
0.743806
0.743815
0.743825
0.743825
0.743834
0.743843
0.743852
0.743861
0.743861
0.743871
0.74388
0.743889
0.743898
0.743898
0.743907
0.743916
0.743926
0.743935
0.743935
0.743944
0.743953
0.743962
0.743971
0.743971
0.743981
0.74399
0.743999
0.744008
0.744008
0.744017
0.744026
0.744035
0.744044
0.744044
0.744053
0.744062
0.744071
0.74408
0.74408
0.744089
0.744098
0.744107
0.744116
0.744116
0.744125
0.744134
0.744143
0.744151
0.744151
0.74416
0.744169
0.744177
0.744186
0.744186
0.744195
0.744203
0.744212
0.74422
0.74422
0.744229
0.744237
0.744246
0.744254
0.744254
0.744263
0.744271
0.74428
0.744288
0.744288
0.744296
0.744305
0.744313
0.744321
0.744321
0.74433
0.744338
0.744346
0.744354
0.744354
0.744363
0.744371
0.744379
0.744387
0.744387
0.744396
0.744404
0.744412
0.74442
0.74442
0.744428
0.744437
0.744445
0.744453
0.744453
0.744461
0.74447
0.744478
0.744486
0.744486
0.744494
0.744503
0.744511
0.744519
0.744519
0.744527
0.744536
0.744544
0.744552
0.744552
0.74456
0.744569
0.744577
0.744585
0.744585
0.744593
0.744602
0.74461
0.744618
0.744618
0.744627
0.744635
0.744643
0.744652
0.744652
0.74466
0.744668
0.744677
0.744685
0.744685
0.744693
0.744702
0.74471
0.744718
0.744718
0.744727
0.744735
0.744743
0.744752
0.744752
0.74476
0.744768
0.744777
0.744785
0.744785
0.744794
0.744802
0.74481
0.744819
0.744819
0.744827
0.744836
0.744844
0.744852
0.744852
0.744861
0.744869
0.744878
0.744886
0.744886
0.744895
0.744903
0.744912
0.74492
0.74492
0.744928
0.744937
0.744945
0.744954
0.744954
0.744962
0.744971
0.744979
0.744988
0.744988
0.744996
0.745005
0.745013
0.745022
0.745022
0.74503
0.745039
0.745047
0.745056
0.745056
0.745064
0.745073
0.745082
0.74509
0.74509
0.745099
0.745107
0.745116
0.745124
0.745124
0.745133
0.745141
0.74515
0.745159
0.745159
0.745167
0.745176
0.745184
0.745193
0.745193
0.745202
0.74521
0.745219
0.745227
0.745227
0.745236
0.745245
0.745253
0.745262
0.745262
0.745271
0.745279
0.745288
0.745296
0.745296
0.745305
0.745314
0.745322
0.745331
0.745331
0.74534
0.745348
0.745357
0.745366
0.745366
0.745375
0.745383
0.745392
0.745401
0.745401
0.745409
0.745418
0.745427
0.745436
0.745436
0.745444
0.745453
0.745462
0.74547
0.74547
0.745479
0.745488
0.745497
0.745505
0.745505
0.745514
0.745523
0.745532
0.745541
0.745541
0.745549
0.745558
0.745567
0.745576
0.745576
0.745584
0.745593
0.745602
0.745611
0.745611
0.74562
0.745629
0.745637
0.745646
0.745646
0.745655
0.745664
0.745673
0.745682
0.745682
0.74569
0.745699
0.745708
0.745717
0.745717
0.745726
0.745735
0.745744
0.745753
0.745753
0.745761
0.74577
0.745779
0.745788
0.745788
0.745797
0.745806
0.745815
0.745824
0.745824
0.745833
0.745842
0.745851
0.745859
0.745859
0.745868
0.745877
0.745886
0.745895
0.745895
0.745904
0.745913
0.745922
0.745931
0.745931
0.74594
0.745949
0.745958
0.745967
0.745967
0.745976
0.745985
0.745994
0.746003
0.746003
0.746012
0.746021
0.746029
0.746038
0.746038
0.746047
0.746056
0.746065
0.746074
0.746074
0.746083
0.746092
0.7461
0.746109
0.746109
0.746118
0.746127
0.746135
0.746144
0.746144
0.746153
0.746162