<?xml version="1.0"?>
<VTKFile type="UnstructuredGrid" version="0.1" byte_order="LittleEndian">
<UnstructuredGrid>
<Piece NumberOfPoints="5000" NumberOfCells="4000">
<PointData Scalars="Reaction 0">
<DataArray type="Float32" Name="Reaction 0" format="ascii">
0.989915
0.989915
0.989915
0.989915
0.989915
0.989915
0.989915
0.989915
0.989915
0.989915
0.989915
0.989915
0.989915
0.989915
0.989915
0.989915
0.989915
0.989915
0.989915
0.989915
0.989915
0.989915
0.989915
0.989915
0.989915
0.989915
0.989915
0.989915
0.989915
0.989915
0.989915
0.989915
0.989915
0.989915
0.989915
0.989915
0.989915
0.989915
0.989915
0.989914
0.989914
0.989914
0.989914
0.989914
0.989914
0.989914
0.989914
0.989914
0.989914
0.989914
0.989914
0.989914
0.989914
0.989914
0.989914
0.989914
0.989914
0.989914
0.989914
0.989913
0.989913
0.989913
0.989913
0.989913
0.989913
0.989913
0.989913
0.989913
0.989913
0.989913
0.989913
0.989913
0.989913
0.989913
0.989912
0.989912
0.989912
0.989912
0.989912
0.989912
0.989912
0.989912
0.989912
0.989912
0.989912
0.989912
0.989912
0.989911
0.989911
0.989911
0.989911
0.989911
0.989911
0.989911
0.989911
0.989911
0.989911
0.989911
0.98991
0.98991
0.98991
0.98991
0.98991
0.98991
0.98991
0.98991
0.98991
0.98991
0.989909
0.989909
0.989909
0.989909
0.989909
0.989909
0.989909
0.989909
0.989909
0.989908
0.989908
0.989908
0.989908
0.989908
0.989908
0.989908
0.989908
0.989908
0.989907
0.989907
0.989907
0.989907
0.989907
0.989907
0.989907
0.989906
0.989906
0.989906
0.989906
0.989906
0.989906
0.989906
0.989906
0.989905
0.989905
0.989905
0.989905
0.989905
0.989905
0.989905
0.989904
0.989904
0.989904
0.989904
0.989904
0.989904
0.989903
0.989903
0.989903
0.989903
0.989903
0.989903
0.989903
0.989902
0.989902
0.989902
0.989902
0.989902
0.989902
0.989901
0.989901
0.989901
0.989901
0.989901
0.989901
0.9899
0.9899
0.9899
0.9899
0.9899
0.989899
0.989899
0.989899
0.989899
0.989899
0.989899
0.989898
0.989898
0.989898
0.989898
0.989898
0.989897
0.989897
0.989897
0.989897
0.989897
0.989896
0.989896
0.989896
0.989896
0.989896
0.989895
0.989895
0.989895
0.989895
0.989895
0.989894
0.989894
0.989894
0.989894
0.989894
0.989893
0.989893
0.989893
0.989893
0.989893
0.989892
0.989892
0.989892
0.989892
0.989892
0.989891
0.989891
0.989891
0.989891
0.989891
0.98989
0.98989
0.98989
0.98989
0.989889
0.989889
0.989889
0.989889
0.989889
0.989888
0.989888
0.989888
0.989888
0.989887
0.989887
0.989887
0.989887
0.989886
0.989886
0.989886
0.989886
0.989886
0.989885
0.989885
0.989885
0.989884
0.989884
0.989884
0.989884
0.989883
0.989883
0.989883
0.989883
0.989882
0.989882
0.989882
0.989882
0.989882
0.989881
0.989881
0.989881
0.989881
0.98988
0.98988
0.98988
0.989879
0.989879
0.989879
0.989879
0.989878
0.989878
0.989878
0.989878
0.989877
0.989877
0.989876
0.989876
0.989876
0.989876
0.989875
0.989875
0.989875
0.989875
0.989874
0.989874
0.989874
0.989874
0.989873
0.989873
0.989873
0.989872
0.989872
0.989872
0.989871
0.989871
0.989871
0.989871
0.98987
0.98987
0.98987
0.989869
0.989869
0.989869
0.989868
0.989868
0.989868
0.989868
0.989867
0.989867
0.989867
0.989866
0.989866
0.989866
0.989865
0.989865
0.989865
0.989865
0.989864
0.989864
0.989863
0.989863
0.989863
0.989863
0.989862
0.989862
0.989861
0.989861
0.989861
0.989861
0.98986
0.98986
0.98986
0.989859
0.989859
0.989859
0.989858
0.989858
0.989858
0.989857
0.989857
0.989856
0.989856
0.989856
0.989856
0.989855
0.989855
0.989855
0.989854
0.989854
0.989853
0.989853
0.989853
0.989852
0.989852
0.989852
0.989851
0.989851
0.989851
0.98985
0.98985
0.989849
0.989849
0.989849
0.989848
0.989848
0.989848
0.989848
0.989847
0.989847
0.989846
0.989846
0.989846
0.989845
0.989845
0.989844
0.989844
0.989844
0.989843
0.989843
0.989842
0.989842
0.989842
0.989841
0.989841
0.989841
0.98984
0.98984
0.98984
0.989839
0.989839
0.989838
0.989838
0.989838
0.989837
0.989837
0.989836
0.989836
0.989836
0.989835
0.989835
0.989834
0.989834
0.989834
0.989833
0.989833
0.989832
0.989832
0.989832
0.989831
0.989831
0.98983
0.98983
0.98983
0.989829
0.989829
0.989828
0.989828
0.989827
0.989827
0.989826
0.989826
0.989826
0.989825
0.989825
0.989824
0.989824
0.989824
0.989823
0.989823
0.989822
0.989822
0.989822
0.989821
0.989821
0.98982
0.98982
0.98982
0.989819
0.989818
0.989818
0.989817
0.989817
0.989817
0.989816
0.989816
0.989815
0.989815
0.989815
0.989814
0.989813
0.989813
0.989813
0.989812
0.989812
0.989811
0.989811
0.989811
0.98981
0.989809
0.989809
0.989808
0.989808
0.989808
0.989807
0.989807
0.989806
0.989806
0.989805
0.989805
0.989804
0.989804
0.989804
0.989803
0.989802
0.989802
0.989801
0.989801
0.989801
0.9898
0.9898
0.989799
0.989799
0.989798
0.989798
0.989797
0.989797
0.989797
0.989796
0.989795
0.989795
0.989794
0.989794
0.989793
0.989793
0.989792
0.989792
0.989792
0.989791
0.98979
0.98979
0.989789
0.989789
0.989789
0.989788
0.989787
0.989787
0.989787
0.989786
0.989785
0.989785
0.989784
0.989784
0.989783
0.989783
0.989782
0.989782
0.989782
0.989781
0.98978
0.98978
0.989779
0.989779
0.989778
0.989778
0.989777
0.989776
0.989776
0.989776
0.989775
0.989774
0.989774
0.989774
0.989773
0.989772
0.989772
0.989771
0.989771
0.98977
0.98977
0.989769
0.989768
0.989768
0.989768
0.989767
0.989766
0.989766
0.989766
0.989765
0.989764
0.989764
0.989763
0.989763
0.989762
0.989762
0.989761
0.98976
0.98976
0.989759
0.989759
0.989758
0.989757
0.989757
0.989757
0.989756
0.989755
0.989755
0.989755
0.989754
0.989753
0.989752
0.989752
0.989752
0.989751
0.98975
0.98975
0.989749
0.989749
0.989748
0.989747
0.989747
0.989746
0.989746
0.989745
0.989745
0.989744
0.989743
0.989743
0.989742
0.989742
0.989741
0.98974
0.98974
0.989739
0.989739
0.989738
0.989737
0.989737
0.989736
0.989736
0.989735
0.989734
0.989734
0.989733
0.989733
0.989732
0.989731
0.989731
0.98973
0.98973
0.989729
0.989728
0.989728
0.989727
0.989727
0.989726
0.989725
0.989725
0.989724
0.989724
0.989723
0.989722
0.989722
0.989721
0.989721
0.98972
0.989719
0.989719
0.989718
0.989717
0.989717
0.989716
0.989716
0.989715
0.989714
0.989713
0.989713
0.989713
0.989712
0.989711
0.98971
0.98971
0.98971
0.989709
0.989708
0.989707
0.989706
0.989706
0.989706
0.989705
0.989704
0.989703
0.989703
0.989702
0.989701
0.989701
0.9897
0.9897
0.989699
0.989698
0.989697
0.989697
0.989697
0.989696
0.989695
0.989694
0.989693
0.989693
0.989692
0.989692
0.989691
0.98969
0.98969
0.989689
0.989688
0.989687
0.989687
0.989687
0.989686
0.989685
0.989684
0.989683
0.989683
0.989682
0.989682
0.989681
0.98968
0.98968
0.989679
0.989678
0.989677
0.989676
0.989676
0.989676
0.989675
0.989674
0.989673
0.989673
0.989672
0.989671
0.98967
0.989669
0.989669
0.989669
0.989668
0.989667
0.989666
0.989666
0.989665
0.989664
0.989663
0.989662
0.989662
0.989662
0.989661
0.98966
0.989659
0.989659
0.989658
0.989657
0.989656
0.989655
0.989655
0.989654
0.989654
0.989653
0.989652
0.989652
0.989651
0.98965
0.989649
0.989648
0.989648
0.989647
0.989646
0.989645
0.989644
0.989644
0.989644
0.989643
0.989642
0.989641
0.989641
0.98964
0.989639
0.989638
0.989637
0.989637
0.989636
0.989635
0.989634
0.989633
0.989633
0.989632
0.989632
0.989631
0.98963
0.98963
0.989629
0.989628
0.989627
0.989626
0.989626
0.989625
0.989624
0.989623
0.989622
0.989622
0.989621
0.98962
0.989619
0.989618
0.989618
0.989617
0.989616
0.989615
0.989614
0.989614
0.989613
0.989613
0.989612
0.989611
0.989611
0.98961
0.989609
0.989608
0.989607
0.989607
0.989606
0.989605
0.989604
0.989603
0.989603
0.989602
0.989601
0.9896
0.989599
0.989599
0.989598
0.989597
0.989596
0.989595
0.989595
0.989594
0.989593
0.989592
0.989591
0.989591
0.98959
0.989589
0.989588
0.989587
0.989587
0.989586
0.989585
0.989584
0.989583
0.989583
0.989582
0.989581
0.98958
0.989579
0.989579
0.989578
0.989577
0.989576
0.989575
0.989575
0.989574
0.989573
0.989572
0.989571
0.989571
0.98957
0.989568
0.989567
0.989566
0.989566
0.989565
0.989564
0.989563
0.989562
0.989562
0.989561
0.98956
0.989559
0.989558
0.989558
0.989557
0.989556
0.989555
0.989554
0.989554
0.989553
0.989552
0.989551
0.98955
0.98955
0.989549
0.989547
0.989546
0.989545
0.989545
0.989544
0.989543
0.989542
0.989541
0.989541
0.98954
0.989539
0.989538
0.989537
0.989537
0.989536
0.989535
0.989533
0.989532
0.989532
0.989531
0.98953
0.989529
0.989528
0.989528
0.989527
0.989526
0.989525
0.989524
0.989524
0.989523
0.989521
0.98952
0.989519
0.989519
0.989518
0.989517
0.989516
0.989515
0.989515
0.989514
0.989513
0.989511
0.98951
0.98951
0.989509
0.989508
0.989507
0.989506
0.989506
0.989505
0.989504
0.989502
0.989501
0.989501
0.9895
0.989499
0.989498
0.989497
0.989497
0.989496
0.989495
0.989493
0.989492
0.989492
0.989491
0.98949
0.989489
0.989488
0.989488
0.989487
0.989485
0.989484
0.989483
0.989483
0.989482
0.989481
0.98948
0.989478
0.989478
0.989477
0.989476
0.989475
0.989474
0.989474
0.989473
0.989471
0.98947
0.989469
0.989469
0.989468
0.989467
0.989466
0.989464
0.989464
0.989463
0.989462
0.989461
0.98946
0.98946
0.989458
0.989457
0.989456
0.989455
0.989455
0.989454
0.989453
0.989451
0.98945
0.98945
0.989449
0.989448
0.989447
0.989445
0.989445
0.989444
0.989443
0.989442
0.989441
0.989441
0.989439
0.989438
0.989437
0.989436
0.989436
0.989434
0.989433
0.989432
0.989431
0.989431
0.98943
0.989428
0.989427
0.989426
0.989426
0.989425
0.989423
0.989422
0.989421
0.989421
0.98942
0.989418
0.989417
0.989416
0.989416
0.989415
0.989414
0.989412
0.989411
0.989411
0.98941
0.989409
0.989407
0.989406
0.989406
0.989405
0.989404
0.989402
0.989401
0.989401
0.9894
0.989398
0.989397
0.989396
0.989396
0.989395
0.989393
0.989392
0.989391
0.989391
0.98939
0.989388
0.989387
0.989386
0.989386
0.989385
0.989383
0.989382
0.989381
0.989381
0.989379
0.989378
0.989377
0.989376
0.989376
0.989374
0.989373
0.989372
0.98937
0.98937
0.989369
0.989368
0.989366
0.989365
0.989365
0.989364
0.989363
0.989361
0.98936
0.98936
0.989359
0.989357
0.989356
0.989355
0.989355
0.989353
0.989352
0.989351
0.989349
0.989349
0.989348
0.989347
0.989345
0.989344
0.989344
0.989343
0.989341
0.98934
0.989339
0.989339
0.989337
0.989336
0.989335
0.989333
0.989333
0.989332
0.989331
0.989329
0.989328
0.989328
0.989327
0.989325
0.989324
0.989323
0.989323
0.989321
0.98932
0.989319
0.989317
0.989317
0.989316
0.989315
0.989313
0.989312
0.989312
0.98931
0.989309
0.989308
0.989306
0.989306
0.989305
0.989304
0.989302
0.989301
0.989301
0.989299
0.989298
0.989297
0.989295
0.989295
0.989294
0.989292
0.989291
0.98929
0.98929
0.989288
0.989287
0.989286
0.989284
0.989284
0.989283
0.989281
0.98928
0.989278
0.989278
0.989277
0.989276
0.989274
0.989273
0.989273
0.989271
0.98927
0.989269
0.989267
0.989267
0.989266
0.989264
0.989263
0.989261
0.989261
0.98926
0.989259
0.989257
0.989256
0.989256
0.989254
0.989253
0.989251
0.98925
0.98925
0.989248
0.989247
0.989246
0.989244
0.989244
0.989243
0.989241
0.98924
0.989238
0.989238
0.989237
0.989235
0.989234
0.989232
0.989232
0.989231
0.98923
0.989228
0.989227
0.989227
0.989225
0.989224
0.989222
0.989221
0.989221
0.989219
0.989218
0.989216
0.989215
0.989215
0.989213
0.989212
0.98921
0.989209
0.989209
0.989207
0.989206
0.989205
0.989203
0.989203
0.989202
0.9892
0.989199
0.989197
0.989197
0.989196
0.989194
0.989193
0.989191
0.989191
0.98919
0.989188
0.989187
0.989185
0.989185
0.989183
0.989182
0.98918
0.989179
0.989179
0.989177
0.989176
0.989174
0.989173
0.989173
0.989171
0.98917
0.989168
0.989167
0.989167
0.989165
0.989164
0.989162
0.989161
0.989161
0.989159
0.989157
0.989156
0.989154
0.989154
0.989153
0.989151
0.98915
0.989148
0.989148
0.989147
0.989145
0.989143
0.989142
0.989142
0.98914
0.989139
0.989137
0.989136
0.989136
0.989134
0.989133
0.989131
0.989129
0.989129
0.989128
0.989126
0.989125
0.989123
0.989123
0.989121
0.98912
0.989118
0.989117
0.989117
0.989115
0.989114
0.989112
0.98911
0.98911
0.989109
0.989107
0.989106
0.989104
0.989104
0.989102
0.989101
0.989099
0.989098
0.989098
0.989096
0.989094
0.989093
0.989091
0.989091
0.989089
0.989088
0.989086
0.989085
0.989085
0.989083
0.989081
0.98908
0.989078
0.989078
0.989077
0.989075
0.989073
0.989072
0.989072
0.98907
0.989068
0.989067
0.989065
0.989065
0.989063
0.989062
0.98906
0.989059
0.989059
0.989057
0.989055
0.989054
0.989052
0.989052
0.98905
0.989049
0.989047
0.989045
0.989045
0.989044
0.989042
0.98904
0.989039
0.989039
0.989037
0.989035
0.989034
0.989032
0.989032
0.98903
0.989029
0.989027
0.989025
0.989025
0.989024
0.989022
0.98902
0.989019
0.989019
0.989017
0.989015
0.989014
0.989012
0.989012
0.98901
0.989008
0.989007
0.989005
0.989005
0.989003
0.989002
0.989
0.988998
0.988998
0.988997
0.988995
0.988993
0.988992
0.988992
0.98899
0.988988
0.988986
0.988985
0.988985
0.988983
0.988981
0.98898
0.988978
0.988978
0.988976
0.988974
0.988973
0.988971
0.988971
0.988969
0.988967
0.988966
0.988964
0.988964
0.988962
0.988961
0.988959
0.988957
0.988957
0.988955
0.988954
0.988952
0.98895
0.98895
0.988948
0.988947
0.988945
0.988943
0.988943
0.988941
0.98894
0.988938
0.988936
0.988936
0.988934
0.988933
0.988931
0.988929
0.988929
0.988927
0.988926
0.988924
0.988922
0.988922
0.98892
0.988918
0.988917
0.988915
0.988915
0.988913
0.988911
0.98891
0.988908
0.988908
0.988906
0.988904
0.988902
0.988901
0.988901
0.988899
0.988897
0.988895
0.988894
0.988894
0.988892
0.98889
0.988888
0.988886
0.988886
0.988885
0.988883
0.988881
0.988879
0.988879
0.988877
0.988875
0.988874
0.988872
0.988872
0.98887
0.988868
0.988866
0.988865
0.988865
0.988863
0.988861
0.988859
0.988857
0.988857
0.988855
0.988854
0.988852
0.98885
0.98885
0.988848
0.988846
0.988845
0.988843
0.988843
0.988841
0.988839
0.988837
0.988835
0.988835
0.988833
0.988832
0.98883
0.988828
0.988828
0.988826
0.988824
0.988822
0.988821
0.988821
0.988819
0.988817
0.988815
0.988813
0.988813
0.988811
0.988809
0.988807
0.988806
0.988806
0.988804
0.988802
0.9888
0.988798
0.988798
0.988796
0.988794
0.988793
0.988791
0.988791
0.988789
0.988787
0.988785
0.988783
0.988783
0.988781
0.988779
0.988777
0.988776
0.988776
0.988774
0.988772
0.98877
0.988768
0.988768
0.988766
0.988764
0.988762
0.98876
0.98876
0.988758
0.988757
0.988755
0.988753
0.988753
0.988751
0.988749
0.988747
0.988745
0.988745
0.988743
0.988741
0.988739
0.988737
0.988737
0.988735
0.988734
0.988732
0.98873
0.98873
0.988728
0.988726
0.988724
0.988722
0.988722
0.98872
0.988718
0.988716
0.988714
0.988714
0.988712
0.98871
0.988708
0.988706
0.988706
0.988704
0.988702
0.988701
0.988699
0.988699
0.988697
0.988695
0.988693
0.988691
0.988691
0.988689
0.988687
0.988685
0.988683
0.988683
0.988681
0.988679
0.988677
0.988675
0.988675
0.988673
0.988671
0.988669
0.988667
0.988667
0.988665
0.988663
0.988661
0.988659
0.988659
0.988657
0.988655
0.988653
0.988651
0.988651
0.988649
0.988647
0.988645
0.988643
0.988643
0.988641
0.988639
0.988637
0.988635
0.988635
0.988633
0.988631
0.988629
0.988627
0.988627
0.988625
0.988623
0.988621
0.988619
0.988619
0.988617
0.988615
0.988613
0.988611
0.988611
0.988609
0.988607
0.988605
0.988603
0.988603
0.988601
0.988599
0.988597
0.988595
0.988595
0.988593
0.988591
0.988589
0.988587
0.988587
0.988585
0.988583
0.988581
0.988578
0.988578
0.988576
0.988574
0.988572
0.98857
0.98857
0.988568
0.988566
0.988564
0.988562
0.988562
0.98856
0.988558
0.988556
0.988554
0.988554
0.988552
0.98855
0.988548
0.988546
0.988546
0.988543
0.988541
0.988539
0.988537
0.988537
0.988535
0.988533
0.988531
0.988529
0.988529
0.988527
0.988525
0.988523
0.988521
0.988521
0.988518
0.988516
0.988514
0.988512
0.988512
0.98851
0.988508
0.988506
0.988504
0.988504
0.988502
0.9885
0.988497
0.988495
0.988495
0.988493
0.988491
0.988489
0.988487
0.988487
0.988485
0.988483
0.988481
0.988478
0.988478
0.988476
0.988474
0.988472
0.98847
0.98847
0.988468
0.988466
0.988464
0.988461
0.988461
0.988459
0.988457
0.988455
0.988453
0.988453
0.988451
0.988449
0.988446
0.988444
0.988444
0.988442
0.98844
0.988438
0.988436
0.988436
0.988433
0.988431
0.988429
0.988427
0.988427
0.988425
0.988423
0.988421
0.988418
0.988418
0.988416
0.988414
0.988412
0.98841
0.98841
0.988408
0.988405
0.988403
0.988401
0.988401
0.988399
0.988397
0.988394
0.988392
0.988392
0.98839
0.988388
0.988386
0.988384
0.988384
0.988381
0.988379
0.988377
0.988375
0.988375
0.988373
0.98837
0.988368
0.988366
0.988366
0.988364
0.988362
0.988359
0.988357
0.988357
0.988355
0.988353
0.98835
0.988348
0.988348
0.988346
0.988344
0.988342
0.988339
0.988339
0.988337
0.988335
0.988333
0.98833
0.98833
0.988328
0.988326
0.988324
0.988321
0.988321
0.988319
0.988317
0.988315
0.988312
0.988312
0.98831
0.988308
0.988306
0.988303
0.988303
0.988301
0.988299
0.988297
0.988294
0.988294
0.988292
0.98829
0.988288
0.988285
0.988285
0.988283
0.988281
0.988278
0.988276
0.988276
0.988274
0.988272
0.988269
0.988267
0.988267
0.988265
0.988262
0.98826
0.988258
0.988258
0.988256
0.988253
0.988251
0.988249
0.988249
0.988246
0.988244
0.988242
0.988239
0.988239
0.988237
0.988235
0.988232
0.98823
0.98823
0.988228
0.988225
0.988223
0.988221
0.988221
0.988219
0.988216
0.988214
0.988212
0.988212
0.988209
0.988207
0.988205
0.988202
0.988202
0.9882
0.988198
0.988195
0.988193
0.988193
0.988191
0.988188
0.988186
0.988184
0.988184
0.988181
0.988179
0.988177
0.988174
0.988174
0.988172
0.98817
0.988167
0.988165
0.988165
0.988163
0.98816
0.988158
0.988156
0.988156
0.988153
0.988151
0.988148
0.988146
0.988146
0.988144
0.988141
0.988139
0.988137
0.988137
0.988134
0.988132
0.988129
0.988127
0.988127
0.988125
0.988122
0.98812
0.988117
0.988117
0.988115
0.988113
0.98811
0.988108
0.988108
0.988105
0.988103
0.988101
0.988098
0.988098
0.988096
0.988093
0.988091
0.988089
0.988089
0.988086
0.988084
0.988081
0.988079
0.988079
0.988076
0.988074
0.988072
0.988069
0.988069
0.988067
0.988064
0.988062
0.988059
0.988059
0.988057
0.988055
0.988052
0.98805
0.98805
0.988047
0.988045
0.988042
0.98804
0.98804
0.988037
0.988035
0.988033
0.98803
0.98803
0.988028
0.988025
0.988023
0.98802
0.98802
0.988018
0.988015
0.988013
0.98801
0.98801
0.988008
0.988005
0.988003
0.988001
0.988001
0.987998
0.987996
0.987993
0.987991
0.987991
0.987988
0.987986
0.987983
0.987981
0.987981
0.987978
0.987976
0.987973
0.987971
0.987971
0.987968
0.987966
0.987963
0.987961
0.987961
0.987958
0.987956
0.987953
0.987951
0.987951
0.987948
0.987946
0.987943
0.987941
0.987941
0.987938
0.987936
0.987933
0.987931
0.987931
0.987928
0.987926
0.987923
0.98792
0.98792
0.987918
0.987915
0.987913
0.98791
0.98791
0.987908
0.987905
0.987903
0.9879
0.9879
0.987898
0.987895
0.987893
0.98789
0.98789
0.987888
0.987885
0.987882
0.98788
0.98788
0.987877
0.987875
0.987872
0.98787
0.98787
0.987867
0.987865
0.987862
0.987859
0.987859
0.987857
0.987854
0.987852
0.987849
0.987849
0.987847
0.987844
0.987841
0.987839
0.987839
0.987836
0.987834
0.987831
0.987829
0.987829
0.987826
0.987823
0.987821
0.987818
0.987818
0.987816
0.987813
0.98781
0.987808
0.987808
0.987805
0.987803
0.9878
0.987797
0.987797
0.987795
0.987792
0.98779
0.987787
0.987787
0.987784
0.987782
0.987779
0.987777
0.987777
0.987774
0.987771
0.987769
0.987766
0.987766
0.987764
0.987761
0.987758
0.987756
0.987756
0.987753
0.98775
0.987748
0.987745
0.987745
0.987742
0.98774
0.987737
0.987735
0.987735
0.987732
0.987729
0.987727
0.987724
0.987724
0.987721
0.987719
0.987716
0.987713
0.987713
0.987711
0.987708
0.987705
0.987703
0.987703
0.9877
0.987697
0.987695
0.987692
0.987692
0.98769
0.987687
0.987684
0.987682
0.987682
0.987679
0.987676
0.987673
0.987671
0.987671
0.987668
0.987665
0.987663
0.98766
0.98766
0.987657
0.987655
0.987652
0.987649
0.987649
0.987647
0.987644
0.987641
0.987639
0.987639
0.987636
0.987633
0.987631
0.987628
0.987628
0.987625
0.987622
0.98762
0.987617
0.987617
0.987614
0.987612
0.987609
0.987606
0.987606
0.987603
0.987601
0.987598
0.987595
0.987595
0.987593
0.98759
0.987587
0.987584
0.987584
0.987582
0.987579
0.987576
0.987573
0.987573
0.987571
0.987568
0.987565
0.987563
0.987563
0.98756
0.987557
0.987554
0.987552
0.987552
0.987549
0.987546
0.987543
0.987541
0.987541
0.987538
0.987535
0.987532
0.98753
0.98753
0.987527
0.987524
0.987521
0.987519
0.987519
0.987516
0.987513
0.98751
0.987507
0.987507
0.987505
0.987502
0.987499
0.987496
0.987496
0.987494
0.987491
0.987488
0.987485
0.987485
0.987482
0.98748
0.987477
0.987474
0.987474
0.987471
0.987469
0.987466
0.987463
0.987463
0.98746
0.987457
0.987455
0.987452
0.987452
0.987449
0.987446
0.987443
0.987441
0.987441
0.987438
0.987435
0.987432
0.987429
0.987429
0.987426
0.987424
0.987421
0.987418
0.987418
0.987415
0.987412
0.98741
0.987407
0.987407
0.987404
0.987401
0.987398
0.987395
0.987395
0.987393
0.98739
0.987387
0.987384
0.987384
0.987381
0.987378
0.987376
0.987373
0.987373
0.98737
0.987367
0.987364
0.987361
0.987361
0.987358
0.987356
0.987353
0.98735
0.98735
0.987347
0.987344
0.987341
0.987338
0.987338
0.987336
0.987333
0.98733
0.987327
0.987327
0.987324
0.987321
0.987318
0.987315
0.987315
0.987312
0.98731
0.987307
0.987304
0.987304
0.987301
0.987298
0.987295
0.987292
0.987292
0.987289
0.987286
0.987283
0.98728
0.98728
0.987278
0.987275
0.987272
0.987269
0.987269
0.987266
0.987263
0.98726
0.987257
0.987257
0.987254
0.987251
0.987248
0.987245
0.987245
0.987242
0.987239
0.987236
0.987233
0.987233
0.987231
0.987228
0.987225
0.987222
0.987222
0.987219
0.987216
0.987213
0.98721
0.98721
0.987207
0.987204
0.987201
0.987198
0.987198
0.987195
0.987192
0.987189
0.987186
0.987186
0.987183
0.98718
0.987178
0.987175
0.987175
0.987172
0.987169
0.987166
0.987163
0.987163
0.98716
0.987157
0.987154
0.987151
0.987151
0.987148
0.987145
0.987142
0.987139
0.987139
0.987136
0.987133
0.98713
0.987127
0.987127
0.987124
0.987121
0.987118
0.987115
0.987115
0.987112
0.987109
0.987106
0.987103
0.987103
0.9871
0.987097
0.987094
0.987091
0.987091
0.987088
0.987085
0.987082
0.987079
0.987079
0.987076
0.987073
0.98707
0.987067
0.987067
0.987064
0.987061
0.987057
0.987054
0.987054
0.987051
0.987048
0.987045
0.987042
0.987042
0.987039
0.987036
0.987033
0.98703
0.98703
0.987027
0.987024
0.987021
0.987018
0.987018
0.987015
0.987012
0.987009
0.987005
0.987005
0.987002
0.986999
0.986996
0.986993
0.986993
0.98699
0.986987
0.986984
0.986981
0.986981
0.986978
0.986975
0.986972
0.986968
0.986968
0.986965
0.986962
0.986959
0.986956
0.986956
0.986953
0.98695
0.986947
0.986944
0.986944
0.986941
0.986937
0.986934
0.986931
0.986931
0.986928
0.986925
0.986922
0.986919
0.986919
0.986916
0.986913
0.986909
0.986906
0.986906
0.986903
0.9869
0.986897
0.986894
0.986894
0.986891
0.986887
0.986884
0.986881
0.986881
0.986878
0.986875
0.986872
0.986869
0.986869
0.986865
0.986862
0.986859
0.986856
0.986856
0.986853
0.98685
0.986847
0.986843
0.986843
0.98684
0.986837
0.986834
0.986831
0.986831
0.986828
0.986824
0.986821
0.986818
0.986818
0.986815
0.986812
0.986809
0.986805
0.986805
0.986802
0.986799
0.986796
0.986793
0.986793
0.98679
0.986786
0.986783
0.98678
0.98678
0.986777
0.986774
0.98677
0.986767
0.986767
0.986764
0.986761
0.986758
0.986754
0.986754
0.986751
0.986748
0.986745
0.986742
0.986742
0.986738
0.986735
0.986732
0.986729
0.986729
0.986726
0.986722
0.986719
0.986716
0.986716
0.986713
0.986709
0.986706
0.986703
0.986703
0.9867
0.986697
0.986693
0.98669
0.98669
0.986687
0.986684
0.98668
0.986677
0.986677
0.986674
0.986671
0.986667
0.986664
0.986664
0.986661
0.986658
0.986654
0.986651
0.986651
0.986648
0.986645
0.986641
0.986638
0.986638
0.986635
0.986632
0.986628
0.986625
0.986625
0.986622
0.986619
0.986615
0.986612
0.986612
0.986609
0.986606
0.986602
0.986599
0.986599
0.986596
0.986592
0.986589
0.986586
0.986586
0.986583
0.986579
0.986576
0.986573
0.986573
0.986569
0.986566
0.986563
0.98656
0.98656
0.986556
0.986553
0.98655
0.986546
0.986546
0.986543
0.98654
0.986536
0.986533
0.986533
0.98653
0.986527
0.986523
0.98652
0.98652
0.986517
0.986513
0.98651
0.986507
0.986507
0.986503
0.9865
0.986497
0.986493
0.986493
0.98649
0.986487
0.986483
0.98648
0.98648
0.986477
0.986473
0.98647
0.986467
0.986467
0.986463
0.98646
0.986457
0.986453
0.986453
0.98645
0.986447
0.986443
0.98644
0.98644
0.986437
0.986433
0.98643
0.986426
0.986426
0.986423
0.98642
0.986416
0.986413
0.986413
0.98641
0.986406
0.986403
0.9864
0.9864
0.986396
0.986393
0.986389
0.986386
0.986386
0.986383
0.986379
0.986376
0.986372
0.986372
0.986369
0.986366
0.986362
0.986359
0.986359
0.986356
0.986352
0.986349
0.986345
0.986345
0.986342
0.986338
0.986335
0.986332
0.986332
0.986328
0.986325
0.986321
0.986318
0.986318
0.986315
0.986311
0.986308
0.986304
0.986304
0.986301
0.986297
0.986294
0.98629
0.98629
0.986287
0.986284
0.98628
0.986277
0.986277
0.986273
0.98627
0.986266
0.986263
0.986263
0.986259
0.986256
0.986252
0.986249
0.986249
0.986245
0.986242
0.986238
0.986235
0.986235
0.986231
0.986228
0.986225
0.986221
0.986221
0.986218
0.986214
0.986211
0.986207
0.986207
0.986204
0.9862
0.986197
0.986193
0.986193
0.98619
0.986186
0.986183
0.986179
0.986179
0.986176
0.986172
0.986169
0.986165
0.986165
0.986162
0.986158
0.986155
0.986151
0.986151
0.986148
0.986144
0.986141
0.986137
0.986137
0.986134
0.98613
0.986127
0.986123
0.986123
0.98612
0.986116
0.986113
0.986109
0.986109
0.986106
0.986102
0.986099
0.986095
0.986095
0.986092
0.986088
0.986085
0.986081
0.986081
0.986078
0.986074
0.986071
0.986067
0.986067
0.986063
0.98606
0.986056
0.986053
0.986053
0.986049
0.986046
0.986042
0.986038
0.986038
0.986035
0.986031
0.986028
0.986024
0.986024
0.986021
0.986017
0.986013
0.98601
0.98601
0.986006
0.986003
0.985999
0.985995
0.985995
0.985992
0.985988
0.985985
0.985981
0.985981
0.985978
0.985974
0.98597
0.985967
0.985967
0.985963
0.985959
0.985956
0.985952
0.985952
0.985949
0.985945
0.985941
0.985938
0.985938
0.985934
0.985931
0.985927
0.985923
0.985923
0.98592
0.985916
0.985912
0.985909
0.985909
0.985905
0.985902
0.985898
0.985894
0.985894
0.985891
0.985887
0.985883
0.98588
0.98588
0.985876
0.985872
0.985869
0.985865
0.985865
0.985861
0.985858
0.985854
0.98585
0.98585
0.985847
0.985843
0.985839
0.985836
0.985836
0.985832
0.985829
0.985825
0.985821
0.985821
0.985817
0.985814
0.98581
0.985806
0.985806
0.985803
0.985799
0.985795
0.985792
0.985792
0.985788
0.985784
0.985781
0.985777
0.985777
0.985773
0.98577
0.985766
0.985762
0.985762
0.985759
0.985755
0.985751
0.985747
0.985747
0.985744
0.98574
0.985736
0.985733
0.985733
0.985729
0.985725
0.985721
0.985718
0.985718
0.985714
0.98571
0.985707
0.985703
0.985703
0.985699
0.985695
0.985692
0.985688
0.985688
0.985684
0.985681
0.985677
0.985673
0.985673
0.985669
0.985666
0.985662
0.985658
0.985658
0.985654
0.985651
0.985647
0.985643
0.985643
0.985639
0.985636
0.985632
0.985628
0.985628
0.985624
0.985621
0.985617
0.985613
0.985613
0.985609
0.985606
0.985602
0.985598
0.985598
0.985594
0.985591
0.985587
0.985583
0.985583
0.985579
0.985575
0.985572
0.985568
0.985568
0.985564
0.98556
0.985557
0.985553
0.985553
0.985549
0.985545
0.985541
0.985538
0.985538
0.985534
0.98553
0.985526
0.985522
0.985522
0.985519
0.985515
0.985511
0.985507
0.985507
0.985503
0.9855
0.985496
0.985492
0.985492
0.985488
0.985484
0.985481
0.985477
0.985477
0.985473
0.985469
0.985465
0.985461
0.985461
0.985458
0.985454
0.98545
0.985446
0.985446
0.985442
0.985438
0.985435
0.985431
0.985431
0.985427
0.985423
0.985419
0.985415
0.985415
0.985412
0.985408
0.985404
0.9854
0.9854
0.985396
0.985392
0.985388
0.985385
0.985385
0.985381
0.985377
0.985373
0.985369
0.985369
0.985365
0.985361
0.985357
0.985354
0.985354
0.98535
0.985346
0.985342
0.985338
0.985338
0.985334
0.98533
0.985326
0.985322
0.985322
0.985319
0.985315
0.985311
0.985307
0.985307
0.985303
0.985299
0.985295
0.985291
0.985291
0.985287
0.985283
0.985279
0.985275
0.985275
0.985271
0.985268
0.985264
0.98526
0.98526
0.985256
0.985252
0.985248
0.985244
0.985244
0.98524
0.985236
0.985232
0.985228
0.985228
0.985224
0.98522
0.985216
0.985212
0.985212
0.985208
0.985204
0.9852
0.985196
0.985196
0.985192
0.985189
0.985185
0.985181
0.985181
0.985177
0.985173
0.985169
0.985165
0.985165
0.985161
0.985157
0.985153
0.985149
0.985149
0.985145
0.985141
0.985137
0.985133
0.985133
0.985129
0.985125
0.985121
0.985117
0.985117
0.985113
0.985109
0.985105
0.985101
0.985101
0.985097
0.985093
0.985089
0.985085
0.985085
0.985081
0.985077
0.985073
0.985069
0.985069
0.985065
0.985061
0.985057
0.985053
0.985053
0.985049
0.985045
0.985041
0.985037
0.985037
0.985033
0.985029
0.985025
0.985021
0.985021
0.985017
0.985013
0.985009
0.985005
0.985005
0.985001
0.984997
0.984993
0.984989
0.984989
0.984985
0.984981
0.984977
0.984973
0.984973
0.984969
0.984964
0.98496
0.984956
0.984956
0.984952
0.984948
0.984944
0.98494
0.98494
0.984936
0.984932
0.984928
0.984924
0.984924
0.98492
0.984916
0.984911
0.984907
0.984907
0.984903
0.984899
0.984895
0.984891
0.984891
0.984887
0.984883
0.984879
0.984875
0.984875
0.984871
0.984866
0.984862
0.984858
0.984858
0.984854
0.98485
0.984846
0.984842
0.984842
0.984838
0.984834
0.984829
0.984825
0.984825
0.984821
0.984817
0.984813
0.984809
0.984809
0.984805
0.9848
0.984796
0.984792
0.984792
0.984788
0.984784
0.98478
0.984776
0.984776
0.984772
0.984767
0.984763
0.984759
0.984759
0.984755
0.984751
0.984747
0.984742
0.984742
0.984738
0.984734
0.98473
0.984726
0.984726
0.984722
0.984718
0.984713
0.984709
0.984709
0.984705
0.984701
0.984697
0.984693
0.984693
0.984688
0.984684
0.98468
0.984676
0.984676
0.984672
0.984667
0.984663
0.984659
0.984659
0.984655
0.984651
0.984647
0.984642
0.984642
0.984638
0.984634
0.98463
0.984626
0.984626
0.984621
0.984617
0.984613
0.984609
0.984609
0.984605
0.9846
0.984596
0.984592
0.984592
0.984588
0.984583
0.984579
0.984575
0.984575
0.984571
0.984567
0.984562
0.984558
0.984558
0.984554
0.98455
0.984545
0.984541
0.984541
0.984537
0.984533
0.984529
0.984524
0.984524
0.98452
0.984516
0.984512
0.984507
0.984507
0.984503
0.984499
0.984495
0.98449
0.98449
0.984486
0.984482
0.984478
0.984473
0.984473
0.984469
0.984465
0.984461
0.984456
0.984456
0.984452
0.984448
0.984443
0.984439
0.984439
0.984435
0.984431
0.984426
0.984422
0.984422
0.984418
0.984413
0.984409
0.984405
0.984405
0.984401
0.984396
0.984392
0.984388
0.984388
0.984383
0.984379
0.984375
0.98437
0.98437
0.984366
0.984362
0.984358
0.984353
0.984353
0.984349
0.984345
0.98434
0.984336
0.984336
0.984332
0.984327
0.984323
0.984319
0.984319
0.984314
0.98431
0.984305
0.984301
0.984301
0.984297
0.984292
0.984288
0.984284
0.984284
0.984279
0.984275
0.984271
0.984266
0.984266
0.984262
0.984257
0.984253
0.984249
0.984249
0.984244
0.98424
0.984235