<?xml version="1.0"?>
<VTKFile type="UnstructuredGrid" version="0.1" byte_order="LittleEndian">
<UnstructuredGrid>
<Piece NumberOfPoints="5000" NumberOfCells="4000">
<PointData Scalars="Reaction 0">
<DataArray type="Float32" Name="Reaction 0" format="ascii">
0.486877
0.486877
0.486877
0.486877
0.486877
0.486877
0.486877
0.486877
0.486877
0.486877
0.486877
0.486878
0.486878
0.486878
0.486878
0.486878
0.486879
0.486879
0.486879
0.48688
0.48688
0.48688
0.486881
0.486881
0.486882
0.486882
0.486882
0.486883
0.486883
0.486884
0.486884
0.486884
0.486885
0.486886
0.486886
0.486886
0.486887
0.486888
0.486889
0.486889
0.486889
0.48689
0.486891
0.486892
0.486893
0.486893
0.486894
0.486895
0.486896
0.486897
0.486897
0.486898
0.486899
0.4869
0.486901
0.486901
0.486902
0.486903
0.486904
0.486905
0.486905
0.486906
0.486908
0.486909
0.48691
0.48691
0.486912
0.486913
0.486914
0.486916
0.486916
0.486917
0.486918
0.48692
0.486921
0.486921
0.486923
0.486924
0.486926
0.486927
0.486927
0.486929
0.486931
0.486932
0.486934
0.486934
0.486936
0.486937
0.486939
0.486941
0.486941
0.486943
0.486945
0.486946
0.486948
0.486948
0.48695
0.486952
0.486954
0.486956
0.486956
0.486958
0.48696
0.486962
0.486964
0.486964
0.486966
0.486968
0.486971
0.486973
0.486973
0.486975
0.486977
0.486979
0.486982
0.486982
0.486984
0.486986
0.486989
0.486991
0.486991
0.486993
0.486996
0.486998
0.487001
0.487001
0.487003
0.487006
0.487008
0.487011
0.487011
0.487013
0.487016
0.487019
0.487021
0.487021
0.487024
0.487027
0.487029
0.487032
0.487032
0.487035
0.487038
0.487041
0.487044
0.487044
0.487046
0.487049
0.487052
0.487055
0.487055
0.487058
0.487061
0.487064
0.487067
0.487067
0.48707
0.487074
0.487077
0.48708
0.48708
0.487083
0.487086
0.487089
0.487093
0.487093
0.487096
0.487099
0.487103
0.487106
0.487106
0.487109
0.487113
0.487116
0.48712
0.48712
0.487123
0.487127
0.48713
0.487134
0.487134
0.487137
0.487141
0.487145
0.487148
0.487148
0.487152
0.487156
0.487159
0.487163
0.487163
0.487167
0.487171
0.487175
0.487178
0.487178
0.487182
0.487186
0.48719
0.487194
0.487194
0.487198
0.487202
0.487206
0.48721
0.48721
0.487214
0.487218
0.487222
0.487227
0.487227
0.487231
0.487235
0.487239
0.487243
0.487243
0.487248
0.487252
0.487256
0.487261
0.487261
0.487265
0.487269
0.487274
0.487278
0.487278
0.487283
0.487287
0.487292
0.487296
0.487296
0.487301
0.487306
0.48731
0.487315
0.487315
0.48732
0.487324
0.487329
0.487334
0.487334
0.487338
0.487343
0.487348
0.487353
0.487353
0.487358
0.487363
0.487368
0.487373
0.487373
0.487378
0.487383
0.487388
0.487393
0.487393
0.487398
0.487403
0.487408
0.487413
0.487413
0.487418
0.487423
0.487429
0.487434
0.487434
0.487439
0.487444
0.48745
0.487455
0.487455
0.48746
0.487466
0.487471
0.487477
0.487477
0.487482
0.487488
0.487493
0.487499
0.487499
0.487504
0.48751
0.487515
0.487521
0.487521
0.487527
0.487532
0.487538
0.487544
0.487544
0.48755
0.487555
0.487561
0.487567
0.487567
0.487573
0.487579
0.487585
0.487591
0.487591
0.487597
0.487603
0.487609
0.487615
0.487615
0.487621
0.487627
0.487633
0.487639
0.487639
0.487645
0.487651
0.487658
0.487664
0.487664
0.48767
0.487676
0.487683
0.487689
0.487689
0.487695
0.487702
0.487708
0.487715
0.487715
0.487721
0.487728
0.487734
0.487741
0.487741
0.487747
0.487754
0.48776
0.487767
0.487767
0.487774
0.48778
0.487787
0.487794
0.487794
0.487801
0.487807
0.487814
0.487821
0.487821
0.487828
0.487835
0.487842
0.487849
0.487849
0.487856
0.487862
0.48787
0.487877
0.487877
0.487884
0.487891
0.487898
0.487905
0.487905
0.487912
0.487919
0.487926
0.487934
0.487934
0.487941
0.487948
0.487955
0.487963
0.487963
0.48797
0.487978
0.487985
0.487992
0.487992
0.488
0.488007
0.488015
0.488022
0.488022
0.48803
0.488037
0.488045
0.488053
0.488053
0.48806
0.488068
0.488076
0.488083
0.488083
0.488091
0.488099
0.488107
0.488114
0.488114
0.488122
0.48813
0.488138
0.488146
0.488146
0.488154
0.488162
0.48817
0.488178
0.488178
0.488186
0.488194
0.488202
0.48821
0.48821
0.488218
0.488227
0.488235
0.488243
0.488243
0.488251
0.488259
0.488268
0.488276
0.488276
0.488284
0.488293
0.488301
0.48831
0.48831
0.488318
0.488327
0.488335
0.488344
0.488344
0.488352
0.488361
0.488369
0.488378
0.488378
0.488386
0.488395
0.488404
0.488413
0.488413
0.488421
0.48843
0.488439
0.488448
0.488448
0.488456
0.488465
0.488474
0.488483
0.488483
0.488492
0.488501
0.48851
0.488519
0.488519
0.488528
0.488537
0.488546
0.488555
0.488555
0.488564
0.488574
0.488583
0.488592
0.488592
0.488601
0.48861
0.48862
0.488629
0.488629
0.488638
0.488648
0.488657
0.488667
0.488667
0.488676
0.488685
0.488695
0.488704
0.488704
0.488714
0.488723
0.488733
0.488743
0.488743
0.488752
0.488762
0.488772
0.488781
0.488781
0.488791
0.488801
0.488811
0.48882
0.48882
0.48883
0.48884
0.48885
0.48886
0.48886
0.48887
0.48888
0.48889
0.4889
0.4889
0.48891
0.48892
0.48893
0.48894
0.48894
0.48895
0.48896
0.48897
0.488981
0.488981
0.488991
0.489001
0.489011
0.489022
0.489022
0.489032
0.489042
0.489053
0.489063
0.489063
0.489073
0.489084
0.489094
0.489105
0.489105
0.489115
0.489126
0.489136
0.489147
0.489147
0.489158
0.489168
0.489179
0.48919
0.48919
0.4892
0.489211
0.489222
0.489233
0.489233
0.489244
0.489254
0.489265
0.489276
0.489276
0.489287
0.489298
0.489309
0.48932
0.48932
0.489331
0.489342
0.489353
0.489364
0.489364
0.489375
0.489386
0.489398
0.489409
0.489409
0.48942
0.489431
0.489442
0.489454
0.489454
0.489465
0.489476
0.489488
0.489499
0.489499
0.489511
0.489522
0.489533
0.489545
0.489545
0.489556
0.489568
0.489579
0.489591
0.489591
0.489603
0.489614
0.489626
0.489638
0.489638
0.489649
0.489661
0.489673
0.489685
0.489685
0.489696
0.489708
0.48972
0.489732
0.489732
0.489744
0.489756
0.489768
0.48978
0.48978
0.489792
0.489804
0.489816
0.489828
0.489828
0.48984
0.489852
0.489864
0.489876
0.489876
0.489889
0.489901
0.489913
0.489925
0.489925
0.489938
0.48995
0.489962
0.489975
0.489975
0.489987
0.49
0.490012
0.490025
0.490025
0.490037
0.49005
0.490062
0.490075
0.490075
0.490087
0.4901
0.490113
0.490125
0.490125
0.490138
0.490151
0.490163
0.490176
0.490176
0.490189
0.490202
0.490215
0.490227
0.490227
0.49024
0.490253
0.490266
0.490279
0.490279
0.490292
0.490305
0.490318
0.490331
0.490331
0.490344
0.490357
0.490371
0.490384
0.490384
0.490397
0.49041
0.490423
0.490437
0.490437
0.49045
0.490463
0.490477
0.49049
0.49049
0.490503
0.490517
0.49053
0.490544
0.490544
0.490557
0.490571
0.490584
0.490598
0.490598
0.490611
0.490625
0.490639
0.490652
0.490652
0.490666
0.49068
0.490693
0.490707
0.490707
0.490721
0.490735
0.490749
0.490762
0.490762
0.490776
0.49079
0.490804
0.490818
0.490818
0.490832
0.490846
0.49086
0.490874
0.490874
0.490888
0.490902
0.490916
0.490931
0.490931
0.490945
0.490959
0.490973
0.490987
0.490987
0.491002
0.491016
0.49103
0.491045
0.491045
0.491059
0.491074
0.491088
0.491102
0.491102
0.491117
0.491131
0.491146
0.49116
0.49116
0.491175
0.49119
0.491204
0.491219
0.491219
0.491234
0.491248
0.491263
0.491278
0.491278
0.491292
0.491307
0.491322
0.491337
0.491337
0.491352
0.491367
0.491382
0.491397
0.491397
0.491412
0.491427
0.491442
0.491457
0.491457
0.491472
0.491487
0.491502
0.491517
0.491517
0.491532
0.491547
0.491563
0.491578
0.491578
0.491593
0.491608
0.491624
0.491639
0.491639
0.491654
0.49167
0.491685
0.491701
0.491701
0.491716
0.491732
0.491747
0.491763
0.491763
0.491778
0.491794
0.491809
0.491825
0.491825
0.491841
0.491856
0.491872
0.491888
0.491888
0.491904
0.491919
0.491935
0.491951
0.491951
0.491967
0.491983
0.491999
0.492015
0.492015
0.492031
0.492047
0.492063
0.492079
0.492079
0.492095
0.492111
0.492127
0.492143
0.492143
0.492159
0.492175
0.492191
0.492208
0.492208
0.492224
0.49224
0.492256
0.492273
0.492273
0.492289
0.492306
0.492322
0.492338
0.492338
0.492355
0.492371
0.492388
0.492404
0.492404
0.492421
0.492437
0.492454
0.492471
0.492471
0.492487
0.492504
0.492521
0.492537
0.492537
0.492554
0.492571
0.492588
0.492605
0.492605
0.492621
0.492638
0.492655
0.492672
0.492672
0.492689
0.492706
0.492723
0.49274
0.49274
0.492757
0.492774
0.492791
0.492808
0.492808
0.492825
0.492843
0.49286
0.492877
0.492877
0.492894
0.492911
0.492929
0.492946
0.492946
0.492963
0.492981
0.492998
0.493016
0.493016
0.493033
0.49305
0.493068
0.493085
0.493085
0.493103
0.493121
0.493138
0.493156
0.493156
0.493173
0.493191
0.493209
0.493226
0.493226
0.493244
0.493262
0.49328
0.493297
0.493297
0.493315
0.493333
0.493351
0.493369
0.493369
0.493387
0.493405
0.493423
0.493441
0.493441
0.493459
0.493477
0.493495
0.493513
0.493513
0.493531
0.493549
0.493568
0.493586
0.493586
0.493604
0.493622
0.49364
0.493659
0.493659
0.493677
0.493695
0.493714
0.493732
0.493732
0.493751
0.493769
0.493788
0.493806
0.493806
0.493825
0.493843
0.493862
0.49388
0.49388
0.493899
0.493918
0.493936
0.493955
0.493955
0.493974
0.493992
0.494011
0.49403
0.49403
0.494049
0.494068
0.494086
0.494105
0.494105
0.494124
0.494143
0.494162
0.494181
0.494181
0.4942
0.494219
0.494238
0.494257
0.494257
0.494276
0.494296
0.494315
0.494334
0.494334
0.494353
0.494372
0.494392
0.494411
0.494411
0.49443
0.49445
0.494469
0.494488
0.494488
0.494508
0.494527
0.494547
0.494566
0.494566
0.494586
0.494605
0.494625
0.494644
0.494644
0.494664
0.494683
0.494703
0.494723
0.494723
0.494742
0.494762
0.494782
0.494802
0.494802
0.494822
0.494841
0.494861
0.494881
0.494881
0.494901
0.494921
0.494941
0.494961
0.494961
0.494981
0.495001
0.495021
0.495041
0.495041
0.495061
0.495081
0.495101
0.495122
0.495122
0.495142
0.495162
0.495182
0.495202
0.495202
0.495223
0.495243
0.495263
0.495284
0.495284
0.495304
0.495325
0.495345
0.495365
0.495365
0.495386
0.495406
0.495427
0.495448
0.495448
0.495468
0.495489
0.495509
0.49553
0.49553
0.495551
0.495571
0.495592
0.495613
0.495613
0.495634
0.495655
0.495675
0.495696
0.495696
0.495717
0.495738
0.495759
0.49578
0.49578
0.495801
0.495822
0.495843
0.495864
0.495864
0.495885
0.495906
0.495927
0.495948
0.495948
0.49597
0.495991
0.496012
0.496033
0.496033
0.496055
0.496076
0.496097
0.496119
0.496119
0.49614
0.496161
0.496183
0.496204
0.496204
0.496226
0.496247
0.496269
0.49629
0.49629
0.496312
0.496333
0.496355
0.496377
0.496377
0.496398
0.49642
0.496442
0.496464
0.496464
0.496485
0.496507
0.496529
0.496551
0.496551
0.496573
0.496594
0.496616
0.496638
0.496638
0.49666
0.496682
0.496704
0.496726
0.496726
0.496748
0.496771
0.496793
0.496815
0.496815
0.496837
0.496859
0.496881
0.496904
0.496904
0.496926
0.496948
0.49697
0.496993
0.496993
0.497015
0.497037
0.49706
0.497082
0.497082
0.497105
0.497127
0.49715
0.497172
0.497172
0.497195
0.497217
0.49724
0.497263
0.497263
0.497285
0.497308
0.497331
0.497353
0.497353
0.497376
0.497399
0.497422
0.497445
0.497445
0.497467
0.49749
0.497513
0.497536
0.497536
0.497559
0.497582
0.497605
0.497628
0.497628
0.497651
0.497674
0.497697
0.49772
0.49772
0.497744
0.497767
0.49779
0.497813
0.497813
0.497836
0.49786
0.497883
0.497906
0.497906
0.49793
0.497953
0.497976
0.498
0.498
0.498023
0.498047
0.49807
0.498094
0.498094
0.498117
0.498141
0.498164
0.498188
0.498188
0.498212
0.498235
0.498259
0.498283
0.498283
0.498306
0.49833
0.498354
0.498378
0.498378
0.498401
0.498425
0.498449
0.498473
0.498473
0.498497
0.498521
0.498545
0.498569
0.498569
0.498593
0.498617
0.498641
0.498665
0.498665
0.498689
0.498714
0.498738
0.498762
0.498762
0.498786
0.49881
0.498835
0.498859
0.498859
0.498883
0.498908
0.498932
0.498956
0.498956
0.498981
0.499005
0.49903
0.499054
0.499054
0.499079
0.499103
0.499128
0.499152
0.499152
0.499177
0.499202
0.499226
0.499251
0.499251
0.499276
0.4993
0.499325
0.49935
0.49935
0.499375
0.4994
0.499425
0.499449
0.499449
0.499474
0.499499
0.499524
0.499549
0.499549
0.499574
0.499599
0.499624
0.499649
0.499649
0.499674
0.4997
0.499725
0.49975
0.49975
0.499775
0.4998
0.499826
0.499851
0.499851
0.499876
0.499902
0.499927
0.499952
0.499952
0.499978
0.500003
0.500029
0.500054
0.500054
0.500079
0.500105
0.500131
0.500156
0.500156
0.500182
0.500207
0.500233
0.500259
0.500259
0.500284
0.50031
0.500336
0.500362
0.500362
0.500387
0.500413
0.500439
0.500465
0.500465
0.500491
0.500517
0.500543
0.500569
0.500569
0.500595
0.500621
0.500647
0.500673
0.500673
0.500699
0.500725
0.500751
0.500777
0.500777
0.500803
0.50083
0.500856
0.500882
0.500882
0.500908
0.500935
0.500961
0.500987
0.500987
0.501014
0.50104
0.501067
0.501093
0.501093
0.501119
0.501146
0.501173
0.501199
0.501199
0.501226
0.501252
0.501279
0.501306
0.501306
0.501332
0.501359
0.501386
0.501412
0.501412
0.501439
0.501466
0.501493
0.50152
0.50152
0.501546
0.501573
0.5016
0.501627
0.501627
0.501654
0.501681
0.501708
0.501735
0.501735
0.501762
0.501789
0.501816
0.501844
0.501844
0.501871
0.501898
0.501925
0.501952
0.501952
0.50198
0.502007
0.502034
0.502062
0.502062
0.502089
0.502116
0.502144
0.502171
0.502171
0.502199
0.502226
0.502254
0.502281
0.502281
0.502309
0.502336
0.502364
0.502391
0.502391
0.502419
0.502447
0.502475
0.502502
0.502502
0.50253
0.502558
0.502586
0.502613
0.502613
0.502641
0.502669
0.502697
0.502725
0.502725
0.502753
0.502781
0.502809
0.502837
0.502837
0.502865
0.502893
0.502921
0.502949
0.502949
0.502977
0.503005
0.503034
0.503062
0.503062
0.50309
0.503118
0.503147
0.503175
0.503175
0.503203
0.503232
0.50326
0.503288
0.503288
0.503317
0.503345
0.503374
0.503402
0.503402
0.503431
0.503459
0.503488
0.503517
0.503517
0.503545
0.503574
0.503603
0.503631
0.503631
0.50366
0.503689
0.503718
0.503746
0.503746
0.503775
0.503804
0.503833
0.503862
0.503862
0.503891
0.50392
0.503949
0.503978
0.503978
0.504007
0.504036
0.504065
0.504094
0.504094
0.504123
0.504152
0.504181
0.50421
0.50421
0.50424
0.504269
0.504298
0.504327
0.504327
0.504357
0.504386
0.504415
0.504445
0.504445
0.504474
0.504504
0.504533
0.504563
0.504563
0.504592
0.504622
0.504651
0.504681
0.504681
0.50471
0.50474
0.50477
0.504799
0.504799
0.504829
0.504859
0.504889
0.504918
0.504918
0.504948
0.504978
0.505008
0.505038
0.505038
0.505068
0.505097
0.505127
0.505157
0.505157
0.505187
0.505217
0.505247
0.505277
0.505277
0.505308
0.505338
0.505368
0.505398
0.505398
0.505428
0.505458
0.505489
0.505519
0.505519
0.505549
0.50558
0.50561
0.50564
0.50564
0.505671
0.505701
0.505731
0.505762
0.505762
0.505792
0.505823
0.505853
0.505884
0.505884
0.505915
0.505945
0.505976
0.506006
0.506006
0.506037
0.506068
0.506099
0.506129
0.506129
0.50616
0.506191
0.506222
0.506253
0.506253
0.506283
0.506314
0.506345
0.506376
0.506376
0.506407
0.506438
0.506469
0.5065
0.5065
0.506531
0.506562
0.506593
0.506625
0.506625
0.506656
0.506687
0.506718
0.506749
0.506749
0.506781
0.506812
0.506843
0.506875
0.506875
0.506906
0.506937
0.506969
0.507
0.507
0.507032
0.507063
0.507095
0.507126
0.507126
0.507158
0.507189
0.507221
0.507253
0.507253
0.507284
0.507316
0.507348
0.507379
0.507379
0.507411
0.507443
0.507475
0.507506
0.507506
0.507538
0.50757
0.507602
0.507634
0.507634
0.507666
0.507698
0.50773
0.507762
0.507762
0.507794
0.507826
0.507858
0.50789
0.50789
0.507922
0.507954
0.507987
0.508019
0.508019
0.508051
0.508083
0.508116
0.508148
0.508148
0.50818
0.508213
0.508245
0.508277
0.508277
0.50831
0.508342
0.508375
0.508407
0.508407
0.50844
0.508472
0.508505
0.508538
0.508538
0.50857
0.508603
0.508636
0.508668
0.508668
0.508701
0.508734
0.508766
0.508799
0.508799
0.508832
0.508865
0.508898
0.508931
0.508931
0.508964
0.508997
0.509029
0.509062
0.509062
0.509095
0.509129
0.509162
0.509195
0.509195
0.509228
0.509261
0.509294
0.509327
0.509327
0.50936
0.509394
0.509427
0.50946
0.50946
0.509494
0.509527
0.50956
0.509594
0.509594
0.509627
0.50966
0.509694
0.509727
0.509727
0.509761
0.509794
0.509828
0.509862
0.509862
0.509895
0.509929
0.509962
0.509996
0.509996
0.51003
0.510063
0.510097
0.510131
0.510131
0.510165
0.510199
0.510232
0.510266
0.510266
0.5103
0.510334
0.510368
0.510402
0.510402
0.510436
0.51047
0.510504
0.510538
0.510538
0.510572
0.510606
0.51064
0.510675
0.510675
0.510709
0.510743
0.510777
0.510811
0.510811
0.510846
0.51088
0.510914
0.510949
0.510949
0.510983
0.511017
0.511052
0.511086
0.511086
0.511121
0.511155
0.51119
0.511224
0.511224
0.511259
0.511293
0.511328
0.511363
0.511363
0.511397
0.511432
0.511467
0.511502
0.511502
0.511536
0.511571
0.511606
0.511641
0.511641
0.511676
0.51171
0.511745
0.51178
0.51178
0.511815
0.51185
0.511885
0.51192
0.51192
0.511955
0.51199
0.512025
0.512061
0.512061
0.512096
0.512131
0.512166
0.512201
0.512201
0.512237
0.512272
0.512307
0.512342
0.512342
0.512378
0.512413
0.512449
0.512484
0.512484
0.512519
0.512555
0.51259
0.512626
0.512626
0.512661
0.512697
0.512733
0.512768
0.512768
0.512804
0.51284
0.512875
0.512911
0.512911
0.512947
0.512982
0.513018
0.513054
0.513054
0.51309
0.513126
0.513162
0.513197
0.513197
0.513233
0.513269
0.513305
0.513341
0.513341
0.513377
0.513413
0.513449
0.513485
0.513485
0.513522
0.513558
0.513594
0.51363
0.51363
0.513666
0.513703
0.513739
0.513775
0.513775
0.513811
0.513848
0.513884
0.513921
0.513921
0.513957
0.513993
0.51403
0.514066
0.514066
0.514103
0.514139
0.514176
0.514212
0.514212
0.514249
0.514286
0.514322
0.514359
0.514359
0.514396
0.514432
0.514469
0.514506
0.514506
0.514543
0.51458
0.514616
0.514653
0.514653
0.51469
0.514727
0.514764
0.514801
0.514801
0.514838
0.514875
0.514912
0.514949
0.514949
0.514986
0.515023
0.51506
0.515098
0.515098
0.515135
0.515172
0.515209
0.515246
0.515246
0.515284
0.515321
0.515358
0.515396
0.515396
0.515433
0.515471
0.515508
0.515545
0.515545
0.515583
0.51562
0.515658
0.515695
0.515695
0.515733
0.515771
0.515808
0.515846
0.515846
0.515884
0.515921
0.515959
0.515997
0.515997
0.516034
0.516072
0.51611
0.516148
0.516148
0.516186
0.516224
0.516261
0.516299
0.516299
0.516337
0.516375
0.516413
0.516451
0.516451
0.516489
0.516528
0.516566
0.516604
0.516604
0.516642
0.51668
0.516718
0.516756
0.516756
0.516795
0.516833
0.516871
0.51691
0.51691
0.516948
0.516986
0.517025
0.517063
0.517063
0.517102
0.51714
0.517179
0.517217
0.517217
0.517256
0.517294
0.517333
0.517371
0.517371
0.51741
0.517449
0.517487
0.517526
0.517526
0.517565
0.517603
0.517642
0.517681
0.517681
0.51772
0.517759
0.517798
0.517837
0.517837
0.517875
0.517914
0.517953
0.517992
0.517992
0.518031
0.51807
0.518109
0.518149
0.518149
0.518188
0.518227
0.518266
0.518305
0.518305
0.518344
0.518384
0.518423
0.518462
0.518462
0.518501
0.518541
0.51858
0.51862
0.51862
0.518659
0.518698
0.518738
0.518777
0.518777
0.518817
0.518856
0.518896
0.518935
0.518935
0.518975
0.519015
0.519054
0.519094
0.519094
0.519134
0.519173
0.519213
0.519253
0.519253
0.519293
0.519332
0.519372
0.519412
0.519412
0.519452
0.519492
0.519532
0.519572
0.519572
0.519612
0.519652
0.519692
0.519732
0.519732
0.519772
0.519812
0.519852
0.519892
0.519892
0.519933
0.519973
0.520013
0.520053
0.520053
0.520094
0.520134
0.520174
0.520214
0.520214
0.520255
0.520295
0.520336
0.520376
0.520376
0.520417
0.520457
0.520498
0.520538
0.520538
0.520579
0.520619
0.52066
0.5207
0.5207
0.520741
0.520782
0.520823
0.520863
0.520863
0.520904
0.520945
0.520986
0.521026
0.521026
0.521067
0.521108
0.521149
0.52119
0.52119
0.521231
0.521272
0.521313
0.521354
0.521354
0.521395
0.521436
0.521477
0.521518
0.521518
0.521559
0.5216
0.521642
0.521683
0.521683
0.521724
0.521765
0.521807
0.521848
0.521848
0.521889
0.521931
0.521972
0.522013
0.522013
0.522055
0.522096
0.522138
0.522179
0.522179
0.522221
0.522262
0.522304
0.522346
0.522346
0.522387
0.522429
0.52247
0.522512
0.522512
0.522554
0.522596
0.522637
0.522679
0.522679
0.522721
0.522763
0.522805
0.522847
0.522847
0.522888
0.52293
0.522972
0.523014
0.523014
0.523056
0.523098
0.52314
0.523182
0.523182
0.523225
0.523267
0.523309
0.523351
0.523351
0.523393
0.523435
0.523478
0.52352
0.52352
0.523562
0.523605
0.523647
0.523689
0.523689
0.523732
0.523774
0.523816
0.523859
0.523859
0.523901
0.523944
0.523986
0.524029
0.524029
0.524072
0.524114
0.524157
0.524199
0.524199
0.524242
0.524285
0.524328
0.52437
0.52437
0.524413
0.524456
0.524499
0.524542
0.524542
0.524584
0.524627
0.52467
0.524713
0.524713
0.524756
0.524799
0.524842
0.524885
0.524885
0.524928
0.524971
0.525014
0.525058
0.525058
0.525101
0.525144
0.525187
0.52523
0.52523
0.525274
0.525317
0.52536
0.525403
0.525403
0.525447
0.52549
0.525534
0.525577
0.525577
0.52562
0.525664
0.525707
0.525751
0.525751
0.525794
0.525838
0.525882
0.525925
0.525925
0.525969
0.526012
0.526056
0.5261
0.5261
0.526144
0.526187
0.526231
0.526275
0.526275
0.526319
0.526363
0.526406
0.52645
0.52645
0.526494
0.526538
0.526582
0.526626
0.526626
0.52667
0.526714
0.526758
0.526802
0.526802
0.526847
0.526891
0.526935
0.526979
0.526979
0.527023
0.527067
0.527112
0.527156
0.527156
0.5272
0.527245
0.527289
0.527333
0.527333
0.527378
0.527422
0.527467
0.527511
0.527511
0.527556
0.5276
0.527645
0.527689
0.527689
0.527734
0.527778
0.527823
0.527868
0.527868
0.527912
0.527957
0.528002
0.528047
0.528047
0.528091
0.528136
0.528181
0.528226
0.528226
0.528271
0.528316
0.528361
0.528406
0.528406
0.528451
0.528496
0.528541
0.528586
0.528586
0.528631
0.528676
0.528721
0.528766
0.528766
0.528811
0.528856
0.528902
0.528947
0.528947
0.528992
0.529037
0.529083
0.529128
0.529128
0.529173
0.529219
0.529264
0.52931
0.52931
0.529355
0.529401
0.529446
0.529492
0.529492
0.529537
0.529583
0.529628
0.529674
0.529674
0.52972
0.529765
0.529811
0.529857
0.529857
0.529902
0.529948
0.529994
0.53004
0.53004
0.530086
0.530131
0.530177
0.530223
0.530223
0.530269
0.530315
0.530361
0.530407
0.530407
0.530453
0.530499
0.530545
0.530591
0.530591
0.530637
0.530684
0.53073
0.530776
0.530776
0.530822
0.530868
0.530915
0.530961
0.530961
0.531007
0.531054
0.5311
0.531146
0.531146
0.531193
0.531239
0.531286
0.531332
0.531332
0.531379
0.531425
0.531472
0.531518
0.531518
0.531565
0.531612
0.531658
0.531705
0.531705
0.531752
0.531798
0.531845
0.531892
0.531892
0.531939
0.531985
0.532032
0.532079
0.532079
0.532126
0.532173
0.53222
0.532267
0.532267
0.532314
0.532361
0.532408
0.532455
0.532455
0.532502
0.532549
0.532596
0.532643
0.532643
0.53269
0.532738
0.532785
0.532832
0.532832
0.532879
0.532927
0.532974
0.533021
0.533021
0.533069
0.533116
0.533164
0.533211
0.533211
0.533258
0.533306
0.533353
0.533401
0.533401
0.533448
0.533496
0.533544
0.533591
0.533591
0.533639
0.533687
0.533734
0.533782
0.533782
0.53383
0.533878
0.533925
0.533973
0.533973
0.534021
0.534069
0.534117
0.534165
0.534165
0.534213
0.534261
0.534309
0.534357
0.534357
0.534405
0.534453
0.534501
0.534549
0.534549
0.534597
0.534645
0.534693
0.534741
0.534741
0.53479
0.534838
0.534886
0.534934
0.534934
0.534983
0.535031
0.535079
0.535128
0.535128
0.535176
0.535225
0.535273
0.535322
0.535322
0.53537
0.535419
0.535467
0.535516
0.535516
0.535564
0.535613
0.535662
0.53571
0.53571
0.535759
0.535808
0.535857
0.535905
0.535905
0.535954
0.536003
0.536052
0.536101
0.536101
0.53615
0.536198
0.536247
0.536296
0.536296
0.536345
0.536394
0.536443
0.536492
0.536492
0.536541
0.536591
0.53664
0.536689
0.536689
0.536738
0.536787
0.536836
0.536886
0.536886
0.536935
0.536984
0.537034
0.537083
0.537083
0.537132
0.537182
0.537231
0.53728
0.53728
0.53733
0.537379
0.537429
0.537478
0.537478
0.537528
0.537578
0.537627
0.537677
0.537677
0.537726
0.537776
0.537826
0.537876
0.537876
0.537925
0.537975
0.538025
0.538075
0.538075
0.538124
0.538174
0.538224
0.538274
0.538274
0.538324
0.538374
0.538424
0.538474
0.538474
0.538524
0.538574
0.538624
0.538674
0.538674
0.538724
0.538775
0.538825
0.538875
0.538875
0.538925
0.538975
0.539026
0.539076
0.539076
0.539126
0.539177
0.539227
0.539277
0.539277
0.539328
0.539378
0.539429
0.539479
0.539479
0.53953
0.53958
0.539631
0.539681
0.539681
0.539732
0.539782
0.539833
0.539884
0.539884
0.539934
0.539985
0.540036
0.540087
0.540087
0.540137
0.540188
0.540239
0.54029
0.54029
0.540341
0.540392
0.540443
0.540494
0.540494
0.540545
0.540596
0.540647
0.540698
0.540698
0.540749
0.5408
0.540851
0.540902
0.540902
0.540953
0.541004
0.541056
0.541107
0.541107
0.541158
0.541209
0.541261
0.541312
0.541312
0.541363
0.541415
0.541466
0.541518
0.541518
0.541569
0.541621
0.541672
0.541724
0.541724
0.541775
0.541827
0.541878
0.54193
0.54193
0.541982
0.542033
0.542085
0.542137
0.542137
0.542188
0.54224
0.542292
0.542344
0.542344
0.542395
0.542447
0.542499
0.542551
0.542551
0.542603
0.542655
0.542707
0.542759
0.542759
0.542811
0.542863
0.542915
0.542967
0.542967
0.543019
0.543071
0.543124
0.543176
0.543176
0.543228
0.54328
0.543332
0.543385
0.543385
0.543437
0.543489
0.543542
0.543594
0.543594
0.543646
0.543699
0.543751
0.543804
0.543804
0.543856
0.543909
0.543961
0.544014
0.544014
0.544066
0.544119
0.544172
0.544224
0.544224
0.544277
0.54433
0.544383
0.544435
0.544435
0.544488
0.544541
0.544594
0.544646
0.544646
0.544699
0.544752
0.544805
0.544858
0.544858
0.544911
0.544964
0.545017
0.54507
0.54507
0.545123
0.545176
0.545229
0.545282
0.545282
0.545336
0.545389
0.545442
0.545495
0.545495
0.545548
0.545602
0.545655
0.545708
0.545708
0.545762
0.545815
0.545868
0.545922
0.545922
0.545975
0.546029
0.546082
0.546136
0.546136
0.546189
0.546243
0.546296
0.54635
0.54635
0.546404
0.546457
0.546511
0.546565
0.546565
0.546618
0.546672
0.546726
0.54678
0.54678
0.546834
0.546887
0.546941
0.546995
0.546995
0.547049
0.547103
0.547157
0.547211
0.547211
0.547265
0.547319
0.547373
0.547427
0.547427
0.547481
0.547535
0.547589
0.547644
0.547644
0.547698
0.547752
0.547806
0.54786
0.54786
0.547915
0.547969
0.548023
0.548078
0.548078
0.548132
0.548187
0.548241
0.548295
0.548295
0.54835
0.548404
0.548459
0.548513
0.548513
0.548568
0.548623
0.548677
0.548732
0.548732
0.548787
0.548841
0.548896
0.548951
0.548951
0.549005
0.54906
0.549115
0.54917
0.54917
0.549225
0.54928
0.549334
0.549389
0.549389
0.549444
0.549499
0.549554
0.549609
0.549609
0.549664
0.549719
0.549775
0.54983
0.54983
0.549885
0.54994
0.549995
0.55005
0.55005
0.550106
0.550161
0.550216
0.550271
0.550271
0.550327
0.550382
0.550437
0.550493
0.550493
0.550548
0.550604
0.550659
0.550715
0.550715
0.55077
0.550826
0.550881
0.550937
0.550937
0.550992
0.551048
0.551104
0.551159
0.551159
0.551215
0.551271
0.551327
0.551382
0.551382
0.551438
0.551494
0.55155
0.551606
0.551606
0.551661
0.551717
0.551773
0.551829
0.551829
0.551885
0.551941
0.551997
0.552053
0.552053
0.552109
0.552166
0.552222
0.552278
0.552278
0.552334
0.55239
0.552446
0.552503
0.552503
0.552559
0.552615
0.552671
0.552728
0.552728
0.552784
0.552841
0.552897
0.552953
0.552953
0.55301
0.553066
0.553123
0.553179
0.553179
0.553236
0.553292
0.553349
0.553406
0.553406
0.553462
0.553519
0.553576
0.553632
0.553632
0.553689
0.553746
0.553803
0.553859
0.553859
0.553916
0.553973
0.55403
0.554087
0.554087
0.554144
0.554201
0.554258
0.554315
0.554315
0.554372
0.554429
0.554486
0.554543
0.554543
0.5546
0.554657
0.554714
0.554772
0.554772
0.554829
0.554886
0.554943
0.555
0.555
0.555058
0.555115
0.555172
0.55523
0.55523
0.555287
0.555345
0.555402
0.55546
0.55546
0.555517
0.555574
0.555632
0.55569
0.55569
0.555747
0.555805
0.555862
0.55592
0.55592
0.555978
0.556035
0.556093
0.556151
0.556151
0.556209
0.556266
0.556324
0.556382
0.556382
0.55644
0.556498
0.556556
0.556614
0.556614
0.556672
0.55673
0.556788
0.556846
0.556846
0.556904
0.556962
0.55702
0.557078
0.557078
0.557136
0.557194
0.557252
0.557311
0.557311
0.557369
0.557427
0.557485
0.557544
0.557544
0.557602
0.55766
0.557719
0.557777
0.557777
0.557836
0.557894
0.557953
0.558011
0.558011
0.55807
0.558128
0.558187
0.558245
0.558245
0.558304
0.558362
0.558421
0.55848
0.55848
0.558539
0.558597
0.558656
0.558715
0.558715
0.558774
0.558832
0.558891
0.55895
0.55895
0.559009
0.559068
0.559127
0.559186
0.559186
0.559245
0.559304
0.559363
0.559422
0.559422
0.559481
0.55954
0.559599
0.559658
0.559658
0.559717
0.559776
0.559835
0.559894
0.559894
0.559953
0.560011
0.560069
0.560127
0.560127
0.560184
0.560242
0.560299
0.560356
0.560356
0.560413
0.560471
0.560528
0.560585
0.560585
0.560643
0.5607
0.560757
0.560815
0.560815
0.560872
0.56093
0.560987
0.561045
0.561045
0.561102
0.56116
0.561217
0.561275
0.561275
0.561333
0.56139
0.561448
0.561506
0.561506
0.561563
0.561621
0.561679
0.561736
0.561736
0.561794
0.561852
0.56191
0.561968
0.561968
0.562026
0.562083
0.562141
0.562199
0.562199
0.562257
0.562315
0.562373
0.562431
0.562431
0.562489
0.562547
0.562606
0.562664
0.562664
0.562722
0.56278
0.562838
0.562896
0.562896
0.562955
0.563013
0.563071
0.563129
0.563129
0.563188
0.563246
0.563304
0.563363
0.563363
0.563421
0.56348
0.563538
0.563597
0.563597
0.563655
0.563714
0.563772
0.563831
0.563831
0.563889
0.563948
0.564006
0.564065
0.564065
0.564124
0.564182
0.564241
0.5643
0.5643
0.564359
0.564417
0.564476
0.564535
0.564535
0.564594
0.564653
0.564712
0.564771
0.564771
0.564829
0.564888
0.564947
0.565006
0.565006
0.565065
0.565124
0.565183
0.565243
0.565243
0.565302
0.565361
0.56542
0.565479
0.565479
0.565538
0.565598
0.565657
0.565716
0.565716
0.565775
0.565835
0.565894
0.565953
0.565953
0.566013
0.566072
0.566131
0.566191
0.566191
0.56625
0.56631
0.566369
0.566429
0.566429
0.566488
0.566548
0.566608
0.566667
0.566667
0.566727
0.566786
0.566846
0.566906
0.566906
0.566965
0.567025
0.567085
0.567145
0.567145
0.567205
0.567264
0.567324
0.567384
0.567384
0.567444
0.567504
0.567564
0.567624
0.567624
0.567684
0.567744
0.567804
0.567864
0.567864
0.567924
0.567984
0.568044
0.568104
0.568104
0.568164
0.568225
0.568285
0.568345
0.568345
0.568405
0.568465
0.568526
0.568586
0.568586
0.568646
0.568707
0.568767
0.568827
0.568827
0.568888
0.568948
0.569009
0.569069
0.569069
0.56913
0.56919
0.569251
0.569311
0.569311
0.569372
0.569432
0.569493
0.569554
0.569554
0.569614
0.569675
0.569736
0.569796
0.569796
0.569857
0.569918
0.569979
0.57004
0.57004
0.5701
0.570161
0.570222
0.570283
0.570283
0.570344
0.570405
0.570466
0.570527
0.570527
0.570588
0.570649
0.57071
0.570771
0.570771
0.570832
0.570893
0.570954
0.571016
0.571016
0.571077
0.571138
0.571199
0.57126
0.57126
0.571322
0.571383
0.571444
0.571506
0.571506
0.571567
0.571628
0.57169
0.571751
0.571751
0.571812
0.571874
0.571935
0.571997
0.571997
0.572058
0.57212
0.572182
0.572243
0.572243
0.572305
0.572366
0.572428
0.57249
0.57249
0.572551
0.572613
0.572675
0.572737
0.572737
0.572798
0.57286
0.572922
0.572984
0.572984
0.573046
0.573107
0.573169
0.573231
0.573231
0.573293
0.573355
0.573417
0.573479
0.573479
0.573541
0.573603
0.573665
0.573727
0.573727
0.573789
0.573851
0.573913
0.573975
0.573975
0.574037