<?xml version="1.0"?>
<VTKFile type="UnstructuredGrid" version="0.1" byte_order="LittleEndian">
<UnstructuredGrid>
<Piece NumberOfPoints="5000" NumberOfCells="4000">
<PointData Scalars="Reaction 0">
<DataArray type="Float32" Name="Reaction 0" format="ascii">
0.873757
0.873757
0.873757
0.873757
0.873757
0.873757
0.873757
0.873757
0.873757
0.873757
0.873757
0.873757
0.873757
0.873757
0.873757
0.873757
0.873757
0.873757
0.873757
0.873757
0.873757
0.873757
0.873757
0.873757
0.873757
0.873757
0.873757
0.873757
0.873757
0.873757
0.873757
0.873757
0.873757
0.873757
0.873757
0.873757
0.873757
0.873757
0.873757
0.873757
0.873757
0.873757
0.873757
0.873757
0.873757
0.873757
0.873756
0.873756
0.873756
0.873756
0.873756
0.873756
0.873756
0.873756
0.873756
0.873756
0.873756
0.873756
0.873756
0.873756
0.873756
0.873756
0.873756
0.873756
0.873756
0.873756
0.873755
0.873755
0.873755
0.873755
0.873755
0.873755
0.873755
0.873755
0.873755
0.873755
0.873755
0.873755
0.873755
0.873755
0.873755
0.873754
0.873754
0.873754
0.873754
0.873754
0.873754
0.873754
0.873754
0.873754
0.873754
0.873754
0.873754
0.873753
0.873753
0.873753
0.873753
0.873753
0.873753
0.873753
0.873753
0.873753
0.873753
0.873753
0.873752
0.873752
0.873752
0.873752
0.873752
0.873752
0.873752
0.873752
0.873752
0.873752
0.873751
0.873751
0.873751
0.873751
0.873751
0.873751
0.873751
0.873751
0.873751
0.873751
0.87375
0.87375
0.87375
0.87375
0.87375
0.87375
0.87375
0.87375
0.87375
0.873749
0.873749
0.873749
0.873749
0.873749
0.873749
0.873749
0.873749
0.873748
0.873748
0.873748
0.873748
0.873748
0.873748
0.873748
0.873747
0.873747
0.873747
0.873747
0.873747
0.873747
0.873747
0.873747
0.873746
0.873746
0.873746
0.873746
0.873746
0.873746
0.873746
0.873745
0.873745
0.873745
0.873745
0.873745
0.873745
0.873744
0.873744
0.873744
0.873744
0.873744
0.873744
0.873744
0.873743
0.873743
0.873743
0.873743
0.873743
0.873743
0.873742
0.873742
0.873742
0.873742
0.873742
0.873742
0.873741
0.873741
0.873741
0.873741
0.873741
0.87374
0.87374
0.87374
0.87374
0.87374
0.87374
0.873739
0.873739
0.873739
0.873739
0.873739
0.873738
0.873738
0.873738
0.873738
0.873738
0.873738
0.873738
0.873737
0.873737
0.873737
0.873737
0.873737
0.873736
0.873736
0.873736
0.873736
0.873736
0.873735
0.873735
0.873735
0.873735
0.873735
0.873734
0.873734
0.873734
0.873734
0.873734
0.873733
0.873733
0.873733
0.873732
0.873732
0.873732
0.873732
0.873732
0.873731
0.873731
0.873731
0.873731
0.873731
0.87373
0.87373
0.87373
0.87373
0.873729
0.873729
0.873729
0.873729
0.873729
0.873728
0.873728
0.873728
0.873728
0.873727
0.873727
0.873727
0.873727
0.873727
0.873726
0.873726
0.873726
0.873726
0.873725
0.873725
0.873725
0.873725
0.873725
0.873724
0.873724
0.873724
0.873723
0.873723
0.873723
0.873723
0.873722
0.873722
0.873722
0.873722
0.873721
0.873721
0.873721
0.873721
0.87372
0.87372
0.87372
0.873719
0.873719
0.873719
0.873719
0.873718
0.873718
0.873718
0.873718
0.873717
0.873717
0.873717
0.873717
0.873716
0.873716
0.873716
0.873715
0.873715
0.873715
0.873715
0.873714
0.873714
0.873714
0.873714
0.873713
0.873713
0.873713
0.873713
0.873712
0.873712
0.873712
0.873711
0.873711
0.873711
0.873711
0.87371
0.87371
0.87371
0.873709
0.873709
0.873709
0.873708
0.873708
0.873708
0.873708
0.873707
0.873707
0.873707
0.873706
0.873706
0.873706
0.873705
0.873705
0.873705
0.873705
0.873704
0.873704
0.873704
0.873703
0.873703
0.873703
0.873702
0.873702
0.873702
0.873701
0.873701
0.873701
0.873701
0.8737
0.8737
0.873699
0.873699
0.873699
0.873699
0.873698
0.873698
0.873697
0.873697
0.873697
0.873697
0.873696
0.873696
0.873696
0.873695
0.873695
0.873694
0.873694
0.873694
0.873694
0.873693
0.873693
0.873692
0.873692
0.873692
0.873691
0.873691
0.873691
0.873691
0.87369
0.87369
0.873689
0.873689
0.873689
0.873688
0.873688
0.873688
0.873687
0.873687
0.873687
0.873686
0.873686
0.873685
0.873685
0.873685
0.873684
0.873684
0.873684
0.873684
0.873683
0.873683
0.873682
0.873682
0.873682
0.873681
0.873681
0.87368
0.87368
0.87368
0.873679
0.873679
0.873678
0.873678
0.873678
0.873678
0.873677
0.873677
0.873676
0.873676
0.873676
0.873675
0.873675
0.873674
0.873674
0.873674
0.873673
0.873673
0.873672
0.873672
0.873672
0.873671
0.873671
0.87367
0.87367
0.87367
0.873669
0.873669
0.873668
0.873668
0.873668
0.873667
0.873667
0.873666
0.873666
0.873666
0.873665
0.873665
0.873664
0.873664
0.873664
0.873663
0.873663
0.873662
0.873662
0.873662
0.873661
0.873661
0.87366
0.87366
0.87366
0.873659
0.873659
0.873658
0.873658
0.873658
0.873657
0.873656
0.873656
0.873656
0.873655
0.873655
0.873654
0.873654
0.873654
0.873653
0.873653
0.873652
0.873652
0.873652
0.873651
0.873651
0.87365
0.873649
0.873649
0.873649
0.873648
0.873648
0.873647
0.873647
0.873647
0.873646
0.873646
0.873645
0.873645
0.873644
0.873644
0.873643
0.873643
0.873643
0.873642
0.873642
0.873641
0.873641
0.873641
0.87364
0.873639
0.873639
0.873638
0.873638
0.873638
0.873637
0.873637
0.873636
0.873636
0.873635
0.873635
0.873634
0.873634
0.873634
0.873633
0.873632
0.873632
0.873631
0.873631
0.873631
0.87363
0.873629
0.873629
0.873629
0.873628
0.873628
0.873627
0.873626
0.873626
0.873626
0.873625
0.873625
0.873624
0.873624
0.873623
0.873623
0.873622
0.873622
0.873622
0.873621
0.87362
0.87362
0.873619
0.873619
0.873619
0.873618
0.873617
0.873617
0.873617
0.873616
0.873615
0.873615
0.873614
0.873614
0.873614
0.873613
0.873612
0.873612
0.873612
0.873611
0.87361
0.87361
0.873609
0.873609
0.873608
0.873608
0.873607
0.873607
0.873607
0.873606
0.873605
0.873605
0.873604
0.873604
0.873603
0.873603
0.873602
0.873601
0.873601
0.873601
0.8736
0.873599
0.873599
0.873599
0.873598
0.873597
0.873597
0.873596
0.873596
0.873595
0.873595
0.873594
0.873593
0.873593
0.873593
0.873592
0.873591
0.873591
0.873591
0.87359
0.873589
0.873589
0.873588
0.873588
0.873587
0.873587
0.873586
0.873585
0.873585
0.873585
0.873584
0.873583
0.873582
0.873582
0.873582
0.873581
0.87358
0.87358
0.87358
0.873579
0.873578
0.873578
0.873577
0.873577
0.873576
0.873575
0.873575
0.873574
0.873574
0.873573
0.873573
0.873572
0.873571
0.873571
0.873571
0.87357
0.873569
0.873568
0.873568
0.873568
0.873567
0.873566
0.873565
0.873565
0.873565
0.873564
0.873563
0.873563
0.873563
0.873562
0.873561
0.87356
0.87356
0.87356
0.873559
0.873558
0.873557
0.873557
0.873557
0.873556
0.873555
0.873554
0.873554
0.873554
0.873553
0.873552
0.873551
0.873551
0.873551
0.87355
0.873549
0.873548
0.873548
0.873548
0.873547
0.873546
0.873545
0.873545
0.873545
0.873544
0.873543
0.873542
0.873542
0.873542
0.873541
0.87354
0.873539
0.873539
0.873539
0.873538
0.873537
0.873536
0.873535
0.873535
0.873535
0.873534
0.873533
0.873532
0.873532
0.873532
0.873531
0.87353
0.873529
0.873529
0.873528
0.873528
0.873527
0.873526
0.873526
0.873525
0.873524
0.873524
0.873523
0.873523
0.873522
0.873521
0.87352
0.87352
0.87352
0.873519
0.873518
0.873517
0.873516
0.873516
0.873516
0.873515
0.873514
0.873513
0.873513
0.873512
0.873512
0.873511
0.87351
0.87351
0.873509
0.873508
0.873507
0.873507
0.873507
0.873506
0.873505
0.873504
0.873503
0.873503
0.873503
0.873502
0.873501
0.8735
0.8735
0.873499
0.873498
0.873498
0.873497
0.873497
0.873496
0.873495
0.873494
0.873493
0.873493
0.873492
0.873492
0.873491
0.87349
0.87349
0.873489
0.873488
0.873487
0.873487
0.873487
0.873486
0.873485
0.873484
0.873483
0.873483
0.873482
0.873481
0.873481
0.87348
0.87348
0.873479
0.873478
0.873477
0.873476
0.873476
0.873475
0.873474
0.873474
0.873473
0.873473
0.873472
0.873471
0.87347
0.873469
0.873469
0.873468
0.873467
0.873467
0.873466
0.873466
0.873465
0.873464
0.873463
0.873462
0.873462
0.873461
0.87346
0.873459
0.873459
0.873459
0.873458
0.873457
0.873456
0.873455
0.873455
0.873454
0.873453
0.873452
0.873451
0.873451
0.87345
0.87345
0.873449
0.873448
0.873448
0.873447
0.873446
0.873445
0.873444
0.873444
0.873443
0.873442
0.873441
0.87344
0.87344
0.87344
0.873439
0.873438
0.873437
0.873437
0.873436
0.873435
0.873434
0.873433
0.873433
0.873432
0.873431
0.87343
0.873429
0.873429
0.873428
0.873427
0.873426
0.873426
0.873426
0.873425
0.873424
0.873423
0.873422
0.873422
0.873421
0.87342
0.873419
0.873418
0.873418
0.873417
0.873416
0.873415
0.873414
0.873414
0.873413
0.873412
0.873411
0.87341
0.87341
0.873409
0.873408
0.873407
0.873407
0.873407
0.873406
0.873405
0.873404
0.873403
0.873403
0.873402
0.873401
0.8734
0.873399
0.873399
0.873398
0.873397
0.873396
0.873395
0.873395
0.873394
0.873393
0.873392
0.873391
0.873391
0.87339
0.873389
0.873388
0.873387
0.873387
0.873386
0.873385
0.873384
0.873383
0.873383
0.873382
0.873381
0.87338
0.873379
0.873379
0.873378
0.873377
0.873376
0.873375
0.873375
0.873374
0.873373
0.873372
0.873371
0.873371
0.87337
0.873369
0.873368
0.873367
0.873367
0.873366
0.873365
0.873364
0.873363
0.873363
0.873362
0.873361
0.87336
0.873359
0.873359
0.873358
0.873357
0.873356
0.873355
0.873355
0.873354
0.873353
0.873352
0.873351
0.873351
0.87335
0.873349
0.873347
0.873346
0.873346
0.873345
0.873344
0.873343
0.873342
0.873342
0.873341
0.87334
0.873339
0.873338
0.873338
0.873337
0.873336
0.873335
0.873334
0.873334
0.873333
0.873332
0.873331
0.87333
0.87333
0.873329
0.873328
0.873327
0.873325
0.873325
0.873324
0.873323
0.873322
0.873321
0.873321
0.87332
0.873319
0.873318
0.873317
0.873317
0.873316
0.873315
0.873314
0.873313
0.873313
0.873312
0.87331
0.873309
0.873308
0.873308
0.873307
0.873306
0.873305
0.873304
0.873304
0.873303
0.873302
0.873301
0.8733
0.8733
0.873299
0.873297
0.873296
0.873295
0.873295
0.873294
0.873293
0.873292
0.873291
0.873291
0.87329
0.873289
0.873288
0.873286
0.873286
0.873285
0.873284
0.873283
0.873282
0.873282
0.873281
0.87328
0.873279
0.873278
0.873278
0.873276
0.873275
0.873274
0.873273
0.873273
0.873272
0.873271
0.87327
0.873269
0.873269
0.873268
0.873266
0.873265
0.873264
0.873264
0.873263
0.873262
0.873261
0.87326
0.87326
0.873258
0.873257
0.873256
0.873255
0.873255
0.873254
0.873253
0.873252
0.873251
0.873251
0.873249
0.873248
0.873247
0.873246
0.873246
0.873245
0.873244
0.873243
0.873241
0.873241
0.87324
0.873239
0.873238
0.873237
0.873237
0.873236
0.873234
0.873233
0.873232
0.873232
0.873231
0.87323
0.873229
0.873227
0.873227
0.873226
0.873225
0.873224
0.873223
0.873223
0.873222
0.87322
0.873219
0.873218
0.873218
0.873217
0.873216
0.873215
0.873213
0.873213
0.873212
0.873211
0.87321
0.873209
0.873209
0.873207
0.873206
0.873205
0.873204
0.873204
0.873203
0.873201
0.8732
0.873199
0.873199
0.873198
0.873197
0.873195
0.873194
0.873194
0.873193
0.873192
0.873191
0.873189
0.873189
0.873188
0.873187
0.873186
0.873184
0.873184
0.873183
0.873182
0.873181
0.873179
0.873179
0.873178
0.873177
0.873176
0.873174
0.873174
0.873173
0.873172
0.873171
0.873169
0.873169
0.873168
0.873167
0.873165
0.873164
0.873164
0.873163
0.873161
0.87316
0.873159
0.873159
0.873157
0.873156
0.873155
0.873154
0.873154
0.873152
0.873151
0.87315
0.873148
0.873148
0.873147
0.873145
0.873144
0.873143
0.873143
0.873141
0.87314
0.873139
0.873137
0.873137
0.873136
0.873135
0.873133
0.873132
0.873132
0.87313
0.873129
0.873128
0.873126
0.873126
0.873125
0.873123
0.873122
0.87312
0.87312
0.873119
0.873118
0.873116
0.873115
0.873115
0.873113
0.873112
0.87311
0.873109
0.873109
0.873108
0.873106
0.873105
0.873103
0.873103
0.873102
0.8731
0.873099
0.873097
0.873097
0.873096
0.873095
0.873093
0.873092
0.873092
0.87309
0.873089
0.873087
0.873086
0.873086
0.873084
0.873083
0.873081
0.87308
0.87308
0.873078
0.873077
0.873075
0.873074
0.873074
0.873073
0.873071
0.87307
0.873068
0.873068
0.873067
0.873065
0.873064
0.873062
0.873062
0.873061
0.873059
0.873058
0.873056
0.873056
0.873055
0.873053
0.873052
0.87305
0.87305
0.873049
0.873047
0.873046
0.873044
0.873044
0.873043
0.873041
0.87304
0.873038
0.873038
0.873037
0.873035
0.873034
0.873032
0.873032
0.873031
0.873029
0.873028
0.873026
0.873026
0.873025
0.873023
0.873022
0.87302
0.87302
0.873019
0.873017
0.873015
0.873014
0.873014
0.873012
0.873011
0.873009
0.873008
0.873008
0.873006
0.873005
0.873003
0.873002
0.873002
0.873
0.872999
0.872997
0.872996
0.872996
0.872994
0.872992
0.872991
0.872989
0.872989
0.872988
0.872986
0.872985
0.872983
0.872983
0.872982
0.87298
0.872979
0.872977
0.872977
0.872975
0.872974
0.872972
0.872971
0.872971
0.872969
0.872968
0.872966
0.872964
0.872964
0.872963
0.872961
0.87296
0.872958
0.872958
0.872957
0.872955
0.872953
0.872952
0.872952
0.87295
0.872949
0.872947
0.872946
0.872946
0.872944
0.872942
0.872941
0.872939
0.872939
0.872938
0.872936
0.872935
0.872933
0.872933
0.872931
0.87293
0.872928
0.872927
0.872927
0.872925
0.872923
0.872922
0.87292
0.87292
0.872919
0.872917
0.872915
0.872914
0.872914
0.872912
0.872911
0.872909
0.872907
0.872907
0.872906
0.872904
0.872903
0.872901
0.872901
0.872899
0.872898
0.872896
0.872894
0.872894
0.872893
0.872891
0.87289
0.872888
0.872888
0.872886
0.872885
0.872883
0.872881
0.872881
0.87288
0.872878
0.872877
0.872875
0.872875
0.872873
0.872872
0.87287
0.872868
0.872868
0.872867
0.872865
0.872864
0.872862
0.872862
0.87286
0.872859
0.872857
0.872855
0.872855
0.872854
0.872852
0.87285
0.872849
0.872849
0.872847
0.872845
0.872844
0.872842
0.872842
0.87284
0.872839
0.872837
0.872835
0.872835
0.872834
0.872832
0.87283
0.872829
0.872829
0.872827
0.872825
0.872824
0.872822
0.872822
0.87282
0.872819
0.872817
0.872815
0.872815
0.872814
0.872812
0.87281
0.872809
0.872809
0.872807
0.872805
0.872804
0.872802
0.872802
0.8728
0.872799
0.872797
0.872795
0.872795
0.872794
0.872792
0.87279
0.872789
0.872789
0.872787
0.872785
0.872783
0.872782
0.872782
0.87278
0.872778
0.872777
0.872775
0.872775
0.872773
0.872772
0.87277
0.872768
0.872768
0.872766
0.872765
0.872763
0.872761
0.872761
0.87276
0.872758
0.872756
0.872755
0.872755
0.872753
0.872751
0.872749
0.872748
0.872748
0.872746
0.872744
0.872742
0.872741
0.872741
0.872739
0.872737
0.872736
0.872734
0.872734
0.872732
0.87273
0.872729
0.872727
0.872727
0.872725
0.872724
0.872722
0.87272
0.87272
0.872718
0.872717
0.872715
0.872713
0.872713
0.872711
0.87271
0.872708
0.872706
0.872706
0.872704
0.872703
0.872701
0.872699
0.872699
0.872697
0.872696
0.872694
0.872692
0.872692
0.87269
0.872689
0.872687
0.872685
0.872685
0.872683
0.872682
0.87268
0.872678
0.872678
0.872676
0.872675
0.872673
0.872671
0.872671
0.872669
0.872667
0.872666
0.872664
0.872664
0.872662
0.87266
0.872659
0.872657
0.872657
0.872655
0.872653
0.872652
0.87265
0.87265
0.872648
0.872646
0.872644
0.872643
0.872643
0.872641
0.872639
0.872637
0.872635
0.872635
0.872634
0.872632
0.87263
0.872628
0.872628
0.872627
0.872625
0.872623
0.872621
0.872621
0.872619
0.872618
0.872616
0.872614
0.872614
0.872612
0.87261
0.872609
0.872607
0.872607
0.872605
0.872603
0.872601
0.8726
0.8726
0.872598
0.872596
0.872594
0.872592
0.872592
0.872591
0.872589
0.872587
0.872585
0.872585
0.872583
0.872581
0.87258
0.872578
0.872578
0.872576
0.872574
0.872572
0.872571
0.872571
0.872569
0.872567
0.872565
0.872563
0.872563
0.872561
0.87256
0.872558
0.872556
0.872556
0.872554
0.872552
0.87255
0.872549
0.872549
0.872547
0.872545
0.872543
0.872541
0.872541
0.872539
0.872538
0.872536
0.872534
0.872534
0.872532
0.87253
0.872528
0.872526
0.872526
0.872525
0.872523
0.872521
0.872519
0.872519
0.872517
0.872515
0.872513
0.872512
0.872512
0.87251
0.872508
0.872506
0.872504
0.872504
0.872502
0.8725
0.872499
0.872497
0.872497
0.872495
0.872493
0.872491
0.872489
0.872489
0.872487
0.872486
0.872484
0.872482
0.872482
0.87248
0.872478
0.872476
0.872474
0.872474
0.872472
0.872471
0.872469
0.872467
0.872467
0.872465
0.872463
0.872461
0.872459
0.872459
0.872457
0.872455
0.872454
0.872452
0.872452
0.87245
0.872448
0.872446
0.872444
0.872444
0.872442
0.87244
0.872438
0.872437
0.872437
0.872435
0.872433
0.872431
0.872429
0.872429
0.872427
0.872425
0.872423
0.872421
0.872421
0.87242
0.872418
0.872416
0.872414
0.872414
0.872412
0.87241
0.872408
0.872406
0.872406
0.872404
0.872402
0.8724
0.872399
0.872399
0.872397
0.872395
0.872393
0.872391
0.872391
0.872389
0.872387
0.872385
0.872383
0.872383
0.872381
0.872379
0.872377
0.872375
0.872375
0.872374
0.872372
0.87237
0.872368
0.872368
0.872366
0.872364
0.872362
0.87236
0.87236
0.872358
0.872356
0.872354
0.872352
0.872352
0.87235
0.872348
0.872346
0.872345
0.872345
0.872343
0.872341
0.872339
0.872337
0.872337
0.872335
0.872333
0.872331
0.872329
0.872329
0.872327
0.872325
0.872323
0.872321
0.872321
0.872319
0.872317
0.872315
0.872313
0.872313
0.872311
0.872309
0.872307
0.872305
0.872305
0.872303
0.872301
0.872299
0.872297
0.872297
0.872296
0.872294
0.872292
0.87229
0.87229
0.872288
0.872286
0.872283
0.872281
0.872281
0.872279
0.872277
0.872275
0.872273
0.872273
0.872271
0.872269
0.872267
0.872265
0.872265
0.872263
0.872261
0.872259
0.872257
0.872257
0.872255
0.872253
0.872251
0.872248
0.872248
0.872246
0.872244
0.872242
0.87224
0.87224
0.872238
0.872236
0.872234
0.872232
0.872232
0.872229
0.872227
0.872225
0.872223
0.872223
0.872221
0.872219
0.872217
0.872214
0.872214
0.872212
0.87221
0.872208
0.872206
0.872206
0.872203
0.872201
0.872199
0.872197
0.872197
0.872195
0.872192
0.87219
0.872188
0.872188
0.872186
0.872184
0.872181
0.872179
0.872179
0.872177
0.872175
0.872172
0.87217
0.87217
0.872168
0.872166
0.872163
0.872161
0.872161
0.872159
0.872157
0.872154
0.872152
0.872152
0.87215
0.872147
0.872145
0.872143
0.872143
0.872141
0.872138
0.872136
0.872134
0.872134
0.872131
0.872129
0.872127
0.872125
0.872125
0.872122
0.87212
0.872118
0.872115
0.872115
0.872113
0.872111
0.872109
0.872106
0.872106
0.872104
0.872102
0.872099
0.872097
0.872097
0.872095
0.872092
0.87209
0.872088
0.872088
0.872085
0.872083
0.872081
0.872079
0.872079
0.872076
0.872074
0.872072
0.872069
0.872069
0.872067
0.872065
0.872062
0.87206
0.87206
0.872058
0.872055
0.872053
0.872051
0.872051
0.872048
0.872046
0.872044
0.872041
0.872041
0.872039
0.872037
0.872034
0.872032
0.872032
0.87203
0.872027
0.872025
0.872023
0.872023
0.87202
0.872018
0.872016
0.872013
0.872013
0.872011
0.872009
0.872006
0.872004
0.872004
0.872002
0.871999
0.871997
0.871995
0.871995
0.871992
0.87199
0.871988
0.871985
0.871985
0.871983
0.871981
0.871978
0.871976
0.871976
0.871974
0.871971
0.871969
0.871966
0.871966
0.871964
0.871962
0.871959
0.871957
0.871957
0.871955
0.871952
0.87195
0.871948
0.871948
0.871945
0.871943
0.871941
0.871938
0.871938
0.871936
0.871933
0.871931
0.871929
0.871929
0.871926
0.871924
0.871922
0.871919
0.871919
0.871917
0.871914
0.871912
0.87191
0.87191
0.871907
0.871905
0.871903
0.8719
0.8719
0.871898
0.871895
0.871893
0.871891
0.871891
0.871888
0.871886
0.871883
0.871881
0.871881
0.871879
0.871876
0.871874
0.871871
0.871871
0.871869
0.871867
0.871864
0.871862
0.871862
0.87186
0.871857
0.871855
0.871852
0.871852
0.87185
0.871848
0.871845
0.871843
0.871843
0.87184
0.871838
0.871835
0.871833
0.871833
0.871831
0.871828
0.871826
0.871823
0.871823
0.871821
0.871819
0.871816
0.871814
0.871814
0.871811
0.871809
0.871807
0.871804
0.871804
0.871802
0.871799
0.871797
0.871794
0.871794
0.871792
0.87179
0.871787
0.871785
0.871785
0.871782
0.87178
0.871778
0.871775
0.871775
0.871773
0.87177
0.871768
0.871765
0.871765
0.871763
0.871761
0.871758
0.871756
0.871756
0.871753
0.871751
0.871748
0.871746
0.871746
0.871743
0.871741
0.871739
0.871736
0.871736
0.871734
0.871731
0.871729
0.871726
0.871726
0.871724
0.871721
0.871719
0.871717
0.871717
0.871714
0.871712
0.871709
0.871707
0.871707
0.871704
0.871702
0.871699
0.871697
0.871697
0.871695
0.871692
0.87169
0.871687
0.871687
0.871685
0.871682
0.87168
0.871677
0.871677
0.871675
0.871672
0.87167
0.871667
0.871667
0.871665
0.871663
0.87166
0.871658
0.871658
0.871655
0.871653
0.87165
0.871648
0.871648
0.871645
0.871643
0.87164
0.871638
0.871638
0.871635
0.871633
0.87163
0.871628
0.871628
0.871625
0.871623
0.871621
0.871618
0.871618
0.871616
0.871613
0.871611
0.871608
0.871608
0.871606
0.871603
0.871601
0.871598
0.871598
0.871596
0.871593
0.871591
0.871588
0.871588
0.871586
0.871583
0.871581
0.871578
0.871578
0.871576
0.871573
0.871571
0.871568
0.871568
0.871566
0.871563
0.871561
0.871558
0.871558
0.871556
0.871553
0.871551
0.871548
0.871548
0.871546
0.871543
0.871541
0.871538
0.871538
0.871536
0.871533
0.871531
0.871528
0.871528
0.871526
0.871523
0.871521
0.871518
0.871518
0.871516
0.871513
0.871511
0.871508
0.871508
0.871506
0.871503
0.871501
0.871498
0.871498
0.871496
0.871493
0.871491
0.871488
0.871488
0.871486
0.871483
0.871481
0.871478
0.871478
0.871476
0.871473
0.871471
0.871468
0.871468
0.871465
0.871463
0.87146
0.871458
0.871458
0.871455
0.871453
0.87145
0.871448
0.871448
0.871445
0.871443
0.87144
0.871438
0.871438
0.871435
0.871433
0.87143
0.871428
0.871428
0.871425
0.871422
0.87142
0.871417
0.871417
0.871415
0.871412
0.87141
0.871407
0.871407
0.871405
0.871402
0.8714
0.871397
0.871397
0.871394
0.871392
0.871389
0.871387
0.871387
0.871384
0.871382
0.871379
0.871376
0.871376
0.871374
0.871371
0.871369
0.871366
0.871366
0.871363
0.871361
0.871358
0.871355
0.871355
0.871353
0.87135
0.871348
0.871345
0.871345
0.871342
0.87134
0.871337
0.871334
0.871334
0.871332
0.871329
0.871326
0.871324
0.871324
0.871321
0.871318
0.871315
0.871313
0.871313
0.87131
0.871307
0.871305
0.871302
0.871302
0.871299
0.871296
0.871294
0.871291
0.871291
0.871288
0.871285
0.871283
0.87128
0.87128
0.871277
0.871274
0.871272
0.871269
0.871269
0.871266
0.871263
0.87126
0.871258
0.871258
0.871255
0.871252
0.871249
0.871246
0.871246
0.871243
0.871241
0.871238
0.871235
0.871235
0.871232
0.871229
0.871226
0.871224
0.871224
0.871221
0.871218
0.871215
0.871212
0.871212
0.871209
0.871206
0.871203
0.871201
0.871201
0.871198
0.871195
0.871192
0.871189
0.871189
0.871186
0.871183
0.87118
0.871177
0.871177
0.871175
0.871172
0.871169
0.871166
0.871166
0.871163
0.87116
0.871157
0.871154
0.871154
0.871151
0.871148
0.871145
0.871143
0.871143
0.87114
0.871137
0.871134
0.871131
0.871131
0.871128
0.871125
0.871122
0.871119
0.871119
0.871116
0.871113
0.871111
0.871108
0.871108
0.871105
0.871102
0.871099
0.871096
0.871096
0.871093
0.87109
0.871087
0.871084
0.871084
0.871081
0.871078
0.871076
0.871073
0.871073
0.87107
0.871067
0.871064
0.871061
0.871061
0.871058
0.871055
0.871052
0.871049
0.871049
0.871046
0.871043
0.87104
0.871037
0.871037
0.871034
0.871032
0.871029
0.871026
0.871026
0.871023
0.87102
0.871017
0.871014
0.871014
0.871011
0.871008
0.871005
0.871002
0.871002
0.870999
0.870996
0.870993
0.87099
0.87099
0.870987
0.870985
0.870982
0.870979
0.870979
0.870976
0.870973
0.87097
0.870967
0.870967
0.870964
0.870961
0.870958
0.870955
0.870955
0.870952
0.870949
0.870946
0.870943
0.870943
0.87094
0.870937
0.870934
0.870931
0.870931
0.870928
0.870925
0.870922
0.87092
0.87092
0.870917
0.870914
0.870911
0.870908
0.870908
0.870905
0.870902
0.870899
0.870896
0.870896
0.870893
0.87089
0.870887
0.870884
0.870884
0.870881
0.870878
0.870875
0.870872
0.870872
0.870869
0.870866
0.870863
0.87086
0.87086
0.870857
0.870854
0.870851
0.870848
0.870848
0.870845
0.870842
0.870839
0.870836
0.870836
0.870833
0.87083
0.870827
0.870824
0.870824
0.870822
0.870819
0.870816
0.870813
0.870813
0.87081
0.870807
0.870804
0.870801
0.870801
0.870798
0.870795
0.870792
0.870789
0.870789
0.870786
0.870783
0.87078
0.870777
0.870777
0.870774
0.870771
0.870768
0.870765
0.870765
0.870762
0.870759
0.870756
0.870753
0.870753
0.87075
0.870747
0.870744
0.870741
0.870741
0.870738
0.870735
0.870732
0.870729
0.870729
0.870726
0.870723
0.87072
0.870717
0.870717
0.870714
0.870711
0.870708
0.870705
0.870705
0.870702
0.870699
0.870696
0.870693
0.870693
0.87069
0.870687
0.870684
0.870681
0.870681
0.870678
0.870675
0.870672
0.870669
0.870669
0.870666
0.870663
0.87066
0.870657
0.870657
0.870654
0.870651
0.870648
0.870645
0.870645
0.870642
0.870639
0.870636
0.870633
0.870633
0.87063
0.870627
0.870624
0.870621
0.870621
0.870618
0.870614
0.870611
0.870608
0.870608
0.870605
0.870602
0.870599
0.870596
0.870596
0.870593
0.87059
0.870587
0.870584
0.870584
0.870581
0.870578
0.870575
0.870572
0.870572
0.870569
0.870566
0.870563
0.87056
0.87056
0.870557
0.870554
0.870551
0.870548
0.870548
0.870545
0.870542
0.870539
0.870536
0.870536
0.870533
0.87053
0.870527
0.870524
0.870524
0.870521
0.870518
0.870515
0.870512
0.870512
0.870508
0.870505
0.870502
0.870499
0.870499
0.870496
0.870493
0.87049
0.870487
0.870487
0.870484
0.870481
0.870478
0.870475
0.870475
0.870472
0.870469
0.870466
0.870463
0.870463
0.870459
0.870456
0.870453
0.87045
0.87045
0.870447
0.870444
0.870441
0.870438
0.870438
0.870435
0.870431
0.870428
0.870425
0.870425
0.870422
0.870419
0.870416
0.870413
0.870413
0.870409
0.870406
0.870403
0.8704
0.8704
0.870397
0.870393
0.87039
0.870387
0.870387
0.870384
0.870381
0.870377
0.870374
0.870374
0.870371
0.870368
0.870364
0.870361
0.870361
0.870358
0.870355
0.870352
0.870348
0.870348
0.870345
0.870342
0.870339
0.870335
0.870335
0.870332
0.870329
0.870325
0.870322
0.870322
0.870319
0.870315
0.870312
0.870309
0.870309
0.870305
0.870302
0.870299
0.870295
0.870295
0.870292
0.870289
0.870285
0.870282
0.870282
0.870279
0.870275
0.870272
0.870269
0.870269
0.870265
0.870262
0.870258
0.870255
0.870255
0.870252
0.870248
0.870245
0.870241
0.870241
0.870238
0.870235
0.870231
0.870228
0.870228
0.870224
0.870221
0.870218
0.870214
0.870214
0.870211
0.870207
0.870204
0.870201
0.870201
0.870197
0.870194
0.87019
0.870187
0.870187
0.870183
0.87018
0.870177
0.870173
0.870173
0.87017
0.870166
0.870163
0.87016
0.87016
0.870156
0.870153
0.870149
0.870146
0.870146
0.870142
0.870139
0.870136
0.870132
0.870132
0.870129
0.870125
0.870122
0.870118
0.870118
0.870115
0.870112
0.870108
0.870105
0.870105
0.870101
0.870098
0.870094
0.870091
0.870091
0.870088
0.870084
0.870081
0.870077
0.870077
0.870074
0.87007
0.870067
0.870064
0.870064
0.87006
0.870057
0.870053
0.87005
0.87005
0.870046
0.870043
0.87004
0.870036
0.870036
0.870033
0.870029
0.870026
0.870022
0.870022
0.870019
0.870016
0.870012
0.870009
0.870009
0.870005
0.870002
0.869998
0.869995
0.869995
0.869991
0.869988
0.869985
0.869981
0.869981
0.869978
0.869974
0.869971
0.869967
0.869967
0.869964
0.86996
0.869957
0.869954
0.869954
0.86995
0.869947
0.869943
0.86994
0.86994
0.869936
0.869933
0.869929
0.869926
0.869926
0.869923
0.869919
0.869916
0.869912
0.869912
0.869909
0.869905
0.869902
0.869898
0.869898
0.869895
0.869891
0.869888
0.869885
0.869885
0.869881
0.869878
0.869874
0.869871
0.869871
0.869867
0.869864
0.86986
0.869857
0.869857
0.869853
0.86985
0.869846
0.869843
0.869843
0.86984
0.869836
0.869833
0.869829
0.869829
0.869826
0.869822
0.869819
0.869815
0.869815
0.869812
0.869808
0.869805
0.869802
0.869802
0.869798
0.869795
0.869791
0.869788
0.869788
0.869784
0.869781
0.869777
0.869774
0.869774
0.86977
0.869767
0.869763
0.86976
0.86976
0.869756
0.869753
0.86975
0.869746
0.869746
0.869743
0.869739
0.869736
0.869732
0.869732
0.869729
0.869725
0.869722
0.869718
0.869718
0.869715
0.869711
0.869708
0.869704
0.869704
0.869701
0.869697
0.869694
0.86969
0.86969
0.869687
0.869684
0.86968
0.869677
0.869677
0.869673
0.86967
0.869666
0.869663
0.869663
0.869659
0.869656
0.869652
0.869649
0.869649
0.869645
0.869642
0.869638
0.869635
0.869635
0.869631
0.869628
0.869624
0.869621
0.869621
0.869617
0.869614
0.86961
0.869607
0.869607
0.869604
0.8696
0.869597
0.869593
0.869593
0.86959
0.869586
0.869583
0.869579
0.869579
0.869576
0.869572
0.869569
0.869565
0.869565
0.869562
0.869558
0.869554
0.869551
0.869551
0.869547
0.869544
0.86954
0.869537
0.869537
0.869533
0.86953
0.869526
0.869523
0.869523
0.869519
0.869516
0.869512
0.869508
0.869508
0.869505
0.869501
0.869498
0.869494
0.869494
0.86949
0.869487
0.869483
0.86948
0.86948
0.869476
0.869472
0.869469
0.869465
0.869465
0.869461
0.869458
0.869454
0.86945
0.86945
0.869447
0.869443
0.869439
0.869436
0.869436
0.869432
0.869428
0.869425
0.869421
0.869421
0.869417
0.869414
0.86941
0.869406
0.869406
0.869402
0.869399
0.869395
0.869391
0.869391
0.869388
0.869384
0.86938
0.869376
0.869376
0.869373
0.869369
0.869365
0.869361
0.869361
0.869357
0.869354
0.86935
0.869346
0.869346
0.869342
0.869338
0.869335
0.869331
0.869331
0.869327
0.869323
0.869319
0.869315
0.869315
0.869312
0.869308
0.869304
0.8693
0.8693
0.869296
0.869292
0.869289
0.869285
0.869285
0.869281
0.869277
0.869273
0.869269
0.869269
0.869265
0.869262
0.869258
0.869254
0.869254
0.86925
0.869246
0.869242
0.869238
0.869238
0.869235
0.869231
0.869227
0.869223
0.869223
0.869219
0.869215
0.869211
0.869208
0.869208
0.869204
0.8692
0.869196
0.869192
0.869192
0.869188
0.869184
0.869181
0.869177
0.869177
0.869173
0.869169
0.869165
0.869161
0.869161
0.869157
0.869153
0.86915
0.869146
0.869146
0.869142
0.869138
0.869134
0.86913
0.86913
0.869126
0.869123
0.869119
0.869115
0.869115
0.869111
0.869107
0.869103
0.869099
0.869099
0.869095
0.869092
0.869088
0.869084
0.869084
0.86908
0.869076
0.869072
0.869068
0.869068
0.869064
0.869061
0.869057
0.869053
0.869053
0.869049
0.869045
0.869041
0.869037
0.869037
0.869033
0.86903
0.869026
0.869022
0.869022
0.869018
0.869014
0.86901
0.869006
0.869006
0.869002
0.868999
0.868995
0.868991
0.868991
0.868987
0.868983
0.868979
0.868975
0.868975
0.868971
0.868968
0.868964
0.86896
0.86896
0.868956
0.868952
0.868948
0.868944
0.868944
0.86894
0.868937
0.868933
0.868929
0.868929
0.868925
0.868921
0.868917
0.868913
0.868913
0.868909
0.868905
0.868902
0.868898
0.868898
0.868894
0.86889
0.868886
0.868882
0.868882
0.868878
0.868874
0.868871
0.868867
0.868867
0.868863
0.868859
0.868855
0.868851
0.868851
0.868847
0.868843
0.868839
0.868836
0.868836
0.868832
0.868828
0.868824
0.86882
0.86882
0.868816
0.868812
0.868808
0.868805
0.868805
0.868801
0.868797
0.868793
0.868789
0.868789
0.868785
0.868781
0.868777
0.868773
0.868773
0.86877
0.868766
0.868762
0.868758
0.868758
0.868754
0.86875
0.868746
0.868742
0.868742
0.868738
0.868735
0.868731
0.868727
0.868727
0.868723
0.868719
0.868715
0.868711
0.868711
0.868707
0.868703
0.8687
0.868696
0.868696
0.868692
0.868688
0.868684
0.86868
0.86868
0.868676
0.868672
0.868668
0.868664
0.868664
0.868661
0.868657
0.868653
0.868649
0.868649
0.868645
0.868641
0.868637
0.868633
0.868633
0.868629
0.868625
0.868621
0.868617
0.868617
0.868613
0.868609
0.868605
0.868601
0.868601
0.868597
0.868594
0.86859
0.868586
0.868586
0.868582
0.868578
0.868574
0.86857
0.86857
0.868565
0.868561
0.868557
0.868553
0.868553
0.868549