<?xml version="1.0"?>
<VTKFile type="UnstructuredGrid" version="0.1" byte_order="LittleEndian">
<UnstructuredGrid>
<Piece NumberOfPoints="5000" NumberOfCells="4000">
<PointData Scalars="Reaction 0">
<DataArray type="Float32" Name="Reaction 0" format="ascii">
0.985741
0.985741
0.985741
0.985741
0.985741
0.985741
0.985741
0.985741
0.985741
0.985741
0.985741
0.985741
0.985741
0.985741
0.985741
0.985741
0.985741
0.985741
0.985741
0.985741
0.985741
0.985741
0.985741
0.985741
0.985741
0.985741
0.985741
0.985741
0.985741
0.985741
0.985741
0.985741
0.985741
0.985741
0.985741
0.985741
0.98574
0.98574
0.98574
0.98574
0.98574
0.98574
0.98574
0.98574
0.98574
0.98574
0.98574
0.98574
0.98574
0.98574
0.98574
0.98574
0.98574
0.98574
0.98574
0.98574
0.98574
0.985739
0.985739
0.985739
0.985739
0.985739
0.985739
0.985739
0.985739
0.985739
0.985739
0.985739
0.985739
0.985739
0.985739
0.985739
0.985739
0.985738
0.985738
0.985738
0.985738
0.985738
0.985738
0.985738
0.985738
0.985738
0.985738
0.985738
0.985738
0.985738
0.985737
0.985737
0.985737
0.985737
0.985737
0.985737
0.985737
0.985737
0.985737
0.985737
0.985736
0.985736
0.985736
0.985736
0.985736
0.985736
0.985736
0.985736
0.985736
0.985736
0.985735
0.985735
0.985735
0.985735
0.985735
0.985735
0.985735
0.985735
0.985734
0.985734
0.985734
0.985734
0.985734
0.985734
0.985734
0.985734
0.985734
0.985733
0.985733
0.985733
0.985733
0.985733
0.985733
0.985733
0.985733
0.985732
0.985732
0.985732
0.985732
0.985732
0.985732
0.985732
0.985731
0.985731
0.985731
0.985731
0.985731
0.985731
0.985731
0.985731
0.98573
0.98573
0.98573
0.98573
0.98573
0.98573
0.985729
0.985729
0.985729
0.985729
0.985729
0.985729
0.985728
0.985728
0.985728
0.985728
0.985728
0.985728
0.985727
0.985727
0.985727
0.985727
0.985727
0.985727
0.985727
0.985726
0.985726
0.985726
0.985726
0.985726
0.985725
0.985725
0.985725
0.985725
0.985725
0.985725
0.985724
0.985724
0.985724
0.985724
0.985724
0.985723
0.985723
0.985723
0.985723
0.985723
0.985722
0.985722
0.985722
0.985722
0.985722
0.985721
0.985721
0.985721
0.985721
0.985721
0.98572
0.98572
0.98572
0.98572
0.98572
0.985719
0.985719
0.985719
0.985719
0.985719
0.985718
0.985718
0.985718
0.985718
0.985718
0.985717
0.985717
0.985717
0.985717
0.985716
0.985716
0.985716
0.985716
0.985716
0.985715
0.985715
0.985715
0.985714
0.985714
0.985714
0.985714
0.985714
0.985713
0.985713
0.985713
0.985713
0.985712
0.985712
0.985712
0.985712
0.985711
0.985711
0.985711
0.985711
0.985711
0.98571
0.98571
0.98571
0.98571
0.985709
0.985709
0.985709
0.985708
0.985708
0.985708
0.985708
0.985707
0.985707
0.985707
0.985707
0.985706
0.985706
0.985706
0.985706
0.985705
0.985705
0.985705
0.985704
0.985704
0.985704
0.985704
0.985703
0.985703
0.985703
0.985703
0.985702
0.985702
0.985702
0.985702
0.985701
0.985701
0.985701
0.9857
0.9857
0.9857
0.985699
0.985699
0.985699
0.985699
0.985698
0.985698
0.985698
0.985697
0.985697
0.985697
0.985697
0.985696
0.985696
0.985696
0.985695
0.985695
0.985695
0.985694
0.985694
0.985694
0.985693
0.985693
0.985693
0.985693
0.985692
0.985692
0.985691
0.985691
0.985691
0.985691
0.98569
0.98569
0.985689
0.985689
0.985689
0.985689
0.985688
0.985688
0.985688
0.985687
0.985687
0.985687
0.985686
0.985686
0.985686
0.985685
0.985685
0.985685
0.985685
0.985684
0.985684
0.985683
0.985683
0.985683
0.985682
0.985682
0.985682
0.985681
0.985681
0.985681
0.98568
0.98568
0.985679
0.985679
0.985679
0.985678
0.985678
0.985678
0.985678
0.985677
0.985677
0.985676
0.985676
0.985676
0.985675
0.985675
0.985674
0.985674
0.985674
0.985673
0.985673
0.985673
0.985672
0.985672
0.985672
0.985671
0.985671
0.98567
0.98567
0.98567
0.985669
0.985669
0.985668
0.985668
0.985668
0.985667
0.985667
0.985666
0.985666
0.985666
0.985665
0.985665
0.985664
0.985664
0.985664
0.985663
0.985663
0.985662
0.985662
0.985662
0.985661
0.985661
0.98566
0.98566
0.98566
0.985659
0.985659
0.985658
0.985658
0.985658
0.985657
0.985657
0.985656
0.985656
0.985656
0.985655
0.985655
0.985654
0.985654
0.985654
0.985653
0.985653
0.985652
0.985652
0.985652
0.985651
0.985651
0.98565
0.98565
0.985649
0.985649
0.985648
0.985648
0.985648
0.985647
0.985647
0.985646
0.985646
0.985646
0.985645
0.985645
0.985644
0.985643
0.985643
0.985643
0.985642
0.985642
0.985641
0.985641
0.985641
0.98564
0.98564
0.985639
0.985639
0.985638
0.985638
0.985637
0.985637
0.985637
0.985636
0.985636
0.985635
0.985634
0.985634
0.985634
0.985633
0.985633
0.985632
0.985632
0.985631
0.985631
0.98563
0.98563
0.98563
0.985629
0.985629
0.985628
0.985627
0.985627
0.985627
0.985626
0.985626
0.985625
0.985625
0.985624
0.985624
0.985623
0.985622
0.985622
0.985622
0.985621
0.985621
0.98562
0.98562
0.985619
0.985619
0.985618
0.985618
0.985618
0.985617
0.985616
0.985616
0.985615
0.985615
0.985614
0.985614
0.985613
0.985613
0.985613
0.985612
0.985611
0.985611
0.98561
0.98561
0.985609
0.985609
0.985608
0.985607
0.985607
0.985607
0.985606
0.985605
0.985605
0.985605
0.985604
0.985603
0.985603
0.985602
0.985602
0.985601
0.985601
0.9856
0.985599
0.985599
0.985599
0.985598
0.985597
0.985597
0.985597
0.985596
0.985595
0.985595
0.985594
0.985594
0.985593
0.985593
0.985592
0.985591
0.985591
0.985591
0.98559
0.985589
0.985589
0.985589
0.985588
0.985587
0.985586
0.985586
0.985586
0.985585
0.985584
0.985584
0.985583
0.985583
0.985582
0.985582
0.985581
0.98558
0.98558
0.985579
0.985579
0.985578
0.985577
0.985577
0.985577
0.985576
0.985575
0.985574
0.985574
0.985574
0.985573
0.985572
0.985571
0.985571
0.985571
0.98557
0.985569
0.985569
0.985569
0.985568
0.985567
0.985566
0.985566
0.985566
0.985565
0.985564
0.985563
0.985563
0.985563
0.985562
0.985561
0.98556
0.98556
0.98556
0.985559
0.985558
0.985557
0.985557
0.985557
0.985556
0.985555
0.985554
0.985553
0.985553
0.985553
0.985552
0.985551
0.98555
0.98555
0.98555
0.985549
0.985548
0.985547
0.985547
0.985546
0.985546
0.985545
0.985544
0.985544
0.985543
0.985543
0.985542
0.985541
0.985541
0.98554
0.985539
0.985539
0.985538
0.985538
0.985537
0.985536
0.985535
0.985535
0.985535
0.985534
0.985533
0.985532
0.985531
0.985531
0.985531
0.98553
0.985529
0.985528
0.985528
0.985527
0.985526
0.985526
0.985525
0.985525
0.985524
0.985523
0.985522
0.985521
0.985521
0.985521
0.98552
0.985519
0.985518
0.985518
0.985517
0.985516
0.985516
0.985515
0.985515
0.985514
0.985513
0.985512
0.985511
0.985511
0.98551
0.98551
0.985509
0.985508
0.985508
0.985507
0.985506
0.985505
0.985504
0.985504
0.985504
0.985503
0.985502
0.985501
0.985501
0.9855
0.985499
0.985498
0.985498
0.985498
0.985497
0.985496
0.985495
0.985494
0.985494
0.985493
0.985492
0.985491
0.98549
0.98549
0.98549
0.985489
0.985488
0.985487
0.985487
0.985486
0.985485
0.985484
0.985483
0.985483
0.985482
0.985482
0.985481
0.98548
0.98548
0.985479
0.985478
0.985477
0.985476
0.985476
0.985475
0.985474
0.985473
0.985472
0.985472
0.985471
0.985471
0.98547
0.985469
0.985469
0.985468
0.985467
0.985466
0.985465
0.985465
0.985464
0.985463
0.985462
0.985461
0.985461
0.98546
0.985459
0.985458
0.985457
0.985457
0.985457
0.985456
0.985455
0.985454
0.985454
0.985453
0.985452
0.985451
0.98545
0.98545
0.985449
0.985448
0.985447
0.985446
0.985446
0.985445
0.985444
0.985443
0.985442
0.985442
0.985441
0.98544
0.985439
0.985438
0.985438
0.985437
0.985436
0.985435
0.985434
0.985434
0.985433
0.985432
0.985431
0.98543
0.98543
0.985429
0.985428
0.985427
0.985426
0.985426
0.985425
0.985424
0.985423
0.985422
0.985422
0.985421
0.98542
0.985419
0.985418
0.985418
0.985417
0.985416
0.985415
0.985414
0.985414
0.985413
0.985412
0.985411
0.98541
0.98541
0.985409
0.985408
0.985407
0.985406
0.985406
0.985405
0.985404
0.985403
0.985402
0.985402
0.985401
0.9854
0.985399
0.985398
0.985398
0.985397
0.985396
0.985395
0.985394
0.985394
0.985393
0.985392
0.985391
0.98539
0.98539
0.985389
0.985387
0.985386
0.985385
0.985385
0.985384
0.985383
0.985382
0.985381
0.985381
0.98538
0.985379
0.985378
0.985377
0.985377
0.985376
0.985375
0.985374
0.985373
0.985373
0.985371
0.98537
0.985369
0.985368
0.985368
0.985367
0.985366
0.985365
0.985364
0.985364
0.985363
0.985362
0.985361
0.98536
0.98536
0.985358
0.985357
0.985356
0.985355
0.985355
0.985354
0.985353
0.985352
0.985351
0.985351
0.98535
0.985348
0.985347
0.985346
0.985346
0.985345
0.985344
0.985343
0.985342
0.985342
0.985341
0.98534
0.985338
0.985337
0.985337
0.985336
0.985335
0.985334
0.985333
0.985333
0.985332
0.98533
0.985329
0.985328
0.985328
0.985327
0.985326
0.985325
0.985324
0.985324
0.985323
0.985321
0.98532
0.985319
0.985319
0.985318
0.985317
0.985316
0.985314
0.985314
0.985313
0.985312
0.985311
0.98531
0.98531
0.985309
0.985307
0.985306
0.985305
0.985305
0.985304
0.985303
0.985302
0.9853
0.9853
0.985299
0.985298
0.985297
0.985296
0.985296
0.985295
0.985293
0.985292
0.985291
0.985291
0.98529
0.985289
0.985287
0.985286
0.985286
0.985285
0.985284
0.985283
0.985281
0.985281
0.98528
0.985279
0.985278
0.985277
0.985277
0.985275
0.985274
0.985273
0.985272
0.985272
0.98527
0.985269
0.985268
0.985267
0.985267
0.985266
0.985264
0.985263
0.985262
0.985262
0.985261
0.985259
0.985258
0.985257
0.985257
0.985256
0.985255
0.985253
0.985252
0.985252
0.985251
0.98525
0.985248
0.985247
0.985247
0.985246
0.985245
0.985243
0.985242
0.985242
0.985241
0.98524
0.985238
0.985237
0.985237
0.985236
0.985235
0.985233
0.985232
0.985232
0.985231
0.985229
0.985228
0.985227
0.985227
0.985226
0.985224
0.985223
0.985222
0.985222
0.985221
0.985219
0.985218
0.985217
0.985217
0.985215
0.985214
0.985213
0.985212
0.985212
0.98521
0.985209
0.985208
0.985206
0.985206
0.985205
0.985204
0.985203
0.985201
0.985201
0.9852
0.985199
0.985197
0.985196
0.985196
0.985195
0.985193
0.985192
0.985191
0.985191
0.985189
0.985188
0.985187
0.985185
0.985185
0.985184
0.985183
0.985181
0.98518
0.98518
0.985179
0.985178
0.985176
0.985175
0.985175
0.985174
0.985172
0.985171
0.985169
0.985169
0.985168
0.985167
0.985165
0.985164
0.985164
0.985163
0.985161
0.98516
0.985159
0.985159
0.985157
0.985156
0.985155
0.985153
0.985153
0.985152
0.985151
0.985149
0.985148
0.985148
0.985146
0.985145
0.985144
0.985142
0.985142
0.985141
0.98514
0.985138
0.985137
0.985137
0.985135
0.985134
0.985133
0.985131
0.985131
0.98513
0.985129
0.985127
0.985126
0.985126
0.985124
0.985123
0.985122
0.98512
0.98512
0.985119
0.985117
0.985116
0.985115
0.985115
0.985113
0.985112
0.98511
0.985109
0.985109
0.985108
0.985106
0.985105
0.985103
0.985103
0.985102
0.9851
0.985099
0.985098
0.985098
0.985096
0.985095
0.985093
0.985092
0.985092
0.98509
0.985089
0.985088
0.985086
0.985086
0.985085
0.985083
0.985082
0.98508
0.98508
0.985079
0.985077
0.985076
0.985074
0.985074
0.985073
0.985071
0.98507
0.985069
0.985069
0.985067
0.985066
0.985064
0.985063
0.985063
0.985061
0.98506
0.985058
0.985057
0.985057
0.985055
0.985054
0.985052
0.985051
0.985051
0.985049
0.985048
0.985046
0.985045
0.985045
0.985043
0.985042
0.98504
0.985039
0.985039
0.985037
0.985036
0.985034
0.985033
0.985033
0.985031
0.98503
0.985028
0.985027
0.985027
0.985025
0.985024
0.985022
0.985021
0.985021
0.985019
0.985018
0.985016
0.985015
0.985015
0.985013
0.985012
0.98501
0.985009
0.985009
0.985007
0.985006
0.985004
0.985003
0.985003
0.985001
0.985
0.984998
0.984996
0.984996
0.984995
0.984993
0.984992
0.98499
0.98499
0.984989
0.984987
0.984986
0.984984
0.984984
0.984982
0.984981
0.984979
0.984978
0.984978
0.984976
0.984975
0.984973
0.984971
0.984971
0.98497
0.984968
0.984967
0.984965
0.984965
0.984964
0.984962
0.98496
0.984959
0.984959
0.984957
0.984956
0.984954
0.984952
0.984952
0.984951
0.984949
0.984948
0.984946
0.984946
0.984944
0.984943
0.984941
0.98494
0.98494
0.984938
0.984936
0.984935
0.984933
0.984933
0.984932
0.98493
0.984928
0.984927
0.984927
0.984925
0.984923
0.984922
0.98492
0.98492
0.984919
0.984917
0.984915
0.984914
0.984914
0.984912
0.98491
0.984909
0.984907
0.984907
0.984906
0.984904
0.984902
0.984901
0.984901
0.984899
0.984897
0.984896
0.984894
0.984894
0.984892
0.984891
0.984889
0.984887
0.984887
0.984886
0.984884
0.984882
0.984881
0.984881
0.984879
0.984877
0.984876
0.984874
0.984874
0.984872
0.984871
0.984869
0.984867
0.984867
0.984866
0.984864
0.984862
0.984861
0.984861
0.984859
0.984857
0.984856
0.984854
0.984854
0.984852
0.98485
0.984849
0.984847
0.984847
0.984845
0.984844
0.984842
0.98484
0.98484
0.984839
0.984837
0.984835
0.984833
0.984833
0.984832
0.98483
0.984828
0.984827
0.984827
0.984825
0.984823
0.984821
0.98482
0.98482
0.984818
0.984816
0.984815
0.984813
0.984813
0.984811
0.984809
0.984808
0.984806
0.984806
0.984804
0.984802
0.984801
0.984799
0.984799
0.984797
0.984795
0.984794
0.984792
0.984792
0.98479
0.984788
0.984787
0.984785
0.984785
0.984783
0.984781
0.98478
0.984778
0.984778
0.984776
0.984774
0.984773
0.984771
0.984771
0.984769
0.984767
0.984766
0.984764
0.984764
0.984762
0.98476
0.984758
0.984757
0.984757
0.984755
0.984753
0.984751
0.98475
0.98475
0.984748
0.984746
0.984744
0.984742
0.984742
0.984741
0.984739
0.984737
0.984735
0.984735
0.984733
0.984732
0.98473
0.984728
0.984728
0.984726
0.984724
0.984723
0.984721
0.984721
0.984719
0.984717
0.984715
0.984714
0.984714
0.984712
0.98471
0.984708
0.984706
0.984706
0.984704
0.984703
0.984701
0.984699
0.984699
0.984697
0.984695
0.984693
0.984692
0.984692
0.98469
0.984688
0.984686
0.984684
0.984684
0.984682
0.984681
0.984679
0.984677
0.984677
0.984675
0.984673
0.984671
0.984669
0.984669
0.984668
0.984666
0.984664
0.984662
0.984662
0.98466
0.984658
0.984656
0.984655
0.984655
0.984653
0.984651
0.984649
0.984647
0.984647
0.984645
0.984643
0.984641
0.98464
0.98464
0.984638
0.984636
0.984634
0.984632
0.984632
0.98463
0.984628
0.984626
0.984624
0.984624
0.984623
0.984621
0.984619
0.984617
0.984617
0.984615
0.984613
0.984611
0.984609
0.984609
0.984607
0.984605
0.984604
0.984602
0.984602
0.9846
0.984598
0.984596
0.984594
0.984594
0.984592
0.98459
0.984588
0.984586
0.984586
0.984584
0.984582
0.98458
0.984579
0.984579
0.984577
0.984575
0.984573
0.984571
0.984571
0.984569
0.984567
0.984565
0.984563
0.984563
0.984561
0.984559
0.984557
0.984555
0.984555
0.984553
0.984551
0.984549
0.984547
0.984547
0.984545
0.984544
0.984542
0.98454
0.98454
0.984538
0.984536
0.984534
0.984532
0.984532
0.98453
0.984528
0.984526
0.984524
0.984524
0.984522
0.98452
0.984518
0.984516
0.984516
0.984514
0.984512
0.98451
0.984508
0.984508
0.984506
0.984504
0.984502
0.9845
0.9845
0.984498
0.984496
0.984494
0.984492
0.984492
0.98449
0.984488
0.984486
0.984484
0.984484
0.984482
0.98448
0.984478
0.984476
0.984476
0.984474
0.984472
0.98447
0.984468
0.984468
0.984466
0.984464
0.984462
0.98446
0.98446
0.984458
0.984456
0.984454
0.984452
0.984452
0.98445
0.984448
0.984446
0.984444
0.984444
0.984441
0.984439
0.984437
0.984435
0.984435
0.984433
0.984431
0.984429
0.984427
0.984427
0.984425
0.984423
0.984421
0.984419
0.984419
0.984417
0.984415
0.984413
0.984411
0.984411
0.984409
0.984407
0.984405
0.984402
0.984402
0.9844
0.984398
0.984396
0.984394
0.984394
0.984392
0.98439
0.984388
0.984386
0.984386
0.984384
0.984382
0.98438
0.984377
0.984377
0.984375
0.984373
0.984371
0.984369
0.984369
0.984367
0.984365
0.984363
0.984361
0.984361
0.984359
0.984357
0.984354
0.984352
0.984352
0.98435
0.984348
0.984346
0.984344
0.984344
0.984342
0.98434
0.984337
0.984335
0.984335
0.984333
0.984331
0.984329
0.984327
0.984327
0.984325
0.984323
0.98432
0.984318
0.984318
0.984316
0.984314
0.984312
0.98431
0.98431
0.984308
0.984306
0.984303
0.984301
0.984301
0.984299
0.984297
0.984295
0.984293
0.984293
0.98429
0.984288
0.984286
0.984284
0.984284
0.984282
0.98428
0.984278
0.984275
0.984275
0.984273
0.984271
0.984269
0.984267
0.984267
0.984265
0.984262
0.98426
0.984258
0.984258
0.984256
0.984254
0.984251
0.984249
0.984249
0.984247
0.984245
0.984243
0.984241
0.984241
0.984238
0.984236
0.984234
0.984232
0.984232
0.98423
0.984227
0.984225
0.984223
0.984223
0.984221
0.984219
0.984216
0.984214
0.984214
0.984212
0.98421
0.984207
0.984205
0.984205
0.984203
0.984201
0.984199
0.984196
0.984196
0.984194
0.984192
0.98419
0.984188
0.984188
0.984185
0.984183
0.984181
0.984179
0.984179
0.984176
0.984174
0.984172
0.98417
0.98417
0.984167
0.984165
0.984163
0.984161
0.984161
0.984158
0.984156
0.984154
0.984152
0.984152
0.984149
0.984147
0.984145
0.984143
0.984143
0.98414
0.984138
0.984136
0.984134
0.984134
0.984131
0.984129
0.984127
0.984124
0.984124
0.984122
0.98412
0.984118
0.984115
0.984115
0.984113
0.984111
0.984108
0.984106
0.984106
0.984104
0.984102
0.984099
0.984097
0.984097
0.984095
0.984092
0.98409
0.984088
0.984088
0.984085
0.984083
0.984081
0.984078
0.984078
0.984076
0.984074
0.984071
0.984069
0.984069
0.984067
0.984064
0.984062
0.98406
0.98406
0.984057
0.984055
0.984053
0.98405
0.98405
0.984048
0.984046
0.984043
0.984041
0.984041
0.984039
0.984036
0.984034
0.984032
0.984032
0.984029
0.984027
0.984024
0.984022
0.984022
0.98402
0.984017
0.984015
0.984013
0.984013
0.98401
0.984008
0.984006
0.984003
0.984003
0.984001
0.983999
0.983996
0.983994
0.983994
0.983991
0.983989
0.983987
0.983984
0.983984
0.983982
0.98398
0.983977
0.983975
0.983975
0.983972
0.98397
0.983968
0.983965
0.983965
0.983963
0.98396
0.983958
0.983956
0.983956
0.983953
0.983951
0.983948
0.983946
0.983946
0.983944
0.983941
0.983939
0.983936
0.983936
0.983934
0.983931
0.983929
0.983927
0.983927
0.983924
0.983922
0.983919
0.983917
0.983917
0.983914
0.983912
0.98391
0.983907
0.983907
0.983905
0.983902
0.9839
0.983897
0.983897
0.983895
0.983892
0.98389
0.983887
0.983887
0.983885
0.983883
0.98388
0.983878
0.983878
0.983875
0.983873
0.98387
0.983868
0.983868
0.983865
0.983863
0.98386
0.983858
0.983858
0.983855
0.983853
0.98385
0.983848
0.983848
0.983845
0.983843
0.98384
0.983838
0.983838
0.983835
0.983833
0.98383
0.983828
0.983828
0.983825
0.983823
0.98382
0.983818
0.983818
0.983815
0.983813
0.98381
0.983808
0.983808
0.983805
0.983803
0.9838
0.983798
0.983798
0.983795
0.983793
0.98379
0.983788
0.983788
0.983785
0.983783
0.98378
0.983778
0.983778
0.983775
0.983772
0.98377
0.983767
0.983767
0.983765
0.983762
0.98376
0.983757
0.983757
0.983755
0.983752
0.98375
0.983747
0.983747
0.983744
0.983742
0.983739
0.983737
0.983737
0.983734
0.983732
0.983729
0.983727
0.983727
0.983724
0.983721
0.983719
0.983716
0.983716
0.983714
0.983711
0.983709
0.983706
0.983706
0.983703
0.983701
0.983698
0.983696
0.983696
0.983693
0.98369
0.983688
0.983685
0.983685
0.983683
0.98368
0.983677
0.983675
0.983675
0.983672
0.98367
0.983667
0.983664
0.983664
0.983662
0.983659
0.983657
0.983654
0.983654
0.983651
0.983649
0.983646
0.983644
0.983644
0.983641
0.983638
0.983636
0.983633
0.983633
0.983631
0.983628
0.983625
0.983623
0.983623
0.98362
0.983617
0.983615
0.983612
0.983612
0.983609
0.983607
0.983604
0.983602
0.983602
0.983599
0.983596
0.983594
0.983591
0.983591
0.983588
0.983586
0.983583
0.98358
0.98358
0.983578
0.983575
0.983572
0.98357
0.98357
0.983567
0.983564
0.983562
0.983559
0.983559
0.983556
0.983554
0.983551
0.983548
0.983548
0.983546
0.983543
0.98354
0.983538
0.983538
0.983535
0.983532
0.98353
0.983527
0.983527
0.983524
0.983522
0.983519
0.983516
0.983516
0.983513
0.983511
0.983508
0.983505
0.983505
0.983503
0.9835
0.983497
0.983495
0.983495
0.983492
0.983489
0.983486
0.983484
0.983484
0.983481
0.983478
0.983476
0.983473
0.983473
0.98347
0.983467
0.983465
0.983462
0.983462
0.983459
0.983457
0.983454
0.983451
0.983451
0.983448
0.983446
0.983443
0.98344
0.98344
0.983437
0.983435
0.983432
0.983429
0.983429
0.983426
0.983424
0.983421
0.983418
0.983418
0.983415
0.983413
0.98341
0.983407
0.983407
0.983404
0.983402
0.983399
0.983396
0.983396
0.983393
0.983391
0.983388
0.983385
0.983385
0.983382
0.98338
0.983377
0.983374
0.983374
0.983371
0.983368
0.983366
0.983363
0.983363
0.98336
0.983357
0.983354
0.983352
0.983352
0.983349
0.983346
0.983343
0.983341
0.983341
0.983338
0.983335
0.983332
0.983329
0.983329
0.983327
0.983324
0.983321
0.983318
0.983318
0.983315
0.983313
0.98331
0.983307
0.983307
0.983304
0.983301
0.983298
0.983296
0.983296
0.983293
0.98329
0.983287
0.983284
0.983284
0.983282
0.983279
0.983276
0.983273
0.983273
0.98327
0.983267
0.983265
0.983262
0.983262
0.983259
0.983256
0.983253
0.98325
0.98325
0.983247
0.983245
0.983242
0.983239
0.983239
0.983236
0.983233
0.98323
0.983227
0.983227
0.983225
0.983222
0.983219
0.983216
0.983216
0.983213
0.98321
0.983207
0.983205
0.983205
0.983202
0.983199
0.983196
0.983193
0.983193
0.98319
0.983187
0.983184
0.983182
0.983182
0.983179
0.983176
0.983173
0.98317
0.98317
0.983167
0.983164
0.983161
0.983158
0.983158
0.983156
0.983153
0.98315
0.983147
0.983147
0.983144
0.983141
0.983138
0.983135
0.983135
0.983132
0.983129
0.983126
0.983123
0.983123
0.983121
0.983118
0.983115
0.983112
0.983112
0.983109
0.983106
0.983103
0.9831
0.9831
0.983097
0.983094
0.983091
0.983088
0.983088
0.983085
0.983082
0.983079
0.983076
0.983076
0.983073
0.983071
0.983068
0.983065
0.983065
0.983062
0.983059
0.983056
0.983053
0.983053
0.98305
0.983047
0.983044
0.983041
0.983041
0.983038
0.983035
0.983032
0.983029
0.983029
0.983026
0.983023
0.98302
0.983017
0.983017
0.983014
0.983011
0.983008
0.983005
0.983005
0.983002
0.982999
0.982996
0.982993
0.982993
0.98299
0.982987
0.982984
0.982981
0.982981
0.982978
0.982975
0.982972
0.982969
0.982969
0.982966
0.982963
0.98296
0.982957
0.982957
0.982954
0.982951
0.982948
0.982945
0.982945
0.982942
0.982939
0.982935
0.982932
0.982932
0.982929
0.982926
0.982923
0.98292
0.98292
0.982917
0.982914
0.982911
0.982908
0.982908
0.982905
0.982902
0.982899
0.982896
0.982896
0.982893
0.98289
0.982887
0.982884
0.982884
0.982881
0.982878
0.982874
0.982871
0.982871
0.982868
0.982865
0.982862
0.982859
0.982859
0.982856
0.982853
0.98285
0.982847
0.982847
0.982844
0.98284
0.982837
0.982834
0.982834
0.982831
0.982828
0.982825
0.982822
0.982822
0.982819
0.982816
0.982812
0.982809
0.982809
0.982806
0.982803
0.9828
0.982797
0.982797
0.982794
0.982791
0.982787
0.982784
0.982784
0.982781
0.982778
0.982775
0.982772
0.982772
0.982769
0.982766
0.982762
0.982759
0.982759
0.982756
0.982753
0.98275
0.982747
0.982747
0.982743
0.98274
0.982737
0.982734
0.982734
0.982731
0.982728
0.982725
0.982721
0.982721
0.982718
0.982715
0.982712
0.982709
0.982709
0.982706
0.982702
0.982699
0.982696
0.982696
0.982693
0.98269
0.982686
0.982683
0.982683
0.98268
0.982677
0.982674
0.98267
0.98267
0.982667
0.982664
0.982661
0.982658
0.982658
0.982655
0.982651
0.982648
0.982645
0.982645
0.982642
0.982638
0.982635
0.982632
0.982632
0.982629
0.982626
0.982622
0.982619
0.982619
0.982616
0.982613
0.98261
0.982606
0.982606
0.982603
0.9826
0.982597
0.982593
0.982593
0.98259
0.982587
0.982584
0.98258
0.98258
0.982577
0.982574
0.982571
0.982568
0.982568
0.982564
0.982561
0.982558
0.982555
0.982555
0.982551
0.982548
0.982545
0.982542
0.982542
0.982538
0.982535
0.982532
0.982529
0.982529
0.982525
0.982522
0.982519
0.982515
0.982515
0.982512
0.982509
0.982506
0.982502
0.982502
0.982499
0.982496
0.982493
0.982489
0.982489
0.982486
0.982483
0.982479
0.982476
0.982476
0.982473
0.98247
0.982466
0.982463
0.982463
0.98246
0.982456
0.982453
0.98245
0.98245
0.982446
0.982443
0.98244
0.982437
0.982437
0.982433
0.98243
0.982427
0.982423
0.982423
0.98242
0.982417
0.982413
0.98241
0.98241
0.982407
0.982403
0.9824
0.982397
0.982397
0.982393
0.98239
0.982387
0.982383
0.982383
0.98238
0.982377
0.982373
0.98237
0.98237
0.982367
0.982363
0.98236
0.982357
0.982357
0.982353
0.98235
0.982347
0.982343
0.982343
0.98234
0.982337
0.982333
0.98233
0.98233
0.982327
0.982323
0.98232
0.982316
0.982316
0.982313
0.98231
0.982306
0.982303
0.982303
0.9823
0.982296
0.982293
0.982289
0.982289
0.982286
0.982283
0.982279
0.982276
0.982276
0.982273
0.982269
0.982266
0.982262
0.982262
0.982259
0.982256
0.982252
0.982249
0.982249
0.982245
0.982242
0.982239
0.982235
0.982235
0.982232
0.982228
0.982225
0.982222
0.982222
0.982218
0.982215
0.982211
0.982208
0.982208
0.982205
0.982201
0.982198
0.982194
0.982194
0.982191
0.982187
0.982184
0.982181
0.982181
0.982177
0.982174
0.98217
0.982167
0.982167
0.982163
0.98216
0.982157
0.982153
0.982153
0.98215
0.982146
0.982143
0.982139
0.982139
0.982136
0.982132
0.982129
0.982125
0.982125
0.982122
0.982119
0.982115
0.982112
0.982112
0.982108
0.982105
0.982101
0.982098
0.982098
0.982094
0.982091
0.982087
0.982084
0.982084
0.98208
0.982077
0.982073
0.98207
0.98207
0.982066
0.982063
0.982059
0.982056
0.982056
0.982052
0.982049
0.982045
0.982042
0.982042
0.982038
0.982035
0.982031
0.982028
0.982028
0.982024
0.982021
0.982017
0.982013
0.982013
0.98201
0.982006
0.982003
0.981999
0.981999
0.981996
0.981992
0.981989
0.981985
0.981985
0.981982
0.981978
0.981974
0.981971
0.981971
0.981967
0.981964
0.98196
0.981957
0.981957
0.981953
0.98195
0.981946
0.981942
0.981942
0.981939
0.981935
0.981932
0.981928
0.981928
0.981925
0.981921
0.981918
0.981914
0.981914
0.98191
0.981907
0.981903
0.9819
0.9819
0.981896
0.981893
0.981889
0.981885
0.981885
0.981882
0.981878
0.981875
0.981871
0.981871
0.981868
0.981864
0.98186
0.981857
0.981857
0.981853
0.98185
0.981846
0.981842
0.981842
0.981839
0.981835
0.981832
0.981828
0.981828
0.981824
0.981821
0.981817
0.981813
0.981813
0.98181
0.981806
0.981803
0.981799
0.981799
0.981795
0.981792
0.981788
0.981784
0.981784
0.981781
0.981777
0.981773
0.98177
0.98177
0.981766
0.981762
0.981759
0.981755
0.981755
0.981751
0.981748
0.981744
0.98174
0.98174
0.981737
0.981733
0.981729
0.981726
0.981726
0.981722
0.981718
0.981715
0.981711
0.981711
0.981707
0.981704
0.9817
0.981696
0.981696
0.981693
0.981689
0.981685
0.981681
0.981681
0.981678
0.981674
0.98167
0.981667
0.981667
0.981663
0.981659
0.981656
0.981652
0.981652
0.981648
0.981644
0.981641
0.981637
0.981637
0.981633
0.98163
0.981626
0.981622
0.981622
0.981618
0.981615
0.981611
0.981607
0.981607
0.981603
0.9816
0.981596
0.981592
0.981592
0.981588
0.981585
0.981581
0.981577
0.981577
0.981574
0.98157
0.981566
0.981562
0.981562
0.981559
0.981555
0.981551
0.981547
0.981547
0.981543
0.98154
0.981536
0.981532
0.981532
0.981528
0.981525
0.981521
0.981517
0.981517
0.981513
0.98151
0.981506
0.981502
0.981502
0.981498
0.981494
0.981491
0.981487
0.981487
0.981483
0.981479
0.981476
0.981472
0.981472
0.981468
0.981464
0.98146
0.981457
0.981457
0.981453
0.981449
0.981445
0.981441
0.981441
0.981438
0.981434
0.98143
0.981426
0.981426
0.981422
0.981419
0.981415
0.981411
0.981411
0.981407
0.981403
0.9814
0.981396
0.981396
0.981392
0.981388
0.981384
0.98138
0.98138
0.981377
0.981373
0.981369
0.981365
0.981365
0.981361
0.981357
0.981354
0.98135
0.98135
0.981346
0.981342
0.981338
0.981334
0.981334
0.981331
0.981327
0.981323
0.981319
0.981319
0.981315
0.981311
0.981307
0.981304
0.981304
0.9813
0.981296
0.981292
0.981288
0.981288
0.981284
0.98128
0.981276
0.981273
0.981273
0.981269
0.981265
0.981261
0.981257
0.981257
0.981253
0.981249
0.981245
0.981242
0.981242
0.981238
0.981234
0.98123
0.981226
0.981226
0.981222
0.981218
0.981214
0.98121
0.98121
0.981207
0.981203
0.981199
0.981195
0.981195
0.981191
0.981187
0.981183
0.981179
0.981179
0.981175
0.981171
0.981167
0.981164
0.981164
0.98116
0.981156
0.981152
0.981148
0.981148
0.981144
0.98114
0.981136
0.981132
0.981132
0.981128
0.981124
0.98112
0.981116
0.981116
0.981112
0.981108
0.981104
0.981101
0.981101
0.981097
0.981093
0.981089
0.981085
0.981085
0.981081
0.981077
0.981073
0.981069
0.981069
0.981065
0.981061
0.981057
0.981053
0.981053
0.981049
0.981045
0.981041
0.981037
0.981037
0.981033
0.981029
0.981025
0.981021
0.981021
0.981017
0.981013
0.981009
0.981005
0.981005
0.981001
0.980997
0.980993
0.980989
0.980989
0.980985
0.980981
0.980977
0.980973
0.980973
0.980969
0.980965
0.98096
0.980956
0.980956
0.980952
0.980948
0.980944
0.98094
0.98094
0.980936
0.980932
0.980928
0.980924
0.980924
0.98092
0.980916
0.980912
0.980908
0.980908
0.980904
0.9809
0.980896
0.980892
0.980892
0.980888
0.980884
0.98088
0.980876
0.980876
0.980872
0.980868
0.980864
0.98086
0.98086
0.980856
0.980851
0.980847
0.980843
0.980843
0.980839
0.980835
0.980831
0.980827
0.980827
0.980823
0.980819
0.980815
0.980811
0.980811
0.980807
0.980803
0.980798
0.980794
0.980794
0.98079
0.980786
0.980782
0.980778
0.980778
0.980774
0.98077
0.980766
0.980762
0.980762
0.980757
0.980753
0.980749
0.980745
0.980745
0.980741
0.980737
0.980733
0.980729
0.980729
0.980724
0.98072
0.980716
0.980712
0.980712
0.980708
0.980704
0.9807
0.980695
0.980695
0.980691
0.980687
0.980683
0.980679
0.980679
0.980675
0.98067
0.980666
0.980662
0.980662
0.980658
0.980654
0.98065
0.980645
0.980645
0.980641
0.980637
0.980633
0.980629
0.980629
0.980625
0.98062
0.980616
0.980612
0.980612
0.980608
0.980604
0.980599
0.980595
0.980595
0.980591
0.980587
0.980583
0.980578
0.980578
0.980574
0.98057
0.980566
0.980562
0.980562
0.980557
0.980553
0.980549
0.980545
0.980545
0.980541
0.980536
0.980532
0.980528
0.980528
0.980524
0.980519
0.980515
0.980511
0.980511
0.980507
0.980503
0.980498
0.980494
0.980494
0.98049
0.980486
0.980481
0.980477
0.980477
0.980473
0.980469
0.980464
0.98046
0.98046
0.980456
0.980452
0.980447
0.980443
0.980443
0.980439
0.980435
0.98043
0.980426
0.980426
0.980422
0.980418
0.980413
0.980409
0.980409
0.980405
0.980401
0.980396
0.980392
0.980392
0.980388
0.980384
0.980379
0.980375
0.980375
0.980371
0.980366
0.980362
0.980358
0.980358
0.980354
0.980349
0.980345
0.980341
0.980341
0.980336
0.980332
0.980328
0.980324
0.980324
0.980319
0.980315
0.980311
0.980306
0.980306
0.980302
0.980298
0.980293
0.980289
0.980289
0.980285
0.98028
0.980276
0.980272
0.980272
0.980268
0.980263
0.980259
0.980255
0.980255
0.98025
0.980246
0.980242
0.980237
0.980237
0.980233
0.980229
0.980224
0.98022
0.98022
0.980216
0.980211
0.980207
0.980203
0.980203
0.980198
0.980194
0.980189
0.980185
0.980185
0.980181
0.980176
0.980172
0.980168
0.980168
0.980163
0.980159
0.980155
0.98015
0.98015
0.980146
0.980142
0.980137
0.980133
0.980133
0.980128
0.980124
0.98012
0.980115
0.980115
0.980111
0.980106
0.980102
0.980098
0.980098
0.980093
0.980089
0.980085
0.98008
0.98008
0.980076
0.980071
0.980067
0.980062
0.980062
0.980058
0.980054
0.980049
0.980045
0.980045
0.98004
0.980036
0.980031
0.980027
0.980027
0.980023
0.980018
0.980014
0.980009
0.980009
0.980005
0.98
0.979996
0.979991
0.979991
0.979987
0.979982
0.979978
0.979974
0.979974
0.979969
0.979965
0.97996
0.979956
0.979956
0.979951
0.979947
0.979942
0.979938
0.979938
0.979933
0.979929
0.979924