<?xml version="1.0"?>
<VTKFile type="UnstructuredGrid" version="0.1" byte_order="LittleEndian">
<UnstructuredGrid>
<Piece NumberOfPoints="5000" NumberOfCells="4000">
<PointData Scalars="Reaction 0">
<DataArray type="Float32" Name="Reaction 0" format="ascii">
0.92499
0.92499
0.92499
0.92499
0.92499
0.92499
0.92499
0.92499
0.92499
0.92499
0.92499
0.92499
0.92499
0.92499
0.92499
0.92499
0.92499
0.92499
0.92499
0.92499
0.92499
0.924989
0.924989
0.924989
0.924989
0.924989
0.924989
0.924989
0.924989
0.924989
0.924989
0.924989
0.924989
0.924989
0.924989
0.924989
0.924989
0.924989
0.924989
0.924989
0.924989
0.924989
0.924989
0.924989
0.924989
0.924989
0.924989
0.924988
0.924988
0.924988
0.924988
0.924988
0.924988
0.924988
0.924988
0.924988
0.924988
0.924988
0.924988
0.924988
0.924988
0.924988
0.924988
0.924988
0.924987
0.924987
0.924987
0.924987
0.924987
0.924987
0.924987
0.924987
0.924987
0.924987
0.924987
0.924987
0.924987
0.924986
0.924986
0.924986
0.924986
0.924986
0.924986
0.924986
0.924986
0.924986
0.924986
0.924986
0.924985
0.924985
0.924985
0.924985
0.924985
0.924985
0.924985
0.924985
0.924985
0.924985
0.924984
0.924984
0.924984
0.924984
0.924984
0.924984
0.924984
0.924984
0.924984
0.924983
0.924983
0.924983
0.924983
0.924983
0.924983
0.924983
0.924982
0.924982
0.924982
0.924982
0.924982
0.924982
0.924982
0.924982
0.924981
0.924981
0.924981
0.924981
0.924981
0.924981
0.924981
0.92498
0.92498
0.92498
0.92498
0.92498
0.92498
0.92498
0.92498
0.924979
0.924979
0.924979
0.924979
0.924979
0.924979
0.924978
0.924978
0.924978
0.924978
0.924978
0.924978
0.924977
0.924977
0.924977
0.924977
0.924977
0.924977
0.924977
0.924976
0.924976
0.924976
0.924976
0.924976
0.924975
0.924975
0.924975
0.924975
0.924975
0.924975
0.924974
0.924974
0.924974
0.924974
0.924974
0.924973
0.924973
0.924973
0.924973
0.924973
0.924972
0.924972
0.924972
0.924972
0.924972
0.924971
0.924971
0.924971
0.924971
0.924971
0.92497
0.92497
0.92497
0.92497
0.92497
0.924969
0.924969
0.924969
0.924969
0.924969
0.924968
0.924968
0.924968
0.924968
0.924967
0.924967
0.924967
0.924967
0.924967
0.924966
0.924966
0.924966
0.924965
0.924965
0.924965
0.924965
0.924965
0.924964
0.924964
0.924964
0.924964
0.924963
0.924963
0.924963
0.924963
0.924963
0.924962
0.924962
0.924962
0.924962
0.924961
0.924961
0.924961
0.924961
0.92496
0.92496
0.92496
0.924959
0.924959
0.924959
0.924959
0.924958
0.924958
0.924958
0.924958
0.924957
0.924957
0.924957
0.924957
0.924956
0.924956
0.924956
0.924955
0.924955
0.924955
0.924955
0.924954
0.924954
0.924954
0.924954
0.924953
0.924953
0.924953
0.924953
0.924952
0.924952
0.924951
0.924951
0.924951
0.924951
0.92495
0.92495
0.92495
0.92495
0.924949
0.924949
0.924949
0.924948
0.924948
0.924948
0.924947
0.924947
0.924947
0.924947
0.924946
0.924946
0.924945
0.924945
0.924945
0.924945
0.924944
0.924944
0.924943
0.924943
0.924943
0.924943
0.924942
0.924942
0.924942
0.924941
0.924941
0.924941
0.92494
0.92494
0.92494
0.924939
0.924939
0.924939
0.924939
0.924938
0.924938
0.924937
0.924937
0.924937
0.924936
0.924936
0.924936
0.924935
0.924935
0.924935
0.924934
0.924934
0.924933
0.924933
0.924933
0.924933
0.924932
0.924932
0.924932
0.924931
0.924931
0.92493
0.92493
0.92493
0.924929
0.924929
0.924928
0.924928
0.924928
0.924928
0.924927
0.924927
0.924926
0.924926
0.924926
0.924925
0.924925
0.924924
0.924924
0.924924
0.924923
0.924923
0.924922
0.924922
0.924922
0.924921
0.924921
0.92492
0.92492
0.92492
0.924919
0.924919
0.924918
0.924918
0.924918
0.924917
0.924917
0.924916
0.924916
0.924916
0.924915
0.924915
0.924914
0.924914
0.924914
0.924913
0.924913
0.924912
0.924912
0.924912
0.924911
0.924911
0.92491
0.92491
0.92491
0.924909
0.924909
0.924908
0.924908
0.924908
0.924907
0.924907
0.924906
0.924906
0.924906
0.924905
0.924905
0.924904
0.924904
0.924903
0.924903
0.924902
0.924902
0.924902
0.924901
0.924901
0.9249
0.9249
0.9249
0.924899
0.924898
0.924898
0.924897
0.924897
0.924897
0.924896
0.924896
0.924895
0.924895
0.924895
0.924894
0.924893
0.924893
0.924893
0.924892
0.924892
0.924891
0.92489
0.92489
0.92489
0.924889
0.924889
0.924888
0.924888
0.924888
0.924887
0.924886
0.924886
0.924886
0.924885
0.924885
0.924884
0.924883
0.924883
0.924883
0.924882
0.924882
0.924881
0.924881
0.92488
0.92488
0.924879
0.924878
0.924878
0.924878
0.924877
0.924877
0.924876
0.924876
0.924875
0.924875
0.924874
0.924873
0.924873
0.924873
0.924872
0.924872
0.924871
0.924871
0.92487
0.92487
0.924869
0.924868
0.924868
0.924868
0.924867
0.924866
0.924866
0.924866
0.924865
0.924864
0.924864
0.924863
0.924863
0.924863
0.924862
0.924861
0.924861
0.924861
0.92486
0.924859
0.924859
0.924858
0.924858
0.924857
0.924857
0.924856
0.924855
0.924855
0.924854
0.924854
0.924853
0.924852
0.924852
0.924852
0.924851
0.92485
0.92485
0.92485
0.924849
0.924848
0.924848
0.924847
0.924847
0.924846
0.924846
0.924845
0.924844
0.924844
0.924843
0.924843
0.924842
0.924841
0.924841
0.924841
0.92484
0.924839
0.924838
0.924838
0.924838
0.924837
0.924836
0.924836
0.924836
0.924835
0.924834
0.924833
0.924833
0.924833
0.924832
0.924831
0.92483
0.92483
0.92483
0.924829
0.924828
0.924827
0.924827
0.924827
0.924826
0.924825
0.924824
0.924824
0.924824
0.924823
0.924822
0.924821
0.924821
0.924821
0.92482
0.924819
0.924818
0.924818
0.924818
0.924817
0.924816
0.924815
0.924815
0.924815
0.924814
0.924813
0.924812
0.924811
0.924811
0.924811
0.92481
0.924809
0.924808
0.924808
0.924808
0.924807
0.924806
0.924805
0.924805
0.924804
0.924804
0.924803
0.924802
0.924802
0.924801
0.9248
0.9248
0.924799
0.924799
0.924798
0.924797
0.924796
0.924796
0.924796
0.924795
0.924794
0.924793
0.924792
0.924792
0.924791
0.924791
0.92479
0.924789
0.924789
0.924788
0.924787
0.924786
0.924786
0.924786
0.924785
0.924784
0.924783
0.924782
0.924782
0.924781
0.924781
0.92478
0.924779
0.924779
0.924778
0.924777
0.924776
0.924776
0.924776
0.924775
0.924774
0.924773
0.924772
0.924772
0.924771
0.92477
0.924769
0.924769
0.924769
0.924768
0.924767
0.924766
0.924765
0.924765
0.924764
0.924763
0.924763
0.924762
0.924762
0.924761
0.92476
0.924759
0.924758
0.924758
0.924757
0.924756
0.924755
0.924755
0.924755
0.924754
0.924753
0.924752
0.924751
0.924751
0.92475
0.924749
0.924748
0.924747
0.924747
0.924746
0.924746
0.924745
0.924744
0.924744
0.924743
0.924742
0.924741
0.92474
0.92474
0.924739
0.924738
0.924737
0.924736
0.924736
0.924735
0.924734
0.924734
0.924733
0.924733
0.924732
0.924731
0.92473
0.924729
0.924729
0.924728
0.924727
0.924726
0.924725
0.924725
0.924724
0.924723
0.924722
0.924721
0.924721
0.92472
0.924719
0.924718
0.924717
0.924717
0.924716
0.924716
0.924715
0.924714
0.924714
0.924713
0.924712
0.924711
0.92471
0.92471
0.924709
0.924708
0.924707
0.924706
0.924706
0.924705
0.924704
0.924703
0.924702
0.924702
0.924701
0.9247
0.924699
0.924698
0.924698
0.924697
0.924696
0.924695
0.924694
0.924694
0.924693
0.924692
0.924691
0.92469
0.92469
0.924689
0.924688
0.924687
0.924686
0.924686
0.924685
0.924684
0.924683
0.924682
0.924682
0.924681
0.92468
0.924679
0.924678
0.924678
0.924677
0.924676
0.924675
0.924674
0.924674
0.924672
0.924671
0.92467
0.924669
0.924669
0.924668
0.924667
0.924666
0.924665
0.924665
0.924664
0.924663
0.924662
0.924661
0.924661
0.92466
0.924659
0.924658
0.924657
0.924657
0.924656
0.924655
0.924654
0.924653
0.924653
0.924651
0.92465
0.924649
0.924648
0.924648
0.924647
0.924646
0.924645
0.924644
0.924644
0.924643
0.924642
0.924641
0.92464
0.92464
0.924638
0.924637
0.924636
0.924635
0.924635
0.924634
0.924633
0.924632
0.924631
0.924631
0.92463
0.924629
0.924628
0.924626
0.924626
0.924625
0.924624
0.924623
0.924622
0.924622
0.924621
0.92462
0.924619
0.924618
0.924618
0.924616
0.924615
0.924614
0.924613
0.924613
0.924612
0.924611
0.92461
0.924608
0.924608
0.924607
0.924606
0.924605
0.924604
0.924604
0.924603
0.924602
0.924601
0.924599
0.924599
0.924598
0.924597
0.924596
0.924595
0.924595
0.924594
0.924592
0.924591
0.92459
0.92459
0.924589
0.924588
0.924587
0.924585
0.924585
0.924584
0.924583
0.924582
0.924581
0.924581
0.92458
0.924578
0.924577
0.924576
0.924576
0.924575
0.924574
0.924573
0.924571
0.924571
0.92457
0.924569
0.924568
0.924567
0.924567
0.924565
0.924564
0.924563
0.924562
0.924562
0.924561
0.924559
0.924558
0.924557
0.924557
0.924556
0.924555
0.924553
0.924552
0.924552
0.924551
0.92455
0.924549
0.924547
0.924547
0.924546
0.924545
0.924544
0.924542
0.924542
0.924541
0.92454
0.924539
0.924537
0.924537
0.924536
0.924535
0.924534
0.924533
0.924533
0.924531
0.92453
0.924529
0.924528
0.924528
0.924526
0.924525
0.924524
0.924523
0.924523
0.924521
0.92452
0.924519
0.924518
0.924518
0.924516
0.924515
0.924514
0.924513
0.924513
0.924511
0.92451
0.924509
0.924507
0.924507
0.924506
0.924505
0.924504
0.924502
0.924502
0.924501
0.9245
0.924499
0.924497
0.924497
0.924496
0.924495
0.924493
0.924492
0.924492
0.924491
0.924489
0.924488
0.924487
0.924487
0.924486
0.924484
0.924483
0.924482
0.924482
0.92448
0.924479
0.924478
0.924476
0.924476
0.924475
0.924474
0.924473
0.924471
0.924471
0.92447
0.924469
0.924467
0.924466
0.924466
0.924465
0.924463
0.924462
0.924461
0.924461
0.924459
0.924458
0.924457
0.924455
0.924455
0.924454
0.924453
0.924451
0.92445
0.92445
0.924449
0.924447
0.924446
0.924445
0.924445
0.924443
0.924442
0.92444
0.924439
0.924439
0.924438
0.924436
0.924435
0.924434
0.924434
0.924432
0.924431
0.92443
0.924428
0.924428
0.924427
0.924425
0.924424
0.924423
0.924423
0.924421
0.92442
0.924419
0.924417
0.924417
0.924416
0.924414
0.924413
0.924412
0.924412
0.92441
0.924409
0.924407
0.924406
0.924406
0.924405
0.924403
0.924402
0.924401
0.924401
0.924399
0.924398
0.924396
0.924395
0.924395
0.924393
0.924392
0.924391
0.924389
0.924389
0.924388
0.924386
0.924385
0.924384
0.924384
0.924382
0.924381
0.924379
0.924378
0.924378
0.924376
0.924375
0.924374
0.924372
0.924372
0.924371
0.924369
0.924368
0.924366
0.924366
0.924365
0.924364
0.924362
0.924361
0.924361
0.924359
0.924358
0.924356
0.924355
0.924355
0.924353
0.924352
0.92435
0.924349
0.924349
0.924348
0.924346
0.924345
0.924343
0.924343
0.924342
0.92434
0.924339
0.924337
0.924337
0.924336
0.924334
0.924333
0.924331
0.924331
0.92433
0.924328
0.924327
0.924325
0.924325
0.924324
0.924322
0.924321
0.924319
0.924319
0.924318
0.924316
0.924315
0.924313
0.924313
0.924312
0.92431
0.924309
0.924307
0.924307
0.924306
0.924304
0.924303
0.924301
0.924301
0.9243
0.924298
0.924297
0.924295
0.924295
0.924294
0.924292
0.924291
0.924289
0.924289
0.924288
0.924286
0.924285
0.924283
0.924283
0.924281
0.92428
0.924278
0.924277
0.924277
0.924275
0.924274
0.924272
0.924271
0.924271
0.924269
0.924267
0.924266
0.924264
0.924264
0.924263
0.924261
0.924259
0.924258
0.924258
0.924256
0.924255
0.924253
0.924251
0.924251
0.92425
0.924248
0.924247
0.924245
0.924245
0.924243
0.924242
0.92424
0.924239
0.924239
0.924237
0.924235
0.924234
0.924232
0.924232
0.92423
0.924229
0.924227
0.924226
0.924226
0.924224
0.924222
0.924221
0.924219
0.924219
0.924217
0.924216
0.924214
0.924212
0.924212
0.924211
0.924209
0.924207
0.924206
0.924206
0.924204
0.924202
0.924201
0.924199
0.924199
0.924197
0.924196
0.924194
0.924192
0.924192
0.924191
0.924189
0.924187
0.924185
0.924185
0.924184
0.924182
0.92418
0.924179
0.924179
0.924177
0.924175
0.924173
0.924172
0.924172
0.92417
0.924168
0.924167
0.924165
0.924165
0.924163
0.924161
0.92416
0.924158
0.924158
0.924156
0.924154
0.924153
0.924151
0.924151
0.924149
0.924147
0.924146
0.924144
0.924144
0.924142
0.92414
0.924139
0.924137
0.924137
0.924135
0.924133
0.924132
0.92413
0.92413
0.924128
0.924126
0.924125
0.924123
0.924123
0.924121
0.924119
0.924118
0.924116
0.924116
0.924114
0.924112
0.92411
0.924109
0.924109
0.924107
0.924105
0.924103
0.924102
0.924102
0.9241
0.924098
0.924096
0.924094
0.924094
0.924093
0.924091
0.924089
0.924087
0.924087
0.924085
0.924084
0.924082
0.92408
0.92408
0.924078
0.924076
0.924074
0.924073
0.924073
0.924071
0.924069
0.924067
0.924065
0.924065
0.924064
0.924062
0.92406
0.924058
0.924058
0.924056
0.924054
0.924053
0.924051
0.924051
0.924049
0.924047
0.924045
0.924043
0.924043
0.924042
0.92404
0.924038
0.924036
0.924036
0.924034
0.924032
0.92403
0.924029
0.924029
0.924027
0.924025
0.924023
0.924021
0.924021
0.924019
0.924017
0.924016
0.924014
0.924014
0.924012
0.92401
0.924008
0.924006
0.924006
0.924004
0.924002
0.924001
0.923999
0.923999
0.923997
0.923995
0.923993
0.923991
0.923991
0.923989
0.923987
0.923985
0.923984
0.923984
0.923982
0.92398
0.923978
0.923976
0.923976
0.923974
0.923972
0.92397
0.923968
0.923968
0.923966
0.923965
0.923963
0.923961
0.923961
0.923959
0.923957
0.923955
0.923953
0.923953
0.923951
0.923949
0.923947
0.923945
0.923945
0.923943
0.923942
0.92394
0.923938
0.923938
0.923936
0.923934
0.923932
0.92393
0.92393
0.923928
0.923926
0.923924
0.923922
0.923922
0.92392
0.923918
0.923916
0.923914
0.923914
0.923912
0.92391
0.923908
0.923907
0.923907
0.923905
0.923903
0.923901
0.923899
0.923899
0.923897
0.923895
0.923893
0.923891
0.923891
0.923889
0.923887
0.923885
0.923883
0.923883
0.923881
0.923879
0.923877
0.923875
0.923875
0.923873
0.923871
0.923869
0.923867
0.923867
0.923865
0.923863
0.923861
0.923859
0.923859
0.923857
0.923855
0.923853
0.923851
0.923851
0.923849
0.923847
0.923845
0.923843
0.923843
0.923841
0.923839
0.923837
0.923835
0.923835
0.923833
0.923831
0.923829
0.923827
0.923827
0.923825
0.923823
0.923821
0.923819
0.923819
0.923817
0.923815
0.923813
0.923811
0.923811
0.923809
0.923807
0.923804
0.923802
0.923802
0.9238
0.923798
0.923796
0.923794
0.923794
0.923792
0.92379
0.923788
0.923786
0.923786
0.923784
0.923782
0.92378
0.923778
0.923778
0.923776
0.923774
0.923772
0.92377
0.92377
0.923767
0.923765
0.923763
0.923761
0.923761
0.923759
0.923757
0.923755
0.923753
0.923753
0.923751
0.923749
0.923747
0.923745
0.923745
0.923742
0.92374
0.923738
0.923736
0.923736
0.923734
0.923732
0.92373
0.923728
0.923728
0.923726
0.923724
0.923722
0.923719
0.923719
0.923717
0.923715
0.923713
0.923711
0.923711
0.923709
0.923707
0.923705
0.923703
0.923703
0.9237
0.923698
0.923696
0.923694
0.923694
0.923692
0.92369
0.923688
0.923685
0.923685
0.923683
0.923681
0.923679
0.923677
0.923677
0.923675
0.923673
0.923671
0.923668
0.923668
0.923666
0.923664
0.923662
0.92366
0.92366
0.923658
0.923655
0.923653
0.923651
0.923651
0.923649
0.923647
0.923645
0.923643
0.923643
0.92364
0.923638
0.923636
0.923634
0.923634
0.923632
0.92363
0.923627
0.923625
0.923625
0.923623
0.923621
0.923619
0.923616
0.923616
0.923614
0.923612
0.92361
0.923608
0.923608
0.923606
0.923603
0.923601
0.923599
0.923599
0.923597
0.923595
0.923592
0.92359
0.92359
0.923588
0.923586
0.923584
0.923581
0.923581
0.923579
0.923577
0.923575
0.923572
0.923572
0.92357
0.923568
0.923566
0.923564
0.923564
0.923561
0.923559
0.923557
0.923555
0.923555
0.923552
0.92355
0.923548
0.923546
0.923546
0.923544
0.923541
0.923539
0.923537
0.923537
0.923535
0.923532
0.92353
0.923528
0.923528
0.923526
0.923523
0.923521
0.923519
0.923519
0.923517
0.923514
0.923512
0.92351
0.92351
0.923508
0.923505
0.923503
0.923501
0.923501
0.923499
0.923496
0.923494
0.923492
0.923492
0.923489
0.923487
0.923485
0.923483
0.923483
0.92348
0.923478
0.923476
0.923474
0.923474
0.923471
0.923469
0.923467
0.923464
0.923464
0.923462
0.92346
0.923458
0.923455
0.923455
0.923453
0.923451
0.923448
0.923446
0.923446
0.923444
0.923441
0.923439
0.923437
0.923437
0.923435
0.923432
0.92343
0.923428
0.923428
0.923425
0.923423
0.923421
0.923418
0.923418
0.923416
0.923414
0.923411
0.923409
0.923409
0.923407
0.923404
0.923402
0.9234
0.9234
0.923397
0.923395
0.923393
0.92339
0.92339
0.923388
0.923386
0.923383
0.923381
0.923381
0.923379
0.923376
0.923374
0.923372
0.923372
0.923369
0.923367
0.923365
0.923362
0.923362
0.92336
0.923357
0.923355
0.923353
0.923353
0.92335
0.923348
0.923346
0.923343
0.923343
0.923341
0.923339
0.923336
0.923334
0.923334
0.923331
0.923329
0.923327
0.923324
0.923324
0.923322
0.92332
0.923317
0.923315
0.923315
0.923312
0.92331
0.923308
0.923305
0.923305
0.923303
0.9233
0.923298
0.923296
0.923296
0.923293
0.923291
0.923288
0.923286
0.923286
0.923284
0.923281
0.923279
0.923276
0.923276
0.923274
0.923272
0.923269
0.923267
0.923267
0.923264
0.923262
0.923259
0.923257
0.923257
0.923255
0.923252
0.92325
0.923247
0.923247
0.923245
0.923242
0.92324
0.923238
0.923238
0.923235
0.923233
0.92323
0.923228
0.923228
0.923225
0.923223
0.92322
0.923218
0.923218
0.923216
0.923213
0.923211
0.923208
0.923208
0.923206
0.923203
0.923201
0.923198
0.923198
0.923196
0.923193
0.923191
0.923188
0.923188
0.923186
0.923183
0.923181
0.923178
0.923178
0.923176
0.923173
0.923171
0.923168
0.923168
0.923166
0.923163
0.923161
0.923158
0.923158
0.923156
0.923153
0.92315
0.923148
0.923148
0.923145
0.923143
0.92314
0.923138
0.923138
0.923135
0.923133
0.92313
0.923127
0.923127
0.923125
0.923122
0.92312
0.923117
0.923117
0.923115
0.923112
0.92311
0.923107
0.923107
0.923104
0.923102
0.923099
0.923097
0.923097
0.923094
0.923091
0.923089
0.923086
0.923086
0.923084
0.923081
0.923078
0.923076
0.923076
0.923073
0.923071
0.923068
0.923065
0.923065
0.923063
0.92306
0.923057
0.923055
0.923055
0.923052
0.923049
0.923047
0.923044
0.923044
0.923041
0.923039
0.923036
0.923034
0.923034
0.923031
0.923028
0.923025
0.923023
0.923023
0.92302
0.923017
0.923015
0.923012
0.923012
0.923009
0.923007
0.923004
0.923001
0.923001
0.922999
0.922996
0.922993
0.922991
0.922991
0.922988
0.922985
0.922982
0.92298
0.92298
0.922977
0.922974
0.922972
0.922969
0.922969
0.922966
0.922963
0.922961
0.922958
0.922958
0.922955
0.922953
0.92295
0.922947
0.922947
0.922944
0.922942
0.922939
0.922936
0.922936
0.922933
0.922931
0.922928
0.922925
0.922925
0.922922
0.92292
0.922917
0.922914
0.922914
0.922912
0.922909
0.922906
0.922903
0.922903
0.922901
0.922898
0.922895
0.922892
0.922892
0.922889
0.922887
0.922884
0.922881
0.922881
0.922878
0.922876
0.922873
0.92287
0.92287
0.922867
0.922865
0.922862
0.922859
0.922859
0.922856
0.922853
0.922851
0.922848
0.922848
0.922845
0.922842
0.92284
0.922837
0.922837
0.922834
0.922831
0.922828
0.922826
0.922826
0.922823
0.92282
0.922817
0.922814
0.922814
0.922812
0.922809
0.922806
0.922803
0.922803
0.9228
0.922798
0.922795
0.922792
0.922792
0.922789
0.922786
0.922783
0.922781
0.922781
0.922778
0.922775
0.922772
0.922769
0.922769
0.922767
0.922764
0.922761
0.922758
0.922758
0.922755
0.922752
0.92275
0.922747
0.922747
0.922744
0.922741
0.922738
0.922735
0.922735
0.922733
0.92273
0.922727
0.922724
0.922724
0.922721
0.922718
0.922715
0.922713
0.922713
0.92271
0.922707
0.922704
0.922701
0.922701
0.922698
0.922695
0.922693
0.92269
0.92269
0.922687
0.922684
0.922681
0.922678
0.922678
0.922675
0.922672
0.92267
0.922667
0.922667
0.922664
0.922661
0.922658
0.922655
0.922655
0.922652
0.922649
0.922646
0.922644
0.922644
0.922641
0.922638
0.922635
0.922632
0.922632
0.922629
0.922626
0.922623
0.92262
0.92262
0.922617
0.922615
0.922612
0.922609
0.922609
0.922606
0.922603
0.9226
0.922597
0.922597
0.922594
0.922591
0.922588
0.922585
0.922585
0.922583
0.92258
0.922577
0.922574
0.922574
0.922571
0.922568
0.922565
0.922562
0.922562
0.922559
0.922556
0.922553
0.92255
0.92255
0.922547
0.922544
0.922541
0.922538
0.922538
0.922536
0.922533
0.92253
0.922527
0.922527
0.922524
0.922521
0.922518
0.922515
0.922515
0.922512
0.922509
0.922506
0.922503
0.922503
0.9225
0.922497
0.922494
0.922491
0.922491
0.922488
0.922485
0.922482
0.922479
0.922479
0.922476
0.922473
0.92247
0.922467
0.922467
0.922464
0.922461
0.922458
0.922455
0.922455
0.922452
0.922449
0.922446
0.922443
0.922443
0.92244
0.922437
0.922434
0.922431
0.922431
0.922428
0.922425
0.922422
0.922419
0.922419
0.922416
0.922413
0.92241
0.922407
0.922407
0.922404
0.922401
0.922398
0.922395
0.922395
0.922392
0.922389
0.922386
0.922383
0.922383
0.92238
0.922377
0.922374
0.922371
0.922371
0.922368
0.922365
0.922362
0.922359
0.922359
0.922356
0.922353
0.92235
0.922347
0.922347
0.922344
0.922341
0.922338
0.922335
0.922335
0.922332
0.922329
0.922326
0.922323
0.922323
0.92232
0.922316
0.922313
0.92231
0.92231
0.922307
0.922304
0.922301
0.922298
0.922298
0.922295
0.922292
0.922289
0.922286
0.922286
0.922283
0.92228
0.922277
0.922274
0.922274
0.922271
0.922267
0.922264
0.922261
0.922261
0.922258
0.922255
0.922252
0.922249
0.922249
0.922246
0.922243
0.92224
0.922237
0.922237
0.922234
0.92223
0.922227
0.922224
0.922224
0.922221
0.922218
0.922215
0.922212
0.922212
0.922209
0.922206
0.922203
0.922199
0.922199
0.922196
0.922193
0.92219
0.922187
0.922187
0.922184
0.922181
0.922178
0.922174
0.922174
0.922171
0.922168
0.922165
0.922162
0.922162
0.922159
0.922156
0.922153
0.922149
0.922149
0.922146
0.922143
0.92214
0.922137
0.922137
0.922134
0.922131
0.922127
0.922124
0.922124
0.922121
0.922118
0.922115
0.922112
0.922112
0.922108
0.922105
0.922102
0.922099
0.922099
0.922096
0.922093
0.922089
0.922086
0.922086
0.922083
0.92208
0.922077
0.922073
0.922073
0.92207
0.922067
0.922064
0.922061
0.922061
0.922057
0.922054
0.922051
0.922048
0.922048
0.922044
0.922041
0.922038
0.922035
0.922035
0.922031
0.922028
0.922025
0.922022
0.922022
0.922018
0.922015
0.922012
0.922009
0.922009
0.922005
0.922002
0.921999
0.921995
0.921995
0.921992
0.921989
0.921986
0.921982
0.921982
0.921979
0.921976
0.921973
0.921969
0.921969
0.921966
0.921963
0.921959
0.921956
0.921956
0.921953
0.921949
0.921946
0.921943
0.921943
0.92194
0.921936
0.921933
0.92193
0.92193
0.921926
0.921923
0.921919
0.921916
0.921916
0.921913
0.921909
0.921906
0.921903
0.921903
0.921899
0.921896
0.921893
0.921889
0.921889
0.921886
0.921882
0.921879
0.921876
0.921876
0.921872
0.921869
0.921866
0.921862
0.921862
0.921859
0.921855
0.921852
0.921849
0.921849
0.921845
0.921842
0.921838
0.921835
0.921835
0.921832
0.921828
0.921825
0.921821
0.921821
0.921818
0.921814
0.921811
0.921808
0.921808
0.921804
0.921801
0.921797
0.921794
0.921794
0.92179
0.921787
0.921784
0.92178
0.92178
0.921777
0.921773
0.92177
0.921766
0.921766
0.921763
0.92176
0.921756
0.921753
0.921753
0.921749
0.921746
0.921742
0.921739
0.921739
0.921735
0.921732
0.921728
0.921725
0.921725
0.921722
0.921718
0.921715
0.921711
0.921711
0.921708
0.921704
0.921701
0.921697
0.921697
0.921694
0.92169
0.921687
0.921683
0.921683
0.92168
0.921676
0.921673
0.921669
0.921669
0.921666
0.921662
0.921659
0.921656
0.921656
0.921652
0.921649
0.921645
0.921642
0.921642
0.921638
0.921635
0.921631
0.921628
0.921628
0.921624
0.921621
0.921617
0.921614
0.921614
0.92161
0.921607
0.921603
0.9216
0.9216
0.921596
0.921592
0.921589
0.921585
0.921585
0.921582
0.921578
0.921575
0.921571
0.921571
0.921568
0.921564
0.921561
0.921557
0.921557
0.921554
0.92155
0.921547
0.921543
0.921543
0.92154
0.921536
0.921533
0.921529
0.921529
0.921525
0.921522
0.921518
0.921515
0.921515
0.921511
0.921508
0.921504
0.921501
0.921501
0.921497
0.921494
0.92149
0.921486
0.921486
0.921483
0.921479
0.921476
0.921472
0.921472
0.921469
0.921465
0.921461
0.921458
0.921458
0.921454
0.921451
0.921447
0.921444
0.921444
0.92144
0.921436
0.921433
0.921429
0.921429
0.921426
0.921422
0.921419
0.921415
0.921415
0.921411
0.921408
0.921404
0.921401
0.921401
0.921397
0.921393
0.92139
0.921386
0.921386
0.921383
0.921379
0.921376
0.921372
0.921372
0.921368
0.921365
0.921361
0.921357
0.921357
0.921354
0.92135
0.921347
0.921343
0.921343
0.921339
0.921336
0.921332
0.921329
0.921329
0.921325
0.921321
0.921318
0.921314
0.921314
0.92131
0.921307
0.921303
0.9213
0.9213
0.921296
0.921292
0.921289
0.921285
0.921285
0.921281
0.921278
0.921274
0.921271
0.921271
0.921267
0.921263
0.92126
0.921256
0.921256
0.921252
0.921249
0.921245
0.921241
0.921241
0.921238
0.921234
0.92123
0.921227
0.921227
0.921223
0.921219
0.921216
0.921212
0.921212
0.921208
0.921205
0.921201
0.921197
0.921197
0.921194
0.92119
0.921186
0.921183
0.921183
0.921179
0.921175
0.921172
0.921168
0.921168
0.921164
0.921161
0.921157
0.921153
0.921153
0.92115
0.921146
0.921142
0.921139
0.921139
0.921135
0.921131
0.921128
0.921124
0.921124
0.92112
0.921116
0.921113
0.921109
0.921109
0.921105
0.921102
0.921098
0.921094
0.921094
0.921091
0.921087
0.921083
0.921079
0.921079
0.921076
0.921072
0.921068
0.921065
0.921065
0.921061
0.921057
0.921053
0.92105
0.92105
0.921046
0.921042
0.921038
0.921035
0.921035
0.921031
0.921027
0.921024
0.92102
0.92102
0.921016
0.921012
0.921009
0.921005
0.921005
0.921001
0.920997
0.920993
0.92099
0.92099
0.920986
0.920982
0.920978
0.920975
0.920975
0.920971
0.920967
0.920963
0.920959
0.920959
0.920956
0.920952
0.920948
0.920944
0.920944
0.92094
0.920936
0.920933
0.920929
0.920929
0.920925
0.920921
0.920917
0.920913
0.920913
0.92091
0.920906
0.920902
0.920898
0.920898
0.920894
0.92089
0.920886
0.920883
0.920883
0.920879
0.920875
0.920871
0.920867
0.920867
0.920863
0.920859
0.920856
0.920852
0.920852
0.920848
0.920844
0.92084
0.920836
0.920836
0.920832
0.920828
0.920825
0.920821
0.920821
0.920817
0.920813
0.920809
0.920805
0.920805
0.920801
0.920797
0.920793
0.920789
0.920789
0.920785
0.920781
0.920777
0.920774
0.920774
0.92077
0.920766
0.920762
0.920758
0.920758
0.920754
0.92075
0.920746
0.920742
0.920742
0.920738
0.920734
0.92073
0.920726
0.920726
0.920722
0.920718
0.920714
0.92071
0.92071
0.920706
0.920702
0.920698
0.920694
0.920694
0.92069
0.920686
0.920682
0.920678
0.920678
0.920674
0.92067
0.920666
0.920662
0.920662
0.920658
0.920654
0.92065
0.920646
0.920646
0.920642
0.920638
0.920634
0.92063
0.92063
0.920626
0.920622
0.920618
0.920614
0.920614
0.92061
0.920606
0.920602
0.920598
0.920598
0.920593
0.920589
0.920585
0.920581
0.920581
0.920577
0.920573
0.920569
0.920565
0.920565
0.920561
0.920557
0.920553
0.920549
0.920549
0.920545
0.920541
0.920537
0.920533
0.920533
0.920529
0.920525
0.920521
0.920517
0.920517
0.920512
0.920508
0.920504
0.9205
0.9205
0.920496
0.920492
0.920488
0.920484
0.920484
0.92048
0.920476
0.920472
0.920468
0.920468
0.920464
0.920459
0.920455
0.920451
0.920451
0.920447
0.920443
0.920439
0.920435
0.920435
0.920431
0.920427
0.920423
0.920419
0.920419
0.920414
0.92041
0.920406
0.920402
0.920402
0.920398
0.920394
0.92039
0.920386
0.920386
0.920382
0.920378
0.920373
0.920369
0.920369
0.920365
0.920361
0.920357
0.920353
0.920353
0.920349
0.920345
0.920341
0.920336
0.920336
0.920332
0.920328
0.920324
0.92032
0.92032
0.920316
0.920312
0.920307
0.920303
0.920303
0.920299
0.920295
0.920291
0.920287
0.920287
0.920283
0.920279
0.920274
0.92027
0.92027
0.920266
0.920262
0.920258
0.920254
0.920254
0.92025
0.920245
0.920241
0.920237
0.920237
0.920233
0.920229
0.920225
0.92022
0.92022
0.920216
0.920212
0.920208
0.920204
0.920204
0.9202
0.920195
0.920191
0.920187
0.920187
0.920183
0.920179
0.920175
0.92017
0.92017
0.920166
0.920162
0.920158
0.920154
0.920154
0.92015
0.920145
0.920141
0.920137
0.920137
0.920133
0.920129
0.920124
0.92012
0.92012
0.920116
0.920112
0.920108
0.920103
0.920103
0.920099
0.920095
0.920091
0.920087
0.920087
0.920082
0.920078
0.920074
0.92007
0.92007
0.920066
0.920061
0.920057
0.920053
0.920053
0.920049
0.920045
0.92004
0.920036
0.920036
0.920032
0.920028
0.920024
0.920019
0.920019
0.920015
0.920011
0.920007
0.920002
0.920002
0.919998
0.919994
0.91999
0.919985
0.919985
0.919981
0.919977
0.919973
0.919969
0.919969
0.919964
0.91996
0.919956
0.919952
0.919952
0.919947
0.919943
0.919939
0.919934
0.919934
0.91993
0.919926
0.919922
0.919917
0.919917
0.919913
0.919909
0.919905
0.9199
0.9199
0.919896
0.919892
0.919887
0.919883
0.919883
0.919879
0.919875
0.91987
0.919866
0.919866
0.919862
0.919857
0.919853
0.919849
0.919849
0.919844
0.91984
0.919836
0.919831
0.919831
0.919827
0.919823
0.919818
0.919814
0.919814
0.919809
0.919805
0.919801
0.919796
0.919796
0.919792
0.919788
0.919783
0.919779
0.919779
0.919774
0.91977
0.919766
0.919761
0.919761
0.919757
0.919752
0.919748
0.919744
0.919744
0.919739
0.919735
0.919731
0.919726
0.919726
0.919722
0.919717
0.919713
0.919709
0.919709
0.919704
0.9197
0.919695
0.919691
0.919691
0.919686
0.919682
0.919678
0.919673
0.919673
0.919669
0.919664
0.91966
0.919655
0.919655
0.919651
0.919646
0.919642
0.919637
0.919637
0.919633
0.919629
0.919624
0.91962
0.91962
0.919615
0.919611
0.919606
0.919602
0.919602
0.919597
0.919593
0.919588
0.919584
0.919584
0.919579
0.919575
0.91957
0.919566
0.919566
0.919561
0.919556
0.919552
0.919547
0.919547
0.919543
0.919538
0.919534
0.919529
0.919529
0.919525
0.91952
0.919516
0.919511
0.919511
0.919507
0.919502
0.919498
0.919493
0.919493
0.919488
0.919484
0.919479
0.919475
0.919475
0.91947
0.919466
0.919461
0.919457
0.919457
0.919452
0.919448
0.919443
0.919438
0.919438
0.919434
0.919429
0.919425
0.91942
0.91942
0.919416
0.919411
0.919406
0.919402
0.919402
0.919397
0.919393
0.919388
0.919384
0.919384
0.919379
0.919374
0.91937
0.919365
0.919365
0.919361
0.919356
0.919352
0.919347
0.919347
0.919342
0.919338
0.919333
0.919329
0.919329
0.919324
0.919319
0.919315
0.91931
0.91931
0.919306
0.919301
0.919296
0.919292
0.919292
0.919287
0.919283
0.919278
0.919273
0.919273
0.919269
0.919264
0.91926
0.919255
0.919255
0.91925
0.919246
0.919241
0.919237
0.919237
0.919232
0.919227
0.919223
0.919218
0.919218
0.919213
0.919209
0.919204
0.9192
0.9192
0.919195
0.91919
0.919186
0.919181
0.919181
0.919176
0.919172
0.919167
0.919163
0.919163
0.919158
0.919153
0.919149
0.919144
0.919144
0.919139
0.919135
0.91913
0.919125
0.919125
0.919121
0.919116
0.919111
0.919107
0.919107
0.919102
0.919098
0.919093
0.919088
0.919088
0.919084
0.919079
0.919074
0.91907
0.91907
0.919065
0.91906
0.919056
0.919051
0.919051
0.919046
0.919042
0.919037
0.919032
0.919032
0.919028
0.919023
0.919018
0.919014
0.919014
0.919009
0.919004
0.919
0.918995
0.918995
0.91899
0.918985
0.918981
0.918976
0.918976
0.918971
0.918967
0.918962
0.918957
0.918957
0.918953
0.918948
0.918943
0.918939
0.918939
0.918934
0.918929
0.918925
0.91892
0.91892
0.918915
0.91891
0.918906
0.918901
0.918901
0.918896
0.918892
0.918887
0.918882
0.918882
0.918877
0.918873
0.918868
0.918863
0.918863
0.918859
0.918854
0.918849
0.918844
0.918844
0.91884
0.918835
0.91883
0.918825
0.918825
0.918821
0.918816
0.918811
0.918806
0.918806
0.918802
0.918797
0.918792
0.918787
0.918787
0.918782
0.918778
0.918773
0.918768
0.918768
0.918763
0.918759
0.918754
0.918749
0.918749
0.918744
0.918739
0.918734
0.91873
0.91873
0.918725
0.91872
0.918715
0.91871
0.91871
0.918705
0.918701
0.918696
0.918691