<?xml version="1.0"?>
<VTKFile type="UnstructuredGrid" version="0.1" byte_order="LittleEndian">
<UnstructuredGrid>
<Piece NumberOfPoints="5000" NumberOfCells="4000">
<PointData Scalars="Reaction 0">
<DataArray type="Float32" Name="Reaction 0" format="ascii">
0.868047
0.868047
0.868047
0.868047
0.868047
0.868047
0.868047
0.868047
0.868047
0.868047
0.868047
0.868047
0.868047
0.868047
0.868047
0.868047
0.868047
0.868047
0.868047
0.868047
0.868047
0.868047
0.868047
0.868047
0.868047
0.868047
0.868047
0.868047
0.868047
0.868047
0.868047
0.868047
0.868047
0.868047
0.868046
0.868046
0.868046
0.868046
0.868046
0.868046
0.868046
0.868046
0.868046
0.868046
0.868046
0.868046
0.868046
0.868046
0.868046
0.868046
0.868046
0.868046
0.868046
0.868046
0.868046
0.868046
0.868046
0.868046
0.868046
0.868045
0.868045
0.868045
0.868045
0.868045
0.868045
0.868045
0.868045
0.868045
0.868045
0.868045
0.868045
0.868045
0.868045
0.868045
0.868045
0.868045
0.868045
0.868044
0.868044
0.868044
0.868044
0.868044
0.868044
0.868044
0.868044
0.868044
0.868044
0.868044
0.868044
0.868044
0.868044
0.868043
0.868043
0.868043
0.868043
0.868043
0.868043
0.868043
0.868043
0.868043
0.868043
0.868043
0.868043
0.868042
0.868042
0.868042
0.868042
0.868042
0.868042
0.868042
0.868042
0.868042
0.868042
0.868041
0.868041
0.868041
0.868041
0.868041
0.868041
0.868041
0.868041
0.868041
0.868041
0.86804
0.86804
0.86804
0.86804
0.86804
0.86804
0.86804
0.86804
0.86804
0.86804
0.868039
0.868039
0.868039
0.868039
0.868039
0.868039
0.868039
0.868039
0.868039
0.868038
0.868038
0.868038
0.868038
0.868038
0.868038
0.868038
0.868037
0.868037
0.868037
0.868037
0.868037
0.868037
0.868037
0.868037
0.868036
0.868036
0.868036
0.868036
0.868036
0.868036
0.868036
0.868035
0.868035
0.868035
0.868035
0.868035
0.868035
0.868035
0.868035
0.868034
0.868034
0.868034
0.868034
0.868034
0.868034
0.868033
0.868033
0.868033
0.868033
0.868033
0.868033
0.868032
0.868032
0.868032
0.868032
0.868032
0.868032
0.868032
0.868031
0.868031
0.868031
0.868031
0.868031
0.868031
0.86803
0.86803
0.86803
0.86803
0.86803
0.86803
0.868029
0.868029
0.868029
0.868029
0.868029
0.868028
0.868028
0.868028
0.868028
0.868028
0.868028
0.868027
0.868027
0.868027
0.868027
0.868027
0.868026
0.868026
0.868026
0.868026
0.868026
0.868025
0.868025
0.868025
0.868025
0.868025
0.868024
0.868024
0.868024
0.868024
0.868024
0.868023
0.868023
0.868023
0.868023
0.868023
0.868022
0.868022
0.868022
0.868022
0.868022
0.868021
0.868021
0.868021
0.868021
0.868021
0.86802
0.86802
0.86802
0.86802
0.86802
0.868019
0.868019
0.868019
0.868019
0.868019
0.868018
0.868018
0.868018
0.868018
0.868017
0.868017
0.868017
0.868017
0.868017
0.868016
0.868016
0.868016
0.868016
0.868015
0.868015
0.868015
0.868015
0.868015
0.868014
0.868014
0.868014
0.868014
0.868013
0.868013
0.868013
0.868012
0.868012
0.868012
0.868012
0.868012
0.868011
0.868011
0.868011
0.868011
0.86801
0.86801
0.86801
0.86801
0.868009
0.868009
0.868009
0.868009
0.868008
0.868008
0.868008
0.868007
0.868007
0.868007
0.868007
0.868006
0.868006
0.868006
0.868006
0.868005
0.868005
0.868005
0.868005
0.868004
0.868004
0.868004
0.868003
0.868003
0.868003
0.868003
0.868002
0.868002
0.868002
0.868002
0.868001
0.868001
0.868001
0.868001
0.868
0.868
0.868
0.867999
0.867999
0.867999
0.867999
0.867998
0.867998
0.867998
0.867998
0.867997
0.867997
0.867996
0.867996
0.867996
0.867996
0.867995
0.867995
0.867995
0.867995
0.867994
0.867994
0.867993
0.867993
0.867993
0.867993
0.867992
0.867992
0.867992
0.867992
0.867991
0.867991
0.86799
0.86799
0.86799
0.86799
0.867989
0.867989
0.867989
0.867988
0.867988
0.867988
0.867987
0.867987
0.867987
0.867986
0.867986
0.867986
0.867986
0.867985
0.867985
0.867984
0.867984
0.867984
0.867984
0.867983
0.867983
0.867982
0.867982
0.867982
0.867982
0.867981
0.867981
0.867981
0.86798
0.86798
0.86798
0.867979
0.867979
0.867979
0.867978
0.867978
0.867977
0.867977
0.867977
0.867977
0.867976
0.867976
0.867976
0.867975
0.867975
0.867974
0.867974
0.867974
0.867974
0.867973
0.867973
0.867972
0.867972
0.867972
0.867971
0.867971
0.86797
0.86797
0.86797
0.86797
0.867969
0.867969
0.867969
0.867968
0.867968
0.867967
0.867967
0.867967
0.867966
0.867966
0.867965
0.867965
0.867965
0.867964
0.867964
0.867964
0.867963
0.867963
0.867963
0.867962
0.867962
0.867961
0.867961
0.867961
0.86796
0.86796
0.867959
0.867959
0.867959
0.867958
0.867958
0.867957
0.867957
0.867957
0.867956
0.867956
0.867955
0.867955
0.867955
0.867954
0.867954
0.867953
0.867953
0.867953
0.867952
0.867952
0.867951
0.867951
0.867951
0.86795
0.86795
0.867949
0.867949
0.867949
0.867948
0.867948
0.867947
0.867947
0.867947
0.867946
0.867946
0.867945
0.867945
0.867945
0.867944
0.867944
0.867943
0.867943
0.867943
0.867942
0.867942
0.867941
0.867941
0.867941
0.86794
0.86794
0.867939
0.867939
0.867939
0.867938
0.867937
0.867937
0.867937
0.867936
0.867936
0.867935
0.867935
0.867935
0.867934
0.867934
0.867933
0.867933
0.867933
0.867932
0.867932
0.867931
0.86793
0.86793
0.86793
0.867929
0.867929
0.867928
0.867928
0.867928
0.867927
0.867927
0.867926
0.867926
0.867925
0.867925
0.867924
0.867924
0.867924
0.867923
0.867923
0.867922
0.867921
0.867921
0.867921
0.86792
0.86792
0.867919
0.867919
0.867919
0.867918
0.867917
0.867917
0.867917
0.867916
0.867916
0.867915
0.867915
0.867915
0.867914
0.867913
0.867913
0.867912
0.867912
0.867912
0.867911
0.86791
0.86791
0.86791
0.867909
0.867909
0.867908
0.867907
0.867907
0.867907
0.867906
0.867906
0.867905
0.867905
0.867904
0.867904
0.867903
0.867903
0.867903
0.867902
0.867901
0.867901
0.8679
0.8679
0.8679
0.867899
0.867898
0.867898
0.867898
0.867897
0.867896
0.867896
0.867895
0.867895
0.867895
0.867894
0.867893
0.867893
0.867893
0.867892
0.867891
0.867891
0.86789
0.86789
0.867889
0.867889
0.867888
0.867888
0.867888
0.867887
0.867886
0.867886
0.867885
0.867885
0.867884
0.867884
0.867883
0.867882
0.867882
0.867882
0.867881
0.86788
0.86788
0.86788
0.867879
0.867878
0.867878
0.867877
0.867877
0.867876
0.867876
0.867875
0.867874
0.867874
0.867874
0.867873
0.867872
0.867872
0.867872
0.867871
0.86787
0.86787
0.867869
0.867869
0.867868
0.867868
0.867867
0.867866
0.867866
0.867866
0.867865
0.867864
0.867864
0.867864
0.867863
0.867862
0.867862
0.867861
0.867861
0.86786
0.86786
0.867859
0.867858
0.867858
0.867857
0.867857
0.867856
0.867855
0.867855
0.867855
0.867854
0.867853
0.867853
0.867853
0.867852
0.867851
0.86785
0.86785
0.86785
0.867849
0.867848
0.867848
0.867847
0.867847
0.867846
0.867845
0.867845
0.867844
0.867844
0.867843
0.867843
0.867842
0.867841
0.867841
0.86784
0.86784
0.867839
0.867838
0.867838
0.867838
0.867837
0.867836
0.867835
0.867835
0.867835
0.867834
0.867833
0.867832
0.867832
0.867832
0.867831
0.86783
0.867829
0.867829
0.867829
0.867828
0.867827
0.867826
0.867826
0.867826
0.867825
0.867824
0.867823
0.867823
0.867823
0.867822
0.867821
0.86782
0.86782
0.86782
0.867819
0.867818
0.867817
0.867817
0.867817
0.867816
0.867815
0.867814
0.867814
0.867814
0.867813
0.867812
0.867811
0.867811
0.86781
0.86781
0.867809
0.867808
0.867808
0.867807
0.867807
0.867806
0.867805
0.867805
0.867804
0.867803
0.867803
0.867802
0.867802
0.867801
0.8678
0.867799
0.867799
0.867799
0.867798
0.867797
0.867796
0.867796
0.867796
0.867795
0.867794
0.867793
0.867792
0.867792
0.867792
0.867791
0.86779
0.867789
0.867789
0.867788
0.867787
0.867787
0.867786
0.867786
0.867785
0.867784
0.867783
0.867783
0.867783
0.867782
0.867781
0.86778
0.867779
0.867779
0.867779
0.867778
0.867777
0.867776
0.867776
0.867775
0.867774
0.867774
0.867773
0.867773
0.867772
0.867771
0.86777
0.867769
0.867769
0.867769
0.867768
0.867767
0.867766
0.867766
0.867765
0.867764
0.867764
0.867763
0.867763
0.867762
0.867761
0.86776
0.867759
0.867759
0.867758
0.867758
0.867757
0.867756
0.867756
0.867755
0.867754
0.867753
0.867753
0.867753
0.867752
0.867751
0.86775
0.867749
0.867749
0.867748
0.867747
0.867746
0.867746
0.867746
0.867745
0.867744
0.867743
0.867742
0.867742
0.867741
0.86774
0.86774
0.867739
0.867739
0.867738
0.867737
0.867736
0.867735
0.867735
0.867734
0.867733
0.867732
0.867732
0.867732
0.867731
0.86773
0.867729
0.867728
0.867728
0.867727
0.867726
0.867725
0.867724
0.867724
0.867724
0.867723
0.867722
0.867721
0.867721
0.86772
0.867719
0.867718
0.867717
0.867717
0.867716
0.867715
0.867715
0.867714
0.867714
0.867713
0.867712
0.867711
0.86771
0.86771
0.867709
0.867708
0.867707
0.867706
0.867706
0.867705
0.867705
0.867704
0.867703
0.867703
0.867702
0.867701
0.8677
0.867699
0.867699
0.867698
0.867697
0.867696
0.867695
0.867695
0.867694
0.867693
0.867692
0.867692
0.867692
0.867691
0.86769
0.867689
0.867688
0.867688
0.867687
0.867686
0.867685
0.867684
0.867684
0.867683
0.867682
0.867681
0.86768
0.86768
0.867679
0.867678
0.867677
0.867676
0.867676
0.867675
0.867675
0.867674
0.867673
0.867673
0.867672
0.867671
0.86767
0.867669
0.867669
0.867668
0.867667
0.867666
0.867665
0.867665
0.867664
0.867663
0.867662
0.867661
0.867661
0.86766
0.867659
0.867658
0.867657
0.867657
0.867656
0.867655
0.867654
0.867653
0.867653
0.867652
0.867651
0.86765
0.867649
0.867649
0.867648
0.867647
0.867646
0.867645
0.867645
0.867644
0.867643
0.867642
0.867641
0.867641
0.86764
0.867639
0.867638
0.867637
0.867637
0.867636
0.867635
0.867634
0.867633
0.867633
0.867632
0.867631
0.86763
0.867629
0.867629
0.867628
0.867627
0.867626
0.867625
0.867625
0.867624
0.867623
0.867622
0.867621
0.867621
0.86762
0.867619
0.867618
0.867617
0.867617
0.867616
0.867615
0.867614
0.867613
0.867613
0.867612
0.867611
0.86761
0.867609
0.867609
0.867608
0.867607
0.867606
0.867605
0.867605
0.867604
0.867603
0.867602
0.867601
0.867601
0.8676
0.867599
0.867598
0.867597
0.867597
0.867596
0.867595
0.867594
0.867592
0.867592
0.867591
0.86759
0.867589
0.867588
0.867588
0.867587
0.867586
0.867585
0.867584
0.867584
0.867583
0.867582
0.867581
0.86758
0.86758
0.867579
0.867578
0.867577
0.867576
0.867576
0.867575
0.867573
0.867572
0.867571
0.867571
0.86757
0.867569
0.867568
0.867567
0.867567
0.867566
0.867565
0.867564
0.867563
0.867563
0.867562
0.867561
0.86756
0.867558
0.867558
0.867557
0.867556
0.867555
0.867554
0.867554
0.867553
0.867552
0.867551
0.86755
0.86755
0.867549
0.867548
0.867547
0.867545
0.867545
0.867544
0.867543
0.867542
0.867541
0.867541
0.86754
0.867539
0.867538
0.867537
0.867537
0.867536
0.867534
0.867533
0.867532
0.867532
0.867531
0.86753
0.867529
0.867528
0.867528
0.867527
0.867526
0.867524
0.867523
0.867523
0.867522
0.867521
0.86752
0.867519
0.867519
0.867518
0.867517
0.867515
0.867514
0.867514
0.867513
0.867512
0.867511
0.86751
0.86751
0.867508
0.867507
0.867506
0.867505
0.867505
0.867504
0.867503
0.867501
0.8675
0.8675
0.867499
0.867498
0.867497
0.867495
0.867495
0.867494
0.867493
0.867492
0.86749
0.86749
0.867489
0.867488
0.867487
0.867486
0.867486
0.867484
0.867483
0.867482
0.867481
0.867481
0.867479
0.867478
0.867477
0.867476
0.867476
0.867474
0.867473
0.867472
0.86747
0.86747
0.867469
0.867468
0.867467
0.867465
0.867465
0.867464
0.867463
0.867461
0.86746
0.86746
0.867459
0.867457
0.867456
0.867455
0.867455
0.867453
0.867452
0.867451
0.867449
0.867449
0.867448
0.867447
0.867445
0.867444
0.867444
0.867442
0.867441
0.86744
0.867438
0.867438
0.867437
0.867436
0.867434
0.867433
0.867433
0.867432
0.86743
0.867429
0.867427
0.867427
0.867426
0.867425
0.867423
0.867422
0.867422
0.86742
0.867419
0.867418
0.867416
0.867416
0.867415
0.867414
0.867412
0.867411
0.867411
0.867409
0.867408
0.867407
0.867405
0.867405
0.867404
0.867402
0.867401
0.8674
0.8674
0.867398
0.867397
0.867395
0.867394
0.867394
0.867392
0.867391
0.86739
0.867388
0.867388
0.867387
0.867385
0.867384
0.867383
0.867383
0.867381
0.86738
0.867378
0.867377
0.867377
0.867375
0.867374
0.867373
0.867371
0.867371
0.86737
0.867368
0.867367
0.867365
0.867365
0.867364
0.867363
0.867361
0.86736
0.86736
0.867358
0.867357
0.867355
0.867354
0.867354
0.867352
0.867351
0.86735
0.867348
0.867348
0.867347
0.867345
0.867344
0.867342
0.867342
0.867341
0.867339
0.867338
0.867337
0.867337
0.867335
0.867334
0.867332
0.867331
0.867331
0.867329
0.867328
0.867326
0.867325
0.867325
0.867323
0.867322
0.86732
0.867319
0.867319
0.867317
0.867316
0.867315
0.867313
0.867313
0.867312
0.86731
0.867309
0.867307
0.867307
0.867306
0.867304
0.867303
0.867301
0.867301
0.8673
0.867298
0.867297
0.867295
0.867295
0.867294
0.867292
0.867291
0.867289
0.867289
0.867288
0.867286
0.867285
0.867283
0.867283
0.867282
0.86728
0.867279
0.867277
0.867277
0.867276
0.867274
0.867273
0.867271
0.867271
0.86727
0.867268
0.867267
0.867265
0.867265
0.867264
0.867262
0.867261
0.867259
0.867259
0.867258
0.867256
0.867255
0.867253
0.867253
0.867252
0.86725
0.867249
0.867247
0.867247
0.867246
0.867244
0.867243
0.867241
0.867241
0.867239
0.867238
0.867236
0.867235
0.867235
0.867233
0.867232
0.86723
0.867229
0.867229
0.867227
0.867226
0.867224
0.867223
0.867223
0.867221
0.86722
0.867218
0.867216
0.867216
0.867215
0.867213
0.867212
0.86721
0.86721
0.867209
0.867207
0.867206
0.867204
0.867204
0.867202
0.867201
0.867199
0.867198
0.867198
0.867196
0.867195
0.867193
0.867192
0.867192
0.86719
0.867188
0.867187
0.867185
0.867185
0.867184
0.867182
0.867181
0.867179
0.867179
0.867177
0.867176
0.867174
0.867173
0.867173
0.867171
0.86717
0.867168
0.867166
0.867166
0.867165
0.867163
0.867162
0.86716
0.86716
0.867159
0.867157
0.867155
0.867154
0.867154
0.867152
0.867151
0.867149
0.867147
0.867147
0.867146
0.867144
0.867143
0.867141
0.867141
0.867139
0.867138
0.867136
0.867135
0.867135
0.867133
0.867131
0.86713
0.867128
0.867128
0.867127
0.867125
0.867123
0.867122
0.867122
0.86712
0.867119
0.867117
0.867115
0.867115
0.867114
0.867112
0.867111
0.867109
0.867109
0.867107
0.867106
0.867104
0.867102
0.867102
0.867101
0.867099
0.867098
0.867096
0.867096
0.867094
0.867093
0.867091
0.867089
0.867089
0.867088
0.867086
0.867085
0.867083
0.867083
0.867081
0.86708
0.867078
0.867076
0.867076
0.867075
0.867073
0.867072
0.86707
0.86707
0.867068
0.867067
0.867065
0.867063
0.867063
0.867062
0.86706
0.867058
0.867057
0.867057
0.867055
0.867053
0.867052
0.86705
0.86705
0.867048
0.867047
0.867045
0.867044
0.867044
0.867042
0.86704
0.867039
0.867037
0.867037
0.867035
0.867034
0.867032
0.86703
0.86703
0.867029
0.867027
0.867025
0.867024
0.867024
0.867022
0.86702
0.867019
0.867017
0.867017
0.867015
0.867014
0.867012
0.86701
0.86701
0.867009
0.867007
0.867005
0.867004
0.867004
0.867002
0.867
0.866998
0.866997
0.866997
0.866995
0.866993
0.866992
0.86699
0.86699
0.866988
0.866987
0.866985
0.866983
0.866983
0.866982
0.86698
0.866978
0.866977
0.866977
0.866975
0.866973
0.866971
0.86697
0.86697
0.866968
0.866966
0.866965
0.866963
0.866963
0.866961
0.86696
0.866958
0.866956
0.866956
0.866954
0.866953
0.866951
0.866949
0.866949
0.866948
0.866946
0.866944
0.866942
0.866942
0.866941
0.866939
0.866937
0.866936
0.866936
0.866934
0.866932
0.86693
0.866929
0.866929
0.866927
0.866925
0.866924
0.866922
0.866922
0.86692
0.866918
0.866917
0.866915
0.866915
0.866913
0.866912
0.86691
0.866908
0.866908
0.866906
0.866905
0.866903
0.866901
0.866901
0.866899
0.866898
0.866896
0.866894
0.866894
0.866892
0.866891
0.866889
0.866887
0.866887
0.866885
0.866884
0.866882
0.86688
0.86688
0.866878
0.866877
0.866875
0.866873
0.866873
0.866872
0.86687
0.866868
0.866866
0.866866
0.866865
0.866863
0.866861
0.866859
0.866859
0.866857
0.866856
0.866854
0.866852
0.866852
0.86685
0.866849
0.866847
0.866845
0.866845
0.866843
0.866842
0.86684
0.866838
0.866838
0.866836
0.866835
0.866833
0.866831
0.866831
0.866829
0.866827
0.866826
0.866824
0.866824
0.866822
0.86682
0.866819
0.866817
0.866817
0.866815
0.866813
0.866812
0.86681
0.86681
0.866808
0.866806
0.866804
0.866803
0.866803
0.866801
0.866799
0.866797
0.866795
0.866795
0.866794
0.866792
0.86679
0.866788
0.866788
0.866787
0.866785
0.866783
0.866781
0.866781
0.866779
0.866778
0.866776
0.866774
0.866774
0.866772
0.86677
0.866769
0.866767
0.866767
0.866765
0.866763
0.866761
0.86676
0.86676
0.866758
0.866756
0.866754
0.866752
0.866752
0.866751
0.866749
0.866747
0.866745
0.866745
0.866743
0.866742
0.86674
0.866738
0.866738
0.866736
0.866734
0.866732
0.866731
0.866731
0.866729
0.866727
0.866725
0.866723
0.866723
0.866722
0.86672
0.866718
0.866716
0.866716
0.866714
0.866712
0.866711
0.866709
0.866709
0.866707
0.866705
0.866703
0.866701
0.866701
0.8667
0.866698
0.866696
0.866694
0.866694
0.866692
0.86669
0.866689
0.866687
0.866687
0.866685
0.866683
0.866681
0.866679
0.866679
0.866677
0.866676
0.866674
0.866672
0.866672
0.86667
0.866668
0.866666
0.866664
0.866664
0.866662
0.866661
0.866659
0.866657
0.866657
0.866655
0.866653
0.866651
0.866649
0.866649
0.866647
0.866645
0.866643
0.866641
0.866641
0.866639
0.866638
0.866636
0.866634
0.866634
0.866632
0.86663
0.866628
0.866626
0.866626
0.866624
0.866622
0.86662
0.866618
0.866618
0.866616
0.866614
0.866612
0.86661
0.86661
0.866608
0.866606
0.866604
0.866602
0.866602
0.8666
0.866597
0.866595
0.866593
0.866593
0.866591
0.866589
0.866587
0.866585
0.866585
0.866583
0.866581
0.866579
0.866577
0.866577
0.866575
0.866573
0.86657
0.866568
0.866568
0.866566
0.866564
0.866562
0.86656
0.86656
0.866558
0.866556
0.866553
0.866551
0.866551
0.866549
0.866547
0.866545
0.866543
0.866543
0.86654
0.866538
0.866536
0.866534
0.866534
0.866532
0.86653
0.866527
0.866525
0.866525
0.866523
0.866521
0.866519
0.866517
0.866517
0.866514
0.866512
0.86651
0.866508
0.866508
0.866506
0.866504
0.866501
0.866499
0.866499
0.866497
0.866495
0.866493
0.86649
0.86649
0.866488
0.866486
0.866484
0.866482
0.866482
0.866479
0.866477
0.866475
0.866473
0.866473
0.866471
0.866468
0.866466
0.866464
0.866464
0.866462
0.86646
0.866457
0.866455
0.866455
0.866453
0.866451
0.866449
0.866446
0.866446
0.866444
0.866442
0.86644
0.866438
0.866438
0.866435
0.866433
0.866431
0.866429
0.866429
0.866427
0.866424
0.866422
0.86642
0.86642
0.866418
0.866415
0.866413
0.866411
0.866411
0.866409
0.866407
0.866404
0.866402
0.866402
0.8664
0.866398
0.866395
0.866393
0.866393
0.866391
0.866389
0.866387
0.866384
0.866384
0.866382
0.86638
0.866378
0.866375
0.866375
0.866373
0.866371
0.866369
0.866366
0.866366
0.866364
0.866362
0.86636
0.866358
0.866358
0.866355
0.866353
0.866351
0.866349
0.866349
0.866346
0.866344
0.866342
0.86634
0.86634
0.866337
0.866335
0.866333
0.866331
0.866331
0.866328
0.866326
0.866324
0.866322
0.866322
0.866319
0.866317
0.866315
0.866313
0.866313
0.86631
0.866308
0.866306
0.866304
0.866304
0.866301
0.866299
0.866297
0.866294
0.866294
0.866292
0.86629
0.866288
0.866285
0.866285
0.866283
0.866281
0.866279
0.866276
0.866276
0.866274
0.866272
0.86627
0.866267
0.866267
0.866265
0.866263
0.86626
0.866258
0.866258
0.866256
0.866254
0.866251
0.866249
0.866249
0.866247
0.866244
0.866242
0.86624
0.86624
0.866238
0.866235
0.866233
0.866231
0.866231
0.866229
0.866226
0.866224
0.866222
0.866222
0.866219
0.866217
0.866215
0.866213
0.866213
0.86621
0.866208
0.866206
0.866203
0.866203
0.866201
0.866199
0.866196
0.866194
0.866194
0.866192
0.86619
0.866187
0.866185
0.866185
0.866183
0.86618
0.866178
0.866176
0.866176
0.866173
0.866171
0.866169
0.866167
0.866167
0.866164
0.866162
0.86616
0.866157
0.866157
0.866155
0.866153
0.86615
0.866148
0.866148
0.866146
0.866143
0.866141
0.866139
0.866139
0.866137
0.866134
0.866132
0.86613
0.86613
0.866127
0.866125
0.866123
0.86612
0.86612
0.866118
0.866116
0.866113
0.866111
0.866111
0.866109
0.866106
0.866104
0.866102
0.866102
0.866099
0.866097
0.866095
0.866092
0.866092
0.86609
0.866088
0.866085
0.866083
0.866083
0.866081
0.866078
0.866076
0.866074
0.866074
0.866071
0.866069
0.866067
0.866064
0.866064
0.866062
0.86606
0.866057
0.866055
0.866055
0.866053
0.86605
0.866048
0.866046
0.866046
0.866043
0.866041
0.866039
0.866036
0.866036
0.866034
0.866032
0.866029
0.866027
0.866027
0.866025
0.866022
0.86602
0.866018
0.866018
0.866015
0.866013
0.866011
0.866008
0.866008
0.866006
0.866004
0.866001
0.865999
0.865999
0.865997
0.865994
0.865992
0.865989
0.865989
0.865987
0.865985
0.865982
0.86598
0.86598
0.865978
0.865975
0.865973
0.865971
0.865971
0.865968
0.865966
0.865963
0.865961
0.865961
0.865959
0.865956
0.865954
0.865952
0.865952
0.865949
0.865947
0.865945
0.865942
0.865942
0.86594
0.865937
0.865935
0.865933
0.865933
0.86593
0.865928
0.865926
0.865923
0.865923
0.865921
0.865918
0.865916
0.865914
0.865914
0.865911
0.865909
0.865907
0.865904
0.865904
0.865902
0.865899
0.865897
0.865895
0.865895
0.865892
0.86589
0.865888
0.865885
0.865885
0.865883
0.86588
0.865878
0.865876
0.865876
0.865873
0.865871
0.865869
0.865866
0.865866
0.865864
0.865861
0.865859
0.865857
0.865857
0.865854
0.865852
0.865849
0.865847
0.865847
0.865845
0.865842
0.86584
0.865837
0.865837
0.865835
0.865833
0.86583
0.865828
0.865828
0.865825
0.865823
0.865821
0.865818
0.865818
0.865816
0.865813
0.865811
0.865808
0.865808
0.865806
0.865804
0.865801
0.865799
0.865799
0.865796
0.865794
0.865791
0.865789
0.865789
0.865786
0.865784
0.865781
0.865779
0.865779
0.865776
0.865774
0.865771
0.865769
0.865769
0.865766
0.865764
0.865761
0.865759
0.865759
0.865756
0.865754
0.865751
0.865749
0.865749
0.865746
0.865744
0.865741
0.865738
0.865738
0.865736
0.865733
0.865731
0.865728
0.865728
0.865725
0.865723
0.86572
0.865718
0.865718
0.865715
0.865712
0.86571
0.865707
0.865707
0.865705
0.865702
0.865699
0.865697
0.865697
0.865694
0.865691
0.865689
0.865686
0.865686
0.865683
0.865681
0.865678
0.865675
0.865675
0.865672
0.86567
0.865667
0.865664
0.865664
0.865662
0.865659
0.865656
0.865653
0.865653
0.865651
0.865648
0.865645
0.865642
0.865642
0.86564
0.865637
0.865634
0.865632
0.865632
0.865629
0.865626
0.865623
0.86562
0.86562
0.865618
0.865615
0.865612
0.865609
0.865609
0.865607
0.865604
0.865601
0.865598
0.865598
0.865596
0.865593
0.86559
0.865587
0.865587
0.865585
0.865582
0.865579
0.865576
0.865576
0.865573
0.865571
0.865568
0.865565
0.865565
0.865562
0.86556
0.865557
0.865554
0.865554
0.865551
0.865548
0.865546
0.865543
0.865543
0.86554
0.865537
0.865535
0.865532
0.865532
0.865529
0.865526
0.865523
0.865521
0.865521
0.865518
0.865515
0.865512
0.865509
0.865509
0.865507
0.865504
0.865501
0.865498
0.865498
0.865495
0.865493
0.86549
0.865487
0.865487
0.865484
0.865481
0.865479
0.865476
0.865476
0.865473
0.86547
0.865468
0.865465
0.865465
0.865462
0.865459
0.865456
0.865454
0.865454
0.865451
0.865448
0.865445
0.865442
0.865442
0.86544
0.865437
0.865434
0.865431
0.865431
0.865428
0.865425
0.865423
0.86542
0.86542
0.865417
0.865414
0.865411
0.865409
0.865409
0.865406
0.865403
0.8654
0.865397
0.865397
0.865395
0.865392
0.865389
0.865386
0.865386
0.865383
0.865381
0.865378
0.865375
0.865375
0.865372
0.865369
0.865366
0.865364
0.865364
0.865361
0.865358
0.865355
0.865352
0.865352
0.86535
0.865347
0.865344
0.865341
0.865341
0.865338
0.865335
0.865333
0.86533
0.86533
0.865327
0.865324
0.865321
0.865318
0.865318
0.865316
0.865313
0.86531
0.865307
0.865307
0.865304
0.865301
0.865299
0.865296
0.865296
0.865293
0.86529
0.865287
0.865285
0.865285
0.865282
0.865279
0.865276
0.865273
0.865273
0.86527
0.865268
0.865265
0.865262
0.865262
0.865259
0.865256
0.865253
0.86525
0.86525
0.865248
0.865245
0.865242
0.865239
0.865239
0.865236
0.865233
0.865231
0.865228
0.865228
0.865225
0.865222
0.865219
0.865216
0.865216
0.865214
0.865211
0.865208
0.865205
0.865205
0.865202
0.865199
0.865196
0.865194
0.865194
0.865191
0.865188
0.865185
0.865182
0.865182
0.865179
0.865177
0.865174
0.865171
0.865171
0.865168
0.865165
0.865162
0.865159
0.865159
0.865157
0.865154
0.865151
0.865148
0.865148
0.865145
0.865142
0.865139
0.865137
0.865137
0.865134
0.865131
0.865128
0.865125
0.865125
0.865122
0.865119
0.865117
0.865114
0.865114
0.865111
0.865108
0.865105
0.865102
0.865102
0.865099
0.865097
0.865094
0.865091
0.865091
0.865088
0.865085
0.865082
0.865079
0.865079
0.865077
0.865074
0.865071
0.865068
0.865068
0.865065
0.865062
0.865059
0.865057
0.865057
0.865054
0.865051
0.865048
0.865045
0.865045
0.865042
0.865039
0.865036
0.865034
0.865034
0.865031
0.865028
0.865025
0.865022
0.865022
0.865019
0.865016
0.865014
0.865011
0.865011
0.865008
0.865005
0.865002
0.864999
0.864999
0.864996
0.864993
0.864991
0.864988
0.864988
0.864985
0.864982
0.864979
0.864976
0.864976
0.864973
0.86497
0.864967
0.864965
0.864965
0.864962
0.864959
0.864956
0.864953
0.864953
0.86495
0.864947
0.864944
0.864941
0.864941
0.864938
0.864936
0.864933
0.86493
0.86493
0.864927
0.864924
0.864921
0.864918
0.864918
0.864915
0.864912
0.864909
0.864906
0.864906
0.864903
0.8649
0.864897
0.864894
0.864894
0.864891
0.864888
0.864885
0.864882
0.864882
0.864879
0.864876
0.864873
0.86487
0.86487
0.864867
0.864864
0.864861
0.864858
0.864858
0.864855
0.864852
0.864849
0.864846
0.864846
0.864843
0.86484
0.864837
0.864834
0.864834
0.86483
0.864827
0.864824
0.864821
0.864821
0.864818
0.864815
0.864812
0.864809
0.864809
0.864806
0.864802
0.864799
0.864796
0.864796
0.864793
0.86479
0.864787
0.864783
0.864783
0.86478
0.864777
0.864774
0.864771
0.864771
0.864767
0.864764
0.864761
0.864758
0.864758
0.864755
0.864751
0.864748
0.864745
0.864745
0.864742
0.864738
0.864735
0.864732
0.864732
0.864729
0.864725
0.864722
0.864719
0.864719
0.864716
0.864712
0.864709
0.864706
0.864706
0.864703
0.864699
0.864696
0.864693
0.864693
0.86469
0.864686
0.864683
0.86468
0.86468
0.864677
0.864673
0.86467
0.864667
0.864667
0.864664
0.86466
0.864657
0.864654
0.864654
0.86465
0.864647
0.864644
0.864641
0.864641
0.864637
0.864634
0.864631
0.864628
0.864628
0.864624
0.864621
0.864618
0.864615
0.864615
0.864611
0.864608
0.864605
0.864601
0.864601
0.864598
0.864595
0.864592
0.864588
0.864588
0.864585
0.864582
0.864579
0.864575
0.864575
0.864572
0.864569
0.864565
0.864562
0.864562
0.864559
0.864556
0.864552
0.864549
0.864549
0.864546
0.864542
0.864539
0.864536
0.864536
0.864533
0.864529
0.864526
0.864523
0.864523
0.864519
0.864516
0.864513
0.86451
0.86451
0.864506
0.864503
0.8645
0.864497
0.864497
0.864493
0.86449
0.864487
0.864483
0.864483
0.86448
0.864477
0.864474
0.86447
0.86447
0.864467
0.864464
0.86446
0.864457
0.864457
0.864454
0.864451
0.864447
0.864444
0.864444
0.864441
0.864437
0.864434
0.864431
0.864431
0.864427
0.864424
0.864421
0.864418
0.864418
0.864414
0.864411
0.864408
0.864404
0.864404
0.864401
0.864398
0.864395
0.864391
0.864391
0.864388
0.864385
0.864381
0.864378
0.864378
0.864375
0.864372
0.864368
0.864365
0.864365
0.864362
0.864358
0.864355
0.864352
0.864352
0.864348
0.864345
0.864342
0.864339
0.864339
0.864335
0.864332
0.864329
0.864325
0.864325
0.864322
0.864319
0.864316
0.864312
0.864312
0.864309
0.864306
0.864302
0.864299
0.864299
0.864296
0.864292
0.864289
0.864286
0.864286
0.864283
0.864279
0.864276
0.864273
0.864273
0.864269
0.864266
0.864263
0.864259
0.864259
0.864256
0.864253
0.86425
0.864246
0.864246
0.864243
0.86424
0.864236
0.864233
0.864233
0.86423
0.864226
0.864223
0.86422
0.86422
0.864216
0.864213
0.86421
0.864207
0.864207
0.864203
0.8642
0.864197
0.864193
0.864193
0.86419
0.864187
0.864183
0.86418
0.86418
0.864177
0.864174
0.86417
0.864167
0.864167
0.864164
0.86416
0.864157
0.864154
0.864154
0.86415
0.864147
0.864144
0.86414
0.86414
0.864137
0.864134
0.864131
0.864127
0.864127
0.864124
0.864121
0.864117
0.864114
0.864114
0.864111
0.864107
0.864104
0.864101
0.864101
0.864097
0.864094
0.864091
0.864087
0.864087
0.864084
0.864081
0.864077
0.864074
0.864074
0.864071
0.864067
0.864064
0.864061
0.864061
0.864057
0.864054
0.864051
0.864047
0.864047
0.864044
0.864041
0.864037
0.864034
0.864034
0.86403
0.864027
0.864024
0.86402
0.86402
0.864017
0.864013
0.86401
0.864007
0.864007
0.864003
0.864
0.863996
0.863993
0.863993
0.863989
0.863986
0.863982
0.863979
0.863979
0.863975
0.863972
0.863968
0.863965
0.863965
0.863961
0.863958
0.863954
0.863951
0.863951
0.863947
0.863944
0.86394
0.863937
0.863937
0.863933
0.86393
0.863926
0.863923
0.863923
0.863919
0.863916
0.863912
0.863909
0.863909
0.863905
0.863901
0.863898
0.863894
0.863894
0.863891
0.863887
0.863883
0.86388
0.86388
0.863876
0.863872
0.863869
0.863865
0.863865
0.863862
0.863858
0.863854
0.863851
0.863851
0.863847
0.863843
0.86384
0.863836
0.863836
0.863832
0.863829
0.863825
0.863821
0.863821
0.863817
0.863814
0.86381
0.863806
0.863806
0.863803
0.863799
0.863795
0.863792
0.863792
0.863788
0.863784
0.863781
0.863777
0.863777
0.863773
0.86377
0.863766
0.863762
0.863762
0.863758
0.863755
0.863751
0.863747
0.863747
0.863744
0.86374
0.863736
0.863733
0.863733
0.863729
0.863725
0.863721
0.863718
0.863718
0.863714
0.86371
0.863707
0.863703
0.863703
0.863699
0.863696
0.863692
0.863688
0.863688
0.863684
0.863681
0.863677
0.863673
0.863673
0.86367
0.863666
0.863662
0.863659
0.863659
0.863655
0.863651
0.863647
0.863644
0.863644
0.86364
0.863636
0.863633
0.863629
0.863629
0.863625
0.863621
0.863618
0.863614
0.863614
0.86361
0.863607
0.863603
0.863599
0.863599
0.863596
0.863592
0.863588
0.863584
0.863584
0.863581
0.863577
0.863573
0.86357
0.86357
0.863566
0.863562
0.863559
0.863555
0.863555
0.863551
0.863547
0.863544
0.86354
0.86354
0.863536
0.863533
0.863529
0.863525
0.863525
0.863521
0.863518
0.863514
0.86351
0.86351
0.863507
0.863503
0.863499
0.863496
0.863496
0.863492
0.863488
0.863484
0.863481
0.863481
0.863477
0.863473
0.86347
0.863466
0.863466
0.863462
0.863458
0.863455
0.863451
0.863451
0.863447
0.863444
0.86344
0.863436
0.863436
0.863433
0.863429
0.863425
0.863421
0.863421
0.863418
0.863414
0.86341
0.863407
0.863407
0.863403
0.863399
0.863395
0.863392
0.863392
0.863388
0.863384
0.863381
0.863377
0.863377
0.863373
0.86337
0.863366
0.863362
0.863362
0.863358
0.863355
0.863351
0.863347
0.863347
0.863344
0.86334
0.863336
0.863332
0.863332
0.863329
0.863325
0.863321
0.863318
0.863318
0.863314
0.86331
0.863307
0.863303
0.863303
0.863299
0.863295
0.863292
0.863288
0.863288
0.863284
0.863281
0.863277
0.863273
0.863273
0.863269
0.863266
0.863262
0.863258
0.863258
0.863255
0.863251
0.863247
0.863243
0.863243
0.86324
0.863236
0.863232
0.863229
0.863229
0.863225
0.863221
0.863217
0.863214
0.863214
0.86321
0.863206
0.863203
0.863199
0.863199
0.863195
0.863191
0.863188
0.863184
0.863184
0.86318
0.863176
0.863173
0.863169
0.863169
0.863165
0.863161
0.863158
0.863154
0.863154
0.86315
0.863146
0.863142
0.863139
0.863139
0.863135
0.863131
0.863127
0.863123
0.863123
0.863119
0.863116
0.863112
0.863108
0.863108
0.863104
0.8631
0.863096