<?xml version="1.0"?>
<VTKFile type="UnstructuredGrid" version="0.1" byte_order="LittleEndian">
<UnstructuredGrid>
<Piece NumberOfPoints="5000" NumberOfCells="4000">
<PointData Scalars="Reaction 0">
<DataArray type="Float32" Name="Reaction 0" format="ascii">
0.366917
0.366917
0.366917
0.366917
0.366918
0.366918
0.366918
0.366918
0.366918
0.366918
0.366918
0.366918
0.366919
0.366919
0.366919
0.366919
0.36692
0.36692
0.366921
0.366921
0.366921
0.366921
0.366922
0.366923
0.366923
0.366923
0.366924
0.366924
0.366925
0.366926
0.366926
0.366926
0.366927
0.366928
0.366929
0.366929
0.36693
0.36693
0.366931
0.366932
0.366932
0.366933
0.366934
0.366935
0.366936
0.366936
0.366937
0.366938
0.36694
0.366941
0.366941
0.366942
0.366943
0.366944
0.366946
0.366946
0.366947
0.366948
0.36695
0.366951
0.366951
0.366952
0.366954
0.366955
0.366957
0.366957
0.366958
0.36696
0.366962
0.366963
0.366963
0.366965
0.366966
0.366968
0.36697
0.36697
0.366972
0.366974
0.366975
0.366977
0.366977
0.366979
0.366981
0.366983
0.366985
0.366985
0.366987
0.366989
0.366991
0.366993
0.366993
0.366995
0.366997
0.367
0.367002
0.367002
0.367004
0.367006
0.367009
0.367011
0.367011
0.367013
0.367016
0.367018
0.367021
0.367021
0.367023
0.367026
0.367028
0.367031
0.367031
0.367033
0.367036
0.367038
0.367041
0.367041
0.367044
0.367047
0.367049
0.367052
0.367052
0.367055
0.367058
0.367061
0.367064
0.367064
0.367067
0.36707
0.367073
0.367076
0.367076
0.367079
0.367082
0.367085
0.367088
0.367088
0.367091
0.367094
0.367098
0.367101
0.367101
0.367104
0.367107
0.367111
0.367114
0.367114
0.367118
0.367121
0.367125
0.367128
0.367128
0.367132
0.367135
0.367139
0.367142
0.367142
0.367146
0.36715
0.367153
0.367157
0.367157
0.367161
0.367165
0.367168
0.367172
0.367172
0.367176
0.36718
0.367184
0.367188
0.367188
0.367192
0.367196
0.3672
0.367204
0.367204
0.367208
0.367212
0.367217
0.367221
0.367221
0.367225
0.367229
0.367233
0.367238
0.367238
0.367242
0.367247
0.367251
0.367255
0.367255
0.36726
0.367264
0.367269
0.367273
0.367273
0.367278
0.367283
0.367287
0.367292
0.367292
0.367297
0.367301
0.367306
0.367311
0.367311
0.367316
0.367321
0.367325
0.36733
0.36733
0.367335
0.36734
0.367345
0.36735
0.36735
0.367355
0.36736
0.367365
0.367371
0.367371
0.367376
0.367381
0.367386
0.367391
0.367391
0.367397
0.367402
0.367407
0.367413
0.367413
0.367418
0.367424
0.367429
0.367434
0.367434
0.36744
0.367446
0.367451
0.367457
0.367457
0.367462
0.367468
0.367474
0.367479
0.367479
0.367485
0.367491
0.367497
0.367503
0.367503
0.367508
0.367514
0.36752
0.367526
0.367526
0.367532
0.367538
0.367544
0.36755
0.36755
0.367556
0.367563
0.367569
0.367575
0.367575
0.367581
0.367587
0.367594
0.3676
0.3676
0.367606
0.367613
0.367619
0.367625
0.367625
0.367632
0.367638
0.367645
0.367651
0.367651
0.367658
0.367665
0.367671
0.367678
0.367678
0.367685
0.367691
0.367698
0.367705
0.367705
0.367712
0.367718
0.367725
0.367732
0.367732
0.367739
0.367746
0.367753
0.36776
0.36776
0.367767
0.367774
0.367781
0.367788
0.367788
0.367796
0.367803
0.36781
0.367817
0.367817
0.367824
0.367832
0.367839
0.367846
0.367846
0.367854
0.367861
0.367869
0.367876
0.367876
0.367884
0.367891
0.367899
0.367906
0.367906
0.367914
0.367922
0.367929
0.367937
0.367937
0.367945
0.367952
0.36796
0.367968
0.367968
0.367976
0.367984
0.367992
0.368
0.368
0.368008
0.368016
0.368024
0.368032
0.368032
0.36804
0.368048
0.368056
0.368064
0.368064
0.368073
0.368081
0.368089
0.368097
0.368097
0.368106
0.368114
0.368122
0.368131
0.368131
0.368139
0.368148
0.368156
0.368165
0.368165
0.368173
0.368182
0.36819
0.368199
0.368199
0.368208
0.368216
0.368225
0.368234
0.368234
0.368243
0.368252
0.36826
0.368269
0.368269
0.368278
0.368287
0.368296
0.368305
0.368305
0.368314
0.368323
0.368332
0.368341
0.368341
0.368351
0.36836
0.368369
0.368378
0.368378
0.368387
0.368397
0.368406
0.368415
0.368415
0.368425
0.368434
0.368444
0.368453
0.368453
0.368462
0.368472
0.368482
0.368491
0.368491
0.368501
0.36851
0.36852
0.36853
0.36853
0.368539
0.368549
0.368559
0.368569
0.368569
0.368579
0.368588
0.368598
0.368608
0.368608
0.368618
0.368628
0.368638
0.368648
0.368648
0.368658
0.368669
0.368679
0.368689
0.368689
0.368699
0.368709
0.368719
0.36873
0.36873
0.36874
0.36875
0.368761
0.368771
0.368771
0.368782
0.368792
0.368803
0.368813
0.368813
0.368824
0.368834
0.368845
0.368855
0.368855
0.368866
0.368877
0.368887
0.368898
0.368898
0.368909
0.36892
0.368931
0.368941
0.368941
0.368952
0.368963
0.368974
0.368985
0.368985
0.368996
0.369007
0.369018
0.369029
0.369029
0.369041
0.369052
0.369063
0.369074
0.369074
0.369085
0.369097
0.369108
0.369119
0.369119
0.369131
0.369142
0.369153
0.369165
0.369165
0.369176
0.369188
0.369199
0.369211
0.369211
0.369222
0.369234
0.369246
0.369257
0.369257
0.369269
0.369281
0.369293
0.369304
0.369304
0.369316
0.369328
0.36934
0.369352
0.369352
0.369364
0.369376
0.369388
0.3694
0.3694
0.369412
0.369424
0.369436
0.369448
0.369448
0.36946
0.369473
0.369485
0.369497
0.369497
0.369509
0.369522
0.369534
0.369546
0.369546
0.369559
0.369571
0.369584
0.369596
0.369596
0.369609
0.369621
0.369634
0.369647
0.369647
0.369659
0.369672
0.369685
0.369697
0.369697
0.36971
0.369723
0.369736
0.369749
0.369749
0.369761
0.369774
0.369787
0.3698
0.3698
0.369813
0.369826
0.369839
0.369852
0.369852
0.369865
0.369879
0.369892
0.369905
0.369905
0.369918
0.369931
0.369945
0.369958
0.369958
0.369971
0.369985
0.369998
0.370012
0.370012
0.370025
0.370038
0.370052
0.370066
0.370066
0.370079
0.370093
0.370106
0.37012
0.37012
0.370134
0.370147
0.370161
0.370175
0.370175
0.370189
0.370203
0.370216
0.37023
0.37023
0.370244
0.370258
0.370272
0.370286
0.370286
0.3703
0.370314
0.370328
0.370343
0.370343
0.370357
0.370371
0.370385
0.370399
0.370399
0.370414
0.370428
0.370442
0.370457
0.370457
0.370471
0.370485
0.3705
0.370514
0.370514
0.370529
0.370543
0.370558
0.370573
0.370573
0.370587
0.370602
0.370616
0.370631
0.370631
0.370646
0.370661
0.370676
0.37069
0.37069
0.370705
0.37072
0.370735
0.37075
0.37075
0.370765
0.37078
0.370795
0.37081
0.37081
0.370825
0.37084
0.370855
0.370871
0.370871
0.370886
0.370901
0.370916
0.370932
0.370932
0.370947
0.370962
0.370978
0.370993
0.370993
0.371008
0.371024
0.371039
0.371055
0.371055
0.37107
0.371086
0.371102
0.371117
0.371117
0.371133
0.371149
0.371164
0.37118
0.37118
0.371196
0.371212
0.371228
0.371243
0.371243
0.371259
0.371275
0.371291
0.371307
0.371307
0.371323
0.371339
0.371355
0.371371
0.371371
0.371388
0.371404
0.37142
0.371436
0.371436
0.371452
0.371469
0.371485
0.371501
0.371501
0.371518
0.371534
0.371551
0.371567
0.371567
0.371583
0.3716
0.371617
0.371633
0.371633
0.37165
0.371666
0.371683
0.3717
0.3717
0.371716
0.371733
0.37175
0.371767
0.371767
0.371784
0.3718
0.371817
0.371834
0.371834
0.371851
0.371868
0.371885
0.371902
0.371902
0.371919
0.371936
0.371953
0.371971
0.371971
0.371988
0.372005
0.372022
0.37204
0.37204
0.372057
0.372074
0.372091
0.372109
0.372109
0.372126
0.372144
0.372161
0.372179
0.372179
0.372196
0.372214
0.372231
0.372249
0.372249
0.372267
0.372284
0.372302
0.37232
0.37232
0.372338
0.372355
0.372373
0.372391
0.372391
0.372409
0.372427
0.372445
0.372463
0.372463
0.372481
0.372499
0.372517
0.372535
0.372535
0.372553
0.372571
0.372589
0.372607
0.372607
0.372626
0.372644
0.372662
0.37268
0.37268
0.372699
0.372717
0.372736
0.372754
0.372754
0.372772
0.372791
0.372809
0.372828
0.372828
0.372847
0.372865
0.372884
0.372902
0.372902
0.372921
0.37294
0.372959
0.372977
0.372977
0.372996
0.373015
0.373034
0.373053
0.373053
0.373072
0.373091
0.37311
0.373129
0.373129
0.373148
0.373167
0.373186
0.373205
0.373205
0.373224
0.373243
0.373263
0.373282
0.373282
0.373301
0.37332
0.37334
0.373359
0.373359
0.373378
0.373398
0.373417
0.373437
0.373437
0.373456
0.373476
0.373495
0.373515
0.373515
0.373535
0.373554
0.373574
0.373594
0.373594
0.373613
0.373633
0.373653
0.373673
0.373673
0.373693
0.373712
0.373732
0.373752
0.373752
0.373772
0.373792
0.373812
0.373832
0.373832
0.373852
0.373872
0.373893
0.373913
0.373913
0.373933
0.373953
0.373973
0.373994
0.373994
0.374014
0.374034
0.374055
0.374075
0.374075
0.374096
0.374116
0.374137
0.374157
0.374157
0.374178
0.374198
0.374219
0.374239
0.374239
0.37426
0.374281
0.374301
0.374322
0.374322
0.374343
0.374364
0.374385
0.374405
0.374405
0.374426
0.374447
0.374468
0.374489
0.374489
0.37451
0.374531
0.374552
0.374573
0.374573
0.374595
0.374616
0.374637
0.374658
0.374658
0.374679
0.374701
0.374722
0.374743
0.374743
0.374765
0.374786
0.374807
0.374829
0.374829
0.37485
0.374872
0.374893
0.374915
0.374915
0.374936
0.374958
0.37498
0.375001
0.375001
0.375023
0.375045
0.375067
0.375088
0.375088
0.37511
0.375132
0.375154
0.375176
0.375176
0.375198
0.37522
0.375242
0.375264
0.375264
0.375286
0.375308
0.37533
0.375352
0.375352
0.375374
0.375396
0.375419
0.375441
0.375441
0.375463
0.375485
0.375508
0.37553
0.37553
0.375553
0.375575
0.375597
0.37562
0.37562
0.375642
0.375665
0.375688
0.37571
0.37571
0.375733
0.375755
0.375778
0.375801
0.375801
0.375824
0.375846
0.375869
0.375892
0.375892
0.375915
0.375938
0.375961
0.375984
0.375984
0.376007
0.37603
0.376053
0.376076
0.376076
0.376099
0.376122
0.376145
0.376168
0.376168
0.376191
0.376215
0.376238
0.376261
0.376261
0.376284
0.376308
0.376331
0.376355
0.376355
0.376378
0.376401
0.376425
0.376448
0.376448
0.376472
0.376496
0.376519
0.376543
0.376543
0.376566
0.37659
0.376614
0.376638
0.376638
0.376661
0.376685
0.376709
0.376733
0.376733
0.376757
0.376781
0.376805
0.376829
0.376829
0.376853
0.376877
0.376901
0.376925
0.376925
0.376949
0.376973
0.376997
0.377022
0.377022
0.377046
0.37707
0.377094
0.377119
0.377119
0.377143
0.377167
0.377192
0.377216
0.377216
0.377241
0.377265
0.37729
0.377314
0.377314
0.377339
0.377364
0.377388
0.377413
0.377413
0.377438
0.377462
0.377487
0.377512
0.377512
0.377537
0.377562
0.377586
0.377611
0.377611
0.377636
0.377661
0.377686
0.377711
0.377711
0.377736
0.377761
0.377786
0.377812
0.377812
0.377837
0.377862
0.377887
0.377912
0.377912
0.377938
0.377963
0.377988
0.378014
0.378014
0.378039
0.378064
0.37809
0.378115
0.378115
0.378141
0.378166
0.378192
0.378218
0.378218
0.378243
0.378269
0.378295
0.37832
0.37832
0.378346
0.378372
0.378398
0.378423
0.378423
0.378449
0.378475
0.378501
0.378527
0.378527
0.378553
0.378579
0.378605
0.378631
0.378631
0.378657
0.378683
0.378709
0.378736
0.378736
0.378762
0.378788
0.378814
0.37884
0.37884
0.378867
0.378893
0.378919
0.378946
0.378946
0.378972
0.378999
0.379025
0.379052
0.379052
0.379078
0.379105
0.379131
0.379158
0.379158
0.379185
0.379211
0.379238
0.379265
0.379265
0.379292
0.379318
0.379345
0.379372
0.379372
0.379399
0.379426
0.379453
0.37948
0.37948
0.379507
0.379534
0.379561
0.379588
0.379588
0.379615
0.379642
0.37967
0.379697
0.379697
0.379724
0.379751
0.379778
0.379806
0.379806
0.379833
0.379861
0.379888
0.379915
0.379915
0.379943
0.37997
0.379998
0.380025
0.380025
0.380053
0.380081
0.380108
0.380136
0.380136
0.380164
0.380191
0.380219
0.380247
0.380247
0.380275
0.380302
0.38033
0.380358
0.380358
0.380386
0.380414
0.380442
0.38047
0.38047
0.380498
0.380526
0.380554
0.380582
0.380582
0.38061
0.380639
0.380667
0.380695
0.380695
0.380723
0.380752
0.38078
0.380808
0.380808
0.380837
0.380865
0.380894
0.380922
0.380922
0.380951
0.380979
0.381008
0.381036
0.381036
0.381065
0.381093
0.381122
0.381151
0.381151
0.381179
0.381208
0.381237
0.381266
0.381266
0.381295
0.381324
0.381352
0.381381
0.381381
0.38141
0.381439
0.381468
0.381497
0.381497
0.381526
0.381555
0.381585
0.381614
0.381614
0.381643
0.381672
0.381701
0.381731
0.381731
0.38176
0.381789
0.381819
0.381848
0.381848
0.381877
0.381907
0.381936
0.381966
0.381966
0.381995
0.382025
0.382054
0.382084
0.382084
0.382114
0.382143
0.382173
0.382203
0.382203
0.382233
0.382262
0.382292
0.382322
0.382322
0.382352
0.382382
0.382412
0.382442
0.382442
0.382472
0.382502
0.382532
0.382562
0.382562
0.382592
0.382622
0.382652
0.382682
0.382682
0.382712
0.382743
0.382773
0.382803
0.382803
0.382834
0.382864
0.382894
0.382925
0.382925
0.382955
0.382986
0.383016
0.383047
0.383047
0.383077
0.383108
0.383138
0.383169
0.383169
0.3832
0.38323
0.383261
0.383292
0.383292
0.383323
0.383353
0.383384
0.383415
0.383415
0.383446
0.383477
0.383508
0.383539
0.383539
0.38357
0.383601
0.383632
0.383663
0.383663
0.383694
0.383725
0.383756
0.383788
0.383788
0.383819
0.38385
0.383881
0.383913
0.383913
0.383944
0.383976
0.384007
0.384038
0.384038
0.38407
0.384101
0.384133
0.384164
0.384164
0.384196
0.384228
0.384259
0.384291
0.384291
0.384323
0.384354
0.384386
0.384418
0.384418
0.38445
0.384481
0.384513
0.384545
0.384545
0.384577
0.384609
0.384641
0.384673
0.384673
0.384705
0.384737
0.384769
0.384801
0.384801
0.384834
0.384866
0.384898
0.38493
0.38493
0.384962
0.384995
0.385027
0.385059
0.385059
0.385092
0.385124
0.385157
0.385189
0.385189
0.385222
0.385254
0.385287
0.385319
0.385319
0.385352
0.385384
0.385417
0.38545
0.38545
0.385482
0.385515
0.385548
0.385581
0.385581
0.385614
0.385646
0.385679
0.385712
0.385712
0.385745
0.385778
0.385811
0.385844
0.385844
0.385877
0.38591
0.385943
0.385977
0.385977
0.38601
0.386043
0.386076
0.386109
0.386109
0.386143
0.386176
0.386209
0.386243
0.386243
0.386276
0.38631
0.386343
0.386377
0.386377
0.38641
0.386444
0.386477
0.386511
0.386511
0.386544
0.386578
0.386612
0.386645
0.386645
0.386679
0.386713
0.386747
0.386781
0.386781
0.386814
0.386848
0.386882
0.386916
0.386916
0.38695
0.386984
0.387018
0.387052
0.387052
0.387086
0.38712
0.387154
0.387189
0.387189
0.387223
0.387257
0.387291
0.387326
0.387326
0.38736
0.387394
0.387429
0.387463
0.387463
0.387497
0.387532
0.387566
0.387601
0.387601
0.387635
0.38767
0.387705
0.387739
0.387739
0.387774
0.387808
0.387843
0.387878
0.387878
0.387913
0.387947
0.387982
0.388017
0.388017
0.388052
0.388087
0.388122
0.388157
0.388157
0.388192
0.388227
0.388262
0.388297
0.388297
0.388332
0.388367
0.388402
0.388437
0.388437
0.388473
0.388508
0.388543
0.388578
0.388578
0.388614
0.388649
0.388685
0.38872
0.38872
0.388755
0.388791
0.388826
0.388862
0.388862
0.388897
0.388933
0.388969
0.389004
0.389004
0.38904
0.389076
0.389111
0.389147
0.389147
0.389183
0.389219
0.389255
0.38929
0.38929
0.389326
0.389362
0.389398
0.389434
0.389434
0.38947
0.389506
0.389542
0.389578
0.389578
0.389614
0.389651
0.389687
0.389723
0.389723
0.389759
0.389795
0.389832
0.389868
0.389868
0.389904
0.389941
0.389977
0.390014
0.390014
0.39005
0.390087
0.390123
0.39016
0.39016
0.390196
0.390233
0.390269
0.390306
0.390306
0.390343
0.390379
0.390416
0.390453
0.390453
0.39049
0.390527
0.390563
0.3906
0.3906
0.390637
0.390674
0.390711
0.390748
0.390748
0.390785
0.390822
0.390859
0.390896
0.390896
0.390933
0.390971
0.391008
0.391045
0.391045
0.391082
0.39112
0.391157
0.391194
0.391194
0.391232
0.391269
0.391306
0.391344
0.391344
0.391381
0.391419
0.391456
0.391494
0.391494
0.391531
0.391569
0.391607
0.391644
0.391644
0.391682
0.39172
0.391758
0.391795
0.391795
0.391833
0.391871
0.391909
0.391947
0.391947
0.391985
0.392023
0.392061
0.392099
0.392099
0.392137
0.392175
0.392213
0.392251
0.392251
0.392289
0.392327
0.392365
0.392404
0.392404
0.392442
0.39248
0.392518
0.392557
0.392557
0.392595
0.392634
0.392672
0.39271
0.39271
0.392749
0.392787
0.392826
0.392865
0.392865
0.392903
0.392942
0.39298
0.393019
0.393019
0.393058
0.393097
0.393135
0.393174
0.393174
0.393213
0.393252
0.393291
0.39333
0.39333
0.393369
0.393408
0.393447
0.393486
0.393486
0.393525
0.393564
0.393603
0.393642
0.393642
0.393681
0.39372
0.393759
0.393799
0.393799
0.393838
0.393877
0.393917
0.393956
0.393956
0.393995
0.394035
0.394074
0.394114
0.394114
0.394153
0.394193
0.394232
0.394272
0.394272
0.394311
0.394351
0.394391
0.39443
0.39443
0.39447
0.39451
0.39455
0.394589
0.394589
0.394629
0.394669
0.394709
0.394749
0.394749
0.394789
0.394829
0.394869
0.394909
0.394909
0.394949
0.394989
0.395029
0.395069
0.395069
0.395109
0.39515
0.39519
0.39523
0.39523
0.39527
0.395311
0.395351
0.395391
0.395391
0.395432
0.395472
0.395513
0.395553
0.395553
0.395594
0.395634
0.395675
0.395715
0.395715
0.395756
0.395797
0.395837
0.395878
0.395878
0.395919
0.395959
0.396
0.396041
0.396041
0.396082
0.396123
0.396164
0.396205
0.396205
0.396246
0.396287
0.396328
0.396369
0.396369
0.39641
0.396451
0.396492
0.396533
0.396533
0.396574
0.396615
0.396657
0.396698
0.396698
0.396739
0.39678
0.396822
0.396863
0.396863
0.396905
0.396946
0.396987
0.397029
0.397029
0.39707
0.397112
0.397154
0.397195
0.397195
0.397237
0.397278
0.39732
0.397362
0.397362
0.397404
0.397445
0.397487
0.397529
0.397529
0.397571
0.397613
0.397655
0.397696
0.397696
0.397738
0.39778
0.397822
0.397864
0.397864
0.397907
0.397949
0.397991
0.398033
0.398033
0.398075
0.398117
0.39816
0.398202
0.398202
0.398244
0.398286
0.398329
0.398371
0.398371
0.398414
0.398456
0.398498
0.398541
0.398541
0.398583
0.398626
0.398669
0.398711
0.398711
0.398754
0.398796
0.398839
0.398882
0.398882
0.398925
0.398967
0.39901
0.399053
0.399053
0.399096
0.399139
0.399182
0.399224
0.399224
0.399267
0.39931
0.399353
0.399396
0.399396
0.39944
0.399483
0.399526
0.399569
0.399569
0.399612
0.399655
0.399699
0.399742
0.399742
0.399785
0.399828
0.399872
0.399915
0.399915
0.399959
0.400002
0.400045
0.400089
0.400089
0.400132
0.400176
0.40022
0.400263
0.400263
0.400307
0.40035
0.400394
0.400438
0.400438
0.400482
0.400525
0.400569
0.400613
0.400613
0.400657
0.400701
0.400745
0.400789
0.400789
0.400832
0.400876
0.40092
0.400965
0.400965
0.401009
0.401053
0.401097
0.401141
0.401141
0.401185
0.401229
0.401274
0.401318
0.401318
0.401362
0.401406
0.401451
0.401495
0.401495
0.40154
0.401584
0.401628
0.401673
0.401673
0.401717
0.401762
0.401807
0.401851
0.401851
0.401896
0.40194
0.401985
0.40203
0.40203
0.402075
0.402119
0.402164
0.402209
0.402209
0.402254
0.402299
0.402344
0.402389
0.402389
0.402433
0.402478
0.402523
0.402569
0.402569
0.402614
0.402659
0.402704
0.402749
0.402749
0.402794
0.402839
0.402885
0.40293
0.40293
0.402975
0.40302
0.403066
0.403111
0.403111
0.403157
0.403202
0.403247
0.403293
0.403293
0.403338
0.403384
0.40343
0.403475
0.403475
0.403521
0.403566
0.403612
0.403658
0.403658
0.403704
0.403749
0.403795
0.403841
0.403841
0.403887
0.403933
0.403978
0.404024
0.404024
0.40407
0.404116
0.404162
0.404208
0.404208
0.404254
0.404301
0.404347
0.404393
0.404393
0.404439
0.404485
0.404531
0.404578
0.404578
0.404624
0.40467
0.404717
0.404763
0.404763
0.404809
0.404856
0.404902
0.404949
0.404949
0.404995
0.405042
0.405088
0.405135
0.405135
0.405182
0.405228
0.405275
0.405322
0.405322
0.405368
0.405415
0.405462
0.405509
0.405509
0.405555
0.405602
0.405649
0.405696
0.405696
0.405743
0.40579
0.405837
0.405884
0.405884
0.405931
0.405978
0.406025
0.406072
0.406072
0.40612
0.406167
0.406214
0.406261
0.406261
0.406309
0.406356
0.406403
0.406451
0.406451
0.406498
0.406545
0.406593
0.40664
0.40664
0.406688
0.406735
0.406783
0.40683
0.40683
0.406878
0.406926
0.406973
0.407021
0.407021
0.407069
0.407116
0.407164
0.407212
0.407212
0.40726
0.407308
0.407356
0.407403
0.407403
0.407451
0.407499
0.407547
0.407595
0.407595
0.407643
0.407691
0.40774
0.407788
0.407788
0.407836
0.407884
0.407932
0.40798
0.40798
0.408029
0.408077
0.408125
0.408174
0.408174
0.408222
0.40827
0.408319
0.408367
0.408367
0.408416
0.408464
0.408513
0.408561
0.408561
0.40861
0.408659
0.408707
0.408756
0.408756
0.408805
0.408853
0.408902
0.408951
0.408951
0.409
0.409049
0.409097
0.409146
0.409146
0.409195
0.409244
0.409293
0.409342
0.409342
0.409391
0.40944
0.409489
0.409538
0.409538
0.409588
0.409637
0.409686
0.409735
0.409735
0.409784
0.409834
0.409883
0.409932
0.409932
0.409982
0.410031
0.410081
0.41013
0.41013
0.410179
0.410229
0.410278
0.410328
0.410328
0.410378
0.410427
0.410477
0.410526
0.410526
0.410576
0.410626
0.410676
0.410725
0.410725
0.410775
0.410825
0.410875
0.410925
0.410925
0.410975
0.411025
0.411075
0.411125
0.411125
0.411175
0.411225
0.411275
0.411325
0.411325
0.411375
0.411425
0.411475
0.411525
0.411525
0.411576
0.411626
0.411676
0.411727
0.411727
0.411777
0.411827
0.411878
0.411928
0.411928
0.411978
0.412029
0.412079
0.41213
0.41213
0.412181
0.412231
0.412282
0.412332
0.412332
0.412383
0.412434
0.412485
0.412535
0.412535
0.412586
0.412637
0.412688
0.412739
0.412739
0.412789
0.41284
0.412891
0.412942
0.412942
0.412993
0.413044
0.413095
0.413146
0.413146
0.413197
0.413249
0.4133
0.413351
0.413351
0.413402
0.413453
0.413505
0.413556
0.413556
0.413607
0.413659
0.41371
0.413761
0.413761
0.413813
0.413864
0.413916
0.413967
0.413967
0.414019
0.41407
0.414122
0.414174
0.414174
0.414225
0.414277
0.414329
0.41438
0.41438
0.414432
0.414484
0.414536
0.414588
0.414588
0.414639
0.414691
0.414743
0.414795
0.414795
0.414847
0.414899
0.414951
0.415003
0.415003
0.415055
0.415107
0.41516
0.415212
0.415212
0.415264
0.415316
0.415368
0.415421
0.415421
0.415473
0.415525
0.415578
0.41563
0.41563
0.415682
0.415735
0.415787
0.41584
0.41584
0.415892
0.415945
0.415997
0.41605
0.41605
0.416103
0.416155
0.416208
0.416261
0.416261
0.416313
0.416366
0.416419
0.416472
0.416472
0.416525
0.416578
0.41663
0.416683
0.416683
0.416736
0.416789
0.416842
0.416895
0.416895
0.416948
0.417001
0.417055
0.417108
0.417108
0.417161
0.417214
0.417267
0.41732
0.41732
0.417374
0.417427
0.41748
0.417534
0.417534
0.417587
0.417641
0.417694
0.417747
0.417747
0.417801
0.417854
0.417908
0.417962
0.417962
0.418015
0.418069
0.418122
0.418176
0.418176
0.41823
0.418284
0.418337
0.418391
0.418391
0.418445
0.418499
0.418553
0.418606
0.418606
0.41866
0.418714
0.418768
0.418822
0.418822
0.418876
0.41893
0.418984
0.419039
0.419039
0.419093
0.419147
0.419201
0.419255
0.419255
0.41931
0.419364
0.419418
0.419472
0.419472
0.419527
0.419581
0.419636
0.41969
0.41969
0.419744
0.419799
0.419853
0.419908
0.419908
0.419963
0.420017
0.420072
0.420126
0.420126
0.420181
0.420236
0.420291
0.420345
0.420345
0.4204
0.420455
0.42051
0.420565
0.420565
0.420619
0.420674
0.420729
0.420784
0.420784
0.420839
0.420894
0.420949
0.421004
0.421004
0.42106
0.421115
0.42117
0.421225
0.421225
0.42128
0.421335
0.421391
0.421446
0.421446
0.421501
0.421557
0.421612
0.421667
0.421667
0.421723
0.421778
0.421834
0.421889
0.421889
0.421945
0.422
0.422056
0.422112
0.422112
0.422167
0.422223
0.422279
0.422334
0.422334
0.42239
0.422446
0.422502
0.422557
0.422557
0.422613
0.422669
0.422725
0.422781
0.422781
0.422837
0.422893
0.422949
0.423005
0.423005
0.423061
0.423117
0.423173
0.42323
0.42323
0.423286
0.423342
0.423398
0.423454
0.423454
0.423511
0.423567
0.423623
0.42368
0.42368
0.423736
0.423792
0.423849
0.423905
0.423905
0.423962
0.424018
0.424075
0.424132
0.424132
0.424188
0.424245
0.424301
0.424358
0.424358
0.424415
0.424472
0.424528
0.424585
0.424585
0.424642
0.424699
0.424756
0.424813
0.424813
0.424869
0.424926
0.424983
0.42504
0.42504
0.425097
0.425154
0.425212
0.425269
0.425269
0.425326
0.425383
0.42544
0.425497
0.425497
0.425555
0.425612
0.425669
0.425727
0.425727
0.425784
0.425841
0.425899
0.425956
0.425956
0.426014
0.426071
0.426129
0.426186
0.426186
0.426244
0.426301
0.426359
0.426416
0.426416
0.426474
0.426532
0.42659
0.426647
0.426647
0.426705
0.426763
0.426821
0.426879
0.426879
0.426936
0.426994
0.427052
0.42711
0.42711
0.427168
0.427226
0.427284
0.427342
0.427342
0.4274
0.427459
0.427517
0.427575
0.427575
0.427633
0.427691
0.42775
0.427808
0.427808
0.427866
0.427925
0.427983
0.428041
0.428041
0.4281
0.428158
0.428217
0.428275
0.428275
0.428334
0.428392
0.428451
0.428509
0.428509
0.428568
0.428627
0.428685
0.428744
0.428744
0.428803
0.428861
0.42892
0.428979
0.428979
0.429038
0.429097
0.429156
0.429215
0.429215
0.429274
0.429332
0.429391
0.429451
0.429451
0.42951
0.429569
0.429628
0.429687
0.429687
0.429746
0.429805
0.429864
0.429924
0.429924
0.429983
0.430042
0.430102
0.430161
0.430161
0.43022
0.43028
0.430339
0.430398
0.430398
0.430458
0.430517
0.430577
0.430637
0.430637
0.430696
0.430756
0.430815
0.430875
0.430875
0.430935
0.430994
0.431054
0.431114
0.431114
0.431174
0.431234
0.431293
0.431353
0.431353
0.431413
0.431473
0.431533
0.431593
0.431593
0.431653
0.431713
0.431773
0.431833
0.431833
0.431893
0.431953
0.432014
0.432074
0.432074
0.432134
0.432194
0.432254
0.432315
0.432315
0.432375
0.432435
0.432496
0.432556
0.432556
0.432617
0.432677
0.432737
0.432798
0.432798
0.432859
0.432919
0.43298
0.43304
0.43304
0.433101
0.433162
0.433222
0.433283
0.433283
0.433344
0.433404
0.433465
0.433526
0.433526
0.433587
0.433648
0.433709
0.43377
0.43377
0.433831
0.433892
0.433953
0.434014
0.434014
0.434075
0.434136
0.434197
0.434258
0.434258
0.434319
0.43438
0.434441
0.434503
0.434503
0.434564
0.434625
0.434687
0.434748
0.434748
0.434809
0.434871
0.434932
0.434994
0.434994
0.435055
0.435117
0.435178
0.43524
0.43524
0.435301
0.435363
0.435424
0.435486
0.435486
0.435548
0.435609
0.435671
0.435733
0.435733
0.435795
0.435857
0.435918
0.43598
0.43598
0.436042
0.436104
0.436166
0.436228
0.436228
0.43629
0.436352
0.436414
0.436476
0.436476
0.436538
0.4366
0.436663
0.436725
0.436725
0.436787
0.436849
0.436911
0.436974
0.436974
0.437036
0.437098
0.437161
0.437223
0.437223
0.437286
0.437348
0.43741
0.437473
0.437473
0.437535
0.437598
0.437661
0.437723
0.437723
0.437786
0.437848
0.437911
0.437974
0.437974
0.438037
0.438099
0.438162
0.438225
0.438225
0.438288
0.438351
0.438414
0.438476
0.438476
0.438539
0.438602
0.438665
0.438728
0.438728
0.438791
0.438854
0.438918
0.438981
0.438981
0.439044
0.439107
0.43917
0.439233
0.439233
0.439297
0.43936
0.439423
0.439487
0.439487
0.43955
0.439613
0.439677
0.43974
0.43974
0.439804
0.439867
0.439931
0.439994
0.439994
0.440058
0.440121
0.440185
0.440249
0.440249
0.440312
0.440376
0.44044
0.440503
0.440503
0.440567
0.440631
0.440695
0.440759
0.440759
0.440822
0.440886
0.44095
0.441014
0.441014
0.441078
0.441142
0.441206
0.44127
0.44127
0.441334
0.441399
0.441463
0.441527
0.441527
0.441591
0.441655
0.441719
0.441784
0.441784
0.441848
0.441912
0.441977
0.442041
0.442041
0.442105
0.44217
0.442234
0.442299
0.442299
0.442363
0.442428
0.442492
0.442557
0.442557
0.442622
0.442686
0.442751
0.442815
0.442815
0.44288
0.442945
0.44301
0.443074
0.443074
0.443139
0.443204
0.443269
0.443334
0.443334
0.443399
0.443464
0.443529
0.443594
0.443594
0.443659
0.443724
0.443789
0.443854
0.443854
0.443919
0.443984
0.444049
0.444114
0.444114
0.44418
0.444245
0.44431
0.444376
0.444376
0.444441
0.444506
0.444572
0.444637
0.444637
0.444702
0.444768
0.444833
0.444899
0.444899
0.444964
0.44503
0.445096
0.445161
0.445161
0.445227
0.445292
0.445358
0.445424
0.445424
0.44549
0.445555
0.445621
0.445687
0.445687
0.445753
0.445819
0.445885
0.44595
0.44595
0.446016
0.446082
0.446148
0.446214
0.446214
0.44628
0.446346
0.446413
0.446479
0.446479
0.446545
0.446611
0.446677
0.446743
0.446743
0.44681
0.446876
0.446942
0.447009
0.447009
0.447075
0.447141
0.447208
0.447274
0.447274
0.447341
0.447407
0.447474
0.44754
0.44754
0.447607
0.447673
0.44774
0.447807
0.447807
0.447873
0.44794
0.448007
0.448073
0.448073
0.44814
0.448207
0.448274
0.448341
0.448341
0.448407
0.448474
0.448541
0.448608
0.448608
0.448675
0.448742
0.448809
0.448876
0.448876
0.448943
0.44901
0.449078
0.449145
0.449145
0.449212
0.449279
0.449346
0.449414
0.449414
0.449481
0.449548
0.449615
0.449683
0.449683
0.44975
0.449818
0.449885
0.449953
0.449953
0.45002
0.450088
0.450155
0.450223
0.450223
0.45029
0.450358
0.450425
0.450493
0.450493
0.450561
0.450629
0.450696
0.450764
0.450764
0.450832
0.4509
0.450967
0.451035
0.451035
0.451103
0.451171
0.451239
0.451307
0.451307
0.451375
0.451443
0.451511
0.451579
0.451579
0.451647
0.451715
0.451784
0.451852
0.451852
0.45192
0.451988
0.452056
0.452125
0.452125
0.452193
0.452261
0.45233
0.452398
0.452398
0.452466
0.452535
0.452603
0.452672
0.452672
0.45274
0.452809
0.452877
0.452946
0.452946
0.453015
0.453083
0.453152
0.453221
0.453221
0.453289
0.453358
0.453427
0.453495
0.453495
0.453564
0.453633
0.453702
0.453771
0.453771
0.45384
0.453909
0.453978
0.454047
0.454047
0.454116
0.454185
0.454254
0.454323
0.454323
0.454392
0.454461
0.45453
0.454599
0.454599
0.454669
0.454738
0.454807
0.454876
0.454876
0.454946
0.455015
0.455085
0.455154
0.455154
0.455223
0.455293
0.455362
0.455432
0.455432
0.455501
0.455571
0.45564
0.45571
0.45571
0.45578
0.455849
0.455919
0.455989
0.455989
0.456058
0.456128
0.456198
0.456268
0.456268
0.456337
0.456407
0.456477
0.456547
0.456547
0.456617
0.456687
0.456757
0.456827
0.456827
0.456897
0.456967
0.457037
0.457107
0.457107
0.457177
0.457247
0.457318
0.457388
0.457388
0.457458
0.457528
0.457599
0.457669
0.457669
0.457739
0.45781
0.45788
0.45795
0.45795
0.458021
0.458091
0.458162
0.458232
0.458232
0.458303
0.458373
0.458444
0.458514
0.458514
0.458585
0.458656
0.458726
0.458797
0.458797
0.458868
0.458939
0.459009
0.45908
0.45908
0.459151
0.459222
0.459293
0.459364
0.459364
0.459435
0.459506
0.459577
0.459648
0.459648
0.459719
0.45979
0.459861
0.459932
0.459932
0.460003
0.460074
0.460145
0.460217
0.460217
0.460288
0.460359
0.46043
0.460502
0.460502
0.460573
0.460644
0.460716
0.460787
0.460787
0.460859
0.46093
0.461001
0.461073
0.461073
0.461145
0.461216
0.461288
0.461359
0.461359
0.461431
0.461503
0.461574
0.461646
0.461646
0.461718
0.461789
0.461861
0.461933
0.461933
0.462005
0.462077
0.462149
0.462221
0.462221
0.462293
0.462364
0.462436
0.462508
0.462508
0.462581
0.462653
0.462725
0.462797
0.462797
0.462869
0.462941
0.463013
0.463085
0.463085
0.463158
0.46323
0.463302
0.463375
0.463375
0.463447
0.463519
0.463592
0.463664
0.463664
0.463736
0.463809
0.463881
0.463954
0.463954
0.464026
0.464099
0.464172
0.464244
0.464244
0.464317
0.46439
0.464462
0.464535
0.464535
0.464608
0.46468
0.464753
0.464826
0.464826
0.464899
0.464972
0.465045
0.465118
0.465118
0.46519
0.465263
0.465336
0.465409
0.465409
0.465482
0.465555
0.465629
0.465702
0.465702
0.465775
0.465848
0.465921
0.465994
0.465994
0.466068
0.466141
0.466214
0.466287
0.466287
0.466361
0.466434
0.466508
0.466581
0.466581
0.466654
0.466728
0.466801
0.466875
0.466875
0.466948
0.467022
0.467095
0.467169
0.467169
0.467243
0.467316
0.46739
0.467464
0.467464
0.467537
0.467611
0.467685
0.467759
0.467759
0.467833
0.467907
0.46798
0.468054
0.468054
0.468128
0.468202
0.468276
0.46835
0.46835
0.468424
0.468498
0.468572
0.468646
0.468646
0.468721
0.468795
0.468869