<?xml version="1.0"?>
<VTKFile type="UnstructuredGrid" version="0.1" byte_order="LittleEndian">
<UnstructuredGrid>
<Piece NumberOfPoints="5000" NumberOfCells="4000">
<PointData Scalars="Reaction 0">
<DataArray type="Float32" Name="Reaction 0" format="ascii">
0.836196
0.836196
0.836196
0.836196
0.836196
0.836196
0.836196
0.836196
0.836196
0.836196
0.836196
0.836196
0.836196
0.836196
0.836196
0.836196
0.836196
0.836196
0.836196
0.836196
0.836196
0.836196
0.836196
0.836196
0.836196
0.836196
0.836196
0.836196
0.836196
0.836196
0.836196
0.836196
0.836196
0.836196
0.836195
0.836195
0.836195
0.836195
0.836195
0.836195
0.836195
0.836195
0.836195
0.836195
0.836195
0.836195
0.836195
0.836195
0.836195
0.836195
0.836195
0.836195
0.836195
0.836195
0.836195
0.836195
0.836195
0.836195
0.836195
0.836195
0.836195
0.836195
0.836195
0.836195
0.836195
0.836195
0.836195
0.836195
0.836195
0.836195
0.836195
0.836195
0.836195
0.836195
0.836195
0.836195
0.836195
0.836195
0.836195
0.836194
0.836194
0.836194
0.836194
0.836194
0.836194
0.836194
0.836194
0.836194
0.836194
0.836194
0.836194
0.836194
0.836194
0.836194
0.836194
0.836194
0.836194
0.836194
0.836194
0.836194
0.836194
0.836194
0.836194
0.836194
0.836194
0.836194
0.836194
0.836193
0.836193
0.836193
0.836193
0.836193
0.836193
0.836193
0.836193
0.836193
0.836193
0.836193
0.836193
0.836193
0.836193
0.836193
0.836193
0.836193
0.836193
0.836193
0.836193
0.836193
0.836192
0.836192
0.836192
0.836192
0.836192
0.836192
0.836192
0.836192
0.836192
0.836192
0.836192
0.836192
0.836192
0.836192
0.836192
0.836192
0.836192
0.836192
0.836192
0.836191
0.836191
0.836191
0.836191
0.836191
0.836191
0.836191
0.836191
0.836191
0.836191
0.836191
0.836191
0.836191
0.836191
0.836191
0.836191
0.83619
0.83619
0.83619
0.83619
0.83619
0.83619
0.83619
0.83619
0.83619
0.83619
0.83619
0.83619
0.83619
0.83619
0.83619
0.836189
0.836189
0.836189
0.836189
0.836189
0.836189
0.836189
0.836189
0.836189
0.836189
0.836189
0.836189
0.836189
0.836189
0.836189
0.836188
0.836188
0.836188
0.836188
0.836188
0.836188
0.836188
0.836188
0.836188
0.836188
0.836188
0.836188
0.836188
0.836187
0.836187
0.836187
0.836187
0.836187
0.836187
0.836187
0.836187
0.836187
0.836187
0.836187
0.836187
0.836186
0.836186
0.836186
0.836186
0.836186
0.836186
0.836186
0.836186
0.836186
0.836186
0.836186
0.836185
0.836185
0.836185
0.836185
0.836185
0.836185
0.836185
0.836185
0.836185
0.836185
0.836185
0.836185
0.836184
0.836184
0.836184
0.836184
0.836184
0.836184
0.836184
0.836184
0.836184
0.836184
0.836183
0.836183
0.836183
0.836183
0.836183
0.836183
0.836183
0.836183
0.836183
0.836183
0.836182
0.836182
0.836182
0.836182
0.836182
0.836182
0.836182
0.836182
0.836182
0.836182
0.836181
0.836181
0.836181
0.836181
0.836181
0.836181
0.836181
0.836181
0.83618
0.83618
0.83618
0.83618
0.83618
0.83618
0.83618
0.83618
0.83618
0.83618
0.836179
0.836179
0.836179
0.836179
0.836179
0.836179
0.836179
0.836179
0.836179
0.836178
0.836178
0.836178
0.836178
0.836178
0.836178
0.836178
0.836178
0.836178
0.836177
0.836177
0.836177
0.836177
0.836177
0.836177
0.836177
0.836176
0.836176
0.836176
0.836176
0.836176
0.836176
0.836176
0.836176
0.836176
0.836175
0.836175
0.836175
0.836175
0.836175
0.836175
0.836175
0.836175
0.836174
0.836174
0.836174
0.836174
0.836174
0.836174
0.836174
0.836173
0.836173
0.836173
0.836173
0.836173
0.836173
0.836173
0.836173
0.836172
0.836172
0.836172
0.836172
0.836172
0.836172
0.836172
0.836171
0.836171
0.836171
0.836171
0.836171
0.836171
0.836171
0.836171
0.83617
0.83617
0.83617
0.83617
0.83617
0.83617
0.83617
0.836169
0.836169
0.836169
0.836169
0.836169
0.836169
0.836169
0.836169
0.836168
0.836168
0.836168
0.836168
0.836168
0.836168
0.836167
0.836167
0.836167
0.836167
0.836167
0.836167
0.836167
0.836166
0.836166
0.836166
0.836166
0.836166
0.836166
0.836166
0.836165
0.836165
0.836165
0.836165
0.836165
0.836165
0.836164
0.836164
0.836164
0.836164
0.836164
0.836164
0.836163
0.836163
0.836163
0.836163
0.836163
0.836163
0.836162
0.836162
0.836162
0.836162
0.836162
0.836162
0.836162
0.836162
0.836161
0.836161
0.836161
0.836161
0.836161
0.83616
0.83616
0.83616
0.83616
0.83616
0.83616
0.836159
0.836159
0.836159
0.836159
0.836159
0.836159
0.836158
0.836158
0.836158
0.836158
0.836158
0.836158
0.836158
0.836157
0.836157
0.836157
0.836157
0.836157
0.836157
0.836156
0.836156
0.836156
0.836156
0.836156
0.836155
0.836155
0.836155
0.836155
0.836155
0.836155
0.836154
0.836154
0.836154
0.836154
0.836154
0.836153
0.836153
0.836153
0.836153
0.836153
0.836153
0.836152
0.836152
0.836152
0.836152
0.836152
0.836151
0.836151
0.836151
0.836151
0.836151
0.836151
0.836151
0.83615
0.83615
0.83615
0.83615
0.83615
0.836149
0.836149
0.836149
0.836149
0.836149
0.836149
0.836148
0.836148
0.836148
0.836148
0.836148
0.836147
0.836147
0.836147
0.836147
0.836147
0.836146
0.836146
0.836146
0.836146
0.836146
0.836145
0.836145
0.836145
0.836145
0.836145
0.836144
0.836144
0.836144
0.836144
0.836144
0.836143
0.836143
0.836143
0.836143
0.836143
0.836143
0.836142
0.836142
0.836142
0.836142
0.836142
0.836141
0.836141
0.836141
0.836141
0.836141
0.83614
0.83614
0.83614
0.83614
0.83614
0.836139
0.836139
0.836139
0.836139
0.836139
0.836138
0.836138
0.836138
0.836138
0.836137
0.836137
0.836137
0.836137
0.836137
0.836136
0.836136
0.836136
0.836136
0.836136
0.836135
0.836135
0.836135
0.836135
0.836135
0.836134
0.836134
0.836134
0.836134
0.836134
0.836133
0.836133
0.836133
0.836133
0.836133
0.836132
0.836132
0.836132
0.836132
0.836131
0.836131
0.836131
0.836131
0.836131
0.83613
0.83613
0.83613
0.83613
0.83613
0.836129
0.836129
0.836129
0.836128
0.836128
0.836128
0.836128
0.836128
0.836127
0.836127
0.836127
0.836127
0.836127
0.836126
0.836126
0.836126
0.836126
0.836125
0.836125
0.836125
0.836125
0.836125
0.836124
0.836124
0.836124
0.836124
0.836123
0.836123
0.836123
0.836123
0.836123
0.836122
0.836122
0.836122
0.836122
0.836121
0.836121
0.836121
0.836121
0.836121
0.83612
0.83612
0.83612
0.836119
0.836119
0.836119
0.836119
0.836119
0.836118
0.836118
0.836118
0.836118
0.836117
0.836117
0.836117
0.836117
0.836116
0.836116
0.836116
0.836116
0.836116
0.836115
0.836115
0.836115
0.836115
0.836114
0.836114
0.836114
0.836114
0.836114
0.836113
0.836113
0.836113
0.836112
0.836112
0.836112
0.836112
0.836111
0.836111
0.836111
0.836111
0.83611
0.83611
0.83611
0.83611
0.83611
0.836109
0.836109
0.836109
0.836109
0.836108
0.836108
0.836108
0.836107
0.836107
0.836107
0.836107
0.836106
0.836106
0.836106
0.836106
0.836106
0.836105
0.836105
0.836105
0.836105
0.836104
0.836104
0.836104
0.836104
0.836103
0.836103
0.836103
0.836102
0.836102
0.836102
0.836102
0.836101
0.836101
0.836101
0.836101
0.836101
0.8361
0.8361
0.8361
0.8361
0.836099
0.836099
0.836099
0.836099
0.836098
0.836098
0.836098
0.836097
0.836097
0.836097
0.836097
0.836096
0.836096
0.836096
0.836096
0.836095
0.836095
0.836095
0.836095
0.836094
0.836094
0.836094
0.836093
0.836093
0.836093
0.836093
0.836092
0.836092
0.836092
0.836092
0.836091
0.836091
0.836091
0.836091
0.83609
0.83609
0.83609
0.836089
0.836089
0.836089
0.836089
0.836088
0.836088
0.836088
0.836088
0.836087
0.836087
0.836087
0.836087
0.836086
0.836086
0.836086
0.836085
0.836085
0.836085
0.836085
0.836084
0.836084
0.836084
0.836084
0.836083
0.836083
0.836083
0.836083
0.836082
0.836082
0.836082
0.836081
0.836081
0.836081
0.836081
0.83608
0.83608
0.83608
0.836079
0.836079
0.836079
0.836078
0.836078
0.836078
0.836078
0.836077
0.836077
0.836077
0.836077
0.836076
0.836076
0.836076
0.836076
0.836075
0.836075
0.836075
0.836074
0.836074
0.836074
0.836074
0.836073
0.836073
0.836073
0.836072
0.836072
0.836072
0.836071
0.836071
0.836071
0.836071
0.83607
0.83607
0.83607
0.83607
0.836069
0.836069
0.836069
0.836069
0.836068
0.836068
0.836067
0.836067
0.836067
0.836067
0.836066
0.836066
0.836066
0.836066
0.836065
0.836065
0.836065
0.836064
0.836064
0.836064
0.836063
0.836063
0.836063
0.836063
0.836062
0.836062
0.836062
0.836061
0.836061
0.836061
0.83606
0.83606
0.83606
0.83606
0.836059
0.836059
0.836059
0.836058
0.836058
0.836058
0.836058
0.836057
0.836057
0.836057
0.836056
0.836056
0.836056
0.836055
0.836055
0.836055
0.836055
0.836054
0.836054
0.836054
0.836053
0.836053
0.836053
0.836052
0.836052
0.836052
0.836052
0.836051
0.836051
0.836051
0.83605
0.83605
0.83605
0.836049
0.836049
0.836049
0.836048
0.836048
0.836048
0.836048
0.836047
0.836047
0.836047
0.836046
0.836046
0.836046
0.836045
0.836045
0.836045
0.836045
0.836044
0.836044
0.836044
0.836043
0.836043
0.836043
0.836042
0.836042
0.836042
0.836042
0.836041
0.836041
0.83604
0.83604
0.83604
0.83604
0.836039
0.836039
0.836038
0.836038
0.836038
0.836038
0.836037
0.836037
0.836037
0.836037
0.836036
0.836036
0.836035
0.836035
0.836035
0.836035
0.836034
0.836034
0.836034
0.836033
0.836033
0.836033
0.836032
0.836032
0.836032
0.836031
0.836031
0.836031
0.836031
0.83603
0.83603
0.836029
0.836029
0.836029
0.836029
0.836028
0.836028
0.836027
0.836027
0.836027
0.836027
0.836026
0.836026
0.836026
0.836025
0.836025
0.836025
0.836024
0.836024
0.836024
0.836023
0.836023
0.836023
0.836023
0.836022
0.836022
0.836021
0.836021
0.836021
0.836021
0.83602
0.83602
0.836019
0.836019
0.836019
0.836019
0.836018
0.836018
0.836018
0.836017
0.836017
0.836016
0.836016
0.836016
0.836016
0.836015
0.836015
0.836014
0.836014
0.836014
0.836014
0.836013
0.836013
0.836013
0.836012
0.836012
0.836012
0.836011
0.836011
0.836011
0.83601
0.83601
0.836009
0.836009
0.836009
0.836009
0.836008
0.836008
0.836008
0.836007
0.836007
0.836007
0.836006
0.836006
0.836006
0.836005
0.836005
0.836004
0.836004
0.836004
0.836004
0.836003
0.836003
0.836003
0.836002
0.836002
0.836002
0.836001
0.836001
0.836001
0.836
0.836
0.835999
0.835999
0.835999
0.835999
0.835998
0.835998
0.835998
0.835997
0.835997
0.835997
0.835996
0.835996
0.835996
0.835995
0.835995
0.835994
0.835994
0.835994
0.835994
0.835993
0.835993
0.835993
0.835992
0.835992
0.835991
0.835991
0.835991
0.835991
0.83599
0.83599
0.835989
0.835989
0.835989
0.835988
0.835988
0.835988
0.835988
0.835987
0.835987
0.835986
0.835986
0.835986
0.835985
0.835985
0.835985
0.835984
0.835984
0.835984
0.835983
0.835983
0.835982
0.835982
0.835982
0.835982
0.835981
0.835981
0.835981
0.83598
0.83598
0.835979
0.835979
0.835979
0.835978
0.835978
0.835978
0.835977
0.835977
0.835977
0.835976
0.835976
0.835975
0.835975
0.835975
0.835975
0.835974
0.835974
0.835974
0.835973
0.835973
0.835972
0.835972
0.835972
0.835971
0.835971
0.835971
0.83597
0.83597
0.83597
0.835969
0.835969
0.835968
0.835968
0.835968
0.835967
0.835967
0.835966
0.835966
0.835966
0.835965
0.835965
0.835964
0.835964
0.835964
0.835963
0.835963
0.835962
0.835962
0.835962
0.835961
0.835961
0.83596
0.83596
0.83596
0.835959
0.835959
0.835958
0.835958
0.835957
0.835957
0.835956
0.835956
0.835956
0.835955
0.835954
0.835954
0.835953
0.835953
0.835953
0.835952
0.835951
0.835951
0.835951
0.83595
0.83595
0.835949
0.835948
0.835948
0.835948
0.835947
0.835946
0.835946
0.835946
0.835945
0.835944
0.835944
0.835943
0.835943
0.835942
0.835942
0.835941
0.83594
0.83594
0.835939
0.835939
0.835938
0.835937
0.835937
0.835937
0.835936
0.835935
0.835934
0.835934
0.835934
0.835933
0.835932
0.835932
0.835932
0.835931
0.83593
0.835929
0.835929
0.835929
0.835928
0.835927
0.835927
0.835926
0.835926
0.835925
0.835924
0.835924
0.835923
0.835923
0.835922
0.835921
0.835921
0.83592
0.83592
0.835919
0.835918
0.835918
0.835917
0.835917
0.835916
0.835915
0.835915
0.835914
0.835914
0.835913
0.835912
0.835912
0.835911
0.835911
0.83591
0.83591
0.835909
0.835908
0.835908
0.835907
0.835907
0.835906
0.835905
0.835905
0.835904
0.835904
0.835903
0.835902
0.835902
0.835901
0.835901
0.8359
0.835899
0.835899
0.835898
0.835898
0.835897
0.835896
0.835896
0.835895
0.835895
0.835894
0.835893
0.835893
0.835892
0.835892
0.835891
0.83589
0.83589
0.835889
0.835889
0.835888
0.835887
0.835887
0.835886
0.835886
0.835885
0.835884
0.835884
0.835883
0.835882
0.835882
0.835881
0.835881
0.83588
0.835879
0.835879
0.835878
0.835878
0.835877
0.835876
0.835876
0.835875
0.835875
0.835874
0.835873
0.835873
0.835872
0.835872
0.835871
0.83587
0.83587
0.835869
0.835869
0.835868
0.835867
0.835866
0.835866
0.835866
0.835865
0.835864
0.835863
0.835863
0.835863
0.835862
0.835861
0.83586
0.83586
0.83586
0.835859
0.835858
0.835857
0.835856
0.835856
0.835856
0.835855
0.835854
0.835853
0.835853
0.835853
0.835852
0.835851
0.83585
0.83585
0.835849
0.835849
0.835848
0.835847
0.835847
0.835846
0.835846
0.835845
0.835844
0.835844
0.835843
0.835842
0.835842
0.835841
0.835841
0.83584
0.835839
0.835839
0.835838
0.835838
0.835837
0.835836
0.835835
0.835835
0.835835
0.835834
0.835833
0.835832
0.835832
0.835832
0.835831
0.83583
0.835829
0.835828
0.835828
0.835828
0.835827
0.835826
0.835825
0.835825
0.835825
0.835824
0.835823
0.835822
0.835822
0.835821
0.835821
0.83582
0.835819
0.835819
0.835818
0.835817
0.835817
0.835816
0.835816
0.835815
0.835814
0.835813
0.835813
0.835813
0.835812
0.835811
0.83581
0.83581
0.83581
0.835809
0.835808
0.835807
0.835806
0.835806
0.835806
0.835805
0.835804
0.835803
0.835803
0.835802
0.835802
0.835801
0.8358
0.8358
0.835799
0.835798
0.835798
0.835797
0.835797
0.835796
0.835795
0.835794
0.835794
0.835794
0.835793
0.835792
0.835791
0.83579
0.83579
0.83579
0.835789
0.835788
0.835787
0.835787
0.835786
0.835786
0.835785
0.835784
0.835784
0.835783
0.835782
0.835782
0.835781
0.835781
0.83578
0.835779
0.835778
0.835778
0.835778
0.835777
0.835776
0.835775
0.835774
0.835774
0.835774
0.835773
0.835772
0.835771
0.835771
0.83577
0.83577
0.835769
0.835768
0.835768
0.835767
0.835766
0.835766
0.835765
0.835765
0.835764
0.835763
0.835762
0.835761
0.835761
0.835761
0.83576
0.835759
0.835758
0.835758
0.835757
0.835757
0.835756
0.835755
0.835755
0.835754
0.835753
0.835753
0.835752
0.835752
0.835751
0.83575
0.835749
0.835749
0.835749
0.835748
0.835747
0.835746
0.835745
0.835745
0.835744
0.835744
0.835743
0.835742
0.835742
0.835741
0.83574
0.83574
0.835739
0.835739
0.835738
0.835737
0.835736
0.835735
0.835735
0.835735
0.835734
0.835733
0.835732
0.835732
0.835731
0.835731
0.83573
0.835729
0.835729
0.835728
0.835727
0.835726
0.835726
0.835726
0.835725
0.835724
0.835723
0.835722
0.835722
0.835722
0.835721
0.83572
0.835719
0.835719
0.835718
0.835717
0.835717
0.835716
0.835716
0.835715
0.835714
0.835713
0.835713
0.835713
0.835712
0.835711
0.83571
0.835709
0.835709
0.835708
0.835708
0.835707
0.835706
0.835706
0.835705
0.835704
0.835704
0.835703
0.835703
0.835702
0.835701
0.8357
0.835699
0.835699
0.835699
0.835698
0.835697
0.835696
0.835696
0.835695
0.835694
0.835694
0.835693
0.835693
0.835692
0.835691
0.83569
0.835689
0.835689
0.835689
0.835688
0.835687
0.835686
0.835686
0.835685
0.835685
0.835684
0.835683
0.835683
0.835682
0.835681
0.83568
0.83568
0.83568
0.835679
0.835678
0.835677
0.835676
0.835676
0.835675
0.835675
0.835674
0.835673
0.835673
0.835672
0.835671
0.83567
0.83567
0.83567
0.835669
0.835668
0.835667
0.835666
0.835666
0.835665
0.835665
0.835664
0.835663
0.835663
0.835662
0.835661
0.835661
0.83566
0.83566
0.835659
0.835658
0.835657
0.835656
0.835656
0.835656
0.835655
0.835654
0.835653
0.835653
0.835652
0.835651
0.835651
0.83565
0.83565
0.835649
0.835648
0.835647
0.835646
0.835646
0.835646
0.835645
0.835644
0.835643
0.835643
0.835642
0.835641
0.835641
0.83564
0.83564
0.835639
0.835638
0.835637
0.835636
0.835636
0.835636
0.835635
0.835634
0.835633
0.835633
0.835632
0.835631
0.835631
0.83563
0.83563
0.835629
0.835628
0.835627
0.835626
0.835626
0.835626
0.835625
0.835624
0.835623
0.835623
0.835622
0.835621
0.835621
0.83562
0.83562
0.835619
0.835618
0.835617
0.835616
0.835616
0.835616
0.835615
0.835614
0.835613
0.835613
0.835612
0.835611
0.835611
0.83561
0.83561
0.835609
0.835608
0.835607
0.835606
0.835606
0.835606
0.835605
0.835604
0.835603
0.835603
0.835602
0.835601
0.835601
0.8356
0.8356
0.835599
0.835598
0.835597
0.835596
0.835596
0.835596
0.835595
0.835594
0.835593
0.835593
0.835592
0.835591
0.835591
0.83559
0.83559
0.835589
0.835588
0.835587
0.835586
0.835586
0.835586
0.835585
0.835584
0.835583
0.835583
0.835582
0.835581
0.83558
0.83558
0.83558
0.835579
0.835578
0.835577
0.835576
0.835576
0.835575
0.835575
0.835574
0.835573
0.835573
0.835572
0.835571
0.83557
0.83557
0.83557
0.835569
0.835568
0.835567
0.835566
0.835566
0.835565
0.835565
0.835564
0.835563
0.835563
0.835562
0.835561
0.83556
0.83556
0.83556
0.835559
0.835558
0.835557
0.835556
0.835556
0.835555
0.835554
0.835554
0.835553
0.835553
0.835552
0.835551
0.83555
0.835549
0.835549
0.835548
0.835547
0.835547
0.835546
0.835546
0.835545
0.835544
0.835543
0.835542
0.835542
0.835541
0.83554
0.835539
0.835538
0.835538
0.835537
0.835536
0.835535
0.835535
0.835535
0.835534
0.835533
0.835532
0.835531
0.835531
0.83553
0.835529
0.835527
0.835526
0.835526
0.835525
0.835524
0.835523
0.835522
0.835522
0.835521
0.83552
0.835519
0.835518
0.835518
0.835517
0.835516
0.835515
0.835514
0.835514
0.835512
0.835511
0.83551
0.835509
0.835509
0.835508
0.835507
0.835506
0.835504
0.835504
0.835503
0.835502
0.835501
0.8355
0.8355
0.835499
0.835497
0.835496
0.835495
0.835495
0.835494
0.835493
0.835491
0.83549
0.83549
0.835489
0.835488
0.835487
0.835485
0.835485
0.835484
0.835483
0.835482
0.83548
0.83548
0.835479
0.835478
0.835477
0.835475
0.835475
0.835474
0.835473
0.835472
0.835471
0.835471
0.835469
0.835468
0.835467
0.835466
0.835466
0.835464
0.835463
0.835462
0.835461
0.835461
0.83546
0.835458
0.835457
0.835456
0.835456
0.835455
0.835453
0.835452
0.835451
0.835451
0.83545
0.835448
0.835447
0.835446
0.835446
0.835445
0.835443
0.835442
0.835441
0.835441
0.83544
0.835439
0.835437
0.835436
0.835436
0.835435
0.835434
0.835432
0.835431
0.835431
0.83543
0.835429
0.835427
0.835426
0.835426
0.835425
0.835424
0.835422
0.835421
0.835421
0.83542
0.835419
0.835418
0.835416
0.835416
0.835415
0.835414
0.835413
0.835411
0.835411
0.83541
0.835409
0.835408
0.835406
0.835406
0.835405
0.835404
0.835403
0.835401
0.835401
0.8354
0.835399
0.835398
0.835397
0.835397
0.835395
0.835394
0.835393
0.835392
0.835392
0.83539
0.835389
0.835388
0.835387
0.835387
0.835385
0.835384
0.835383
0.835382
0.835382
0.83538
0.835379
0.835378
0.835377
0.835377
0.835376
0.835374
0.835373
0.835372
0.835372
0.835371
0.835369
0.835368
0.835367
0.835367
0.835366
0.835364
0.835363
0.835362
0.835362
0.835361
0.835359
0.835358
0.835357
0.835357
0.835356
0.835354
0.835353
0.835352
0.835352
0.835351
0.83535
0.835348
0.835347
0.835347
0.835346
0.835345
0.835343
0.835342
0.835342
0.835341
0.83534
0.835338
0.835337
0.835337
0.835336
0.835335
0.835333
0.835332
0.835332
0.835331
0.83533
0.835329
0.835327
0.835327
0.835326
0.835325
0.835324
0.835322
0.835322
0.835321
0.83532
0.835319
0.835317
0.835317
0.835316
0.835315
0.835314
0.835312
0.835312
0.835311
0.83531
0.835309
0.835308
0.835308
0.835306
0.835305
0.835304
0.835303
0.835303
0.835301
0.8353
0.835299
0.835298
0.835298
0.835296
0.835295
0.835294
0.835293
0.835293
0.835291
0.83529
0.835289
0.835288
0.835288
0.835287
0.835285
0.835284
0.835283
0.835283
0.835282
0.83528
0.835279
0.835278
0.835278
0.835277
0.835275
0.835274
0.835273
0.835273
0.835272
0.835271
0.835269
0.835268
0.835268
0.835267
0.835266
0.835264
0.835263
0.835263
0.835262
0.835261
0.835259
0.835258
0.835258
0.835257
0.835256
0.835254
0.835253
0.835253
0.835252
0.835251
0.83525
0.835248
0.835248
0.835247
0.835246
0.835245
0.835243
0.835243
0.835242
0.835241
0.83524
0.835238
0.835238
0.835237
0.835236
0.835235
0.835234
0.835234
0.835232
0.835231
0.83523
0.835229
0.835229
0.835227
0.835226
0.835225
0.835224
0.835224
0.835223
0.835221
0.83522
0.835219
0.835219
0.835218
0.835216
0.835215
0.835214
0.835214
0.835213
0.835211
0.83521
0.835209
0.835209
0.835208
0.835207
0.835205
0.835204
0.835204
0.835203
0.835202
0.8352
0.835199
0.835199
0.835198
0.835197
0.835196
0.835194
0.835194
0.835193
0.835192
0.835191
0.835189
0.835189
0.835188
0.835187
0.835186
0.835185
0.835185
0.835183
0.835182
0.835181
0.83518
0.83518
0.835178
0.835177
0.835176
0.835175
0.835175
0.835174
0.835172
0.835171
0.83517
0.83517
0.835169
0.835167
0.835166
0.835165
0.835165
0.835164
0.835163
0.835161
0.83516
0.83516
0.835159
0.835158
0.835157
0.835155
0.835155
0.835154
0.835153
0.835152
0.83515
0.83515
0.835149
0.835148
0.835147
0.835146
0.835146
0.835144
0.835143
0.835142
0.835141
0.835141
0.83514
0.835138
0.835137
0.835136
0.835136
0.835135
0.835133
0.835132
0.835131
0.835131
0.83513
0.835129
0.835127
0.835126
0.835126
0.835125
0.835124
0.835123
0.835121
0.835121
0.83512
0.835119
0.835118
0.835117
0.835117
0.835115
0.835114
0.835113
0.835112
0.835112
0.83511
0.835109
0.835108
0.835107
0.835107
0.835106
0.835104
0.835103
0.835102
0.835102
0.835101
0.8351
0.835098
0.835097
0.835097
0.835096
0.835095
0.835093
0.835092
0.835092
0.835091
0.83509
0.835088
0.835087
0.835087
0.835086
0.835085
0.835083
0.835082
0.835082
0.835081
0.83508
0.835078
0.835077
0.835077
0.835076
0.835074
0.835073
0.835072
0.835072
0.835071
0.835069
0.835068
0.835066
0.835066
0.835065
0.835064
0.835062
0.835061
0.835061
0.83506
0.835058
0.835057
0.835055
0.835055
0.835054
0.835053
0.835051
0.83505
0.83505
0.835048
0.835047
0.835045
0.835044
0.835044
0.835042
0.835041
0.835039
0.835038
0.835038
0.835036
0.835035
0.835033
0.835032
0.835032
0.83503
0.835029
0.835027
0.835026
0.835026
0.835024
0.835022
0.835021
0.835019
0.835019
0.835018
0.835016
0.835014
0.835013
0.835013
0.835011
0.83501
0.835008
0.835006
0.835006
0.835005
0.835003
0.835001
0.835
0.835
0.834998
0.834997
0.834995
0.834993
0.834993
0.834992
0.83499
0.834988
0.834987
0.834987
0.834985
0.834983
0.834982
0.83498
0.83498
0.834978
0.834977
0.834975
0.834974
0.834974
0.834972
0.83497
0.834969
0.834967
0.834967
0.834965
0.834964
0.834962
0.83496
0.83496
0.834959
0.834957
0.834955
0.834954
0.834954
0.834952
0.834951
0.834949
0.834947
0.834947
0.834946
0.834944
0.834942
0.834941
0.834941
0.834939
0.834937
0.834936
0.834934
0.834934
0.834933
0.834931
0.834929
0.834928
0.834928
0.834926
0.834924
0.834923
0.834921
0.834921
0.834919
0.834918
0.834916
0.834914
0.834914
0.834913
0.834911
0.83491
0.834908
0.834908
0.834906
0.834905
0.834903
0.834901
0.834901
0.8349
0.834898
0.834896
0.834895
0.834895
0.834893
0.834892
0.83489
0.834888
0.834888
0.834887
0.834885
0.834883
0.834882
0.834882
0.83488
0.834879
0.834877
0.834875
0.834875
0.834874
0.834872
0.83487
0.834869
0.834869
0.834867
0.834865
0.834864
0.834862
0.834862
0.834861
0.834859
0.834857
0.834856
0.834856
0.834854
0.834852
0.834851
0.834849
0.834849
0.834848
0.834846
0.834844
0.834843
0.834843
0.834841
0.834839
0.834838
0.834836
0.834836
0.834835
0.834833
0.834831
0.83483
0.83483
0.834828
0.834826
0.834825
0.834823
0.834823
0.834822
0.83482
0.834818
0.834817
0.834817
0.834815
0.834814
0.834812
0.83481
0.83481
0.834809
0.834807
0.834805
0.834804
0.834804
0.834802
0.834801
0.834799
0.834797
0.834797
0.834796
0.834794
0.834793
0.834791
0.834791
0.834789
0.834788
0.834786
0.834784
0.834784
0.834783
0.834781
0.83478
0.834778
0.834778
0.834776
0.834775
0.834773
0.834772
0.834772
0.83477
0.834768
0.834767
0.834765
0.834765
0.834764
0.834762
0.83476
0.834759
0.834759
0.834757
0.834756
0.834754
0.834752
0.834752
0.834751
0.834749
0.834748
0.834746
0.834746
0.834744
0.834743
0.834741
0.83474
0.83474
0.834738
0.834736
0.834735
0.834733
0.834733
0.834732
0.83473
0.834728
0.834727
0.834727
0.834725
0.834724
0.834722
0.83472
0.83472
0.834719
0.834717
0.834716
0.834714
0.834714
0.834712
0.834711
0.834709
0.834708
0.834708
0.834706
0.834704
0.834703
0.834701
0.834701
0.8347
0.834698
0.834696
0.834695
0.834695
0.834693
0.834692
0.83469
0.834689
0.834689
0.834687
0.834685
0.834684
0.834682
0.834682
0.834681
0.834679
0.834677
0.834676
0.834676
0.834674
0.834673
0.834671
0.83467
0.83467
0.834668
0.834666
0.834665
0.834663
0.834663
0.834662
0.83466
0.834659
0.834657
0.834657
0.834655
0.834654
0.834652
0.834651
0.834651
0.834649
0.834648
0.834646
0.834644
0.834644
0.834643
0.834641
0.83464
0.834638
0.834638
0.834637
0.834635
0.834633
0.834632
0.834632
0.83463
0.834629
0.834627
0.834626
0.834626
0.834624
0.834622
0.834621
0.834619
0.834619
0.834618
0.834616
0.834615
0.834613
0.834613
0.834611
0.83461
0.834608
0.834607
0.834607
0.834605
0.834604
0.834602
0.8346
0.8346
0.834599
0.834597
0.834596
0.834594
0.834594
0.834592
0.834591
0.834589
0.834588
0.834588
0.834586
0.834584
0.834583
0.834581
0.834581
0.834579
0.834578
0.834576
0.834575
0.834575
0.834573
0.834571
0.834569
0.834568
0.834568
0.834566
0.834564
0.834563
0.834561
0.834561
0.834559
0.834557
0.834556
0.834554
0.834554
0.834552
0.83455
0.834549
0.834547
0.834547
0.834545
0.834543
0.834541
0.83454
0.83454
0.834538
0.834536
0.834534
0.834532
0.834532
0.83453
0.834528
0.834527
0.834525
0.834525
0.834523
0.834521
0.834519
0.834517
0.834517
0.834515
0.834513
0.834511
0.834509
0.834509
0.834507
0.834505
0.834503
0.834501
0.834501
0.834499
0.834497
0.834495
0.834494
0.834494
0.834492
0.83449
0.834488
0.834486
0.834486
0.834484
0.834482
0.834479
0.834477
0.834477
0.834475
0.834473
0.834471
0.834469
0.834469
0.834467
0.834465
0.834463
0.834461
0.834461
0.834459
0.834457
0.834455
0.834453
0.834453
0.834451
0.834449
0.834447
0.834445
0.834445
0.834443
0.834441
0.834439
0.834437
0.834437
0.834435
0.834433
0.834431
0.834429
0.834429
0.834427
0.834425
0.834423
0.834421
0.834421
0.834419
0.834417
0.834415
0.834413
0.834413
0.834411
0.834409
0.834407
0.834405
0.834405
0.834403
0.834401
0.834399
0.834397
0.834397
0.834395
0.834393
0.834391
0.834389
0.834389
0.834387
0.834385
0.834383
0.834381
0.834381
0.834379
0.834377
0.834375
0.834373
0.834373
0.834371
0.834369
0.834367
0.834365
0.834365
0.834363
0.834361
0.834359
0.834357
0.834357
0.834355
0.834353
0.834351
0.834349
0.834349
0.834347
0.834345
0.834343
0.834341
0.834341
0.834339
0.834337
0.834335
0.834333
0.834333
0.834331
0.834329
0.834327
0.834325
0.834325
0.834323
0.834321
0.834319
0.834317
0.834317
0.834315
0.834313
0.834311
0.834309
0.834309
0.834307
0.834305
0.834303
0.834301
0.834301
0.834299
0.834297
0.834295
0.834293
0.834293
0.834291
0.834289
0.834287
0.834285
0.834285
0.834283
0.834282
0.83428
0.834278
0.834278
0.834276
0.834274
0.834272
0.83427
0.83427
0.834268
0.834266
0.834264
0.834262
0.834262
0.83426
0.834258
0.834256
0.834254
0.834254
0.834252
0.83425
0.834248
0.834246
0.834246
0.834244
0.834242
0.83424
0.834238
0.834238
0.834236
0.834234
0.834232
0.83423
0.83423
0.834228
0.834227
0.834225
0.834223
0.834223
0.834221
0.834219
0.834217
0.834215
0.834215
0.834213
0.834211
0.834209
0.834207
0.834207
0.834205
0.834203
0.834201
0.834199
0.834199
0.834197
0.834195
0.834193
0.834191
0.834191
0.83419
0.834188
0.834186
0.834184
0.834184
0.834182
0.83418
0.834178
0.834176
0.834176
0.834174
0.834172
0.83417
0.834168
0.834168
0.834166
0.834164
0.834162
0.834161
0.834161
0.834159
0.834157
0.834155
0.834153
0.834153
0.834151
0.834149
0.834147
0.834145
0.834145
0.834143
0.834141
0.834139
0.834137
0.834137
0.834136
0.834134
0.834132
0.83413
0.83413
0.834128
0.834126
0.834124
0.834122
0.834122
0.83412
0.834118
0.834116
0.834114
0.834114
0.834113
0.834111
0.834109
0.834107
0.834107
0.834105
0.834103
0.834101
0.834099
0.834099
0.834097
0.834095
0.834093
0.834091
0.834091
0.83409
0.834088
0.834086
0.834084
0.834084
0.834082
0.83408
0.834078
0.834076
0.834076
0.834074
0.834072
0.83407
0.834068
0.834068
0.834066
0.834064
0.834062
0.834061
0.834061
0.834059
0.834057
0.834055
0.834053
0.834053
0.834051
0.834049
0.834047
0.834045
0.834045
0.834043
0.83404
0.834038
0.834036
0.834036
0.834034
0.834032
0.83403
0.834028
0.834028
0.834026
0.834024
0.834022
0.83402
0.83402
0.834017
0.834015
0.834013
0.834011
0.834011
0.834009
0.834007
0.834005
0.834002
0.834002
0.834
0.833998
0.833996
0.833994
0.833994
0.833991
0.833989
0.833987
0.833985
0.833985
0.833982
0.83398
0.833978
0.833976
0.833976
0.833973
0.833971
0.833969
0.833966
0.833966
0.833964
0.833962
0.833959
0.833957
0.833957
0.833955
0.833952
0.83395
0.833948
0.833948
0.833945
0.833943
0.833941
0.833938
0.833938
0.833936
0.833934
0.833931
0.833929
0.833929
0.833927
0.833924
0.833922
0.833919
0.833919
0.833917
0.833915
0.833912
0.83391
0.83391
0.833908
0.833905
0.833903
0.8339
0.8339
0.833898
0.833896
0.833893
0.833891
0.833891
0.833889
0.833886
0.833884
0.833882
0.833882
0.833879
0.833877
0.833875
0.833872
0.833872
0.83387
0.833867
0.833865
0.833863
0.833863
0.83386
0.833858
0.833856
0.833853
0.833853
0.833851
0.833849
0.833846
0.833844
0.833844
0.833842
0.833839
0.833837
0.833835
0.833835
0.833832
0.83383
0.833827
0.833825
0.833825
0.833823
0.83382
0.833818
0.833816
0.833816
0.833813
0.833811
0.833809
0.833806
0.833806
0.833804
0.833802
0.833799
0.833797
0.833797
0.833795
0.833792
0.83379
0.833788
0.833788
0.833785
0.833783
0.833781
0.833778
0.833778
0.833776
0.833774
0.833771
0.833769
0.833769
0.833767
0.833765
0.833762
0.83376
0.83376
0.833758
0.833755
0.833753
0.833751
0.833751
0.833748
0.833746
0.833744
0.833741
0.833741
0.833739
0.833737
0.833734
0.833732
0.833732
0.83373
0.833728
0.833725
0.833723
0.833723
0.833721
0.833718
0.833716
0.833714
0.833714
0.833711
0.833709
0.833707
0.833704
0.833704
0.833702
0.8337
0.833698
0.833695
0.833695
0.833693
0.833691
0.833688
0.833686
0.833686
0.833684
0.833682
0.833679
0.833677
0.833677
0.833675
0.833672
0.83367
0.833668
0.833668
0.833666
0.833663
0.833661
0.833659
0.833659
0.833656
0.833654
0.833652
0.83365
0.83365
0.833647
0.833645
0.833643
0.833641
0.833641
0.833638
0.833636
0.833634
0.833631
0.833631
0.833629
0.833627
0.833625
0.833622
0.833622
0.83362
0.833618
0.833616
0.833613
0.833613
0.833611
0.833609
0.833607
0.833604
0.833604
0.833602
0.8336
0.833598
0.833595
0.833595
0.833593
0.833591
0.833589
0.833586
0.833586
0.833584
0.833582
0.83358
0.833577
0.833577
0.833575
0.833573
0.833571
0.833568
0.833568
0.833566
0.833564
0.833562
0.833559
0.833559
0.833557
0.833555
0.833553
0.83355
0.83355
0.833548
0.833546
0.833544
0.833541
0.833541
0.833539
0.833537
0.833535
0.833532
0.833532
0.83353
0.833528
0.833526
0.833523
0.833523
0.833521
0.833519
0.833516
0.833514
0.833514
0.833512
0.833509
0.833507
0.833505
0.833505
0.833502
0.8335
0.833498
0.833495
0.833495
0.833493
0.833491
0.833488
0.833486
0.833486
0.833483
0.833481
0.833479