<?xml version="1.0"?>
<VTKFile type="UnstructuredGrid" version="0.1" byte_order="LittleEndian">
<UnstructuredGrid>
<Piece NumberOfPoints="5000" NumberOfCells="4000">
<PointData Scalars="Reaction 0">
<DataArray type="Float32" Name="Reaction 0" format="ascii">
0.928746
0.928746
0.928746
0.928746
0.928746
0.928746
0.928746
0.928746
0.928746
0.928746
0.928746
0.928746
0.928746
0.928746
0.928746
0.928746
0.928746
0.928746
0.928746
0.928746
0.928746
0.928746
0.928746
0.928746
0.928746
0.928746
0.928746
0.928746
0.928746
0.928746
0.928746
0.928746
0.928746
0.928746
0.928746
0.928746
0.928746
0.928746
0.928746
0.928746
0.928746
0.928746
0.928746
0.928745
0.928745
0.928745
0.928745
0.928745
0.928745
0.928745
0.928745
0.928745
0.928745
0.928745
0.928745
0.928745
0.928745
0.928745
0.928745
0.928745
0.928745
0.928744
0.928744
0.928744
0.928744
0.928744
0.928744
0.928744
0.928744
0.928744
0.928744
0.928744
0.928744
0.928743
0.928743
0.928743
0.928743
0.928743
0.928743
0.928743
0.928743
0.928743
0.928743
0.928743
0.928743
0.928743
0.928742
0.928742
0.928742
0.928742
0.928742
0.928742
0.928742
0.928742
0.928742
0.928742
0.928741
0.928741
0.928741
0.928741
0.928741
0.928741
0.928741
0.928741
0.92874
0.92874
0.92874
0.92874
0.92874
0.92874
0.92874
0.92874
0.92874
0.928739
0.928739
0.928739
0.928739
0.928739
0.928739
0.928739
0.928739
0.928738
0.928738
0.928738
0.928738
0.928738
0.928738
0.928738
0.928737
0.928737
0.928737
0.928737
0.928737
0.928737
0.928736
0.928736
0.928736
0.928736
0.928736
0.928736
0.928736
0.928736
0.928735
0.928735
0.928735
0.928735
0.928735
0.928735
0.928734
0.928734
0.928734
0.928734
0.928734
0.928733
0.928733
0.928733
0.928733
0.928733
0.928733
0.928732
0.928732
0.928732
0.928732
0.928732
0.928731
0.928731
0.928731
0.928731
0.928731
0.928731
0.928731
0.92873
0.92873
0.92873
0.92873
0.92873
0.928729
0.928729
0.928729
0.928729
0.928729
0.928728
0.928728
0.928728
0.928728
0.928728
0.928727
0.928727
0.928727
0.928727
0.928727
0.928726
0.928726
0.928726
0.928726
0.928726
0.928725
0.928725
0.928725
0.928724
0.928724
0.928724
0.928724
0.928724
0.928723
0.928723
0.928723
0.928723
0.928722
0.928722
0.928722
0.928722
0.928722
0.928721
0.928721
0.928721
0.928721
0.92872
0.92872
0.92872
0.92872
0.92872
0.928719
0.928719
0.928719
0.928719
0.928718
0.928718
0.928718
0.928717
0.928717
0.928717
0.928717
0.928716
0.928716
0.928716
0.928716
0.928715
0.928715
0.928715
0.928715
0.928714
0.928714
0.928714
0.928713
0.928713
0.928713
0.928713
0.928712
0.928712
0.928712
0.928712
0.928711
0.928711
0.928711
0.928711
0.92871
0.92871
0.92871
0.928709
0.928709
0.928709
0.928709
0.928708
0.928708
0.928708
0.928707
0.928707
0.928707
0.928706
0.928706
0.928706
0.928706
0.928705
0.928705
0.928705
0.928704
0.928704
0.928704
0.928703
0.928703
0.928703
0.928703
0.928702
0.928702
0.928702
0.928701
0.928701
0.928701
0.9287
0.9287
0.9287
0.928699
0.928699
0.928699
0.928699
0.928698
0.928698
0.928697
0.928697
0.928697
0.928697
0.928696
0.928696
0.928695
0.928695
0.928695
0.928694
0.928694
0.928694
0.928694
0.928693
0.928693
0.928692
0.928692
0.928692
0.928691
0.928691
0.928691
0.92869
0.92869
0.92869
0.928689
0.928689
0.928688
0.928688
0.928688
0.928687
0.928687
0.928687
0.928687
0.928686
0.928686
0.928685
0.928685
0.928685
0.928684
0.928684
0.928683
0.928683
0.928683
0.928682
0.928682
0.928681
0.928681
0.928681
0.92868
0.92868
0.92868
0.928679
0.928679
0.928679
0.928678
0.928678
0.928677
0.928677
0.928677
0.928676
0.928676
0.928675
0.928675
0.928675
0.928674
0.928674
0.928673
0.928673
0.928673
0.928672
0.928672
0.928671
0.928671
0.928671
0.92867
0.92867
0.928669
0.928669
0.928669
0.928668
0.928668
0.928667
0.928667
0.928666
0.928666
0.928665
0.928665
0.928665
0.928664
0.928664
0.928663
0.928663
0.928663
0.928662
0.928662
0.928661
0.928661
0.928661
0.92866
0.92866
0.928659
0.928658
0.928658
0.928658
0.928657
0.928657
0.928656
0.928656
0.928656
0.928655
0.928655
0.928654
0.928654
0.928653
0.928653
0.928652
0.928652
0.928652
0.928651
0.928651
0.92865
0.928649
0.928649
0.928649
0.928648
0.928648
0.928647
0.928647
0.928647
0.928646
0.928645
0.928645
0.928645
0.928644
0.928644
0.928643
0.928642
0.928642
0.928642
0.928641
0.928641
0.92864
0.92864
0.928639
0.928639
0.928638
0.928638
0.928638
0.928637
0.928636
0.928636
0.928635
0.928635
0.928634
0.928634
0.928633
0.928633
0.928633
0.928632
0.928631
0.928631
0.92863
0.92863
0.928629
0.928629
0.928628
0.928628
0.928628
0.928627
0.928626
0.928626
0.928625
0.928625
0.928624
0.928624
0.928623
0.928622
0.928622
0.928622
0.928621
0.92862
0.92862
0.92862
0.928619
0.928618
0.928618
0.928617
0.928617
0.928616
0.928616
0.928615
0.928614
0.928614
0.928614
0.928613
0.928612
0.928612
0.928612
0.928611
0.92861
0.92861
0.928609
0.928609
0.928608
0.928608
0.928607
0.928606
0.928606
0.928606
0.928605
0.928604
0.928603
0.928603
0.928603
0.928602
0.928601
0.928601
0.928601
0.9286
0.928599
0.928599
0.928598
0.928598
0.928597
0.928596
0.928596
0.928595
0.928595
0.928594
0.928594
0.928593
0.928592
0.928592
0.928591
0.928591
0.92859
0.928589
0.928589
0.928588
0.928588
0.928587
0.928586
0.928586
0.928585
0.928585
0.928584
0.928583
0.928583
0.928582
0.928582
0.928581
0.92858
0.92858
0.928579
0.928579
0.928578
0.928577
0.928577
0.928576
0.928576
0.928575
0.928574
0.928574
0.928573
0.928573
0.928572
0.928571
0.928571
0.92857
0.92857
0.928569
0.928568
0.928568
0.928567
0.928566
0.928566
0.928565
0.928565
0.928564
0.928563
0.928562
0.928562
0.928562
0.928561
0.92856
0.928559
0.928558
0.928558
0.928558
0.928557
0.928556
0.928555
0.928555
0.928554
0.928554
0.928553
0.928552
0.928552
0.928551
0.92855
0.92855
0.928549
0.928549
0.928548
0.928547
0.928546
0.928545
0.928545
0.928545
0.928544
0.928543
0.928542
0.928542
0.928541
0.92854
0.92854
0.928539
0.928539
0.928538
0.928537
0.928536
0.928535
0.928535
0.928535
0.928534
0.928533
0.928532
0.928532
0.928531
0.92853
0.928529
0.928529
0.928529
0.928528
0.928527
0.928526
0.928525
0.928525
0.928524
0.928523
0.928522
0.928522
0.928522
0.928521
0.92852
0.928519
0.928518
0.928518
0.928517
0.928516
0.928515
0.928515
0.928515
0.928514
0.928513
0.928512
0.928511
0.928511
0.92851
0.928509
0.928508
0.928507
0.928507
0.928506
0.928506
0.928505
0.928504
0.928504
0.928503
0.928502
0.928501
0.9285
0.9285
0.928499
0.928498
0.928497
0.928496
0.928496
0.928495
0.928495
0.928494
0.928493
0.928493
0.928492
0.928491
0.92849
0.928489
0.928489
0.928488
0.928487
0.928486
0.928485
0.928485
0.928484
0.928483
0.928482
0.928481
0.928481
0.92848
0.92848
0.928479
0.928478
0.928478
0.928477
0.928476
0.928475
0.928474
0.928474
0.928473
0.928472
0.928471
0.92847
0.92847
0.928469
0.928468
0.928467
0.928466
0.928466
0.928465
0.928464
0.928463
0.928462
0.928462
0.928461
0.92846
0.928459
0.928458
0.928458
0.928457
0.928456
0.928455
0.928454
0.928454
0.928453
0.928452
0.928451
0.92845
0.92845
0.928449
0.928448
0.928447
0.928446
0.928446
0.928445
0.928444
0.928443
0.928442
0.928442
0.928441
0.92844
0.928439
0.928438
0.928438
0.928437
0.928436
0.928435
0.928434
0.928434
0.928433
0.928432
0.928431
0.92843
0.92843
0.928429
0.928428
0.928427
0.928426
0.928426
0.928425
0.928424
0.928423
0.928421
0.928421
0.92842
0.928419
0.928418
0.928417
0.928417
0.928416
0.928415
0.928414
0.928413
0.928413
0.928412
0.928411
0.92841
0.928409
0.928409
0.928408
0.928407
0.928406
0.928404
0.928404
0.928403
0.928402
0.928401
0.9284
0.9284
0.928399
0.928398
0.928397
0.928396
0.928396
0.928395
0.928394
0.928393
0.928391
0.928391
0.92839
0.928389
0.928388
0.928387
0.928387
0.928386
0.928385
0.928384
0.928383
0.928383
0.928381
0.92838
0.928379
0.928378
0.928378
0.928377
0.928376
0.928375
0.928374
0.928374
0.928373
0.928371
0.92837
0.928369
0.928369
0.928368
0.928367
0.928366
0.928365
0.928365
0.928363
0.928362
0.928361
0.92836
0.92836
0.928359
0.928358
0.928357
0.928355
0.928355
0.928354
0.928353
0.928352
0.928351
0.928351
0.92835
0.928349
0.928347
0.928346
0.928346
0.928345
0.928344
0.928343
0.928342
0.928342
0.92834
0.928339
0.928338
0.928337
0.928337
0.928336
0.928335
0.928333
0.928332
0.928332
0.928331
0.92833
0.928329
0.928327
0.928327
0.928326
0.928325
0.928324
0.928323
0.928323
0.928321
0.92832
0.928319
0.928318
0.928318
0.928317
0.928315
0.928314
0.928313
0.928313
0.928312
0.928311
0.928309
0.928308
0.928308
0.928307
0.928306
0.928305
0.928303
0.928303
0.928302
0.928301
0.9283
0.928298
0.928298
0.928297
0.928296
0.928295
0.928293
0.928293
0.928292
0.928291
0.92829
0.928289
0.928289
0.928287
0.928286
0.928285
0.928284
0.928284
0.928282
0.928281
0.92828
0.928279
0.928279
0.928277
0.928276
0.928275
0.928273
0.928273
0.928272
0.928271
0.92827
0.928268
0.928268
0.928267
0.928266
0.928265
0.928263
0.928263
0.928262
0.928261
0.92826
0.928258
0.928258
0.928257
0.928256
0.928254
0.928253
0.928253
0.928252
0.928251
0.928249
0.928248
0.928248
0.928247
0.928245
0.928244
0.928243
0.928243
0.928241
0.92824
0.928239
0.928238
0.928238
0.928236
0.928235
0.928234
0.928232
0.928232
0.928231
0.92823
0.928228
0.928227
0.928227
0.928226
0.928224
0.928223
0.928222
0.928222
0.92822
0.928219
0.928218
0.928216
0.928216
0.928215
0.928214
0.928212
0.928211
0.928211
0.92821
0.928208
0.928207
0.928206
0.928206
0.928204
0.928203
0.928202
0.9282
0.9282
0.928199
0.928198
0.928196
0.928195
0.928195
0.928193
0.928192
0.928191
0.928189
0.928189
0.928188
0.928187
0.928185
0.928184
0.928184
0.928183
0.928181
0.92818
0.928178
0.928178
0.928177
0.928176
0.928174
0.928173
0.928173
0.928171
0.92817
0.928169
0.928167
0.928167
0.928166
0.928165
0.928163
0.928162
0.928162
0.92816
0.928159
0.928158
0.928156
0.928156
0.928155
0.928153
0.928152
0.92815
0.92815
0.928149
0.928148
0.928146
0.928145
0.928145
0.928143
0.928142
0.928141
0.928139
0.928139
0.928138
0.928136
0.928135
0.928133
0.928133
0.928132
0.928131
0.928129
0.928128
0.928128
0.928126
0.928125
0.928123
0.928122
0.928122
0.92812
0.928119
0.928118
0.928116
0.928116
0.928115
0.928113
0.928112
0.92811
0.92811
0.928109
0.928107
0.928106
0.928104
0.928104
0.928103
0.928102
0.9281
0.928099
0.928099
0.928097
0.928096
0.928094
0.928093
0.928093
0.928091
0.92809
0.928088
0.928087
0.928087
0.928085
0.928084
0.928082
0.928081
0.928081
0.928079
0.928078
0.928076
0.928075
0.928075
0.928073
0.928072
0.92807
0.928069
0.928069
0.928067
0.928066
0.928064
0.928063
0.928063
0.928061
0.92806
0.928058
0.928057
0.928057
0.928055
0.928054
0.928052
0.928051
0.928051
0.928049
0.928048
0.928046
0.928044
0.928044
0.928043
0.928041
0.92804
0.928038
0.928038
0.928037
0.928035
0.928034
0.928032
0.928032
0.92803
0.928029
0.928027
0.928026
0.928026
0.928024
0.928023
0.928021
0.928019
0.928019
0.928018
0.928016
0.928015
0.928013
0.928013
0.928011
0.92801
0.928008
0.928007
0.928007
0.928005
0.928003
0.928002
0.928
0.928
0.927999
0.927997
0.927995
0.927994
0.927994
0.927992
0.92799
0.927989
0.927987
0.927987
0.927986
0.927984
0.927982
0.927981
0.927981
0.927979
0.927977
0.927976
0.927974
0.927974
0.927972
0.927971
0.927969
0.927968
0.927968
0.927966
0.927964
0.927963
0.927961
0.927961
0.927959
0.927957
0.927956
0.927954
0.927954
0.927952
0.927951
0.927949
0.927947
0.927947
0.927946
0.927944
0.927942
0.927941
0.927941
0.927939
0.927937
0.927935
0.927934
0.927934
0.927932
0.92793
0.927929
0.927927
0.927927
0.927925
0.927923
0.927922
0.92792
0.92792
0.927918
0.927917
0.927915
0.927913
0.927913
0.927911
0.92791
0.927908
0.927906
0.927906
0.927904
0.927903
0.927901
0.927899
0.927899
0.927897
0.927896
0.927894
0.927892
0.927892
0.92789
0.927889
0.927887
0.927885
0.927885
0.927883
0.927882
0.92788
0.927878
0.927878
0.927876
0.927874
0.927873
0.927871
0.927871
0.927869
0.927867
0.927866
0.927864
0.927864
0.927862
0.92786
0.927858
0.927857
0.927857
0.927855
0.927853
0.927851
0.927849
0.927849
0.927848
0.927846
0.927844
0.927842
0.927842
0.92784
0.927839
0.927837
0.927835
0.927835
0.927833
0.927831
0.92783
0.927828
0.927828
0.927826
0.927824
0.927822
0.92782
0.92782
0.927819
0.927817
0.927815
0.927813
0.927813
0.927811
0.927809
0.927808
0.927806
0.927806
0.927804
0.927802
0.9278
0.927798
0.927798
0.927797
0.927795
0.927793
0.927791
0.927791
0.927789
0.927787
0.927786
0.927784
0.927784
0.927782
0.92778
0.927778
0.927776
0.927776
0.927774
0.927772
0.927771
0.927769
0.927769
0.927767
0.927765
0.927763
0.927761
0.927761
0.927759
0.927758
0.927756
0.927754
0.927754
0.927752
0.92775
0.927748
0.927746
0.927746
0.927744
0.927742
0.927741
0.927739
0.927739
0.927737
0.927735
0.927733
0.927731
0.927731
0.927729
0.927727
0.927725
0.927723
0.927723
0.927721
0.92772
0.927718
0.927716
0.927716
0.927714
0.927712
0.92771
0.927708
0.927708
0.927706
0.927704
0.927702
0.9277
0.9277
0.927698
0.927697
0.927695
0.927693
0.927693
0.927691
0.927689
0.927687
0.927685
0.927685
0.927683
0.927681
0.927679
0.927677
0.927677
0.927675
0.927673
0.927671
0.927669
0.927669
0.927667
0.927665
0.927663
0.927661
0.927661
0.92766
0.927658
0.927656
0.927654
0.927654
0.927652
0.92765
0.927648
0.927646
0.927646
0.927644
0.927642
0.92764
0.927638
0.927638
0.927636
0.927634
0.927632
0.92763
0.92763
0.927628
0.927626
0.927624
0.927622
0.927622
0.92762
0.927618
0.927616
0.927614
0.927614
0.927612
0.92761
0.927608
0.927606
0.927606
0.927604
0.927602
0.9276
0.927598
0.927598
0.927596
0.927594
0.927592
0.92759
0.92759
0.927588
0.927586
0.927584
0.927582
0.927582
0.92758
0.927578
0.927576
0.927574
0.927574
0.927572
0.92757
0.927567
0.927565
0.927565
0.927563
0.927561
0.927559
0.927557
0.927557
0.927555
0.927553
0.927551
0.927549
0.927549
0.927547
0.927545
0.927543
0.927541
0.927541
0.927539
0.927537
0.927535
0.927533
0.927533
0.927531
0.927528
0.927526
0.927524
0.927524
0.927522
0.92752
0.927518
0.927516
0.927516
0.927514
0.927512
0.92751
0.927508
0.927508
0.927506
0.927504
0.927501
0.927499
0.927499
0.927497
0.927495
0.927493
0.927491
0.927491
0.927489
0.927487
0.927485
0.927483
0.927483
0.92748
0.927478
0.927476
0.927474
0.927474
0.927472
0.92747
0.927468
0.927466
0.927466
0.927464
0.927461
0.927459
0.927457
0.927457
0.927455
0.927453
0.927451
0.927449
0.927449
0.927447
0.927444
0.927442
0.92744
0.92744
0.927438
0.927436
0.927434
0.927432
0.927432
0.927429
0.927427
0.927425
0.927423
0.927423
0.927421
0.927419
0.927417
0.927414
0.927414
0.927412
0.92741
0.927408
0.927406
0.927406
0.927404
0.927401
0.927399
0.927397
0.927397
0.927395
0.927393
0.927391
0.927388
0.927388
0.927386
0.927384
0.927382
0.92738
0.92738
0.927378
0.927375
0.927373
0.927371
0.927371
0.927369
0.927367
0.927364
0.927362
0.927362
0.92736
0.927358
0.927356
0.927353
0.927353
0.927351
0.927349
0.927347
0.927345
0.927345
0.927342
0.92734
0.927338
0.927336
0.927336
0.927334
0.927331
0.927329
0.927327
0.927327
0.927325
0.927322
0.92732
0.927318
0.927318
0.927316
0.927314
0.927311
0.927309
0.927309
0.927307
0.927305
0.927302
0.9273
0.9273
0.927298
0.927296
0.927293
0.927291
0.927291
0.927289
0.927287
0.927284
0.927282
0.927282
0.92728
0.927278
0.927275
0.927273
0.927273
0.927271
0.927269
0.927266
0.927264
0.927264
0.927262
0.92726
0.927257
0.927255
0.927255
0.927253
0.927251
0.927248
0.927246
0.927246
0.927244
0.927241
0.927239
0.927237
0.927237
0.927235
0.927232
0.92723
0.927228
0.927228
0.927226
0.927223
0.927221
0.927219
0.927219
0.927216
0.927214
0.927212
0.927209
0.927209
0.927207
0.927205
0.927203
0.9272
0.9272
0.927198
0.927196
0.927193
0.927191
0.927191
0.927189
0.927186
0.927184
0.927182
0.927182
0.927179
0.927177
0.927175
0.927172
0.927172
0.92717
0.927168
0.927165
0.927163
0.927163
0.927161
0.927158
0.927156
0.927154
0.927154
0.927151
0.927149
0.927147
0.927144
0.927144
0.927142
0.92714
0.927137
0.927135
0.927135
0.927133
0.92713
0.927128
0.927126
0.927126
0.927123
0.927121
0.927119
0.927116
0.927116
0.927114
0.927111
0.927109
0.927107
0.927107
0.927104
0.927102
0.9271
0.927097
0.927097
0.927095
0.927093
0.92709
0.927088
0.927088
0.927085
0.927083
0.927081
0.927078
0.927078
0.927076
0.927073
0.927071
0.927069
0.927069
0.927066
0.927064
0.927061
0.927059
0.927059
0.927057
0.927054
0.927052
0.927049
0.927049
0.927047
0.927045
0.927042
0.92704
0.92704
0.927037
0.927035
0.927033
0.92703
0.92703
0.927028
0.927025
0.927023
0.92702
0.92702
0.927018
0.927016
0.927013
0.927011
0.927011
0.927008
0.927006
0.927003
0.927001
0.927001
0.926999
0.926996
0.926994
0.926991
0.926991
0.926989
0.926986
0.926984
0.926981
0.926981
0.926979
0.926977
0.926974
0.926972
0.926972
0.926969
0.926967
0.926964
0.926962
0.926962
0.926959
0.926957
0.926954
0.926952
0.926952
0.926949
0.926947
0.926944
0.926942
0.926942
0.926939
0.926937
0.926934
0.926932
0.926932
0.926929
0.926927
0.926924
0.926922
0.926922
0.926919
0.926917
0.926914
0.926912
0.926912
0.926909
0.926906
0.926904
0.926901
0.926901
0.926899
0.926896
0.926894
0.926891
0.926891
0.926889
0.926886
0.926883
0.926881
0.926881
0.926878
0.926876
0.926873
0.926871
0.926871
0.926868
0.926865
0.926863
0.92686
0.92686
0.926858
0.926855
0.926853
0.92685
0.92685
0.926847
0.926845
0.926842
0.92684
0.92684
0.926837
0.926834
0.926832
0.926829
0.926829
0.926826
0.926824
0.926821
0.926819
0.926819
0.926816
0.926813
0.926811
0.926808
0.926808
0.926805
0.926803
0.9268
0.926797
0.926797
0.926795
0.926792
0.926789
0.926787
0.926787
0.926784
0.926781
0.926779
0.926776
0.926776
0.926773
0.926771
0.926768
0.926765
0.926765
0.926763
0.92676
0.926757
0.926755
0.926755
0.926752
0.926749
0.926747
0.926744
0.926744
0.926741
0.926738
0.926736
0.926733
0.926733
0.92673
0.926728
0.926725
0.926722
0.926722
0.926719
0.926717
0.926714
0.926711
0.926711
0.926709
0.926706
0.926703
0.9267
0.9267
0.926698
0.926695
0.926692
0.926689
0.926689
0.926687
0.926684
0.926681
0.926678
0.926678
0.926676
0.926673
0.92667
0.926667
0.926667
0.926665
0.926662
0.926659
0.926656
0.926656
0.926654
0.926651
0.926648
0.926645
0.926645
0.926643
0.92664
0.926637
0.926634
0.926634
0.926632
0.926629
0.926626
0.926623
0.926623
0.926621
0.926618
0.926615
0.926612
0.926612
0.926609
0.926607
0.926604
0.926601
0.926601
0.926598
0.926595
0.926593
0.92659
0.92659
0.926587
0.926584
0.926582
0.926579
0.926579
0.926576
0.926573
0.92657
0.926568
0.926568
0.926565
0.926562
0.926559
0.926556
0.926556
0.926553
0.926551
0.926548
0.926545
0.926545
0.926542
0.926539
0.926537
0.926534
0.926534
0.926531
0.926528
0.926525
0.926522
0.926522
0.92652
0.926517
0.926514
0.926511
0.926511
0.926508
0.926505
0.926503
0.9265
0.9265
0.926497
0.926494
0.926491
0.926488
0.926488
0.926486
0.926483
0.92648
0.926477
0.926477
0.926474
0.926471
0.926468
0.926466
0.926466
0.926463
0.92646
0.926457
0.926454
0.926454
0.926451
0.926448
0.926445
0.926443
0.926443
0.92644
0.926437
0.926434
0.926431
0.926431
0.926428
0.926425
0.926422
0.92642
0.92642
0.926417
0.926414
0.926411
0.926408
0.926408
0.926405
0.926402
0.926399
0.926396
0.926396
0.926394
0.926391
0.926388
0.926385
0.926385
0.926382
0.926379
0.926376
0.926373
0.926373
0.92637
0.926367
0.926365
0.926362
0.926362
0.926359
0.926356
0.926353
0.92635
0.92635
0.926347
0.926344
0.926341
0.926338
0.926338
0.926335
0.926332
0.926329
0.926327
0.926327
0.926324
0.926321
0.926318
0.926315
0.926315
0.926312
0.926309
0.926306
0.926303
0.926303
0.9263
0.926297
0.926294
0.926291
0.926291
0.926288
0.926285
0.926282
0.926279
0.926279
0.926276
0.926273
0.926271
0.926268
0.926268
0.926265
0.926262
0.926259
0.926256
0.926256
0.926253
0.92625
0.926247
0.926244
0.926244
0.926241
0.926238
0.926235
0.926232
0.926232
0.926229
0.926226
0.926223
0.92622
0.92622
0.926217
0.926214
0.926211
0.926208
0.926208
0.926205
0.926202
0.926199
0.926196
0.926196
0.926193
0.92619
0.926187
0.926184
0.926184
0.926181
0.926178
0.926175
0.926172
0.926172
0.926169
0.926166
0.926163
0.92616
0.92616
0.926157
0.926154
0.926151
0.926148
0.926148
0.926145
0.926142
0.926139
0.926136
0.926136
0.926133
0.92613
0.926127
0.926124
0.926124
0.926121
0.926118
0.926115
0.926111
0.926111
0.926108
0.926105
0.926102
0.926099
0.926099
0.926096
0.926093
0.92609
0.926087
0.926087
0.926084
0.926081
0.926078
0.926075
0.926075
0.926072
0.926069
0.926066
0.926063
0.926063
0.92606
0.926057
0.926053
0.92605
0.92605
0.926047
0.926044
0.926041
0.926038
0.926038
0.926035
0.926032
0.926029
0.926026
0.926026
0.926023
0.92602
0.926017
0.926013
0.926013
0.92601
0.926007
0.926004
0.926001
0.926001
0.925998
0.925995
0.925992
0.925989
0.925989
0.925986
0.925982
0.925979
0.925976
0.925976
0.925973
0.92597
0.925967
0.925964
0.925964
0.925961
0.925958
0.925954
0.925951
0.925951
0.925948
0.925945
0.925942
0.925939
0.925939
0.925936
0.925933
0.92593
0.925926
0.925926
0.925923
0.92592
0.925917
0.925914
0.925914
0.925911
0.925908
0.925904
0.925901
0.925901
0.925898
0.925895
0.925892
0.925889
0.925889
0.925886
0.925882
0.925879
0.925876
0.925876
0.925873
0.92587
0.925867
0.925863
0.925863
0.92586
0.925857
0.925854
0.925851
0.925851
0.925847
0.925844
0.925841
0.925838
0.925838
0.925835
0.925831
0.925828
0.925825
0.925825
0.925822
0.925819
0.925815
0.925812
0.925812
0.925809
0.925806
0.925802
0.925799
0.925799
0.925796
0.925793
0.925789
0.925786
0.925786
0.925783
0.92578
0.925776
0.925773
0.925773
0.92577
0.925767
0.925763
0.92576
0.92576
0.925757
0.925753
0.92575
0.925747
0.925747
0.925744
0.92574
0.925737
0.925734
0.925734
0.925731
0.925727
0.925724
0.925721
0.925721
0.925717
0.925714
0.925711
0.925707
0.925707
0.925704
0.925701
0.925698
0.925694
0.925694
0.925691
0.925688
0.925684
0.925681
0.925681
0.925678
0.925674
0.925671
0.925668
0.925668
0.925664
0.925661
0.925657
0.925654
0.925654
0.925651
0.925647
0.925644
0.925641
0.925641
0.925637
0.925634
0.92563
0.925627
0.925627
0.925624
0.92562
0.925617
0.925613
0.925613
0.92561
0.925607
0.925603
0.9256
0.9256
0.925596
0.925593
0.92559
0.925586
0.925586
0.925583
0.925579
0.925576
0.925573
0.925573
0.925569
0.925566
0.925562
0.925559
0.925559
0.925555
0.925552
0.925549
0.925545
0.925545
0.925542
0.925538
0.925535
0.925531
0.925531
0.925528
0.925525
0.925521
0.925518
0.925518
0.925514
0.925511
0.925507
0.925504
0.925504
0.9255
0.925497
0.925493
0.92549
0.92549
0.925487
0.925483
0.92548
0.925476
0.925476
0.925473
0.925469
0.925466
0.925462
0.925462
0.925459
0.925455
0.925452
0.925448
0.925448
0.925445
0.925441
0.925438
0.925434
0.925434
0.925431
0.925428
0.925424
0.925421
0.925421
0.925417
0.925414
0.92541
0.925407
0.925407
0.925403
0.9254
0.925396
0.925393
0.925393
0.925389
0.925386
0.925382
0.925379
0.925379
0.925375
0.925372
0.925368
0.925365
0.925365
0.925361
0.925358
0.925354
0.925351
0.925351
0.925347
0.925343
0.92534
0.925336
0.925336
0.925333
0.925329
0.925326
0.925322
0.925322
0.925319
0.925315
0.925312
0.925308
0.925308
0.925305
0.925301
0.925298
0.925294
0.925294
0.925291
0.925287
0.925283
0.92528
0.92528
0.925276
0.925273
0.925269
0.925266
0.925266
0.925262
0.925259
0.925255
0.925252
0.925252
0.925248
0.925244
0.925241
0.925237
0.925237
0.925234
0.92523
0.925227
0.925223
0.925223
0.925219
0.925216
0.925212
0.925209
0.925209
0.925205
0.925202
0.925198
0.925194
0.925194
0.925191
0.925187
0.925184
0.92518
0.92518
0.925176
0.925173
0.925169
0.925166
0.925166
0.925162
0.925159
0.925155
0.925151
0.925151
0.925148
0.925144
0.925141
0.925137
0.925137
0.925133
0.92513
0.925126
0.925123
0.925123
0.925119
0.925115
0.925112
0.925108
0.925108
0.925104
0.925101
0.925097
0.925094
0.925094
0.92509
0.925086
0.925083
0.925079
0.925079
0.925076
0.925072
0.925068
0.925065
0.925065
0.925061
0.925057
0.925054
0.92505
0.92505
0.925046
0.925043
0.925039
0.925036
0.925036
0.925032
0.925028
0.925025
0.925021
0.925021
0.925017
0.925014
0.92501
0.925006
0.925006
0.925003
0.924999
0.924995
0.924992
0.924992
0.924988
0.924984
0.924981
0.924977
0.924977
0.924973
0.92497
0.924966
0.924962
0.924962
0.924959
0.924955
0.924951
0.924948
0.924948
0.924944
0.92494
0.924937
0.924933
0.924933
0.924929
0.924926
0.924922
0.924918
0.924918
0.924915
0.924911
0.924907
0.924904
0.924904
0.9249
0.924896
0.924892
0.924889
0.924889
0.924885
0.924881
0.924878
0.924874
0.924874
0.92487
0.924867
0.924863
0.924859
0.924859
0.924855
0.924852
0.924848
0.924844
0.924844
0.924841
0.924837
0.924833
0.924829
0.924829
0.924826
0.924822
0.924818
0.924814
0.924814
0.924811
0.924807
0.924803
0.9248
0.9248
0.924796
0.924792
0.924788
0.924785
0.924785
0.924781
0.924777
0.924773
0.92477
0.92477
0.924766
0.924762
0.924758
0.924754
0.924754
0.924751
0.924747
0.924743
0.924739
0.924739
0.924736
0.924732
0.924728
0.924724
0.924724
0.92472
0.924717
0.924713
0.924709
0.924709
0.924705
0.924701
0.924698
0.924694
0.924694
0.92469
0.924686
0.924682
0.924678
0.924678
0.924674
0.924671
0.924667
0.924663
0.924663
0.924659
0.924655
0.924651
0.924647
0.924647
0.924644
0.92464
0.924636
0.924632
0.924632
0.924628
0.924624
0.92462
0.924617
0.924617
0.924613
0.924609
0.924605
0.924601
0.924601
0.924597
0.924593
0.924589
0.924586
0.924586
0.924582
0.924578
0.924574
0.92457
0.92457
0.924566
0.924562
0.924558
0.924554
0.924554
0.92455
0.924546
0.924542
0.924539
0.924539
0.924535
0.924531
0.924527
0.924523
0.924523
0.924519
0.924515
0.924511
0.924507
0.924507
0.924503
0.924499
0.924495
0.924491
0.924491
0.924487
0.924483
0.924479
0.924475
0.924475
0.924471
0.924467
0.924463
0.924459
0.924459
0.924455
0.924451
0.924447
0.924443
0.924443
0.924439
0.924435
0.924431
0.924427
0.924427
0.924423
0.924419
0.924415
0.924411
0.924411
0.924407
0.924403
0.924399
0.924395
0.924395
0.924391
0.924387
0.924383
0.924379
0.924379
0.924375
0.924371
0.924367
0.924363
0.924363
0.924359
0.924355
0.924351
0.924347
0.924347
0.924343
0.924338
0.924334
0.92433
0.92433
0.924326
0.924322
0.924318
0.924314
0.924314
0.92431
0.924306
0.924302
0.924298
0.924298
0.924294
0.92429
0.924286
0.924282
0.924282
0.924278
0.924274
0.924269
0.924265
0.924265
0.924261
0.924257
0.924253
0.924249
0.924249
0.924245
0.924241
0.924237
0.924233
0.924233
0.924229
0.924225
0.924221
0.924216
0.924216
0.924212
0.924208
0.924204
0.9242
0.9242
0.924196
0.924192
0.924188
0.924184
0.924184
0.92418
0.924176
0.924171
0.924167
0.924167
0.924163
0.924159
0.924155
0.924151
0.924151
0.924147
0.924143
0.924139
0.924134
0.924134
0.92413
0.924126
0.924122
0.924118
0.924118
0.924114
0.92411
0.924106
0.924101
0.924101
0.924097
0.924093
0.924089
0.924085
0.924085
0.924081
0.924077
0.924073
0.924068
0.924068
0.924064
0.92406
0.924056
0.924052
0.924052
0.924048
0.924044
0.924039
0.924035
0.924035
0.924031
0.924027
0.924023
0.924019
0.924019
0.924015
0.92401
0.924006
0.924002
0.924002
0.923998
0.923994
0.92399
0.923985
0.923985
0.923981
0.923977
0.923973
0.923969
0.923969
0.923965
0.92396
0.923956
0.923952
0.923952
0.923948
0.923944
0.92394
0.923935
0.923935
0.923931
0.923927
0.923923
0.923919
0.923919
0.923914
0.92391
0.923906
0.923902
0.923902
0.923898
0.923894
0.923889
0.923885
0.923885
0.923881
0.923877
0.923873
0.923868
0.923868
0.923864
0.92386
0.923856
0.923852
0.923852
0.923847
0.923843
0.923839
0.923835
0.923835
0.92383
0.923826
0.923822
0.923818
0.923818
0.923814
0.923809
0.923805
0.923801
0.923801
0.923797
0.923793
0.923788
0.923784
0.923784
0.92378
0.923776
0.923771
0.923767
0.923767
0.923763
0.923759
0.923754
0.92375
0.92375
0.923746
0.923742
0.923737
0.923733
0.923733
0.923729
0.923725
0.92372
0.923716
0.923716
0.923712
0.923708
0.923703
0.923699
0.923699
0.923695
0.923691
0.923686
0.923682
0.923682
0.923678
0.923674
0.923669
0.923665
0.923665
0.923661
0.923656
0.923652
0.923648
0.923648
0.923643
0.923639
0.923635
0.923631
0.923631
0.923626
0.923622
0.923618
0.923613
0.923613
0.923609
0.923605
0.9236
0.923596
0.923596
0.923592
0.923587
0.923583
0.923579
0.923579
0.923574
0.92357
0.923565
0.923561
0.923561
0.923557
0.923552
0.923548
0.923543
0.923543
0.923539
0.923535
0.92353
0.923526
0.923526
0.923522
0.923517
0.923513
0.923508
0.923508
0.923504
0.9235
0.923495
0.923491
0.923491
0.923486
0.923482
0.923478
0.923473
0.923473
0.923469
0.923464
0.92346
0.923456
0.923456
0.923451
0.923447
0.923442
0.923438
0.923438
0.923433
0.923429
0.923425
0.92342
0.92342
0.923416
0.923411
0.923407
0.923402
0.923402
0.923398
0.923393
0.923389
0.923384
0.923384
0.92338
0.923375
0.923371
0.923366
0.923366
0.923362
0.923357
0.923353
0.923348
0.923348
0.923344
0.923339
0.923335
0.92333
0.92333
0.923326
0.923321
0.923317
0.923312
0.923312
0.923308
0.923303
0.923299
0.923294
0.923294
0.92329
0.923285
0.923281
0.923276
0.923276
0.923272
0.923267
0.923262
0.923258
0.923258
0.923253
0.923249
0.923244
0.92324
0.92324
0.923235
0.923231
0.923226
0.923222
0.923222
0.923217
0.923212
0.923208
0.923203
0.923203
0.923199
0.923194
0.92319
0.923185
0.923185
0.92318
0.923176
0.923171
0.923167
0.923167
0.923162
0.923158
0.923153
0.923148
0.923148
0.923144
0.923139
0.923135
0.92313
0.92313
0.923126
0.923121
0.923116
0.923112
0.923112
0.923107
0.923103
0.923098
0.923093
0.923093
0.923089
0.923084
0.92308
0.923075
0.923075
0.92307
0.923066
0.923061
0.923057
0.923057
0.923052
0.923047
0.923043
0.923038
0.923038
0.923034
0.923029
0.923024
0.92302
0.92302
0.923015
0.92301
0.923006
0.923001
0.923001
0.922997
0.922992
0.922987
0.922983
0.922983
0.922978
0.922973
0.922969
0.922964
0.922964
0.92296
0.922955
0.92295
0.922946
0.922946
0.922941
0.922936
0.922932
0.922927
0.922927
0.922922
0.922918
0.922913
0.922909
0.922909
0.922904
0.922899
0.922895
0.92289
0.92289
0.922885
0.922881
0.922876
0.922871
0.922871
0.922867
0.922862
0.922857
0.922853
0.922853
0.922848
0.922843
0.922839
0.922834
0.922834
0.922829
0.922825
0.92282
0.922815
0.922815
0.922811
0.922806
0.922801
0.922797
0.922797
0.922792
0.922787
0.922783
0.922778
0.922778
0.922773
0.922769
0.922764
0.922759
0.922759
0.922755
0.92275
0.922745
0.92274
0.92274
0.922736
0.922731
0.922726
0.922722
0.922722
0.922717
0.922712
0.922708
0.922703
0.922703
0.922698
0.922693
0.922689
0.922684
0.922684
0.922679
0.922675
0.92267
0.922665
0.922665
0.92266
0.922656
0.922651
0.922646
0.922646
0.922642
0.922637
0.922632
0.922627
0.922627
0.922623
0.922618
0.922613
0.922608
0.922608
0.922604
0.922599
0.922594
0.92259
0.92259
0.922585
0.92258
0.922575
0.92257
0.92257
0.922566
0.922561
0.922556
0.922551
0.922551
0.922547
0.922542
0.922537
0.922532
0.922532
0.922527
0.922523
0.922518
0.922513
0.922513
0.922508
0.922503
0.922499
0.922494
0.922494
0.922489
0.922484
0.922479
0.922474
0.922474
0.92247
0.922465
0.92246
0.922455
0.922455
0.92245
0.922445
0.92244
0.922436