<?xml version="1.0"?>
<VTKFile type="UnstructuredGrid" version="0.1" byte_order="LittleEndian">
<UnstructuredGrid>
<Piece NumberOfPoints="5000" NumberOfCells="4000">
<PointData Scalars="Reaction 0">
<DataArray type="Float32" Name="Reaction 0" format="ascii">
0.549348
0.549348
0.549348
0.549348
0.549348
0.549348
0.549348
0.549348
0.549348
0.549348
0.549348
0.549349
0.549349
0.549349
0.549349
0.549349
0.54935
0.54935
0.54935
0.549351
0.549351
0.549351
0.549352
0.549352
0.549352
0.549352
0.549353
0.549353
0.549354
0.549355
0.549355
0.549355
0.549356
0.549356
0.549357
0.549357
0.549358
0.549359
0.549359
0.54936
0.54936
0.549361
0.549362
0.549363
0.549363
0.549363
0.549364
0.549365
0.549366
0.549367
0.549367
0.549368
0.549369
0.54937
0.549371
0.549371
0.549372
0.549373
0.549374
0.549376
0.549376
0.549377
0.549378
0.549379
0.54938
0.54938
0.549382
0.549383
0.549384
0.549386
0.549386
0.549387
0.549389
0.54939
0.549391
0.549391
0.549393
0.549394
0.549396
0.549397
0.549397
0.549399
0.549401
0.549402
0.549404
0.549404
0.549406
0.549407
0.549409
0.549411
0.549411
0.549412
0.549414
0.549416
0.549418
0.549418
0.54942
0.549422
0.549424
0.549425
0.549425
0.549427
0.549429
0.549431
0.549433
0.549433
0.549435
0.549438
0.54944
0.549442
0.549442
0.549444
0.549446
0.549448
0.549451
0.549451
0.549453
0.549455
0.549457
0.54946
0.54946
0.549462
0.549464
0.549467
0.549469
0.549469
0.549472
0.549474
0.549477
0.549479
0.549479
0.549482
0.549484
0.549487
0.549489
0.549489
0.549492
0.549495
0.549497
0.5495
0.5495
0.549503
0.549506
0.549508
0.549511
0.549511
0.549514
0.549517
0.54952
0.549523
0.549523
0.549526
0.549529
0.549532
0.549535
0.549535
0.549538
0.549541
0.549544
0.549547
0.549547
0.54955
0.549553
0.549556
0.54956
0.54956
0.549563
0.549566
0.549569
0.549573
0.549573
0.549576
0.549579
0.549583
0.549586
0.549586
0.549589
0.549593
0.549596
0.5496
0.5496
0.549603
0.549607
0.54961
0.549614
0.549614
0.549618
0.549621
0.549625
0.549629
0.549629
0.549632
0.549636
0.54964
0.549644
0.549644
0.549647
0.549651
0.549655
0.549659
0.549659
0.549663
0.549667
0.549671
0.549675
0.549675
0.549679
0.549683
0.549687
0.549691
0.549691
0.549695
0.549699
0.549703
0.549707
0.549707
0.549712
0.549716
0.54972
0.549724
0.549724
0.549729
0.549733
0.549737
0.549742
0.549742
0.549746
0.54975
0.549755
0.549759
0.549759
0.549764
0.549768
0.549773
0.549777
0.549777
0.549782
0.549787
0.549791
0.549796
0.549796
0.549801
0.549805
0.54981
0.549815
0.549815
0.54982
0.549824
0.549829
0.549834
0.549834
0.549839
0.549844
0.549849
0.549854
0.549854
0.549859
0.549864
0.549869
0.549874
0.549874
0.549879
0.549884
0.549889
0.549894
0.549894
0.549899
0.549905
0.54991
0.549915
0.549915
0.54992
0.549926
0.549931
0.549936
0.549936
0.549942
0.549947
0.549952
0.549958
0.549958
0.549963
0.549969
0.549974
0.54998
0.54998
0.549985
0.549991
0.549997
0.550002
0.550002
0.550008
0.550014
0.550019
0.550025
0.550025
0.550031
0.550037
0.550042
0.550048
0.550048
0.550054
0.55006
0.550066
0.550072
0.550072
0.550078
0.550084
0.55009
0.550096
0.550096
0.550102
0.550108
0.550114
0.55012
0.55012
0.550126
0.550132
0.550138
0.550145
0.550145
0.550151
0.550157
0.550163
0.55017
0.55017
0.550176
0.550182
0.550189
0.550195
0.550195
0.550202
0.550208
0.550215
0.550221
0.550221
0.550228
0.550234
0.550241
0.550247
0.550247
0.550254
0.550261
0.550267
0.550274
0.550274
0.550281
0.550288
0.550294
0.550301
0.550301
0.550308
0.550315
0.550322
0.550329
0.550329
0.550336
0.550342
0.550349
0.550356
0.550356
0.550363
0.55037
0.550378
0.550385
0.550385
0.550392
0.550399
0.550406
0.550413
0.550413
0.55042
0.550428
0.550435
0.550442
0.550442
0.55045
0.550457
0.550464
0.550472
0.550472
0.550479
0.550486
0.550494
0.550501
0.550501
0.550509
0.550516
0.550524
0.550532
0.550532
0.550539
0.550547
0.550554
0.550562
0.550562
0.55057
0.550578
0.550585
0.550593
0.550593
0.550601
0.550609
0.550617
0.550624
0.550624
0.550632
0.55064
0.550648
0.550656
0.550656
0.550664
0.550672
0.55068
0.550688
0.550688
0.550696
0.550704
0.550713
0.550721
0.550721
0.550729
0.550737
0.550745
0.550754
0.550754
0.550762
0.55077
0.550779
0.550787
0.550787
0.550795
0.550804
0.550812
0.550821
0.550821
0.550829
0.550838
0.550846
0.550855
0.550855
0.550863
0.550872
0.55088
0.550889
0.550889
0.550898
0.550907
0.550915
0.550924
0.550924
0.550933
0.550942
0.55095
0.550959
0.550959
0.550968
0.550977
0.550986
0.550995
0.550995
0.551004
0.551013
0.551022
0.551031
0.551031
0.55104
0.551049
0.551058
0.551067
0.551067
0.551076
0.551086
0.551095
0.551104
0.551104
0.551113
0.551123
0.551132
0.551141
0.551141
0.551151
0.55116
0.551169
0.551179
0.551179
0.551188
0.551198
0.551207
0.551217
0.551217
0.551226
0.551236
0.551245
0.551255
0.551255
0.551265
0.551274
0.551284
0.551294
0.551294
0.551304
0.551313
0.551323
0.551333
0.551333
0.551343
0.551353
0.551363
0.551372
0.551372
0.551382
0.551392
0.551402
0.551412
0.551412
0.551422
0.551432
0.551443
0.551453
0.551453
0.551463
0.551473
0.551483
0.551493
0.551493
0.551504
0.551514
0.551524
0.551534
0.551534
0.551545
0.551555
0.551566
0.551576
0.551576
0.551586
0.551597
0.551607
0.551618
0.551618
0.551628
0.551639
0.551649
0.55166
0.55166
0.551671
0.551681
0.551692
0.551703
0.551703
0.551713
0.551724
0.551735
0.551746
0.551746
0.551756
0.551767
0.551778
0.551789
0.551789
0.5518
0.551811
0.551822
0.551833
0.551833
0.551844
0.551855
0.551866
0.551877
0.551877
0.551888
0.551899
0.55191
0.551922
0.551922
0.551933
0.551944
0.551955
0.551967
0.551967
0.551978
0.551989
0.552001
0.552012
0.552012
0.552023
0.552035
0.552046
0.552058
0.552058
0.552069
0.552081
0.552092
0.552104
0.552104
0.552116
0.552127
0.552139
0.55215
0.55215
0.552162
0.552174
0.552186
0.552197
0.552197
0.552209
0.552221
0.552233
0.552245
0.552245
0.552257
0.552268
0.55228
0.552292
0.552292
0.552304
0.552316
0.552328
0.55234
0.55234
0.552353
0.552365
0.552377
0.552389
0.552389
0.552401
0.552413
0.552426
0.552438
0.552438
0.55245
0.552462
0.552475
0.552487
0.552487
0.552499
0.552512
0.552524
0.552537
0.552537
0.552549
0.552562
0.552574
0.552587
0.552587
0.552599
0.552612
0.552625
0.552637
0.552637
0.55265
0.552663
0.552675
0.552688
0.552688
0.552701
0.552714
0.552726
0.552739
0.552739
0.552752
0.552765
0.552778
0.552791
0.552791
0.552804
0.552817
0.55283
0.552843
0.552843
0.552856
0.552869
0.552882
0.552895
0.552895
0.552908
0.552922
0.552935
0.552948
0.552948
0.552961
0.552975
0.552988
0.553001
0.553001
0.553015
0.553028
0.553041
0.553055
0.553055
0.553068
0.553082
0.553095
0.553109
0.553109
0.553122
0.553136
0.553149
0.553163
0.553163
0.553177
0.55319
0.553204
0.553218
0.553218
0.553231
0.553245
0.553259
0.553273
0.553273
0.553287
0.553301
0.553314
0.553328
0.553328
0.553342
0.553356
0.55337
0.553384
0.553384
0.553398
0.553412
0.553426
0.553441
0.553441
0.553455
0.553469
0.553483
0.553497
0.553497
0.553511
0.553526
0.55354
0.553554
0.553554
0.553569
0.553583
0.553597
0.553612
0.553612
0.553626
0.553641
0.553655
0.55367
0.55367
0.553684
0.553699
0.553713
0.553728
0.553728
0.553742
0.553757
0.553772
0.553786
0.553786
0.553801
0.553816
0.553831
0.553845
0.553845
0.55386
0.553875
0.55389
0.553905
0.553905
0.55392
0.553935
0.55395
0.553965
0.553965
0.55398
0.553995
0.55401
0.554025
0.554025
0.55404
0.554055
0.55407
0.554085
0.554085
0.554101
0.554116
0.554131
0.554146
0.554146
0.554162
0.554177
0.554192
0.554208
0.554208
0.554223
0.554239
0.554254
0.554269
0.554269
0.554285
0.5543
0.554316
0.554332
0.554332
0.554347
0.554363
0.554378
0.554394
0.554394
0.55441
0.554426
0.554441
0.554457
0.554457
0.554473
0.554489
0.554505
0.55452
0.55452
0.554536
0.554552
0.554568
0.554584
0.554584
0.5546
0.554616
0.554632
0.554648
0.554648
0.554664
0.55468
0.554696
0.554713
0.554713
0.554729
0.554745
0.554761
0.554778
0.554778
0.554794
0.55481
0.554826
0.554843
0.554843
0.554859
0.554876
0.554892
0.554908
0.554908
0.554925
0.554941
0.554958
0.554974
0.554974
0.554991
0.555008
0.555024
0.555041
0.555041
0.555058
0.555074
0.555091
0.555108
0.555108
0.555125
0.555141
0.555158
0.555175
0.555175
0.555192
0.555209
0.555226
0.555243
0.555243
0.55526
0.555277
0.555294
0.555311
0.555311
0.555328
0.555345
0.555362
0.555379
0.555379
0.555396
0.555413
0.555431
0.555448
0.555448
0.555465
0.555482
0.5555
0.555517
0.555517
0.555534
0.555552
0.555569
0.555586
0.555586
0.555604
0.555621
0.555639
0.555656
0.555656
0.555674
0.555692
0.555709
0.555727
0.555727
0.555744
0.555762
0.55578
0.555798
0.555798
0.555815
0.555833
0.555851
0.555869
0.555869
0.555886
0.555904
0.555922
0.55594
0.55594
0.555958
0.555976
0.555994
0.556012
0.556012
0.55603
0.556048
0.556066
0.556084
0.556084
0.556102
0.556121
0.556139
0.556157
0.556157
0.556175
0.556194
0.556212
0.55623
0.55623
0.556248
0.556267
0.556285
0.556304
0.556304
0.556322
0.55634
0.556359
0.556377
0.556377
0.556396
0.556415
0.556433
0.556452
0.556452
0.55647
0.556489
0.556508
0.556526
0.556526
0.556545
0.556564
0.556583
0.556601
0.556601
0.55662
0.556639
0.556658
0.556677
0.556677
0.556696
0.556715
0.556734
0.556753
0.556753
0.556772
0.556791
0.55681
0.556829
0.556829
0.556848
0.556867
0.556886
0.556905
0.556905
0.556925
0.556944
0.556963
0.556982
0.556982
0.557002
0.557021
0.55704
0.55706
0.55706
0.557079
0.557099
0.557118
0.557138
0.557138
0.557157
0.557177
0.557196
0.557216
0.557216
0.557235
0.557255
0.557275
0.557294
0.557294
0.557314
0.557334
0.557353
0.557373
0.557373
0.557393
0.557413
0.557433
0.557453
0.557453
0.557472
0.557492
0.557512
0.557532
0.557532
0.557552
0.557572
0.557592
0.557612
0.557612
0.557633
0.557653
0.557673
0.557693
0.557693
0.557713
0.557733
0.557754
0.557774
0.557774
0.557794
0.557814
0.557835
0.557855
0.557855
0.557876
0.557896
0.557916
0.557937
0.557937
0.557957
0.557978
0.557998
0.558019
0.558019
0.558039
0.55806
0.558081
0.558101
0.558101
0.558122
0.558143
0.558163
0.558184
0.558184
0.558205
0.558226
0.558247
0.558268
0.558268
0.558288
0.558309
0.55833
0.558351
0.558351
0.558372
0.558393
0.558414
0.558435
0.558435
0.558456
0.558477
0.558498
0.55852
0.55852
0.558541
0.558562
0.558583
0.558604
0.558604
0.558626
0.558647
0.558668
0.55869
0.55869
0.558711
0.558732
0.558754
0.558775
0.558775
0.558797
0.558818
0.55884
0.558861
0.558861
0.558883
0.558904
0.558926
0.558948
0.558948
0.558969
0.558991
0.559013
0.559034
0.559034
0.559056
0.559078
0.5591
0.559122
0.559122
0.559143
0.559165
0.559187
0.559209
0.559209
0.559231
0.559253
0.559275
0.559297
0.559297
0.559319
0.559341
0.559363
0.559385
0.559385
0.559408
0.55943
0.559452
0.559474
0.559474
0.559496
0.559519
0.559541
0.559563
0.559563
0.559586
0.559608
0.55963
0.559653
0.559653
0.559675
0.559698
0.55972
0.559743
0.559743
0.559765
0.559788
0.55981
0.559833
0.559833
0.559856
0.559878
0.559901
0.559924
0.559924
0.559946
0.559969
0.559991
0.560014
0.560014
0.560036
0.560058
0.56008
0.560102
0.560102
0.560124
0.560147
0.560169
0.560191
0.560191
0.560213
0.560235
0.560257
0.56028
0.56028
0.560302
0.560324
0.560347
0.560369
0.560369
0.560391
0.560414
0.560436
0.560459
0.560459
0.560481
0.560503
0.560526
0.560549
0.560549
0.560571
0.560594
0.560616
0.560639
0.560639
0.560662
0.560684
0.560707
0.56073
0.56073
0.560752
0.560775
0.560798
0.560821
0.560821
0.560844
0.560866
0.560889
0.560912
0.560912
0.560935
0.560958
0.560981
0.561004
0.561004
0.561027
0.56105
0.561073
0.561096
0.561096
0.561119
0.561143
0.561166
0.561189
0.561189
0.561212
0.561235
0.561259
0.561282
0.561282
0.561305
0.561329
0.561352
0.561375
0.561375
0.561399
0.561422
0.561446
0.561469
0.561469
0.561493
0.561516
0.56154
0.561563
0.561563
0.561587
0.56161
0.561634
0.561658
0.561658
0.561681
0.561705
0.561729
0.561753
0.561753
0.561776
0.5618
0.561824
0.561848
0.561848
0.561872
0.561896
0.561919
0.561943
0.561943
0.561967
0.561991
0.562015
0.562039
0.562039
0.562063
0.562088
0.562112
0.562136
0.562136
0.56216
0.562184
0.562208
0.562233
0.562233
0.562257
0.562281
0.562305
0.56233
0.56233
0.562354
0.562378
0.562403
0.562427
0.562427
0.562452
0.562476
0.562501
0.562525
0.562525
0.56255
0.562574
0.562599
0.562623
0.562623
0.562648
0.562673
0.562697
0.562722
0.562722
0.562747
0.562771
0.562796
0.562821
0.562821
0.562846
0.562871
0.562895
0.56292
0.56292
0.562945
0.56297
0.562995
0.56302
0.56302
0.563045
0.56307
0.563095
0.56312
0.56312
0.563145
0.56317
0.563195
0.563221
0.563221
0.563246
0.563271
0.563296
0.563322
0.563322
0.563347
0.563372
0.563397
0.563423
0.563423
0.563448
0.563474
0.563499
0.563524
0.563524
0.56355
0.563575
0.563601
0.563626
0.563626
0.563652
0.563677
0.563703
0.563729
0.563729
0.563754
0.56378
0.563806
0.563831
0.563831
0.563857
0.563883
0.563909
0.563935
0.563935
0.56396
0.563986
0.564012
0.564038
0.564038
0.564064
0.56409
0.564116
0.564142
0.564142
0.564168
0.564194
0.56422
0.564246
0.564246
0.564272
0.564298
0.564325
0.564351
0.564351
0.564377
0.564403
0.564429
0.564456
0.564456
0.564482
0.564508
0.564535
0.564561
0.564561
0.564587
0.564614
0.56464
0.564667
0.564667
0.564693
0.56472
0.564746
0.564773
0.564773
0.5648
0.564826
0.564853
0.564879
0.564879
0.564906
0.564933
0.56496
0.564986
0.564986
0.565013
0.56504
0.565067
0.565093
0.565093
0.56512
0.565147
0.565174
0.565201
0.565201
0.565228
0.565255
0.565282
0.565309
0.565309
0.565336
0.565363
0.56539
0.565417
0.565417
0.565444
0.565472
0.565499
0.565526
0.565526
0.565553
0.565581
0.565608
0.565635
0.565635
0.565662
0.56569
0.565717
0.565745
0.565745
0.565772
0.565799
0.565827
0.565854
0.565854
0.565882
0.565909
0.565937
0.565965
0.565965
0.565992
0.56602
0.566047
0.566075
0.566075
0.566103
0.566131
0.566158
0.566186
0.566186
0.566214
0.566242
0.56627
0.566297
0.566297
0.566325
0.566353
0.566381
0.566409
0.566409
0.566437
0.566465
0.566493
0.566521
0.566521
0.566549
0.566577
0.566605
0.566634
0.566634
0.566662
0.56669
0.566718
0.566746
0.566746
0.566775
0.566803
0.566831
0.56686
0.56686
0.566888
0.566916
0.566945
0.566973
0.566973
0.567002
0.56703
0.567058
0.567087
0.567087
0.567116
0.567144
0.567173
0.567201
0.567201
0.56723
0.567259
0.567287
0.567316
0.567316
0.567345
0.567373
0.567402
0.567431
0.567431
0.56746
0.567489
0.567517
0.567546
0.567546
0.567575
0.567604
0.567633
0.567662
0.567662
0.567691
0.56772
0.567749
0.567778
0.567778
0.567807
0.567836
0.567866
0.567895
0.567895
0.567924
0.567953
0.567982
0.568012
0.568012
0.568041
0.56807
0.568099
0.568129
0.568129
0.568158
0.568188
0.568217
0.568246
0.568246
0.568276
0.568305
0.568335
0.568364
0.568364
0.568394
0.568424
0.568453
0.568483
0.568483
0.568512
0.568542
0.568572
0.568601
0.568601
0.568631
0.568661
0.568691
0.568721
0.568721
0.56875
0.56878
0.56881
0.56884
0.56884
0.56887
0.5689
0.56893
0.56896
0.56896
0.56899
0.56902
0.56905
0.56908
0.56908
0.56911
0.56914
0.56917
0.569201
0.569201
0.569231
0.569261
0.569291
0.569322
0.569322
0.569352
0.569382
0.569412
0.569443
0.569443
0.569473
0.569504
0.569534
0.569564
0.569564
0.569595
0.569625
0.569656
0.569686
0.569686
0.569717
0.569748
0.569778
0.569809
0.569809
0.56984
0.56987
0.569901
0.569932
0.569932
0.569962
0.569993
0.570024
0.570055
0.570055
0.570086
0.570117
0.570147
0.570178
0.570178
0.570209
0.57024
0.570271
0.570302
0.570302
0.570333
0.570364
0.570395
0.570426
0.570426
0.570458
0.570489
0.57052
0.570551
0.570551
0.570582
0.570613
0.570645
0.570676
0.570676
0.570707
0.570739
0.57077
0.570801
0.570801
0.570833
0.570864
0.570896
0.570927
0.570927
0.570959
0.57099
0.571022
0.571053
0.571053
0.571085
0.571116
0.571148
0.57118
0.57118
0.571211
0.571243
0.571275
0.571306
0.571306
0.571338
0.57137
0.571402
0.571434
0.571434
0.571465
0.571497
0.571529
0.571561
0.571561
0.571593
0.571625
0.571657
0.571689
0.571689
0.571721
0.571753
0.571785
0.571817
0.571817
0.571849
0.571882
0.571914
0.571946
0.571946
0.571978
0.57201
0.572043
0.572075
0.572075
0.572107
0.57214
0.572172
0.572204
0.572204
0.572237
0.572269
0.572302
0.572334
0.572334
0.572367
0.572399
0.572432
0.572464
0.572464
0.572497
0.572529
0.572562
0.572595
0.572595
0.572627
0.57266
0.572693
0.572725
0.572725
0.572758
0.572791
0.572824
0.572857
0.572857
0.572889
0.572922
0.572955
0.572988
0.572988
0.573021
0.573054
0.573087
0.57312
0.57312
0.573153
0.573186
0.573219
0.573252
0.573252
0.573286
0.573319
0.573352
0.573385
0.573385
0.573418
0.573451
0.573485
0.573518
0.573518
0.573551
0.573585
0.573618
0.573651
0.573651
0.573685
0.573718
0.573752
0.573785
0.573785
0.573819
0.573852
0.573886
0.573919
0.573919
0.573953
0.573986
0.57402
0.574054
0.574054
0.574087
0.574121
0.574155
0.574189
0.574189
0.574222
0.574256
0.57429
0.574324
0.574324
0.574358
0.574392
0.574425
0.574459
0.574459
0.574493
0.574527
0.574561
0.574595
0.574595
0.574629
0.574663
0.574697
0.574732
0.574732
0.574766
0.5748
0.574834
0.574868
0.574868
0.574902
0.574936
0.57497
0.575005
0.575005
0.575039
0.575072
0.575106
0.57514
0.57514
0.575173
0.575206
0.57524
0.575273
0.575273
0.575306
0.575338
0.575371
0.575404
0.575404
0.575437
0.57547
0.575503
0.575536
0.575536
0.575569
0.575602
0.575635
0.575668
0.575668
0.575701
0.575734
0.575767
0.5758
0.5758
0.575833
0.575866
0.575899
0.575932
0.575932
0.575965
0.575999
0.576032
0.576065
0.576065
0.576098
0.576132
0.576165
0.576198
0.576198
0.576232
0.576265
0.576298
0.576332
0.576332
0.576365
0.576399
0.576432
0.576466
0.576466
0.576499
0.576533
0.576566
0.5766
0.5766
0.576633
0.576667
0.576701
0.576734
0.576734
0.576768
0.576802
0.576835
0.576869
0.576869
0.576903
0.576937
0.576971
0.577004
0.577004
0.577038
0.577072
0.577106
0.57714
0.57714
0.577174
0.577208
0.577242
0.577276
0.577276
0.57731
0.577344
0.577378
0.577412
0.577412
0.577446
0.57748
0.577515
0.577549
0.577549
0.577583
0.577617
0.577651
0.577686
0.577686
0.57772
0.577754
0.577789
0.577823
0.577823
0.577857
0.577892
0.577926
0.57796
0.57796
0.577995
0.578029
0.578064
0.578098
0.578098
0.578133
0.578167
0.578202
0.578237
0.578237
0.578271
0.578306
0.578341
0.578375
0.578375
0.57841
0.578445
0.578479
0.578514
0.578514
0.578549
0.578584
0.578619
0.578654
0.578654
0.578688
0.578723
0.578758
0.578793
0.578793
0.578828
0.578863
0.578898
0.578933
0.578933
0.578968
0.579003
0.579038
0.579073
0.579073
0.579109
0.579144
0.579179
0.579214
0.579214
0.579249
0.579284
0.57932
0.579355
0.579355
0.57939
0.579426
0.579461
0.579496
0.579496
0.579532
0.579567
0.579602
0.579638
0.579638
0.579673
0.579709
0.579744
0.57978
0.57978
0.579815
0.579851
0.579887
0.579922
0.579922
0.579958
0.579994
0.580029
0.580065
0.580065
0.580101
0.580136
0.580172
0.580208
0.580208
0.580244
0.580279
0.580315
0.580351
0.580351
0.580387
0.580423
0.580459
0.580495
0.580495
0.580531
0.580567
0.580603
0.580639
0.580639
0.580675
0.580711
0.580747
0.580783
0.580783
0.580819
0.580855
0.580892
0.580928
0.580928
0.580964
0.581
0.581037
0.581073
0.581073
0.581109
0.581145
0.581182
0.581218
0.581218
0.581255
0.581291
0.581327
0.581364
0.581364
0.5814
0.581437
0.581473
0.58151
0.58151
0.581546
0.581583
0.58162
0.581656
0.581656
0.581693
0.581729
0.581766
0.581803
0.581803
0.58184
0.581876
0.581913
0.58195
0.58195
0.581987
0.582023
0.58206
0.582097
0.582097
0.582134
0.582171
0.582208
0.582245
0.582245
0.582282
0.582319
0.582356
0.582393
0.582393
0.58243
0.582467
0.582504
0.582541
0.582541
0.582578
0.582615
0.582653
0.58269
0.58269
0.582727
0.582764
0.582802
0.582839
0.582839
0.582876
0.582913
0.582951
0.582988
0.582988
0.583026
0.583063
0.5831
0.583138
0.583138
0.583175
0.583213
0.58325
0.583288
0.583288
0.583325
0.583363
0.5834
0.583438
0.583438
0.583476
0.583513
0.583551
0.583589
0.583589
0.583626
0.583664
0.583702
0.58374
0.58374
0.583778
0.583815
0.583853
0.583891
0.583891
0.583929
0.583967
0.584005
0.584043
0.584043
0.584081
0.584119
0.584157
0.584195
0.584195
0.584233
0.584271
0.584309
0.584347
0.584347
0.584385
0.584423
0.584461
0.5845
0.5845
0.584538
0.584576
0.584614
0.584653
0.584653
0.584691
0.584729
0.584768
0.584806
0.584806
0.584844
0.584883
0.584921
0.584959
0.584959
0.584998
0.585036
0.585075
0.585113
0.585113
0.585152
0.585191
0.585229
0.585268
0.585268
0.585306
0.585345
0.585384
0.585422
0.585422
0.585461
0.5855
0.585538
0.585577
0.585577
0.585616
0.585655
0.585694
0.585733
0.585733
0.585771
0.58581
0.585849
0.585888
0.585888
0.585927
0.585966
0.586005
0.586044
0.586044
0.586083
0.586122
0.586161
0.5862
0.5862
0.586239
0.586279
0.586318
0.586357
0.586357
0.586396
0.586435
0.586475
0.586514
0.586514
0.586553
0.586592
0.586632
0.586671
0.586671
0.58671
0.58675
0.586789
0.586829
0.586829
0.586868
0.586907
0.586947
0.586986
0.586986
0.587026
0.587065
0.587105
0.587145
0.587145
0.587184
0.587224
0.587264
0.587303
0.587303
0.587343
0.587383
0.587422
0.587462
0.587462
0.587502
0.587542
0.587581
0.587621
0.587621
0.587661
0.587701
0.587741
0.587781
0.587781
0.587821
0.587861
0.587901
0.587941
0.587941
0.587981
0.588021
0.588061
0.588101
0.588101
0.588141
0.588181
0.588221
0.588261
0.588261
0.588301
0.588342
0.588382
0.588422
0.588422
0.588462
0.588503
0.588543
0.588583
0.588583
0.588623
0.588664
0.588704
0.588745
0.588745
0.588785
0.588825
0.588866
0.588906
0.588906
0.588946
0.588987
0.589027
0.589067
0.589067
0.589108
0.589148
0.589188
0.589227
0.589227
0.589267
0.589306
0.589346
0.589385
0.589385
0.589424
0.589463
0.589501
0.58954
0.58954
0.589579
0.589617
0.589656
0.589695
0.589695
0.589733
0.589772
0.58981
0.589849
0.589849
0.589888
0.589926
0.589965
0.590004
0.590004
0.590043
0.590081
0.59012
0.590159
0.590159
0.590198
0.590237
0.590275
0.590314
0.590314
0.590353
0.590392
0.590431
0.59047
0.59047
0.590509
0.590548
0.590587
0.590626
0.590626
0.590665
0.590704
0.590743
0.590782
0.590782
0.590821
0.59086
0.590899
0.590939
0.590939
0.590978
0.591017
0.591056
0.591095
0.591095
0.591135
0.591174
0.591213
0.591253
0.591253
0.591292
0.591331
0.591371
0.59141
0.59141
0.591449
0.591489
0.591528
0.591568
0.591568
0.591607
0.591647
0.591686
0.591726
0.591726
0.591765
0.591805
0.591844
0.591884
0.591884
0.591924
0.591963
0.592003
0.592043
0.592043
0.592082
0.592122
0.592162
0.592202
0.592202
0.592241
0.592281
0.592321
0.592361
0.592361
0.592401
0.592441
0.59248
0.59252
0.59252
0.59256
0.5926
0.59264
0.59268
0.59268
0.59272
0.59276
0.5928
0.59284
0.59284
0.59288
0.59292
0.592961
0.593001
0.593001
0.593041
0.593081
0.593121
0.593161
0.593161
0.593202
0.593242
0.593282
0.593322
0.593322
0.593363
0.593403
0.593443
0.593484
0.593484
0.593524
0.593564
0.593605
0.593645
0.593645
0.593686
0.593726
0.593767
0.593807
0.593807
0.593848
0.593888
0.593929
0.593969
0.593969
0.59401
0.59405
0.594091
0.594132
0.594132
0.594172
0.594213
0.594254
0.594295
0.594295
0.594335
0.594376
0.594417
0.594458
0.594458
0.594498
0.594539
0.59458
0.594621
0.594621
0.594662
0.594703
0.594744
0.594785
0.594785
0.594826
0.594867
0.594908
0.594949
0.594949
0.59499
0.595031
0.595072
0.595113
0.595113
0.595154
0.595195
0.595236
0.595277
0.595277
0.595318
0.59536
0.595401
0.595442
0.595442
0.595483
0.595525
0.595566
0.595607
0.595607
0.595649
0.59569
0.595731
0.595773
0.595773
0.595814
0.595855
0.595897
0.595938
0.595938
0.59598
0.596021
0.596063
0.596104
0.596104
0.596146
0.596187
0.596229
0.596271
0.596271
0.596312
0.596354
0.596395
0.596437
0.596437
0.596479
0.596521
0.596562
0.596604
0.596604
0.596646
0.596688
0.596729
0.596771
0.596771
0.596813
0.596855
0.596897
0.596939
0.596939
0.596981
0.597022
0.597064
0.597106
0.597106
0.597148
0.59719
0.597232
0.597274
0.597274
0.597316
0.597358
0.597401
0.597443
0.597443
0.597485
0.597527
0.597569
0.597611
0.597611
0.597653
0.597696
0.597738
0.59778
0.59778
0.597822
0.597865
0.597907
0.597949
0.597949
0.597992
0.598034
0.598076
0.598119
0.598119
0.598161
0.598204
0.598246
0.598289
0.598289
0.598331
0.598374
0.598416
0.598459
0.598459
0.598501
0.598544
0.598586
0.598629
0.598629
0.598672
0.598714
0.598757
0.5988
0.5988
0.598842
0.598885
0.598928
0.59897
0.59897
0.599013
0.599056
0.599099
0.599142
0.599142
0.599184
0.599227
0.59927
0.599313
0.599313
0.599356
0.599399
0.599442
0.599485
0.599485
0.599528
0.599571
0.599614
0.599657
0.599657
0.5997
0.599743
0.599786
0.599829
0.599829
0.599872
0.599916
0.599959
0.600002
0.600002
0.600045
0.600088
0.600131
0.600175
0.600175
0.600218
0.600261
0.600305
0.600348
0.600348
0.600391
0.600435
0.600478
0.600521
0.600521
0.600565
0.600608
0.600652
0.600695
0.600695
0.600739
0.600782
0.600826
0.600869
0.600869
0.600913
0.600956
0.601
0.601044
0.601044
0.601087
0.601131
0.601174
0.601218
0.601218
0.601262
0.601306
0.601349
0.601393
0.601393
0.601437
0.601481
0.601524
0.601568
0.601568
0.601612
0.601656
0.6017
0.601743
0.601743
0.601787
0.601831
0.601875
0.601918
0.601918
0.601962
0.602006
0.602049
0.602093
0.602093
0.602136
0.602179
0.602222
0.602264
0.602264
0.602307
0.60235
0.602392
0.602434
0.602434
0.602476
0.602518
0.60256
0.602602
0.602602
0.602643
0.602685
0.602727
0.602769
0.602769
0.60281
0.602852
0.602894
0.602935
0.602935
0.602977
0.603019
0.603061
0.603102
0.603102
0.603144
0.603186
0.603228
0.60327
0.60327
0.603312
0.603353
0.603395
0.603437
0.603437
0.603479
0.603521
0.603563
0.603605
0.603605
0.603647
0.603689
0.603731
0.603773
0.603773
0.603815
0.603857
0.603899
0.603941
0.603941
0.603983
0.604025
0.604067
0.60411
0.60411
0.604152
0.604194
0.604236
0.604278
0.604278
0.604321
0.604363
0.604405
0.604447
0.604447
0.60449
0.604532
0.604574
0.604617
0.604617
0.604659
0.604701
0.604744
0.604786
0.604786
0.604829
0.604871
0.604914
0.604956
0.604956
0.604999
0.605041
0.605084
0.605126
0.605126
0.605169
0.605211
0.605254
0.605296
0.605296
0.605339
0.605382
0.605424
0.605467
0.605467
0.60551
0.605552
0.605595
0.605638
0.605638
0.605681
0.605723
0.605766
0.605809
0.605809
0.605852
0.605895
0.605937
0.60598
0.60598
0.606023
0.606066
0.606109
0.606152
0.606152
0.606195
0.606238
0.606281
0.606324
0.606324
0.606367
0.60641
0.606453
0.606496
0.606496
0.606539
0.606582
0.606625
0.606668
0.606668
0.606711
0.606754
0.606798
0.606841
0.606841
0.606884
0.606927
0.60697
0.607014
0.607014
0.607057
0.6071
0.607143
0.607187
0.607187
0.60723
0.607273
0.607317
0.60736
0.60736
0.607404
0.607447
0.60749
0.607534
0.607534
0.607577
0.607621
0.607664
0.607708
0.607708
0.607751
0.607795
0.607838
0.607882
0.607882
0.607925
0.607969
0.608013
0.608056
0.608056
0.6081
0.608143
0.608187
0.608231
0.608231
0.608275
0.608318
0.608362
0.608406
0.608406
0.608449
0.608493
0.608537
0.608581
0.608581
0.608625
0.608669
0.608712
0.608756
0.608756
0.6088
0.608844
0.608888
0.608932
0.608932
0.608976
0.60902
0.609064
0.609108
0.609108
0.609152
0.609196
0.60924
0.609284
0.609284
0.609328
0.609372
0.609416
0.60946
0.60946
0.609504
0.609549
0.609593
0.609637
0.609637
0.609681
0.609725
0.60977
0.609814
0.609814
0.609858
0.609902
0.609947
0.609991
0.609991
0.610035
0.61008
0.610124
0.610168
0.610168
0.610213
0.610257
0.610302
0.610346
0.610346
0.610391
0.610435
0.610479
0.610524
0.610524
0.610568
0.610613
0.610658
0.610702
0.610702
0.610747
0.610791
0.610836
0.61088
0.61088
0.610925
0.61097
0.611014
0.611059
0.611059
0.611104
0.611149
0.611193
0.611238
0.611238
0.611283
0.611328
0.611372
0.611417
0.611417
0.611462
0.611507
0.611552
0.611597
0.611597
0.611641
0.611686
0.611731
0.611776
0.611776
0.611821
0.611866
0.611911
0.611956
0.611956
0.612001
0.612046
0.612091
0.612136
0.612136
0.612181
0.612226
0.612271
0.612316
0.612316
0.612362
0.612407
0.612452
0.612497
0.612497
0.612542
0.612587
0.612633
0.612678
0.612678
0.612723
0.612768
0.612814
0.612859
0.612859
0.612904
0.61295
0.612995
0.61304
0.61304
0.613086
0.613131
0.613176
0.613222
0.613222
0.613267
0.613313
0.613358
0.613404
0.613404
0.613449
0.613494
0.61354
0.613585
0.613585
0.61363
0.613676
0.613721
0.613766
0.613766
0.613811
0.613856
0.6139
0.613945
0.613945
0.613989
0.614034
0.614078
0.614122
0.614122
0.614166
0.614209
0.614253
0.614296
0.614296
0.61434
0.614383
0.614426
0.614469
0.614469
0.614512
0.614556
0.614599
0.614642
0.614642
0.614685
0.614728
0.614771
0.614814
0.614814
0.614857
0.6149
0.614943
0.614986
0.614986
0.615029
0.615073
0.615116
0.615159
0.615159
0.615202
0.615245
0.615288
0.615332
0.615332
0.615375
0.615418
0.615461
0.615505
0.615505
0.615548
0.615591
0.615634
0.615678
0.615678
0.615721
0.615764
0.615808
0.615851
0.615851
0.615895
0.615938
0.615981
0.616025
0.616025
0.616068
0.616112
0.616155
0.616199
0.616199
0.616242
0.616286
0.616329
0.616373
0.616373
0.616416
0.61646
0.616504
0.616547
0.616547
0.616591
0.616634
0.616678
0.616722
0.616722
0.616765
0.616809
0.616853
0.616896
0.616896
0.61694
0.616984
0.617028
0.617071
0.617071
0.617115
0.617159
0.617203
0.617247
0.617247
0.61729
0.617334
0.617378
0.617422
0.617422
0.617466
0.61751
0.617554
0.617598
0.617598
0.617642
0.617685
0.617729
0.617773
0.617773
0.617817
0.617861
0.617905
0.61795
0.61795
0.617994
0.618038
0.618082
0.618126
0.618126
0.61817
0.618214
0.618258
0.618302
0.618302
0.618346
0.618391
0.618435
0.618479
0.618479
0.618523
0.618567
0.618612
0.618656
0.618656
0.6187
0.618744
0.618789
0.618833
0.618833
0.618877
0.618922
0.618966
0.61901
0.61901
0.619055
0.619099
0.619144
0.619188
0.619188
0.619232
0.619277
0.619321
0.619366
0.619366
0.61941
0.619455
0.619499
0.619544
0.619544
0.619588
0.619633
0.619677
0.619722
0.619722
0.619767
0.619811
0.619856
0.619901
0.619901
0.619945
0.61999
0.620034
0.620079
0.620079
0.620124
0.620169
0.620213
0.620258
0.620258
0.620303
0.620348
0.620392
0.620437
0.620437
0.620482
0.620527
0.620572
0.620616
0.620616
0.620661
0.620706
0.620751
0.620796
0.620796
0.620841
0.620886
0.620931
0.620976
0.620976
0.621021
0.621066
0.621111
0.621156
0.621156
0.621201
0.621246
0.621291
0.621336
0.621336
0.621381
0.621426
0.621471
0.621516
0.621516
0.621561
0.621606
0.621652
0.621697
0.621697
0.621742
0.621787
0.621832
0.621878
0.621878
0.621923
0.621968
0.622013
0.622059
0.622059
0.622104
0.622149
0.622194
0.62224
0.62224
0.622285
0.62233
0.622376
0.622421
0.622421
0.622467
0.622512
0.622557
0.622603
0.622603
0.622648
0.622694
0.622739
0.622785
0.622785
0.62283
0.622876
0.622921
0.622967
0.622967
0.623012
0.623058
0.623103
0.623149
0.623149
0.623195
0.62324
0.623286
0.623331
0.623331
0.623377
0.623423
0.623468
0.623514
0.623514
0.62356
0.623606
0.623651
0.623697
0.623697
0.623743
0.623788
0.623834
0.62388
0.62388
0.623926
0.623971
0.624017
0.624063
0.624063
0.624108
0.624154
0.6242
0.624245
0.624245
0.624291
0.624336
0.624381
0.624426
0.624426