<?xml version="1.0"?>
<VTKFile type="UnstructuredGrid" version="0.1" byte_order="LittleEndian">
<UnstructuredGrid>
<Piece NumberOfPoints="5000" NumberOfCells="4000">
<PointData Scalars="Reaction 0">
<DataArray type="Float32" Name="Reaction 0" format="ascii">
0.222876
0.222876
0.222876
0.222876
0.222876
0.222876
0.222877
0.222877
0.222877
0.222877
0.222877
0.222877
0.222878
0.222878
0.222879
0.222879
0.222879
0.222879
0.22288
0.222881
0.222881
0.222881
0.222882
0.222882
0.222883
0.222883
0.222884
0.222884
0.222885
0.222886
0.222886
0.222887
0.222888
0.222889
0.22289
0.22289
0.222891
0.222892
0.222893
0.222894
0.222894
0.222895
0.222896
0.222897
0.222899
0.222899
0.2229
0.222901
0.222902
0.222904
0.222904
0.222905
0.222907
0.222908
0.22291
0.22291
0.222911
0.222913
0.222914
0.222916
0.222916
0.222918
0.222919
0.222921
0.222923
0.222923
0.222925
0.222927
0.222929
0.22293
0.22293
0.222932
0.222934
0.222936
0.222939
0.222939
0.222941
0.222943
0.222945
0.222947
0.222947
0.222949
0.222952
0.222954
0.222956
0.222956
0.222959
0.222961
0.222964
0.222966
0.222966
0.222969
0.222971
0.222974
0.222976
0.222976
0.222979
0.222982
0.222984
0.222987
0.222987
0.22299
0.222993
0.222996
0.222998
0.222998
0.223001
0.223004
0.223007
0.22301
0.22301
0.223013
0.223017
0.22302
0.223023
0.223023
0.223026
0.223029
0.223033
0.223036
0.223036
0.223039
0.223043
0.223046
0.22305
0.22305
0.223053
0.223057
0.22306
0.223064
0.223064
0.223067
0.223071
0.223075
0.223078
0.223078
0.223082
0.223086
0.22309
0.223094
0.223094
0.223098
0.223101
0.223105
0.223109
0.223109
0.223113
0.223118
0.223122
0.223126
0.223126
0.22313
0.223134
0.223138
0.223143
0.223143
0.223147
0.223151
0.223156
0.22316
0.22316
0.223165
0.223169
0.223174
0.223178
0.223178
0.223183
0.223187
0.223192
0.223197
0.223197
0.223202
0.223206
0.223211
0.223216
0.223216
0.223221
0.223226
0.223231
0.223236
0.223236
0.223241
0.223246
0.223251
0.223256
0.223256
0.223261
0.223266
0.223272
0.223277
0.223277
0.223282
0.223287
0.223293
0.223298
0.223298
0.223304
0.223309
0.223315
0.22332
0.22332
0.223326
0.223331
0.223337
0.223343
0.223343
0.223348
0.223354
0.22336
0.223366
0.223366
0.223371
0.223377
0.223383
0.223389
0.223389
0.223395
0.223401
0.223407
0.223413
0.223413
0.223419
0.223426
0.223432
0.223438
0.223438
0.223444
0.223451
0.223457
0.223463
0.223463
0.22347
0.223476
0.223483
0.223489
0.223489
0.223496
0.223502
0.223509
0.223515
0.223515
0.223522
0.223529
0.223536
0.223542
0.223542
0.223549
0.223556
0.223563
0.22357
0.22357
0.223577
0.223584
0.223591
0.223598
0.223598
0.223605
0.223612
0.223619
0.223626
0.223626
0.223634
0.223641
0.223648
0.223656
0.223656
0.223663
0.22367
0.223678
0.223685
0.223685
0.223693
0.2237
0.223708
0.223715
0.223715
0.223723
0.223731
0.223739
0.223746
0.223746
0.223754
0.223762
0.22377
0.223778
0.223778
0.223786
0.223794
0.223802
0.22381
0.22381
0.223818
0.223826
0.223834
0.223842
0.223842
0.22385
0.223858
0.223867
0.223875
0.223875
0.223883
0.223892
0.2239
0.223909
0.223909
0.223917
0.223926
0.223934
0.223943
0.223943
0.223951
0.22396
0.223969
0.223977
0.223977
0.223986
0.223995
0.224004
0.224013
0.224013
0.224022
0.22403
0.224039
0.224048
0.224048
0.224057
0.224067
0.224076
0.224085
0.224085
0.224094
0.224103
0.224112
0.224122
0.224122
0.224131
0.22414
0.22415
0.224159
0.224159
0.224169
0.224178
0.224188
0.224197
0.224197
0.224207
0.224216
0.224226
0.224236
0.224236
0.224245
0.224255
0.224265
0.224275
0.224275
0.224285
0.224295
0.224305
0.224314
0.224314
0.224324
0.224335
0.224345
0.224355
0.224355
0.224365
0.224375
0.224385
0.224395
0.224395
0.224406
0.224416
0.224426
0.224437
0.224437
0.224447
0.224458
0.224468
0.224479
0.224479
0.224489
0.2245
0.224511
0.224521
0.224521
0.224532
0.224543
0.224553
0.224564
0.224564
0.224575
0.224586
0.224597
0.224608
0.224608
0.224619
0.22463
0.224641
0.224652
0.224652
0.224663
0.224674
0.224685
0.224696
0.224696
0.224708
0.224719
0.22473
0.224742
0.224742
0.224753
0.224765
0.224776
0.224787
0.224787
0.224799
0.224811
0.224822
0.224834
0.224834
0.224845
0.224857
0.224869
0.224881
0.224881
0.224892
0.224904
0.224916
0.224928
0.224928
0.22494
0.224952
0.224964
0.224976
0.224976
0.224988
0.225
0.225012
0.225025
0.225025
0.225037
0.225049
0.225061
0.225074
0.225074
0.225086
0.225099
0.225111
0.225123
0.225123
0.225136
0.225148
0.225161
0.225174
0.225174
0.225186
0.225199
0.225212
0.225224
0.225224
0.225237
0.22525
0.225263
0.225276
0.225276
0.225289
0.225302
0.225315
0.225328
0.225328
0.225341
0.225354
0.225367
0.22538
0.22538
0.225393
0.225406
0.22542
0.225433
0.225433
0.225446
0.22546
0.225473
0.225486
0.225486
0.2255
0.225513
0.225527
0.225541
0.225541
0.225554
0.225568
0.225582
0.225595
0.225595
0.225609
0.225623
0.225637
0.22565
0.22565
0.225664
0.225678
0.225692
0.225706
0.225706
0.22572
0.225734
0.225748
0.225762
0.225762
0.225777
0.225791
0.225805
0.225819
0.225819
0.225834
0.225848
0.225862
0.225877
0.225877
0.225891
0.225906
0.22592
0.225935
0.225935
0.225949
0.225964
0.225979
0.225993
0.225993
0.226008
0.226023
0.226037
0.226052
0.226052
0.226067
0.226082
0.226097
0.226112
0.226112
0.226127
0.226142
0.226157
0.226172
0.226172
0.226187
0.226202
0.226218
0.226233
0.226233
0.226248
0.226263
0.226279
0.226294
0.226294
0.22631
0.226325
0.22634
0.226356
0.226356
0.226372
0.226387
0.226403
0.226418
0.226418
0.226434
0.22645
0.226466
0.226481
0.226481
0.226497
0.226513
0.226529
0.226545
0.226545
0.226561
0.226577
0.226593
0.226609
0.226609
0.226625
0.226641
0.226657
0.226673
0.226673
0.22669
0.226706
0.226722
0.226739
0.226739
0.226755
0.226771
0.226788
0.226804
0.226804
0.226821
0.226837
0.226854
0.226871
0.226871
0.226887
0.226904
0.226921
0.226937
0.226937
0.226954
0.226971
0.226988
0.227005
0.227005
0.227022
0.227039
0.227056
0.227073
0.227073
0.22709
0.227107
0.227124
0.227141
0.227141
0.227158
0.227176
0.227193
0.22721
0.22721
0.227228
0.227245
0.227262
0.22728
0.22728
0.227297
0.227315
0.227332
0.22735
0.22735
0.227368
0.227385
0.227403
0.227421
0.227421
0.227439
0.227456
0.227474
0.227492
0.227492
0.22751
0.227528
0.227546
0.227564
0.227564
0.227582
0.2276
0.227618
0.227636
0.227636
0.227654
0.227673
0.227691
0.227709
0.227709
0.227727
0.227746
0.227764
0.227783
0.227783
0.227801
0.22782
0.227838
0.227857
0.227857
0.227875
0.227894
0.227912
0.227931
0.227931
0.22795
0.227969
0.227987
0.228006
0.228006
0.228025
0.228044
0.228063
0.228082
0.228082
0.228101
0.22812
0.228139
0.228158
0.228158
0.228177
0.228197
0.228216
0.228235
0.228235
0.228254
0.228274
0.228293
0.228312
0.228312
0.228332
0.228351
0.228371
0.22839
0.22839
0.22841
0.228429
0.228449
0.228469
0.228469
0.228488
0.228508
0.228528
0.228548
0.228548
0.228568
0.228587
0.228607
0.228627
0.228627
0.228647
0.228667
0.228687
0.228707
0.228707
0.228727
0.228748
0.228768
0.228788
0.228788
0.228808
0.228829
0.228849
0.228869
0.228869
0.22889
0.22891
0.228931
0.228951
0.228951
0.228972
0.228992
0.229013
0.229033
0.229033
0.229054
0.229075
0.229095
0.229116
0.229116
0.229137
0.229158
0.229179
0.2292
0.2292
0.229221
0.229242
0.229263
0.229284
0.229284
0.229305
0.229326
0.229347
0.229368
0.229368
0.229389
0.229411
0.229432
0.229453
0.229453
0.229475
0.229496
0.229517
0.229539
0.229539
0.22956
0.229582
0.229603
0.229625
0.229625
0.229647
0.229668
0.22969
0.229712
0.229712
0.229734
0.229755
0.229777
0.229799
0.229799
0.229821
0.229843
0.229865
0.229887
0.229887
0.229909
0.229931
0.229953
0.229975
0.229975
0.229998
0.23002
0.230042
0.230064
0.230064
0.230087
0.230109
0.230131
0.230154
0.230154
0.230176
0.230199
0.230221
0.230244
0.230244
0.230266
0.230289
0.230312
0.230334
0.230334
0.230357
0.23038
0.230403
0.230426
0.230426
0.230449
0.230471
0.230494
0.230517
0.230517
0.23054
0.230563
0.230587
0.23061
0.23061
0.230633
0.230656
0.230679
0.230702
0.230702
0.230726
0.230749
0.230772
0.230796
0.230796
0.230819
0.230843
0.230866
0.23089
0.23089
0.230913
0.230937
0.230961
0.230984
0.230984
0.231008
0.231032
0.231055
0.231079
0.231079
0.231103
0.231127
0.231151
0.231175
0.231175
0.231199
0.231223
0.231247
0.231271
0.231271
0.231295
0.231319
0.231343
0.231368
0.231368
0.231392
0.231416
0.231441
0.231465
0.231465
0.231489
0.231514
0.231538
0.231563
0.231563
0.231587
0.231612
0.231636
0.231661
0.231661
0.231686
0.23171
0.231735
0.23176
0.23176
0.231785
0.23181
0.231834
0.231859
0.231859
0.231884
0.231909
0.231934
0.231959
0.231959
0.231984
0.23201
0.232035
0.23206
0.23206
0.232085
0.23211
0.232136
0.232161
0.232161
0.232186
0.232212
0.232237
0.232263
0.232263
0.232288
0.232314
0.232339
0.232365
0.232365
0.232391
0.232416
0.232442
0.232468
0.232468
0.232493
0.232519
0.232545
0.232571
0.232571
0.232597
0.232623
0.232649
0.232675
0.232675
0.232701
0.232727
0.232753
0.232779
0.232779
0.232805
0.232832
0.232858
0.232884
0.232884
0.232911
0.232937
0.232963
0.23299
0.23299
0.233016
0.233043
0.233069
0.233096
0.233096
0.233122
0.233149
0.233176
0.233202
0.233202
0.233229
0.233256
0.233283
0.23331
0.23331
0.233336
0.233363
0.23339
0.233417
0.233417
0.233444
0.233471
0.233498
0.233526
0.233526
0.233553
0.23358
0.233607
0.233634
0.233634
0.233662
0.233689
0.233716
0.233744
0.233744
0.233771
0.233799
0.233826
0.233854
0.233854
0.233881
0.233909
0.233937
0.233964
0.233964
0.233992
0.23402
0.234047
0.234075
0.234075
0.234103
0.234131
0.234159
0.234187
0.234187
0.234215
0.234243
0.234271
0.234299
0.234299
0.234327
0.234355
0.234383
0.234412
0.234412
0.23444
0.234468
0.234497
0.234525
0.234525
0.234553
0.234582
0.23461
0.234639
0.234639
0.234667
0.234696
0.234724
0.234753
0.234753
0.234782
0.23481
0.234839
0.234868
0.234868
0.234897
0.234926
0.234954
0.234983
0.234983
0.235012
0.235041
0.23507
0.235099
0.235099
0.235128
0.235158
0.235187
0.235216
0.235216
0.235245
0.235274
0.235304
0.235333
0.235333
0.235362
0.235392
0.235421
0.235451
0.235451
0.23548
0.23551
0.235539
0.235569
0.235569
0.235598
0.235628
0.235658
0.235688
0.235688
0.235717
0.235747
0.235777
0.235807
0.235807
0.235837
0.235867
0.235897
0.235927
0.235927
0.235957
0.235987
0.236017
0.236047
0.236047
0.236077
0.236108
0.236138
0.236168
0.236168
0.236198
0.236229
0.236259
0.23629
0.23629
0.23632
0.236351
0.236381
0.236412
0.236412
0.236442
0.236473
0.236503
0.236534
0.236534
0.236565
0.236596
0.236627
0.236657
0.236657
0.236688
0.236719
0.23675
0.236781
0.236781
0.236812
0.236843
0.236874
0.236905
0.236905
0.236936
0.236968
0.236999
0.23703
0.23703
0.237061
0.237093
0.237124
0.237155
0.237155
0.237187
0.237218
0.23725
0.237281
0.237281
0.237313
0.237345
0.237376
0.237408
0.237408
0.23744
0.237471
0.237503
0.237535
0.237535
0.237567
0.237599
0.23763
0.237662
0.237662
0.237694
0.237726
0.237758
0.23779
0.23779
0.237823
0.237855
0.237887
0.237919
0.237919
0.237951
0.237984
0.238016
0.238048
0.238048
0.238081
0.238113
0.238146
0.238178
0.238178
0.238211
0.238243
0.238276
0.238308
0.238308
0.238341
0.238374
0.238406
0.238439
0.238439
0.238472
0.238505
0.238538
0.238571
0.238571
0.238604
0.238637
0.23867
0.238703
0.238703
0.238736
0.238769
0.238802
0.238835
0.238835
0.238868
0.238902
0.238935
0.238968
0.238968
0.239001
0.239035
0.239068
0.239102
0.239102
0.239135
0.239169
0.239202
0.239236
0.239236
0.239269
0.239303
0.239337
0.239371
0.239371
0.239404
0.239438
0.239472
0.239506
0.239506
0.23954
0.239574
0.239608
0.239642
0.239642
0.239676
0.23971
0.239744
0.239778
0.239778
0.239812
0.239846
0.239881
0.239915
0.239915
0.239949
0.239983
0.240018
0.240052
0.240052
0.240087
0.240121
0.240156
0.24019
0.24019
0.240225
0.240259
0.240294
0.240329
0.240329
0.240364
0.240398
0.240433
0.240468
0.240468
0.240503
0.240538
0.240573
0.240608
0.240608
0.240643
0.240678
0.240713
0.240748
0.240748
0.240783
0.240818
0.240853
0.240888
0.240888
0.240924
0.240959
0.240994
0.24103
0.24103
0.241065
0.241101
0.241136
0.241172
0.241172
0.241207
0.241243
0.241278
0.241314
0.241314
0.24135
0.241385
0.241421
0.241457
0.241457
0.241493
0.241529
0.241564
0.2416
0.2416
0.241636
0.241672
0.241708
0.241744
0.241744
0.24178
0.241817
0.241853
0.241889
0.241889
0.241925
0.241961
0.241998
0.242034
0.242034
0.24207
0.242107
0.242143
0.24218
0.24218
0.242216
0.242253
0.242289
0.242326
0.242326
0.242363
0.242399
0.242436
0.242473
0.242473
0.24251
0.242546
0.242583
0.24262
0.24262
0.242657
0.242694
0.242731
0.242768
0.242768
0.242805
0.242842
0.242879
0.242916
0.242916
0.242954
0.242991
0.243028
0.243065
0.243065
0.243103
0.24314
0.243177
0.243215
0.243215
0.243252
0.24329
0.243327
0.243365
0.243365
0.243402
0.24344
0.243478
0.243515
0.243515
0.243553
0.243591
0.243629
0.243667
0.243667
0.243704
0.243742
0.24378
0.243818
0.243818
0.243856
0.243894
0.243932
0.243971
0.243971
0.244009
0.244047
0.244085
0.244123
0.244123
0.244162
0.2442
0.244238
0.244277
0.244277
0.244315
0.244354
0.244392
0.244431
0.244431
0.244469
0.244508
0.244546
0.244585
0.244585
0.244624
0.244662
0.244701
0.24474
0.24474
0.244779
0.244818
0.244857
0.244896
0.244896
0.244935
0.244974
0.245013
0.245052
0.245052
0.245091
0.24513
0.245169
0.245208
0.245208
0.245248
0.245287
0.245326
0.245365
0.245365
0.245405
0.245444
0.245484
0.245523
0.245523
0.245563
0.245602
0.245642
0.245681
0.245681
0.245721
0.245761
0.2458
0.24584
0.24584
0.24588
0.24592
0.24596
0.246
0.246
0.24604
0.246079
0.246119
0.24616
0.24616
0.2462
0.24624
0.24628
0.24632
0.24632
0.24636
0.2464
0.246441
0.246481
0.246481
0.246521
0.246562
0.246602
0.246643
0.246643
0.246683
0.246723
0.246764
0.246805
0.246805
0.246845
0.246886
0.246927
0.246967
0.246967
0.247008
0.247049
0.24709
0.24713
0.24713
0.247171
0.247212
0.247253
0.247294
0.247294
0.247335
0.247376
0.247417
0.247458
0.247458
0.2475
0.247541
0.247582
0.247623
0.247623
0.247665
0.247706
0.247747
0.247789
0.247789
0.24783
0.247872
0.247913
0.247955
0.247955
0.247996
0.248038
0.248079
0.248121
0.248121
0.248163
0.248204
0.248246
0.248288
0.248288
0.24833
0.248372
0.248414
0.248456
0.248456
0.248498
0.24854
0.248582
0.248624
0.248624
0.248666
0.248708
0.24875
0.248792
0.248792
0.248835
0.248877
0.248919
0.248962
0.248962
0.249004
0.249046
0.249089
0.249131
0.249131
0.249174
0.249216
0.249259
0.249302
0.249302
0.249344
0.249387
0.24943
0.249472
0.249472
0.249515
0.249558
0.249601
0.249644
0.249644
0.249687
0.24973
0.249773
0.249816
0.249816
0.249859
0.249902
0.249945
0.249988
0.249988
0.250031
0.250075
0.250118
0.250161
0.250161
0.250205
0.250248
0.250291
0.250335
0.250335
0.250378
0.250422
0.250465
0.250509
0.250509
0.250552
0.250596
0.25064
0.250684
0.250684
0.250727
0.250771
0.250815
0.250859
0.250859
0.250903
0.250947
0.25099
0.251034
0.251034
0.251078
0.251123
0.251167
0.251211
0.251211
0.251255
0.251299
0.251343
0.251388
0.251388
0.251432
0.251476
0.251521
0.251565
0.251565
0.251609
0.251654
0.251698
0.251743
0.251743
0.251787
0.251832
0.251877
0.251921
0.251921
0.251966
0.252011
0.252056
0.2521
0.2521
0.252145
0.25219
0.252235
0.25228
0.25228
0.252325
0.25237
0.252415
0.25246
0.25246
0.252505
0.25255
0.252595
0.252641
0.252641
0.252686
0.252731
0.252776
0.252822
0.252822
0.252867
0.252913
0.252958
0.253004
0.253004
0.253049
0.253095
0.25314
0.253186
0.253186
0.253231
0.253277
0.253323
0.253369
0.253369
0.253414
0.25346
0.253506
0.253552
0.253552
0.253598
0.253644
0.25369
0.253736
0.253736
0.253782
0.253828
0.253874
0.25392
0.25392
0.253967
0.254013
0.254059
0.254105
0.254105
0.254152
0.254198
0.254244
0.254291
0.254291
0.254337
0.254384
0.25443
0.254477
0.254477
0.254524
0.25457
0.254617
0.254664
0.254664
0.25471
0.254757
0.254804
0.254851
0.254851
0.254898
0.254945
0.254991
0.255038
0.255038
0.255085
0.255132
0.25518
0.255227
0.255227
0.255274
0.255321
0.255368
0.255415
0.255415
0.255463
0.25551
0.255557
0.255605
0.255605
0.255652
0.2557
0.255747
0.255795
0.255795
0.255842
0.25589
0.255937
0.255985
0.255985
0.256033
0.256081
0.256128
0.256176
0.256176
0.256224
0.256272
0.25632
0.256368
0.256368
0.256416
0.256464
0.256512
0.25656
0.25656
0.256608
0.256656
0.256704
0.256752
0.256752
0.2568
0.256849
0.256897
0.256945
0.256945
0.256994
0.257042
0.257091
0.257139
0.257139
0.257188
0.257236
0.257285
0.257333
0.257333
0.257382
0.257431
0.257479
0.257528
0.257528
0.257577
0.257626
0.257674
0.257723
0.257723
0.257772
0.257821
0.25787
0.257919
0.257919
0.257968
0.258017
0.258066
0.258116
0.258116
0.258165
0.258214
0.258263
0.258313
0.258313
0.258362
0.258411
0.258461
0.25851
0.25851
0.258559
0.258609
0.258658
0.258708
0.258708
0.258758
0.258807
0.258857
0.258907
0.258907
0.258956
0.259006
0.259056
0.259106
0.259106
0.259156
0.259205
0.259255
0.259305
0.259305
0.259355
0.259405
0.259455
0.259506
0.259506
0.259556
0.259606
0.259656
0.259706
0.259706
0.259757
0.259807
0.259857
0.259908
0.259908
0.259958
0.260008
0.260059
0.260109
0.260109
0.26016
0.26021
0.260261
0.260312
0.260312
0.260362
0.260413
0.260464
0.260515
0.260515
0.260565
0.260616
0.260667
0.260718
0.260718
0.260769
0.26082
0.260871
0.260922
0.260922
0.260973
0.261024
0.261075
0.261126
0.261126
0.261178
0.261229
0.26128
0.261332
0.261332
0.261383
0.261434
0.261486
0.261537
0.261537
0.261589
0.26164
0.261692
0.261743
0.261743
0.261795
0.261847
0.261898
0.26195
0.26195
0.262002
0.262053
0.262105
0.262157
0.262157
0.262209
0.262261
0.262313
0.262365
0.262365
0.262417
0.262469
0.262521
0.262573
0.262573
0.262625
0.262678
0.26273
0.262782
0.262782
0.262834
0.262887
0.262939
0.262991
0.262991
0.263044
0.263096
0.263149
0.263201
0.263201
0.263254
0.263306
0.263359
0.263412
0.263412
0.263464
0.263517
0.26357
0.263623
0.263623
0.263676
0.263728
0.263781
0.263834
0.263834
0.263887
0.26394
0.263993
0.264046
0.264046
0.264099
0.264153
0.264206
0.264259
0.264259
0.264312
0.264366
0.264419
0.264472
0.264472
0.264526
0.264579
0.264632
0.264686
0.264686
0.264739
0.264793
0.264846
0.2649
0.2649
0.264954
0.265007
0.265061
0.265115
0.265115
0.265169
0.265222
0.265276
0.26533
0.26533
0.265384
0.265438
0.265492
0.265546
0.265546
0.2656
0.265654
0.265708
0.265762
0.265762
0.265817
0.265871
0.265925
0.265979
0.265979
0.266034
0.266088
0.266142
0.266197
0.266197
0.266251
0.266306
0.26636
0.266415
0.266415
0.266469
0.266524
0.266579
0.266633
0.266633
0.266688
0.266743
0.266798
0.266852
0.266852
0.266907
0.266962
0.267017
0.267072
0.267072
0.267127
0.267182
0.267237
0.267292
0.267292
0.267347
0.267402
0.267458
0.267513
0.267513
0.267568
0.267623
0.267679
0.267734
0.267734
0.26779
0.267845
0.2679
0.267956
0.267956
0.268011
0.268067
0.268123
0.268178
0.268178
0.268234
0.26829
0.268345
0.268401
0.268401
0.268457
0.268513
0.268569
0.268624
0.268624
0.26868
0.268736
0.268792
0.268848
0.268848
0.268904
0.268961
0.269017
0.269073
0.269073
0.269129
0.269185
0.269242
0.269298
0.269298
0.269354
0.269411
0.269467
0.269523
0.269523
0.26958
0.269636
0.269693
0.269749
0.269749
0.269806
0.269863
0.269919
0.269976
0.269976
0.270033
0.27009
0.270146
0.270203
0.270203
0.27026
0.270317
0.270374
0.270431
0.270431
0.270488
0.270545
0.270602
0.270659
0.270659
0.270716
0.270773
0.270831
0.270888
0.270888
0.270945
0.271002
0.27106
0.271117
0.271117
0.271175
0.271232
0.271289
0.271347
0.271347
0.271405
0.271462
0.27152
0.271577
0.271577
0.271635
0.271693
0.27175
0.271808
0.271808
0.271866
0.271924
0.271982
0.27204
0.27204
0.272098
0.272156
0.272214
0.272272
0.272272
0.27233
0.272388
0.272446
0.272504
0.272504
0.272562
0.272621
0.272679
0.272737
0.272737
0.272796
0.272854
0.272912
0.272971
0.272971
0.273029
0.273088
0.273146
0.273205
0.273205
0.273264
0.273322
0.273381
0.27344
0.27344
0.273498
0.273557
0.273616
0.273675
0.273675
0.273734
0.273793
0.273852
0.27391
0.27391
0.27397
0.274029
0.274088
0.274147
0.274147
0.274206
0.274265
0.274324
0.274384
0.274384
0.274443
0.274502
0.274561
0.274621
0.274621
0.27468
0.27474
0.274799
0.274859
0.274859
0.274918
0.274978
0.275037
0.275097
0.275097
0.275157
0.275217
0.275276
0.275336
0.275336
0.275396
0.275456
0.275516
0.275576
0.275576
0.275635
0.275695
0.275755
0.275816
0.275816
0.275876
0.275936
0.275996
0.276056
0.276056
0.276116
0.276177
0.276237
0.276297
0.276297
0.276358
0.276418
0.276478
0.276539
0.276539
0.276599
0.27666
0.27672
0.276781
0.276781
0.276842
0.276902
0.276963
0.277024
0.277024
0.277084
0.277145
0.277206
0.277267
0.277267
0.277328
0.277389
0.27745
0.277511
0.277511
0.277572
0.277633
0.277694
0.277755
0.277755
0.277816
0.277877
0.277938
0.278
0.278
0.278061
0.278122
0.278184
0.278245
0.278245
0.278306
0.278368
0.278429
0.278491
0.278491
0.278552
0.278614
0.278676
0.278737
0.278737
0.278799
0.278861
0.278922
0.278984
0.278984
0.279046
0.279108
0.27917
0.279232
0.279232
0.279294
0.279356
0.279418
0.27948
0.27948
0.279542
0.279604
0.279666
0.279728
0.279728
0.27979
0.279853
0.279915
0.279977
0.279977
0.28004
0.280102
0.280164
0.280227
0.280227
0.280289
0.280352
0.280414
0.280477
0.280477
0.28054
0.280602
0.280665
0.280728
0.280728
0.28079
0.280853
0.280916
0.280979
0.280979
0.281042
0.281105
0.281168
0.281231
0.281231
0.281294
0.281357
0.28142
0.281483
0.281483
0.281546
0.281609
0.281672
0.281736
0.281736
0.281799
0.281862
0.281926
0.281989
0.281989
0.282052
0.282116
0.282179
0.282243
0.282243
0.282306
0.28237
0.282434
0.282497
0.282497
0.282561
0.282625
0.282688
0.282752
0.282752
0.282816
0.28288
0.282944
0.283008
0.283008
0.283072
0.283136
0.2832
0.283264
0.283264
0.283328
0.283392
0.283456
0.28352
0.28352
0.283584
0.283649
0.283713
0.283777
0.283777
0.283842
0.283906
0.28397
0.284035
0.284035
0.284099
0.284164
0.284228
0.284293
0.284293
0.284357
0.284422
0.284487
0.284551
0.284551
0.284616
0.284681
0.284746
0.284811
0.284811
0.284876
0.28494
0.285005
0.28507
0.28507
0.285135
0.2852
0.285265
0.285331
0.285331
0.285396
0.285461
0.285526
0.285591
0.285591
0.285657
0.285722
0.285787
0.285853
0.285853
0.285918
0.285983
0.286049
0.286114
0.286114
0.28618
0.286246
0.286311
0.286377
0.286377
0.286442
0.286508
0.286574
0.28664
0.28664
0.286705
0.286771
0.286837
0.286903
0.286903
0.286969
0.287035
0.287101
0.287167
0.287167
0.287233
0.287299
0.287365
0.287431
0.287431
0.287498
0.287564
0.28763
0.287696
0.287696
0.287763
0.287829
0.287896
0.287962
0.287962
0.288028
0.288095
0.288161
0.288228
0.288228
0.288295
0.288361
0.288428
0.288495
0.288495
0.288561
0.288628
0.288695
0.288762
0.288762
0.288829
0.288895
0.288962
0.289029
0.289029
0.289096
0.289163
0.28923
0.289298
0.289298
0.289365
0.289432
0.289499
0.289566
0.289566
0.289633
0.289701
0.289768
0.289835
0.289835
0.289903
0.28997
0.290038
0.290105
0.290105
0.290173
0.29024
0.290308
0.290375
0.290375
0.290443
0.290511
0.290579
0.290646
0.290646
0.290714
0.290782
0.29085
0.290918
0.290918
0.290986
0.291053
0.291121
0.291189
0.291189
0.291258
0.291326
0.291394
0.291462
0.291462
0.29153
0.291598
0.291666
0.291735
0.291735
0.291803
0.291871
0.29194
0.292008
0.292008
0.292077
0.292145
0.292214
0.292282
0.292282
0.292351
0.292419
0.292488
0.292557
0.292557
0.292625
0.292694
0.292763
0.292832
0.292832
0.292901
0.292969
0.293038
0.293107
0.293107
0.293176
0.293245
0.293314
0.293383
0.293383
0.293452
0.293522
0.293591
0.29366
0.29366
0.293729
0.293798
0.293868
0.293937
0.293937
0.294006
0.294076
0.294145
0.294215
0.294215
0.294284
0.294354
0.294423
0.294493
0.294493
0.294562
0.294632
0.294702
0.294772
0.294772
0.294841
0.294911
0.294981
0.295051
0.295051
0.295121
0.295191
0.295261
0.295331
0.295331
0.295401
0.295471
0.295541
0.295611
0.295611
0.295681
0.295751
0.295821
0.295892
0.295892
0.295962
0.296032
0.296103
0.296173
0.296173
0.296243
0.296314
0.296384
0.296455
0.296455
0.296525
0.296596
0.296667
0.296737
0.296737
0.296808
0.296879
0.296949
0.29702
0.29702
0.297091
0.297162
0.297233
0.297303
0.297303
0.297374
0.297445
0.297516
0.297587
0.297587
0.297658
0.29773
0.297801
0.297872
0.297872
0.297943
0.298014
0.298086
0.298157
0.298157
0.298228
0.2983
0.298371
0.298442
0.298442
0.298514
0.298585
0.298657
0.298728
0.298728
0.2988
0.298872
0.298943
0.299015
0.299015
0.299087
0.299158
0.29923
0.299302
0.299302
0.299374
0.299446
0.299518
0.29959
0.29959
0.299662
0.299734
0.299806
0.299878
0.299878
0.29995
0.300022
0.300094
0.300167
0.300167
0.300239
0.300311
0.300383
0.300456
0.300456
0.300528
0.3006
0.300673
0.300745
0.300745
0.300818
0.30089
0.300963
0.301036
0.301036
0.301108
0.301181
0.301254
0.301326
0.301326
0.301399
0.301472
0.301545
0.301618
0.301618
0.301691
0.301763
0.301836
0.301909
0.301909
0.301982
0.302056
0.302129
0.302202
0.302202
0.302275
0.302348
0.302421
0.302495
0.302495
0.302568
0.302641
0.302715
0.302788
0.302788
0.302861
0.302935
0.303008
0.303082
0.303082
0.303155
0.303229
0.303303
0.303376
0.303376
0.30345
0.303524
0.303597
0.303671
0.303671
0.303745
0.303819
0.303893
0.303967
0.303967
0.304041
0.304115
0.304189
0.304263
0.304263
0.304337
0.304411
0.304485
0.304559
0.304559
0.304633
0.304707
0.304782
0.304856
0.304856
0.30493
0.305005
0.305079
0.305154
0.305154
0.305228
0.305303
0.305377
0.305452
0.305452
0.305526
0.305601
0.305675
0.30575
0.30575
0.305825
0.3059
0.305974
0.306049
0.306049
0.306124
0.306199
0.306274
0.306349
0.306349
0.306424
0.306499
0.306574
0.306649
0.306649
0.306724
0.306799
0.306874
0.30695
0.30695
0.307025
0.3071
0.307175
0.307251
0.307251
0.307326
0.307402
0.307477
0.307552
0.307552
0.307628
0.307704
0.307779
0.307855
0.307855
0.30793
0.308006
0.308082
0.308157
0.308157
0.308233
0.308309
0.308385
0.308461
0.308461
0.308537
0.308612
0.308688
0.308764
0.308764
0.30884
0.308916
0.308993
0.309069
0.309069
0.309145
0.309221
0.309297
0.309373
0.309373
0.30945
0.309526
0.309602
0.309679
0.309679
0.309755
0.309832
0.309908
0.309985
0.309985
0.310061
0.310138
0.310214
0.310291
0.310291
0.310368
0.310444
0.310521
0.310598
0.310598
0.310675
0.310751
0.310828
0.310905
0.310905
0.310982
0.311059
0.311136
0.311213
0.311213
0.31129
0.311367
0.311444
0.311522
0.311522
0.311599
0.311676
0.311753
0.31183
0.31183
0.311908
0.311985
0.312062
0.31214
0.31214
0.312217
0.312295
0.312372
0.31245
0.31245
0.312527
0.312605
0.312683
0.31276
0.31276
0.312838
0.312916
0.312994
0.313071
0.313071
0.313149
0.313227
0.313305
0.313383
0.313383
0.313461
0.313539
0.313617
0.313695
0.313695
0.313773
0.313851
0.313929
0.314007
0.314007
0.314086
0.314164
0.314242
0.314321
0.314321
0.314399
0.314477
0.314556
0.314634
0.314634
0.314713
0.314791
0.31487
0.314948
0.314948
0.315027
0.315105
0.315184
0.315263
0.315263
0.315342
0.31542
0.315499
0.315578
0.315578
0.315657
0.315736
0.315815
0.315894
0.315894
0.315973
0.316052
0.316131
0.31621
0.31621
0.316289
0.316368
0.316447
0.316526
0.316526
0.316606
0.316685
0.316764
0.316844
0.316844
0.316923
0.317002
0.317082
0.317161
0.317161
0.317241
0.31732
0.3174
0.317479
0.317479
0.317559
0.317639
0.317718
0.317798
0.317798
0.317878
0.317958
0.318038
0.318117
0.318117
0.318197
0.318277
0.318357
0.318437
0.318437
0.318517
0.318597
0.318677
0.318757
0.318757
0.318838
0.318918
0.318998
0.319078
0.319078
0.319158
0.319239
0.319319
0.319399
0.319399
0.31948
0.31956
0.319641
0.319721
0.319721
0.319802
0.319882
0.319963
0.320044
0.320044
0.320124
0.320205
0.320286
0.320366
0.320366
0.320447
0.320528
0.320609
0.32069
0.32069
0.320771
0.320852
0.320933
0.321014
0.321014
0.321095
0.321176
0.321257
0.321338
0.321338
0.321419
0.3215
0.321582
0.321663
0.321663
0.321744
0.321825
0.321907
0.321988
0.321988
0.32207
0.322151
0.322233
0.322314
0.322314
0.322396
0.322477
0.322559
0.322641
0.322641
0.322722
0.322804
0.322886
0.322967
0.322967
0.323049
0.323131
0.323213
0.323295
0.323295
0.323377
0.323459
0.323541
0.323623
0.323623
0.323705
0.323787
0.323869
0.323951
0.323951
0.324033
0.324116
0.324198
0.32428
0.32428
0.324363
0.324445
0.324527
0.32461
0.32461
0.324692
0.324775
0.324857
0.32494
0.32494
0.325022
0.325105
0.325187
0.32527
0.32527
0.325353
0.325436
0.325518
0.325601
0.325601
0.325684
0.325767
0.32585
0.325933
0.325933
0.326016
0.326099
0.326182
0.326265
0.326265
0.326348
0.326431
0.326514
0.326597
0.326597
0.32668
0.326764
0.326847
0.32693
0.32693
0.327014
0.327097
0.32718
0.327264
0.327264
0.327347
0.327431
0.327514
0.327598
0.327598
0.327681
0.327765
0.327849
0.327932
0.327932
0.328016
0.3281
0.328184
0.328267
0.328267
0.328351
0.328435
0.328519
0.328603
0.328603
0.328687
0.328771
0.328855
0.328939
0.328939
0.329023
0.329107
0.329191
0.329276
0.329276
0.32936
0.329444
0.329528
0.329613
0.329613
0.329697
0.329782
0.329866
0.32995
0.32995
0.330035
0.330119
0.330204
0.330288
0.330288
0.330373
0.330458
0.330542
0.330627
0.330627
0.330712
0.330797
0.330881
0.330966
0.330966
0.331051
0.331136
0.331221
0.331306
0.331306
0.331391
0.331476
0.331561
0.331646
0.331646
0.331731
0.331816
0.331901
0.331987
0.331987
0.332072
0.332157
0.332242
0.332328
0.332328
0.332413
0.332499
0.332584
0.332669
0.332669
0.332755
0.33284
0.332926
0.333012
0.333012
0.333097
0.333183
0.333269
0.333354
0.333354
0.33344
0.333526
0.333612
0.333697
0.333697
0.333783
0.333869
0.333955
0.334041
0.334041
0.334127
0.334213
0.334299
0.334385
0.334385
0.334471
0.334558
0.334644
0.33473
0.33473
0.334816
0.334902
0.334989
0.335075
0.335075
0.335162
0.335248
0.335334
0.335421
0.335421
0.335507
0.335594
0.33568
0.335767
0.335767
0.335854
0.33594
0.336027
0.336114
0.336114
0.3362
0.336287
0.336374
0.336461
0.336461
0.336548
0.336635
0.336722
0.336809
0.336809
0.336896
0.336983
0.33707
0.337157
0.337157
0.337244
0.337331
0.337418
0.337506
0.337506
0.337593
0.33768
0.337767
0.337855
0.337855
0.337942
0.33803
0.338117
0.338204
0.338204
0.338292
0.338379
0.338467
0.338555
0.338555
0.338642
0.33873
0.338818
0.338905
0.338905
0.338993
0.339081
0.339169
0.339257
0.339257
0.339344
0.339432
0.33952
0.339608
0.339608
0.339696
0.339784
0.339872
0.339961
0.339961
0.340049
0.340137
0.340225
0.340313
0.340313
0.340402
0.34049
0.340578
0.340666
0.340666
0.340755
0.340843
0.340932
0.34102
0.34102
0.341109
0.341197
0.341286
0.341374
0.341374
0.341463
0.341552
0.34164
0.341729
0.341729
0.341818
0.341907
0.341996
0.342084
0.342084
0.342173
0.342262
0.342351
0.34244
0.34244
0.342529
0.342618
0.342707
0.342796
0.342796
0.342885
0.342975
0.343064
0.343153
0.343153
0.343242
0.343332
0.343421
0.34351
0.34351
0.3436
0.343689
0.343779
0.343868
0.343868
0.343958
0.344047
0.344137
0.344226
0.344226
0.344316
0.344406
0.344495
0.344585
0.344585
0.344675
0.344765
0.344854
0.344944
0.344944
0.345034
0.345124
0.345214
0.345304
0.345304
0.345394
0.345484