<?xml version="1.0"?>
<VTKFile type="UnstructuredGrid" version="0.1" byte_order="LittleEndian">
<UnstructuredGrid>
<Piece NumberOfPoints="5000" NumberOfCells="4000">
<PointData Scalars="Reaction 0">
<DataArray type="Float32" Name="Reaction 0" format="ascii">
0.862129
0.862129
0.862129
0.862129
0.862129
0.862129
0.862129
0.862129
0.862129
0.862129
0.862129
0.862129
0.862129
0.862129
0.862129
0.862129
0.862129
0.862129
0.862129
0.862129
0.862129
0.862129
0.862129
0.862129
0.862129
0.862129
0.862129
0.862129
0.862129
0.862129
0.862129
0.862129
0.862129
0.862129
0.862129
0.862129
0.862129
0.862129
0.862129
0.862129
0.862129
0.862129
0.862129
0.862129
0.862129
0.862129
0.862129
0.862129
0.862128
0.862128
0.862128
0.862128
0.862128
0.862128
0.862128
0.862128
0.862128
0.862128
0.862128
0.862128
0.862128
0.862128
0.862128
0.862128
0.862128
0.862128
0.862128
0.862128
0.862128
0.862127
0.862127
0.862127
0.862127
0.862127
0.862127
0.862127
0.862127
0.862127
0.862127
0.862127
0.862127
0.862127
0.862127
0.862127
0.862127
0.862127
0.862126
0.862126
0.862126
0.862126
0.862126
0.862126
0.862126
0.862126
0.862126
0.862126
0.862126
0.862126
0.862126
0.862125
0.862125
0.862125
0.862125
0.862125
0.862125
0.862125
0.862125
0.862125
0.862125
0.862125
0.862125
0.862125
0.862124
0.862124
0.862124
0.862124
0.862124
0.862124
0.862124
0.862124
0.862124
0.862124
0.862124
0.862123
0.862123
0.862123
0.862123
0.862123
0.862123
0.862123
0.862123
0.862123
0.862122
0.862122
0.862122
0.862122
0.862122
0.862122
0.862122
0.862122
0.862122
0.862122
0.862121
0.862121
0.862121
0.862121
0.862121
0.862121
0.862121
0.862121
0.862121
0.86212
0.86212
0.86212
0.86212
0.86212
0.86212
0.86212
0.862119
0.862119
0.862119
0.862119
0.862119
0.862119
0.862119
0.862119
0.862119
0.862118
0.862118
0.862118
0.862118
0.862118
0.862118
0.862118
0.862117
0.862117
0.862117
0.862117
0.862117
0.862117
0.862117
0.862116
0.862116
0.862116
0.862116
0.862116
0.862116
0.862116
0.862115
0.862115
0.862115
0.862115
0.862115
0.862115
0.862114
0.862114
0.862114
0.862114
0.862114
0.862114
0.862114
0.862113
0.862113
0.862113
0.862113
0.862113
0.862113
0.862112
0.862112
0.862112
0.862112
0.862112
0.862112
0.862111
0.862111
0.862111
0.862111
0.862111
0.862111
0.86211
0.86211
0.86211
0.86211
0.86211
0.862109
0.862109
0.862109
0.862109
0.862109
0.862109
0.862109
0.862108
0.862108
0.862108
0.862108
0.862108
0.862107
0.862107
0.862107
0.862107
0.862107
0.862106
0.862106
0.862106
0.862106
0.862106
0.862106
0.862105
0.862105
0.862105
0.862105
0.862105
0.862104
0.862104
0.862104
0.862104
0.862104
0.862103
0.862103
0.862103
0.862103
0.862103
0.862102
0.862102
0.862102
0.862102
0.862102
0.862101
0.862101
0.862101
0.862101
0.8621
0.8621
0.8621
0.8621
0.8621
0.862099
0.862099
0.862099
0.862099
0.862099
0.862098
0.862098
0.862098
0.862097
0.862097
0.862097
0.862097
0.862097
0.862096
0.862096
0.862096
0.862096
0.862095
0.862095
0.862095
0.862095
0.862095
0.862094
0.862094
0.862094
0.862094
0.862093
0.862093
0.862093
0.862093
0.862093
0.862092
0.862092
0.862092
0.862092
0.862091
0.862091
0.862091
0.86209
0.86209
0.86209
0.86209
0.862089
0.862089
0.862089
0.862089
0.862089
0.862088
0.862088
0.862088
0.862088
0.862087
0.862087
0.862087
0.862087
0.862086
0.862086
0.862086
0.862085
0.862085
0.862085
0.862085
0.862084
0.862084
0.862084
0.862084
0.862083
0.862083
0.862083
0.862083
0.862082
0.862082
0.862082
0.862081
0.862081
0.862081
0.862081
0.86208
0.86208
0.86208
0.86208
0.862079
0.862079
0.862078
0.862078
0.862078
0.862078
0.862077
0.862077
0.862077
0.862077
0.862076
0.862076
0.862076
0.862076
0.862075
0.862075
0.862075
0.862074
0.862074
0.862074
0.862073
0.862073
0.862073
0.862073
0.862072
0.862072
0.862072
0.862071
0.862071
0.862071
0.86207
0.86207
0.86207
0.86207
0.862069
0.862069
0.862069
0.862068
0.862068
0.862068
0.862067
0.862067
0.862067
0.862067
0.862066
0.862066
0.862065
0.862065
0.862065
0.862065
0.862064
0.862064
0.862063
0.862063
0.862063
0.862063
0.862062
0.862062
0.862062
0.862061
0.862061
0.862061
0.86206
0.86206
0.86206
0.862059
0.862059
0.862059
0.862059
0.862058
0.862058
0.862057
0.862057
0.862057
0.862056
0.862056
0.862056
0.862055
0.862055
0.862055
0.862054
0.862054
0.862053
0.862053
0.862053
0.862053
0.862052
0.862052
0.862052
0.862051
0.862051
0.86205
0.86205
0.86205
0.86205
0.862049
0.862049
0.862048
0.862048
0.862048
0.862047
0.862047
0.862046
0.862046
0.862046
0.862046
0.862045
0.862045
0.862045
0.862044
0.862044
0.862043
0.862043
0.862043
0.862042
0.862042
0.862041
0.862041
0.862041
0.862041
0.86204
0.86204
0.862039
0.862039
0.862039
0.862038
0.862038
0.862037
0.862037
0.862037
0.862036
0.862036
0.862035
0.862035
0.862035
0.862034
0.862034
0.862033
0.862033
0.862033
0.862033
0.862032
0.862032
0.862032
0.862031
0.862031
0.86203
0.86203
0.86203
0.862029
0.862029
0.862028
0.862028
0.862028
0.862027
0.862027
0.862026
0.862026
0.862026
0.862025
0.862025
0.862024
0.862024
0.862024
0.862023
0.862023
0.862022
0.862022
0.862022
0.862021
0.862021
0.86202
0.86202
0.86202
0.862019
0.862019
0.862018
0.862018
0.862018
0.862017
0.862016
0.862016
0.862015
0.862015
0.862015
0.862014
0.862014
0.862013
0.862013
0.862013
0.862012
0.862012
0.862011
0.862011
0.862011
0.86201
0.86201
0.862009
0.862009
0.862009
0.862008
0.862007
0.862007
0.862007
0.862006
0.862006
0.862005
0.862005
0.862005
0.862004
0.862004
0.862003
0.862003
0.862003
0.862002
0.862001
0.862001
0.862
0.862
0.862
0.861999
0.861999
0.861998
0.861998
0.861998
0.861997
0.861996
0.861996
0.861996
0.861995
0.861995
0.861994
0.861994
0.861994
0.861993
0.861992
0.861992
0.861991
0.861991
0.861991
0.86199
0.86199
0.861989
0.861989
0.861988
0.861988
0.861987
0.861987
0.861987
0.861986
0.861986
0.861985
0.861984
0.861984
0.861984
0.861983
0.861983
0.861982
0.861982
0.861981
0.861981
0.86198
0.86198
0.86198
0.861979
0.861978
0.861978
0.861977
0.861977
0.861977
0.861976
0.861975
0.861975
0.861975
0.861974
0.861974
0.861973
0.861972
0.861972
0.861972
0.861971
0.861971
0.86197
0.86197
0.861969
0.861969
0.861968
0.861967
0.861967
0.861967
0.861966
0.861966
0.861965
0.861965
0.861964
0.861964
0.861963
0.861963
0.861963
0.861962
0.861961
0.861961
0.86196
0.86196
0.861959
0.861959
0.861958
0.861957
0.861957
0.861957
0.861956
0.861956
0.861955
0.861955
0.861954
0.861954
0.861953
0.861952
0.861952
0.861952
0.861951
0.86195
0.86195
0.86195
0.861949
0.861948
0.861948
0.861947
0.861947
0.861946
0.861946
0.861945
0.861945
0.861945
0.861944
0.861943
0.861943
0.861942
0.861942
0.861941
0.861941
0.86194
0.861939
0.861939
0.861939
0.861938
0.861937
0.861937
0.861937
0.861936
0.861935
0.861934
0.861934
0.861934
0.861933
0.861932
0.861932
0.861931
0.861931
0.86193
0.86193
0.861929
0.861928
0.861928
0.861928
0.861927
0.861926
0.861926
0.861926
0.861925
0.861924
0.861924
0.861923
0.861923
0.861922
0.861921
0.861921
0.86192
0.86192
0.861919
0.861919
0.861918
0.861917
0.861917
0.861917
0.861916
0.861915
0.861914
0.861914
0.861914
0.861913
0.861912
0.861912
0.861912
0.861911
0.86191
0.861909
0.861909
0.861909
0.861908
0.861907
0.861907
0.861906
0.861906
0.861905
0.861904
0.861904
0.861903
0.861903
0.861902
0.861902
0.861901
0.8619
0.8619
0.861899
0.861899
0.861898
0.861897
0.861897
0.861896
0.861896
0.861895
0.861894
0.861894
0.861893
0.861893
0.861892
0.861891
0.861891
0.861891
0.86189
0.861889
0.861888
0.861888
0.861888
0.861887
0.861886
0.861885
0.861885
0.861885
0.861884
0.861883
0.861882
0.861882
0.861882
0.861881
0.86188
0.861879
0.861879
0.861878
0.861878
0.861877
0.861876
0.861876
0.861875
0.861875
0.861874
0.861873
0.861873
0.861872
0.861872
0.861871
0.86187
0.86187
0.861869
0.861868
0.861868
0.861867
0.861867
0.861866
0.861865
0.861865
0.861864
0.861864
0.861863
0.861862
0.861861
0.861861
0.861861
0.86186
0.861859
0.861858
0.861858
0.861858
0.861857
0.861856
0.861855
0.861854
0.861854
0.861854
0.861853
0.861852
0.861851
0.861851
0.86185
0.86185
0.861849
0.861848
0.861848
0.861847
0.861846
0.861846
0.861845
0.861845
0.861844
0.861843
0.861842
0.861842
0.861842
0.861841
0.86184
0.861839
0.861838
0.861838
0.861838
0.861837
0.861836
0.861835
0.861835
0.861834
0.861833
0.861833
0.861832
0.861832
0.861831
0.86183
0.861829
0.861828
0.861828
0.861828
0.861827
0.861826
0.861825
0.861825
0.861824
0.861823
0.861823
0.861822
0.861822
0.861821
0.86182
0.861819
0.861818
0.861818
0.861818
0.861817
0.861816
0.861815
0.861815
0.861814
0.861813
0.861813
0.861812
0.861812
0.861811
0.86181
0.861809
0.861808
0.861808
0.861807
0.861807
0.861806
0.861805
0.861805
0.861804
0.861803
0.861802
0.861801
0.861801
0.861801
0.8618
0.861799
0.861798
0.861798
0.861797
0.861796
0.861795
0.861795
0.861795
0.861794
0.861793
0.861792
0.861791
0.861791
0.86179
0.861789
0.861788
0.861788
0.861788
0.861787
0.861786
0.861785
0.861784
0.861784
0.861783
0.861782
0.861781
0.861781
0.861781
0.86178
0.861779
0.861778
0.861777
0.861777
0.861776
0.861775
0.861774
0.861773
0.861773
0.861773
0.861772
0.861771
0.86177
0.86177
0.861769
0.861768
0.861767
0.861766
0.861766
0.861765
0.861765
0.861764
0.861763
0.861763
0.861762
0.861761
0.86176
0.861759
0.861759
0.861758
0.861757
0.861756
0.861755
0.861755
0.861755
0.861754
0.861753
0.861752
0.861752
0.861751
0.86175
0.861749
0.861748
0.861748
0.861747
0.861746
0.861745
0.861744
0.861744
0.861744
0.861743
0.861742
0.861741
0.861741
0.86174
0.861739
0.861738
0.861737
0.861737
0.861736
0.861735
0.861734
0.861733
0.861733
0.861732
0.861731
0.86173
0.86173
0.86173
0.861729
0.861728
0.861727
0.861726
0.861726
0.861725
0.861724
0.861723
0.861722
0.861722
0.861721
0.86172
0.861719
0.861718
0.861718
0.861717
0.861716
0.861715
0.861714
0.861714
0.861713
0.861712
0.861712
0.861711
0.861711
0.86171
0.861709
0.861708
0.861707
0.861707
0.861706
0.861705
0.861704
0.861703
0.861703
0.861702
0.861701
0.8617
0.861699
0.861699
0.861698
0.861697
0.861696
0.861695
0.861695
0.861694
0.861693
0.861692
0.861691
0.861691
0.86169
0.861689
0.861688
0.861687
0.861687
0.861686
0.861685
0.861684
0.861683
0.861683
0.861682
0.861681
0.86168
0.861679
0.861679
0.861678
0.861677
0.861676
0.861675
0.861675
0.861674
0.861673
0.861672
0.861671
0.861671
0.86167
0.861669
0.861668
0.861667
0.861667
0.861666
0.861665
0.861664
0.861663
0.861663
0.861662
0.861661
0.86166
0.861659
0.861659
0.861658
0.861657
0.861656
0.861655
0.861655
0.861654
0.861653
0.861652
0.861651
0.861651
0.86165
0.861649
0.861648
0.861647
0.861647
0.861646
0.861645
0.861644
0.861643
0.861643
0.861642
0.861641
0.86164
0.861639
0.861639
0.861638
0.861637
0.861636
0.861635
0.861635
0.861634
0.861632
0.861631
0.86163
0.86163
0.861629
0.861628
0.861627
0.861626
0.861626
0.861625
0.861624
0.861623
0.861622
0.861622
0.86162
0.861619
0.861618
0.861617
0.861617
0.861616
0.861615
0.861614
0.861612
0.861612
0.861611
0.86161
0.861609
0.861608
0.861608
0.861607
0.861605
0.861604
0.861603
0.861603
0.861602
0.861601
0.8616
0.861598
0.861598
0.861597
0.861596
0.861595
0.861594
0.861594
0.861592
0.861591
0.86159
0.861589
0.861589
0.861587
0.861586
0.861585
0.861584
0.861584
0.861582
0.861581
0.86158
0.861579
0.861579
0.861577
0.861576
0.861575
0.861574
0.861574
0.861572
0.861571
0.86157
0.861568
0.861568
0.861567
0.861566
0.861565
0.861563
0.861563
0.861562
0.861561
0.861559
0.861558
0.861558
0.861557
0.861556
0.861554
0.861553
0.861553
0.861552
0.86155
0.861549
0.861548
0.861548
0.861546
0.861545
0.861544
0.861543
0.861543
0.861541
0.86154
0.861539
0.861537
0.861537
0.861536
0.861535
0.861533
0.861532
0.861532
0.861531
0.861529
0.861528
0.861527
0.861527
0.861525
0.861524
0.861523
0.861522
0.861522
0.86152
0.861519
0.861518
0.861516
0.861516
0.861515
0.861514
0.861512
0.861511
0.861511
0.86151
0.861508
0.861507
0.861506
0.861506
0.861504
0.861503
0.861502
0.8615
0.8615
0.861499
0.861498
0.861496
0.861495
0.861495
0.861493
0.861492
0.861491
0.861489
0.861489
0.861488
0.861487
0.861485
0.861484
0.861484
0.861483
0.861481
0.86148
0.861479
0.861479
0.861477
0.861476
0.861475
0.861473
0.861473
0.861472
0.86147
0.861469
0.861468
0.861468
0.861466
0.861465
0.861464
0.861462
0.861462
0.861461
0.86146
0.861458
0.861457
0.861457
0.861455
0.861454
0.861453
0.861451
0.861451
0.86145
0.861449
0.861447
0.861446
0.861446
0.861444
0.861443
0.861442
0.86144
0.86144
0.861439
0.861437
0.861436
0.861435
0.861435
0.861433
0.861432
0.86143
0.861429
0.861429
0.861428
0.861426
0.861425
0.861424
0.861424
0.861422
0.861421
0.861419
0.861418
0.861418
0.861416
0.861415
0.861414
0.861412
0.861412
0.861411
0.861409
0.861408
0.861407
0.861407
0.861405
0.861404
0.861402
0.861401
0.861401
0.8614
0.861398
0.861397
0.861395
0.861395
0.861394
0.861393
0.861391
0.86139
0.86139
0.861388
0.861387
0.861385
0.861384
0.861384
0.861383
0.861381
0.86138
0.861378
0.861378
0.861377
0.861375
0.861374
0.861373
0.861373
0.861371
0.86137
0.861368
0.861367
0.861367
0.861365
0.861364
0.861362
0.861361
0.861361
0.86136
0.861358
0.861357
0.861355
0.861355
0.861354
0.861352
0.861351
0.861349
0.861349
0.861348
0.861347
0.861345
0.861344
0.861344
0.861342
0.861341
0.861339
0.861338
0.861338
0.861336
0.861335
0.861333
0.861332
0.861332
0.861331
0.861329
0.861328
0.861326
0.861326
0.861325
0.861323
0.861322
0.86132
0.86132
0.861319
0.861317
0.861316
0.861314
0.861314
0.861313
0.861312
0.86131
0.861309
0.861309
0.861307
0.861306
0.861304
0.861303
0.861303
0.861301
0.8613
0.861298
0.861297
0.861297
0.861295
0.861294
0.861292
0.861291
0.861291
0.861289
0.861288
0.861286
0.861285
0.861285
0.861283
0.861282
0.86128
0.861279
0.861279
0.861277
0.861276
0.861274
0.861273
0.861273
0.861271
0.86127
0.861268
0.861267
0.861267
0.861265
0.861264
0.861262
0.861261
0.861261
0.861259
0.861258
0.861256
0.861255
0.861255
0.861253
0.861252
0.86125
0.861249
0.861249
0.861247
0.861246
0.861244
0.861243
0.861243
0.861241
0.86124
0.861238
0.861237
0.861237
0.861235
0.861234
0.861232
0.861231
0.861231
0.861229
0.861228
0.861226
0.861225
0.861225
0.861223
0.861221
0.86122
0.861218
0.861218
0.861217
0.861215
0.861214
0.861212
0.861212
0.861211
0.861209
0.861208
0.861206
0.861206
0.861205
0.861203
0.861202
0.8612
0.8612
0.861198
0.861197
0.861195
0.861194
0.861194
0.861192
0.861191
0.861189
0.861188
0.861188
0.861186
0.861185
0.861183
0.861182
0.861182
0.86118
0.861178
0.861177
0.861175
0.861175
0.861174
0.861172
0.861171
0.861169
0.861169
0.861168
0.861166
0.861164
0.861163
0.861163
0.861161
0.86116
0.861158
0.861157
0.861157
0.861155
0.861153
0.861152
0.86115
0.86115
0.861149
0.861147
0.861146
0.861144
0.861144
0.861143
0.861141
0.861139
0.861138
0.861138
0.861136
0.861135
0.861133
0.861131
0.861131
0.86113
0.861128
0.861127
0.861125
0.861125
0.861124
0.861122
0.86112
0.861119
0.861119
0.861117
0.861116
0.861114
0.861113
0.861113
0.861111
0.861109
0.861108
0.861106
0.861106
0.861105
0.861103
0.861101
0.8611
0.8611
0.861098
0.861097
0.861095
0.861093
0.861093
0.861092
0.86109
0.861089
0.861087
0.861087
0.861085
0.861084
0.861082
0.861081
0.861081
0.861079
0.861077
0.861076
0.861074
0.861074
0.861073
0.861071
0.861069
0.861068
0.861068
0.861066
0.861065
0.861063
0.861061
0.861061
0.86106
0.861058
0.861057
0.861055
0.861055
0.861053
0.861052
0.86105
0.861048
0.861048
0.861047
0.861045
0.861044
0.861042
0.861042
0.86104
0.861039
0.861037
0.861035
0.861035
0.861034
0.861032
0.861031
0.861029
0.861029
0.861027
0.861026
0.861024
0.861022
0.861022
0.861021
0.861019
0.861018
0.861016
0.861016
0.861014
0.861013
0.861011
0.861009
0.861009
0.861008
0.861006
0.861005
0.861003
0.861003
0.861001
0.861
0.860998
0.860996
0.860996
0.860995
0.860993
0.860991
0.86099
0.86099
0.860988
0.860986
0.860985
0.860983
0.860983
0.860982
0.86098
0.860978
0.860977
0.860977
0.860975
0.860973
0.860972
0.86097
0.86097
0.860968
0.860967
0.860965
0.860963
0.860963
0.860962
0.86096
0.860958
0.860957
0.860957
0.860955
0.860953
0.860952
0.86095
0.86095
0.860948
0.860947
0.860945
0.860943
0.860943
0.860942
0.86094
0.860938
0.860937
0.860937
0.860935
0.860933
0.860932
0.86093
0.86093
0.860928
0.860927
0.860925
0.860923
0.860923
0.860922
0.86092
0.860918
0.860917
0.860917
0.860915
0.860913
0.860912
0.86091
0.86091
0.860908
0.860907
0.860905
0.860903
0.860903
0.860902
0.8609
0.860898
0.860897
0.860897
0.860895
0.860893
0.860891
0.86089
0.86089
0.860888
0.860886
0.860885
0.860883
0.860883
0.860881
0.86088
0.860878
0.860876
0.860876
0.860875
0.860873
0.860871
0.860869
0.860869
0.860868
0.860866
0.860864
0.860863
0.860863
0.860861
0.860859
0.860857
0.860856
0.860856
0.860854
0.860852
0.860851
0.860849
0.860849
0.860847
0.860845
0.860844
0.860842
0.860842
0.86084
0.860838
0.860836
0.860835
0.860835
0.860833
0.860831
0.860829
0.860828
0.860828
0.860826
0.860824
0.860822
0.86082
0.86082
0.860818
0.860817
0.860815
0.860813
0.860813
0.860811
0.860809
0.860807
0.860805
0.860805
0.860804
0.860802
0.8608
0.860798
0.860798
0.860796
0.860794
0.860792
0.86079
0.86079
0.860788
0.860787
0.860785
0.860783
0.860783
0.860781
0.860779
0.860777
0.860775
0.860775
0.860773
0.860771
0.860769
0.860767
0.860767
0.860765
0.860763
0.860761
0.860759
0.860759
0.860757
0.860755
0.860753
0.860751
0.860751
0.860749
0.860747
0.860745
0.860743
0.860743
0.860741
0.860739
0.860737
0.860735
0.860735
0.860733
0.860731
0.860729
0.860727
0.860727
0.860725
0.860723
0.860721
0.860719
0.860719
0.860717
0.860715
0.860713
0.860711
0.860711
0.860709
0.860707
0.860704
0.860702
0.860702
0.8607
0.860698
0.860696
0.860694
0.860694
0.860692
0.86069
0.860688
0.860686
0.860686
0.860684
0.860682
0.86068
0.860678
0.860678
0.860676
0.860674
0.860672
0.86067
0.86067
0.860667
0.860665
0.860663
0.860661
0.860661
0.860659
0.860657
0.860655
0.860653
0.860653
0.860651
0.860649
0.860647
0.860645
0.860645
0.860643
0.860641
0.860638
0.860636
0.860636
0.860634
0.860632
0.86063
0.860628
0.860628
0.860626
0.860624
0.860622
0.86062
0.86062
0.860618
0.860616
0.860614
0.860611
0.860611
0.860609
0.860607
0.860605
0.860603
0.860603
0.860601
0.860599
0.860597
0.860595
0.860595
0.860593
0.860591
0.860589
0.860586
0.860586
0.860584
0.860582
0.86058
0.860578
0.860578
0.860576
0.860574
0.860572
0.86057
0.86057
0.860568
0.860565
0.860563
0.860561
0.860561
0.860559
0.860557
0.860555
0.860553
0.860553
0.860551
0.860549
0.860547
0.860544
0.860544
0.860542
0.86054
0.860538
0.860536
0.860536
0.860534
0.860532
0.86053
0.860528
0.860528
0.860525
0.860523
0.860521
0.860519
0.860519
0.860517
0.860515
0.860513
0.860511
0.860511
0.860509
0.860506
0.860504
0.860502
0.860502
0.8605
0.860498
0.860496
0.860494
0.860494
0.860492
0.860489
0.860487
0.860485
0.860485
0.860483
0.860481
0.860479
0.860477
0.860477
0.860475
0.860472
0.86047
0.860468
0.860468
0.860466
0.860464
0.860462
0.86046
0.86046
0.860458
0.860455
0.860453
0.860451
0.860451
0.860449
0.860447
0.860445
0.860443
0.860443
0.86044
0.860438
0.860436
0.860434
0.860434
0.860432
0.86043
0.860428
0.860425
0.860425
0.860423
0.860421
0.860419
0.860417
0.860417
0.860415
0.860413
0.86041
0.860408
0.860408
0.860406
0.860404
0.860402
0.8604
0.8604
0.860398
0.860395
0.860393
0.860391
0.860391
0.860389
0.860387
0.860385
0.860382
0.860382
0.86038
0.860378
0.860376
0.860374
0.860374
0.860372
0.86037
0.860367
0.860365
0.860365
0.860363
0.860361
0.860359
0.860357
0.860357
0.860354
0.860352
0.86035
0.860348
0.860348
0.860346
0.860344
0.860341
0.860339
0.860339
0.860337
0.860335
0.860333
0.860331
0.860331
0.860328
0.860326
0.860324
0.860322
0.860322
0.86032
0.860318
0.860315
0.860313
0.860313
0.860311
0.860309
0.860307
0.860305
0.860305
0.860302
0.8603
0.860298
0.860296
0.860296
0.860294
0.860292
0.860289
0.860287
0.860287
0.860285
0.860283
0.860281
0.860278
0.860278
0.860276
0.860274
0.860272
0.86027
0.86027
0.860268
0.860265
0.860263
0.860261
0.860261
0.860259
0.860257
0.860254
0.860252
0.860252
0.86025
0.860248
0.860246
0.860243
0.860243
0.860241
0.860239
0.860237
0.860235
0.860235
0.860233
0.86023
0.860228
0.860226
0.860226
0.860224
0.860222
0.860219
0.860217
0.860217
0.860215
0.860213
0.860211
0.860208
0.860208
0.860206
0.860204
0.860202
0.8602
0.8602
0.860197
0.860195
0.860193
0.860191
0.860191
0.860189
0.860186
0.860184
0.860182
0.860182
0.86018
0.860178
0.860175
0.860173
0.860173
0.860171
0.860169
0.860167
0.860164
0.860164
0.860162
0.86016
0.860158
0.860155
0.860155
0.860153
0.860151
0.860149
0.860147
0.860147
0.860144
0.860142
0.86014
0.860138
0.860138
0.860136
0.860133
0.860131
0.860129
0.860129
0.860127
0.860125
0.860122
0.86012
0.86012
0.860118
0.860116
0.860113
0.860111
0.860111
0.860109
0.860107
0.860105
0.860102
0.860102
0.8601
0.860098
0.860096
0.860093
0.860093
0.860091
0.860089
0.860087
0.860085
0.860085
0.860082
0.86008
0.860078
0.860076
0.860076
0.860073
0.860071
0.860069
0.860067
0.860067
0.860064
0.860062
0.86006
0.860058
0.860058
0.860055
0.860053
0.860051
0.860049
0.860049
0.860046
0.860044
0.860042
0.86004
0.86004
0.860037
0.860035
0.860033
0.86003
0.86003
0.860028
0.860026
0.860024
0.860021
0.860021
0.860019
0.860017
0.860014
0.860012
0.860012
0.86001
0.860007
0.860005
0.860003
0.860003
0.86
0.859998
0.859995
0.859993
0.859993
0.859991
0.859988
0.859986
0.859983
0.859983
0.859981
0.859979
0.859976
0.859974
0.859974
0.859971
0.859969
0.859966
0.859964
0.859964
0.859961
0.859959
0.859957
0.859954
0.859954
0.859952
0.859949
0.859947
0.859944
0.859944
0.859942
0.859939
0.859937
0.859934
0.859934
0.859932
0.859929
0.859926
0.859924
0.859924
0.859921
0.859919
0.859916
0.859914
0.859914
0.859911
0.859909
0.859906
0.859903
0.859903
0.859901
0.859898
0.859896
0.859893
0.859893
0.859891
0.859888
0.859885
0.859883
0.859883
0.85988
0.859878
0.859875
0.859872
0.859872
0.85987
0.859867
0.859865
0.859862
0.859862
0.859859
0.859857
0.859854
0.859851
0.859851
0.859849
0.859846
0.859844
0.859841
0.859841
0.859838
0.859836
0.859833
0.859831
0.859831
0.859828
0.859825
0.859823
0.85982
0.85982
0.859817
0.859815
0.859812
0.85981
0.85981
0.859807
0.859804
0.859802
0.859799
0.859799
0.859797
0.859794
0.859791
0.859789
0.859789
0.859786
0.859783
0.859781
0.859778
0.859778
0.859776
0.859773
0.85977
0.859768
0.859768
0.859765
0.859762
0.85976
0.859757
0.859757
0.859754
0.859752
0.859749
0.859747
0.859747
0.859744
0.859741
0.859739
0.859736
0.859736
0.859733
0.859731
0.859728
0.859726
0.859726
0.859723
0.85972
0.859718
0.859715
0.859715
0.859712
0.85971
0.859707
0.859704
0.859704
0.859702
0.859699
0.859697
0.859694
0.859694
0.859691
0.859689
0.859686
0.859683
0.859683
0.859681
0.859678
0.859675
0.859673
0.859673
0.85967
0.859667
0.859665
0.859662
0.859662
0.85966
0.859657
0.859654
0.859652
0.859652
0.859649
0.859646
0.859644
0.859641
0.859641
0.859638
0.859636
0.859633
0.85963
0.85963
0.859628
0.859625
0.859622
0.85962
0.85962
0.859617
0.859615
0.859612
0.859609
0.859609
0.859607
0.859604
0.859601
0.859599
0.859599
0.859596
0.859593
0.859591
0.859588
0.859588
0.859585
0.859583
0.85958
0.859577
0.859577
0.859575
0.859572
0.859569
0.859567
0.859567
0.859564
0.859561
0.859559
0.859556
0.859556
0.859553
0.859551
0.859548
0.859545
0.859545
0.859543
0.85954
0.859537
0.859535
0.859535
0.859532
0.859529
0.859527
0.859524
0.859524
0.859521
0.859519
0.859516
0.859514
0.859514
0.859511
0.859508
0.859506
0.859503
0.859503
0.8595
0.859498
0.859495
0.859492
0.859492
0.85949
0.859487
0.859484
0.859482
0.859482
0.859479
0.859476
0.859473
0.859471
0.859471
0.859468
0.859465
0.859463
0.85946
0.85946
0.859457
0.859455
0.859452
0.859449
0.859449
0.859447
0.859444
0.859441
0.859439
0.859439
0.859436
0.859433
0.859431
0.859428
0.859428
0.859425
0.859423
0.85942
0.859417
0.859417
0.859415
0.859412
0.859409
0.859407
0.859407
0.859404
0.859401
0.859399
0.859396
0.859396
0.859393
0.859391
0.859388
0.859385
0.859385
0.859383
0.85938
0.859377
0.859375
0.859375
0.859372
0.859369
0.859367
0.859364
0.859364
0.859361
0.859358
0.859356
0.859353
0.859353
0.85935
0.859348
0.859345
0.859342
0.859342
0.85934
0.859337
0.859334
0.859332
0.859332
0.859329
0.859326
0.859324
0.859321
0.859321
0.859318
0.859316
0.859313
0.85931
0.85931
0.859308
0.859305
0.859302
0.859299
0.859299
0.859297
0.859294
0.859291
0.859289
0.859289
0.859286
0.859283
0.859281
0.859278
0.859278
0.859275
0.859273
0.85927
0.859267
0.859267
0.859264
0.859262
0.859259
0.859256
0.859256
0.859254
0.859251
0.859248
0.859246
0.859246
0.859243
0.85924
0.859237
0.859235
0.859235
0.859232
0.859229
0.859227
0.859224
0.859224
0.859221
0.859218
0.859216
0.859213
0.859213
0.85921
0.859207
0.859205
0.859202
0.859202
0.859199
0.859196
0.859193
0.859191
0.859191
0.859188
0.859185
0.859182
0.859179
0.859179
0.859177
0.859174
0.859171
0.859168
0.859168
0.859165
0.859162
0.85916
0.859157
0.859157
0.859154
0.859151
0.859148
0.859145
0.859145
0.859142
0.859139
0.859136
0.859134
0.859134
0.859131
0.859128
0.859125
0.859122
0.859122
0.859119
0.859116
0.859113
0.85911
0.85911
0.859107
0.859104
0.859101
0.859098
0.859098
0.859095
0.859092
0.859089
0.859086
0.859086
0.859083
0.85908
0.859077
0.859074
0.859074
0.859071
0.859068
0.859065
0.859062
0.859062
0.859059
0.859056
0.859053
0.85905
0.85905
0.859047
0.859044
0.859041
0.859038
0.859038
0.859035
0.859031
0.859028
0.859025
0.859025
0.859022
0.859019
0.859016
0.859013
0.859013
0.85901
0.859007
0.859004
0.859001
0.859001
0.858998
0.858995
0.858991
0.858988
0.858988
0.858985
0.858982
0.858979
0.858976
0.858976
0.858973
0.85897
0.858967
0.858964
0.858964
0.858961
0.858957
0.858954
0.858951
0.858951
0.858948
0.858945
0.858942
0.858939
0.858939
0.858936
0.858933
0.85893
0.858927
0.858927
0.858923
0.85892
0.858917
0.858914
0.858914
0.858911
0.858908
0.858905
0.858902
0.858902
0.858899
0.858896
0.858893
0.858889
0.858889
0.858886
0.858883
0.85888
0.858877
0.858877
0.858874
0.858871
0.858868
0.858865
0.858865
0.858862
0.858858
0.858855
0.858852
0.858852
0.858849
0.858846
0.858843
0.85884
0.85884
0.858837
0.858834
0.858831
0.858827
0.858827
0.858824
0.858821
0.858818
0.858815
0.858815
0.858812
0.858809
0.858806
0.858803
0.858803
0.8588
0.858796
0.858793
0.85879
0.85879
0.858787
0.858784
0.858781
0.858778
0.858778
0.858775
0.858772
0.858769
0.858765
0.858765
0.858762
0.858759
0.858756
0.858753
0.858753
0.85875
0.858747
0.858744
0.858741
0.858741
0.858738
0.858734
0.858731
0.858728
0.858728
0.858725
0.858722
0.858719
0.858716
0.858716
0.858713
0.85871
0.858707
0.858703
0.858703
0.8587
0.858697
0.858694
0.858691
0.858691
0.858688
0.858685
0.858682
0.858679
0.858679
0.858676
0.858672
0.858669
0.858666
0.858666
0.858663
0.85866
0.858657
0.858654
0.858654
0.858651
0.858648
0.858644
0.858641
0.858641
0.858638
0.858635
0.858632
0.858629
0.858629
0.858626
0.858623
0.85862
0.858617
0.858617
0.858613
0.85861
0.858607
0.858604
0.858604
0.858601
0.858598
0.858595
0.858592
0.858592
0.858589
0.858585
0.858582
0.858579
0.858579
0.858576
0.858573
0.85857
0.858567
0.858567
0.858564
0.858561
0.858558
0.858554
0.858554
0.858551
0.858548
0.858545
0.858542
0.858542
0.858539
0.858536
0.858533
0.85853
0.85853
0.858526
0.858523
0.85852
0.858517
0.858517
0.858514
0.858511
0.858508
0.858505
0.858505
0.858502
0.858499
0.858495
0.858492
0.858492
0.858489
0.858486
0.858483
0.85848
0.85848
0.858477
0.858474
0.858471
0.858467
0.858467
0.858464
0.858461
0.858458
0.858455
0.858455
0.858452
0.858449
0.858446
0.858443
0.858443
0.858439
0.858436
0.858433
0.85843
0.85843
0.858427
0.858424
0.858421
0.858418
0.858418
0.858414
0.858411
0.858408
0.858405
0.858405
0.858402
0.858399
0.858396
0.858392
0.858392
0.858389
0.858386
0.858383
0.85838
0.85838
0.858377
0.858373
0.85837
0.858367
0.858367
0.858364
0.858361
0.858357
0.858354
0.858354
0.858351
0.858348
0.858344
0.858341
0.858341
0.858338
0.858335
0.858331
0.858328
0.858328
0.858325
0.858322
0.858318
0.858315
0.858315
0.858312
0.858308
0.858305
0.858302
0.858302
0.858298
0.858295
0.858292
0.858288
0.858288
0.858285
0.858282
0.858278
0.858275
0.858275
0.858272
0.858268
0.858265
0.858262
0.858262
0.858258
0.858255
0.858251
0.858248
0.858248
0.858245
0.858241
0.858238
0.858234
0.858234
0.858231
0.858227
0.858224
0.85822
0.85822
0.858217
0.858214
0.85821
0.858207
0.858207
0.858203
0.8582
0.858196
0.858193
0.858193
0.858189
0.858186
0.858182
0.858179
0.858179
0.858175
0.858172
0.858168
0.858165
0.858165
0.858161
0.858158
0.858154
0.858151
0.858151
0.858147
0.858144
0.85814
0.858137
0.858137
0.858133
0.85813
0.858126
0.858123
0.858123
0.858119
0.858116
0.858112
0.858109
0.858109
0.858105
0.858102
0.858098
0.858095
0.858095
0.858091
0.858088
0.858084
0.858081
0.858081
0.858077
0.858074
0.85807
0.858067
0.858067
0.858063
0.85806
0.858056
0.858053
0.858053
0.858049
0.858046
0.858042
0.858039
0.858039
0.858035
0.858032
0.858028
0.858025
0.858025
0.858021
0.858018
0.858014
0.858011
0.858011
0.858007
0.858004
0.858
0.857997
0.857997
0.857993
0.857989
0.857986
0.857982
0.857982
0.857979
0.857975
0.857972
0.857968
0.857968
0.857965
0.857961
0.857958
0.857954
0.857954
0.857951
0.857947
0.857944
0.85794
0.85794
0.857937
0.857933
0.85793
0.857926
0.857926
0.857923
0.857919
0.857916
0.857912
0.857912
0.857909
0.857905
0.857902
0.857898
0.857898
0.857895
0.857891
0.857888
0.857884
0.857884
0.857881
0.857877
0.857874
0.85787
0.85787
0.857867
0.857863
0.85786
0.857856
0.857856
0.857853
0.857849
0.857846
0.857842
0.857842
0.857839
0.857835
0.857832
0.857828
0.857828
0.857825
0.857821
0.857818
0.857814
0.857814
0.857811
0.857807
0.857804
0.8578
0.8578
0.857797
0.857793
0.85779
0.857786
0.857786
0.857783
0.857779
0.857776
0.857772
0.857772
0.857769
0.857765
0.857762
0.857758
0.857758
0.857755
0.857751
0.857748
0.857744
0.857744
0.857741
0.857737
0.857734
0.85773
0.85773
0.857727
0.857723
0.85772
0.857716
0.857716
0.857713
0.857709
0.857706
0.857702
0.857702
0.857699
0.857695
0.857692
0.857688
0.857688
0.857685
0.857681
0.857678
0.857674
0.857674
0.857671
0.857667
0.857664
0.85766
0.85766
0.857657
0.857653
0.85765
0.857646
0.857646
0.857643
0.85764
0.857636
0.857633
0.857633
0.857629
0.857626
0.857622
0.857619
0.857619
0.857615
0.857611
0.857608
0.857604
0.857604
0.857601
0.857597
0.857594
0.85759
0.85759
0.857587
0.857583
0.85758
0.857576
0.857576
0.857573
0.857569
0.857566
0.857562
0.857562
0.857559
0.857555
0.857552
0.857548
0.857548
0.857544
0.857541
0.857537
0.857534
0.857534
0.85753
0.857526
0.857523
0.857519
0.857519
0.857516
0.857512
0.857508
0.857505
0.857505
0.857501
0.857497
0.857494