<?xml version="1.0"?>
<VTKFile type="UnstructuredGrid" version="0.1" byte_order="LittleEndian">
<UnstructuredGrid>
<Piece NumberOfPoints="5000" NumberOfCells="4000">
<PointData Scalars="Reaction 0">
<DataArray type="Float32" Name="Reaction 0" format="ascii">
1.00201
1.00201
1.00201
1.00201
1.00201
1.00201
1.00201
1.00201
1.00201
1.00201
1.00201
1.00201
1.00201
1.00201
1.00201
1.00201
1.00201
1.00201
1.00201
1.00201
1.00201
1.00201
1.00201
1.00201
1.00201
1.00201
1.00201
1.00201
1.00201
1.00201
1.00201
1.00201
1.00201
1.00201
1.00201
1.00201
1.00201
1.00201
1.00201
1.00201
1.00201
1.00201
1.00201
1.00201
1.00201
1.00201
1.00201
1.00201
1.00201
1.00201
1.00201
1.00201
1.00201
1.00201
1.00201
1.00201
1.00201
1.00201
1.00201
1.00201
1.00201
1.00201
1.00201
1.00201
1.00201
1.00201
1.00201
1.00201
1.00201
1.00201
1.00201
1.00201
1.00201
1.00201
1.00201
1.00201
1.00201
1.00201
1.00201
1.00201
1.00201
1.00201
1.00201
1.00201
1.00201
1.00201
1.00201
1.00201
1.00201
1.00201
1.00201
1.00201
1.00201
1.00201
1.00201
1.00201
1.00201
1.00201
1.00201
1.00201
1.00201
1.00201
1.00201
1.00201
1.00201
1.00201
1.00201
1.00201
1.00201
1.00201
1.00201
1.00201
1.00201
1.00201
1.00201
1.00201
1.00201
1.00201
1.00201
1.00201
1.00201
1.00201
1.002
1.002
1.002
1.002
1.002
1.002
1.002
1.002
1.002
1.002
1.002
1.002
1.002
1.002
1.002
1.002
1.002
1.002
1.002
1.002
1.002
1.002
1.002
1.002
1.002
1.002
1.002
1.002
1.002
1.002
1.002
1.002
1.002
1.002
1.002
1.002
1.002
1.002
1.002
1.002
1.002
1.002
1.002
1.002
1.002
1.002
1.002
1.002
1.002
1.002
1.002
1.002
1.002
1.002
1.002
1.002
1.002
1.002
1.002
1.002
1.002
1.002
1.002
1.002
1.002
1.002
1.002
1.002
1.002
1.002
1.002
1.00199
1.00199
1.00199
1.00199
1.00199
1.00199
1.00199
1.00199
1.00199
1.00199
1.00199
1.00199
1.00199
1.00199
1.00199
1.00199
1.00199
1.00199
1.00199
1.00199
1.00199
1.00199
1.00199
1.00199
1.00199
1.00199
1.00199
1.00199
1.00199
1.00199
1.00199
1.00199
1.00199
1.00199
1.00199
1.00199
1.00199
1.00199
1.00199
1.00199
1.00199
1.00199
1.00199
1.00199
1.00199
1.00199
1.00199
1.00199
1.00199
1.00199
1.00199
1.00199
1.00199
1.00198
1.00198
1.00198
1.00198
1.00198
1.00198
1.00198
1.00198
1.00198
1.00198
1.00198
1.00198
1.00198
1.00198
1.00198
1.00198
1.00198
1.00198
1.00198
1.00198
1.00198
1.00198
1.00198
1.00198
1.00198
1.00198
1.00198
1.00198
1.00198
1.00198
1.00198
1.00198
1.00198
1.00198
1.00198
1.00198
1.00198
1.00198
1.00198
1.00198
1.00198
1.00198
1.00197
1.00197
1.00197
1.00197
1.00197
1.00197
1.00197
1.00197
1.00197
1.00197
1.00197
1.00197
1.00197
1.00197
1.00197
1.00197
1.00197
1.00197
1.00197
1.00197
1.00197
1.00197
1.00197
1.00197
1.00197
1.00197
1.00197
1.00197
1.00197
1.00197
1.00197
1.00197
1.00197
1.00197
1.00197
1.00197
1.00196
1.00196
1.00196
1.00196
1.00196
1.00196
1.00196
1.00196
1.00196
1.00196
1.00196
1.00196
1.00196
1.00196
1.00196
1.00196
1.00196
1.00196
1.00196
1.00196
1.00196
1.00196
1.00196
1.00196
1.00196
1.00196
1.00196
1.00196
1.00196
1.00196
1.00196
1.00196
1.00196
1.00196
1.00195
1.00195
1.00195
1.00195
1.00195
1.00195
1.00195
1.00195
1.00195
1.00195
1.00195
1.00195
1.00195
1.00195
1.00195
1.00195
1.00195
1.00195
1.00195
1.00195
1.00195
1.00195
1.00195
1.00195
1.00195
1.00195
1.00195
1.00195
1.00195
1.00195
1.00194
1.00194
1.00194
1.00194
1.00194
1.00194
1.00194
1.00194
1.00194
1.00194
1.00194
1.00194
1.00194
1.00194
1.00194
1.00194
1.00194
1.00194
1.00194
1.00194
1.00194
1.00194
1.00194
1.00194
1.00194
1.00194
1.00194
1.00194
1.00194
1.00193
1.00193
1.00193
1.00193
1.00193
1.00193
1.00193
1.00193
1.00193
1.00193
1.00193
1.00193
1.00193
1.00193
1.00193
1.00193
1.00193
1.00193
1.00193
1.00193
1.00193
1.00193
1.00193
1.00193
1.00193
1.00193
1.00192
1.00192
1.00192
1.00192
1.00192
1.00192
1.00192
1.00192
1.00192
1.00192
1.00192
1.00192
1.00192
1.00192
1.00192
1.00192
1.00192
1.00192
1.00192
1.00192
1.00192
1.00192
1.00192
1.00192
1.00192
1.00191
1.00191
1.00191
1.00191
1.00191
1.00191
1.00191
1.00191
1.00191
1.00191
1.00191
1.00191
1.00191
1.00191
1.00191
1.00191
1.00191
1.00191
1.00191
1.00191
1.00191
1.00191
1.00191
1.00191
1.0019
1.0019
1.0019
1.0019
1.0019
1.0019
1.0019
1.0019
1.0019
1.0019
1.0019
1.0019
1.0019
1.0019
1.0019
1.0019
1.0019
1.0019
1.0019
1.0019
1.0019
1.0019
1.00189
1.00189
1.00189
1.00189
1.00189
1.00189
1.00189
1.00189
1.00189
1.00189
1.00189
1.00189
1.00189
1.00189
1.00189
1.00189
1.00189
1.00189
1.00189
1.00189
1.00189
1.00189
1.00188
1.00188
1.00188
1.00188
1.00188
1.00188
1.00188
1.00188
1.00188
1.00188
1.00188
1.00188
1.00188
1.00188
1.00188
1.00188
1.00188
1.00188
1.00188
1.00188
1.00188
1.00187
1.00187
1.00187
1.00187
1.00187
1.00187
1.00187
1.00187
1.00187
1.00187
1.00187
1.00187
1.00187
1.00187
1.00187
1.00187
1.00187
1.00187
1.00187
1.00187
1.00186
1.00186
1.00186
1.00186
1.00186
1.00186
1.00186
1.00186
1.00186
1.00186
1.00186
1.00186
1.00186
1.00186
1.00186
1.00186
1.00186
1.00186
1.00186
1.00185
1.00185
1.00185
1.00185
1.00185
1.00185
1.00185
1.00185
1.00185
1.00185
1.00185
1.00185
1.00185
1.00185
1.00185
1.00185
1.00185
1.00185
1.00184
1.00184
1.00184
1.00184
1.00184
1.00184
1.00184
1.00184
1.00184
1.00184
1.00184
1.00184
1.00184
1.00184
1.00184
1.00184
1.00184
1.00184
1.00184
1.00183
1.00183
1.00183
1.00183
1.00183
1.00183
1.00183
1.00183
1.00183
1.00183
1.00183
1.00183
1.00183
1.00183
1.00183
1.00183
1.00183
1.00183
1.00182
1.00182
1.00182
1.00182
1.00182
1.00182
1.00182
1.00182
1.00182
1.00182
1.00182
1.00182
1.00182
1.00182
1.00182
1.00182
1.00182
1.00181
1.00181
1.00181
1.00181
1.00181
1.00181
1.00181
1.00181
1.00181
1.00181
1.00181
1.00181
1.00181
1.00181
1.00181
1.00181
1.0018
1.0018
1.0018
1.0018
1.0018
1.0018
1.0018
1.0018
1.0018
1.0018
1.0018
1.0018
1.0018
1.0018
1.0018
1.0018
1.0018
1.00179
1.00179
1.00179
1.00179
1.00179
1.00179
1.00179
1.00179
1.00179
1.00179
1.00179
1.00179
1.00179
1.00179
1.00179
1.00179
1.00178
1.00178
1.00178
1.00178
1.00178
1.00178
1.00178
1.00178
1.00178
1.00178
1.00178
1.00178
1.00178
1.00178
1.00178
1.00178
1.00177
1.00177
1.00177
1.00177
1.00177
1.00177
1.00177
1.00177
1.00177
1.00177
1.00177
1.00177
1.00177
1.00177
1.00177
1.00176
1.00176
1.00176
1.00176
1.00176
1.00176
1.00176
1.00176
1.00176
1.00176
1.00176
1.00176
1.00176
1.00176
1.00176
1.00175
1.00175
1.00175
1.00175
1.00175
1.00175
1.00175
1.00175
1.00175
1.00175
1.00175
1.00175
1.00175
1.00175
1.00175
1.00174
1.00174
1.00174
1.00174
1.00174
1.00174
1.00174
1.00174
1.00174
1.00174
1.00174
1.00174
1.00174
1.00174
1.00173
1.00173
1.00173
1.00173
1.00173
1.00173
1.00173
1.00173
1.00173
1.00173
1.00173
1.00173
1.00173
1.00173
1.00173
1.00172
1.00172
1.00172
1.00172
1.00172
1.00172
1.00172
1.00172
1.00172
1.00172
1.00172
1.00172
1.00172
1.00172
1.00171
1.00171
1.00171
1.00171
1.00171
1.00171
1.00171
1.00171
1.00171
1.00171
1.00171
1.00171
1.00171
1.0017
1.0017
1.0017
1.0017
1.0017
1.0017
1.0017
1.0017
1.0017
1.0017
1.0017
1.0017
1.0017
1.0017
1.00169
1.00169
1.00169
1.00169
1.00169
1.00169
1.00169
1.00169
1.00169
1.00169
1.00169
1.00169
1.00169
1.00168
1.00168
1.00168
1.00168
1.00168
1.00168
1.00168
1.00168
1.00168
1.00168
1.00168
1.00168
1.00168
1.00167
1.00167
1.00167
1.00167
1.00167
1.00167
1.00167
1.00167
1.00167
1.00167
1.00167
1.00167
1.00167
1.00166
1.00166
1.00166
1.00166
1.00166
1.00166
1.00166
1.00166
1.00166
1.00166
1.00166
1.00166
1.00165
1.00165
1.00165
1.00165
1.00165
1.00165
1.00165
1.00165
1.00165
1.00165
1.00165
1.00165
1.00165
1.00164
1.00164
1.00164
1.00164
1.00164
1.00164
1.00164
1.00164
1.00164
1.00164
1.00164
1.00164
1.00163
1.00163
1.00163
1.00163
1.00163
1.00163
1.00163
1.00163
1.00163
1.00163
1.00163
1.00163
1.00163
1.00162
1.00162
1.00162
1.00162
1.00162
1.00162
1.00162
1.00162
1.00162
1.00162
1.00162
1.00161
1.00161
1.00161
1.00161
1.00161
1.00161
1.00161
1.00161
1.00161
1.00161
1.00161
1.00161
1.00161
1.0016
1.0016
1.0016
1.0016
1.0016
1.0016
1.0016
1.0016
1.0016
1.0016
1.0016
1.00159
1.00159
1.00159
1.00159
1.00159
1.00159
1.00159
1.00159
1.00159
1.00159
1.00159
1.00159
1.00158
1.00158
1.00158
1.00158
1.00158
1.00158
1.00158
1.00158
1.00158
1.00158
1.00158
1.00158
1.00157
1.00157
1.00157
1.00157
1.00157
1.00157
1.00157
1.00157
1.00157
1.00157
1.00157
1.00156
1.00156
1.00156
1.00156
1.00156
1.00156
1.00156
1.00156
1.00156
1.00156
1.00156
1.00155
1.00155
1.00155
1.00155
1.00155
1.00155
1.00155
1.00155
1.00155
1.00155
1.00155
1.00154
1.00154
1.00154
1.00154
1.00154
1.00154
1.00154
1.00154
1.00154
1.00154
1.00154
1.00154
1.00153
1.00153
1.00153
1.00153
1.00153
1.00153
1.00153
1.00153
1.00153
1.00153
1.00152
1.00152
1.00152
1.00152
1.00152
1.00152
1.00152
1.00152
1.00152
1.00152
1.00152
1.00151
1.00151
1.00151
1.00151
1.00151
1.00151
1.00151
1.00151
1.00151
1.00151
1.0015
1.0015
1.0015
1.0015
1.0015
1.0015
1.0015
1.0015
1.0015
1.0015
1.0015
1.00149
1.00149
1.00149
1.00149
1.00149
1.00149
1.00149
1.00149
1.00149
1.00149
1.00148
1.00148
1.00148
1.00148
1.00148
1.00148
1.00148
1.00148
1.00148
1.00148
1.00147
1.00147
1.00147
1.00147
1.00147
1.00147
1.00147
1.00147
1.00147
1.00147
1.00147
1.00146
1.00146
1.00146
1.00146
1.00146
1.00146
1.00146
1.00146
1.00146
1.00146
1.00145
1.00145
1.00145
1.00145
1.00145
1.00145
1.00145
1.00145
1.00145
1.00145
1.00144
1.00144
1.00144
1.00144
1.00144
1.00144
1.00144
1.00144
1.00144
1.00143
1.00143
1.00143
1.00143
1.00143
1.00143
1.00143
1.00143
1.00143
1.00143
1.00142
1.00142
1.00142
1.00142
1.00142
1.00142
1.00142
1.00142
1.00142
1.00142
1.00141
1.00141
1.00141
1.00141
1.00141
1.00141
1.00141
1.00141
1.00141
1.00141
1.0014
1.0014
1.0014
1.0014
1.0014
1.0014
1.0014
1.0014
1.0014
1.0014
1.00139
1.00139
1.00139
1.00139
1.00139
1.00139
1.00139
1.00139
1.00139
1.00138
1.00138
1.00138
1.00138
1.00138
1.00138
1.00138
1.00138
1.00138
1.00138
1.00137
1.00137
1.00137
1.00137
1.00137
1.00137
1.00137
1.00137
1.00137
1.00136
1.00136
1.00136
1.00136
1.00136
1.00136
1.00136
1.00136
1.00136
1.00136
1.00135
1.00135
1.00135
1.00135
1.00135
1.00135
1.00135
1.00135
1.00134
1.00134
1.00134
1.00134
1.00134
1.00134
1.00134
1.00134
1.00134
1.00133
1.00133
1.00133
1.00133
1.00133
1.00133
1.00133
1.00133
1.00133
1.00133
1.00132
1.00132
1.00132
1.00132
1.00132
1.00132
1.00132
1.00132
1.00132
1.00131
1.00131
1.00131
1.00131
1.00131
1.00131
1.00131
1.00131
1.00131
1.0013
1.0013
1.0013
1.0013
1.0013
1.0013
1.0013
1.0013
1.00129
1.00129
1.00129
1.00129
1.00129
1.00129
1.00129
1.00129
1.00129
1.00128
1.00128
1.00128
1.00128
1.00128
1.00128
1.00128
1.00128
1.00128
1.00127
1.00127
1.00127
1.00127
1.00127
1.00127
1.00127
1.00127
1.00127
1.00126
1.00126
1.00126
1.00126
1.00126
1.00126
1.00126
1.00126
1.00125
1.00125
1.00125
1.00125
1.00125
1.00125
1.00125
1.00125
1.00125
1.00124
1.00124
1.00124
1.00124
1.00124
1.00124
1.00124
1.00124
1.00124
1.00123
1.00123
1.00123
1.00123
1.00123
1.00123
1.00123
1.00122
1.00122
1.00122
1.00122
1.00122
1.00122
1.00122
1.00122
1.00122
1.00121
1.00121
1.00121
1.00121
1.00121
1.00121
1.00121
1.00121
1.00121
1.0012
1.0012
1.0012
1.0012
1.0012
1.0012
1.0012
1.00119
1.00119
1.00119
1.00119
1.00119
1.00119
1.00119
1.00119
1.00119
1.00118
1.00118
1.00118
1.00118
1.00118
1.00118
1.00118
1.00118
1.00118
1.00117
1.00117
1.00117
1.00117
1.00117
1.00117
1.00117
1.00116
1.00116
1.00116
1.00116
1.00116
1.00116
1.00116
1.00116
1.00116
1.00115
1.00115
1.00115
1.00115
1.00115
1.00115
1.00115
1.00115
1.00114
1.00114
1.00114
1.00114
1.00114
1.00114
1.00114
1.00113
1.00113
1.00113
1.00113
1.00113
1.00113
1.00113
1.00113
1.00113
1.00112
1.00112
1.00112
1.00112
1.00112
1.00112
1.00112
1.00111
1.00111
1.00111
1.00111
1.00111
1.00111
1.00111
1.00111
1.0011
1.0011
1.0011
1.0011
1.0011
1.0011
1.0011
1.0011
1.0011
1.00109
1.00109
1.00109
1.00109
1.00109
1.00109
1.00109
1.00108
1.00108
1.00108
1.00108
1.00108
1.00108
1.00108
1.00108
1.00107
1.00107
1.00107
1.00107
1.00107
1.00107
1.00107
1.00106
1.00106
1.00106
1.00106
1.00106
1.00106
1.00106
1.00106
1.00105
1.00105
1.00105
1.00105
1.00105
1.00105
1.00105
1.00104
1.00104
1.00104
1.00104
1.00104
1.00104
1.00104
1.00104
1.00104
1.00103
1.00103
1.00103
1.00103
1.00103
1.00103
1.00103
1.00102
1.00102
1.00102
1.00102
1.00102
1.00102
1.00102
1.00102
1.00101
1.00101
1.00101
1.00101
1.00101
1.00101
1.00101
1.001
1.001
1.001
1.001
1.001
1.001
1.001
1.001
1.00099
1.00099
1.00099
1.00099
1.00099
1.00099
1.00098
1.00098
1.00098
1.00098
1.00098
1.00098
1.00098
1.00098
1.00097
1.00097
1.00097
1.00097
1.00097
1.00097
1.00097
1.00096
1.00096
1.00096
1.00096
1.00096
1.00096
1.00096
1.00096
1.00095
1.00095
1.00095
1.00095
1.00095
1.00095
1.00095
1.00094
1.00094
1.00094
1.00094
1.00094
1.00094
1.00094
1.00094
1.00093
1.00093
1.00093
1.00093
1.00093
1.00093
1.00092
1.00092
1.00092
1.00092
1.00092
1.00092
1.00092
1.00091
1.00091
1.00091
1.00091
1.00091
1.00091
1.00091
1.00091
1.0009
1.0009
1.0009
1.0009
1.0009
1.0009
1.00089
1.00089
1.00089
1.00089
1.00089
1.00089
1.00089
1.00089
1.00088
1.00088
1.00088
1.00088
1.00088
1.00088
1.00088
1.00087
1.00087
1.00087
1.00087
1.00087
1.00087
1.00086
1.00086
1.00086
1.00086
1.00086
1.00086
1.00086
1.00086
1.00085
1.00085
1.00085
1.00085
1.00085
1.00085
1.00085
1.00084
1.00084
1.00084
1.00084
1.00084
1.00084
1.00084
1.00083
1.00083
1.00083
1.00083
1.00083
1.00083
1.00083
1.00082
1.00082
1.00082
1.00082
1.00082
1.00082
1.00081
1.00081
1.00081
1.00081
1.00081
1.00081
1.00081
1.0008
1.0008
1.0008
1.0008
1.0008
1.0008
1.0008
1.00079
1.00079
1.00079
1.00079
1.00079
1.00079
1.00078
1.00078
1.00078
1.00078
1.00078
1.00078
1.00078
1.00078
1.00077
1.00077
1.00077
1.00077
1.00077
1.00077
1.00076
1.00076
1.00076
1.00076
1.00076
1.00076
1.00075
1.00075
1.00075
1.00075
1.00075
1.00075
1.00075
1.00075
1.00074
1.00074
1.00074
1.00074
1.00074
1.00074
1.00073
1.00073
1.00073
1.00073
1.00073
1.00073
1.00072
1.00072
1.00072
1.00072
1.00072
1.00072
1.00072
1.00072
1.00071
1.00071
1.00071
1.00071
1.00071
1.00071
1.0007
1.0007
1.0007
1.0007
1.0007
1.0007
1.00069
1.00069
1.00069
1.00069
1.00069
1.00069
1.00069
1.00068
1.00068
1.00068
1.00068
1.00068
1.00068
1.00068
1.00067
1.00067
1.00067
1.00067
1.00067
1.00067
1.00066
1.00066
1.00066
1.00066
1.00066
1.00066
1.00066
1.00065
1.00065
1.00065
1.00065
1.00065
1.00065
1.00064
1.00064
1.00064
1.00064
1.00064
1.00064
1.00063
1.00063
1.00063
1.00063
1.00063
1.00063
1.00062
1.00062
1.00062
1.00062
1.00062
1.00062
1.00062
1.00061
1.00061
1.00061
1.00061
1.00061
1.00061
1.0006
1.0006
1.0006
1.0006
1.0006
1.0006
1.00059
1.00059
1.00059
1.00059
1.00059
1.00059
1.00058
1.00058
1.00058
1.00058
1.00058
1.00058
1.00058
1.00057
1.00057
1.00057
1.00057
1.00057
1.00057
1.00056
1.00056
1.00056
1.00056
1.00056
1.00056
1.00055
1.00055
1.00055
1.00055
1.00055
1.00055
1.00054
1.00054
1.00054
1.00054
1.00054
1.00054
1.00054
1.00053
1.00053
1.00053
1.00053
1.00053
1.00053
1.00052
1.00052
1.00052
1.00052
1.00052
1.00052
1.00051
1.00051
1.00051
1.00051
1.00051
1.00051
1.0005
1.0005
1.0005
1.0005
1.0005
1.00049
1.00049
1.00049
1.00049
1.00049
1.00049
1.00049
1.00048
1.00048
1.00048
1.00048
1.00048
1.00048
1.00047
1.00047
1.00047
1.00047
1.00047
1.00047
1.00046
1.00046
1.00046
1.00046
1.00046
1.00046
1.00045
1.00045
1.00045
1.00045
1.00045
1.00045
1.00045
1.00044
1.00044
1.00044
1.00044
1.00044
1.00043
1.00043
1.00043
1.00043
1.00043
1.00043
1.00042
1.00042
1.00042
1.00042
1.00042
1.00042
1.00041
1.00041
1.00041
1.00041
1.00041
1.00041
1.0004
1.0004
1.0004
1.0004
1.0004
1.00039
1.00039
1.00039
1.00039
1.00039
1.00039
1.00039
1.00038
1.00038
1.00038
1.00038
1.00038
1.00038
1.00037
1.00037
1.00037
1.00037
1.00037
1.00036
1.00036
1.00036
1.00036
1.00036
1.00036
1.00035
1.00035
1.00035
1.00035
1.00035
1.00034
1.00034
1.00034
1.00034
1.00034
1.00034
1.00033
1.00033
1.00033
1.00033
1.00033
1.00033
1.00033
1.00032
1.00032
1.00032
1.00032
1.00032
1.00031
1.00031
1.00031
1.00031
1.00031
1.00031
1.0003
1.0003
1.0003
1.0003
1.0003
1.00029
1.00029
1.00029
1.00029
1.00029
1.00029
1.00028
1.00028
1.00028
1.00028
1.00028
1.00027
1.00027
1.00027
1.00027
1.00027
1.00027
1.00026
1.00026
1.00026
1.00026
1.00026
1.00025
1.00025
1.00025
1.00025
1.00025
1.00025
1.00025
1.00024
1.00024
1.00024
1.00024
1.00024
1.00023
1.00023
1.00023
1.00023
1.00023
1.00023
1.00022
1.00022
1.00022
1.00022
1.00022
1.00021
1.00021
1.00021
1.00021
1.00021
1.00021
1.0002
1.0002
1.0002
1.0002
1.0002
1.00019
1.00019
1.00019
1.00019
1.00019
1.00018
1.00018
1.00018
1.00018
1.00018
1.00018
1.00017
1.00017
1.00017
1.00017
1.00017
1.00016
1.00016
1.00016
1.00016
1.00016
1.00016
1.00016
1.00015
1.00015
1.00015
1.00015
1.00015
1.00014
1.00014
1.00014
1.00014
1.00014
1.00013
1.00013
1.00013
1.00013
1.00013
1.00013
1.00012
1.00012
1.00012
1.00012
1.00012
1.00011
1.00011
1.00011
1.00011
1.00011
1.0001
1.0001
1.0001
1.0001
1.0001
1.00009
1.00009
1.00009
1.00009
1.00009
1.00009
1.00008
1.00008
1.00008
1.00008
1.00008
1.00007
1.00007
1.00007
1.00007
1.00007
1.00006
1.00006
1.00006
1.00006
1.00006
1.00006
1.00005
1.00005
1.00005
1.00005
1.00005
1.00004
1.00004
1.00004
1.00004
1.00004
1.00003
1.00003
1.00003
1.00003
1.00003
1.00002
1.00002
1.00002
1.00002
1.00002
1.00002
1.00002
1.00001
1.00001
1.00001
1.00001
1.00001
1
1
0.999998
0.999996
0.999996
0.999994
0.999991
0.999989
0.999986
0.999986
0.999984
0.999982
0.999979
0.999977
0.999977
0.999974
0.999972
0.99997
0.999967
0.999967
0.999965
0.999962
0.99996
0.999958
0.999958
0.999955
0.999953
0.99995
0.999948
0.999948
0.999946
0.999943
0.999941
0.999938
0.999938
0.999936
0.999933
0.999931
0.999929
0.999929
0.999926
0.999924
0.999921
0.999919
0.999919
0.999916
0.999914
0.999912
0.999909
0.999909
0.999907
0.999904
0.999902
0.999899
0.999899
0.999897
0.999894
0.999892
0.99989
0.99989
0.999887
0.999885
0.999882
0.99988
0.99988
0.999877
0.999875
0.999872
0.99987
0.99987
0.999867
0.999865
0.999863
0.99986
0.99986
0.999858
0.999855
0.999853
0.99985
0.99985
0.999848
0.999845
0.999843
0.99984
0.99984
0.999838
0.999835
0.999833
0.99983
0.99983
0.999828
0.999825
0.999823
0.99982
0.99982
0.999818
0.999815
0.999813
0.99981
0.99981
0.999808
0.999805
0.999803
0.9998
0.9998
0.999798
0.999795
0.999793
0.99979
0.99979
0.999788
0.999785
0.999783
0.99978
0.99978
0.999778
0.999775
0.999773
0.99977
0.99977
0.999768
0.999765
0.999763
0.99976
0.99976
0.999758
0.999755
0.999753
0.99975
0.99975
0.999748
0.999745
0.999743
0.99974
0.99974
0.999737
0.999735
0.999732
0.99973
0.99973
0.999727
0.999725
0.999722
0.99972
0.99972
0.999717
0.999715
0.999712
0.999709
0.999709
0.999707
0.999704
0.999702
0.999699
0.999699
0.999697
0.999694
0.999691
0.999689
0.999689
0.999686
0.999684
0.999681
0.999679
0.999679
0.999676
0.999673
0.999671
0.999668
0.999668
0.999666
0.999663
0.99966
0.999658
0.999658
0.999655
0.999653
0.99965
0.999647
0.999647
0.999645
0.999642
0.99964
0.999637
0.999637
0.999634
0.999632
0.999629
0.999626
0.999626
0.999624
0.999621
0.999619
0.999616
0.999616
0.999613
0.999611
0.999608
0.999606
0.999606
0.999603
0.9996
0.999598
0.999595
0.999595
0.999592
0.99959
0.999587
0.999585
0.999585
0.999582
0.999579
0.999577
0.999574
0.999574
0.999572
0.999569
0.999566
0.999564
0.999564
0.999561
0.999558
0.999556
0.999553
0.999553
0.999551
0.999548
0.999545
0.999543
0.999543
0.99954
0.999537
0.999535
0.999532
0.999532
0.999529
0.999527
0.999524
0.999521
0.999521
0.999519
0.999516
0.999513
0.999511
0.999511
0.999508
0.999505
0.999503
0.9995
0.9995
0.999497
0.999495
0.999492
0.999489
0.999489
0.999487
0.999484
0.999481
0.999479
0.999479
0.999476
0.999473
0.99947
0.999468
0.999468
0.999465
0.999462
0.99946
0.999457
0.999457
0.999454
0.999452
0.999449
0.999446
0.999446
0.999443
0.999441
0.999438
0.999435
0.999435
0.999433
0.99943
0.999427
0.999424
0.999424
0.999422
0.999419
0.999416
0.999414
0.999414
0.999411
0.999408
0.999405
0.999403
0.999403
0.9994
0.999397
0.999394
0.999392
0.999392
0.999389
0.999386
0.999383
0.999381
0.999381
0.999378
0.999375
0.999372
0.99937
0.99937
0.999367
0.999364
0.999361
0.999359
0.999359
0.999356
0.999353
0.99935
0.999348
0.999348
0.999345
0.999342
0.999339
0.999337
0.999337
0.999334
0.999331
0.999328
0.999325
0.999325
0.999323
0.99932
0.999317
0.999314
0.999314
0.999312
0.999309
0.999306
0.999303
0.999303
0.9993
0.999298
0.999295
0.999292
0.999292
0.999289
0.999286
0.999284
0.999281
0.999281
0.999278
0.999275
0.999272
0.99927
0.99927
0.999267
0.999264
0.999261
0.999258
0.999258
0.999256
0.999253
0.99925
0.999247
0.999247
0.999244
0.999242
0.999239
0.999236
0.999236
0.999233
0.99923
0.999227
0.999225
0.999225
0.999222
0.999219
0.999216
0.999213
0.999213
0.99921
0.999208
0.999205
0.999202
0.999202
0.999199
0.999196
0.999193
0.999191
0.999191
0.999188
0.999185
0.999182
0.999179
0.999179
0.999176
0.999174
0.999171
0.999168
0.999168
0.999165
0.999162
0.999159
0.999156
0.999156
0.999154
0.999151
0.999148
0.999145
0.999145
0.999142
0.999139
0.999136
0.999133
0.999133
0.999131
0.999128
0.999125
0.999122
0.999122
0.999119
0.999116
0.999113
0.99911
0.99911
0.999108
0.999105
0.999102
0.999099
0.999099
0.999096
0.999093
0.99909
0.999087
0.999087
0.999084
0.999082
0.999079
0.999076
0.999076
0.999073
0.99907
0.999067
0.999064
0.999064
0.999061
0.999058
0.999055
0.999053
0.999053
0.99905
0.999047
0.999044
0.999041
0.999041
0.999038
0.999035
0.999032
0.999029
0.999029
0.999026
0.999023
0.99902
0.999018
0.999018
0.999015
0.999012
0.999009
0.999006
0.999006
0.999003
0.999
0.998997
0.998994
0.998994
0.998991
0.998988
0.998985
0.998982
0.998982
0.998979
0.998976
0.998973
0.99897
0.99897
0.998968
0.998965
0.998962
0.998959
0.998959
0.998956
0.998953
0.99895
0.998947
0.998947
0.998944
0.998941
0.998938
0.998935
0.998935
0.998932
0.998929
0.998926
0.998923
0.998923
0.99892
0.998917
0.998914
0.998911
0.998911
0.998908
0.998905
0.998902
0.998899
0.998899
0.998896
0.998893
0.99889
0.998887
0.998887
0.998884
0.998881
0.998878
0.998875
0.998875
0.998872
0.998869
0.998866
0.998863
0.998863
0.99886
0.998857
0.998854
0.998851
0.998851
0.998848
0.998845
0.998842
0.998839
0.998839
0.998836
0.998833
0.99883
0.998827
0.998827
0.998824
0.998821
0.998818
0.998815
0.998815
0.998812
0.998809
0.998806
0.998803
0.998803
0.9988
0.998797
0.998794
0.99879
0.99879
0.998787
0.998784
0.998781
0.998778
0.998778
0.998775
0.998772
0.998769
0.998766
0.998766
0.998763
0.99876
0.998757
0.998754
0.998754
0.99875
0.998747
0.998744
0.998741
0.998741
0.998738
0.998735
0.998732
0.998729
0.998729
0.998726
0.998723
0.99872
0.998717
0.998717
0.998713
0.99871
0.998707
0.998704
0.998704
0.998701
0.998698
0.998695
0.998692
0.998692
0.998689
0.998686
0.998683
0.99868
0.99868
0.998677
0.998673
0.99867
0.998667
0.998667
0.998664
0.998661
0.998658
0.998655
0.998655
0.998652
0.998649
0.998646
0.998643
0.998643
0.998639
0.998636
0.998633
0.99863
0.99863
0.998627
0.998624
0.998621
0.998618
0.998618
0.998614
0.998611
0.998608
0.998605
0.998605
0.998602
0.998599
0.998596
0.998593
0.998593
0.998589
0.998586
0.998583
0.99858
0.99858
0.998577
0.998574
0.998571
0.998567
0.998567
0.998564
0.998561
0.998558
0.998555
0.998555
0.998552
0.998548
0.998545
0.998542
0.998542
0.998539
0.998536
0.998533
0.998529
0.998529
0.998526
0.998523
0.99852
0.998517
0.998517
0.998513
0.99851
0.998507
0.998504
0.998504
0.998501
0.998498
0.998494
0.998491
0.998491
0.998488
0.998485
0.998482
0.998478
0.998478
0.998475
0.998472
0.998469
0.998466
0.998466
0.998462
0.998459
0.998456
0.998453
0.998453
0.998449
0.998446
0.998443
0.99844
0.99844
0.998437
0.998433
0.99843
0.998427
0.998427
0.998424
0.99842
0.998417
0.998414
0.998414
0.998411
0.998408
0.998404
0.998401
0.998401
0.998398
0.998395
0.998391
0.998388
0.998388
0.998385
0.998382
0.998378
0.998375
0.998375
0.998372
0.998369
0.998365
0.998362
0.998362
0.998359
0.998356
0.998352
0.998349
0.998349
0.998346
0.998343
0.998339
0.998336
0.998336
0.998333
0.998329
0.998326
0.998323
0.998323
0.99832
0.998316
0.998313
0.99831
0.99831
0.998307
0.998303
0.9983
0.998297
0.998297
0.998293
0.99829
0.998287
0.998284
0.998284
0.99828
0.998277
0.998274
0.99827
0.99827
0.998267
0.998264
0.998261
0.998257
0.998257
0.998254
0.998251
0.998247
0.998244
0.998244
0.998241
0.998237
0.998234
0.998231
0.998231
0.998227
0.998224
0.998221
0.998218
0.998218
0.998214
0.998211
0.998208
0.998204
0.998204
0.998201
0.998198
0.998194
0.998191
0.998191
0.998188
0.998184
0.998181
0.998178
0.998178
0.998174
0.998171
0.998168
0.998164
0.998164
0.998161
0.998158
0.998154
0.998151
0.998151
0.998148
0.998144
0.998141
0.998137
0.998137
0.998134
0.998131
0.998127
0.998124
0.998124
0.998121
0.998117
0.998114
0.998111
0.998111
0.998107
0.998104
0.998101
0.998097
0.998097
0.998094
0.99809
0.998087
0.998084
0.998084
0.99808
0.998077
0.998074
0.99807
0.99807
0.998067
0.998063
0.99806
0.998057
0.998057
0.998053
0.99805
0.998046
0.998043
0.998043
0.99804
0.998036
0.998033
0.998029
0.998029
0.998026
0.998023
0.998019
0.998016
0.998016
0.998012
0.998009
0.998006
0.998002
0.998002
0.997999
0.997995
0.997992
0.997989
0.997989
0.997985
0.997982
0.997978
0.997975
0.997975
0.997971
0.997968
0.997965
0.997961
0.997961
0.997958
0.997954
0.997951
0.997947
0.997947
0.997944
0.99794
0.997937
0.997933
0.997933
0.99793
0.997927
0.997923
0.99792
0.99792
0.997916
0.997913
0.997909
0.997906
0.997906
0.997902
0.997899
0.997895
0.997892
0.997892
0.997888
0.997885
0.997881
0.997878
0.997878
0.997874
0.997871
0.997867
0.997864
0.997864
0.99786
0.997857
0.997853
0.99785
0.99785
0.997846
0.997843
0.997839
0.997836
0.997836
0.997832
0.997829
0.997825
0.997822
0.997822
0.997818
0.997815
0.997811
0.997808
0.997808
0.997804
0.997801
0.997797
0.997794
0.997794
0.99779
0.997787
0.997783
0.99778
0.99778
0.997776
0.997773
0.99777
0.997766
0.997766
0.997763
0.997759
0.997755
0.997752
0.997752
0.997748
0.997745
0.997741
0.997738
0.997738
0.997734
0.997731
0.997727
0.997724
0.997724
0.99772
0.997717
0.997713
0.99771
0.99771
0.997706
0.997703
0.997699
0.997695
0.997695
0.997692
0.997688
0.997685
0.997681
0.997681
0.997678
0.997674
0.997671
0.997667
0.997667
0.997663
0.99766
0.997656
0.997653
0.997653
0.997649
0.997646
0.997642
0.997638
0.997638
0.997635
0.997631
0.997628
0.997624
0.997624
0.997621
0.997617
0.997613
0.99761
0.99761
0.997606
0.997603
0.997599
0.997595
0.997595
0.997592
0.997588
0.997585
0.997581
0.997581
0.997577
0.997574
0.99757
0.997567
0.997567
0.997563
0.997559
0.997556
0.997552
0.997552
0.997548
0.997545
0.997541
0.997538
0.997538
0.997534
0.99753
0.997527
0.997523
0.997523
0.997519
0.997516
0.997512
0.997509
0.997509
0.997505
0.997501
0.997498
0.997494
0.997494
0.99749
0.997487
0.997483
0.997479
0.997479
0.997476
0.997472
0.997468
0.997465
0.997465
0.997461
0.997457
0.997454
0.99745
0.99745
0.997446
0.997443
0.997439
0.997435
0.997435
0.997432
0.997428
0.997424
0.997421
0.997421
0.997417
0.997413
0.99741
0.997406
0.997406
0.997402
0.997399
0.997395
0.997391
0.997391
0.997388
0.997384
0.99738
0.997377
0.997377
0.997373
0.997369
0.997366
0.997362
0.997362
0.997358
0.997354
0.997351
0.997347
0.997347
0.997343
0.99734
0.997336
0.997332
0.997332
0.997329
0.997325
0.997321
0.997317
0.997317
0.997314
0.99731
0.997306
0.997303
0.997303
0.997299
0.997295
0.997291
0.997288
0.997288
0.997284
0.99728
0.997276
0.997273
0.997273
0.997269
0.997265
0.997262
0.997258
0.997258
0.997254
0.99725
0.997247
0.997243
0.997243
0.997239
0.997235
0.997232
0.997228
0.997228
0.997224
0.99722
0.997217
0.997213
0.997213
0.997209
0.997205
0.997202
0.997198
0.997198
0.997194
0.99719
0.997187
0.997183
0.997183
0.997179
0.997175
0.997171
0.997168
0.997168
0.997164
0.99716
0.997156
0.997153
0.997153
0.997149
0.997145
0.997141
0.997137
0.997137
0.997134
0.99713
0.997126
0.997122
0.997122
0.997118
0.997115
0.997111
0.997107
0.997107
0.997103
0.997099
0.997096
0.997092
0.997092
0.997088
0.997084
0.99708
0.997076
0.997076
0.997073
0.997069
0.997065
0.997061
0.997061
0.997057
0.997053
0.99705
0.997046
0.997046
0.997042
0.997038
0.997034
0.99703
0.99703
0.997027
0.997023
0.997019
0.997015
0.997015
0.997011
0.997007
0.997003
0.996999
0.996999
0.996996
0.996992
0.996988
0.996984
0.996984
0.99698
0.996976
0.996972
0.996968
0.996968
0.996965
0.996961
0.996957
0.996953
0.996953
0.996949
0.996945
0.996941
0.996937
0.996937
0.996934
0.99693
0.996926
0.996922
0.996922
0.996918
0.996914
0.99691
0.996907
0.996907
0.996903
0.996899
0.996895
0.996891
0.996891
0.996887
0.996883
0.99688
0.996876
0.996876
0.996872
0.996868
0.996864
0.99686
0.99686
0.996856
0.996852
0.996849
0.996845
0.996845
0.996841
0.996837
0.996833
0.996829
0.996829
0.996825
0.996821
0.996817
0.996813
0.996813
0.996809
0.996806
0.996802
0.996798
0.996798
0.996794
0.99679
0.996786
0.996782
0.996782
0.996778
0.996774
0.99677
0.996766
0.996766
0.996762
0.996758
0.996754
0.99675
0.99675
0.996746
0.996743
0.996739
0.996735
0.996735
0.996731
0.996727
0.996723
0.996719
0.996719
0.996715
0.996711
0.996707
0.996703
0.996703
0.996699
0.996695
0.996691
0.996687
0.996687
0.996683
0.996679
0.996675
0.996671
0.996671
0.996667
0.996663
0.996659
0.996655
0.996655
0.996651
0.996647
0.996643
0.996639
0.996639
0.996635
0.996631
0.996627
0.996623
0.996623
0.996619
0.996615
0.996611
0.996607
0.996607
0.996603
0.996599
0.996595
0.996591
0.996591
0.996587
0.996583
0.996579
0.996575
0.996575
0.996571
0.996567
0.996563
0.996559
0.996559
0.996555
0.996551
0.996547
0.996543
0.996543
0.996539
0.996535
0.996531
0.996527
0.996527
0.996523
0.996519
0.996515
0.99651
0.99651
0.996506
0.996502
0.996498
0.996494
0.996494
0.99649
0.996486
0.996482
0.996478
0.996478
0.996474
0.99647
0.996466
0.996462
0.996462
0.996458
0.996454
0.99645
0.996446
0.996446
0.996441
0.996437
0.996433
0.996429
0.996429
0.996425
0.996421
0.996417
0.996413
0.996413
0.996409
0.996405
0.996401
0.996397
0.996397
0.996393
0.996388
0.996384
0.99638
0.99638
0.996376
0.996372
0.996368
0.996364
0.996364
0.99636
0.996356
0.996352
0.996347
0.996347
0.996343
0.996339
0.996335
0.996331
0.996331
0.996327
0.996323
0.996319
0.996315
0.996315
0.99631
0.996306
0.996302
0.996298
0.996298
0.996294
0.99629
0.996286
0.996282
0.996282
0.996277
0.996273
0.996269
0.996265
0.996265
0.996261
0.996257
0.996253
0.996248
0.996248
0.996244
0.99624
0.996236
0.996232
0.996232
0.996228
0.996223
0.996219
0.996215
0.996215
0.996211
0.996207
0.996203
0.996198
0.996198
0.996194
0.99619
0.996186
0.996182
0.996182
0.996177
0.996173
0.996169
0.996165
0.996165
0.996161