<?xml version="1.0"?>
<VTKFile type="UnstructuredGrid" version="0.1" byte_order="LittleEndian">
<UnstructuredGrid>
<Piece NumberOfPoints="5000" NumberOfCells="4000">
<PointData Scalars="Reaction 0">
<DataArray type="Float32" Name="Reaction 0" format="ascii">
0.403356
0.403356
0.403356
0.403356
0.403356
0.403356
0.403356
0.403356
0.403357
0.403357
0.403357
0.403357
0.403357
0.403358
0.403358
0.403358
0.403358
0.403359
0.403359
0.403359
0.403359
0.40336
0.40336
0.403361
0.403361
0.403361
0.403362
0.403363
0.403363
0.403364
0.403364
0.403365
0.403365
0.403366
0.403367
0.403367
0.403368
0.403368
0.403369
0.40337
0.40337
0.403371
0.403372
0.403373
0.403374
0.403374
0.403375
0.403376
0.403377
0.403378
0.403378
0.403379
0.40338
0.403382
0.403383
0.403383
0.403384
0.403385
0.403386
0.403388
0.403388
0.403389
0.403391
0.403392
0.403393
0.403393
0.403395
0.403396
0.403398
0.403399
0.403399
0.403401
0.403402
0.403404
0.403406
0.403406
0.403407
0.403409
0.403411
0.403413
0.403413
0.403414
0.403416
0.403418
0.40342
0.40342
0.403422
0.403424
0.403426
0.403428
0.403428
0.40343
0.403432
0.403434
0.403436
0.403436
0.403438
0.40344
0.403442
0.403444
0.403444
0.403447
0.403449
0.403451
0.403454
0.403454
0.403456
0.403458
0.403461
0.403463
0.403463
0.403466
0.403468
0.403471
0.403473
0.403473
0.403476
0.403478
0.403481
0.403483
0.403483
0.403486
0.403489
0.403492
0.403494
0.403494
0.403497
0.4035
0.403503
0.403506
0.403506
0.403508
0.403511
0.403514
0.403517
0.403517
0.40352
0.403523
0.403526
0.403529
0.403529
0.403533
0.403536
0.403539
0.403542
0.403542
0.403545
0.403549
0.403552
0.403555
0.403555
0.403558
0.403562
0.403565
0.403569
0.403569
0.403572
0.403576
0.403579
0.403583
0.403583
0.403586
0.40359
0.403593
0.403597
0.403597
0.403601
0.403604
0.403608
0.403612
0.403612
0.403616
0.403619
0.403623
0.403627
0.403627
0.403631
0.403635
0.403639
0.403643
0.403643
0.403647
0.403651
0.403655
0.403659
0.403659
0.403663
0.403667
0.403671
0.403676
0.403676
0.40368
0.403684
0.403688
0.403693
0.403693
0.403697
0.403701
0.403706
0.40371
0.40371
0.403715
0.403719
0.403724
0.403728
0.403728
0.403733
0.403737
0.403742
0.403746
0.403746
0.403751
0.403756
0.40376
0.403765
0.403765
0.40377
0.403775
0.40378
0.403784
0.403784
0.403789
0.403794
0.403799
0.403804
0.403804
0.403809
0.403814
0.403819
0.403824
0.403824
0.403829
0.403835
0.40384
0.403845
0.403845
0.40385
0.403855
0.403861
0.403866
0.403866
0.403871
0.403877
0.403882
0.403887
0.403887
0.403893
0.403898
0.403904
0.403909
0.403909
0.403915
0.40392
0.403926
0.403932
0.403932
0.403937
0.403943
0.403949
0.403954
0.403954
0.40396
0.403966
0.403972
0.403978
0.403978
0.403984
0.403989
0.403995
0.404001
0.404001
0.404007
0.404013
0.404019
0.404025
0.404025
0.404032
0.404038
0.404044
0.40405
0.40405
0.404056
0.404063
0.404069
0.404075
0.404075
0.404081
0.404088
0.404094
0.404101
0.404101
0.404107
0.404113
0.40412
0.404126
0.404126
0.404133
0.40414
0.404146
0.404153
0.404153
0.404159
0.404166
0.404173
0.40418
0.40418
0.404186
0.404193
0.4042
0.404207
0.404207
0.404214
0.404221
0.404227
0.404234
0.404234
0.404241
0.404248
0.404255
0.404262
0.404262
0.40427
0.404277
0.404284
0.404291
0.404291
0.404298
0.404305
0.404313
0.40432
0.40432
0.404327
0.404335
0.404342
0.404349
0.404349
0.404357
0.404364
0.404372
0.404379
0.404379
0.404387
0.404394
0.404402
0.40441
0.40441
0.404417
0.404425
0.404433
0.40444
0.40444
0.404448
0.404456
0.404464
0.404472
0.404472
0.404479
0.404487
0.404495
0.404503
0.404503
0.404511
0.404519
0.404527
0.404535
0.404535
0.404543
0.404552
0.40456
0.404568
0.404568
0.404576
0.404584
0.404593
0.404601
0.404601
0.404609
0.404617
0.404626
0.404634
0.404634
0.404643
0.404651
0.40466
0.404668
0.404668
0.404677
0.404685
0.404694
0.404702
0.404702
0.404711
0.40472
0.404728
0.404737
0.404737
0.404746
0.404755
0.404763
0.404772
0.404772
0.404781
0.40479
0.404799
0.404808
0.404808
0.404817
0.404826
0.404835
0.404844
0.404844
0.404853
0.404862
0.404871
0.40488
0.40488
0.40489
0.404899
0.404908
0.404917
0.404917
0.404927
0.404936
0.404945
0.404955
0.404955
0.404964
0.404974
0.404983
0.404993
0.404993
0.405002
0.405012
0.405021
0.405031
0.405031
0.40504
0.40505
0.40506
0.40507
0.40507
0.405079
0.405089
0.405099
0.405109
0.405109
0.405119
0.405128
0.405138
0.405148
0.405148
0.405158
0.405168
0.405178
0.405188
0.405188
0.405198
0.405208
0.405219
0.405229
0.405229
0.405239
0.405249
0.405259
0.40527
0.40527
0.40528
0.40529
0.405301
0.405311
0.405311
0.405321
0.405332
0.405342
0.405353
0.405353
0.405363
0.405374
0.405385
0.405395
0.405395
0.405406
0.405416
0.405427
0.405438
0.405438
0.405449
0.405459
0.40547
0.405481
0.405481
0.405492
0.405503
0.405514
0.405524
0.405524
0.405535
0.405546
0.405557
0.405568
0.405568
0.40558
0.405591
0.405602
0.405613
0.405613
0.405624
0.405635
0.405647
0.405658
0.405658
0.405669
0.40568
0.405692
0.405703
0.405703
0.405715
0.405726
0.405737
0.405749
0.405749
0.40576
0.405772
0.405784
0.405795
0.405795
0.405807
0.405818
0.40583
0.405842
0.405842
0.405854
0.405865
0.405877
0.405889
0.405889
0.405901
0.405913
0.405924
0.405936
0.405936
0.405948
0.40596
0.405972
0.405984
0.405984
0.405996
0.406009
0.406021
0.406033
0.406033
0.406045
0.406057
0.406069
0.406082
0.406082
0.406094
0.406106
0.406119
0.406131
0.406131
0.406143
0.406156
0.406168
0.406181
0.406181
0.406193
0.406206
0.406218
0.406231
0.406231
0.406243
0.406256
0.406269
0.406281
0.406281
0.406294
0.406307
0.40632
0.406333
0.406333
0.406345
0.406358
0.406371
0.406384
0.406384
0.406397
0.40641
0.406423
0.406436
0.406436
0.406449
0.406462
0.406475
0.406488
0.406488
0.406502
0.406515
0.406528
0.406541
0.406541
0.406554
0.406568
0.406581
0.406594
0.406594
0.406608
0.406621
0.406635
0.406648
0.406648
0.406662
0.406675
0.406689
0.406702
0.406702
0.406716
0.40673
0.406743
0.406757
0.406757
0.406771
0.406784
0.406798
0.406812
0.406812
0.406826
0.40684
0.406853
0.406867
0.406867
0.406881
0.406895
0.406909
0.406923
0.406923
0.406937
0.406951
0.406966
0.40698
0.40698
0.406994
0.407008
0.407022
0.407036
0.407036
0.407051
0.407065
0.407079
0.407094
0.407094
0.407108
0.407122
0.407137
0.407151
0.407151
0.407166
0.40718
0.407195
0.407209
0.407209
0.407224
0.407239
0.407253
0.407268
0.407268
0.407283
0.407297
0.407312
0.407327
0.407327
0.407342
0.407357
0.407372
0.407386
0.407386
0.407401
0.407416
0.407431
0.407446
0.407446
0.407461
0.407476
0.407491
0.407507
0.407507
0.407522
0.407537
0.407552
0.407567
0.407567
0.407583
0.407598
0.407613
0.407629
0.407629
0.407644
0.407659
0.407675
0.40769
0.40769
0.407706
0.407721
0.407737
0.407752
0.407752
0.407768
0.407783
0.407799
0.407815
0.407815
0.40783
0.407846
0.407862
0.407878
0.407878
0.407893
0.407909
0.407925
0.407941
0.407941
0.407957
0.407973
0.407989
0.408005
0.408005
0.408021
0.408037
0.408053
0.408069
0.408069
0.408085
0.408101
0.408118
0.408134
0.408134
0.40815
0.408166
0.408183
0.408199
0.408199
0.408215
0.408232
0.408248
0.408265
0.408265
0.408281
0.408298
0.408314
0.408331
0.408331
0.408347
0.408364
0.40838
0.408397
0.408397
0.408414
0.40843
0.408447
0.408464
0.408464
0.408481
0.408498
0.408514
0.408531
0.408531
0.408548
0.408565
0.408582
0.408599
0.408599
0.408616
0.408633
0.40865
0.408667
0.408667
0.408684
0.408702
0.408719
0.408736
0.408736
0.408753
0.40877
0.408788
0.408805
0.408805
0.408822
0.40884
0.408857
0.408875
0.408875
0.408892
0.40891
0.408927
0.408945
0.408945
0.408962
0.40898
0.408997
0.409015
0.409015
0.409033
0.40905
0.409068
0.409086
0.409086
0.409104
0.409121
0.409139
0.409157
0.409157
0.409175
0.409193
0.409211
0.409229
0.409229
0.409247
0.409265
0.409283
0.409301
0.409301
0.409319
0.409337
0.409356
0.409374
0.409374
0.409392
0.40941
0.409428
0.409447
0.409447
0.409465
0.409483
0.409502
0.40952
0.40952
0.409539
0.409557
0.409576
0.409594
0.409594
0.409613
0.409631
0.40965
0.409669
0.409669
0.409687
0.409706
0.409725
0.409743
0.409743
0.409762
0.409781
0.4098
0.409819
0.409819
0.409837
0.409856
0.409875
0.409894
0.409894
0.409913
0.409932
0.409951
0.40997
0.40997
0.409989
0.410009
0.410028
0.410047
0.410047
0.410066
0.410085
0.410105
0.410124
0.410124
0.410143
0.410163
0.410182
0.410201
0.410201
0.410221
0.41024
0.41026
0.410279
0.410279
0.410299
0.410318
0.410338
0.410358
0.410358
0.410377
0.410397
0.410417
0.410436
0.410436
0.410456
0.410476
0.410496
0.410515
0.410515
0.410535
0.410555
0.410575
0.410595
0.410595
0.410615
0.410635
0.410655
0.410675
0.410675
0.410695
0.410715
0.410735
0.410756
0.410756
0.410776
0.410796
0.410816
0.410837
0.410837
0.410857
0.410877
0.410898
0.410918
0.410918
0.410938
0.410959
0.410979
0.411
0.411
0.41102
0.411041
0.411061
0.411082
0.411082
0.411103
0.411123
0.411144
0.411165
0.411165
0.411185
0.411206
0.411227
0.411248
0.411248
0.411269
0.41129
0.41131
0.411331
0.411331
0.411352
0.411373
0.411394
0.411415
0.411415
0.411436
0.411458
0.411479
0.4115
0.4115
0.411521
0.411542
0.411563
0.411585
0.411585
0.411606
0.411627
0.411649
0.41167
0.41167
0.411691
0.411713
0.411734
0.411756
0.411756
0.411777
0.411799
0.41182
0.411842
0.411842
0.411864
0.411885
0.411907
0.411929
0.411929
0.41195
0.411972
0.411994
0.412016
0.412016
0.412037
0.412059
0.412081
0.412103
0.412103
0.412125
0.412147
0.412169
0.412191
0.412191
0.412213
0.412235
0.412257
0.412279
0.412279
0.412302
0.412324
0.412346
0.412368
0.412368
0.412391
0.412413
0.412435
0.412457
0.412457
0.41248
0.412502
0.412525
0.412547
0.412547
0.41257
0.412592
0.412615
0.412637
0.412637
0.41266
0.412683
0.412705
0.412728
0.412728
0.412751
0.412773
0.412796
0.412819
0.412819
0.412842
0.412864
0.412887
0.41291
0.41291
0.412933
0.412956
0.412979
0.413002
0.413002
0.413025
0.413048
0.413071
0.413094
0.413094
0.413118
0.413141
0.413164
0.413187
0.413187
0.41321
0.413234
0.413257
0.41328
0.41328
0.413304
0.413327
0.41335
0.413374
0.413374
0.413397
0.413421
0.413444
0.413468
0.413468
0.413492
0.413515
0.413539
0.413562
0.413562
0.413586
0.41361
0.413634
0.413657
0.413657
0.413681
0.413705
0.413729
0.413753
0.413753
0.413777
0.413801
0.413825
0.413848
0.413848
0.413873
0.413897
0.413921
0.413945
0.413945
0.413969
0.413993
0.414017
0.414041
0.414041
0.414066
0.41409
0.414114
0.414138
0.414138
0.414163
0.414187
0.414212
0.414236
0.414236
0.41426
0.414285
0.414309
0.414334
0.414334
0.414359
0.414383
0.414408
0.414432
0.414432
0.414457
0.414482
0.414506
0.414531
0.414531
0.414556
0.414581
0.414606
0.41463
0.41463
0.414655
0.41468
0.414705
0.41473
0.41473
0.414755
0.41478
0.414805
0.41483
0.41483
0.414855
0.414881
0.414906
0.414931
0.414931
0.414956
0.414981
0.415007
0.415032
0.415032
0.415057
0.415083
0.415108
0.415133
0.415133
0.415159
0.415184
0.41521
0.415235
0.415235
0.415261
0.415286
0.415312
0.415338
0.415338
0.415363
0.415389
0.415415
0.41544
0.41544
0.415466
0.415492
0.415518
0.415543
0.415543
0.415569
0.415595
0.415621
0.415647
0.415647
0.415673
0.415699
0.415725
0.415751
0.415751
0.415777
0.415803
0.415829
0.415856
0.415856
0.415882
0.415908
0.415934
0.415961
0.415961
0.415987
0.416013
0.416039
0.416066
0.416066
0.416092
0.416119
0.416145
0.416172
0.416172
0.416198
0.416225
0.416251
0.416278
0.416278
0.416305
0.416331
0.416358
0.416385
0.416385
0.416411
0.416438
0.416465
0.416492
0.416492
0.416518
0.416545
0.416572
0.416599
0.416599
0.416626
0.416653
0.41668
0.416707
0.416707
0.416734
0.416761
0.416788
0.416816
0.416816
0.416843
0.41687
0.416897
0.416924
0.416924
0.416952
0.416979
0.417006
0.417034
0.417034
0.417061
0.417088
0.417116
0.417143
0.417143
0.417171
0.417198
0.417226
0.417253
0.417253
0.417281
0.417309
0.417336
0.417364
0.417364
0.417392
0.417419
0.417447
0.417475
0.417475
0.417503
0.417531
0.417558
0.417586
0.417586
0.417614
0.417642
0.41767
0.417698
0.417698
0.417726
0.417754
0.417782
0.417811
0.417811
0.417839
0.417867
0.417895
0.417923
0.417923
0.417952
0.41798
0.418008
0.418036
0.418036
0.418065
0.418093
0.418122
0.41815
0.41815
0.418178
0.418207
0.418235
0.418264
0.418264
0.418293
0.418321
0.41835
0.418378
0.418378
0.418407
0.418436
0.418465
0.418493
0.418493
0.418522
0.418551
0.41858
0.418609
0.418609
0.418638
0.418667
0.418695
0.418724
0.418724
0.418753
0.418782
0.418812
0.418841
0.418841
0.41887
0.418899
0.418928
0.418957
0.418957
0.418986
0.419016
0.419045
0.419074
0.419074
0.419104
0.419133
0.419162
0.419192
0.419192
0.419221
0.419251
0.41928
0.41931
0.41931
0.419339
0.419369
0.419398
0.419428
0.419428
0.419458
0.419487
0.419517
0.419547
0.419547
0.419577
0.419606
0.419636
0.419666
0.419666
0.419696
0.419726
0.419756
0.419786
0.419786
0.419816
0.419846
0.419876
0.419906
0.419906
0.419936
0.419966
0.419996
0.420026
0.420026
0.420056
0.420087
0.420117
0.420147
0.420147
0.420177
0.420208
0.420238
0.420269
0.420269
0.420299
0.420329
0.42036
0.42039
0.42039
0.420421
0.420451
0.420482
0.420513
0.420513
0.420543
0.420574
0.420605
0.420635
0.420635
0.420666
0.420697
0.420728
0.420758
0.420758
0.420789
0.42082
0.420851
0.420882
0.420882
0.420913
0.420944
0.420975
0.421006
0.421006
0.421037
0.421068
0.421099
0.42113
0.42113
0.421161
0.421193
0.421224
0.421255
0.421255
0.421286
0.421318
0.421349
0.42138
0.42138
0.421412
0.421443
0.421474
0.421506
0.421506
0.421537
0.421569
0.421601
0.421632
0.421632
0.421664
0.421695
0.421727
0.421759
0.421759
0.42179
0.421822
0.421854
0.421886
0.421886
0.421917
0.421949
0.421981
0.422013
0.422013
0.422045
0.422077
0.422109
0.422141
0.422141
0.422173
0.422205
0.422237
0.422269
0.422269
0.422301
0.422333
0.422366
0.422398
0.422398
0.42243
0.422462
0.422495
0.422527
0.422527
0.422559
0.422592
0.422624
0.422656
0.422656
0.422689
0.422721
0.422754
0.422786
0.422786
0.422819
0.422852
0.422884
0.422917
0.422917
0.422949
0.422982
0.423015
0.423048
0.423048
0.42308
0.423113
0.423146
0.423179
0.423179
0.423212
0.423245
0.423278
0.423311
0.423311
0.423344
0.423377
0.42341
0.423443
0.423443
0.423476
0.423509
0.423542
0.423575
0.423575
0.423609
0.423642
0.423675
0.423708
0.423708
0.423742
0.423775
0.423808
0.423842
0.423842
0.423875
0.423909
0.423942
0.423976
0.423976
0.424009
0.424043
0.424076
0.42411
0.42411
0.424143
0.424177
0.424211
0.424245
0.424245
0.424278
0.424312
0.424346
0.42438
0.42438
0.424413
0.424447
0.424481
0.424515
0.424515
0.424549
0.424583
0.424617
0.424651
0.424651
0.424685
0.424719
0.424753
0.424788
0.424788
0.424822
0.424856
0.42489
0.424924
0.424924
0.424959
0.424993
0.425027
0.425062
0.425062
0.425096
0.425131
0.425165
0.425199
0.425199
0.425234
0.425268
0.425303
0.425338
0.425338
0.425372
0.425407
0.425441
0.425476
0.425476
0.425511
0.425546
0.42558
0.425615
0.425615
0.42565
0.425685
0.42572
0.425754
0.425754
0.425789
0.425824
0.425859
0.425894
0.425894
0.425929
0.425964
0.425999
0.426035
0.426035
0.42607
0.426105
0.42614
0.426175
0.426175
0.426211
0.426246
0.426281
0.426316
0.426316
0.426352
0.426387
0.426423
0.426458
0.426458
0.426493
0.426529
0.426564
0.4266
0.4266
0.426635
0.426671
0.426707
0.426742
0.426742
0.426778
0.426814
0.426849
0.426885
0.426885
0.426921
0.426957
0.426993
0.427028
0.427028
0.427064
0.4271
0.427136
0.427172
0.427172
0.427208
0.427244
0.42728
0.427316
0.427316
0.427352
0.427388
0.427425
0.427461
0.427461
0.427497
0.427533
0.427569
0.427606
0.427606
0.427642
0.427678
0.427715
0.427751
0.427751
0.427788
0.427824
0.42786
0.427897
0.427897
0.427933
0.42797
0.428007
0.428043
0.428043
0.42808
0.428116
0.428153
0.42819
0.42819
0.428227
0.428263
0.4283
0.428337
0.428337
0.428374
0.428411
0.428448
0.428484
0.428484
0.428521
0.428558
0.428595
0.428632
0.428632
0.428669
0.428707
0.428744
0.428781
0.428781
0.428818
0.428855
0.428892
0.42893
0.42893
0.428967
0.429004
0.429041
0.429079
0.429079
0.429116
0.429154
0.429191
0.429228
0.429228
0.429266
0.429303
0.429341
0.429379
0.429379
0.429416
0.429454
0.429491
0.429529
0.429529
0.429567
0.429604
0.429642
0.42968
0.42968
0.429718
0.429756
0.429793
0.429831
0.429831
0.429869
0.429907
0.429945
0.429983
0.429983
0.430021
0.430059
0.430097
0.430135
0.430135
0.430173
0.430212
0.43025
0.430288
0.430288
0.430326
0.430364
0.430403
0.430441
0.430441
0.430479
0.430518
0.430556
0.430594
0.430594
0.430633
0.430671
0.43071
0.430748
0.430748
0.430787
0.430825
0.430864
0.430903
0.430903
0.430941
0.43098
0.431019
0.431057
0.431057
0.431096
0.431135
0.431174
0.431213
0.431213
0.431251
0.43129
0.431329
0.431368
0.431368
0.431407
0.431446
0.431485
0.431524
0.431524
0.431563
0.431602
0.431641
0.431681
0.431681
0.43172
0.431759
0.431798
0.431837
0.431837
0.431877
0.431916
0.431955
0.431995
0.431995
0.432034
0.432074
0.432113
0.432152
0.432152
0.432192
0.432231
0.432271
0.432311
0.432311
0.43235
0.43239
0.432429
0.432469
0.432469
0.432509
0.432549
0.432588
0.432628
0.432628
0.432668
0.432708
0.432748
0.432788
0.432788
0.432827
0.432867
0.432907
0.432947
0.432947
0.432987
0.433027
0.433068
0.433108
0.433108
0.433148
0.433188
0.433228
0.433268
0.433268
0.433309
0.433349
0.433389
0.433429
0.433429
0.43347
0.43351
0.43355
0.433591
0.433591
0.433631
0.433672
0.433712
0.433753
0.433753
0.433793
0.433834
0.433875
0.433915
0.433915
0.433956
0.433997
0.434037
0.434078
0.434078
0.434119
0.43416
0.4342
0.434241
0.434241
0.434282
0.434323
0.434364
0.434405
0.434405
0.434446
0.434487
0.434528
0.434569
0.434569
0.43461
0.434651
0.434692
0.434733
0.434733
0.434775
0.434816
0.434857
0.434898
0.434898
0.43494
0.434981
0.435022
0.435064
0.435064
0.435105
0.435146
0.435188
0.435229
0.435229
0.435271
0.435312
0.435354
0.435395
0.435395
0.435437
0.435479
0.43552
0.435562
0.435562
0.435604
0.435646
0.435687
0.435729
0.435729
0.435771
0.435813
0.435855
0.435897
0.435897
0.435938
0.43598
0.436022
0.436064
0.436064
0.436106
0.436148
0.436191
0.436233
0.436233
0.436275
0.436317
0.436359
0.436401
0.436401
0.436444
0.436486
0.436528
0.43657
0.43657
0.436613
0.436655
0.436698
0.43674
0.43674
0.436782
0.436825
0.436867
0.43691
0.43691
0.436952
0.436995
0.437038
0.43708
0.43708
0.437123
0.437166
0.437208
0.437251
0.437251
0.437294
0.437337
0.437379
0.437422
0.437422
0.437465
0.437508
0.437551
0.437594
0.437594
0.437637
0.43768
0.437723
0.437766
0.437766
0.437809
0.437852
0.437895
0.437938
0.437938
0.437982
0.438025
0.438068
0.438111
0.438111
0.438155
0.438198
0.438241
0.438285
0.438285
0.438328
0.438371
0.438415
0.438458
0.438458
0.438502
0.438545
0.438589
0.438632
0.438632
0.438676
0.43872
0.438763
0.438807
0.438807
0.438851
0.438894
0.438938
0.438982
0.438982
0.439026
0.43907
0.439114
0.439157
0.439157
0.439201
0.439245
0.439289
0.439333
0.439333
0.439377
0.439421
0.439465
0.439509
0.439509
0.439554
0.439598
0.439642
0.439686
0.439686
0.43973
0.439775
0.439819
0.439863
0.439863
0.439908
0.439952
0.439996
0.440041
0.440041
0.440085
0.44013
0.440174
0.440219
0.440219
0.440263
0.440308
0.440352
0.440397
0.440397
0.440442
0.440486
0.440531
0.440576
0.440576
0.44062
0.440665
0.44071
0.440755
0.440755
0.4408
0.440845
0.44089
0.440934
0.440934
0.440979
0.441024
0.441069
0.441114
0.441114
0.44116
0.441205
0.44125
0.441295
0.441295
0.44134
0.441385
0.44143
0.441476
0.441476
0.441521
0.441566
0.441612
0.441657
0.441657
0.441702
0.441748
0.441793
0.441839
0.441839
0.441884
0.44193
0.441975
0.442021
0.442021
0.442066
0.442112
0.442158
0.442203
0.442203
0.442249
0.442295
0.44234
0.442386
0.442386
0.442432
0.442478
0.442524
0.44257
0.44257
0.442615
0.442661
0.442707
0.442753
0.442753
0.442799
0.442845
0.442891
0.442937
0.442937
0.442984
0.44303
0.443076
0.443122
0.443122
0.443168
0.443215
0.443261
0.443307
0.443307
0.443353
0.4434
0.443446
0.443492
0.443492
0.443539
0.443585
0.443632
0.443678
0.443678
0.443725
0.443771
0.443818
0.443865
0.443865
0.443911
0.443958
0.444005
0.444051
0.444051
0.444098
0.444145
0.444192
0.444238
0.444238
0.444285
0.444332
0.444379
0.444426
0.444426
0.444473
0.44452
0.444567
0.444614
0.444614
0.444661
0.444708
0.444755
0.444802
0.444802
0.444849
0.444896
0.444944
0.444991
0.444991
0.445038
0.445085
0.445133
0.44518
0.44518
0.445227
0.445275
0.445322
0.44537
0.44537
0.445417
0.445465
0.445512
0.44556
0.44556
0.445607
0.445655
0.445702
0.44575
0.44575
0.445798
0.445845
0.445893
0.445941
0.445941
0.445989
0.446036
0.446084
0.446132
0.446132
0.44618
0.446228
0.446276
0.446324
0.446324
0.446372
0.44642
0.446468
0.446516
0.446516
0.446564
0.446612
0.44666
0.446708
0.446708
0.446756
0.446805
0.446853
0.446901
0.446901
0.446949
0.446998
0.447046
0.447094
0.447094
0.447143
0.447191
0.44724
0.447288
0.447288
0.447337
0.447385
0.447434
0.447482
0.447482
0.447531
0.447579
0.447628
0.447677
0.447677
0.447726
0.447774
0.447823
0.447872
0.447872
0.447921
0.447969
0.448018
0.448067
0.448067
0.448116
0.448165
0.448214
0.448263
0.448263
0.448312
0.448361
0.44841
0.448459
0.448459
0.448508
0.448557
0.448607
0.448656
0.448656
0.448705
0.448754
0.448803
0.448853
0.448853
0.448902
0.448951
0.449001
0.44905
0.44905
0.4491
0.449149
0.449199
0.449248
0.449248
0.449298
0.449347
0.449397
0.449446
0.449446
0.449496
0.449546
0.449595
0.449645
0.449645
0.449695
0.449744
0.449794
0.449844
0.449844
0.449894
0.449944
0.449994
0.450044
0.450044
0.450093
0.450143
0.450193
0.450243
0.450243
0.450293
0.450344
0.450394
0.450444
0.450444
0.450494
0.450544
0.450594
0.450645
0.450645
0.450695
0.450745
0.450795
0.450846
0.450846
0.450896
0.450946
0.450997
0.451047
0.451047
0.451098
0.451148
0.451199
0.451249
0.451249
0.4513
0.45135
0.451401
0.451452
0.451452
0.451502
0.451553
0.451604
0.451654
0.451654
0.451705
0.451756
0.451807
0.451858
0.451858
0.451908
0.451959
0.45201
0.452061
0.452061
0.452112
0.452163
0.452214
0.452265
0.452265
0.452316
0.452367
0.452418
0.45247
0.45247
0.452521
0.452572
0.452623
0.452674
0.452674
0.452726
0.452777
0.452828
0.45288
0.45288
0.452931
0.452982
0.453034
0.453085
0.453085
0.453137
0.453188
0.45324
0.453291
0.453291
0.453343
0.453395
0.453446
0.453498
0.453498
0.45355
0.453601
0.453653
0.453705
0.453705
0.453757
0.453808
0.45386
0.453912
0.453912
0.453964
0.454016
0.454068
0.45412
0.45412
0.454172
0.454224
0.454276
0.454328
0.454328
0.45438
0.454432
0.454484
0.454536
0.454536
0.454589
0.454641
0.454693
0.454745
0.454745
0.454798
0.45485
0.454902
0.454955
0.454955
0.455007
0.455059
0.455112
0.455164
0.455164
0.455217
0.455269
0.455322
0.455375
0.455375
0.455427
0.45548
0.455532
0.455585
0.455585
0.455638
0.455691
0.455743
0.455796
0.455796
0.455849
0.455902
0.455955
0.456007
0.456007
0.45606
0.456113
0.456166
0.456219
0.456219
0.456272
0.456325
0.456378
0.456431
0.456431
0.456485
0.456538
0.456591
0.456644
0.456644
0.456697
0.456751
0.456804
0.456857
0.456857
0.45691
0.456964
0.457017
0.457071
0.457071
0.457124
0.457177
0.457231
0.457284
0.457284
0.457338
0.457391
0.457445
0.457499
0.457499
0.457552
0.457606
0.45766
0.457713
0.457713
0.457767
0.457821
0.457874
0.457928
0.457928
0.457982
0.458036
0.45809
0.458144
0.458144
0.458198
0.458252
0.458306
0.45836
0.45836
0.458414
0.458468
0.458522
0.458576
0.458576
0.45863
0.458684
0.458738
0.458793
0.458793
0.458847
0.458901
0.458955
0.45901
0.45901
0.459064
0.459118
0.459173
0.459227
0.459227
0.459282
0.459336
0.45939
0.459445
0.459445
0.4595
0.459554
0.459609
0.459663
0.459663
0.459718
0.459773
0.459827
0.459882
0.459882
0.459937
0.459991
0.460046
0.460101
0.460101
0.460156
0.460211
0.460266
0.460321
0.460321
0.460376
0.460431
0.460486
0.460541
0.460541
0.460596
0.460651
0.460706
0.460761
0.460761
0.460816
0.460871
0.460926
0.460982
0.460982
0.461037
0.461092
0.461147
0.461203
0.461203
0.461258
0.461313
0.461369
0.461424
0.461424
0.46148
0.461535
0.461591
0.461646
0.461646
0.461702
0.461757
0.461813
0.461869
0.461869
0.461924
0.46198
0.462036
0.462091
0.462091
0.462147
0.462203
0.462259
0.462314
0.462314
0.46237
0.462426
0.462482
0.462538
0.462538
0.462594
0.46265
0.462706
0.462762
0.462762
0.462818
0.462874
0.46293
0.462986
0.462986
0.463042
0.463099
0.463155
0.463211
0.463211
0.463267
0.463324
0.46338
0.463436
0.463436
0.463493
0.463549
0.463605
0.463662
0.463662
0.463718
0.463775
0.463831
0.463888
0.463888
0.463944
0.464001
0.464058
0.464114
0.464114
0.464171
0.464228
0.464284
0.464341
0.464341
0.464398
0.464455
0.464511
0.464568
0.464568
0.464625
0.464682
0.464739
0.464796
0.464796
0.464853
0.46491
0.464967
0.465024
0.465024
0.465081
0.465138
0.465195
0.465252
0.465252
0.465309
0.465366
0.465424
0.465481
0.465481
0.465538
0.465595
0.465653
0.46571
0.46571
0.465767
0.465825
0.465882
0.46594
0.46594
0.465997
0.466055
0.466112
0.46617
0.46617
0.466227
0.466285
0.466342
0.4664
0.4664
0.466458
0.466515
0.466573
0.466631
0.466631
0.466689
0.466746
0.466804
0.466862
0.466862
0.46692
0.466978
0.467036
0.467094
0.467094
0.467152
0.46721
0.467268
0.467326
0.467326
0.467384
0.467442
0.4675
0.467558
0.467558
0.467616
0.467675
0.467733
0.467791
0.467791
0.467849
0.467908
0.467966
0.468024
0.468024
0.468083
0.468141
0.468199
0.468258
0.468258
0.468316
0.468375
0.468433
0.468492
0.468492
0.46855
0.468609
0.468668
0.468726
0.468726
0.468785
0.468844
0.468902
0.468961
0.468961
0.46902
0.469079
0.469137
0.469196
0.469196
0.469255
0.469314
0.469373
0.469432
0.469432
0.469491
0.46955
0.469609
0.469668
0.469668
0.469727
0.469786
0.469845
0.469904
0.469904
0.469963
0.470023
0.470082
0.470141
0.470141
0.4702
0.47026
0.470319
0.470378
0.470378
0.470438
0.470497
0.470556
0.470616
0.470616
0.470675
0.470735
0.470794
0.470854
0.470854
0.470913
0.470973
0.471033
0.471092
0.471092
0.471152
0.471212
0.471271
0.471331
0.471331
0.471391
0.471451
0.47151
0.47157
0.47157
0.47163
0.47169
0.47175
0.47181
0.47181
0.47187
0.47193
0.47199
0.47205
0.47205
0.47211
0.47217
0.47223
0.47229
0.47229
0.47235
0.472411
0.472471
0.472531
0.472531
0.472591
0.472651
0.472712
0.472772
0.472772
0.472832
0.472893
0.472953
0.473014
0.473014
0.473074
0.473135
0.473195
0.473256
0.473256
0.473316
0.473377
0.473437
0.473498
0.473498
0.473559
0.473619
0.47368
0.473741
0.473741
0.473802
0.473862
0.473923
0.473984
0.473984
0.474045
0.474106
0.474167
0.474228
0.474228
0.474289
0.474349
0.47441
0.474472
0.474472
0.474533
0.474594
0.474655
0.474716
0.474716
0.474777
0.474838
0.474899
0.474961
0.474961
0.475022
0.475083
0.475144
0.475206
0.475206
0.475267
0.475328
0.47539
0.475451
0.475451
0.475513
0.475574
0.475636
0.475697
0.475697
0.475759
0.47582
0.475882
0.475944
0.475944
0.476005
0.476067
0.476129
0.47619
0.47619
0.476252
0.476314
0.476376
0.476437
0.476437
0.476499
0.476561
0.476623
0.476685
0.476685
0.476747
0.476809
0.476871
0.476933
0.476933
0.476995
0.477057
0.477119
0.477181
0.477181
0.477243
0.477305
0.477368
0.47743
0.47743
0.477492
0.477554
0.477617
0.477679
0.477679
0.477741
0.477804
0.477866
0.477928
0.477928
0.477991
0.478053
0.478116
0.478178
0.478178
0.478241
0.478303
0.478366
0.478429
0.478429
0.478491
0.478554
0.478617
0.478679
0.478679
0.478742
0.478805
0.478868
0.47893
0.47893
0.478993
0.479056
0.479119
0.479182
0.479182
0.479245
0.479308
0.479371
0.479434
0.479434
0.479497
0.47956
0.479623
0.479686
0.479686
0.479749
0.479812
0.479875
0.479939
0.479939
0.480002
0.480065
0.480128
0.480192
0.480192
0.480255
0.480318
0.480382
0.480445
0.480445
0.480508
0.480572
0.480635
0.480699
0.480699
0.480762
0.480826
0.480889
0.480953
0.480953
0.481017
0.48108
0.481144
0.481208
0.481208
0.481271
0.481335
0.481399
0.481463
0.481463
0.481526
0.48159
0.481654
0.481718
0.481718
0.481782
0.481846
0.48191
0.481974
0.481974
0.482038
0.482102
0.482166
0.48223
0.48223
0.482294
0.482358
0.482422
0.482487
0.482487
0.482551
0.482615
0.482679
0.482743
0.482743
0.482808
0.482872
0.482936
0.483001
0.483001
0.483065
0.48313
0.483194
0.483259
0.483259
0.483323
0.483388
0.483452
0.483517
0.483517
0.483581
0.483646
0.483711
0.483775
0.483775
0.48384
0.483905
0.483969
0.484034
0.484034
0.484099
0.484164
0.484229
0.484293
0.484293
0.484358
0.484423
0.484488
0.484553
0.484553
0.484618
0.484683
0.484748
0.484813
0.484813
0.484878
0.484943
0.485008
0.485074
0.485074
0.485139
0.485204
0.485269
0.485334
0.485334
0.4854
0.485465
0.48553
0.485596
0.485596
0.485661
0.485726
0.485792
0.485857
0.485857
0.485923
0.485988
0.486054
0.486119
0.486119
0.486185
0.486251
0.486316
0.486382
0.486382
0.486447
0.486513
0.486579
0.486645
0.486645
0.48671
0.486776
0.486842
0.486908
0.486908
0.486974
0.487039
0.487105
0.487171
0.487171
0.487237
0.487303
0.487369
0.487435
0.487435
0.487501
0.487567
0.487634
0.4877
0.4877
0.487766
0.487832
0.487898
0.487964
0.487964
0.488031
0.488097
0.488163
0.48823
0.48823
0.488296
0.488362
0.488429
0.488495
0.488495
0.488561
0.488628
0.488694
0.488761
0.488761
0.488827
0.488894
0.488961
0.489027
0.489027
0.489094
0.489161
0.489227
0.489294
0.489294
0.489361
0.489427
0.489494
0.489561
0.489561
0.489628
0.489695
0.489762
0.489828
0.489828
0.489895
0.489962
0.490029
0.490096
0.490096
0.490163
0.49023
0.490297
0.490364
0.490364
0.490432
0.490499
0.490566
0.490633
0.490633
0.4907
0.490768
0.490835
0.490902
0.490902
0.490969
0.491037
0.491104
0.491171
0.491171
0.491239
0.491306
0.491374
0.491441
0.491441
0.491509
0.491576
0.491644
0.491711
0.491711
0.491779
0.491847
0.491914
0.491982
0.491982
0.49205
0.492117
0.492185
0.492253
0.492253
0.492321
0.492388
0.492456
0.492524
0.492524
0.492592
0.49266
0.492728
0.492796
0.492796
0.492864
0.492932
0.493
0.493068
0.493068
0.493136
0.493204
0.493272
0.49334
0.49334
0.493409
0.493477
0.493545
0.493613
0.493613
0.493682
0.49375
0.493818
0.493886
0.493886
0.493955
0.494023
0.494092
0.49416
0.49416
0.494229
0.494297
0.494366
0.494434
0.494434
0.494503
0.494571
0.49464
0.494708
0.494708
0.494777
0.494846
0.494915
0.494983
0.494983
0.495052
0.495121
0.49519
0.495258
0.495258
0.495327
0.495396
0.495465
0.495534
0.495534
0.495603
0.495672
0.495741
0.49581
0.49581
0.495879
0.495948
0.496017
0.496086
0.496086
0.496155
0.496224
0.496294
0.496363
0.496363
0.496432
0.496501
0.496571
0.49664
0.49664
0.496709
0.496779
0.496848
0.496917
0.496917
0.496987
0.497056
0.497126
0.497195
0.497195
0.497265
0.497334
0.497404
0.497473
0.497473
0.497543
0.497613
0.497682
0.497752
0.497752
0.497822
0.497891
0.497961
0.498031
0.498031
0.498101
0.498171
0.49824
0.49831
0.49831
0.49838
0.49845
0.49852
0.49859
0.49859
0.49866
0.49873
0.4988
0.49887
0.49887
0.49894
0.49901
0.499081
0.499151
0.499151
0.499221
0.499291
0.499361
0.499432
0.499432
0.499502
0.499572
0.499642
0.499713
0.499713
0.499783
0.499854
0.499924
0.499994
0.499994
0.500065