<?xml version="1.0"?>
<VTKFile type="UnstructuredGrid" version="0.1" byte_order="LittleEndian">
<UnstructuredGrid>
<Piece NumberOfPoints="5000" NumberOfCells="4000">
<PointData Scalars="Reaction 0">
<DataArray type="Float32" Name="Reaction 0" format="ascii">
0.89469
0.89469
0.89469
0.89469
0.89469
0.89469
0.89469
0.89469
0.89469
0.89469
0.89469
0.89469
0.89469
0.89469
0.89469
0.89469
0.89469
0.89469
0.89469
0.89469
0.89469
0.89469
0.89469
0.89469
0.89469
0.89469
0.89469
0.89469
0.89469
0.89469
0.89469
0.89469
0.89469
0.89469
0.89469
0.89469
0.89469
0.894689
0.894689
0.894689
0.894689
0.894689
0.894689
0.894689
0.894689
0.894689
0.894689
0.894689
0.894689
0.894689
0.894689
0.894689
0.894689
0.894689
0.894689
0.894689
0.894689
0.894688
0.894688
0.894688
0.894688
0.894688
0.894688
0.894688
0.894688
0.894688
0.894688
0.894688
0.894688
0.894688
0.894688
0.894688
0.894687
0.894687
0.894687
0.894687
0.894687
0.894687
0.894687
0.894687
0.894687
0.894687
0.894687
0.894687
0.894686
0.894686
0.894686
0.894686
0.894686
0.894686
0.894686
0.894686
0.894686
0.894686
0.894686
0.894686
0.894685
0.894685
0.894685
0.894685
0.894685
0.894685
0.894685
0.894685
0.894684
0.894684
0.894684
0.894684
0.894684
0.894684
0.894684
0.894684
0.894684
0.894684
0.894683
0.894683
0.894683
0.894683
0.894683
0.894683
0.894683
0.894683
0.894682
0.894682
0.894682
0.894682
0.894682
0.894682
0.894682
0.894681
0.894681
0.894681
0.894681
0.894681
0.894681
0.894681
0.894681
0.89468
0.89468
0.89468
0.89468
0.89468
0.89468
0.89468
0.894679
0.894679
0.894679
0.894679
0.894679
0.894679
0.894679
0.894678
0.894678
0.894678
0.894678
0.894678
0.894678
0.894677
0.894677
0.894677
0.894677
0.894677
0.894677
0.894676
0.894676
0.894676
0.894676
0.894676
0.894675
0.894675
0.894675
0.894675
0.894675
0.894675
0.894674
0.894674
0.894674
0.894674
0.894674
0.894673
0.894673
0.894673
0.894673
0.894673
0.894672
0.894672
0.894672
0.894672
0.894672
0.894672
0.894672
0.894671
0.894671
0.894671
0.894671
0.894671
0.89467
0.89467
0.89467
0.89467
0.89467
0.894669
0.894669
0.894669
0.894668
0.894668
0.894668
0.894668
0.894668
0.894667
0.894667
0.894667
0.894667
0.894667
0.894666
0.894666
0.894666
0.894666
0.894665
0.894665
0.894665
0.894665
0.894665
0.894664
0.894664
0.894664
0.894664
0.894663
0.894663
0.894663
0.894663
0.894663
0.894662
0.894662
0.894662
0.894662
0.894661
0.894661
0.894661
0.89466
0.89466
0.89466
0.89466
0.894659
0.894659
0.894659
0.894659
0.894659
0.894658
0.894658
0.894658
0.894658
0.894657
0.894657
0.894657
0.894657
0.894656
0.894656
0.894656
0.894655
0.894655
0.894655
0.894655
0.894654
0.894654
0.894654
0.894654
0.894653
0.894653
0.894652
0.894652
0.894652
0.894652
0.894651
0.894651
0.894651
0.894651
0.89465
0.89465
0.89465
0.89465
0.894649
0.894649
0.894649
0.894648
0.894648
0.894648
0.894647
0.894647
0.894647
0.894647
0.894646
0.894646
0.894646
0.894645
0.894645
0.894645
0.894644
0.894644
0.894644
0.894644
0.894643
0.894643
0.894642
0.894642
0.894642
0.894642
0.894641
0.894641
0.894641
0.894641
0.89464
0.89464
0.894639
0.894639
0.894639
0.894638
0.894638
0.894638
0.894637
0.894637
0.894637
0.894636
0.894636
0.894636
0.894636
0.894635
0.894635
0.894634
0.894634
0.894634
0.894633
0.894633
0.894633
0.894632
0.894632
0.894632
0.894631
0.894631
0.89463
0.89463
0.89463
0.89463
0.894629
0.894629
0.894629
0.894628
0.894628
0.894627
0.894627
0.894627
0.894626
0.894626
0.894626
0.894625
0.894625
0.894625
0.894624
0.894624
0.894623
0.894623
0.894623
0.894622
0.894622
0.894621
0.894621
0.894621
0.89462
0.89462
0.894619
0.894619
0.894619
0.894619
0.894618
0.894618
0.894618
0.894617
0.894617
0.894616
0.894616
0.894616
0.894615
0.894615
0.894614
0.894614
0.894614
0.894613
0.894613
0.894612
0.894612
0.894612
0.894611
0.894611
0.89461
0.89461
0.89461
0.894609
0.894609
0.894608
0.894608
0.894608
0.894607
0.894607
0.894606
0.894605
0.894605
0.894605
0.894604
0.894604
0.894603
0.894603
0.894603
0.894602
0.894602
0.894601
0.894601
0.894601
0.8946
0.8946
0.894599
0.894599
0.894599
0.894598
0.894597
0.894597
0.894597
0.894596
0.894596
0.894595
0.894595
0.894595
0.894594
0.894594
0.894593
0.894593
0.894593
0.894592
0.894591
0.894591
0.89459
0.89459
0.89459
0.894589
0.894589
0.894588
0.894588
0.894587
0.894587
0.894586
0.894586
0.894586
0.894585
0.894585
0.894584
0.894583
0.894583
0.894583
0.894582
0.894582
0.894581
0.894581
0.89458
0.89458
0.894579
0.894579
0.894579
0.894578
0.894577
0.894577
0.894576
0.894576
0.894576
0.894575
0.894574
0.894574
0.894574
0.894573
0.894573
0.894572
0.894571
0.894571
0.894571
0.89457
0.89457
0.894569
0.894569
0.894568
0.894568
0.894567
0.894566
0.894566
0.894566
0.894565
0.894564
0.894564
0.894564
0.894563
0.894563
0.894562
0.894561
0.894561
0.894561
0.89456
0.894559
0.894559
0.894559
0.894558
0.894557
0.894557
0.894556
0.894556
0.894555
0.894555
0.894554
0.894553
0.894553
0.894553
0.894552
0.894551
0.894551
0.894551
0.89455
0.894549
0.894549
0.894548
0.894548
0.894547
0.894547
0.894546
0.894545
0.894545
0.894545
0.894544
0.894543
0.894543
0.894543
0.894542
0.894541
0.894541
0.89454
0.89454
0.894539
0.894539
0.894538
0.894537
0.894537
0.894536
0.894536
0.894535
0.894534
0.894534
0.894534
0.894533
0.894532
0.894532
0.894532
0.894531
0.89453
0.894529
0.894529
0.894529
0.894528
0.894527
0.894527
0.894526
0.894526
0.894525
0.894524
0.894524
0.894523
0.894523
0.894522
0.894521
0.894521
0.89452
0.89452
0.894519
0.894518
0.894518
0.894517
0.894517
0.894516
0.894516
0.894515
0.894514
0.894514
0.894513
0.894513
0.894512
0.894511
0.894511
0.89451
0.89451
0.894509
0.894508
0.894508
0.894507
0.894506
0.894506
0.894505
0.894505
0.894504
0.894503
0.894503
0.894502
0.894502
0.894501
0.8945
0.8945
0.894499
0.894499
0.894498
0.894497
0.894496
0.894496
0.894496
0.894495
0.894494
0.894493
0.894492
0.894492
0.894492
0.894491
0.89449
0.894489
0.894489
0.894488
0.894488
0.894487
0.894486
0.894486
0.894485
0.894484
0.894484
0.894483
0.894483
0.894482
0.894481
0.89448
0.89448
0.89448
0.894479
0.894478
0.894477
0.894476
0.894476
0.894475
0.894475
0.894474
0.894473
0.894473
0.894472
0.894471
0.894471
0.89447
0.89447
0.894469
0.894468
0.894467
0.894466
0.894466
0.894465
0.894465
0.894464
0.894463
0.894463
0.894462
0.894461
0.89446
0.89446
0.89446
0.894459
0.894458
0.894457
0.894456
0.894456
0.894455
0.894454
0.894454
0.894453
0.894453
0.894452
0.894451
0.89445
0.894449
0.894449
0.894448
0.894447
0.894447
0.894446
0.894446
0.894445
0.894444
0.894443
0.894442
0.894442
0.894441
0.89444
0.89444
0.894439
0.894439
0.894438
0.894437
0.894436
0.894435
0.894435
0.894434
0.894433
0.894432
0.894431
0.894431
0.894431
0.89443
0.894429
0.894428
0.894428
0.894427
0.894426
0.894425
0.894424
0.894424
0.894423
0.894422
0.894421
0.894421
0.894421
0.89442
0.894419
0.894418
0.894417
0.894417
0.894416
0.894415
0.894414
0.894413
0.894413
0.894412
0.894411
0.89441
0.894409
0.894409
0.894408
0.894407
0.894407
0.894406
0.894406
0.894405
0.894404
0.894403
0.894402
0.894402
0.894401
0.8944
0.894399
0.894398
0.894398
0.894397
0.894396
0.894395
0.894394
0.894394
0.894393
0.894392
0.894391
0.89439
0.89439
0.894389
0.894388
0.894387
0.894386
0.894386
0.894385
0.894384
0.894383
0.894382
0.894382
0.894381
0.89438
0.894379
0.894378
0.894378
0.894378
0.894377
0.894376
0.894375
0.894375
0.894374
0.894373
0.894372
0.894371
0.894371
0.89437
0.894369
0.894368
0.894367
0.894367
0.894366
0.894365
0.894364
0.894362
0.894362
0.894361
0.89436
0.894359
0.894358
0.894358
0.894357
0.894356
0.894355
0.894354
0.894354
0.894353
0.894352
0.894351
0.89435
0.89435
0.894349
0.894348
0.894347
0.894346
0.894346
0.894345
0.894344
0.894343
0.894342
0.894342
0.894341
0.89434
0.894339
0.894338
0.894338
0.894337
0.894336
0.894335
0.894334
0.894334
0.894333
0.894331
0.89433
0.894329
0.894329
0.894328
0.894327
0.894326
0.894325
0.894325
0.894324
0.894323
0.894322
0.894321
0.894321
0.89432
0.894319
0.894318
0.894316
0.894316
0.894315
0.894314
0.894313
0.894312
0.894312
0.894311
0.89431
0.894309
0.894308
0.894308
0.894307
0.894306
0.894305
0.894303
0.894303
0.894302
0.894301
0.8943
0.894299
0.894299
0.894298
0.894297
0.894296
0.894295
0.894295
0.894294
0.894292
0.894291
0.89429
0.89429
0.894289
0.894288
0.894287
0.894286
0.894286
0.894285
0.894283
0.894282
0.894281
0.894281
0.89428
0.894279
0.894278
0.894277
0.894277
0.894276
0.894274
0.894273
0.894272
0.894272
0.894271
0.89427
0.894269
0.894268
0.894268
0.894266
0.894265
0.894264
0.894263
0.894263
0.894262
0.894261
0.89426
0.894258
0.894258
0.894257
0.894256
0.894255
0.894254
0.894254
0.894253
0.894251
0.89425
0.894249
0.894249
0.894248
0.894247
0.894246
0.894244
0.894244
0.894243
0.894242
0.894241
0.89424
0.89424
0.894239
0.894237
0.894236
0.894235
0.894235
0.894234
0.894233
0.894231
0.89423
0.89423
0.894229
0.894228
0.894227
0.894225
0.894225
0.894224
0.894223
0.894222
0.894221
0.894221
0.894219
0.894218
0.894217
0.894216
0.894216
0.894215
0.894213
0.894212
0.894211
0.894211
0.89421
0.894209
0.894207
0.894206
0.894206
0.894205
0.894204
0.894202
0.894201
0.894201
0.8942
0.894199
0.894198
0.894196
0.894196
0.894195
0.894194
0.894193
0.894191
0.894191
0.89419
0.894189
0.894188
0.894186
0.894186
0.894185
0.894184
0.894183
0.894181
0.894181
0.89418
0.894179
0.894178
0.894176
0.894176
0.894175
0.894174
0.894173
0.894171
0.894171
0.89417
0.894169
0.894168
0.894166
0.894166
0.894165
0.894164
0.894163
0.894161
0.894161
0.89416
0.894159
0.894157
0.894156
0.894156
0.894155
0.894154
0.894152
0.894151
0.894151
0.89415
0.894149
0.894147
0.894146
0.894146
0.894145
0.894143
0.894142
0.894141
0.894141
0.894139
0.894138
0.894137
0.894136
0.894136
0.894134
0.894133
0.894132
0.89413
0.89413
0.894129
0.894128
0.894126
0.894125
0.894125
0.894124
0.894122
0.894121
0.89412
0.89412
0.894119
0.894117
0.894116
0.894115
0.894115
0.894113
0.894112
0.894111
0.894109
0.894109
0.894108
0.894107
0.894105
0.894104
0.894104
0.894103
0.894101
0.8941
0.894099
0.894099
0.894097
0.894096
0.894095
0.894093
0.894093
0.894092
0.894091
0.894089
0.894088
0.894088
0.894086
0.894085
0.894084
0.894082
0.894082
0.894081
0.89408
0.894078
0.894077
0.894077
0.894076
0.894074
0.894073
0.894071
0.894071
0.89407
0.894069
0.894067
0.894066
0.894066
0.894065
0.894063
0.894062
0.89406
0.89406
0.894059
0.894058
0.894056
0.894055
0.894055
0.894054
0.894052
0.894051
0.894049
0.894049
0.894048
0.894047
0.894045
0.894044
0.894044
0.894042
0.894041
0.89404
0.894038
0.894038
0.894037
0.894035
0.894034
0.894032
0.894032
0.894031
0.89403
0.894028
0.894027
0.894027
0.894025
0.894024
0.894022
0.894021
0.894021
0.894019
0.894018
0.894016
0.894015
0.894015
0.894013
0.894012
0.894011
0.894009
0.894009
0.894008
0.894006
0.894005
0.894003
0.894003
0.894002
0.894
0.893999
0.893997
0.893997
0.893996
0.893994
0.893992
0.893991
0.893991
0.893989
0.893988
0.893986
0.893985
0.893985
0.893983
0.893982
0.89398
0.893979
0.893979
0.893977
0.893976
0.893974
0.893973
0.893973
0.893971
0.893969
0.893968
0.893966
0.893966
0.893965
0.893963
0.893962
0.89396
0.89396
0.893958
0.893957
0.893955
0.893954
0.893954
0.893952
0.89395
0.893949
0.893947
0.893947
0.893946
0.893944
0.893942
0.893941
0.893941
0.893939
0.893937
0.893936
0.893934
0.893934
0.893933
0.893931
0.893929
0.893928
0.893928
0.893926
0.893924
0.893923
0.893921
0.893921
0.893919
0.893918
0.893916
0.893915
0.893915
0.893913
0.893911
0.89391
0.893908
0.893908
0.893906
0.893905
0.893903
0.893901
0.893901
0.8939
0.893898
0.893896
0.893895
0.893895
0.893893
0.893891
0.89389
0.893888
0.893888
0.893886
0.893885
0.893883
0.893881
0.893881
0.89388
0.893878
0.893876
0.893874
0.893874
0.893873
0.893871
0.893869
0.893868
0.893868
0.893866
0.893864
0.893863
0.893861
0.893861
0.893859
0.893858
0.893856
0.893854
0.893854
0.893852
0.893851
0.893849
0.893847
0.893847
0.893846
0.893844
0.893842
0.89384
0.89384
0.893839
0.893837
0.893835
0.893834
0.893834
0.893832
0.89383
0.893828
0.893827
0.893827
0.893825
0.893823
0.893822
0.89382
0.89382
0.893818
0.893816
0.893815
0.893813
0.893813
0.893811
0.893809
0.893808
0.893806
0.893806
0.893804
0.893802
0.893801
0.893799
0.893799
0.893797
0.893795
0.893794
0.893792
0.893792
0.89379
0.893788
0.893787
0.893785
0.893785
0.893783
0.893781
0.89378
0.893778
0.893778
0.893776
0.893774
0.893772
0.893771
0.893771
0.893769
0.893767
0.893765
0.893764
0.893764
0.893762
0.89376
0.893758
0.893756
0.893756
0.893755
0.893753
0.893751
0.893749
0.893749
0.893747
0.893746
0.893744
0.893742
0.893742
0.89374
0.893738
0.893737
0.893735
0.893735
0.893733
0.893731
0.893729
0.893728
0.893728
0.893726
0.893724
0.893722
0.89372
0.89372
0.893719
0.893717
0.893715
0.893713
0.893713
0.893711
0.893709
0.893708
0.893706
0.893706
0.893704
0.893702
0.8937
0.893699
0.893699
0.893697
0.893695
0.893693
0.893691
0.893691
0.893689
0.893687
0.893686
0.893684
0.893684
0.893682
0.89368
0.893678
0.893676
0.893676
0.893675
0.893673
0.893671
0.893669
0.893669
0.893667
0.893665
0.893663
0.893662
0.893662
0.89366
0.893658
0.893656
0.893654
0.893654
0.893652
0.89365
0.893649
0.893647
0.893647
0.893645
0.893643
0.893641
0.893639
0.893639
0.893637
0.893635
0.893634
0.893632
0.893632
0.89363
0.893628
0.893626
0.893624
0.893624
0.893622
0.89362
0.893618
0.893617
0.893617
0.893615
0.893613
0.893611
0.893609
0.893609
0.893607
0.893605
0.893603
0.893601
0.893601
0.893599
0.893597
0.893596
0.893594
0.893594
0.893592
0.89359
0.893588
0.893586
0.893586
0.893584
0.893582
0.89358
0.893578
0.893578
0.893576
0.893574
0.893573
0.893571
0.893571
0.893569
0.893567
0.893565
0.893563
0.893563
0.893561
0.893559
0.893557
0.893555
0.893555
0.893553
0.893551
0.893549
0.893547
0.893547
0.893545
0.893543
0.893542
0.89354
0.89354
0.893538
0.893536
0.893534
0.893532
0.893532
0.89353
0.893528
0.893526
0.893524
0.893524
0.893522
0.89352
0.893518
0.893516
0.893516
0.893514
0.893512
0.89351
0.893508
0.893508
0.893506
0.893504
0.893502
0.8935
0.8935
0.893498
0.893496
0.893494
0.893492
0.893492
0.89349
0.893488
0.893486
0.893484
0.893484
0.893482
0.89348
0.893478
0.893476
0.893476
0.893474
0.893472
0.89347
0.893468
0.893468
0.893466
0.893464
0.893462
0.89346
0.89346
0.893458
0.893456
0.893454
0.893452
0.893452
0.89345
0.893448
0.893446
0.893444
0.893444
0.893442
0.89344
0.893438
0.893436
0.893436
0.893434
0.893432
0.89343
0.893428
0.893428
0.893426
0.893424
0.893422
0.89342
0.89342
0.893418
0.893416
0.893414
0.893412
0.893412
0.89341
0.893408
0.893406
0.893404
0.893404
0.893402
0.8934
0.893398
0.893396
0.893396
0.893394
0.893391
0.893389
0.893387
0.893387
0.893385
0.893383
0.893381
0.893379
0.893379
0.893377
0.893375
0.893373
0.893371
0.893371
0.893369
0.893367
0.893365
0.893363
0.893363
0.893361
0.893359
0.893356
0.893354
0.893354
0.893352
0.89335
0.893348
0.893346
0.893346
0.893344
0.893342
0.89334
0.893338
0.893338
0.893336
0.893334
0.893331
0.893329
0.893329
0.893327
0.893325
0.893323
0.893321
0.893321
0.893319
0.893317
0.893315
0.893313
0.893313
0.89331
0.893308
0.893306
0.893304
0.893304
0.893302
0.8933
0.893298
0.893296
0.893296
0.893294
0.893292
0.893289
0.893287
0.893287
0.893285
0.893283
0.893281
0.893279
0.893279
0.893277
0.893275
0.893272
0.89327
0.89327
0.893268
0.893266
0.893264
0.893262
0.893262
0.89326
0.893257
0.893255
0.893253
0.893253
0.893251
0.893249
0.893247
0.893245
0.893245
0.893243
0.89324
0.893238
0.893236
0.893236
0.893234
0.893232
0.89323
0.893227
0.893227
0.893225
0.893223
0.893221
0.893219
0.893219
0.893217
0.893215
0.893212
0.89321
0.89321
0.893208
0.893206
0.893204
0.893202
0.893202
0.893199
0.893197
0.893195
0.893193
0.893193
0.893191
0.893189
0.893186
0.893184
0.893184
0.893182
0.89318
0.893178
0.893175
0.893175
0.893173
0.893171
0.893169
0.893167
0.893167
0.893164
0.893162
0.89316
0.893158
0.893158
0.893156
0.893154
0.893151
0.893149
0.893149
0.893147
0.893145
0.893143
0.89314
0.89314
0.893138
0.893136
0.893134
0.893131
0.893131
0.893129
0.893127
0.893125
0.893123
0.893123
0.89312
0.893118
0.893116
0.893114
0.893114
0.893112
0.893109
0.893107
0.893105
0.893105
0.893103
0.8931
0.893098
0.893096
0.893096
0.893094
0.893092
0.893089
0.893087
0.893087
0.893085
0.893083
0.89308
0.893078
0.893078
0.893076
0.893074
0.893071
0.893069
0.893069
0.893067
0.893065
0.893062
0.89306
0.89306
0.893058
0.893056
0.893053
0.893051
0.893051
0.893049
0.893047
0.893044
0.893042
0.893042
0.89304
0.893038
0.893035
0.893033
0.893033
0.893031
0.893028
0.893026
0.893024
0.893024
0.893022
0.893019
0.893017
0.893015
0.893015
0.893012
0.89301
0.893008
0.893005
0.893005
0.893003
0.893001
0.892999
0.892996
0.892996
0.892994
0.892992
0.892989
0.892987
0.892987
0.892984
0.892982
0.89298
0.892977
0.892977
0.892975
0.892973
0.89297
0.892968
0.892968
0.892966
0.892963
0.892961
0.892958
0.892958
0.892956
0.892954
0.892951
0.892949
0.892949
0.892946
0.892944
0.892942
0.892939
0.892939
0.892937
0.892934
0.892932
0.892929
0.892929
0.892927
0.892925
0.892922
0.89292
0.89292
0.892917
0.892915
0.892912
0.89291
0.89291
0.892907
0.892905
0.892902
0.8929
0.8929
0.892897
0.892895
0.892893
0.89289
0.89289
0.892888
0.892885
0.892883
0.89288
0.89288
0.892877
0.892875
0.892872
0.89287
0.89287
0.892867
0.892865
0.892862
0.89286
0.89286
0.892857
0.892855
0.892852
0.89285
0.89285
0.892847
0.892845
0.892842
0.892839
0.892839
0.892837
0.892834
0.892832
0.892829
0.892829
0.892827
0.892824
0.892822
0.892819
0.892819
0.892816
0.892814
0.892811
0.892809
0.892809
0.892806
0.892804
0.892801
0.892798
0.892798
0.892796
0.892793
0.892791
0.892788
0.892788
0.892786
0.892783
0.89278
0.892778
0.892778
0.892775
0.892773
0.89277
0.892767
0.892767
0.892765
0.892762
0.89276
0.892757
0.892757
0.892754
0.892752
0.892749
0.892747
0.892747
0.892744
0.892741
0.892739
0.892736
0.892736
0.892734
0.892731
0.892728
0.892726
0.892726
0.892723
0.892721
0.892718
0.892715
0.892715
0.892713
0.89271
0.892707
0.892705
0.892705
0.892702
0.8927
0.892697
0.892694
0.892694
0.892692
0.892689
0.892686
0.892684
0.892684
0.892681
0.892678
0.892676
0.892673
0.892673
0.892671
0.892668
0.892665
0.892663
0.892663
0.89266
0.892657
0.892655
0.892652
0.892652
0.892649
0.892647
0.892644
0.892641
0.892641
0.892639
0.892636
0.892633
0.892631
0.892631
0.892628
0.892626
0.892623
0.89262
0.89262
0.892618
0.892615
0.892612
0.89261
0.89261
0.892607
0.892604
0.892602
0.892599
0.892599
0.892596
0.892593
0.892591
0.892588
0.892588
0.892585
0.892583
0.89258
0.892577
0.892577
0.892575
0.892572
0.892569
0.892567
0.892567
0.892564
0.892561
0.892559
0.892556
0.892556
0.892553
0.892551
0.892548
0.892545
0.892545
0.892542
0.89254
0.892537
0.892534
0.892534
0.892532
0.892529
0.892526
0.892524
0.892524
0.892521
0.892518
0.892515
0.892513
0.892513
0.89251
0.892507
0.892505
0.892502
0.892502
0.892499
0.892496
0.892494
0.892491
0.892491
0.892488
0.892485
0.892483
0.89248
0.89248
0.892477
0.892475
0.892472
0.892469
0.892469
0.892466
0.892464
0.892461
0.892458
0.892458
0.892455
0.892453
0.89245
0.892447
0.892447
0.892444
0.892442
0.892439
0.892436
0.892436
0.892434
0.892431
0.892428
0.892425
0.892425
0.892423
0.89242
0.892417
0.892414
0.892414
0.892411
0.892409
0.892406
0.892403
0.892403
0.8924
0.892398
0.892395
0.892392
0.892392
0.892389
0.892387
0.892384
0.892381
0.892381
0.892378
0.892376
0.892373
0.89237
0.89237
0.892367
0.892364
0.892362
0.892359
0.892359
0.892356
0.892353
0.892351
0.892348
0.892348
0.892345
0.892342
0.892339
0.892337
0.892337
0.892334
0.892331
0.892328
0.892325
0.892325
0.892323
0.89232
0.892317
0.892314
0.892314
0.892312
0.892309
0.892306
0.892303
0.892303
0.8923
0.892298
0.892295
0.892292
0.892292
0.892289
0.892286
0.892283
0.892281
0.892281
0.892278
0.892275
0.892272
0.892269
0.892269
0.892267
0.892264
0.892261
0.892258
0.892258
0.892255
0.892253
0.89225
0.892247
0.892247
0.892244
0.892241
0.892238
0.892236
0.892236
0.892233
0.89223
0.892227
0.892224
0.892224
0.892221
0.892219
0.892216
0.892213
0.892213
0.89221
0.892207
0.892204
0.892202
0.892202
0.892199
0.892196
0.892193
0.89219
0.89219
0.892187
0.892184
0.892182
0.892179
0.892179
0.892176
0.892173
0.89217
0.892167
0.892167
0.892164
0.892162
0.892159
0.892156
0.892156
0.892153
0.89215
0.892147
0.892144
0.892144
0.892142
0.892139
0.892136
0.892133
0.892133
0.89213
0.892127
0.892124
0.892122
0.892122
0.892119
0.892116
0.892113
0.89211
0.89211
0.892107
0.892104
0.892101
0.892099
0.892099
0.892096
0.892093
0.89209
0.892087
0.892087
0.892084
0.892081
0.892078
0.892075
0.892075
0.892073
0.89207
0.892067
0.892064
0.892064
0.892061
0.892058
0.892055
0.892052
0.892052
0.892049
0.892046
0.892044
0.892041
0.892041
0.892038
0.892035
0.892032
0.892029
0.892029
0.892026
0.892023
0.89202
0.892017
0.892017
0.892014
0.892011
0.892009
0.892006
0.892006
0.892003
0.892
0.891997
0.891994
0.891994
0.891991
0.891988
0.891985
0.891982
0.891982
0.891979
0.891976
0.891973
0.89197
0.89197
0.891967
0.891964
0.891961
0.891958
0.891958
0.891955
0.891952
0.891949
0.891946
0.891946
0.891943
0.89194
0.891937
0.891934
0.891934
0.891931
0.891928
0.891925
0.891922
0.891922
0.891919
0.891916
0.891913
0.89191
0.89191
0.891907
0.891904
0.891901
0.891898
0.891898
0.891895
0.891892
0.891889
0.891885
0.891885
0.891882
0.891879
0.891876
0.891873
0.891873
0.89187
0.891867
0.891864
0.891861
0.891861
0.891858
0.891855
0.891851
0.891848
0.891848
0.891845
0.891842
0.891839
0.891836
0.891836
0.891833
0.89183
0.891826
0.891823
0.891823
0.89182
0.891817
0.891814
0.891811
0.891811
0.891807
0.891804
0.891801
0.891798
0.891798
0.891795
0.891791
0.891788
0.891785
0.891785
0.891782
0.891779
0.891775
0.891772
0.891772
0.891769
0.891766
0.891762
0.891759
0.891759
0.891756
0.891753
0.89175
0.891746
0.891746
0.891743
0.89174
0.891737
0.891733
0.891733
0.89173
0.891727
0.891724
0.89172
0.89172
0.891717
0.891714
0.891711
0.891707
0.891707
0.891704
0.891701
0.891698
0.891694
0.891694
0.891691
0.891688
0.891685
0.891681
0.891681
0.891678
0.891675
0.891672
0.891668
0.891668
0.891665
0.891662
0.891659
0.891655
0.891655
0.891652
0.891649
0.891646
0.891642
0.891642
0.891639
0.891636
0.891632
0.891629
0.891629
0.891626
0.891623
0.891619
0.891616
0.891616
0.891613
0.89161
0.891606
0.891603
0.891603
0.8916
0.891596
0.891593
0.89159
0.89159
0.891587
0.891583
0.89158
0.891577
0.891577
0.891573
0.89157
0.891567
0.891564
0.891564
0.89156
0.891557
0.891554
0.89155
0.89155
0.891547
0.891544
0.89154
0.891537
0.891537
0.891534
0.891531
0.891527
0.891524
0.891524
0.891521
0.891517
0.891514
0.891511
0.891511
0.891507
0.891504
0.891501
0.891497
0.891497
0.891494
0.891491
0.891487
0.891484
0.891484
0.891481
0.891477
0.891474
0.891471
0.891471
0.891468
0.891464
0.891461
0.891458
0.891458
0.891454
0.891451
0.891448
0.891444
0.891444
0.891441
0.891438
0.891434
0.891431
0.891431
0.891428
0.891424
0.891421
0.891418
0.891418
0.891414
0.891411
0.891407
0.891404
0.891404
0.891401
0.891397
0.891394
0.891391
0.891391
0.891387
0.891384
0.891381
0.891377
0.891377
0.891374
0.891371
0.891367
0.891364
0.891364
0.891361
0.891357
0.891354
0.89135
0.89135
0.891347
0.891344
0.89134
0.891337
0.891337
0.891334
0.89133
0.891327
0.891324
0.891324
0.89132
0.891317
0.891313
0.89131
0.89131
0.891307
0.891303
0.8913
0.891297
0.891297
0.891293
0.89129
0.891286
0.891283
0.891283
0.89128
0.891276
0.891273
0.89127
0.89127
0.891266
0.891263
0.891259
0.891256
0.891256
0.891253
0.891249
0.891246
0.891242
0.891242
0.891239
0.891236
0.891232
0.891229
0.891229
0.891225
0.891222
0.891219
0.891215
0.891215
0.891212
0.891208
0.891205
0.891202
0.891202
0.891198
0.891195
0.891191
0.891188
0.891188
0.891185
0.891181
0.891178
0.891174
0.891174
0.891171
0.891168
0.891164
0.891161
0.891161
0.891157
0.891154
0.89115
0.891147
0.891147
0.891144
0.89114
0.891137
0.891133
0.891133
0.89113
0.891127
0.891123
0.89112
0.89112
0.891116
0.891113
0.891109
0.891106
0.891106
0.891103
0.891099
0.891096
0.891092
0.891092
0.891089
0.891085
0.891082
0.891078
0.891078
0.891075
0.891072
0.891068
0.891065
0.891065
0.891061
0.891058
0.891054
0.891051
0.891051
0.891048
0.891044
0.891041
0.891037
0.891037
0.891034
0.89103
0.891027
0.891023
0.891023
0.89102
0.891016
0.891013
0.89101
0.89101
0.891006
0.891003
0.890999
0.890996
0.890996
0.890992
0.890989
0.890985
0.890982
0.890982
0.890978
0.890975
0.890971
0.890968
0.890968
0.890964
0.890961
0.890957
0.890954
0.890954
0.89095
0.890947
0.890943
0.89094
0.89094
0.890936
0.890933
0.890929
0.890926
0.890926
0.890922
0.890919
0.890915
0.890912
0.890912
0.890908
0.890905
0.890901
0.890897
0.890897
0.890894
0.89089
0.890887
0.890883
0.890883
0.89088
0.890876
0.890872
0.890869
0.890869
0.890865
0.890862
0.890858
0.890854
0.890854
0.890851
0.890847
0.890843
0.89084
0.89084
0.890836
0.890833
0.890829
0.890825
0.890825
0.890822
0.890818
0.890814
0.890811
0.890811
0.890807
0.890803
0.8908
0.890796
0.890796
0.890792
0.890789
0.890785
0.890781
0.890781
0.890778
0.890774
0.89077
0.890767
0.890767
0.890763
0.890759
0.890755
0.890752
0.890752
0.890748
0.890744
0.890741
0.890737
0.890737
0.890733
0.890729
0.890726
0.890722
0.890722
0.890718
0.890714
0.89071
0.890707
0.890707
0.890703
0.890699
0.890695
0.890692
0.890692
0.890688
0.890684
0.89068
0.890677
0.890677
0.890673
0.890669
0.890665
0.890661
0.890661
0.890658
0.890654
0.89065
0.890646
0.890646
0.890642
0.890639
0.890635
0.890631
0.890631
0.890627
0.890623
0.89062
0.890616
0.890616
0.890612
0.890608
0.890604
0.890601
0.890601
0.890597
0.890593
0.890589
0.890585
0.890585
0.890581
0.890578
0.890574
0.89057
0.89057
0.890566
0.890562
0.890559
0.890555
0.890555
0.890551
0.890547
0.890543
0.890539
0.890539
0.890536
0.890532
0.890528
0.890524
0.890524
0.89052
0.890516
0.890513
0.890509
0.890509
0.890505
0.890501
0.890497
0.890493
0.890493
0.89049
0.890486
0.890482
0.890478
0.890478
0.890474
0.89047
0.890467
0.890463
0.890463
0.890459
0.890455
0.890451
0.890447
0.890447
0.890444
0.89044
0.890436
0.890432
0.890432
0.890428
0.890424
0.89042
0.890417
0.890417
0.890413
0.890409
0.890405
0.890401
0.890401
0.890397
0.890393
0.89039
0.890386
0.890386
0.890382
0.890378
0.890374
0.89037
0.89037
0.890366
0.890363
0.890359
0.890355
0.890355
0.890351
0.890347
0.890343
0.890339
0.890339
0.890335
0.890332
0.890328
0.890324
0.890324
0.89032
0.890316
0.890312
0.890308
0.890308
0.890304
0.890301
0.890297
0.890293
0.890293
0.890289
0.890285
0.890281
0.890277
0.890277
0.890273
0.89027
0.890266
0.890262
0.890262
0.890258
0.890254
0.89025
0.890246
0.890246
0.890242
0.890238
0.890235
0.890231
0.890231
0.890227
0.890223
0.890219
0.890215
0.890215
0.890211
0.890207
0.890203
0.890199
0.890199
0.890196
0.890192
0.890188
0.890184
0.890184
0.89018
0.890176
0.890172
0.890168
0.890168
0.890164
0.89016
0.890156
0.890153
0.890153
0.890149
0.890145
0.890141
0.890137
0.890137
0.890133
0.890129
0.890125
0.890121
0.890121
0.890117
0.890113
0.89011
0.890106
0.890106
0.890102
0.890098
0.890094
0.89009
0.89009
0.890086
0.890082
0.890078
0.890074
0.890074
0.89007
0.890066
0.890062
0.890059
0.890059
0.890055
0.890051
0.890047
0.890043
0.890043
0.890039
0.890035
0.890031
0.890027
0.890027
0.890023
0.890019
0.890015
0.890011
0.890011
0.890007
0.890003
0.889999
0.889996
0.889996
0.889992
0.889988
0.889984
0.88998
0.88998
0.889976
0.889972
0.889968
0.889964
0.889964
0.88996
0.889956
0.889952
0.889948
0.889948
0.889944
0.88994
0.889936
0.889932
0.889932
0.889928
0.889924
0.88992
0.889916
0.889916
0.889912
0.889908
0.889904
0.8899
0.8899
0.889896
0.889892
0.889888
0.889884
0.889884
0.88988
0.889876
0.889872
0.889868
0.889868
0.889864
0.88986
0.889856
0.889852
0.889852
0.889848
0.889844
0.88984
0.889836
0.889836
0.889831
0.889827
0.889823
0.889819
0.889819
0.889815
0.889811
0.889807
0.889803
0.889803
0.889799
0.889794
0.88979
0.889786
0.889786
0.889782
0.889778
0.889774
0.88977
0.88977
0.889766
0.889762
0.889757
0.889753
0.889753
0.889749
0.889745
0.889741
0.889737
0.889737
0.889733
0.889728
0.889724
0.88972
0.88972
0.889716
0.889712
0.889707
0.889703
0.889703
0.889699
0.889695
0.889691
0.889686
0.889686
0.889682
0.889678
0.889674
0.889669
0.889669
0.889665
0.889661
0.889657
0.889652
0.889652
0.889648
0.889644
0.88964
0.889635
0.889635
0.889631
0.889627
0.889623
0.889618
0.889618
0.889614
0.88961
0.889606
0.889601
0.889601
0.889597
0.889593
0.889588
0.889584
0.889584
0.88958
0.889576
0.889571
0.889567
0.889567
0.889563
0.889558
0.889554
0.88955
0.88955
0.889546
0.889541
0.889537
0.889533
0.889533
0.889528
0.889524
0.88952
0.889516
0.889516
0.889511
0.889507
0.889503
0.889498
0.889498
0.889494
0.88949
0.889485
0.889481
0.889481
0.889477
0.889472
0.889468
0.889464
0.889464
0.88946
0.889455
0.889451
0.889447
0.889447
0.889442
0.889438
0.889434
0.889429
0.889429
0.889425
0.889421
0.889416
0.889412
0.889412
0.889408
0.889404
0.889399
0.889395
0.889395
0.889391
0.889386
0.889382
0.889378
0.889378
0.889373
0.889369
0.889365
0.88936
0.88936
0.889356
0.889352
0.889347
0.889343
0.889343
0.889339
0.889334
0.88933
0.889326
0.889326
0.889321
0.889317
0.889313
0.889308
0.889308
0.889304
0.8893
0.889295
0.889291
0.889291
0.889287
0.889282
0.889278
0.889274
0.889274
0.889269
0.889265
0.889261
0.889256
0.889256
0.889252
0.889248
0.889243
0.889239
0.889239
0.889235
0.88923
0.889226
0.889222
0.889222
0.889217
0.889213
0.889209
0.889204
0.889204
0.8892
0.889195
0.889191
0.889187
0.889187
0.889182
0.889178
0.889174
0.889169
0.889169
0.889165
0.889161
0.889156
0.889152
0.889152
0.889148
0.889143
0.889139
0.889134
0.889134
0.88913
0.889126
0.889121
0.889117
0.889117
0.889113
0.889108
0.889104
0.8891
0.8891
0.889095
0.889091
0.889086
0.889082
0.889082
0.889078
0.889073
0.889069
0.889065
0.889065
0.88906
0.889056
0.889052
0.889047
0.889047
0.889043
0.889038
0.889034
0.88903
0.88903
0.889025
0.889021
0.889017
0.889012
0.889012
0.889008
0.889003
0.888999
0.888995
0.888995
0.88899
0.888986
0.888981
0.888977
0.888977
0.888973
0.888968
0.888964
0.888959
0.888959
0.888955
0.888951
0.888946
0.888942
0.888942
0.888937
0.888933
0.888929
0.888924
0.888924
0.88892
0.888915
0.888911
0.888907
0.888907
0.888902
0.888898
0.888893
0.888889
0.888889
0.888884
0.88888
0.888876
0.888871
0.888871
0.888867
0.888862
0.888858
0.888853
0.888853
0.888849
0.888844
0.88884
0.888835
0.888835
0.888831
0.888826
0.888822
0.888817
0.888817
0.888813
0.888808
0.888804
0.888799
0.888799
0.888795
0.88879
0.888786
0.888781
0.888781
0.888776
0.888772
0.888767
0.888763