<?xml version="1.0"?>
<VTKFile type="UnstructuredGrid" version="0.1" byte_order="LittleEndian">
<UnstructuredGrid>
<Piece NumberOfPoints="5000" NumberOfCells="4000">
<PointData Scalars="Reaction 0">
<DataArray type="Float32" Name="Reaction 0" format="ascii">
0.328357
0.328357
0.328358
0.328358
0.328358
0.328358
0.328358
0.328358
0.328358
0.328358
0.328358
0.328359
0.328359
0.328359
0.32836
0.32836
0.32836
0.32836
0.328361
0.328361
0.328361
0.328362
0.328362
0.328363
0.328364
0.328364
0.328364
0.328365
0.328366
0.328366
0.328366
0.328367
0.328368
0.328369
0.32837
0.32837
0.32837
0.328371
0.328372
0.328373
0.328373
0.328374
0.328375
0.328376
0.328378
0.328378
0.328379
0.32838
0.328381
0.328382
0.328382
0.328383
0.328385
0.328386
0.328387
0.328387
0.328389
0.32839
0.328392
0.328393
0.328393
0.328395
0.328396
0.328398
0.328399
0.328399
0.328401
0.328403
0.328404
0.328406
0.328406
0.328408
0.32841
0.328411
0.328413
0.328413
0.328415
0.328417
0.328419
0.328421
0.328421
0.328423
0.328425
0.328427
0.328429
0.328429
0.328431
0.328433
0.328436
0.328438
0.328438
0.32844
0.328442
0.328445
0.328447
0.328447
0.328449
0.328452
0.328454
0.328457
0.328457
0.328459
0.328462
0.328464
0.328467
0.328467
0.328469
0.328472
0.328475
0.328477
0.328477
0.32848
0.328483
0.328486
0.328489
0.328489
0.328491
0.328494
0.328497
0.3285
0.3285
0.328503
0.328506
0.328509
0.328512
0.328512
0.328516
0.328519
0.328522
0.328525
0.328525
0.328528
0.328532
0.328535
0.328538
0.328538
0.328542
0.328545
0.328548
0.328552
0.328552
0.328555
0.328559
0.328562
0.328566
0.328566
0.32857
0.328573
0.328577
0.328581
0.328581
0.328584
0.328588
0.328592
0.328596
0.328596
0.3286
0.328603
0.328607
0.328611
0.328611
0.328615
0.328619
0.328623
0.328627
0.328627
0.328632
0.328636
0.32864
0.328644
0.328644
0.328648
0.328653
0.328657
0.328661
0.328661
0.328665
0.32867
0.328674
0.328679
0.328679
0.328683
0.328688
0.328692
0.328697
0.328697
0.328701
0.328706
0.328711
0.328715
0.328715
0.32872
0.328725
0.32873
0.328735
0.328735
0.328739
0.328744
0.328749
0.328754
0.328754
0.328759
0.328764
0.328769
0.328774
0.328774
0.328779
0.328784
0.32879
0.328795
0.328795
0.3288
0.328805
0.32881
0.328816
0.328816
0.328821
0.328827
0.328832
0.328837
0.328837
0.328843
0.328848
0.328854
0.328859
0.328859
0.328865
0.328871
0.328876
0.328882
0.328882
0.328888
0.328893
0.328899
0.328905
0.328905
0.328911
0.328917
0.328923
0.328929
0.328929
0.328935
0.328941
0.328947
0.328953
0.328953
0.328959
0.328965
0.328971
0.328977
0.328977
0.328983
0.32899
0.328996
0.329002
0.329002
0.329009
0.329015
0.329021
0.329028
0.329028
0.329034
0.329041
0.329047
0.329054
0.329054
0.32906
0.329067
0.329074
0.32908
0.32908
0.329087
0.329094
0.3291
0.329107
0.329107
0.329114
0.329121
0.329128
0.329135
0.329135
0.329142
0.329149
0.329156
0.329163
0.329163
0.32917
0.329177
0.329184
0.329191
0.329191
0.329198
0.329206
0.329213
0.32922
0.32922
0.329228
0.329235
0.329242
0.32925
0.32925
0.329257
0.329265
0.329272
0.32928
0.32928
0.329287
0.329295
0.329303
0.32931
0.32931
0.329318
0.329326
0.329333
0.329341
0.329341
0.329349
0.329357
0.329365
0.329373
0.329373
0.329381
0.329389
0.329397
0.329405
0.329405
0.329413
0.329421
0.329429
0.329437
0.329437
0.329445
0.329454
0.329462
0.32947
0.32947
0.329478
0.329487
0.329495
0.329504
0.329504
0.329512
0.32952
0.329529
0.329537
0.329537
0.329546
0.329555
0.329563
0.329572
0.329572
0.329581
0.329589
0.329598
0.329607
0.329607
0.329616
0.329624
0.329633
0.329642
0.329642
0.329651
0.32966
0.329669
0.329678
0.329678
0.329687
0.329696
0.329705
0.329715
0.329715
0.329724
0.329733
0.329742
0.329752
0.329752
0.329761
0.32977
0.32978
0.329789
0.329789
0.329798
0.329808
0.329817
0.329827
0.329827
0.329836
0.329846
0.329856
0.329865
0.329865
0.329875
0.329885
0.329894
0.329904
0.329904
0.329914
0.329924
0.329934
0.329944
0.329944
0.329953
0.329963
0.329973
0.329983
0.329983
0.329993
0.330004
0.330014
0.330024
0.330024
0.330034
0.330044
0.330054
0.330065
0.330065
0.330075
0.330085
0.330096
0.330106
0.330106
0.330116
0.330127
0.330137
0.330148
0.330148
0.330158
0.330169
0.33018
0.33019
0.33019
0.330201
0.330212
0.330222
0.330233
0.330233
0.330244
0.330255
0.330266
0.330276
0.330276
0.330287
0.330298
0.330309
0.33032
0.33032
0.330331
0.330342
0.330353
0.330365
0.330365
0.330376
0.330387
0.330398
0.330409
0.330409
0.330421
0.330432
0.330443
0.330455
0.330455
0.330466
0.330478
0.330489
0.330501
0.330501
0.330512
0.330524
0.330535
0.330547
0.330547
0.330559
0.33057
0.330582
0.330594
0.330594
0.330605
0.330617
0.330629
0.330641
0.330641
0.330653
0.330665
0.330677
0.330689
0.330689
0.330701
0.330713
0.330725
0.330737
0.330737
0.330749
0.330761
0.330774
0.330786
0.330786
0.330798
0.33081
0.330823
0.330835
0.330835
0.330848
0.33086
0.330872
0.330885
0.330885
0.330897
0.33091
0.330923
0.330935
0.330935
0.330948
0.330961
0.330973
0.330986
0.330986
0.330999
0.331012
0.331024
0.331037
0.331037
0.33105
0.331063
0.331076
0.331089
0.331089
0.331102
0.331115
0.331128
0.331141
0.331141
0.331154
0.331168
0.331181
0.331194
0.331194
0.331207
0.33122
0.331234
0.331247
0.331247
0.331261
0.331274
0.331287
0.331301
0.331301
0.331314
0.331328
0.331342
0.331355
0.331355
0.331369
0.331382
0.331396
0.33141
0.33141
0.331424
0.331437
0.331451
0.331465
0.331465
0.331479
0.331493
0.331507
0.331521
0.331521
0.331535
0.331549
0.331563
0.331577
0.331577
0.331591
0.331605
0.331619
0.331634
0.331634
0.331648
0.331662
0.331676
0.331691
0.331691
0.331705
0.33172
0.331734
0.331748
0.331748
0.331763
0.331777
0.331792
0.331807
0.331807
0.331821
0.331836
0.331851
0.331865
0.331865
0.33188
0.331895
0.33191
0.331924
0.331924
0.331939
0.331954
0.331969
0.331984
0.331984
0.331999
0.332014
0.332029
0.332044
0.332044
0.332059
0.332074
0.33209
0.332105
0.332105
0.33212
0.332135
0.332151
0.332166
0.332166
0.332181
0.332197
0.332212
0.332228
0.332228
0.332243
0.332259
0.332274
0.33229
0.33229
0.332305
0.332321
0.332337
0.332352
0.332352
0.332368
0.332384
0.3324
0.332415
0.332415
0.332431
0.332447
0.332463
0.332479
0.332479
0.332495
0.332511
0.332527
0.332543
0.332543
0.332559
0.332575
0.332591
0.332608
0.332608
0.332624
0.33264
0.332656
0.332673
0.332673
0.332689
0.332705
0.332722
0.332738
0.332738
0.332755
0.332771
0.332788
0.332804
0.332804
0.332821
0.332838
0.332854
0.332871
0.332871
0.332888
0.332904
0.332921
0.332938
0.332938
0.332955
0.332972
0.332989
0.333005
0.333005
0.333022
0.333039
0.333056
0.333073
0.333073
0.333091
0.333108
0.333125
0.333142
0.333142
0.333159
0.333176
0.333194
0.333211
0.333211
0.333228
0.333246
0.333263
0.333281
0.333281
0.333298
0.333315
0.333333
0.333351
0.333351
0.333368
0.333386
0.333403
0.333421
0.333421
0.333439
0.333456
0.333474
0.333492
0.333492
0.33351
0.333528
0.333546
0.333563
0.333563
0.333581
0.333599
0.333617
0.333635
0.333635
0.333653
0.333672
0.33369
0.333708
0.333708
0.333726
0.333744
0.333763
0.333781
0.333781
0.333799
0.333817
0.333836
0.333854
0.333854
0.333873
0.333891
0.33391
0.333928
0.333928
0.333947
0.333965
0.333984
0.334003
0.334003
0.334021
0.33404
0.334059
0.334078
0.334078
0.334096
0.334115
0.334134
0.334153
0.334153
0.334172
0.334191
0.33421
0.334229
0.334229
0.334248
0.334267
0.334286
0.334305
0.334305
0.334324
0.334344
0.334363
0.334382
0.334382
0.334401
0.334421
0.33444
0.334459
0.334459
0.334479
0.334498
0.334518
0.334537
0.334537
0.334557
0.334576
0.334596
0.334616
0.334616
0.334635
0.334655
0.334675
0.334695
0.334695
0.334714
0.334734
0.334754
0.334774
0.334774
0.334794
0.334814
0.334834
0.334854
0.334854
0.334874
0.334894
0.334914
0.334934
0.334934
0.334954
0.334974
0.334995
0.335015
0.335015
0.335035
0.335055
0.335076
0.335096
0.335096
0.335117
0.335137
0.335157
0.335178
0.335178
0.335198
0.335219
0.33524
0.33526
0.33526
0.335281
0.335302
0.335322
0.335343
0.335343
0.335364
0.335385
0.335405
0.335426
0.335426
0.335447
0.335468
0.335489
0.33551
0.33551
0.335531
0.335552
0.335573
0.335594
0.335594
0.335615
0.335637
0.335658
0.335679
0.335679
0.3357
0.335722
0.335743
0.335764
0.335764
0.335786
0.335807
0.335829
0.33585
0.33585
0.335871
0.335893
0.335915
0.335936
0.335936
0.335958
0.335979
0.336001
0.336023
0.336023
0.336045
0.336066
0.336088
0.33611
0.33611
0.336132
0.336154
0.336176
0.336198
0.336198
0.33622
0.336242
0.336264
0.336286
0.336286
0.336308
0.33633
0.336352
0.336375
0.336375
0.336397
0.336419
0.336441
0.336464
0.336464
0.336486
0.336509
0.336531
0.336553
0.336553
0.336576
0.336598
0.336621
0.336644
0.336644
0.336666
0.336689
0.336711
0.336734
0.336734
0.336757
0.33678
0.336802
0.336825
0.336825
0.336848
0.336871
0.336894
0.336917
0.336917
0.33694
0.336963
0.336986
0.337009
0.337009
0.337032
0.337055
0.337078
0.337102
0.337102
0.337125
0.337148
0.337171
0.337195
0.337195
0.337218
0.337241
0.337265
0.337288
0.337288
0.337312
0.337335
0.337359
0.337382
0.337382
0.337406
0.337429
0.337453
0.337477
0.337477
0.337501
0.337524
0.337548
0.337572
0.337572
0.337596
0.33762
0.337643
0.337667
0.337667
0.337691
0.337715
0.337739
0.337763
0.337763
0.337787
0.337812
0.337836
0.33786
0.33786
0.337884
0.337908
0.337933
0.337957
0.337957
0.337981
0.338006
0.33803
0.338054
0.338054
0.338079
0.338103
0.338128
0.338152
0.338152
0.338177
0.338201
0.338226
0.338251
0.338251
0.338275
0.3383
0.338325
0.33835
0.33835
0.338374
0.338399
0.338424
0.338449
0.338449
0.338474
0.338499
0.338524
0.338549
0.338549
0.338574
0.338599
0.338624
0.338649
0.338649
0.338675
0.3387
0.338725
0.33875
0.33875
0.338776
0.338801
0.338826
0.338852
0.338852
0.338877
0.338903
0.338928
0.338954
0.338954
0.338979
0.339005
0.33903
0.339056
0.339056
0.339082
0.339107
0.339133
0.339159
0.339159
0.339185
0.33921
0.339236
0.339262
0.339262
0.339288
0.339314
0.33934
0.339366
0.339366
0.339392
0.339418
0.339444
0.33947
0.33947
0.339496
0.339523
0.339549
0.339575
0.339575
0.339601
0.339628
0.339654
0.33968
0.33968
0.339707
0.339733
0.33976
0.339786
0.339786
0.339813
0.339839
0.339866
0.339892
0.339892
0.339919
0.339946
0.339972
0.339999
0.339999
0.340026
0.340053
0.34008
0.340106
0.340106
0.340133
0.34016
0.340187
0.340214
0.340214
0.340241
0.340268
0.340295
0.340322
0.340322
0.34035
0.340377
0.340404
0.340431
0.340431
0.340458
0.340486
0.340513
0.34054
0.34054
0.340568
0.340595
0.340622
0.34065
0.34065
0.340677
0.340705
0.340733
0.34076
0.34076
0.340788
0.340815
0.340843
0.340871
0.340871
0.340899
0.340926
0.340954
0.340982
0.340982
0.34101
0.341038
0.341066
0.341094
0.341094
0.341122
0.34115
0.341178
0.341206
0.341206
0.341234
0.341262
0.34129
0.341318
0.341318
0.341346
0.341375
0.341403
0.341431
0.341431
0.34146
0.341488
0.341516
0.341545
0.341545
0.341573
0.341602
0.34163
0.341659
0.341659
0.341688
0.341716
0.341745
0.341774
0.341774
0.341802
0.341831
0.34186
0.341889
0.341889
0.341917
0.341946
0.341975
0.342004
0.342004
0.342033
0.342062
0.342091
0.34212
0.34212
0.342149
0.342178
0.342207
0.342237
0.342237
0.342266
0.342295
0.342324
0.342354
0.342354
0.342383
0.342412
0.342442
0.342471
0.342471
0.3425
0.34253
0.342559
0.342589
0.342589
0.342619
0.342648
0.342678
0.342707
0.342707
0.342737
0.342767
0.342797
0.342826
0.342826
0.342856
0.342886
0.342916
0.342946
0.342946
0.342976
0.343006
0.343036
0.343066
0.343066
0.343096
0.343126
0.343156
0.343186
0.343186
0.343216
0.343246
0.343277
0.343307
0.343307
0.343337
0.343367
0.343398
0.343428
0.343428
0.343459
0.343489
0.343519
0.34355
0.34355
0.343581
0.343611
0.343642
0.343672
0.343672
0.343703
0.343734
0.343764
0.343795
0.343795
0.343826
0.343857
0.343888
0.343918
0.343918
0.343949
0.34398
0.344011
0.344042
0.344042
0.344073
0.344104
0.344135
0.344166
0.344166
0.344198
0.344229
0.34426
0.344291
0.344291
0.344322
0.344354
0.344385
0.344416
0.344416
0.344448
0.344479
0.344511
0.344542
0.344542
0.344574
0.344605
0.344637
0.344668
0.344668
0.3447
0.344732
0.344763
0.344795
0.344795
0.344827
0.344859
0.34489
0.344922
0.344922
0.344954
0.344986
0.345018
0.34505
0.34505
0.345082
0.345114
0.345146
0.345178
0.345178
0.34521
0.345242
0.345274
0.345307
0.345307
0.345339
0.345371
0.345403
0.345436
0.345436
0.345468
0.3455
0.345533
0.345565
0.345565
0.345598
0.34563
0.345663
0.345695
0.345695
0.345728
0.34576
0.345793
0.345826
0.345826
0.345859
0.345891
0.345924
0.345957
0.345957
0.34599
0.346023
0.346055
0.346088
0.346088
0.346121
0.346154
0.346187
0.34622
0.34622
0.346253
0.346287
0.34632
0.346353
0.346353
0.346386
0.346419
0.346453
0.346486
0.346486
0.346519
0.346552
0.346586
0.346619
0.346619
0.346653
0.346686
0.34672
0.346753
0.346753
0.346787
0.34682
0.346854
0.346888
0.346888
0.346921
0.346955
0.346989
0.347023
0.347023
0.347056
0.34709
0.347124
0.347158
0.347158
0.347192
0.347226
0.34726
0.347294
0.347294
0.347328
0.347362
0.347396
0.34743
0.34743
0.347464
0.347498
0.347533
0.347567
0.347567
0.347601
0.347636
0.34767
0.347704
0.347704
0.347739
0.347773
0.347808
0.347842
0.347842
0.347877
0.347911
0.347946
0.34798
0.34798
0.348015
0.34805
0.348084
0.348119
0.348119
0.348154
0.348189
0.348223
0.348258
0.348258
0.348293
0.348328
0.348363
0.348398
0.348398
0.348433
0.348468
0.348503
0.348538
0.348538
0.348573
0.348608
0.348644
0.348679
0.348679
0.348714
0.348749
0.348785
0.34882
0.34882
0.348855
0.348891
0.348926
0.348962
0.348962
0.348997
0.349033
0.349068
0.349104
0.349104
0.349139
0.349175
0.349211
0.349246
0.349246
0.349282
0.349318
0.349354
0.349389
0.349389
0.349425
0.349461
0.349497
0.349533
0.349533
0.349569
0.349605
0.349641
0.349677
0.349677
0.349713
0.349749
0.349785
0.349822
0.349822
0.349858
0.349894
0.34993
0.349967
0.349967
0.350003
0.350039
0.350076
0.350112
0.350112
0.350149
0.350185
0.350222
0.350258
0.350258
0.350295
0.350331
0.350368
0.350405
0.350405
0.350441
0.350478
0.350515
0.350551
0.350551
0.350588
0.350625
0.350662
0.350699
0.350699
0.350736
0.350773
0.35081
0.350847
0.350847
0.350884
0.350921
0.350958
0.350995
0.350995
0.351032
0.35107
0.351107
0.351144
0.351144
0.351181
0.351219
0.351256
0.351293
0.351293
0.351331
0.351368
0.351406
0.351443
0.351443
0.351481
0.351518
0.351556
0.351593
0.351593
0.351631
0.351669
0.351706
0.351744
0.351744
0.351782
0.35182
0.351858
0.351895
0.351895
0.351933
0.351971
0.352009
0.352047
0.352047
0.352085
0.352123
0.352161
0.352199
0.352199
0.352237
0.352276
0.352314
0.352352
0.352352
0.35239
0.352429
0.352467
0.352505
0.352505
0.352544
0.352582
0.35262
0.352659
0.352659
0.352697
0.352736
0.352774
0.352813
0.352813
0.352852
0.35289
0.352929
0.352968
0.352968
0.353006
0.353045
0.353084
0.353123
0.353123
0.353161
0.3532
0.353239
0.353278
0.353278
0.353317
0.353356
0.353395
0.353434
0.353434
0.353473
0.353512
0.353552
0.353591
0.353591
0.35363
0.353669
0.353708
0.353748
0.353748
0.353787
0.353826
0.353866
0.353905
0.353905
0.353945
0.353984
0.354024
0.354063
0.354063
0.354103
0.354142
0.354182
0.354222
0.354222
0.354261
0.354301
0.354341
0.35438
0.35438
0.35442
0.35446
0.3545
0.35454
0.35454
0.35458
0.35462
0.35466
0.3547
0.3547
0.35474
0.35478
0.35482
0.35486
0.35486
0.3549
0.35494
0.354981
0.355021
0.355021
0.355061
0.355101
0.355142
0.355182
0.355182
0.355223
0.355263
0.355303
0.355344
0.355344
0.355384
0.355425
0.355466
0.355506
0.355506
0.355547
0.355587
0.355628
0.355669
0.355669
0.35571
0.35575
0.355791
0.355832
0.355832
0.355873
0.355914
0.355955
0.355996
0.355996
0.356037
0.356078
0.356119
0.35616
0.35616
0.356201
0.356242
0.356283
0.356324
0.356324
0.356366
0.356407
0.356448
0.35649
0.35649
0.356531
0.356572
0.356614
0.356655
0.356655
0.356697
0.356738
0.35678
0.356821
0.356821
0.356863
0.356904
0.356946
0.356988
0.356988
0.357029
0.357071
0.357113
0.357155
0.357155
0.357196
0.357238
0.35728
0.357322
0.357322
0.357364
0.357406
0.357448
0.35749
0.35749
0.357532
0.357574
0.357616
0.357659
0.357659
0.357701
0.357743
0.357785
0.357827
0.357827
0.35787
0.357912
0.357954
0.357997
0.357997
0.358039
0.358082
0.358124
0.358167
0.358167
0.358209
0.358252
0.358294
0.358337
0.358337
0.35838
0.358422
0.358465
0.358508
0.358508
0.358551
0.358593
0.358636
0.358679
0.358679
0.358722
0.358765
0.358808
0.358851
0.358851
0.358894
0.358937
0.35898
0.359023
0.359023
0.359066
0.359109
0.359152
0.359196
0.359196
0.359239
0.359282
0.359326
0.359369
0.359369
0.359412
0.359456
0.359499
0.359542
0.359542
0.359586
0.359629
0.359673
0.359717
0.359717
0.35976
0.359804
0.359847
0.359891
0.359891
0.359935
0.359979
0.360022
0.360066
0.360066
0.36011
0.360154
0.360198
0.360242
0.360242
0.360286
0.36033
0.360374
0.360418
0.360418
0.360462
0.360506
0.36055
0.360594
0.360594
0.360638
0.360683
0.360727
0.360771
0.360771
0.360816
0.36086
0.360904
0.360949
0.360949
0.360993
0.361038
0.361082
0.361127
0.361127
0.361171
0.361216
0.36126
0.361305
0.361305
0.36135
0.361394
0.361439
0.361484
0.361484
0.361529
0.361573
0.361618
0.361663
0.361663
0.361708
0.361753
0.361798
0.361843
0.361843
0.361888
0.361933
0.361978
0.362023
0.362023
0.362068
0.362113
0.362159
0.362204
0.362204
0.362249
0.362294
0.36234
0.362385
0.362385
0.36243
0.362476
0.362521
0.362567
0.362567
0.362612
0.362658
0.362703
0.362749
0.362749
0.362794
0.36284
0.362886
0.362932
0.362932
0.362977
0.363023
0.363069
0.363115
0.363115
0.36316
0.363206
0.363252
0.363298
0.363298
0.363344
0.36339
0.363436
0.363482
0.363482
0.363528
0.363574
0.363621
0.363667
0.363667
0.363713
0.363759
0.363805
0.363852
0.363852
0.363898
0.363944
0.363991
0.364037
0.364037
0.364084
0.36413
0.364176
0.364223
0.364223
0.36427
0.364316
0.364363
0.364409
0.364409
0.364456
0.364503
0.364549
0.364596
0.364596
0.364643
0.36469
0.364737
0.364784
0.364784
0.36483
0.364877
0.364924
0.364971
0.364971
0.365018
0.365065
0.365113
0.36516
0.36516
0.365207
0.365254
0.365301
0.365348
0.365348
0.365396
0.365443
0.36549
0.365538
0.365538
0.365585
0.365632
0.36568
0.365727
0.365727
0.365775
0.365822
0.36587
0.365917
0.365917
0.365965
0.366013
0.36606
0.366108
0.366108
0.366156
0.366203
0.366251
0.366299
0.366299
0.366347
0.366395
0.366443
0.366491
0.366491
0.366539
0.366587
0.366635
0.366683
0.366683
0.366731
0.366779
0.366827
0.366875
0.366875
0.366923
0.366972
0.36702
0.367068
0.367068
0.367116
0.367165
0.367213
0.367261
0.367261
0.36731
0.367358
0.367407
0.367455
0.367455
0.367504
0.367552
0.367601
0.36765
0.36765
0.367698
0.367747
0.367796
0.367845
0.367845
0.367893
0.367942
0.367991
0.36804
0.36804
0.368089
0.368138
0.368187
0.368236
0.368236
0.368285
0.368334
0.368383
0.368432
0.368432
0.368481
0.36853
0.368579
0.368629
0.368629
0.368678
0.368727
0.368776
0.368826
0.368826
0.368875
0.368924
0.368974
0.369023
0.369023
0.369073
0.369122
0.369172
0.369221
0.369221
0.369271
0.369321
0.36937
0.36942
0.36942
0.36947
0.369519
0.369569
0.369619
0.369619
0.369669
0.369719
0.369769
0.369819
0.369819
0.369868
0.369918
0.369968
0.370018
0.370018
0.370069
0.370119
0.370169
0.370219
0.370219
0.370269
0.370319
0.37037
0.37042
0.37042
0.37047
0.37052
0.370571
0.370621
0.370621
0.370672
0.370722
0.370772
0.370823
0.370823
0.370873
0.370924
0.370975
0.371025
0.371025
0.371076
0.371127
0.371177
0.371228
0.371228
0.371279
0.37133
0.37138
0.371431
0.371431
0.371482
0.371533
0.371584
0.371635
0.371635
0.371686
0.371737
0.371788
0.371839
0.371839
0.37189
0.371941
0.371992
0.372044
0.372044
0.372095
0.372146
0.372197
0.372249
0.372249
0.3723
0.372351
0.372403
0.372454
0.372454
0.372506
0.372557
0.372609
0.37266
0.37266
0.372712
0.372764
0.372815
0.372867
0.372867
0.372918
0.37297
0.373022
0.373074
0.373074
0.373126
0.373177
0.373229
0.373281
0.373281
0.373333
0.373385
0.373437
0.373489
0.373489
0.373541
0.373593
0.373645
0.373697
0.373697
0.373749
0.373802
0.373854
0.373906
0.373906
0.373958
0.374011
0.374063
0.374115
0.374115
0.374168
0.37422
0.374273
0.374325
0.374325
0.374378
0.37443
0.374483
0.374535
0.374535
0.374588
0.374641
0.374693
0.374746
0.374746
0.374799
0.374851
0.374904
0.374957
0.374957
0.37501
0.375063
0.375116
0.375169
0.375169
0.375222
0.375275
0.375328
0.375381
0.375381
0.375434
0.375487
0.37554
0.375593
0.375593
0.375646
0.3757
0.375753
0.375806
0.375806
0.375859
0.375913
0.375966
0.37602
0.37602
0.376073
0.376126
0.37618
0.376233
0.376233
0.376287
0.37634
0.376394
0.376448
0.376448
0.376501
0.376555
0.376609
0.376663
0.376663
0.376716
0.37677
0.376824
0.376878
0.376878
0.376932
0.376986
0.37704
0.377094
0.377094
0.377148
0.377202
0.377256
0.37731
0.37731
0.377364
0.377418
0.377472
0.377526
0.377526
0.377581
0.377635
0.377689
0.377743
0.377743
0.377798
0.377852
0.377907
0.377961
0.377961
0.378015
0.37807
0.378125
0.378179
0.378179
0.378234
0.378288
0.378343
0.378398
0.378398
0.378452
0.378507
0.378562
0.378616
0.378616
0.378671
0.378726
0.378781
0.378836
0.378836
0.378891
0.378946
0.379001
0.379056
0.379056
0.379111
0.379166
0.379221
0.379276
0.379276
0.379331
0.379386
0.379442
0.379497
0.379497
0.379552
0.379607
0.379663
0.379718
0.379718
0.379774
0.379829
0.379884
0.37994
0.37994
0.379995
0.380051
0.380106
0.380162
0.380162
0.380218
0.380273
0.380329
0.380385
0.380385
0.38044
0.380496
0.380552
0.380608
0.380608
0.380664
0.380719
0.380775
0.380831
0.380831
0.380887
0.380943
0.380999
0.381055
0.381055
0.381111
0.381167
0.381224
0.38128
0.38128
0.381336
0.381392
0.381448
0.381505
0.381505
0.381561
0.381617
0.381674
0.38173
0.38173
0.381786
0.381843
0.381899
0.381956
0.381956
0.382012
0.382069
0.382126
0.382182
0.382182
0.382239
0.382295
0.382352
0.382409
0.382409
0.382466
0.382522
0.382579
0.382636
0.382636
0.382693
0.38275
0.382807
0.382864
0.382864
0.382921
0.382978
0.383035
0.383092
0.383092
0.383149
0.383206
0.383263
0.38332
0.38332
0.383378
0.383435
0.383492
0.383549
0.383549
0.383607
0.383664
0.383722
0.383779
0.383779
0.383836
0.383894
0.383951
0.384009
0.384009
0.384066
0.384124
0.384182
0.384239
0.384239
0.384297
0.384355
0.384412
0.38447
0.38447
0.384528
0.384586
0.384644
0.384701
0.384701
0.384759
0.384817
0.384875
0.384933
0.384933
0.384991
0.385049
0.385107
0.385165
0.385165
0.385224
0.385282
0.38534
0.385398
0.385398
0.385456
0.385515
0.385573
0.385631
0.385631
0.38569
0.385748
0.385806
0.385865
0.385865
0.385923
0.385982
0.38604
0.386099
0.386099
0.386157
0.386216
0.386275
0.386333
0.386333
0.386392
0.386451
0.38651
0.386568
0.386568
0.386627
0.386686
0.386745
0.386804
0.386804
0.386863
0.386922
0.386981
0.38704
0.38704
0.387099
0.387158
0.387217
0.387276
0.387276
0.387335
0.387394
0.387453
0.387513
0.387513
0.387572
0.387631
0.387691
0.38775
0.38775
0.387809
0.387869
0.387928
0.387988
0.387988
0.388047
0.388107
0.388166
0.388226
0.388226
0.388285
0.388345
0.388405
0.388464
0.388464
0.388524
0.388584
0.388644
0.388703
0.388703
0.388763
0.388823
0.388883
0.388943
0.388943
0.389003
0.389063
0.389123
0.389183
0.389183
0.389243
0.389303
0.389363
0.389423
0.389423
0.389483
0.389543
0.389604
0.389664
0.389664
0.389724
0.389785
0.389845
0.389905
0.389905
0.389966
0.390026
0.390087
0.390147
0.390147
0.390208
0.390268
0.390329
0.390389
0.390389
0.39045
0.39051
0.390571
0.390632
0.390632
0.390693
0.390753
0.390814
0.390875
0.390875
0.390936
0.390997
0.391058
0.391119
0.391119
0.391179
0.39124
0.391301
0.391363
0.391363
0.391424
0.391485
0.391546
0.391607
0.391607
0.391668
0.391729
0.391791
0.391852
0.391852
0.391913
0.391974
0.392036
0.392097
0.392097
0.392159
0.39222
0.392282
0.392343
0.392343
0.392405
0.392466
0.392528
0.392589
0.392589
0.392651
0.392713
0.392774
0.392836
0.392836
0.392898
0.39296
0.393021
0.393083
0.393083
0.393145
0.393207
0.393269
0.393331
0.393331
0.393393
0.393455
0.393517
0.393579
0.393579
0.393641
0.393703
0.393765
0.393827
0.393827
0.393889
0.393952
0.394014
0.394076
0.394076
0.394139
0.394201
0.394263
0.394326
0.394326
0.394388
0.394451
0.394513
0.394575
0.394575
0.394638
0.394701
0.394763
0.394826
0.394826
0.394888
0.394951
0.395014
0.395077
0.395077
0.395139
0.395202
0.395265
0.395328
0.395328
0.395391
0.395453
0.395516
0.395579
0.395579
0.395642
0.395705
0.395768
0.395831
0.395831
0.395895
0.395958
0.396021
0.396084
0.396084
0.396147
0.39621
0.396274
0.396337
0.396337
0.3964
0.396464
0.396527
0.39659
0.39659
0.396654
0.396717
0.396781
0.396844
0.396844
0.396908
0.396971
0.397035
0.397099
0.397099
0.397162
0.397226
0.39729
0.397353
0.397353
0.397417
0.397481
0.397545
0.397609
0.397609
0.397672
0.397736
0.3978
0.397864
0.397864
0.397928
0.397992
0.398056
0.39812
0.39812
0.398184
0.398249
0.398313
0.398377
0.398377
0.398441
0.398505
0.39857
0.398634
0.398634
0.398698
0.398763
0.398827
0.398891
0.398891
0.398956
0.39902
0.399085
0.399149
0.399149
0.399214
0.399278
0.399343
0.399408
0.399408
0.399472
0.399537
0.399602
0.399666
0.399666
0.399731
0.399796
0.399861
0.399926
0.399926
0.39999
0.400055
0.40012
0.400185
0.400185
0.40025
0.400315
0.40038
0.400445
0.400445
0.40051
0.400576
0.400641
0.400706
0.400706
0.400771
0.400836
0.400902
0.400967
0.400967
0.401032
0.401098
0.401163
0.401228
0.401228
0.401294
0.401359
0.401425
0.40149
0.40149
0.401556
0.401621
0.401687
0.401753
0.401753
0.401818
0.401884
0.40195
0.402015
0.402015
0.402081
0.402147
0.402213
0.402279
0.402279
0.402344
0.40241
0.402476
0.402542
0.402542
0.402608
0.402674
0.40274
0.402806
0.402806
0.402872
0.402939
0.403005
0.403071
0.403071
0.403137
0.403203
0.40327
0.403336
0.403336
0.403402
0.403469
0.403535
0.403601
0.403601
0.403668
0.403734
0.403801
0.403867
0.403867
0.403934
0.404
0.404067
0.404134
0.404134
0.4042
0.404267
0.404334
0.4044
0.4044
0.404467
0.404534
0.404601
0.404667
0.404667
0.404734
0.404801
0.404868
0.404935
0.404935
0.405002
0.405069
0.405136
0.405203
0.405203
0.40527
0.405337
0.405405
0.405472
0.405472
0.405539
0.405606
0.405673
0.405741
0.405741
0.405808
0.405875
0.405943
0.40601
0.40601
0.406078
0.406145
0.406212
0.40628
0.40628
0.406347
0.406415
0.406483
0.40655
0.40655
0.406618
0.406686
0.406753
0.406821
0.406821
0.406889
0.406956
0.407024
0.407092
0.407092
0.40716
0.407228
0.407296
0.407364
0.407364
0.407432
0.4075
0.407568
0.407636
0.407636
0.407704
0.407772
0.40784
0.407908
0.407908
0.407976
0.408045
0.408113
0.408181
0.408181
0.408249
0.408318
0.408386
0.408455
0.408455
0.408523
0.408591
0.40866
0.408728
0.408728
0.408797
0.408865
0.408934
0.409003
0.409003
0.409071
0.40914
0.409208
0.409277
0.409277
0.409346
0.409415
0.409483
0.409552
0.409552
0.409621
0.40969
0.409759
0.409828
0.409828
0.409897
0.409966
0.410035
0.410104
0.410104
0.410173
0.410242
0.410311
0.41038
0.41038
0.410449
0.410519
0.410588
0.410657
0.410657
0.410726
0.410796
0.410865
0.410934
0.410934
0.411004
0.411073
0.411143
0.411212
0.411212
0.411282
0.411351
0.411421
0.41149
0.41149
0.41156
0.41163
0.411699
0.411769
0.411769
0.411839
0.411908
0.411978
0.412048
0.412048
0.412118
0.412188
0.412258
0.412327
0.412327
0.412397
0.412467
0.412537
0.412607
0.412607
0.412677
0.412747
0.412818
0.412888
0.412888
0.412958
0.413028
0.413098
0.413168
0.413168
0.413239
0.413309
0.413379
0.41345
0.41345
0.41352
0.41359
0.413661
0.413731
0.413731
0.413802
0.413872
0.413943
0.414013
0.414013
0.414084
0.414155
0.414225
0.414296
0.414296
0.414367
0.414437
0.414508
0.414579
0.414579
0.41465
0.414721
0.414791
0.414862
0.414862
0.414933
0.415004
0.415075
0.415146
0.415146
0.415217
0.415288
0.415359
0.41543
0.41543
0.415501
0.415573
0.415644
0.415715
0.415715
0.415786
0.415858
0.415929
0.416
0.416
0.416072
0.416143
0.416214
0.416286
0.416286
0.416357
0.416429
0.4165
0.416572
0.416572
0.416643
0.416715
0.416786
0.416858
0.416858
0.41693
0.417002
0.417073
0.417145
0.417145
0.417217
0.417289
0.41736
0.417432
0.417432
0.417504
0.417576
0.417648
0.41772
0.41772
0.417792
0.417864
0.417936
0.418008
0.418008
0.41808
0.418152
0.418225
0.418297
0.418297
0.418369
0.418441
0.418513
0.418586
0.418586
0.418658
0.41873
0.418803
0.418875
0.418875
0.418948
0.41902
0.419093
0.419165
0.419165
0.419238
0.41931
0.419383
0.419455
0.419455
0.419528
0.419601
0.419673
0.419746
0.419746
0.419819
0.419892
0.419964
0.420037
0.420037
0.42011
0.420183
0.420256
0.420329
0.420329
0.420402
0.420475
0.420548
0.420621
0.420621
0.420694
0.420767
0.42084
0.420913
0.420913
0.420986
0.42106
0.421133
0.421206
0.421206
0.421279
0.421353
0.421426
0.4215
0.4215
0.421573
0.421646
0.42172
0.421793
0.421793
0.421867
0.42194
0.422014
0.422087
0.422087
0.422161
0.422235
0.422308
0.422382
0.422382
0.422456
0.422529
0.422603
0.422677
0.422677
0.422751
0.422825
0.422899
0.422972
0.422972
0.423046
0.42312
0.423194
0.423268
0.423268
0.423342
0.423416
0.423491
0.423565
0.423565
0.423639
0.423713
0.423787
0.423861
0.423861
0.423936
0.42401
0.424084
0.424159
0.424159
0.424233
0.424307
0.424382
0.424456
0.424456
0.424531
0.424605
0.42468
0.424754
0.424754
0.424829
0.424903
0.424978
0.425053
0.425053
0.425127
0.425202
0.425277
0.425352
0.425352
0.425426
0.425501
0.425576
0.425651
0.425651
0.425726
0.425801
0.425876
0.425951
0.425951
0.426026
0.426101
0.426176
0.426251
0.426251
0.426326
0.426401
0.426476
0.426551
0.426551
0.426626
0.426702
0.426777
0.426852
0.426852
0.426928
0.427003
0.427078
0.427154
0.427154
0.427229
0.427305
0.42738
0.427456
0.427456
0.427531
0.427607
0.427682
0.427758
0.427758
0.427833
0.427909
0.427985
0.42806
0.42806
0.428136
0.428212
0.428288
0.428364
0.428364
0.428439
0.428515
0.428591
0.428667
0.428667
0.428743
0.428819
0.428895
0.428971
0.428971
0.429047
0.429123
0.429199
0.429276
0.429276
0.429352
0.429428
0.429504
0.42958
0.42958
0.429657
0.429733
0.429809
0.429886
0.429886
0.429962
0.430038
0.430115
0.430191
0.430191
0.430268
0.430344
0.430421
0.430497
0.430497
0.430574
0.430651
0.430727
0.430804
0.430804
0.430881
0.430957
0.431034
0.431111
0.431111
0.431188
0.431264
0.431341
0.431418
0.431418
0.431495
0.431572
0.431649
0.431726
0.431726
0.431803
0.43188
0.431957
0.432034
0.432034
0.432111
0.432188
0.432265
0.432343
0.432343
0.43242
0.432497
0.432574
0.432652
0.432652
0.432729
0.432806
0.432884
0.432961
0.432961
0.433039
0.433116
0.433194
0.433271
0.433271
0.433349
0.433426
0.433504
0.433581
0.433581
0.433659
0.433737
0.433814
0.433892
0.433892
0.43397
0.434048
0.434125
0.434203
0.434203
0.434281
0.434359
0.434437
0.434515
0.434515
0.434593
0.434671
0.434749
0.434827
0.434827
0.434905
0.434983
0.435061
0.435139
0.435139
0.435217
0.435295
0.435374
0.435452
0.435452
0.43553
0.435609
0.435687
0.435765
0.435765
0.435844
0.435922
0.436
0.436079
0.436079
0.436157
0.436236
0.436314
0.436393
0.436393
0.436471
0.43655