<?xml version="1.0"?>
<VTKFile type="UnstructuredGrid" version="0.1" byte_order="LittleEndian">
<UnstructuredGrid>
<Piece NumberOfPoints="5000" NumberOfCells="4000">
<PointData Scalars="Reaction 0">
<DataArray type="Float32" Name="Reaction 0" format="ascii">
0.706741
0.706741
0.706741
0.706741
0.706741
0.706741
0.706741
0.706741
0.706741
0.706741
0.706741
0.706741
0.706741
0.706741
0.706741
0.706741
0.706742
0.706742
0.706742
0.706742
0.706742
0.706742
0.706742
0.706742
0.706743
0.706743
0.706743
0.706743
0.706743
0.706743
0.706743
0.706743
0.706744
0.706744
0.706744
0.706744
0.706744
0.706745
0.706745
0.706745
0.706745
0.706745
0.706746
0.706746
0.706746
0.706746
0.706747
0.706747
0.706747
0.706748
0.706748
0.706748
0.706748
0.706749
0.706749
0.706749
0.706749
0.70675
0.70675
0.706751
0.706751
0.706751
0.706751
0.706752
0.706752
0.706752
0.706753
0.706753
0.706754
0.706754
0.706754
0.706755
0.706755
0.706756
0.706756
0.706756
0.706757
0.706757
0.706758
0.706758
0.706758
0.706759
0.706759
0.70676
0.70676
0.70676
0.706761
0.706762
0.706762
0.706763
0.706763
0.706763
0.706764
0.706765
0.706765
0.706765
0.706766
0.706767
0.706767
0.706768
0.706768
0.706769
0.706769
0.70677
0.706771
0.706771
0.706771
0.706772
0.706773
0.706774
0.706774
0.706774
0.706775
0.706776
0.706777
0.706777
0.706777
0.706778
0.706779
0.70678
0.70678
0.706781
0.706781
0.706782
0.706783
0.706783
0.706784
0.706785
0.706786
0.706787
0.706787
0.706787
0.706788
0.706789
0.70679
0.70679
0.706791
0.706792
0.706793
0.706794
0.706794
0.706795
0.706796
0.706797
0.706798
0.706798
0.706799
0.7068
0.706801
0.706802
0.706802
0.706803
0.706804
0.706805
0.706806
0.706806
0.706807
0.706808
0.706809
0.70681
0.70681
0.706811
0.706812
0.706813
0.706814
0.706814
0.706816
0.706817
0.706818
0.706819
0.706819
0.70682
0.706821
0.706822
0.706824
0.706824
0.706825
0.706826
0.706827
0.706828
0.706828
0.70683
0.706831
0.706832
0.706833
0.706833
0.706835
0.706836
0.706837
0.706838
0.706838
0.70684
0.706841
0.706842
0.706844
0.706844
0.706845
0.706846
0.706848
0.706849
0.706849
0.70685
0.706852
0.706853
0.706854
0.706854
0.706856
0.706857
0.706859
0.70686
0.70686
0.706861
0.706863
0.706864
0.706866
0.706866
0.706867
0.706869
0.70687
0.706872
0.706872
0.706873
0.706875
0.706876
0.706878
0.706878
0.706879
0.706881
0.706882
0.706884
0.706884
0.706885
0.706887
0.706888
0.70689
0.70689
0.706892
0.706893
0.706895
0.706896
0.706896
0.706898
0.7069
0.706901
0.706903
0.706903
0.706905
0.706906
0.706908
0.70691
0.70691
0.706911
0.706913
0.706915
0.706917
0.706917
0.706918
0.70692
0.706922
0.706923
0.706923
0.706925
0.706927
0.706929
0.706931
0.706931
0.706932
0.706934
0.706936
0.706938
0.706938
0.70694
0.706941
0.706943
0.706945
0.706945
0.706947
0.706949
0.706951
0.706953
0.706953
0.706955
0.706956
0.706958
0.70696
0.70696
0.706962
0.706964
0.706966
0.706968
0.706968
0.70697
0.706972
0.706974
0.706976
0.706976
0.706978
0.70698
0.706982
0.706984
0.706984
0.706986
0.706988
0.70699
0.706992
0.706992
0.706994
0.706996
0.706998
0.707
0.707
0.707003
0.707005
0.707007
0.707009
0.707009
0.707011
0.707013
0.707015
0.707017
0.707017
0.70702
0.707022
0.707024
0.707026
0.707026
0.707028
0.707031
0.707033
0.707035
0.707035
0.707037
0.707039
0.707042
0.707044
0.707044
0.707046
0.707048
0.707051
0.707053
0.707053
0.707055
0.707058
0.70706
0.707062
0.707062
0.707065
0.707067
0.707069
0.707072
0.707072
0.707074
0.707076
0.707079
0.707081
0.707081
0.707084
0.707086
0.707088
0.707091
0.707091
0.707093
0.707096
0.707098
0.707101
0.707101
0.707103
0.707106
0.707108
0.707111
0.707111
0.707113
0.707116
0.707118
0.707121
0.707121
0.707123
0.707126
0.707128
0.707131
0.707131
0.707133
0.707136
0.707139
0.707141
0.707141
0.707144
0.707146
0.707149
0.707152
0.707152
0.707154
0.707157
0.70716
0.707162
0.707162
0.707165
0.707168
0.70717
0.707173
0.707173
0.707176
0.707178
0.707181
0.707184
0.707184
0.707187
0.707189
0.707192
0.707195
0.707195
0.707198
0.7072
0.707203
0.707206
0.707206
0.707209
0.707212
0.707214
0.707217
0.707217
0.70722
0.707223
0.707226
0.707229
0.707229
0.707231
0.707234
0.707237
0.70724
0.70724
0.707243
0.707246
0.707249
0.707252
0.707252
0.707255
0.707258
0.707261
0.707264
0.707264
0.707267
0.70727
0.707273
0.707276
0.707276
0.707279
0.707282
0.707285
0.707288
0.707288
0.707291
0.707294
0.707297
0.7073
0.7073
0.707303
0.707306
0.707309
0.707312
0.707312
0.707315
0.707318
0.707321
0.707325
0.707325
0.707328
0.707331
0.707334
0.707337
0.707337
0.70734
0.707344
0.707347
0.70735
0.70735
0.707353
0.707356
0.70736
0.707363
0.707363
0.707366
0.707369
0.707373
0.707376
0.707376
0.707379
0.707382
0.707386
0.707389
0.707389
0.707392
0.707396
0.707399
0.707402
0.707402
0.707406
0.707409
0.707412
0.707416
0.707416
0.707419
0.707422
0.707426
0.707429
0.707429
0.707433
0.707436
0.70744
0.707443
0.707443
0.707446
0.70745
0.707453
0.707457
0.707457
0.70746
0.707464
0.707467
0.707471
0.707471
0.707474
0.707478
0.707481
0.707485
0.707485
0.707488
0.707492
0.707496
0.707499
0.707499
0.707503
0.707506
0.70751
0.707513
0.707513
0.707517
0.707521
0.707524
0.707528
0.707528
0.707532
0.707535
0.707539
0.707543
0.707543
0.707546
0.70755
0.707554
0.707557
0.707557
0.707561
0.707565
0.707568
0.707572
0.707572
0.707576
0.70758
0.707583
0.707587
0.707587
0.707591
0.707595
0.707599
0.707602
0.707602
0.707606
0.70761
0.707614
0.707618
0.707618
0.707622
0.707625
0.707629
0.707633
0.707633
0.707637
0.707641
0.707645
0.707649
0.707649
0.707653
0.707657
0.70766
0.707664
0.707664
0.707668
0.707672
0.707676
0.70768
0.70768
0.707684
0.707688
0.707692
0.707696
0.707696
0.7077
0.707704
0.707708
0.707712
0.707712
0.707716
0.70772
0.707724
0.707729
0.707729
0.707733
0.707737
0.707741
0.707745
0.707745
0.707749
0.707753
0.707757
0.707761
0.707761
0.707766
0.70777
0.707774
0.707778
0.707778
0.707782
0.707786
0.707791
0.707795
0.707795
0.707799
0.707803
0.707808
0.707812
0.707812
0.707816
0.70782
0.707825
0.707829
0.707829
0.707833
0.707837
0.707842
0.707846
0.707846
0.70785
0.707855
0.707859
0.707863
0.707863
0.707868
0.707872
0.707876
0.707881
0.707881
0.707885
0.70789
0.707894
0.707898
0.707898
0.707903
0.707907
0.707912
0.707916
0.707916
0.70792
0.707925
0.707929
0.707934
0.707934
0.707938
0.707943
0.707947
0.707952
0.707952
0.707956
0.707961
0.707965
0.70797
0.70797
0.707975
0.707979
0.707984
0.707988
0.707988
0.707993
0.707997
0.708002
0.708007
0.708007
0.708011
0.708016
0.70802
0.708025
0.708025
0.70803
0.708034
0.708039
0.708044
0.708044
0.708048
0.708053
0.708058
0.708063
0.708063
0.708067
0.708072
0.708077
0.708081
0.708081
0.708086
0.708091
0.708096
0.708101
0.708101
0.708105
0.70811
0.708115
0.70812
0.70812
0.708125
0.708129
0.708134
0.708139
0.708139
0.708144
0.708149
0.708154
0.708158
0.708158
0.708163
0.708168
0.708173
0.708178
0.708178
0.708183
0.708188
0.708193
0.708198
0.708198
0.708203
0.708208
0.708213
0.708218
0.708218
0.708223
0.708228
0.708233
0.708238
0.708238
0.708243
0.708248
0.708253
0.708258
0.708258
0.708263
0.708268
0.708273
0.708278
0.708278
0.708283
0.708288
0.708293
0.708298
0.708298
0.708303
0.708309
0.708314
0.708319
0.708319
0.708324
0.708329
0.708334
0.70834
0.70834
0.708345
0.70835
0.708355
0.70836
0.70836
0.708366
0.708371
0.708376
0.708381
0.708381
0.708386
0.708392
0.708397
0.708402
0.708402
0.708408
0.708413
0.708418
0.708423
0.708423
0.708429
0.708434
0.708439
0.708445
0.708445
0.70845
0.708456
0.708461
0.708466
0.708466
0.708472
0.708477
0.708482
0.708488
0.708488
0.708493
0.708499
0.708504
0.70851
0.70851
0.708515
0.70852
0.708526
0.708531
0.708531
0.708537
0.708542
0.708548
0.708553
0.708553
0.708559
0.708564
0.70857
0.708576
0.708576
0.708581
0.708587
0.708592
0.708598
0.708598
0.708603
0.708609
0.708615
0.70862
0.70862
0.708626
0.708631
0.708637
0.708643
0.708643
0.708648
0.708654
0.70866
0.708665
0.708665
0.708671
0.708677
0.708682
0.708688
0.708688
0.708694
0.7087
0.708705
0.708711
0.708711
0.708717
0.708723
0.708728
0.708734
0.708734
0.70874
0.708746
0.708751
0.708757
0.708757
0.708763
0.708769
0.708775
0.708781
0.708781
0.708786
0.708792
0.708798
0.708804
0.708804
0.70881
0.708816
0.708822
0.708828
0.708828
0.708834
0.708839
0.708845
0.708851
0.708851
0.708857
0.708863
0.708869
0.708875
0.708875
0.708881
0.708887
0.708893
0.708899
0.708899
0.708905
0.708911
0.708917
0.708923
0.708923
0.708929
0.708935
0.708941
0.708948
0.708948
0.708954
0.70896
0.708966
0.708972
0.708972
0.708978
0.708984
0.70899
0.708996
0.708996
0.709003
0.709009
0.709015
0.709021
0.709021
0.709027
0.709033
0.70904
0.709046
0.709046
0.709052
0.709058
0.709065
0.709071
0.709071
0.709077
0.709083
0.70909
0.709096
0.709096
0.709102
0.709108
0.709115
0.709121
0.709121
0.709127
0.709134
0.70914
0.709146
0.709146
0.709153
0.709159
0.709165
0.709172
0.709172
0.709178
0.709185
0.709191
0.709197
0.709197
0.709204
0.70921
0.709217
0.709223
0.709223
0.70923
0.709236
0.709242
0.709249
0.709249
0.709255
0.709262
0.709268
0.709275
0.709275
0.709281
0.709288
0.709294
0.709301
0.709301
0.709308
0.709314
0.709321
0.709327
0.709327
0.709334
0.70934
0.709347
0.709354
0.709354
0.70936
0.709367
0.709373
0.70938
0.70938
0.709387
0.709393
0.7094
0.709407
0.709407
0.709413
0.70942
0.709427
0.709434
0.709434
0.70944
0.709447
0.709454
0.70946
0.70946
0.709467
0.709474
0.709481
0.709487
0.709487
0.709494
0.709501
0.709508
0.709515
0.709515
0.709521
0.709528
0.709535
0.709542
0.709542
0.709549
0.709556
0.709563
0.709569
0.709569
0.709576
0.709583
0.70959
0.709597
0.709597
0.709604
0.709611
0.709618
0.709625
0.709625
0.709632
0.709639
0.709645
0.709652
0.709652
0.709659
0.709666
0.709673
0.70968
0.70968
0.709687
0.709694
0.709701
0.709709
0.709709
0.709716
0.709723
0.70973
0.709737
0.709737
0.709744
0.709751
0.709758
0.709765
0.709765
0.709772
0.709779
0.709786
0.709794
0.709794
0.709801
0.709808
0.709815
0.709822
0.709822
0.709829
0.709837
0.709844
0.709851
0.709851
0.709858
0.709865
0.709873
0.70988
0.70988
0.709887
0.709894
0.709902
0.709909
0.709909
0.709916
0.709923
0.709931
0.709938
0.709938
0.709945
0.709953
0.70996
0.709967
0.709967
0.709975
0.709982
0.709989
0.709997
0.709997
0.710004
0.710011
0.710019
0.710026
0.710026
0.710034
0.710041
0.710049
0.710056
0.710056
0.710063
0.710071
0.710078
0.710086
0.710086
0.710093
0.710101
0.710108
0.710116
0.710116
0.710123
0.710131
0.710138
0.710146
0.710146
0.710153
0.710161
0.710168
0.710176
0.710176
0.710184
0.710191
0.710199
0.710206
0.710206
0.710214
0.710221
0.710229
0.710237
0.710237
0.710244
0.710252
0.71026
0.710267
0.710267
0.710275
0.710282
0.71029
0.710298
0.710298
0.710305
0.710313
0.710321
0.710328
0.710328
0.710336
0.710343
0.710351
0.710358
0.710358
0.710366
0.710374
0.710381
0.710389
0.710389
0.710396
0.710404
0.710411
0.710418
0.710418
0.710426
0.710433
0.710441
0.710448
0.710448
0.710455
0.710463
0.71047
0.710477
0.710477
0.710485
0.710492
0.710499
0.710507
0.710507
0.710514
0.710521
0.710528
0.710536
0.710536
0.710543
0.71055
0.710557
0.710565
0.710565
0.710572
0.710579
0.710586
0.710594
0.710594
0.710601
0.710608
0.710616
0.710623
0.710623
0.71063
0.710637
0.710645
0.710652
0.710652
0.710659
0.710667
0.710674
0.710681
0.710681
0.710689
0.710696
0.710703
0.710711
0.710711
0.710718
0.710726
0.710733
0.71074
0.71074
0.710748
0.710755
0.710763
0.71077
0.71077
0.710777
0.710785
0.710792
0.7108
0.7108
0.710807
0.710815
0.710822
0.71083
0.71083
0.710837
0.710845
0.710852
0.71086
0.71086
0.710867
0.710875
0.710882
0.71089
0.71089
0.710897
0.710905
0.710913
0.71092
0.71092
0.710928
0.710935
0.710943
0.710951
0.710951
0.710958
0.710966
0.710973
0.710981
0.710981
0.710989
0.710996
0.711004
0.711012
0.711012
0.711019
0.711027
0.711035
0.711042
0.711042
0.71105
0.711058
0.711066
0.711073
0.711073
0.711081
0.711089
0.711096
0.711104
0.711104
0.711112
0.71112
0.711128
0.711135
0.711135
0.711143
0.711151
0.711159
0.711167
0.711167
0.711174
0.711182
0.71119
0.711198
0.711198
0.711206
0.711214
0.711221
0.711229
0.711229
0.711237
0.711245
0.711253
0.711261
0.711261
0.711269
0.711277
0.711285
0.711293
0.711293
0.7113
0.711308
0.711316
0.711324
0.711324
0.711332
0.71134
0.711348
0.711356
0.711356
0.711364
0.711372
0.71138
0.711388
0.711388
0.711396
0.711404
0.711412
0.71142
0.71142
0.711429
0.711437
0.711445
0.711453
0.711453
0.711461
0.711469
0.711477
0.711485
0.711485
0.711493
0.711501
0.71151
0.711518
0.711518
0.711526
0.711534
0.711542
0.71155
0.71155
0.711558
0.711567
0.711575
0.711583
0.711583
0.711591
0.711599
0.711608
0.711616
0.711616
0.711624
0.711632
0.711641
0.711649
0.711649
0.711657
0.711665
0.711674
0.711682
0.711682
0.71169
0.711699
0.711707
0.711715
0.711715
0.711724
0.711732
0.71174
0.711749
0.711749
0.711757
0.711765
0.711774
0.711782
0.711782
0.71179
0.711799
0.711807
0.711816
0.711816
0.711824
0.711832
0.711841
0.711849
0.711849
0.711858
0.711866
0.711875
0.711883
0.711883
0.711892
0.7119
0.711909
0.711917
0.711917
0.711926
0.711934
0.711943
0.711951
0.711951
0.71196
0.711968
0.711977
0.711985
0.711985
0.711994
0.712002
0.712011
0.71202
0.71202
0.712028
0.712037
0.712045
0.712054
0.712054
0.712063
0.712071
0.71208
0.712088
0.712088
0.712097
0.712106
0.712114
0.712123
0.712123
0.712132
0.71214
0.712149
0.712158
0.712158
0.712167
0.712175
0.712184
0.712193
0.712193
0.712201
0.71221
0.712219
0.712228
0.712228
0.712236
0.712245
0.712254
0.712263
0.712263
0.712272
0.71228
0.712289
0.712298
0.712298
0.712307
0.712316
0.712325
0.712333
0.712333
0.712342
0.712351
0.71236
0.712369
0.712369
0.712378
0.712387
0.712396
0.712404
0.712404
0.712413
0.712422
0.712431
0.71244
0.71244
0.712449
0.712458
0.712467
0.712476
0.712476
0.712485
0.712494
0.712503
0.712512
0.712512
0.712521
0.71253
0.712539
0.712548
0.712548
0.712557
0.712566
0.712575
0.712584
0.712584
0.712593
0.712602
0.712611
0.71262
0.71262
0.712629
0.712639
0.712648
0.712657
0.712657
0.712666
0.712675
0.712684
0.712693
0.712693
0.712702
0.712712
0.712721
0.71273
0.71273
0.712739
0.712748
0.712757
0.712767
0.712767
0.712776
0.712785
0.712794
0.712804
0.712804
0.712813
0.712822
0.712831
0.712841
0.712841
0.71285
0.712859
0.712868
0.712878
0.712878
0.712887
0.712896
0.712906
0.712915
0.712915
0.712924
0.712934
0.712943
0.712952
0.712952
0.712962
0.712971
0.71298
0.71299
0.71299
0.712999
0.713008
0.713018
0.713027
0.713027
0.713037
0.713046
0.713055
0.713065
0.713065
0.713074
0.713084
0.713093
0.713103
0.713103
0.713112
0.713122
0.713131
0.713141
0.713141
0.71315
0.71316
0.713169
0.713179
0.713179
0.713188
0.713198
0.713207
0.713217
0.713217
0.713226
0.713236
0.713246
0.713255
0.713255
0.713265
0.713274
0.713284
0.713294
0.713294
0.713303
0.713313
0.713322
0.713332
0.713332
0.713342
0.713351
0.713361
0.713371
0.713371
0.71338
0.71339
0.7134
0.713409
0.713409
0.713419
0.713429
0.713439
0.713448
0.713448
0.713458
0.713468
0.713478
0.713487
0.713487
0.713497
0.713507
0.713517
0.713526
0.713526
0.713536
0.713546
0.713556
0.713566
0.713566
0.713575
0.713585
0.713595
0.713605
0.713605
0.713615
0.713625
0.713634
0.713644
0.713644
0.713654
0.713664
0.713674
0.713684
0.713684
0.713694
0.713704
0.713714
0.713724
0.713724
0.713734
0.713743
0.713753
0.713763
0.713763
0.713773
0.713783
0.713793
0.713803
0.713803
0.713813
0.713823
0.713833
0.713843
0.713843
0.713853
0.713863
0.713873
0.713883
0.713883
0.713894
0.713904
0.713914
0.713924
0.713924
0.713934
0.713944
0.713954
0.713964
0.713964
0.713974
0.713984
0.713994
0.714005
0.714005
0.714015
0.714025
0.714035
0.714045
0.714045
0.714055
0.714066
0.714076
0.714086
0.714086
0.714096
0.714106
0.714117
0.714127
0.714127
0.714137
0.714147
0.714158
0.714168
0.714168
0.714178
0.714188
0.714199
0.714209
0.714209
0.714219
0.714229
0.71424
0.71425
0.71425
0.71426
0.714271
0.714281
0.714291
0.714291
0.714302
0.714312
0.714322
0.714333
0.714333
0.714343
0.714354
0.714364
0.714374
0.714374
0.714385
0.714395
0.714406
0.714416
0.714416
0.714426
0.714437
0.714447
0.714458
0.714458
0.714468
0.714479
0.714489
0.7145
0.7145
0.71451
0.714521
0.714531
0.714542
0.714542
0.714552
0.714563
0.714573
0.714584
0.714584
0.714594
0.714605
0.714615
0.714626
0.714626
0.714637
0.714647
0.714658
0.714668
0.714668
0.714679
0.71469
0.7147
0.714711
0.714711
0.714722
0.714732
0.714743
0.714753
0.714753
0.714764
0.714775
0.714786
0.714796
0.714796
0.714807
0.714818
0.714828
0.714839
0.714839
0.71485
0.71486
0.714871
0.714882
0.714882
0.714893
0.714903
0.714914
0.714925
0.714925
0.714936
0.714947
0.714957
0.714968
0.714968
0.714979
0.71499
0.715001
0.715011
0.715011
0.715022
0.715033
0.715044
0.715055
0.715055
0.715065
0.715076
0.715087
0.715098
0.715098
0.715109
0.715119
0.71513
0.715141
0.715141
0.715152
0.715162
0.715173
0.715184
0.715184
0.715194
0.715205
0.715215
0.715226
0.715226
0.715237
0.715247
0.715258
0.715268
0.715268
0.715278
0.715289
0.715299
0.71531
0.71531
0.71532
0.71533
0.715341
0.715351
0.715351
0.715361
0.715371
0.715381
0.715392
0.715392
0.715402
0.715412
0.715422
0.715432
0.715432
0.715442
0.715452
0.715463
0.715473
0.715473
0.715483
0.715493
0.715503
0.715513
0.715513
0.715523
0.715533
0.715543
0.715553
0.715553
0.715564
0.715574
0.715584
0.715594
0.715594
0.715604
0.715614
0.715624
0.715635
0.715635
0.715645
0.715655
0.715665
0.715675
0.715675
0.715685
0.715696
0.715706
0.715716
0.715716
0.715726
0.715736
0.715747
0.715757
0.715757
0.715767
0.715777
0.715787
0.715798
0.715798
0.715808
0.715818
0.715829
0.715839
0.715839
0.715849
0.715859
0.71587
0.71588
0.71588
0.71589
0.715901
0.715911
0.715921
0.715921
0.715932
0.715942
0.715952
0.715963
0.715963
0.715973
0.715983
0.715994
0.716004
0.716004
0.716014
0.716025
0.716035
0.716046
0.716046
0.716056
0.716066
0.716077
0.716087
0.716087
0.716098
0.716108
0.716119
0.716129
0.716129
0.71614
0.71615
0.716161
0.716171
0.716171
0.716182
0.716192
0.716203
0.716213
0.716213
0.716224
0.716234
0.716245
0.716255
0.716255
0.716266
0.716276
0.716287
0.716297
0.716297
0.716308
0.716319
0.716329
0.71634
0.71634
0.71635
0.716361
0.716371
0.716382
0.716382
0.716393
0.716403
0.716414
0.716425
0.716425
0.716435
0.716446
0.716457
0.716467
0.716467
0.716478
0.716489
0.716499
0.71651
0.71651
0.716521
0.716531
0.716542
0.716553
0.716553
0.716564
0.716574
0.716585
0.716596
0.716596
0.716607
0.716617
0.716628
0.716639
0.716639
0.71665
0.71666
0.716671
0.716682
0.716682
0.716693
0.716704
0.716714
0.716725
0.716725
0.716736
0.716747
0.716758
0.716769
0.716769
0.716779
0.71679
0.716801
0.716812
0.716812
0.716823
0.716834
0.716845
0.716856
0.716856
0.716867
0.716877
0.716888
0.716899
0.716899
0.71691
0.716921
0.716932
0.716943
0.716943
0.716954
0.716965
0.716976
0.716987
0.716987
0.716998
0.717009
0.71702
0.717031
0.717031
0.717042
0.717053
0.717064
0.717075
0.717075
0.717086
0.717097
0.717108
0.717119
0.717119
0.71713
0.717141
0.717152
0.717164
0.717164
0.717175
0.717186
0.717197
0.717208
0.717208
0.717219
0.71723
0.717241
0.717252
0.717252
0.717264
0.717275
0.717286
0.717297
0.717297
0.717308
0.717319
0.717331
0.717342
0.717342
0.717353
0.717364
0.717375
0.717387
0.717387
0.717398
0.717409
0.71742
0.717432
0.717432
0.717443
0.717454
0.717465
0.717477
0.717477
0.717488
0.717499
0.71751
0.717522
0.717522
0.717533
0.717544
0.717556
0.717567
0.717567
0.717578
0.71759
0.717601
0.717612
0.717612
0.717624
0.717635
0.717646
0.717658
0.717658
0.717669
0.717681
0.717692
0.717703
0.717703
0.717715
0.717726
0.717738
0.717749
0.717749
0.71776
0.717772
0.717783
0.717795
0.717795
0.717806
0.717818
0.717829
0.717841
0.717841
0.717852
0.717864
0.717875
0.717887
0.717887
0.717898
0.71791
0.717921
0.717933
0.717933
0.717944
0.717956
0.717967
0.717979
0.717979
0.71799
0.718002
0.718014
0.718025
0.718025
0.718037
0.718048
0.71806
0.718071
0.718071
0.718083
0.718095
0.718106
0.718118
0.718118
0.71813
0.718141
0.718153
0.718165
0.718165
0.718176
0.718188
0.7182
0.718211
0.718211
0.718223
0.718235
0.718246
0.718258
0.718258
0.71827
0.718282
0.718293
0.718305
0.718305
0.718317
0.718328
0.71834
0.718352
0.718352
0.718364
0.718376
0.718387
0.718399
0.718399
0.718411
0.718423
0.718435
0.718446
0.718446
0.718458
0.71847
0.718482
0.718494
0.718494
0.718505
0.718517
0.718529
0.718541
0.718541
0.718553
0.718565
0.718577
0.718589
0.718589
0.7186
0.718612
0.718624
0.718636
0.718636
0.718648
0.71866
0.718672
0.718684
0.718684
0.718696
0.718708
0.71872
0.718732
0.718732
0.718744
0.718756
0.718768
0.71878
0.71878
0.718792
0.718804
0.718816
0.718828
0.718828
0.71884
0.718852
0.718864
0.718876
0.718876
0.718888
0.7189
0.718912
0.718924
0.718924
0.718936
0.718948
0.71896
0.718973
0.718973
0.718985
0.718997
0.719009
0.719021
0.719021
0.719033
0.719045
0.719057
0.71907
0.71907
0.719082
0.719094
0.719106
0.719118
0.719118
0.71913
0.719143
0.719155
0.719167
0.719167
0.719179
0.719191
0.719204
0.719216
0.719216
0.719228
0.71924
0.719253
0.719265
0.719265
0.719277
0.719289
0.719301
0.719314
0.719314
0.719326
0.719338
0.71935
0.719362
0.719362
0.719375
0.719387
0.719399
0.719411
0.719411
0.719423
0.719435
0.719447
0.719459
0.719459
0.719471
0.719483
0.719495
0.719507
0.719507
0.719519
0.719531
0.719543
0.719555
0.719555
0.719567
0.719578
0.71959
0.719602
0.719602
0.719614
0.719625
0.719637
0.719648
0.719648
0.71966
0.719671
0.719683
0.719694
0.719694
0.719706
0.719717
0.719729
0.71974
0.71974
0.719751
0.719763
0.719774
0.719785
0.719785
0.719797
0.719808
0.719819
0.719831
0.719831
0.719842
0.719853
0.719865
0.719876
0.719876
0.719887
0.719899
0.71991
0.719921
0.719921
0.719933
0.719944
0.719955
0.719967
0.719967
0.719978
0.719989
0.720001
0.720012
0.720012
0.720023
0.720035
0.720046
0.720058
0.720058
0.720069
0.72008
0.720092
0.720103
0.720103
0.720115
0.720126
0.720137
0.720149
0.720149
0.72016
0.720172
0.720183
0.720195
0.720195
0.720206
0.720218
0.720229
0.72024
0.72024
0.720252
0.720263
0.720275
0.720286
0.720286
0.720298
0.720309
0.720321
0.720333
0.720333
0.720344
0.720356
0.720367
0.720379
0.720379
0.72039
0.720402
0.720413
0.720425
0.720425
0.720437
0.720448
0.72046
0.720471
0.720471
0.720483
0.720494
0.720506
0.720518
0.720518
0.720529
0.720541
0.720553
0.720564
0.720564
0.720576
0.720588
0.720599
0.720611
0.720611
0.720623
0.720634
0.720646
0.720658
0.720658
0.720669
0.720681
0.720693
0.720704
0.720704
0.720716
0.720728
0.72074
0.720751
0.720751
0.720763
0.720775
0.720787
0.720798
0.720798
0.72081
0.720822
0.720834
0.720845
0.720845
0.720857
0.720869
0.720881
0.720893
0.720893
0.720904
0.720916
0.720928
0.72094
0.72094
0.720952
0.720964
0.720975
0.720987
0.720987
0.720999
0.721011
0.721023
0.721035
0.721035
0.721047
0.721059
0.72107
0.721082
0.721082
0.721094
0.721106
0.721118
0.72113
0.72113
0.721142
0.721154
0.721166
0.721178
0.721178
0.72119
0.721202
0.721214
0.721226
0.721226
0.721238
0.72125
0.721262
0.721274
0.721274
0.721286
0.721298
0.72131
0.721322
0.721322
0.721334
0.721346
0.721358
0.72137
0.72137
0.721382
0.721394
0.721406
0.721418
0.721418
0.72143
0.721442
0.721454
0.721466
0.721466
0.721478
0.721491
0.721503
0.721515
0.721515
0.721527
0.721539
0.721551
0.721563
0.721563
0.721575
0.721588
0.7216
0.721612
0.721612
0.721624
0.721636
0.721648
0.721661
0.721661
0.721673
0.721685
0.721697
0.721709
0.721709
0.721722
0.721734
0.721746
0.721758
0.721758
0.721771
0.721783
0.721795
0.721807
0.721807
0.72182
0.721832
0.721844
0.721856
0.721856
0.721869
0.721881
0.721893
0.721906
0.721906
0.721918
0.72193
0.721942
0.721955
0.721955
0.721967
0.721979
0.721992
0.722004
0.722004
0.722017
0.722029
0.722041
0.722054
0.722054
0.722066
0.722078
0.722091
0.722103
0.722103
0.722116
0.722128
0.72214
0.722153
0.722153
0.722165
0.722178
0.72219
0.722203
0.722203
0.722215
0.722227
0.72224
0.722252
0.722252
0.722265
0.722277
0.72229
0.722302
0.722302
0.722315
0.722327
0.72234
0.722352
0.722352
0.722365
0.722377
0.72239
0.722403
0.722403
0.722415
0.722428
0.72244
0.722453
0.722453
0.722465
0.722478
0.72249
0.722503
0.722503
0.722516
0.722528
0.722541
0.722553
0.722553
0.722566
0.722579
0.722591
0.722604
0.722604
0.722617
0.722629
0.722642
0.722655
0.722655
0.722667
0.72268
0.722693
0.722705
0.722705
0.722718
0.722731
0.722743
0.722756
0.722756
0.722769
0.722781
0.722794
0.722807
0.722807
0.72282
0.722832
0.722845
0.722858
0.722858
0.722871
0.722883
0.722896
0.722909
0.722909
0.722922
0.722934
0.722947
0.72296
0.72296
0.722973
0.722986
0.722998
0.723011
0.723011
0.723024
0.723037
0.72305
0.723062
0.723062
0.723075
0.723088
0.723101
0.723114
0.723114
0.723126
0.723139
0.723152
0.723165
0.723165
0.723177
0.72319
0.723203
0.723215
0.723215
0.723228
0.72324
0.723253
0.723266
0.723266
0.723278
0.723291
0.723303
0.723315
0.723315
0.723328
0.72334
0.723353
0.723365
0.723365
0.723377
0.723389
0.723401
0.723414
0.723414
0.723426
0.723438
0.72345
0.723462
0.723462
0.723474
0.723486
0.723498
0.72351
0.72351
0.723522
0.723533
0.723545
0.723557
0.723557
0.723569
0.723581
0.723593
0.723604
0.723604
0.723616
0.723628
0.72364
0.723651
0.723651
0.723663
0.723675
0.723687
0.723698
0.723698
0.72371
0.723722
0.723734
0.723746
0.723746
0.723757
0.723769
0.723781
0.723793
0.723793
0.723804
0.723816
0.723828
0.72384
0.72384
0.723852
0.723863
0.723875
0.723887
0.723887
0.723899
0.723911
0.723923
0.723934
0.723934
0.723946
0.723958
0.72397
0.723982
0.723982
0.723994
0.724006
0.724018
0.724029
0.724029
0.724041
0.724053
0.724065
0.724077
0.724077
0.724089
0.724101
0.724113
0.724125
0.724125
0.724137
0.724149
0.724161
0.724172
0.724172
0.724184
0.724196
0.724208
0.72422
0.72422
0.724232
0.724244
0.724256
0.724268
0.724268
0.72428
0.724292
0.724304
0.724316
0.724316
0.724328
0.72434
0.724352
0.724364
0.724364
0.724376
0.724389
0.724401
0.724413
0.724413
0.724425
0.724437
0.724449
0.724461
0.724461
0.724473
0.724485
0.724497
0.724509
0.724509
0.724521
0.724534
0.724546
0.724558
0.724558
0.72457
0.724582
0.724594
0.724606
0.724606
0.724619
0.724631
0.724643
0.724655
0.724655
0.724667
0.724679
0.724692
0.724704
0.724704
0.724716
0.724728
0.72474
0.724753
0.724753
0.724765
0.724777
0.724789
0.724802
0.724802
0.724814
0.724826
0.724838
0.724851
0.724851
0.724863
0.724875
0.724887
0.7249
0.7249
0.724912
0.724924
0.724936
0.724949
0.724949
0.724961
0.724973
0.724986
0.724998
0.724998
0.72501
0.725023
0.725035
0.725047
0.725047
0.72506
0.725072
0.725084
0.725097
0.725097
0.725109
0.725122
0.725134
0.725146
0.725146
0.725159
0.725171
0.725184
0.725196
0.725196
0.725208
0.725221
0.725233
0.725246
0.725246
0.725258
0.725271
0.725283
0.725295
0.725295
0.725308
0.72532
0.725333
0.725345
0.725345
0.725358
0.72537
0.725383
0.725395
0.725395
0.725408
0.72542
0.725433
0.725445
0.725445
0.725458
0.72547
0.725483
0.725495
0.725495
0.725508
0.725521
0.725533
0.725546
0.725546
0.725558
0.725571
0.725583
0.725596
0.725596
0.725609
0.725621
0.725634
0.725646
0.725646
0.725659
0.725672
0.725684
0.725697
0.725697
0.725709
0.725722
0.725735
0.725747
0.725747
0.72576
0.725773
0.725785
0.725798
0.725798
0.725811
0.725823
0.725836
0.725849
0.725849
0.725862
0.725874
0.725887
0.7259
0.7259
0.725912
0.725925
0.725938
0.725951
0.725951
0.725963
0.725976
0.725989
0.726002
0.726002
0.726014
0.726027
0.72604
0.726053
0.726053
0.726066
0.726078
0.726091
0.726104
0.726104
0.726117
0.72613
0.726142
0.726155
0.726155
0.726168
0.726181
0.726194
0.726207
0.726207
0.726219
0.726232
0.726245
0.726258
0.726258
0.726271
0.726284
0.726297
0.726309
0.726309
0.726322
0.726335
0.726348
0.726361
0.726361
0.726374
0.726387
0.7264
0.726412
0.726412
0.726425
0.726438
0.726451
0.726464
0.726464
0.726477
0.726489
0.726502
0.726515
0.726515
0.726528
0.72654
0.726553
0.726566
0.726566
0.726578
0.726591
0.726603
0.726616
0.726616
0.726628
0.726641
0.726653
0.726666
0.726666
0.726678
0.72669
0.726703
0.726715
0.726715
0.726727
0.726739
0.726752
0.726764
0.726764
0.726776
0.726788
0.7268
0.726812
0.726812
0.726824
0.726836
0.726848
0.72686
0.72686
0.726871
0.726883
0.726895
0.726907
0.726907
0.726919
0.726931
0.726942
0.726954
0.726954
0.726966
0.726978
0.726989
0.727001
0.727001
0.727013
0.727025
0.727037
0.727048
0.727048
0.72706
0.727072
0.727084
0.727095
0.727095
0.727107
0.727119
0.727131
0.727142
0.727142
0.727154
0.727166
0.727178
0.72719
0.72719
0.727201
0.727213
0.727225
0.727237
0.727237
0.727249
0.72726
0.727272
0.727284
0.727284
0.727296
0.727308
0.72732
0.727332
0.727332
0.727343
0.727355
0.727367
0.727379
0.727379
0.727391
0.727403
0.727415
0.727427
0.727427
0.727438
0.72745
0.727462
0.727474
0.727474
0.727486
0.727498
0.72751
0.727522
0.727522
0.727534
0.727546
0.727558
0.72757
0.72757
0.727582
0.727594
0.727606
0.727618
0.727618
0.72763
0.727642
0.727654
0.727666
0.727666
0.727678
0.72769
0.727702
0.727714
0.727714
0.727726
0.727738
0.72775
0.727762
0.727762
0.727774
0.727786
0.727798
0.72781
0.72781
0.727822
0.727834
0.727846
0.727858
0.727858
0.72787
0.727883
0.727895
0.727907
0.727907
0.727919
0.727931
0.727943
0.727955
0.727955
0.727967
0.727979
0.727992
0.728004
0.728004
0.728016
0.728028
0.72804
0.728052
0.728052
0.728065
0.728077
0.728089
0.728101
0.728101
0.728113
0.728125
0.728138
0.72815
0.72815
0.728162
0.728174
0.728187
0.728199
0.728199
0.728211
0.728223
0.728235
0.728248
0.728248
0.72826
0.728272
0.728284
0.728297
0.728297
0.728309
0.728321
0.728334
0.728346
0.728346
0.728358
0.72837
0.728383
0.728395
0.728395
0.728407
0.72842
0.728432
0.728444
0.728444
0.728457
0.728469
0.728481
0.728494
0.728494
0.728506
0.728518
0.728531
0.728543
0.728543
0.728556
0.728568
0.72858
0.728593
0.728593
0.728605
0.728618
0.72863
0.728642
0.728642
0.728655
0.728667
0.72868
0.728692
0.728692
0.728705
0.728717
0.728729
0.728742
0.728742
0.728754
0.728767
0.728779
0.728792
0.728792
0.728804
0.728817
0.728829
0.728842
0.728842
0.728854
0.728867
0.728879
0.728892
0.728892
0.728904
0.728917
0.728929
0.728942
0.728942
0.728954
0.728967
0.72898
0.728992
0.728992
0.729005
0.729017
0.72903
0.729042
0.729042
0.729055
0.729068
0.72908
0.729093
0.729093
0.729105
0.729118
0.729131
0.729143
0.729143
0.729156
0.729168
0.729181
0.729194
0.729194
0.729206
0.729219
0.729232
0.729244
0.729244
0.729257
0.729269
0.729282
0.729295
0.729295
0.729307
0.72932
0.729333
0.729345
0.729345
0.729358
0.72937
0.729383
0.729395
0.729395
0.729408
0.72942
0.729433
0.729445
0.729445
0.729458
0.72947
0.729483
0.729495
0.729495
0.729507
0.72952
0.729532
0.729544