<?xml version="1.0"?>
<VTKFile type="UnstructuredGrid" version="0.1" byte_order="LittleEndian">
<UnstructuredGrid>
<Piece NumberOfPoints="5000" NumberOfCells="4000">
<PointData Scalars="Reaction 0">
<DataArray type="Float32" Name="Reaction 0" format="ascii">
0.596305
0.596305
0.596305
0.596305
0.596305
0.596305
0.596305
0.596305
0.596305
0.596305
0.596305
0.596306
0.596306
0.596306
0.596306
0.596306
0.596306
0.596307
0.596307
0.596307
0.596307
0.596308
0.596308
0.596308
0.596309
0.596309
0.596309
0.59631
0.59631
0.596311
0.596311
0.596311
0.596312
0.596312
0.596313
0.596313
0.596314
0.596314
0.596315
0.596315
0.596315
0.596316
0.596317
0.596318
0.596318
0.596318
0.596319
0.59632
0.596321
0.596322
0.596322
0.596322
0.596323
0.596324
0.596325
0.596325
0.596326
0.596327
0.596328
0.596329
0.596329
0.59633
0.596331
0.596332
0.596333
0.596333
0.596334
0.596335
0.596337
0.596338
0.596338
0.596339
0.59634
0.596341
0.596343
0.596343
0.596344
0.596345
0.596347
0.596348
0.596348
0.596349
0.596351
0.596352
0.596354
0.596354
0.596355
0.596356
0.596358
0.596359
0.596359
0.596361
0.596363
0.596364
0.596366
0.596366
0.596367
0.596369
0.596371
0.596372
0.596372
0.596374
0.596376
0.596378
0.596379
0.596379
0.596381
0.596383
0.596385
0.596387
0.596387
0.596388
0.59639
0.596392
0.596394
0.596394
0.596396
0.596398
0.5964
0.596402
0.596402
0.596404
0.596406
0.596408
0.59641
0.59641
0.596413
0.596415
0.596417
0.596419
0.596419
0.596421
0.596424
0.596426
0.596428
0.596428
0.59643
0.596433
0.596435
0.596437
0.596437
0.59644
0.596442
0.596445
0.596447
0.596447
0.596449
0.596452
0.596454
0.596457
0.596457
0.59646
0.596462
0.596465
0.596467
0.596467
0.59647
0.596473
0.596475
0.596478
0.596478
0.596481
0.596483
0.596486
0.596489
0.596489
0.596492
0.596495
0.596497
0.5965
0.5965
0.596503
0.596506
0.596509
0.596512
0.596512
0.596515
0.596518
0.596521
0.596524
0.596524
0.596527
0.59653
0.596533
0.596536
0.596536
0.596539
0.596543
0.596546
0.596549
0.596549
0.596552
0.596556
0.596559
0.596562
0.596562
0.596565
0.596569
0.596572
0.596575
0.596575
0.596579
0.596582
0.596586
0.596589
0.596589
0.596593
0.596596
0.5966
0.596603
0.596603
0.596607
0.59661
0.596614
0.596618
0.596618
0.596621
0.596625
0.596629
0.596632
0.596632
0.596636
0.59664
0.596644
0.596647
0.596647
0.596651
0.596655
0.596659
0.596663
0.596663
0.596667
0.596671
0.596674
0.596678
0.596678
0.596682
0.596686
0.59669
0.596695
0.596695
0.596699
0.596703
0.596707
0.596711
0.596711
0.596715
0.596719
0.596723
0.596728
0.596728
0.596732
0.596736
0.59674
0.596745
0.596745
0.596749
0.596753
0.596758
0.596762
0.596762
0.596767
0.596771
0.596775
0.59678
0.59678
0.596784
0.596789
0.596793
0.596798
0.596798
0.596803
0.596807
0.596812
0.596816
0.596816
0.596821
0.596826
0.596831
0.596835
0.596835
0.59684
0.596845
0.59685
0.596854
0.596854
0.596859
0.596864
0.596869
0.596874
0.596874
0.596879
0.596884
0.596889
0.596894
0.596894
0.596899
0.596904
0.596909
0.596914
0.596914
0.596919
0.596924
0.596929
0.596934
0.596934
0.596939
0.596945
0.59695
0.596955
0.596955
0.59696
0.596965
0.596971
0.596976
0.596976
0.596981
0.596987
0.596992
0.596998
0.596998
0.597003
0.597008
0.597014
0.597019
0.597019
0.597025
0.59703
0.597036
0.597042
0.597042
0.597047
0.597053
0.597058
0.597064
0.597064
0.59707
0.597075
0.597081
0.597087
0.597087
0.597093
0.597098
0.597104
0.59711
0.59711
0.597116
0.597122
0.597128
0.597133
0.597133
0.597139
0.597145
0.597151
0.597157
0.597157
0.597163
0.597169
0.597175
0.597181
0.597181
0.597188
0.597194
0.5972
0.597206
0.597206
0.597212
0.597218
0.597225
0.597231
0.597231
0.597237
0.597243
0.59725
0.597256
0.597256
0.597262
0.597269
0.597275
0.597282
0.597282
0.597288
0.597294
0.597301
0.597307
0.597307
0.597314
0.59732
0.597327
0.597334
0.597334
0.59734
0.597347
0.597353
0.59736
0.59736
0.597367
0.597373
0.59738
0.597387
0.597387
0.597394
0.597401
0.597407
0.597414
0.597414
0.597421
0.597428
0.597435
0.597442
0.597442
0.597449
0.597456
0.597463
0.59747
0.59747
0.597477
0.597484
0.597491
0.597498
0.597498
0.597505
0.597512
0.597519
0.597526
0.597526
0.597533
0.597541
0.597548
0.597555
0.597555
0.597562
0.59757
0.597577
0.597584
0.597584
0.597592
0.597599
0.597607
0.597614
0.597614
0.597621
0.597629
0.597636
0.597644
0.597644
0.597651
0.597659
0.597666
0.597674
0.597674
0.597682
0.597689
0.597697
0.597705
0.597705
0.597712
0.59772
0.597728
0.597736
0.597736
0.597743
0.597751
0.597759
0.597767
0.597767
0.597775
0.597783
0.59779
0.597798
0.597798
0.597806
0.597814
0.597822
0.59783
0.59783
0.597838
0.597846
0.597854
0.597862
0.597862
0.597871
0.597879
0.597887
0.597895
0.597895
0.597903
0.597911
0.59792
0.597928
0.597928
0.597936
0.597945
0.597953
0.597961
0.597961
0.59797
0.597978
0.597986
0.597995
0.597995
0.598003
0.598012
0.59802
0.598029
0.598029
0.598037
0.598046
0.598054
0.598063
0.598063
0.598072
0.59808
0.598089
0.598098
0.598098
0.598106
0.598115
0.598124
0.598132
0.598132
0.598141
0.59815
0.598159
0.598168
0.598168
0.598177
0.598186
0.598194
0.598203
0.598203
0.598212
0.598221
0.59823
0.598239
0.598239
0.598248
0.598257
0.598266
0.598276
0.598276
0.598285
0.598294
0.598303
0.598312
0.598312
0.598321
0.598331
0.59834
0.598349
0.598349
0.598358
0.598368
0.598377
0.598386
0.598386
0.598396
0.598405
0.598415
0.598424
0.598424
0.598433
0.598443
0.598452
0.598462
0.598462
0.598471
0.598481
0.598491
0.5985
0.5985
0.59851
0.598519
0.598529
0.598539
0.598539
0.598548
0.598558
0.598568
0.598578
0.598578
0.598587
0.598597
0.598607
0.598617
0.598617
0.598627
0.598637
0.598647
0.598657
0.598657
0.598667
0.598677
0.598687
0.598697
0.598697
0.598707
0.598717
0.598727
0.598737
0.598737
0.598747
0.598757
0.598767
0.598777
0.598777
0.598788
0.598798
0.598808
0.598818
0.598818
0.598829
0.598839
0.598849
0.59886
0.59886
0.59887
0.59888
0.598891
0.598901
0.598901
0.598912
0.598922
0.598933
0.598943
0.598943
0.598954
0.598964
0.598975
0.598986
0.598986
0.598996
0.599007
0.599017
0.599028
0.599028
0.599039
0.59905
0.59906
0.599071
0.599071
0.599082
0.599093
0.599104
0.599114
0.599114
0.599125
0.599136
0.599147
0.599158
0.599158
0.599169
0.59918
0.599191
0.599202
0.599202
0.599213
0.599224
0.599235
0.599246
0.599246
0.599257
0.599268
0.59928
0.599291
0.599291
0.599302
0.599313
0.599325
0.599336
0.599336
0.599347
0.599358
0.59937
0.599381
0.599381
0.599392
0.599404
0.599415
0.599427
0.599427
0.599438
0.59945
0.599461
0.599473
0.599473
0.599484
0.599496
0.599507
0.599519
0.599519
0.599531
0.599542
0.599554
0.599566
0.599566
0.599577
0.599589
0.599601
0.599612
0.599612
0.599624
0.599636
0.599648
0.59966
0.59966
0.599672
0.599684
0.599695
0.599707
0.599707
0.599719
0.599731
0.599743
0.599755
0.599755
0.599767
0.599779
0.599791
0.599804
0.599804
0.599816
0.599828
0.59984
0.599852
0.599852
0.599864
0.599877
0.599889
0.599901
0.599901
0.599913
0.599926
0.599938
0.59995
0.59995
0.599963
0.599975
0.599988
0.6
0.6
0.600012
0.600025
0.600037
0.60005
0.60005
0.600062
0.600075
0.600088
0.6001
0.6001
0.600113
0.600125
0.600138
0.600151
0.600151
0.600163
0.600176
0.600189
0.600202
0.600202
0.600214
0.600227
0.60024
0.600253
0.600253
0.600266
0.600279
0.600292
0.600305
0.600305
0.600318
0.60033
0.600343
0.600356
0.600356
0.60037
0.600383
0.600396
0.600409
0.600409
0.600422
0.600435
0.600448
0.600461
0.600461
0.600475
0.600488
0.600501
0.600514
0.600514
0.600528
0.600541
0.600554
0.600567
0.600567
0.600581
0.600594
0.600608
0.600621
0.600621
0.600635
0.600648
0.600661
0.600675
0.600675
0.600689
0.600702
0.600716
0.600729
0.600729
0.600743
0.600756
0.60077
0.600784
0.600784
0.600797
0.600811
0.600825
0.600839
0.600839
0.600852
0.600866
0.60088
0.600894
0.600894
0.600908
0.600922
0.600936
0.600949
0.600949
0.600963
0.600977
0.600991
0.601005
0.601005
0.601019
0.601033
0.601047
0.601062
0.601062
0.601076
0.60109
0.601104
0.601118
0.601118
0.601132
0.601147
0.601161
0.601175
0.601175
0.601189
0.601204
0.601218
0.601232
0.601232
0.601247
0.601261
0.601275
0.60129
0.60129
0.601304
0.601319
0.601333
0.601348
0.601348
0.601362
0.601377
0.601391
0.601406
0.601406
0.60142
0.601435
0.60145
0.601464
0.601464
0.601479
0.601494
0.601508
0.601523
0.601523
0.601538
0.601553
0.601568
0.601582
0.601582
0.601597
0.601612
0.601627
0.601642
0.601642
0.601657
0.601672
0.601687
0.601702
0.601702
0.601717
0.601732
0.601747
0.601762
0.601762
0.601777
0.601792
0.601807
0.601822
0.601822
0.601838
0.601853
0.601868
0.601883
0.601883
0.601898
0.601914
0.601929
0.601944
0.601944
0.60196
0.601975
0.60199
0.602006
0.602006
0.602021
0.602037
0.602052
0.602068
0.602068
0.602083
0.602099
0.602114
0.60213
0.60213
0.602145
0.602161
0.602177
0.602192
0.602192
0.602208
0.602224
0.602239
0.602255
0.602255
0.602271
0.602287
0.602302
0.602318
0.602318
0.602334
0.60235
0.602366
0.602382
0.602382
0.602398
0.602414
0.602429
0.602445
0.602445
0.602461
0.602477
0.602493
0.60251
0.60251
0.602526
0.602542
0.602558
0.602574
0.602574
0.60259
0.602606
0.602623
0.602639
0.602639
0.602655
0.602671
0.602688
0.602704
0.602704
0.60272
0.602736
0.602753
0.602769
0.602769
0.602786
0.602802
0.602818
0.602835
0.602835
0.602851
0.602868
0.602884
0.602901
0.602901
0.602918
0.602934
0.602951
0.602967
0.602967
0.602984
0.603001
0.603017
0.603034
0.603034
0.603051
0.603068
0.603084
0.603101
0.603101
0.603118
0.603135
0.603152
0.603169
0.603169
0.603185
0.603202
0.603219
0.603236
0.603236
0.603253
0.60327
0.603287
0.603304
0.603304
0.603321
0.603338
0.603356
0.603373
0.603373
0.60339
0.603407
0.603424
0.603441
0.603441
0.603459
0.603476
0.603493
0.60351
0.60351
0.603528
0.603545
0.603562
0.60358
0.60358
0.603597
0.603614
0.603632
0.603649
0.603649
0.603667
0.603684
0.603702
0.603719
0.603719
0.603737
0.603754
0.603772
0.60379
0.60379
0.603807
0.603825
0.603842
0.60386
0.60386
0.603878
0.603896
0.603913
0.603931
0.603931
0.603949
0.603967
0.603985
0.604002
0.604002
0.60402
0.604038
0.604056
0.604074
0.604074
0.604092
0.60411
0.604128
0.604146
0.604146
0.604164
0.604182
0.6042
0.604218
0.604218
0.604236
0.604254
0.604273
0.604291
0.604291
0.604309
0.604327
0.604345
0.604364
0.604364
0.604382
0.6044
0.604418
0.604437
0.604437
0.604455
0.604474
0.604492
0.60451
0.60451
0.604529
0.604547
0.604566
0.604584
0.604584
0.604603
0.604621
0.60464
0.604658
0.604658
0.604677
0.604696
0.604714
0.604733
0.604733
0.604752
0.60477
0.604789
0.604808
0.604808
0.604827
0.604845
0.604864
0.604883
0.604883
0.604902
0.604921
0.604939
0.604958
0.604958
0.604977
0.604996
0.605015
0.605034
0.605034
0.605053
0.605072
0.605091
0.60511
0.60511
0.605129
0.605148
0.605168
0.605187
0.605187
0.605206
0.605225
0.605244
0.605263
0.605263
0.605283
0.605302
0.605321
0.60534
0.60534
0.605359
0.605379
0.605398
0.605417
0.605417
0.605436
0.605455
0.605474
0.605493
0.605493
0.605511
0.60553
0.605549
0.605567
0.605567
0.605586
0.605605
0.605623
0.605642
0.605642
0.60566
0.605679
0.605697
0.605716
0.605716
0.605735
0.605753
0.605772
0.60579
0.60579
0.605809
0.605828
0.605846
0.605865
0.605865
0.605884
0.605902
0.605921
0.60594
0.60594
0.605959
0.605977
0.605996
0.606015
0.606015
0.606034
0.606053
0.606072
0.606091
0.606091
0.606109
0.606128
0.606147
0.606166
0.606166
0.606185
0.606204
0.606223
0.606242
0.606242
0.606262
0.606281
0.6063
0.606319
0.606319
0.606338
0.606357
0.606376
0.606396
0.606396
0.606415
0.606434
0.606453
0.606473
0.606473
0.606492
0.606511
0.606531
0.60655
0.60655
0.606569
0.606589
0.606608
0.606627
0.606627
0.606647
0.606666
0.606686
0.606705
0.606705
0.606725
0.606744
0.606764
0.606784
0.606784
0.606803
0.606823
0.606842
0.606862
0.606862
0.606882
0.606901
0.606921
0.606941
0.606941
0.606961
0.60698
0.607
0.60702
0.60702
0.60704
0.60706
0.607079
0.607099
0.607099
0.607119
0.607139
0.607159
0.607179
0.607179
0.607199
0.607219
0.607239
0.607259
0.607259
0.607279
0.607299
0.607319
0.607339
0.607339
0.607359
0.60738
0.6074
0.60742
0.60742
0.60744
0.60746
0.607481
0.607501
0.607501
0.607521
0.607541
0.607562
0.607582
0.607582
0.607602
0.607623
0.607643
0.607663
0.607663
0.607684
0.607704
0.607725
0.607745
0.607745
0.607766
0.607786
0.607807
0.607827
0.607827
0.607848
0.607868
0.607889
0.60791
0.60791
0.60793
0.607951
0.607972
0.607992
0.607992
0.608013
0.608034
0.608055
0.608075
0.608075
0.608096
0.608117
0.608138
0.608159
0.608159
0.608179
0.6082
0.608221
0.608242
0.608242
0.608263
0.608284
0.608305
0.608326
0.608326
0.608347
0.608368
0.608389
0.60841
0.60841
0.608431
0.608452
0.608473
0.608495
0.608495
0.608516
0.608537
0.608558
0.608579
0.608579
0.608601
0.608622
0.608643
0.608664
0.608664
0.608686
0.608707
0.608728
0.60875
0.60875
0.608771
0.608793
0.608814
0.608835
0.608835
0.608857
0.608878
0.6089
0.608921
0.608921
0.608943
0.608964
0.608986
0.609008
0.609008
0.609029
0.609051
0.609072
0.609094
0.609094
0.609116
0.609137
0.609159
0.609181
0.609181
0.609203
0.609224
0.609246
0.609268
0.609268
0.60929
0.609312
0.609333
0.609355
0.609355
0.609377
0.609399
0.609421
0.609443
0.609443
0.609465
0.609487
0.609509
0.609531
0.609531
0.609553
0.609575
0.609597
0.609619
0.609619
0.609641
0.609664
0.609686
0.609708
0.609708
0.60973
0.609752
0.609775
0.609797
0.609797
0.609819
0.609841
0.609864
0.609886
0.609886
0.609908
0.609931
0.609953
0.609975
0.609975
0.609998
0.61002
0.610043
0.610065
0.610065
0.610088
0.61011
0.610133
0.610155
0.610155
0.610178
0.6102
0.610223
0.610245
0.610245
0.610268
0.610291
0.610313
0.610336
0.610336
0.610359
0.610382
0.610404
0.610427
0.610427
0.61045
0.610473
0.610495
0.610518
0.610518
0.610541
0.610564
0.610587
0.61061
0.61061
0.610633
0.610656
0.610679
0.610702
0.610702
0.610725
0.610748
0.610771
0.610794
0.610794
0.610817
0.61084
0.610863
0.610886
0.610886
0.610909
0.610932
0.610956
0.610979
0.610979
0.611002
0.611025
0.611048
0.611072
0.611072
0.611095
0.611118
0.611142
0.611165
0.611165
0.611188
0.611212
0.611235
0.611258
0.611258
0.611282
0.611305
0.611329
0.611352
0.611352
0.611376
0.611399
0.611423
0.611446
0.611446
0.61147
0.611494
0.611517
0.611541
0.611541
0.611564
0.611588
0.611612
0.611636
0.611636
0.611659
0.611683
0.611707
0.611731
0.611731
0.611754
0.611778
0.611802
0.611826
0.611826
0.61185
0.611874
0.611897
0.611921
0.611921
0.611945
0.611969
0.611993
0.612017
0.612017
0.612041
0.612065
0.612089
0.612113
0.612113
0.612138
0.612162
0.612186
0.61221
0.61221
0.612234
0.612258
0.612282
0.612307
0.612307
0.612331
0.612355
0.612379
0.612404
0.612404
0.612428
0.612452
0.612477
0.612501
0.612501
0.612525
0.61255
0.612574
0.612599
0.612599
0.612623
0.612647
0.612672
0.612696
0.612696
0.612721
0.612745
0.61277
0.612795
0.612795
0.612819
0.612844
0.612868
0.612893
0.612893
0.612918
0.612942
0.612967
0.612992
0.612992
0.613017
0.613041
0.613066
0.613091
0.613091
0.613116
0.61314
0.613165
0.61319
0.61319
0.613215
0.61324
0.613265
0.61329
0.61329
0.613315
0.61334
0.613365
0.61339
0.61339
0.613415
0.61344
0.613465
0.61349
0.61349
0.613515
0.61354
0.613565
0.61359
0.61359
0.613616
0.613641
0.613666
0.613691
0.613691
0.613716
0.613742
0.613767
0.613792
0.613792
0.613817
0.613843
0.613868
0.613893
0.613893
0.613919
0.613944
0.61397
0.613995
0.613995
0.614021
0.614046
0.614072
0.614097
0.614097
0.614123
0.614148
0.614174
0.614199
0.614199
0.614225
0.61425
0.614276
0.614302
0.614302
0.614327
0.614353
0.614379
0.614404
0.614404
0.61443
0.614456
0.614482
0.614507
0.614507
0.614533
0.614559
0.614585
0.614611
0.614611
0.614637
0.614663
0.614688
0.614714
0.614714
0.61474
0.614766
0.614792
0.614818
0.614818
0.614844
0.61487
0.614896
0.614922
0.614922
0.614949
0.614975
0.615001
0.615027
0.615027
0.615053
0.615079
0.615105
0.615132
0.615132
0.615158
0.615184
0.61521
0.615237
0.615237
0.615263
0.615289
0.615316
0.615342
0.615342
0.615368
0.615395
0.615421
0.615448
0.615448
0.615474
0.615501
0.615527
0.615554
0.615554
0.61558
0.615607
0.615633
0.61566
0.61566
0.615686
0.615713
0.61574
0.615766
0.615766
0.615793
0.615819
0.615846
0.615873
0.615873
0.6159
0.615926
0.615953
0.61598
0.61598
0.616007
0.616033
0.61606
0.616087
0.616087
0.616114
0.616141
0.616168
0.616195
0.616195
0.616222
0.616249
0.616276
0.616303
0.616303
0.61633
0.616357
0.616384
0.616411
0.616411
0.616438
0.616465
0.616492
0.616519
0.616519
0.616546
0.616573
0.616601
0.616628
0.616628
0.616655
0.616682
0.61671
0.616737
0.616737
0.616764
0.616791
0.616819
0.616846
0.616846
0.616873
0.616901
0.616928
0.616956
0.616956
0.616983
0.617011
0.617038
0.617065
0.617065
0.617093
0.61712
0.617148
0.617176
0.617176
0.617203
0.617231
0.617258
0.617286
0.617286
0.617314
0.617341
0.617369
0.617397
0.617397
0.617424
0.617452
0.61748
0.617507
0.617507
0.617535
0.617563
0.617591
0.617618
0.617618
0.617646
0.617674
0.617702
0.617729
0.617729
0.617757
0.617785
0.617812
0.61784
0.61784
0.617867
0.617895
0.617922
0.617949
0.617949
0.617976
0.618003
0.61803
0.618057
0.618057
0.618084
0.618111
0.618137
0.618164
0.618164
0.618191
0.618217
0.618244
0.61827
0.61827
0.618297
0.618323
0.61835
0.618377
0.618377
0.618403
0.61843
0.618456
0.618483
0.618483
0.61851
0.618536
0.618563
0.61859
0.61859
0.618616
0.618643
0.61867
0.618697
0.618697
0.618723
0.61875
0.618777
0.618804
0.618804
0.61883
0.618857
0.618884
0.618911
0.618911
0.618938
0.618965
0.618992
0.619019
0.619019
0.619046
0.619073
0.6191
0.619127
0.619127
0.619154
0.619181
0.619208
0.619235
0.619235
0.619262
0.619289
0.619316
0.619343
0.619343
0.61937
0.619397
0.619425
0.619452
0.619452
0.619479
0.619506
0.619534
0.619561
0.619561
0.619588
0.619615
0.619643
0.61967
0.61967
0.619697
0.619725
0.619752
0.619779
0.619779
0.619807
0.619834
0.619862
0.619889
0.619889
0.619917
0.619944
0.619972
0.619999
0.619999
0.620027
0.620054
0.620082
0.620109
0.620109
0.620137
0.620164
0.620192
0.62022
0.62022
0.620247
0.620275
0.620303
0.62033
0.62033
0.620358
0.620386
0.620414
0.620441
0.620441
0.620469
0.620497
0.620525
0.620553
0.620553
0.620581
0.620608
0.620636
0.620664
0.620664
0.620692
0.62072
0.620748
0.620776
0.620776
0.620804
0.620832
0.62086
0.620888
0.620888
0.620916
0.620944
0.620972
0.621
0.621
0.621028
0.621056
0.621084
0.621113
0.621113
0.621141
0.621169
0.621197
0.621225
0.621225
0.621254
0.621282
0.62131
0.621338
0.621338
0.621367
0.621395
0.621423
0.621452
0.621452
0.62148
0.621508
0.621537
0.621565
0.621565
0.621594
0.621622
0.62165
0.621679
0.621679
0.621707
0.621736
0.621764
0.621793
0.621793
0.621821
0.62185
0.621879
0.621907
0.621907
0.621936
0.621964
0.621993
0.622022
0.622022
0.62205
0.622079
0.622108
0.622136
0.622136
0.622165
0.622194
0.622223
0.622252
0.622252
0.62228
0.622309
0.622338
0.622367
0.622367
0.622396
0.622425
0.622453
0.622482
0.622482
0.622511
0.62254
0.622569
0.622598
0.622598
0.622627
0.622656
0.622685
0.622714
0.622714
0.622743
0.622772
0.622801
0.62283
0.62283
0.62286
0.622889
0.622918
0.622947
0.622947
0.622976
0.623005
0.623035
0.623064
0.623064
0.623093
0.623122
0.623151
0.623181
0.623181
0.62321
0.623239
0.623269
0.623298
0.623298
0.623327
0.623357
0.623386
0.623416
0.623416
0.623445
0.623474
0.623504
0.623533
0.623533
0.623563
0.623592
0.623622
0.623651
0.623651
0.623681
0.62371
0.62374
0.62377
0.62377
0.623799
0.623829
0.623859
0.623888
0.623888
0.623918
0.623948
0.623977
0.624007
0.624007
0.624037
0.624066
0.624096
0.624126
0.624126
0.624156
0.624186
0.624215
0.624245
0.624245
0.624275
0.624305
0.624335
0.624365
0.624365
0.624395
0.624425
0.624455
0.624485
0.624485
0.624514
0.624544
0.624575
0.624605
0.624605
0.624635
0.624665
0.624695
0.624725
0.624725
0.624755
0.624785
0.624815
0.624845
0.624845
0.624875
0.624906
0.624936
0.624966
0.624966
0.624996
0.625027
0.625057
0.625087
0.625087
0.625117
0.625148
0.625178
0.625208
0.625208
0.625239
0.625269
0.625299
0.62533
0.62533
0.62536
0.625391
0.625421
0.625452
0.625452
0.625482
0.625512
0.625543
0.625573
0.625573
0.625604
0.625635
0.625665
0.625696
0.625696
0.625726
0.625757
0.625788
0.625818
0.625818
0.625849
0.62588
0.62591
0.625941
0.625941
0.625972
0.626002
0.626033
0.626064
0.626064
0.626095
0.626125
0.626156
0.626187
0.626187
0.626218
0.626249
0.62628
0.626311
0.626311
0.626341
0.626372
0.626403
0.626434
0.626434
0.626465
0.626496
0.626527
0.626558
0.626558
0.626589
0.62662
0.626651
0.626682
0.626682
0.626713
0.626745
0.626776
0.626807
0.626807
0.626838
0.626869
0.6269
0.626931
0.626931
0.626963
0.626994
0.627025
0.627056
0.627056
0.627088
0.627119
0.62715
0.627181
0.627181
0.627213
0.627244
0.627276
0.627307
0.627307
0.627338
0.62737
0.627401
0.627433
0.627433
0.627464
0.627495
0.627527
0.627558
0.627558
0.62759
0.627621
0.627653
0.627685
0.627685
0.627716
0.627748
0.627779
0.627811
0.627811
0.627843
0.627874
0.627906
0.627937
0.627937
0.627969
0.628001
0.628033
0.628064
0.628064
0.628096
0.628128
0.62816
0.628191
0.628191
0.628223
0.628255
0.628287
0.628319
0.628319
0.628351
0.628383
0.628414
0.628446
0.628446
0.628478
0.62851
0.628542
0.628574
0.628574
0.628606
0.628638
0.62867
0.628702
0.628702
0.628734
0.628766
0.628798
0.62883
0.62883
0.628862
0.628894
0.628926
0.628958
0.628958
0.62899
0.629022
0.629053
0.629085
0.629085
0.629117
0.629148
0.62918
0.629211
0.629211
0.629242
0.629274
0.629305
0.629336
0.629336
0.629367
0.629398
0.629428
0.629459
0.629459
0.62949
0.62952
0.629551
0.629581
0.629581
0.629612
0.629642
0.629673
0.629703
0.629703
0.629734
0.629764
0.629795
0.629825
0.629825
0.629856
0.629886
0.629917
0.629947
0.629947
0.629978
0.630008
0.630039
0.630069
0.630069
0.6301
0.63013
0.630161
0.630192
0.630192
0.630222
0.630253
0.630284
0.630314
0.630314
0.630345
0.630376
0.630406
0.630437
0.630437
0.630468
0.630499
0.630529
0.63056
0.63056
0.630591
0.630622
0.630653
0.630683
0.630683
0.630714
0.630745
0.630776
0.630807
0.630807
0.630838
0.630869
0.6309
0.630931
0.630931
0.630961
0.630992
0.631023
0.631054
0.631054
0.631085
0.631116
0.631148
0.631179
0.631179
0.63121
0.631241
0.631272
0.631303
0.631303
0.631334
0.631365
0.631396
0.631427
0.631427
0.631459
0.63149
0.631521
0.631552
0.631552
0.631583
0.631615
0.631646
0.631677
0.631677
0.631709
0.63174
0.631771
0.631802
0.631802
0.631834
0.631865
0.631897
0.631928
0.631928
0.631959
0.631991
0.632022
0.632054
0.632054
0.632085
0.632116
0.632148
0.632179
0.632179
0.632211
0.632242
0.632274
0.632305
0.632305
0.632337
0.632369
0.6324
0.632432
0.632432
0.632463
0.632495
0.632527
0.632558
0.632558
0.63259
0.632622
0.632653
0.632685
0.632685
0.632717
0.632748
0.63278
0.632812
0.632812
0.632844
0.632875
0.632907
0.632939
0.632939
0.632971
0.633003
0.633035
0.633066
0.633066
0.633098
0.63313
0.633162
0.633194
0.633194
0.633226
0.633258
0.63329
0.633322
0.633322
0.633354
0.633386
0.633418
0.63345
0.63345
0.633482
0.633514
0.633546
0.633578
0.633578
0.63361
0.633642
0.633674
0.633707
0.633707
0.633739
0.633771
0.633803
0.633835
0.633835
0.633867
0.6339
0.633932
0.633964
0.633964
0.633996
0.634029
0.634061
0.634093
0.634093
0.634125
0.634158
0.63419
0.634222
0.634222
0.634255
0.634287
0.63432
0.634352
0.634352
0.634384
0.634417
0.634449
0.634482
0.634482
0.634514
0.634547
0.634579
0.634612
0.634612
0.634644
0.634677
0.634709
0.634742
0.634742
0.634774
0.634807
0.634839
0.634872
0.634872
0.634905
0.634937
0.63497
0.635003
0.635003
0.635035
0.635068
0.635101
0.635133
0.635133
0.635166
0.635199
0.635232
0.635264
0.635264
0.635297
0.63533
0.635363
0.635396
0.635396
0.635428
0.635461
0.635494
0.635527
0.635527
0.63556
0.635593
0.635626
0.635659
0.635659
0.635692
0.635725
0.635758
0.63579
0.63579
0.635823
0.635856
0.635889
0.635923
0.635923
0.635956
0.635989
0.636022
0.636055
0.636055
0.636088
0.636121
0.636154
0.636187
0.636187
0.63622
0.636254
0.636287
0.63632
0.63632
0.636353
0.636386
0.63642
0.636453
0.636453
0.636486
0.636519
0.636553
0.636586
0.636586
0.636619
0.636652
0.636686
0.636719
0.636719
0.636753
0.636786
0.636819
0.636853
0.636853
0.636886
0.636919
0.636953
0.636986
0.636986
0.63702
0.637053
0.637087
0.63712
0.63712
0.637154
0.637187
0.637221
0.637254
0.637254
0.637288
0.637322
0.637355
0.637389
0.637389
0.637422
0.637456
0.63749
0.637523
0.637523
0.637557
0.637591
0.637624
0.637658
0.637658
0.637692
0.637725
0.637759
0.637793
0.637793
0.637827
0.637861
0.637894
0.637928
0.637928
0.637962
0.637996
0.63803
0.638064
0.638064
0.638097
0.638131
0.638165
0.638199
0.638199
0.638233
0.638267
0.638301
0.638335
0.638335
0.638369
0.638403
0.638437
0.638471
0.638471
0.638505
0.638539
0.638573
0.638607
0.638607
0.638641
0.638675
0.638709
0.638743
0.638743
0.638777
0.638812
0.638846
0.63888
0.63888
0.638914
0.638948
0.638982
0.639016
0.639016
0.63905
0.639084
0.639118
0.639152
0.639152
0.639185
0.639219
0.639253
0.639286
0.639286
0.63932
0.639353
0.639387
0.63942
0.63942
0.639453
0.639486
0.639519
0.639552
0.639552
0.639584
0.639617
0.63965
0.639682
0.639682
0.639715
0.639747
0.63978
0.639812
0.639812
0.639844
0.639877
0.639909
0.639941
0.639941
0.639974
0.640006
0.640038
0.64007
0.64007
0.640103
0.640135
0.640167
0.6402
0.6402
0.640232
0.640264
0.640297
0.640329
0.640329
0.640362
0.640394
0.640426
0.640459
0.640459
0.640491
0.640524
0.640556
0.640589
0.640589
0.640621
0.640653
0.640686
0.640718
0.640718
0.640751
0.640784
0.640816
0.640849
0.640849
0.640881
0.640914
0.640946
0.640979
0.640979
0.641012
0.641044
0.641077
0.641109
0.641109
0.641142
0.641175
0.641207
0.64124
0.64124
0.641273
0.641306
0.641338
0.641371
0.641371
0.641404
0.641437
0.641469
0.641502
0.641502
0.641535
0.641568
0.641601
0.641633
0.641633
0.641666
0.641699
0.641732
0.641765
0.641765
0.641798
0.641831
0.641864
0.641897
0.641897
0.641929
0.641962
0.641995
0.642028
0.642028
0.642061
0.642094
0.642127
0.64216
0.64216
0.642193
0.642226
0.642259
0.642293
0.642293
0.642326
0.642359
0.642392
0.642425
0.642425
0.642458
0.642491
0.642524
0.642557
0.642557
0.642591
0.642624
0.642657
0.64269
0.64269
0.642723
0.642757
0.64279
0.642823
0.642823
0.642856
0.64289
0.642923
0.642956
0.642956
0.64299
0.643023
0.643056
0.643089
0.643089
0.643123
0.643156
0.64319
0.643223
0.643223
0.643256
0.64329
0.643323
0.643357
0.643357
0.64339
0.643424
0.643457
0.64349
0.64349
0.643524
0.643557
0.643591
0.643624
0.643624
0.643658
0.643692
0.643725
0.643759
0.643759
0.643792
0.643826
0.643859
0.643893
0.643893
0.643927
0.64396
0.643994
0.644028
0.644028
0.644061
0.644095
0.644129
0.644162
0.644162
0.644196
0.64423
0.644263
0.644297
0.644297
0.644331
0.644365
0.644399
0.644432
0.644432
0.644466
0.6445
0.644534
0.644568
0.644568
0.644601
0.644635
0.644669
0.644703
0.644703
0.644737
0.644771
0.644805
0.644839
0.644839
0.644873
0.644907
0.644941
0.644975
0.644975
0.645009
0.645043
0.645077
0.645111
0.645111
0.645145
0.645179
0.645213
0.645247
0.645247
0.645281
0.645315
0.645349
0.645383
0.645383
0.645417
0.645451
0.645485
0.64552
0.64552
0.645554
0.645588
0.645622
0.645656
0.645656
0.645691
0.645725
0.645759
0.645793
0.645793
0.645827
0.645862
0.645896
0.64593
0.64593
0.645965
0.645999
0.646033
0.646068
0.646068
0.646102
0.646136
0.646171
0.646205
0.646205
0.646239
0.646274
0.646308
0.646343
0.646343
0.646377
0.646411
0.646446
0.64648
0.64648
0.646515
0.646549
0.646584
0.646618
0.646618
0.646653
0.646687
0.646722
0.646756
0.646756
0.646791
0.646826
0.64686
0.646895
0.646895
0.646929
0.646964
0.646999
0.647033
0.647033
0.647068
0.647103
0.647137
0.647172
0.647172
0.647207
0.647241
0.647276
0.647311
0.647311
0.647345
0.64738
0.647415
0.64745
0.64745
0.647484
0.647519
0.647554
0.647589
0.647589
0.647624
0.647659
0.647693
0.647728
0.647728
0.647763
0.647798
0.647833
0.647868
0.647868
0.647902
0.647937
0.647972
0.648007
0.648007
0.648042
0.648076
0.648111
0.648146
0.648146
0.64818
0.648215
0.648249
0.648284
0.648284
0.648318
0.648352
0.648386
0.64842
0.64842
0.648454
0.648488
0.648522
0.648556
0.648556
0.648589
0.648623
0.648656
0.64869
0.64869
0.648723
0.648756
0.648789
0.648822
0.648822
0.648855
0.648888
0.648921
0.648954
0.648954
0.648987
0.64902
0.649053
0.649086
0.649086
0.649119
0.649152
0.649184
0.649217
0.649217
0.64925
0.649283
0.649316
0.649349
0.649349
0.649382
0.649414
0.649447
0.64948
0.64948
0.649513
0.649546
0.649579
0.649612
0.649612
0.649645
0.649678
0.649711
0.649744
0.649744
0.649777
0.64981
0.649843
0.649876
0.649876
0.649909
0.649942
0.649975
0.650008
0.650008
0.650041
0.650074
0.650108
0.650141
0.650141
0.650174
0.650207
0.65024
0.650273
0.650273
0.650306
0.65034
0.650373
0.650406
0.650406
0.650439
0.650472
0.650506
0.650539
0.650539
0.650572
0.650605
0.650638
0.650672
0.650672
0.650705
0.650738
0.650772
0.650805
0.650805
0.650838
0.650872
0.650905
0.650938
0.650938
0.650972
0.651005
0.651038
0.651072
0.651072
0.651105
0.651139
0.651172
0.651205
0.651205
0.651239
0.651272
0.651306
0.651339
0.651339
0.651373
0.651406
0.65144
0.651473
0.651473
0.651507
0.65154
0.651574
0.651607
0.651607
0.651641
0.651674
0.651708
0.651742
0.651742
0.651775
0.651809
0.651842
0.651876
0.651876
0.65191
0.651943
0.651977
0.652011
0.652011
0.652044
0.652078
0.652112
0.652145
0.652145
0.652179
0.652213
0.652246
0.65228
0.65228
0.652314
0.652348
0.652381
0.652415
0.652415
0.652449
0.652483
0.652517
0.65255
0.65255
0.652584
0.652618
0.652652
0.652686
0.652686
0.65272
0.652754
0.652787
0.652821
0.652821
0.652855
0.652889
0.652923
0.652957
0.652957
0.652991
0.653025
0.653059
0.653093
0.653093
0.653127
0.653161
0.653195
0.653229
0.653229
0.653263
0.653297
0.653331
0.653365
0.653365
0.653399
0.653433
0.653467
0.653501
0.653501
0.653535
0.653569
0.653603
0.653638
0.653638
0.653672
0.653706
0.65374
0.653774
0.653774
0.653808
0.653843
0.653877
0.653911
0.653911
0.653945
0.653979
0.654014
0.654048
0.654048
0.654082
0.654116
0.654151
0.654185
0.654185
0.654219
0.654253
0.654288
0.654322
0.654322
0.654356
0.654391
0.654425
0.654459
0.654459
0.654494
0.654528
0.654562
0.654597
0.654597
0.654631
0.654666
0.6547
0.654735
0.654735
0.654769
0.654803
0.654838
0.654872
0.654872
0.654907
0.654941
0.654976
0.65501
0.65501
0.655045
0.655079
0.655114
0.655148
0.655148
0.655183
0.655218
0.655252
0.655287
0.655287
0.655321
0.655356
0.65539
0.655425
0.655425
0.65546
0.655494
0.655529
0.655564
0.655564
0.655598
0.655633
0.655668
0.655702
0.655702
0.655737
0.655772
0.655806
0.655841
0.655841
0.655876
0.65591
0.655945
0.65598
0.65598
0.656014
0.656049
0.656083
0.656118
0.656118
0.656153
0.656187
0.656221
0.656256
0.656256
0.65629
0.656324
0.656359
0.656393
0.656393
0.656427
0.656461