<?xml version="1.0"?>
<VTKFile type="UnstructuredGrid" version="0.1" byte_order="LittleEndian">
<UnstructuredGrid>
<Piece NumberOfPoints="5000" NumberOfCells="4000">
<PointData Scalars="Reaction 0">
<DataArray type="Float32" Name="Reaction 0" format="ascii">
0.437894
0.437894
0.437894
0.437894
0.437894
0.437894
0.437894
0.437895
0.437895
0.437895
0.437895
0.437895
0.437895
0.437896
0.437896
0.437896
0.437896
0.437897
0.437897
0.437897
0.437897
0.437898
0.437898
0.437899
0.437899
0.437899
0.4379
0.4379
0.437901
0.437902
0.437902
0.437902
0.437903
0.437904
0.437904
0.437904
0.437905
0.437906
0.437907
0.437908
0.437908
0.437908
0.437909
0.43791
0.437911
0.437911
0.437912
0.437913
0.437914
0.437915
0.437915
0.437916
0.437917
0.437918
0.43792
0.43792
0.437921
0.437922
0.437923
0.437924
0.437924
0.437926
0.437927
0.437928
0.43793
0.43793
0.437931
0.437932
0.437934
0.437935
0.437935
0.437937
0.437938
0.43794
0.437941
0.437941
0.437943
0.437945
0.437946
0.437948
0.437948
0.43795
0.437951
0.437953
0.437955
0.437955
0.437957
0.437959
0.43796
0.437962
0.437962
0.437964
0.437966
0.437968
0.43797
0.43797
0.437972
0.437974
0.437976
0.437978
0.437978
0.43798
0.437983
0.437985
0.437987
0.437987
0.437989
0.437991
0.437994
0.437996
0.437996
0.437998
0.438001
0.438003
0.438005
0.438005
0.438008
0.43801
0.438013
0.438015
0.438015
0.438018
0.43802
0.438023
0.438026
0.438026
0.438028
0.438031
0.438034
0.438036
0.438036
0.438039
0.438042
0.438045
0.438047
0.438047
0.43805
0.438053
0.438056
0.438059
0.438059
0.438062
0.438065
0.438068
0.438071
0.438071
0.438074
0.438077
0.43808
0.438083
0.438083
0.438087
0.43809
0.438093
0.438096
0.438096
0.4381
0.438103
0.438106
0.43811
0.43811
0.438113
0.438116
0.43812
0.438123
0.438123
0.438127
0.43813
0.438134
0.438137
0.438137
0.438141
0.438144
0.438148
0.438152
0.438152
0.438155
0.438159
0.438163
0.438167
0.438167
0.438171
0.438174
0.438178
0.438182
0.438182
0.438186
0.43819
0.438194
0.438198
0.438198
0.438202
0.438206
0.43821
0.438214
0.438214
0.438218
0.438222
0.438226
0.438231
0.438231
0.438235
0.438239
0.438243
0.438248
0.438248
0.438252
0.438256
0.438261
0.438265
0.438265
0.43827
0.438274
0.438279
0.438283
0.438283
0.438288
0.438292
0.438297
0.438301
0.438301
0.438306
0.438311
0.438315
0.43832
0.43832
0.438325
0.43833
0.438334
0.438339
0.438339
0.438344
0.438349
0.438354
0.438359
0.438359
0.438364
0.438369
0.438374
0.438379
0.438379
0.438384
0.438389
0.438394
0.438399
0.438399
0.438404
0.43841
0.438415
0.43842
0.43842
0.438425
0.438431
0.438436
0.438441
0.438441
0.438447
0.438452
0.438457
0.438463
0.438463
0.438468
0.438474
0.438479
0.438485
0.438485
0.438491
0.438496
0.438502
0.438507
0.438507
0.438513
0.438519
0.438525
0.43853
0.43853
0.438536
0.438542
0.438548
0.438554
0.438554
0.43856
0.438566
0.438572
0.438578
0.438578
0.438584
0.43859
0.438596
0.438602
0.438602
0.438608
0.438614
0.43862
0.438626
0.438626
0.438633
0.438639
0.438645
0.438651
0.438651
0.438658
0.438664
0.43867
0.438677
0.438677
0.438683
0.43869
0.438696
0.438703
0.438703
0.438709
0.438716
0.438722
0.438729
0.438729
0.438736
0.438742
0.438749
0.438756
0.438756
0.438762
0.438769
0.438776
0.438783
0.438783
0.43879
0.438797
0.438803
0.43881
0.43881
0.438817
0.438824
0.438831
0.438838
0.438838
0.438845
0.438852
0.43886
0.438867
0.438867
0.438874
0.438881
0.438888
0.438895
0.438895
0.438903
0.43891
0.438917
0.438925
0.438925
0.438932
0.43894
0.438947
0.438954
0.438954
0.438962
0.438969
0.438977
0.438984
0.438984
0.438992
0.439
0.439007
0.439015
0.439015
0.439023
0.43903
0.439038
0.439046
0.439046
0.439054
0.439061
0.439069
0.439077
0.439077
0.439085
0.439093
0.439101
0.439109
0.439109
0.439117
0.439125
0.439133
0.439141
0.439141
0.439149
0.439157
0.439166
0.439174
0.439174
0.439182
0.43919
0.439198
0.439207
0.439207
0.439215
0.439223
0.439232
0.43924
0.43924
0.439249
0.439257
0.439265
0.439274
0.439274
0.439283
0.439291
0.4393
0.439308
0.439308
0.439317
0.439326
0.439334
0.439343
0.439343
0.439352
0.43936
0.439369
0.439378
0.439378
0.439387
0.439396
0.439405
0.439414
0.439414
0.439423
0.439432
0.439441
0.43945
0.43945
0.439459
0.439468
0.439477
0.439486
0.439486
0.439495
0.439504
0.439513
0.439523
0.439523
0.439532
0.439541
0.439551
0.43956
0.43956
0.439569
0.439579
0.439588
0.439598
0.439598
0.439607
0.439616
0.439626
0.439636
0.439636
0.439645
0.439655
0.439664
0.439674
0.439674
0.439684
0.439693
0.439703
0.439713
0.439713
0.439723
0.439733
0.439742
0.439752
0.439752
0.439762
0.439772
0.439782
0.439792
0.439792
0.439802
0.439812
0.439822
0.439832
0.439832
0.439842
0.439852
0.439863
0.439873
0.439873
0.439883
0.439893
0.439903
0.439914
0.439914
0.439924
0.439934
0.439945
0.439955
0.439955
0.439965
0.439976
0.439986
0.439997
0.439997
0.440007
0.440018
0.440029
0.440039
0.440039
0.44005
0.44006
0.440071
0.440082
0.440082
0.440093
0.440103
0.440114
0.440125
0.440125
0.440136
0.440147
0.440157
0.440168
0.440168
0.440179
0.44019
0.440201
0.440212
0.440212
0.440223
0.440234
0.440246
0.440257
0.440257
0.440268
0.440279
0.44029
0.440301
0.440301
0.440313
0.440324
0.440335
0.440347
0.440347
0.440358
0.440369
0.440381
0.440392
0.440392
0.440404
0.440415
0.440427
0.440438
0.440438
0.44045
0.440461
0.440473
0.440485
0.440485
0.440496
0.440508
0.44052
0.440532
0.440532
0.440543
0.440555
0.440567
0.440579
0.440579
0.440591
0.440603
0.440615
0.440627
0.440627
0.440638
0.440651
0.440663
0.440675
0.440675
0.440687
0.440699
0.440711
0.440723
0.440723
0.440735
0.440748
0.44076
0.440772
0.440772
0.440784
0.440797
0.440809
0.440821
0.440821
0.440834
0.440846
0.440859
0.440871
0.440871
0.440884
0.440896
0.440909
0.440921
0.440921
0.440934
0.440947
0.440959
0.440972
0.440972
0.440985
0.440998
0.44101
0.441023
0.441023
0.441036
0.441049
0.441062
0.441075
0.441075
0.441088
0.441101
0.441114
0.441127
0.441127
0.44114
0.441153
0.441166
0.441179
0.441179
0.441192
0.441205
0.441218
0.441232
0.441232
0.441245
0.441258
0.441271
0.441285
0.441285
0.441298
0.441311
0.441325
0.441338
0.441338
0.441352
0.441365
0.441379
0.441392
0.441392
0.441406
0.441419
0.441433
0.441447
0.441447
0.44146
0.441474
0.441488
0.441501
0.441501
0.441515
0.441529
0.441543
0.441557
0.441557
0.441571
0.441584
0.441598
0.441612
0.441612
0.441626
0.44164
0.441654
0.441668
0.441668
0.441683
0.441697
0.441711
0.441725
0.441725
0.441739
0.441753
0.441768
0.441782
0.441782
0.441796
0.44181
0.441825
0.441839
0.441839
0.441854
0.441868
0.441882
0.441897
0.441897
0.441911
0.441926
0.44194
0.441955
0.441955
0.44197
0.441984
0.441999
0.442014
0.442014
0.442028
0.442043
0.442058
0.442073
0.442073
0.442087
0.442102
0.442117
0.442132
0.442132
0.442147
0.442162
0.442177
0.442192
0.442192
0.442207
0.442222
0.442237
0.442252
0.442252
0.442267
0.442282
0.442298
0.442313
0.442313
0.442328
0.442343
0.442359
0.442374
0.442374
0.442389
0.442405
0.44242
0.442435
0.442435
0.442451
0.442466
0.442482
0.442497
0.442497
0.442513
0.442529
0.442544
0.44256
0.44256
0.442575
0.442591
0.442607
0.442623
0.442623
0.442638
0.442654
0.44267
0.442686
0.442686
0.442702
0.442717
0.442733
0.442749
0.442749
0.442765
0.442781
0.442797
0.442813
0.442813
0.442829
0.442845
0.442862
0.442878
0.442878
0.442894
0.44291
0.442926
0.442943
0.442943
0.442959
0.442975
0.442992
0.443008
0.443008
0.443024
0.443041
0.443057
0.443074
0.443074
0.44309
0.443107
0.443123
0.44314
0.44314
0.443156
0.443173
0.44319
0.443206
0.443206
0.443223
0.44324
0.443256
0.443273
0.443273
0.44329
0.443307
0.443324
0.443341
0.443341
0.443357
0.443374
0.443391
0.443408
0.443408
0.443425
0.443442
0.443459
0.443477
0.443477
0.443494
0.443511
0.443528
0.443545
0.443545
0.443562
0.44358
0.443597
0.443614
0.443614
0.443631
0.443649
0.443666
0.443684
0.443684
0.443701
0.443718
0.443736
0.443753
0.443753
0.443771
0.443789
0.443806
0.443824
0.443824
0.443841
0.443859
0.443877
0.443894
0.443894
0.443912
0.44393
0.443948
0.443966
0.443966
0.443983
0.444001
0.444019
0.444037
0.444037
0.444055
0.444073
0.444091
0.444109
0.444109
0.444127
0.444145
0.444163
0.444181
0.444181
0.4442
0.444218
0.444236
0.444254
0.444254
0.444272
0.444291
0.444309
0.444327
0.444327
0.444346
0.444364
0.444383
0.444401
0.444401
0.44442
0.444438
0.444457
0.444475
0.444475
0.444494
0.444512
0.444531
0.44455
0.44455
0.444568
0.444587
0.444606
0.444624
0.444624
0.444643
0.444662
0.444681
0.4447
0.4447
0.444719
0.444738
0.444756
0.444775
0.444775
0.444794
0.444813
0.444832
0.444852
0.444852
0.444871
0.44489
0.444909
0.444928
0.444928
0.444947
0.444967
0.444986
0.445005
0.445005
0.445024
0.445044
0.445063
0.445082
0.445082
0.445102
0.445121
0.445141
0.44516
0.44516
0.44518
0.445199
0.445219
0.445238
0.445238
0.445258
0.445278
0.445297
0.445317
0.445317
0.445337
0.445356
0.445376
0.445396
0.445396
0.445416
0.445436
0.445456
0.445476
0.445476
0.445495
0.445515
0.445535
0.445555
0.445555
0.445575
0.445595
0.445616
0.445636
0.445636
0.445656
0.445676
0.445696
0.445716
0.445716
0.445737
0.445757
0.445777
0.445798
0.445798
0.445818
0.445838
0.445859
0.445879
0.445879
0.445899
0.44592
0.44594
0.445961
0.445961
0.445982
0.446002
0.446023
0.446043
0.446043
0.446064
0.446085
0.446105
0.446126
0.446126
0.446147
0.446168
0.446189
0.446209
0.446209
0.44623
0.446251
0.446272
0.446293
0.446293
0.446314
0.446335
0.446356
0.446377
0.446377
0.446398
0.446419
0.44644
0.446461
0.446461
0.446483
0.446504
0.446525
0.446546
0.446546
0.446568
0.446589
0.44661
0.446632
0.446632
0.446653
0.446674
0.446696
0.446717
0.446717
0.446739
0.44676
0.446782
0.446803
0.446803
0.446825
0.446847
0.446868
0.44689
0.44689
0.446912
0.446933
0.446955
0.446977
0.446977
0.446999
0.44702
0.447042
0.447064
0.447064
0.447086
0.447108
0.44713
0.447152
0.447152
0.447174
0.447196
0.447218
0.44724
0.44724
0.447262
0.447284
0.447307
0.447329
0.447329
0.447351
0.447373
0.447396
0.447418
0.447418
0.44744
0.447462
0.447485
0.447507
0.447507
0.44753
0.447552
0.447575
0.447597
0.447597
0.44762
0.447642
0.447665
0.447687
0.447687
0.44771
0.447733
0.447755
0.447778
0.447778
0.447801
0.447824
0.447846
0.447869
0.447869
0.447892
0.447915
0.447938
0.447961
0.447961
0.447984
0.448007
0.44803
0.448053
0.448053
0.448076
0.448099
0.448122
0.448145
0.448145
0.448168
0.448191
0.448214
0.448238
0.448238
0.448261
0.448284
0.448307
0.448331
0.448331
0.448354
0.448378
0.448401
0.448424
0.448424
0.448448
0.448471
0.448495
0.448518
0.448518
0.448542
0.448566
0.448589
0.448613
0.448613
0.448636
0.44866
0.448684
0.448708
0.448708
0.448731
0.448755
0.448779
0.448803
0.448803
0.448827
0.448851
0.448875
0.448899
0.448899
0.448923
0.448947
0.448971
0.448995
0.448995
0.449019
0.449043
0.449067
0.449091
0.449091
0.449115
0.449139
0.449164
0.449188
0.449188
0.449212
0.449237
0.449261
0.449285
0.449285
0.44931
0.449334
0.449359
0.449383
0.449383
0.449408
0.449432
0.449457
0.449481
0.449481
0.449506
0.44953
0.449555
0.44958
0.44958
0.449604
0.449629
0.449654
0.449679
0.449679
0.449703
0.449728
0.449753
0.449778
0.449778
0.449803
0.449828
0.449853
0.449878
0.449878
0.449903
0.449928
0.449953
0.449978
0.449978
0.450003
0.450028
0.450053
0.450079
0.450079
0.450104
0.450129
0.450154
0.45018
0.45018
0.450205
0.45023
0.450256
0.450281
0.450281
0.450307
0.450332
0.450358
0.450383
0.450383
0.450409
0.450434
0.45046
0.450485
0.450485
0.450511
0.450537
0.450562
0.450588
0.450588
0.450614
0.45064
0.450665
0.450691
0.450691
0.450717
0.450743
0.450769
0.450795
0.450795
0.450821
0.450847
0.450873
0.450899
0.450899
0.450925
0.450951
0.450977
0.451003
0.451003
0.451029
0.451055
0.451081
0.451108
0.451108
0.451134
0.45116
0.451187
0.451213
0.451213
0.451239
0.451266
0.451292
0.451318
0.451318
0.451345
0.451371
0.451398
0.451424
0.451424
0.451451
0.451478
0.451504
0.451531
0.451531
0.451557
0.451584
0.451611
0.451638
0.451638
0.451664
0.451691
0.451718
0.451745
0.451745
0.451772
0.451799
0.451826
0.451853
0.451853
0.45188
0.451907
0.451934
0.451961
0.451961
0.451988
0.452015
0.452042
0.452069
0.452069
0.452096
0.452123
0.452151
0.452178
0.452178
0.452205
0.452233
0.45226
0.452287
0.452287
0.452315
0.452342
0.452369
0.452397
0.452397
0.452424
0.452452
0.45248
0.452507
0.452507
0.452535
0.452562
0.45259
0.452618
0.452618
0.452645
0.452673
0.452701
0.452729
0.452729
0.452756
0.452784
0.452812
0.45284
0.45284
0.452868
0.452896
0.452924
0.452952
0.452952
0.45298
0.453008
0.453036
0.453064
0.453064
0.453092
0.45312
0.453148
0.453176
0.453176
0.453205
0.453233
0.453261
0.453289
0.453289
0.453318
0.453346
0.453374
0.453403
0.453403
0.453431
0.45346
0.453488
0.453517
0.453517
0.453545
0.453574
0.453602
0.453631
0.453631
0.45366
0.453688
0.453717
0.453746
0.453746
0.453774
0.453803
0.453832
0.453861
0.453861
0.45389
0.453918
0.453947
0.453976
0.453976
0.454005
0.454034
0.454063
0.454092
0.454092
0.454121
0.45415
0.454179
0.454208
0.454208
0.454237
0.454267
0.454296
0.454325
0.454325
0.454354
0.454384
0.454413
0.454442
0.454442
0.454472
0.454501
0.45453
0.45456
0.45456
0.454589
0.454619
0.454648
0.454678
0.454678
0.454707
0.454737
0.454766
0.454796
0.454796
0.454826
0.454855
0.454885
0.454915
0.454915
0.454945
0.454974
0.455004
0.455034
0.455034
0.455064
0.455094
0.455124
0.455154
0.455154
0.455184
0.455213
0.455244
0.455274
0.455274
0.455304
0.455334
0.455364
0.455394
0.455394
0.455424
0.455454
0.455485
0.455515
0.455515
0.455545
0.455575
0.455606
0.455636
0.455636
0.455666
0.455697
0.455727
0.455758
0.455758
0.455788
0.455819
0.455849
0.45588
0.45588
0.45591
0.455941
0.455972
0.456002
0.456002
0.456033
0.456064
0.456094
0.456125
0.456125
0.456156
0.456187
0.456217
0.456248
0.456248
0.456279
0.45631
0.456341
0.456372
0.456372
0.456403
0.456434
0.456465
0.456496
0.456496
0.456527
0.456558
0.456589
0.456621
0.456621
0.456652
0.456683
0.456714
0.456746
0.456746
0.456777
0.456808
0.45684
0.456871
0.456871
0.456902
0.456934
0.456965
0.456997
0.456997
0.457028
0.45706
0.457091
0.457123
0.457123
0.457154
0.457186
0.457218
0.457249
0.457249
0.457281
0.457313
0.457345
0.457376
0.457376
0.457408
0.45744
0.457472
0.457504
0.457504
0.457536
0.457568
0.457599
0.457631
0.457631
0.457663
0.457696
0.457728
0.45776
0.45776
0.457792
0.457824
0.457856
0.457888
0.457888
0.45792
0.457953
0.457985
0.458017
0.458017
0.45805
0.458082
0.458114
0.458147
0.458147
0.458179
0.458212
0.458244
0.458277
0.458277
0.458309
0.458342
0.458374
0.458407
0.458407
0.458439
0.458472
0.458505
0.458537
0.458537
0.45857
0.458603
0.458636
0.458669
0.458669
0.458701
0.458734
0.458767
0.4588
0.4588
0.458833
0.458866
0.458899
0.458932
0.458932
0.458965
0.458998
0.459031
0.459064
0.459064
0.459097
0.45913
0.459164
0.459197
0.459197
0.45923
0.459263
0.459297
0.45933
0.45933
0.459363
0.459397
0.45943
0.459463
0.459463
0.459497
0.45953
0.459564
0.459597
0.459597
0.459631
0.459664
0.459698
0.459732
0.459732
0.459765
0.459799
0.459833
0.459866
0.459866
0.4599
0.459934
0.459968
0.460002
0.460002
0.460035
0.460069
0.460103
0.460137
0.460137
0.460171
0.460205
0.460239
0.460273
0.460273
0.460307
0.460341
0.460375
0.460409
0.460409
0.460444
0.460478
0.460512
0.460546
0.460546
0.460581
0.460615
0.460649
0.460683
0.460683
0.460718
0.460752
0.460787
0.460821
0.460821
0.460856
0.46089
0.460925
0.460959
0.460959
0.460994
0.461028
0.461063
0.461097
0.461097
0.461132
0.461167
0.461202
0.461236
0.461236
0.461271
0.461306
0.461341
0.461375
0.461375
0.46141
0.461445
0.46148
0.461515
0.461515
0.46155
0.461585
0.46162
0.461655
0.461655
0.46169
0.461725
0.46176
0.461796
0.461796
0.461831
0.461866
0.461901
0.461936
0.461936
0.461972
0.462007
0.462042
0.462078
0.462078
0.462113
0.462148
0.462184
0.462219
0.462219
0.462255
0.46229
0.462326
0.462361
0.462361
0.462397
0.462433
0.462468
0.462504
0.462504
0.46254
0.462575
0.462611
0.462647
0.462647
0.462683
0.462718
0.462754
0.46279
0.46279
0.462826
0.462862
0.462898
0.462934
0.462934
0.46297
0.463006
0.463042
0.463078
0.463078
0.463114
0.46315
0.463186
0.463222
0.463222
0.463259
0.463295
0.463331
0.463367
0.463367
0.463404
0.46344
0.463476
0.463513
0.463513
0.463549
0.463585
0.463622
0.463658
0.463658
0.463695
0.463731
0.463768
0.463805
0.463805
0.463841
0.463878
0.463914
0.463951
0.463951
0.463988
0.464024
0.464061
0.464098
0.464098
0.464135
0.464172
0.464208
0.464245
0.464245
0.464282
0.464319
0.464356
0.464393
0.464393
0.46443
0.464467
0.464504
0.464541
0.464541
0.464578
0.464615
0.464653
0.46469
0.46469
0.464727
0.464764
0.464802
0.464839
0.464839
0.464876
0.464913
0.464951
0.464988
0.464988
0.465026
0.465063
0.4651
0.465138
0.465138
0.465175
0.465213
0.465251
0.465288
0.465288
0.465326
0.465363
0.465401
0.465439
0.465439
0.465476
0.465514
0.465552
0.46559
0.46559
0.465628
0.465665
0.465703
0.465741
0.465741
0.465779
0.465817
0.465855
0.465893
0.465893
0.465931
0.465969
0.466007
0.466045
0.466045
0.466083
0.466121
0.46616
0.466198
0.466198
0.466236
0.466274
0.466313
0.466351
0.466351
0.466389
0.466427
0.466466
0.466504
0.466504
0.466543
0.466581
0.46662
0.466658
0.466658
0.466697
0.466735
0.466774
0.466812
0.466812
0.466851
0.46689
0.466928
0.466967
0.466967
0.467006
0.467044
0.467083
0.467122
0.467122
0.467161
0.4672
0.467239
0.467277
0.467277
0.467316
0.467355
0.467394
0.467433
0.467433
0.467472
0.467511
0.46755
0.46759
0.46759
0.467629
0.467668
0.467707
0.467746
0.467746
0.467785
0.467825
0.467864
0.467903
0.467903
0.467943
0.467982
0.468021
0.468061
0.468061
0.4681
0.46814
0.468179
0.468219
0.468219
0.468258
0.468298
0.468337
0.468377
0.468377
0.468417
0.468456
0.468496
0.468536
0.468536
0.468575
0.468615
0.468655
0.468695
0.468695
0.468734
0.468774
0.468814
0.468854
0.468854
0.468894
0.468934
0.468974
0.469014
0.469014
0.469054
0.469094
0.469134
0.469174
0.469174
0.469214
0.469255
0.469295
0.469335
0.469335
0.469375
0.469415
0.469456
0.469496
0.469496
0.469536
0.469577
0.469617
0.469658
0.469658
0.469698
0.469738
0.469779
0.469819
0.469819
0.46986
0.469901
0.469941
0.469982
0.469982
0.470022
0.470063
0.470104
0.470144
0.470144
0.470185
0.470226
0.470267
0.470308
0.470308
0.470348
0.470389
0.47043
0.470471
0.470471
0.470512
0.470553
0.470594
0.470635
0.470635
0.470676
0.470717
0.470758
0.470799
0.470799
0.47084
0.470882
0.470923
0.470964
0.470964
0.471005
0.471047
0.471088
0.471129
0.471129
0.47117
0.471212
0.471253
0.471295
0.471295
0.471336
0.471378
0.471419
0.471461
0.471461
0.471502
0.471544
0.471585
0.471627
0.471627
0.471669
0.47171
0.471752
0.471794
0.471794
0.471835
0.471877
0.471919
0.471961
0.471961
0.472003
0.472044
0.472086
0.472128
0.472128
0.47217
0.472212
0.472254
0.472296
0.472296
0.472338
0.47238
0.472422
0.472465
0.472465
0.472507
0.472549
0.472591
0.472633
0.472633
0.472676
0.472718
0.47276
0.472802
0.472802
0.472845
0.472887
0.47293
0.472972
0.472972
0.473014
0.473057
0.473099
0.473142
0.473142
0.473184
0.473227
0.47327
0.473312
0.473312
0.473355
0.473398
0.47344
0.473483
0.473483
0.473526
0.473568
0.473611
0.473654
0.473654
0.473697
0.47374
0.473783
0.473826
0.473826
0.473869
0.473912
0.473955
0.473998
0.473998
0.474041
0.474084
0.474127
0.47417
0.47417
0.474213
0.474256
0.474299
0.474343
0.474343
0.474386
0.474429
0.474472
0.474516
0.474516
0.474559
0.474602
0.474646
0.474689
0.474689
0.474733
0.474776
0.47482
0.474863
0.474863
0.474907
0.47495
0.474994
0.475038
0.475038
0.475081
0.475125
0.475169
0.475212
0.475212
0.475256
0.4753
0.475344
0.475387
0.475387
0.475431
0.475475
0.475519
0.475563
0.475563
0.475607
0.475651
0.475695
0.475739
0.475739
0.475783
0.475827
0.475871
0.475915
0.475915
0.475959
0.476004
0.476048
0.476092
0.476092
0.476136
0.47618
0.476225
0.476269
0.476269
0.476313
0.476358
0.476402
0.476447
0.476447
0.476491
0.476536
0.47658
0.476625
0.476625
0.476669
0.476714
0.476758
0.476803
0.476803
0.476847
0.476892
0.476937
0.476982
0.476982
0.477026
0.477071
0.477116
0.477161
0.477161
0.477206
0.47725
0.477295
0.47734
0.47734
0.477385
0.47743
0.477475
0.47752
0.47752
0.477565
0.47761
0.477655
0.4777
0.4777
0.477746
0.477791
0.477836
0.477881
0.477881
0.477926
0.477972
0.478017
0.478062
0.478062
0.478108
0.478153
0.478198
0.478244
0.478244
0.478289
0.478335
0.47838
0.478426
0.478426
0.478471
0.478517
0.478562
0.478608
0.478608
0.478654
0.478699
0.478745
0.478791
0.478791
0.478836
0.478882
0.478928
0.478974
0.478974
0.47902
0.479066
0.479111
0.479157
0.479157
0.479203
0.479249
0.479295
0.479341
0.479341
0.479387
0.479433
0.479479
0.479526
0.479526
0.479572
0.479618
0.479664
0.47971
0.47971
0.479756
0.479803
0.479849
0.479895
0.479895
0.479942
0.479988
0.480034
0.480081
0.480081
0.480127
0.480174
0.48022
0.480267
0.480267
0.480313
0.48036
0.480406
0.480453
0.480453
0.4805
0.480546
0.480593
0.48064
0.48064
0.480686
0.480733
0.48078
0.480827
0.480827
0.480874
0.48092
0.480967
0.481014
0.481014
0.481061
0.481108
0.481155
0.481202
0.481202
0.481249
0.481296
0.481343
0.48139
0.48139
0.481437
0.481485
0.481532
0.481579
0.481579
0.481626
0.481673
0.481721
0.481768
0.481768
0.481815
0.481863
0.48191
0.481957
0.481957
0.482005
0.482052
0.4821
0.482147
0.482147
0.482195
0.482242
0.48229
0.482338
0.482338
0.482385
0.482433
0.482481
0.482528
0.482528
0.482576
0.482624
0.482671
0.482719
0.482719
0.482767
0.482815
0.482863
0.482911
0.482911
0.482959
0.483007
0.483054
0.483102
0.483102
0.483151
0.483199
0.483247
0.483295
0.483295
0.483343
0.483391
0.483439
0.483487
0.483487
0.483536
0.483584
0.483632
0.48368
0.48368
0.483729
0.483777
0.483825
0.483874
0.483874
0.483922
0.483971
0.484019
0.484068
0.484068
0.484116
0.484165
0.484213
0.484262
0.484262
0.48431
0.484359
0.484408
0.484456
0.484456
0.484505
0.484554
0.484603
0.484651
0.484651
0.4847
0.484749
0.484798
0.484847
0.484847
0.484896
0.484945
0.484993
0.485042
0.485042
0.485091
0.48514
0.48519
0.485239
0.485239
0.485288
0.485337
0.485386
0.485435
0.485435
0.485484
0.485534
0.485583
0.485632
0.485632
0.485681
0.485731
0.48578
0.485829
0.485829
0.485879
0.485928
0.485978
0.486027
0.486027
0.486077
0.486126
0.486176
0.486225
0.486225
0.486275
0.486325
0.486374
0.486424
0.486424
0.486474
0.486523
0.486573
0.486623
0.486623
0.486673
0.486722
0.486772
0.486822
0.486822
0.486872
0.486922
0.486972
0.487022
0.487022
0.487072
0.487122
0.487172
0.487222
0.487222
0.487272
0.487322
0.487372
0.487422
0.487422
0.487473
0.487523
0.487573
0.487623
0.487623
0.487674
0.487724
0.487774
0.487825
0.487825
0.487875
0.487925
0.487976
0.488026
0.488026
0.488077
0.488127
0.488178
0.488228
0.488228
0.488279
0.48833
0.48838
0.488431
0.488431
0.488481
0.488532
0.488583
0.488634
0.488634
0.488684
0.488735
0.488786
0.488837
0.488837
0.488888
0.488939
0.48899
0.489041
0.489041
0.489092
0.489143
0.489194
0.489245
0.489245
0.489296
0.489347
0.489398
0.489449
0.489449
0.4895
0.489551
0.489603
0.489654
0.489654
0.489705
0.489756
0.489808
0.489859
0.489859
0.48991
0.489962
0.490013
0.490065
0.490065
0.490116
0.490168
0.490219
0.490271
0.490271
0.490322
0.490374
0.490425
0.490477
0.490477
0.490529
0.49058
0.490632
0.490684
0.490684
0.490736
0.490787
0.490839
0.490891
0.490891
0.490943
0.490995
0.491047
0.491098
0.491098
0.49115
0.491202
0.491254
0.491306
0.491306
0.491358
0.491411
0.491463
0.491515
0.491515
0.491567
0.491619
0.491671
0.491723
0.491723
0.491776
0.491828
0.49188
0.491933
0.491933
0.491985
0.492037
0.49209
0.492142
0.492142
0.492195
0.492247
0.492299
0.492352
0.492352
0.492405
0.492457
0.49251
0.492562
0.492562
0.492615
0.492668
0.49272
0.492773
0.492773
0.492826
0.492878
0.492931
0.492984
0.492984
0.493037
0.49309
0.493143
0.493195
0.493195
0.493248
0.493301
0.493354
0.493407
0.493407
0.49346
0.493513
0.493566
0.49362
0.49362
0.493673
0.493726
0.493779
0.493832
0.493832
0.493885
0.493939
0.493992
0.494045
0.494045
0.494099
0.494152
0.494205
0.494259
0.494259
0.494312
0.494365
0.494419
0.494472
0.494472
0.494526
0.494579
0.494633
0.494687
0.494687
0.49474
0.494794
0.494847
0.494901
0.494901
0.494955
0.495009
0.495062
0.495116
0.495116
0.49517
0.495224
0.495278
0.495331
0.495331
0.495385
0.495439
0.495493
0.495547
0.495547
0.495601
0.495655
0.495709
0.495763
0.495763
0.495817
0.495872
0.495926
0.49598
0.49598
0.496034
0.496088
0.496143
0.496197
0.496197
0.496251
0.496305
0.49636
0.496414
0.496414
0.496468
0.496523
0.496577
0.496632
0.496632
0.496686
0.496741
0.496795
0.49685
0.49685
0.496904
0.496959
0.497014
0.497068
0.497068
0.497123
0.497178
0.497232
0.497287
0.497287
0.497342
0.497397
0.497452
0.497506
0.497506
0.497561
0.497616
0.497671
0.497726
0.497726
0.497781
0.497836
0.497891
0.497946
0.497946
0.498001
0.498056
0.498111
0.498166
0.498166
0.498222
0.498277
0.498332
0.498387
0.498387
0.498442
0.498498
0.498553
0.498608
0.498608
0.498664
0.498719
0.498774
0.49883
0.49883
0.498885
0.498941
0.498996
0.499052
0.499052
0.499107
0.499163
0.499219
0.499274
0.499274
0.49933
0.499386
0.499441
0.499497
0.499497
0.499553
0.499608
0.499664
0.49972
0.49972
0.499776
0.499832
0.499888
0.499944
0.499944
0.499999
0.500055
0.500111
0.500167
0.500167
0.500223
0.500279
0.500336
0.500392
0.500392
0.500448
0.500504
0.50056
0.500616
0.500616
0.500673
0.500729
0.500785
0.500841
0.500841
0.500898
0.500954
0.50101
0.501067
0.501067
0.501123
0.50118
0.501236
0.501293
0.501293
0.501349
0.501406
0.501462
0.501519
0.501519
0.501575
0.501632
0.501689
0.501745
0.501745
0.501802
0.501859
0.501916
0.501972
0.501972
0.502029
0.502086
0.502143
0.5022
0.5022
0.502257
0.502313
0.50237
0.502427
0.502427
0.502484
0.502541
0.502598
0.502656
0.502656
0.502713
0.50277
0.502827
0.502884
0.502884
0.502941
0.502998
0.503056
0.503113
0.503113
0.50317
0.503228
0.503285
0.503342
0.503342
0.5034
0.503457
0.503514
0.503572
0.503572
0.503629
0.503687
0.503744
0.503802
0.503802
0.503859
0.503917
0.503975
0.504032
0.504032
0.50409
0.504148
0.504205
0.504263
0.504263
0.504321
0.504379
0.504437
0.504494
0.504494
0.504552
0.50461
0.504668
0.504726
0.504726
0.504784
0.504842
0.5049
0.504958
0.504958
0.505016
0.505074
0.505132
0.50519
0.50519
0.505248
0.505307
0.505365
0.505423
0.505423
0.505481
0.50554
0.505598
0.505656
0.505656
0.505714
0.505773
0.505831
0.50589
0.50589
0.505948
0.506007
0.506065
0.506123
0.506123
0.506182
0.506241
0.506299
0.506358
0.506358
0.506416
0.506475
0.506534
0.506592
0.506592
0.506651
0.50671
0.506769
0.506827
0.506827
0.506886
0.506945
0.507004
0.507063
0.507063
0.507122
0.507181
0.50724
0.507299
0.507299
0.507358
0.507417
0.507476
0.507535
0.507535
0.507594
0.507653
0.507712
0.507771
0.507771
0.507831
0.50789
0.507949
0.508008
0.508008
0.508068
0.508127
0.508186
0.508246
0.508246
0.508305
0.508364
0.508424
0.508483
0.508483
0.508543
0.508602
0.508662
0.508721
0.508721
0.508781
0.508841
0.5089
0.50896
0.50896
0.50902
0.509079
0.509139
0.509199
0.509199
0.509259
0.509318
0.509378
0.509438
0.509438
0.509498
0.509558
0.509618
0.509678
0.509678
0.509738
0.509798
0.509858
0.509918
0.509918
0.509978
0.510038
0.510098
0.510158
0.510158
0.510218
0.510278
0.510339
0.510399
0.510399
0.510459
0.510519
0.51058
0.51064
0.51064
0.5107
0.510761
0.510821
0.510881
0.510881
0.510942
0.511002
0.511063
0.511123
0.511123
0.511184
0.511245
0.511305
0.511366
0.511366
0.511426
0.511487
0.511548
0.511608
0.511608
0.511669
0.51173
0.511791
0.511851
0.511851
0.511912
0.511973
0.512034
0.512095
0.512095
0.512156
0.512217
0.512278
0.512339
0.512339
0.5124
0.512461
0.512522
0.512583
0.512583
0.512644
0.512705
0.512766
0.512827
0.512827
0.512889
0.51295
0.513011
0.513072
0.513072
0.513134
0.513195
0.513256
0.513318
0.513318
0.513379
0.51344
0.513502
0.513563
0.513563
0.513625
0.513686
0.513748
0.513809
0.513809
0.513871
0.513933
0.513994
0.514056
0.514056
0.514118
0.514179
0.514241
0.514303
0.514303
0.514365
0.514426
0.514488
0.51455
0.51455
0.514612
0.514674
0.514736
0.514798
0.514798
0.51486
0.514922
0.514984
0.515046
0.515046
0.515108
0.51517
0.515232
0.515294
0.515294
0.515356
0.515418
0.51548
0.515543
0.515543
0.515605
0.515667
0.51573
0.515792
0.515792
0.515854
0.515917
0.515979
0.516041
0.516041
0.516104
0.516166
0.516229
0.516291
0.516291
0.516354
0.516416
0.516479
0.516541
0.516541
0.516604
0.516667
0.516729
0.516792
0.516792
0.516855
0.516918
0.51698
0.517043
0.517043
0.517106
0.517169
0.517232
0.517295
0.517295
0.517357
0.51742
0.517483
0.517546
0.517546
0.517609
0.517672
0.517735
0.517798
0.517798
0.517862
0.517925
0.517988
0.518051
0.518051
0.518114
0.518177
0.518241
0.518304
0.518304
0.518367
0.51843
0.518494
0.518557
0.518557
0.51862
0.518684
0.518747
0.518811
0.518811
0.518874
0.518938
0.519001
0.519065
0.519065
0.519128
0.519192
0.519256
0.519319
0.519319
0.519383
0.519447
0.51951
0.519574
0.519574
0.519638
0.519702
0.519765
0.519829
0.519829
0.519893
0.519957
0.520021
0.520085
0.520085
0.520149
0.520213
0.520277
0.520341
0.520341
0.520405
0.520469
0.520533
0.520597
0.520597
0.520661
0.520725
0.520789
0.520854
0.520854
0.520918
0.520982
0.521046
0.521111
0.521111
0.521175
0.521239
0.521304
0.521368
0.521368
0.521432
0.521497
0.521561
0.521626
0.521626
0.52169
0.521755
0.521819
0.521884
0.521884
0.521949
0.522013
0.522078
0.522142
0.522142
0.522207
0.522272
0.522337
0.522401
0.522401
0.522466
0.522531
0.522596
0.522661
0.522661
0.522726
0.52279
0.522855
0.52292
0.52292
0.522985
0.52305
0.523115
0.52318
0.52318
0.523245
0.523311
0.523376
0.523441
0.523441
0.523506
0.523571
0.523636
0.523702
0.523702
0.523767
0.523832
0.523897
0.523963
0.523963
0.524028
0.524094
0.524159
0.524224
0.524224
0.52429
0.524355
0.524421
0.524486
0.524486
0.524552
0.524617
0.524683
0.524749
0.524749
0.524814
0.52488
0.524946
0.525011
0.525011
0.525077
0.525143
0.525208
0.525274
0.525274
0.52534
0.525406
0.525472
0.525538
0.525538
0.525604
0.525669
0.525735
0.525801
0.525801
0.525867
0.525933
0.526
0.526066
0.526066
0.526132
0.526198
0.526264
0.52633
0.52633
0.526396
0.526463
0.526529
0.526595
0.526595
0.526661
0.526728
0.526794
0.52686
0.52686
0.526927
0.526993
0.52706
0.527126
0.527126
0.527192
0.527259
0.527325
0.527392
0.527392
0.527459
0.527525
0.527592
0.527658
0.527658
0.527725
0.527792
0.527858
0.527925
0.527925
0.527992
0.528059
0.528125
0.528192
0.528192
0.528259
0.528326
0.528393
0.52846
0.52846
0.528527
0.528594
0.528661
0.528728
0.528728
0.528795
0.528862
0.528929
0.528996
0.528996
0.529063
0.52913
0.529197
0.529265
0.529265
0.529332
0.529399
0.529466
0.529534
0.529534
0.529601
0.529668
0.529736
0.529803
0.529803
0.52987
0.529938
0.530005