<?xml version="1.0"?>
<VTKFile type="UnstructuredGrid" version="0.1" byte_order="LittleEndian">
<UnstructuredGrid>
<Piece NumberOfPoints="5000" NumberOfCells="4000">
<PointData Scalars="Reaction 0">
<DataArray type="Float32" Name="Reaction 0" format="ascii">
0.855996
0.855996
0.855996
0.855996
0.855996
0.855996
0.855996
0.855996
0.855996
0.855996
0.855996
0.855996
0.855996
0.855996
0.855996
0.855996
0.855995
0.855995
0.855995
0.855995
0.855995
0.855995
0.855995
0.855995
0.855995
0.855995
0.855995
0.855995
0.855995
0.855995
0.855995
0.855995
0.855995
0.855995
0.855995
0.855995
0.855995
0.855995
0.855995
0.855995
0.855995
0.855995
0.855995
0.855995
0.855995
0.855995
0.855995
0.855995
0.855995
0.855995
0.855995
0.855995
0.855995
0.855995
0.855995
0.855995
0.855994
0.855994
0.855994
0.855994
0.855994
0.855994
0.855994
0.855994
0.855994
0.855994
0.855994
0.855994
0.855994
0.855994
0.855994
0.855994
0.855994
0.855994
0.855994
0.855994
0.855994
0.855993
0.855993
0.855993
0.855993
0.855993
0.855993
0.855993
0.855993
0.855993
0.855993
0.855993
0.855993
0.855993
0.855993
0.855993
0.855993
0.855992
0.855992
0.855992
0.855992
0.855992
0.855992
0.855992
0.855992
0.855992
0.855992
0.855992
0.855992
0.855992
0.855992
0.855991
0.855991
0.855991
0.855991
0.855991
0.855991
0.855991
0.855991
0.855991
0.855991
0.855991
0.855991
0.85599
0.85599
0.85599
0.85599
0.85599
0.85599
0.85599
0.85599
0.85599
0.85599
0.85599
0.85599
0.855989
0.855989
0.855989
0.855989
0.855989
0.855989
0.855989
0.855989
0.855989
0.855989
0.855988
0.855988
0.855988
0.855988
0.855988
0.855988
0.855988
0.855988
0.855988
0.855988
0.855987
0.855987
0.855987
0.855987
0.855987
0.855987
0.855987
0.855987
0.855986
0.855986
0.855986
0.855986
0.855986
0.855986
0.855986
0.855986
0.855986
0.855985
0.855985
0.855985
0.855985
0.855985
0.855985
0.855985
0.855985
0.855985
0.855984
0.855984
0.855984
0.855984
0.855984
0.855984
0.855984
0.855983
0.855983
0.855983
0.855983
0.855983
0.855983
0.855983
0.855983
0.855982
0.855982
0.855982
0.855982
0.855982
0.855982
0.855982
0.855981
0.855981
0.855981
0.855981
0.855981
0.855981
0.855981
0.85598
0.85598
0.85598
0.85598
0.85598
0.85598
0.855979
0.855979
0.855979
0.855979
0.855979
0.855979
0.855979
0.855978
0.855978
0.855978
0.855978
0.855978
0.855978
0.855978
0.855977
0.855977
0.855977
0.855977
0.855977
0.855977
0.855976
0.855976
0.855976
0.855976
0.855976
0.855975
0.855975
0.855975
0.855975
0.855975
0.855975
0.855974
0.855974
0.855974
0.855974
0.855974
0.855974
0.855973
0.855973
0.855973
0.855973
0.855973
0.855972
0.855972
0.855972
0.855972
0.855972
0.855972
0.855972
0.855971
0.855971
0.855971
0.855971
0.855971
0.85597
0.85597
0.85597
0.85597
0.85597
0.855969
0.855969
0.855969
0.855969
0.855969
0.855968
0.855968
0.855968
0.855968
0.855968
0.855967
0.855967
0.855967
0.855967
0.855967
0.855966
0.855966
0.855966
0.855966
0.855966
0.855965
0.855965
0.855965
0.855965
0.855965
0.855964
0.855964
0.855964
0.855964
0.855964
0.855963
0.855963
0.855963
0.855962
0.855962
0.855962
0.855962
0.855962
0.855961
0.855961
0.855961
0.855961
0.855961
0.85596
0.85596
0.85596
0.85596
0.855959
0.855959
0.855959
0.855959
0.855959
0.855958
0.855958
0.855958
0.855958
0.855957
0.855957
0.855957
0.855957
0.855957
0.855956
0.855956
0.855956
0.855956
0.855955
0.855955
0.855955
0.855954
0.855954
0.855954
0.855954
0.855954
0.855953
0.855953
0.855953
0.855953
0.855952
0.855952
0.855952
0.855952
0.855951
0.855951
0.855951
0.855951
0.85595
0.85595
0.85595
0.85595
0.85595
0.855949
0.855949
0.855949
0.855948
0.855948
0.855948
0.855948
0.855947
0.855947
0.855947
0.855947
0.855946
0.855946
0.855946
0.855946
0.855945
0.855945
0.855945
0.855944
0.855944
0.855944
0.855944
0.855943
0.855943
0.855943
0.855943
0.855942
0.855942
0.855942
0.855942
0.855941
0.855941
0.855941
0.85594
0.85594
0.85594
0.85594
0.855939
0.855939
0.855939
0.855938
0.855938
0.855938
0.855937
0.855937
0.855937
0.855937
0.855936
0.855936
0.855936
0.855936
0.855935
0.855935
0.855935
0.855935
0.855934
0.855934
0.855933
0.855933
0.855933
0.855933
0.855932
0.855932
0.855932
0.855932
0.855931
0.855931
0.85593
0.85593
0.85593
0.85593
0.855929
0.855929
0.855929
0.855929
0.855928
0.855928
0.855927
0.855927
0.855927
0.855927
0.855926
0.855926
0.855925
0.855925
0.855925
0.855925
0.855924
0.855924
0.855924
0.855923
0.855923
0.855923
0.855922
0.855922
0.855922
0.855921
0.855921
0.855921
0.855921
0.85592
0.85592
0.855919
0.855919
0.855919
0.855919
0.855918
0.855918
0.855917
0.855917
0.855917
0.855917
0.855916
0.855916
0.855916
0.855915
0.855915
0.855914
0.855914
0.855914
0.855914
0.855913
0.855913
0.855912
0.855912
0.855912
0.855912
0.855911
0.855911
0.855911
0.85591
0.85591
0.855909
0.855909
0.855909
0.855909
0.855908
0.855908
0.855907
0.855907
0.855907
0.855906
0.855906
0.855905
0.855905
0.855905
0.855905
0.855904
0.855904
0.855904
0.855903
0.855903
0.855902
0.855902
0.855902
0.855901
0.855901
0.855901
0.8559
0.8559
0.8559
0.855899
0.855899
0.855898
0.855898
0.855898
0.855897
0.855897
0.855896
0.855896
0.855896
0.855895
0.855895
0.855895
0.855895
0.855894
0.855894
0.855893
0.855893
0.855893
0.855892
0.855892
0.855891
0.855891
0.855891
0.85589
0.85589
0.855889
0.855889
0.855889
0.855888
0.855888
0.855887
0.855887
0.855887
0.855886
0.855886
0.855885
0.855885
0.855885
0.855885
0.855884
0.855884
0.855883
0.855883
0.855883
0.855882
0.855882
0.855881
0.855881
0.855881
0.85588
0.85588
0.855879
0.855879
0.855879
0.855878
0.855878
0.855877
0.855877
0.855877
0.855876
0.855876
0.855875
0.855875
0.855875
0.855874
0.855874
0.855873
0.855873
0.855872
0.855872
0.855871
0.855871
0.855871
0.85587
0.85587
0.855869
0.855869
0.855869
0.855868
0.855868
0.855867
0.855867
0.855867
0.855866
0.855866
0.855865
0.855865
0.855865
0.855864
0.855864
0.855863
0.855863
0.855863
0.855862
0.855861
0.855861
0.85586
0.85586
0.85586
0.855859
0.855859
0.855858
0.855858
0.855858
0.855857
0.855857
0.855856
0.855856
0.855856
0.855855
0.855854
0.855854
0.855854
0.855853
0.855853
0.855852
0.855852
0.855852
0.855851
0.855851
0.85585
0.855849
0.855849
0.855849
0.855848
0.855848
0.855847
0.855847
0.855847
0.855846
0.855846
0.855845
0.855845
0.855844
0.855844
0.855843
0.855843
0.855843
0.855842
0.855842
0.855841
0.85584
0.85584
0.85584
0.855839
0.855839
0.855838
0.855838
0.855838
0.855837
0.855836
0.855836
0.855836
0.855835
0.855835
0.855834
0.855834
0.855834
0.855833
0.855832
0.855832
0.855831
0.855831
0.855831
0.85583
0.855829
0.855829
0.855829
0.855828
0.855828
0.855827
0.855826
0.855826
0.855826
0.855825
0.855825
0.855824
0.855824
0.855823
0.855823
0.855822
0.855822
0.855822
0.855821
0.85582
0.85582
0.855819
0.855819
0.855819
0.855818
0.855817
0.855817
0.855817
0.855816
0.855816
0.855815
0.855814
0.855814
0.855814
0.855813
0.855812
0.855812
0.855812
0.855811
0.855811
0.85581
0.855809
0.855809
0.855809
0.855808
0.855807
0.855807
0.855807
0.855806
0.855806
0.855805
0.855804
0.855804
0.855804
0.855803
0.855802
0.855802
0.855802
0.855801
0.855801
0.8558
0.855799
0.855799
0.855799
0.855798
0.855797
0.855797
0.855797
0.855796
0.855795
0.855795
0.855794
0.855794
0.855793
0.855793
0.855792
0.855791
0.855791
0.855791
0.85579
0.85579
0.855789
0.855789
0.855788
0.855788
0.855787
0.855786
0.855786
0.855786
0.855785
0.855784
0.855784
0.855784
0.855783
0.855782
0.855782
0.855781
0.855781
0.85578
0.85578
0.855779
0.855778
0.855778
0.855778
0.855777
0.855776
0.855776
0.855776
0.855775
0.855774
0.855774
0.855773
0.855773
0.855772
0.855772
0.855771
0.85577
0.85577
0.855769
0.855769
0.855768
0.855767
0.855767
0.855767
0.855766
0.855765
0.855765
0.855765
0.855764
0.855763
0.855763
0.855762
0.855762
0.855761
0.855761
0.85576
0.855759
0.855759
0.855758
0.855758
0.855757
0.855756
0.855756
0.855756
0.855755
0.855754
0.855754
0.855754
0.855753
0.855752
0.855751
0.855751
0.855751
0.85575
0.855749
0.855749
0.855748
0.855748
0.855747
0.855746
0.855746
0.855745
0.855745
0.855744
0.855744
0.855743
0.855742
0.855742
0.855741
0.855741
0.85574
0.855739
0.855739
0.855739
0.855738
0.855737
0.855736
0.855736
0.855736
0.855735
0.855734
0.855733
0.855733
0.855733
0.855732
0.855731
0.855731
0.855731
0.85573
0.855729
0.855728
0.855728
0.855728
0.855727
0.855726
0.855725
0.855725
0.855725
0.855724
0.855723
0.855722
0.855722
0.855722
0.855721
0.85572
0.855719
0.855719
0.855719
0.855718
0.855717
0.855716
0.855716
0.855716
0.855715
0.855714
0.855713
0.855713
0.855713
0.855712
0.855711
0.85571
0.85571
0.85571
0.855709
0.855708
0.855707
0.855707
0.855707
0.855706
0.855705
0.855704
0.855704
0.855704
0.855703
0.855702
0.855701
0.8557
0.8557
0.8557
0.855699
0.855698
0.855697
0.855697
0.855697
0.855696
0.855695
0.855694
0.855694
0.855694
0.855693
0.855692
0.855691
0.855691
0.85569
0.85569
0.855689
0.855688
0.855688
0.855687
0.855686
0.855686
0.855685
0.855685
0.855684
0.855683
0.855683
0.855682
0.855682
0.855681
0.85568
0.855679
0.855679
0.855679
0.855678
0.855677
0.855676
0.855675
0.855675
0.855675
0.855674
0.855673
0.855672
0.855672
0.855671
0.855671
0.85567
0.855669
0.855669
0.855668
0.855667
0.855667
0.855666
0.855666
0.855665
0.855664
0.855663
0.855663
0.855663
0.855662
0.855661
0.85566
0.855659
0.855659
0.855658
0.855658
0.855657
0.855656
0.855656
0.855655
0.855654
0.855654
0.855653
0.855653
0.855652
0.855651
0.85565
0.855649
0.855649
0.855649
0.855648
0.855647
0.855646
0.855646
0.855645
0.855644
0.855644
0.855643
0.855643
0.855642
0.855641
0.85564
0.855639
0.855639
0.855639
0.855638
0.855637
0.855636
0.855636
0.855635
0.855634
0.855634
0.855633
0.855633
0.855632
0.855631
0.85563
0.855629
0.855629
0.855629
0.855628
0.855627
0.855626
0.855626
0.855625
0.855624
0.855623
0.855623
0.855623
0.855622
0.855621
0.85562
0.855619
0.855619
0.855618
0.855618
0.855617
0.855616
0.855616
0.855615
0.855614
0.855613
0.855612
0.855612
0.855611
0.855611
0.85561
0.855609
0.855609
0.855608
0.855607
0.855606
0.855605
0.855605
0.855605
0.855604
0.855603
0.855602
0.855602
0.855601
0.8556
0.855599
0.855598
0.855598
0.855598
0.855597
0.855596
0.855595
0.855595
0.855594
0.855593
0.855592
0.855591
0.855591
0.855591
0.85559
0.855589
0.855588
0.855588
0.855587
0.855586
0.855585
0.855584
0.855584
0.855583
0.855583
0.855582
0.855581
0.855581
0.85558
0.855579
0.855578
0.855577
0.855577
0.855576
0.855575
0.855575
0.855574
0.855574
0.855573
0.855572
0.855571
0.85557
0.85557
0.855569
0.855568
0.855567
0.855566
0.855566
0.855565
0.855565
0.855564
0.855563
0.855563
0.855562
0.855561
0.85556
0.855559
0.855559
0.855558
0.855557
0.855556
0.855555
0.855555
0.855554
0.855553
0.855552
0.855552
0.855552
0.855551
0.85555
0.855549
0.855548
0.855548
0.855547
0.855546
0.855545
0.855544
0.855544
0.855543
0.855542
0.855541
0.85554
0.85554
0.855539
0.855538
0.855537
0.855536
0.855536
0.855535
0.855534
0.855533
0.855532
0.855532
0.85553
0.855529
0.855528
0.855527
0.855527
0.855526
0.855525
0.855524
0.855523
0.855523
0.855522
0.855521
0.85552
0.855519
0.855519
0.855518
0.855517
0.855515
0.855514
0.855514
0.855513
0.855512
0.855511
0.85551
0.85551
0.855509
0.855508
0.855506
0.855505
0.855505
0.855504
0.855503
0.855502
0.855501
0.855501
0.8555
0.855498
0.855497
0.855496
0.855496
0.855495
0.855494
0.855493
0.855491
0.855491
0.85549
0.855489
0.855488
0.855487
0.855487
0.855485
0.855484
0.855483
0.855482
0.855482
0.855481
0.85548
0.855478
0.855477
0.855477
0.855476
0.855475
0.855474
0.855472
0.855472
0.855471
0.85547
0.855469
0.855468
0.855468
0.855466
0.855465
0.855464
0.855463
0.855463
0.855462
0.85546
0.855459
0.855458
0.855458
0.855457
0.855456
0.855454
0.855453
0.855453
0.855452
0.855451
0.855449
0.855448
0.855448
0.855447
0.855446
0.855445
0.855443
0.855443
0.855442
0.855441
0.85544
0.855439
0.855439
0.855437
0.855436
0.855435
0.855434
0.855434
0.855432
0.855431
0.85543
0.855429
0.855429
0.855428
0.855426
0.855425
0.855424
0.855424
0.855423
0.855421
0.85542
0.855419
0.855419
0.855418
0.855416
0.855415
0.855414
0.855414
0.855413
0.855411
0.85541
0.855409
0.855409
0.855408
0.855406
0.855405
0.855404
0.855404
0.855403
0.855401
0.8554
0.855399
0.855399
0.855398
0.855396
0.855395
0.855394
0.855394
0.855393
0.855391
0.85539
0.855389
0.855389
0.855388
0.855386
0.855385
0.855384
0.855384
0.855383
0.855381
0.85538
0.855379
0.855379
0.855378
0.855376
0.855375
0.855374
0.855374
0.855372
0.855371
0.85537
0.855369
0.855369
0.855367
0.855366
0.855365
0.855364
0.855364
0.855362
0.855361
0.85536
0.855358
0.855358
0.855357
0.855356
0.855355
0.855353
0.855353
0.855352
0.855351
0.85535
0.855348
0.855348
0.855347
0.855346
0.855344
0.855343
0.855343
0.855342
0.85534
0.855339
0.855338
0.855338
0.855337
0.855335
0.855334
0.855333
0.855333
0.855331
0.85533
0.855329
0.855328
0.855328
0.855326
0.855325
0.855324
0.855322
0.855322
0.855321
0.85532
0.855318
0.855317
0.855317
0.855316
0.855314
0.855313
0.855312
0.855312
0.855311
0.855309
0.855308
0.855307
0.855307
0.855305
0.855304
0.855303
0.855301
0.855301
0.8553
0.855299
0.855297
0.855296
0.855296
0.855295
0.855293
0.855292
0.855291
0.855291
0.855289
0.855288
0.855287
0.855286
0.855286
0.855284
0.855283
0.855282
0.85528
0.85528
0.855279
0.855278
0.855276
0.855275
0.855275
0.855274
0.855272
0.855271
0.85527
0.85527
0.855268
0.855267
0.855266
0.855264
0.855264
0.855263
0.855261
0.85526
0.855259
0.855259
0.855257
0.855256
0.855255
0.855253
0.855253
0.855252
0.855251
0.855249
0.855248
0.855248
0.855247
0.855245
0.855244
0.855243
0.855243
0.855241
0.85524
0.855239
0.855237
0.855237
0.855236
0.855235
0.855233
0.855232
0.855232
0.85523
0.855229
0.855228
0.855226
0.855226
0.855225
0.855224
0.855222
0.855221
0.855221
0.85522
0.855218
0.855217
0.855215
0.855215
0.855214
0.855213
0.855211
0.85521
0.85521
0.855209
0.855207
0.855206
0.855204
0.855204
0.855203
0.855202
0.8552
0.855199
0.855199
0.855198
0.855196
0.855195
0.855193
0.855193
0.855192
0.855191
0.855189
0.855188
0.855188
0.855187
0.855185
0.855184
0.855182
0.855182
0.855181
0.85518
0.855178
0.855177
0.855177
0.855175
0.855174
0.855173
0.855171
0.855171
0.85517
0.855168
0.855167
0.855166
0.855166
0.855164
0.855163
0.855162
0.85516
0.85516
0.855159
0.855157
0.855156
0.855155
0.855155
0.855153
0.855152
0.85515
0.855149
0.855149
0.855148
0.855146
0.855145
0.855143
0.855143
0.855142
0.85514
0.855139
0.855138
0.855138
0.855136
0.855135
0.855133
0.855132
0.855132
0.855131
0.855129
0.855128
0.855126
0.855126
0.855125
0.855124
0.855122
0.855121
0.855121
0.855119
0.855118
0.855116
0.855115
0.855115
0.855114
0.855112
0.855111
0.855109
0.855109
0.855108
0.855106
0.855105
0.855104
0.855104
0.855102
0.855101
0.855099
0.855098
0.855098
0.855096
0.855095
0.855094
0.855092
0.855092
0.855091
0.855089
0.855088
0.855086
0.855086
0.855085
0.855084
0.855082
0.855081
0.855081
0.855079
0.855078
0.855076
0.855075
0.855075
0.855074
0.855072
0.855071
0.855069
0.855069
0.855068
0.855066
0.855065
0.855063
0.855063
0.855062
0.855061
0.855059
0.855058
0.855058
0.855056
0.855055
0.855053
0.855052
0.855052
0.85505
0.855049
0.855047
0.855046
0.855046
0.855045
0.855043
0.855042
0.85504
0.85504
0.855039
0.855037
0.855036
0.855034
0.855034
0.855033
0.855031
0.85503
0.855029
0.855029
0.855027
0.855026
0.855024
0.855023
0.855023
0.855021
0.85502
0.855018
0.855017
0.855017
0.855015
0.855014
0.855012
0.855011
0.855011
0.85501
0.855008
0.855007
0.855005
0.855005
0.855004
0.855002
0.855001
0.854999
0.854999
0.854998
0.854996
0.854995
0.854993
0.854993
0.854992
0.85499
0.854989
0.854987
0.854987
0.854986
0.854984
0.854983
0.854981
0.854981
0.85498
0.854979
0.854977
0.854976
0.854976
0.854974
0.854973
0.854971
0.85497
0.85497
0.854968
0.854967
0.854965
0.854964
0.854964
0.854962
0.854961
0.854959
0.854958
0.854958
0.854956
0.854955
0.854953
0.854952
0.854952
0.85495
0.854949
0.854947
0.854946
0.854946
0.854944
0.854943
0.854941
0.85494
0.85494
0.854938
0.854937
0.854935
0.854934
0.854934
0.854932
0.854931
0.854929
0.854928
0.854928
0.854926
0.854925
0.854923
0.854922
0.854922
0.85492
0.854919
0.854917
0.854916
0.854916
0.854914
0.854913
0.854911
0.85491
0.85491
0.854908
0.854907
0.854905
0.854904
0.854904
0.854902
0.854901
0.854899
0.854898
0.854898
0.854896
0.854895
0.854893
0.854892
0.854892
0.85489
0.854889
0.854887
0.854886
0.854886
0.854884
0.854882
0.854881
0.854879
0.854879
0.854878
0.854876
0.854875
0.854873
0.854873
0.854872
0.85487
0.854869
0.854867
0.854867
0.854866
0.854864
0.854863
0.854861
0.854861
0.85486
0.854858
0.854857
0.854855
0.854855
0.854853
0.854852
0.85485
0.854849
0.854849
0.854847
0.854846
0.854844
0.854843
0.854843
0.854841
0.854839
0.854838
0.854836
0.854836
0.854835
0.854833
0.854832
0.85483
0.85483
0.854828
0.854827
0.854825
0.854824
0.854824
0.854822
0.85482
0.854819
0.854817
0.854817
0.854815
0.854814
0.854812
0.85481
0.85481
0.854809
0.854807
0.854805
0.854804
0.854804
0.854802
0.8548
0.854799
0.854797
0.854797
0.854795
0.854794
0.854792
0.85479
0.85479
0.854788
0.854787
0.854785
0.854783
0.854783
0.854781
0.85478
0.854778
0.854776
0.854776
0.854774
0.854773
0.854771
0.854769
0.854769
0.854767
0.854765
0.854764
0.854762
0.854762
0.85476
0.854758
0.854756
0.854754
0.854754
0.854753
0.854751
0.854749
0.854747
0.854747
0.854745
0.854743
0.854742
0.85474
0.85474
0.854738
0.854736
0.854734
0.854732
0.854732
0.85473
0.854728
0.854727
0.854725
0.854725
0.854723
0.854721
0.854719
0.854717
0.854717
0.854715
0.854713
0.854711
0.85471
0.85471
0.854708
0.854706
0.854704
0.854702
0.854702
0.8547
0.854698
0.854696
0.854694
0.854694
0.854693
0.854691
0.854689
0.854687
0.854687
0.854685
0.854683
0.854681
0.854679
0.854679
0.854677
0.854675
0.854674
0.854672
0.854672
0.85467
0.854668
0.854666
0.854664
0.854664
0.854662
0.85466
0.854658
0.854656
0.854656
0.854654
0.854653
0.854651
0.854649
0.854649
0.854647
0.854645
0.854643
0.854641
0.854641
0.854639
0.854637
0.854635
0.854633
0.854633
0.854632
0.85463
0.854628
0.854626
0.854626
0.854624
0.854622
0.85462
0.854618
0.854618
0.854616
0.854614
0.854612
0.85461
0.85461
0.854608
0.854607
0.854605
0.854603
0.854603
0.854601
0.854599
0.854597
0.854595
0.854595
0.854593
0.854591
0.854589
0.854587
0.854587
0.854585
0.854583
0.854581
0.85458
0.85458
0.854578
0.854576
0.854574
0.854572
0.854572
0.85457
0.854568
0.854566
0.854564
0.854564
0.854562
0.85456
0.854558
0.854556
0.854556
0.854554
0.854552
0.85455
0.854549
0.854549
0.854547
0.854545
0.854543
0.854541
0.854541
0.854539
0.854537
0.854535
0.854533
0.854533
0.854531
0.854529
0.854527
0.854525
0.854525
0.854523
0.854521
0.854519
0.854517
0.854517
0.854515
0.854514
0.854512
0.85451
0.85451
0.854508
0.854506
0.854504
0.854502
0.854502
0.8545
0.854498
0.854496
0.854494
0.854494
0.854492
0.85449
0.854488
0.854486
0.854486
0.854484
0.854482
0.85448
0.854478
0.854478
0.854476
0.854474
0.854472
0.85447
0.85447
0.854469
0.854467
0.854465
0.854463
0.854463
0.854461
0.854459
0.854457
0.854455
0.854455
0.854453
0.854451
0.854449
0.854447
0.854447
0.854445
0.854443
0.854441
0.854439
0.854439
0.854437
0.854435
0.854433
0.854431
0.854431
0.854429
0.854427
0.854425
0.854423
0.854423
0.854421
0.854419
0.854417
0.854415
0.854415
0.854413
0.854411
0.854409
0.854407
0.854407
0.854405
0.854404
0.854402
0.8544
0.8544
0.854398
0.854396
0.854394
0.854392
0.854392
0.85439
0.854388
0.854386
0.854384
0.854384
0.854382
0.85438
0.854378
0.854376
0.854376
0.854374
0.854372
0.85437
0.854368
0.854368
0.854366
0.854364
0.854362
0.85436
0.85436
0.854358
0.854356
0.854354
0.854352
0.854352
0.85435
0.854348
0.854346
0.854344
0.854344
0.854342
0.85434
0.854338
0.854336
0.854336
0.854334
0.854332
0.85433
0.854328
0.854328
0.854326
0.854324
0.854322
0.85432
0.85432
0.854318
0.854316
0.854314
0.854312
0.854312
0.85431
0.854308
0.854306
0.854304
0.854304
0.854302
0.8543
0.854298
0.854296
0.854296
0.854294
0.854292
0.85429
0.854288
0.854288
0.854286
0.854284
0.854282
0.85428
0.85428
0.854278
0.854276
0.854274
0.854272
0.854272
0.85427
0.854268
0.854266
0.854264
0.854264
0.854262
0.85426
0.854258
0.854256
0.854256
0.854254
0.854252
0.85425
0.854248
0.854248
0.854246
0.854244
0.854242
0.85424
0.85424
0.854238
0.854236
0.854234
0.854232
0.854232
0.85423
0.854228
0.854226
0.854224
0.854224
0.854222
0.85422
0.854218
0.854216
0.854216
0.854214
0.854212
0.85421
0.854208
0.854208
0.854206
0.854204
0.854202
0.8542
0.8542
0.854198
0.854196
0.854194
0.854192
0.854192
0.85419
0.854188
0.854186
0.854184
0.854184
0.854182
0.85418
0.854178
0.854176
0.854176
0.854174
0.854171
0.854169
0.854167
0.854167
0.854165
0.854163
0.854161
0.854159
0.854159
0.854157
0.854155
0.854153
0.854151
0.854151
0.854149
0.854147
0.854145
0.854143
0.854143
0.854141
0.854139
0.854137
0.854135
0.854135
0.854133
0.854131
0.854129
0.854127
0.854127
0.854125
0.854123
0.854121
0.854119
0.854119
0.854117
0.854115
0.854113
0.854111
0.854111
0.854109
0.854107
0.854104
0.854102
0.854102
0.8541
0.854098
0.854096
0.854094
0.854094
0.854092
0.85409
0.854088
0.854086
0.854086
0.854084
0.854082
0.854079
0.854077
0.854077
0.854075
0.854073
0.854071
0.854069
0.854069
0.854067
0.854065
0.854062
0.85406
0.85406
0.854058
0.854056
0.854054
0.854051
0.854051
0.854049
0.854047
0.854045
0.854043
0.854043
0.85404
0.854038
0.854036
0.854034
0.854034
0.854031
0.854029
0.854027
0.854025
0.854025
0.854022
0.85402
0.854018
0.854016
0.854016
0.854013
0.854011
0.854009
0.854006
0.854006
0.854004
0.854002
0.853999
0.853997
0.853997
0.853995
0.853992
0.85399
0.853988
0.853988
0.853985
0.853983
0.853981
0.853978
0.853978
0.853976
0.853973
0.853971
0.853969
0.853969
0.853966
0.853964
0.853961
0.853959
0.853959
0.853957
0.853954
0.853952
0.853949
0.853949
0.853947
0.853945
0.853942
0.85394
0.85394
0.853937
0.853935
0.853933
0.85393
0.85393
0.853928
0.853925
0.853923
0.85392
0.85392
0.853918
0.853916
0.853913
0.853911
0.853911
0.853908
0.853906
0.853903
0.853901
0.853901
0.853899
0.853896
0.853894
0.853891
0.853891
0.853889
0.853886
0.853884
0.853882
0.853882
0.853879
0.853877
0.853874
0.853872
0.853872
0.853869
0.853867
0.853865
0.853862
0.853862
0.85386
0.853857
0.853855
0.853852
0.853852
0.85385
0.853847
0.853845
0.853843
0.853843
0.85384
0.853838
0.853835
0.853833
0.853833
0.85383
0.853828
0.853826
0.853823
0.853823
0.853821
0.853818
0.853816
0.853813
0.853813
0.853811
0.853808
0.853806
0.853804
0.853804
0.853801
0.853799
0.853796
0.853794
0.853794
0.853791
0.853789
0.853786
0.853784
0.853784
0.853782
0.853779
0.853777
0.853774
0.853774
0.853772
0.853769
0.853767
0.853764
0.853764
0.853762
0.85376
0.853757
0.853755
0.853755
0.853752
0.85375
0.853747
0.853745
0.853745
0.853742
0.85374
0.853738
0.853735
0.853735
0.853733
0.85373
0.853728
0.853725
0.853725
0.853723
0.85372
0.853718
0.853716
0.853716
0.853713
0.853711
0.853708
0.853706
0.853706
0.853703
0.853701
0.853698
0.853696
0.853696
0.853693
0.853691
0.853689
0.853686
0.853686
0.853684
0.853681
0.853679
0.853676
0.853676
0.853674
0.853671
0.853669
0.853666
0.853666
0.853664
0.853662
0.853659
0.853657
0.853657
0.853654
0.853652
0.853649
0.853647
0.853647
0.853644
0.853642
0.853639
0.853637
0.853637
0.853635
0.853632
0.85363
0.853627
0.853627
0.853625
0.853622
0.85362
0.853617
0.853617
0.853615
0.853612
0.85361
0.853608
0.853608
0.853605
0.853603
0.8536
0.853598
0.853598
0.853595
0.853593
0.85359
0.853588
0.853588
0.853585
0.853583
0.85358
0.853578
0.853578
0.853576
0.853573
0.853571
0.853568
0.853568
0.853566
0.853563
0.853561
0.853558
0.853558
0.853556
0.853553
0.853551
0.853548
0.853548
0.853546
0.853544
0.853541
0.853539
0.853539
0.853536
0.853534
0.853531
0.853529
0.853529
0.853526
0.853524
0.853521
0.853519
0.853519
0.853516
0.853514
0.853512
0.853509
0.853509
0.853507
0.853504
0.853502
0.853499
0.853499
0.853497
0.853494
0.853492
0.853489
0.853489
0.853487
0.853484
0.853482
0.85348
0.85348
0.853477
0.853475
0.853472
0.85347
0.85347
0.853467
0.853465
0.853462
0.85346
0.85346
0.853457
0.853455
0.853452
0.85345
0.85345
0.853447
0.853445
0.853443
0.85344
0.85344
0.853438
0.853435
0.853433
0.85343
0.85343
0.853428
0.853425
0.853423
0.85342
0.85342
0.853418
0.853415
0.853413
0.85341
0.85341
0.853408
0.853406
0.853403
0.853401
0.853401
0.853398
0.853396
0.853393
0.853391
0.853391
0.853388
0.853386
0.853383
0.853381
0.853381
0.853378
0.853376
0.853373
0.853371
0.853371
0.853368
0.853366
0.853363
0.853361
0.853361
0.853359
0.853356
0.853354
0.853351
0.853351
0.853349
0.853346
0.853344
0.853341
0.853341
0.853339
0.853336
0.853333
0.853331
0.853331
0.853328
0.853326
0.853323
0.853321
0.853321
0.853318
0.853316
0.853313
0.853311
0.853311
0.853308
0.853305
0.853303
0.8533
0.8533
0.853298
0.853295
0.853292
0.85329
0.85329
0.853287
0.853284
0.853282
0.853279
0.853279
0.853276
0.853274
0.853271
0.853268
0.853268
0.853266
0.853263
0.85326
0.853258
0.853258
0.853255
0.853252
0.85325
0.853247
0.853247
0.853244
0.853241
0.853239
0.853236
0.853236
0.853233
0.853231
0.853228
0.853225
0.853225
0.853222
0.853219
0.853217
0.853214
0.853214
0.853211
0.853208
0.853205
0.853203
0.853203
0.8532
0.853197
0.853194
0.853191
0.853191
0.853188
0.853186
0.853183
0.85318
0.85318
0.853177
0.853174
0.853171
0.853168
0.853168
0.853166
0.853163
0.85316
0.853157
0.853157
0.853154
0.853151
0.853148
0.853145
0.853145
0.853143
0.85314
0.853137
0.853134
0.853134
0.853131
0.853128
0.853125
0.853122
0.853122
0.85312
0.853117
0.853114
0.853111
0.853111
0.853108
0.853105
0.853102
0.853099
0.853099
0.853097
0.853094
0.853091
0.853088
0.853088
0.853085
0.853082
0.853079
0.853076
0.853076
0.853073
0.853071
0.853068
0.853065
0.853065
0.853062
0.853059
0.853056
0.853053
0.853053
0.85305
0.853048
0.853045
0.853042
0.853042
0.853039
0.853036
0.853033
0.85303
0.85303
0.853027
0.853024
0.853022
0.853019
0.853019
0.853016
0.853013
0.85301
0.853007
0.853007
0.853004
0.853001
0.852999
0.852996
0.852996
0.852993
0.85299
0.852987
0.852984
0.852984
0.852981
0.852978
0.852975
0.852973
0.852973
0.85297
0.852967
0.852964
0.852961
0.852961
0.852958
0.852955
0.852952
0.85295
0.85295
0.852947
0.852944
0.852941
0.852938
0.852938
0.852935
0.852932
0.852929
0.852927
0.852927
0.852924
0.852921
0.852918
0.852915
0.852915
0.852912
0.852909
0.852906
0.852903
0.852903
0.852901
0.852898
0.852895
0.852892
0.852892
0.852889
0.852886
0.852883
0.85288
0.85288
0.852878
0.852875
0.852872
0.852869
0.852869
0.852866
0.852863
0.85286
0.852857
0.852857
0.852854
0.852852
0.852849
0.852846
0.852846
0.852843
0.85284
0.852837
0.852834
0.852834
0.852831
0.852829
0.852826
0.852823
0.852823
0.85282
0.852817
0.852814
0.852811
0.852811
0.852808
0.852806
0.852803
0.8528
0.8528
0.852797
0.852794
0.852791
0.852788
0.852788
0.852785
0.852783
0.85278
0.852777
0.852777
0.852774
0.852771
0.852768
0.852765
0.852765
0.852762
0.85276
0.852757
0.852754
0.852754
0.852751
0.852748
0.852745
0.852742
0.852742
0.852739
0.852737
0.852734
0.852731
0.852731
0.852728
0.852725
0.852722
0.852719
0.852719
0.852716
0.852714
0.852711
0.852708
0.852708
0.852705
0.852702
0.852699
0.852696
0.852696
0.852693
0.852691
0.852688
0.852685
0.852685
0.852682
0.852679
0.852676
0.852673
0.852673
0.85267
0.852668
0.852665
0.852662
0.852662
0.852659
0.852656
0.852653
0.85265
0.85265
0.852647
0.852645
0.852642
0.852639
0.852639
0.852636
0.852633
0.85263
0.852627
0.852627
0.852624
0.852622
0.852619
0.852616
0.852616
0.852613
0.85261
0.852607
0.852604
0.852604
0.852601
0.852599
0.852596
0.852593
0.852593
0.85259
0.852587
0.852584
0.852581
0.852581
0.852578
0.852575
0.852572
0.85257
0.85257
0.852567
0.852564
0.852561
0.852558
0.852558
0.852555
0.852552
0.852549
0.852546
0.852546
0.852543
0.85254
0.852537
0.852534
0.852534
0.852531
0.852528
0.852525
0.852522
0.852522
0.852519
0.852516
0.852513
0.85251
0.85251
0.852507
0.852504
0.852501
0.852498
0.852498
0.852495
0.852492
0.852488
0.852485
0.852485
0.852482
0.852479
0.852476
0.852473
0.852473
0.85247
0.852467
0.852464
0.852461
0.852461
0.852457
0.852454
0.852451
0.852448
0.852448
0.852445
0.852442
0.852438
0.852435
0.852435
0.852432
0.852429
0.852426
0.852422
0.852422
0.852419
0.852416
0.852413
0.85241
0.85241
0.852406
0.852403
0.8524
0.852397
0.852397
0.852393
0.85239
0.852387
0.852383
0.852383
0.85238
0.852377
0.852374
0.85237
0.85237
0.852367
0.852364
0.852361
0.852357
0.852357
0.852354
0.852351
0.852348
0.852344
0.852344
0.852341
0.852338
0.852334
0.852331
0.852331
0.852328
0.852325
0.852321
0.852318
0.852318
0.852315
0.852311
0.852308
0.852305
0.852305
0.852302
0.852298
0.852295
0.852292
0.852292
0.852288
0.852285
0.852282
0.852279
0.852279
0.852275
0.852272
0.852269
0.852265
0.852265
0.852262
0.852259
0.852256
0.852252
0.852252
0.852249
0.852246
0.852243
0.852239
0.852239
0.852236
0.852233
0.852229
0.852226
0.852226
0.852223
0.85222
0.852216
0.852213
0.852213
0.85221
0.852206
0.852203
0.8522
0.8522
0.852197
0.852193
0.85219
0.852187
0.852187
0.852184
0.85218
0.852177
0.852174
0.852174
0.85217
0.852167
0.852164
0.852161
0.852161
0.852157
0.852154
0.852151
0.852148
0.852148
0.852144
0.852141
0.852138
0.852134
0.852134
0.852131
0.852128
0.852125
0.852121
0.852121
0.852118
0.852115
0.852112
0.852108
0.852108
0.852105
0.852102
0.852099
0.852095
0.852095
0.852092
0.852089
0.852085
0.852082
0.852082
0.852079
0.852076
0.852072
0.852069
0.852069
0.852066
0.852063
0.852059
0.852056
0.852056
0.852053
0.85205
0.852046
0.852043
0.852043
0.85204
0.852036
0.852033
0.85203
0.85203
0.852027
0.852023
0.85202
0.852017
0.852017
0.852014
0.85201
0.852007
0.852004
0.852004
0.852001
0.851997
0.851994
0.851991
0.851991
0.851988
0.851984
0.851981
0.851978
0.851978
0.851975
0.851971
0.851968
0.851965
0.851965
0.851962
0.851958
0.851955
0.851952
0.851952
0.851949
0.851945
0.851942
0.851939
0.851939
0.851936
0.851932
0.851929
0.851926
0.851926
0.851923
0.851919
0.851916
0.851913
0.851913
0.85191
0.851906
0.851903
0.8519
0.8519
0.851897
0.851893
0.85189
0.851887
0.851887
0.851884
0.85188
0.851877
0.851874
0.851874
0.851871
0.851867
0.851864
0.851861
0.851861
0.851858
0.851854
0.851851
0.851848
0.851848
0.851845
0.851841
0.851838
0.851835
0.851835
0.851832
0.851828
0.851825
0.851822
0.851822
0.851819
0.851815
0.851812
0.851809
0.851809
0.851805
0.851802
0.851799
0.851796
0.851796
0.851792
0.851789
0.851786
0.851782
0.851782
0.851779
0.851776
0.851772
0.851769
0.851769
0.851766
0.851762
0.851759
0.851756
0.851756
0.851752
0.851749
0.851745
0.851742
0.851742
0.851739
0.851735
0.851732
0.851728