<?xml version="1.0"?>
<VTKFile type="UnstructuredGrid" version="0.1" byte_order="LittleEndian">
<UnstructuredGrid>
<Piece NumberOfPoints="5000" NumberOfCells="4000">
<PointData Scalars="Reaction 0">
<DataArray type="Float32" Name="Reaction 0" format="ascii">
0.533795
0.533795
0.533795
0.533795
0.533795
0.533795
0.533795
0.533795
0.533795
0.533796
0.533796
0.533796
0.533796
0.533796
0.533797
0.533797
0.533797
0.533797
0.533798
0.533798
0.533798
0.533798
0.533799
0.533799
0.5338
0.5338
0.5338
0.533801
0.533801
0.533802
0.533802
0.533802
0.533803
0.533804
0.533804
0.533804
0.533805
0.533806
0.533807
0.533807
0.533807
0.533808
0.533809
0.53381
0.533811
0.533811
0.533811
0.533812
0.533813
0.533814
0.533814
0.533815
0.533816
0.533817
0.533818
0.533818
0.533819
0.53382
0.533822
0.533823
0.533823
0.533824
0.533825
0.533826
0.533828
0.533828
0.533829
0.53383
0.533831
0.533833
0.533833
0.533834
0.533836
0.533837
0.533838
0.533838
0.53384
0.533841
0.533843
0.533844
0.533844
0.533846
0.533848
0.533849
0.533851
0.533851
0.533852
0.533854
0.533856
0.533858
0.533858
0.533859
0.533861
0.533863
0.533865
0.533865
0.533867
0.533868
0.53387
0.533872
0.533872
0.533874
0.533876
0.533878
0.53388
0.53388
0.533882
0.533884
0.533886
0.533889
0.533889
0.533891
0.533893
0.533895
0.533897
0.533897
0.533899
0.533902
0.533904
0.533906
0.533906
0.533909
0.533911
0.533913
0.533916
0.533916
0.533918
0.533921
0.533923
0.533926
0.533926
0.533928
0.533931
0.533933
0.533936
0.533936
0.533939
0.533941
0.533944
0.533947
0.533947
0.533949
0.533952
0.533955
0.533958
0.533958
0.53396
0.533963
0.533966
0.533969
0.533969
0.533972
0.533975
0.533978
0.533981
0.533981
0.533984
0.533987
0.53399
0.533993
0.533993
0.533996
0.533999
0.534002
0.534006
0.534006
0.534009
0.534012
0.534015
0.534019
0.534019
0.534022
0.534025
0.534029
0.534032
0.534032
0.534035
0.534039
0.534042
0.534046
0.534046
0.534049
0.534053
0.534056
0.53406
0.53406
0.534063
0.534067
0.534071
0.534074
0.534074
0.534078
0.534082
0.534085
0.534089
0.534089
0.534093
0.534097
0.534101
0.534104
0.534104
0.534108
0.534112
0.534116
0.53412
0.53412
0.534124
0.534128
0.534132
0.534136
0.534136
0.53414
0.534144
0.534149
0.534153
0.534153
0.534157
0.534161
0.534165
0.53417
0.53417
0.534174
0.534178
0.534182
0.534187
0.534187
0.534191
0.534195
0.5342
0.534204
0.534204
0.534209
0.534213
0.534218
0.534222
0.534222
0.534227
0.534231
0.534236
0.534241
0.534241
0.534245
0.53425
0.534255
0.534259
0.534259
0.534264
0.534269
0.534274
0.534279
0.534279
0.534283
0.534288
0.534293
0.534298
0.534298
0.534303
0.534308
0.534313
0.534318
0.534318
0.534323
0.534328
0.534333
0.534338
0.534338
0.534344
0.534349
0.534354
0.534359
0.534359
0.534364
0.53437
0.534375
0.53438
0.53438
0.534386
0.534391
0.534396
0.534402
0.534402
0.534407
0.534413
0.534418
0.534424
0.534424
0.534429
0.534435
0.53444
0.534446
0.534446
0.534451
0.534457
0.534463
0.534468
0.534468
0.534474
0.53448
0.534486
0.534491
0.534491
0.534497
0.534503
0.534509
0.534515
0.534515
0.534521
0.534527
0.534533
0.534539
0.534539
0.534545
0.534551
0.534557
0.534563
0.534563
0.534569
0.534575
0.534581
0.534587
0.534587
0.534594
0.5346
0.534606
0.534612
0.534612
0.534619
0.534625
0.534631
0.534638
0.534638
0.534644
0.534651
0.534657
0.534664
0.534664
0.53467
0.534677
0.534683
0.53469
0.53469
0.534696
0.534703
0.534709
0.534716
0.534716
0.534723
0.53473
0.534736
0.534743
0.534743
0.53475
0.534757
0.534763
0.53477
0.53477
0.534777
0.534784
0.534791
0.534798
0.534798
0.534805
0.534812
0.534819
0.534826
0.534826
0.534833
0.53484
0.534847
0.534854
0.534854
0.534862
0.534869
0.534876
0.534883
0.534883
0.534891
0.534898
0.534905
0.534913
0.534913
0.53492
0.534927
0.534935
0.534942
0.534942
0.53495
0.534957
0.534965
0.534972
0.534972
0.53498
0.534987
0.534995
0.535003
0.535003
0.53501
0.535018
0.535026
0.535033
0.535033
0.535041
0.535049
0.535057
0.535064
0.535064
0.535072
0.53508
0.535088
0.535096
0.535096
0.535104
0.535112
0.53512
0.535128
0.535128
0.535136
0.535144
0.535152
0.53516
0.53516
0.535168
0.535177
0.535185
0.535193
0.535193
0.535201
0.535209
0.535218
0.535226
0.535226
0.535234
0.535243
0.535251
0.535259
0.535259
0.535268
0.535276
0.535285
0.535293
0.535293
0.535302
0.53531
0.535319
0.535328
0.535328
0.535336
0.535345
0.535354
0.535362
0.535362
0.535371
0.53538
0.535388
0.535397
0.535397
0.535406
0.535415
0.535424
0.535433
0.535433
0.535442
0.535451
0.535459
0.535468
0.535468
0.535477
0.535487
0.535496
0.535505
0.535505
0.535514
0.535523
0.535532
0.535541
0.535541
0.53555
0.53556
0.535569
0.535578
0.535578
0.535587
0.535597
0.535606
0.535616
0.535616
0.535625
0.535634
0.535644
0.535653
0.535653
0.535663
0.535672
0.535682
0.535691
0.535691
0.535701
0.535711
0.53572
0.53573
0.53573
0.53574
0.535749
0.535759
0.535769
0.535769
0.535779
0.535788
0.535798
0.535808
0.535808
0.535818
0.535828
0.535838
0.535848
0.535848
0.535858
0.535868
0.535878
0.535888
0.535888
0.535898
0.535908
0.535918
0.535928
0.535928
0.535938
0.535949
0.535959
0.535969
0.535969
0.535979
0.53599
0.536
0.53601
0.53601
0.536021
0.536031
0.536041
0.536052
0.536052
0.536062
0.536073
0.536083
0.536094
0.536094
0.536104
0.536115
0.536126
0.536136
0.536136
0.536147
0.536158
0.536168
0.536179
0.536179
0.53619
0.536201
0.536211
0.536222
0.536222
0.536233
0.536244
0.536255
0.536266
0.536266
0.536277
0.536288
0.536299
0.53631
0.53631
0.536321
0.536332
0.536343
0.536354
0.536354
0.536365
0.536376
0.536387
0.536399
0.536399
0.53641
0.536421
0.536432
0.536444
0.536444
0.536455
0.536466
0.536478
0.536489
0.536489
0.536501
0.536512
0.536524
0.536535
0.536535
0.536547
0.536558
0.53657
0.536581
0.536581
0.536593
0.536605
0.536616
0.536628
0.536628
0.53664
0.536651
0.536663
0.536675
0.536675
0.536687
0.536699
0.53671
0.536722
0.536722
0.536734
0.536746
0.536758
0.53677
0.53677
0.536782
0.536794
0.536806
0.536818
0.536818
0.53683
0.536843
0.536855
0.536867
0.536867
0.536879
0.536891
0.536904
0.536916
0.536916
0.536928
0.53694
0.536953
0.536965
0.536965
0.536978
0.53699
0.537002
0.537015
0.537015
0.537027
0.53704
0.537052
0.537065
0.537065
0.537078
0.53709
0.537103
0.537116
0.537116
0.537128
0.537141
0.537154
0.537166
0.537166
0.537179
0.537192
0.537205
0.537218
0.537218
0.537231
0.537243
0.537256
0.537269
0.537269
0.537282
0.537295
0.537308
0.537321
0.537321
0.537335
0.537348
0.537361
0.537374
0.537374
0.537387
0.5374
0.537413
0.537427
0.537427
0.53744
0.537453
0.537467
0.53748
0.53748
0.537493
0.537507
0.53752
0.537534
0.537534
0.537547
0.53756
0.537574
0.537587
0.537587
0.537601
0.537615
0.537628
0.537642
0.537642
0.537656
0.537669
0.537683
0.537697
0.537697
0.53771
0.537724
0.537738
0.537752
0.537752
0.537766
0.537779
0.537793
0.537807
0.537807
0.537821
0.537835
0.537849
0.537863
0.537863
0.537877
0.537891
0.537905
0.53792
0.53792
0.537934
0.537948
0.537962
0.537976
0.537976
0.53799
0.538005
0.538019
0.538033
0.538033
0.538048
0.538062
0.538076
0.538091
0.538091
0.538105
0.53812
0.538134
0.538149
0.538149
0.538163
0.538178
0.538192
0.538207
0.538207
0.538222
0.538236
0.538251
0.538266
0.538266
0.53828
0.538295
0.53831
0.538325
0.538325
0.538339
0.538354
0.538369
0.538384
0.538384
0.538399
0.538414
0.538429
0.538444
0.538444
0.538459
0.538474
0.538489
0.538504
0.538504
0.538519
0.538534
0.538549
0.538564
0.538564
0.53858
0.538595
0.53861
0.538625
0.538625
0.538641
0.538656
0.538671
0.538687
0.538687
0.538702
0.538718
0.538733
0.538748
0.538748
0.538764
0.53878
0.538795
0.538811
0.538811
0.538826
0.538842
0.538857
0.538873
0.538873
0.538889
0.538905
0.53892
0.538936
0.538936
0.538952
0.538968
0.538983
0.538999
0.538999
0.539015
0.539031
0.539047
0.539063
0.539063
0.539079
0.539095
0.539111
0.539127
0.539127
0.539143
0.539159
0.539175
0.539191
0.539191
0.539208
0.539224
0.53924
0.539256
0.539256
0.539273
0.539289
0.539305
0.539321
0.539321
0.539338
0.539354
0.539371
0.539387
0.539387
0.539404
0.53942
0.539437
0.539453
0.539453
0.53947
0.539486
0.539503
0.539519
0.539519
0.539536
0.539553
0.539569
0.539586
0.539586
0.539603
0.53962
0.539636
0.539653
0.539653
0.53967
0.539687
0.539704
0.539721
0.539721
0.539738
0.539755
0.539772
0.539789
0.539789
0.539806
0.539823
0.53984
0.539857
0.539857
0.539874
0.539891
0.539909
0.539926
0.539926
0.539943
0.53996
0.539978
0.539995
0.539995
0.540012
0.54003
0.540047
0.540064
0.540064
0.540082
0.540099
0.540117
0.540134
0.540134
0.540152
0.540169
0.540187
0.540204
0.540204
0.540222
0.54024
0.540257
0.540275
0.540275
0.540293
0.54031
0.540328
0.540346
0.540346
0.540364
0.540382
0.5404
0.540417
0.540417
0.540435
0.540453
0.540471
0.540489
0.540489
0.540507
0.540525
0.540543
0.540561
0.540561
0.54058
0.540598
0.540616
0.540634
0.540634
0.540652
0.54067
0.540689
0.540707
0.540707
0.540725
0.540744
0.540762
0.54078
0.54078
0.540799
0.540817
0.540836
0.540854
0.540854
0.540872
0.540891
0.54091
0.540928
0.540928
0.540947
0.540965
0.540984
0.541003
0.541003
0.541021
0.54104
0.541059
0.541078
0.541078
0.541096
0.541115
0.541134
0.541153
0.541153
0.541172
0.541191
0.541209
0.541228
0.541228
0.541247
0.541266
0.541285
0.541304
0.541304
0.541324
0.541343
0.541362
0.541381
0.541381
0.5414
0.541419
0.541438
0.541458
0.541458
0.541477
0.541496
0.541516
0.541535
0.541535
0.541554
0.541574
0.541593
0.541613
0.541613
0.541632
0.541651
0.541671
0.541691
0.541691
0.54171
0.54173
0.541749
0.541769
0.541769
0.541789
0.541808
0.541828
0.541848
0.541848
0.541867
0.541887
0.541907
0.541927
0.541927
0.541947
0.541967
0.541986
0.542006
0.542006
0.542026
0.542046
0.542066
0.542086
0.542086
0.542106
0.542126
0.542146
0.542167
0.542167
0.542187
0.542207
0.542227
0.542247
0.542247
0.542267
0.542288
0.542308
0.542328
0.542328
0.542349
0.542369
0.542389
0.54241
0.54241
0.54243
0.542451
0.542471
0.542492
0.542492
0.542512
0.542533
0.542553
0.542574
0.542574
0.542595
0.542615
0.542636
0.542657
0.542657
0.542677
0.542698
0.542719
0.54274
0.54274
0.54276
0.542781
0.542802
0.542823
0.542823
0.542844
0.542865
0.542886
0.542907
0.542907
0.542928
0.542949
0.54297
0.542991
0.542991
0.543012
0.543033
0.543054
0.543075
0.543075
0.543097
0.543118
0.543139
0.54316
0.54316
0.543182
0.543203
0.543224
0.543246
0.543246
0.543267
0.543289
0.54331
0.543331
0.543331
0.543353
0.543374
0.543396
0.543418
0.543418
0.543439
0.543461
0.543482
0.543504
0.543504
0.543526
0.543547
0.543569
0.543591
0.543591
0.543613
0.543635
0.543656
0.543678
0.543678
0.5437
0.543722
0.543744
0.543766
0.543766
0.543788
0.54381
0.543832
0.543854
0.543854
0.543876
0.543898
0.54392
0.543942
0.543942
0.543965
0.543987
0.544009
0.544031
0.544031
0.544053
0.544076
0.544098
0.54412
0.54412
0.544143
0.544165
0.544188
0.54421
0.54421
0.544232
0.544255
0.544277
0.5443
0.5443
0.544323
0.544345
0.544368
0.54439
0.54439
0.544413
0.544436
0.544458
0.544481
0.544481
0.544504
0.544527
0.544549
0.544572
0.544572
0.544595
0.544618
0.544641
0.544664
0.544664
0.544687
0.54471
0.544733
0.544756
0.544756
0.544779
0.544802
0.544825
0.544848
0.544848
0.544871
0.544894
0.544918
0.544941
0.544941
0.544964
0.544987
0.545011
0.545034
0.545034
0.545057
0.545081
0.545104
0.545127
0.545127
0.545151
0.545174
0.545198
0.545221
0.545221
0.545245
0.545268
0.545292
0.545315
0.545315
0.545339
0.545363
0.545386
0.54541
0.54541
0.545434
0.545457
0.545481
0.545505
0.545505
0.545529
0.545553
0.545577
0.5456
0.5456
0.545624
0.545648
0.545672
0.545696
0.545696
0.54572
0.545744
0.545768
0.545792
0.545792
0.545817
0.545841
0.545865
0.545889
0.545889
0.545913
0.545937
0.545962
0.545986
0.545986
0.54601
0.546035
0.546059
0.546083
0.546083
0.546108
0.546132
0.546157
0.546181
0.546181
0.546205
0.54623
0.546255
0.546279
0.546279
0.546304
0.546328
0.546353
0.546378
0.546378
0.546402
0.546427
0.546452
0.546476
0.546476
0.546501
0.546526
0.546551
0.546576
0.546576
0.546601
0.546626
0.54665
0.546675
0.546675
0.5467
0.546725
0.54675
0.546775
0.546775
0.546801
0.546826
0.546851
0.546876
0.546876
0.546901
0.546926
0.546952
0.546977
0.546977
0.547002
0.547027
0.547053
0.547078
0.547078
0.547103
0.547129
0.547154
0.54718
0.54718
0.547205
0.547231
0.547256
0.547282
0.547282
0.547307
0.547333
0.547358
0.547384
0.547384
0.54741
0.547435
0.547461
0.547487
0.547487
0.547512
0.547538
0.547564
0.54759
0.54759
0.547616
0.547642
0.547667
0.547693
0.547693
0.547719
0.547745
0.547771
0.547797
0.547797
0.547823
0.547849
0.547875
0.547902
0.547902
0.547928
0.547954
0.54798
0.548006
0.548006
0.548033
0.548059
0.548085
0.548111
0.548111
0.548138
0.548164
0.54819
0.548217
0.548217
0.548243
0.54827
0.548296
0.548323
0.548323
0.548349
0.548376
0.548402
0.548429
0.548429
0.548456
0.548482
0.548509
0.548536
0.548536
0.548562
0.548589
0.548616
0.548643
0.548643
0.548669
0.548696
0.548723
0.54875
0.54875
0.548777
0.548804
0.548831
0.548858
0.548858
0.548885
0.548912
0.548939
0.548966
0.548966
0.548993
0.54902
0.549047
0.549075
0.549075
0.549102
0.549129
0.549156
0.549184
0.549184
0.549211
0.549238
0.549266
0.549293
0.549293
0.54932
0.549348
0.549375
0.549403
0.549403
0.54943
0.549458
0.549485
0.549513
0.549513
0.54954
0.549568
0.549596
0.549623
0.549623
0.549651
0.549679
0.549706
0.549734
0.549734
0.549762
0.54979
0.549818
0.549845
0.549845
0.549873
0.549901
0.549929
0.549957
0.549957
0.549985
0.550013
0.550041
0.550069
0.550069
0.550097
0.550125
0.550153
0.550182
0.550182
0.55021
0.550238
0.550266
0.550294
0.550294
0.550323
0.550351
0.550379
0.550408
0.550408
0.550436
0.550464
0.550493
0.550521
0.550521
0.55055
0.550578
0.550607
0.550635
0.550635
0.550664
0.550692
0.550721
0.55075
0.55075
0.550778
0.550807
0.550836
0.550864
0.550864
0.550893
0.550922
0.550951
0.55098
0.55098
0.551008
0.551037
0.551066
0.551095
0.551095
0.551124
0.551153
0.551182
0.551211
0.551211
0.55124
0.551269
0.551298
0.551327
0.551327
0.551357
0.551386
0.551415
0.551444
0.551444
0.551473
0.551503
0.551532
0.551561
0.551561
0.551591
0.55162
0.551649
0.551679
0.551679
0.551708
0.551738
0.551767
0.551797
0.551797
0.551826
0.551856
0.551885
0.551915
0.551915
0.551944
0.551974
0.552004
0.552033
0.552033
0.552063
0.552093
0.552123
0.552152
0.552152
0.552182
0.552212
0.552242
0.552272
0.552272
0.552302
0.552332
0.552362
0.552392
0.552392
0.552422
0.552452
0.552482
0.552512
0.552512
0.552542
0.552572
0.552602
0.552633
0.552633
0.552663
0.552693
0.552723
0.552753
0.552753
0.552784
0.552814
0.552844
0.552875
0.552875
0.552905
0.552936
0.552966
0.552997
0.552997
0.553027
0.553058
0.553088
0.553119
0.553119
0.553149
0.55318
0.553211
0.553241
0.553241
0.553272
0.553303
0.553333
0.553364
0.553364
0.553395
0.553426
0.553457
0.553487
0.553487
0.553518
0.553549
0.55358
0.553611
0.553611
0.553642
0.553673
0.553704
0.553735
0.553735
0.553766
0.553797
0.553829
0.55386
0.55386
0.553891
0.553922
0.553953
0.553985
0.553985
0.554016
0.554047
0.554078
0.55411
0.55411
0.554141
0.554173
0.554204
0.554235
0.554235
0.554267
0.554298
0.55433
0.554361
0.554361
0.554393
0.554425
0.554456
0.554488
0.554488
0.554519
0.554551
0.554583
0.554615
0.554615
0.554646
0.554678
0.55471
0.554742
0.554742
0.554774
0.554805
0.554837
0.554869
0.554869
0.554901
0.554933
0.554965
0.554997
0.554997
0.555029
0.555061
0.555093
0.555126
0.555126
0.555158
0.55519
0.555222
0.555254
0.555254
0.555287
0.555319
0.555351
0.555383
0.555383
0.555416
0.555448
0.555481
0.555513
0.555513
0.555545
0.555578
0.55561
0.555643
0.555643
0.555675
0.555708
0.55574
0.555773
0.555773
0.555806
0.555838
0.555871
0.555904
0.555904
0.555936
0.555969
0.556002
0.556035
0.556035
0.556068
0.5561
0.556133
0.556166
0.556166
0.556199
0.556232
0.556265
0.556298
0.556298
0.556331
0.556364
0.556397
0.55643
0.55643
0.556463
0.556497
0.55653
0.556563
0.556563
0.556596
0.556629
0.556663
0.556696
0.556696
0.556729
0.556763
0.556796
0.556829
0.556829
0.556863
0.556896
0.55693
0.556963
0.556963
0.556997
0.55703
0.557064
0.557097
0.557097
0.557131
0.557164
0.557198
0.557232
0.557232
0.557265
0.557299
0.557333
0.557367
0.557367
0.5574
0.557434
0.557468
0.557502
0.557502
0.557536
0.55757
0.557604
0.557638
0.557638
0.557672
0.557706
0.55774
0.557774
0.557774
0.557808
0.557842
0.557876
0.55791
0.55791
0.557944
0.557979
0.558013
0.558047
0.558047
0.558081
0.558116
0.55815
0.558184
0.558184
0.558219
0.558253
0.558288
0.558322
0.558322
0.558357
0.558391
0.558426
0.55846
0.55846
0.558495
0.558529
0.558564
0.558599
0.558599
0.558633
0.558668
0.558703
0.558737
0.558737
0.558772
0.558807
0.558842
0.558877
0.558877
0.558911
0.558946
0.558981
0.559016
0.559016
0.559051
0.559086
0.559121
0.559156
0.559156
0.559191
0.559226
0.559261
0.559296
0.559296
0.559332
0.559367
0.559402
0.559437
0.559437
0.559472
0.559508
0.559543
0.559578
0.559578
0.559614
0.559649
0.559684
0.55972
0.55972
0.559755
0.559791
0.559826
0.559862
0.559862
0.559897
0.559932
0.559968
0.560003
0.560003
0.560037
0.560072
0.560107
0.560141
0.560141
0.560176
0.56021
0.560245
0.560279
0.560279
0.560314
0.560348
0.560383
0.560417
0.560417
0.560452
0.560487
0.560521
0.560556
0.560556
0.560591
0.560625
0.56066
0.560695
0.560695
0.56073
0.560764
0.560799
0.560834
0.560834
0.560869
0.560904
0.560939
0.560974
0.560974
0.561009
0.561044
0.561079
0.561114
0.561114
0.561149
0.561184
0.561219
0.561254
0.561254
0.561289
0.561324
0.56136
0.561395
0.561395
0.56143
0.561465
0.561501
0.561536
0.561536
0.561571
0.561607
0.561642
0.561677
0.561677
0.561713
0.561748
0.561784
0.561819
0.561819
0.561855
0.56189
0.561926
0.561962
0.561962
0.561997
0.562033
0.562068
0.562104
0.562104
0.56214
0.562176
0.562211
0.562247
0.562247
0.562283
0.562319
0.562355
0.56239
0.56239
0.562426
0.562462
0.562498
0.562534
0.562534
0.56257
0.562606
0.562642
0.562678
0.562678
0.562714
0.56275
0.562787
0.562823
0.562823
0.562859
0.562895
0.562931
0.562968
0.562968
0.563004
0.56304
0.563076
0.563113
0.563113
0.563149
0.563186
0.563222
0.563258
0.563258
0.563295
0.563331
0.563368
0.563404
0.563404
0.563441
0.563477
0.563514
0.563551
0.563551
0.563587
0.563624
0.563661
0.563697
0.563697
0.563734
0.563771
0.563808
0.563844
0.563844
0.563881
0.563918
0.563955
0.563992
0.563992
0.564029
0.564066
0.564103
0.56414
0.56414
0.564177
0.564214
0.564251
0.564288
0.564288
0.564325
0.564362
0.564399
0.564436
0.564436
0.564473
0.564511
0.564548
0.564585
0.564585
0.564622
0.56466
0.564697
0.564734
0.564734
0.564772
0.564809
0.564847
0.564884
0.564884
0.564921
0.564959
0.564996
0.565034
0.565034
0.565072
0.565109
0.565147
0.565184
0.565184
0.565222
0.56526
0.565297
0.565335
0.565335
0.565373
0.565411
0.565448
0.565486
0.565486
0.565524
0.565562
0.5656
0.565638
0.565638
0.565675
0.565713
0.565751
0.565789
0.565789
0.565827
0.565865
0.565904
0.565942
0.565942
0.56598
0.566018
0.566056
0.566094
0.566094
0.566132
0.566171
0.566209
0.566247
0.566247
0.566285
0.566324
0.566362
0.5664
0.5664
0.566439
0.566477
0.566516
0.566554
0.566554
0.566592
0.566631
0.566669
0.566708
0.566708
0.566747
0.566785
0.566824
0.566862
0.566862
0.566901
0.56694
0.566978
0.567017
0.567017
0.567056
0.567095
0.567133
0.567172
0.567172
0.567211
0.56725
0.567289
0.567328
0.567328
0.567367
0.567406
0.567445
0.567484
0.567484
0.567523
0.567562
0.567601
0.56764
0.56764
0.567679
0.567718
0.567757
0.567796
0.567796
0.567836
0.567875
0.567914
0.567953
0.567953
0.567993
0.568032
0.568071
0.568111
0.568111
0.56815
0.568189
0.568229
0.568268
0.568268
0.568308
0.568347
0.568387
0.568426
0.568426
0.568466
0.568505
0.568545
0.568585
0.568585
0.568624
0.568664
0.568704
0.568743
0.568743
0.568783
0.568823
0.568863
0.568902
0.568902
0.568942
0.568982
0.569022
0.569062
0.569062
0.569102
0.569142
0.569182
0.569222
0.569222
0.569262
0.569302
0.569342
0.569382
0.569382
0.569422
0.569462
0.569502
0.569543
0.569543
0.569583
0.569623
0.569663
0.569703
0.569703
0.569744
0.569784
0.569824
0.569865
0.569865
0.569905
0.569946
0.569986
0.570026
0.570026
0.570067
0.570107
0.570148
0.570188
0.570188
0.570229
0.57027
0.57031
0.570351
0.570351
0.570391
0.570432
0.570473
0.570513
0.570513
0.570554
0.570595
0.570636
0.570677
0.570677
0.570717
0.570758
0.570799
0.57084
0.57084
0.570881
0.570922
0.570963
0.571004
0.571004
0.571045
0.571086
0.571127
0.571168
0.571168
0.571209
0.57125
0.571291
0.571333
0.571333
0.571374
0.571415
0.571456
0.571497
0.571497
0.571539
0.57158
0.571621
0.571663
0.571663
0.571704
0.571745
0.571787
0.571828
0.571828
0.57187
0.571911
0.571953
0.571994
0.571994
0.572036
0.572077
0.572119
0.572161
0.572161
0.572202
0.572244
0.572286
0.572327
0.572327
0.572369
0.572411
0.572452
0.572494
0.572494
0.572536
0.572578
0.57262
0.572662
0.572662
0.572704
0.572745
0.572787
0.572829
0.572829
0.572871
0.572913
0.572955
0.572998
0.572998
0.57304
0.573082
0.573124
0.573166
0.573166
0.573208
0.57325
0.573293
0.573335
0.573335
0.573377
0.573419
0.573462
0.573504
0.573504
0.573546
0.573589
0.573631
0.573674
0.573674
0.573716
0.573758
0.573801
0.573843
0.573843
0.573886
0.573929
0.573971
0.574014
0.574014
0.574056
0.574099
0.574142
0.574184
0.574184
0.574227
0.57427
0.574313
0.574355
0.574355
0.574398
0.574441
0.574484
0.574527
0.574527
0.574569
0.574612
0.574655
0.574698
0.574698
0.574741
0.574783
0.574826
0.574868
0.574868
0.57491
0.574952
0.574994
0.575035
0.575035
0.575076
0.575118
0.575159
0.5752
0.5752
0.575241
0.575282
0.575323
0.575364
0.575364
0.575406
0.575447
0.575488
0.575529
0.575529
0.57557
0.575612
0.575653
0.575694
0.575694
0.575735
0.575777
0.575818
0.575859
0.575859
0.575901
0.575942
0.575984
0.576025
0.576025
0.576067
0.576108
0.57615
0.576191
0.576191
0.576233
0.576274
0.576316
0.576357
0.576357
0.576399
0.576441
0.576482
0.576524
0.576524
0.576566
0.576608
0.576649
0.576691
0.576691
0.576733
0.576775
0.576817
0.576858
0.576858
0.5769
0.576942
0.576984
0.577026
0.577026
0.577068
0.57711
0.577152
0.577194
0.577194
0.577236
0.577278
0.57732
0.577362
0.577362
0.577404
0.577447
0.577489
0.577531
0.577531
0.577573
0.577615
0.577658
0.5777
0.5777
0.577742
0.577785
0.577827
0.577869
0.577869
0.577912
0.577954
0.577996
0.578039
0.578039
0.578081
0.578124
0.578166
0.578209
0.578209
0.578251
0.578294
0.578337
0.578379
0.578379
0.578422
0.578464
0.578507
0.57855
0.57855
0.578593
0.578635
0.578678
0.578721
0.578721
0.578764
0.578806
0.578849
0.578892
0.578892
0.578935
0.578978
0.579021
0.579064
0.579064
0.579107
0.57915
0.579193
0.579236
0.579236
0.579279
0.579322
0.579365
0.579408
0.579408
0.579451
0.579494
0.579537
0.57958
0.57958
0.579624
0.579667
0.57971
0.579753
0.579753
0.579797
0.57984
0.579883
0.579927
0.579927
0.57997
0.580013
0.580057
0.5801
0.5801
0.580144
0.580187
0.580231
0.580274
0.580274
0.580318
0.580361
0.580405
0.580448
0.580448
0.580492
0.580536
0.580579
0.580623
0.580623
0.580667
0.58071
0.580754
0.580798
0.580798
0.580842
0.580885
0.580929
0.580973
0.580973
0.581017
0.581061
0.581105
0.581149
0.581149
0.581193
0.581237
0.581281
0.581325
0.581325
0.581369
0.581413
0.581457
0.581501
0.581501
0.581545
0.581589
0.581633
0.581677
0.581677
0.581721
0.581766
0.58181
0.581854
0.581854
0.581898
0.581943
0.581987
0.582031
0.582031
0.582076
0.58212
0.582164
0.582209
0.582209
0.582253
0.582298
0.582342
0.582387
0.582387
0.582431
0.582476
0.58252
0.582565
0.582565
0.582609
0.582654
0.582699
0.582743
0.582743
0.582788
0.582833
0.582877
0.582922
0.582922
0.582967
0.583011
0.583056
0.583101
0.583101
0.583146
0.583191
0.583236
0.583281
0.583281
0.583325
0.58337
0.583415
0.58346
0.58346
0.583505
0.58355
0.583595
0.58364
0.58364
0.583685
0.583731
0.583776
0.583821
0.583821
0.583866
0.583911
0.583956
0.584002
0.584002
0.584047
0.584092
0.584137
0.584183
0.584183
0.584228
0.584273
0.584319
0.584364
0.584364
0.584409
0.584455
0.5845
0.584546
0.584546
0.584591
0.584637
0.584682
0.584728
0.584728
0.584773
0.584819
0.584864
0.58491
0.58491
0.584956
0.585001
0.585047
0.585093
0.585093
0.585138
0.585184
0.58523
0.585276
0.585276
0.585321
0.585367
0.585413
0.585459
0.585459
0.585505
0.585551
0.585597
0.585643
0.585643
0.585688
0.585734
0.58578
0.585826
0.585826
0.585872
0.585919
0.585965
0.586011
0.586011
0.586057
0.586103
0.586149
0.586195
0.586195
0.586241
0.586288
0.586334
0.58638
0.58638
0.586426
0.586473
0.586519
0.586565
0.586565
0.586612
0.586658
0.586704
0.586751
0.586751
0.586797
0.586844
0.58689
0.586937
0.586937
0.586983
0.58703
0.587076
0.587123
0.587123
0.587169
0.587216
0.587263
0.587309
0.587309
0.587356
0.587403
0.587449
0.587496
0.587496
0.587543
0.58759
0.587636
0.587683
0.587683
0.58773
0.587777
0.587824
0.587871
0.587871
0.587918
0.587965
0.588011
0.588058
0.588058
0.588105
0.588152
0.588199
0.588246
0.588246
0.588293
0.58834
0.588387
0.588434
0.588434
0.588481
0.588528
0.588575
0.588622
0.588622
0.588668
0.588714
0.588761
0.588806
0.588806
0.588852
0.588898
0.588943
0.588988
0.588988
0.589033
0.589078
0.589123
0.589168
0.589168
0.589213
0.589258
0.589303
0.589348
0.589348
0.589392
0.589437
0.589482
0.589527
0.589527
0.589572
0.589617
0.589662
0.589707
0.589707
0.589752
0.589797
0.589842
0.589887
0.589887
0.589932
0.589977
0.590022
0.590067
0.590067
0.590112
0.590157
0.590202
0.590248
0.590248
0.590293
0.590338
0.590383
0.590428
0.590428
0.590474
0.590519
0.590564
0.59061
0.59061
0.590655
0.5907
0.590746
0.590791
0.590791
0.590836
0.590882
0.590927
0.590973
0.590973
0.591018
0.591064
0.591109
0.591155
0.591155
0.5912
0.591246
0.591291
0.591337
0.591337
0.591383
0.591428
0.591474
0.59152
0.59152
0.591565
0.591611
0.591657
0.591703
0.591703
0.591748
0.591794
0.59184
0.591886
0.591886
0.591932
0.591977
0.592023
0.592069
0.592069
0.592115
0.592161
0.592207
0.592253
0.592253
0.592299
0.592345
0.592391
0.592437
0.592437
0.592483
0.592529
0.592575
0.592621
0.592621
0.592667
0.592714
0.59276
0.592806
0.592806
0.592852
0.592898
0.592945
0.592991
0.592991
0.593037
0.593083
0.59313
0.593176
0.593176
0.593222
0.593269
0.593315
0.593362
0.593362
0.593408
0.593454
0.593501
0.593547
0.593547
0.593594
0.59364
0.593687
0.593733
0.593733
0.59378
0.593826
0.593873
0.59392
0.59392
0.593966
0.594013
0.59406
0.594106
0.594106
0.594153
0.5942
0.594246
0.594293
0.594293
0.59434
0.594387
0.594434
0.59448
0.59448
0.594527
0.594574
0.594621
0.594668
0.594668
0.594715
0.594762
0.594809
0.594856
0.594856
0.594903
0.59495
0.594997
0.595044
0.595044
0.595091
0.595138
0.595185
0.595232
0.595232
0.595279
0.595326
0.595373
0.595421
0.595421
0.595468
0.595515
0.595562
0.59561
0.59561
0.595657
0.595704
0.595751
0.595799
0.595799
0.595846
0.595893
0.595941
0.595988
0.595988
0.596036
0.596083
0.59613
0.596178
0.596178
0.596225
0.596273
0.59632
0.596368
0.596368
0.596415
0.596463
0.596511
0.596558
0.596558
0.596606
0.596653
0.596701
0.596749
0.596749
0.596796
0.596844
0.596892
0.59694
0.59694
0.596987
0.597035
0.597083
0.597131
0.597131
0.597179
0.597226
0.597274
0.597322
0.597322
0.59737
0.597418
0.597466
0.597514
0.597514
0.597562
0.59761
0.597658
0.597706
0.597706
0.597754
0.597802
0.59785
0.597898
0.597898
0.597946
0.597994
0.598043
0.598091
0.598091
0.598139
0.598187
0.598235
0.598284
0.598284
0.598332
0.59838
0.598428
0.598477
0.598477
0.598525
0.598573
0.598622
0.59867
0.59867
0.598718
0.598767
0.598815
0.598864
0.598864
0.598912
0.598961
0.599009
0.599058
0.599058
0.599106
0.599155
0.599203
0.599252
0.599252
0.5993
0.599349
0.599398
0.599446
0.599446
0.599495
0.599544
0.599592
0.599641
0.599641
0.59969
0.599739
0.599787
0.599836
0.599836
0.599885
0.599934
0.599983
0.600031
0.600031
0.60008
0.600129
0.600178
0.600227
0.600227
0.600276
0.600325
0.600374
0.600423
0.600423
0.600472
0.600521
0.60057
0.600619
0.600619
0.600668
0.600717
0.600766
0.600815
0.600815
0.600864
0.600913
0.600963
0.601012
0.601012
0.601061
0.60111
0.601159
0.601207
0.601207
0.601256
0.601305
0.601353
0.601401
0.601401
0.601449
0.601497
0.601545
0.601593
0.601593
0.60164
0.601687
0.601734
0.601781
0.601781
0.601828
0.601875
0.601922
0.601968
0.601968
0.602015
0.602062
0.602108
0.602155
0.602155
0.602202
0.602248
0.602295
0.602342
0.602342
0.602388
0.602435
0.602482
0.602528
0.602528
0.602575
0.602622
0.602669
0.602715
0.602715
0.602762
0.602809
0.602856
0.602903
0.602903
0.602949
0.602996
0.603043
0.60309
0.60309
0.603137
0.603184
0.603231
0.603278
0.603278
0.603325
0.603372
0.603419
0.603466
0.603466
0.603513
0.60356
0.603607
0.603654
0.603654
0.603701
0.603748
0.603795
0.603843
0.603843
0.60389
0.603937
0.603984
0.604031
0.604031
0.604079
0.604126
0.604173
0.60422
0.60422
0.604268
0.604315
0.604362
0.60441
0.60441
0.604457
0.604504
0.604552
0.604599
0.604599
0.604647
0.604694
0.604741
0.604789
0.604789
0.604836
0.604884
0.604931
0.604979
0.604979
0.605026
0.605074
0.605121
0.605169
0.605169
0.605217
0.605264
0.605312
0.60536
0.60536
0.605407
0.605455
0.605503
0.60555
0.60555
0.605598
0.605646
0.605694
0.605741
0.605741
0.605789
0.605837
0.605885
0.605933
0.605933
0.60598
0.606028
0.606076
0.606124
0.606124
0.606172
0.60622
0.606268
0.606316
0.606316
0.606364
0.606412
0.60646
0.606508
0.606508
0.606556
0.606604
0.606652
0.6067
0.6067
0.606748
0.606796
0.606844
0.606892
0.606892
0.60694
0.606989
0.607037
0.607085
0.607085
0.607133
0.607181
0.60723
0.607278
0.607278
0.607326
0.607375
0.607423
0.607471
0.607471
0.60752
0.607568
0.607616
0.607665
0.607665
0.607713
0.607761
0.60781
0.607858
0.607858
0.607907
0.607955
0.608004
0.608052
0.608052
0.608101
0.608149
0.608198
0.608246
0.608246
0.608295
0.608344
0.608392
0.608441
0.608441
0.608489
0.608538
0.608587
0.608635
0.608635
0.608684
0.608733
0.608782
0.60883
0.60883
0.608879
0.608928
0.608977
0.609025
0.609025
0.609074
0.609123
0.609172
0.609221
0.609221
0.60927
0.609319
0.609367
0.609416
0.609416
0.609465
0.609514
0.609563
0.609612
0.609612
0.609661
0.60971
0.609759
0.609808
0.609808
0.609857
0.609906
0.609956
0.610005
0.610005
0.610054
0.610103
0.610152
0.610201
0.610201
0.61025
0.6103
0.610349
0.610398
0.610398
0.610447
0.610497
0.610546
0.610595
0.610595
0.610644
0.610694
0.610743
0.610792
0.610792
0.610842
0.610891
0.61094
0.61099
0.61099
0.611039
0.611089
0.611138
0.611188
0.611188
0.611237
0.611287
0.611336
0.611386
0.611386
0.611435
0.611485
0.611534
0.611584
0.611584
0.611633
0.611683
0.611733
0.611782
0.611782
0.611832
0.611882
0.611931
0.611981
0.611981
0.612031
0.61208
0.61213
0.61218
0.61218
0.61223
0.612279
0.612329
0.612379
0.612379
0.612428
0.612478
0.612528
0.612577
0.612577
0.612627
0.612676
0.612725
0.612775
0.612775