<?xml version="1.0"?>
<VTKFile type="UnstructuredGrid" version="0.1" byte_order="LittleEndian">
<UnstructuredGrid>
<Piece NumberOfPoints="5000" NumberOfCells="4000">
<PointData Scalars="Reaction 0">
<DataArray type="Float32" Name="Reaction 0" format="ascii">
0.904111
0.904111
0.904111
0.904111
0.904111
0.904111
0.904111
0.904111
0.904111
0.904111
0.904111
0.904111
0.904111
0.904111
0.904111
0.904111
0.904111
0.904111
0.904111
0.904111
0.904111
0.904111
0.904111
0.904111
0.90411
0.90411
0.90411
0.90411
0.90411
0.90411
0.90411
0.90411
0.90411
0.90411
0.90411
0.90411
0.90411
0.90411
0.90411
0.90411
0.90411
0.90411
0.90411
0.90411
0.90411
0.90411
0.90411
0.90411
0.90411
0.904109
0.904109
0.904109
0.904109
0.904109
0.904109
0.904109
0.904109
0.904109
0.904109
0.904109
0.904109
0.904109
0.904109
0.904109
0.904109
0.904109
0.904108
0.904108
0.904108
0.904108
0.904108
0.904108
0.904108
0.904108
0.904108
0.904108
0.904108
0.904108
0.904108
0.904107
0.904107
0.904107
0.904107
0.904107
0.904107
0.904107
0.904107
0.904107
0.904107
0.904106
0.904106
0.904106
0.904106
0.904106
0.904106
0.904106
0.904106
0.904106
0.904106
0.904105
0.904105
0.904105
0.904105
0.904105
0.904105
0.904105
0.904105
0.904105
0.904105
0.904104
0.904104
0.904104
0.904104
0.904104
0.904104
0.904104
0.904104
0.904103
0.904103
0.904103
0.904103
0.904103
0.904103
0.904103
0.904102
0.904102
0.904102
0.904102
0.904102
0.904102
0.904102
0.904102
0.904101
0.904101
0.904101
0.904101
0.904101
0.904101
0.904101
0.9041
0.9041
0.9041
0.9041
0.9041
0.9041
0.9041
0.904099
0.904099
0.904099
0.904099
0.904099
0.904099
0.904098
0.904098
0.904098
0.904098
0.904098
0.904098
0.904097
0.904097
0.904097
0.904097
0.904097
0.904096
0.904096
0.904096
0.904096
0.904096
0.904096
0.904095
0.904095
0.904095
0.904095
0.904095
0.904094
0.904094
0.904094
0.904094
0.904094
0.904094
0.904094
0.904093
0.904093
0.904093
0.904093
0.904093
0.904092
0.904092
0.904092
0.904092
0.904092
0.904091
0.904091
0.904091
0.904091
0.904091
0.90409
0.90409
0.90409
0.904089
0.904089
0.904089
0.904089
0.904089
0.904088
0.904088
0.904088
0.904088
0.904088
0.904087
0.904087
0.904087
0.904087
0.904086
0.904086
0.904086
0.904086
0.904086
0.904085
0.904085
0.904085
0.904085
0.904084
0.904084
0.904084
0.904084
0.904083
0.904083
0.904083
0.904083
0.904083
0.904082
0.904082
0.904082
0.904081
0.904081
0.904081
0.904081
0.90408
0.90408
0.90408
0.90408
0.904079
0.904079
0.904079
0.904079
0.904078
0.904078
0.904078
0.904077
0.904077
0.904077
0.904077
0.904076
0.904076
0.904076
0.904076
0.904075
0.904075
0.904075
0.904075
0.904074
0.904074
0.904074
0.904073
0.904073
0.904073
0.904073
0.904072
0.904072
0.904072
0.904072
0.904071
0.904071
0.90407
0.90407
0.90407
0.90407
0.904069
0.904069
0.904069
0.904069
0.904068
0.904068
0.904067
0.904067
0.904067
0.904067
0.904066
0.904066
0.904066
0.904066
0.904065
0.904065
0.904064
0.904064
0.904064
0.904064
0.904063
0.904063
0.904063
0.904062
0.904062
0.904062
0.904061
0.904061
0.904061
0.90406
0.90406
0.90406
0.90406
0.904059
0.904059
0.904058
0.904058
0.904058
0.904057
0.904057
0.904057
0.904056
0.904056
0.904056
0.904055
0.904055
0.904054
0.904054
0.904054
0.904054
0.904053
0.904053
0.904053
0.904052
0.904052
0.904051
0.904051
0.904051
0.904051
0.90405
0.90405
0.904049
0.904049
0.904049
0.904048
0.904048
0.904047
0.904047
0.904047
0.904046
0.904046
0.904045
0.904045
0.904045
0.904045
0.904044
0.904044
0.904044
0.904043
0.904043
0.904042
0.904042
0.904042
0.904041
0.904041
0.90404
0.90404
0.90404
0.904039
0.904039
0.904038
0.904038
0.904038
0.904037
0.904037
0.904036
0.904036
0.904036
0.904035
0.904035
0.904034
0.904034
0.904034
0.904033
0.904033
0.904032
0.904032
0.904032
0.904031
0.904031
0.90403
0.90403
0.90403
0.904029
0.904029
0.904028
0.904028
0.904028
0.904027
0.904027
0.904026
0.904026
0.904026
0.904025
0.904024
0.904024
0.904023
0.904023
0.904023
0.904022
0.904022
0.904021
0.904021
0.904021
0.90402
0.90402
0.904019
0.904019
0.904018
0.904018
0.904017
0.904017
0.904017
0.904016
0.904016
0.904015
0.904015
0.904015
0.904014
0.904013
0.904013
0.904012
0.904012
0.904012
0.904011
0.904011
0.90401
0.90401
0.904009
0.904009
0.904008
0.904008
0.904008
0.904007
0.904006
0.904006
0.904005
0.904005
0.904005
0.904004
0.904004
0.904003
0.904003
0.904002
0.904002
0.904001
0.904001
0.904001
0.904
0.903999
0.903999
0.903998
0.903998
0.903997
0.903997
0.903996
0.903996
0.903996
0.903995
0.903994
0.903994
0.903993
0.903993
0.903993
0.903992
0.903991
0.903991
0.903991
0.90399
0.903989
0.903989
0.903988
0.903988
0.903987
0.903987
0.903986
0.903986
0.903986
0.903985
0.903984
0.903984
0.903983
0.903983
0.903982
0.903982
0.903981
0.90398
0.90398
0.90398
0.903979
0.903978
0.903978
0.903978
0.903977
0.903976
0.903976
0.903975
0.903975
0.903974
0.903974
0.903973
0.903972
0.903972
0.903972
0.903971
0.90397
0.90397
0.90397
0.903969
0.903968
0.903968
0.903967
0.903967
0.903966
0.903966
0.903965
0.903964
0.903964
0.903963
0.903963
0.903962
0.903961
0.903961
0.903961
0.90396
0.903959
0.903959
0.903959
0.903958
0.903957
0.903956
0.903956
0.903956
0.903955
0.903954
0.903954
0.903953
0.903953
0.903952
0.903951
0.903951
0.90395
0.90395
0.903949
0.903948
0.903948
0.903947
0.903947
0.903946
0.903945
0.903945
0.903944
0.903944
0.903943
0.903943
0.903942
0.903941
0.903941
0.90394
0.90394
0.903939
0.903938
0.903938
0.903937
0.903937
0.903936
0.903935
0.903935
0.903934
0.903933
0.903933
0.903932
0.903932
0.903931
0.90393
0.90393
0.903929
0.903929
0.903928
0.903927
0.903927
0.903926
0.903926
0.903925
0.903924
0.903923
0.903923
0.903923
0.903922
0.903921
0.90392
0.903919
0.903919
0.903919
0.903918
0.903917
0.903916
0.903916
0.903915
0.903915
0.903914
0.903913
0.903913
0.903912
0.903911
0.903911
0.90391
0.90391
0.903909
0.903908
0.903907
0.903907
0.903907
0.903906
0.903905
0.903904
0.903903
0.903903
0.903902
0.903902
0.903901
0.9039
0.9039
0.903899
0.903898
0.903897
0.903897
0.903897
0.903896
0.903895
0.903894
0.903893
0.903893
0.903892
0.903892
0.903891
0.90389
0.90389
0.903889
0.903888
0.903887
0.903886
0.903886
0.903886
0.903885
0.903884
0.903883
0.903883
0.903882
0.903881
0.90388
0.90388
0.90388
0.903879
0.903878
0.903877
0.903876
0.903876
0.903875
0.903874
0.903873
0.903873
0.903873
0.903872
0.903871
0.90387
0.903869
0.903869
0.903868
0.903867
0.903866
0.903865
0.903865
0.903865
0.903864
0.903863
0.903862
0.903862
0.903861
0.90386
0.903859
0.903858
0.903858
0.903857
0.903856
0.903855
0.903855
0.903855
0.903854
0.903853
0.903852
0.903851
0.903851
0.90385
0.903849
0.903848
0.903847
0.903847
0.903846
0.903845
0.903844
0.903843
0.903843
0.903842
0.903842
0.903841
0.90384
0.90384
0.903839
0.903838
0.903837
0.903836
0.903836
0.903835
0.903834
0.903833
0.903832
0.903832
0.903831
0.90383
0.903829
0.903828
0.903828
0.903827
0.903826
0.903825
0.903824
0.903824
0.903823
0.903822
0.903822
0.903821
0.903821
0.90382
0.903819
0.903818
0.903817
0.903817
0.903816
0.903815
0.903814
0.903813
0.903813
0.903812
0.903811
0.90381
0.903809
0.903809
0.903808
0.903807
0.903806
0.903805
0.903805
0.903804
0.903803
0.903802
0.903801
0.903801
0.9038
0.903799
0.903798
0.903797
0.903797
0.903796
0.903795
0.903794
0.903793
0.903793
0.903792
0.903791
0.90379
0.903789
0.903789
0.903788
0.903787
0.903786
0.903785
0.903785
0.903783
0.903782
0.903781
0.90378
0.90378
0.903779
0.903778
0.903777
0.903776
0.903776
0.903775
0.903774
0.903773
0.903772
0.903772
0.903771
0.90377
0.903769
0.903768
0.903768
0.903767
0.903766
0.903765
0.903764
0.903764
0.903763
0.903761
0.90376
0.903759
0.903759
0.903758
0.903757
0.903756
0.903755
0.903755
0.903754
0.903753
0.903752
0.903751
0.903751
0.90375
0.903749
0.903748
0.903746
0.903746
0.903745
0.903744
0.903743
0.903742
0.903742
0.903741
0.90374
0.903739
0.903738
0.903738
0.903737
0.903735
0.903734
0.903733
0.903733
0.903732
0.903731
0.90373
0.903729
0.903729
0.903728
0.903727
0.903725
0.903724
0.903724
0.903723
0.903722
0.903721
0.90372
0.90372
0.903719
0.903718
0.903717
0.903715
0.903715
0.903714
0.903713
0.903712
0.903711
0.903711
0.90371
0.903709
0.903707
0.903706
0.903706
0.903705
0.903704
0.903703
0.903702
0.903702
0.903701
0.903699
0.903698
0.903697
0.903697
0.903696
0.903695
0.903694
0.903692
0.903692
0.903691
0.90369
0.903689
0.903688
0.903688
0.903687
0.903685
0.903684
0.903683
0.903683
0.903682
0.903681
0.90368
0.903678
0.903678
0.903677
0.903676
0.903675
0.903674
0.903674
0.903673
0.903671
0.90367
0.903669
0.903669
0.903668
0.903667
0.903665
0.903664
0.903664
0.903663
0.903662
0.903661
0.903659
0.903659
0.903658
0.903657
0.903656
0.903655
0.903655
0.903653
0.903652
0.903651
0.90365
0.90365
0.903648
0.903647
0.903646
0.903645
0.903645
0.903644
0.903642
0.903641
0.90364
0.90364
0.903639
0.903637
0.903636
0.903635
0.903635
0.903634
0.903632
0.903631
0.90363
0.90363
0.903629
0.903628
0.903626
0.903625
0.903625
0.903624
0.903623
0.903621
0.90362
0.90362
0.903619
0.903618
0.903616
0.903615
0.903615
0.903614
0.903612
0.903611
0.90361
0.90361
0.903609
0.903607
0.903606
0.903605
0.903605
0.903604
0.903602
0.903601
0.9036
0.9036
0.903598
0.903597
0.903596
0.903595
0.903595
0.903593
0.903592
0.903591
0.903589
0.903589
0.903588
0.903587
0.903586
0.903584
0.903584
0.903583
0.903582
0.90358
0.903579
0.903579
0.903578
0.903577
0.903575
0.903574
0.903574
0.903573
0.903571
0.90357
0.903569
0.903569
0.903567
0.903566
0.903565
0.903563
0.903563
0.903562
0.903561
0.903559
0.903558
0.903558
0.903557
0.903555
0.903554
0.903553
0.903553
0.903551
0.90355
0.903549
0.903547
0.903547
0.903546
0.903545
0.903543
0.903542
0.903542
0.903541
0.903539
0.903538
0.903537
0.903537
0.903535
0.903534
0.903533
0.903531
0.903531
0.90353
0.903529
0.903527
0.903526
0.903526
0.903524
0.903523
0.903522
0.90352
0.90352
0.903519
0.903518
0.903516
0.903515
0.903515
0.903513
0.903512
0.903511
0.903509
0.903509
0.903508
0.903507
0.903505
0.903504
0.903504
0.903502
0.903501
0.9035
0.903498
0.903498
0.903497
0.903495
0.903494
0.903493
0.903493
0.903491
0.90349
0.903488
0.903487
0.903487
0.903486
0.903484
0.903483
0.903481
0.903481
0.90348
0.903479
0.903477
0.903476
0.903476
0.903474
0.903473
0.903472
0.90347
0.90347
0.903469
0.903467
0.903466
0.903464
0.903464
0.903463
0.903462
0.90346
0.903459
0.903459
0.903457
0.903456
0.903454
0.903453
0.903453
0.903451
0.90345
0.903449
0.903447
0.903447
0.903446
0.903444
0.903443
0.903441
0.903441
0.90344
0.903438
0.903437
0.903435
0.903435
0.903434
0.903432
0.903431
0.903429
0.903429
0.903428
0.903426
0.903425
0.903423
0.903423
0.903422
0.90342
0.903419
0.903417
0.903417
0.903416
0.903414
0.903413
0.903411
0.903411
0.90341
0.903408
0.903407
0.903405
0.903405
0.903404
0.903402
0.903401
0.903399
0.903399
0.903397
0.903396
0.903394
0.903393
0.903393
0.903391
0.90339
0.903388
0.903387
0.903387
0.903385
0.903383
0.903382
0.90338
0.90338
0.903379
0.903377
0.903376
0.903374
0.903374
0.903372
0.903371
0.903369
0.903368
0.903368
0.903366
0.903364
0.903363
0.903361
0.903361
0.903359
0.903358
0.903356
0.903355
0.903355
0.903353
0.903351
0.90335
0.903348
0.903348
0.903346
0.903345
0.903343
0.903341
0.903341
0.90334
0.903338
0.903336
0.903335
0.903335
0.903333
0.903331
0.90333
0.903328
0.903328
0.903326
0.903325
0.903323
0.903321
0.903321
0.90332
0.903318
0.903316
0.903315
0.903315
0.903313
0.903311
0.90331
0.903308
0.903308
0.903306
0.903305
0.903303
0.903301
0.903301
0.903299
0.903298
0.903296
0.903294
0.903294
0.903293
0.903291
0.903289
0.903287
0.903287
0.903286
0.903284
0.903282
0.903281
0.903281
0.903279
0.903277
0.903275
0.903274
0.903274
0.903272
0.90327
0.903269
0.903267
0.903267
0.903265
0.903263
0.903262
0.90326
0.90326
0.903258
0.903256
0.903255
0.903253
0.903253
0.903251
0.903249
0.903248
0.903246
0.903246
0.903244
0.903242
0.903241
0.903239
0.903239
0.903237
0.903235
0.903234
0.903232
0.903232
0.90323
0.903228
0.903227
0.903225
0.903225
0.903223
0.903221
0.903219
0.903218
0.903218
0.903216
0.903214
0.903212
0.903211
0.903211
0.903209
0.903207
0.903205
0.903203
0.903203
0.903202
0.9032
0.903198
0.903196
0.903196
0.903194
0.903193
0.903191
0.903189
0.903189
0.903187
0.903185
0.903184
0.903182
0.903182
0.90318
0.903178
0.903176
0.903175
0.903175
0.903173
0.903171
0.903169
0.903167
0.903167
0.903165
0.903164
0.903162
0.90316
0.90316
0.903158
0.903156
0.903155
0.903153
0.903153
0.903151
0.903149
0.903147
0.903145
0.903145
0.903144
0.903142
0.90314
0.903138
0.903138
0.903136
0.903134
0.903132
0.903131
0.903131
0.903129
0.903127
0.903125
0.903123
0.903123
0.903121
0.903119
0.903118
0.903116
0.903116
0.903114
0.903112
0.90311
0.903108
0.903108
0.903106
0.903105
0.903103
0.903101
0.903101
0.903099
0.903097
0.903095
0.903093
0.903093
0.903091
0.90309
0.903088
0.903086
0.903086
0.903084
0.903082
0.90308
0.903078
0.903078
0.903076
0.903074
0.903072
0.903071
0.903071
0.903069
0.903067
0.903065
0.903063
0.903063
0.903061
0.903059
0.903057
0.903055
0.903055
0.903053
0.903052
0.90305
0.903048
0.903048
0.903046
0.903044
0.903042
0.90304
0.90304
0.903038
0.903036
0.903034
0.903032
0.903032
0.90303
0.903028
0.903027
0.903025
0.903025
0.903023
0.903021
0.903019
0.903017
0.903017
0.903015
0.903013
0.903011
0.903009
0.903009
0.903007
0.903005
0.903003
0.903001
0.903001
0.902999
0.902997
0.902995
0.902993
0.902993
0.902991
0.90299
0.902988
0.902986
0.902986
0.902984
0.902982
0.90298
0.902978
0.902978
0.902976
0.902974
0.902972
0.90297
0.90297
0.902968
0.902966
0.902964
0.902962
0.902962
0.90296
0.902958
0.902956
0.902954
0.902954
0.902952
0.90295
0.902948
0.902946
0.902946
0.902944
0.902942
0.90294
0.902938
0.902938
0.902936
0.902934
0.902932
0.90293
0.90293
0.902928
0.902926
0.902924
0.902922
0.902922
0.90292
0.902918
0.902916
0.902914
0.902914
0.902912
0.90291
0.902908
0.902906
0.902906
0.902904
0.902902
0.9029
0.902898
0.902898
0.902896
0.902894
0.902892
0.90289
0.90289
0.902888
0.902885
0.902883
0.902881
0.902881
0.902879
0.902877
0.902875
0.902873
0.902873
0.902871
0.902869
0.902867
0.902865
0.902865
0.902863
0.902861
0.902859
0.902857
0.902857
0.902855
0.902853
0.902851
0.902849
0.902849
0.902846
0.902844
0.902842
0.90284
0.90284
0.902838
0.902836
0.902834
0.902832
0.902832
0.90283
0.902828
0.902826
0.902824
0.902824
0.902822
0.902819
0.902817
0.902815
0.902815
0.902813
0.902811
0.902809
0.902807
0.902807
0.902805
0.902803
0.902801
0.902799
0.902799
0.902796
0.902794
0.902792
0.90279
0.90279
0.902788
0.902786
0.902784
0.902782
0.902782
0.90278
0.902778
0.902775
0.902773
0.902773
0.902771
0.902769
0.902767
0.902765
0.902765
0.902763
0.902761
0.902758
0.902756
0.902756
0.902754
0.902752
0.90275
0.902748
0.902748
0.902746
0.902744
0.902741
0.902739
0.902739
0.902737
0.902735
0.902733
0.902731
0.902731
0.902729
0.902726
0.902724
0.902722
0.902722
0.90272
0.902718
0.902716
0.902713
0.902713
0.902711
0.902709
0.902707
0.902705
0.902705
0.902703
0.9027
0.902698
0.902696
0.902696
0.902694
0.902692
0.90269
0.902687
0.902687
0.902685
0.902683
0.902681
0.902679
0.902679
0.902677
0.902674
0.902672
0.90267
0.90267
0.902668
0.902666
0.902663
0.902661
0.902661
0.902659
0.902657
0.902655
0.902653
0.902653
0.90265
0.902648
0.902646
0.902644
0.902644
0.902642
0.902639
0.902637
0.902635
0.902635
0.902633
0.90263
0.902628
0.902626
0.902626
0.902624
0.902622
0.902619
0.902617
0.902617
0.902615
0.902613
0.902611
0.902608
0.902608
0.902606
0.902604
0.902602
0.902599
0.902599
0.902597
0.902595
0.902593
0.90259
0.90259
0.902588
0.902586
0.902584
0.902582
0.902582
0.902579
0.902577
0.902575
0.902573
0.902573
0.90257
0.902568
0.902566
0.902564
0.902564
0.902561
0.902559
0.902557
0.902555
0.902555
0.902552
0.90255
0.902548
0.902546
0.902546
0.902543
0.902541
0.902539
0.902536
0.902536
0.902534
0.902532
0.90253
0.902527
0.902527
0.902525
0.902523
0.902521
0.902518
0.902518
0.902516
0.902514
0.902511
0.902509
0.902509
0.902507
0.902505
0.902502
0.9025
0.9025
0.902498
0.902495
0.902493
0.902491
0.902491
0.902489
0.902486
0.902484
0.902482
0.902482
0.902479
0.902477
0.902475
0.902472
0.902472
0.90247
0.902468
0.902466
0.902463
0.902463
0.902461
0.902459
0.902456
0.902454
0.902454
0.902452
0.902449
0.902447
0.902445
0.902445
0.902442
0.90244
0.902438
0.902435
0.902435
0.902433
0.902431
0.902428
0.902426
0.902426
0.902424
0.902421
0.902419
0.902417
0.902417
0.902414
0.902412
0.90241
0.902407
0.902407
0.902405
0.902403
0.9024
0.902398
0.902398
0.902395
0.902393
0.902391
0.902388
0.902388
0.902386
0.902384
0.902381
0.902379
0.902379
0.902376
0.902374
0.902372
0.902369
0.902369
0.902367
0.902365
0.902362
0.90236
0.90236
0.902357
0.902355
0.902352
0.90235
0.90235
0.902348
0.902345
0.902343
0.90234
0.90234
0.902338
0.902335
0.902333
0.90233
0.90233
0.902328
0.902326
0.902323
0.902321
0.902321
0.902318
0.902316
0.902313
0.902311
0.902311
0.902308
0.902306
0.902303
0.902301
0.902301
0.902298
0.902296
0.902293
0.902291
0.902291
0.902288
0.902286
0.902283
0.902281
0.902281
0.902278
0.902276
0.902273
0.902271
0.902271
0.902268
0.902266
0.902263
0.90226
0.90226
0.902258
0.902255
0.902253
0.90225
0.90225
0.902248
0.902245
0.902242
0.90224
0.90224
0.902237
0.902235
0.902232
0.90223
0.90223
0.902227
0.902224
0.902222
0.902219
0.902219
0.902217
0.902214
0.902211
0.902209
0.902209
0.902206
0.902204
0.902201
0.902198
0.902198
0.902196
0.902193
0.90219
0.902188
0.902188
0.902185
0.902183
0.90218
0.902177
0.902177
0.902175
0.902172
0.902169
0.902167
0.902167
0.902164
0.902161
0.902159
0.902156
0.902156
0.902153
0.902151
0.902148
0.902146
0.902146
0.902143
0.90214
0.902138
0.902135
0.902135
0.902132
0.90213
0.902127
0.902124
0.902124
0.902122
0.902119
0.902116
0.902114
0.902114
0.902111
0.902108
0.902106
0.902103
0.902103
0.9021
0.902098
0.902095
0.902092
0.902092
0.902089
0.902087
0.902084
0.902081
0.902081
0.902079
0.902076
0.902073
0.902071
0.902071
0.902068
0.902065
0.902063
0.90206
0.90206
0.902057
0.902054
0.902052
0.902049
0.902049
0.902046
0.902044
0.902041
0.902038
0.902038
0.902036
0.902033
0.90203
0.902027
0.902027
0.902025
0.902022
0.902019
0.902017
0.902017
0.902014
0.902011
0.902008
0.902006
0.902006
0.902003
0.902
0.901997
0.901995
0.901995
0.901992
0.901989
0.901987
0.901984
0.901984
0.901981
0.901978
0.901976
0.901973
0.901973
0.90197
0.901967
0.901965
0.901962
0.901962
0.901959
0.901956
0.901954
0.901951
0.901951
0.901948
0.901945
0.901943
0.90194
0.90194
0.901937
0.901934
0.901932
0.901929
0.901929
0.901926
0.901923
0.901921
0.901918
0.901918
0.901915
0.901912
0.901909
0.901907
0.901907
0.901904
0.901901
0.901898
0.901896
0.901896
0.901893
0.90189
0.901887
0.901884
0.901884
0.901882
0.901879
0.901876
0.901873
0.901873
0.901871
0.901868
0.901865
0.901862
0.901862
0.901859
0.901857
0.901854
0.901851
0.901851
0.901848
0.901845
0.901843
0.90184
0.90184
0.901837
0.901834
0.901831
0.901829
0.901829
0.901826
0.901823
0.90182
0.901817
0.901817
0.901814
0.901812
0.901809
0.901806
0.901806
0.901803
0.9018
0.901798
0.901795
0.901795
0.901792
0.901789
0.901786
0.901783
0.901783
0.901781
0.901778
0.901775
0.901772
0.901772
0.901769
0.901766
0.901764
0.901761
0.901761
0.901758
0.901755
0.901752
0.901749
0.901749
0.901746
0.901744
0.901741
0.901738
0.901738
0.901735
0.901732
0.901729
0.901726
0.901726
0.901724
0.901721
0.901718
0.901715
0.901715
0.901712
0.901709
0.901706
0.901704
0.901704
0.901701
0.901698
0.901695
0.901692
0.901692
0.901689
0.901686
0.901684
0.901681
0.901681
0.901678
0.901675
0.901672
0.901669
0.901669
0.901666
0.901663
0.90166
0.901658
0.901658
0.901655
0.901652
0.901649
0.901646
0.901646
0.901643
0.90164
0.901637
0.901634
0.901634
0.901632
0.901629
0.901626
0.901623
0.901623
0.90162
0.901617
0.901614
0.901611
0.901611
0.901608
0.901605
0.901602
0.9016
0.9016
0.901597
0.901594
0.901591
0.901588
0.901588
0.901585
0.901582
0.901579
0.901576
0.901576
0.901573
0.90157
0.901567
0.901565
0.901565
0.901562
0.901559
0.901556
0.901553
0.901553
0.90155
0.901547
0.901544
0.901541
0.901541
0.901538
0.901535
0.901532
0.901529
0.901529
0.901526
0.901523
0.90152
0.901518
0.901518
0.901515
0.901512
0.901509
0.901506
0.901506
0.901503
0.9015
0.901497
0.901494
0.901494
0.901491
0.901488
0.901485
0.901482
0.901482
0.901479
0.901476
0.901473
0.90147
0.90147
0.901467
0.901464
0.901461
0.901458
0.901458
0.901455
0.901452
0.901449
0.901446
0.901446
0.901443
0.90144
0.901437
0.901435
0.901435
0.901432
0.901429
0.901426
0.901423
0.901423
0.90142
0.901417
0.901414
0.901411
0.901411
0.901408
0.901405
0.901402
0.901399
0.901399
0.901396
0.901393
0.90139
0.901387
0.901387
0.901384
0.901381
0.901378
0.901375
0.901375
0.901372
0.901369
0.901366
0.901363
0.901363
0.90136
0.901357
0.901354
0.90135
0.90135
0.901347
0.901344
0.901341
0.901338
0.901338
0.901335
0.901332
0.901329
0.901326
0.901326
0.901323
0.90132
0.901317
0.901314
0.901314
0.901311
0.901308
0.901305
0.901302
0.901302
0.901299
0.901296
0.901293
0.901289
0.901289
0.901286
0.901283
0.90128
0.901277
0.901277
0.901274
0.901271
0.901268
0.901265
0.901265
0.901261
0.901258
0.901255
0.901252
0.901252
0.901249
0.901246
0.901243
0.901239
0.901239
0.901236
0.901233
0.90123
0.901227
0.901227
0.901224
0.90122
0.901217
0.901214
0.901214
0.901211
0.901208
0.901205
0.901201
0.901201
0.901198
0.901195
0.901192
0.901189
0.901189
0.901186
0.901182
0.901179
0.901176
0.901176
0.901173
0.901169
0.901166
0.901163
0.901163
0.90116
0.901157
0.901153
0.90115
0.90115
0.901147
0.901144
0.90114
0.901137
0.901137
0.901134
0.90113
0.901127
0.901124
0.901124
0.901121
0.901117
0.901114
0.901111
0.901111
0.901108
0.901104
0.901101
0.901098
0.901098
0.901094
0.901091
0.901088
0.901084
0.901084
0.901081
0.901078
0.901074
0.901071
0.901071
0.901068
0.901065
0.901061
0.901058
0.901058
0.901055
0.901051
0.901048
0.901045
0.901045
0.901041
0.901038
0.901035
0.901031
0.901031
0.901028
0.901025
0.901021
0.901018
0.901018
0.901015
0.901011
0.901008
0.901005
0.901005
0.901001
0.900998
0.900994
0.900991
0.900991
0.900988
0.900984
0.900981
0.900978
0.900978
0.900974
0.900971
0.900968
0.900964
0.900964
0.900961
0.900958
0.900954
0.900951
0.900951
0.900947
0.900944
0.900941
0.900937
0.900937
0.900934
0.900931
0.900927
0.900924
0.900924
0.90092
0.900917
0.900914
0.90091
0.90091
0.900907
0.900904
0.9009
0.900897
0.900897
0.900893
0.90089
0.900887
0.900883
0.900883
0.90088
0.900876
0.900873
0.90087
0.90087
0.900866
0.900863
0.90086
0.900856
0.900856
0.900853
0.900849
0.900846
0.900842
0.900842
0.900839
0.900836
0.900832
0.900829
0.900829
0.900825
0.900822
0.900819
0.900815
0.900815
0.900812
0.900808
0.900805
0.900802
0.900802
0.900798
0.900795
0.900791
0.900788
0.900788
0.900784
0.900781
0.900778
0.900774
0.900774
0.900771
0.900767
0.900764
0.90076
0.90076
0.900757
0.900754
0.90075
0.900747
0.900747
0.900743
0.90074
0.900736
0.900733
0.900733
0.90073
0.900726
0.900723
0.900719
0.900719
0.900716
0.900712
0.900709
0.900705
0.900705
0.900702
0.900698
0.900695
0.900692
0.900692
0.900688
0.900685
0.900681
0.900678
0.900678
0.900674
0.900671
0.900667
0.900664
0.900664
0.90066
0.900657
0.900654
0.90065
0.90065
0.900647
0.900643
0.90064
0.900636
0.900636
0.900633
0.900629
0.900626
0.900622
0.900622
0.900619
0.900615
0.900612
0.900608
0.900608
0.900605
0.900601
0.900598
0.900594
0.900594
0.900591
0.900587
0.900584
0.90058
0.90058
0.900577
0.900573
0.90057
0.900566
0.900566
0.900563
0.900559
0.900556
0.900552
0.900552
0.900549
0.900545
0.900542
0.900538
0.900538
0.900535
0.900531
0.900528
0.900524
0.900524
0.900521
0.900517
0.900514
0.90051
0.90051
0.900507
0.900503
0.9005
0.900496
0.900496
0.900493
0.900489
0.900486
0.900482
0.900482
0.900479
0.900475
0.900472
0.900468
0.900468
0.900465
0.900461
0.900458
0.900454
0.900454
0.90045
0.900447
0.900443
0.90044
0.90044
0.900436
0.900433
0.900429
0.900426
0.900426
0.900422
0.900419
0.900415
0.900412
0.900412
0.900408
0.900404
0.900401
0.900397
0.900397
0.900394
0.90039
0.900387
0.900383
0.900383
0.90038
0.900376
0.900372
0.900369
0.900369
0.900365
0.900362
0.900358
0.900355
0.900355
0.900351
0.900348
0.900344
0.90034
0.90034
0.900337
0.900333
0.90033
0.900326
0.900326
0.900323
0.900319
0.900315
0.900312
0.900312
0.900308
0.900305
0.900301
0.900298
0.900298
0.900294
0.90029
0.900287
0.900283
0.900283
0.90028
0.900276
0.900272
0.900269
0.900269
0.900265
0.900262
0.900258
0.900254
0.900254
0.900251
0.900247
0.900243
0.90024
0.90024
0.900236
0.900233
0.900229
0.900225
0.900225
0.900222
0.900218
0.900214
0.900211
0.900211
0.900207
0.900203
0.9002
0.900196
0.900196
0.900192
0.900189
0.900185
0.900181
0.900181
0.900177
0.900174
0.90017
0.900166
0.900166
0.900163
0.900159
0.900155
0.900151
0.900151
0.900148
0.900144
0.90014
0.900136
0.900136
0.900133
0.900129
0.900125
0.900121
0.900121
0.900118
0.900114
0.90011
0.900107
0.900107
0.900103
0.900099
0.900095
0.900091
0.900091
0.900088
0.900084
0.90008
0.900076
0.900076
0.900073
0.900069
0.900065
0.900061
0.900061
0.900057
0.900054
0.90005
0.900046
0.900046
0.900042
0.900038
0.900034
0.900031
0.900031
0.900027
0.900023
0.900019
0.900015
0.900015
0.900011
0.900007
0.900004
0.9
0.9
0.899996
0.899992
0.899988
0.899984
0.899984
0.89998
0.899976
0.899973
0.899969
0.899969
0.899965
0.899961
0.899957
0.899953
0.899953
0.899949
0.899945
0.899941
0.899937
0.899937
0.899934
0.89993
0.899926
0.899922
0.899922
0.899918
0.899914
0.89991
0.899906
0.899906
0.899902
0.899898
0.899895
0.899891
0.899891
0.899887
0.899883
0.899879
0.899875
0.899875
0.899871
0.899867
0.899863
0.899859
0.899859
0.899855
0.899851
0.899847
0.899844
0.899844
0.89984
0.899836
0.899832
0.899828
0.899828
0.899824
0.89982
0.899816
0.899812
0.899812
0.899808
0.899804
0.8998
0.899796
0.899796
0.899792
0.899788
0.899784
0.899781
0.899781
0.899777
0.899773
0.899769
0.899765
0.899765
0.899761
0.899757
0.899753
0.899749
0.899749
0.899745
0.899741
0.899737
0.899733
0.899733
0.899729
0.899725
0.899721
0.899717
0.899717
0.899713
0.899709
0.899705
0.899701
0.899701
0.899697
0.899693
0.89969
0.899686
0.899686
0.899682
0.899678
0.899674
0.89967
0.89967
0.899666
0.899662
0.899658
0.899654
0.899654
0.89965
0.899646
0.899642
0.899638
0.899638
0.899634
0.89963
0.899626
0.899622
0.899622
0.899618
0.899614
0.89961
0.899606
0.899606
0.899602
0.899598
0.899594
0.89959
0.89959
0.899586
0.899582
0.899578
0.899574
0.899574
0.89957
0.899566
0.899562
0.899558
0.899558
0.899554
0.89955
0.899546
0.899542
0.899542
0.899538
0.899534
0.89953
0.899526
0.899526
0.899522
0.899518
0.899514
0.89951
0.89951
0.899506
0.899502
0.899498
0.899494
0.899494
0.89949
0.899486
0.899482
0.899478
0.899478
0.899474
0.89947
0.899466
0.899462
0.899462
0.899458
0.899454
0.89945
0.899445
0.899445
0.899441
0.899437
0.899433
0.899429
0.899429
0.899425
0.899421
0.899417
0.899413
0.899413
0.899409
0.899405
0.899401
0.899397
0.899397
0.899393
0.899389
0.899385
0.899381
0.899381
0.899377
0.899373
0.899369
0.899365
0.899365
0.899361
0.899357
0.899353
0.899348
0.899348
0.899344
0.89934
0.899336
0.899332
0.899332
0.899328
0.899324
0.89932
0.899316
0.899316
0.899312
0.899308
0.899304
0.8993
0.8993
0.899296
0.899292
0.899288
0.899283
0.899283
0.899279
0.899275
0.899271
0.899267
0.899267
0.899263
0.899259
0.899255
0.899251
0.899251
0.899247
0.899243
0.899239
0.899235
0.899235
0.89923
0.899226
0.899222
0.899218
0.899218
0.899214
0.89921
0.899206
0.899202
0.899202
0.899198
0.899193
0.899189
0.899185
0.899185
0.899181
0.899177
0.899173
0.899169
0.899169
0.899165
0.89916
0.899156
0.899152
0.899152
0.899148
0.899144
0.89914
0.899135
0.899135
0.899131
0.899127
0.899123
0.899119
0.899119
0.899115
0.89911
0.899106
0.899102
0.899102
0.899098
0.899093
0.899089
0.899085
0.899085
0.899081
0.899077
0.899072
0.899068
0.899068
0.899064
0.89906
0.899055
0.899051
0.899051
0.899047
0.899043
0.899038
0.899034
0.899034
0.89903
0.899026
0.899021
0.899017
0.899017
0.899013
0.899009
0.899004
0.899
0.899
0.898996
0.898992
0.898987
0.898983
0.898983
0.898979
0.898974
0.89897
0.898966
0.898966
0.898961
0.898957
0.898953
0.898948
0.898948
0.898944
0.89894
0.898935
0.898931
0.898931
0.898927
0.898922
0.898918
0.898914
0.898914
0.898909
0.898905
0.8989
0.898896
0.898896
0.898892
0.898887
0.898883
0.898879
0.898879
0.898874
0.89887
0.898865
0.898861
0.898861
0.898857
0.898852
0.898848
0.898843
0.898843
0.898839
0.898835
0.89883
0.898826
0.898826
0.898821
0.898817
0.898813
0.898808
0.898808
0.898804
0.898799
0.898795
0.898791
0.898791
0.898786
0.898782
0.898777
0.898773
0.898773
0.898768
0.898764
0.89876
0.898755
0.898755
0.898751
0.898746
0.898742
0.898738
0.898738
0.898733
0.898729
0.898724
0.89872
0.89872
0.898715
0.898711
0.898707
0.898702
0.898702
0.898698
0.898693
0.898689
0.898684
0.898684
0.89868
0.898675
0.898671
0.898667
0.898667
0.898662
0.898658
0.898653
0.898649
0.898649
0.898644
0.89864
0.898635
0.898631
0.898631
0.898627
0.898622
0.898618
0.898613
0.898613
0.898609
0.898604
0.8986
0.898595
0.898595
0.898591
0.898587
0.898582
0.898578
0.898578
0.898573
0.898569
0.898564
0.89856
0.89856
0.898555
0.898551
0.898546
0.898542
0.898542
0.898537
0.898533
0.898529
0.898524
0.898524
0.89852
0.898515
0.898511
0.898506
0.898506
0.898502
0.898497
0.898493
0.898488
0.898488
0.898484
0.898479
0.898475
0.89847
0.89847
0.898466
0.898461
0.898457
0.898452
0.898452
0.898448
0.898443
0.898439
0.898434
0.898434
0.89843
0.898426
0.898421
0.898417
0.898417
0.898412
0.898408
0.898403
0.898399
0.898399
0.898394
0.89839
0.898385
0.898381
0.898381
0.898376
0.898372
0.898367
0.898363
0.898363
0.898358
0.898354
0.898349
0.898345
0.898345
0.89834
0.898336
0.898331
0.898327
0.898327
0.898322
0.898318
0.898313
0.898309
0.898309
0.898304
0.8983
0.898295
0.89829
0.89829
0.898286
0.898281
0.898277
0.898272
0.898272
0.898268
0.898263
0.898259
0.898254
0.898254
0.89825
0.898245
0.898241
0.898236
0.898236
0.898232
0.898227
0.898223
0.898218
0.898218
0.898214
0.898209
0.898205
0.8982
0.8982
0.898195
0.898191
0.898186
0.898182
0.898182
0.898177
0.898173
0.898168
0.898164
0.898164
0.898159
0.898154
0.89815
0.898145
0.898145
0.898141
0.898136
0.898132
0.898127
0.898127
0.898122
0.898118
0.898113
0.898109
0.898109
0.898104
0.898099
0.898095
0.89809
0.89809
0.898086
0.898081
0.898076
0.898072
0.898072
0.898067
0.898062
0.898058
0.898053
0.898053
0.898049
0.898044
0.898039
0.898035
0.898035
0.89803
0.898025
0.89802
0.898016
0.898016
0.898011
0.898006
0.898002
0.897997