<?xml version="1.0"?>
<VTKFile type="UnstructuredGrid" version="0.1" byte_order="LittleEndian">
<UnstructuredGrid>
<Piece NumberOfPoints="5000" NumberOfCells="4000">
<PointData Scalars="Reaction 0">
<DataArray type="Float32" Name="Reaction 0" format="ascii">
0.347911
0.347911
0.347911
0.347911
0.347911
0.347911
0.347911
0.347911
0.347912
0.347912
0.347912
0.347912
0.347912
0.347913
0.347913
0.347913
0.347913
0.347914
0.347914
0.347915
0.347915
0.347915
0.347916
0.347916
0.347917
0.347917
0.347918
0.347918
0.347919
0.34792
0.34792
0.34792
0.347921
0.347922
0.347923
0.347923
0.347924
0.347925
0.347925
0.347926
0.347926
0.347927
0.347928
0.347929
0.34793
0.34793
0.347932
0.347933
0.347934
0.347935
0.347935
0.347936
0.347938
0.347939
0.34794
0.34794
0.347941
0.347943
0.347944
0.347946
0.347946
0.347947
0.347949
0.34795
0.347952
0.347952
0.347953
0.347955
0.347957
0.347958
0.347958
0.34796
0.347962
0.347963
0.347965
0.347965
0.347967
0.347969
0.347971
0.347973
0.347973
0.347975
0.347977
0.347979
0.347981
0.347981
0.347983
0.347985
0.347987
0.347989
0.347989
0.347991
0.347993
0.347996
0.347998
0.347998
0.348
0.348003
0.348005
0.348007
0.348007
0.34801
0.348012
0.348015
0.348017
0.348017
0.34802
0.348022
0.348025
0.348028
0.348028
0.34803
0.348033
0.348036
0.348038
0.348038
0.348041
0.348044
0.348047
0.34805
0.34805
0.348053
0.348056
0.348059
0.348062
0.348062
0.348065
0.348068
0.348071
0.348074
0.348074
0.348077
0.34808
0.348083
0.348087
0.348087
0.34809
0.348093
0.348097
0.3481
0.3481
0.348103
0.348107
0.34811
0.348114
0.348114
0.348117
0.348121
0.348124
0.348128
0.348128
0.348131
0.348135
0.348139
0.348143
0.348143
0.348146
0.34815
0.348154
0.348158
0.348158
0.348162
0.348165
0.348169
0.348173
0.348173
0.348177
0.348181
0.348185
0.348189
0.348189
0.348194
0.348198
0.348202
0.348206
0.348206
0.34821
0.348215
0.348219
0.348223
0.348223
0.348228
0.348232
0.348236
0.348241
0.348241
0.348245
0.34825
0.348254
0.348259
0.348259
0.348263
0.348268
0.348273
0.348277
0.348277
0.348282
0.348287
0.348292
0.348296
0.348296
0.348301
0.348306
0.348311
0.348316
0.348316
0.348321
0.348326
0.348331
0.348336
0.348336
0.348341
0.348346
0.348351
0.348356
0.348356
0.348362
0.348367
0.348372
0.348377
0.348377
0.348383
0.348388
0.348393
0.348399
0.348399
0.348404
0.34841
0.348415
0.348421
0.348421
0.348426
0.348432
0.348438
0.348443
0.348443
0.348449
0.348455
0.34846
0.348466
0.348466
0.348472
0.348478
0.348484
0.348489
0.348489
0.348495
0.348501
0.348507
0.348513
0.348513
0.348519
0.348525
0.348531
0.348538
0.348538
0.348544
0.34855
0.348556
0.348562
0.348562
0.348569
0.348575
0.348581
0.348588
0.348588
0.348594
0.348601
0.348607
0.348613
0.348613
0.34862
0.348627
0.348633
0.34864
0.34864
0.348646
0.348653
0.34866
0.348666
0.348666
0.348673
0.34868
0.348687
0.348694
0.348694
0.348701
0.348708
0.348714
0.348721
0.348721
0.348728
0.348735
0.348743
0.34875
0.34875
0.348757
0.348764
0.348771
0.348778
0.348778
0.348785
0.348793
0.3488
0.348807
0.348807
0.348815
0.348822
0.34883
0.348837
0.348837
0.348845
0.348852
0.34886
0.348867
0.348867
0.348875
0.348882
0.34889
0.348898
0.348898
0.348905
0.348913
0.348921
0.348929
0.348929
0.348937
0.348945
0.348952
0.34896
0.34896
0.348968
0.348976
0.348984
0.348992
0.348992
0.349
0.349009
0.349017
0.349025
0.349025
0.349033
0.349041
0.34905
0.349058
0.349058
0.349066
0.349075
0.349083
0.349091
0.349091
0.3491
0.349108
0.349117
0.349125
0.349125
0.349134
0.349142
0.349151
0.34916
0.34916
0.349168
0.349177
0.349186
0.349195
0.349195
0.349203
0.349212
0.349221
0.34923
0.34923
0.349239
0.349248
0.349257
0.349266
0.349266
0.349275
0.349284
0.349293
0.349302
0.349302
0.349311
0.349321
0.34933
0.349339
0.349339
0.349348
0.349358
0.349367
0.349376
0.349376
0.349386
0.349395
0.349405
0.349414
0.349414
0.349424
0.349433
0.349443
0.349453
0.349453
0.349462
0.349472
0.349482
0.349491
0.349491
0.349501
0.349511
0.349521
0.349531
0.349531
0.34954
0.34955
0.34956
0.34957
0.34957
0.34958
0.34959
0.3496
0.349611
0.349611
0.349621
0.349631
0.349641
0.349651
0.349651
0.349661
0.349672
0.349682
0.349692
0.349692
0.349703
0.349713
0.349724
0.349734
0.349734
0.349745
0.349755
0.349766
0.349776
0.349776
0.349787
0.349797
0.349808
0.349819
0.349819
0.34983
0.34984
0.349851
0.349862
0.349862
0.349873
0.349884
0.349895
0.349905
0.349905
0.349916
0.349927
0.349938
0.349949
0.349949
0.349961
0.349972
0.349983
0.349994
0.349994
0.350005
0.350016
0.350028
0.350039
0.350039
0.35005
0.350062
0.350073
0.350085
0.350085
0.350096
0.350107
0.350119
0.350131
0.350131
0.350142
0.350154
0.350165
0.350177
0.350177
0.350189
0.3502
0.350212
0.350224
0.350224
0.350236
0.350248
0.350259
0.350271
0.350271
0.350283
0.350295
0.350307
0.350319
0.350319
0.350331
0.350343
0.350355
0.350368
0.350368
0.35038
0.350392
0.350404
0.350416
0.350416
0.350429
0.350441
0.350453
0.350466
0.350466
0.350478
0.350491
0.350503
0.350516
0.350516
0.350528
0.350541
0.350553
0.350566
0.350566
0.350579
0.350591
0.350604
0.350617
0.350617
0.350629
0.350642
0.350655
0.350668
0.350668
0.350681
0.350694
0.350707
0.35072
0.35072
0.350733
0.350746
0.350759
0.350772
0.350772
0.350785
0.350798
0.350811
0.350825
0.350825
0.350838
0.350851
0.350864
0.350878
0.350878
0.350891
0.350905
0.350918
0.350931
0.350931
0.350945
0.350958
0.350972
0.350986
0.350986
0.350999
0.351013
0.351026
0.35104
0.35104
0.351054
0.351068
0.351081
0.351095
0.351095
0.351109
0.351123
0.351137
0.351151
0.351151
0.351165
0.351179
0.351193
0.351207
0.351207
0.351221
0.351235
0.351249
0.351263
0.351263
0.351278
0.351292
0.351306
0.35132
0.35132
0.351335
0.351349
0.351364
0.351378
0.351378
0.351392
0.351407
0.351421
0.351436
0.351436
0.35145
0.351465
0.35148
0.351494
0.351494
0.351509
0.351524
0.351539
0.351553
0.351553
0.351568
0.351583
0.351598
0.351613
0.351613
0.351628
0.351643
0.351658
0.351673
0.351673
0.351688
0.351703
0.351718
0.351733
0.351733
0.351748
0.351763
0.351779
0.351794
0.351794
0.351809
0.351824
0.35184
0.351855
0.351855
0.351871
0.351886
0.351901
0.351917
0.351917
0.351932
0.351948
0.351964
0.351979
0.351979
0.351995
0.352011
0.352026
0.352042
0.352042
0.352058
0.352074
0.352089
0.352105
0.352105
0.352121
0.352137
0.352153
0.352169
0.352169
0.352185
0.352201
0.352217
0.352233
0.352233
0.352249
0.352265
0.352282
0.352298
0.352298
0.352314
0.35233
0.352347
0.352363
0.352363
0.352379
0.352396
0.352412
0.352429
0.352429
0.352445
0.352462
0.352478
0.352495
0.352495
0.352511
0.352528
0.352545
0.352561
0.352561
0.352578
0.352595
0.352612
0.352628
0.352628
0.352645
0.352662
0.352679
0.352696
0.352696
0.352713
0.35273
0.352747
0.352764
0.352764
0.352781
0.352798
0.352815
0.352833
0.352833
0.35285
0.352867
0.352884
0.352902
0.352902
0.352919
0.352936
0.352954
0.352971
0.352971
0.352988
0.353006
0.353023
0.353041
0.353041
0.353058
0.353076
0.353094
0.353111
0.353111
0.353129
0.353147
0.353164
0.353182
0.353182
0.3532
0.353218
0.353236
0.353254
0.353254
0.353272
0.353289
0.353307
0.353325
0.353325
0.353344
0.353362
0.35338
0.353398
0.353398
0.353416
0.353434
0.353452
0.353471
0.353471
0.353489
0.353507
0.353526
0.353544
0.353544
0.353562
0.353581
0.353599
0.353618
0.353618
0.353636
0.353655
0.353673
0.353692
0.353692
0.353711
0.353729
0.353748
0.353767
0.353767
0.353785
0.353804
0.353823
0.353842
0.353842
0.353861
0.35388
0.353899
0.353918
0.353918
0.353937
0.353956
0.353975
0.353994
0.353994
0.354013
0.354032
0.354051
0.35407
0.35407
0.35409
0.354109
0.354128
0.354147
0.354147
0.354167
0.354186
0.354206
0.354225
0.354225
0.354245
0.354264
0.354284
0.354303
0.354303
0.354323
0.354342
0.354362
0.354382
0.354382
0.354401
0.354421
0.354441
0.354461
0.354461
0.354481
0.3545
0.35452
0.35454
0.35454
0.35456
0.35458
0.3546
0.35462
0.35462
0.35464
0.35466
0.35468
0.354701
0.354701
0.354721
0.354741
0.354761
0.354782
0.354782
0.354802
0.354822
0.354843
0.354863
0.354863
0.354883
0.354904
0.354924
0.354945
0.354945
0.354965
0.354986
0.355007
0.355027
0.355027
0.355048
0.355069
0.355089
0.35511
0.35511
0.355131
0.355152
0.355172
0.355193
0.355193
0.355214
0.355235
0.355256
0.355277
0.355277
0.355298
0.355319
0.35534
0.355361
0.355361
0.355383
0.355404
0.355425
0.355446
0.355446
0.355467
0.355489
0.35551
0.355531
0.355531
0.355553
0.355574
0.355596
0.355617
0.355617
0.355639
0.35566
0.355682
0.355703
0.355703
0.355725
0.355747
0.355768
0.35579
0.35579
0.355812
0.355833
0.355855
0.355877
0.355877
0.355899
0.355921
0.355943
0.355965
0.355965
0.355987
0.356009
0.356031
0.356053
0.356053
0.356075
0.356097
0.356119
0.356141
0.356141
0.356163
0.356186
0.356208
0.35623
0.35623
0.356253
0.356275
0.356297
0.35632
0.35632
0.356342
0.356365
0.356387
0.35641
0.35641
0.356432
0.356455
0.356478
0.3565
0.3565
0.356523
0.356546
0.356568
0.356591
0.356591
0.356614
0.356637
0.35666
0.356683
0.356683
0.356706
0.356728
0.356751
0.356774
0.356774
0.356798
0.356821
0.356844
0.356867
0.356867
0.35689
0.356913
0.356936
0.35696
0.35696
0.356983
0.357006
0.35703
0.357053
0.357053
0.357076
0.3571
0.357123
0.357147
0.357147
0.35717
0.357194
0.357217
0.357241
0.357241
0.357265
0.357288
0.357312
0.357336
0.357336
0.35736
0.357383
0.357407
0.357431
0.357431
0.357455
0.357479
0.357503
0.357527
0.357527
0.357551
0.357575
0.357599
0.357623
0.357623
0.357647
0.357671
0.357695
0.357719
0.357719
0.357744
0.357768
0.357792
0.357817
0.357817
0.357841
0.357865
0.35789
0.357914
0.357914
0.357939
0.357963
0.357988
0.358012
0.358012
0.358037
0.358061
0.358086
0.358111
0.358111
0.358135
0.35816
0.358185
0.35821
0.35821
0.358235
0.358259
0.358284
0.358309
0.358309
0.358334
0.358359
0.358384
0.358409
0.358409
0.358434
0.358459
0.358485
0.35851
0.35851
0.358535
0.35856
0.358585
0.358611
0.358611
0.358636
0.358661
0.358687
0.358712
0.358712
0.358737
0.358763
0.358788
0.358814
0.358814
0.358839
0.358865
0.358891
0.358916
0.358916
0.358942
0.358967
0.358993
0.359019
0.359019
0.359045
0.359071
0.359096
0.359122
0.359122
0.359148
0.359174
0.3592
0.359226
0.359226
0.359252
0.359278
0.359304
0.35933
0.35933
0.359356
0.359383
0.359409
0.359435
0.359435
0.359461
0.359487
0.359514
0.35954
0.35954
0.359566
0.359593
0.359619
0.359646
0.359646
0.359672
0.359699
0.359725
0.359752
0.359752
0.359778
0.359805
0.359832
0.359858
0.359858
0.359885
0.359912
0.359939
0.359966
0.359966
0.359992
0.360019
0.360046
0.360073
0.360073
0.3601
0.360127
0.360154
0.360181
0.360181
0.360208
0.360235
0.360262
0.36029
0.36029
0.360317
0.360344
0.360371
0.360399
0.360399
0.360426
0.360453
0.360481
0.360508
0.360508
0.360535
0.360563
0.36059
0.360618
0.360618
0.360645
0.360673
0.360701
0.360728
0.360728
0.360756
0.360784
0.360811
0.360839
0.360839
0.360867
0.360895
0.360923
0.36095
0.36095
0.360978
0.361006
0.361034
0.361062
0.361062
0.36109
0.361118
0.361146
0.361175
0.361175
0.361203
0.361231
0.361259
0.361287
0.361287
0.361316
0.361344
0.361372
0.3614
0.3614
0.361429
0.361457
0.361486
0.361514
0.361514
0.361543
0.361571
0.3616
0.361628
0.361628
0.361657
0.361686
0.361714
0.361743
0.361743
0.361772
0.3618
0.361829
0.361858
0.361858
0.361887
0.361916
0.361945
0.361974
0.361974
0.362003
0.362032
0.362061
0.36209
0.36209
0.362119
0.362148
0.362177
0.362206
0.362206
0.362235
0.362265
0.362294
0.362323
0.362323
0.362353
0.362382
0.362411
0.362441
0.362441
0.36247
0.3625
0.362529
0.362559
0.362559
0.362588
0.362618
0.362647
0.362677
0.362677
0.362707
0.362736
0.362766
0.362796
0.362796
0.362826
0.362855
0.362885
0.362915
0.362915
0.362945
0.362975
0.363005
0.363035
0.363035
0.363065
0.363095
0.363125
0.363155
0.363155
0.363185
0.363216
0.363246
0.363276
0.363276
0.363306
0.363337
0.363367
0.363397
0.363397
0.363428
0.363458
0.363489
0.363519
0.363519
0.36355
0.36358
0.363611
0.363641
0.363641
0.363672
0.363702
0.363733
0.363764
0.363764
0.363795
0.363825
0.363856
0.363887
0.363887
0.363918
0.363949
0.36398
0.364011
0.364011
0.364041
0.364072
0.364104
0.364135
0.364135
0.364166
0.364197
0.364228
0.364259
0.364259
0.36429
0.364322
0.364353
0.364384
0.364384
0.364415
0.364447
0.364478
0.36451
0.36451
0.364541
0.364572
0.364604
0.364636
0.364636
0.364667
0.364699
0.36473
0.364762
0.364762
0.364794
0.364825
0.364857
0.364889
0.364889
0.364921
0.364952
0.364984
0.365016
0.365016
0.365048
0.36508
0.365112
0.365144
0.365144
0.365176
0.365208
0.36524
0.365272
0.365272
0.365304
0.365337
0.365369
0.365401
0.365401
0.365433
0.365466
0.365498
0.36553
0.36553
0.365563
0.365595
0.365627
0.36566
0.36566
0.365692
0.365725
0.365757
0.36579
0.36579
0.365823
0.365855
0.365888
0.365921
0.365921
0.365953
0.365986
0.366019
0.366052
0.366052
0.366085
0.366118
0.36615
0.366183
0.366183
0.366216
0.366249
0.366282
0.366315
0.366315
0.366348
0.366382
0.366415
0.366448
0.366448
0.366481
0.366514
0.366548
0.366581
0.366581
0.366614
0.366648
0.366681
0.366714
0.366714
0.366748
0.366781
0.366815
0.366848
0.366848
0.366882
0.366915
0.366949
0.366983
0.366983
0.367016
0.36705
0.367084
0.367117
0.367117
0.367151
0.367185
0.367219
0.367253
0.367253
0.367287
0.367321
0.367355
0.367389
0.367389
0.367423
0.367457
0.367491
0.367525
0.367525
0.367559
0.367593
0.367627
0.367662
0.367662
0.367696
0.36773
0.367764
0.367799
0.367799
0.367833
0.367867
0.367902
0.367936
0.367936
0.367971
0.368005
0.36804
0.368074
0.368074
0.368109
0.368144
0.368178
0.368213
0.368213
0.368248
0.368283
0.368317
0.368352
0.368352
0.368387
0.368422
0.368457
0.368492
0.368492
0.368527
0.368562
0.368597
0.368632
0.368632
0.368667
0.368702
0.368737
0.368772
0.368772
0.368807
0.368843
0.368878
0.368913
0.368913
0.368948
0.368984
0.369019
0.369054
0.369054
0.36909
0.369125
0.369161
0.369196
0.369196
0.369232
0.369267
0.369303
0.369339
0.369339
0.369374
0.36941
0.369446
0.369481
0.369481
0.369517
0.369553
0.369589
0.369625
0.369625
0.369661
0.369696
0.369732
0.369768
0.369768
0.369804
0.36984
0.369876
0.369913
0.369913
0.369949
0.369985
0.370021
0.370057
0.370057
0.370093
0.37013
0.370166
0.370202
0.370202
0.370239
0.370275
0.370311
0.370348
0.370348
0.370384
0.370421
0.370457
0.370494
0.370494
0.370531
0.370567
0.370604
0.370641
0.370641
0.370677
0.370714
0.370751
0.370787
0.370787
0.370824
0.370861
0.370898
0.370935
0.370935
0.370972
0.371009
0.371046
0.371083
0.371083
0.37112
0.371157
0.371194
0.371231
0.371231
0.371268
0.371306
0.371343
0.37138
0.37138
0.371417
0.371455
0.371492
0.371529
0.371529
0.371567
0.371604
0.371642
0.371679
0.371679
0.371717
0.371754
0.371792
0.371829
0.371829
0.371867
0.371905
0.371942
0.37198
0.37198
0.372018
0.372056
0.372093
0.372131
0.372131
0.372169
0.372207
0.372245
0.372283
0.372283
0.372321
0.372359
0.372397
0.372435
0.372435
0.372473
0.372511
0.372549
0.372588
0.372588
0.372626
0.372664
0.372702
0.372741
0.372741
0.372779
0.372817
0.372856
0.372894
0.372894
0.372933
0.372971
0.37301
0.373048
0.373048
0.373087
0.373125
0.373164
0.373202
0.373202
0.373241
0.37328
0.373319
0.373357
0.373357
0.373396
0.373435
0.373474
0.373513
0.373513
0.373552
0.373591
0.37363
0.373669
0.373669
0.373708
0.373747
0.373786
0.373825
0.373825
0.373864
0.373903
0.373942
0.373982
0.373982
0.374021
0.37406
0.374099
0.374139
0.374139
0.374178
0.374218
0.374257
0.374296
0.374296
0.374336
0.374375
0.374415
0.374455
0.374455
0.374494
0.374534
0.374573
0.374613
0.374613
0.374653
0.374693
0.374732
0.374772
0.374772
0.374812
0.374852
0.374892
0.374932
0.374932
0.374972
0.375012
0.375052
0.375092
0.375092
0.375132
0.375172
0.375212
0.375252
0.375252
0.375292
0.375332
0.375373
0.375413
0.375413
0.375453
0.375494
0.375534
0.375574
0.375574
0.375615
0.375655
0.375696
0.375736
0.375736
0.375777
0.375817
0.375858
0.375898
0.375898
0.375939
0.37598
0.37602
0.376061
0.376061
0.376102
0.376143
0.376184
0.376224
0.376224
0.376265
0.376306
0.376347
0.376388
0.376388
0.376429
0.37647
0.376511
0.376552
0.376552
0.376593
0.376634
0.376676
0.376717
0.376717
0.376758
0.376799
0.376841
0.376882
0.376882
0.376923
0.376965
0.377006
0.377047
0.377047
0.377089
0.37713
0.377172
0.377213
0.377213
0.377255
0.377297
0.377338
0.37738
0.37738
0.377421
0.377463
0.377505
0.377547
0.377547
0.377589
0.37763
0.377672
0.377714
0.377714
0.377756
0.377798
0.37784
0.377882
0.377882
0.377924
0.377966
0.378008
0.37805
0.37805
0.378092
0.378134
0.378177
0.378219
0.378219
0.378261
0.378303
0.378346
0.378388
0.378388
0.37843
0.378473
0.378515
0.378558
0.378558
0.3786
0.378643
0.378685
0.378728
0.378728
0.37877
0.378813
0.378856
0.378898
0.378898
0.378941
0.378984
0.379027
0.37907
0.37907
0.379112
0.379155
0.379198
0.379241
0.379241
0.379284
0.379327
0.37937
0.379413
0.379413
0.379456
0.379499
0.379542
0.379585
0.379585
0.379629
0.379672
0.379715
0.379758
0.379758
0.379802
0.379845
0.379888
0.379932
0.379932
0.379975
0.380018
0.380062
0.380105
0.380105
0.380149
0.380192
0.380236
0.38028
0.38028
0.380323
0.380367
0.380411
0.380454
0.380454
0.380498
0.380542
0.380586
0.38063
0.38063
0.380673
0.380717
0.380761
0.380805
0.380805
0.380849
0.380893
0.380937
0.380981
0.380981
0.381025
0.381069
0.381114
0.381158
0.381158
0.381202
0.381246
0.381291
0.381335
0.381335
0.381379
0.381423
0.381468
0.381512
0.381512
0.381557
0.381601
0.381646
0.38169
0.38169
0.381735
0.381779
0.381824
0.381869
0.381869
0.381913
0.381958
0.382003
0.382047
0.382047
0.382092
0.382137
0.382182
0.382227
0.382227
0.382272
0.382316
0.382361
0.382406
0.382406
0.382451
0.382496
0.382542
0.382587
0.382587
0.382632
0.382677
0.382722
0.382767
0.382767
0.382813
0.382858
0.382903
0.382948
0.382948
0.382994
0.383039
0.383085
0.38313
0.38313
0.383175
0.383221
0.383266
0.383312
0.383312
0.383358
0.383403
0.383449
0.383495
0.383495
0.38354
0.383586
0.383632
0.383677
0.383677
0.383723
0.383769
0.383815
0.383861
0.383861
0.383907
0.383953
0.383999
0.384045
0.384045
0.384091
0.384137
0.384183
0.384229
0.384229
0.384275
0.384321
0.384368
0.384414
0.384414
0.38446
0.384506
0.384553
0.384599
0.384599
0.384645
0.384692
0.384738
0.384785
0.384785
0.384831
0.384878
0.384924
0.384971
0.384971
0.385017
0.385064
0.385111
0.385157
0.385157
0.385204
0.385251
0.385298
0.385344
0.385344
0.385391
0.385438
0.385485
0.385532
0.385532
0.385579
0.385626
0.385673
0.38572
0.38572
0.385767
0.385814
0.385861
0.385908
0.385908
0.385956
0.386003
0.38605
0.386097
0.386097
0.386144
0.386192
0.386239
0.386287
0.386287
0.386334
0.386381
0.386429
0.386476
0.386476
0.386524
0.386571
0.386619
0.386667
0.386667
0.386714
0.386762
0.386809
0.386857
0.386857
0.386905
0.386953
0.387001
0.387048
0.387048
0.387096
0.387144
0.387192
0.38724
0.38724
0.387288
0.387336
0.387384
0.387432
0.387432
0.38748
0.387528
0.387576
0.387624
0.387624
0.387673
0.387721
0.387769
0.387817
0.387817
0.387866
0.387914
0.387962
0.388011
0.388011
0.388059
0.388108
0.388156
0.388205
0.388205
0.388253
0.388302
0.38835
0.388399
0.388399
0.388448
0.388496
0.388545
0.388594
0.388594
0.388642
0.388691
0.38874
0.388789
0.388789
0.388838
0.388887
0.388936
0.388985
0.388985
0.389034
0.389083
0.389132
0.389181
0.389181
0.38923
0.389279
0.389328
0.389377
0.389377
0.389427
0.389476
0.389525
0.389574
0.389574
0.389624
0.389673
0.389722
0.389772
0.389772
0.389821
0.389871
0.38992
0.38997
0.38997
0.390019
0.390069
0.390118
0.390168
0.390168
0.390218
0.390267
0.390317
0.390367
0.390367
0.390417
0.390467
0.390516
0.390566
0.390566
0.390616
0.390666
0.390716
0.390766
0.390766
0.390816
0.390866
0.390916
0.390966
0.390966
0.391016
0.391066
0.391117
0.391167
0.391167
0.391217
0.391267
0.391318
0.391368
0.391368
0.391418
0.391469
0.391519
0.391569
0.391569
0.39162
0.39167
0.391721
0.391771
0.391771
0.391822
0.391873
0.391923
0.391974
0.391974
0.392024
0.392075
0.392126
0.392177
0.392177
0.392227
0.392278
0.392329
0.39238
0.39238
0.392431
0.392482
0.392533
0.392584
0.392584
0.392635
0.392686
0.392737
0.392788
0.392788
0.392839
0.39289
0.392941
0.392993
0.392993
0.393044
0.393095
0.393147
0.393198
0.393198
0.393249
0.393301
0.393352
0.393403
0.393403
0.393455
0.393506
0.393558
0.393609
0.393609
0.393661
0.393713
0.393764
0.393816
0.393816
0.393868
0.393919
0.393971
0.394023
0.394023
0.394075
0.394127
0.394178
0.39423
0.39423
0.394282
0.394334
0.394386
0.394438
0.394438
0.39449
0.394542
0.394594
0.394646
0.394646
0.394698
0.394751
0.394803
0.394855
0.394855
0.394907
0.39496
0.395012
0.395064
0.395064
0.395117
0.395169
0.395221
0.395274
0.395274
0.395326
0.395379
0.395431
0.395484
0.395484
0.395537
0.395589
0.395642
0.395694
0.395694
0.395747
0.3958
0.395853
0.395905
0.395905
0.395958
0.396011
0.396064
0.396117
0.396117
0.39617
0.396223
0.396276
0.396329
0.396329
0.396382
0.396435
0.396488
0.396541
0.396541
0.396594
0.396647
0.396701
0.396754
0.396754
0.396807
0.39686
0.396914
0.396967
0.396967
0.39702
0.397074
0.397127
0.397181
0.397181
0.397234
0.397288
0.397341
0.397395
0.397395
0.397448
0.397502
0.397556
0.397609
0.397609
0.397663
0.397717
0.39777
0.397824
0.397824
0.397878
0.397932
0.397986
0.39804
0.39804
0.398094
0.398147
0.398201
0.398255
0.398255
0.39831
0.398364
0.398418
0.398472
0.398472
0.398526
0.39858
0.398634
0.398689
0.398689
0.398743
0.398797
0.398851
0.398906
0.398906
0.39896
0.399015
0.399069
0.399123
0.399123
0.399178
0.399232
0.399287
0.399342
0.399342
0.399396
0.399451
0.399505
0.39956
0.39956
0.399615
0.39967
0.399724
0.399779
0.399779
0.399834
0.399889
0.399944
0.399999
0.399999
0.400053
0.400108
0.400163
0.400218
0.400218
0.400273
0.400328
0.400384
0.400439
0.400439
0.400494
0.400549
0.400604
0.400659
0.400659
0.400715
0.40077
0.400825
0.400881
0.400881
0.400936
0.400991
0.401047
0.401102
0.401102
0.401158
0.401213
0.401269
0.401324
0.401324
0.40138
0.401436
0.401491
0.401547
0.401547
0.401603
0.401658
0.401714
0.40177
0.40177
0.401826
0.401882
0.401937
0.401993
0.401993
0.402049
0.402105
0.402161
0.402217
0.402217
0.402273
0.402329
0.402385
0.402442
0.402442
0.402498
0.402554
0.40261
0.402666
0.402666
0.402723
0.402779
0.402835
0.402892
0.402892
0.402948
0.403004
0.403061
0.403117
0.403117
0.403174
0.40323
0.403287
0.403343
0.403343
0.4034
0.403456
0.403513
0.40357
0.40357
0.403626
0.403683
0.40374
0.403797
0.403797
0.403854
0.40391
0.403967
0.404024
0.404024
0.404081
0.404138
0.404195
0.404252
0.404252
0.404309
0.404366
0.404423
0.40448
0.40448
0.404537
0.404595
0.404652
0.404709
0.404709
0.404766
0.404824
0.404881
0.404938
0.404938
0.404996
0.405053
0.40511
0.405168
0.405168
0.405225
0.405283
0.40534
0.405398
0.405398
0.405455
0.405513
0.405571
0.405628
0.405628
0.405686
0.405744
0.405802
0.405859
0.405859
0.405917
0.405975
0.406033
0.406091
0.406091
0.406149
0.406207
0.406264
0.406322
0.406322
0.40638
0.406439
0.406497
0.406555
0.406555
0.406613
0.406671
0.406729
0.406787
0.406787
0.406846
0.406904
0.406962
0.407021
0.407021
0.407079
0.407137
0.407196
0.407254
0.407254
0.407313
0.407371
0.40743
0.407488
0.407488
0.407547
0.407605
0.407664
0.407723
0.407723
0.407781
0.40784
0.407899
0.407957
0.407957
0.408016
0.408075
0.408134
0.408193
0.408193
0.408252
0.408311
0.40837
0.408429
0.408429
0.408488
0.408547
0.408606
0.408665
0.408665
0.408724
0.408783
0.408842
0.408901
0.408901
0.408961
0.40902
0.409079
0.409139
0.409139
0.409198
0.409257
0.409317
0.409376
0.409376
0.409435
0.409495
0.409554
0.409614
0.409614
0.409674
0.409733
0.409793
0.409852
0.409852
0.409912
0.409972
0.410031
0.410091
0.410091
0.410151
0.410211
0.410271
0.41033
0.41033
0.41039
0.41045
0.41051
0.41057
0.41057
0.41063
0.41069
0.41075
0.41081
0.41081
0.41087
0.410931
0.410991
0.411051
0.411051
0.411111
0.411171
0.411232
0.411292
0.411292
0.411352
0.411413
0.411473
0.411533
0.411533
0.411594
0.411654
0.411715
0.411775
0.411775
0.411836
0.411896
0.411957
0.412018
0.412018
0.412078
0.412139
0.4122
0.41226
0.41226
0.412321
0.412382
0.412443
0.412504
0.412504
0.412564
0.412625
0.412686
0.412747
0.412747
0.412808
0.412869
0.41293
0.412991
0.412991
0.413052
0.413113
0.413175
0.413236
0.413236
0.413297
0.413358
0.413419
0.413481
0.413481
0.413542
0.413603
0.413665
0.413726
0.413726
0.413787
0.413849
0.41391
0.413972
0.413972
0.414033
0.414095
0.414156
0.414218
0.414218
0.41428
0.414341
0.414403
0.414465
0.414465
0.414526
0.414588
0.41465
0.414712
0.414712
0.414774
0.414836
0.414897
0.414959
0.414959
0.415021
0.415083
0.415145
0.415207
0.415207
0.415269
0.415331
0.415394
0.415456
0.415456
0.415518
0.41558
0.415642
0.415705
0.415705
0.415767
0.415829
0.415891
0.415954
0.415954
0.416016
0.416079
0.416141
0.416204
0.416204
0.416266
0.416329
0.416391
0.416454
0.416454
0.416516
0.416579
0.416642
0.416704
0.416704
0.416767
0.41683
0.416892
0.416955
0.416955
0.417018
0.417081
0.417144
0.417207
0.417207
0.41727
0.417333
0.417396
0.417459
0.417459
0.417522
0.417585
0.417648
0.417711
0.417711
0.417774
0.417837
0.4179
0.417964
0.417964
0.418027
0.41809
0.418153
0.418217
0.418217
0.41828
0.418343
0.418407
0.41847
0.41847
0.418534
0.418597
0.418661
0.418724
0.418724
0.418788
0.418852
0.418915
0.418979
0.418979
0.419042
0.419106
0.41917
0.419234
0.419234
0.419297
0.419361
0.419425
0.419489
0.419489
0.419553
0.419617
0.419681
0.419745
0.419745
0.419809
0.419873
0.419937
0.420001
0.420001
0.420065
0.420129
0.420193
0.420258
0.420258
0.420322
0.420386
0.42045
0.420515
0.420515
0.420579
0.420643
0.420708
0.420772
0.420772
0.420836
0.420901
0.420965
0.42103
0.42103
0.421094
0.421159
0.421224
0.421288
0.421288
0.421353
0.421418
0.421482
0.421547
0.421547
0.421612
0.421677
0.421741
0.421806
0.421806
0.421871
0.421936
0.422001
0.422066
0.422066
0.422131
0.422196
0.422261
0.422326
0.422326
0.422391
0.422456
0.422521
0.422586
0.422586
0.422651
0.422717
0.422782
0.422847
0.422847
0.422912
0.422978
0.423043
0.423108
0.423108
0.423174
0.423239
0.423305
0.42337
0.42337
0.423436
0.423501
0.423567
0.423632
0.423632
0.423698
0.423764
0.423829
0.423895
0.423895
0.423961
0.424026
0.424092
0.424158
0.424158
0.424224
0.42429
0.424356
0.424422
0.424422
0.424487
0.424553
0.424619
0.424685
0.424685
0.424751
0.424817
0.424884
0.42495
0.42495
0.425016
0.425082
0.425148
0.425214
0.425214
0.425281
0.425347
0.425413
0.42548
0.42548
0.425546
0.425612
0.425679
0.425745
0.425745
0.425812
0.425878
0.425945
0.426011
0.426011
0.426078
0.426144
0.426211
0.426278
0.426278
0.426344
0.426411
0.426478
0.426545
0.426545
0.426611
0.426678
0.426745
0.426812
0.426812
0.426879
0.426946
0.427013
0.42708
0.42708
0.427147
0.427214
0.427281
0.427348
0.427348
0.427415
0.427482
0.427549
0.427616
0.427616
0.427683
0.427751
0.427818
0.427885
0.427885
0.427953
0.42802
0.428087
0.428155
0.428155
0.428222
0.428289
0.428357
0.428424
0.428424
0.428492
0.42856
0.428627
0.428695
0.428695
0.428762
0.42883
0.428898
0.428965
0.428965
0.429033
0.429101
0.429169
0.429236
0.429236
0.429304
0.429372
0.42944
0.429508
0.429508
0.429576
0.429644
0.429712
0.42978
0.42978
0.429848
0.429916
0.429984
0.430052
0.430052
0.430121
0.430189
0.430257
0.430325
0.430325
0.430393
0.430462
0.43053
0.430598
0.430598
0.430667
0.430735
0.430804
0.430872
0.430872
0.43094
0.431009
0.431078
0.431146
0.431146
0.431215
0.431283
0.431352
0.431421
0.431421
0.431489
0.431558
0.431627
0.431695
0.431695
0.431764
0.431833
0.431902
0.431971
0.431971
0.43204
0.432109
0.432178
0.432247
0.432247
0.432316
0.432385
0.432454
0.432523
0.432523
0.432592
0.432661
0.43273
0.432799
0.432799
0.432869
0.432938
0.433007
0.433076
0.433076
0.433146
0.433215
0.433284
0.433354
0.433354
0.433423
0.433493
0.433562
0.433632
0.433632
0.433701
0.433771
0.43384
0.43391
0.43391
0.43398
0.434049
0.434119
0.434189
0.434189
0.434258
0.434328
0.434398
0.434468
0.434468
0.434538
0.434607
0.434677
0.434747
0.434747
0.434817
0.434887
0.434957
0.435027
0.435027
0.435097
0.435167
0.435237
0.435308
0.435308
0.435378
0.435448
0.435518
0.435588
0.435588
0.435659
0.435729
0.435799
0.43587
0.43587
0.43594
0.43601
0.436081
0.436151
0.436151
0.436222
0.436292
0.436363
0.436433
0.436433
0.436504
0.436574
0.436645
0.436716
0.436716
0.436786
0.436857
0.436928
0.436999
0.436999
0.437069
0.43714
0.437211
0.437282
0.437282
0.437353
0.437424
0.437495
0.437566
0.437566
0.437637
0.437708
0.437779
0.43785
0.43785
0.437921
0.437992
0.438063
0.438134
0.438134
0.438205
0.438277
0.438348
0.438419
0.438419
0.438491
0.438562
0.438633
0.438705
0.438705
0.438776
0.438847
0.438919
0.43899
0.43899
0.439062
0.439134
0.439205
0.439277
0.439277
0.439348
0.43942
0.439492
0.439563
0.439563
0.439635
0.439707
0.439779
0.43985
0.43985
0.439922
0.439994
0.440066
0.440138
0.440138
0.44021
0.440282
0.440354
0.440426
0.440426
0.440498
0.44057
0.440642
0.440714
0.440714
0.440786
0.440858
0.44093
0.441003
0.441003
0.441075
0.441147
0.441219
0.441292
0.441292
0.441364
0.441437
0.441509
0.441581
0.441581
0.441654
0.441726
0.441799
0.441871
0.441871
0.441944
0.442016
0.442089
0.442162
0.442162
0.442234
0.442307
0.44238
0.442452
0.442452
0.442525
0.442598
0.442671
0.442744
0.442744
0.442817
0.442889
0.442962
0.443035
0.443035
0.443108
0.443181
0.443254
0.443327
0.443327
0.4434
0.443473
0.443547
0.44362
0.44362
0.443693
0.443766
0.443839
0.443913
0.443913
0.443986
0.444059
0.444132
0.444206
0.444206
0.444279
0.444353
0.444426
0.444499
0.444499
0.444573
0.444646
0.44472
0.444794
0.444794
0.444867
0.444941
0.445014
0.445088
0.445088
0.445162
0.445235
0.445309
0.445383
0.445383
0.445457
0.445531
0.445604
0.445678
0.445678
0.445752
0.445826
0.4459
0.445974
0.445974
0.446048
0.446122
0.446196
0.44627
0.44627
0.446344
0.446418
0.446493
0.446567
0.446567
0.446641
0.446715
0.446789
0.446864
0.446864
0.446938
0.447012
0.447087
0.447161
0.447161
0.447235
0.44731
0.447384
0.447459
0.447459
0.447533
0.447608
0.447682
0.447757
0.447757
0.447832
0.447906
0.447981
0.448056
0.448056
0.44813
0.448205
0.44828
0.448355
0.448355
0.448429
0.448504
0.448579
0.448654
0.448654
0.448729
0.448804
0.448879
0.448954
0.448954
0.449029
0.449104
0.449179
0.449254
0.449254
0.449329
0.449404
0.44948
0.449555
0.449555
0.44963
0.449705
0.449781
0.449856
0.449856
0.449931
0.450007
0.450082
0.450157
0.450157
0.450233
0.450308
0.450384
0.450459
0.450459
0.450535
0.45061
0.450686
0.450761
0.450761
0.450837
0.450913
0.450988
0.451064
0.451064
0.45114
0.451216
0.451291
0.451367
0.451367
0.451443
0.451519
0.451595
0.451671
0.451671
0.451747
0.451823
0.451899
0.451975
0.451975
0.452051
0.452127
0.452203
0.452279
0.452279
0.452355
0.452431
0.452508
0.452584
0.452584
0.45266
0.452736
0.452813
0.452889