<?xml version="1.0"?>
<VTKFile type="UnstructuredGrid" version="0.1" byte_order="LittleEndian">
<UnstructuredGrid>
<Piece NumberOfPoints="5000" NumberOfCells="4000">
<PointData Scalars="Reaction 0">
<DataArray type="Float32" Name="Reaction 0" format="ascii">
0.122961
0.122961
0.122961
0.122961
0.122961
0.122961
0.122962
0.122962
0.122962
0.122962
0.122962
0.122962
0.122962
0.122963
0.122963
0.122963
0.122963
0.122963
0.122964
0.122964
0.122964
0.122964
0.122965
0.122965
0.122966
0.122966
0.122966
0.122967
0.122967
0.122968
0.122968
0.122968
0.122969
0.122969
0.12297
0.12297
0.122971
0.122971
0.122972
0.122973
0.122973
0.122973
0.122974
0.122975
0.122976
0.122976
0.122976
0.122977
0.122978
0.122979
0.122979
0.12298
0.122981
0.122982
0.122983
0.122983
0.122984
0.122985
0.122986
0.122987
0.122987
0.122988
0.122989
0.12299
0.122991
0.122991
0.122992
0.122994
0.122995
0.122996
0.122996
0.122997
0.122999
0.123
0.123001
0.123001
0.123003
0.123004
0.123005
0.123007
0.123007
0.123008
0.12301
0.123011
0.123013
0.123013
0.123014
0.123016
0.123017
0.123019
0.123019
0.12302
0.123022
0.123024
0.123025
0.123025
0.123027
0.123029
0.123031
0.123032
0.123032
0.123034
0.123036
0.123038
0.12304
0.12304
0.123041
0.123043
0.123045
0.123047
0.123047
0.123049
0.123051
0.123053
0.123055
0.123055
0.123057
0.123059
0.123061
0.123064
0.123064
0.123066
0.123068
0.12307
0.123072
0.123072
0.123075
0.123077
0.123079
0.123081
0.123081
0.123084
0.123086
0.123088
0.123091
0.123091
0.123093
0.123096
0.123098
0.123101
0.123101
0.123103
0.123106
0.123108
0.123111
0.123111
0.123113
0.123116
0.123119
0.123121
0.123121
0.123124
0.123127
0.123129
0.123132
0.123132
0.123135
0.123138
0.12314
0.123143
0.123143
0.123146
0.123149
0.123152
0.123155
0.123155
0.123158
0.123161
0.123164
0.123167
0.123167
0.12317
0.123173
0.123176
0.123179
0.123179
0.123182
0.123185
0.123188
0.123192
0.123192
0.123195
0.123198
0.123201
0.123205
0.123205
0.123208
0.123211
0.123215
0.123218
0.123218
0.123221
0.123225
0.123228
0.123232
0.123232
0.123235
0.123239
0.123242
0.123246
0.123246
0.123249
0.123253
0.123257
0.12326
0.12326
0.123264
0.123268
0.123271
0.123275
0.123275
0.123279
0.123283
0.123286
0.12329
0.12329
0.123294
0.123298
0.123302
0.123306
0.123306
0.12331
0.123314
0.123317
0.123321
0.123321
0.123326
0.12333
0.123334
0.123338
0.123338
0.123342
0.123346
0.12335
0.123354
0.123354
0.123358
0.123363
0.123367
0.123371
0.123371
0.123376
0.12338
0.123384
0.123389
0.123389
0.123393
0.123397
0.123402
0.123406
0.123406
0.123411
0.123415
0.12342
0.123424
0.123424
0.123429
0.123433
0.123438
0.123443
0.123443
0.123447
0.123452
0.123457
0.123461
0.123461
0.123466
0.123471
0.123476
0.12348
0.12348
0.123485
0.12349
0.123495
0.1235
0.1235
0.123505
0.12351
0.123515
0.12352
0.12352
0.123525
0.12353
0.123535
0.12354
0.12354
0.123545
0.12355
0.123555
0.12356
0.12356
0.123565
0.123571
0.123576
0.123581
0.123581
0.123586
0.123592
0.123597
0.123602
0.123602
0.123608
0.123613
0.123619
0.123624
0.123624
0.12363
0.123635
0.123641
0.123646
0.123646
0.123652
0.123657
0.123663
0.123668
0.123668
0.123674
0.12368
0.123685
0.123691
0.123691
0.123697
0.123703
0.123708
0.123714
0.123714
0.12372
0.123726
0.123732
0.123738
0.123738
0.123743
0.123749
0.123755
0.123761
0.123761
0.123767
0.123773
0.123779
0.123785
0.123785
0.123792
0.123798
0.123804
0.12381
0.12381
0.123816
0.123822
0.123829
0.123835
0.123835
0.123841
0.123847
0.123854
0.12386
0.12386
0.123866
0.123873
0.123879
0.123886
0.123886
0.123892
0.123899
0.123905
0.123912
0.123912
0.123918
0.123925
0.123931
0.123938
0.123938
0.123945
0.123951
0.123958
0.123965
0.123965
0.123971
0.123978
0.123985
0.123992
0.123992
0.123998
0.124005
0.124012
0.124019
0.124019
0.124026
0.124033
0.12404
0.124047
0.124047
0.124054
0.124061
0.124068
0.124075
0.124075
0.124082
0.124089
0.124096
0.124104
0.124104
0.124111
0.124118
0.124125
0.124132
0.124132
0.12414
0.124147
0.124154
0.124162
0.124162
0.124169
0.124176
0.124184
0.124191
0.124191
0.124199
0.124206
0.124214
0.124221
0.124221
0.124229
0.124236
0.124244
0.124252
0.124252
0.124259
0.124267
0.124275
0.124282
0.124282
0.12429
0.124298
0.124306
0.124313
0.124313
0.124321
0.124329
0.124337
0.124345
0.124345
0.124353
0.124361
0.124369
0.124377
0.124377
0.124385
0.124393
0.124401
0.124409
0.124409
0.124417
0.124425
0.124433
0.124441
0.124441
0.12445
0.124458
0.124466
0.124474
0.124474
0.124483
0.124491
0.124499
0.124507
0.124507
0.124516
0.124524
0.124533
0.124541
0.124541
0.12455
0.124558
0.124567
0.124575
0.124575
0.124584
0.124592
0.124601
0.12461
0.12461
0.124618
0.124627
0.124636
0.124644
0.124644
0.124653
0.124662
0.124671
0.124679
0.124679
0.124688
0.124697
0.124706
0.124715
0.124715
0.124724
0.124733
0.124742
0.124751
0.124751
0.12476
0.124769
0.124778
0.124787
0.124787
0.124796
0.124805
0.124814
0.124824
0.124824
0.124833
0.124842
0.124851
0.124861
0.124861
0.12487
0.124879
0.124889
0.124898
0.124898
0.124907
0.124917
0.124926
0.124936
0.124936
0.124945
0.124955
0.124964
0.124974
0.124974
0.124983
0.124993
0.125003
0.125012
0.125012
0.125022
0.125032
0.125041
0.125051
0.125051
0.125061
0.125071
0.125081
0.12509
0.12509
0.1251
0.12511
0.12512
0.12513
0.12513
0.12514
0.12515
0.12516
0.12517
0.12517
0.12518
0.12519
0.1252
0.12521
0.12521
0.12522
0.125231
0.125241
0.125251
0.125251
0.125261
0.125271
0.125282
0.125292
0.125292
0.125302
0.125313
0.125323
0.125334
0.125334
0.125344
0.125354
0.125365
0.125375
0.125375
0.125386
0.125396
0.125407
0.125418
0.125418
0.125428
0.125439
0.12545
0.12546
0.12546
0.125471
0.125482
0.125492
0.125503
0.125503
0.125514
0.125525
0.125536
0.125547
0.125547
0.125557
0.125568
0.125579
0.12559
0.12559
0.125601
0.125612
0.125623
0.125634
0.125634
0.125645
0.125657
0.125668
0.125679
0.125679
0.12569
0.125701
0.125712
0.125724
0.125724
0.125735
0.125746
0.125758
0.125769
0.125769
0.12578
0.125792
0.125803
0.125815
0.125815
0.125826
0.125838
0.125849
0.125861
0.125861
0.125872
0.125884
0.125895
0.125907
0.125907
0.125919
0.12593
0.125942
0.125954
0.125954
0.125966
0.125977
0.125989
0.126001
0.126001
0.126013
0.126025
0.126037
0.126048
0.126048
0.12606
0.126072
0.126084
0.126096
0.126096
0.126108
0.12612
0.126133
0.126145
0.126145
0.126157
0.126169
0.126181
0.126193
0.126193
0.126206
0.126218
0.12623
0.126242
0.126242
0.126255
0.126267
0.126279
0.126292
0.126292
0.126304
0.126317
0.126329
0.126342
0.126342
0.126354
0.126367
0.126379
0.126392
0.126392
0.126405
0.126417
0.12643
0.126442
0.126442
0.126455
0.126468
0.126481
0.126493
0.126493
0.126506
0.126519
0.126532
0.126545
0.126545
0.126558
0.126571
0.126584
0.126597
0.126597
0.12661
0.126623
0.126636
0.126649
0.126649
0.126662
0.126675
0.126688
0.126701
0.126701
0.126714
0.126728
0.126741
0.126754
0.126754
0.126767
0.126781
0.126794
0.126808
0.126808
0.126821
0.126834
0.126848
0.126861
0.126861
0.126875
0.126888
0.126902
0.126915
0.126915
0.126929
0.126942
0.126956
0.12697
0.12697
0.126983
0.126997
0.127011
0.127025
0.127025
0.127038
0.127052
0.127066
0.12708
0.12708
0.127094
0.127108
0.127122
0.127136
0.127136
0.12715
0.127164
0.127178
0.127192
0.127192
0.127206
0.12722
0.127234
0.127248
0.127248
0.127262
0.127276
0.127291
0.127305
0.127305
0.127319
0.127333
0.127348
0.127362
0.127362
0.127376
0.127391
0.127405
0.12742
0.12742
0.127434
0.127449
0.127463
0.127478
0.127478
0.127492
0.127507
0.127521
0.127536
0.127536
0.127551
0.127565
0.12758
0.127595
0.127595
0.12761
0.127624
0.127639
0.127654
0.127654
0.127669
0.127684
0.127699
0.127714
0.127714
0.127729
0.127744
0.127759
0.127774
0.127774
0.127789
0.127804
0.127819
0.127834
0.127834
0.127849
0.127864
0.12788
0.127895
0.127895
0.12791
0.127925
0.127941
0.127956
0.127956
0.127971
0.127987
0.128002
0.128017
0.128017
0.128033
0.128048
0.128064
0.128079
0.128079
0.128095
0.128111
0.128126
0.128142
0.128142
0.128157
0.128173
0.128189
0.128205
0.128205
0.12822
0.128236
0.128252
0.128268
0.128268
0.128284
0.128299
0.128315
0.128331
0.128331
0.128347
0.128363
0.128379
0.128395
0.128395
0.128411
0.128427
0.128444
0.12846
0.12846
0.128476
0.128492
0.128508
0.128524
0.128524
0.128541
0.128557
0.128573
0.12859
0.12859
0.128606
0.128622
0.128639
0.128655
0.128655
0.128672
0.128688
0.128705
0.128721
0.128721
0.128738
0.128754
0.128771
0.128788
0.128788
0.128804
0.128821
0.128838
0.128854
0.128854
0.128871
0.128888
0.128905
0.128922
0.128922
0.128938
0.128955
0.128972
0.128989
0.128989
0.129006
0.129023
0.12904
0.129057
0.129057
0.129074
0.129091
0.129108
0.129126
0.129126
0.129143
0.12916
0.129177
0.129194
0.129194
0.129212
0.129229
0.129246
0.129264
0.129264
0.129281
0.129298
0.129316
0.129333
0.129333
0.129351
0.129368
0.129386
0.129403
0.129403
0.129421
0.129438
0.129456
0.129474
0.129474
0.129491
0.129509
0.129527
0.129545
0.129545
0.129562
0.12958
0.129598
0.129616
0.129616
0.129634
0.129652
0.12967
0.129688
0.129688
0.129706
0.129724
0.129742
0.12976
0.12976
0.129778
0.129796
0.129814
0.129832
0.129832
0.12985
0.129869
0.129887
0.129905
0.129905
0.129923
0.129942
0.12996
0.129979
0.129979
0.129997
0.130015
0.130034
0.130052
0.130052
0.130071
0.130089
0.130108
0.130126
0.130126
0.130145
0.130164
0.130182
0.130201
0.130201
0.13022
0.130238
0.130257
0.130276
0.130276
0.130295
0.130314
0.130333
0.130351
0.130351
0.13037
0.130389
0.130408
0.130427
0.130427
0.130446
0.130465
0.130484
0.130504
0.130504
0.130523
0.130542
0.130561
0.13058
0.13058
0.1306
0.130619
0.130638
0.130657
0.130657
0.130677
0.130696
0.130715
0.130735
0.130735
0.130754
0.130774
0.130793
0.130813
0.130813
0.130832
0.130852
0.130872
0.130891
0.130891
0.130911
0.130931
0.13095
0.13097
0.13097
0.13099
0.13101
0.131029
0.131049
0.131049
0.131069
0.131089
0.131109
0.131129
0.131129
0.131149
0.131169
0.131189
0.131209
0.131209
0.131229
0.131249
0.131269
0.131289
0.131289
0.13131
0.13133
0.13135
0.13137
0.13137
0.131391
0.131411
0.131431
0.131452
0.131452
0.131472
0.131492
0.131513
0.131533
0.131533
0.131554
0.131574
0.131595
0.131616
0.131616
0.131636
0.131657
0.131677
0.131698
0.131698
0.131719
0.13174
0.13176
0.131781
0.131781
0.131802
0.131823
0.131844
0.131865
0.131865
0.131886
0.131907
0.131927
0.131949
0.131949
0.13197
0.131991
0.132012
0.132033
0.132033
0.132054
0.132075
0.132096
0.132118
0.132118
0.132139
0.13216
0.132181
0.132203
0.132203
0.132224
0.132246
0.132267
0.132288
0.132288
0.13231
0.132331
0.132353
0.132374
0.132374
0.132396
0.132418
0.132439
0.132461
0.132461
0.132483
0.132504
0.132526
0.132548
0.132548
0.13257
0.132591
0.132613
0.132635
0.132635
0.132657
0.132679
0.132701
0.132723
0.132723
0.132745
0.132767
0.132789
0.132811
0.132811
0.132833
0.132856
0.132878
0.1329
0.1329
0.132922
0.132944
0.132967
0.132989
0.132989
0.133011
0.133034
0.133056
0.133079
0.133079
0.133101
0.133123
0.133146
0.133169
0.133169
0.133191
0.133214
0.133236
0.133259
0.133259
0.133282
0.133304
0.133327
0.13335
0.13335
0.133373
0.133395
0.133418
0.133441
0.133441
0.133464
0.133487
0.13351
0.133533
0.133533
0.133556
0.133579
0.133602
0.133625
0.133625
0.133648
0.133671
0.133694
0.133718
0.133718
0.133741
0.133764
0.133787
0.133811
0.133811
0.133834
0.133857
0.133881
0.133904
0.133904
0.133928
0.133951
0.133975
0.133998
0.133998
0.134022
0.134045
0.134069
0.134093
0.134093
0.134116
0.13414
0.134164
0.134187
0.134187
0.134211
0.134235
0.134259
0.134283
0.134283
0.134307
0.134331
0.134354
0.134378
0.134378
0.134402
0.134427
0.134451
0.134475
0.134475
0.134499
0.134523
0.134547
0.134571
0.134571
0.134596
0.13462
0.134644
0.134668
0.134668
0.134693
0.134717
0.134742
0.134766
0.134766
0.13479
0.134815
0.134839
0.134864
0.134864
0.134889
0.134913
0.134938
0.134962
0.134962
0.134987
0.135012
0.135037
0.135061
0.135061
0.135086
0.135111
0.135136
0.135161
0.135161
0.135186
0.13521
0.135235
0.13526
0.13526
0.135285
0.135311
0.135336
0.135361
0.135361
0.135386
0.135411
0.135436
0.135461
0.135461
0.135487
0.135512
0.135537
0.135563
0.135563
0.135588
0.135613
0.135639
0.135664
0.135664
0.13569
0.135715
0.135741
0.135766
0.135766
0.135792
0.135818
0.135843
0.135869
0.135869
0.135895
0.13592
0.135946
0.135972
0.135972
0.135998
0.136024
0.136049
0.136075
0.136075
0.136101
0.136127
0.136153
0.136179
0.136179
0.136205
0.136231
0.136258
0.136284
0.136284
0.13631
0.136336
0.136362
0.136389
0.136389
0.136415
0.136441
0.136467
0.136494
0.136494
0.13652
0.136547
0.136573
0.1366
0.1366
0.136626
0.136653
0.136679
0.136706
0.136706
0.136733
0.136759
0.136786
0.136813
0.136813
0.136839
0.136866
0.136893
0.13692
0.13692
0.136947
0.136974
0.137
0.137027
0.137027
0.137054
0.137081
0.137108
0.137136
0.137136
0.137163
0.13719
0.137217
0.137244
0.137244
0.137271
0.137299
0.137326
0.137353
0.137353
0.137381
0.137408
0.137435
0.137463
0.137463
0.13749
0.137518
0.137545
0.137573
0.137573
0.1376
0.137628
0.137656
0.137683
0.137683
0.137711
0.137739
0.137766
0.137794
0.137794
0.137822
0.13785
0.137878
0.137906
0.137906
0.137933
0.137961
0.137989
0.138017
0.138017
0.138045
0.138074
0.138102
0.13813
0.13813
0.138158
0.138186
0.138214
0.138243
0.138243
0.138271
0.138299
0.138328
0.138356
0.138356
0.138384
0.138413
0.138441
0.13847
0.13847
0.138498
0.138527
0.138555
0.138584
0.138584
0.138613
0.138641
0.13867
0.138699
0.138699
0.138728
0.138756
0.138785
0.138814
0.138814
0.138843
0.138872
0.138901
0.13893
0.13893
0.138959
0.138988
0.139017
0.139046
0.139046
0.139075
0.139104
0.139133
0.139163
0.139163
0.139192
0.139221
0.13925
0.13928
0.13928
0.139309
0.139338
0.139368
0.139397
0.139397
0.139427
0.139456
0.139486
0.139515
0.139515
0.139545
0.139575
0.139604
0.139634
0.139634
0.139664
0.139694
0.139723
0.139753
0.139753
0.139783
0.139813
0.139843
0.139873
0.139873
0.139903
0.139933
0.139963
0.139993
0.139993
0.140023
0.140053
0.140083
0.140113
0.140113
0.140144
0.140174
0.140204
0.140234
0.140234
0.140265
0.140295
0.140326
0.140356
0.140356
0.140386
0.140417
0.140447
0.140478
0.140478
0.140509
0.140539
0.14057
0.140601
0.140601
0.140631
0.140662
0.140693
0.140724
0.140724
0.140754
0.140785
0.140816
0.140847
0.140847
0.140878
0.140909
0.14094
0.140971
0.140971
0.141002
0.141033
0.141064
0.141096
0.141096
0.141127
0.141158
0.141189
0.141221
0.141221
0.141252
0.141283
0.141315
0.141346
0.141346
0.141378
0.141409
0.141441
0.141472
0.141472
0.141504
0.141535
0.141567
0.141599
0.141599
0.14163
0.141662
0.141694
0.141726
0.141726
0.141757
0.141789
0.141821
0.141853
0.141853
0.141885
0.141917
0.141949
0.141981
0.141981
0.142013
0.142045
0.142077
0.14211
0.14211
0.142142
0.142174
0.142206
0.142238
0.142238
0.142271
0.142303
0.142336
0.142368
0.142368
0.1424
0.142433
0.142465
0.142498
0.142498
0.142531
0.142563
0.142596
0.142629
0.142629
0.142661
0.142694
0.142727
0.14276
0.14276
0.142792
0.142825
0.142858
0.142891
0.142891
0.142924
0.142957
0.14299
0.143023
0.143023
0.143056
0.143089
0.143122
0.143156
0.143156
0.143189
0.143222
0.143255
0.143289
0.143289
0.143322
0.143355
0.143389
0.143422
0.143422
0.143456
0.143489
0.143523
0.143556
0.143556
0.14359
0.143624
0.143657
0.143691
0.143691
0.143725
0.143758
0.143792
0.143826
0.143826
0.14386
0.143894
0.143928
0.143962
0.143962
0.143996
0.14403
0.144064
0.144098
0.144098
0.144132
0.144166
0.1442
0.144234
0.144234
0.144269
0.144303
0.144337
0.144372
0.144372
0.144406
0.14444
0.144475
0.144509
0.144509
0.144544
0.144578
0.144613
0.144647
0.144647
0.144682
0.144717
0.144751
0.144786
0.144786
0.144821
0.144856
0.14489
0.144925
0.144925
0.14496
0.144995
0.14503
0.145065
0.145065
0.1451
0.145135
0.14517
0.145205
0.145205
0.145241
0.145276
0.145311
0.145346
0.145346
0.145381
0.145417
0.145452
0.145487
0.145487
0.145523
0.145558
0.145594
0.145629
0.145629
0.145665
0.1457
0.145736
0.145772
0.145772
0.145807
0.145843
0.145879
0.145915
0.145915
0.14595
0.145986
0.146022
0.146058
0.146058
0.146094
0.14613
0.146166
0.146202
0.146202
0.146238
0.146274
0.14631
0.146346
0.146346
0.146383
0.146419
0.146455
0.146491
0.146491
0.146528
0.146564
0.146601
0.146637
0.146637
0.146673
0.14671
0.146747
0.146783
0.146783
0.14682
0.146856
0.146893
0.14693
0.14693
0.146966
0.147003
0.14704
0.147077
0.147077
0.147114
0.147151
0.147188
0.147225
0.147225
0.147262
0.147299
0.147336
0.147373
0.147373
0.14741
0.147447
0.147484
0.147521
0.147521
0.147559
0.147596
0.147633
0.147671
0.147671
0.147708
0.147746
0.147783
0.147821
0.147821
0.147858
0.147896
0.147933
0.147971
0.147971
0.148009
0.148046
0.148084
0.148122
0.148122
0.14816
0.148198
0.148235
0.148273
0.148273
0.148311
0.148349
0.148387
0.148425
0.148425
0.148463
0.148501
0.14854
0.148578
0.148578
0.148616
0.148654
0.148693
0.148731
0.148731
0.148769
0.148808
0.148846
0.148884
0.148884
0.148923
0.148962
0.149
0.149039
0.149039
0.149077
0.149116
0.149155
0.149193
0.149193
0.149232
0.149271
0.14931
0.149349
0.149349
0.149388
0.149426
0.149465
0.149504
0.149504
0.149543
0.149583
0.149622
0.149661
0.149661
0.1497
0.149739
0.149778
0.149818
0.149818
0.149857
0.149896
0.149936
0.149975
0.149975
0.150015
0.150054
0.150094
0.150133
0.150133
0.150173
0.150212
0.150252
0.150292
0.150292
0.150331
0.150371
0.150411
0.150451
0.150451
0.150491
0.150531
0.15057
0.15061
0.15061
0.15065
0.15069
0.150731
0.150771
0.150771
0.150811
0.150851
0.150891
0.150931
0.150931
0.150972
0.151012
0.151052
0.151093
0.151093
0.151133
0.151174
0.151214
0.151255
0.151255
0.151295
0.151336
0.151376
0.151417
0.151417
0.151458
0.151499
0.151539
0.15158
0.15158
0.151621
0.151662
0.151703
0.151744
0.151744
0.151785
0.151826
0.151867
0.151908
0.151908
0.151949
0.15199
0.152031
0.152072
0.152072
0.152114
0.152155
0.152196
0.152238
0.152238
0.152279
0.152321
0.152362
0.152404
0.152404
0.152445
0.152487
0.152528
0.15257
0.15257
0.152612
0.152653
0.152695
0.152737
0.152737
0.152779
0.152821
0.152862
0.152904
0.152904
0.152946
0.152988
0.15303
0.153073
0.153073
0.153115
0.153157
0.153199
0.153241
0.153241
0.153283
0.153326
0.153368
0.15341
0.15341
0.153453
0.153495
0.153538
0.15358
0.15358
0.153623
0.153665
0.153708
0.153751
0.153751
0.153793
0.153836
0.153879
0.153922
0.153922
0.153964
0.154007
0.15405
0.154093
0.154093
0.154136
0.154179
0.154222
0.154265
0.154265
0.154308
0.154351
0.154395
0.154438
0.154438
0.154481
0.154524
0.154568
0.154611
0.154611
0.154654
0.154698
0.154741
0.154785
0.154785
0.154828
0.154872
0.154916
0.154959
0.154959
0.155003
0.155047
0.15509
0.155134
0.155134
0.155178
0.155222
0.155266
0.15531
0.15531
0.155354
0.155398
0.155442
0.155486
0.155486
0.15553
0.155574
0.155618
0.155663
0.155663
0.155707
0.155751
0.155796
0.15584
0.15584
0.155884
0.155929
0.155973
0.156018
0.156018
0.156062
0.156107
0.156152
0.156196
0.156196
0.156241
0.156286
0.156331
0.156375
0.156375
0.15642
0.156465
0.15651
0.156555
0.156555
0.1566
0.156645
0.15669
0.156735
0.156735
0.15678
0.156826
0.156871
0.156916
0.156916
0.156961
0.157007
0.157052
0.157097
0.157097
0.157143
0.157188
0.157234
0.157279
0.157279
0.157325
0.157371
0.157416
0.157462
0.157462
0.157508
0.157554
0.157599
0.157645
0.157645
0.157691
0.157737
0.157783
0.157829
0.157829
0.157875
0.157921
0.157967
0.158013
0.158013
0.15806
0.158106
0.158152
0.158198
0.158198
0.158245
0.158291
0.158338
0.158384
0.158384
0.15843
0.158477
0.158524
0.15857
0.15857
0.158617
0.158663
0.15871
0.158757
0.158757
0.158804
0.158851
0.158897
0.158944
0.158944
0.158991
0.159038
0.159085
0.159132
0.159132
0.159179
0.159226
0.159274
0.159321
0.159321
0.159368
0.159415
0.159463
0.15951
0.15951
0.159557
0.159605
0.159652
0.1597
0.1597
0.159747
0.159795
0.159842
0.15989
0.15989
0.159938
0.159985
0.160033
0.160081
0.160081
0.160129
0.160177
0.160225
0.160273
0.160273
0.160321
0.160369
0.160417
0.160465
0.160465
0.160513
0.160561
0.160609
0.160658
0.160658
0.160706
0.160754
0.160803
0.160851
0.160851
0.160899
0.160948
0.160996
0.161045
0.161045
0.161094
0.161142
0.161191
0.16124
0.16124
0.161288
0.161337
0.161386
0.161435
0.161435
0.161484
0.161533
0.161582
0.161631
0.161631
0.16168
0.161729
0.161778
0.161827
0.161827
0.161876
0.161926
0.161975
0.162024
0.162024
0.162074
0.162123
0.162172
0.162222
0.162222
0.162271
0.162321
0.162371
0.16242
0.16242
0.16247
0.16252
0.162569
0.162619
0.162619
0.162669
0.162719
0.162769
0.162819
0.162819
0.162869
0.162919
0.162969
0.163019
0.163019
0.163069
0.163119
0.163169
0.16322
0.16322
0.16327
0.16332
0.163371
0.163421
0.163421
0.163471
0.163522
0.163573
0.163623
0.163623
0.163674
0.163724
0.163775
0.163826
0.163826
0.163876
0.163927
0.163978
0.164029
0.164029
0.16408
0.164131
0.164182
0.164233
0.164233
0.164284
0.164335
0.164386
0.164437
0.164437
0.164489
0.16454
0.164591
0.164643
0.164643
0.164694
0.164745
0.164797
0.164848
0.164848
0.1649
0.164951
0.165003
0.165055
0.165055
0.165106
0.165158
0.16521
0.165262
0.165262
0.165314
0.165365
0.165417
0.165469
0.165469
0.165521
0.165573
0.165625
0.165678
0.165678
0.16573
0.165782
0.165834
0.165887
0.165887
0.165939
0.165991
0.166044
0.166096
0.166096
0.166149
0.166201
0.166254
0.166306
0.166306
0.166359
0.166412
0.166464
0.166517
0.166517
0.16657
0.166623
0.166676
0.166729
0.166729
0.166782
0.166835
0.166888
0.166941
0.166941
0.166994
0.167047
0.1671
0.167153
0.167153
0.167207
0.16726
0.167313
0.167367
0.167367
0.16742
0.167474
0.167527
0.167581
0.167581
0.167634
0.167688
0.167742
0.167795
0.167795
0.167849
0.167903
0.167957
0.168011
0.168011
0.168065
0.168119
0.168173
0.168227
0.168227
0.168281
0.168335
0.168389
0.168443
0.168443
0.168497
0.168552
0.168606
0.16866
0.16866
0.168715
0.168769
0.168824
0.168878
0.168878
0.168933
0.168987
0.169042
0.169097
0.169097
0.169151
0.169206
0.169261
0.169316
0.169316
0.169371
0.169426
0.169481
0.169536
0.169536
0.169591
0.169646
0.169701
0.169756
0.169756
0.169811
0.169867
0.169922
0.169977
0.169977
0.170033
0.170088
0.170143
0.170199
0.170199
0.170254
0.17031
0.170366
0.170421
0.170421
0.170477
0.170533
0.170589
0.170644
0.170644
0.1707
0.170756
0.170812
0.170868
0.170868
0.170924
0.17098
0.171036
0.171092
0.171092
0.171149
0.171205
0.171261
0.171317
0.171317
0.171374
0.17143
0.171487
0.171543
0.171543
0.1716
0.171656
0.171713
0.171769
0.171769
0.171826
0.171883
0.17194
0.171996
0.171996
0.172053
0.17211
0.172167
0.172224
0.172224
0.172281
0.172338
0.172395
0.172452
0.172452
0.172509
0.172567
0.172624
0.172681
0.172681
0.172739
0.172796
0.172853
0.172911
0.172911
0.172968
0.173026
0.173083
0.173141
0.173141
0.173199
0.173256
0.173314
0.173372
0.173372
0.17343
0.173488
0.173546
0.173604
0.173604
0.173662
0.17372
0.173778
0.173836
0.173836
0.173894
0.173952
0.174011
0.174069
0.174069
0.174127
0.174186
0.174244
0.174302
0.174302
0.174361
0.174419
0.174478
0.174537
0.174537
0.174595
0.174654
0.174713
0.174772
0.174772
0.17483
0.174889
0.174948
0.175007
0.175007
0.175066
0.175125
0.175184
0.175243
0.175243
0.175303
0.175362
0.175421
0.17548
0.17548
0.17554
0.175599
0.175659
0.175718
0.175718
0.175778
0.175837
0.175897
0.175956
0.175956
0.176016
0.176076
0.176135
0.176195
0.176195
0.176255
0.176315
0.176375
0.176435
0.176435
0.176495
0.176555
0.176615
0.176675
0.176675
0.176735
0.176796
0.176856
0.176916
0.176916
0.176977
0.177037
0.177097
0.177158
0.177158
0.177218
0.177279
0.17734
0.1774
0.1774
0.177461
0.177522
0.177582
0.177643
0.177643
0.177704
0.177765
0.177826
0.177887
0.177887
0.177948
0.178009
0.17807
0.178131
0.178131
0.178192
0.178254
0.178315
0.178376
0.178376
0.178438
0.178499
0.178561
0.178622
0.178622
0.178684
0.178745
0.178807
0.178868
0.178868
0.17893
0.178992
0.179054
0.179116
0.179116
0.179177
0.179239
0.179301
0.179363
0.179363
0.179425
0.179487
0.17955
0.179612
0.179612
0.179674
0.179736
0.179799
0.179861
0.179861
0.179923
0.179986
0.180048
0.180111
0.180111
0.180173
0.180236
0.180299
0.180361
0.180361
0.180424
0.180487
0.18055
0.180613
0.180613
0.180675
0.180738
0.180801
0.180864
0.180864
0.180928
0.180991
0.181054
0.181117
0.181117
0.18118
0.181244
0.181307
0.18137
0.18137
0.181434
0.181497
0.181561
0.181624
0.181624
0.181688
0.181752
0.181815
0.181879
0.181879
0.181943
0.182007
0.18207
0.182134
0.182134
0.182198
0.182262
0.182326
0.18239
0.18239
0.182455
0.182519
0.182583
0.182647
0.182647
0.182711
0.182776
0.18284
0.182905
0.182905
0.182969
0.183034
0.183098
0.183163
0.183163
0.183227
0.183292
0.183357
0.183422
0.183422
0.183486
0.183551
0.183616
0.183681
0.183681
0.183746
0.183811
0.183876
0.183941
0.183941
0.184007
0.184072
0.184137
0.184202
0.184202
0.184268
0.184333
0.184399
0.184464
0.184464
0.18453
0.184595
0.184661
0.184726
0.184726
0.184792
0.184858
0.184924
0.184989
0.184989
0.185055
0.185121
0.185187
0.185253
0.185253
0.185319
0.185385
0.185451
0.185518
0.185518
0.185584
0.18565
0.185716
0.185783
0.185783
0.185849
0.185916
0.185982
0.186049
0.186049
0.186115
0.186182
0.186249
0.186315
0.186315
0.186382
0.186449
0.186516
0.186583
0.186583
0.186649
0.186716
0.186783
0.186851
0.186851
0.186918
0.186985
0.187052
0.187119
0.187119
0.187187
0.187254
0.187321
0.187389
0.187389
0.187456
0.187524
0.187591
0.187659
0.187659
0.187726
0.187794
0.187862
0.18793
0.18793
0.187997
0.188065
0.188133
0.188201
0.188201
0.188269
0.188337
0.188405
0.188473
0.188473
0.188542
0.18861
0.188678
0.188746
0.188746
0.188815
0.188883
0.188952
0.18902
0.18902
0.189089
0.189157
0.189226
0.189294
0.189294
0.189363
0.189432
0.189501
0.18957
0.18957
0.189639
0.189707
0.189776
0.189845
0.189845
0.189915
0.189984
0.190053
0.190122
0.190122
0.190191
0.190261
0.19033
0.190399
0.190399
0.190469
0.190538
0.190608
0.190677
0.190677
0.190747
0.190817
0.190886
0.190956
0.190956
0.191026
0.191096
0.191165
0.191235
0.191235
0.191305
0.191375
0.191445
0.191516
0.191516
0.191586
0.191656
0.191726
0.191796
0.191796
0.191867
0.191937
0.192008
0.192078
0.192078
0.192149
0.192219
0.19229
0.19236
0.19236
0.192431
0.192502
0.192573
0.192643
0.192643
0.192714
0.192785
0.192856
0.192927
0.192927
0.192998
0.193069
0.19314
0.193212
0.193212
0.193283
0.193354
0.193425
0.193497
0.193497
0.193568
0.19364
0.193711
0.193783
0.193783
0.193854
0.193926
0.193998
0.194069
0.194069
0.194141
0.194213
0.194285
0.194357
0.194357
0.194429
0.194501
0.194573
0.194645
0.194645
0.194717
0.194789
0.194862
0.194934
0.194934
0.195006
0.195079
0.195151
0.195223
0.195223
0.195296
0.195369
0.195441
0.195514
0.195514
0.195587
0.195659
0.195732
0.195805
0.195805
0.195878
0.195951
0.196024
0.196097
0.196097
0.19617
0.196243
0.196316
0.196389
0.196389
0.196462
0.196536
0.196609
0.196682
0.196682
0.196756
0.196829
0.196903
0.196976
0.196976
0.19705
0.197124
0.197197
0.197271
0.197271
0.197345
0.197419
0.197493
0.197567
0.197567
0.197641
0.197715
0.197789
0.197863
0.197863
0.197937
0.198011
0.198085
0.19816
0.19816
0.198234
0.198309
0.198383
0.198457
0.198457
0.198532
0.198607
0.198681
0.198756
0.198756
0.198831
0.198905
0.19898
0.199055
0.199055
0.19913
0.199205
0.19928
0.199355
0.199355
0.19943
0.199505
0.19958
0.199656
0.199656
0.199731
0.199806
0.199882
0.199957
0.199957
0.200032
0.200108
0.200183
0.200259
0.200259
0.200335
0.20041
0.200486
0.200562
0.200562
0.200638
0.200714
0.20079
0.200866
0.200866
0.200942
0.201018
0.201094
0.20117
0.20117
0.201246
0.201322
0.201399
0.201475
0.201475
0.201551
0.201628
0.201704
0.201781
0.201781
0.201857
0.201934
0.202011
0.202087
0.202087
0.202164
0.202241
0.202318
0.202395
0.202395
0.202472
0.202549
0.202626
0.202703
0.202703
0.20278
0.202857
0.202934
0.203012
0.203012
0.203089
0.203166
0.203244
0.203321
0.203321
0.203399
0.203476
0.203554
0.203632
0.203632
0.203709
0.203787
0.203865
0.203943
0.203943
0.204021
0.204098
0.204176
0.204254
0.204254
0.204333
0.204411
0.204489
0.204567
0.204567
0.204645
0.204724
0.204802
0.20488
0.20488
0.204959
0.205037
0.205116
0.205194
0.205194
0.205273
0.205352
0.205431
0.205509
0.205509
0.205588
0.205667
0.205746
0.205825
0.205825
0.205904
0.205983
0.206062
0.206141
0.206141
0.20622
0.2063
0.206379
0.206458
0.206458
0.206538
0.206617
0.206697
0.206776
0.206776
0.206856
0.206935
0.207015
0.207095
0.207095
0.207175
0.207254
0.207334
0.207414
0.207414
0.207494
0.207574
0.207654
0.207734
0.207734
0.207814
0.207895
0.207975
0.208055
0.208055
0.208136
0.208216
0.208296
0.208377
0.208377
0.208457
0.208538
0.208619
0.208699
0.208699
0.20878
0.208861
0.208942
0.209022
0.209022
0.209103
0.209184
0.209265
0.209346
0.209346
0.209427
0.209509
0.20959
0.209671
0.209671
0.209752
0.209834
0.209915
0.209996
0.209996
0.210078
0.210159
0.210241
0.210323
0.210323
0.210404
0.210486
0.210568
0.21065
0.21065
0.210731
0.210813
0.210895
0.210977
0.210977
0.211059
0.211141
0.211224
0.211306
0.211306
0.211388
0.21147
0.211553
0.211635
0.211635
0.211717
0.2118
0.211882
0.211965
0.211965
0.212048
0.21213
0.212213
0.212296
0.212296
0.212379
0.212461
0.212544
0.212627
0.212627
0.21271
0.212793
0.212877
0.21296
0.21296
0.213043
0.213126
0.213209
0.213293
0.213293
0.213376
0.21346
0.213543
0.213627
0.213627
0.21371
0.213794
0.213877
0.213961
0.213961
0.214045
0.214129
0.214213
0.214297
0.214297
0.214381
0.214465
0.214549
0.214633
0.214633
0.214717
0.214801
0.214885
0.21497
0.21497
0.215054
0.215138
0.215223
0.215307
0.215307
0.215392
0.215476
0.215561
0.215646
0.215646
0.215731
0.215815
0.2159
0.215985
0.215985
0.21607
0.216155
0.21624
0.216325
0.216325
0.21641
0.216495
0.21658
0.216666
0.216666
0.216751
0.216836
0.216922
0.217007
0.217007
0.217093
0.217178
0.217264
0.21735
0.21735
0.217435
0.217521
0.217607
0.217693
0.217693
0.217779
0.217865
0.217951
0.218037
0.218037
0.218123
0.218209
0.218295
0.218381
0.218381
0.218467
0.218554
0.21864
0.218727
0.218727
0.218813
0.2189
0.218986
0.219073
0.219073
0.219159
0.219246
0.219333
0.21942
0.21942
0.219507
0.219593
0.21968
0.219767
0.219767
0.219854
0.219942
0.220029
0.220116
0.220116
0.220203
0.22029
0.220378
0.220465
0.220465
0.220553
0.22064
0.220728
0.220815
0.220815
0.220903
0.220991
0.221078
0.221166
0.221166
0.221254
0.221342
0.22143
0.221518
0.221518
0.221606
0.221694
0.221782
0.22187
0.22187
0.221958
0.222047
0.222135
0.222223
0.222223
0.222312
0.2224
0.222489
0.222577
0.222577
0.222666
0.222754
0.222843
0.222932
0.222932
0.223021
0.22311
0.223198
0.223287
0.223287
0.223376
0.223465
0.223554
0.223644
0.223644
0.223733
0.223822
0.223911
0.224001
0.224001
0.22409
0.22418
0.224269
0.224359
0.224359
0.224448
0.224538
0.224627
0.224717
0.224717
0.224807
0.224897
0.224987
0.225077
0.225077
0.225167