<?xml version="1.0"?>
<VTKFile type="UnstructuredGrid" version="0.1" byte_order="LittleEndian">
<UnstructuredGrid>
<Piece NumberOfPoints="5000" NumberOfCells="4000">
<PointData Scalars="Reaction 0">
<DataArray type="Float32" Name="Reaction 0" format="ascii">
0.244827
0.244827
0.244827
0.244827
0.244827
0.244827
0.244828
0.244828
0.244828
0.244828
0.244828
0.244829
0.244829
0.244829
0.24483
0.24483
0.24483
0.24483
0.244831
0.244832
0.244832
0.244832
0.244833
0.244833
0.244834
0.244834
0.244835
0.244835
0.244836
0.244837
0.244837
0.244838
0.244839
0.24484
0.244841
0.244841
0.244842
0.244843
0.244844
0.244845
0.244845
0.244846
0.244847
0.244848
0.244849
0.244849
0.244851
0.244852
0.244853
0.244854
0.244854
0.244856
0.244857
0.244859
0.24486
0.24486
0.244862
0.244863
0.244865
0.244867
0.244867
0.244868
0.24487
0.244872
0.244873
0.244873
0.244875
0.244877
0.244879
0.244881
0.244881
0.244883
0.244885
0.244887
0.244889
0.244889
0.244891
0.244893
0.244895
0.244897
0.244897
0.244899
0.244902
0.244904
0.244906
0.244906
0.244909
0.244911
0.244913
0.244916
0.244916
0.244918
0.244921
0.244923
0.244926
0.244926
0.244929
0.244931
0.244934
0.244937
0.244937
0.244939
0.244942
0.244945
0.244948
0.244948
0.244951
0.244954
0.244957
0.24496
0.24496
0.244963
0.244966
0.244969
0.244972
0.244972
0.244975
0.244978
0.244981
0.244985
0.244985
0.244988
0.244991
0.244995
0.244998
0.244998
0.245002
0.245005
0.245009
0.245012
0.245012
0.245016
0.245019
0.245023
0.245027
0.245027
0.24503
0.245034
0.245038
0.245042
0.245042
0.245046
0.245049
0.245053
0.245057
0.245057
0.245061
0.245065
0.245069
0.245073
0.245073
0.245078
0.245082
0.245086
0.24509
0.24509
0.245094
0.245099
0.245103
0.245107
0.245107
0.245112
0.245116
0.245121
0.245125
0.245125
0.24513
0.245134
0.245139
0.245143
0.245143
0.245148
0.245153
0.245158
0.245162
0.245162
0.245167
0.245172
0.245177
0.245182
0.245182
0.245187
0.245192
0.245197
0.245202
0.245202
0.245207
0.245212
0.245217
0.245222
0.245222
0.245227
0.245233
0.245238
0.245243
0.245243
0.245249
0.245254
0.245259
0.245265
0.245265
0.24527
0.245276
0.245282
0.245287
0.245287
0.245293
0.245298
0.245304
0.24531
0.24531
0.245316
0.245321
0.245327
0.245333
0.245333
0.245339
0.245345
0.245351
0.245357
0.245357
0.245363
0.245369
0.245375
0.245381
0.245381
0.245387
0.245394
0.2454
0.245406
0.245406
0.245412
0.245419
0.245425
0.245432
0.245432
0.245438
0.245444
0.245451
0.245458
0.245458
0.245464
0.245471
0.245477
0.245484
0.245484
0.245491
0.245498
0.245504
0.245511
0.245511
0.245518
0.245525
0.245532
0.245539
0.245539
0.245546
0.245553
0.24556
0.245567
0.245567
0.245574
0.245581
0.245588
0.245596
0.245596
0.245603
0.24561
0.245618
0.245625
0.245625
0.245632
0.24564
0.245647
0.245655
0.245655
0.245662
0.24567
0.245678
0.245685
0.245685
0.245693
0.245701
0.245708
0.245716
0.245716
0.245724
0.245732
0.24574
0.245748
0.245748
0.245756
0.245763
0.245772
0.24578
0.24578
0.245788
0.245796
0.245804
0.245812
0.245812
0.24582
0.245829
0.245837
0.245845
0.245845
0.245854
0.245862
0.24587
0.245879
0.245879
0.245887
0.245896
0.245904
0.245913
0.245913
0.245922
0.24593
0.245939
0.245948
0.245948
0.245957
0.245965
0.245974
0.245983
0.245983
0.245992
0.246001
0.24601
0.246019
0.246019
0.246028
0.246037
0.246046
0.246055
0.246055
0.246064
0.246074
0.246083
0.246092
0.246092
0.246102
0.246111
0.24612
0.24613
0.24613
0.246139
0.246149
0.246158
0.246168
0.246168
0.246177
0.246187
0.246197
0.246206
0.246206
0.246216
0.246226
0.246236
0.246245
0.246245
0.246255
0.246265
0.246275
0.246285
0.246285
0.246295
0.246305
0.246315
0.246325
0.246325
0.246335
0.246346
0.246356
0.246366
0.246366
0.246376
0.246387
0.246397
0.246407
0.246407
0.246418
0.246428
0.246439
0.246449
0.246449
0.24646
0.24647
0.246481
0.246492
0.246492
0.246502
0.246513
0.246524
0.246535
0.246535
0.246545
0.246556
0.246567
0.246578
0.246578
0.246589
0.2466
0.246611
0.246622
0.246622
0.246633
0.246644
0.246655
0.246667
0.246667
0.246678
0.246689
0.2467
0.246712
0.246712
0.246723
0.246735
0.246746
0.246757
0.246757
0.246769
0.24678
0.246792
0.246804
0.246804
0.246815
0.246827
0.246839
0.24685
0.24685
0.246862
0.246874
0.246886
0.246898
0.246898
0.24691
0.246922
0.246934
0.246946
0.246946
0.246958
0.24697
0.246982
0.246994
0.246994
0.247006
0.247018
0.247031
0.247043
0.247043
0.247055
0.247068
0.24708
0.247092
0.247092
0.247105
0.247117
0.24713
0.247142
0.247142
0.247155
0.247168
0.24718
0.247193
0.247193
0.247206
0.247219
0.247231
0.247244
0.247244
0.247257
0.24727
0.247283
0.247296
0.247296
0.247309
0.247322
0.247335
0.247348
0.247348
0.247361
0.247374
0.247388
0.247401
0.247401
0.247414
0.247427
0.247441
0.247454
0.247454
0.247468
0.247481
0.247495
0.247508
0.247508
0.247522
0.247535
0.247549
0.247562
0.247562
0.247576
0.24759
0.247604
0.247617
0.247617
0.247631
0.247645
0.247659
0.247673
0.247673
0.247687
0.247701
0.247715
0.247729
0.247729
0.247743
0.247757
0.247771
0.247786
0.247786
0.2478
0.247814
0.247828
0.247843
0.247843
0.247857
0.247871
0.247886
0.2479
0.2479
0.247915
0.247929
0.247944
0.247959
0.247959
0.247973
0.247988
0.248003
0.248017
0.248017
0.248032
0.248047
0.248062
0.248077
0.248077
0.248092
0.248107
0.248122
0.248137
0.248137
0.248152
0.248167
0.248182
0.248197
0.248197
0.248212
0.248227
0.248243
0.248258
0.248258
0.248273
0.248289
0.248304
0.248319
0.248319
0.248335
0.24835
0.248366
0.248382
0.248382
0.248397
0.248413
0.248428
0.248444
0.248444
0.24846
0.248476
0.248491
0.248507
0.248507
0.248523
0.248539
0.248555
0.248571
0.248571
0.248587
0.248603
0.248619
0.248635
0.248635
0.248651
0.248668
0.248684
0.2487
0.2487
0.248716
0.248733
0.248749
0.248765
0.248765
0.248782
0.248798
0.248815
0.248831
0.248831
0.248848
0.248864
0.248881
0.248898
0.248898
0.248914
0.248931
0.248948
0.248965
0.248965
0.248981
0.248998
0.249015
0.249032
0.249032
0.249049
0.249066
0.249083
0.2491
0.2491
0.249117
0.249134
0.249151
0.249169
0.249169
0.249186
0.249203
0.24922
0.249238
0.249238
0.249255
0.249273
0.24929
0.249308
0.249308
0.249325
0.249343
0.24936
0.249378
0.249378
0.249395
0.249413
0.249431
0.249449
0.249449
0.249466
0.249484
0.249502
0.24952
0.24952
0.249538
0.249556
0.249574
0.249592
0.249592
0.24961
0.249628
0.249646
0.249664
0.249664
0.249682
0.249701
0.249719
0.249737
0.249737
0.249755
0.249774
0.249792
0.249811
0.249811
0.249829
0.249848
0.249866
0.249885
0.249885
0.249903
0.249922
0.24994
0.249959
0.249959
0.249978
0.249997
0.250015
0.250034
0.250034
0.250053
0.250072
0.250091
0.25011
0.25011
0.250129
0.250148
0.250167
0.250186
0.250186
0.250205
0.250225
0.250244
0.250263
0.250263
0.250282
0.250302
0.250321
0.25034
0.25034
0.25036
0.250379
0.250399
0.250418
0.250418
0.250438
0.250457
0.250477
0.250497
0.250497
0.250516
0.250536
0.250556
0.250576
0.250576
0.250595
0.250615
0.250635
0.250655
0.250655
0.250675
0.250695
0.250715
0.250735
0.250735
0.250755
0.250775
0.250795
0.250816
0.250816
0.250836
0.250856
0.250876
0.250897
0.250897
0.250917
0.250938
0.250958
0.250978
0.250978
0.250999
0.251019
0.25104
0.251061
0.251061
0.251081
0.251102
0.251123
0.251143
0.251143
0.251164
0.251185
0.251206
0.251227
0.251227
0.251248
0.251269
0.25129
0.251311
0.251311
0.251332
0.251353
0.251374
0.251395
0.251395
0.251416
0.251437
0.251459
0.25148
0.25148
0.251501
0.251523
0.251544
0.251565
0.251565
0.251587
0.251608
0.25163
0.251651
0.251651
0.251673
0.251695
0.251716
0.251738
0.251738
0.25176
0.251781
0.251803
0.251825
0.251825
0.251847
0.251869
0.251891
0.251913
0.251913
0.251935
0.251957
0.251979
0.252001
0.252001
0.252023
0.252045
0.252067
0.25209
0.25209
0.252112
0.252134
0.252157
0.252179
0.252179
0.252201
0.252224
0.252246
0.252269
0.252269
0.252291
0.252314
0.252336
0.252359
0.252359
0.252382
0.252404
0.252427
0.25245
0.25245
0.252473
0.252496
0.252519
0.252541
0.252541
0.252564
0.252587
0.25261
0.252633
0.252633
0.252657
0.25268
0.252703
0.252726
0.252726
0.252749
0.252772
0.252796
0.252819
0.252819
0.252842
0.252866
0.252889
0.252913
0.252913
0.252936
0.25296
0.252983
0.253007
0.253007
0.253031
0.253054
0.253078
0.253102
0.253102
0.253125
0.253149
0.253173
0.253197
0.253197
0.253221
0.253245
0.253269
0.253293
0.253293
0.253317
0.253341
0.253365
0.253389
0.253389
0.253413
0.253437
0.253462
0.253486
0.253486
0.25351
0.253535
0.253559
0.253583
0.253583
0.253608
0.253632
0.253657
0.253681
0.253681
0.253706
0.25373
0.253755
0.25378
0.25378
0.253805
0.253829
0.253854
0.253879
0.253879
0.253904
0.253929
0.253954
0.253978
0.253978
0.254003
0.254028
0.254054
0.254079
0.254079
0.254104
0.254129
0.254154
0.254179
0.254179
0.254205
0.25423
0.254255
0.254281
0.254281
0.254306
0.254331
0.254357
0.254382
0.254382
0.254408
0.254433
0.254459
0.254485
0.254485
0.25451
0.254536
0.254562
0.254587
0.254587
0.254613
0.254639
0.254665
0.254691
0.254691
0.254717
0.254743
0.254769
0.254795
0.254795
0.254821
0.254847
0.254873
0.254899
0.254899
0.254926
0.254952
0.254978
0.255004
0.255004
0.255031
0.255057
0.255083
0.25511
0.25511
0.255136
0.255163
0.255189
0.255216
0.255216
0.255243
0.255269
0.255296
0.255323
0.255323
0.255349
0.255376
0.255403
0.25543
0.25543
0.255457
0.255484
0.255511
0.255538
0.255538
0.255565
0.255592
0.255619
0.255646
0.255646
0.255673
0.2557
0.255727
0.255755
0.255755
0.255782
0.255809
0.255837
0.255864
0.255864
0.255891
0.255919
0.255946
0.255974
0.255974
0.256002
0.256029
0.256057
0.256084
0.256084
0.256112
0.25614
0.256168
0.256195
0.256195
0.256223
0.256251
0.256279
0.256307
0.256307
0.256335
0.256363
0.256391
0.256419
0.256419
0.256447
0.256475
0.256503
0.256532
0.256532
0.25656
0.256588
0.256616
0.256645
0.256645
0.256673
0.256702
0.25673
0.256758
0.256758
0.256787
0.256816
0.256844
0.256873
0.256873
0.256901
0.25693
0.256959
0.256987
0.256987
0.257016
0.257045
0.257074
0.257103
0.257103
0.257132
0.257161
0.25719
0.257219
0.257219
0.257248
0.257277
0.257306
0.257335
0.257335
0.257364
0.257393
0.257423
0.257452
0.257452
0.257481
0.257511
0.25754
0.257569
0.257569
0.257599
0.257628
0.257658
0.257687
0.257687
0.257717
0.257747
0.257776
0.257806
0.257806
0.257836
0.257866
0.257895
0.257925
0.257925
0.257955
0.257985
0.258015
0.258045
0.258045
0.258075
0.258105
0.258135
0.258165
0.258165
0.258195
0.258225
0.258255
0.258286
0.258286
0.258316
0.258346
0.258377
0.258407
0.258407
0.258437
0.258468
0.258498
0.258529
0.258529
0.258559
0.25859
0.25862
0.258651
0.258651
0.258682
0.258713
0.258743
0.258774
0.258774
0.258805
0.258836
0.258867
0.258897
0.258897
0.258928
0.258959
0.25899
0.259021
0.259021
0.259052
0.259084
0.259115
0.259146
0.259146
0.259177
0.259208
0.25924
0.259271
0.259271
0.259302
0.259334
0.259365
0.259397
0.259397
0.259428
0.25946
0.259491
0.259523
0.259523
0.259554
0.259586
0.259618
0.259649
0.259649
0.259681
0.259713
0.259745
0.259777
0.259777
0.259808
0.25984
0.259872
0.259904
0.259904
0.259936
0.259968
0.26
0.260033
0.260033
0.260065
0.260097
0.260129
0.260161
0.260161
0.260194
0.260226
0.260258
0.260291
0.260291
0.260323
0.260356
0.260388
0.260421
0.260421
0.260453
0.260486
0.260518
0.260551
0.260551
0.260584
0.260617
0.260649
0.260682
0.260682
0.260715
0.260748
0.260781
0.260814
0.260814
0.260847
0.26088
0.260913
0.260946
0.260946
0.260979
0.261012
0.261045
0.261078
0.261078
0.261112
0.261145
0.261178
0.261211
0.261211
0.261245
0.261278
0.261312
0.261345
0.261345
0.261379
0.261412
0.261446
0.261479
0.261479
0.261513
0.261547
0.26158
0.261614
0.261614
0.261648
0.261682
0.261716
0.261749
0.261749
0.261783
0.261817
0.261851
0.261885
0.261885
0.261919
0.261953
0.261987
0.262022
0.262022
0.262056
0.26209
0.262124
0.262159
0.262159
0.262193
0.262227
0.262262
0.262296
0.262296
0.26233
0.262365
0.262399
0.262434
0.262434
0.262469
0.262503
0.262538
0.262572
0.262572
0.262607
0.262642
0.262677
0.262712
0.262712
0.262746
0.262781
0.262816
0.262851
0.262851
0.262886
0.262921
0.262956
0.262991
0.262991
0.263026
0.263062
0.263097
0.263132
0.263132
0.263167
0.263202
0.263238
0.263273
0.263273
0.263309
0.263344
0.263379
0.263415
0.263415
0.26345
0.263486
0.263522
0.263557
0.263557
0.263593
0.263629
0.263664
0.2637
0.2637
0.263736
0.263772
0.263808
0.263843
0.263843
0.263879
0.263915
0.263951
0.263987
0.263987
0.264023
0.264059
0.264096
0.264132
0.264132
0.264168
0.264204
0.26424
0.264277
0.264277
0.264313
0.264349
0.264386
0.264422
0.264422
0.264459
0.264495
0.264532
0.264568
0.264568
0.264605
0.264642
0.264678
0.264715
0.264715
0.264752
0.264788
0.264825
0.264862
0.264862
0.264899
0.264936
0.264973
0.26501
0.26501
0.265047
0.265084
0.265121
0.265158
0.265158
0.265195
0.265232
0.265269
0.265307
0.265307
0.265344
0.265381
0.265419
0.265456
0.265456
0.265493
0.265531
0.265568
0.265606
0.265606
0.265643
0.265681
0.265718
0.265756
0.265756
0.265794
0.265831
0.265869
0.265907
0.265907
0.265945
0.265983
0.26602
0.266058
0.266058
0.266096
0.266134
0.266172
0.26621
0.26621
0.266248
0.266287
0.266325
0.266363
0.266363
0.266401
0.266439
0.266478
0.266516
0.266516
0.266554
0.266593
0.266631
0.266669
0.266669
0.266708
0.266746
0.266785
0.266824
0.266824
0.266862
0.266901
0.266939
0.266978
0.266978
0.267017
0.267056
0.267094
0.267133
0.267133
0.267172
0.267211
0.26725
0.267289
0.267289
0.267328
0.267367
0.267406
0.267445
0.267445
0.267484
0.267524
0.267563
0.267602
0.267602
0.267641
0.267681
0.26772
0.267759
0.267759
0.267799
0.267838
0.267878
0.267917
0.267917
0.267957
0.267996
0.268036
0.268076
0.268076
0.268115
0.268155
0.268195
0.268235
0.268235
0.268274
0.268314
0.268354
0.268394
0.268394
0.268434
0.268474
0.268514
0.268554
0.268554
0.268594
0.268634
0.268674
0.268715
0.268715
0.268755
0.268795
0.268835
0.268876
0.268876
0.268916
0.268956
0.268997
0.269037
0.269037
0.269078
0.269118
0.269159
0.269199
0.269199
0.26924
0.269281
0.269321
0.269362
0.269362
0.269403
0.269444
0.269484
0.269525
0.269525
0.269566
0.269607
0.269648
0.269689
0.269689
0.26973
0.269771
0.269812
0.269853
0.269853
0.269894
0.269936
0.269977
0.270018
0.270018
0.270059
0.270101
0.270142
0.270183
0.270183
0.270225
0.270266
0.270308
0.270349
0.270349
0.270391
0.270432
0.270474
0.270516
0.270516
0.270557
0.270599
0.270641
0.270683
0.270683
0.270724
0.270766
0.270808
0.27085
0.27085
0.270892
0.270934
0.270976
0.271018
0.271018
0.27106
0.271102
0.271144
0.271187
0.271187
0.271229
0.271271
0.271313
0.271356
0.271356
0.271398
0.27144
0.271483
0.271525
0.271525
0.271568
0.27161
0.271653
0.271695
0.271695
0.271738
0.271781
0.271823
0.271866
0.271866
0.271909
0.271952
0.271995
0.272037
0.272037
0.27208
0.272123
0.272166
0.272209
0.272209
0.272252
0.272295
0.272338
0.272381
0.272381
0.272425
0.272468
0.272511
0.272554
0.272554
0.272597
0.272641
0.272684
0.272728
0.272728
0.272771
0.272814
0.272858
0.272901
0.272901
0.272945
0.272989
0.273032
0.273076
0.273076
0.27312
0.273163
0.273207
0.273251
0.273251
0.273295
0.273338
0.273382
0.273426
0.273426
0.27347
0.273514
0.273558
0.273602
0.273602
0.273646
0.27369
0.273735
0.273779
0.273779
0.273823
0.273867
0.273912
0.273956
0.273956
0.274
0.274045
0.274089
0.274133
0.274133
0.274178
0.274222
0.274267
0.274312
0.274312
0.274356
0.274401
0.274446
0.27449
0.27449
0.274535
0.27458
0.274625
0.274669
0.274669
0.274714
0.274759
0.274804
0.274849
0.274849
0.274894
0.274939
0.274984
0.275029
0.275029
0.275075
0.27512
0.275165
0.27521
0.27521
0.275256
0.275301
0.275346
0.275392
0.275392
0.275437
0.275482
0.275528
0.275573
0.275573
0.275619
0.275665
0.27571
0.275756
0.275756
0.275802
0.275847
0.275893
0.275939
0.275939
0.275985
0.27603
0.276076
0.276122
0.276122
0.276168
0.276214
0.27626
0.276306
0.276306
0.276352
0.276398
0.276445
0.276491
0.276491
0.276537
0.276583
0.276629
0.276676
0.276676
0.276722
0.276768
0.276815
0.276861
0.276861
0.276908
0.276954
0.277001
0.277047
0.277047
0.277094
0.277141
0.277187
0.277234
0.277234
0.277281
0.277328
0.277374
0.277421
0.277421
0.277468
0.277515
0.277562
0.277609
0.277609
0.277656
0.277703
0.27775
0.277797
0.277797
0.277844
0.277891
0.277939
0.277986
0.277986
0.278033
0.27808
0.278128
0.278175
0.278175
0.278223
0.27827
0.278318
0.278365
0.278365
0.278413
0.27846
0.278508
0.278555
0.278555
0.278603
0.278651
0.278698
0.278746
0.278746
0.278794
0.278842
0.27889
0.278938
0.278938
0.278986
0.279034
0.279082
0.27913
0.27913
0.279178
0.279226
0.279274
0.279322
0.279322
0.27937
0.279418
0.279467
0.279515
0.279515
0.279563
0.279612
0.27966
0.279709
0.279709
0.279757
0.279806
0.279854
0.279903
0.279903
0.279951
0.28
0.280049
0.280097
0.280097
0.280146
0.280195
0.280243
0.280292
0.280292
0.280341
0.28039
0.280439
0.280488
0.280488
0.280537
0.280586
0.280635
0.280684
0.280684
0.280733
0.280782
0.280832
0.280881
0.280881
0.28093
0.280979
0.281029
0.281078
0.281078
0.281127
0.281177
0.281226
0.281276
0.281276
0.281325
0.281375
0.281424
0.281474
0.281474
0.281524
0.281573
0.281623
0.281673
0.281673
0.281723
0.281772
0.281822
0.281872
0.281872
0.281922
0.281972
0.282022
0.282072
0.282072
0.282122
0.282172
0.282222
0.282272
0.282272
0.282323
0.282373
0.282423
0.282473
0.282473
0.282524
0.282574
0.282624
0.282675
0.282675
0.282725
0.282776
0.282826
0.282877
0.282877
0.282927
0.282978
0.283029
0.283079
0.283079
0.28313
0.283181
0.283232
0.283282
0.283282
0.283333
0.283384
0.283435
0.283486
0.283486
0.283537
0.283588
0.283639
0.28369
0.28369
0.283741
0.283792
0.283843
0.283895
0.283895
0.283946
0.283997
0.284048
0.2841
0.2841
0.284151
0.284202
0.284254
0.284305
0.284305
0.284357
0.284408
0.28446
0.284512
0.284512
0.284563
0.284615
0.284667
0.284718
0.284718
0.28477
0.284822
0.284874
0.284926
0.284926
0.284977
0.285029
0.285081
0.285133
0.285133
0.285185
0.285237
0.285289
0.285342
0.285342
0.285394
0.285446
0.285498
0.28555
0.28555
0.285603
0.285655
0.285707
0.28576
0.28576
0.285812
0.285865
0.285917
0.28597
0.28597
0.286022
0.286075
0.286127
0.28618
0.28618
0.286233
0.286285
0.286338
0.286391
0.286391
0.286444
0.286497
0.286549
0.286602
0.286602
0.286655
0.286708
0.286761
0.286814
0.286814
0.286867
0.286921
0.286974
0.287027
0.287027
0.28708
0.287133
0.287187
0.28724
0.28724
0.287293
0.287347
0.2874
0.287453
0.287453
0.287507
0.28756
0.287614
0.287668
0.287668
0.287721
0.287775
0.287828
0.287882
0.287882
0.287936
0.28799
0.288043
0.288097
0.288097
0.288151
0.288205
0.288259
0.288313
0.288313
0.288367
0.288421
0.288475
0.288529
0.288529
0.288583
0.288637
0.288692
0.288746
0.288746
0.2888
0.288854
0.288909
0.288963
0.288963
0.289017
0.289072
0.289126
0.289181
0.289181
0.289235
0.28929
0.289344
0.289399
0.289399
0.289454
0.289508
0.289563
0.289618
0.289618
0.289673
0.289727
0.289782
0.289837
0.289837
0.289892
0.289947
0.290002
0.290057
0.290057
0.290112
0.290167
0.290222
0.290277
0.290277
0.290332
0.290388
0.290443
0.290498
0.290498
0.290553
0.290609
0.290664
0.29072
0.29072
0.290775
0.29083
0.290886
0.290942
0.290942
0.290997
0.291053
0.291108
0.291164
0.291164
0.29122
0.291275
0.291331
0.291387
0.291387
0.291443
0.291499
0.291555
0.29161
0.29161
0.291666
0.291722
0.291778
0.291834
0.291834
0.291891
0.291947
0.292003
0.292059
0.292059
0.292115
0.292171
0.292228
0.292284
0.292284
0.29234
0.292397
0.292453
0.29251
0.29251
0.292566
0.292623
0.292679
0.292736
0.292736
0.292792
0.292849
0.292906
0.292962
0.292962
0.293019
0.293076
0.293133
0.29319
0.29319
0.293246
0.293303
0.29336
0.293417
0.293417
0.293474
0.293531
0.293588
0.293645
0.293645
0.293703
0.29376
0.293817
0.293874
0.293874
0.293931
0.293989
0.294046
0.294103
0.294103
0.294161
0.294218
0.294276
0.294333
0.294333
0.294391
0.294448
0.294506
0.294563
0.294563
0.294621
0.294679
0.294736
0.294794
0.294794
0.294852
0.29491
0.294968
0.295026
0.295026
0.295083
0.295141
0.295199
0.295257
0.295257
0.295315
0.295374
0.295432
0.29549
0.29549
0.295548
0.295606
0.295664
0.295723
0.295723
0.295781
0.295839
0.295898
0.295956
0.295956
0.296014
0.296073
0.296131
0.29619
0.29619
0.296249
0.296307
0.296366
0.296424
0.296424
0.296483
0.296542
0.296601
0.296659
0.296659
0.296718
0.296777
0.296836
0.296895
0.296895
0.296954
0.297013
0.297072
0.297131
0.297131
0.29719
0.297249
0.297308
0.297367
0.297367
0.297427
0.297486
0.297545
0.297604
0.297604
0.297664
0.297723
0.297783
0.297842
0.297842
0.297901
0.297961
0.29802
0.29808
0.29808
0.29814
0.298199
0.298259
0.298319
0.298319
0.298378
0.298438
0.298498
0.298558
0.298558
0.298618
0.298678
0.298737
0.298797
0.298797
0.298857
0.298917
0.298977
0.299038
0.299038
0.299098
0.299158
0.299218
0.299278
0.299278
0.299338
0.299399
0.299459
0.299519
0.299519
0.29958
0.29964
0.299701
0.299761
0.299761
0.299822
0.299882
0.299943
0.300003
0.300003
0.300064
0.300125
0.300185
0.300246
0.300246
0.300307
0.300368
0.300428
0.300489
0.300489
0.30055
0.300611
0.300672
0.300733
0.300733
0.300794
0.300855
0.300916
0.300977
0.300977
0.301039
0.3011
0.301161
0.301222
0.301222
0.301283
0.301345
0.301406
0.301468
0.301468
0.301529
0.30159
0.301652
0.301713
0.301713
0.301775
0.301836
0.301898
0.30196
0.30196
0.302021
0.302083
0.302145
0.302207
0.302207
0.302268
0.30233
0.302392
0.302454
0.302454
0.302516
0.302578
0.30264
0.302702
0.302702
0.302764
0.302826
0.302888
0.30295
0.30295
0.303013
0.303075
0.303137
0.303199
0.303199
0.303262
0.303324
0.303386
0.303449
0.303449
0.303511
0.303574
0.303636
0.303699
0.303699
0.303761
0.303824
0.303887
0.303949
0.303949
0.304012
0.304075
0.304137
0.3042
0.3042
0.304263
0.304326
0.304389
0.304452
0.304452
0.304515
0.304578
0.304641
0.304704
0.304704
0.304767
0.30483
0.304893
0.304956
0.304956
0.30502
0.305083
0.305146
0.305209
0.305209
0.305273
0.305336
0.3054
0.305463
0.305463
0.305526
0.30559
0.305653
0.305717
0.305717
0.305781
0.305844
0.305908
0.305972
0.305972
0.306035
0.306099
0.306163
0.306227
0.306227
0.306291
0.306355
0.306418
0.306482
0.306482
0.306546
0.30661
0.306674
0.306739
0.306739
0.306803
0.306867
0.306931
0.306995
0.306995
0.307059
0.307124
0.307188
0.307252
0.307252
0.307317
0.307381
0.307446
0.30751
0.30751
0.307575
0.307639
0.307704
0.307768
0.307768
0.307833
0.307898
0.307962
0.308027
0.308027
0.308092
0.308157
0.308221
0.308286
0.308286
0.308351
0.308416
0.308481
0.308546
0.308546
0.308611
0.308676
0.308741
0.308806
0.308806
0.308871
0.308937
0.309002
0.309067
0.309067
0.309132
0.309198
0.309263
0.309328
0.309328
0.309394
0.309459
0.309525
0.30959
0.30959
0.309656
0.309721
0.309787
0.309852
0.309852
0.309918
0.309984
0.310049
0.310115
0.310115
0.310181
0.310247
0.310313
0.310379
0.310379
0.310444
0.31051
0.310576
0.310642
0.310642
0.310708
0.310775
0.310841
0.310907
0.310907
0.310973
0.311039
0.311105
0.311172
0.311172
0.311238
0.311304
0.311371
0.311437
0.311437
0.311503
0.31157
0.311636
0.311703
0.311703
0.311769
0.311836
0.311903
0.311969
0.311969
0.312036
0.312103
0.312169
0.312236
0.312236
0.312303
0.31237
0.312437
0.312504
0.312504
0.312571
0.312638
0.312705
0.312772
0.312772
0.312839
0.312906
0.312973
0.31304
0.31304
0.313107
0.313174
0.313242
0.313309
0.313309
0.313376
0.313444
0.313511
0.313578
0.313578
0.313646
0.313713
0.313781
0.313848
0.313848
0.313916
0.313984
0.314051
0.314119
0.314119
0.314187
0.314254
0.314322
0.31439
0.31439
0.314458
0.314526
0.314593
0.314661
0.314661
0.314729
0.314797
0.314865
0.314933
0.314933
0.315001
0.31507
0.315138
0.315206
0.315206
0.315274
0.315342
0.315411
0.315479
0.315479
0.315547
0.315616
0.315684
0.315752
0.315752
0.315821
0.315889
0.315958
0.316026
0.316026
0.316095
0.316164
0.316232
0.316301
0.316301
0.31637
0.316438
0.316507
0.316576
0.316576
0.316645
0.316714
0.316783
0.316852
0.316852
0.316921
0.31699
0.317059
0.317128
0.317128
0.317197
0.317266
0.317335
0.317404
0.317404
0.317473
0.317543
0.317612
0.317681
0.317681
0.317751
0.31782
0.317889
0.317959
0.317959
0.318028
0.318098
0.318167
0.318237
0.318237
0.318307
0.318376
0.318446
0.318516
0.318516
0.318585
0.318655
0.318725
0.318795
0.318795
0.318865
0.318935
0.319004
0.319074
0.319074
0.319144
0.319214
0.319284
0.319355
0.319355
0.319425
0.319495
0.319565
0.319635
0.319635
0.319705
0.319776
0.319846
0.319916
0.319916
0.319987
0.320057
0.320127
0.320198
0.320198
0.320268
0.320339
0.32041
0.32048
0.32048
0.320551
0.320621
0.320692
0.320763
0.320763
0.320834
0.320904
0.320975
0.321046
0.321046
0.321117
0.321188
0.321259
0.32133
0.32133
0.321401
0.321472
0.321543
0.321614
0.321614
0.321685
0.321756
0.321827
0.321898
0.321898
0.32197
0.322041
0.322112
0.322184
0.322184
0.322255
0.322326
0.322398
0.322469
0.322469
0.322541
0.322612
0.322684
0.322756
0.322756
0.322827
0.322899
0.322971
0.323042
0.323042
0.323114
0.323186
0.323258
0.323329
0.323329
0.323401
0.323473
0.323545
0.323617
0.323617
0.323689
0.323761
0.323833
0.323905
0.323905
0.323977
0.32405
0.324122
0.324194
0.324194
0.324266
0.324339
0.324411
0.324483
0.324483
0.324556
0.324628
0.324701
0.324773
0.324773
0.324846
0.324918
0.324991
0.325063
0.325063
0.325136
0.325209
0.325281
0.325354
0.325354
0.325427
0.325499
0.325572
0.325645
0.325645
0.325718
0.325791
0.325864
0.325937
0.325937
0.32601
0.326083
0.326156
0.326229
0.326229
0.326302
0.326375
0.326449
0.326522
0.326522
0.326595
0.326668
0.326742
0.326815
0.326815
0.326889
0.326962
0.327035
0.327109
0.327109
0.327182
0.327256
0.327329
0.327403
0.327403
0.327477
0.32755
0.327624
0.327698
0.327698
0.327772
0.327845
0.327919
0.327993
0.327993
0.328067
0.328141
0.328215
0.328289
0.328289
0.328363
0.328437
0.328511
0.328585
0.328585
0.328659
0.328733
0.328808
0.328882
0.328882
0.328956
0.32903
0.329105
0.329179
0.329179
0.329253
0.329328
0.329402
0.329477
0.329477
0.329551
0.329626
0.3297
0.329775
0.329775
0.32985
0.329924
0.329999
0.330074
0.330074
0.330149
0.330223
0.330298
0.330373
0.330373
0.330448
0.330523
0.330598
0.330673
0.330673
0.330748
0.330823
0.330898
0.330973
0.330973
0.331048
0.331123
0.331199
0.331274
0.331274
0.331349
0.331424
0.3315
0.331575
0.331575
0.33165
0.331726
0.331801
0.331877
0.331877
0.331952
0.332028
0.332103
0.332179
0.332179
0.332255
0.33233
0.332406
0.332482
0.332482
0.332558
0.332633
0.332709
0.332785
0.332785
0.332861
0.332937
0.333013
0.333089
0.333089
0.333165
0.333241
0.333317
0.333393
0.333393
0.333469
0.333545
0.333621
0.333698
0.333698
0.333774
0.33385
0.333927
0.334003
0.334003
0.334079
0.334156
0.334232
0.334309
0.334309
0.334385
0.334462
0.334538
0.334615
0.334615
0.334692
0.334768
0.334845
0.334922
0.334922
0.334998
0.335075
0.335152
0.335229
0.335229
0.335306
0.335383
0.33546
0.335537
0.335537
0.335614
0.335691
0.335768
0.335845
0.335845
0.335922
0.335999
0.336076
0.336154
0.336154
0.336231
0.336308
0.336385
0.336463
0.336463
0.33654
0.336617
0.336695
0.336772
0.336772
0.33685
0.336927
0.337005
0.337083
0.337083
0.33716
0.337238
0.337316
0.337393
0.337393
0.337471
0.337549
0.337627
0.337704
0.337704
0.337782
0.33786
0.337938
0.338016
0.338016
0.338094
0.338172
0.33825
0.338328
0.338328
0.338406
0.338485
0.338563
0.338641
0.338641
0.338719
0.338798
0.338876
0.338954
0.338954
0.339033
0.339111
0.339189
0.339268
0.339268
0.339346
0.339425
0.339503
0.339582
0.339582
0.339661
0.339739
0.339818
0.339897
0.339897
0.339975
0.340054
0.340133
0.340212
0.340212
0.340291
0.34037
0.340448
0.340527
0.340527
0.340606
0.340685
0.340764
0.340844
0.340844
0.340923
0.341002
0.341081
0.34116
0.34116
0.341239
0.341319
0.341398
0.341477
0.341477
0.341557
0.341636
0.341715
0.341795
0.341795
0.341874
0.341954
0.342033
0.342113
0.342113
0.342193
0.342272
0.342352
0.342432
0.342432
0.342511
0.342591
0.342671
0.342751
0.342751
0.342831
0.34291
0.34299
0.34307
0.34307
0.34315
0.34323
0.34331
0.34339
0.34339
0.34347
0.343551
0.343631
0.343711
0.343711
0.343791
0.343871
0.343952
0.344032
0.344032
0.344112
0.344193
0.344273
0.344354
0.344354
0.344434
0.344514
0.344595
0.344676
0.344676
0.344756
0.344837
0.344917
0.344998
0.344998
0.345079
0.34516
0.34524
0.345321
0.345321
0.345402
0.345483
0.345564
0.345645
0.345645
0.345726
0.345807
0.345888
0.345969
0.345969
0.34605
0.346131
0.346212
0.346293
0.346293
0.346374
0.346456
0.346537
0.346618
0.346618
0.346699
0.346781
0.346862
0.346944
0.346944
0.347025
0.347106
0.347188
0.347269
0.347269
0.347351
0.347433
0.347514
0.347596
0.347596
0.347678
0.347759
0.347841
0.347923
0.347923
0.348005
0.348087
0.348168
0.34825
0.34825
0.348332
0.348414
0.348496
0.348578
0.348578
0.34866
0.348742
0.348824
0.348907
0.348907
0.348989
0.349071
0.349153
0.349235
0.349235
0.349318
0.3494
0.349482
0.349565
0.349565
0.349647
0.34973
0.349812
0.349895
0.349895
0.349977
0.35006
0.350142
0.350225
0.350225
0.350308
0.35039
0.350473
0.350556
0.350556
0.350639
0.350722
0.350804
0.350887
0.350887
0.35097
0.351053
0.351136
0.351219
0.351219
0.351302
0.351385
0.351468
0.351551
0.351551
0.351635
0.351718
0.351801
0.351884
0.351884
0.351967
0.352051
0.352134
0.352217
0.352217
0.352301
0.352384
0.352468
0.352551
0.352551
0.352635
0.352718
0.352802
0.352885
0.352885
0.352969
0.353053
0.353136
0.35322
0.35322
0.353304
0.353388
0.353472
0.353555
0.353555
0.353639
0.353723
0.353807
0.353891
0.353891
0.353975
0.354059
0.354143
0.354227
0.354227
0.354311
0.354396
0.35448
0.354564
0.354564
0.354648
0.354732
0.354817
0.354901
0.354901
0.354985
0.35507
0.355154
0.355239
0.355239
0.355323
0.355408
0.355492
0.355577
0.355577
0.355661
0.355746
0.355831
0.355915
0.355915
0.356
0.356085
0.35617
0.356255
0.356255
0.356339
0.356424
0.356509
0.356594
0.356594
0.356679
0.356764
0.356849
0.356934
0.356934
0.357019
0.357104
0.35719
0.357275
0.357275
0.35736
0.357445
0.35753
0.357616
0.357616
0.357701
0.357786
0.357872
0.357957
0.357957
0.358043
0.358128
0.358214
0.358299
0.358299
0.358385
0.35847
0.358556
0.358642
0.358642
0.358727
0.358813
0.358899
0.358985
0.358985
0.35907
0.359156
0.359242
0.359328
0.359328
0.359414
0.3595
0.359586
0.359672
0.359672
0.359758
0.359844
0.35993
0.360016
0.360016
0.360103
0.360189
0.360275
0.360361
0.360361
0.360448
0.360534
0.36062
0.360707
0.360707
0.360793
0.360879
0.360966
0.361052
0.361052
0.361139
0.361226
0.361312
0.361399
0.361399
0.361485
0.361572
0.361659
0.361746
0.361746
0.361832
0.361919
0.362006
0.362093
0.362093
0.36218
0.362267
0.362354
0.362441
0.362441
0.362528
0.362615
0.362702
0.362789
0.362789
0.362876
0.362963
0.36305
0.363138
0.363138
0.363225
0.363312
0.363399
0.363487
0.363487
0.363574
0.363662
0.363749
0.363836
0.363836
0.363924
0.364011
0.364099
0.364187
0.364187
0.364274
0.364362
0.364449
0.364537
0.364537