<?xml version="1.0"?>
<VTKFile type="UnstructuredGrid" version="0.1" byte_order="LittleEndian">
<UnstructuredGrid>
<Piece NumberOfPoints="5000" NumberOfCells="4000">
<PointData Scalars="Reaction 0">
<DataArray type="Float32" Name="Reaction 0" format="ascii">
0.640971
0.640971
0.640971
0.640971
0.640971
0.640971
0.640971
0.640971
0.640971
0.640971
0.640971
0.640972
0.640972
0.640972
0.640972
0.640972
0.640972
0.640973
0.640973
0.640973
0.640973
0.640973
0.640974
0.640974
0.640974
0.640974
0.640974
0.640975
0.640975
0.640976
0.640976
0.640976
0.640976
0.640977
0.640977
0.640977
0.640978
0.640978
0.640979
0.640979
0.640979
0.64098
0.64098
0.640981
0.640981
0.640981
0.640982
0.640983
0.640983
0.640984
0.640984
0.640984
0.640985
0.640986
0.640986
0.640986
0.640987
0.640988
0.640989
0.640989
0.640989
0.64099
0.640991
0.640992
0.640993
0.640993
0.640993
0.640994
0.640995
0.640996
0.640996
0.640997
0.640998
0.640999
0.641
0.641
0.641001
0.641002
0.641003
0.641004
0.641004
0.641005
0.641006
0.641007
0.641008
0.641008
0.641009
0.64101
0.641011
0.641012
0.641012
0.641014
0.641015
0.641016
0.641017
0.641017
0.641018
0.64102
0.641021
0.641022
0.641022
0.641024
0.641025
0.641026
0.641027
0.641027
0.641029
0.64103
0.641032
0.641033
0.641033
0.641034
0.641036
0.641037
0.641039
0.641039
0.64104
0.641042
0.641043
0.641045
0.641045
0.641046
0.641048
0.641049
0.641051
0.641051
0.641053
0.641054
0.641056
0.641058
0.641058
0.641059
0.641061
0.641063
0.641064
0.641064
0.641066
0.641068
0.64107
0.641071
0.641071
0.641073
0.641075
0.641077
0.641079
0.641079
0.641081
0.641083
0.641084
0.641086
0.641086
0.641088
0.64109
0.641092
0.641094
0.641094
0.641096
0.641098
0.6411
0.641102
0.641102
0.641104
0.641106
0.641108
0.641111
0.641111
0.641113
0.641115
0.641117
0.641119
0.641119
0.641121
0.641124
0.641126
0.641128
0.641128
0.64113
0.641133
0.641135
0.641137
0.641137
0.641139
0.641142
0.641144
0.641146
0.641146
0.641149
0.641151
0.641154
0.641156
0.641156
0.641158
0.641161
0.641163
0.641166
0.641166
0.641168
0.641171
0.641173
0.641176
0.641176
0.641179
0.641181
0.641184
0.641186
0.641186
0.641189
0.641192
0.641194
0.641197
0.641197
0.6412
0.641202
0.641205
0.641208
0.641208
0.641211
0.641213
0.641216
0.641219
0.641219
0.641222
0.641225
0.641228
0.64123
0.64123
0.641233
0.641236
0.641239
0.641242
0.641242
0.641245
0.641248
0.641251
0.641254
0.641254
0.641257
0.64126
0.641263
0.641266
0.641266
0.641269
0.641272
0.641276
0.641279
0.641279
0.641282
0.641285
0.641288
0.641291
0.641291
0.641295
0.641298
0.641301
0.641304
0.641304
0.641308
0.641311
0.641314
0.641317
0.641317
0.641321
0.641324
0.641328
0.641331
0.641331
0.641334
0.641338
0.641341
0.641345
0.641345
0.641348
0.641352
0.641355
0.641359
0.641359
0.641362
0.641366
0.641369
0.641373
0.641373
0.641376
0.64138
0.641384
0.641387
0.641387
0.641391
0.641395
0.641398
0.641402
0.641402
0.641406
0.641409
0.641413
0.641417
0.641417
0.641421
0.641425
0.641428
0.641432
0.641432
0.641436
0.64144
0.641444
0.641448
0.641448
0.641452
0.641456
0.64146
0.641463
0.641463
0.641467
0.641471
0.641475
0.641479
0.641479
0.641484
0.641488
0.641492
0.641496
0.641496
0.6415
0.641504
0.641508
0.641512
0.641512
0.641516
0.641521
0.641525
0.641529
0.641529
0.641533
0.641537
0.641542
0.641546
0.641546
0.64155
0.641555
0.641559
0.641563
0.641563
0.641568
0.641572
0.641576
0.641581
0.641581
0.641585
0.64159
0.641594
0.641599
0.641599
0.641603
0.641608
0.641612
0.641617
0.641617
0.641621
0.641626
0.64163
0.641635
0.641635
0.64164
0.641644
0.641649
0.641654
0.641654
0.641658
0.641663
0.641668
0.641672
0.641672
0.641677
0.641682
0.641687
0.641691
0.641691
0.641696
0.641701
0.641706
0.641711
0.641711
0.641716
0.641721
0.641725
0.64173
0.64173
0.641735
0.64174
0.641745
0.64175
0.64175
0.641755
0.64176
0.641765
0.64177
0.64177
0.641775
0.64178
0.641785
0.641791
0.641791
0.641796
0.641801
0.641806
0.641811
0.641811
0.641816
0.641822
0.641827
0.641832
0.641832
0.641837
0.641843
0.641848
0.641853
0.641853
0.641858
0.641864
0.641869
0.641874
0.641874
0.64188
0.641885
0.641891
0.641896
0.641896
0.641902
0.641907
0.641912
0.641918
0.641918
0.641923
0.641929
0.641935
0.64194
0.64194
0.641946
0.641951
0.641957
0.641962
0.641962
0.641968
0.641974
0.641979
0.641985
0.641985
0.641991
0.641997
0.642002
0.642008
0.642008
0.642014
0.64202
0.642025
0.642031
0.642031
0.642037
0.642043
0.642049
0.642055
0.642055
0.64206
0.642066
0.642072
0.642078
0.642078
0.642084
0.64209
0.642096
0.642102
0.642102
0.642108
0.642114
0.64212
0.642126
0.642126
0.642132
0.642138
0.642145
0.642151
0.642151
0.642157
0.642163
0.642169
0.642175
0.642175
0.642182
0.642188
0.642194
0.6422
0.6422
0.642206
0.642213
0.642219
0.642225
0.642225
0.642232
0.642238
0.642244
0.642251
0.642251
0.642257
0.642264
0.64227
0.642276
0.642276
0.642283
0.642289
0.642296
0.642302
0.642302
0.642309
0.642315
0.642322
0.642329
0.642329
0.642335
0.642342
0.642348
0.642355
0.642355
0.642362
0.642368
0.642375
0.642382
0.642382
0.642388
0.642395
0.642402
0.642409
0.642409
0.642415
0.642422
0.642429
0.642436
0.642436
0.642443
0.64245
0.642456
0.642463
0.642463
0.64247
0.642477
0.642484
0.642491
0.642491
0.642498
0.642505
0.642512
0.642519
0.642519
0.642526
0.642533
0.64254
0.642547
0.642547
0.642554
0.642561
0.642569
0.642576
0.642576
0.642583
0.64259
0.642597
0.642604
0.642604
0.642612
0.642619
0.642626
0.642633
0.642633
0.642641
0.642648
0.642655
0.642663
0.642663
0.64267
0.642677
0.642685
0.642692
0.642692
0.642699
0.642707
0.642714
0.642722
0.642722
0.642729
0.642737
0.642744
0.642752
0.642752
0.642759
0.642767
0.642774
0.642782
0.642782
0.64279
0.642797
0.642805
0.642813
0.642813
0.64282
0.642828
0.642836
0.642843
0.642843
0.642851
0.642859
0.642866
0.642874
0.642874
0.642882
0.64289
0.642898
0.642906
0.642906
0.642913
0.642921
0.642929
0.642937
0.642937
0.642945
0.642953
0.642961
0.642969
0.642969
0.642977
0.642985
0.642993
0.643001
0.643001
0.643009
0.643017
0.643025
0.643033
0.643033
0.643041
0.643049
0.643057
0.643066
0.643066
0.643074
0.643082
0.64309
0.643098
0.643098
0.643107
0.643115
0.643123
0.643131
0.643131
0.64314
0.643148
0.643156
0.643165
0.643165
0.643173
0.643181
0.64319
0.643198
0.643198
0.643206
0.643215
0.643223
0.643232
0.643232
0.64324
0.643249
0.643257
0.643266
0.643266
0.643274
0.643283
0.643292
0.6433
0.6433
0.643309
0.643317
0.643326
0.643335
0.643335
0.643343
0.643352
0.643361
0.643369
0.643369
0.643378
0.643387
0.643396
0.643404
0.643404
0.643413
0.643422
0.643431
0.64344
0.64344
0.643449
0.643457
0.643466
0.643475
0.643475
0.643484
0.643493
0.643502
0.643511
0.643511
0.64352
0.643529
0.643538
0.643547
0.643547
0.643556
0.643565
0.643574
0.643583
0.643583
0.643592
0.643602
0.643611
0.64362
0.64362
0.643629
0.643638
0.643647
0.643657
0.643657
0.643666
0.643675
0.643684
0.643694
0.643694
0.643703
0.643712
0.643722
0.643731
0.643731
0.64374
0.64375
0.643759
0.643769
0.643769
0.643778
0.643787
0.643797
0.643806
0.643806
0.643816
0.643825
0.643835
0.643844
0.643844
0.643854
0.643863
0.643873
0.643883
0.643883
0.643892
0.643902
0.643912
0.643921
0.643921
0.643931
0.643941
0.64395
0.64396
0.64396
0.64397
0.643979
0.643989
0.643999
0.643999
0.644009
0.644019
0.644028
0.644038
0.644038
0.644048
0.644058
0.644068
0.644078
0.644078
0.644088
0.644098
0.644108
0.644118
0.644118
0.644128
0.644138
0.644148
0.644158
0.644158
0.644168
0.644178
0.644188
0.644198
0.644198
0.644208
0.644218
0.644228
0.644238
0.644238
0.644249
0.644259
0.644269
0.644279
0.644279
0.644289
0.6443
0.64431
0.64432
0.64432
0.644331
0.644341
0.644351
0.644362
0.644362
0.644372
0.644382
0.644393
0.644403
0.644403
0.644414
0.644424
0.644434
0.644445
0.644445
0.644455
0.644466
0.644476
0.644487
0.644487
0.644497
0.644508
0.644519
0.644529
0.644529
0.64454
0.64455
0.644561
0.644572
0.644572
0.644582
0.644593
0.644604
0.644615
0.644615
0.644625
0.644636
0.644647
0.644658
0.644658
0.644668
0.644679
0.64469
0.644701
0.644701
0.644712
0.644723
0.644733
0.644744
0.644744
0.644755
0.644766
0.644777
0.644788
0.644788
0.644799
0.64481
0.644821
0.644832
0.644832
0.644843
0.644854
0.644865
0.644876
0.644876
0.644888
0.644899
0.64491
0.644921
0.644921
0.644932
0.644943
0.644954
0.644966
0.644966
0.644977
0.644988
0.644999
0.645011
0.645011
0.645022
0.645033
0.645045
0.645056
0.645056
0.645067
0.645079
0.64509
0.645101
0.645101
0.645113
0.645124
0.645136
0.645147
0.645147
0.645159
0.64517
0.645182
0.645193
0.645193
0.645205
0.645216
0.645228
0.64524
0.64524
0.645251
0.645263
0.645274
0.645286
0.645286
0.645298
0.645309
0.645321
0.645333
0.645333
0.645344
0.645356
0.645368
0.64538
0.64538
0.645392
0.645403
0.645415
0.645427
0.645427
0.645439
0.645451
0.645463
0.645474
0.645474
0.645486
0.645498
0.64551
0.645522
0.645522
0.645534
0.645546
0.645558
0.64557
0.64557
0.645582
0.645594
0.645606
0.645618
0.645618
0.645631
0.645643
0.645655
0.645667
0.645667
0.645679
0.645691
0.645703
0.645716
0.645716
0.645728
0.64574
0.645752
0.645765
0.645765
0.645777
0.645789
0.645802
0.645814
0.645814
0.645826
0.645839
0.645851
0.645863
0.645863
0.645876
0.645888
0.645901
0.645913
0.645913
0.645925
0.645938
0.64595
0.645963
0.645963
0.645976
0.645988
0.646001
0.646013
0.646013
0.646026
0.646038
0.646051
0.646064
0.646064
0.646076
0.646089
0.646102
0.646114
0.646114
0.646127
0.64614
0.646153
0.646165
0.646165
0.646178
0.646191
0.646204
0.646216
0.646216
0.646229
0.646242
0.646255
0.646268
0.646268
0.646281
0.646294
0.646307
0.64632
0.64632
0.646333
0.646345
0.646358
0.646371
0.646371
0.646385
0.646398
0.646411
0.646424
0.646424
0.646437
0.64645
0.646463
0.646476
0.646476
0.646489
0.646502
0.646516
0.646529
0.646529
0.646542
0.646555
0.646568
0.646582
0.646582
0.646595
0.646608
0.646621
0.646635
0.646635
0.646648
0.646661
0.646675
0.646688
0.646688
0.646702
0.646715
0.646728
0.646742
0.646742
0.646755
0.646769
0.646782
0.646796
0.646796
0.646809
0.646823
0.646836
0.64685
0.64685
0.646863
0.646877
0.646891
0.646904
0.646904
0.646918
0.646931
0.646945
0.646959
0.646959
0.646972
0.646986
0.647
0.647014
0.647014
0.647027
0.647041
0.647055
0.647069
0.647069
0.647083
0.647096
0.64711
0.647124
0.647124
0.647138
0.647152
0.647166
0.64718
0.64718
0.647194
0.647208
0.647222
0.647236
0.647236
0.64725
0.647264
0.647278
0.647292
0.647292
0.647306
0.64732
0.647334
0.647348
0.647348
0.647362
0.647376
0.64739
0.647404
0.647404
0.647419
0.647433
0.647447
0.647461
0.647461
0.647476
0.64749
0.647504
0.647518
0.647518
0.647533
0.647547
0.647561
0.647576
0.647576
0.64759
0.647604
0.647619
0.647633
0.647633
0.647648
0.647662
0.647676
0.647691
0.647691
0.647705
0.64772
0.647734
0.647749
0.647749
0.647763
0.647777
0.647792
0.647806
0.647806
0.647821
0.647835
0.647849
0.647864
0.647864
0.647878
0.647892
0.647906
0.647921
0.647921
0.647935
0.647949
0.647963
0.647977
0.647977
0.647991
0.648005
0.648019
0.648033
0.648033
0.648047
0.648061
0.648075
0.648089
0.648089
0.648103
0.648117
0.648131
0.648145
0.648145
0.648159
0.648173
0.648186
0.6482
0.6482
0.648214
0.648228
0.648242
0.648256
0.648256
0.648271
0.648285
0.648299
0.648313
0.648313
0.648327
0.648341
0.648355
0.648369
0.648369
0.648383
0.648398
0.648412
0.648426
0.648426
0.64844
0.648454
0.648469
0.648483
0.648483
0.648497
0.648511
0.648526
0.64854
0.64854
0.648554
0.648569
0.648583
0.648597
0.648597
0.648612
0.648626
0.64864
0.648655
0.648655
0.648669
0.648684
0.648698
0.648713
0.648713
0.648727
0.648742
0.648756
0.648771
0.648771
0.648785
0.6488
0.648814
0.648829
0.648829
0.648844
0.648858
0.648873
0.648887
0.648887
0.648902
0.648917
0.648931
0.648946
0.648946
0.648961
0.648976
0.64899
0.649005
0.649005
0.64902
0.649035
0.649049
0.649064
0.649064
0.649079
0.649094
0.649109
0.649124
0.649124
0.649138
0.649153
0.649168
0.649183
0.649183
0.649198
0.649213
0.649228
0.649243
0.649243
0.649258
0.649273
0.649288
0.649303
0.649303
0.649318
0.649333
0.649348
0.649363
0.649363
0.649378
0.649393
0.649409
0.649424
0.649424
0.649439
0.649454
0.649469
0.649484
0.649484
0.6495
0.649515
0.64953
0.649545
0.649545
0.649561
0.649576
0.649591
0.649606
0.649606
0.649622
0.649637
0.649652
0.649668
0.649668
0.649683
0.649699
0.649714
0.649729
0.649729
0.649745
0.64976
0.649776
0.649791
0.649791
0.649807
0.649822
0.649838
0.649853
0.649853
0.649869
0.649884
0.6499
0.649915
0.649915
0.649931
0.649947
0.649962
0.649978
0.649978
0.649994
0.650009
0.650025
0.650041
0.650041
0.650056
0.650072
0.650088
0.650103
0.650103
0.650119
0.650135
0.650151
0.650167
0.650167
0.650182
0.650198
0.650214
0.65023
0.65023
0.650246
0.650262
0.650278
0.650294
0.650294
0.650309
0.650325
0.650341
0.650357
0.650357
0.650373
0.650389
0.650405
0.650421
0.650421
0.650437
0.650453
0.650469
0.650486
0.650486
0.650502
0.650518
0.650534
0.65055
0.65055
0.650566
0.650582
0.650598
0.650615
0.650615
0.650631
0.650647
0.650663
0.65068
0.65068
0.650696
0.650712
0.650728
0.650745
0.650745
0.650761
0.650777
0.650794
0.65081
0.65081
0.650826
0.650843
0.650859
0.650876
0.650876
0.650892
0.650908
0.650925
0.650941
0.650941
0.650958
0.650974
0.650991
0.651007
0.651007
0.651024
0.65104
0.651057
0.651073
0.651073
0.65109
0.651107
0.651123
0.65114
0.65114
0.651157
0.651173
0.65119
0.651207
0.651207
0.651223
0.65124
0.651257
0.651273
0.651273
0.65129
0.651307
0.651324
0.65134
0.65134
0.651357
0.651374
0.651391
0.651408
0.651408
0.651425
0.651441
0.651458
0.651475
0.651475
0.651492
0.651509
0.651526
0.651543
0.651543
0.65156
0.651577
0.651594
0.651611
0.651611
0.651628
0.651645
0.651662
0.651679
0.651679
0.651696
0.651713
0.65173
0.651747
0.651747
0.651765
0.651782
0.651799
0.651816
0.651816
0.651833
0.65185
0.651868
0.651885
0.651885
0.651902
0.651919
0.651937
0.651954
0.651954
0.651971
0.651989
0.652006
0.652023
0.652023
0.652041
0.652058
0.652075
0.652093
0.652093
0.65211
0.652127
0.652145
0.652162
0.652162
0.65218
0.652197
0.652215
0.652232
0.652232
0.65225
0.652267
0.652285
0.652302
0.652302
0.65232
0.652337
0.652355
0.652373
0.652373
0.65239
0.652408
0.652426
0.652443
0.652443
0.652461
0.652479
0.652496
0.652514
0.652514
0.652532
0.652549
0.652567
0.652585
0.652585
0.652603
0.652621
0.652638
0.652656
0.652656
0.652674
0.652692
0.65271
0.652728
0.652728
0.652745
0.652763
0.652781
0.652799
0.652799
0.652817
0.652835
0.652853
0.652871
0.652871
0.652889
0.652907
0.652925
0.652943
0.652943
0.652961
0.652979
0.652997
0.653015
0.653015
0.653033
0.653052
0.65307
0.653088
0.653088
0.653106
0.653124
0.653142
0.653161
0.653161
0.653179
0.653197
0.653215
0.653233
0.653233
0.653252
0.65327
0.653288
0.653307
0.653307
0.653325
0.653343
0.653362
0.65338
0.65338
0.653398
0.653417
0.653435
0.653453
0.653453
0.653472
0.65349
0.653509
0.653527
0.653527
0.653546
0.653564
0.653583
0.653601
0.653601
0.65362
0.653638
0.653657
0.653675
0.653675
0.653694
0.653713
0.653731
0.65375
0.65375
0.653768
0.653787
0.653806
0.653824
0.653824
0.653843
0.653862
0.653881
0.653899
0.653899
0.653918
0.653937
0.653956
0.653974
0.653974
0.653993
0.654012
0.654031
0.65405
0.65405
0.654068
0.654087
0.654106
0.654125
0.654125
0.654144
0.654163
0.654182
0.654201
0.654201
0.65422
0.654239
0.654258
0.654277
0.654277
0.654296
0.654315
0.654334
0.654353
0.654353
0.654372
0.654391
0.65441
0.654429
0.654429
0.654448
0.654467
0.654487
0.654506
0.654506
0.654525
0.654544
0.654563
0.654582
0.654582
0.654602
0.654621
0.65464
0.654659
0.654659
0.654679
0.654698
0.654717
0.654737
0.654737
0.654756
0.654775
0.654795
0.654814
0.654814
0.654833
0.654853
0.654872
0.654892
0.654892
0.654911
0.65493
0.65495
0.654969
0.654969
0.654989
0.655008
0.655028
0.655047
0.655047
0.655067
0.655086
0.655106
0.655126
0.655126
0.655145
0.655165
0.655184
0.655204
0.655204
0.655224
0.655243
0.655263
0.655283
0.655283
0.655302
0.655322
0.655342
0.655362
0.655362
0.655381
0.655401
0.655421
0.655441
0.655441
0.65546
0.65548
0.6555
0.65552
0.65552
0.65554
0.65556
0.65558
0.655599
0.655599
0.655619
0.655639
0.655659
0.655679
0.655679
0.655699
0.655719
0.655739
0.655759
0.655759
0.655779
0.655799
0.655819
0.655839
0.655839
0.655859
0.655879
0.655899
0.655919
0.655919
0.65594
0.65596
0.65598
0.656
0.656
0.65602
0.65604
0.656061
0.656081
0.656081
0.656101
0.656121
0.656141
0.656162
0.656162
0.656182
0.656202
0.656223
0.656243
0.656243
0.656263
0.656284
0.656304
0.656324
0.656324
0.656345
0.656365
0.656385
0.656406
0.656406
0.656426
0.656447
0.656467
0.656488
0.656488
0.656508
0.656529
0.656549
0.65657
0.65657
0.65659
0.656611
0.656631
0.656652
0.656652
0.656672
0.656693
0.656714
0.656734
0.656734
0.656755
0.656775
0.656796
0.656817
0.656817
0.656837
0.656858
0.656879
0.656899
0.656899
0.65692
0.656941
0.656961
0.656982
0.656982
0.657003
0.657023
0.657044
0.657064
0.657064
0.657085
0.657105
0.657126
0.657146
0.657146
0.657167
0.657187
0.657207
0.657227
0.657227
0.657247
0.657268
0.657288
0.657308
0.657308
0.657328
0.657348
0.657367
0.657387
0.657387
0.657407
0.657427
0.657447
0.657466
0.657466
0.657486
0.657506
0.657525
0.657545
0.657545
0.657565
0.657585
0.657604
0.657624
0.657624
0.657644
0.657663
0.657683
0.657703
0.657703
0.657723
0.657742
0.657762
0.657782
0.657782
0.657802
0.657821
0.657841
0.657861
0.657861
0.657881
0.657901
0.65792
0.65794
0.65794
0.65796
0.65798
0.658
0.65802
0.65802
0.65804
0.65806
0.65808
0.6581
0.6581
0.65812
0.65814
0.65816
0.65818
0.65818
0.6582
0.65822
0.65824
0.65826
0.65826
0.65828
0.6583
0.65832
0.65834
0.65834
0.65836
0.65838
0.6584
0.65842
0.65842
0.658441
0.658461
0.658481
0.658501
0.658501
0.658521
0.658542
0.658562
0.658582
0.658582
0.658602
0.658623
0.658643
0.658663
0.658663
0.658683
0.658704
0.658724
0.658744
0.658744
0.658765
0.658785
0.658805
0.658826
0.658826
0.658846
0.658867
0.658887
0.658907
0.658907
0.658928
0.658948
0.658969
0.658989
0.658989
0.65901
0.65903
0.659051
0.659071
0.659071
0.659092
0.659112
0.659133
0.659153
0.659153
0.659174
0.659195
0.659215
0.659236
0.659236
0.659257
0.659277
0.659298
0.659318
0.659318
0.659339
0.65936
0.659381
0.659401
0.659401
0.659422
0.659443
0.659463
0.659484
0.659484
0.659505
0.659526
0.659547
0.659567
0.659567
0.659588
0.659609
0.65963
0.659651
0.659651
0.659671
0.659692
0.659713
0.659734
0.659734
0.659755
0.659776
0.659797
0.659818
0.659818
0.659839
0.65986
0.659881
0.659902
0.659902
0.659923
0.659944
0.659965
0.659986
0.659986
0.660007
0.660028
0.660049
0.66007
0.66007
0.660091
0.660112
0.660133
0.660154
0.660154
0.660176
0.660197
0.660218
0.660239
0.660239
0.66026
0.660282
0.660303
0.660324
0.660324
0.660345
0.660366
0.660388
0.660409
0.660409
0.66043
0.660452
0.660473
0.660494
0.660494
0.660515
0.660537
0.660558
0.660579
0.660579
0.660601
0.660622
0.660644
0.660665
0.660665
0.660686
0.660708
0.660729
0.660751
0.660751
0.660772
0.660794
0.660815
0.660837
0.660837
0.660858
0.66088
0.660901
0.660923
0.660923
0.660944
0.660966
0.660988
0.661009
0.661009
0.661031
0.661052
0.661074
0.661096
0.661096
0.661117
0.661139
0.661161
0.661182
0.661182
0.661204
0.661226
0.661247
0.661269
0.661269
0.661291
0.661313
0.661334
0.661356
0.661356
0.661378
0.6614
0.661422
0.661443
0.661443
0.661465
0.661487
0.661509
0.661531
0.661531
0.661553
0.661575
0.661596
0.661618
0.661618
0.66164
0.661662
0.661684
0.661706
0.661706
0.661728
0.66175
0.661772
0.661794
0.661794
0.661816
0.661838
0.66186
0.661882
0.661882
0.661904
0.661926
0.661948
0.661971
0.661971
0.661993
0.662015
0.662037
0.662059
0.662059
0.662081
0.662103
0.662126
0.662148
0.662148
0.66217
0.662192
0.662214
0.662237
0.662237
0.662259
0.662281
0.662303
0.662326
0.662326
0.662348
0.66237
0.662393
0.662415
0.662415
0.662437
0.66246
0.662482
0.662504
0.662504
0.662527
0.662549
0.662571
0.662594
0.662594
0.662616
0.662639
0.662661
0.662684
0.662684
0.662706
0.662729
0.662751
0.662774
0.662774
0.662796
0.662819
0.662841
0.662864
0.662864
0.662886
0.662909
0.662932
0.662954
0.662954
0.662977
0.662999
0.663022
0.663045
0.663045
0.663067
0.66309
0.663113
0.663135
0.663135
0.663158
0.663181
0.663203
0.663226
0.663226
0.663249
0.663272
0.663294
0.663317
0.663317
0.66334
0.663363
0.663386
0.663408
0.663408
0.663431
0.663454
0.663477
0.6635
0.6635
0.663523
0.663546
0.663569
0.663591
0.663591
0.663614
0.663637
0.66366
0.663683
0.663683
0.663706
0.663729
0.663752
0.663775
0.663775
0.663798
0.663821
0.663844
0.663867
0.663867
0.66389
0.663913
0.663937
0.66396
0.66396
0.663983
0.664006
0.664029
0.664052
0.664052
0.664075
0.664098
0.664122
0.664145
0.664145
0.664168
0.664191
0.664214
0.664238
0.664238
0.664261
0.664284
0.664307
0.664331
0.664331
0.664354
0.664377
0.664401
0.664424
0.664424
0.664447
0.664471
0.664494
0.664517
0.664517
0.664541
0.664564
0.664587
0.664611
0.664611
0.664634
0.664658
0.664681
0.664705
0.664705
0.664728
0.664751
0.664775
0.664798
0.664798
0.664822
0.664845
0.664869
0.664893
0.664893
0.664916
0.66494
0.664963
0.664987
0.664987
0.66501
0.665034
0.665058
0.665081
0.665081
0.665105
0.665128
0.665152
0.665176
0.665176
0.665199
0.665223
0.665246
0.66527
0.66527
0.665293
0.665317
0.66534
0.665364
0.665364
0.665387
0.665411
0.665434
0.665457
0.665457
0.66548
0.665504
0.665527
0.66555
0.66555
0.665573
0.665596
0.665619
0.665642
0.665642
0.665664
0.665687
0.66571
0.665732
0.665732
0.665755
0.665777
0.6658
0.665822
0.665822
0.665845
0.665867
0.66589
0.665912
0.665912
0.665934
0.665957
0.665979
0.666001
0.666001
0.666024
0.666046
0.666068
0.666091
0.666091
0.666113
0.666135
0.666158
0.66618
0.66618
0.666202
0.666225
0.666247
0.66627
0.66627
0.666292
0.666314
0.666337
0.666359
0.666359
0.666382
0.666404
0.666427
0.666449
0.666449
0.666472
0.666494
0.666517
0.666539
0.666539
0.666562
0.666584
0.666607
0.666629
0.666629
0.666652
0.666674
0.666697
0.66672
0.66672
0.666742
0.666765
0.666788
0.66681
0.66681
0.666833
0.666855
0.666878
0.666901
0.666901
0.666924
0.666946
0.666969
0.666992
0.666992
0.667014
0.667037
0.66706
0.667083
0.667083
0.667105
0.667128
0.667151
0.667174
0.667174
0.667197
0.667219
0.667242
0.667265
0.667265
0.667288
0.667311
0.667334
0.667357
0.667357
0.667379
0.667402
0.667425
0.667448
0.667448
0.667471
0.667494
0.667517
0.66754
0.66754
0.667563
0.667586
0.667609
0.667632
0.667632
0.667655
0.667678
0.667701
0.667724
0.667724
0.667747
0.66777
0.667793
0.667816
0.667816
0.667839
0.667862
0.667886
0.667909
0.667909
0.667932
0.667955
0.667978
0.668001
0.668001
0.668024
0.668048
0.668071
0.668094
0.668094
0.668117
0.66814
0.668164
0.668187
0.668187
0.66821
0.668233
0.668257
0.66828
0.66828
0.668303
0.668326
0.66835
0.668373
0.668373
0.668396
0.66842
0.668443
0.668467
0.668467
0.66849
0.668513
0.668537
0.66856
0.66856
0.668583
0.668607
0.66863
0.668654
0.668654
0.668677
0.668701
0.668724
0.668748
0.668748
0.668771
0.668795
0.668818
0.668842
0.668842
0.668865
0.668889
0.668912
0.668936
0.668936
0.668959
0.668983
0.669006
0.66903
0.66903
0.669054
0.669077
0.669101
0.669125
0.669125
0.669148
0.669172
0.669196
0.669219
0.669219
0.669243
0.669267
0.66929
0.669314
0.669314
0.669338
0.669361
0.669385
0.669409
0.669409
0.669433
0.669457
0.66948
0.669504
0.669504
0.669528
0.669552
0.669576
0.669599
0.669599
0.669623
0.669647
0.669671
0.669695
0.669695
0.669719
0.669743
0.669766
0.66979
0.66979
0.669814
0.669838
0.669862
0.669886
0.669886
0.66991
0.669934
0.669958
0.669982
0.669982
0.670006
0.67003
0.670054
0.670078
0.670078
0.670102
0.670126
0.67015
0.670174
0.670174
0.670198
0.670222
0.670247
0.670271
0.670271
0.670295
0.670319
0.670343
0.670367
0.670367
0.670391
0.670415
0.67044
0.670464
0.670464
0.670488
0.670512
0.670536
0.670561
0.670561
0.670585
0.670609
0.670633
0.670658
0.670658
0.670682
0.670706
0.670731
0.670755
0.670755
0.670779
0.670803
0.670828
0.670852
0.670852
0.670876
0.670901
0.670925
0.67095
0.67095
0.670974
0.670998
0.671023
0.671047
0.671047
0.671072
0.671096
0.671121
0.671145
0.671145
0.671169
0.671194
0.671218
0.671243
0.671243
0.671267
0.671292
0.671316
0.671341
0.671341
0.671366
0.67139
0.671415
0.671439
0.671439
0.671464
0.671488
0.671513
0.671538
0.671538
0.671562
0.671587
0.671611
0.671636
0.671636
0.671661
0.671685
0.67171
0.671735
0.671735
0.67176
0.671784
0.671809
0.671834
0.671834
0.671858
0.671883
0.671908
0.671933
0.671933
0.671957
0.671982
0.672007
0.672032
0.672032
0.672057
0.672081
0.672106
0.672131
0.672131
0.672156
0.672181
0.672206
0.672231
0.672231
0.672255
0.67228
0.672305
0.67233
0.67233
0.672355
0.67238
0.672405
0.67243
0.67243
0.672455
0.67248
0.672505
0.67253
0.67253
0.672555
0.672579
0.672604
0.672629
0.672629
0.672654
0.672679
0.672704
0.672729
0.672729
0.672753
0.672778
0.672803
0.672828
0.672828
0.672852
0.672877
0.672901
0.672926
0.672926
0.67295
0.672974
0.672999
0.673023
0.673023
0.673047
0.673071
0.673095
0.673119
0.673119
0.673143
0.673167
0.673191
0.673214
0.673214
0.673238
0.673262
0.673285
0.673309
0.673309
0.673332
0.673356
0.67338
0.673403
0.673403
0.673426
0.67345
0.673473
0.673497
0.673497
0.67352
0.673544
0.673567
0.673591
0.673591
0.673614
0.673638
0.673661
0.673685
0.673685
0.673708
0.673732
0.673755
0.673779
0.673779
0.673802
0.673826
0.673849
0.673873
0.673873
0.673896
0.67392
0.673943
0.673967
0.673967
0.673991
0.674014
0.674038
0.674061
0.674061
0.674085
0.674109
0.674132
0.674156
0.674156
0.67418
0.674203
0.674227
0.674251
0.674251
0.674274
0.674298
0.674322
0.674345
0.674345
0.674369
0.674393
0.674417
0.67444
0.67444
0.674464
0.674488
0.674512
0.674535
0.674535
0.674559
0.674583
0.674607
0.674631
0.674631
0.674655
0.674678
0.674702
0.674726
0.674726
0.67475
0.674774
0.674798
0.674822
0.674822
0.674845
0.674869
0.674893
0.674917
0.674917
0.674941
0.674965
0.674989
0.675013
0.675013
0.675037
0.675061
0.675085
0.675109
0.675109
0.675133
0.675157
0.675181
0.675205
0.675205
0.675229
0.675253
0.675277
0.675301
0.675301
0.675325
0.675349
0.675373
0.675397
0.675397
0.675422
0.675446
0.67547
0.675494
0.675494
0.675518
0.675542
0.675566
0.675591
0.675591
0.675615
0.675639
0.675663
0.675687
0.675687
0.675711
0.675736
0.67576
0.675784
0.675784
0.675808
0.675833
0.675857
0.675881
0.675881
0.675905
0.67593
0.675954
0.675978
0.675978
0.676003
0.676027
0.676051
0.676076
0.676076
0.6761
0.676124
0.676149
0.676173
0.676173
0.676197
0.676222
0.676246
0.676271
0.676271
0.676295
0.676319
0.676344
0.676368
0.676368
0.676393
0.676417
0.676442
0.676466
0.676466
0.676491
0.676515
0.67654
0.676564
0.676564
0.676589
0.676613
0.676638
0.676662
0.676662
0.676687
0.676711
0.676736
0.67676
0.67676
0.676785
0.67681
0.676834
0.676859
0.676859
0.676883
0.676908
0.676933
0.676957
0.676957
0.676982
0.677007
0.677031
0.677056
0.677056
0.677081
0.677105
0.67713
0.677155
0.677155
0.677179
0.677204
0.677229
0.677254
0.677254
0.677278
0.677303
0.677328
0.677353
0.677353
0.677377
0.677402
0.677427
0.677452
0.677452
0.677477
0.677502
0.677526
0.677551
0.677551
0.677576
0.677601
0.677626
0.677651
0.677651
0.677676
0.6777
0.677725
0.67775
0.67775
0.677775
0.6778
0.677825
0.67785
0.67785
0.677875
0.6779
0.677925
0.67795
0.67795
0.677975
0.678
0.678025
0.67805
0.67805
0.678075
0.6781
0.678125
0.67815
0.67815
0.678175
0.6782
0.678225
0.67825
0.67825
0.678275
0.6783
0.678325
0.678351
0.678351
0.678376
0.678401
0.678426
0.678451
0.678451
0.678476
0.678501
0.678527
0.678552
0.678552
0.678577
0.678602
0.678627
0.678653
0.678653
0.678678
0.678703
0.678728
0.678754
0.678754
0.678779
0.678804
0.678829
0.678855
0.678855
0.67888
0.678905
0.67893
0.678956
0.678956
0.678981
0.679006
0.679032
0.679057
0.679057
0.679082
0.679107
0.679133
0.679158
0.679158
0.679183
0.679208
0.679234
0.679259
0.679259
0.679284
0.679309
0.679334
0.679359
0.679359
0.679384
0.679409
0.679434
0.679459
0.679459
0.679484
0.679509
0.679533
0.679558
0.679558
0.679583
0.679607
0.679632
0.679656
0.679656
0.67968
0.679705
0.679729
0.679753
0.679753
0.679777
0.679801
0.679825
0.679849
0.679849
0.679873
0.679897
0.679921
0.679944
0.679944
0.679968
0.679992
0.680016
0.680039
0.680039
0.680063
0.680087
0.68011
0.680134
0.680134
0.680158
0.680181
0.680205
0.680229
0.680229
0.680252
0.680276
0.6803
0.680323
0.680323
0.680347
0.680371
0.680395
0.680418
0.680418
0.680442
0.680466
0.68049
0.680513
0.680513
0.680537
0.680561
0.680585
0.680608
0.680608
0.680632
0.680656
0.68068
0.680704
0.680704
0.680727
0.680751
0.680775
0.680799
0.680799
0.680823
0.680847
0.68087
0.680894
0.680894
0.680918
0.680942
0.680966
0.68099
0.68099
0.681014
0.681038
0.681062
0.681085
0.681085
0.681109
0.681133
0.681157
0.681181
0.681181
0.681205
0.681229
0.681253
0.681277
0.681277
0.681301
0.681325
0.681349
0.681373
0.681373
0.681397
0.681421
0.681445
0.681469
0.681469
0.681493
0.681517
0.681542
0.681566
0.681566
0.68159
0.681614
0.681638
0.681662
0.681662
0.681686
0.68171
0.681734
0.681758
0.681758
0.681783
0.681807
0.681831
0.681855
0.681855
0.681879
0.681903
0.681928
0.681952
0.681952
0.681976
0.682
0.682025
0.682049
0.682049
0.682073
0.682097
0.682121
0.682146
0.682146
0.68217
0.682194
0.682219
0.682243
0.682243
0.682267
0.682291
0.682316
0.68234
0.68234
0.682364
0.682389
0.682413
0.682437
0.682437
0.682462
0.682486
0.682511
0.682535
0.682535
0.682559
0.682584
0.682608
0.682632
0.682632
0.682657
0.682681
0.682706
0.68273
0.68273
0.682755
0.682779
0.682804
0.682828
0.682828
0.682852
0.682877
0.682901
0.682926
0.682926
0.68295
0.682975
0.682999
0.683024
0.683024
0.683049
0.683073
0.683098
0.683122
0.683122
0.683147
0.683171
0.683196
0.68322
0.68322
0.683245
0.68327
0.683294
0.683319
0.683319
0.683344
0.683368
0.683393
0.683417
0.683417
0.683442
0.683467
0.683491
0.683516
0.683516
0.683541
0.683565
0.68359
0.683615
0.683615
0.68364
0.683664
0.683689
0.683714
0.683714
0.683739
0.683763
0.683788
0.683813
0.683813
0.683838
0.683862
0.683887
0.683912
0.683912
0.683937
0.683962
0.683986
0.684011
0.684011
0.684036
0.684061
0.684086
0.684111
0.684111
0.684135
0.68416
0.684185
0.68421
0.68421
0.684235
0.68426
0.684285
0.68431
0.68431
0.684335
0.684359
0.684384
0.684409
0.684409
0.684434
0.684459
0.684484
0.684509
0.684509
0.684534
0.684559
0.684584
0.684609
0.684609
0.684634
0.684659
0.684684
0.684709
0.684709
0.684734
0.684759
0.684784
0.684809
0.684809
0.684834
0.684859
0.684884
0.684909
0.684909
0.684934
0.684959
0.684984
0.685009
0.685009
0.685034
0.685059
0.685084
0.685109
0.685109
0.685134
0.685158
0.685183
0.685208
0.685208
0.685232
0.685257
0.685282
0.685306
0.685306
0.68533
0.685355
0.685379