<?xml version="1.0"?>
<VTKFile type="UnstructuredGrid" version="0.1" byte_order="LittleEndian">
<UnstructuredGrid>
<Piece NumberOfPoints="5000" NumberOfCells="4000">
<PointData Scalars="Reaction 0">
<DataArray type="Float32" Name="Reaction 0" format="ascii">
0.565056
0.565056
0.565056
0.565056
0.565056
0.565056
0.565056
0.565056
0.565056
0.565056
0.565056
0.565057
0.565057
0.565057
0.565057
0.565057
0.565058
0.565058
0.565058
0.565059
0.565059
0.565059
0.565059
0.56506
0.56506
0.56506
0.565061
0.565061
0.565062
0.565062
0.565062
0.565063
0.565064
0.565064
0.565065
0.565065
0.565066
0.565066
0.565067
0.565068
0.565068
0.565069
0.565069
0.56507
0.565071
0.565071
0.565072
0.565073
0.565074
0.565075
0.565075
0.565076
0.565077
0.565078
0.565079
0.565079
0.56508
0.565081
0.565082
0.565083
0.565083
0.565084
0.565085
0.565087
0.565088
0.565088
0.565089
0.56509
0.565092
0.565093
0.565093
0.565094
0.565096
0.565097
0.565098
0.565098
0.5651
0.565101
0.565103
0.565104
0.565104
0.565106
0.565107
0.565109
0.565111
0.565111
0.565112
0.565114
0.565116
0.565117
0.565117
0.565119
0.565121
0.565123
0.565124
0.565124
0.565126
0.565128
0.56513
0.565132
0.565132
0.565134
0.565136
0.565138
0.56514
0.56514
0.565142
0.565144
0.565146
0.565148
0.565148
0.56515
0.565152
0.565154
0.565156
0.565156
0.565159
0.565161
0.565163
0.565165
0.565165
0.565168
0.56517
0.565172
0.565175
0.565175
0.565177
0.565179
0.565182
0.565184
0.565184
0.565187
0.565189
0.565192
0.565194
0.565194
0.565197
0.5652
0.565202
0.565205
0.565205
0.565208
0.56521
0.565213
0.565216
0.565216
0.565219
0.565221
0.565224
0.565227
0.565227
0.56523
0.565233
0.565236
0.565239
0.565239
0.565242
0.565245
0.565248
0.565251
0.565251
0.565254
0.565257
0.56526
0.565263
0.565263
0.565266
0.565269
0.565273
0.565276
0.565276
0.565279
0.565282
0.565286
0.565289
0.565289
0.565292
0.565296
0.565299
0.565303
0.565303
0.565306
0.565309
0.565313
0.565316
0.565316
0.56532
0.565324
0.565327
0.565331
0.565331
0.565334
0.565338
0.565342
0.565345
0.565345
0.565349
0.565353
0.565357
0.56536
0.56536
0.565364
0.565368
0.565372
0.565376
0.565376
0.56538
0.565384
0.565388
0.565392
0.565392
0.565396
0.5654
0.565404
0.565408
0.565408
0.565412
0.565416
0.56542
0.565424
0.565424
0.565429
0.565433
0.565437
0.565441
0.565441
0.565446
0.56545
0.565454
0.565459
0.565459
0.565463
0.565468
0.565472
0.565476
0.565476
0.565481
0.565485
0.56549
0.565495
0.565495
0.565499
0.565504
0.565508
0.565513
0.565513
0.565518
0.565522
0.565527
0.565532
0.565532
0.565537
0.565541
0.565546
0.565551
0.565551
0.565556
0.565561
0.565566
0.565571
0.565571
0.565576
0.565581
0.565586
0.565591
0.565591
0.565596
0.565601
0.565606
0.565611
0.565611
0.565616
0.565621
0.565627
0.565632
0.565632
0.565637
0.565642
0.565648
0.565653
0.565653
0.565658
0.565664
0.565669
0.565675
0.565675
0.56568
0.565685
0.565691
0.565696
0.565696
0.565702
0.565708
0.565713
0.565719
0.565719
0.565724
0.56573
0.565736
0.565741
0.565741
0.565747
0.565753
0.565759
0.565764
0.565764
0.56577
0.565776
0.565782
0.565788
0.565788
0.565794
0.5658
0.565806
0.565812
0.565812
0.565818
0.565824
0.56583
0.565836
0.565836
0.565842
0.565848
0.565854
0.56586
0.56586
0.565867
0.565873
0.565879
0.565885
0.565885
0.565892
0.565898
0.565904
0.565911
0.565911
0.565917
0.565924
0.56593
0.565936
0.565936
0.565943
0.565949
0.565956
0.565963
0.565963
0.565969
0.565976
0.565982
0.565989
0.565989
0.565996
0.566002
0.566009
0.566016
0.566016
0.566023
0.566029
0.566036
0.566043
0.566043
0.56605
0.566057
0.566064
0.566071
0.566071
0.566078
0.566085
0.566092
0.566099
0.566099
0.566106
0.566113
0.56612
0.566127
0.566127
0.566134
0.566141
0.566149
0.566156
0.566156
0.566163
0.56617
0.566178
0.566185
0.566185
0.566192
0.5662
0.566207
0.566214
0.566214
0.566222
0.566229
0.566237
0.566244
0.566244
0.566252
0.566259
0.566267
0.566275
0.566275
0.566282
0.56629
0.566298
0.566305
0.566305
0.566313
0.566321
0.566329
0.566336
0.566336
0.566344
0.566352
0.56636
0.566368
0.566368
0.566376
0.566384
0.566392
0.5664
0.5664
0.566408
0.566416
0.566424
0.566432
0.566432
0.56644
0.566448
0.566456
0.566464
0.566464
0.566472
0.566481
0.566489
0.566497
0.566497
0.566505
0.566514
0.566522
0.56653
0.56653
0.566539
0.566547
0.566556
0.566564
0.566564
0.566573
0.566581
0.56659
0.566598
0.566598
0.566607
0.566615
0.566624
0.566633
0.566633
0.566641
0.56665
0.566659
0.566668
0.566668
0.566676
0.566685
0.566694
0.566703
0.566703
0.566712
0.566721
0.566729
0.566738
0.566738
0.566747
0.566756
0.566765
0.566774
0.566774
0.566783
0.566792
0.566802
0.566811
0.566811
0.56682
0.566829
0.566838
0.566847
0.566847
0.566857
0.566866
0.566875
0.566885
0.566885
0.566894
0.566903
0.566913
0.566922
0.566922
0.566931
0.566941
0.56695
0.56696
0.56696
0.566969
0.566979
0.566989
0.566998
0.566998
0.567008
0.567017
0.567027
0.567037
0.567037
0.567047
0.567056
0.567066
0.567076
0.567076
0.567086
0.567095
0.567105
0.567115
0.567115
0.567125
0.567135
0.567145
0.567155
0.567155
0.567165
0.567175
0.567185
0.567195
0.567195
0.567205
0.567215
0.567225
0.567236
0.567236
0.567246
0.567256
0.567266
0.567277
0.567277
0.567287
0.567297
0.567308
0.567318
0.567318
0.567328
0.567339
0.567349
0.56736
0.56736
0.56737
0.567381
0.567391
0.567402
0.567402
0.567412
0.567423
0.567433
0.567444
0.567444
0.567455
0.567465
0.567476
0.567487
0.567487
0.567498
0.567508
0.567519
0.56753
0.56753
0.567541
0.567552
0.567563
0.567574
0.567574
0.567585
0.567596
0.567607
0.567618
0.567618
0.567629
0.56764
0.567651
0.567662
0.567662
0.567673
0.567684
0.567695
0.567707
0.567707
0.567718
0.567729
0.56774
0.567752
0.567752
0.567763
0.567774
0.567786
0.567797
0.567797
0.567809
0.56782
0.567831
0.567843
0.567843
0.567854
0.567866
0.567878
0.567889
0.567889
0.567901
0.567912
0.567924
0.567936
0.567936
0.567947
0.567959
0.567971
0.567983
0.567983
0.567995
0.568006
0.568018
0.56803
0.56803
0.568042
0.568054
0.568066
0.568078
0.568078
0.56809
0.568102
0.568114
0.568126
0.568126
0.568138
0.56815
0.568162
0.568174
0.568174
0.568187
0.568199
0.568211
0.568223
0.568223
0.568236
0.568248
0.56826
0.568273
0.568273
0.568285
0.568297
0.56831
0.568322
0.568322
0.568335
0.568347
0.56836
0.568372
0.568372
0.568385
0.568397
0.56841
0.568423
0.568423
0.568435
0.568448
0.568461
0.568473
0.568473
0.568486
0.568499
0.568512
0.568525
0.568525
0.568537
0.56855
0.568563
0.568576
0.568576
0.568589
0.568602
0.568615
0.568628
0.568628
0.568641
0.568654
0.568667
0.56868
0.56868
0.568693
0.568707
0.56872
0.568733
0.568733
0.568746
0.568759
0.568773
0.568786
0.568786
0.568799
0.568813
0.568826
0.568839
0.568839
0.568853
0.568866
0.56888
0.568893
0.568893
0.568907
0.56892
0.568934
0.568947
0.568947
0.568961
0.568975
0.568988
0.569002
0.569002
0.569016
0.569029
0.569043
0.569057
0.569057
0.569071
0.569084
0.569098
0.569112
0.569112
0.569126
0.56914
0.569154
0.569168
0.569168
0.569182
0.569196
0.56921
0.569224
0.569224
0.569238
0.569252
0.569266
0.56928
0.56928
0.569294
0.569309
0.569323
0.569337
0.569337
0.569351
0.569366
0.56938
0.569394
0.569394
0.569409
0.569423
0.569437
0.569452
0.569452
0.569466
0.569481
0.569495
0.56951
0.56951
0.569524
0.569539
0.569554
0.569568
0.569568
0.569583
0.569597
0.569612
0.569627
0.569627
0.569642
0.569656
0.569671
0.569686
0.569686
0.569701
0.569716
0.569731
0.569745
0.569745
0.56976
0.569775
0.56979
0.569805
0.569805
0.56982
0.569835
0.56985
0.569865
0.569865
0.569881
0.569896
0.569911
0.569926
0.569926
0.569941
0.569957
0.569972
0.569987
0.569987
0.570002
0.570018
0.570033
0.570048
0.570048
0.570064
0.570079
0.570095
0.57011
0.57011
0.570126
0.570141
0.570157
0.570172
0.570172
0.570188
0.570203
0.570219
0.570235
0.570235
0.57025
0.570266
0.570282
0.570298
0.570298
0.570313
0.570329
0.570345
0.570361
0.570361
0.570377
0.570393
0.570408
0.570424
0.570424
0.57044
0.570456
0.570472
0.570488
0.570488
0.570504
0.570521
0.570537
0.570553
0.570553
0.570569
0.570585
0.570601
0.570618
0.570618
0.570634
0.57065
0.570666
0.570683
0.570683
0.570699
0.570715
0.570732
0.570748
0.570748
0.570765
0.570781
0.570798
0.570814
0.570814
0.570831
0.570847
0.570864
0.57088
0.57088
0.570897
0.570914
0.57093
0.570947
0.570947
0.570964
0.57098
0.570997
0.571014
0.571014
0.571031
0.571048
0.571064
0.571081
0.571081
0.571098
0.571115
0.571132
0.571149
0.571149
0.571166
0.571183
0.5712
0.571217
0.571217
0.571234
0.571251
0.571269
0.571286
0.571286
0.571303
0.57132
0.571337
0.571355
0.571355
0.571372
0.571389
0.571406
0.571424
0.571424
0.571441
0.571459
0.571476
0.571493
0.571493
0.571511
0.571528
0.571546
0.571563
0.571563
0.571581
0.571599
0.571616
0.571634
0.571634
0.571652
0.571669
0.571687
0.571705
0.571705
0.571722
0.57174
0.571758
0.571776
0.571776
0.571794
0.571811
0.571829
0.571847
0.571847
0.571865
0.571883
0.571901
0.571919
0.571919
0.571937
0.571955
0.571973
0.571991
0.571991
0.57201
0.572028
0.572046
0.572064
0.572064
0.572082
0.572101
0.572119
0.572137
0.572137
0.572155
0.572174
0.572192
0.57221
0.57221
0.572229
0.572247
0.572266
0.572284
0.572284
0.572303
0.572321
0.57234
0.572358
0.572358
0.572377
0.572396
0.572414
0.572433
0.572433
0.572452
0.57247
0.572489
0.572508
0.572508
0.572527
0.572545
0.572564
0.572583
0.572583
0.572602
0.572621
0.57264
0.572659
0.572659
0.572678
0.572697
0.572716
0.572735
0.572735
0.572754
0.572773
0.572792
0.572811
0.572811
0.57283
0.572849
0.572869
0.572888
0.572888
0.572907
0.572926
0.572946
0.572965
0.572965
0.572984
0.573004
0.573023
0.573043
0.573043
0.573062
0.573081
0.573101
0.57312
0.57312
0.57314
0.57316
0.573179
0.573199
0.573199
0.573218
0.573238
0.573258
0.573277
0.573277
0.573297
0.573317
0.573337
0.573356
0.573356
0.573376
0.573396
0.573416
0.573436
0.573436
0.573456
0.573476
0.573496
0.573516
0.573516
0.573536
0.573556
0.573576
0.573596
0.573596
0.573616
0.573636
0.573656
0.573676
0.573676
0.573696
0.573717
0.573737
0.573757
0.573757
0.573777
0.573798
0.573818
0.573838
0.573838
0.573859
0.573879
0.5739
0.57392
0.57392
0.57394
0.573961
0.573981
0.574002
0.574002
0.574023
0.574043
0.574064
0.574084
0.574084
0.574105
0.574126
0.574146
0.574167
0.574167
0.574188
0.574209
0.574229
0.57425
0.57425
0.574271
0.574292
0.574313
0.574334
0.574334
0.574355
0.574376
0.574397
0.574418
0.574418
0.574439
0.57446
0.574481
0.574502
0.574502
0.574523
0.574544
0.574565
0.574587
0.574587
0.574608
0.574629
0.57465
0.574672
0.574672
0.574693
0.574714
0.574736
0.574757
0.574757
0.574778
0.5748
0.574821
0.574843
0.574843
0.574864
0.574886
0.574907
0.574929
0.574929
0.57495
0.574972
0.574994
0.575015
0.575015
0.575037
0.575059
0.57508
0.575102
0.575102
0.575124
0.575146
0.575167
0.575189
0.575189
0.575211
0.575233
0.575255
0.575277
0.575277
0.575299
0.575321
0.575343
0.575364
0.575364
0.575386
0.575408
0.57543
0.575451
0.575451
0.575473
0.575494
0.575515
0.575536
0.575536
0.575558
0.575579
0.5756
0.575621
0.575621
0.575643
0.575664
0.575685
0.575706
0.575706
0.575728
0.575749
0.57577
0.575792
0.575792
0.575813
0.575834
0.575856
0.575877
0.575877
0.575899
0.57592
0.575942
0.575963
0.575963
0.575985
0.576007
0.576028
0.57605
0.57605
0.576071
0.576093
0.576115
0.576136
0.576136
0.576158
0.57618
0.576202
0.576224
0.576224
0.576245
0.576267
0.576289
0.576311
0.576311
0.576333
0.576355
0.576377
0.576399
0.576399
0.576421
0.576443
0.576465
0.576487
0.576487
0.576509
0.576531
0.576553
0.576575
0.576575
0.576598
0.57662
0.576642
0.576664
0.576664
0.576686
0.576709
0.576731
0.576753
0.576753
0.576776
0.576798
0.576821
0.576843
0.576843
0.576865
0.576888
0.57691
0.576933
0.576933
0.576955
0.576978
0.577
0.577023
0.577023
0.577046
0.577068
0.577091
0.577114
0.577114
0.577136
0.577159
0.577182
0.577205
0.577205
0.577227
0.57725
0.577273
0.577296
0.577296
0.577319
0.577342
0.577365
0.577388
0.577388
0.57741
0.577433
0.577456
0.57748
0.57748
0.577503
0.577526
0.577549
0.577572
0.577572
0.577595
0.577618
0.577641
0.577665
0.577665
0.577688
0.577711
0.577734
0.577758
0.577758
0.577781
0.577804
0.577828
0.577851
0.577851
0.577874
0.577898
0.577921
0.577945
0.577945
0.577968
0.577992
0.578015
0.578039
0.578039
0.578062
0.578086
0.57811
0.578133
0.578133
0.578157
0.578181
0.578204
0.578228
0.578228
0.578252
0.578276
0.578299
0.578323
0.578323
0.578347
0.578371
0.578395
0.578419
0.578419
0.578443
0.578467
0.578491
0.578514
0.578514
0.578539
0.578563
0.578587
0.578611
0.578611
0.578635
0.578659
0.578683
0.578707
0.578707
0.578731
0.578756
0.57878
0.578804
0.578804
0.578828
0.578853
0.578877
0.578901
0.578901
0.578926
0.57895
0.578974
0.578999
0.578999
0.579023
0.579048
0.579072
0.579097
0.579097
0.579121
0.579146
0.579171
0.579195
0.579195
0.57922
0.579244
0.579269
0.579294
0.579294
0.579318
0.579343
0.579368
0.579393
0.579393
0.579417
0.579442
0.579467
0.579492
0.579492
0.579517
0.579542
0.579567
0.579592
0.579592
0.579617
0.579642
0.579667
0.579692
0.579692
0.579717
0.579742
0.579767
0.579792
0.579792
0.579817
0.579842
0.579868
0.579893
0.579893
0.579918
0.579943
0.579969
0.579994
0.579994
0.580019
0.580044
0.58007
0.580095
0.580095
0.580121
0.580146
0.580171
0.580197
0.580197
0.580222
0.580248
0.580274
0.580299
0.580299
0.580325
0.58035
0.580376
0.580402
0.580402
0.580427
0.580453
0.580479
0.580504
0.580504
0.58053
0.580556
0.580582
0.580607
0.580607
0.580633
0.580659
0.580685
0.580711
0.580711
0.580737
0.580763
0.580789
0.580815
0.580815
0.580841
0.580867
0.580893
0.580919
0.580919
0.580945
0.580971
0.580997
0.581023
0.581023
0.58105
0.581076
0.581102
0.581128
0.581128
0.581155
0.581181
0.581207
0.581233
0.581233
0.58126
0.581286
0.581313
0.581339
0.581339
0.581365
0.581392
0.581418
0.581445
0.581445
0.581471
0.581498
0.581525
0.581551
0.581551
0.581578
0.581604
0.581631
0.581658
0.581658
0.581684
0.581711
0.581738
0.581765
0.581765
0.581791
0.581818
0.581845
0.581872
0.581872
0.581899
0.581926
0.581953
0.58198
0.58198
0.582007
0.582034
0.582061
0.582088
0.582088
0.582115
0.582142
0.582169
0.582196
0.582196
0.582223
0.58225
0.582277
0.582305
0.582305
0.582332
0.582359
0.582386
0.582414
0.582414
0.582441
0.582468
0.582496
0.582523
0.582523
0.58255
0.582578
0.582605
0.582633
0.582633
0.58266
0.582688
0.582715
0.582743
0.582743
0.58277
0.582798
0.582825
0.582853
0.582853
0.582881
0.582908
0.582936
0.582964
0.582964
0.582991
0.583019
0.583047
0.583075
0.583075
0.583103
0.58313
0.583158
0.583186
0.583186
0.583214
0.583242
0.58327
0.583298
0.583298
0.583326
0.583354
0.583382
0.58341
0.58341
0.583438
0.583466
0.583494
0.583522
0.583522
0.583551
0.583579
0.583607
0.583635
0.583635
0.583663
0.583692
0.58372
0.583748
0.583748
0.583777
0.583805
0.583833
0.583862
0.583862
0.58389
0.583919
0.583947
0.583976
0.583976
0.584004
0.584033
0.584061
0.58409
0.58409
0.584118
0.584147
0.584175
0.584204
0.584204
0.584233
0.584262
0.58429
0.584319
0.584319
0.584348
0.584376
0.584405
0.584434
0.584434
0.584463
0.584492
0.584521
0.58455
0.58455
0.584579
0.584607
0.584636
0.584665
0.584665
0.584694
0.584724
0.584753
0.584782
0.584782
0.584811
0.58484
0.584869
0.584898
0.584898
0.584927
0.584957
0.584986
0.585015
0.585015
0.585044
0.585074
0.585103
0.585132
0.585132
0.585162
0.585191
0.58522
0.58525
0.58525
0.585279
0.585309
0.585338
0.585368
0.585368
0.585397
0.585427
0.585456
0.585486
0.585486
0.585515
0.585545
0.585575
0.585604
0.585604
0.585634
0.585664
0.585694
0.585723
0.585723
0.585753
0.585783
0.585813
0.585843
0.585843
0.585872
0.585902
0.585932
0.585962
0.585962
0.585992
0.586022
0.586052
0.586082
0.586082
0.586112
0.586142
0.586172
0.586202
0.586202
0.586232
0.586263
0.586293
0.586323
0.586323
0.586353
0.586383
0.586414
0.586444
0.586444
0.586474
0.586504
0.586535
0.586565
0.586565
0.586596
0.586626
0.586656
0.586687
0.586687
0.586717
0.586748
0.586778
0.586809
0.586809
0.586839
0.58687
0.5869
0.586931
0.586931
0.586962
0.586992
0.587023
0.587054
0.587054
0.587084
0.587115
0.587146
0.587177
0.587177
0.587207
0.587238
0.587269
0.5873
0.5873
0.587331
0.587362
0.587393
0.587423
0.587423
0.587454
0.587485
0.587516
0.587547
0.587547
0.587578
0.58761
0.587641
0.587672
0.587672
0.587703
0.587734
0.587765
0.587796
0.587796
0.587828
0.587859
0.58789
0.587921
0.587921
0.587953
0.587984
0.588015
0.588047
0.588047
0.588078
0.588109
0.588141
0.588172
0.588172
0.588204
0.588235
0.588267
0.588298
0.588298
0.58833
0.588361
0.588393
0.588425
0.588425
0.588456
0.588488
0.58852
0.588551
0.588551
0.588583
0.588615
0.588647
0.588678
0.588678
0.58871
0.588742
0.588774
0.588806
0.588806
0.588837
0.588869
0.588901
0.588933
0.588933
0.588965
0.588997
0.589029
0.589061
0.589061
0.589093
0.589125
0.589157
0.58919
0.58919
0.589222
0.589254
0.589286
0.589318
0.589318
0.58935
0.589383
0.589415
0.589447
0.589447
0.589479
0.589512
0.589544
0.589576
0.589576
0.589609
0.589641
0.589673
0.589705
0.589705
0.589737
0.589769
0.589801
0.589832
0.589832
0.589864
0.589895
0.589927
0.589958
0.589958
0.589989
0.59002
0.590051
0.590082
0.590082
0.590113
0.590144
0.590175
0.590206
0.590206
0.590237
0.590268
0.590299
0.59033
0.59033
0.590361
0.590392
0.590423
0.590454
0.590454
0.590485
0.590516
0.590547
0.590579
0.590579
0.59061
0.590641
0.590672
0.590704
0.590704
0.590735
0.590766
0.590797
0.590829
0.590829
0.59086
0.590891
0.590923
0.590954
0.590954
0.590986
0.591017
0.591049
0.59108
0.59108
0.591111
0.591143
0.591175
0.591206
0.591206
0.591238
0.591269
0.591301
0.591333
0.591333
0.591364
0.591396
0.591428
0.591459
0.591459
0.591491
0.591523
0.591554
0.591586
0.591586
0.591618
0.59165
0.591682
0.591714
0.591714
0.591746
0.591777
0.591809
0.591841
0.591841
0.591873
0.591905
0.591937
0.591969
0.591969
0.592001
0.592033
0.592065
0.592098
0.592098
0.59213
0.592162
0.592194
0.592226
0.592226
0.592258
0.592291
0.592323
0.592355
0.592355
0.592387
0.59242
0.592452
0.592484
0.592484
0.592517
0.592549
0.592581
0.592614
0.592614
0.592646
0.592679
0.592711
0.592744
0.592744
0.592776
0.592809
0.592841
0.592874
0.592874
0.592906
0.592939
0.592971
0.593004
0.593004
0.593037
0.593069
0.593102
0.593135
0.593135
0.593168
0.5932
0.593233
0.593266
0.593266
0.593299
0.593332
0.593364
0.593397
0.593397
0.59343
0.593463
0.593496
0.593529
0.593529
0.593562
0.593595
0.593628
0.593661
0.593661
0.593694
0.593727
0.59376
0.593793
0.593793
0.593826
0.593859
0.593893
0.593926
0.593926
0.593959
0.593992
0.594025
0.594059
0.594059
0.594092
0.594125
0.594159
0.594192
0.594192
0.594225
0.594259
0.594292
0.594325
0.594325
0.594359
0.594392
0.594426
0.594459
0.594459
0.594493
0.594526
0.59456
0.594593
0.594593
0.594627
0.59466
0.594694
0.594728
0.594728
0.594761
0.594795
0.594829
0.594862
0.594862
0.594896
0.59493
0.594964
0.594997
0.594997
0.595031
0.595065
0.595099
0.595133
0.595133
0.595167
0.595201
0.595234
0.595268
0.595268
0.595302
0.595336
0.59537
0.595404
0.595404
0.595438
0.595472
0.595506
0.595541
0.595541
0.595575
0.595609
0.595643
0.595677
0.595677
0.595711
0.595746
0.59578
0.595814
0.595814
0.595848
0.595883
0.595917
0.595951
0.595951
0.595985
0.59602
0.596054
0.596089
0.596089
0.596123
0.596157
0.596192
0.596226
0.596226
0.596261
0.596295
0.59633
0.596364
0.596364
0.596399
0.596434
0.596468
0.596503
0.596503
0.596537
0.596572
0.596607
0.596641
0.596641
0.596676
0.596711
0.596746
0.59678
0.59678
0.596815
0.59685
0.596885
0.59692
0.59692
0.596955
0.596989
0.597024
0.597059
0.597059
0.597094
0.597129
0.597164
0.597199
0.597199
0.597234
0.597269
0.597304
0.597339
0.597339
0.597374
0.597409
0.597445
0.59748
0.59748
0.597515
0.59755
0.597585
0.597621
0.597621
0.597656
0.597691
0.597726
0.597762
0.597762
0.597797
0.597832
0.597868
0.597903
0.597903
0.597938
0.597974
0.598009
0.598045
0.598045
0.59808
0.598116
0.598151
0.598187
0.598187
0.598222
0.598258
0.598293
0.598329
0.598329
0.598365
0.5984
0.598436
0.598471
0.598471
0.598507
0.598543
0.598579
0.598614
0.598614
0.59865
0.598686
0.598722
0.598758
0.598758
0.598793
0.598829
0.598865
0.598901
0.598901
0.598937
0.598973
0.599009
0.599045
0.599045
0.599081
0.599117
0.599153
0.599189
0.599189
0.599225
0.599261
0.599297
0.599333
0.599333
0.599369
0.599406
0.599442
0.599478
0.599478
0.599514
0.59955
0.599587
0.599623
0.599623
0.599659
0.599695
0.599732
0.599768
0.599768
0.599804
0.599841
0.599877
0.599914
0.599914
0.59995
0.599987
0.600023
0.600059
0.600059
0.600096
0.600133
0.600169
0.600206
0.600206
0.600242
0.600279
0.600315
0.600352
0.600352
0.600389
0.600425
0.600462
0.600499
0.600499
0.600536
0.600572
0.600609
0.600646
0.600646
0.600683
0.600719
0.600756
0.600793
0.600793
0.60083
0.600867
0.600904
0.600941
0.600941
0.600978
0.601015
0.601052
0.601089
0.601089
0.601126
0.601163
0.6012
0.601237
0.601237
0.601274
0.601311
0.601348
0.601385
0.601385
0.601423
0.60146
0.601497
0.601534
0.601534
0.601571
0.601609
0.601646
0.601683
0.601683
0.601721
0.601758
0.601795
0.601833
0.601833
0.60187
0.601908
0.601945
0.601982
0.601982
0.60202
0.602057
0.602095
0.602132
0.602132
0.60217
0.602207
0.602245
0.602283
0.602283
0.60232
0.602358
0.602396
0.602433
0.602433
0.602471
0.602509
0.602546
0.602584
0.602584
0.602622
0.602659
0.602697
0.602735
0.602735
0.602772
0.60281
0.602848
0.602885
0.602885
0.602922
0.60296
0.602997
0.603034
0.603034
0.603071
0.603108
0.603144
0.603181
0.603181
0.603217
0.603254
0.60329
0.603326
0.603326
0.603362
0.603398
0.603434
0.60347
0.60347
0.603506
0.603542
0.603578
0.603614
0.603614
0.60365
0.603686
0.603722
0.603758
0.603758
0.603794
0.60383
0.603866
0.603902
0.603902
0.603938
0.603974
0.604011
0.604047
0.604047
0.604083
0.604119
0.604155
0.604192
0.604192
0.604228
0.604264
0.6043
0.604337
0.604337
0.604373
0.604409
0.604446
0.604482
0.604482
0.604518
0.604555
0.604591
0.604628
0.604628
0.604664
0.6047
0.604737
0.604773
0.604773
0.60481
0.604847
0.604883
0.60492
0.60492
0.604956
0.604993
0.605029
0.605066
0.605066
0.605103
0.605139
0.605176
0.605213
0.605213
0.605249
0.605286
0.605323
0.60536
0.60536
0.605396
0.605433
0.60547
0.605507
0.605507
0.605544
0.605581
0.605617
0.605654
0.605654
0.605691
0.605728
0.605765
0.605802
0.605802
0.605839
0.605876
0.605913
0.60595
0.60595
0.605987
0.606024
0.606061
0.606098
0.606098
0.606136
0.606173
0.60621
0.606247
0.606247
0.606284
0.606321
0.606359
0.606396
0.606396
0.606433
0.60647
0.606508
0.606545
0.606545
0.606582
0.60662
0.606657
0.606694
0.606694
0.606732
0.606769
0.606806
0.606844
0.606844
0.606881
0.606919
0.606956
0.606994
0.606994
0.607031
0.607069
0.607106
0.607144
0.607144
0.607182
0.607219
0.607257
0.607294
0.607294
0.607332
0.60737
0.607407
0.607445
0.607445
0.607483
0.60752
0.607558
0.607596
0.607596
0.607634
0.607672
0.607709
0.607747
0.607747
0.607785
0.607823
0.607861
0.607899
0.607899
0.607937
0.607975
0.608012
0.60805
0.60805
0.608088
0.608126
0.608164
0.608202
0.608202
0.60824
0.608279
0.608317
0.608355
0.608355
0.608393
0.608431
0.608469
0.608507
0.608507
0.608545
0.608584
0.608622
0.60866
0.60866
0.608698
0.608736
0.608775
0.608813
0.608813
0.608851
0.60889
0.608928
0.608966
0.608966
0.609005
0.609043
0.609082
0.60912
0.60912
0.609158
0.609197
0.609235
0.609274
0.609274
0.609312
0.609351
0.609389
0.609428
0.609428
0.609466
0.609505
0.609544
0.609582
0.609582
0.609621
0.60966
0.609698
0.609737
0.609737
0.609776
0.609814
0.609853
0.609892
0.609892
0.609931
0.609969
0.610008
0.610047
0.610047
0.610086
0.610125
0.610163
0.610202
0.610202
0.610241
0.61028
0.610319
0.610358
0.610358
0.610397
0.610436
0.610475
0.610514
0.610514
0.610553
0.610592
0.610631
0.61067
0.61067
0.610709
0.610748
0.610787
0.610827
0.610827
0.610866
0.610905
0.610944
0.610983
0.610983
0.611022
0.611062
0.611101
0.61114
0.61114
0.611179
0.611219
0.611258
0.611297
0.611297
0.611337
0.611376
0.611415
0.611455
0.611455
0.611494
0.611534
0.611573
0.611613
0.611613
0.611652
0.611692
0.611731
0.611771
0.611771
0.61181
0.61185
0.611889
0.611929
0.611929
0.611968
0.612008
0.612048
0.612087
0.612087
0.612127
0.612167
0.612206
0.612246
0.612246
0.612286
0.612326
0.612365
0.612405
0.612405
0.612445
0.612485
0.612525
0.612564
0.612564
0.612604
0.612644
0.612684
0.612724
0.612724
0.612764
0.612804
0.612844
0.612884
0.612884
0.612924
0.612964
0.613004
0.613044
0.613044
0.613084
0.613124
0.613164
0.613204
0.613204
0.613244
0.613284
0.613324
0.613365
0.613365
0.613405
0.613445
0.613485
0.613525
0.613525
0.613566
0.613606
0.613646
0.613686
0.613686
0.613727
0.613767
0.613807
0.613848
0.613848
0.613888
0.613929
0.613969
0.614009
0.614009
0.61405
0.61409
0.614131
0.614171
0.614171
0.614212
0.614252
0.614293
0.614333
0.614333
0.614374
0.614414
0.614455
0.614495
0.614495
0.614536
0.614577
0.614617
0.614658
0.614658
0.614698
0.614739
0.614779
0.61482
0.61482
0.61486
0.6149
0.61494
0.61498
0.61498
0.61502
0.61506
0.6151
0.61514
0.61514
0.615179
0.615218
0.615257
0.615296
0.615296
0.615335
0.615374
0.615413
0.615452
0.615452
0.615491
0.615529
0.615568
0.615606
0.615606
0.615645
0.615683
0.615722
0.615761
0.615761
0.615799
0.615838
0.615876
0.615915
0.615915
0.615953
0.615992
0.616031
0.616069
0.616069
0.616108
0.616147
0.616185
0.616224
0.616224
0.616263
0.616301
0.61634
0.616379
0.616379
0.616418
0.616456
0.616495
0.616534
0.616534
0.616573
0.616612
0.616651
0.616689
0.616689
0.616728
0.616767
0.616806
0.616845
0.616845
0.616884
0.616923
0.616962
0.617001
0.617001
0.61704
0.617079
0.617118
0.617157
0.617157
0.617196
0.617235
0.617274
0.617313
0.617313
0.617352
0.617392
0.617431
0.61747
0.61747
0.617509
0.617548
0.617587
0.617627
0.617627
0.617666
0.617705
0.617744
0.617784
0.617784
0.617823
0.617862
0.617901
0.617941
0.617941
0.61798
0.618019
0.618059
0.618098
0.618098
0.618138
0.618177
0.618216
0.618256
0.618256
0.618295
0.618335
0.618374
0.618414
0.618414
0.618453
0.618493
0.618532
0.618572
0.618572
0.618612
0.618651
0.618691
0.61873
0.61873
0.61877
0.61881
0.618849
0.618889
0.618889
0.618929
0.618968
0.619008
0.619048
0.619048
0.619087
0.619127
0.619167
0.619207
0.619207
0.619247
0.619286
0.619326
0.619366
0.619366
0.619406
0.619446
0.619486
0.619526
0.619526
0.619565
0.619605
0.619645
0.619685
0.619685
0.619725
0.619765
0.619805
0.619845
0.619845
0.619885
0.619925
0.619965
0.620005
0.620005
0.620045
0.620086
0.620126
0.620166
0.620166
0.620206
0.620246
0.620286
0.620326
0.620326
0.620367
0.620407
0.620447
0.620487
0.620487
0.620527
0.620568
0.620608
0.620648
0.620648
0.620689
0.620729
0.620769
0.62081
0.62081
0.62085
0.62089
0.620931
0.620971
0.620971
0.621012
0.621052
0.621092
0.621133
0.621133
0.621173
0.621214
0.621254
0.621295
0.621295
0.621335
0.621376
0.621416
0.621457
0.621457
0.621498
0.621538
0.621579
0.621619
0.621619
0.62166
0.621701
0.621741
0.621782
0.621782
0.621823
0.621863
0.621904
0.621945
0.621945
0.621986
0.622026
0.622067
0.622108
0.622108
0.622149
0.62219
0.62223
0.622271
0.622271
0.622312
0.622353
0.622394
0.622435
0.622435
0.622476
0.622517
0.622558
0.622599
0.622599
0.62264
0.622681
0.622722
0.622763
0.622763
0.622804
0.622845
0.622886
0.622927
0.622927
0.622968
0.623009
0.62305
0.623091
0.623091
0.623132
0.623173
0.623215
0.623256
0.623256
0.623297
0.623338
0.623379
0.623421
0.623421
0.623462
0.623503
0.623544
0.623586
0.623586
0.623627
0.623668
0.62371
0.623751
0.623751
0.623792
0.623834
0.623875
0.623917
0.623917
0.623958
0.623999
0.624041
0.624082
0.624082
0.624124
0.624165
0.624207
0.624248
0.624248
0.62429
0.624331
0.624373
0.624414
0.624414
0.624456
0.624498
0.624539
0.624581
0.624581
0.624622
0.624664
0.624706
0.624747
0.624747
0.624789
0.624831
0.624872
0.624914
0.624914
0.624956
0.624998
0.625039
0.625081
0.625081
0.625123
0.625165
0.625207
0.625248
0.625248
0.62529
0.625332
0.625374
0.625416
0.625416
0.625457
0.625499
0.625541
0.625582
0.625582
0.625624
0.625666
0.625707
0.625749
0.625749
0.62579
0.625831
0.625872
0.625913
0.625913
0.625954
0.625995
0.626035
0.626076
0.626076
0.626116
0.626156
0.626196
0.626237
0.626237
0.626276
0.626316
0.626356
0.626396
0.626396
0.626435
0.626475
0.626515
0.626554
0.626554
0.626594
0.626634
0.626673
0.626713
0.626713
0.626752
0.626792
0.626831
0.626871
0.626871
0.626911
0.62695
0.62699
0.627029
0.627029
0.627069
0.627109
0.627148
0.627188
0.627188
0.627228
0.627268
0.627307
0.627347
0.627347
0.627387
0.627426
0.627466
0.627506
0.627506
0.627546
0.627586
0.627625
0.627665
0.627665
0.627705
0.627745
0.627785
0.627825
0.627825
0.627865
0.627904
0.627944
0.627984
0.627984
0.628024
0.628064
0.628104
0.628144
0.628144
0.628184
0.628224
0.628264
0.628304
0.628304
0.628344
0.628384
0.628424
0.628464
0.628464
0.628504
0.628545
0.628585
0.628625
0.628625
0.628665
0.628705
0.628745
0.628785
0.628785
0.628826
0.628866
0.628906
0.628946
0.628946
0.628986
0.629027
0.629067
0.629107
0.629107
0.629147
0.629188
0.629228
0.629268
0.629268
0.629309
0.629349
0.629389
0.62943
0.62943
0.62947
0.629511
0.629551
0.629591
0.629591
0.629632
0.629672
0.629713
0.629753
0.629753
0.629794
0.629834
0.629875
0.629915
0.629915
0.629956
0.629996
0.630037
0.630077
0.630077
0.630118
0.630158
0.630199
0.63024
0.63024
0.63028
0.630321
0.630362
0.630402
0.630402
0.630443
0.630484
0.630524
0.630565
0.630565
0.630606
0.630646
0.630687
0.630728
0.630728
0.630769
0.630809
0.63085
0.630891
0.630891
0.630932
0.630973
0.631013
0.631054
0.631054
0.631095
0.631136
0.631177
0.631218
0.631218
0.631259
0.6313
0.631341
0.631381
0.631381
0.631422
0.631463
0.631504
0.631545
0.631545
0.631586
0.631627
0.631668
0.631709
0.631709
0.631751
0.631792
0.631833
0.631874
0.631874
0.631915
0.631956
0.631997
0.632038
0.632038
0.632079
0.63212
0.632162
0.632203
0.632203
0.632244
0.632285
0.632326
0.632368
0.632368
0.632409
0.63245
0.632491
0.632533
0.632533
0.632574
0.632615
0.632657
0.632698
0.632698
0.632739
0.632781
0.632822
0.632863
0.632863
0.632905
0.632946
0.632987
0.633029
0.633029
0.63307
0.633112
0.633153
0.633195
0.633195
0.633236
0.633278
0.633319
0.633361
0.633361
0.633402
0.633444
0.633485
0.633527
0.633527
0.633568
0.63361
0.633652
0.633693
0.633693
0.633735
0.633776
0.633818
0.63386
0.63386
0.633901
0.633943
0.633985
0.634026
0.634026
0.634068
0.63411
0.634152
0.634193
0.634193
0.634235
0.634277
0.634319
0.63436
0.63436
0.634402
0.634444
0.634486
0.634528
0.634528
0.63457
0.634611
0.634653
0.634695
0.634695
0.634737
0.634779
0.634821
0.634863
0.634863
0.634905
0.634947
0.634988
0.63503
0.63503
0.635072
0.635114
0.635156
0.635198
0.635198
0.63524
0.635281
0.635323
0.635365
0.635365