<?xml version="1.0"?>
<VTKFile type="UnstructuredGrid" version="0.1" byte_order="LittleEndian">
<UnstructuredGrid>
<Piece NumberOfPoints="5000" NumberOfCells="4000">
<PointData Scalars="Reaction 0">
<DataArray type="Float32" Name="Reaction 0" format="ascii">
0.580762
0.580762
0.580762
0.580762
0.580762
0.580762
0.580762
0.580763
0.580763
0.580763
0.580763
0.580763
0.580763
0.580764
0.580764
0.580764
0.580764
0.580764
0.580765
0.580765
0.580765
0.580765
0.580766
0.580766
0.580767
0.580767
0.580767
0.580768
0.580768
0.580769
0.580769
0.580769
0.58077
0.58077
0.580771
0.580771
0.580772
0.580772
0.580773
0.580774
0.580774
0.580775
0.580775
0.580776
0.580777
0.580777
0.580778
0.580779
0.580779
0.58078
0.58078
0.580781
0.580782
0.580783
0.580784
0.580784
0.580785
0.580786
0.580787
0.580788
0.580788
0.580789
0.580791
0.580792
0.580793
0.580793
0.580794
0.580795
0.580796
0.580798
0.580798
0.580799
0.5808
0.580802
0.580803
0.580803
0.580804
0.580806
0.580807
0.580809
0.580809
0.58081
0.580812
0.580813
0.580815
0.580815
0.580816
0.580818
0.580819
0.580821
0.580821
0.580823
0.580824
0.580826
0.580828
0.580828
0.580829
0.580831
0.580833
0.580835
0.580835
0.580837
0.580838
0.58084
0.580842
0.580842
0.580844
0.580846
0.580848
0.58085
0.58085
0.580852
0.580854
0.580856
0.580858
0.580858
0.58086
0.580862
0.580864
0.580867
0.580867
0.580869
0.580871
0.580873
0.580876
0.580876
0.580878
0.58088
0.580882
0.580885
0.580885
0.580887
0.58089
0.580892
0.580894
0.580894
0.580897
0.580899
0.580902
0.580904
0.580904
0.580907
0.580909
0.580912
0.580915
0.580915
0.580917
0.58092
0.580923
0.580925
0.580925
0.580928
0.580931
0.580934
0.580936
0.580936
0.580939
0.580942
0.580945
0.580948
0.580948
0.580951
0.580954
0.580957
0.58096
0.58096
0.580963
0.580966
0.580969
0.580972
0.580972
0.580975
0.580978
0.580981
0.580984
0.580984
0.580988
0.580991
0.580994
0.580997
0.580997
0.581
0.581004
0.581007
0.58101
0.58101
0.581014
0.581017
0.581021
0.581024
0.581024
0.581028
0.581031
0.581034
0.581038
0.581038
0.581042
0.581045
0.581049
0.581052
0.581052
0.581056
0.58106
0.581063
0.581067
0.581067
0.581071
0.581075
0.581078
0.581082
0.581082
0.581086
0.58109
0.581094
0.581097
0.581097
0.581101
0.581105
0.581109
0.581113
0.581113
0.581117
0.581121
0.581125
0.581129
0.581129
0.581133
0.581138
0.581142
0.581146
0.581146
0.58115
0.581154
0.581159
0.581163
0.581163
0.581167
0.581171
0.581176
0.58118
0.58118
0.581184
0.581189
0.581193
0.581198
0.581198
0.581202
0.581206
0.581211
0.581216
0.581216
0.58122
0.581225
0.581229
0.581234
0.581234
0.581238
0.581243
0.581248
0.581252
0.581252
0.581257
0.581262
0.581267
0.581272
0.581272
0.581276
0.581281
0.581286
0.581291
0.581291
0.581296
0.581301
0.581306
0.581311
0.581311
0.581316
0.581321
0.581326
0.581331
0.581331
0.581336
0.581341
0.581346
0.581351
0.581351
0.581356
0.581362
0.581367
0.581372
0.581372
0.581377
0.581383
0.581388
0.581393
0.581393
0.581399
0.581404
0.581409
0.581415
0.581415
0.58142
0.581426
0.581431
0.581437
0.581437
0.581442
0.581448
0.581454
0.581459
0.581459
0.581465
0.58147
0.581476
0.581482
0.581482
0.581487
0.581493
0.581499
0.581505
0.581505
0.581511
0.581516
0.581522
0.581528
0.581528
0.581534
0.58154
0.581546
0.581552
0.581552
0.581558
0.581564
0.58157
0.581576
0.581576
0.581582
0.581588
0.581594
0.5816
0.5816
0.581607
0.581613
0.581619
0.581625
0.581625
0.581632
0.581638
0.581644
0.58165
0.58165
0.581657
0.581663
0.58167
0.581676
0.581676
0.581682
0.581689
0.581695
0.581702
0.581702
0.581708
0.581715
0.581722
0.581728
0.581728
0.581735
0.581741
0.581748
0.581755
0.581755
0.581762
0.581768
0.581775
0.581782
0.581782
0.581789
0.581795
0.581802
0.581809
0.581809
0.581816
0.581823
0.58183
0.581837
0.581837
0.581844
0.581851
0.581858
0.581865
0.581865
0.581872
0.581879
0.581886
0.581893
0.581893
0.581901
0.581908
0.581915
0.581922
0.581922
0.581929
0.581937
0.581944
0.581951
0.581951
0.581959
0.581966
0.581973
0.581981
0.581981
0.581988
0.581996
0.582003
0.582011
0.582011
0.582018
0.582026
0.582033
0.582041
0.582041
0.582049
0.582056
0.582064
0.582072
0.582072
0.582079
0.582087
0.582095
0.582103
0.582103
0.58211
0.582118
0.582126
0.582134
0.582134
0.582142
0.58215
0.582158
0.582166
0.582166
0.582174
0.582182
0.58219
0.582198
0.582198
0.582206
0.582214
0.582222
0.58223
0.58223
0.582238
0.582246
0.582255
0.582263
0.582263
0.582271
0.582279
0.582288
0.582296
0.582296
0.582304
0.582313
0.582321
0.582329
0.582329
0.582338
0.582346
0.582355
0.582363
0.582363
0.582372
0.58238
0.582389
0.582397
0.582397
0.582406
0.582415
0.582423
0.582432
0.582432
0.582441
0.582449
0.582458
0.582467
0.582467
0.582476
0.582485
0.582493
0.582502
0.582502
0.582511
0.58252
0.582529
0.582538
0.582538
0.582547
0.582556
0.582565
0.582574
0.582574
0.582583
0.582592
0.582601
0.58261
0.58261
0.582619
0.582629
0.582638
0.582647
0.582647
0.582656
0.582665
0.582675
0.582684
0.582684
0.582693
0.582703
0.582712
0.582722
0.582722
0.582731
0.58274
0.58275
0.582759
0.582759
0.582769
0.582778
0.582788
0.582798
0.582798
0.582807
0.582817
0.582826
0.582836
0.582836
0.582846
0.582855
0.582865
0.582875
0.582875
0.582885
0.582895
0.582904
0.582914
0.582914
0.582924
0.582934
0.582944
0.582954
0.582954
0.582964
0.582974
0.582984
0.582994
0.582994
0.583004
0.583014
0.583024
0.583034
0.583034
0.583044
0.583054
0.583065
0.583075
0.583075
0.583085
0.583095
0.583106
0.583116
0.583116
0.583126
0.583136
0.583147
0.583157
0.583157
0.583168
0.583178
0.583189
0.583199
0.583199
0.583209
0.58322
0.583231
0.583241
0.583241
0.583252
0.583262
0.583273
0.583284
0.583284
0.583294
0.583305
0.583316
0.583326
0.583326
0.583337
0.583348
0.583359
0.58337
0.58337
0.58338
0.583391
0.583402
0.583413
0.583413
0.583424
0.583435
0.583446
0.583457
0.583457
0.583468
0.583479
0.58349
0.583501
0.583501
0.583513
0.583524
0.583535
0.583546
0.583546
0.583557
0.583568
0.58358
0.583591
0.583591
0.583602
0.583614
0.583625
0.583636
0.583636
0.583648
0.583659
0.583671
0.583682
0.583682
0.583694
0.583705
0.583717
0.583728
0.583728
0.58374
0.583751
0.583763
0.583775
0.583775
0.583786
0.583798
0.58381
0.583821
0.583821
0.583833
0.583845
0.583857
0.583869
0.583869
0.58388
0.583892
0.583904
0.583916
0.583916
0.583928
0.58394
0.583952
0.583964
0.583964
0.583976
0.583988
0.584
0.584012
0.584012
0.584024
0.584036
0.584049
0.584061
0.584061
0.584073
0.584085
0.584097
0.58411
0.58411
0.584122
0.584134
0.584147
0.584159
0.584159
0.584171
0.584184
0.584196
0.584209
0.584209
0.584221
0.584234
0.584246
0.584259
0.584259
0.584271
0.584284
0.584296
0.584309
0.584309
0.584322
0.584334
0.584347
0.58436
0.58436
0.584372
0.584385
0.584398
0.584411
0.584411
0.584424
0.584436
0.584449
0.584462
0.584462
0.584475
0.584488
0.584501
0.584514
0.584514
0.584527
0.58454
0.584553
0.584566
0.584566
0.584579
0.584592
0.584605
0.584619
0.584619
0.584632
0.584645
0.584658
0.584672
0.584672
0.584685
0.584698
0.584711
0.584725
0.584725
0.584738
0.584751
0.584765
0.584778
0.584778
0.584792
0.584805
0.584819
0.584832
0.584832
0.584846
0.584859
0.584873
0.584887
0.584887
0.5849
0.584914
0.584928
0.584941
0.584941
0.584955
0.584969
0.584982
0.584996
0.584996
0.58501
0.585024
0.585038
0.585052
0.585052
0.585065
0.585079
0.585093
0.585107
0.585107
0.585121
0.585135
0.585149
0.585163
0.585163
0.585177
0.585192
0.585206
0.58522
0.58522
0.585234
0.585248
0.585262
0.585277
0.585277
0.585291
0.585305
0.585319
0.585334
0.585334
0.585348
0.585362
0.585377
0.585391
0.585391
0.585406
0.58542
0.585435
0.585449
0.585449
0.585464
0.585478
0.585493
0.585507
0.585507
0.585522
0.585537
0.585551
0.585566
0.585566
0.585581
0.585595
0.58561
0.585625
0.585625
0.58564
0.585654
0.585669
0.585684
0.585684
0.585699
0.585714
0.585729
0.585744
0.585744
0.585759
0.585774
0.585789
0.585804
0.585804
0.585819
0.585834
0.585849
0.585864
0.585864
0.585879
0.585894
0.58591
0.585925
0.585925
0.58594
0.585955
0.585971
0.585986
0.585986
0.586001
0.586016
0.586032
0.586047
0.586047
0.586063
0.586078
0.586094
0.586109
0.586109
0.586125
0.58614
0.586156
0.586171
0.586171
0.586187
0.586202
0.586218
0.586234
0.586234
0.586249
0.586265
0.586281
0.586296
0.586296
0.586312
0.586328
0.586344
0.58636
0.58636
0.586375
0.586391
0.586407
0.586423
0.586423
0.586439
0.586455
0.586471
0.586487
0.586487
0.586503
0.586519
0.586535
0.586551
0.586551
0.586567
0.586584
0.5866
0.586616
0.586616
0.586632
0.586648
0.586665
0.586681
0.586681
0.586697
0.586713
0.58673
0.586746
0.586746
0.586763
0.586779
0.586795
0.586812
0.586812
0.586828
0.586845
0.586861
0.586878
0.586878
0.586894
0.586911
0.586928
0.586944
0.586944
0.586961
0.586978
0.586994
0.587011
0.587011
0.587028
0.587044
0.587061
0.587078
0.587078
0.587095
0.587112
0.587129
0.587145
0.587145
0.587162
0.587179
0.587196
0.587213
0.587213
0.58723
0.587247
0.587264
0.587281
0.587281
0.587298
0.587316
0.587333
0.58735
0.58735
0.587367
0.587384
0.587401
0.587419
0.587419
0.587436
0.587453
0.587471
0.587488
0.587488
0.587505
0.587523
0.58754
0.587557
0.587557
0.587575
0.587592
0.58761
0.587627
0.587627
0.587645
0.587662
0.58768
0.587698
0.587698
0.587715
0.587733
0.587751
0.587768
0.587768
0.587786
0.587804
0.587821
0.587839
0.587839
0.587857
0.587875
0.587893
0.58791
0.58791
0.587928
0.587946
0.587964
0.587982
0.587982
0.588
0.588018
0.588036
0.588054
0.588054
0.588072
0.58809
0.588108
0.588127
0.588127
0.588145
0.588163
0.588181
0.588199
0.588199
0.588217
0.588236
0.588254
0.588272
0.588272
0.588291
0.588309
0.588327
0.588346
0.588346
0.588364
0.588383
0.588401
0.58842
0.58842
0.588438
0.588457
0.588475
0.588494
0.588494
0.588512
0.588531
0.588549
0.588568
0.588568
0.588587
0.588605
0.588624
0.588643
0.588643
0.588662
0.58868
0.588699
0.588718
0.588718
0.588737
0.588756
0.588775
0.588794
0.588794
0.588813
0.588832
0.588851
0.58887
0.58887
0.588889
0.588908
0.588927
0.588946
0.588946
0.588965
0.588984
0.589003
0.589022
0.589022
0.589042
0.589061
0.58908
0.589099
0.589099
0.589119
0.589138
0.589157
0.589177
0.589177
0.589196
0.589215
0.589235
0.589254
0.589254
0.589274
0.589293
0.589313
0.589332
0.589332
0.589352
0.589371
0.589391
0.58941
0.58941
0.58943
0.58945
0.589469
0.589489
0.589489
0.589509
0.589529
0.589548
0.589568
0.589568
0.589588
0.589608
0.589628
0.589648
0.589648
0.589667
0.589687
0.589707
0.589727
0.589727
0.589747
0.589767
0.589787
0.589807
0.589807
0.589827
0.589848
0.589868
0.589888
0.589888
0.589908
0.589928
0.589948
0.589969
0.589969
0.589989
0.590009
0.590029
0.59005
0.59005
0.59007
0.59009
0.590111
0.590131
0.590131
0.590152
0.590172
0.590192
0.590213
0.590213
0.590233
0.590254
0.590275
0.590295
0.590295
0.590316
0.590336
0.590357
0.590378
0.590378
0.590398
0.590419
0.59044
0.59046
0.59046
0.590481
0.590502
0.590522
0.590543
0.590543
0.590563
0.590584
0.590604
0.590625
0.590625
0.590645
0.590665
0.590685
0.590705
0.590705
0.590725
0.590745
0.590765
0.590785
0.590785
0.590805
0.590825
0.590845
0.590865
0.590865
0.590885
0.590905
0.590925
0.590945
0.590945
0.590965
0.590985
0.591006
0.591026
0.591026
0.591046
0.591066
0.591086
0.591107
0.591107
0.591127
0.591147
0.591167
0.591188
0.591188
0.591208
0.591228
0.591249
0.591269
0.591269
0.59129
0.59131
0.591331
0.591351
0.591351
0.591372
0.591392
0.591413
0.591433
0.591433
0.591454
0.591474
0.591495
0.591516
0.591516
0.591536
0.591557
0.591578
0.591598
0.591598
0.591619
0.59164
0.591661
0.591682
0.591682
0.591702
0.591723
0.591744
0.591765
0.591765
0.591786
0.591807
0.591828
0.591849
0.591849
0.59187
0.591891
0.591912
0.591933
0.591933
0.591954
0.591975
0.591996
0.592017
0.592017
0.592038
0.59206
0.592081
0.592102
0.592102
0.592123
0.592145
0.592166
0.592187
0.592187
0.592208
0.59223
0.592251
0.592273
0.592273
0.592294
0.592315
0.592337
0.592358
0.592358
0.59238
0.592401
0.592423
0.592444
0.592444
0.592466
0.592487
0.592509
0.592531
0.592531
0.592552
0.592574
0.592596
0.592617
0.592617
0.592639
0.592661
0.592683
0.592704
0.592704
0.592726
0.592748
0.59277
0.592792
0.592792
0.592814
0.592836
0.592857
0.592879
0.592879
0.592901
0.592923
0.592945
0.592967
0.592967
0.592989
0.593011
0.593034
0.593056
0.593056
0.593078
0.5931
0.593122
0.593144
0.593144
0.593167
0.593189
0.593211
0.593233
0.593233
0.593256
0.593278
0.5933
0.593323
0.593323
0.593345
0.593367
0.59339
0.593412
0.593412
0.593435
0.593457
0.59348
0.593502
0.593502
0.593525
0.593547
0.59357
0.593592
0.593592
0.593615
0.593638
0.59366
0.593683
0.593683
0.593706
0.593728
0.593751
0.593774
0.593774
0.593797
0.593819
0.593842
0.593865
0.593865
0.593888
0.593911
0.593934
0.593957
0.593957
0.593979
0.594002
0.594025
0.594048
0.594048
0.594071
0.594094
0.594118
0.594141
0.594141
0.594164
0.594187
0.59421
0.594233
0.594233
0.594256
0.594279
0.594303
0.594326
0.594326
0.594349
0.594372
0.594396
0.594419
0.594419
0.594442
0.594466
0.594489
0.594513
0.594513
0.594536
0.594559
0.594583
0.594606
0.594606
0.59463
0.594653
0.594677
0.5947
0.5947
0.594724
0.594748
0.594771
0.594795
0.594795
0.594819
0.594842
0.594866
0.59489
0.59489
0.594913
0.594937
0.594961
0.594985
0.594985
0.595009
0.595032
0.595056
0.59508
0.59508
0.595104
0.595128
0.595152
0.595176
0.595176
0.5952
0.595224
0.595248
0.595272
0.595272
0.595296
0.59532
0.595344
0.595368
0.595368
0.595392
0.595416
0.595441
0.595465
0.595465
0.595489
0.595513
0.595538
0.595562
0.595562
0.595586
0.59561
0.595635
0.595659
0.595659
0.595684
0.595708
0.595732
0.595757
0.595757
0.595781
0.595806
0.59583
0.595855
0.595855
0.595879
0.595904
0.595928
0.595953
0.595953
0.595978
0.596002
0.596027
0.596052
0.596052
0.596076
0.596101
0.596126
0.59615
0.59615
0.596175
0.5962
0.596225
0.59625
0.59625
0.596275
0.596299
0.596324
0.596349
0.596349
0.596374
0.596399
0.596424
0.596449
0.596449
0.596474
0.596499
0.596524
0.596549
0.596549
0.596574
0.596599
0.596625
0.59665
0.59665
0.596675
0.5967
0.596725
0.596751
0.596751
0.596776
0.596801
0.596826
0.596852
0.596852
0.596877
0.596902
0.596928
0.596953
0.596953
0.596979
0.597004
0.597029
0.597055
0.597055
0.59708
0.597106
0.597131
0.597157
0.597157
0.597183
0.597208
0.597234
0.597259
0.597259
0.597285
0.597311
0.597336
0.597362
0.597362
0.597388
0.597414
0.597439
0.597465
0.597465
0.597491
0.597517
0.597543
0.597568
0.597568
0.597594
0.59762
0.597646
0.597672
0.597672
0.597698
0.597724
0.59775
0.597776
0.597776
0.597802
0.597828
0.597854
0.59788
0.59788
0.597906
0.597933
0.597959
0.597985
0.597985
0.598011
0.598037
0.598064
0.59809
0.59809
0.598116
0.598142
0.598169
0.598195
0.598195
0.598221
0.598248
0.598274
0.598301
0.598301
0.598327
0.598354
0.59838
0.598406
0.598406
0.598433
0.59846
0.598486
0.598513
0.598513
0.598539
0.598566
0.598593
0.598619
0.598619
0.598646
0.598673
0.598699
0.598726
0.598726
0.598753
0.598779
0.598806
0.598833
0.598833
0.59886
0.598887
0.598914
0.598941
0.598941
0.598967
0.598994
0.599021
0.599048
0.599048
0.599075
0.599102
0.599129
0.599156
0.599156
0.599183
0.59921
0.599238
0.599265
0.599265
0.599292
0.599319
0.599346
0.599373
0.599373
0.599401
0.599428
0.599455
0.599482
0.599482
0.59951
0.599537
0.599564
0.599592
0.599592
0.599619
0.599646
0.599674
0.599701
0.599701
0.599729
0.599756
0.599784
0.599811
0.599811
0.599839
0.599866
0.599894
0.599922
0.599922
0.599949
0.599977
0.600004
0.600032
0.600032
0.60006
0.600087
0.600115
0.600143
0.600143
0.600171
0.600199
0.600226
0.600254
0.600254
0.600282
0.60031
0.600338
0.600366
0.600366
0.600394
0.600421
0.600449
0.600477
0.600477
0.600505
0.600533
0.600561
0.60059
0.60059
0.600618
0.600646
0.600674
0.600702
0.600702
0.60073
0.600758
0.600787
0.600815
0.600815
0.600843
0.600871
0.600899
0.600928
0.600928
0.600956
0.600984
0.601013
0.601041
0.601041
0.60107
0.601098
0.601126
0.601155
0.601155
0.601183
0.601212
0.60124
0.601269
0.601269
0.601297
0.601326
0.601354
0.601383
0.601383
0.601412
0.60144
0.601469
0.601498
0.601498
0.601526
0.601555
0.601584
0.601613
0.601613
0.601641
0.60167
0.601699
0.601728
0.601728
0.601757
0.601786
0.601814
0.601843
0.601843
0.601872
0.601901
0.60193
0.601959
0.601959
0.601988
0.602017
0.602046
0.602075
0.602075
0.602104
0.602133
0.602163
0.602192
0.602192
0.602221
0.60225
0.602279
0.602309
0.602309
0.602338
0.602367
0.602396
0.602426
0.602426
0.602455
0.602484
0.602514
0.602543
0.602543
0.602572
0.602602
0.602631
0.602661
0.602661
0.60269
0.60272
0.602749
0.602779
0.602779
0.602808
0.602838
0.602867
0.602897
0.602897
0.602927
0.602956
0.602986
0.603016
0.603016
0.603045
0.603075
0.603105
0.603134
0.603134
0.603164
0.603194
0.603224
0.603254
0.603254
0.603284
0.603313
0.603343
0.603373
0.603373
0.603403
0.603433
0.603463
0.603493
0.603493
0.603523
0.603553
0.603583
0.603613
0.603613
0.603643
0.603673
0.603703
0.603733
0.603733
0.603764
0.603794
0.603824
0.603854
0.603854
0.603884
0.603914
0.603944
0.603974
0.603974
0.604003
0.604033
0.604063
0.604092
0.604092
0.604122
0.604151
0.60418
0.604209
0.604209
0.604238
0.604267
0.604296
0.604325
0.604325
0.604354
0.604383
0.604412
0.60444
0.60444
0.604469
0.604498
0.604527
0.604556
0.604556
0.604585
0.604614
0.604642
0.604671
0.604671
0.6047
0.604729
0.604758
0.604787
0.604787
0.604816
0.604845
0.604874
0.604903
0.604903
0.604932
0.604961
0.604991
0.60502
0.60502
0.605049
0.605078
0.605107
0.605136
0.605136
0.605166
0.605195
0.605224
0.605253
0.605253
0.605283
0.605312
0.605341
0.605371
0.605371
0.6054
0.605429
0.605459
0.605488
0.605488
0.605518
0.605547
0.605576
0.605606
0.605606
0.605635
0.605665
0.605694
0.605724
0.605724
0.605754
0.605783
0.605813
0.605842
0.605842
0.605872
0.605902
0.605931
0.605961
0.605961
0.605991
0.60602
0.60605
0.60608
0.60608
0.60611
0.60614
0.606169
0.606199
0.606199
0.606229
0.606259
0.606289
0.606319
0.606319
0.606349
0.606379
0.606408
0.606438
0.606438
0.606468
0.606498
0.606528
0.606559
0.606559
0.606589
0.606619
0.606649
0.606679
0.606679
0.606709
0.606739
0.606769
0.606799
0.606799
0.60683
0.60686
0.60689
0.60692
0.60692
0.606951
0.606981
0.607011
0.607042
0.607042
0.607072
0.607102
0.607133
0.607163
0.607163
0.607193
0.607224
0.607254
0.607285
0.607285
0.607315
0.607346
0.607376
0.607407
0.607407
0.607437
0.607468
0.607498
0.607529
0.607529
0.60756
0.60759
0.607621
0.607652
0.607652
0.607682
0.607713
0.607744
0.607775
0.607775
0.607805
0.607836
0.607867
0.607898
0.607898
0.607928
0.607959
0.60799
0.608021
0.608021
0.608052
0.608083
0.608114
0.608145
0.608145
0.608176
0.608207
0.608238
0.608269
0.608269
0.6083
0.608331
0.608362
0.608393
0.608393
0.608424
0.608455
0.608486
0.608517
0.608517
0.608549
0.60858
0.608611
0.608642
0.608642
0.608674
0.608705
0.608736
0.608767
0.608767
0.608799
0.60883
0.608861
0.608893
0.608893
0.608924
0.608955
0.608987
0.609018
0.609018
0.60905
0.609081
0.609113
0.609144
0.609144
0.609176
0.609207
0.609239
0.60927
0.60927
0.609302
0.609334
0.609365
0.609397
0.609397
0.609429
0.60946
0.609492
0.609524
0.609524
0.609555
0.609587
0.609619
0.609651
0.609651
0.609682
0.609714
0.609746
0.609778
0.609778
0.60981
0.609842
0.609874
0.609905
0.609905
0.609937
0.609969
0.610001
0.610033
0.610033
0.610065
0.610097
0.610129
0.610161
0.610161
0.610194
0.610226
0.610258
0.61029
0.61029
0.610322
0.610354
0.610386
0.610418
0.610418
0.610451
0.610483
0.610515
0.610547
0.610547
0.61058
0.610612
0.610644
0.610677
0.610677
0.610709
0.610741
0.610774
0.610806
0.610806
0.610839
0.610871
0.610903
0.610936
0.610936
0.610968
0.611001
0.611033
0.611066
0.611066
0.611098
0.611131
0.611164
0.611196
0.611196
0.611229
0.611261
0.611294
0.611327
0.611327
0.611359
0.611392
0.611425
0.611458
0.611458
0.61149
0.611523
0.611556
0.611589
0.611589
0.611622
0.611654
0.611687
0.61172
0.61172
0.611753
0.611786
0.611819
0.611852
0.611852
0.611885
0.611918
0.611951
0.611984
0.611984
0.612017
0.61205
0.612083
0.612116
0.612116
0.612149
0.612182
0.612215
0.612248
0.612248
0.612282
0.612315
0.612348
0.612381
0.612381
0.612414
0.612448
0.612481
0.612514
0.612514
0.612547
0.612581
0.612614
0.612647
0.612647
0.612681
0.612714
0.612748
0.612781
0.612781
0.612814
0.612848
0.612881
0.612915
0.612915
0.612948
0.612982
0.613015
0.613049
0.613049
0.613082
0.613116
0.61315
0.613183
0.613183
0.613217
0.613251
0.613284
0.613318
0.613318
0.613352
0.613385
0.613419
0.613453
0.613453
0.613487
0.61352
0.613554
0.613588
0.613588
0.613622
0.613656
0.61369
0.613723
0.613723
0.613757
0.613791
0.613825
0.613859
0.613859
0.613893
0.613927
0.613961
0.613995
0.613995
0.614029
0.614063
0.614097
0.614131
0.614131
0.614165
0.6142
0.614234
0.614268
0.614268
0.614302
0.614336
0.61437
0.614405
0.614405
0.614439
0.614473
0.614507
0.614542
0.614542
0.614576
0.61461
0.614645
0.614679
0.614679
0.614713
0.614748
0.614782
0.614817
0.614817
0.614851
0.614885
0.61492
0.614954
0.614954
0.614989
0.615023
0.615058
0.615092
0.615092
0.615127
0.615162
0.615196
0.615231
0.615231
0.615265
0.6153
0.615335
0.61537
0.61537
0.615404
0.615439
0.615474
0.615508
0.615508
0.615543
0.615578
0.615613
0.615648
0.615648
0.615682
0.615717
0.615752
0.615787
0.615787
0.615822
0.615857
0.615892
0.615926
0.615926
0.615961
0.615996
0.616031
0.616066
0.616066
0.616101
0.616135
0.61617
0.616205
0.616205
0.616239
0.616274
0.616308
0.616342
0.616342
0.616376
0.61641
0.616444
0.616478
0.616478
0.616512
0.616545
0.616579
0.616612
0.616612
0.616646
0.616679
0.616712
0.616746
0.616746
0.616779
0.616812
0.616846
0.616879
0.616879
0.616912
0.616945
0.616979
0.617012
0.617012
0.617045
0.617078
0.617112
0.617145
0.617145
0.617178
0.617212
0.617245
0.617278
0.617278
0.617312
0.617345
0.617379
0.617412
0.617412
0.617446
0.617479
0.617513
0.617546
0.617546
0.61758
0.617613
0.617647
0.61768
0.61768
0.617714
0.617747
0.617781
0.617815
0.617815
0.617848
0.617882
0.617915
0.617949
0.617949
0.617983
0.618017
0.61805
0.618084
0.618084
0.618118
0.618152
0.618185
0.618219
0.618219
0.618253
0.618287
0.618321
0.618355
0.618355
0.618388
0.618422
0.618456
0.61849
0.61849
0.618524
0.618558
0.618592
0.618626
0.618626
0.61866
0.618694
0.618728
0.618762
0.618762
0.618796
0.61883
0.618864
0.618898
0.618898
0.618933
0.618967
0.619001
0.619035
0.619035
0.619069
0.619103
0.619138
0.619172
0.619172
0.619206
0.61924
0.619275
0.619309
0.619309
0.619343
0.619377
0.619412
0.619446
0.619446
0.61948
0.619515
0.619549
0.619584
0.619584
0.619618
0.619652
0.619687
0.619721
0.619721
0.619756
0.61979
0.619825
0.619859
0.619859
0.619894
0.619928
0.619963
0.619998
0.619998
0.620032
0.620067
0.620101
0.620136
0.620136
0.620171
0.620205
0.62024
0.620275
0.620275
0.62031
0.620344
0.620379
0.620414
0.620414
0.620449
0.620483
0.620518
0.620553
0.620553
0.620588
0.620623
0.620658
0.620692
0.620692
0.620727
0.620762
0.620797
0.620832
0.620832
0.620867
0.620902
0.620937
0.620972
0.620972
0.621007
0.621042
0.621077
0.621112
0.621112
0.621147
0.621182
0.621217
0.621253
0.621253
0.621288
0.621323
0.621358
0.621393
0.621393
0.621428
0.621464
0.621499
0.621534
0.621534
0.621569
0.621605
0.62164
0.621675
0.621675
0.62171
0.621746
0.621781
0.621816
0.621816
0.621852
0.621887
0.621923
0.621958
0.621958
0.621993
0.622029
0.622064
0.6221
0.6221
0.622135
0.622171
0.622206
0.622242
0.622242
0.622277
0.622313
0.622348
0.622384
0.622384
0.62242
0.622455
0.622491
0.622527
0.622527
0.622562
0.622598
0.622634
0.622669
0.622669
0.622705
0.622741
0.622777
0.622812
0.622812
0.622848
0.622884
0.62292
0.622955
0.622955
0.622991
0.623027
0.623063
0.623099
0.623099
0.623135
0.623171
0.623207
0.623243
0.623243
0.623279
0.623315
0.623351
0.623387
0.623387
0.623423
0.623459
0.623495
0.623531
0.623531
0.623567
0.623603
0.623639
0.623675
0.623675
0.623711
0.623747
0.623783
0.62382
0.62382
0.623856
0.623892
0.623928
0.623964
0.623964
0.624001
0.624037
0.624073
0.62411
0.62411
0.624146
0.624182
0.624218
0.624255
0.624255
0.624291
0.624328
0.624364
0.6244
0.6244
0.624437
0.624473
0.62451
0.624546
0.624546
0.624583
0.624619
0.624656
0.624692
0.624692
0.624729
0.624765
0.624802
0.624838
0.624838
0.624875
0.624912
0.624948
0.624985
0.624985
0.625021
0.625058
0.625095
0.625131
0.625131
0.625168
0.625205
0.625242
0.625278
0.625278
0.625315
0.625352
0.625389
0.625426
0.625426
0.625462
0.625499
0.625536
0.625573
0.625573
0.62561
0.625647
0.625684
0.62572
0.62572
0.625757
0.625794
0.625831
0.625868
0.625868
0.625905
0.625942
0.625979
0.626016
0.626016
0.626053
0.626091
0.626128
0.626165
0.626165
0.626202
0.626239
0.626276
0.626313
0.626313
0.62635
0.626388
0.626425
0.626462
0.626462
0.626499
0.626536
0.626574
0.626611
0.626611
0.626648
0.626685
0.626723
0.62676
0.62676
0.626797
0.626835
0.626872
0.626909
0.626909
0.626947
0.626984
0.627021
0.627059
0.627059
0.627096
0.627133
0.62717
0.627207
0.627207
0.627244
0.627281
0.627318
0.627355
0.627355
0.627392
0.627428
0.627465
0.627501
0.627501
0.627537
0.627573
0.62761
0.627645
0.627645
0.627681
0.627717
0.627753
0.627788
0.627788
0.627824
0.62786
0.627895
0.62793
0.62793
0.627966
0.628001
0.628037
0.628072
0.628072
0.628108
0.628143
0.628178
0.628214
0.628214
0.628249
0.628285
0.62832
0.628356
0.628356
0.628391
0.628427
0.628462
0.628498
0.628498
0.628533
0.628569
0.628604
0.62864
0.62864
0.628675
0.628711
0.628747
0.628782
0.628782
0.628818
0.628853
0.628889
0.628925
0.628925
0.62896
0.628996
0.629032
0.629068
0.629068
0.629103
0.629139
0.629175
0.629211
0.629211
0.629246
0.629282
0.629318
0.629354
0.629354
0.62939
0.629425
0.629461
0.629497
0.629497
0.629533
0.629569
0.629605
0.629641
0.629641
0.629677
0.629713
0.629749
0.629785
0.629785
0.629821
0.629857
0.629893
0.629929
0.629929
0.629965
0.630001
0.630037
0.630073
0.630073
0.630109
0.630145
0.630181
0.630217
0.630217
0.630254
0.63029
0.630326
0.630362
0.630362
0.630398
0.630434
0.630471
0.630507
0.630507
0.630543
0.630579
0.630616
0.630652
0.630652
0.630688
0.630725
0.630761
0.630797
0.630797
0.630834
0.63087
0.630906
0.630943
0.630943
0.630979
0.631016
0.631052
0.631088
0.631088
0.631125
0.631161
0.631198
0.631234
0.631234
0.631271
0.631307
0.631344
0.63138
0.63138
0.631417
0.631453
0.63149
0.631527
0.631527
0.631563
0.6316
0.631636
0.631673
0.631673
0.63171
0.631746
0.631783
0.63182
0.63182
0.631856
0.631893
0.63193
0.631967
0.631967
0.632003
0.63204
0.632077
0.632114
0.632114
0.632151
0.632187
0.632224
0.632261
0.632261
0.632298
0.632335
0.632372
0.632409
0.632409
0.632445
0.632482
0.632519
0.632556
0.632556
0.632593
0.63263
0.632667
0.632704
0.632704
0.632741
0.632778
0.632815
0.632852
0.632852
0.632889
0.632926
0.632963
0.633
0.633
0.633038
0.633075
0.633112
0.633149
0.633149
0.633186
0.633223
0.63326
0.633298
0.633298
0.633335
0.633372
0.633409
0.633447
0.633447
0.633484
0.633521
0.633558
0.633596
0.633596
0.633633
0.63367
0.633708
0.633745
0.633745
0.633782
0.63382
0.633857
0.633894
0.633894
0.633932
0.633969
0.634007
0.634044
0.634044
0.634082
0.634119
0.634157
0.634194
0.634194
0.634232
0.634269
0.634307
0.634344
0.634344
0.634382
0.634419
0.634457
0.634494
0.634494
0.634532
0.63457
0.634607
0.634645
0.634645
0.634683
0.63472
0.634758
0.634796
0.634796
0.634833
0.634871
0.634909
0.634946
0.634946
0.634984
0.635022
0.63506
0.635098
0.635098
0.635135
0.635173
0.635211
0.635249
0.635249
0.635287
0.635324
0.635362
0.6354
0.6354
0.635438
0.635476
0.635514
0.635552
0.635552
0.63559
0.635628
0.635666
0.635704
0.635704
0.635742
0.63578
0.635818
0.635856
0.635856
0.635894
0.635932
0.63597
0.636008
0.636008
0.636046
0.636084
0.636122
0.63616
0.63616
0.636199
0.636237
0.636275
0.636313
0.636313
0.636351
0.63639
0.636428
0.636466
0.636466
0.636504
0.636542
0.636581
0.636619
0.636619
0.636657
0.636695
0.636734
0.636772
0.636772
0.63681
0.636849
0.636887
0.636925
0.636925
0.636963
0.637001
0.63704
0.637078
0.637078
0.637116
0.637154
0.637192
0.63723
0.63723
0.637267
0.637305
0.637343
0.63738
0.63738
0.637417
0.637455
0.637492
0.637529
0.637529
0.637566
0.637603
0.637639
0.637676
0.637676
0.637713
0.637749
0.637786
0.637822
0.637822
0.637858
0.637894
0.637931
0.637967
0.637967
0.638003
0.638039
0.638075
0.638112
0.638112
0.638148
0.638184
0.63822
0.638256
0.638256
0.638293
0.638329
0.638365
0.638401
0.638401
0.638437
0.638474
0.63851
0.638546
0.638546
0.638582
0.638619
0.638655
0.638691
0.638691
0.638727
0.638764
0.6388
0.638836
0.638836
0.638873
0.638909
0.638945
0.638982
0.638982
0.639018
0.639055
0.639091
0.639127
0.639127
0.639164
0.6392
0.639237
0.639273
0.639273
0.63931
0.639346
0.639383
0.639419
0.639419
0.639456
0.639492
0.639529
0.639565
0.639565
0.639602
0.639639
0.639675
0.639712
0.639712
0.639748
0.639785
0.639822
0.639858
0.639858
0.639895
0.639932
0.639968
0.640005
0.640005
0.640042
0.640078
0.640115
0.640152
0.640152
0.640188
0.640225
0.640262
0.640299
0.640299
0.640336
0.640372
0.640409
0.640446
0.640446
0.640483
0.64052
0.640556
0.640593
0.640593
0.64063
0.640667
0.640704
0.640741
0.640741
0.640778
0.640815
0.640852
0.640889
0.640889
0.640926
0.640963
0.641
0.641036
0.641036
0.641073
0.64111
0.641148
0.641185
0.641185
0.641222
0.641259
0.641296
0.641333
0.641333
0.64137
0.641407
0.641444
0.641481
0.641481
0.641518
0.641555
0.641593
0.64163
0.64163
0.641667
0.641704
0.641741
0.641779
0.641779
0.641816
0.641853
0.64189
0.641927
0.641927
0.641965
0.642002
0.642039
0.642077
0.642077
0.642114
0.642151
0.642188
0.642226
0.642226
0.642263
0.6423
0.642338
0.642375
0.642375
0.642413
0.64245
0.642487
0.642525
0.642525
0.642562
0.6426
0.642637
0.642675
0.642675
0.642712
0.64275
0.642787
0.642825
0.642825
0.642862
0.6429
0.642937
0.642975
0.642975
0.643012
0.64305
0.643087
0.643125
0.643125
0.643163
0.6432
0.643238
0.643275
0.643275
0.643313
0.643351
0.643388
0.643426
0.643426
0.643464
0.643501
0.643539
0.643577
0.643577
0.643615
0.643652
0.64369
0.643728
0.643728
0.643766
0.643803
0.643841
0.643879
0.643879
0.643917
0.643955
0.643992
0.64403
0.64403
0.644068
0.644106
0.644144
0.644182
0.644182
0.64422
0.644258
0.644295
0.644333
0.644333
0.644371
0.644409
0.644447
0.644485
0.644485
0.644523
0.644561
0.644599
0.644637
0.644637
0.644675
0.644713
0.644751
0.644789
0.644789
0.644827
0.644865
0.644903
0.644942
0.644942
0.64498
0.645018
0.645056
0.645094
0.645094
0.645132
0.64517
0.645208
0.645247
0.645247
0.645285
0.645323
0.645361
0.645399
0.645399
0.645438
0.645476
0.645514
0.645552
0.645552
0.645591
0.645629
0.645667
0.645705
0.645705
0.645743
0.645782
0.64582
0.645858
0.645858
0.645896
0.645934
0.645972
0.64601
0.64601
0.646048
0.646085
0.646123