<?xml version="1.0"?>
<VTKFile type="UnstructuredGrid" version="0.1" byte_order="LittleEndian">
<UnstructuredGrid>
<Piece NumberOfPoints="5000" NumberOfCells="4000">
<PointData Scalars="Reaction 0">
<DataArray type="Float32" Name="Reaction 0" format="ascii">
0.47086
0.47086
0.47086
0.47086
0.47086
0.47086
0.47086
0.47086
0.470861
0.470861
0.470861
0.470861
0.470861
0.470861
0.470862
0.470862
0.470862
0.470862
0.470863
0.470863
0.470863
0.470864
0.470864
0.470864
0.470865
0.470865
0.470865
0.470866
0.470867
0.470867
0.470867
0.470868
0.470868
0.470869
0.47087
0.47087
0.470871
0.470871
0.470872
0.470873
0.470873
0.470874
0.470874
0.470875
0.470876
0.470876
0.470877
0.470878
0.470879
0.47088
0.47088
0.470881
0.470882
0.470883
0.470884
0.470884
0.470885
0.470887
0.470888
0.470889
0.470889
0.47089
0.470891
0.470893
0.470894
0.470894
0.470895
0.470897
0.470898
0.470899
0.470899
0.470901
0.470902
0.470904
0.470905
0.470905
0.470907
0.470908
0.47091
0.470912
0.470912
0.470913
0.470915
0.470917
0.470918
0.470918
0.47092
0.470922
0.470923
0.470925
0.470925
0.470927
0.470929
0.470931
0.470933
0.470933
0.470935
0.470937
0.470939
0.470941
0.470941
0.470943
0.470945
0.470947
0.470949
0.470949
0.470951
0.470953
0.470955
0.470958
0.470958
0.47096
0.470962
0.470964
0.470967
0.470967
0.470969
0.470971
0.470974
0.470976
0.470976
0.470979
0.470981
0.470983
0.470986
0.470986
0.470989
0.470991
0.470994
0.470996
0.470996
0.470999
0.471002
0.471004
0.471007
0.471007
0.47101
0.471012
0.471015
0.471018
0.471018
0.471021
0.471024
0.471027
0.47103
0.47103
0.471032
0.471035
0.471038
0.471041
0.471041
0.471044
0.471048
0.471051
0.471054
0.471054
0.471057
0.47106
0.471063
0.471066
0.471066
0.47107
0.471073
0.471076
0.47108
0.47108
0.471083
0.471086
0.47109
0.471093
0.471093
0.471097
0.4711
0.471103
0.471107
0.471107
0.471111
0.471114
0.471118
0.471121
0.471121
0.471125
0.471129
0.471132
0.471136
0.471136
0.47114
0.471144
0.471147
0.471151
0.471151
0.471155
0.471159
0.471163
0.471167
0.471167
0.471171
0.471175
0.471179
0.471183
0.471183
0.471187
0.471191
0.471195
0.471199
0.471199
0.471203
0.471207
0.471211
0.471216
0.471216
0.47122
0.471224
0.471229
0.471233
0.471233
0.471237
0.471242
0.471246
0.47125
0.47125
0.471255
0.471259
0.471264
0.471268
0.471268
0.471273
0.471277
0.471282
0.471287
0.471287
0.471291
0.471296
0.471301
0.471305
0.471305
0.47131
0.471315
0.47132
0.471325
0.471325
0.471329
0.471334
0.471339
0.471344
0.471344
0.471349
0.471354
0.471359
0.471364
0.471364
0.471369
0.471374
0.471379
0.471385
0.471385
0.47139
0.471395
0.4714
0.471405
0.471405
0.471411
0.471416
0.471421
0.471426
0.471426
0.471432
0.471437
0.471443
0.471448
0.471448
0.471453
0.471459
0.471464
0.47147
0.47147
0.471476
0.471481
0.471487
0.471492
0.471492
0.471498
0.471504
0.471509
0.471515
0.471515
0.471521
0.471527
0.471533
0.471538
0.471538
0.471544
0.47155
0.471556
0.471562
0.471562
0.471568
0.471574
0.47158
0.471586
0.471586
0.471592
0.471598
0.471604
0.47161
0.47161
0.471617
0.471623
0.471629
0.471635
0.471635
0.471641
0.471648
0.471654
0.47166
0.47166
0.471667
0.471673
0.47168
0.471686
0.471686
0.471692
0.471699
0.471705
0.471712
0.471712
0.471719
0.471725
0.471732
0.471738
0.471738
0.471745
0.471752
0.471758
0.471765
0.471765
0.471772
0.471779
0.471786
0.471792
0.471792
0.471799
0.471806
0.471813
0.47182
0.47182
0.471827
0.471834
0.471841
0.471848
0.471848
0.471855
0.471862
0.471869
0.471877
0.471877
0.471884
0.471891
0.471898
0.471905
0.471905
0.471913
0.47192
0.471927
0.471935
0.471935
0.471942
0.471949
0.471957
0.471964
0.471964
0.471972
0.471979
0.471987
0.471994
0.471994
0.472002
0.472009
0.472017
0.472025
0.472025
0.472032
0.47204
0.472048
0.472056
0.472056
0.472063
0.472071
0.472079
0.472087
0.472087
0.472095
0.472103
0.472111
0.472118
0.472118
0.472126
0.472134
0.472142
0.472151
0.472151
0.472159
0.472167
0.472175
0.472183
0.472183
0.472191
0.472199
0.472208
0.472216
0.472216
0.472224
0.472232
0.472241
0.472249
0.472249
0.472258
0.472266
0.472274
0.472283
0.472283
0.472291
0.4723
0.472308
0.472317
0.472317
0.472325
0.472334
0.472343
0.472351
0.472351
0.47236
0.472369
0.472377
0.472386
0.472386
0.472395
0.472404
0.472413
0.472422
0.472422
0.47243
0.472439
0.472448
0.472457
0.472457
0.472466
0.472475
0.472484
0.472493
0.472493
0.472502
0.472511
0.472521
0.47253
0.47253
0.472539
0.472548
0.472557
0.472567
0.472567
0.472576
0.472585
0.472595
0.472604
0.472604
0.472613
0.472623
0.472632
0.472642
0.472642
0.472651
0.472661
0.47267
0.47268
0.47268
0.472689
0.472699
0.472709
0.472718
0.472718
0.472728
0.472738
0.472747
0.472757
0.472757
0.472767
0.472777
0.472787
0.472796
0.472796
0.472806
0.472816
0.472826
0.472836
0.472836
0.472846
0.472856
0.472866
0.472876
0.472876
0.472886
0.472896
0.472907
0.472917
0.472917
0.472927
0.472937
0.472947
0.472958
0.472958
0.472968
0.472978
0.472989
0.472999
0.472999
0.473009
0.47302
0.47303
0.473041
0.473041
0.473051
0.473062
0.473072
0.473083
0.473083
0.473093
0.473104
0.473115
0.473125
0.473125
0.473136
0.473147
0.473158
0.473168
0.473168
0.473179
0.47319
0.473201
0.473212
0.473212
0.473223
0.473233
0.473244
0.473255
0.473255
0.473266
0.473277
0.473288
0.473299
0.473299
0.473311
0.473322
0.473333
0.473344
0.473344
0.473355
0.473366
0.473378
0.473389
0.473389
0.4734
0.473412
0.473423
0.473434
0.473434
0.473446
0.473457
0.473469
0.47348
0.47348
0.473492
0.473503
0.473515
0.473526
0.473526
0.473538
0.473549
0.473561
0.473573
0.473573
0.473584
0.473596
0.473608
0.47362
0.47362
0.473631
0.473643
0.473655
0.473667
0.473667
0.473679
0.473691
0.473703
0.473715
0.473715
0.473727
0.473739
0.473751
0.473763
0.473763
0.473775
0.473787
0.473799
0.473812
0.473812
0.473824
0.473836
0.473848
0.47386
0.47386
0.473873
0.473885
0.473897
0.47391
0.47391
0.473922
0.473935
0.473947
0.47396
0.47396
0.473972
0.473985
0.473997
0.47401
0.47401
0.474022
0.474035
0.474048
0.47406
0.47406
0.474073
0.474086
0.474099
0.474111
0.474111
0.474124
0.474137
0.47415
0.474163
0.474163
0.474176
0.474189
0.474201
0.474214
0.474214
0.474227
0.47424
0.474254
0.474267
0.474267
0.47428
0.474293
0.474306
0.474319
0.474319
0.474332
0.474346
0.474359
0.474372
0.474372
0.474385
0.474399
0.474412
0.474426
0.474426
0.474439
0.474452
0.474466
0.474479
0.474479
0.474493
0.474506
0.47452
0.474534
0.474534
0.474547
0.474561
0.474574
0.474588
0.474588
0.474602
0.474616
0.474629
0.474643
0.474643
0.474657
0.474671
0.474685
0.474699
0.474699
0.474712
0.474726
0.47474
0.474754
0.474754
0.474768
0.474782
0.474796
0.47481
0.47481
0.474825
0.474839
0.474853
0.474867
0.474867
0.474881
0.474896
0.47491
0.474924
0.474924
0.474938
0.474953
0.474967
0.474981
0.474981
0.474996
0.47501
0.475025
0.475039
0.475039
0.475054
0.475068
0.475083
0.475097
0.475097
0.475112
0.475127
0.475141
0.475156
0.475156
0.475171
0.475186
0.4752
0.475215
0.475215
0.47523
0.475245
0.47526
0.475274
0.475274
0.475289
0.475304
0.475319
0.475334
0.475334
0.475349
0.475364
0.475379
0.475395
0.475395
0.47541
0.475425
0.47544
0.475455
0.475455
0.47547
0.475486
0.475501
0.475516
0.475516
0.475531
0.475547
0.475562
0.475578
0.475578
0.475593
0.475608
0.475624
0.475639
0.475639
0.475655
0.47567
0.475686
0.475702
0.475702
0.475717
0.475733
0.475749
0.475764
0.475764
0.47578
0.475796
0.475811
0.475827
0.475827
0.475843
0.475859
0.475875
0.475891
0.475891
0.475907
0.475922
0.475938
0.475954
0.475954
0.47597
0.475987
0.476003
0.476019
0.476019
0.476035
0.476051
0.476067
0.476083
0.476083
0.4761
0.476116
0.476132
0.476148
0.476148
0.476165
0.476181
0.476197
0.476214
0.476214
0.47623
0.476247
0.476263
0.47628
0.47628
0.476296
0.476313
0.476329
0.476346
0.476346
0.476362
0.476379
0.476396
0.476412
0.476412
0.476429
0.476446
0.476463
0.476479
0.476479
0.476496
0.476513
0.47653
0.476547
0.476547
0.476564
0.476581
0.476598
0.476615
0.476615
0.476632
0.476649
0.476666
0.476683
0.476683
0.4767
0.476717
0.476734
0.476752
0.476752
0.476769
0.476786
0.476803
0.476821
0.476821
0.476838
0.476855
0.476873
0.47689
0.47689
0.476907
0.476925
0.476942
0.47696
0.47696
0.476977
0.476995
0.477013
0.47703
0.47703
0.477048
0.477065
0.477083
0.477101
0.477101
0.477118
0.477136
0.477154
0.477172
0.477172
0.47719
0.477207
0.477225
0.477243
0.477243
0.477261
0.477279
0.477297
0.477315
0.477315
0.477333
0.477351
0.477369
0.477387
0.477387
0.477405
0.477424
0.477442
0.47746
0.47746
0.477478
0.477496
0.477515
0.477533
0.477533
0.477551
0.47757
0.477588
0.477606
0.477606
0.477625
0.477643
0.477662
0.47768
0.47768
0.477699
0.477717
0.477736
0.477754
0.477754
0.477773
0.477792
0.47781
0.477829
0.477829
0.477848
0.477867
0.477885
0.477904
0.477904
0.477923
0.477942
0.477961
0.47798
0.47798
0.477999
0.478017
0.478036
0.478055
0.478055
0.478074
0.478093
0.478113
0.478132
0.478132
0.478151
0.47817
0.478189
0.478208
0.478208
0.478228
0.478247
0.478266
0.478285
0.478285
0.478305
0.478324
0.478343
0.478363
0.478363
0.478382
0.478402
0.478421
0.478441
0.478441
0.47846
0.47848
0.478499
0.478519
0.478519
0.478538
0.478558
0.478578
0.478598
0.478598
0.478617
0.478637
0.478657
0.478677
0.478677
0.478696
0.478716
0.478736
0.478756
0.478756
0.478776
0.478796
0.478816
0.478836
0.478836
0.478856
0.478876
0.478896
0.478916
0.478916
0.478936
0.478956
0.478977
0.478997
0.478997
0.479017
0.479037
0.479057
0.479078
0.479078
0.479098
0.479118
0.479139
0.479159
0.479159
0.47918
0.4792
0.479221
0.479241
0.479241
0.479262
0.479282
0.479303
0.479323
0.479323
0.479344
0.479365
0.479385
0.479406
0.479406
0.479427
0.479447
0.479468
0.479489
0.479489
0.47951
0.479531
0.479551
0.479572
0.479572
0.479593
0.479614
0.479635
0.479656
0.479656
0.479677
0.479698
0.479719
0.47974
0.47974
0.479762
0.479783
0.479804
0.479825
0.479825
0.479846
0.479868
0.479889
0.47991
0.47991
0.479931
0.479953
0.479974
0.479996
0.479996
0.480017
0.480038
0.48006
0.480081
0.480081
0.480103
0.480124
0.480146
0.480168
0.480168
0.480189
0.480211
0.480233
0.480254
0.480254
0.480276
0.480298
0.480319
0.480341
0.480341
0.480363
0.480385
0.480407
0.480429
0.480429
0.480451
0.480473
0.480495
0.480517
0.480517
0.480539
0.480561
0.480583
0.480605
0.480605
0.480627
0.480649
0.480671
0.480693
0.480693
0.480716
0.480738
0.48076
0.480782
0.480782
0.480805
0.480827
0.480849
0.480872
0.480872
0.480894
0.480917
0.480939
0.480962
0.480962
0.480984
0.481007
0.481029
0.481052
0.481052
0.481075
0.481097
0.48112
0.481143
0.481143
0.481165
0.481188
0.481211
0.481234
0.481234
0.481256
0.481279
0.481302
0.481325
0.481325
0.481348
0.481371
0.481394
0.481417
0.481417
0.48144
0.481463
0.481486
0.481509
0.481509
0.481532
0.481555
0.481578
0.481602
0.481602
0.481625
0.481648
0.481671
0.481695
0.481695
0.481718
0.481741
0.481765
0.481788
0.481788
0.481811
0.481835
0.481858
0.481882
0.481882
0.481905
0.481929
0.481952
0.481976
0.481976
0.482
0.482023
0.482047
0.482071
0.482071
0.482094
0.482118
0.482142
0.482166
0.482166
0.482189
0.482213
0.482237
0.482261
0.482261
0.482285
0.482309
0.482333
0.482357
0.482357
0.482381
0.482405
0.482429
0.482453
0.482453
0.482477
0.482501
0.482525
0.48255
0.48255
0.482574
0.482598
0.482622
0.482647
0.482647
0.482671
0.482695
0.48272
0.482744
0.482744
0.482768
0.482793
0.482817
0.482842
0.482842
0.482866
0.482891
0.482915
0.48294
0.48294
0.482965
0.482989
0.483014
0.483039
0.483039
0.483063
0.483088
0.483113
0.483138
0.483138
0.483162
0.483187
0.483212
0.483237
0.483237
0.483262
0.483287
0.483312
0.483337
0.483337
0.483362
0.483387
0.483412
0.483437
0.483437
0.483462
0.483487
0.483512
0.483538
0.483538
0.483563
0.483588
0.483613
0.483639
0.483639
0.483664
0.483689
0.483715
0.48374
0.48374
0.483765
0.483791
0.483816
0.483842
0.483842
0.483867
0.483893
0.483918
0.483944
0.483944
0.483969
0.483995
0.484021
0.484046
0.484046
0.484072
0.484098
0.484124
0.484149
0.484149
0.484175
0.484201
0.484227
0.484253
0.484253
0.484279
0.484305
0.484331
0.484356
0.484356
0.484382
0.484409
0.484435
0.484461
0.484461
0.484487
0.484513
0.484539
0.484565
0.484565
0.484591
0.484618
0.484644
0.48467
0.48467
0.484696
0.484723
0.484749
0.484776
0.484776
0.484802
0.484828
0.484855
0.484881
0.484881
0.484908
0.484934
0.484961
0.484987
0.484987
0.485014
0.485041
0.485067
0.485094
0.485094
0.485121
0.485147
0.485174
0.485201
0.485201
0.485228
0.485254
0.485281
0.485308
0.485308
0.485335
0.485362
0.485389
0.485416
0.485416
0.485443
0.48547
0.485497
0.485524
0.485524
0.485551
0.485578
0.485605
0.485633
0.485633
0.48566
0.485687
0.485714
0.485742
0.485742
0.485769
0.485796
0.485823
0.485851
0.485851
0.485878
0.485906
0.485933
0.485961
0.485961
0.485988
0.486016
0.486043
0.486071
0.486071
0.486098
0.486126
0.486153
0.486181
0.486181
0.486209
0.486237
0.486264
0.486292
0.486292
0.48632
0.486348
0.486376
0.486403
0.486403
0.486431
0.486459
0.486487
0.486515
0.486515
0.486543
0.486571
0.486599
0.486627
0.486627
0.486655
0.486683
0.486711
0.48674
0.48674
0.486768
0.486796
0.486824
0.486853
0.486853
0.486881
0.486909
0.486937
0.486966
0.486966
0.486994
0.487023
0.487051
0.487079
0.487079
0.487108
0.487136
0.487165
0.487194
0.487194
0.487222
0.487251
0.487279
0.487308
0.487308
0.487337
0.487365
0.487394
0.487423
0.487423
0.487452
0.48748
0.487509
0.487538
0.487538
0.487567
0.487596
0.487625
0.487654
0.487654
0.487683
0.487712
0.487741
0.48777
0.48777
0.487799
0.487828
0.487857
0.487886
0.487886
0.487916
0.487945
0.487974
0.488003
0.488003
0.488032
0.488062
0.488091
0.48812
0.48812
0.48815
0.488179
0.488209
0.488238
0.488238
0.488268
0.488297
0.488327
0.488356
0.488356
0.488386
0.488415
0.488445
0.488475
0.488475
0.488504
0.488534
0.488564
0.488593
0.488593
0.488623
0.488653
0.488683
0.488713
0.488713
0.488742
0.488772
0.488802
0.488832
0.488832
0.488862
0.488892
0.488922
0.488952
0.488952
0.488982
0.489012
0.489042
0.489073
0.489073
0.489103
0.489133
0.489163
0.489193
0.489193
0.489224
0.489254
0.489284
0.489315
0.489315
0.489345
0.489375
0.489406
0.489436
0.489436
0.489467
0.489497
0.489528
0.489558
0.489558
0.489589
0.489619
0.48965
0.489681
0.489681
0.489711
0.489742
0.489773
0.489803
0.489803
0.489834
0.489865
0.489896
0.489927
0.489927
0.489957
0.489988
0.490019
0.49005
0.49005
0.490081
0.490112
0.490143
0.490174
0.490174
0.490205
0.490236
0.490267
0.490298
0.490298
0.49033
0.490361
0.490392
0.490423
0.490423
0.490454
0.490486
0.490517
0.490548
0.490548
0.49058
0.490611
0.490642
0.490674
0.490674
0.490705
0.490737
0.490768
0.4908
0.4908
0.490831
0.490863
0.490895
0.490926
0.490926
0.490958
0.490989
0.491021
0.491053
0.491053
0.491085
0.491116
0.491148
0.49118
0.49118
0.491212
0.491244
0.491276
0.491308
0.491308
0.491339
0.491371
0.491403
0.491435
0.491435
0.491467
0.4915
0.491532
0.491564
0.491564
0.491596
0.491628
0.49166
0.491692
0.491692
0.491725
0.491757
0.491789
0.491822
0.491822
0.491854
0.491886
0.491919
0.491951
0.491951
0.491983
0.492016
0.492048
0.492081
0.492081
0.492113
0.492146
0.492179
0.492211
0.492211
0.492244
0.492276
0.492309
0.492342
0.492342
0.492375
0.492407
0.49244
0.492473
0.492473
0.492506
0.492539
0.492571
0.492604
0.492604
0.492637
0.49267
0.492703
0.492736
0.492736
0.492769
0.492802
0.492835
0.492868
0.492868
0.492902
0.492935
0.492968
0.493001
0.493001
0.493034
0.493068
0.493101
0.493134
0.493134
0.493167
0.493201
0.493234
0.493268
0.493268
0.493301
0.493334
0.493368
0.493401
0.493401
0.493435
0.493468
0.493502
0.493536
0.493536
0.493569
0.493603
0.493636
0.49367
0.49367
0.493704
0.493738
0.493771
0.493805
0.493805
0.493839
0.493873
0.493907
0.493941
0.493941
0.493974
0.494008
0.494042
0.494076
0.494076
0.49411
0.494144
0.494178
0.494213
0.494213
0.494247
0.494281
0.494315
0.494349
0.494349
0.494383
0.494418
0.494452
0.494486
0.494486
0.49452
0.494555
0.494589
0.494623
0.494623
0.494658
0.494692
0.494727
0.494761
0.494761
0.494796
0.49483
0.494865
0.494899
0.494899
0.494934
0.494969
0.495003
0.495038
0.495038
0.495073
0.495107
0.495142
0.495177
0.495177
0.495212
0.495246
0.495281
0.495316
0.495316
0.495351
0.495386
0.495421
0.495456
0.495456
0.495491
0.495526
0.495561
0.495596
0.495596
0.495631
0.495666
0.495701
0.495736
0.495736
0.495772
0.495807
0.495842
0.495877
0.495877
0.495913
0.495948
0.495983
0.496019
0.496019
0.496054
0.496089
0.496125
0.49616
0.49616
0.496196
0.496231
0.496267
0.496302
0.496302
0.496338
0.496374
0.496409
0.496445
0.496445
0.49648
0.496516
0.496552
0.496588
0.496588
0.496623
0.496659
0.496695
0.496731
0.496731
0.496767
0.496803
0.496839
0.496875
0.496875
0.496911
0.496947
0.496983
0.497019
0.497019
0.497055
0.497091
0.497127
0.497163
0.497163
0.497199
0.497235
0.497272
0.497308
0.497308
0.497344
0.49738
0.497417
0.497453
0.497453
0.497489
0.497526
0.497562
0.497599
0.497599
0.497635
0.497672
0.497708
0.497745
0.497745
0.497781
0.497818
0.497854
0.497891
0.497891
0.497928
0.497964
0.498001
0.498038
0.498038
0.498075
0.498111
0.498148
0.498185
0.498185
0.498222
0.498259
0.498296
0.498332
0.498332
0.498369
0.498406
0.498443
0.49848
0.49848
0.498517
0.498555
0.498592
0.498629
0.498629
0.498666
0.498703
0.49874
0.498777
0.498777
0.498815
0.498852
0.498889
0.498927
0.498927
0.498964
0.499001
0.499039
0.499076
0.499076
0.499114
0.499151
0.499189
0.499226
0.499226
0.499264
0.499301
0.499339
0.499376
0.499376
0.499414
0.499452
0.499489
0.499527
0.499527
0.499565
0.499602
0.49964
0.499678
0.499678
0.499716
0.499754
0.499792
0.49983
0.49983
0.499867
0.499905
0.499943
0.499981
0.499981
0.500019
0.500057
0.500096
0.500134
0.500134
0.500172
0.50021
0.500248
0.500286
0.500286
0.500325
0.500363
0.500401
0.500439
0.500439
0.500478
0.500516
0.500554
0.500593
0.500593
0.500631
0.50067
0.500708
0.500747
0.500747
0.500785
0.500824
0.500862
0.500901
0.500901
0.500939
0.500978
0.501017
0.501055
0.501055
0.501094
0.501133
0.501172
0.50121
0.50121
0.501249
0.501288
0.501327
0.501366
0.501366
0.501405
0.501444
0.501482
0.501521
0.501521
0.50156
0.501599
0.501639
0.501678
0.501678
0.501717
0.501756
0.501795
0.501834
0.501834
0.501873
0.501913
0.501952
0.501991
0.501991
0.50203
0.50207
0.502109
0.502148
0.502148
0.502188
0.502227
0.502267
0.502306
0.502306
0.502346
0.502385
0.502425
0.502464
0.502464
0.502504
0.502543
0.502583
0.502623
0.502623
0.502662
0.502702
0.502742
0.502782
0.502782
0.502821
0.502861
0.502901
0.502941
0.502941
0.502981
0.503021
0.503061
0.503101
0.503101
0.503141
0.503181
0.503221
0.503261
0.503261
0.503301
0.503341
0.503381
0.503421
0.503421
0.503461
0.503501
0.503542
0.503582
0.503582
0.503622
0.503662
0.503703
0.503743
0.503743
0.503783
0.503824
0.503864
0.503905
0.503905
0.503945
0.503986
0.504026
0.504067
0.504067
0.504107
0.504148
0.504188
0.504229
0.504229
0.50427
0.50431
0.504351
0.504392
0.504392
0.504433
0.504473
0.504514
0.504555
0.504555
0.504596
0.504637
0.504678
0.504719
0.504719
0.504759
0.5048
0.504841
0.504882
0.504882
0.504924
0.504965
0.505006
0.505047
0.505047
0.505088
0.505129
0.50517
0.505212
0.505212
0.505253
0.505294
0.505335
0.505377
0.505377
0.505418
0.505459
0.505501
0.505542
0.505542
0.505584
0.505625
0.505667
0.505708
0.505708
0.50575
0.505791
0.505833
0.505874
0.505874
0.505916
0.505958
0.505999
0.506041
0.506041
0.506083
0.506124
0.506166
0.506208
0.506208
0.50625
0.506292
0.506334
0.506375
0.506375
0.506417
0.506459
0.506501
0.506543
0.506543
0.506585
0.506627
0.506669
0.506711
0.506711
0.506754
0.506796
0.506838
0.50688
0.50688
0.506922
0.506965
0.507007
0.507049
0.507049
0.507091
0.507134
0.507176
0.507218
0.507218
0.507261
0.507303
0.507346
0.507388
0.507388
0.507431
0.507473
0.507516
0.507558
0.507558
0.507601
0.507644
0.507686
0.507729
0.507729
0.507772
0.507814
0.507857
0.5079
0.5079
0.507943
0.507985
0.508028
0.508071
0.508071
0.508114
0.508157
0.5082
0.508243
0.508243
0.508286
0.508329
0.508372
0.508415
0.508415
0.508458
0.508501
0.508544
0.508587
0.508587
0.508631
0.508674
0.508717
0.50876
0.50876
0.508804
0.508847
0.50889
0.508934
0.508934
0.508977
0.50902
0.509064
0.509107
0.509107
0.509151
0.509194
0.509238
0.509281
0.509281
0.509325
0.509368
0.509412
0.509456
0.509456
0.509499
0.509543
0.509587
0.50963
0.50963
0.509674
0.509718
0.509762
0.509806
0.509806
0.509849
0.509893
0.509937
0.509981
0.509981
0.510025
0.510069
0.510113
0.510157
0.510157
0.510201
0.510245
0.510289
0.510333
0.510333
0.510378
0.510422
0.510466
0.51051
0.51051
0.510554
0.510599
0.510643
0.510687
0.510687
0.510732
0.510776
0.51082
0.510865
0.510865
0.510909
0.510954
0.510998
0.511043
0.511043
0.511087
0.511132
0.511176
0.511221
0.511221
0.511266
0.51131
0.511355
0.5114
0.5114
0.511444
0.511489
0.511534
0.511579
0.511579
0.511624
0.511668
0.511713
0.511758
0.511758
0.511803
0.511848
0.511893
0.511938
0.511938
0.511983
0.512028
0.512073
0.512118
0.512118
0.512163
0.512208
0.512254
0.512299
0.512299
0.512344
0.512389
0.512434
0.51248
0.51248
0.512525
0.51257
0.512616
0.512661
0.512661
0.512707
0.512752
0.512797
0.512843
0.512843
0.512888
0.512934
0.512979
0.513025
0.513025
0.513071
0.513116
0.513162
0.513208
0.513208
0.513253
0.513299
0.513345
0.51339
0.51339
0.513436
0.513482
0.513528
0.513574
0.513574
0.51362
0.513666
0.513711
0.513757
0.513757
0.513803
0.513849
0.513895
0.513941
0.513941
0.513988
0.514034
0.51408
0.514126
0.514126
0.514172
0.514218
0.514265
0.514311
0.514311
0.514357
0.514403
0.51445
0.514496
0.514496
0.514542
0.514589
0.514635
0.514682
0.514682
0.514728
0.514775
0.514821
0.514868
0.514868
0.514914
0.514961
0.515007
0.515054
0.515054
0.515101
0.515147
0.515194
0.515241
0.515241
0.515287
0.515334
0.515381
0.515428
0.515428
0.515475
0.515522
0.515568
0.515615
0.515615
0.515662
0.515709
0.515756
0.515803
0.515803
0.51585
0.515897
0.515944
0.515992
0.515992
0.516039
0.516086
0.516133
0.51618
0.51618
0.516227
0.516275
0.516322
0.516369
0.516369
0.516417
0.516464
0.516511
0.516559
0.516559
0.516606
0.516654
0.516701
0.516749
0.516749
0.516796
0.516844
0.516891
0.516939
0.516939
0.516986
0.517034
0.517082
0.517129
0.517129
0.517177
0.517225
0.517273
0.51732
0.51732
0.517368
0.517416
0.517464
0.517512
0.517512
0.51756
0.517608
0.517656
0.517704
0.517704
0.517752
0.5178
0.517848
0.517896
0.517896
0.517944
0.517992
0.51804
0.518088
0.518088
0.518136
0.518185
0.518233
0.518281
0.518281
0.518329
0.518378
0.518426
0.518474
0.518474
0.518523
0.518571
0.51862
0.518668
0.518668
0.518717
0.518765
0.518814
0.518862
0.518862
0.518911
0.518959
0.519008
0.519057
0.519057
0.519105
0.519154
0.519203
0.519251
0.519251
0.5193
0.519349
0.519398
0.519447
0.519447
0.519495
0.519544
0.519593
0.519642
0.519642
0.519691
0.51974
0.519789
0.519838
0.519838
0.519887
0.519936
0.519985
0.520034
0.520034
0.520084
0.520133
0.520182
0.520231
0.520231
0.52028
0.52033
0.520379
0.520428
0.520428
0.520478
0.520527
0.520576
0.520626
0.520626
0.520675
0.520725
0.520774
0.520824
0.520824
0.520873
0.520923
0.520972
0.521022
0.521022
0.521072
0.521121
0.521171
0.521221
0.521221
0.52127
0.52132
0.52137
0.52142
0.52142
0.521469
0.521519
0.521569
0.521619
0.521619
0.521669
0.521719
0.521769
0.521819
0.521819
0.521869
0.521919
0.521969
0.522019
0.522019
0.522069
0.522119
0.522169
0.52222
0.52222
0.52227
0.52232
0.52237
0.522421
0.522421
0.522471
0.522521
0.522571
0.522622
0.522622
0.522672
0.522723
0.522773
0.522824
0.522824
0.522874
0.522925
0.522975
0.523026
0.523026
0.523076
0.523127
0.523177
0.523228
0.523228
0.523279
0.523329
0.52338
0.523431
0.523431
0.523482
0.523533
0.523583
0.523634
0.523634
0.523685
0.523736
0.523787
0.523838
0.523838
0.523889
0.52394
0.523991
0.524042
0.524042
0.524093
0.524144
0.524195
0.524246
0.524246
0.524297
0.524349
0.5244
0.524451
0.524451
0.524502
0.524553
0.524605
0.524656
0.524656
0.524707
0.524759
0.52481
0.524862
0.524862
0.524913
0.524964
0.525016
0.525067
0.525067
0.525119
0.525171
0.525222
0.525274
0.525274
0.525325
0.525377
0.525429
0.52548
0.52548
0.525532
0.525584
0.525636
0.525687
0.525687
0.525739
0.525791
0.525843
0.525895
0.525895
0.525947
0.525999
0.526051
0.526103
0.526103
0.526155
0.526207
0.526259
0.526311
0.526311
0.526363
0.526415
0.526467
0.526519
0.526519
0.526572
0.526624
0.526676
0.526728
0.526728
0.526781
0.526833
0.526885
0.526938
0.526938
0.52699
0.527043
0.527095
0.527147
0.527147
0.5272
0.527252
0.527305
0.527358
0.527358
0.52741
0.527463
0.527515
0.527568
0.527568
0.527621
0.527673
0.527726
0.527779
0.527779
0.527832
0.527884
0.527937
0.52799
0.52799
0.528043
0.528096
0.528149
0.528202
0.528202
0.528255
0.528308
0.528361
0.528414
0.528414
0.528467
0.52852
0.528573
0.528626
0.528626
0.528679
0.528732
0.528786
0.528839
0.528839
0.528892
0.528945
0.528999
0.529052
0.529052
0.529105
0.529159
0.529212
0.529265
0.529265
0.529319
0.529372
0.529426
0.529479
0.529479
0.529533
0.529586
0.52964
0.529694
0.529694
0.529747
0.529801
0.529854
0.529908
0.529908
0.529962
0.530016
0.530069
0.530123
0.530123
0.530177
0.530231
0.530285
0.530339
0.530339
0.530392
0.530446
0.5305
0.530554
0.530554
0.530608
0.530662
0.530716
0.530771
0.530771
0.530825
0.530879
0.530933
0.530987
0.530987
0.531041
0.531095
0.53115
0.531204
0.531204
0.531258
0.531313
0.531367
0.531421
0.531421
0.531476
0.53153
0.531584
0.531639
0.531639
0.531693
0.531748
0.531802
0.531857
0.531857
0.531912
0.531966
0.532021
0.532075
0.532075
0.53213
0.532185
0.532239
0.532294
0.532294
0.532349
0.532404
0.532459
0.532513
0.532513
0.532568
0.532623
0.532678
0.532733
0.532733
0.532788
0.532843
0.532898
0.532953
0.532953
0.533008
0.533063
0.533118
0.533173
0.533173
0.533228
0.533284
0.533339
0.533394
0.533394
0.533449
0.533504
0.53356
0.533615
0.533615
0.53367
0.533726
0.533781
0.533836
0.533836
0.533892
0.533947
0.534003
0.534058
0.534058
0.534114
0.534169
0.534225
0.534281
0.534281
0.534336
0.534392
0.534447
0.534503
0.534503
0.534559
0.534615
0.53467
0.534726
0.534726
0.534782
0.534838
0.534894
0.534949
0.534949
0.535005
0.535061
0.535117
0.535173
0.535173
0.535229
0.535285
0.535341
0.535397
0.535397
0.535453
0.535509
0.535566
0.535622
0.535622
0.535678
0.535734
0.53579
0.535847
0.535847
0.535903
0.535959
0.536015
0.536072
0.536072
0.536128
0.536185
0.536241
0.536297
0.536297
0.536354
0.53641
0.536467
0.536523
0.536523
0.53658
0.536637
0.536693
0.53675
0.53675
0.536806
0.536863
0.53692
0.536976
0.536976
0.537033
0.53709
0.537147
0.537204
0.537204
0.53726
0.537317
0.537374
0.537431
0.537431
0.537488
0.537545
0.537602
0.537659
0.537659
0.537716
0.537773
0.53783
0.537887
0.537887
0.537944
0.538001
0.538059
0.538116
0.538116
0.538173
0.53823
0.538288
0.538345
0.538345
0.538402
0.538459
0.538517
0.538574
0.538574
0.538632
0.538689
0.538746
0.538804
0.538804
0.538861
0.538919
0.538976
0.539034
0.539034
0.539092
0.539149
0.539207
0.539265
0.539265
0.539322
0.53938
0.539438
0.539495
0.539495
0.539553
0.539611
0.539669
0.539727
0.539727
0.539785
0.539842
0.5399
0.539958
0.539958
0.540016
0.540074
0.540132
0.54019
0.54019
0.540248
0.540306
0.540365
0.540423
0.540423
0.540481
0.540539
0.540597
0.540655
0.540655
0.540714
0.540772
0.54083
0.540889
0.540889
0.540947
0.541005
0.541064
0.541122
0.541122
0.54118
0.541239
0.541297
0.541356
0.541356
0.541414
0.541473
0.541532
0.54159
0.54159
0.541649
0.541707
0.541766
0.541825
0.541825
0.541884
0.541942
0.542001
0.54206
0.54206
0.542119
0.542177
0.542236
0.542295
0.542295
0.542354
0.542413
0.542472
0.542531
0.542531
0.54259
0.542649
0.542708
0.542767
0.542767
0.542826
0.542885
0.542944
0.543004
0.543004
0.543063
0.543122
0.543181
0.54324
0.54324
0.5433
0.543359
0.543418
0.543478
0.543478
0.543537
0.543596
0.543656
0.543715
0.543715
0.543775
0.543834
0.543894
0.543953
0.543953
0.544013
0.544072
0.544132
0.544192
0.544192
0.544251
0.544311
0.544371
0.54443
0.54443
0.54449
0.54455
0.54461
0.54467
0.54467
0.544729
0.544789
0.544849
0.544909
0.544909
0.544969
0.545029
0.545089
0.545149
0.545149
0.545209
0.545269
0.545329
0.545389
0.545389
0.545449
0.545509
0.54557
0.54563
0.54563
0.54569
0.54575
0.545811
0.545871
0.545871
0.545931
0.545991
0.546052
0.546112
0.546112
0.546173
0.546233
0.546293
0.546354
0.546354
0.546414
0.546475
0.546535
0.546596
0.546596
0.546657
0.546717
0.546778
0.546839
0.546839
0.546899
0.54696
0.547021
0.547081
0.547081
0.547142
0.547203
0.547264
0.547325
0.547325
0.547385
0.547446
0.547507
0.547568
0.547568
0.547629
0.54769
0.547751
0.547812
0.547812
0.547873
0.547934
0.547995
0.548057
0.548057
0.548118
0.548179
0.54824
0.548301
0.548301
0.548363
0.548424
0.548485
0.548546
0.548546
0.548608
0.548669
0.54873
0.548792
0.548792
0.548853
0.548915
0.548976
0.549038
0.549038
0.549099
0.549161
0.549222
0.549284
0.549284
0.549346
0.549407
0.549469
0.54953
0.54953
0.549592
0.549654
0.549716
0.549777
0.549777
0.549839
0.549901
0.549963
0.550025
0.550025
0.550087
0.550149
0.550211
0.550272
0.550272
0.550334
0.550396
0.550459
0.550521
0.550521
0.550583
0.550645
0.550707
0.550769
0.550769
0.550831
0.550893
0.550956
0.551018
0.551018
0.55108
0.551142
0.551205
0.551267
0.551267
0.551329
0.551392
0.551454
0.551517
0.551517
0.551579
0.551642
0.551704
0.551767
0.551767
0.551829
0.551892
0.551954
0.552017
0.552017
0.552079
0.552142
0.552205
0.552268
0.552268
0.55233
0.552393
0.552456
0.552519
0.552519
0.552581
0.552644
0.552707
0.55277
0.55277
0.552833
0.552896
0.552959
0.553022
0.553022
0.553085
0.553148
0.553211
0.553274
0.553274
0.553337
0.5534
0.553463
0.553527
0.553527
0.55359
0.553653
0.553716
0.553779
0.553779
0.553843
0.553906
0.553969
0.554033
0.554033
0.554096
0.554159
0.554223
0.554286
0.554286
0.55435
0.554413
0.554477
0.55454
0.55454
0.554604
0.554668
0.554731
0.554795
0.554795
0.554858
0.554922
0.554986
0.55505
0.55505
0.555113
0.555177
0.555241
0.555305
0.555305
0.555369
0.555432
0.555496
0.55556
0.55556
0.555624
0.555688
0.555752
0.555816
0.555816
0.55588
0.555944
0.556008
0.556072
0.556072
0.556136
0.556201
0.556265
0.556329
0.556329
0.556393
0.556457
0.556522
0.556586
0.556586
0.55665
0.556715
0.556779
0.556843
0.556843
0.556908
0.556972
0.557037
0.557101
0.557101
0.557165
0.55723
0.557295
0.557359
0.557359
0.557424
0.557488
0.557553
0.557618
0.557618
0.557682
0.557747
0.557812
0.557876
0.557876
0.557941
0.558006
0.558071
0.558136
0.558136
0.5582
0.558265
0.55833
0.558395
0.558395
0.55846
0.558525
0.55859
0.558655
0.558655
0.55872
0.558785
0.55885
0.558915
0.558915
0.558981
0.559046
0.559111
0.559176
0.559176
0.559241
0.559307
0.559372
0.559437
0.559437
0.559502
0.559568