<?xml version="1.0"?>
<VTKFile type="UnstructuredGrid" version="0.1" byte_order="LittleEndian">
<UnstructuredGrid>
<Piece NumberOfPoints="5000" NumberOfCells="4000">
<PointData Scalars="Reaction 0">
<DataArray type="Float32" Name="Reaction 0" format="ascii">
1.00261
1.00261
1.00261
1.00261
1.00261
1.00261
1.00261
1.00261
1.00261
1.00261
1.00261
1.00261
1.00261
1.00261
1.00261
1.00261
1.00261
1.0026
1.0026
1.0026
1.0026
1.0026
1.0026
1.0026
1.0026
1.0026
1.0026
1.0026
1.0026
1.0026
1.0026
1.0026
1.0026
1.0026
1.0026
1.0026
1.0026
1.0026
1.0026
1.0026
1.0026
1.0026
1.0026
1.0026
1.0026
1.0026
1.0026
1.0026
1.0026
1.0026
1.0026
1.0026
1.0026
1.0026
1.0026
1.0026
1.0026
1.0026
1.0026
1.0026
1.0026
1.0026
1.0026
1.0026
1.0026
1.0026
1.0026
1.0026
1.0026
1.0026
1.0026
1.0026
1.0026
1.0026
1.0026
1.0026
1.0026
1.0026
1.0026
1.0026
1.0026
1.0026
1.0026
1.0026
1.0026
1.0026
1.0026
1.0026
1.0026
1.0026
1.0026
1.0026
1.0026
1.0026
1.0026
1.0026
1.0026
1.0026
1.0026
1.0026
1.0026
1.0026
1.0026
1.0026
1.0026
1.0026
1.0026
1.0026
1.0026
1.0026
1.0026
1.0026
1.0026
1.0026
1.0026
1.0026
1.0026
1.0026
1.0026
1.0026
1.0026
1.0026
1.0026
1.0026
1.0026
1.0026
1.0026
1.0026
1.0026
1.0026
1.0026
1.0026
1.0026
1.0026
1.0026
1.0026
1.0026
1.0026
1.0026
1.0026
1.0026
1.0026
1.0026
1.0026
1.0026
1.0026
1.0026
1.0026
1.0026
1.0026
1.0026
1.0026
1.00259
1.00259
1.00259
1.00259
1.00259
1.00259
1.00259
1.00259
1.00259
1.00259
1.00259
1.00259
1.00259
1.00259
1.00259
1.00259
1.00259
1.00259
1.00259
1.00259
1.00259
1.00259
1.00259
1.00259
1.00259
1.00259
1.00259
1.00259
1.00259
1.00259
1.00259
1.00259
1.00259
1.00259
1.00259
1.00259
1.00259
1.00259
1.00259
1.00259
1.00259
1.00259
1.00259
1.00259
1.00259
1.00259
1.00259
1.00259
1.00259
1.00259
1.00259
1.00259
1.00259
1.00259
1.00259
1.00259
1.00259
1.00259
1.00259
1.00259
1.00259
1.00259
1.00258
1.00258
1.00258
1.00258
1.00258
1.00258
1.00258
1.00258
1.00258
1.00258
1.00258
1.00258
1.00258
1.00258
1.00258
1.00258
1.00258
1.00258
1.00258
1.00258
1.00258
1.00258
1.00258
1.00258
1.00258
1.00258
1.00258
1.00258
1.00258
1.00258
1.00258
1.00258
1.00258
1.00258
1.00258
1.00258
1.00258
1.00258
1.00258
1.00258
1.00258
1.00258
1.00258
1.00258
1.00258
1.00258
1.00258
1.00258
1.00258
1.00257
1.00257
1.00257
1.00257
1.00257
1.00257
1.00257
1.00257
1.00257
1.00257
1.00257
1.00257
1.00257
1.00257
1.00257
1.00257
1.00257
1.00257
1.00257
1.00257
1.00257
1.00257
1.00257
1.00257
1.00257
1.00257
1.00257
1.00257
1.00257
1.00257
1.00257
1.00257
1.00257
1.00257
1.00257
1.00257
1.00257
1.00257
1.00257
1.00257
1.00256
1.00256
1.00256
1.00256
1.00256
1.00256
1.00256
1.00256
1.00256
1.00256
1.00256
1.00256
1.00256
1.00256
1.00256
1.00256
1.00256
1.00256
1.00256
1.00256
1.00256
1.00256
1.00256
1.00256
1.00256
1.00256
1.00256
1.00256
1.00256
1.00256
1.00256
1.00256
1.00256
1.00256
1.00256
1.00256
1.00255
1.00255
1.00255
1.00255
1.00255
1.00255
1.00255
1.00255
1.00255
1.00255
1.00255
1.00255
1.00255
1.00255
1.00255
1.00255
1.00255
1.00255
1.00255
1.00255
1.00255
1.00255
1.00255
1.00255
1.00255
1.00255
1.00255
1.00255
1.00255
1.00255
1.00255
1.00255
1.00255
1.00254
1.00254
1.00254
1.00254
1.00254
1.00254
1.00254
1.00254
1.00254
1.00254
1.00254
1.00254
1.00254
1.00254
1.00254
1.00254
1.00254
1.00254
1.00254
1.00254
1.00254
1.00254
1.00254
1.00254
1.00254
1.00254
1.00254
1.00254
1.00254
1.00253
1.00253
1.00253
1.00253
1.00253
1.00253
1.00253
1.00253
1.00253
1.00253
1.00253
1.00253
1.00253
1.00253
1.00253
1.00253
1.00253
1.00253
1.00253
1.00253
1.00253
1.00253
1.00253
1.00253
1.00253
1.00253
1.00253
1.00253
1.00252
1.00252
1.00252
1.00252
1.00252
1.00252
1.00252
1.00252
1.00252
1.00252
1.00252
1.00252
1.00252
1.00252
1.00252
1.00252
1.00252
1.00252
1.00252
1.00252
1.00252
1.00252
1.00252
1.00252
1.00252
1.00251
1.00251
1.00251
1.00251
1.00251
1.00251
1.00251
1.00251
1.00251
1.00251
1.00251
1.00251
1.00251
1.00251
1.00251
1.00251
1.00251
1.00251
1.00251
1.00251
1.00251
1.00251
1.00251
1.00251
1.00251
1.0025
1.0025
1.0025
1.0025
1.0025
1.0025
1.0025
1.0025
1.0025
1.0025
1.0025
1.0025
1.0025
1.0025
1.0025
1.0025
1.0025
1.0025
1.0025
1.0025
1.0025
1.0025
1.0025
1.0025
1.00249
1.00249
1.00249
1.00249
1.00249
1.00249
1.00249
1.00249
1.00249
1.00249
1.00249
1.00249
1.00249
1.00249
1.00249
1.00249
1.00249
1.00249
1.00249
1.00249
1.00249
1.00249
1.00249
1.00248
1.00248
1.00248
1.00248
1.00248
1.00248
1.00248
1.00248
1.00248
1.00248
1.00248
1.00248
1.00248
1.00248
1.00248
1.00248
1.00248
1.00248
1.00248
1.00248
1.00248
1.00247
1.00247
1.00247
1.00247
1.00247
1.00247
1.00247
1.00247
1.00247
1.00247
1.00247
1.00247
1.00247
1.00247
1.00247
1.00247
1.00247
1.00247
1.00247
1.00247
1.00246
1.00246
1.00246
1.00246
1.00246
1.00246
1.00246
1.00246
1.00246
1.00246
1.00246
1.00246
1.00246
1.00246
1.00246
1.00246
1.00246
1.00246
1.00246
1.00246
1.00245
1.00245
1.00245
1.00245
1.00245
1.00245
1.00245
1.00245
1.00245
1.00245
1.00245
1.00245
1.00245
1.00245
1.00245
1.00245
1.00245
1.00245
1.00245
1.00244
1.00244
1.00244
1.00244
1.00244
1.00244
1.00244
1.00244
1.00244
1.00244
1.00244
1.00244
1.00244
1.00244
1.00244
1.00244
1.00244
1.00244
1.00243
1.00243
1.00243
1.00243
1.00243
1.00243
1.00243
1.00243
1.00243
1.00243
1.00243
1.00243
1.00243
1.00243
1.00243
1.00243
1.00243
1.00243
1.00243
1.00242
1.00242
1.00242
1.00242
1.00242
1.00242
1.00242
1.00242
1.00242
1.00242
1.00242
1.00242
1.00242
1.00242
1.00242
1.00242
1.00242
1.00242
1.00241
1.00241
1.00241
1.00241
1.00241
1.00241
1.00241
1.00241
1.00241
1.00241
1.00241
1.00241
1.00241
1.00241
1.00241
1.00241
1.00241
1.0024
1.0024
1.0024
1.0024
1.0024
1.0024
1.0024
1.0024
1.0024
1.0024
1.0024
1.0024
1.0024
1.0024
1.0024
1.0024
1.00239
1.00239
1.00239
1.00239
1.00239
1.00239
1.00239
1.00239
1.00239
1.00239
1.00239
1.00239
1.00239
1.00239
1.00239
1.00239
1.00239
1.00238
1.00238
1.00238
1.00238
1.00238
1.00238
1.00238
1.00238
1.00238
1.00238
1.00238
1.00238
1.00238
1.00238
1.00238
1.00238
1.00237
1.00237
1.00237
1.00237
1.00237
1.00237
1.00237
1.00237
1.00237
1.00237
1.00237
1.00237
1.00237
1.00237
1.00237
1.00236
1.00236
1.00236
1.00236
1.00236
1.00236
1.00236
1.00236
1.00236
1.00236
1.00236
1.00236
1.00236
1.00236
1.00236
1.00236
1.00235
1.00235
1.00235
1.00235
1.00235
1.00235
1.00235
1.00235
1.00235
1.00235
1.00235
1.00235
1.00235
1.00235
1.00235
1.00234
1.00234
1.00234
1.00234
1.00234
1.00234
1.00234
1.00234
1.00234
1.00234
1.00234
1.00234
1.00234
1.00234
1.00233
1.00233
1.00233
1.00233
1.00233
1.00233
1.00233
1.00233
1.00233
1.00233
1.00233
1.00233
1.00233
1.00233
1.00233
1.00232
1.00232
1.00232
1.00232
1.00232
1.00232
1.00232
1.00232
1.00232
1.00232
1.00232
1.00232
1.00232
1.00232
1.00231
1.00231
1.00231
1.00231
1.00231
1.00231
1.00231
1.00231
1.00231
1.00231
1.00231
1.00231
1.00231
1.0023
1.0023
1.0023
1.0023
1.0023
1.0023
1.0023
1.0023
1.0023
1.0023
1.0023
1.0023
1.0023
1.0023
1.00229
1.00229
1.00229
1.00229
1.00229
1.00229
1.00229
1.00229
1.00229
1.00229
1.00229
1.00229
1.00229
1.00229
1.00228
1.00228
1.00228
1.00228
1.00228
1.00228
1.00228
1.00228
1.00228
1.00228
1.00228
1.00228
1.00228
1.00228
1.00227
1.00227
1.00227
1.00227
1.00227
1.00227
1.00227
1.00227
1.00227
1.00227
1.00227
1.00227
1.00226
1.00226
1.00226
1.00226
1.00226
1.00226
1.00226
1.00226
1.00226
1.00226
1.00226
1.00226
1.00226
1.00226
1.00225
1.00225
1.00225
1.00225
1.00225
1.00225
1.00225
1.00225
1.00225
1.00225
1.00225
1.00225
1.00224
1.00224
1.00224
1.00224
1.00224
1.00224
1.00224
1.00224
1.00224
1.00224
1.00224
1.00224
1.00224
1.00223
1.00223
1.00223
1.00223
1.00223
1.00223
1.00223
1.00223
1.00223
1.00223
1.00223
1.00223
1.00222
1.00222
1.00222
1.00222
1.00222
1.00222
1.00222
1.00222
1.00222
1.00222
1.00222
1.00222
1.00222
1.00221
1.00221
1.00221
1.00221
1.00221
1.00221
1.00221
1.00221
1.00221
1.00221
1.00221
1.0022
1.0022
1.0022
1.0022
1.0022
1.0022
1.0022
1.0022
1.0022
1.0022
1.0022
1.0022
1.0022
1.00219
1.00219
1.00219
1.00219
1.00219
1.00219
1.00219
1.00219
1.00219
1.00219
1.00219
1.00218
1.00218
1.00218
1.00218
1.00218
1.00218
1.00218
1.00218
1.00218
1.00218
1.00218
1.00217
1.00217
1.00217
1.00217
1.00217
1.00217
1.00217
1.00217
1.00217
1.00217
1.00217
1.00217
1.00217
1.00216
1.00216
1.00216
1.00216
1.00216
1.00216
1.00216
1.00216
1.00216
1.00216
1.00216
1.00215
1.00215
1.00215
1.00215
1.00215
1.00215
1.00215
1.00215
1.00215
1.00215
1.00215
1.00214
1.00214
1.00214
1.00214
1.00214
1.00214
1.00214
1.00214
1.00214
1.00214
1.00214
1.00213
1.00213
1.00213
1.00213
1.00213
1.00213
1.00213
1.00213
1.00213
1.00213
1.00212
1.00212
1.00212
1.00212
1.00212
1.00212
1.00212
1.00212
1.00212
1.00212
1.00212
1.00212
1.00211
1.00211
1.00211
1.00211
1.00211
1.00211
1.00211
1.00211
1.00211
1.00211
1.00211
1.0021
1.0021
1.0021
1.0021
1.0021
1.0021
1.0021
1.0021
1.0021
1.0021
1.00209
1.00209
1.00209
1.00209
1.00209
1.00209
1.00209
1.00209
1.00209
1.00209
1.00209
1.00208
1.00208
1.00208
1.00208
1.00208
1.00208
1.00208
1.00208
1.00208
1.00208
1.00207
1.00207
1.00207
1.00207
1.00207
1.00207
1.00207
1.00207
1.00207
1.00207
1.00206
1.00206
1.00206
1.00206
1.00206
1.00206
1.00206
1.00206
1.00206
1.00206
1.00205
1.00205
1.00205
1.00205
1.00205
1.00205
1.00205
1.00205
1.00205
1.00205
1.00204
1.00204
1.00204
1.00204
1.00204
1.00204
1.00204
1.00204
1.00204
1.00204
1.00203
1.00203
1.00203
1.00203
1.00203
1.00203
1.00203
1.00203
1.00203
1.00203
1.00202
1.00202
1.00202
1.00202
1.00202
1.00202
1.00202
1.00202
1.00202
1.00202
1.00201
1.00201
1.00201
1.00201
1.00201
1.00201
1.00201
1.00201
1.00201
1.00201
1.002
1.002
1.002
1.002
1.002
1.002
1.002
1.002
1.002
1.002
1.00199
1.00199
1.00199
1.00199
1.00199
1.00199
1.00199
1.00199
1.00199
1.00199
1.00198
1.00198
1.00198
1.00198
1.00198
1.00198
1.00198
1.00198
1.00198
1.00197
1.00197
1.00197
1.00197
1.00197
1.00197
1.00197
1.00197
1.00197
1.00197
1.00196
1.00196
1.00196
1.00196
1.00196
1.00196
1.00196
1.00196
1.00196
1.00195
1.00195
1.00195
1.00195
1.00195
1.00195
1.00195
1.00195
1.00195
1.00195
1.00194
1.00194
1.00194
1.00194
1.00194
1.00194
1.00194
1.00194
1.00193
1.00193
1.00193
1.00193
1.00193
1.00193
1.00193
1.00193
1.00193
1.00193
1.00192
1.00192
1.00192
1.00192
1.00192
1.00192
1.00192
1.00192
1.00192
1.00191
1.00191
1.00191
1.00191
1.00191
1.00191
1.00191
1.00191
1.00191
1.0019
1.0019
1.0019
1.0019
1.0019
1.0019
1.0019
1.0019
1.0019
1.00189
1.00189
1.00189
1.00189
1.00189
1.00189
1.00189
1.00189
1.00188
1.00188
1.00188
1.00188
1.00188
1.00188
1.00188
1.00188
1.00188
1.00187
1.00187
1.00187
1.00187
1.00187
1.00187
1.00187
1.00187
1.00187
1.00186
1.00186
1.00186
1.00186
1.00186
1.00186
1.00186
1.00186
1.00186
1.00185
1.00185
1.00185
1.00185
1.00185
1.00185
1.00185
1.00185
1.00184
1.00184
1.00184
1.00184
1.00184
1.00184
1.00184
1.00184
1.00184
1.00183
1.00183
1.00183
1.00183
1.00183
1.00183
1.00183
1.00183
1.00183
1.00182
1.00182
1.00182
1.00182
1.00182
1.00182
1.00182
1.00182
1.00182
1.00181
1.00181
1.00181
1.00181
1.00181
1.00181
1.00181
1.0018
1.0018
1.0018
1.0018
1.0018
1.0018
1.0018
1.0018
1.0018
1.00179
1.00179
1.00179
1.00179
1.00179
1.00179
1.00179
1.00179
1.00179
1.00178
1.00178
1.00178
1.00178
1.00178
1.00178
1.00178
1.00177
1.00177
1.00177
1.00177
1.00177
1.00177
1.00177
1.00177
1.00177
1.00176
1.00176
1.00176
1.00176
1.00176
1.00176
1.00176
1.00176
1.00176
1.00175
1.00175
1.00175
1.00175
1.00175
1.00175
1.00175
1.00174
1.00174
1.00174
1.00174
1.00174
1.00174
1.00174
1.00174
1.00174
1.00173
1.00173
1.00173
1.00173
1.00173
1.00173
1.00173
1.00172
1.00172
1.00172
1.00172
1.00172
1.00172
1.00172
1.00172
1.00171
1.00171
1.00171
1.00171
1.00171
1.00171
1.00171
1.00171
1.00171
1.0017
1.0017
1.0017
1.0017
1.0017
1.0017
1.0017
1.00169
1.00169
1.00169
1.00169
1.00169
1.00169
1.00169
1.00169
1.00168
1.00168
1.00168
1.00168
1.00168
1.00168
1.00168
1.00168
1.00167
1.00167
1.00167
1.00167
1.00167
1.00167
1.00167
1.00167
1.00166
1.00166
1.00166
1.00166
1.00166
1.00166
1.00166
1.00165
1.00165
1.00165
1.00165
1.00165
1.00165
1.00165
1.00165
1.00164
1.00164
1.00164
1.00164
1.00164
1.00164
1.00164
1.00163
1.00163
1.00163
1.00163
1.00163
1.00163
1.00163
1.00163
1.00162
1.00162
1.00162
1.00162
1.00162
1.00162
1.00162
1.00161
1.00161
1.00161
1.00161
1.00161
1.00161
1.00161
1.00161
1.0016
1.0016
1.0016
1.0016
1.0016
1.0016
1.0016
1.00159
1.00159
1.00159
1.00159
1.00159
1.00159
1.00159
1.00159
1.00158
1.00158
1.00158
1.00158
1.00158
1.00158
1.00158
1.00157
1.00157
1.00157
1.00157
1.00157
1.00157
1.00157
1.00157
1.00156
1.00156
1.00156
1.00156
1.00156
1.00156
1.00156
1.00155
1.00155
1.00155
1.00155
1.00155
1.00155
1.00155
1.00155
1.00154
1.00154
1.00154
1.00154
1.00154
1.00154
1.00154
1.00153
1.00153
1.00153
1.00153
1.00153
1.00153
1.00153
1.00153
1.00152
1.00152
1.00152
1.00152
1.00152
1.00152
1.00151
1.00151
1.00151
1.00151
1.00151
1.00151
1.00151
1.00151
1.0015
1.0015
1.0015
1.0015
1.0015
1.0015
1.0015
1.00149
1.00149
1.00149
1.00149
1.00149
1.00149
1.00149
1.00149
1.00148
1.00148
1.00148
1.00148
1.00148
1.00148
1.00147
1.00147
1.00147
1.00147
1.00147
1.00147
1.00147
1.00146
1.00146
1.00146
1.00146
1.00146
1.00146
1.00146
1.00146
1.00145
1.00145
1.00145
1.00145
1.00145
1.00145
1.00144
1.00144
1.00144
1.00144
1.00144
1.00144
1.00144
1.00144
1.00143
1.00143
1.00143
1.00143
1.00143
1.00143
1.00142
1.00142
1.00142
1.00142
1.00142
1.00142
1.00142
1.00141
1.00141
1.00141
1.00141
1.00141
1.00141
1.00141
1.0014
1.0014
1.0014
1.0014
1.0014
1.0014
1.0014
1.00139
1.00139
1.00139
1.00139
1.00139
1.00139
1.00138
1.00138
1.00138
1.00138
1.00138
1.00138
1.00138
1.00138
1.00137
1.00137
1.00137
1.00137
1.00137
1.00137
1.00136
1.00136
1.00136
1.00136
1.00136
1.00136
1.00136
1.00136
1.00135
1.00135
1.00135
1.00135
1.00135
1.00135
1.00134
1.00134
1.00134
1.00134
1.00134
1.00134
1.00133
1.00133
1.00133
1.00133
1.00133
1.00133
1.00133
1.00133
1.00132
1.00132
1.00132
1.00132
1.00132
1.00132
1.00131
1.00131
1.00131
1.00131
1.00131
1.00131
1.0013
1.0013
1.0013
1.0013
1.0013
1.0013
1.0013
1.0013
1.00129
1.00129
1.00129
1.00129
1.00129
1.00129
1.00128
1.00128
1.00128
1.00128
1.00128
1.00128
1.00127
1.00127
1.00127
1.00127
1.00127
1.00127
1.00126
1.00126
1.00126
1.00126
1.00126
1.00126
1.00126
1.00125
1.00125
1.00125
1.00125
1.00125
1.00125
1.00125
1.00124
1.00124
1.00124
1.00124
1.00124
1.00124
1.00123
1.00123
1.00123
1.00123
1.00123
1.00123
1.00123
1.00122
1.00122
1.00122
1.00122
1.00122
1.00122
1.00121
1.00121
1.00121
1.00121
1.00121
1.00121
1.0012
1.0012
1.0012
1.0012
1.0012
1.0012
1.00119
1.00119
1.00119
1.00119
1.00119
1.00119
1.00119
1.00118
1.00118
1.00118
1.00118
1.00118
1.00118
1.00117
1.00117
1.00117
1.00117
1.00117
1.00117
1.00116
1.00116
1.00116
1.00116
1.00116
1.00116
1.00115
1.00115
1.00115
1.00115
1.00115
1.00115
1.00115
1.00114
1.00114
1.00114
1.00114
1.00114
1.00114
1.00113
1.00113
1.00113
1.00113
1.00113
1.00113
1.00112
1.00112
1.00112
1.00112
1.00112
1.00112
1.00111
1.00111
1.00111
1.00111
1.00111
1.00111
1.00111
1.0011
1.0011
1.0011
1.0011
1.0011
1.0011
1.00109
1.00109
1.00109
1.00109
1.00109
1.00109
1.00108
1.00108
1.00108
1.00108
1.00108
1.00107
1.00107
1.00107
1.00107
1.00107
1.00107
1.00106
1.00106
1.00106
1.00106
1.00106
1.00106
1.00106
1.00105
1.00105
1.00105
1.00105
1.00105
1.00105
1.00104
1.00104
1.00104
1.00104
1.00104
1.00104
1.00103
1.00103
1.00103
1.00103
1.00103
1.00102
1.00102
1.00102
1.00102
1.00102
1.00102
1.00101
1.00101
1.00101
1.00101
1.00101
1.00101
1.00101
1.001
1.001
1.001
1.001
1.001
1.001
1.00099
1.00099
1.00099
1.00099
1.00099
1.00098
1.00098
1.00098
1.00098
1.00098
1.00098
1.00097
1.00097
1.00097
1.00097
1.00097
1.00097
1.00096
1.00096
1.00096
1.00096
1.00096
1.00095
1.00095
1.00095
1.00095
1.00095
1.00095
1.00095
1.00094
1.00094
1.00094
1.00094
1.00094
1.00094
1.00093
1.00093
1.00093
1.00093
1.00093
1.00092
1.00092
1.00092
1.00092
1.00092
1.00092
1.00091
1.00091
1.00091
1.00091
1.00091
1.00091
1.0009
1.0009
1.0009
1.0009
1.0009
1.00089
1.00089
1.00089
1.00089
1.00089
1.00089
1.00089
1.00088
1.00088
1.00088
1.00088
1.00088
1.00087
1.00087
1.00087
1.00087
1.00087
1.00087
1.00086
1.00086
1.00086
1.00086
1.00086
1.00085
1.00085
1.00085
1.00085
1.00085
1.00085
1.00084
1.00084
1.00084
1.00084
1.00084
1.00083
1.00083
1.00083
1.00083
1.00083
1.00083
1.00082
1.00082
1.00082
1.00082
1.00082
1.00081
1.00081
1.00081
1.00081
1.00081
1.00081
1.00081
1.0008
1.0008
1.0008
1.0008
1.0008
1.00079
1.00079
1.00079
1.00079
1.00079
1.00079
1.00078
1.00078
1.00078
1.00078
1.00078
1.00077
1.00077
1.00077
1.00077
1.00077
1.00076
1.00076
1.00076
1.00076
1.00076
1.00076
1.00075
1.00075
1.00075
1.00075
1.00075
1.00074
1.00074
1.00074
1.00074
1.00074
1.00074
1.00073
1.00073
1.00073
1.00073
1.00073
1.00072
1.00072
1.00072
1.00072
1.00072
1.00071
1.00071
1.00071
1.00071
1.00071
1.00071
1.00071
1.0007
1.0007
1.0007
1.0007
1.0007
1.00069
1.00069
1.00069
1.00069
1.00069
1.00068
1.00068
1.00068
1.00068
1.00068
1.00068
1.00067
1.00067
1.00067
1.00067
1.00067
1.00066
1.00066
1.00066
1.00066
1.00066
1.00065
1.00065
1.00065
1.00065
1.00065
1.00065
1.00064
1.00064
1.00064
1.00064
1.00064
1.00063
1.00063
1.00063
1.00063
1.00063
1.00062
1.00062
1.00062
1.00062
1.00062
1.00061
1.00061
1.00061
1.00061
1.00061
1.00061
1.0006
1.0006
1.0006
1.0006
1.0006
1.00059
1.00059
1.00059
1.00059
1.00059
1.00058
1.00058
1.00058
1.00058
1.00058
1.00057
1.00057
1.00057
1.00057
1.00057
1.00056
1.00056
1.00056
1.00056
1.00056
1.00056
1.00056
1.00055
1.00055
1.00055
1.00055
1.00055
1.00054
1.00054
1.00054
1.00054
1.00054
1.00053
1.00053
1.00053
1.00053
1.00053
1.00052
1.00052
1.00052
1.00052
1.00052
1.00051
1.00051
1.00051
1.00051
1.00051
1.0005
1.0005
1.0005
1.0005
1.0005
1.00049
1.00049
1.00049
1.00049
1.00049
1.00049
1.00048
1.00048
1.00048
1.00048
1.00048
1.00047
1.00047
1.00047
1.00047
1.00047
1.00046
1.00046
1.00046
1.00046
1.00046
1.00045
1.00045
1.00045
1.00045
1.00045
1.00044
1.00044
1.00044
1.00044
1.00044
1.00043
1.00043
1.00043
1.00043
1.00043
1.00042
1.00042
1.00042
1.00042
1.00042
1.00041
1.00041
1.00041
1.00041
1.00041
1.0004
1.0004
1.0004
1.0004
1.0004
1.00039
1.00039
1.00039
1.00039
1.00039
1.00038
1.00038
1.00038
1.00038
1.00038
1.00037
1.00037
1.00037
1.00037
1.00037
1.00036
1.00036
1.00036
1.00036
1.00036
1.00035
1.00035
1.00035
1.00035
1.00035
1.00034
1.00034
1.00034
1.00034
1.00034
1.00033
1.00033
1.00033
1.00033
1.00033
1.00032
1.00032
1.00032
1.00032
1.00032
1.00031
1.00031
1.00031
1.00031
1.00031
1.0003
1.0003
1.0003
1.0003
1.0003
1.00029
1.00029
1.00029
1.00029
1.00029
1.00028
1.00028
1.00028
1.00028
1.00028
1.00027
1.00027
1.00027
1.00027
1.00026
1.00026
1.00026
1.00026
1.00026
1.00025
1.00025
1.00025
1.00025
1.00025
1.00024
1.00024
1.00024
1.00024
1.00024
1.00023
1.00023
1.00023
1.00023
1.00023
1.00022
1.00022
1.00022
1.00022
1.00022
1.00021
1.00021
1.00021
1.00021
1.00021
1.0002
1.0002
1.0002
1.0002
1.0002
1.00019
1.00019
1.00019
1.00018
1.00018
1.00018
1.00018
1.00018
1.00017
1.00017
1.00017
1.00017
1.00017
1.00016
1.00016
1.00016
1.00016
1.00016
1.00015
1.00015
1.00015
1.00015
1.00015
1.00014
1.00014
1.00014
1.00014
1.00014
1.00013
1.00013
1.00013
1.00013
1.00012
1.00012
1.00012
1.00012
1.00012
1.00011
1.00011
1.00011
1.00011
1.00011
1.0001
1.0001
1.0001
1.0001
1.0001
1.00009
1.00009
1.00009
1.00009
1.00008
1.00008
1.00008
1.00008
1.00008
1.00007
1.00007
1.00007
1.00007
1.00007
1.00006
1.00006
1.00006
1.00006
1.00006
1.00005
1.00005
1.00005
1.00005
1.00004
1.00004
1.00004
1.00004
1.00004
1.00003
1.00003
1.00003
1.00003
1.00003
1.00002
1.00002
1.00002
1.00001
1.00001
1.00001
1.00001
1.00001
1
1
1
0.999998
0.999996
0.999993
0.999993
0.99999
0.999987
0.999985
0.999982
0.999982
0.999979
0.999977
0.999974
0.999971
0.999971
0.999968
0.999966
0.999963
0.99996
0.99996
0.999957
0.999955
0.999952
0.999949
0.999949
0.999946
0.999944
0.999941
0.999938
0.999938
0.999935
0.999933
0.99993
0.999927
0.999927
0.999924
0.999922
0.999919
0.999916
0.999916
0.999913
0.999911
0.999908
0.999905
0.999905
0.999902
0.9999
0.999897
0.999894
0.999894
0.999891
0.999889
0.999886
0.999883
0.999883
0.99988
0.999877
0.999875
0.999872
0.999872
0.999869
0.999866
0.999864
0.999861
0.999861
0.999858
0.999855
0.999852
0.99985
0.99985
0.999847
0.999844
0.999841
0.999838
0.999838
0.999836
0.999833
0.99983
0.999827
0.999827
0.999824
0.999822
0.999819
0.999816
0.999816
0.999813
0.99981
0.999807
0.999805
0.999805
0.999802
0.999799
0.999796
0.999793
0.999793
0.999791
0.999788
0.999785
0.999782
0.999782
0.999779
0.999776
0.999774
0.999771
0.999771
0.999768
0.999765
0.999762
0.999759
0.999759
0.999757
0.999754
0.999751
0.999748
0.999748
0.999745
0.999742
0.99974
0.999737
0.999737
0.999734
0.999731
0.999728
0.999725
0.999725
0.999722
0.99972
0.999717
0.999714
0.999714
0.999711
0.999708
0.999705
0.999702
0.999702
0.9997
0.999697
0.999694
0.999691
0.999691
0.999688
0.999685
0.999682
0.999679
0.999679
0.999677
0.999674
0.999671
0.999668
0.999668
0.999665
0.999662
0.999659
0.999656
0.999656
0.999653
0.999651
0.999648
0.999645
0.999645
0.999642
0.999639
0.999636
0.999633
0.999633
0.99963
0.999627
0.999624
0.999622
0.999622
0.999619
0.999616
0.999613
0.99961
0.99961
0.999607
0.999604
0.999601
0.999598
0.999598
0.999595
0.999592
0.99959
0.999587
0.999587
0.999584
0.999581
0.999578
0.999575
0.999575
0.999572
0.999569
0.999566
0.999563
0.999563
0.99956
0.999557
0.999554
0.999551
0.999551
0.999548
0.999546
0.999543
0.99954
0.99954
0.999537
0.999534
0.999531
0.999528
0.999528
0.999525
0.999522
0.999519
0.999516
0.999516
0.999513
0.99951
0.999507
0.999504
0.999504
0.999501
0.999498
0.999495
0.999492
0.999492
0.999489
0.999486
0.999483
0.99948
0.99948
0.999477
0.999474
0.999471
0.999468
0.999468
0.999465
0.999462
0.999459
0.999456
0.999456
0.999453
0.99945
0.999447
0.999444
0.999444
0.999441
0.999438
0.999435
0.999432
0.999432
0.999429
0.999426
0.999423
0.99942
0.99942
0.999417
0.999414
0.999411
0.999408
0.999408
0.999405
0.999402
0.999399
0.999396
0.999396
0.999393
0.99939
0.999387
0.999384
0.999384
0.999381
0.999378
0.999375
0.999372
0.999372
0.999369
0.999366
0.999362
0.999359
0.999359
0.999356
0.999353
0.99935
0.999347
0.999347
0.999344
0.999341
0.999338
0.999335
0.999335
0.999332
0.999329
0.999326
0.999323
0.999323
0.99932
0.999317
0.999314
0.999311
0.999311
0.999308
0.999305
0.999302
0.999299
0.999299
0.999295
0.999292
0.999289
0.999286
0.999286
0.999283
0.99928
0.999277
0.999274
0.999274
0.999271
0.999268
0.999265
0.999262
0.999262
0.999259
0.999256
0.999253
0.999249
0.999249
0.999246
0.999243
0.99924
0.999237
0.999237
0.999234
0.999231
0.999228
0.999225
0.999225
0.999222
0.999218
0.999215
0.999212
0.999212
0.999209
0.999206
0.999203
0.9992
0.9992
0.999197
0.999194
0.99919
0.999187
0.999187
0.999184
0.999181
0.999178
0.999175
0.999175
0.999172
0.999168
0.999165
0.999162
0.999162
0.999159
0.999156
0.999153
0.99915
0.99915
0.999146
0.999143
0.99914
0.999137
0.999137
0.999134
0.999131
0.999128
0.999124
0.999124
0.999121
0.999118
0.999115
0.999112
0.999112
0.999109
0.999105
0.999102
0.999099
0.999099
0.999096
0.999093
0.99909
0.999086
0.999086
0.999083
0.99908
0.999077
0.999074
0.999074
0.99907
0.999067
0.999064
0.999061
0.999061
0.999058
0.999055
0.999051
0.999048
0.999048
0.999045
0.999042
0.999039
0.999035
0.999035
0.999032
0.999029
0.999026
0.999023
0.999023
0.999019
0.999016
0.999013
0.99901
0.99901
0.999007
0.999003
0.999
0.998997
0.998997
0.998994
0.99899
0.998987
0.998984
0.998984
0.998981
0.998978
0.998974
0.998971
0.998971
0.998968
0.998965
0.998961
0.998958
0.998958
0.998955
0.998952
0.998948
0.998945
0.998945
0.998942
0.998939
0.998935
0.998932
0.998932
0.998929
0.998926
0.998922
0.998919
0.998919
0.998916
0.998913
0.998909
0.998906
0.998906
0.998903
0.9989
0.998896
0.998893
0.998893
0.99889
0.998887
0.998883
0.99888
0.99888
0.998877
0.998874
0.99887
0.998867
0.998867
0.998864
0.99886
0.998857
0.998854
0.998854
0.998851
0.998847
0.998844
0.998841
0.998841
0.998838
0.998834
0.998831
0.998828
0.998828
0.998824
0.998821
0.998818
0.998814
0.998814
0.998811
0.998808
0.998805
0.998801
0.998801
0.998798
0.998795
0.998791
0.998788
0.998788
0.998785
0.998781
0.998778
0.998775
0.998775
0.998772
0.998768
0.998765
0.998762
0.998762
0.998758
0.998755
0.998752
0.998748
0.998748
0.998745
0.998742
0.998738
0.998735
0.998735
0.998732
0.998728
0.998725
0.998722
0.998722
0.998718
0.998715
0.998712
0.998708
0.998708
0.998705
0.998702
0.998698
0.998695
0.998695
0.998692
0.998688
0.998685
0.998681
0.998681
0.998678
0.998675
0.998671
0.998668
0.998668
0.998665
0.998661
0.998658
0.998655
0.998655
0.998651
0.998648
0.998644
0.998641
0.998641
0.998638
0.998634
0.998631
0.998628
0.998628
0.998624
0.998621
0.998617
0.998614
0.998614
0.998611
0.998607
0.998604
0.9986
0.9986
0.998597
0.998594
0.99859
0.998587
0.998587
0.998583
0.99858
0.998577
0.998573
0.998573
0.99857
0.998566
0.998563
0.998559
0.998559
0.998556
0.998553
0.998549
0.998546
0.998546
0.998542
0.998539
0.998535
0.998532
0.998532
0.998528
0.998525
0.998522
0.998518
0.998518
0.998515
0.998511
0.998508
0.998504
0.998504
0.998501
0.998497
0.998494
0.99849
0.99849
0.998487
0.998484
0.99848
0.998477
0.998477
0.998473
0.99847
0.998466
0.998463
0.998463
0.998459
0.998456
0.998452
0.998449
0.998449
0.998446
0.998442
0.998439
0.998435
0.998435
0.998432
0.998428
0.998425
0.998421
0.998421
0.998418
0.998415
0.998411
0.998408
0.998408
0.998404
0.998401
0.998397
0.998394
0.998394
0.99839
0.998387
0.998383
0.99838
0.99838
0.998376
0.998373
0.998369
0.998366
0.998366
0.998362
0.998359
0.998355
0.998352
0.998352
0.998348
0.998345
0.998341
0.998338
0.998338
0.998334
0.998331
0.998327
0.998324
0.998324
0.99832
0.998317
0.998313
0.99831
0.99831
0.998306
0.998303
0.998299
0.998296
0.998296
0.998292
0.998289
0.998285
0.998282
0.998282
0.998278
0.998274
0.998271
0.998267
0.998267
0.998264
0.99826
0.998257
0.998253
0.998253
0.99825
0.998246
0.998242
0.998239
0.998239
0.998235
0.998232
0.998228
0.998225
0.998225
0.998221
0.998218
0.998214
0.99821
0.99821
0.998207
0.998203
0.9982
0.998196
0.998196
0.998193
0.998189
0.998185
0.998182
0.998182
0.998178
0.998175
0.998171
0.998167
0.998167
0.998164
0.99816
0.998157
0.998153
0.998153
0.998149
0.998146
0.998142
0.998139
0.998139
0.998135
0.998131
0.998128
0.998124
0.998124
0.998121
0.998117
0.998113
0.99811
0.99811
0.998106
0.998103
0.998099
0.998095
0.998095
0.998092
0.998088
0.998085
0.998081
0.998081
0.998077
0.998074
0.99807
0.998066
0.998066
0.998063
0.998059
0.998055
0.998052
0.998052
0.998048
0.998045
0.998041
0.998037
0.998037
0.998034
0.99803
0.998026
0.998023
0.998023
0.998019
0.998015
0.998012
0.998008
0.998008
0.998004
0.998001
0.997997
0.997993
0.997993
0.99799
0.997986
0.997983
0.997979
0.997979
0.997975
0.997972
0.997968
0.997964
0.997964
0.997961
0.997957
0.997953
0.997949
0.997949
0.997946
0.997942
0.997938
0.997935
0.997935
0.997931
0.997927
0.997924
0.99792
0.99792
0.997916
0.997913
0.997909
0.997905
0.997905
0.997902
0.997898
0.997894
0.99789
0.99789
0.997887
0.997883
0.997879
0.997876
0.997876
0.997872
0.997868
0.997865
0.997861
0.997861
0.997857
0.997853
0.99785
0.997846
0.997846
0.997842
0.997839
0.997835
0.997831
0.997831
0.997827
0.997824
0.99782
0.997816
0.997816
0.997812
0.997809
0.997805
0.997801
0.997801
0.997797
0.997794
0.99779
0.997786
0.997786
0.997783
0.997779
0.997775
0.997771
0.997771
0.997767
0.997764
0.99776
0.997756
0.997756
0.997752
0.997749
0.997745
0.997741
0.997741
0.997737
0.997734
0.99773
0.997726
0.997726
0.997722
0.997718
0.997715
0.997711
0.997711
0.997707
0.997703
0.9977
0.997696
0.997696
0.997692
0.997688
0.997684
0.99768
0.99768
0.997677
0.997673
0.997669
0.997665
0.997665
0.997661
0.997658
0.997654
0.99765
0.99765
0.997646
0.997642
0.997638
0.997635
0.997635
0.997631
0.997627
0.997623
0.997619
0.997619
0.997615
0.997612
0.997608
0.997604
0.997604
0.9976
0.997596
0.997592
0.997589
0.997589
0.997585
0.997581
0.997577
0.997573
0.997573
0.99757
0.997566
0.997562
0.997558
0.997558
0.997554
0.997551
0.997547
0.997543
0.997543
0.997539
0.997535
0.997531
0.997528
0.997528
0.997524
0.99752
0.997516
0.997512
0.997512
0.997508
0.997505
0.997501
0.997497
0.997497
0.997493
0.997489
0.997485
0.997481
0.997481
0.997478
0.997474
0.99747
0.997466
0.997466
0.997462
0.997458
0.997454
0.99745
0.99745
0.997447
0.997443
0.997439
0.997435
0.997435
0.997431
0.997427
0.997423
0.997419
0.997419
0.997415
0.997412
0.997408
0.997404
0.997404
0.9974
0.997396
0.997392
0.997388
0.997388
0.997384
0.99738
0.997376
0.997372
0.997372
0.997369
0.997365
0.997361
0.997357
0.997357
0.997353
0.997349
0.997345
0.997341
0.997341
0.997337
0.997333
0.997329
0.997325
0.997325
0.997321
0.997317
0.997314
0.99731
0.99731
0.997306
0.997302
0.997298
0.997294
0.997294
0.99729
0.997286
0.997282
0.997278
0.997278
0.997274
0.99727
0.997266
0.997262
0.997262
0.997258
0.997254
0.99725
0.997246
0.997246
0.997242
0.997238
0.997234
0.99723
0.99723
0.997226
0.997222
0.997218
0.997214
0.997214
0.997211
0.997207
0.997203
0.997199
0.997199
0.997195
0.997191
0.997187
0.997183
0.997183
0.997179
0.997175
0.997171
0.997167
0.997167
0.997163
0.997159
0.997155
0.997151
0.997151
0.997147
0.997143
0.997139
0.997135
0.997135
0.997131
0.997127
0.997123
0.997119
0.997119
0.997115
0.997111
0.997106
0.997102
0.997102
0.997098
0.997094
0.99709
0.997086
0.997086
0.997082
0.997078
0.997074
0.99707
0.99707
0.997066
0.997062
0.997058
0.997054
0.997054
0.99705
0.997046
0.997042
0.997038
0.997038
0.997034
0.99703
0.997026
0.997022
0.997022
0.997018
0.997014
0.99701
0.997006
0.997006
0.997001
0.996997
0.996993
0.996989
0.996989
0.996985
0.996981
0.996977
0.996973
0.996973
0.996969
0.996965
0.996961
0.996957
0.996957
0.996953
0.996949
0.996944
0.99694
0.99694
0.996936
0.996932
0.996928
0.996924
0.996924
0.99692
0.996916
0.996912
0.996908
0.996908
0.996903
0.996899
0.996895
0.996891
0.996891
0.996887
0.996883
0.996879
0.996875
0.996875
0.996871
0.996866
0.996862
0.996858
0.996858
0.996854
0.99685
0.996846
0.996842
0.996842
0.996837
0.996833
0.996829
0.996825
0.996825
0.996821
0.996817
0.996812
0.996808
0.996808
0.996804
0.9968
0.996796
0.996792
0.996792
0.996787
0.996783
0.996779
0.996775
0.996775
0.996771
0.996767
0.996762
0.996758
0.996758
0.996754
0.99675
0.996746
0.996742
0.996742
0.996737
0.996733
0.996729
0.996725
0.996725
0.996721
0.996717
0.996713
0.996708