<?xml version="1.0"?>
<VTKFile type="UnstructuredGrid" version="0.1" byte_order="LittleEndian">
<UnstructuredGrid>
<Piece NumberOfPoints="5000" NumberOfCells="4000">
<PointData Scalars="Reaction 0">
<DataArray type="Float32" Name="Reaction 0" format="ascii">
0.998386
0.998386
0.998386
0.998386
0.998386
0.998386
0.998386
0.998386
0.998386
0.998386
0.998386
0.998386
0.998386
0.998386
0.998386
0.998386
0.998386
0.998386
0.998386
0.998386
0.998386
0.998386
0.998386
0.998386
0.998386
0.998386
0.998386
0.998386
0.998386
0.998386
0.998386
0.998385
0.998385
0.998385
0.998385
0.998385
0.998385
0.998385
0.998385
0.998385
0.998385
0.998385
0.998385
0.998385
0.998385
0.998385
0.998385
0.998385
0.998385
0.998385
0.998385
0.998385
0.998385
0.998385
0.998385
0.998385
0.998384
0.998384
0.998384
0.998384
0.998384
0.998384
0.998384
0.998384
0.998384
0.998384
0.998384
0.998384
0.998384
0.998384
0.998384
0.998384
0.998384
0.998383
0.998383
0.998383
0.998383
0.998383
0.998383
0.998383
0.998383
0.998383
0.998383
0.998383
0.998383
0.998383
0.998383
0.998382
0.998382
0.998382
0.998382
0.998382
0.998382
0.998382
0.998382
0.998382
0.998382
0.998382
0.998381
0.998381
0.998381
0.998381
0.998381
0.998381
0.998381
0.998381
0.998381
0.998381
0.99838
0.99838
0.99838
0.99838
0.99838
0.99838
0.99838
0.99838
0.99838
0.99838
0.998379
0.998379
0.998379
0.998379
0.998379
0.998379
0.998379
0.998379
0.998379
0.998378
0.998378
0.998378
0.998378
0.998378
0.998378
0.998378
0.998378
0.998378
0.998377
0.998377
0.998377
0.998377
0.998377
0.998377
0.998377
0.998376
0.998376
0.998376
0.998376
0.998376
0.998376
0.998376
0.998376
0.998375
0.998375
0.998375
0.998375
0.998375
0.998375
0.998374
0.998374
0.998374
0.998374
0.998374
0.998374
0.998374
0.998373
0.998373
0.998373
0.998373
0.998373
0.998373
0.998373
0.998372
0.998372
0.998372
0.998372
0.998372
0.998372
0.998371
0.998371
0.998371
0.998371
0.998371
0.998371
0.99837
0.99837
0.99837
0.99837
0.99837
0.998369
0.998369
0.998369
0.998369
0.998369
0.998369
0.998368
0.998368
0.998368
0.998368
0.998368
0.998367
0.998367
0.998367
0.998367
0.998367
0.998366
0.998366
0.998366
0.998366
0.998366
0.998366
0.998366
0.998365
0.998365
0.998365
0.998365
0.998365
0.998364
0.998364
0.998364
0.998364
0.998364
0.998363
0.998363
0.998363
0.998362
0.998362
0.998362
0.998362
0.998362
0.998361
0.998361
0.998361
0.998361
0.998361
0.99836
0.99836
0.99836
0.99836
0.99836
0.998359
0.998359
0.998359
0.998359
0.998358
0.998358
0.998358
0.998358
0.998358
0.998357
0.998357
0.998357
0.998357
0.998356
0.998356
0.998356
0.998356
0.998356
0.998355
0.998355
0.998355
0.998355
0.998354
0.998354
0.998354
0.998353
0.998353
0.998353
0.998353
0.998352
0.998352
0.998352
0.998352
0.998352
0.998351
0.998351
0.998351
0.998351
0.99835
0.99835
0.99835
0.99835
0.998349
0.998349
0.998349
0.998348
0.998348
0.998348
0.998348
0.998347
0.998347
0.998347
0.998347
0.998346
0.998346
0.998346
0.998346
0.998345
0.998345
0.998345
0.998344
0.998344
0.998344
0.998344
0.998343
0.998343
0.998343
0.998342
0.998342
0.998342
0.998341
0.998341
0.998341
0.998341
0.99834
0.99834
0.99834
0.99834
0.998339
0.998339
0.998338
0.998338
0.998338
0.998338
0.998337
0.998337
0.998337
0.998337
0.998336
0.998336
0.998335
0.998335
0.998335
0.998335
0.998334
0.998334
0.998334
0.998334
0.998333
0.998333
0.998332
0.998332
0.998332
0.998332
0.998331
0.998331
0.998331
0.99833
0.99833
0.99833
0.998329
0.998329
0.998329
0.998328
0.998328
0.998328
0.998328
0.998327
0.998327
0.998326
0.998326
0.998326
0.998325
0.998325
0.998325
0.998324
0.998324
0.998324
0.998323
0.998323
0.998322
0.998322
0.998322
0.998322
0.998321
0.998321
0.998321
0.99832
0.99832
0.998319
0.998319
0.998319
0.998319
0.998318
0.998318
0.998317
0.998317
0.998317
0.998316
0.998316
0.998315
0.998315
0.998315
0.998315
0.998314
0.998314
0.998314
0.998313
0.998313
0.998312
0.998312
0.998312
0.998311
0.998311
0.99831
0.99831
0.99831
0.998309
0.998309
0.998309
0.998308
0.998308
0.998308
0.998307
0.998307
0.998306
0.998306
0.998306
0.998305
0.998305
0.998304
0.998304
0.998304
0.998303
0.998303
0.998302
0.998302
0.998302
0.998301
0.998301
0.9983
0.9983
0.9983
0.998299
0.998299
0.998298
0.998298
0.998298
0.998297
0.998297
0.998296
0.998296
0.998296
0.998295
0.998295
0.998294
0.998294
0.998294
0.998293
0.998293
0.998292
0.998292
0.998292
0.998291
0.998291
0.99829
0.99829
0.998289
0.998289
0.998288
0.998288
0.998288
0.998287
0.998287
0.998286
0.998286
0.998286
0.998285
0.998285
0.998284
0.998284
0.998284
0.998283
0.998282
0.998282
0.998281
0.998281
0.998281
0.99828
0.99828
0.998279
0.998279
0.998279
0.998278
0.998277
0.998277
0.998277
0.998276
0.998276
0.998275
0.998275
0.998275
0.998274
0.998274
0.998273
0.998272
0.998272
0.998272
0.998271
0.998271
0.99827
0.99827
0.998269
0.998269
0.998268
0.998268
0.998268
0.998267
0.998267
0.998266
0.998265
0.998265
0.998265
0.998264
0.998264
0.998263
0.998263
0.998262
0.998262
0.998261
0.998261
0.998261
0.99826
0.998259
0.998259
0.998258
0.998258
0.998258
0.998257
0.998256
0.998256
0.998256
0.998255
0.998255
0.998254
0.998253
0.998253
0.998253
0.998252
0.998251
0.998251
0.998251
0.99825
0.99825
0.998249
0.998248
0.998248
0.998248
0.998247
0.998246
0.998246
0.998246
0.998245
0.998244
0.998244
0.998243
0.998243
0.998243
0.998242
0.998241
0.998241
0.998241
0.99824
0.998239
0.998239
0.998238
0.998238
0.998237
0.998237
0.998236
0.998235
0.998235
0.998235
0.998234
0.998233
0.998233
0.998233
0.998232
0.998231
0.998231
0.99823
0.99823
0.998229
0.998229
0.998228
0.998227
0.998227
0.998227
0.998226
0.998225
0.998225
0.998225
0.998224
0.998223
0.998223
0.998222
0.998222
0.998221
0.99822
0.99822
0.998219
0.998219
0.998218
0.998218
0.998217
0.998216
0.998216
0.998216
0.998215
0.998214
0.998213
0.998213
0.998213
0.998212
0.998211
0.998211
0.998211
0.99821
0.998209
0.998209
0.998208
0.998208
0.998207
0.998206
0.998206
0.998205
0.998205
0.998204
0.998203
0.998203
0.998202
0.998202
0.998201
0.998201
0.9982
0.998199
0.998199
0.998198
0.998198
0.998197
0.998196
0.998196
0.998195
0.998195
0.998194
0.998193
0.998193
0.998192
0.998192
0.998191
0.99819
0.99819
0.998189
0.998189
0.998188
0.998187
0.998187
0.998186
0.998186
0.998185
0.998184
0.998184
0.998183
0.998183
0.998182
0.998181
0.998181
0.99818
0.998179
0.998179
0.998178
0.998178
0.998177
0.998176
0.998176
0.998175
0.998175
0.998174
0.998173
0.998172
0.998172
0.998172
0.998171
0.99817
0.998169
0.998168
0.998168
0.998168
0.998167
0.998166
0.998165
0.998165
0.998164
0.998164
0.998163
0.998162
0.998162
0.998161
0.99816
0.99816
0.998159
0.998159
0.998158
0.998157
0.998156
0.998156
0.998156
0.998155
0.998154
0.998153
0.998152
0.998152
0.998151
0.998151
0.99815
0.998149
0.998149
0.998148
0.998147
0.998147
0.998146
0.998146
0.998145
0.998144
0.998143
0.998142
0.998142
0.998142
0.998141
0.99814
0.998139
0.998139
0.998138
0.998137
0.998136
0.998136
0.998136
0.998135
0.998134
0.998133
0.998132
0.998132
0.998131
0.99813
0.99813
0.998129
0.998129
0.998128
0.998127
0.998126
0.998125
0.998125
0.998124
0.998124
0.998123
0.998122
0.998122
0.998121
0.99812
0.998119
0.998118
0.998118
0.998117
0.998116
0.998116
0.998115
0.998115
0.998114
0.998113
0.998112
0.998111
0.998111
0.99811
0.998109
0.998108
0.998108
0.998108
0.998107
0.998106
0.998105
0.998104
0.998104
0.998103
0.998102
0.998101
0.9981
0.9981
0.998099
0.998099
0.998098
0.998097
0.998097
0.998096
0.998095
0.998094
0.998093
0.998093
0.998092
0.998091
0.99809
0.998089
0.998089
0.998088
0.998087
0.998087
0.998086
0.998086
0.998085
0.998084
0.998083
0.998082
0.998082
0.998081
0.99808
0.998079
0.998078
0.998078
0.998077
0.998076
0.998075
0.998074
0.998074
0.998073
0.998072
0.998071
0.998071
0.998071
0.99807
0.998069
0.998068
0.998067
0.998067
0.998066
0.998065
0.998064
0.998063
0.998063
0.998062
0.998061
0.99806
0.998059
0.998059
0.998058
0.998057
0.998056
0.998055
0.998055
0.998054
0.998053
0.998052
0.998051
0.998051
0.99805
0.998049
0.998048
0.998047
0.998047
0.998046
0.998045
0.998044
0.998043
0.998043
0.998042
0.998041
0.99804
0.998039
0.998039
0.998038
0.998037
0.998036
0.998035
0.998035
0.998034
0.998033
0.998032
0.998031
0.998031
0.99803
0.998029
0.998028
0.998027
0.998027
0.998026
0.998025
0.998024
0.998023
0.998023
0.998022
0.998021
0.99802
0.998019
0.998019
0.998018
0.998017
0.998016
0.998015
0.998015
0.998014
0.998013
0.998012
0.998011
0.998011
0.99801
0.998008
0.998007
0.998006
0.998006
0.998005
0.998004
0.998003
0.998002
0.998002
0.998001
0.998
0.997999
0.997998
0.997998
0.997997
0.997996
0.997995
0.997994
0.997994
0.997993
0.997992
0.997991
0.997989
0.997989
0.997988
0.997987
0.997986
0.997985
0.997985
0.997984
0.997983
0.997982
0.997981
0.997981
0.99798
0.997979
0.997978
0.997976
0.997976
0.997975
0.997974
0.997973
0.997972
0.997972
0.997971
0.99797
0.997969
0.997968
0.997968
0.997967
0.997966
0.997964
0.997963
0.997963
0.997962
0.997961
0.99796
0.997959
0.997959
0.997958
0.997957
0.997956
0.997954
0.997954
0.997953
0.997952
0.997951
0.99795
0.99795
0.997949
0.997948
0.997947
0.997945
0.997945
0.997944
0.997943
0.997942
0.997941
0.997941
0.99794
0.997939
0.997937
0.997936
0.997936
0.997935
0.997934
0.997933
0.997932
0.997932
0.997931
0.997929
0.997928
0.997927
0.997927
0.997926
0.997925
0.997924
0.997923
0.997923
0.997921
0.99792
0.997919
0.997918
0.997918
0.997917
0.997916
0.997914
0.997913
0.997913
0.997912
0.997911
0.99791
0.997909
0.997909
0.997907
0.997906
0.997905
0.997904
0.997904
0.997903
0.997901
0.9979
0.997899
0.997899
0.997898
0.997897
0.997896
0.997894
0.997894
0.997893
0.997892
0.997891
0.99789
0.99789
0.997888
0.997887
0.997886
0.997885
0.997885
0.997884
0.997882
0.997881
0.99788
0.99788
0.997879
0.997877
0.997876
0.997875
0.997875
0.997874
0.997873
0.997871
0.99787
0.99787
0.997869
0.997868
0.997867
0.997865
0.997865
0.997864
0.997863
0.997862
0.99786
0.99786
0.997859
0.997858
0.997857
0.997855
0.997855
0.997854
0.997853
0.997852
0.99785
0.99785
0.997849
0.997848
0.997847
0.997845
0.997845
0.997844
0.997843
0.997842
0.99784
0.99784
0.997839
0.997838
0.997837
0.997835
0.997835
0.997834
0.997833
0.997832
0.99783
0.99783
0.997829
0.997828
0.997827
0.997825
0.997825
0.997824
0.997823
0.997821
0.99782
0.99782
0.997819
0.997818
0.997816
0.997815
0.997815
0.997814
0.997812
0.997811
0.99781
0.99781
0.997809
0.997807
0.997806
0.997805
0.997805
0.997803
0.997802
0.997801
0.997799
0.997799
0.997798
0.997797
0.997795
0.997794
0.997794
0.997793
0.997792
0.99779
0.997789
0.997789
0.997788
0.997786
0.997785
0.997784
0.997784
0.997782
0.997781
0.99778
0.997778
0.997778
0.997777
0.997776
0.997774
0.997773
0.997773
0.997772
0.99777
0.997769
0.997767
0.997767
0.997766
0.997765
0.997763
0.997762
0.997762
0.997761
0.997759
0.997758
0.997757
0.997757
0.997755
0.997754
0.997753
0.997751
0.997751
0.99775
0.997748
0.997747
0.997746
0.997746
0.997744
0.997743
0.997742
0.99774
0.99774
0.997739
0.997738
0.997736
0.997735
0.997735
0.997733
0.997732
0.997731
0.997729
0.997729
0.997728
0.997727
0.997725
0.997724
0.997724
0.997722
0.997721
0.99772
0.997718
0.997718
0.997717
0.997715
0.997714
0.997713
0.997713
0.997711
0.99771
0.997708
0.997707
0.997707
0.997706
0.997704
0.997703
0.997701
0.997701
0.9977
0.997698
0.997697
0.997696
0.997696
0.997694
0.997693
0.997691
0.99769
0.99769
0.997689
0.997687
0.997686
0.997684
0.997684
0.997683
0.997681
0.99768
0.997678
0.997678
0.997677
0.997676
0.997674
0.997673
0.997673
0.997671
0.99767
0.997668
0.997667
0.997667
0.997665
0.997664
0.997662
0.997661
0.997661
0.99766
0.997658
0.997657
0.997655
0.997655
0.997654
0.997652
0.997651
0.997649
0.997649
0.997648
0.997646
0.997645
0.997643
0.997643
0.997642
0.99764
0.997639
0.997637
0.997637
0.997636
0.997634
0.997633
0.997631
0.997631
0.99763
0.997629
0.997627
0.997626
0.997626
0.997624
0.997623
0.997621
0.99762
0.99762
0.997618
0.997617
0.997615
0.997613
0.997613
0.997612
0.99761
0.997609
0.997607
0.997607
0.997606
0.997604
0.997603
0.997601
0.997601
0.9976
0.997598
0.997597
0.997595
0.997595
0.997594
0.997592
0.997591
0.997589
0.997589
0.997588
0.997586
0.997585
0.997583
0.997583
0.997581
0.99758
0.997578
0.997577
0.997577
0.997575
0.997574
0.997572
0.997571
0.997571
0.997569
0.997568
0.997566
0.997564
0.997564
0.997563
0.997561
0.99756
0.997558
0.997558
0.997557
0.997555
0.997554
0.997552
0.997552
0.99755
0.997549
0.997547
0.997546
0.997546
0.997544
0.997543
0.997541
0.997539
0.997539
0.997538
0.997536
0.997535
0.997533
0.997533
0.997531
0.99753
0.997528
0.997527
0.997527
0.997525
0.997524
0.997522
0.99752
0.99752
0.997519
0.997517
0.997516
0.997514
0.997514
0.997512
0.997511
0.997509
0.997507
0.997507
0.997506
0.997504
0.997503
0.997501
0.997501
0.997499
0.997498
0.997496
0.997495
0.997495
0.997493
0.997491
0.99749
0.997488
0.997488
0.997486
0.997485
0.997483
0.997482
0.997482
0.99748
0.997478
0.997477
0.997475
0.997475
0.997473
0.997472
0.99747
0.997468
0.997468
0.997467
0.997465
0.997464
0.997462
0.997462
0.99746
0.997459
0.997457
0.997455
0.997455
0.997454
0.997452
0.99745
0.997449
0.997449
0.997447
0.997445
0.997444
0.997442
0.997442
0.99744
0.997439
0.997437
0.997435
0.997435
0.997434
0.997432
0.99743
0.997429
0.997429
0.997427
0.997425
0.997424
0.997422
0.997422
0.99742
0.997419
0.997417
0.997415
0.997415
0.997413
0.997412
0.99741
0.997408
0.997408
0.997407
0.997405
0.997403
0.997402
0.997402
0.9974
0.997398
0.997396
0.997395
0.997395
0.997393
0.997391
0.99739
0.997388
0.997388
0.997386
0.997384
0.997383
0.997381
0.997381
0.997379
0.997378
0.997376
0.997374
0.997374
0.997372
0.997371
0.997369
0.997367
0.997367
0.997365
0.997364
0.997362
0.99736
0.99736
0.997359
0.997357
0.997355
0.997353
0.997353
0.997352
0.99735
0.997348
0.997346
0.997346
0.997345
0.997343
0.997341
0.997339
0.997339
0.997338
0.997336
0.997334
0.997332
0.997332
0.997331
0.997329
0.997327
0.997325
0.997325
0.997323
0.997322
0.99732
0.997318
0.997318
0.997316
0.997315
0.997313
0.997311
0.997311
0.997309
0.997308
0.997306
0.997304
0.997304
0.997302
0.9973
0.997299
0.997297
0.997297
0.997295
0.997293
0.997291
0.99729
0.99729
0.997288
0.997286
0.997284
0.997282
0.997282
0.997281
0.997279
0.997277
0.997275
0.997275
0.997273
0.997272
0.99727
0.997268
0.997268
0.997266
0.997264
0.997263
0.997261
0.997261
0.997259
0.997257
0.997255
0.997253
0.997253
0.997252
0.99725
0.997248
0.997246
0.997246
0.997244
0.997242
0.997241
0.997239
0.997239
0.997237
0.997235
0.997233
0.997231
0.997231
0.99723
0.997228
0.997226
0.997224
0.997224
0.997222
0.99722
0.997219
0.997217
0.997217
0.997215
0.997213
0.997211
0.997209
0.997209
0.997207
0.997206
0.997204
0.997202
0.997202
0.9972
0.997198
0.997196
0.997194
0.997194
0.997192
0.997191
0.997189
0.997187
0.997187
0.997185
0.997183
0.997181
0.997179
0.997179
0.997177
0.997176
0.997174
0.997172
0.997172
0.99717
0.997168
0.997166
0.997164
0.997164
0.997162
0.99716
0.997158
0.997157
0.997157
0.997155
0.997153
0.997151
0.997149
0.997149
0.997147
0.997145
0.997143
0.997141
0.997141
0.997139
0.997138
0.997136
0.997134
0.997134
0.997132
0.99713
0.997128
0.997126
0.997126
0.997124
0.997122
0.99712
0.997118
0.997118
0.997116
0.997114
0.997112
0.997111
0.997111
0.997109
0.997107
0.997105
0.997103
0.997103
0.997101
0.997099
0.997097
0.997095
0.997095
0.997093
0.997091
0.997089
0.997087
0.997087
0.997085
0.997083
0.997081
0.997079
0.997079
0.997077
0.997075
0.997074
0.997072
0.997072
0.99707
0.997068
0.997066
0.997064
0.997064
0.997062
0.99706
0.997058
0.997056
0.997056
0.997054
0.997052
0.99705
0.997048
0.997048
0.997046
0.997044
0.997042
0.99704
0.99704
0.997038
0.997036
0.997034
0.997032
0.997032
0.99703
0.997028
0.997026
0.997024
0.997024
0.997022
0.99702
0.997018
0.997016
0.997016
0.997014
0.997012
0.99701
0.997008
0.997008
0.997006
0.997004
0.997002
0.997
0.997
0.996998
0.996996
0.996994
0.996992
0.996992
0.99699
0.996988
0.996986
0.996984
0.996984
0.996982
0.99698
0.996978
0.996976
0.996976
0.996974
0.996972
0.996969
0.996967
0.996967
0.996965
0.996963
0.996961
0.996959
0.996959
0.996957
0.996955
0.996953
0.996951
0.996951
0.996949
0.996947
0.996945
0.996943
0.996943
0.996941
0.996939
0.996937
0.996935
0.996935
0.996933
0.99693
0.996928
0.996926
0.996926
0.996924
0.996922
0.99692
0.996918
0.996918
0.996916
0.996914
0.996912
0.99691
0.99691
0.996908
0.996906
0.996903
0.996901
0.996901
0.996899
0.996897
0.996895
0.996893
0.996893
0.996891
0.996889
0.996887
0.996885
0.996885
0.996882
0.99688
0.996878
0.996876
0.996876
0.996874
0.996872
0.99687
0.996868
0.996868
0.996865
0.996863
0.996861
0.996859
0.996859
0.996857
0.996855
0.996853
0.996851
0.996851
0.996848
0.996846
0.996844
0.996842
0.996842
0.99684
0.996838
0.996835
0.996833
0.996833
0.996831
0.996829
0.996827
0.996825
0.996825
0.996823
0.99682
0.996818
0.996816
0.996816
0.996814
0.996812
0.99681
0.996807
0.996807
0.996805
0.996803
0.996801
0.996799
0.996799
0.996797
0.996794
0.996792
0.99679
0.99679
0.996788
0.996786
0.996784
0.996781
0.996781
0.996779
0.996777
0.996775
0.996773
0.996773
0.996771
0.996768
0.996766
0.996764
0.996764
0.996762
0.99676
0.996757
0.996755
0.996755
0.996753
0.996751
0.996749
0.996746
0.996746
0.996744
0.996742
0.99674
0.996738
0.996738
0.996735
0.996733
0.996731
0.996729
0.996729
0.996727
0.996724
0.996722
0.99672
0.99672
0.996718
0.996715
0.996713
0.996711
0.996711
0.996709
0.996707
0.996704
0.996702
0.996702
0.9967
0.996698
0.996695
0.996693
0.996693
0.996691
0.996689
0.996686
0.996684
0.996684
0.996682
0.99668
0.996677
0.996675
0.996675
0.996673
0.996671
0.996668
0.996666
0.996666
0.996664
0.996662
0.996659
0.996657
0.996657
0.996655
0.996652
0.99665
0.996648
0.996648
0.996646
0.996643
0.996641
0.996639
0.996639
0.996636
0.996634
0.996632
0.99663
0.99663
0.996627
0.996625
0.996623
0.99662
0.99662
0.996618
0.996616
0.996614
0.996611
0.996611
0.996609
0.996607
0.996604
0.996602
0.996602
0.9966
0.996597
0.996595
0.996593
0.996593
0.99659
0.996588
0.996586
0.996584
0.996584
0.996581
0.996579
0.996577
0.996574
0.996574
0.996572
0.99657
0.996567
0.996565
0.996565
0.996563
0.99656
0.996558
0.996556
0.996556
0.996553
0.996551
0.996549
0.996546
0.996546
0.996544
0.996542
0.996539
0.996537
0.996537
0.996534
0.996532
0.99653
0.996527
0.996527
0.996525
0.996523
0.99652
0.996518
0.996518
0.996516
0.996513
0.996511
0.996509
0.996509
0.996506
0.996504
0.996501
0.996499
0.996499
0.996497
0.996494
0.996492
0.99649
0.99649
0.996487
0.996485
0.996482
0.99648
0.99648
0.996478
0.996475
0.996473
0.99647
0.99647
0.996468
0.996466
0.996463
0.996461
0.996461
0.996458
0.996456
0.996454
0.996451
0.996451
0.996449
0.996446
0.996444
0.996442
0.996442
0.996439
0.996437
0.996434
0.996432
0.996432
0.99643
0.996427
0.996425
0.996422
0.996422
0.99642
0.996418
0.996415
0.996413
0.996413
0.99641
0.996408
0.996405
0.996403
0.996403
0.996401
0.996398
0.996396
0.996393
0.996393
0.996391
0.996388
0.996386
0.996383
0.996383
0.996381
0.996379
0.996376
0.996374
0.996374
0.996371
0.996369
0.996366
0.996364
0.996364
0.996361
0.996359
0.996356
0.996354
0.996354
0.996352
0.996349
0.996347
0.996344
0.996344
0.996342
0.996339
0.996337
0.996334
0.996334
0.996332
0.996329
0.996327
0.996324
0.996324
0.996322
0.996319
0.996317
0.996314
0.996314
0.996312
0.996309
0.996307
0.996304
0.996304
0.996302
0.9963
0.996297
0.996295
0.996295
0.996292
0.99629
0.996287
0.996285
0.996285
0.996282
0.99628
0.996277
0.996274
0.996274
0.996272
0.996269
0.996267
0.996264
0.996264
0.996262
0.996259
0.996257
0.996254
0.996254
0.996252
0.996249
0.996247
0.996244
0.996244
0.996242
0.996239
0.996237
0.996234
0.996234
0.996232
0.996229
0.996227
0.996224
0.996224
0.996221
0.996219
0.996216
0.996214
0.996214
0.996211
0.996209
0.996206
0.996204
0.996204
0.996201
0.996199
0.996196
0.996193
0.996193
0.996191
0.996188
0.996186
0.996183
0.996183
0.996181
0.996178
0.996176
0.996173
0.996173
0.99617
0.996168
0.996165
0.996163
0.996163
0.99616
0.996158
0.996155
0.996152
0.996152
0.99615
0.996147
0.996145
0.996142
0.996142
0.996139
0.996137
0.996134
0.996132
0.996132
0.996129
0.996127
0.996124
0.996121
0.996121
0.996119
0.996116
0.996114
0.996111
0.996111
0.996108
0.996106
0.996103
0.996101
0.996101
0.996098
0.996095
0.996093
0.99609
0.99609
0.996087
0.996085
0.996082
0.99608
0.99608
0.996077
0.996074
0.996072
0.996069
0.996069
0.996066
0.996064
0.996061
0.996059
0.996059
0.996056
0.996053
0.996051
0.996048
0.996048
0.996045
0.996043
0.99604
0.996037
0.996037
0.996035
0.996032
0.99603
0.996027
0.996027
0.996024
0.996022
0.996019
0.996016
0.996016
0.996014
0.996011
0.996008
0.996006
0.996006
0.996003
0.996
0.995998
0.995995
0.995995
0.995992
0.99599
0.995987
0.995984
0.995984
0.995982
0.995979
0.995976
0.995973
0.995973
0.995971
0.995968
0.995965
0.995963
0.995963
0.99596
0.995957
0.995955
0.995952
0.995952
0.995949
0.995947
0.995944
0.995941
0.995941
0.995938
0.995936
0.995933
0.99593
0.99593
0.995927
0.995925
0.995922
0.995919
0.995919
0.995917
0.995914
0.995911
0.995908
0.995908
0.995906
0.995903
0.9959
0.995897
0.995897
0.995895
0.995892
0.995889
0.995886
0.995886
0.995884
0.995881
0.995878
0.995875
0.995875
0.995873
0.99587
0.995867
0.995864
0.995864
0.995862
0.995859
0.995856
0.995853
0.995853
0.995851
0.995848
0.995845
0.995842
0.995842
0.99584
0.995837
0.995834
0.995831
0.995831
0.995829
0.995826
0.995823
0.99582
0.99582
0.995818
0.995815
0.995812
0.995809
0.995809
0.995806
0.995804
0.995801
0.995798
0.995798
0.995795
0.995793
0.99579
0.995787
0.995787
0.995784
0.995781
0.995779
0.995776
0.995776
0.995773
0.99577
0.995767
0.995765
0.995765
0.995762
0.995759
0.995756
0.995753
0.995753
0.995751
0.995748
0.995745
0.995742
0.995742
0.995739
0.995736
0.995734
0.995731
0.995731
0.995728
0.995725
0.995722
0.995719
0.995719
0.995717
0.995714
0.995711
0.995708
0.995708
0.995705
0.995702
0.9957
0.995697
0.995697
0.995694
0.995691
0.995688
0.995685
0.995685
0.995682
0.99568
0.995677
0.995674
0.995674
0.995671
0.995668
0.995665
0.995662
0.995662
0.99566
0.995657
0.995654
0.995651
0.995651
0.995648
0.995645
0.995642
0.995639
0.995639
0.995637
0.995634
0.995631
0.995628
0.995628
0.995625
0.995622
0.995619
0.995616
0.995616
0.995613
0.99561
0.995608
0.995605
0.995605
0.995602
0.995599
0.995596
0.995593
0.995593
0.99559
0.995587
0.995584
0.995581
0.995581
0.995579
0.995576
0.995573
0.99557
0.99557
0.995567
0.995564
0.995561
0.995558
0.995558
0.995555
0.995552
0.995549
0.995546
0.995546
0.995543
0.995541
0.995538
0.995535
0.995535
0.995532
0.995529
0.995526
0.995523
0.995523
0.99552
0.995517
0.995514
0.995511
0.995511
0.995508
0.995505
0.995502
0.995499
0.995499
0.995496
0.995493
0.99549
0.995487
0.995487
0.995485
0.995482
0.995479
0.995476
0.995476
0.995473
0.99547
0.995467
0.995464
0.995464
0.995461
0.995458
0.995455
0.995452
0.995452
0.995449
0.995446
0.995443
0.99544
0.99544
0.995437
0.995434
0.995431
0.995428
0.995428
0.995425
0.995422
0.995419
0.995416
0.995416
0.995413
0.99541
0.995407
0.995404
0.995404
0.995401
0.995398
0.995395
0.995392
0.995392
0.995389
0.995386
0.995383
0.99538
0.99538
0.995377
0.995374
0.995371
0.995368
0.995368
0.995365
0.995362
0.995359
0.995356
0.995356
0.995353
0.99535
0.995347
0.995344
0.995344
0.995341
0.995338
0.995335
0.995332
0.995332
0.995328
0.995325
0.995322
0.995319
0.995319
0.995316
0.995313
0.99531
0.995307
0.995307
0.995304
0.995301
0.995298
0.995295
0.995295
0.995292
0.995289
0.995286
0.995283
0.995283
0.99528
0.995277
0.995274
0.99527
0.99527
0.995267
0.995264
0.995261
0.995258
0.995258
0.995255
0.995252
0.995249
0.995246
0.995246
0.995243
0.99524
0.995237
0.995234
0.995234
0.99523
0.995227
0.995224
0.995221
0.995221
0.995218
0.995215
0.995212
0.995209
0.995209
0.995206
0.995203
0.9952
0.995196
0.995196
0.995193
0.99519
0.995187
0.995184
0.995184
0.995181
0.995178
0.995175
0.995172
0.995172
0.995168
0.995165
0.995162
0.995159
0.995159
0.995156
0.995153
0.99515
0.995147
0.995147
0.995143
0.99514
0.995137
0.995134
0.995134
0.995131
0.995128
0.995125
0.995122
0.995122
0.995118
0.995115
0.995112
0.995109
0.995109
0.995106
0.995103
0.995099
0.995096
0.995096
0.995093
0.99509
0.995087
0.995084
0.995084
0.995081
0.995077
0.995074
0.995071
0.995071
0.995068
0.995065
0.995062
0.995058
0.995058
0.995055
0.995052
0.995049
0.995046
0.995046
0.995042
0.995039
0.995036
0.995033
0.995033
0.99503
0.995026
0.995023
0.99502
0.99502
0.995017
0.995014
0.99501
0.995007
0.995007
0.995004
0.995001
0.994998
0.994994
0.994994
0.994991
0.994988
0.994985
0.994981
0.994981
0.994978
0.994975
0.994972
0.994968
0.994968
0.994965
0.994962
0.994959
0.994956
0.994956
0.994952
0.994949
0.994946
0.994943
0.994943
0.994939
0.994936
0.994933
0.994929
0.994929
0.994926
0.994923
0.99492
0.994916
0.994916
0.994913
0.99491
0.994907
0.994904
0.994904
0.9949
0.994897
0.994894
0.994891
0.994891
0.994887
0.994884
0.994881
0.994878
0.994878
0.994874
0.994871
0.994868
0.994865
0.994865
0.994861
0.994858
0.994855
0.994852
0.994852
0.994848
0.994845
0.994842
0.994838
0.994838
0.994835
0.994832
0.994829
0.994825
0.994825
0.994822
0.994819
0.994815
0.994812
0.994812
0.994809
0.994806
0.994802
0.994799
0.994799
0.994796
0.994792
0.994789
0.994786
0.994786
0.994782
0.994779
0.994776
0.994772
0.994772
0.994769
0.994766
0.994762
0.994759
0.994759
0.994756
0.994752
0.994749
0.994746
0.994746
0.994742
0.994739
0.994736
0.994732
0.994732
0.994729
0.994726
0.994722
0.994719
0.994719
0.994716
0.994712
0.994709
0.994706
0.994706
0.994702
0.994699
0.994696
0.994692
0.994692
0.994689
0.994685
0.994682
0.994679
0.994679
0.994675
0.994672
0.994669
0.994665
0.994665
0.994662
0.994658
0.994655
0.994652
0.994652
0.994648
0.994645
0.994642
0.994638
0.994638
0.994635
0.994631
0.994628
0.994625
0.994625
0.994621
0.994618
0.994614
0.994611
0.994611
0.994608
0.994604
0.994601
0.994597
0.994597
0.994594
0.994591
0.994587
0.994584
0.994584
0.99458
0.994577
0.994574
0.99457
0.99457
0.994567
0.994563
0.99456
0.994556
0.994556
0.994553
0.99455
0.994546
0.994543
0.994543
0.994539
0.994536
0.994532
0.994529
0.994529
0.994526
0.994522
0.994519
0.994515
0.994515
0.994512
0.994508
0.994505
0.994501
0.994501
0.994498
0.994495
0.994491
0.994488
0.994488
0.994484
0.994481
0.994477
0.994474
0.994474
0.99447
0.994467
0.994463
0.99446
0.99446
0.994456
0.994453
0.99445
0.994446
0.994446
0.994443
0.994439
0.994436
0.994432
0.994432
0.994429
0.994425
0.994422
0.994418
0.994418
0.994415
0.994411
0.994408
0.994404
0.994404
0.994401
0.994397
0.994394
0.99439
0.99439
0.994387
0.994383
0.99438
0.994376
0.994376
0.994373
0.994369
0.994366
0.994362
0.994362
0.994359
0.994355
0.994352
0.994348
0.994348
0.994345
0.994341
0.994338
0.994334
0.994334
0.994331
0.994327
0.994324
0.99432
0.99432
0.994316
0.994313
0.994309
0.994306
0.994306
0.994302
0.994299
0.994295
0.994292
0.994292
0.994288
0.994285
0.994281
0.994278
0.994278
0.994274
0.99427
0.994267
0.994263
0.994263
0.99426
0.994256
0.994253
0.994249
0.994249
0.994246
0.994242
0.994238
0.994235
0.994235
0.994231
0.994228
0.994224
0.994221
0.994221
0.994217
0.994213
0.99421
0.994206
0.994206
0.994203
0.994199
0.994196
0.994192
0.994192
0.994188
0.994185
0.994181
0.994178
0.994178
0.994174
0.99417
0.994167
0.994163
0.994163
0.99416
0.994156
0.994152
0.994149
0.994149
0.994145
0.994142
0.994138
0.994134
0.994134
0.994131
0.994127
0.994124
0.99412
0.99412
0.994116
0.994113
0.994109
0.994105
0.994105
0.994102
0.994098
0.994094
0.994091
0.994091
0.994087
0.994084
0.99408
0.994076
0.994076
0.994073
0.994069
0.994065
0.994062
0.994062
0.994058
0.994054
0.994051
0.994047
0.994047
0.994043
0.99404
0.994036
0.994032
0.994032
0.994028
0.994025
0.994021
0.994017
0.994017
0.994014
0.99401
0.994006
0.994003
0.994003
0.993999
0.993995
0.993992
0.993988
0.993988
0.993984
0.993981
0.993977
0.993973
0.993973
0.993969
0.993966
0.993962
0.993958
0.993958
0.993955
0.993951
0.993947
0.993944
0.993944
0.99394
0.993936
0.993933
0.993929
0.993929
0.993925
0.993922
0.993918
0.993914
0.993914
0.993911
0.993907
0.993903
0.993899
0.993899
0.993896
0.993892
0.993888
0.993885
0.993885
0.993881
0.993877
0.993873
0.99387
0.99387
0.993866
0.993862
0.993859
0.993855
0.993855
0.993851
0.993847
0.993844
0.99384
0.99384
0.993836
0.993832
0.993829
0.993825
0.993825
0.993821
0.993817
0.993814
0.99381
0.99381
0.993806
0.993802
0.993799
0.993795
0.993795
0.993791
0.993787
0.993783
0.99378
0.99378
0.993776
0.993772
0.993768
0.993765
0.993765
0.993761
0.993757
0.993753
0.993749
0.993749
0.993746
0.993742
0.993738
0.993734
0.993734
0.99373
0.993727
0.993723
0.993719
0.993719
0.993715
0.993711
0.993708
0.993704
0.993704
0.9937
0.993696
0.993692
0.993688
0.993688
0.993685
0.993681
0.993677
0.993673
0.993673
0.993669
0.993666
0.993662
0.993658
0.993658
0.993654
0.99365
0.993646
0.993643
0.993643
0.993639
0.993635
0.993631
0.993627
0.993627
0.993623
0.993619
0.993616
0.993612
0.993612
0.993608
0.993604
0.9936
0.993596
0.993596
0.993593
0.993589
0.993585
0.993581
0.993581
0.993577
0.993573
0.993569
0.993565
0.993565
0.993562
0.993558
0.993554
0.99355
0.99355
0.993546
0.993542
0.993538
0.993535
0.993535
0.993531
0.993527
0.993523
0.993519
0.993519
0.993515
0.993511
0.993507
0.993503
0.993503
0.9935
0.993496
0.993492
0.993488
0.993488
0.993484
0.99348
0.993476
0.993472
0.993472
0.993468
0.993464
0.993461
0.993457
0.993457
0.993453
0.993449
0.993445
0.993441
0.993441
0.993437
0.993433
0.993429
0.993425
0.993425
0.993421
0.993417
0.993413
0.99341
0.99341
0.993406
0.993402
0.993398
0.993394
0.993394
0.99339
0.993386
0.993382
0.993378
0.993378
0.993374
0.99337
0.993366
0.993362
0.993362
0.993358
0.993354
0.99335
0.993347
0.993347
0.993343
0.993339
0.993335
0.993331
0.993331
0.993327
0.993323
0.993319
0.993315
0.993315
0.993311
0.993307
0.993303
0.993299
0.993299
0.993295
0.993291
0.993287
0.993283
0.993283
0.993279
0.993275
0.993271
0.993267
0.993267
0.993263
0.993259
0.993255
0.993251
0.993251
0.993247
0.993243
0.993239
0.993235
0.993235
0.993231
0.993227
0.993223
0.993219
0.993219
0.993215
0.993211
0.993207
0.993203
0.993203
0.993199
0.993195
0.993191
0.993187
0.993187
0.993183
0.993179
0.993175
0.993171
0.993171
0.993167
0.993163
0.993159
0.993155
0.993155
0.99315
0.993146
0.993142
0.993138
0.993138
0.993134
0.99313
0.993126
0.993122
0.993122
0.993118
0.993114
0.99311
0.993106
0.993106
0.993102
0.993097
0.993093
0.993089
0.993089
0.993085