<?xml version="1.0"?>
<VTKFile type="UnstructuredGrid" version="0.1" byte_order="LittleEndian">
<UnstructuredGrid>
<Piece NumberOfPoints="5000" NumberOfCells="4000">
<PointData Scalars="Reaction 0">
<DataArray type="Float32" Name="Reaction 0" format="ascii">
0.977378
0.977378
0.977378
0.977378
0.977378
0.977378
0.977378
0.977378
0.977378
0.977378
0.977378
0.977378
0.977378
0.977378
0.977378
0.977378
0.977378
0.977378
0.977378
0.977378
0.977378
0.977378
0.977378
0.977378
0.977378
0.977378
0.977378
0.977378
0.977377
0.977377
0.977377
0.977377
0.977377
0.977377
0.977377
0.977377
0.977377
0.977377
0.977377
0.977377
0.977377
0.977377
0.977377
0.977377
0.977377
0.977377
0.977377
0.977377
0.977377
0.977377
0.977377
0.977377
0.977376
0.977376
0.977376
0.977376
0.977376
0.977376
0.977376
0.977376
0.977376
0.977376
0.977376
0.977376
0.977376
0.977376
0.977376
0.977376
0.977375
0.977375
0.977375
0.977375
0.977375
0.977375
0.977375
0.977375
0.977375
0.977375
0.977375
0.977375
0.977375
0.977374
0.977374
0.977374
0.977374
0.977374
0.977374
0.977374
0.977374
0.977374
0.977374
0.977374
0.977373
0.977373
0.977373
0.977373
0.977373
0.977373
0.977373
0.977373
0.977373
0.977373
0.977372
0.977372
0.977372
0.977372
0.977372
0.977372
0.977372
0.977372
0.977372
0.977371
0.977371
0.977371
0.977371
0.977371
0.977371
0.977371
0.977371
0.97737
0.97737
0.97737
0.97737
0.97737
0.97737
0.97737
0.97737
0.977369
0.977369
0.977369
0.977369
0.977369
0.977369
0.977369
0.977368
0.977368
0.977368
0.977368
0.977368
0.977368
0.977368
0.977368
0.977367
0.977367
0.977367
0.977367
0.977367
0.977367
0.977366
0.977366
0.977366
0.977366
0.977366
0.977366
0.977365
0.977365
0.977365
0.977365
0.977365
0.977365
0.977365
0.977364
0.977364
0.977364
0.977364
0.977364
0.977364
0.977363
0.977363
0.977363
0.977363
0.977363
0.977362
0.977362
0.977362
0.977362
0.977362
0.977362
0.977361
0.977361
0.977361
0.977361
0.977361
0.97736
0.97736
0.97736
0.97736
0.97736
0.977359
0.977359
0.977359
0.977359
0.977359
0.977358
0.977358
0.977358
0.977358
0.977358
0.977357
0.977357
0.977357
0.977357
0.977357
0.977356
0.977356
0.977356
0.977356
0.977356
0.977355
0.977355
0.977355
0.977355
0.977354
0.977354
0.977354
0.977354
0.977354
0.977353
0.977353
0.977353
0.977353
0.977352
0.977352
0.977352
0.977352
0.977352
0.977351
0.977351
0.977351
0.97735
0.97735
0.97735
0.97735
0.97735
0.977349
0.977349
0.977349
0.977349
0.977348
0.977348
0.977348
0.977348
0.977347
0.977347
0.977347
0.977347
0.977346
0.977346
0.977346
0.977345
0.977345
0.977345
0.977345
0.977344
0.977344
0.977344
0.977344
0.977343
0.977343
0.977343
0.977343
0.977342
0.977342
0.977342
0.977341
0.977341
0.977341
0.977341
0.97734
0.97734
0.97734
0.97734
0.977339
0.977339
0.977339
0.977339
0.977338
0.977338
0.977338
0.977337
0.977337
0.977337
0.977336
0.977336
0.977336
0.977336
0.977335
0.977335
0.977335
0.977334
0.977334
0.977334
0.977333
0.977333
0.977333
0.977333
0.977332
0.977332
0.977332
0.977331
0.977331
0.977331
0.97733
0.97733
0.97733
0.97733
0.977329
0.977329
0.977328
0.977328
0.977328
0.977328
0.977327
0.977327
0.977326
0.977326
0.977326
0.977326
0.977325
0.977325
0.977325
0.977324
0.977324
0.977323
0.977323
0.977323
0.977323
0.977322
0.977322
0.977321
0.977321
0.977321
0.97732
0.97732
0.97732
0.97732
0.977319
0.977319
0.977318
0.977318
0.977318
0.977317
0.977317
0.977317
0.977316
0.977316
0.977316
0.977315
0.977315
0.977314
0.977314
0.977314
0.977313
0.977313
0.977312
0.977312
0.977312
0.977312
0.977311
0.977311
0.977311
0.97731
0.97731
0.977309
0.977309
0.977309
0.977308
0.977308
0.977307
0.977307
0.977307
0.977306
0.977306
0.977305
0.977305
0.977305
0.977304
0.977304
0.977303
0.977303
0.977303
0.977302
0.977302
0.977301
0.977301
0.977301
0.9773
0.9773
0.977299
0.977299
0.977299
0.977298
0.977298
0.977297
0.977297
0.977297
0.977296
0.977296
0.977295
0.977295
0.977295
0.977294
0.977294
0.977293
0.977293
0.977293
0.977292
0.977292
0.977291
0.977291
0.977291
0.97729
0.97729
0.977289
0.977288
0.977288
0.977288
0.977287
0.977287
0.977286
0.977286
0.977286
0.977285
0.977285
0.977284
0.977284
0.977284
0.977283
0.977282
0.977282
0.977282
0.977281
0.977281
0.97728
0.97728
0.97728
0.977279
0.977279
0.977278
0.977277
0.977277
0.977277
0.977276
0.977276
0.977275
0.977275
0.977275
0.977274
0.977273
0.977273
0.977273
0.977272
0.977272
0.977271
0.97727
0.97727
0.97727
0.977269
0.977269
0.977268
0.977268
0.977267
0.977267
0.977266
0.977266
0.977266
0.977265
0.977264
0.977264
0.977263
0.977263
0.977263
0.977262
0.977261
0.977261
0.977261
0.97726
0.97726
0.977259
0.977258
0.977258
0.977258
0.977257
0.977256
0.977256
0.977256
0.977255
0.977255
0.977254
0.977253
0.977253
0.977253
0.977252
0.977251
0.977251
0.977251
0.97725
0.977249
0.977249
0.977248
0.977248
0.977247
0.977247
0.977246
0.977246
0.977246
0.977245
0.977244
0.977244
0.977243
0.977243
0.977242
0.977242
0.977241
0.97724
0.97724
0.97724
0.977239
0.977238
0.977238
0.977238
0.977237
0.977236
0.977236
0.977235
0.977235
0.977234
0.977233
0.977233
0.977232
0.977232
0.977231
0.977231
0.97723
0.977229
0.977229
0.977229
0.977228
0.977227
0.977227
0.977227
0.977226
0.977225
0.977224
0.977224
0.977224
0.977223
0.977222
0.977222
0.977221
0.977221
0.97722
0.977219
0.977219
0.977218
0.977218
0.977217
0.977217
0.977216
0.977215
0.977215
0.977214
0.977214
0.977213
0.977212
0.977212
0.977211
0.977211
0.97721
0.977209
0.977209
0.977209
0.977208
0.977207
0.977206
0.977206
0.977206
0.977205
0.977204
0.977203
0.977203
0.977203
0.977202
0.977201
0.9772
0.9772
0.9772
0.977199
0.977198
0.977197
0.977197
0.977196
0.977196
0.977195
0.977194
0.977194
0.977193
0.977193
0.977192
0.977191
0.977191
0.97719
0.97719
0.977189
0.977188
0.977188
0.977187
0.977186
0.977186
0.977185
0.977185
0.977184
0.977183
0.977182
0.977182
0.977182
0.977181
0.97718
0.977179
0.977178
0.977178
0.977178
0.977177
0.977176
0.977175
0.977175
0.977174
0.977174
0.977173
0.977172
0.977172
0.977171
0.97717
0.977169
0.977169
0.977169
0.977168
0.977167
0.977166
0.977165
0.977165
0.977165
0.977164
0.977163
0.977162
0.977162
0.977161
0.97716
0.977159
0.977159
0.977159
0.977158
0.977157
0.977156
0.977155
0.977155
0.977154
0.977154
0.977153
0.977152
0.977152
0.977151
0.97715
0.977149
0.977148
0.977148
0.977148
0.977147
0.977146
0.977145
0.977145
0.977144
0.977143
0.977142
0.977141
0.977141
0.977141
0.97714
0.977139
0.977138
0.977138
0.977137
0.977136
0.977135
0.977134
0.977134
0.977134
0.977133
0.977132
0.977131
0.977131
0.97713
0.977129
0.977128
0.977127
0.977127
0.977126
0.977125
0.977125
0.977124
0.977124
0.977123
0.977122
0.977121
0.97712
0.97712
0.977119
0.977118
0.977117
0.977116
0.977116
0.977115
0.977114
0.977114
0.977113
0.977113
0.977112
0.977111
0.97711
0.977109
0.977109
0.977108
0.977107
0.977106
0.977105
0.977105
0.977104
0.977103
0.977102
0.977101
0.977101
0.9771
0.9771
0.977099
0.977098
0.977098
0.977097
0.977096
0.977095
0.977094
0.977094
0.977093
0.977092
0.977091
0.97709
0.97709
0.977089
0.977088
0.977087
0.977086
0.977086
0.977085
0.977084
0.977083
0.977082
0.977082
0.977081
0.97708
0.977079
0.977078
0.977078
0.977077
0.977076
0.977075
0.977074
0.977074
0.977073
0.977072
0.977071
0.97707
0.97707
0.977069
0.977068
0.977067
0.977066
0.977066
0.977065
0.977064
0.977063
0.977062
0.977062
0.977061
0.97706
0.977059
0.977058
0.977058
0.977057
0.977056
0.977055
0.977054
0.977054
0.977053
0.977052
0.977051
0.97705
0.97705
0.977049
0.977048
0.977047
0.977046
0.977046
0.977045
0.977044
0.977043
0.977042
0.977042
0.977041
0.97704
0.977039
0.977038
0.977038
0.977037
0.977035
0.977034
0.977033
0.977033
0.977032
0.977031
0.97703
0.977029
0.977029
0.977028
0.977027
0.977026
0.977025
0.977025
0.977024
0.977023
0.977022
0.977021
0.977021
0.977019
0.977018
0.977017
0.977016
0.977016
0.977015
0.977014
0.977013
0.977012
0.977012
0.977011
0.97701
0.977009
0.977008
0.977008
0.977006
0.977005
0.977004
0.977003
0.977003
0.977002
0.977001
0.977
0.976999
0.976999
0.976998
0.976997
0.976995
0.976994
0.976994
0.976993
0.976992
0.976991
0.97699
0.97699
0.976989
0.976988
0.976986
0.976985
0.976985
0.976984
0.976983
0.976982
0.976981
0.976981
0.97698
0.976979
0.976977
0.976976
0.976976
0.976975
0.976974
0.976973
0.976972
0.976972
0.976971
0.976969
0.976968
0.976967
0.976967
0.976966
0.976965
0.976964
0.976962
0.976962
0.976961
0.97696
0.976959
0.976958
0.976958
0.976957
0.976956
0.976954
0.976953
0.976953
0.976952
0.976951
0.97695
0.976948
0.976948
0.976947
0.976946
0.976945
0.976944
0.976944
0.976943
0.976941
0.97694
0.976939
0.976939
0.976938
0.976937
0.976935
0.976934
0.976934
0.976933
0.976932
0.976931
0.976929
0.976929
0.976928
0.976927
0.976926
0.976925
0.976925
0.976923
0.976922
0.976921
0.97692
0.97692
0.976919
0.976917
0.976916
0.976915
0.976915
0.976914
0.976912
0.976911
0.97691
0.97691
0.976909
0.976907
0.976906
0.976905
0.976905
0.976904
0.976903
0.976901
0.9769
0.9769
0.976899
0.976898
0.976896
0.976895
0.976895
0.976894
0.976893
0.976891
0.97689
0.97689
0.976889
0.976888
0.976886
0.976885
0.976885
0.976884
0.976883
0.976881
0.97688
0.97688
0.976879
0.976877
0.976876
0.976875
0.976875
0.976874
0.976872
0.976871
0.97687
0.97687
0.976869
0.976867
0.976866
0.976865
0.976865
0.976863
0.976862
0.976861
0.976859
0.976859
0.976858
0.976857
0.976856
0.976854
0.976854
0.976853
0.976852
0.97685
0.976849
0.976849
0.976848
0.976846
0.976845
0.976844
0.976844
0.976843
0.976841
0.97684
0.976839
0.976839
0.976837
0.976836
0.976835
0.976833
0.976833
0.976832
0.976831
0.976829
0.976828
0.976828
0.976827
0.976825
0.976824
0.976823
0.976823
0.976821
0.97682
0.976819
0.976817
0.976817
0.976816
0.976815
0.976813
0.976812
0.976812
0.976811
0.976809
0.976808
0.976806
0.976806
0.976805
0.976804
0.976802
0.976801
0.976801
0.9768
0.976798
0.976797
0.976796
0.976796
0.976794
0.976793
0.976791
0.97679
0.97679
0.976789
0.976787
0.976786
0.976785
0.976785
0.976783
0.976782
0.97678
0.976779
0.976779
0.976778
0.976776
0.976775
0.976773
0.976773
0.976772
0.976771
0.976769
0.976768
0.976768
0.976766
0.976765
0.976764
0.976762
0.976762
0.976761
0.976759
0.976758
0.976757
0.976757
0.976755
0.976754
0.976752
0.976751
0.976751
0.976749
0.976748
0.976747
0.976745
0.976745
0.976744
0.976742
0.976741
0.976739
0.976739
0.976738
0.976737
0.976735
0.976734
0.976734
0.976732
0.976731
0.976729
0.976728
0.976728
0.976726
0.976725
0.976723
0.976722
0.976722
0.976721
0.976719
0.976718
0.976716
0.976716
0.976715
0.976713
0.976712
0.97671
0.97671
0.976709
0.976707
0.976706
0.976704
0.976704
0.976703
0.976701
0.9767
0.976698
0.976698
0.976697
0.976695
0.976694
0.976692
0.976692
0.976691
0.976689
0.976688
0.976686
0.976686
0.976685
0.976683
0.976682
0.97668
0.97668
0.976679
0.976677
0.976676
0.976674
0.976674
0.976673
0.976671
0.97667
0.976668
0.976668
0.976667
0.976665
0.976663
0.976662
0.976662
0.97666
0.976659
0.976657
0.976656
0.976656
0.976654
0.976653
0.976651
0.97665
0.97665
0.976648
0.976647
0.976645
0.976644
0.976644
0.976642
0.97664
0.976639
0.976637
0.976637
0.976636
0.976634
0.976633
0.976631
0.976631
0.976629
0.976628
0.976626
0.976625
0.976625
0.976623
0.976622
0.97662
0.976618
0.976618
0.976617
0.976615
0.976614
0.976612
0.976612
0.976611
0.976609
0.976607
0.976606
0.976606
0.976604
0.976603
0.976601
0.976599
0.976599
0.976598
0.976596
0.976594
0.976593
0.976593
0.976591
0.97659
0.976588
0.976586
0.976586
0.976585
0.976583
0.976581
0.97658
0.97658
0.976578
0.976577
0.976575
0.976573
0.976573
0.976572
0.97657
0.976568
0.976567
0.976567
0.976565
0.976563
0.976562
0.97656
0.97656
0.976559
0.976557
0.976555
0.976554
0.976554
0.976552
0.97655
0.976549
0.976547
0.976547
0.976545
0.976544
0.976542
0.97654
0.97654
0.976539
0.976537
0.976535
0.976534
0.976534
0.976532
0.97653
0.976529
0.976527
0.976527
0.976525
0.976523
0.976522
0.97652
0.97652
0.976518
0.976517
0.976515
0.976513
0.976513
0.976512
0.97651
0.976508
0.976507
0.976507
0.976505
0.976503
0.976501
0.9765
0.9765
0.976498
0.976496
0.976495
0.976493
0.976493
0.976491
0.976489
0.976488
0.976486
0.976486
0.976484
0.976483
0.976481
0.976479
0.976479
0.976477
0.976476
0.976474
0.976472
0.976472
0.97647
0.976469
0.976467
0.976465
0.976465
0.976463
0.976462
0.97646
0.976458
0.976458
0.976456
0.976455
0.976453
0.976451
0.976451
0.976449
0.976448
0.976446
0.976444
0.976444
0.976442
0.976441
0.976439
0.976437
0.976437
0.976435
0.976434
0.976432
0.97643
0.97643
0.976428
0.976426
0.976425
0.976423
0.976423
0.976421
0.976419
0.976418
0.976416
0.976416
0.976414
0.976412
0.97641
0.976409
0.976409
0.976407
0.976405
0.976403
0.976401
0.976401
0.9764
0.976398
0.976396
0.976394
0.976394
0.976392
0.976391
0.976389
0.976387
0.976387
0.976385
0.976383
0.976381
0.97638
0.97638
0.976378
0.976376
0.976374
0.976372
0.976372
0.976371
0.976369
0.976367
0.976365
0.976365
0.976363
0.976361
0.97636
0.976358
0.976358
0.976356
0.976354
0.976352
0.97635
0.97635
0.976348
0.976347
0.976345
0.976343
0.976343
0.976341
0.976339
0.976337
0.976336
0.976336
0.976334
0.976332
0.97633
0.976328
0.976328
0.976326
0.976324
0.976322
0.976321
0.976321
0.976319
0.976317
0.976315
0.976313
0.976313
0.976311
0.976309
0.976307
0.976306
0.976306
0.976304
0.976302
0.9763
0.976298
0.976298
0.976296
0.976294
0.976292
0.97629
0.97629
0.976289
0.976287
0.976285
0.976283
0.976283
0.976281
0.976279
0.976277
0.976275
0.976275
0.976273
0.976271
0.976269
0.976268
0.976268
0.976266
0.976264
0.976262
0.97626
0.97626
0.976258
0.976256
0.976254
0.976252
0.976252
0.97625
0.976248
0.976246
0.976244
0.976244
0.976242
0.976241
0.976239
0.976237
0.976237
0.976235
0.976233
0.976231
0.976229
0.976229
0.976227
0.976225
0.976223
0.976221
0.976221
0.976219
0.976217
0.976215
0.976213
0.976213
0.976211
0.976209
0.976207
0.976205
0.976205
0.976203
0.976201
0.976199
0.976197
0.976197
0.976195
0.976194
0.976192
0.97619
0.97619
0.976188
0.976186
0.976184
0.976182
0.976182
0.97618
0.976178
0.976176
0.976174
0.976174
0.976172
0.97617
0.976168
0.976166
0.976166
0.976164
0.976162
0.97616
0.976158
0.976158
0.976156
0.976154
0.976152
0.97615
0.97615
0.976148
0.976146
0.976144
0.976142
0.976142
0.976139
0.976137
0.976135
0.976133
0.976133
0.976131
0.976129
0.976127
0.976125
0.976125
0.976123
0.976121
0.976119
0.976117
0.976117
0.976115
0.976113
0.976111
0.976109
0.976109
0.976107
0.976105
0.976103
0.976101
0.976101
0.976099
0.976097
0.976095
0.976093
0.976093
0.97609
0.976088
0.976086
0.976084
0.976084
0.976082
0.97608
0.976078
0.976076
0.976076
0.976074
0.976072
0.97607
0.976068
0.976068
0.976066
0.976064
0.976061
0.976059
0.976059
0.976057
0.976055
0.976053
0.976051
0.976051
0.976049
0.976047
0.976045
0.976043
0.976043
0.976041
0.976038
0.976036
0.976034
0.976034
0.976032
0.97603
0.976028
0.976026
0.976026
0.976024
0.976022
0.976019
0.976017
0.976017
0.976015
0.976013
0.976011
0.976009
0.976009
0.976007
0.976005
0.976002
0.976
0.976
0.975998
0.975996
0.975994
0.975992
0.975992
0.97599
0.975988
0.975985
0.975983
0.975983
0.975981
0.975979
0.975977
0.975975
0.975975
0.975973
0.97597
0.975968
0.975966
0.975966
0.975964
0.975962
0.97596
0.975957
0.975957
0.975955
0.975953
0.975951
0.975949
0.975949
0.975947
0.975944
0.975942
0.97594
0.97594
0.975938
0.975936
0.975934
0.975931
0.975931
0.975929
0.975927
0.975925
0.975923
0.975923
0.97592
0.975918
0.975916
0.975914
0.975914
0.975912
0.975909
0.975907
0.975905
0.975905
0.975903
0.975901
0.975898
0.975896
0.975896
0.975894
0.975892
0.97589
0.975887
0.975887
0.975885
0.975883
0.975881
0.975879
0.975879
0.975876
0.975874
0.975872
0.97587
0.97587
0.975867
0.975865
0.975863
0.975861
0.975861
0.975858
0.975856
0.975854
0.975852
0.975852
0.97585
0.975847
0.975845
0.975843
0.975843
0.975841
0.975838
0.975836
0.975834
0.975834
0.975832
0.975829
0.975827
0.975825
0.975825
0.975823
0.97582
0.975818
0.975816
0.975816
0.975813
0.975811
0.975809
0.975807
0.975807
0.975804
0.975802
0.9758
0.975798
0.975798
0.975795
0.975793
0.975791
0.975788
0.975788
0.975786
0.975784
0.975782
0.975779
0.975779
0.975777
0.975775
0.975772
0.97577
0.97577
0.975768
0.975765
0.975763
0.975761
0.975761
0.975759
0.975756
0.975754
0.975752
0.975752
0.975749
0.975747
0.975745
0.975742
0.975742
0.97574
0.975738
0.975735
0.975733
0.975733
0.975731
0.975728
0.975726
0.975724
0.975724
0.975721
0.975719
0.975717
0.975714
0.975714
0.975712
0.97571
0.975707
0.975705
0.975705
0.975703
0.9757
0.975698
0.975696
0.975696
0.975693
0.975691
0.975689
0.975686
0.975686
0.975684
0.975681
0.975679
0.975677
0.975677
0.975674
0.975672
0.97567
0.975667
0.975667
0.975665
0.975662
0.97566
0.975658
0.975658
0.975655
0.975653
0.97565
0.975648
0.975648
0.975646
0.975643
0.975641
0.975638
0.975638
0.975636
0.975633
0.975631
0.975629
0.975629
0.975626
0.975624
0.975621
0.975619
0.975619
0.975616
0.975614
0.975612
0.975609
0.975609
0.975607
0.975604
0.975602
0.975599
0.975599
0.975597
0.975595
0.975592
0.97559
0.97559
0.975587
0.975585
0.975582
0.97558
0.97558
0.975578
0.975575
0.975573
0.97557
0.97557
0.975568
0.975565
0.975563
0.97556
0.97556
0.975558
0.975555
0.975553
0.975551
0.975551
0.975548
0.975546
0.975543
0.975541
0.975541
0.975538
0.975536
0.975533
0.975531
0.975531
0.975528
0.975526
0.975523
0.975521
0.975521
0.975518
0.975516
0.975513
0.975511
0.975511
0.975508
0.975506
0.975503
0.975501
0.975501
0.975498
0.975496
0.975493
0.975491
0.975491
0.975488
0.975486
0.975483
0.975481
0.975481
0.975478
0.975475
0.975473
0.97547
0.97547
0.975468
0.975465
0.975463
0.97546
0.97546
0.975458
0.975455
0.975453
0.97545
0.97545
0.975447
0.975445
0.975442
0.97544
0.97544
0.975437
0.975435
0.975432
0.97543
0.97543
0.975427
0.975424
0.975422
0.975419
0.975419
0.975417
0.975414
0.975412
0.975409
0.975409
0.975406
0.975404
0.975401
0.975399
0.975399
0.975396
0.975393
0.975391
0.975388
0.975388
0.975386
0.975383
0.97538
0.975378
0.975378
0.975375
0.975373
0.97537
0.975367
0.975367
0.975365
0.975362
0.97536
0.975357
0.975357
0.975354
0.975352
0.975349
0.975347
0.975347
0.975344
0.975341
0.975339
0.975336
0.975336
0.975333
0.975331
0.975328
0.975326
0.975326
0.975323
0.97532
0.975318
0.975315
0.975315
0.975312
0.97531
0.975307
0.975304
0.975304
0.975302
0.975299
0.975297
0.975294
0.975294
0.975291
0.975289
0.975286
0.975283
0.975283
0.975281
0.975278
0.975275
0.975273
0.975273
0.97527
0.975267
0.975265
0.975262
0.975262
0.975259
0.975257
0.975254
0.975251
0.975251
0.975249
0.975246
0.975243
0.975241
0.975241
0.975238
0.975235
0.975232
0.97523
0.97523
0.975227
0.975224
0.975222
0.975219
0.975219
0.975216
0.975214
0.975211
0.975208
0.975208
0.975205
0.975203
0.9752
0.975197
0.975197
0.975195
0.975192
0.975189
0.975187
0.975187
0.975184
0.975181
0.975178
0.975176
0.975176
0.975173
0.97517
0.975167
0.975165
0.975165
0.975162
0.975159
0.975157
0.975154
0.975154
0.975151
0.975148
0.975146
0.975143
0.975143
0.97514
0.975137
0.975135
0.975132
0.975132
0.975129
0.975126
0.975124
0.975121
0.975121
0.975118
0.975115
0.975113
0.97511
0.97511
0.975107
0.975104
0.975102
0.975099
0.975099
0.975096
0.975093
0.97509
0.975088
0.975088
0.975085
0.975082
0.975079
0.975077
0.975077
0.975074
0.975071
0.975068
0.975065
0.975065
0.975063
0.97506
0.975057
0.975054
0.975054
0.975051
0.975049
0.975046
0.975043
0.975043
0.97504
0.975037
0.975035
0.975032
0.975032
0.975029
0.975026
0.975023
0.975021
0.975021
0.975018
0.975015
0.975012
0.975009
0.975009
0.975007
0.975004
0.975001
0.974998
0.974998
0.974995
0.974992
0.97499
0.974987
0.974987
0.974984
0.974981
0.974978
0.974975
0.974975
0.974973
0.97497
0.974967
0.974964
0.974964
0.974961
0.974958
0.974956
0.974953
0.974953
0.97495
0.974947
0.974944
0.974941
0.974941
0.974938
0.974936
0.974933
0.97493
0.97493
0.974927
0.974924
0.974921
0.974918
0.974918
0.974915
0.974913
0.97491
0.974907
0.974907
0.974904
0.974901
0.974898
0.974895
0.974895
0.974892
0.97489
0.974887
0.974884
0.974884
0.974881
0.974878
0.974875
0.974872
0.974872
0.974869
0.974866
0.974863
0.974861
0.974861
0.974858
0.974855
0.974852
0.974849
0.974849
0.974846
0.974843
0.97484
0.974837
0.974837
0.974834
0.974831
0.974829
0.974826
0.974826
0.974823
0.97482
0.974817
0.974814
0.974814
0.974811
0.974808
0.974805
0.974802
0.974802
0.974799
0.974796
0.974793
0.97479
0.97479
0.974787
0.974785
0.974782
0.974779
0.974779
0.974776
0.974773
0.97477
0.974767
0.974767
0.974764
0.974761
0.974758
0.974755
0.974755
0.974752
0.974749
0.974746
0.974743
0.974743
0.97474
0.974737
0.974734
0.974731
0.974731
0.974728
0.974725
0.974722
0.974719
0.974719
0.974716
0.974713
0.97471
0.974707
0.974707
0.974704
0.974701
0.974698
0.974695
0.974695
0.974692
0.974689
0.974686
0.974683
0.974683
0.97468
0.974677
0.974674
0.974671
0.974671
0.974668
0.974665
0.974662
0.974659
0.974659
0.974656
0.974653
0.97465
0.974647
0.974647
0.974644
0.974641
0.974638
0.974635
0.974635
0.974632
0.974629
0.974626
0.974623
0.974623
0.97462
0.974617
0.974614
0.974611
0.974611
0.974608
0.974604
0.974601
0.974598
0.974598
0.974595
0.974592
0.974589
0.974586
0.974586
0.974583
0.97458
0.974577
0.974574
0.974574
0.97457
0.974567
0.974564
0.974561
0.974561
0.974558
0.974555
0.974552
0.974549
0.974549
0.974546
0.974543
0.974539
0.974536
0.974536
0.974533
0.97453
0.974527
0.974524
0.974524
0.974521
0.974518
0.974515
0.974512
0.974512
0.974508
0.974505
0.974502
0.974499
0.974499
0.974496
0.974493
0.97449
0.974487
0.974487
0.974484
0.97448
0.974477
0.974474
0.974474
0.974471
0.974468
0.974465
0.974462
0.974462
0.974458
0.974455
0.974452
0.974449
0.974449
0.974446
0.974443
0.97444
0.974436
0.974436
0.974433
0.97443
0.974427
0.974424
0.974424
0.974421
0.974417
0.974414
0.974411
0.974411
0.974408
0.974405
0.974401
0.974398
0.974398
0.974395
0.974392
0.974389
0.974385
0.974385
0.974382
0.974379
0.974376
0.974373
0.974373
0.974369
0.974366
0.974363
0.97436
0.97436
0.974356
0.974353
0.97435
0.974347
0.974347
0.974344
0.97434
0.974337
0.974334
0.974334
0.974331
0.974327
0.974324
0.974321
0.974321
0.974318
0.974314
0.974311
0.974308
0.974308
0.974305
0.974302
0.974298
0.974295
0.974295
0.974292
0.974289
0.974285
0.974282
0.974282
0.974279
0.974275
0.974272
0.974269
0.974269
0.974266
0.974262
0.974259
0.974256
0.974256
0.974253
0.974249
0.974246
0.974243
0.974243
0.974239
0.974236
0.974233
0.97423
0.97423
0.974226
0.974223
0.97422
0.974216
0.974216
0.974213
0.97421
0.974207
0.974203
0.974203
0.9742
0.974197
0.974193
0.97419
0.97419
0.974187
0.974184
0.97418
0.974177
0.974177
0.974174
0.97417
0.974167
0.974164
0.974164
0.97416
0.974157
0.974154
0.97415
0.97415
0.974147
0.974144
0.97414
0.974137
0.974137
0.974134
0.97413
0.974127
0.974124
0.974124
0.97412
0.974117
0.974114
0.97411
0.97411
0.974107
0.974104
0.9741
0.974097
0.974097
0.974094
0.97409
0.974087
0.974084
0.974084
0.97408
0.974077
0.974073
0.97407
0.97407
0.974067
0.974063
0.97406
0.974057
0.974057
0.974053
0.97405
0.974047
0.974043
0.974043
0.97404
0.974036
0.974033
0.97403
0.97403
0.974026
0.974023
0.974019
0.974016
0.974016
0.974013
0.974009
0.974006
0.974003
0.974003
0.973999
0.973996
0.973992
0.973989
0.973989
0.973986
0.973982
0.973979
0.973975
0.973975
0.973972
0.973969
0.973965
0.973962
0.973962
0.973958
0.973955
0.973951
0.973948
0.973948
0.973945
0.973941
0.973938
0.973934
0.973934
0.973931
0.973927
0.973924
0.973921
0.973921
0.973917
0.973914
0.97391
0.973907
0.973907
0.973903
0.9739
0.973897
0.973893
0.973893
0.97389
0.973886
0.973883
0.973879
0.973879
0.973876
0.973872
0.973869
0.973865
0.973865
0.973862
0.973859
0.973855
0.973852
0.973852
0.973848
0.973845
0.973841
0.973838
0.973838
0.973834
0.973831
0.973827
0.973824
0.973824
0.97382
0.973817
0.973813
0.97381
0.97381
0.973806
0.973803
0.973799
0.973796
0.973796
0.973792
0.973789
0.973785
0.973782
0.973782
0.973778
0.973775
0.973771
0.973768
0.973768
0.973764
0.973761
0.973757
0.973754
0.973754
0.97375
0.973747
0.973743
0.97374
0.97374
0.973736
0.973733
0.973729
0.973726
0.973726
0.973722
0.973719
0.973715
0.973712
0.973712
0.973708
0.973705
0.973701
0.973697
0.973697
0.973694
0.97369
0.973687
0.973683
0.973683
0.97368
0.973676
0.973673
0.973669
0.973669
0.973666
0.973662
0.973658
0.973655
0.973655
0.973651
0.973648
0.973644
0.973641
0.973641
0.973637
0.973633
0.97363
0.973626
0.973626
0.973623
0.973619
0.973616
0.973612
0.973612
0.973608
0.973605
0.973601
0.973598
0.973598
0.973594
0.97359
0.973587
0.973583
0.973583
0.97358
0.973576
0.973572
0.973569
0.973569
0.973565
0.973561
0.973558
0.973554
0.973554
0.97355
0.973547
0.973543
0.97354
0.97354
0.973536
0.973532
0.973529
0.973525
0.973525
0.973521
0.973518
0.973514
0.97351
0.97351
0.973507
0.973503
0.973499
0.973496
0.973496
0.973492
0.973488
0.973485
0.973481
0.973481
0.973477
0.973474
0.97347
0.973466
0.973466
0.973463
0.973459
0.973455
0.973452
0.973452
0.973448
0.973444
0.973441
0.973437
0.973437
0.973433
0.97343
0.973426
0.973422
0.973422
0.973419
0.973415
0.973411
0.973408
0.973408
0.973404
0.9734
0.973397
0.973393
0.973393
0.973389
0.973385
0.973382
0.973378
0.973378
0.973374
0.973371
0.973367
0.973363
0.973363
0.973359
0.973356
0.973352
0.973348
0.973348
0.973344
0.973341
0.973337
0.973333
0.973333
0.973329
0.973326
0.973322
0.973318
0.973318
0.973314
0.973311
0.973307
0.973303
0.973303
0.973299
0.973296
0.973292
0.973288
0.973288
0.973284
0.973281
0.973277
0.973273
0.973273
0.973269
0.973265
0.973262
0.973258
0.973258
0.973254
0.97325
0.973246
0.973243
0.973243
0.973239
0.973235
0.973231
0.973228
0.973228
0.973224
0.97322
0.973216
0.973212
0.973212
0.973208
0.973205
0.973201
0.973197
0.973197
0.973193
0.973189
0.973186
0.973182
0.973182
0.973178
0.973174
0.97317
0.973166
0.973166
0.973163
0.973159
0.973155
0.973151
0.973151
0.973147
0.973143
0.97314
0.973136
0.973136
0.973132
0.973128
0.973124
0.97312
0.97312
0.973117
0.973113
0.973109
0.973105
0.973105
0.973101
0.973097
0.973093
0.97309
0.97309
0.973086
0.973082
0.973078
0.973074
0.973074
0.97307
0.973066
0.973062
0.973059
0.973059
0.973055
0.973051
0.973047
0.973043
0.973043
0.973039
0.973035
0.973031
0.973028
0.973028
0.973024
0.97302
0.973016
0.973012
0.973012
0.973008
0.973004
0.973
0.972996
0.972996
0.972993
0.972989
0.972985
0.972981
0.972981
0.972977
0.972973
0.972969
0.972965
0.972965
0.972961
0.972957
0.972953
0.97295
0.97295
0.972946
0.972942
0.972938
0.972934
0.972934
0.97293
0.972926
0.972922
0.972918
0.972918
0.972914
0.97291
0.972906
0.972902
0.972902
0.972898
0.972894
0.972891
0.972887
0.972887
0.972883
0.972879
0.972875
0.972871
0.972871
0.972867
0.972863
0.972859
0.972855
0.972855
0.972851
0.972847
0.972843
0.972839
0.972839
0.972835
0.972831
0.972827
0.972823
0.972823
0.972819
0.972815
0.972811
0.972807
0.972807
0.972803
0.972799
0.972795
0.972791
0.972791
0.972787
0.972783
0.972779
0.972775
0.972775
0.972771
0.972767
0.972763
0.972759
0.972759
0.972755
0.972751
0.972747
0.972743
0.972743
0.972739
0.972735
0.972731
0.972727
0.972727
0.972723
0.972719
0.972715
0.972711
0.972711
0.972707
0.972703
0.972699
0.972695
0.972695
0.972691
0.972687
0.972683
0.972679
0.972679
0.972675
0.972671
0.972667
0.972663
0.972663
0.972659
0.972655
0.972651
0.972647
0.972647
0.972643
0.972639
0.972635
0.972631
0.972631
0.972627
0.972623
0.972618
0.972614
0.972614
0.97261
0.972606
0.972602
0.972598
0.972598
0.972594
0.97259
0.972586
0.972582
0.972582
0.972578
0.972574
0.97257
0.972565
0.972565
0.972561
0.972557
0.972553
0.972549
0.972549
0.972545
0.972541
0.972537
0.972533
0.972533
0.972528
0.972524
0.97252
0.972516
0.972516
0.972512
0.972508
0.972504
0.9725
0.9725
0.972495
0.972491
0.972487
0.972483
0.972483
0.972479
0.972475
0.97247
0.972466
0.972466
0.972462
0.972458
0.972454
0.97245
0.97245
0.972445
0.972441
0.972437
0.972433
0.972433
0.972429
0.972425
0.97242
0.972416
0.972416
0.972412
0.972408
0.972404
0.9724
0.9724
0.972396
0.972391
0.972387
0.972383
0.972383
0.972379
0.972375
0.972371
0.972366
0.972366
0.972362
0.972358
0.972354
0.97235
0.97235
0.972346
0.972341
0.972337
0.972333
0.972333
0.972329
0.972325
0.97232
0.972316
0.972316
0.972312
0.972308
0.972304
0.972299
0.972299
0.972295
0.972291
0.972287
0.972282
0.972282
0.972278
0.972274
0.97227
0.972265
0.972265
0.972261
0.972257
0.972253
0.972249
0.972249
0.972244
0.97224
0.972236
0.972231
0.972231
0.972227
0.972223
0.972219
0.972214
0.972214
0.97221
0.972206
0.972202
0.972197
0.972197
0.972193
0.972189
0.972184
0.97218
0.97218
0.972176
0.972172
0.972167
0.972163
0.972163
0.972159
0.972154
0.97215
0.972146
0.972146
0.972142
0.972137
0.972133
0.972129
0.972129
0.972124
0.97212
0.972116
0.972111
0.972111
0.972107
0.972103
0.972098
0.972094
0.972094
0.97209
0.972086
0.972081
0.972077
0.972077
0.972073
0.972068
0.972064
0.97206
0.97206
0.972055
0.972051
0.972047
0.972042
0.972042
0.972038
0.972033
0.972029
0.972025
0.972025
0.97202
0.972016
0.972012
0.972007
0.972007
0.972003
0.971999
0.971994
0.97199
0.97199
0.971986
0.971981
0.971977
0.971973
0.971973
0.971968
0.971964
0.971959
0.971955
0.971955
0.971951
0.971946
0.971942
0.971938
0.971938
0.971933
0.971929
0.971924
0.97192
0.97192
0.971916
0.971911
0.971907
0.971902
0.971902
0.971898
0.971894
0.971889
0.971885
0.971885
0.97188
0.971876
0.971872
0.971867
0.971867
0.971863
0.971858
0.971854
0.97185
0.97185
0.971845
0.971841
0.971836
0.971832
0.971832
0.971828
0.971823
0.971819
0.971814
0.971814
0.97181
0.971805
0.971801
0.971797
0.971797
0.971792
0.971788
0.971783
0.971779
0.971779
0.971774
0.97177
0.971765
0.971761
0.971761
0.971757
0.971752
0.971748
0.971743
0.971743
0.971739
0.971734
0.97173
0.971725
0.971725
0.971721
0.971717
0.971712
0.971708
0.971708
0.971703
0.971699
0.971694
0.97169
0.97169
0.971685
0.971681
0.971676
0.971672
0.971672
0.971667
0.971663
0.971658
0.971654
0.971654
0.971649
0.971645
0.97164
0.971636
0.971636
0.971631
0.971627
0.971622
0.971618
0.971618
0.971613
0.971609
0.971604
0.9716
0.9716
0.971595
0.971591
0.971586
0.971582
0.971582
0.971577
0.971573
0.971568
0.971564
0.971564
0.971559
0.971555
0.97155
0.971546
0.971546
0.971541
0.971537
0.971532
0.971527
0.971527
0.971523
0.971518
0.971514
0.971509
0.971509
0.971505
0.9715
0.971495
0.971491
0.971491
0.971486
0.971482
0.971477
0.971473
0.971473
0.971468
0.971463
0.971459
0.971454
0.971454
0.97145
0.971445
0.97144
0.971436
0.971436
0.971431
0.971426
0.971422
0.971417
0.971417
0.971413
0.971408
0.971403
0.971399
0.971399
0.971394