<?xml version="1.0"?>
<VTKFile type="UnstructuredGrid" version="0.1" byte_order="LittleEndian">
<UnstructuredGrid>
<Piece NumberOfPoints="5000" NumberOfCells="4000">
<PointData Scalars="Reaction 0">
<DataArray type="Float32" Name="Reaction 0" format="ascii">
0.789227
0.789227
0.789227
0.789227
0.789227
0.789227
0.789227
0.789227
0.789227
0.789227
0.789227
0.789227
0.789227
0.789227
0.789227
0.789227
0.789227
0.789227
0.789227
0.789227
0.789227
0.789227
0.789227
0.789227
0.789227
0.789227
0.789227
0.789227
0.789227
0.789227
0.789227
0.789227
0.789227
0.789227
0.789227
0.789227
0.789228
0.789228
0.789228
0.789228
0.789228
0.789228
0.789228
0.789228
0.789228
0.789228
0.789228
0.789228
0.789228
0.789228
0.789228
0.789228
0.789228
0.789228
0.789228
0.789228
0.789228
0.789228
0.789229
0.789229
0.789229
0.789229
0.789229
0.789229
0.789229
0.789229
0.789229
0.789229
0.789229
0.789229
0.789229
0.789229
0.789229
0.789229
0.78923
0.78923
0.78923
0.78923
0.78923
0.78923
0.78923
0.78923
0.78923
0.78923
0.78923
0.78923
0.78923
0.789231
0.789231
0.789231
0.789231
0.789231
0.789231
0.789231
0.789231
0.789231
0.789231
0.789231
0.789232
0.789232
0.789232
0.789232
0.789232
0.789232
0.789232
0.789232
0.789232
0.789232
0.789233
0.789233
0.789233
0.789233
0.789233
0.789233
0.789233
0.789233
0.789233
0.789233
0.789234
0.789234
0.789234
0.789234
0.789234
0.789234
0.789234
0.789234
0.789234
0.789235
0.789235
0.789235
0.789235
0.789235
0.789235
0.789235
0.789236
0.789236
0.789236
0.789236
0.789236
0.789236
0.789236
0.789236
0.789237
0.789237
0.789237
0.789237
0.789237
0.789237
0.789237
0.789238
0.789238
0.789238
0.789238
0.789238
0.789238
0.789238
0.789238
0.789239
0.789239
0.789239
0.789239
0.789239
0.789239
0.78924
0.78924
0.78924
0.78924
0.78924
0.78924
0.789241
0.789241
0.789241
0.789241
0.789241
0.789241
0.789241
0.789242
0.789242
0.789242
0.789242
0.789242
0.789243
0.789243
0.789243
0.789243
0.789243
0.789243
0.789244
0.789244
0.789244
0.789244
0.789244
0.789244
0.789245
0.789245
0.789245
0.789245
0.789245
0.789246
0.789246
0.789246
0.789246
0.789246
0.789247
0.789247
0.789247
0.789247
0.789247
0.789248
0.789248
0.789248
0.789248
0.789248
0.789249
0.789249
0.789249
0.789249
0.789249
0.78925
0.78925
0.78925
0.78925
0.78925
0.789251
0.789251
0.789251
0.789251
0.789251
0.789252
0.789252
0.789252
0.789252
0.789253
0.789253
0.789253
0.789253
0.789253
0.789254
0.789254
0.789254
0.789254
0.789255
0.789255
0.789255
0.789255
0.789255
0.789256
0.789256
0.789256
0.789257
0.789257
0.789257
0.789257
0.789257
0.789258
0.789258
0.789258
0.789258
0.789259
0.789259
0.789259
0.789259
0.78926
0.78926
0.78926
0.78926
0.789261
0.789261
0.789261
0.789262
0.789262
0.789262
0.789262
0.789263
0.789263
0.789263
0.789263
0.789264
0.789264
0.789264
0.789264
0.789265
0.789265
0.789265
0.789266
0.789266
0.789266
0.789266
0.789267
0.789267
0.789267
0.789267
0.789268
0.789268
0.789268
0.789268
0.789269
0.789269
0.789269
0.78927
0.78927
0.78927
0.78927
0.789271
0.789271
0.789271
0.789272
0.789272
0.789272
0.789273
0.789273
0.789273
0.789273
0.789274
0.789274
0.789274
0.789274
0.789275
0.789275
0.789276
0.789276
0.789276
0.789276
0.789277
0.789277
0.789277
0.789278
0.789278
0.789278
0.789279
0.789279
0.789279
0.78928
0.78928
0.78928
0.78928
0.789281
0.789281
0.789282
0.789282
0.789282
0.789282
0.789283
0.789283
0.789284
0.789284
0.789284
0.789284
0.789285
0.789285
0.789285
0.789286
0.789286
0.789286
0.789287
0.789287
0.789287
0.789288
0.789288
0.789289
0.789289
0.789289
0.789289
0.78929
0.78929
0.78929
0.789291
0.789291
0.789292
0.789292
0.789292
0.789293
0.789293
0.789293
0.789294
0.789294
0.789294
0.789295
0.789295
0.789296
0.789296
0.789296
0.789297
0.789297
0.789298
0.789298
0.789298
0.789298
0.789299
0.789299
0.789299
0.7893
0.7893
0.789301
0.789301
0.789301
0.789302
0.789302
0.789303
0.789303
0.789303
0.789304
0.789304
0.789305
0.789305
0.789305
0.789306
0.789306
0.789307
0.789307
0.789307
0.789308
0.789308
0.789308
0.789309
0.789309
0.789309
0.78931
0.78931
0.789311
0.789311
0.789312
0.789312
0.789313
0.789313
0.789313
0.789314
0.789314
0.789315
0.789315
0.789315
0.789316
0.789316
0.789317
0.789317
0.789317
0.789318
0.789318
0.789319
0.789319
0.789319
0.78932
0.78932
0.789321
0.789321
0.789321
0.789322
0.789322
0.789323
0.789324
0.789324
0.789324
0.789325
0.789325
0.789326
0.789326
0.789326
0.789327
0.789327
0.789328
0.789328
0.789328
0.789329
0.78933
0.78933
0.78933
0.789331
0.789331
0.789332
0.789332
0.789332
0.789333
0.789333
0.789334
0.789335
0.789335
0.789335
0.789336
0.789336
0.789337
0.789337
0.789338
0.789338
0.789339
0.789339
0.789339
0.78934
0.78934
0.789341
0.789342
0.789342
0.789342
0.789343
0.789343
0.789344
0.789344
0.789345
0.789345
0.789346
0.789346
0.789346
0.789347
0.789348
0.789348
0.789349
0.789349
0.789349
0.78935
0.789351
0.789351
0.789351
0.789352
0.789352
0.789353
0.789354
0.789354
0.789354
0.789355
0.789356
0.789356
0.789356
0.789357
0.789357
0.789358
0.789359
0.789359
0.789359
0.78936
0.789361
0.789361
0.789361
0.789362
0.789363
0.789363
0.789364
0.789364
0.789364
0.789365
0.789366
0.789366
0.789366
0.789367
0.789368
0.789368
0.789369
0.789369
0.78937
0.78937
0.789371
0.789372
0.789372
0.789372
0.789373
0.789374
0.789374
0.789374
0.789375
0.789376
0.789376
0.789377
0.789377
0.789378
0.789378
0.789379
0.78938
0.78938
0.78938
0.789381
0.789382
0.789383
0.789383
0.789383
0.789384
0.789385
0.789385
0.789385
0.789386
0.789387
0.789387
0.789388
0.789388
0.789389
0.789389
0.78939
0.789391
0.789391
0.789392
0.789392
0.789393
0.789394
0.789394
0.789394
0.789395
0.789396
0.789397
0.789397
0.789397
0.789398
0.789399
0.7894
0.7894
0.7894
0.789401
0.789402
0.789402
0.789402
0.789403
0.789404
0.789405
0.789405
0.789405
0.789406
0.789407
0.789408
0.789408
0.789408
0.789409
0.78941
0.789411
0.789411
0.789411
0.789412
0.789413
0.789414
0.789414
0.789414
0.789415
0.789416
0.789417
0.789417
0.789417
0.789418
0.789419
0.78942
0.789421
0.789421
0.789421
0.789422
0.789423
0.789424
0.789424
0.789424
0.789425
0.789426
0.789427
0.789427
0.789428
0.789428
0.789429
0.78943
0.78943
0.789431
0.789431
0.789432
0.789433
0.789433
0.789434
0.789435
0.789435
0.789436
0.789436
0.789437
0.789438
0.789439
0.78944
0.78944
0.78944
0.789441
0.789442
0.789443
0.789443
0.789444
0.789444
0.789445
0.789446
0.789446
0.789447
0.789448
0.789449
0.789449
0.789449
0.78945
0.789451
0.789452
0.789453
0.789453
0.789454
0.789454
0.789455
0.789456
0.789456
0.789457
0.789458
0.789459
0.789459
0.789459
0.78946
0.789461
0.789462
0.789463
0.789463
0.789464
0.789465
0.789465
0.789466
0.789466
0.789467
0.789468
0.789469
0.78947
0.78947
0.789471
0.789471
0.789472
0.789473
0.789473
0.789474
0.789475
0.789476
0.789477
0.789477
0.789478
0.789478
0.789479
0.78948
0.78948
0.789481
0.789482
0.789483
0.789484
0.789484
0.789485
0.789486
0.789487
0.789487
0.789487
0.789488
0.789489
0.78949
0.789491
0.789491
0.789492
0.789493
0.789494
0.789495
0.789495
0.789496
0.789497
0.789497
0.789498
0.789498
0.789499
0.7895
0.789501
0.789502
0.789502
0.789503
0.789504
0.789505
0.789506
0.789506
0.789507
0.789508
0.789509
0.78951
0.78951
0.78951
0.789511
0.789512
0.789513
0.789513
0.789514
0.789515
0.789516
0.789517
0.789517
0.789518
0.789519
0.78952
0.789521
0.789521
0.789522
0.789523
0.789524
0.789525
0.789525
0.789526
0.789527
0.789528
0.789529
0.789529
0.78953
0.789531
0.789532
0.789533
0.789533
0.789534
0.789535
0.789536
0.789537
0.789537
0.789538
0.789538
0.789539
0.78954
0.78954
0.789541
0.789542
0.789543
0.789544
0.789544
0.789545
0.789546
0.789547
0.789548
0.789548
0.789549
0.78955
0.789552
0.789553
0.789553
0.789554
0.789555
0.789556
0.789557
0.789557
0.789558
0.789559
0.78956
0.789561
0.789561
0.789562
0.789563
0.789564
0.789565
0.789565
0.789566
0.789567
0.789568
0.789569
0.789569
0.78957
0.789571
0.789572
0.789573
0.789573
0.789574
0.789575
0.789576
0.789577
0.789577
0.789578
0.789579
0.78958
0.789582
0.789582
0.789583
0.789584
0.789585
0.789586
0.789586
0.789587
0.789588
0.789589
0.78959
0.78959
0.789591
0.789592
0.789593
0.789594
0.789594
0.789595
0.789597
0.789598
0.789599
0.789599
0.7896
0.789601
0.789602
0.789603
0.789603
0.789604
0.789605
0.789606
0.789608
0.789608
0.789609
0.78961
0.789611
0.789612
0.789612
0.789613
0.789614
0.789615
0.789616
0.789616
0.789617
0.789619
0.78962
0.789621
0.789621
0.789622
0.789623
0.789624
0.789625
0.789625
0.789626
0.789628
0.789629
0.78963
0.78963
0.789631
0.789632
0.789633
0.789634
0.789634
0.789636
0.789637
0.789638
0.789639
0.789639
0.78964
0.789641
0.789642
0.789644
0.789644
0.789645
0.789646
0.789647
0.789648
0.789648
0.789649
0.789651
0.789652
0.789653
0.789653
0.789654
0.789655
0.789656
0.789658
0.789658
0.789659
0.78966
0.789661
0.789662
0.789662
0.789664
0.789665
0.789666
0.789667
0.789667
0.789668
0.789669
0.789671
0.789672
0.789672
0.789673
0.789674
0.789675
0.789677
0.789677
0.789678
0.789679
0.78968
0.789682
0.789682
0.789683
0.789684
0.789685
0.789686
0.789686
0.789688
0.789689
0.78969
0.789691
0.789691
0.789692
0.789694
0.789695
0.789696
0.789696
0.789697
0.789699
0.7897
0.789701
0.789701
0.789702
0.789704
0.789705
0.789706
0.789706
0.789707
0.789709
0.78971
0.789711
0.789711
0.789712
0.789714
0.789715
0.789716
0.789716
0.789717
0.789719
0.78972
0.789721
0.789721
0.789722
0.789724
0.789725
0.789726
0.789726
0.789728
0.789729
0.78973
0.789731
0.789731
0.789733
0.789734
0.789735
0.789737
0.789737
0.789738
0.789739
0.78974
0.789742
0.789742
0.789743
0.789744
0.789746
0.789747
0.789747
0.789748
0.78975
0.789751
0.789752
0.789752
0.789753
0.789755
0.789756
0.789757
0.789757
0.789759
0.78976
0.789761
0.789763
0.789763
0.789764
0.789765
0.789767
0.789768
0.789768
0.789769
0.789771
0.789772
0.789773
0.789773
0.789775
0.789776
0.789777
0.789779
0.789779
0.78978
0.789781
0.789783
0.789784
0.789784
0.789785
0.789787
0.789788
0.78979
0.78979
0.789791
0.789792
0.789794
0.789795
0.789795
0.789796
0.789798
0.789799
0.7898
0.7898
0.789802
0.789803
0.789805
0.789806
0.789806
0.789807
0.789809
0.78981
0.789812
0.789812
0.789813
0.789814
0.789816
0.789817
0.789817
0.789819
0.78982
0.789821
0.789823
0.789823
0.789824
0.789826
0.789827
0.789828
0.789828
0.78983
0.789831
0.789833
0.789834
0.789834
0.789835
0.789837
0.789838
0.78984
0.78984
0.789841
0.789843
0.789844
0.789845
0.789845
0.789847
0.789848
0.78985
0.789851
0.789851
0.789853
0.789854
0.789855
0.789857
0.789857
0.789858
0.78986
0.789861
0.789863
0.789863
0.789864
0.789866
0.789867
0.789868
0.789868
0.78987
0.789871
0.789873
0.789874
0.789874
0.789876
0.789877
0.789878
0.78988
0.78988
0.789881
0.789883
0.789884
0.789885
0.789885
0.789887
0.789888
0.789889
0.789891
0.789891
0.789892
0.789893
0.789895
0.789896
0.789896
0.789897
0.789899
0.7899
0.789901
0.789901
0.789903
0.789904
0.789905
0.789906
0.789906
0.789908
0.789909
0.78991
0.789911
0.789911
0.789913
0.789914
0.789915
0.789916
0.789916
0.789917
0.789919
0.78992
0.789921
0.789921
0.789922
0.789923
0.789924
0.789926
0.789926
0.789927
0.789928
0.789929
0.78993
0.78993
0.789931
0.789932
0.789934
0.789935
0.789935
0.789936
0.789937
0.789938
0.789939
0.789939
0.78994
0.789942
0.789943
0.789944
0.789944
0.789945
0.789946
0.789947
0.789948
0.789948
0.78995
0.789951
0.789952
0.789953
0.789953
0.789954
0.789955
0.789956
0.789958
0.789958
0.789959
0.78996
0.789961
0.789962
0.789962
0.789963
0.789965
0.789966
0.789967
0.789967
0.789968
0.789969
0.78997
0.789972
0.789972
0.789973
0.789974
0.789975
0.789976
0.789976
0.789977
0.789979
0.78998
0.789981
0.789981
0.789982
0.789983
0.789985
0.789986
0.789986
0.789987
0.789988
0.789989
0.78999
0.78999
0.789992
0.789993
0.789994
0.789995
0.789995
0.789996
0.789998
0.789999
0.79
0.79
0.790001
0.790003
0.790004
0.790005
0.790005
0.790006
0.790007
0.790009
0.79001
0.79001
0.790011
0.790012
0.790013
0.790015
0.790015
0.790016
0.790017
0.790018
0.79002
0.79002
0.790021
0.790022
0.790023
0.790025
0.790025
0.790026
0.790027
0.790028
0.790029
0.790029
0.790031
0.790032
0.790033
0.790034
0.790034
0.790036
0.790037
0.790038
0.790039
0.790039
0.790041
0.790042
0.790043
0.790045
0.790045
0.790046
0.790047
0.790048
0.79005
0.79005
0.790051
0.790052
0.790053
0.790055
0.790055
0.790056
0.790057
0.790058
0.79006
0.79006
0.790061
0.790062
0.790064
0.790065
0.790065
0.790066
0.790067
0.790069
0.79007
0.79007
0.790071
0.790073
0.790074
0.790075
0.790075
0.790077
0.790078
0.790079
0.79008
0.79008
0.790082
0.790083
0.790084
0.790086
0.790086
0.790087
0.790088
0.79009
0.790091
0.790091
0.790092
0.790094
0.790095
0.790096
0.790096
0.790098
0.790099
0.7901
0.790102
0.790102
0.790103
0.790104
0.790105
0.790107
0.790107
0.790108
0.79011
0.790111
0.790112
0.790112
0.790114
0.790115
0.790116
0.790118
0.790118
0.790119
0.79012
0.790122
0.790123
0.790123
0.790124
0.790126
0.790127
0.790128
0.790128
0.79013
0.790131
0.790132
0.790134
0.790134
0.790135
0.790137
0.790138
0.790139
0.790139
0.790141
0.790142
0.790143
0.790145
0.790145
0.790146
0.790148
0.790149
0.79015
0.79015
0.790152
0.790153
0.790155
0.790156
0.790156
0.790157
0.790159
0.79016
0.790162
0.790162
0.790163
0.790164
0.790166
0.790167
0.790167
0.790169
0.79017
0.790171
0.790173
0.790173
0.790174
0.790176
0.790177
0.790178
0.790178
0.79018
0.790181
0.790183
0.790184
0.790184
0.790186
0.790187
0.790188
0.79019
0.79019
0.790191
0.790193
0.790194
0.790196
0.790196
0.790197
0.790198
0.7902
0.790201
0.790201
0.790203
0.790204
0.790206
0.790207
0.790207
0.790209
0.79021
0.790212
0.790213
0.790213
0.790214
0.790216
0.790217
0.790219
0.790219
0.79022
0.790222
0.790223
0.790225
0.790225
0.790226
0.790228
0.790229
0.790231
0.790231
0.790232
0.790234
0.790235
0.790237
0.790237
0.790238
0.79024
0.790241
0.790242
0.790242
0.790244
0.790245
0.790247
0.790248
0.790248
0.79025
0.790251
0.790253
0.790254
0.790254
0.790256
0.790257
0.790259
0.790261
0.790261
0.790262
0.790264
0.790265
0.790267
0.790267
0.790268
0.79027
0.790271
0.790273
0.790273
0.790274
0.790276
0.790277
0.790279
0.790279
0.79028
0.790282
0.790283
0.790285
0.790285
0.790286
0.790288
0.79029
0.790291
0.790291
0.790293
0.790294
0.790296
0.790297
0.790297
0.790299
0.7903
0.790302
0.790304
0.790304
0.790305
0.790307
0.790308
0.79031
0.79031
0.790311
0.790313
0.790314
0.790316
0.790316
0.790318
0.790319
0.790321
0.790322
0.790322
0.790324
0.790326
0.790327
0.790329
0.790329
0.79033
0.790332
0.790333
0.790335
0.790335
0.790337
0.790338
0.79034
0.790341
0.790341
0.790343
0.790345
0.790346
0.790348
0.790348
0.790349
0.790351
0.790353
0.790354
0.790354
0.790356
0.790358
0.790359
0.790361
0.790361
0.790362
0.790364
0.790366
0.790367
0.790367
0.790369
0.790371
0.790372
0.790374
0.790374
0.790375
0.790377
0.790379
0.79038
0.79038
0.790382
0.790384
0.790385
0.790387
0.790387
0.790389
0.79039
0.790392
0.790394
0.790394
0.790395
0.790397
0.790399
0.7904
0.7904
0.790402
0.790404
0.790405
0.790407
0.790407
0.790409
0.79041
0.790412
0.790414
0.790414
0.790415
0.790417
0.790419
0.79042
0.79042
0.790422
0.790424
0.790425
0.790427
0.790427
0.790429
0.79043
0.790432
0.790434
0.790434
0.790436
0.790437
0.790439
0.790441
0.790441
0.790442
0.790444
0.790446
0.790448
0.790448
0.790449
0.790451
0.790453
0.790454
0.790454
0.790456
0.790458
0.79046
0.790461
0.790461
0.790463
0.790465
0.790467
0.790468
0.790468
0.79047
0.790472
0.790473
0.790475
0.790475
0.790477
0.790479
0.79048
0.790482
0.790482
0.790484
0.790486
0.790487
0.790489
0.790489
0.790491
0.790493
0.790495
0.790496
0.790496
0.790498
0.7905
0.790502
0.790503
0.790503
0.790505
0.790507
0.790509
0.79051
0.79051
0.790512
0.790514
0.790516
0.790518
0.790518
0.790519
0.790521
0.790523
0.790525
0.790525
0.790527
0.790528
0.79053
0.790532
0.790532
0.790534
0.790536
0.790537
0.790539
0.790539
0.790541
0.790543
0.790545
0.790546
0.790546
0.790548
0.79055
0.790552
0.790554
0.790554
0.790556
0.790557
0.790559
0.790561
0.790561
0.790563
0.790565
0.790567
0.790568
0.790568
0.79057
0.790572
0.790574
0.790576
0.790576
0.790578
0.79058
0.790581
0.790583
0.790583
0.790585
0.790587
0.790589
0.790591
0.790591
0.790593
0.790594
0.790596
0.790598
0.790598
0.7906
0.790602
0.790604
0.790606
0.790606
0.790608
0.790609
0.790611
0.790613
0.790613
0.790615
0.790617
0.790619
0.790621
0.790621
0.790623
0.790625
0.790626
0.790628
0.790628
0.79063
0.790632
0.790634
0.790636
0.790636
0.790638
0.79064
0.790642
0.790644
0.790644
0.790645
0.790647
0.790649
0.790651
0.790651
0.790653
0.790655
0.790657
0.790659
0.790659
0.790661
0.790663
0.790665
0.790666
0.790666
0.790668
0.79067
0.790672
0.790674
0.790674
0.790676
0.790678
0.79068
0.790681
0.790681
0.790683
0.790685
0.790687
0.790689
0.790689
0.790691
0.790692
0.790694
0.790696
0.790696
0.790698
0.790699
0.790701
0.790703
0.790703
0.790705
0.790706
0.790708
0.79071
0.79071
0.790711
0.790713
0.790715
0.790716
0.790716
0.790718
0.79072
0.790721
0.790723
0.790723
0.790724
0.790726
0.790728
0.790729
0.790729
0.790731
0.790732
0.790734
0.790735
0.790735
0.790737
0.790738
0.79074
0.790741
0.790741
0.790743
0.790744
0.790745
0.790747
0.790747
0.790748
0.79075
0.790751
0.790753
0.790753
0.790754
0.790756
0.790757
0.790759
0.790759
0.79076
0.790761
0.790763
0.790764
0.790764
0.790766
0.790767
0.790769
0.79077
0.79077
0.790771
0.790773
0.790774
0.790776
0.790776
0.790777
0.790779
0.79078
0.790782
0.790782
0.790783
0.790785
0.790786
0.790787
0.790787
0.790789
0.79079
0.790792
0.790793
0.790793
0.790795
0.790796
0.790798
0.790799
0.790799
0.790801
0.790802
0.790804
0.790805
0.790805
0.790807
0.790808
0.790809
0.790811
0.790811
0.790812
0.790814
0.790815
0.790817
0.790817
0.790818
0.79082
0.790821
0.790823
0.790823
0.790824
0.790826
0.790827
0.790829
0.790829
0.79083
0.790832
0.790833
0.790835
0.790835
0.790836
0.790838
0.790839
0.790841
0.790841
0.790843
0.790844
0.790846
0.790847
0.790847
0.790849
0.79085
0.790852
0.790853
0.790853
0.790855
0.790856
0.790858
0.790859
0.790859
0.790861
0.790862
0.790864
0.790866
0.790866
0.790867
0.790869
0.79087
0.790872
0.790872
0.790873
0.790875
0.790876
0.790878
0.790878
0.79088
0.790881
0.790883
0.790884
0.790884
0.790886
0.790887
0.790889
0.79089
0.79089
0.790892
0.790894
0.790895
0.790897
0.790897
0.790898
0.7909
0.790902
0.790903
0.790903
0.790905
0.790906
0.790908
0.79091
0.79091
0.790911
0.790913
0.790914
0.790916
0.790916
0.790918
0.790919
0.790921
0.790922
0.790922
0.790924
0.790926
0.790927
0.790929
0.790929
0.79093
0.790932
0.790934
0.790935
0.790935
0.790937
0.790939
0.79094
0.790942
0.790942
0.790943
0.790945
0.790947
0.790948
0.790948
0.79095
0.790952
0.790953
0.790955
0.790955
0.790957
0.790958
0.79096
0.790961
0.790961
0.790963
0.790965
0.790966
0.790968
0.790968
0.79097
0.790971
0.790973
0.790975
0.790975
0.790976
0.790978
0.79098
0.790981
0.790981
0.790983
0.790985
0.790986
0.790988
0.790988
0.79099
0.790992
0.790993
0.790995
0.790995
0.790997
0.790998
0.791
0.791002
0.791002
0.791003
0.791005
0.791007
0.791008
0.791008
0.79101
0.791012
0.791014
0.791015
0.791015
0.791017
0.791019
0.79102
0.791022
0.791022
0.791024
0.791026
0.791027
0.791029
0.791029
0.791031
0.791033
0.791034
0.791036
0.791036
0.791038
0.791039
0.791041
0.791043
0.791043
0.791045
0.791046
0.791048
0.79105
0.79105
0.791052
0.791053
0.791055
0.791057
0.791057
0.791059
0.79106
0.791062
0.791064
0.791064
0.791066
0.791068
0.791069
0.791071
0.791071
0.791073
0.791075
0.791076
0.791078
0.791078
0.79108
0.791082
0.791084
0.791085
0.791085
0.791087
0.791089
0.791091
0.791092
0.791092
0.791094
0.791096
0.791098
0.7911
0.7911
0.791101
0.791103
0.791105
0.791107
0.791107
0.791109
0.791111
0.791112
0.791114
0.791114
0.791116
0.791118
0.79112
0.791121
0.791121
0.791123
0.791125
0.791127
0.791129
0.791129
0.791131
0.791132
0.791134
0.791136
0.791136
0.791138
0.79114
0.791142
0.791143
0.791143
0.791145
0.791147
0.791149
0.791151
0.791151
0.791153
0.791155
0.791156
0.791158
0.791158
0.79116
0.791162
0.791164
0.791166
0.791166
0.791168
0.79117
0.791171
0.791173
0.791173
0.791175
0.791177
0.791179
0.791181
0.791181
0.791183
0.791185
0.791187
0.791188
0.791188
0.79119
0.791192
0.791194
0.791196
0.791196
0.791198
0.7912
0.791202
0.791204
0.791204
0.791206
0.791208
0.791209
0.791211
0.791211
0.791213
0.791215
0.791217
0.791219
0.791219
0.791221
0.791223
0.791225
0.791227
0.791227
0.791229
0.791231
0.791233
0.791235
0.791235
0.791237
0.791238
0.79124
0.791242
0.791242
0.791244
0.791246
0.791248
0.79125
0.79125
0.791252
0.791254
0.791256
0.791258
0.791258
0.79126
0.791262
0.791264
0.791266
0.791266
0.791268
0.79127
0.791272
0.791274
0.791274
0.791276
0.791278
0.79128
0.791282
0.791282
0.791284
0.791286
0.791288
0.79129
0.79129
0.791292
0.791294
0.791296
0.791298
0.791298
0.7913
0.791302
0.791304
0.791306
0.791306
0.791308
0.79131
0.791312
0.791314
0.791314
0.791316
0.791318
0.79132
0.791322
0.791322
0.791324
0.791326
0.791328
0.79133
0.79133
0.791332
0.791334
0.791336
0.791338
0.791338
0.791339
0.791341
0.791343
0.791345
0.791345
0.791347
0.791349
0.791351
0.791353
0.791353
0.791355
0.791356
0.791358
0.79136
0.79136
0.791362
0.791364
0.791365
0.791367
0.791367
0.791369
0.79137
0.791372
0.791374
0.791374
0.791376
0.791377
0.791379
0.791381
0.791381
0.791382
0.791384
0.791385
0.791387
0.791387
0.791389
0.79139
0.791392
0.791393
0.791393
0.791395
0.791396
0.791398
0.791399
0.791399
0.791401
0.791402
0.791404
0.791405
0.791405
0.791407
0.791408
0.79141
0.791411
0.791411
0.791413
0.791414
0.791415
0.791417
0.791417
0.791418
0.79142
0.791421
0.791423
0.791423
0.791424
0.791426
0.791427
0.791428
0.791428
0.79143
0.791431
0.791433
0.791434
0.791434
0.791436
0.791437
0.791439
0.79144
0.79144
0.791442
0.791443
0.791444
0.791446
0.791446
0.791447
0.791449
0.79145
0.791452
0.791452
0.791453
0.791455
0.791456
0.791458
0.791458
0.791459
0.791461
0.791462
0.791464
0.791464
0.791465
0.791467
0.791468
0.79147
0.79147
0.791471
0.791473
0.791474
0.791476
0.791476
0.791477
0.791479
0.79148
0.791482
0.791482
0.791483
0.791485
0.791486
0.791488
0.791488
0.791489
0.791491
0.791492
0.791494
0.791494
0.791495
0.791497
0.791498
0.7915
0.7915
0.791501
0.791503
0.791504
0.791506
0.791506
0.791507
0.791509
0.791511
0.791512
0.791512
0.791514
0.791515
0.791517
0.791518
0.791518
0.79152
0.791521
0.791523
0.791524
0.791524
0.791526
0.791528
0.791529
0.791531
0.791531
0.791532
0.791534
0.791535
0.791537
0.791537
0.791539
0.79154
0.791542
0.791543
0.791543
0.791545
0.791547
0.791548
0.79155
0.79155
0.791551
0.791553
0.791555
0.791556
0.791556
0.791558
0.791559
0.791561
0.791563
0.791563
0.791564
0.791566
0.791567
0.791569
0.791569
0.791571
0.791572
0.791574
0.791575
0.791575
0.791577
0.791579
0.79158
0.791582
0.791582
0.791584
0.791585
0.791587
0.791589
0.791589
0.79159
0.791592
0.791593
0.791595
0.791595
0.791597
0.791598
0.7916
0.791602
0.791602
0.791603
0.791605
0.791607
0.791608
0.791608
0.79161
0.791612
0.791613
0.791615
0.791615
0.791617
0.791618
0.79162
0.791622
0.791622
0.791623
0.791625
0.791627
0.791629
0.791629
0.79163
0.791632
0.791634
0.791635
0.791635
0.791637
0.791639
0.79164
0.791642
0.791642
0.791644
0.791646
0.791647
0.791649
0.791649
0.791651
0.791652
0.791654
0.791656
0.791656
0.791658
0.791659
0.791661
0.791663
0.791663
0.791664
0.791666
0.791668
0.79167
0.79167
0.791671
0.791673
0.791675
0.791677
0.791677
0.791678
0.79168
0.791682
0.791684
0.791684
0.791685
0.791687
0.791689
0.791691
0.791691
0.791692
0.791694
0.791696
0.791698
0.791698
0.7917
0.791701
0.791703
0.791705
0.791705
0.791707
0.791708
0.79171
0.791712
0.791712
0.791714
0.791716
0.791717
0.791719
0.791719
0.791721
0.791723
0.791725
0.791726
0.791726
0.791728
0.79173
0.791732
0.791734
0.791734
0.791736
0.791737
0.791739
0.791741
0.791741
0.791743
0.791745
0.791746
0.791748
0.791748
0.79175
0.791752
0.791754
0.791756
0.791756
0.791758
0.791759
0.791761
0.791763
0.791763
0.791765
0.791767
0.791769
0.79177
0.79177
0.791772
0.791774
0.791776
0.791778
0.791778
0.79178
0.791782
0.791784
0.791785
0.791785
0.791787
0.791789
0.791791
0.791793
0.791793
0.791795
0.791797
0.791799
0.791801
0.791801
0.791802
0.791804
0.791806
0.791808
0.791808
0.79181
0.791812
0.791814
0.791816
0.791816
0.791818
0.79182
0.791822
0.791823
0.791823
0.791825
0.791827
0.791829
0.791831
0.791831
0.791833
0.791835
0.791837
0.791839
0.791839
0.791841
0.791843
0.791845
0.791846
0.791846
0.791848
0.79185
0.791852
0.791854
0.791854
0.791856
0.791858
0.79186
0.791862
0.791862
0.791863
0.791865
0.791867
0.791869
0.791869
0.791871
0.791873
0.791874
0.791876
0.791876
0.791878
0.79188
0.791881
0.791883
0.791883
0.791885
0.791887
0.791888
0.79189
0.79189
0.791892
0.791893
0.791895
0.791896
0.791896
0.791898
0.7919
0.791901
0.791903
0.791903
0.791904
0.791906
0.791907
0.791909
0.791909
0.79191
0.791912
0.791913
0.791915
0.791915
0.791916
0.791918
0.791919
0.79192
0.79192
0.791922
0.791923
0.791925
0.791926
0.791926
0.791927
0.791929
0.79193
0.791931
0.791931
0.791933
0.791934
0.791935
0.791937
0.791937
0.791938
0.791939
0.791941
0.791942
0.791942
0.791943
0.791945
0.791946
0.791947
0.791947
0.791949
0.79195
0.791951
0.791952
0.791952
0.791954
0.791955
0.791956
0.791958
0.791958
0.791959
0.79196
0.791962
0.791963
0.791963
0.791964
0.791966
0.791967
0.791968
0.791968
0.79197
0.791971
0.791972
0.791974
0.791974
0.791975
0.791976
0.791978
0.791979
0.791979
0.79198
0.791982
0.791983
0.791985
0.791985
0.791986
0.791987
0.791989
0.79199
0.79199
0.791991
0.791993
0.791994
0.791995
0.791995
0.791997
0.791998
0.792
0.792001
0.792001
0.792002
0.792004
0.792005
0.792007
0.792007
0.792008
0.792009
0.792011
0.792012
0.792012
0.792014
0.792015
0.792016
0.792018
0.792018
0.792019
0.792021
0.792022
0.792023
0.792023
0.792025
0.792026
0.792028
0.792029
0.792029
0.792031
0.792032
0.792033
0.792035
0.792035
0.792036
0.792038
0.792039
0.792041
0.792041
0.792042
0.792043
0.792045
0.792046
0.792046
0.792048
0.792049
0.792051
0.792052
0.792052
0.792054
0.792055
0.792057
0.792058
0.792058
0.79206
0.792061
0.792063
0.792064
0.792064
0.792065
0.792067
0.792068
0.79207
0.79207
0.792071
0.792073
0.792074
0.792076
0.792076
0.792077
0.792079
0.79208
0.792082
0.792082
0.792083
0.792085
0.792086
0.792088
0.792088
0.79209
0.792091
0.792093
0.792094
0.792094
0.792096
0.792097
0.792099
0.7921
0.7921
0.792102
0.792103
0.792105
0.792106
0.792106
0.792108
0.792109
0.792111
0.792113
0.792113
0.792114
0.792116
0.792117
0.792119
0.792119
0.79212
0.792122
0.792123
0.792125
0.792125
0.792127
0.792128
0.79213
0.792131
0.792131
0.792133
0.792135
0.792136
0.792138
0.792138
0.792139
0.792141
0.792142
0.792144
0.792144
0.792146
0.792147
0.792149
0.79215
0.79215
0.792152
0.792154
0.792155
0.792157
0.792157
0.792159
0.79216
0.792162
0.792163
0.792163
0.792165
0.792167
0.792168
0.79217
0.79217
0.792172
0.792173
0.792175
0.792177
0.792177
0.792178
0.79218
0.792181
0.792183
0.792183
0.792185
0.792186
0.792188
0.79219
0.79219
0.792191
0.792193
0.792195
0.792196
0.792196
0.792198
0.7922
0.792201
0.792203
0.792203
0.792205
0.792207
0.792208
0.79221
0.79221
0.792212
0.792213
0.792215
0.792217
0.792217
0.792218
0.79222
0.792222
0.792224
0.792224
0.792225
0.792227
0.792229
0.79223
0.79223
0.792232
0.792234
0.792236
0.792237
0.792237
0.792239
0.792241
0.792242
0.792244
0.792244
0.792246
0.792248
0.792249
0.792251
0.792251
0.792253
0.792255
0.792256
0.792258
0.792258
0.79226
0.792262
0.792263
0.792265
0.792265
0.792267
0.792268
0.79227
0.792272
0.792272
0.792273
0.792275
0.792277
0.792278
0.792278
0.79228
0.792282
0.792283
0.792285
0.792285
0.792287
0.792288
0.79229
0.792291
0.792291
0.792293
0.792294
0.792296
0.792297
0.792297
0.792299
0.7923
0.792302
0.792303
0.792303
0.792305
0.792306
0.792308
0.792309
0.792309
0.79231
0.792312
0.792313
0.792314
0.792314
0.792316
0.792317
0.792318
0.79232
0.79232
0.792321
0.792322
0.792323
0.792325
0.792325
0.792326
0.792327
0.792328
0.792329
0.792329
0.792331
0.792332
0.792333
0.792334
0.792334
0.792335
0.792336
0.792337
0.792339
0.792339
0.79234
0.792341
0.792342
0.792343
0.792343
0.792344
0.792345
0.792346
0.792347
0.792347
0.792349
0.79235
0.792351
0.792352
0.792352
0.792353
0.792354
0.792355
0.792356
0.792356
0.792357
0.792359
0.79236
0.792361
0.792361
0.792362
0.792363
0.792364
0.792365
0.792365
0.792366
0.792367
0.792369
0.79237
0.79237
0.792371
0.792372
0.792373
0.792374
0.792374
0.792375
0.792377
0.792378
0.792379
0.792379
0.79238
0.792381
0.792382
0.792383
0.792383
0.792385
0.792386
0.792387
0.792388
0.792388
0.792389
0.79239
0.792392
0.792393
0.792393
0.792394
0.792395
0.792396
0.792398
0.792398
0.792399
0.7924
0.792401
0.792402
0.792402
0.792403
0.792405
0.792406
0.792407
0.792407
0.792408
0.79241
0.792411
0.792412
0.792412
0.792413
0.792414
0.792416
0.792417
0.792417
0.792418
0.792419
0.792421
0.792422
0.792422
0.792423
0.792424
0.792425
0.792427
0.792427
0.792428
0.792429
0.79243
0.792432
0.792432
0.792433
0.792434
0.792435
0.792437
0.792437
0.792438
0.792439
0.792441
0.792442
0.792442
0.792443
0.792444
0.792446
0.792447
0.792447
0.792448
0.792449
0.792451
0.792452
0.792452
0.792453
0.792455
0.792456
0.792457
0.792457
0.792459
0.79246
0.792461
0.792462
0.792462
0.792464
0.792465
0.792466
0.792468
0.792468
0.792469
0.79247
0.792472
0.792473
0.792473
0.792474
0.792476
0.792477
0.792478
0.792478
0.79248
0.792481
0.792482
0.792484
0.792484
0.792485
0.792487
0.792488
0.792489
0.792489
0.792491
0.792492
0.792493
0.792495
0.792495
0.792496
0.792497
0.792499
0.7925
0.7925
0.792502
0.792503
0.792504
0.792506
0.792506
0.792507
0.792509
0.79251
0.792511
0.792511
0.792513
0.792514
0.792516
0.792517
0.792517
0.792518
0.79252
0.792521
0.792523
0.792523
0.792524
0.792526
0.792527
0.792528
0.792528
0.79253
0.792531
0.792533
0.792534
0.792534
0.792536
0.792537
0.792539
0.79254
0.79254
0.792541
0.792543
0.792544
0.792546
0.792546
0.792547
0.792549
0.79255
0.792552
0.792552
0.792553
0.792555
0.792556
0.792558
0.792558
0.792559
0.792561
0.792562
0.792563
0.792563
0.792565
0.792566
0.792568
0.792569
0.792569
0.792571
0.792572
0.792574
0.792575
0.792575
0.792577
0.792578
0.79258
0.792581
0.792581
0.792583
0.792584
0.792585
0.792587
0.792587
0.792588
0.79259
0.792591
0.792593
0.792593
0.792594
0.792595
0.792597
0.792598
0.792598
0.792599
0.792601
0.792602
0.792603
0.792603
0.792605
0.792606
0.792607
0.792608
0.792608
0.792609
0.792611
0.792612