<?xml version="1.0"?>
<VTKFile type="UnstructuredGrid" version="0.1" byte_order="LittleEndian">
<UnstructuredGrid>
<Piece NumberOfPoints="5000" NumberOfCells="4000">
<PointData Scalars="Reaction 0">
<DataArray type="Float32" Name="Reaction 0" format="ascii">
0.9966
0.9966
0.9966
0.9966
0.9966
0.9966
0.996599
0.996599
0.996599
0.996599
0.996599
0.996599
0.996599
0.996599
0.996599
0.996599
0.996599
0.996599
0.996599
0.996599
0.996599
0.996599
0.996599
0.996599
0.996599
0.996599
0.996599
0.996599
0.996599
0.996599
0.996599
0.996599
0.996599
0.996599
0.996599
0.996599
0.996599
0.996599
0.996599
0.996599
0.996599
0.996599
0.996599
0.996599
0.996599
0.996599
0.996599
0.996598
0.996598
0.996598
0.996598
0.996598
0.996598
0.996598
0.996598
0.996598
0.996598
0.996598
0.996598
0.996598
0.996598
0.996598
0.996598
0.996598
0.996598
0.996598
0.996597
0.996597
0.996597
0.996597
0.996597
0.996597
0.996597
0.996597
0.996597
0.996597
0.996597
0.996597
0.996597
0.996596
0.996596
0.996596
0.996596
0.996596
0.996596
0.996596
0.996596
0.996596
0.996596
0.996596
0.996596
0.996596
0.996595
0.996595
0.996595
0.996595
0.996595
0.996595
0.996595
0.996595
0.996595
0.996595
0.996595
0.996594
0.996594
0.996594
0.996594
0.996594
0.996594
0.996594
0.996594
0.996594
0.996594
0.996593
0.996593
0.996593
0.996593
0.996593
0.996593
0.996593
0.996593
0.996593
0.996592
0.996592
0.996592
0.996592
0.996592
0.996592
0.996592
0.996592
0.996592
0.996591
0.996591
0.996591
0.996591
0.996591
0.996591
0.996591
0.99659
0.99659
0.99659
0.99659
0.99659
0.99659
0.99659
0.99659
0.996589
0.996589
0.996589
0.996589
0.996589
0.996589
0.996589
0.996588
0.996588
0.996588
0.996588
0.996588
0.996588
0.996587
0.996587
0.996587
0.996587
0.996587
0.996587
0.996587
0.996586
0.996586
0.996586
0.996586
0.996586
0.996586
0.996585
0.996585
0.996585
0.996585
0.996585
0.996585
0.996584
0.996584
0.996584
0.996584
0.996584
0.996584
0.996583
0.996583
0.996583
0.996583
0.996583
0.996582
0.996582
0.996582
0.996582
0.996582
0.996582
0.996582
0.996581
0.996581
0.996581
0.996581
0.996581
0.99658
0.99658
0.99658
0.99658
0.99658
0.996579
0.996579
0.996579
0.996579
0.996579
0.996578
0.996578
0.996578
0.996578
0.996578
0.996577
0.996577
0.996577
0.996577
0.996577
0.996576
0.996576
0.996576
0.996576
0.996576
0.996575
0.996575
0.996575
0.996575
0.996575
0.996574
0.996574
0.996574
0.996573
0.996573
0.996573
0.996573
0.996573
0.996572
0.996572
0.996572
0.996572
0.996571
0.996571
0.996571
0.996571
0.996571
0.99657
0.99657
0.99657
0.99657
0.996569
0.996569
0.996569
0.996569
0.996569
0.996568
0.996568
0.996568
0.996568
0.996567
0.996567
0.996567
0.996566
0.996566
0.996566
0.996566
0.996565
0.996565
0.996565
0.996565
0.996564
0.996564
0.996564
0.996564
0.996563
0.996563
0.996563
0.996563
0.996563
0.996562
0.996562
0.996562
0.996561
0.996561
0.996561
0.996561
0.99656
0.99656
0.99656
0.996559
0.996559
0.996559
0.996558
0.996558
0.996558
0.996558
0.996557
0.996557
0.996557
0.996557
0.996556
0.996556
0.996556
0.996556
0.996555
0.996555
0.996555
0.996554
0.996554
0.996554
0.996553
0.996553
0.996553
0.996553
0.996552
0.996552
0.996552
0.996551
0.996551
0.996551
0.99655
0.99655
0.99655
0.99655
0.996549
0.996549
0.996549
0.996548
0.996548
0.996548
0.996547
0.996547
0.996547
0.996547
0.996546
0.996546
0.996545
0.996545
0.996545
0.996545
0.996544
0.996544
0.996543
0.996543
0.996543
0.996543
0.996542
0.996542
0.996542
0.996541
0.996541
0.99654
0.99654
0.99654
0.99654
0.996539
0.996539
0.996538
0.996538
0.996538
0.996537
0.996537
0.996537
0.996537
0.996536
0.996536
0.996535
0.996535
0.996535
0.996534
0.996534
0.996534
0.996533
0.996533
0.996533
0.996532
0.996532
0.996531
0.996531
0.996531
0.99653
0.99653
0.99653
0.99653
0.996529
0.996529
0.996528
0.996528
0.996528
0.996527
0.996527
0.996526
0.996526
0.996526
0.996525
0.996525
0.996524
0.996524
0.996524
0.996524
0.996523
0.996523
0.996522
0.996522
0.996522
0.996521
0.996521
0.99652
0.99652
0.99652
0.996519
0.996519
0.996518
0.996518
0.996518
0.996517
0.996517
0.996516
0.996516
0.996516
0.996515
0.996515
0.996514
0.996514
0.996514
0.996513
0.996513
0.996512
0.996512
0.996512
0.996511
0.996511
0.99651
0.99651
0.99651
0.996509
0.996509
0.996508
0.996508
0.996508
0.996507
0.996507
0.996506
0.996506
0.996506
0.996505
0.996504
0.996504
0.996504
0.996503
0.996503
0.996502
0.996502
0.996502
0.996501
0.996501
0.9965
0.9965
0.9965
0.996499
0.996499
0.996498
0.996497
0.996497
0.996497
0.996496
0.996496
0.996495
0.996495
0.996495
0.996494
0.996494
0.996493
0.996493
0.996492
0.996492
0.996491
0.996491
0.996491
0.99649
0.99649
0.996489
0.996489
0.996489
0.996488
0.996487
0.996487
0.996486
0.996486
0.996486
0.996485
0.996484
0.996484
0.996484
0.996483
0.996483
0.996482
0.996482
0.996482
0.996481
0.99648
0.99648
0.996479
0.996479
0.996479
0.996478
0.996477
0.996477
0.996477
0.996476
0.996476
0.996475
0.996474
0.996474
0.996474
0.996473
0.996473
0.996472
0.996472
0.996471
0.996471
0.99647
0.996469
0.996469
0.996469
0.996468
0.996468
0.996467
0.996467
0.996466
0.996466
0.996465
0.996464
0.996464
0.996464
0.996463
0.996463
0.996462
0.996462
0.996461
0.996461
0.99646
0.996459
0.996459
0.996459
0.996458
0.996457
0.996457
0.996457
0.996456
0.996455
0.996455
0.996454
0.996454
0.996453
0.996453
0.996452
0.996452
0.996452
0.996451
0.99645
0.99645
0.996449
0.996449
0.996448
0.996448
0.996447
0.996446
0.996446
0.996446
0.996445
0.996444
0.996443
0.996443
0.996443
0.996442
0.996441
0.996441
0.996441
0.99644
0.996439
0.996439
0.996438
0.996438
0.996437
0.996437
0.996436
0.996435
0.996435
0.996435
0.996434
0.996433
0.996432
0.996432
0.996432
0.996431
0.99643
0.99643
0.99643
0.996429
0.996428
0.996427
0.996427
0.996427
0.996426
0.996425
0.996425
0.996424
0.996424
0.996423
0.996422
0.996422
0.996421
0.996421
0.99642
0.99642
0.996419
0.996418
0.996418
0.996417
0.996417
0.996416
0.996415
0.996415
0.996414
0.996414
0.996413
0.996412
0.996412
0.996411
0.996411
0.99641
0.996409
0.996409
0.996408
0.996408
0.996407
0.996406
0.996406
0.996405
0.996405
0.996404
0.996403
0.996403
0.996402
0.996402
0.996401
0.9964
0.9964
0.996399
0.996399
0.996398
0.996397
0.996397
0.996396
0.996396
0.996395
0.996394
0.996394
0.996393
0.996392
0.996392
0.996391
0.996391
0.99639
0.996389
0.996388
0.996388
0.996388
0.996387
0.996386
0.996385
0.996385
0.996385
0.996384
0.996383
0.996382
0.996381
0.996381
0.996381
0.99638
0.996379
0.996378
0.996378
0.996377
0.996376
0.996376
0.996375
0.996375
0.996374
0.996373
0.996372
0.996372
0.996372
0.996371
0.99637
0.996369
0.996368
0.996368
0.996367
0.996367
0.996366
0.996365
0.996365
0.996364
0.996363
0.996362
0.996362
0.996362
0.996361
0.99636
0.996359
0.996358
0.996358
0.996357
0.996357
0.996356
0.996355
0.996355
0.996354
0.996353
0.996352
0.996351
0.996351
0.996351
0.99635
0.996349
0.996348
0.996348
0.996347
0.996346
0.996345
0.996345
0.996345
0.996344
0.996343
0.996342
0.996341
0.996341
0.99634
0.996339
0.996338
0.996338
0.996338
0.996337
0.996336
0.996335
0.996334
0.996334
0.996333
0.996332
0.996331
0.996331
0.996331
0.99633
0.996329
0.996328
0.996327
0.996327
0.996326
0.996325
0.996324
0.996323
0.996323
0.996322
0.996322
0.996321
0.99632
0.99632
0.996319
0.996318
0.996317
0.996316
0.996316
0.996315
0.996314
0.996313
0.996312
0.996312
0.996312
0.996311
0.99631
0.996309
0.996309
0.996308
0.996307
0.996306
0.996305
0.996305
0.996304
0.996303
0.996302
0.996301
0.996301
0.9963
0.996299
0.996298
0.996298
0.996298
0.996297
0.996296
0.996295
0.996294
0.996294
0.996293
0.996292
0.996291
0.99629
0.99629
0.996289
0.996288
0.996287
0.996286
0.996286
0.996285
0.996284
0.996283
0.996282
0.996282
0.996281
0.99628
0.996279
0.996278
0.996278
0.996277
0.996276
0.996275
0.996274
0.996274
0.996273
0.996272
0.996272
0.996271
0.996271
0.99627
0.996269
0.996268
0.996267
0.996267
0.996266
0.996265
0.996264
0.996263
0.996263
0.996262
0.996261
0.99626
0.996259
0.996259
0.996258
0.996257
0.996256
0.996255
0.996255
0.996254
0.996253
0.996252
0.996251
0.996251
0.99625
0.996249
0.996247
0.996246
0.996246
0.996245
0.996244
0.996243
0.996242
0.996242
0.996241
0.99624
0.996239
0.996238
0.996238
0.996237
0.996236
0.996235
0.996234
0.996234
0.996233
0.996232
0.996231
0.99623
0.99623
0.996229
0.996228
0.996227
0.996226
0.996226
0.996225
0.996224
0.996223
0.996222
0.996222
0.996221
0.996219
0.996218
0.996217
0.996217
0.996216
0.996215
0.996214
0.996213
0.996213
0.996212
0.996211
0.99621
0.996209
0.996209
0.996208
0.996207
0.996206
0.996204
0.996204
0.996203
0.996202
0.996201
0.9962
0.9962
0.996199
0.996198
0.996197
0.996196
0.996196
0.996195
0.996194
0.996193
0.996191
0.996191
0.99619
0.996189
0.996188
0.996187
0.996187
0.996186
0.996185
0.996184
0.996183
0.996183
0.996182
0.99618
0.996179
0.996178
0.996178
0.996177
0.996176
0.996175
0.996174
0.996174
0.996173
0.996171
0.99617
0.996169
0.996169
0.996168
0.996167
0.996166
0.996165
0.996165
0.996164
0.996162
0.996161
0.99616
0.99616
0.996159
0.996158
0.996157
0.996156
0.996156
0.996154
0.996153
0.996152
0.996151
0.996151
0.99615
0.996149
0.996148
0.996146
0.996146
0.996145
0.996144
0.996143
0.996142
0.996142
0.996141
0.996139
0.996138
0.996137
0.996137
0.996136
0.996135
0.996134
0.996132
0.996132
0.996131
0.99613
0.996129
0.996128
0.996128
0.996127
0.996125
0.996124
0.996123
0.996123
0.996122
0.996121
0.996119
0.996118
0.996118
0.996117
0.996116
0.996115
0.996113
0.996113
0.996112
0.996111
0.99611
0.996109
0.996109
0.996107
0.996106
0.996105
0.996104
0.996104
0.996103
0.996101
0.9961
0.996099
0.996099
0.996098
0.996097
0.996095
0.996094
0.996094
0.996093
0.996092
0.99609
0.996089
0.996089
0.996088
0.996087
0.996086
0.996084
0.996084
0.996083
0.996082
0.996081
0.996079
0.996079
0.996078
0.996077
0.996076
0.996074
0.996074
0.996073
0.996072
0.996071
0.996069
0.996069
0.996068
0.996067
0.996066
0.996064
0.996064
0.996063
0.996062
0.996061
0.996059
0.996059
0.996058
0.996057
0.996056
0.996054
0.996054
0.996053
0.996052
0.996051
0.996049
0.996049
0.996048
0.996047
0.996045
0.996044
0.996044
0.996043
0.996042
0.99604
0.996039
0.996039
0.996038
0.996036
0.996035
0.996034
0.996034
0.996033
0.996031
0.99603
0.996029
0.996029
0.996027
0.996026
0.996025
0.996023
0.996023
0.996022
0.996021
0.99602
0.996018
0.996018
0.996017
0.996016
0.996014
0.996013
0.996013
0.996012
0.99601
0.996009
0.996008
0.996008
0.996006
0.996005
0.996004
0.996002
0.996002
0.996001
0.996
0.995998
0.995997
0.995997
0.995996
0.995994
0.995993
0.995992
0.995992
0.99599
0.995989
0.995988
0.995986
0.995986
0.995985
0.995984
0.995982
0.995981
0.995981
0.995979
0.995978
0.995977
0.995975
0.995975
0.995974
0.995973
0.995971
0.99597
0.99597
0.995968
0.995967
0.995966
0.995964
0.995964
0.995963
0.995962
0.99596
0.995959
0.995959
0.995957
0.995956
0.995955
0.995953
0.995953
0.995952
0.99595
0.995949
0.995948
0.995948
0.995946
0.995945
0.995944
0.995942
0.995942
0.995941
0.995939
0.995938
0.995937
0.995937
0.995935
0.995934
0.995932
0.995931
0.995931
0.99593
0.995928
0.995927
0.995925
0.995925
0.995924
0.995923
0.995921
0.99592
0.99592
0.995918
0.995917
0.995915
0.995914
0.995914
0.995913
0.995911
0.99591
0.995908
0.995908
0.995907
0.995905
0.995904
0.995902
0.995902
0.995901
0.9959
0.995898
0.995897
0.995897
0.995895
0.995894
0.995892
0.995891
0.995891
0.995889
0.995888
0.995887
0.995885
0.995885
0.995884
0.995882
0.995881
0.995879
0.995879
0.995878
0.995876
0.995875
0.995873
0.995873
0.995872
0.99587
0.995869
0.995867
0.995867
0.995866
0.995864
0.995863
0.995861
0.995861
0.99586
0.995858
0.995857
0.995855
0.995855
0.995854
0.995852
0.995851
0.995849
0.995849
0.995848
0.995846
0.995845
0.995843
0.995843
0.995842
0.99584
0.995839
0.995837
0.995837
0.995836
0.995834
0.995833
0.995831
0.995831
0.99583
0.995828
0.995827
0.995825
0.995825
0.995824
0.995822
0.995821
0.995819
0.995819
0.995818
0.995816
0.995815
0.995813
0.995813
0.995811
0.99581
0.995808
0.995807
0.995807
0.995805
0.995804
0.995802
0.995801
0.995801
0.995799
0.995798
0.995796
0.995794
0.995794
0.995793
0.995791
0.99579
0.995788
0.995788
0.995787
0.995785
0.995784
0.995782
0.995782
0.99578
0.995779
0.995777
0.995776
0.995776
0.995774
0.995773
0.995771
0.995769
0.995769
0.995768
0.995766
0.995765
0.995763
0.995763
0.995761
0.99576
0.995758
0.995757
0.995757
0.995755
0.995754
0.995752
0.99575
0.99575
0.995749
0.995747
0.995746
0.995744
0.995744
0.995742
0.995741
0.995739
0.995738
0.995738
0.995736
0.995734
0.995733
0.995731
0.995731
0.995729
0.995728
0.995726
0.995725
0.995725
0.995723
0.995721
0.99572
0.995718
0.995718
0.995716
0.995715
0.995713
0.995712
0.995712
0.99571
0.995708
0.995707
0.995705
0.995705
0.995703
0.995702
0.9957
0.995698
0.995698
0.995697
0.995695
0.995694
0.995692
0.995692
0.99569
0.995689
0.995687
0.995685
0.995685
0.995684
0.995682
0.99568
0.995679
0.995679
0.995677
0.995675
0.995674
0.995672
0.995672
0.99567
0.995669
0.995667
0.995665
0.995665
0.995664
0.995662
0.99566
0.995659
0.995659
0.995657
0.995655
0.995654
0.995652
0.995652
0.99565
0.995648
0.995647
0.995645
0.995645
0.995643
0.995642
0.99564
0.995638
0.995638
0.995637
0.995635
0.995633
0.995632
0.995632
0.99563
0.995628
0.995626
0.995625
0.995625
0.995623
0.995621
0.99562
0.995618
0.995618
0.995616
0.995614
0.995613
0.995611
0.995611
0.995609
0.995608
0.995606
0.995604
0.995604
0.995602
0.995601
0.995599
0.995597
0.995597
0.995595
0.995594
0.995592
0.99559
0.99559
0.995588
0.995587
0.995585
0.995583
0.995583
0.995581
0.99558
0.995578
0.995576
0.995576
0.995575
0.995573
0.995571
0.995569
0.995569
0.995567
0.995566
0.995564
0.995562
0.995562
0.99556
0.995559
0.995557
0.995555
0.995555
0.995553
0.995552
0.99555
0.995548
0.995548
0.995546
0.995544
0.995543
0.995541
0.995541
0.995539
0.995537
0.995536
0.995534
0.995534
0.995532
0.99553
0.995528
0.995527
0.995527
0.995525
0.995523
0.995521
0.995519
0.995519
0.995518
0.995516
0.995514
0.995512
0.995512
0.99551
0.995509
0.995507
0.995505
0.995505
0.995503
0.995501
0.9955
0.995498
0.995498
0.995496
0.995494
0.995492
0.99549
0.99549
0.995489
0.995487
0.995485
0.995483
0.995483
0.995481
0.99548
0.995478
0.995476
0.995476
0.995474
0.995472
0.99547
0.995469
0.995469
0.995467
0.995465
0.995463
0.995461
0.995461
0.995459
0.995457
0.995456
0.995454
0.995454
0.995452
0.99545
0.995448
0.995446
0.995446
0.995444
0.995443
0.995441
0.995439
0.995439
0.995437
0.995435
0.995433
0.995431
0.995431
0.99543
0.995428
0.995426
0.995424
0.995424
0.995422
0.99542
0.995418
0.995416
0.995416
0.995415
0.995413
0.995411
0.995409
0.995409
0.995407
0.995405
0.995403
0.995401
0.995401
0.995399
0.995397
0.995396
0.995394
0.995394
0.995392
0.99539
0.995388
0.995386
0.995386
0.995384
0.995382
0.99538
0.995378
0.995378
0.995377
0.995375
0.995373
0.995371
0.995371
0.995369
0.995367
0.995365
0.995363
0.995363
0.995361
0.995359
0.995357
0.995355
0.995355
0.995353
0.995352
0.99535
0.995348
0.995348
0.995346
0.995344
0.995342
0.99534
0.99534
0.995338
0.995336
0.995334
0.995332
0.995332
0.99533
0.995328
0.995326
0.995324
0.995324
0.995322
0.99532
0.995318
0.995317
0.995317
0.995315
0.995313
0.995311
0.995309
0.995309
0.995307
0.995305
0.995303
0.995301
0.995301
0.995299
0.995297
0.995295
0.995293
0.995293
0.995291
0.995289
0.995287
0.995285
0.995285
0.995283
0.995281
0.995279
0.995277
0.995277
0.995275
0.995273
0.995271
0.995269
0.995269
0.995267
0.995265
0.995263
0.995261
0.995261
0.995259
0.995257
0.995255
0.995253
0.995253
0.995251
0.995249
0.995247
0.995245
0.995245
0.995243
0.995241
0.995239
0.995237
0.995237
0.995235
0.995233
0.995231
0.995229
0.995229
0.995227
0.995225
0.995223
0.995221
0.995221
0.995219
0.995217
0.995215
0.995213
0.995213
0.995211
0.995209
0.995207
0.995204
0.995204
0.995202
0.9952
0.995198
0.995196
0.995196
0.995194
0.995192
0.99519
0.995188
0.995188
0.995186
0.995184
0.995182
0.99518
0.99518
0.995178
0.995176
0.995174
0.995172
0.995172
0.99517
0.995167
0.995165
0.995163
0.995163
0.995161
0.995159
0.995157
0.995155
0.995155
0.995153
0.995151
0.995149
0.995147
0.995147
0.995145
0.995143
0.99514
0.995138
0.995138
0.995136
0.995134
0.995132
0.99513
0.99513
0.995128
0.995126
0.995124
0.995122
0.995122
0.995119
0.995117
0.995115
0.995113
0.995113
0.995111
0.995109
0.995107
0.995105
0.995105
0.995103
0.9951
0.995098
0.995096
0.995096
0.995094
0.995092
0.99509
0.995088
0.995088
0.995086
0.995083
0.995081
0.995079
0.995079
0.995077
0.995075
0.995073
0.995071
0.995071
0.995068
0.995066
0.995064
0.995062
0.995062
0.99506
0.995058
0.995056
0.995053
0.995053
0.995051
0.995049
0.995047
0.995045
0.995045
0.995043
0.99504
0.995038
0.995036
0.995036
0.995034
0.995032
0.995029
0.995027
0.995027
0.995025
0.995023
0.995021
0.995018
0.995018
0.995016
0.995014
0.995012
0.99501
0.99501
0.995007
0.995005
0.995003
0.995001
0.995001
0.994999
0.994996
0.994994
0.994992
0.994992
0.99499
0.994988
0.994985
0.994983
0.994983
0.994981
0.994979
0.994977
0.994974
0.994974
0.994972
0.99497
0.994968
0.994966
0.994966
0.994963
0.994961
0.994959
0.994957
0.994957
0.994955
0.994952
0.99495
0.994948
0.994948
0.994946
0.994943
0.994941
0.994939
0.994939
0.994937
0.994935
0.994932
0.99493
0.99493
0.994928
0.994926
0.994923
0.994921
0.994921
0.994919
0.994917
0.994914
0.994912
0.994912
0.99491
0.994908
0.994905
0.994903
0.994903
0.994901
0.994898
0.994896
0.994894
0.994894
0.994892
0.994889
0.994887
0.994885
0.994885
0.994883
0.99488
0.994878
0.994876
0.994876
0.994873
0.994871
0.994869
0.994866
0.994866
0.994864
0.994862
0.99486
0.994857
0.994857
0.994855
0.994853
0.99485
0.994848
0.994848
0.994846
0.994843
0.994841
0.994839
0.994839
0.994837
0.994834
0.994832
0.99483
0.99483
0.994827
0.994825
0.994823
0.99482
0.99482
0.994818
0.994816
0.994813
0.994811
0.994811
0.994809
0.994806
0.994804
0.994802
0.994802
0.994799
0.994797
0.994795
0.994792
0.994792
0.99479
0.994788
0.994785
0.994783
0.994783
0.99478
0.994778
0.994776
0.994773
0.994773
0.994771
0.994769
0.994766
0.994764
0.994764
0.994762
0.994759
0.994757
0.994755
0.994755
0.994752
0.99475
0.994747
0.994745
0.994745
0.994743
0.99474
0.994738
0.994736
0.994736
0.994733
0.994731
0.994728
0.994726
0.994726
0.994724
0.994721
0.994719
0.994716
0.994716
0.994714
0.994712
0.994709
0.994707
0.994707
0.994704
0.994702
0.9947
0.994697
0.994697
0.994695
0.994692
0.99469
0.994688
0.994688
0.994685
0.994683
0.99468
0.994678
0.994678
0.994676
0.994673
0.994671
0.994668
0.994668
0.994666
0.994663
0.994661
0.994659
0.994659
0.994656
0.994654
0.994651
0.994649
0.994649
0.994646
0.994644
0.994641
0.994639
0.994639
0.994637
0.994634
0.994632
0.994629
0.994629
0.994627
0.994624
0.994622
0.994619
0.994619
0.994617
0.994615
0.994612
0.99461
0.99461
0.994607
0.994605
0.994602
0.9946
0.9946
0.994597
0.994595
0.994592
0.99459
0.99459
0.994587
0.994585
0.994583
0.99458
0.99458
0.994578
0.994575
0.994573
0.99457
0.99457
0.994568
0.994565
0.994563
0.99456
0.99456
0.994558
0.994555
0.994553
0.99455
0.99455
0.994548
0.994545
0.994543
0.99454
0.99454
0.994538
0.994535
0.994533
0.99453
0.99453
0.994528
0.994525
0.994523
0.99452
0.99452
0.994518
0.994515
0.994513
0.99451
0.99451
0.994508
0.994505
0.994503
0.9945
0.9945
0.994497
0.994495
0.994492
0.99449
0.99449
0.994487
0.994485
0.994482
0.99448
0.99448
0.994477
0.994475
0.994472
0.99447
0.99447
0.994467
0.994464
0.994462
0.994459
0.994459
0.994457
0.994454
0.994452
0.994449
0.994449
0.994447
0.994444
0.994442
0.994439
0.994439
0.994436
0.994434
0.994431
0.994429
0.994429
0.994426
0.994424
0.994421
0.994418
0.994418
0.994416
0.994413
0.994411
0.994408
0.994408
0.994406
0.994403
0.9944
0.994398
0.994398
0.994395
0.994393
0.99439
0.994387
0.994387
0.994385
0.994382
0.99438
0.994377
0.994377
0.994374
0.994372
0.994369
0.994367
0.994367
0.994364
0.994361
0.994359
0.994356
0.994356
0.994354
0.994351
0.994348
0.994346
0.994346
0.994343
0.994341
0.994338
0.994335
0.994335
0.994333
0.99433
0.994327
0.994325
0.994325
0.994322
0.99432
0.994317
0.994314
0.994314
0.994312
0.994309
0.994306
0.994304
0.994304
0.994301
0.994298
0.994296
0.994293
0.994293
0.994291
0.994288
0.994285
0.994283
0.994283
0.99428
0.994277
0.994275
0.994272
0.994272
0.994269
0.994267
0.994264
0.994261
0.994261
0.994259
0.994256
0.994253
0.994251
0.994251
0.994248
0.994245
0.994243
0.99424
0.99424
0.994237
0.994235
0.994232
0.994229
0.994229
0.994227
0.994224
0.994221
0.994219
0.994219
0.994216
0.994213
0.99421
0.994208
0.994208
0.994205
0.994202
0.9942
0.994197
0.994197
0.994194
0.994192
0.994189
0.994186
0.994186
0.994183
0.994181
0.994178
0.994175
0.994175
0.994173
0.99417
0.994167
0.994164
0.994164
0.994162
0.994159
0.994156
0.994154
0.994154
0.994151
0.994148
0.994145
0.994143
0.994143
0.99414
0.994137
0.994134
0.994132
0.994132
0.994129
0.994126
0.994123
0.994121
0.994121
0.994118
0.994115
0.994112
0.99411
0.99411
0.994107
0.994104
0.994101
0.994098
0.994098
0.994096
0.994093
0.99409
0.994087
0.994087
0.994085
0.994082
0.994079
0.994076
0.994076
0.994073
0.994071
0.994068
0.994065
0.994065
0.994062
0.994059
0.994057
0.994054
0.994054
0.994051
0.994048
0.994045
0.994043
0.994043
0.99404
0.994037
0.994034
0.994031
0.994031
0.994029
0.994026
0.994023
0.99402
0.99402
0.994017
0.994015
0.994012
0.994009
0.994009
0.994006
0.994003
0.994001
0.993998
0.993998
0.993995
0.993992
0.993989
0.993986
0.993986
0.993984
0.993981
0.993978
0.993975
0.993975
0.993972
0.99397
0.993967
0.993964
0.993964
0.993961
0.993958
0.993955
0.993953
0.993953
0.99395
0.993947
0.993944
0.993941
0.993941
0.993938
0.993935
0.993933
0.99393
0.99393
0.993927
0.993924
0.993921
0.993918
0.993918
0.993915
0.993913
0.99391
0.993907
0.993907
0.993904
0.993901
0.993898
0.993895
0.993895
0.993892
0.99389
0.993887
0.993884
0.993884
0.993881
0.993878
0.993875
0.993872
0.993872
0.993869
0.993866
0.993863
0.993861
0.993861
0.993858
0.993855
0.993852
0.993849
0.993849
0.993846
0.993843
0.99384
0.993837
0.993837
0.993834
0.993831
0.993829
0.993826
0.993826
0.993823
0.99382
0.993817
0.993814
0.993814
0.993811
0.993808
0.993805
0.993802
0.993802
0.993799
0.993796
0.993793
0.99379
0.99379
0.993787
0.993785
0.993782
0.993779
0.993779
0.993776
0.993773
0.99377
0.993767
0.993767
0.993764
0.993761
0.993758
0.993755
0.993755
0.993752
0.993749
0.993746
0.993743
0.993743
0.99374
0.993737
0.993734
0.993731
0.993731
0.993728
0.993725
0.993722
0.993719
0.993719
0.993716
0.993713
0.99371
0.993707
0.993707
0.993704
0.993701
0.993698
0.993695
0.993695
0.993692
0.993689
0.993686
0.993683
0.993683
0.99368
0.993677
0.993674
0.993671
0.993671
0.993668
0.993665
0.993662
0.993659
0.993659
0.993656
0.993653
0.99365
0.993647
0.993647
0.993644
0.993641
0.993638
0.993635
0.993635
0.993632
0.993629
0.993626
0.993623
0.993623
0.99362
0.993617
0.993614
0.993611
0.993611
0.993608
0.993605
0.993602
0.993599
0.993599
0.993596
0.993593
0.99359
0.993587
0.993587
0.993584
0.993581
0.993578
0.993575
0.993575
0.993571
0.993568
0.993565
0.993562
0.993562
0.993559
0.993556
0.993553
0.99355
0.99355
0.993547
0.993544
0.993541
0.993538
0.993538
0.993535
0.993532
0.993529
0.993525
0.993525
0.993522
0.993519
0.993516
0.993513
0.993513
0.99351
0.993507
0.993504
0.993501
0.993501
0.993498
0.993495
0.993492
0.993488
0.993488
0.993485
0.993482
0.993479
0.993476
0.993476
0.993473
0.99347
0.993467
0.993464
0.993464
0.993461
0.993457
0.993454
0.993451
0.993451
0.993448
0.993445
0.993442
0.993439
0.993439
0.993436
0.993432
0.993429
0.993426
0.993426
0.993423
0.99342
0.993417
0.993414
0.993414
0.993411
0.993407
0.993404
0.993401
0.993401
0.993398
0.993395
0.993392
0.993389
0.993389
0.993385
0.993382
0.993379
0.993376
0.993376
0.993373
0.99337
0.993367
0.993363
0.993363
0.99336
0.993357
0.993354
0.993351
0.993351
0.993348
0.993344
0.993341
0.993338
0.993338
0.993335
0.993332
0.993329
0.993325
0.993325
0.993322
0.993319
0.993316
0.993313
0.993313
0.99331
0.993306
0.993303
0.9933
0.9933
0.993297
0.993294
0.99329
0.993287
0.993287
0.993284
0.993281
0.993278
0.993274
0.993274
0.993271
0.993268
0.993265
0.993262
0.993262
0.993258
0.993255
0.993252
0.993249
0.993249
0.993246
0.993242
0.993239
0.993236
0.993236
0.993233
0.99323
0.993226
0.993223
0.993223
0.99322
0.993217
0.993213
0.99321
0.99321
0.993207
0.993204
0.9932
0.993197
0.993197
0.993194
0.993191
0.993187
0.993184
0.993184
0.993181
0.993178
0.993174
0.993171
0.993171
0.993168
0.993165
0.993161
0.993158
0.993158
0.993155
0.993151
0.993148
0.993145
0.993145
0.993142
0.993138
0.993135
0.993132
0.993132
0.993128
0.993125
0.993122
0.993119
0.993119
0.993115
0.993112
0.993109
0.993105
0.993105
0.993102
0.993099
0.993095
0.993092
0.993092
0.993089
0.993085
0.993082
0.993079
0.993079
0.993076
0.993072
0.993069
0.993066
0.993066
0.993062
0.993059
0.993056
0.993052
0.993052
0.993049
0.993046
0.993042
0.993039
0.993039
0.993036
0.993033
0.993029
0.993026
0.993026
0.993023
0.993019
0.993016
0.993013
0.993013
0.993009
0.993006
0.993003
0.992999
0.992999
0.992996
0.992993
0.992989
0.992986
0.992986
0.992983
0.992979
0.992976
0.992973
0.992973
0.992969
0.992966
0.992963
0.992959
0.992959
0.992956
0.992953
0.992949
0.992946
0.992946
0.992942
0.992939
0.992936
0.992932
0.992932
0.992929
0.992926
0.992922
0.992919
0.992919
0.992915
0.992912
0.992909
0.992905
0.992905
0.992902
0.992898
0.992895
0.992892
0.992892
0.992888
0.992885
0.992881
0.992878
0.992878
0.992875
0.992871
0.992868
0.992864
0.992864
0.992861
0.992858
0.992854
0.992851
0.992851
0.992847
0.992844
0.99284
0.992837
0.992837
0.992834
0.99283
0.992827
0.992823
0.992823
0.99282
0.992816
0.992813
0.992809
0.992809
0.992806
0.992803
0.992799
0.992796
0.992796
0.992792
0.992789
0.992785
0.992782
0.992782
0.992778
0.992775
0.992772
0.992768
0.992768
0.992765
0.992761
0.992758
0.992754
0.992754
0.992751
0.992747
0.992744
0.99274
0.99274
0.992737
0.992733
0.99273
0.992726
0.992726
0.992723
0.992719
0.992716
0.992713
0.992713
0.992709
0.992706
0.992702
0.992699
0.992699
0.992695
0.992692
0.992688
0.992685
0.992685
0.992681
0.992678
0.992674
0.992671
0.992671
0.992667
0.992664
0.99266
0.992657
0.992657
0.992653
0.99265
0.992646
0.992643
0.992643
0.992639
0.992635
0.992632
0.992628
0.992628
0.992625
0.992621
0.992618
0.992614
0.992614
0.992611
0.992607
0.992604
0.9926
0.9926
0.992597
0.992593
0.99259
0.992586
0.992586
0.992583
0.992579
0.992575
0.992572
0.992572
0.992568
0.992565
0.992561
0.992558
0.992558
0.992554
0.992551
0.992547
0.992543
0.992543
0.99254
0.992536
0.992533
0.992529
0.992529
0.992526
0.992522
0.992519
0.992515
0.992515
0.992511
0.992508
0.992504
0.992501
0.992501
0.992497
0.992494
0.99249
0.992486
0.992486
0.992483
0.992479
0.992476
0.992472
0.992472
0.992468
0.992465
0.992461
0.992458
0.992458
0.992454
0.99245
0.992447
0.992443
0.992443
0.99244
0.992436
0.992432
0.992429
0.992429
0.992425
0.992422
0.992418
0.992414
0.992414
0.992411
0.992407
0.992404
0.9924
0.9924
0.992396
0.992393
0.992389
0.992385
0.992385
0.992382
0.992378
0.992375
0.992371
0.992371
0.992367
0.992364
0.99236
0.992356
0.992356
0.992353
0.992349
0.992345
0.992342
0.992342
0.992338
0.992334
0.992331
0.992327
0.992327
0.992324
0.99232
0.992316
0.992313
0.992313
0.992309
0.992305
0.992302
0.992298
0.992298
0.992294
0.992291
0.992287
0.992283
0.992283
0.99228
0.992276
0.992272
0.992268
0.992268
0.992265
0.992261
0.992257
0.992254
0.992254
0.99225
0.992246
0.992243
0.992239
0.992239
0.992235
0.992232
0.992228
0.992224
0.992224
0.99222
0.992217
0.992213
0.992209
0.992209
0.992205
0.992202
0.992198
0.992194
0.992194
0.992191
0.992187
0.992183
0.992179
0.992179
0.992176
0.992172
0.992168
0.992164
0.992164
0.992161
0.992157
0.992153
0.992149
0.992149
0.992146
0.992142
0.992138
0.992134
0.992134
0.99213
0.992127
0.992123
0.992119
0.992119
0.992115
0.992112
0.992108
0.992104
0.992104
0.9921
0.992097
0.992093
0.992089
0.992089
0.992085
0.992082
0.992078
0.992074
0.992074
0.99207
0.992067
0.992063
0.992059
0.992059
0.992055
0.992052
0.992048
0.992044
0.992044
0.99204
0.992037
0.992033
0.992029
0.992029
0.992025
0.992021
0.992018
0.992014
0.992014
0.99201
0.992006
0.992003
0.991999
0.991999
0.991995
0.991991
0.991987
0.991984
0.991984
0.99198
0.991976
0.991972
0.991968
0.991968
0.991964
0.991961
0.991957
0.991953
0.991953
0.991949
0.991945
0.991941
0.991938
0.991938
0.991934
0.99193
0.991926
0.991922
0.991922
0.991918
0.991915
0.991911
0.991907
0.991907
0.991903
0.991899
0.991895
0.991891
0.991891
0.991888
0.991884
0.99188
0.991876
0.991876
0.991872
0.991868
0.991864
0.991861
0.991861
0.991857
0.991853
0.991849
0.991845
0.991845
0.991841
0.991837
0.991833
0.991829
0.991829
0.991826
0.991822
0.991818
0.991814
0.991814
0.99181
0.991806
0.991802
0.991798
0.991798
0.991794
0.991791
0.991787
0.991783
0.991783
0.991779
0.991775
0.991771
0.991767
0.991767
0.991763
0.991759
0.991755
0.991751
0.991751
0.991748
0.991744
0.99174
0.991736
0.991736
0.991732
0.991728
0.991724
0.99172
0.99172
0.991716
0.991712
0.991708
0.991704
0.991704
0.9917
0.991696
0.991692
0.991689
0.991689
0.991685
0.991681
0.991677
0.991673
0.991673
0.991669
0.991665
0.991661
0.991657
0.991657
0.991653
0.991649
0.991645
0.991641
0.991641
0.991637
0.991633
0.991629
0.991625
0.991625
0.991621
0.991617
0.991613
0.991609
0.991609
0.991605
0.991601
0.991597
0.991593
0.991593
0.99159
0.991586
0.991582
0.991578
0.991578
0.991574
0.99157
0.991566
0.991562
0.991562
0.991558
0.991554
0.99155
0.991546
0.991546
0.991542
0.991538
0.991534
0.99153
0.99153
0.991526
0.991522
0.991518
0.991514
0.991514
0.99151
0.991506
0.991502
0.991498
0.991498
0.991493
0.991489
0.991485
0.991481
0.991481
0.991477
0.991473
0.991469
0.991465
0.991465
0.991461
0.991457
0.991453
0.991449
0.991449
0.991445
0.991441
0.991437
0.991433
0.991433
0.991429
0.991425
0.991421
0.991417
0.991417
0.991413
0.991409
0.991405
0.991401
0.991401
0.991397
0.991392
0.991388
0.991384
0.991384
0.99138
0.991376
0.991372
0.991368
0.991368
0.991364
0.99136
0.991356
0.991352
0.991352
0.991348
0.991344
0.99134
0.991335
0.991335
0.991331
0.991327
0.991323
0.991319
0.991319
0.991315
0.991311
0.991307
0.991303
0.991303
0.991298
0.991294
0.99129
0.991286
0.991286
0.991282
0.991278
0.991274
0.99127
0.99127
0.991265
0.991261
0.991257
0.991253
0.991253
0.991249
0.991245
0.991241
0.991236
0.991236
0.991232
0.991228
0.991224
0.99122
0.99122
0.991216
0.991212
0.991207
0.991203
0.991203
0.991199
0.991195
0.991191