<?xml version="1.0"?>
<VTKFile type="UnstructuredGrid" version="0.1" byte_order="LittleEndian">
<UnstructuredGrid>
<Piece NumberOfPoints="5000" NumberOfCells="4000">
<PointData Scalars="Reaction 0">
<DataArray type="Float32" Name="Reaction 0" format="ascii">
1.00459
1.00459
1.00459
1.00459
1.00459
1.00459
1.00459
1.00459
1.00459
1.00459
1.00459
1.00459
1.00459
1.00459
1.00459
1.00459
1.00459
1.00459
1.00459
1.00459
1.00459
1.00459
1.00459
1.00459
1.00459
1.00459
1.00459
1.00459
1.00459
1.00459
1.00459
1.00459
1.00459
1.00459
1.00459
1.00459
1.00459
1.00459
1.00459
1.00459
1.00459
1.00459
1.00459
1.00459
1.00459
1.00459
1.00459
1.00459
1.00459
1.00459
1.00459
1.00459
1.00459
1.00459
1.00459
1.00459
1.00459
1.00459
1.00459
1.00459
1.00459
1.00459
1.00459
1.00459
1.00459
1.00459
1.00459
1.00459
1.00459
1.00459
1.00459
1.00459
1.00459
1.00459
1.00459
1.00459
1.00459
1.00459
1.00459
1.00459
1.00459
1.00459
1.00459
1.00459
1.00459
1.00459
1.00459
1.00459
1.00459
1.00459
1.00459
1.00459
1.00459
1.00459
1.00459
1.00459
1.00459
1.00459
1.00459
1.00459
1.00459
1.00459
1.00459
1.00459
1.00459
1.00459
1.00459
1.00459
1.00459
1.00459
1.00459
1.00459
1.00459
1.00459
1.00459
1.00459
1.00459
1.00459
1.00459
1.00459
1.00459
1.00459
1.00459
1.00459
1.00459
1.00459
1.00459
1.00458
1.00458
1.00458
1.00458
1.00458
1.00458
1.00458
1.00458
1.00458
1.00458
1.00458
1.00458
1.00458
1.00458
1.00458
1.00458
1.00458
1.00458
1.00458
1.00458
1.00458
1.00458
1.00458
1.00458
1.00458
1.00458
1.00458
1.00458
1.00458
1.00458
1.00458
1.00458
1.00458
1.00458
1.00458
1.00458
1.00458
1.00458
1.00458
1.00458
1.00458
1.00458
1.00458
1.00458
1.00458
1.00458
1.00458
1.00458
1.00458
1.00458
1.00458
1.00458
1.00458
1.00458
1.00458
1.00458
1.00458
1.00458
1.00458
1.00458
1.00458
1.00458
1.00458
1.00458
1.00458
1.00458
1.00458
1.00458
1.00458
1.00458
1.00458
1.00458
1.00458
1.00458
1.00457
1.00457
1.00457
1.00457
1.00457
1.00457
1.00457
1.00457
1.00457
1.00457
1.00457
1.00457
1.00457
1.00457
1.00457
1.00457
1.00457
1.00457
1.00457
1.00457
1.00457
1.00457
1.00457
1.00457
1.00457
1.00457
1.00457
1.00457
1.00457
1.00457
1.00457
1.00457
1.00457
1.00457
1.00457
1.00457
1.00457
1.00457
1.00457
1.00457
1.00457
1.00457
1.00457
1.00457
1.00457
1.00457
1.00457
1.00457
1.00457
1.00457
1.00457
1.00457
1.00457
1.00456
1.00456
1.00456
1.00456
1.00456
1.00456
1.00456
1.00456
1.00456
1.00456
1.00456
1.00456
1.00456
1.00456
1.00456
1.00456
1.00456
1.00456
1.00456
1.00456
1.00456
1.00456
1.00456
1.00456
1.00456
1.00456
1.00456
1.00456
1.00456
1.00456
1.00456
1.00456
1.00456
1.00456
1.00456
1.00456
1.00456
1.00456
1.00456
1.00456
1.00456
1.00456
1.00456
1.00455
1.00455
1.00455
1.00455
1.00455
1.00455
1.00455
1.00455
1.00455
1.00455
1.00455
1.00455
1.00455
1.00455
1.00455
1.00455
1.00455
1.00455
1.00455
1.00455
1.00455
1.00455
1.00455
1.00455
1.00455
1.00455
1.00455
1.00455
1.00455
1.00455
1.00455
1.00455
1.00455
1.00455
1.00455
1.00455
1.00455
1.00455
1.00455
1.00454
1.00454
1.00454
1.00454
1.00454
1.00454
1.00454
1.00454
1.00454
1.00454
1.00454
1.00454
1.00454
1.00454
1.00454
1.00454
1.00454
1.00454
1.00454
1.00454
1.00454
1.00454
1.00454
1.00454
1.00454
1.00454
1.00454
1.00454
1.00454
1.00454
1.00454
1.00454
1.00454
1.00453
1.00453
1.00453
1.00453
1.00453
1.00453
1.00453
1.00453
1.00453
1.00453
1.00453
1.00453
1.00453
1.00453
1.00453
1.00453
1.00453
1.00453
1.00453
1.00453
1.00453
1.00453
1.00453
1.00453
1.00453
1.00453
1.00453
1.00453
1.00453
1.00453
1.00453
1.00453
1.00452
1.00452
1.00452
1.00452
1.00452
1.00452
1.00452
1.00452
1.00452
1.00452
1.00452
1.00452
1.00452
1.00452
1.00452
1.00452
1.00452
1.00452
1.00452
1.00452
1.00452
1.00452
1.00452
1.00452
1.00452
1.00452
1.00452
1.00452
1.00451
1.00451
1.00451
1.00451
1.00451
1.00451
1.00451
1.00451
1.00451
1.00451
1.00451
1.00451
1.00451
1.00451
1.00451
1.00451
1.00451
1.00451
1.00451
1.00451
1.00451
1.00451
1.00451
1.00451
1.00451
1.00451
1.00451
1.00451
1.0045
1.0045
1.0045
1.0045
1.0045
1.0045
1.0045
1.0045
1.0045
1.0045
1.0045
1.0045
1.0045
1.0045
1.0045
1.0045
1.0045
1.0045
1.0045
1.0045
1.0045
1.0045
1.0045
1.0045
1.0045
1.0045
1.00449
1.00449
1.00449
1.00449
1.00449
1.00449
1.00449
1.00449
1.00449
1.00449
1.00449
1.00449
1.00449
1.00449
1.00449
1.00449
1.00449
1.00449
1.00449
1.00449
1.00449
1.00449
1.00449
1.00449
1.00448
1.00448
1.00448
1.00448
1.00448
1.00448
1.00448
1.00448
1.00448
1.00448
1.00448
1.00448
1.00448
1.00448
1.00448
1.00448
1.00448
1.00448
1.00448
1.00448
1.00448
1.00448
1.00448
1.00448
1.00447
1.00447
1.00447
1.00447
1.00447
1.00447
1.00447
1.00447
1.00447
1.00447
1.00447
1.00447
1.00447
1.00447
1.00447
1.00447
1.00447
1.00447
1.00447
1.00447
1.00447
1.00446
1.00446
1.00446
1.00446
1.00446
1.00446
1.00446
1.00446
1.00446
1.00446
1.00446
1.00446
1.00446
1.00446
1.00446
1.00446
1.00446
1.00446
1.00446
1.00446
1.00446
1.00446
1.00445
1.00445
1.00445
1.00445
1.00445
1.00445
1.00445
1.00445
1.00445
1.00445
1.00445
1.00445
1.00445
1.00445
1.00445
1.00445
1.00445
1.00445
1.00445
1.00445
1.00444
1.00444
1.00444
1.00444
1.00444
1.00444
1.00444
1.00444
1.00444
1.00444
1.00444
1.00444
1.00444
1.00444
1.00444
1.00444
1.00444
1.00444
1.00444
1.00444
1.00443
1.00443
1.00443
1.00443
1.00443
1.00443
1.00443
1.00443
1.00443
1.00443
1.00443
1.00443
1.00443
1.00443
1.00443
1.00443
1.00443
1.00443
1.00443
1.00442
1.00442
1.00442
1.00442
1.00442
1.00442
1.00442
1.00442
1.00442
1.00442
1.00442
1.00442
1.00442
1.00442
1.00442
1.00442
1.00442
1.00442
1.00442
1.00441
1.00441
1.00441
1.00441
1.00441
1.00441
1.00441
1.00441
1.00441
1.00441
1.00441
1.00441
1.00441
1.00441
1.00441
1.00441
1.00441
1.00441
1.00441
1.0044
1.0044
1.0044
1.0044
1.0044
1.0044
1.0044
1.0044
1.0044
1.0044
1.0044
1.0044
1.0044
1.0044
1.0044
1.0044
1.0044
1.00439
1.00439
1.00439
1.00439
1.00439
1.00439
1.00439
1.00439
1.00439
1.00439
1.00439
1.00439
1.00439
1.00439
1.00439
1.00439
1.00439
1.00439
1.00438
1.00438
1.00438
1.00438
1.00438
1.00438
1.00438
1.00438
1.00438
1.00438
1.00438
1.00438
1.00438
1.00438
1.00438
1.00438
1.00437
1.00437
1.00437
1.00437
1.00437
1.00437
1.00437
1.00437
1.00437
1.00437
1.00437
1.00437
1.00437
1.00437
1.00437
1.00437
1.00437
1.00436
1.00436
1.00436
1.00436
1.00436
1.00436
1.00436
1.00436
1.00436
1.00436
1.00436
1.00436
1.00436
1.00436
1.00436
1.00436
1.00436
1.00435
1.00435
1.00435
1.00435
1.00435
1.00435
1.00435
1.00435
1.00435
1.00435
1.00435
1.00435
1.00435
1.00435
1.00435
1.00434
1.00434
1.00434
1.00434
1.00434
1.00434
1.00434
1.00434
1.00434
1.00434
1.00434
1.00434
1.00434
1.00434
1.00434
1.00434
1.00433
1.00433
1.00433
1.00433
1.00433
1.00433
1.00433
1.00433
1.00433
1.00433
1.00433
1.00433
1.00433
1.00433
1.00433
1.00432
1.00432
1.00432
1.00432
1.00432
1.00432
1.00432
1.00432
1.00432
1.00432
1.00432
1.00432
1.00432
1.00432
1.00432
1.00431
1.00431
1.00431
1.00431
1.00431
1.00431
1.00431
1.00431
1.00431
1.00431
1.00431
1.00431
1.00431
1.00431
1.0043
1.0043
1.0043
1.0043
1.0043
1.0043
1.0043
1.0043
1.0043
1.0043
1.0043
1.0043
1.0043
1.0043
1.0043
1.00429
1.00429
1.00429
1.00429
1.00429
1.00429
1.00429
1.00429
1.00429
1.00429
1.00429
1.00429
1.00429
1.00428
1.00428
1.00428
1.00428
1.00428
1.00428
1.00428
1.00428
1.00428
1.00428
1.00428
1.00428
1.00428
1.00428
1.00427
1.00427
1.00427
1.00427
1.00427
1.00427
1.00427
1.00427
1.00427
1.00427
1.00427
1.00427
1.00427
1.00427
1.00426
1.00426
1.00426
1.00426
1.00426
1.00426
1.00426
1.00426
1.00426
1.00426
1.00426
1.00426
1.00426
1.00426
1.00425
1.00425
1.00425
1.00425
1.00425
1.00425
1.00425
1.00425
1.00425
1.00425
1.00425
1.00425
1.00425
1.00424
1.00424
1.00424
1.00424
1.00424
1.00424
1.00424
1.00424
1.00424
1.00424
1.00424
1.00424
1.00424
1.00423
1.00423
1.00423
1.00423
1.00423
1.00423
1.00423
1.00423
1.00423
1.00423
1.00423
1.00423
1.00422
1.00422
1.00422
1.00422
1.00422
1.00422
1.00422
1.00422
1.00422
1.00422
1.00422
1.00422
1.00422
1.00421
1.00421
1.00421
1.00421
1.00421
1.00421
1.00421
1.00421
1.00421
1.00421
1.00421
1.00421
1.00421
1.00421
1.0042
1.0042
1.0042
1.0042
1.0042
1.0042
1.0042
1.0042
1.0042
1.0042
1.0042
1.00419
1.00419
1.00419
1.00419
1.00419
1.00419
1.00419
1.00419
1.00419
1.00419
1.00419
1.00419
1.00418
1.00418
1.00418
1.00418
1.00418
1.00418
1.00418
1.00418
1.00418
1.00418
1.00418
1.00418
1.00418
1.00417
1.00417
1.00417
1.00417
1.00417
1.00417
1.00417
1.00417
1.00417
1.00417
1.00417
1.00416
1.00416
1.00416
1.00416
1.00416
1.00416
1.00416
1.00416
1.00416
1.00416
1.00416
1.00416
1.00416
1.00415
1.00415
1.00415
1.00415
1.00415
1.00415
1.00415
1.00415
1.00415
1.00415
1.00415
1.00414
1.00414
1.00414
1.00414
1.00414
1.00414
1.00414
1.00414
1.00414
1.00414
1.00414
1.00413
1.00413
1.00413
1.00413
1.00413
1.00413
1.00413
1.00413
1.00413
1.00413
1.00413
1.00413
1.00413
1.00412
1.00412
1.00412
1.00412
1.00412
1.00412
1.00412
1.00412
1.00412
1.00412
1.00412
1.00411
1.00411
1.00411
1.00411
1.00411
1.00411
1.00411
1.00411
1.00411
1.00411
1.00411
1.0041
1.0041
1.0041
1.0041
1.0041
1.0041
1.0041
1.0041
1.0041
1.0041
1.00409
1.00409
1.00409
1.00409
1.00409
1.00409
1.00409
1.00409
1.00409
1.00409
1.00409
1.00408
1.00408
1.00408
1.00408
1.00408
1.00408
1.00408
1.00408
1.00408
1.00408
1.00408
1.00408
1.00407
1.00407
1.00407
1.00407
1.00407
1.00407
1.00407
1.00407
1.00407
1.00407
1.00406
1.00406
1.00406
1.00406
1.00406
1.00406
1.00406
1.00406
1.00406
1.00406
1.00406
1.00405
1.00405
1.00405
1.00405
1.00405
1.00405
1.00405
1.00405
1.00405
1.00405
1.00404
1.00404
1.00404
1.00404
1.00404
1.00404
1.00404
1.00404
1.00404
1.00404
1.00403
1.00403
1.00403
1.00403
1.00403
1.00403
1.00403
1.00403
1.00403
1.00403
1.00403
1.00402
1.00402
1.00402
1.00402
1.00402
1.00402
1.00402
1.00402
1.00402
1.00402
1.00401
1.00401
1.00401
1.00401
1.00401
1.00401
1.00401
1.00401
1.00401
1.00401
1.004
1.004
1.004
1.004
1.004
1.004
1.004
1.004
1.004
1.004
1.00399
1.00399
1.00399
1.00399
1.00399
1.00399
1.00399
1.00399
1.00399
1.00399
1.00398
1.00398
1.00398
1.00398
1.00398
1.00398
1.00398
1.00398
1.00398
1.00398
1.00397
1.00397
1.00397
1.00397
1.00397
1.00397
1.00397
1.00397
1.00397
1.00397
1.00396
1.00396
1.00396
1.00396
1.00396
1.00396
1.00396
1.00396
1.00396
1.00396
1.00395
1.00395
1.00395
1.00395
1.00395
1.00395
1.00395
1.00395
1.00395
1.00394
1.00394
1.00394
1.00394
1.00394
1.00394
1.00394
1.00394
1.00394
1.00394
1.00393
1.00393
1.00393
1.00393
1.00393
1.00393
1.00393
1.00393
1.00393
1.00393
1.00392
1.00392
1.00392
1.00392
1.00392
1.00392
1.00392
1.00392
1.00392
1.00391
1.00391
1.00391
1.00391
1.00391
1.00391
1.00391
1.00391
1.00391
1.00391
1.0039
1.0039
1.0039
1.0039
1.0039
1.0039
1.0039
1.0039
1.00389
1.00389
1.00389
1.00389
1.00389
1.00389
1.00389
1.00389
1.00389
1.00388
1.00388
1.00388
1.00388
1.00388
1.00388
1.00388
1.00388
1.00388
1.00388
1.00387
1.00387
1.00387
1.00387
1.00387
1.00387
1.00387
1.00387
1.00387
1.00386
1.00386
1.00386
1.00386
1.00386
1.00386
1.00386
1.00386
1.00386
1.00385
1.00385
1.00385
1.00385
1.00385
1.00385
1.00385
1.00385
1.00384
1.00384
1.00384
1.00384
1.00384
1.00384
1.00384
1.00384
1.00384
1.00383
1.00383
1.00383
1.00383
1.00383
1.00383
1.00383
1.00383
1.00383
1.00382
1.00382
1.00382
1.00382
1.00382
1.00382
1.00382
1.00382
1.00382
1.00381
1.00381
1.00381
1.00381
1.00381
1.00381
1.00381
1.00381
1.0038
1.0038
1.0038
1.0038
1.0038
1.0038
1.0038
1.0038
1.0038
1.00379
1.00379
1.00379
1.00379
1.00379
1.00379
1.00379
1.00379
1.00379
1.00378
1.00378
1.00378
1.00378
1.00378
1.00378
1.00378
1.00378
1.00378
1.00377
1.00377
1.00377
1.00377
1.00377
1.00377
1.00377
1.00377
1.00376
1.00376
1.00376
1.00376
1.00376
1.00376
1.00376
1.00376
1.00376
1.00375
1.00375
1.00375
1.00375
1.00375
1.00375
1.00375
1.00375
1.00374
1.00374
1.00374
1.00374
1.00374
1.00374
1.00374
1.00374
1.00373
1.00373
1.00373
1.00373
1.00373
1.00373
1.00373
1.00373
1.00373
1.00372
1.00372
1.00372
1.00372
1.00372
1.00372
1.00372
1.00372
1.00371
1.00371
1.00371
1.00371
1.00371
1.00371
1.00371
1.00371
1.0037
1.0037
1.0037
1.0037
1.0037
1.0037
1.0037
1.0037
1.00369
1.00369
1.00369
1.00369
1.00369
1.00369
1.00369
1.00369
1.00369
1.00368
1.00368
1.00368
1.00368
1.00368
1.00368
1.00368
1.00367
1.00367
1.00367
1.00367
1.00367
1.00367
1.00367
1.00367
1.00367
1.00366
1.00366
1.00366
1.00366
1.00366
1.00366
1.00366
1.00365
1.00365
1.00365
1.00365
1.00365
1.00365
1.00365
1.00365
1.00364
1.00364
1.00364
1.00364
1.00364
1.00364
1.00364
1.00364
1.00364
1.00363
1.00363
1.00363
1.00363
1.00363
1.00363
1.00363
1.00362
1.00362
1.00362
1.00362
1.00362
1.00362
1.00362
1.00362
1.00361
1.00361
1.00361
1.00361
1.00361
1.00361
1.00361
1.00361
1.0036
1.0036
1.0036
1.0036
1.0036
1.0036
1.0036
1.0036
1.00359
1.00359
1.00359
1.00359
1.00359
1.00359
1.00359
1.00358
1.00358
1.00358
1.00358
1.00358
1.00358
1.00358
1.00358
1.00357
1.00357
1.00357
1.00357
1.00357
1.00357
1.00357
1.00356
1.00356
1.00356
1.00356
1.00356
1.00356
1.00356
1.00356
1.00355
1.00355
1.00355
1.00355
1.00355
1.00355
1.00355
1.00354
1.00354
1.00354
1.00354
1.00354
1.00354
1.00354
1.00354
1.00353
1.00353
1.00353
1.00353
1.00353
1.00353
1.00353
1.00352
1.00352
1.00352
1.00352
1.00352
1.00352
1.00352
1.00352
1.00351
1.00351
1.00351
1.00351
1.00351
1.00351
1.00351
1.0035
1.0035
1.0035
1.0035
1.0035
1.0035
1.0035
1.0035
1.00349
1.00349
1.00349
1.00349
1.00349
1.00349
1.00349
1.00348
1.00348
1.00348
1.00348
1.00348
1.00348
1.00348
1.00348
1.00347
1.00347
1.00347
1.00347
1.00347
1.00347
1.00347
1.00346
1.00346
1.00346
1.00346
1.00346
1.00346
1.00346
1.00345
1.00345
1.00345
1.00345
1.00345
1.00345
1.00345
1.00344
1.00344
1.00344
1.00344
1.00344
1.00344
1.00344
1.00344
1.00343
1.00343
1.00343
1.00343
1.00343
1.00343
1.00343
1.00342
1.00342
1.00342
1.00342
1.00342
1.00342
1.00341
1.00341
1.00341
1.00341
1.00341
1.00341
1.00341
1.00341
1.0034
1.0034
1.0034
1.0034
1.0034
1.0034
1.0034
1.00339
1.00339
1.00339
1.00339
1.00339
1.00339
1.00339
1.00338
1.00338
1.00338
1.00338
1.00338
1.00338
1.00338
1.00337
1.00337
1.00337
1.00337
1.00337
1.00337
1.00336
1.00336
1.00336
1.00336
1.00336
1.00336
1.00336
1.00336
1.00335
1.00335
1.00335
1.00335
1.00335
1.00335
1.00335
1.00334
1.00334
1.00334
1.00334
1.00334
1.00334
1.00334
1.00333
1.00333
1.00333
1.00333
1.00333
1.00333
1.00333
1.00332
1.00332
1.00332
1.00332
1.00332
1.00332
1.00331
1.00331
1.00331
1.00331
1.00331
1.00331
1.00331
1.0033
1.0033
1.0033
1.0033
1.0033
1.0033
1.0033
1.00329
1.00329
1.00329
1.00329
1.00329
1.00329
1.00328
1.00328
1.00328
1.00328
1.00328
1.00328
1.00328
1.00328
1.00327
1.00327
1.00327
1.00327
1.00327
1.00327
1.00326
1.00326
1.00326
1.00326
1.00326
1.00326
1.00325
1.00325
1.00325
1.00325
1.00325
1.00325
1.00325
1.00325
1.00324
1.00324
1.00324
1.00324
1.00324
1.00324
1.00323
1.00323
1.00323
1.00323
1.00323
1.00323
1.00322
1.00322
1.00322
1.00322
1.00322
1.00322
1.00322
1.00321
1.00321
1.00321
1.00321
1.00321
1.00321
1.00321
1.0032
1.0032
1.0032
1.0032
1.0032
1.0032
1.00319
1.00319
1.00319
1.00319
1.00319
1.00319
1.00319
1.00318
1.00318
1.00318
1.00318
1.00318
1.00318
1.00317
1.00317
1.00317
1.00317
1.00317
1.00317
1.00316
1.00316
1.00316
1.00316
1.00316
1.00316
1.00315
1.00315
1.00315
1.00315
1.00315
1.00315
1.00315
1.00315
1.00314
1.00314
1.00314
1.00314
1.00314
1.00314
1.00313
1.00313
1.00313
1.00313
1.00313
1.00313
1.00312
1.00312
1.00312
1.00312
1.00312
1.00312
1.00312
1.00311
1.00311
1.00311
1.00311
1.00311
1.00311
1.0031
1.0031
1.0031
1.0031
1.0031
1.0031
1.00309
1.00309
1.00309
1.00309
1.00309
1.00309
1.00308
1.00308
1.00308
1.00308
1.00308
1.00308
1.00308
1.00307
1.00307
1.00307
1.00307
1.00307
1.00307
1.00306
1.00306
1.00306
1.00306
1.00306
1.00306
1.00305
1.00305
1.00305
1.00305
1.00305
1.00305
1.00304
1.00304
1.00304
1.00304
1.00304
1.00304
1.00304
1.00303
1.00303
1.00303
1.00303
1.00303
1.00303
1.00302
1.00302
1.00302
1.00302
1.00302
1.00302
1.00301
1.00301
1.00301
1.00301
1.00301
1.003
1.003
1.003
1.003
1.003
1.003
1.00299
1.00299
1.00299
1.00299
1.00299
1.00299
1.00299
1.00298
1.00298
1.00298
1.00298
1.00298
1.00298
1.00297
1.00297
1.00297
1.00297
1.00297
1.00297
1.00296
1.00296
1.00296
1.00296
1.00296
1.00296
1.00295
1.00295
1.00295
1.00295
1.00295
1.00294
1.00294
1.00294
1.00294
1.00294
1.00294
1.00294
1.00293
1.00293
1.00293
1.00293
1.00293
1.00293
1.00292
1.00292
1.00292
1.00292
1.00292
1.00292
1.00291
1.00291
1.00291
1.00291
1.00291
1.0029
1.0029
1.0029
1.0029
1.0029
1.0029
1.00289
1.00289
1.00289
1.00289
1.00289
1.00289
1.00289
1.00288
1.00288
1.00288
1.00288
1.00288
1.00287
1.00287
1.00287
1.00287
1.00287
1.00287
1.00286
1.00286
1.00286
1.00286
1.00286
1.00286
1.00285
1.00285
1.00285
1.00285
1.00285
1.00284
1.00284
1.00284
1.00284
1.00284
1.00284
1.00283
1.00283
1.00283
1.00283
1.00283
1.00283
1.00283
1.00282
1.00282
1.00282
1.00282
1.00282
1.00281
1.00281
1.00281
1.00281
1.00281
1.00281
1.0028
1.0028
1.0028
1.0028
1.0028
1.00279
1.00279
1.00279
1.00279
1.00279
1.00279
1.00278
1.00278
1.00278
1.00278
1.00278
1.00278
1.00277
1.00277
1.00277
1.00277
1.00277
1.00276
1.00276
1.00276
1.00276
1.00276
1.00276
1.00276
1.00275
1.00275
1.00275
1.00275
1.00275
1.00274
1.00274
1.00274
1.00274
1.00274
1.00274
1.00273
1.00273
1.00273
1.00273
1.00273
1.00272
1.00272
1.00272
1.00272
1.00272
1.00272
1.00271
1.00271
1.00271
1.00271
1.00271
1.0027
1.0027
1.0027
1.0027
1.0027
1.0027
1.00269
1.00269
1.00269
1.00269
1.00269
1.00268
1.00268
1.00268
1.00268
1.00268
1.00267
1.00267
1.00267
1.00267
1.00267
1.00267
1.00267
1.00266
1.00266
1.00266
1.00266
1.00266
1.00265
1.00265
1.00265
1.00265
1.00265
1.00265
1.00264
1.00264
1.00264
1.00264
1.00264
1.00263
1.00263
1.00263
1.00263
1.00263
1.00262
1.00262
1.00262
1.00262
1.00262
1.00262
1.00261
1.00261
1.00261
1.00261
1.00261
1.0026
1.0026
1.0026
1.0026
1.0026
1.00259
1.00259
1.00259
1.00259
1.00259
1.00259
1.00258
1.00258
1.00258
1.00258
1.00258
1.00257
1.00257
1.00257
1.00257
1.00257
1.00256
1.00256
1.00256
1.00256
1.00256
1.00256
1.00256
1.00255
1.00255
1.00255
1.00255
1.00255
1.00254
1.00254
1.00254
1.00254
1.00254
1.00253
1.00253
1.00253
1.00253
1.00253
1.00253
1.00252
1.00252
1.00252
1.00252
1.00252
1.00251
1.00251
1.00251
1.00251
1.00251
1.0025
1.0025
1.0025
1.0025
1.0025
1.00249
1.00249
1.00249
1.00249
1.00249
1.00249
1.00248
1.00248
1.00248
1.00248
1.00248
1.00247
1.00247
1.00247
1.00247
1.00247
1.00246
1.00246
1.00246
1.00246
1.00246
1.00245
1.00245
1.00245
1.00245
1.00245
1.00244
1.00244
1.00244
1.00244
1.00244
1.00243
1.00243
1.00243
1.00243
1.00243
1.00243
1.00242
1.00242
1.00242
1.00242
1.00242
1.00241
1.00241
1.00241
1.00241
1.00241
1.0024
1.0024
1.0024
1.0024
1.0024
1.00239
1.00239
1.00239
1.00239
1.00239
1.00238
1.00238
1.00238
1.00238
1.00238
1.00237
1.00237
1.00237
1.00237
1.00237
1.00236
1.00236
1.00236
1.00236
1.00236
1.00235
1.00235
1.00235
1.00235
1.00235
1.00234
1.00234
1.00234
1.00234
1.00234
1.00233
1.00233
1.00233
1.00233
1.00233
1.00233
1.00233
1.00232
1.00232
1.00232
1.00232
1.00232
1.00231
1.00231
1.00231
1.00231
1.00231
1.0023
1.0023
1.0023
1.0023
1.0023
1.00229
1.00229
1.00229
1.00229
1.00229
1.00228
1.00228
1.00228
1.00228
1.00228
1.00227
1.00227
1.00227
1.00227
1.00227
1.00226
1.00226
1.00226
1.00226
1.00226
1.00225
1.00225
1.00225
1.00225
1.00225
1.00224
1.00224
1.00224
1.00224
1.00224
1.00223
1.00223
1.00223
1.00223
1.00223
1.00222
1.00222
1.00222
1.00222
1.00222
1.00221
1.00221
1.00221
1.00221
1.00221
1.0022
1.0022
1.0022
1.0022
1.0022
1.00219
1.00219
1.00219
1.00219
1.00219
1.00218
1.00218
1.00218
1.00218
1.00218
1.00217
1.00217
1.00217
1.00216
1.00216
1.00216
1.00216
1.00216
1.00215
1.00215
1.00215
1.00215
1.00215
1.00214
1.00214
1.00214
1.00214
1.00214
1.00213
1.00213
1.00213
1.00213
1.00213
1.00212
1.00212
1.00212
1.00212
1.00212
1.00211
1.00211
1.00211
1.00211
1.00211
1.0021
1.0021
1.0021
1.0021
1.0021
1.00209
1.00209
1.00209
1.00209
1.00208
1.00208
1.00208
1.00208
1.00208
1.00207
1.00207
1.00207
1.00207
1.00207
1.00206
1.00206
1.00206
1.00206
1.00206
1.00205
1.00205
1.00205
1.00205
1.00205
1.00204
1.00204
1.00204
1.00204
1.00204
1.00203
1.00203
1.00203
1.00203
1.00202
1.00202
1.00202
1.00202
1.00202
1.00201
1.00201
1.00201
1.00201
1.00201
1.002
1.002
1.002
1.002
1.002
1.00199
1.00199
1.00199
1.00199
1.00199
1.00198
1.00198
1.00198
1.00198
1.00197
1.00197
1.00197
1.00197
1.00197
1.00196
1.00196
1.00196
1.00196
1.00196
1.00195
1.00195
1.00195
1.00195
1.00195
1.00194
1.00194
1.00194
1.00193
1.00193
1.00193
1.00193
1.00193
1.00192
1.00192
1.00192
1.00192
1.00192
1.00191
1.00191
1.00191
1.00191
1.00191
1.0019
1.0019
1.0019
1.0019
1.00189
1.00189
1.00189
1.00189
1.00189
1.00188
1.00188
1.00188
1.00188
1.00188
1.00187
1.00187
1.00187
1.00187
1.00186
1.00186
1.00186
1.00186
1.00186
1.00185
1.00185
1.00185
1.00185
1.00185
1.00184
1.00184
1.00184
1.00184
1.00183
1.00183
1.00183
1.00183
1.00183
1.00182
1.00182
1.00182
1.00182
1.00182
1.00181
1.00181
1.00181
1.0018
1.0018
1.0018
1.0018
1.0018
1.00179
1.00179
1.00179
1.00179
1.00179
1.00178
1.00178
1.00178
1.00178
1.00177
1.00177
1.00177
1.00177
1.00177
1.00176
1.00176
1.00176
1.00176
1.00176
1.00175
1.00175
1.00175
1.00175
1.00174
1.00174
1.00174
1.00174
1.00174
1.00173
1.00173
1.00173
1.00173
1.00172
1.00172
1.00172
1.00172
1.00172
1.00171
1.00171
1.00171
1.00171
1.00171
1.0017
1.0017
1.0017
1.00169
1.00169
1.00169
1.00169
1.00169
1.00168
1.00168
1.00168
1.00168
1.00167
1.00167
1.00167
1.00167
1.00167
1.00166
1.00166
1.00166
1.00166
1.00165
1.00165
1.00165
1.00165
1.00165
1.00164
1.00164
1.00164
1.00164
1.00163
1.00163
1.00163
1.00163
1.00163
1.00162
1.00162
1.00162
1.00162
1.00162
1.00161
1.00161
1.00161
1.0016
1.0016
1.0016
1.0016
1.0016
1.00159
1.00159
1.00159
1.00159
1.00158
1.00158
1.00158
1.00158
1.00158
1.00157
1.00157
1.00157
1.00157
1.00156
1.00156
1.00156
1.00156
1.00155
1.00155
1.00155
1.00155
1.00155
1.00154
1.00154
1.00154
1.00153
1.00153
1.00153
1.00153
1.00153
1.00152
1.00152
1.00152
1.00152
1.00151
1.00151
1.00151
1.00151
1.00151
1.0015
1.0015
1.0015
1.0015
1.00149
1.00149
1.00149
1.00149
1.00149
1.00148
1.00148
1.00148
1.00148
1.00147
1.00147
1.00147
1.00147
1.00147
1.00146
1.00146
1.00146
1.00145
1.00145
1.00145
1.00145
1.00144
1.00144
1.00144
1.00144
1.00144
1.00143
1.00143
1.00143
1.00143
1.00142
1.00142
1.00142
1.00142
1.00142
1.00141
1.00141
1.00141
1.00141
1.0014
1.0014
1.0014
1.0014
1.0014
1.00139
1.00139
1.00139
1.00138
1.00138
1.00138
1.00138
1.00137
1.00137
1.00137
1.00137
1.00137
1.00136
1.00136
1.00136
1.00136
1.00135
1.00135
1.00135
1.00135
1.00134
1.00134
1.00134
1.00134
1.00134
1.00133
1.00133
1.00133
1.00132
1.00132
1.00132
1.00132
1.00132
1.00131
1.00131
1.00131
1.00131
1.0013
1.0013
1.0013
1.0013
1.00129
1.00129
1.00129
1.00129
1.00129
1.00128
1.00128
1.00128
1.00128
1.00127
1.00127
1.00127
1.00126
1.00126
1.00126
1.00126
1.00126
1.00125
1.00125
1.00125
1.00125
1.00124
1.00124
1.00124
1.00124
1.00123
1.00123
1.00123
1.00123
1.00122
1.00122
1.00122
1.00122
1.00122
1.00121
1.00121
1.00121
1.0012
1.0012
1.0012
1.0012
1.00119
1.00119
1.00119
1.00119
1.00119
1.00118
1.00118
1.00118
1.00118
1.00117
1.00117
1.00117
1.00117
1.00116
1.00116
1.00116
1.00115
1.00115
1.00115
1.00115
1.00115
1.00114
1.00114
1.00114
1.00114
1.00113
1.00113
1.00113
1.00113
1.00112
1.00112
1.00112
1.00112
1.00111
1.00111
1.00111
1.00111
1.00111
1.0011
1.0011
1.0011
1.00109
1.00109
1.00109
1.00109
1.00108
1.00108
1.00108
1.00108
1.00107
1.00107
1.00107
1.00107
1.00107
1.00106
1.00106
1.00106
1.00106
1.00105
1.00105
1.00105
1.00104
1.00104
1.00104
1.00104
1.00103
1.00103
1.00103
1.00103
1.00103
1.00102
1.00102
1.00102
1.00102
1.00101
1.00101
1.00101
1.00101
1.001
1.001
1.001
1.00099
1.00099
1.00099
1.00099
1.00098
1.00098
1.00098
1.00098
1.00098
1.00097
1.00097
1.00097
1.00097
1.00096
1.00096
1.00096
1.00096
1.00095
1.00095
1.00095
1.00094
1.00094
1.00094
1.00094
1.00093
1.00093
1.00093
1.00093
1.00092
1.00092
1.00092
1.00092
1.00092
1.00091
1.00091
1.00091
1.00091
1.0009
1.0009
1.0009
1.00089
1.00089
1.00089
1.00089
1.00088
1.00088
1.00088
1.00088
1.00087
1.00087
1.00087
1.00087
1.00086
1.00086
1.00086
1.00085
1.00085
1.00085
1.00085
1.00085
1.00084
1.00084
1.00084
1.00084
1.00083
1.00083
1.00083
1.00083
1.00082
1.00082
1.00082
1.00082
1.00081
1.00081
1.00081
1.0008
1.0008
1.0008
1.0008
1.00079
1.00079
1.00079
1.00079
1.00078
1.00078
1.00078
1.00078
1.00077
1.00077
1.00077
1.00076
1.00076
1.00076
1.00076
1.00075
1.00075
1.00075
1.00075
1.00075
1.00074
1.00074
1.00074
1.00074
1.00073
1.00073
1.00073
1.00073
1.00072
1.00072
1.00072
1.00071
1.00071
1.00071
1.00071
1.0007
1.0007
1.0007
1.0007
1.00069
1.00069
1.00069
1.00069
1.00068
1.00068
1.00068
1.00067
1.00067
1.00067
1.00067
1.00066
1.00066
1.00066
1.00066
1.00065
1.00065
1.00065
1.00065
1.00064
1.00064
1.00064
1.00063
1.00063
1.00063
1.00063
1.00062
1.00062
1.00062
1.00062
1.00061
1.00061
1.00061
1.00061
1.0006
1.0006
1.0006
1.00059
1.00059
1.00059
1.00059
1.00058
1.00058
1.00058
1.00058
1.00057
1.00057
1.00057
1.00057
1.00056
1.00056
1.00056
1.00055
1.00055
1.00055
1.00055
1.00054
1.00054
1.00054
1.00054
1.00053
1.00053
1.00053
1.00053
1.00052
1.00052
1.00052
1.00051
1.00051
1.00051
1.00051
1.0005
1.0005
1.0005
1.0005
1.00049
1.00049
1.00049
1.00049
1.00048
1.00048
1.00048
1.00047
1.00047
1.00047
1.00047
1.00046
1.00046
1.00046
1.00046
1.00045
1.00045
1.00045
1.00045
1.00044
1.00044
1.00044
1.00043
1.00043
1.00043
1.00043
1.00042
1.00042
1.00042
1.00042
1.00041
1.00041
1.00041
1.00041
1.0004
1.0004
1.0004
1.00039
1.00039
1.00039
1.00039
1.00038
1.00038
1.00038
1.00038
1.00037
1.00037
1.00037
1.00037
1.00036
1.00036
1.00036
1.00035
1.00035
1.00035
1.00035
1.00034
1.00034
1.00034
1.00033
1.00033
1.00033
1.00032
1.00032
1.00032
1.00032
1.00031
1.00031
1.00031
1.00031
1.0003
1.0003
1.0003
1.0003
1.00029
1.00029
1.00029
1.00028
1.00028
1.00028
1.00028
1.00027
1.00027
1.00027
1.00027
1.00026
1.00026
1.00026
1.00026
1.00025
1.00025
1.00025
1.00024
1.00024
1.00024
1.00023
1.00023
1.00023
1.00023
1.00022
1.00022
1.00022
1.00021
1.00021
1.00021
1.00021
1.0002
1.0002
1.0002
1.0002
1.00019
1.00019
1.00019
1.00019
1.00018
1.00018
1.00018
1.00017
1.00017
1.00017
1.00017
1.00016
1.00016
1.00016
1.00015
1.00015
1.00015
1.00014
1.00014
1.00014
1.00014
1.00013
1.00013
1.00013
1.00013
1.00012
1.00012
1.00012
1.00012
1.00011
1.00011
1.00011
1.0001
1.0001
1.0001
1.00009
1.00009
1.00009
1.00009
1.00008
1.00008
1.00008
1.00007
1.00007
1.00007
1.00007
1.00006
1.00006
1.00006
1.00006
1.00005
1.00005
1.00005
1.00005
1.00004
1.00004
1.00003
1.00003
1.00003
1.00003
1.00002
1.00002
1.00002
1.00002
1.00001
1.00001
1.00001
1
1
0.999999
0.999996
0.999992
0.999989
0.999989
0.999985
0.999981
0.999978
0.999974
0.999974
0.999971
0.999967
0.999963
0.99996
0.99996
0.999956
0.999953
0.999949
0.999945
0.999945
0.999942
0.999938
0.999935
0.999931
0.999931
0.999927
0.999924
0.99992
0.999917
0.999917
0.999913
0.999909
0.999906
0.999902
0.999902
0.999898
0.999895
0.999891
0.999888
0.999888
0.999884
0.99988
0.999877
0.999873
0.999873
0.999869
0.999866
0.999862
0.999858
0.999858
0.999855
0.999851
0.999848
0.999844
0.999844
0.99984
0.999837
0.999833
0.999829
0.999829
0.999826
0.999822
0.999818
0.999815
0.999815
0.999811
0.999808
0.999804
0.9998
0.9998
0.999797
0.999793
0.999789
0.999786
0.999786
0.999782
0.999778
0.999775
0.999771
0.999771
0.999768
0.999764
0.99976
0.999757
0.999757
0.999753
0.999749
0.999746
0.999742
0.999742
0.999738
0.999735
0.999731
0.999727
0.999727
0.999724
0.99972
0.999716
0.999713
0.999713
0.999709
0.999705
0.999702
0.999698
0.999698
0.999694
0.999691
0.999687
0.999683
0.999683
0.99968
0.999676
0.999672
0.999669
0.999669
0.999665
0.999661
0.999657
0.999654
0.999654
0.99965
0.999646
0.999643
0.999639
0.999639
0.999635
0.999631
0.999628
0.999624
0.999624
0.99962
0.999617
0.999613
0.999609
0.999609
0.999605
0.999602
0.999598
0.999594
0.999594
0.999591
0.999587
0.999583
0.999579
0.999579
0.999576
0.999572
0.999568
0.999564
0.999564
0.999561
0.999557
0.999553
0.999549
0.999549
0.999546
0.999542
0.999538
0.999534
0.999534
0.999531
0.999527
0.999523
0.999519
0.999519
0.999516
0.999512
0.999508
0.999504
0.999504
0.9995
0.999497
0.999493
0.999489
0.999489
0.999485
0.999482
0.999478
0.999474
0.999474
0.99947
0.999466
0.999463
0.999459
0.999459
0.999455
0.999451
0.999448
0.999444
0.999444
0.99944
0.999436
0.999432
0.999429
0.999429
0.999425
0.999421
0.999417
0.999413
0.999413
0.99941
0.999406
0.999402
0.999398
0.999398
0.999394
0.999391
0.999387
0.999383
0.999383
0.999379
0.999375
0.999371
0.999368
0.999368
0.999364
0.99936
0.999356
0.999352
0.999352
0.999349
0.999345
0.999341
0.999337
0.999337
0.999333
0.999329
0.999326
0.999322
0.999322
0.999318
0.999314
0.99931
0.999306
0.999306
0.999302
0.999299
0.999295
0.999291
0.999291
0.999287
0.999283
0.999279
0.999276
0.999276
0.999272
0.999268
0.999264
0.99926
0.99926
0.999256
0.999252
0.999249
0.999245
0.999245
0.999241
0.999237
0.999233
0.999229
0.999229
0.999225
0.999221
0.999218
0.999214
0.999214
0.99921
0.999206
0.999202
0.999198
0.999198
0.999194
0.99919
0.999186
0.999183
0.999183
0.999179
0.999175
0.999171
0.999167
0.999167
0.999163
0.999159
0.999155
0.999151
0.999151
0.999147
0.999143
0.99914
0.999136
0.999136
0.999132
0.999128
0.999124
0.99912
0.99912
0.999116
0.999112
0.999108
0.999104
0.999104
0.9991
0.999096
0.999092
0.999088
0.999088
0.999084
0.99908
0.999076
0.999072
0.999072
0.999069
0.999065
0.999061
0.999057
0.999057
0.999053
0.999049
0.999045
0.999041
0.999041
0.999037
0.999033
0.999029
0.999025
0.999025
0.999021
0.999017
0.999013
0.999009
0.999009
0.999005
0.999001
0.998997
0.998993
0.998993
0.998989
0.998985
0.998981
0.998977
0.998977
0.998973
0.99897
0.998966
0.998962
0.998962
0.998958
0.998954
0.99895
0.998946
0.998946
0.998942
0.998938
0.998934
0.99893
0.99893
0.998926
0.998922
0.998918
0.998914
0.998914
0.99891
0.998906
0.998902
0.998898
0.998898
0.998894
0.99889
0.998886
0.998882
0.998882
0.998878
0.998874
0.99887
0.998866
0.998866
0.998862
0.998858
0.998854
0.99885
0.99885
0.998846
0.998842
0.998838
0.998834
0.998834
0.99883
0.998826
0.998822
0.998818
0.998818
0.998814
0.99881
0.998806
0.998802
0.998802
0.998798
0.998794
0.99879
0.998786
0.998786
0.998782
0.998778
0.998774
0.998769
0.998769
0.998765
0.998761
0.998757
0.998753
0.998753
0.998749
0.998745
0.998741
0.998737
0.998737
0.998733
0.998729
0.998725
0.998721