<?xml version="1.0"?>
<VTKFile type="UnstructuredGrid" version="0.1" byte_order="LittleEndian">
<UnstructuredGrid>
<Piece NumberOfPoints="5000" NumberOfCells="4000">
<PointData Scalars="Reaction 0">
<DataArray type="Float32" Name="Reaction 0" format="ascii">
0.405003
0.405003
0.405003
0.405003
0.405004
0.405004
0.405004
0.405004
0.405004
0.405004
0.405004
0.405004
0.405005
0.405005
0.405005
0.405005
0.405006
0.405006
0.405006
0.405007
0.405007
0.405007
0.405008
0.405008
0.405009
0.405009
0.405009
0.40501
0.405011
0.405011
0.405011
0.405012
0.405013
0.405013
0.405014
0.405014
0.405015
0.405016
0.405017
0.405018
0.405018
0.405018
0.405019
0.40502
0.405021
0.405021
0.405022
0.405023
0.405024
0.405026
0.405026
0.405027
0.405028
0.405029
0.40503
0.40503
0.405031
0.405033
0.405034
0.405035
0.405035
0.405037
0.405038
0.405039
0.405041
0.405041
0.405042
0.405044
0.405045
0.405047
0.405047
0.405048
0.40505
0.405052
0.405053
0.405053
0.405055
0.405057
0.405058
0.40506
0.40506
0.405062
0.405064
0.405066
0.405067
0.405067
0.405069
0.405071
0.405073
0.405075
0.405075
0.405077
0.405079
0.405081
0.405083
0.405083
0.405086
0.405088
0.40509
0.405092
0.405092
0.405094
0.405097
0.405099
0.405101
0.405101
0.405103
0.405106
0.405108
0.405111
0.405111
0.405113
0.405116
0.405118
0.405121
0.405121
0.405123
0.405126
0.405128
0.405131
0.405131
0.405134
0.405136
0.405139
0.405142
0.405142
0.405145
0.405147
0.40515
0.405153
0.405153
0.405156
0.405159
0.405162
0.405165
0.405165
0.405168
0.405171
0.405174
0.405177
0.405177
0.40518
0.405183
0.405187
0.40519
0.40519
0.405193
0.405196
0.4052
0.405203
0.405203
0.405206
0.40521
0.405213
0.405216
0.405216
0.40522
0.405223
0.405227
0.40523
0.40523
0.405234
0.405237
0.405241
0.405245
0.405245
0.405248
0.405252
0.405256
0.40526
0.40526
0.405263
0.405267
0.405271
0.405275
0.405275
0.405279
0.405283
0.405287
0.405291
0.405291
0.405295
0.405299
0.405303
0.405307
0.405307
0.405311
0.405315
0.405319
0.405323
0.405323
0.405328
0.405332
0.405336
0.40534
0.40534
0.405345
0.405349
0.405354
0.405358
0.405358
0.405362
0.405367
0.405371
0.405376
0.405376
0.40538
0.405385
0.40539
0.405394
0.405394
0.405399
0.405404
0.405408
0.405413
0.405413
0.405418
0.405423
0.405428
0.405432
0.405432
0.405437
0.405442
0.405447
0.405452
0.405452
0.405457
0.405462
0.405467
0.405472
0.405472
0.405477
0.405483
0.405488
0.405493
0.405493
0.405498
0.405503
0.405509
0.405514
0.405514
0.405519
0.405525
0.40553
0.405535
0.405535
0.405541
0.405546
0.405552
0.405557
0.405557
0.405563
0.405569
0.405574
0.40558
0.40558
0.405585
0.405591
0.405597
0.405603
0.405603
0.405608
0.405614
0.40562
0.405626
0.405626
0.405632
0.405638
0.405644
0.40565
0.40565
0.405656
0.405662
0.405668
0.405674
0.405674
0.40568
0.405686
0.405692
0.405698
0.405698
0.405705
0.405711
0.405717
0.405723
0.405723
0.40573
0.405736
0.405742
0.405749
0.405749
0.405755
0.405762
0.405768
0.405775
0.405775
0.405781
0.405788
0.405794
0.405801
0.405801
0.405808
0.405814
0.405821
0.405828
0.405828
0.405835
0.405842
0.405848
0.405855
0.405855
0.405862
0.405869
0.405876
0.405883
0.405883
0.40589
0.405897
0.405904
0.405911
0.405911
0.405918
0.405925
0.405932
0.40594
0.40594
0.405947
0.405954
0.405961
0.405969
0.405969
0.405976
0.405983
0.405991
0.405998
0.405998
0.406006
0.406013
0.40602
0.406028
0.406028
0.406036
0.406043
0.406051
0.406058
0.406058
0.406066
0.406074
0.406081
0.406089
0.406089
0.406097
0.406105
0.406113
0.40612
0.40612
0.406128
0.406136
0.406144
0.406152
0.406152
0.40616
0.406168
0.406176
0.406184
0.406184
0.406192
0.4062
0.406209
0.406217
0.406217
0.406225
0.406233
0.406241
0.40625
0.40625
0.406258
0.406266
0.406275
0.406283
0.406283
0.406292
0.4063
0.406309
0.406317
0.406317
0.406326
0.406334
0.406343
0.406351
0.406351
0.40636
0.406369
0.406377
0.406386
0.406386
0.406395
0.406404
0.406413
0.406421
0.406421
0.40643
0.406439
0.406448
0.406457
0.406457
0.406466
0.406475
0.406484
0.406493
0.406493
0.406502
0.406511
0.406521
0.40653
0.40653
0.406539
0.406548
0.406557
0.406567
0.406567
0.406576
0.406585
0.406595
0.406604
0.406604
0.406614
0.406623
0.406633
0.406642
0.406642
0.406652
0.406661
0.406671
0.40668
0.40668
0.40669
0.4067
0.406709
0.406719
0.406719
0.406729
0.406739
0.406748
0.406758
0.406758
0.406768
0.406778
0.406788
0.406798
0.406798
0.406808
0.406818
0.406828
0.406838
0.406838
0.406848
0.406858
0.406868
0.406879
0.406879
0.406889
0.406899
0.406909
0.40692
0.40692
0.40693
0.40694
0.406951
0.406961
0.406961
0.406971
0.406982
0.406992
0.407003
0.407003
0.407013
0.407024
0.407034
0.407045
0.407045
0.407056
0.407066
0.407077
0.407088
0.407088
0.407099
0.407109
0.40712
0.407131
0.407131
0.407142
0.407153
0.407164
0.407175
0.407175
0.407186
0.407197
0.407208
0.407219
0.407219
0.40723
0.407241
0.407252
0.407263
0.407263
0.407274
0.407286
0.407297
0.407308
0.407308
0.407319
0.407331
0.407342
0.407354
0.407354
0.407365
0.407376
0.407388
0.407399
0.407399
0.407411
0.407422
0.407434
0.407446
0.407446
0.407457
0.407469
0.407481
0.407492
0.407492
0.407504
0.407516
0.407528
0.407539
0.407539
0.407551
0.407563
0.407575
0.407587
0.407587
0.407599
0.407611
0.407623
0.407635
0.407635
0.407647
0.407659
0.407671
0.407684
0.407684
0.407696
0.407708
0.40772
0.407733
0.407733
0.407745
0.407757
0.40777
0.407782
0.407782
0.407794
0.407807
0.407819
0.407832
0.407832
0.407844
0.407857
0.407869
0.407882
0.407882
0.407895
0.407907
0.40792
0.407933
0.407933
0.407945
0.407958
0.407971
0.407984
0.407984
0.407997
0.40801
0.408022
0.408035
0.408035
0.408048
0.408061
0.408074
0.408087
0.408087
0.4081
0.408114
0.408127
0.40814
0.40814
0.408153
0.408166
0.408179
0.408193
0.408193
0.408206
0.408219
0.408233
0.408246
0.408246
0.408259
0.408273
0.408286
0.4083
0.4083
0.408313
0.408327
0.40834
0.408354
0.408354
0.408368
0.408381
0.408395
0.408409
0.408409
0.408422
0.408436
0.40845
0.408464
0.408464
0.408478
0.408492
0.408505
0.408519
0.408519
0.408533
0.408547
0.408561
0.408575
0.408575
0.408589
0.408604
0.408618
0.408632
0.408632
0.408646
0.40866
0.408674
0.408689
0.408689
0.408703
0.408717
0.408732
0.408746
0.408746
0.40876
0.408775
0.408789
0.408804
0.408804
0.408818
0.408833
0.408847
0.408862
0.408862
0.408877
0.408891
0.408906
0.408921
0.408921
0.408935
0.40895
0.408965
0.40898
0.40898
0.408994
0.409009
0.409024
0.409039
0.409039
0.409054
0.409069
0.409084
0.409099
0.409099
0.409114
0.409129
0.409144
0.40916
0.40916
0.409175
0.40919
0.409205
0.40922
0.40922
0.409236
0.409251
0.409266
0.409282
0.409282
0.409297
0.409312
0.409328
0.409343
0.409343
0.409359
0.409374
0.40939
0.409406
0.409406
0.409421
0.409437
0.409452
0.409468
0.409468
0.409484
0.4095
0.409515
0.409531
0.409531
0.409547
0.409563
0.409579
0.409595
0.409595
0.409611
0.409627
0.409643
0.409659
0.409659
0.409675
0.409691
0.409707
0.409723
0.409723
0.409739
0.409755
0.409771
0.409788
0.409788
0.409804
0.40982
0.409837
0.409853
0.409853
0.409869
0.409886
0.409902
0.409919
0.409919
0.409935
0.409952
0.409968
0.409985
0.409985
0.410001
0.410018
0.410035
0.410051
0.410051
0.410068
0.410085
0.410102
0.410118
0.410118
0.410135
0.410152
0.410169
0.410186
0.410186
0.410203
0.41022
0.410237
0.410254
0.410254
0.410271
0.410288
0.410305
0.410322
0.410322
0.410339
0.410356
0.410374
0.410391
0.410391
0.410408
0.410425
0.410443
0.41046
0.41046
0.410477
0.410495
0.410512
0.41053
0.41053
0.410547
0.410565
0.410582
0.4106
0.4106
0.410617
0.410635
0.410653
0.41067
0.41067
0.410688
0.410706
0.410723
0.410741
0.410741
0.410759
0.410777
0.410795
0.410813
0.410813
0.410831
0.410849
0.410866
0.410884
0.410884
0.410903
0.410921
0.410939
0.410957
0.410957
0.410975
0.410993
0.411011
0.41103
0.41103
0.411048
0.411066
0.411084
0.411103
0.411103
0.411121
0.411139
0.411158
0.411176
0.411176
0.411195
0.411213
0.411232
0.41125
0.41125
0.411269
0.411288
0.411306
0.411325
0.411325
0.411344
0.411362
0.411381
0.4114
0.4114
0.411419
0.411437
0.411456
0.411475
0.411475
0.411494
0.411513
0.411532
0.411551
0.411551
0.41157
0.411589
0.411608
0.411627
0.411627
0.411646
0.411665
0.411685
0.411704
0.411704
0.411723
0.411742
0.411762
0.411781
0.411781
0.4118
0.41182
0.411839
0.411859
0.411859
0.411878
0.411897
0.411917
0.411937
0.411937
0.411956
0.411976
0.411995
0.412015
0.412015
0.412035
0.412054
0.412074
0.412094
0.412094
0.412114
0.412133
0.412153
0.412173
0.412173
0.412193
0.412213
0.412233
0.412253
0.412253
0.412273
0.412293
0.412313
0.412333
0.412333
0.412353
0.412373
0.412394
0.412414
0.412414
0.412434
0.412454
0.412475
0.412495
0.412495
0.412515
0.412536
0.412556
0.412576
0.412576
0.412597
0.412617
0.412638
0.412658
0.412658
0.412679
0.412699
0.41272
0.412741
0.412741
0.412761
0.412782
0.412803
0.412824
0.412824
0.412844
0.412865
0.412886
0.412907
0.412907
0.412928
0.412949
0.41297
0.412991
0.412991
0.413012
0.413033
0.413054
0.413075
0.413075
0.413096
0.413117
0.413138
0.413159
0.413159
0.413181
0.413202
0.413223
0.413244
0.413244
0.413266
0.413287
0.413308
0.41333
0.41333
0.413351
0.413373
0.413394
0.413416
0.413416
0.413437
0.413459
0.41348
0.413502
0.413502
0.413524
0.413545
0.413567
0.413589
0.413589
0.413611
0.413632
0.413654
0.413676
0.413676
0.413698
0.41372
0.413742
0.413764
0.413764
0.413786
0.413808
0.41383
0.413852
0.413852
0.413874
0.413896
0.413918
0.41394
0.41394
0.413963
0.413985
0.414007
0.414029
0.414029
0.414052
0.414074
0.414096
0.414119
0.414119
0.414141
0.414164
0.414186
0.414209
0.414209
0.414231
0.414254
0.414276
0.414299
0.414299
0.414321
0.414344
0.414367
0.41439
0.41439
0.414412
0.414435
0.414458
0.414481
0.414481
0.414504
0.414526
0.414549
0.414572
0.414572
0.414595
0.414618
0.414641
0.414664
0.414664
0.414687
0.414711
0.414734
0.414757
0.414757
0.41478
0.414803
0.414826
0.41485
0.41485
0.414873
0.414896
0.41492
0.414943
0.414943
0.414966
0.41499
0.415013
0.415037
0.415037
0.41506
0.415084
0.415108
0.415131
0.415131
0.415155
0.415178
0.415202
0.415226
0.415226
0.41525
0.415273
0.415297
0.415321
0.415321
0.415345
0.415369
0.415392
0.415416
0.415416
0.41544
0.415464
0.415488
0.415512
0.415512
0.415536
0.415561
0.415585
0.415609
0.415609
0.415633
0.415657
0.415681
0.415706
0.415706
0.41573
0.415754
0.415779
0.415803
0.415803
0.415827
0.415852
0.415876
0.415901
0.415901
0.415925
0.41595
0.415974
0.415999
0.415999
0.416023
0.416048
0.416073
0.416097
0.416097
0.416122
0.416147
0.416172
0.416196
0.416196
0.416221
0.416246
0.416271
0.416296
0.416296
0.416321
0.416346
0.416371
0.416396
0.416396
0.416421
0.416446
0.416471
0.416496
0.416496
0.416521
0.416547
0.416572
0.416597
0.416597
0.416622
0.416648
0.416673
0.416698
0.416698
0.416724
0.416749
0.416774
0.4168
0.4168
0.416825
0.416851
0.416876
0.416902
0.416902
0.416928
0.416953
0.416979
0.417004
0.417004
0.41703
0.417056
0.417082
0.417107
0.417107
0.417133
0.417159
0.417185
0.417211
0.417211
0.417237
0.417263
0.417289
0.417315
0.417315
0.417341
0.417367
0.417393
0.417419
0.417419
0.417445
0.417471
0.417497
0.417524
0.417524
0.41755
0.417576
0.417602
0.417629
0.417629
0.417655
0.417682
0.417708
0.417734
0.417734
0.417761
0.417787
0.417814
0.41784
0.41784
0.417867
0.417894
0.41792
0.417947
0.417947
0.417974
0.418
0.418027
0.418054
0.418054
0.418081
0.418107
0.418134
0.418161
0.418161
0.418188
0.418215
0.418242
0.418269
0.418269
0.418296
0.418323
0.41835
0.418377
0.418377
0.418404
0.418431
0.418458
0.418486
0.418486
0.418513
0.41854
0.418567
0.418595
0.418595
0.418622
0.418649
0.418677
0.418704
0.418704
0.418732
0.418759
0.418787
0.418814
0.418814
0.418842
0.418869
0.418897
0.418925
0.418925
0.418952
0.41898
0.419008
0.419035
0.419035
0.419063
0.419091
0.419119
0.419147
0.419147
0.419174
0.419202
0.41923
0.419258
0.419258
0.419286
0.419314
0.419342
0.41937
0.41937
0.419398
0.419427
0.419455
0.419483
0.419483
0.419511
0.419539
0.419568
0.419596
0.419596
0.419624
0.419653
0.419681
0.419709
0.419709
0.419738
0.419766
0.419795
0.419823
0.419823
0.419852
0.41988
0.419909
0.419938
0.419938
0.419966
0.419995
0.420024
0.420052
0.420052
0.420081
0.42011
0.420139
0.420167
0.420167
0.420196
0.420225
0.420254
0.420283
0.420283
0.420312
0.420341
0.42037
0.420399
0.420399
0.420428
0.420457
0.420486
0.420515
0.420515
0.420545
0.420574
0.420603
0.420632
0.420632
0.420662
0.420691
0.42072
0.42075
0.42075
0.420779
0.420809
0.420838
0.420867
0.420867
0.420897
0.420927
0.420956
0.420986
0.420986
0.421015
0.421045
0.421075
0.421104
0.421104
0.421134
0.421164
0.421194
0.421223
0.421223
0.421253
0.421283
0.421313
0.421343
0.421343
0.421373
0.421403
0.421433
0.421463
0.421463
0.421493
0.421523
0.421553
0.421583
0.421583
0.421613
0.421644
0.421674
0.421704
0.421704
0.421734
0.421765
0.421795
0.421825
0.421825
0.421856
0.421886
0.421916
0.421947
0.421947
0.421977
0.422008
0.422038
0.422069
0.422069
0.4221
0.42213
0.422161
0.422192
0.422192
0.422222
0.422253
0.422284
0.422315
0.422315
0.422345
0.422376
0.422407
0.422438
0.422438
0.422469
0.4225
0.422531
0.422562
0.422562
0.422593
0.422624
0.422655
0.422686
0.422686
0.422717
0.422748
0.42278
0.422811
0.422811
0.422842
0.422873
0.422905
0.422936
0.422936
0.422967
0.422999
0.42303
0.423062
0.423062
0.423093
0.423124
0.423156
0.423188
0.423188
0.423219
0.423251
0.423282
0.423314
0.423314
0.423346
0.423377
0.423409
0.423441
0.423441
0.423473
0.423504
0.423536
0.423568
0.423568
0.4236
0.423632
0.423664
0.423696
0.423696
0.423728
0.42376
0.423792
0.423824
0.423824
0.423856
0.423888
0.42392
0.423953
0.423953
0.423985
0.424017
0.424049
0.424082
0.424082
0.424114
0.424146
0.424179
0.424211
0.424211
0.424244
0.424276
0.424309
0.424341
0.424341
0.424374
0.424406
0.424439
0.424471
0.424471
0.424504
0.424537
0.424569
0.424602
0.424602
0.424635
0.424668
0.424701
0.424733
0.424733
0.424766
0.424799
0.424832
0.424865
0.424865
0.424898
0.424931
0.424964
0.424997
0.424997
0.42503
0.425063
0.425096
0.42513
0.42513
0.425163
0.425196
0.425229
0.425262
0.425262
0.425296
0.425329
0.425362
0.425396
0.425396
0.425429
0.425463
0.425496
0.42553
0.42553
0.425563
0.425597
0.42563
0.425664
0.425664
0.425697
0.425731
0.425765
0.425799
0.425799
0.425832
0.425866
0.4259
0.425934
0.425934
0.425967
0.426001
0.426035
0.426069
0.426069
0.426103
0.426137
0.426171
0.426205
0.426205
0.426239
0.426273
0.426307
0.426341
0.426341
0.426376
0.42641
0.426444
0.426478
0.426478
0.426513
0.426547
0.426581
0.426616
0.426616
0.42665
0.426684
0.426719
0.426753
0.426753
0.426788
0.426822
0.426857
0.426891
0.426891
0.426926
0.426961
0.426995
0.42703
0.42703
0.427065
0.427099
0.427134
0.427169
0.427169
0.427204
0.427238
0.427273
0.427308
0.427308
0.427343
0.427378
0.427413
0.427448
0.427448
0.427483
0.427518
0.427553
0.427588
0.427588
0.427623
0.427659
0.427694
0.427729
0.427729
0.427764
0.427799
0.427835
0.42787
0.42787
0.427905
0.427941
0.427976
0.428012
0.428012
0.428047
0.428083
0.428118
0.428154
0.428154
0.428189
0.428225
0.42826
0.428296
0.428296
0.428332
0.428367
0.428403
0.428439
0.428439
0.428475
0.42851
0.428546
0.428582
0.428582
0.428618
0.428654
0.42869
0.428726
0.428726
0.428762
0.428798
0.428834
0.42887
0.42887
0.428906
0.428942
0.428978
0.429015
0.429015
0.429051
0.429087
0.429123
0.42916
0.42916
0.429196
0.429232
0.429269
0.429305
0.429305
0.429341
0.429378
0.429414
0.429451
0.429451
0.429487
0.429524
0.429561
0.429597
0.429597
0.429634
0.42967
0.429707
0.429744
0.429744
0.429781
0.429817
0.429854
0.429891
0.429891
0.429928
0.429965
0.430002
0.430039
0.430039
0.430075
0.430112
0.430149
0.430187
0.430187
0.430224
0.430261
0.430298
0.430335
0.430335
0.430372
0.430409
0.430447
0.430484
0.430484
0.430521
0.430558
0.430596
0.430633
0.430633
0.43067
0.430708
0.430745
0.430783
0.430783
0.43082
0.430858
0.430895
0.430933
0.430933
0.430971
0.431008
0.431046
0.431084
0.431084
0.431121
0.431159
0.431197
0.431235
0.431235
0.431272
0.43131
0.431348
0.431386
0.431386
0.431424
0.431462
0.4315
0.431538
0.431538
0.431576
0.431614
0.431652
0.43169
0.43169
0.431728
0.431766
0.431805
0.431843
0.431843
0.431881
0.431919
0.431958
0.431996
0.431996
0.432034
0.432073
0.432111
0.43215
0.43215
0.432188
0.432227
0.432265
0.432304
0.432304
0.432342
0.432381
0.432419
0.432458
0.432458
0.432497
0.432535
0.432574
0.432613
0.432613
0.432652
0.43269
0.432729
0.432768
0.432768
0.432807
0.432846
0.432885
0.432924
0.432924
0.432963
0.433002
0.433041
0.43308
0.43308
0.433119
0.433158
0.433197
0.433237
0.433237
0.433276
0.433315
0.433354
0.433394
0.433394
0.433433
0.433472
0.433512
0.433551
0.433551
0.43359
0.43363
0.433669
0.433709
0.433709
0.433748
0.433788
0.433827
0.433867
0.433867
0.433907
0.433946
0.433986
0.434026
0.434026
0.434066
0.434105
0.434145
0.434185
0.434185
0.434225
0.434265
0.434305
0.434345
0.434345
0.434384
0.434424
0.434464
0.434504
0.434504
0.434545
0.434585
0.434625
0.434665
0.434665
0.434705
0.434745
0.434785
0.434826
0.434826
0.434866
0.434906
0.434947
0.434987
0.434987
0.435027
0.435068
0.435108
0.435149
0.435149
0.435189
0.43523
0.43527
0.435311
0.435311
0.435351
0.435392
0.435433
0.435473
0.435473
0.435514
0.435555
0.435596
0.435636
0.435636
0.435677
0.435718
0.435759
0.4358
0.4358
0.435841
0.435882
0.435923
0.435964
0.435964
0.436005
0.436046
0.436087
0.436128
0.436128
0.436169
0.43621
0.436251
0.436293
0.436293
0.436334
0.436375
0.436416
0.436458
0.436458
0.436499
0.43654
0.436582
0.436623
0.436623
0.436665
0.436706
0.436748
0.436789
0.436789
0.436831
0.436872
0.436914
0.436955
0.436955
0.436997
0.437039
0.437081
0.437122
0.437122
0.437164
0.437206
0.437248
0.43729
0.43729
0.437331
0.437373
0.437415
0.437457
0.437457
0.437499
0.437541
0.437583
0.437625
0.437625
0.437667
0.437709
0.437752
0.437794
0.437794
0.437836
0.437878
0.43792
0.437963
0.437963
0.438005
0.438047
0.43809
0.438132
0.438132
0.438174
0.438217
0.438259
0.438302
0.438302
0.438344
0.438387
0.438429
0.438472
0.438472
0.438515
0.438557
0.4386
0.438643
0.438643
0.438685
0.438728
0.438771
0.438814
0.438814
0.438857
0.438899
0.438942
0.438985
0.438985
0.439028
0.439071
0.439114
0.439157
0.439157
0.4392
0.439243
0.439286
0.439329
0.439329
0.439373
0.439416
0.439459
0.439502
0.439502
0.439546
0.439589
0.439632
0.439675
0.439675
0.439719
0.439762
0.439806
0.439849
0.439849
0.439893
0.439936
0.43998
0.440023
0.440023
0.440067
0.44011
0.440154
0.440198
0.440198
0.440241
0.440285
0.440329
0.440372
0.440372
0.440416
0.44046
0.440504
0.440548
0.440548
0.440592
0.440636
0.440679
0.440723
0.440723
0.440767
0.440811
0.440856
0.4409
0.4409
0.440944
0.440988
0.441032
0.441076
0.441076
0.44112
0.441165
0.441209
0.441253
0.441253
0.441297
0.441342
0.441386
0.441431
0.441431
0.441475
0.441519
0.441564
0.441608
0.441608
0.441653
0.441697
0.441742
0.441787
0.441787
0.441831
0.441876
0.441921
0.441965
0.441965
0.44201
0.442055
0.4421
0.442144
0.442144
0.442189
0.442234
0.442279
0.442324
0.442324
0.442369
0.442414
0.442459
0.442504
0.442504
0.442549
0.442594
0.442639
0.442684
0.442684
0.44273
0.442775
0.44282
0.442865
0.442865
0.44291
0.442956
0.443001
0.443046
0.443046
0.443092
0.443137
0.443183
0.443228
0.443228
0.443274
0.443319
0.443365
0.44341
0.44341
0.443456
0.443501
0.443547
0.443593
0.443593
0.443638
0.443684
0.44373
0.443776
0.443776
0.443821
0.443867
0.443913
0.443959
0.443959
0.444005
0.444051
0.444097
0.444143
0.444143
0.444189
0.444235
0.444281
0.444327
0.444327
0.444373
0.444419
0.444465
0.444511
0.444511
0.444558
0.444604
0.44465
0.444696
0.444696
0.444743
0.444789
0.444835
0.444882
0.444882
0.444928
0.444975
0.445021
0.445068
0.445068
0.445114
0.445161
0.445207
0.445254
0.445254
0.445301
0.445347
0.445394
0.445441
0.445441
0.445488
0.445534
0.445581
0.445628
0.445628
0.445675
0.445722
0.445769
0.445815
0.445815
0.445862
0.445909
0.445956
0.446003
0.446003
0.44605
0.446098
0.446145
0.446192
0.446192
0.446239
0.446286
0.446333
0.446381
0.446381
0.446428
0.446475
0.446523
0.44657
0.44657
0.446617
0.446665
0.446712
0.44676
0.44676
0.446807
0.446855
0.446902
0.44695
0.44695
0.446997
0.447045
0.447092
0.44714
0.44714
0.447188
0.447236
0.447283
0.447331
0.447331
0.447379
0.447427
0.447475
0.447522
0.447522
0.44757
0.447618
0.447666
0.447714
0.447714
0.447762
0.44781
0.447858
0.447906
0.447906
0.447954
0.448003
0.448051
0.448099
0.448099
0.448147
0.448195
0.448244
0.448292
0.448292
0.44834
0.448389
0.448437
0.448485
0.448485
0.448534
0.448582
0.448631
0.448679
0.448679
0.448728
0.448776
0.448825
0.448874
0.448874
0.448922
0.448971
0.44902
0.449068
0.449068
0.449117
0.449166
0.449215
0.449263
0.449263
0.449312
0.449361
0.44941
0.449459
0.449459
0.449508
0.449557
0.449606
0.449655
0.449655
0.449704
0.449753
0.449802
0.449851
0.449851
0.4499
0.44995
0.449999
0.450048
0.450048
0.450097
0.450147
0.450196
0.450245
0.450245
0.450295
0.450344
0.450393
0.450443
0.450443
0.450492
0.450542
0.450591
0.450641
0.450641
0.450691
0.45074
0.45079
0.450839
0.450839
0.450889
0.450939
0.450989
0.451038
0.451038
0.451088
0.451138
0.451188
0.451238
0.451238
0.451288
0.451337
0.451387
0.451437
0.451437
0.451487
0.451537
0.451587
0.451638
0.451638
0.451688
0.451738
0.451788
0.451838
0.451838
0.451888
0.451939
0.451989
0.452039
0.452039
0.452089
0.45214
0.45219
0.45224
0.45224
0.452291
0.452341
0.452392
0.452442
0.452442
0.452493
0.452543
0.452594
0.452645
0.452645
0.452695
0.452746
0.452796
0.452847
0.452847
0.452898
0.452949
0.452999
0.45305
0.45305
0.453101
0.453152
0.453203
0.453254
0.453254
0.453305
0.453356
0.453407
0.453458
0.453458
0.453509
0.45356
0.453611
0.453662
0.453662
0.453713
0.453764
0.453815
0.453867
0.453867
0.453918
0.453969
0.454021
0.454072
0.454072
0.454123
0.454175
0.454226
0.454277
0.454277
0.454329
0.45438
0.454432
0.454483
0.454483
0.454535
0.454587
0.454638
0.45469
0.45469
0.454742
0.454793
0.454845
0.454897
0.454897
0.454948
0.455
0.455052
0.455104
0.455104
0.455156
0.455208
0.45526
0.455312
0.455312
0.455364
0.455416
0.455468
0.45552
0.45552
0.455572
0.455624
0.455676
0.455728
0.455728
0.45578
0.455833
0.455885
0.455937
0.455937
0.455989
0.456042
0.456094
0.456146
0.456146
0.456199
0.456251
0.456304
0.456356
0.456356
0.456409
0.456461
0.456514
0.456566
0.456566
0.456619
0.456672
0.456724
0.456777
0.456777
0.45683
0.456882
0.456935
0.456988
0.456988
0.457041
0.457094
0.457146
0.457199
0.457199
0.457252
0.457305
0.457358
0.457411
0.457411
0.457464
0.457517
0.45757
0.457623
0.457623
0.457676
0.45773
0.457783
0.457836
0.457836
0.457889
0.457942
0.457996
0.458049
0.458049
0.458102
0.458156
0.458209
0.458263
0.458263
0.458316
0.458369
0.458423
0.458476
0.458476
0.45853
0.458584
0.458637
0.458691
0.458691
0.458744
0.458798
0.458852
0.458905
0.458905
0.458959
0.459013
0.459067
0.459121
0.459121
0.459174
0.459228
0.459282
0.459336
0.459336
0.45939
0.459444
0.459498
0.459552
0.459552
0.459606
0.45966
0.459714
0.459768
0.459768
0.459823
0.459877
0.459931
0.459985
0.459985
0.46004
0.460094
0.460148
0.460203
0.460203
0.460257
0.460311
0.460366
0.46042
0.46042
0.460475
0.460529
0.460584
0.460638
0.460638
0.460693
0.460747
0.460802
0.460857
0.460857
0.460911
0.460966
0.461021
0.461075
0.461075
0.46113
0.461185
0.46124
0.461295
0.461295
0.46135
0.461405
0.46146
0.461514
0.461514
0.461569
0.461624
0.46168
0.461735
0.461735
0.46179
0.461845
0.4619
0.461955
0.461955
0.46201
0.462066
0.462121
0.462176
0.462176
0.462231
0.462287
0.462342
0.462397
0.462397
0.462453
0.462508
0.462564
0.462619
0.462619
0.462675
0.46273
0.462786
0.462841
0.462841
0.462897
0.462953
0.463008
0.463064
0.463064
0.46312
0.463175
0.463231
0.463287
0.463287
0.463343
0.463399
0.463454
0.46351
0.46351
0.463566
0.463622
0.463678
0.463734
0.463734
0.46379
0.463846
0.463902
0.463958
0.463958
0.464015
0.464071
0.464127
0.464183
0.464183
0.464239
0.464296
0.464352
0.464408
0.464408
0.464464
0.464521
0.464577
0.464634
0.464634
0.46469
0.464746
0.464803
0.464859
0.464859
0.464916
0.464973
0.465029
0.465086
0.465086
0.465142
0.465199
0.465256
0.465312
0.465312
0.465369
0.465426
0.465483
0.46554
0.46554
0.465596
0.465653
0.46571
0.465767
0.465767
0.465824
0.465881
0.465938
0.465995
0.465995
0.466052
0.466109
0.466166
0.466223
0.466223
0.466281
0.466338
0.466395
0.466452
0.466452
0.466509
0.466567
0.466624
0.466681
0.466681
0.466739
0.466796
0.466854
0.466911
0.466911
0.466968
0.467026
0.467083
0.467141
0.467141
0.467199
0.467256
0.467314
0.467371
0.467371
0.467429
0.467487
0.467544
0.467602
0.467602
0.46766
0.467718
0.467776
0.467833
0.467833
0.467891
0.467949
0.468007
0.468065
0.468065
0.468123
0.468181
0.468239
0.468297
0.468297
0.468355
0.468413
0.468471
0.46853
0.46853
0.468588
0.468646
0.468704
0.468762
0.468762
0.468821
0.468879
0.468937
0.468996
0.468996
0.469054
0.469113
0.469171
0.469229
0.469229
0.469288
0.469346
0.469405
0.469464
0.469464
0.469522
0.469581
0.469639
0.469698
0.469698
0.469757
0.469815
0.469874
0.469933
0.469933
0.469992
0.470051
0.470109
0.470168
0.470168
0.470227
0.470286
0.470345
0.470404
0.470404
0.470463
0.470522
0.470581
0.47064
0.47064
0.470699
0.470758
0.470818
0.470877
0.470877
0.470936
0.470995
0.471054
0.471114
0.471114
0.471173
0.471232
0.471292
0.471351
0.471351
0.471411
0.47147
0.471529
0.471589
0.471589
0.471648
0.471708
0.471768
0.471827
0.471827
0.471887
0.471946
0.472006
0.472066
0.472066
0.472125
0.472185
0.472245
0.472305
0.472305
0.472365
0.472424
0.472484
0.472544
0.472544
0.472604
0.472664
0.472724
0.472784
0.472784
0.472844
0.472904
0.472964
0.473024
0.473024
0.473084
0.473145
0.473205
0.473265
0.473265
0.473325
0.473385
0.473446
0.473506
0.473506
0.473566
0.473627
0.473687
0.473747
0.473747
0.473808
0.473868
0.473929
0.473989
0.473989
0.47405
0.47411
0.474171
0.474232
0.474232
0.474292
0.474353
0.474414
0.474474
0.474474
0.474535
0.474596
0.474657
0.474717
0.474717
0.474778
0.474839
0.4749
0.474961
0.474961
0.475022
0.475083
0.475144
0.475205
0.475205
0.475266
0.475327
0.475388
0.475449
0.475449
0.47551
0.475571
0.475633
0.475694
0.475694
0.475755
0.475816
0.475878
0.475939
0.475939
0.476
0.476062
0.476123
0.476184
0.476184
0.476246
0.476307
0.476369
0.47643
0.47643
0.476492
0.476554
0.476615
0.476677
0.476677
0.476738
0.4768
0.476862
0.476924
0.476924
0.476985
0.477047
0.477109
0.477171
0.477171
0.477233
0.477294
0.477356
0.477418
0.477418
0.47748
0.477542
0.477604
0.477666
0.477666
0.477728
0.47779
0.477853
0.477915
0.477915
0.477977
0.478039
0.478101
0.478163
0.478163
0.478226
0.478288
0.47835
0.478413
0.478413
0.478475
0.478537
0.4786
0.478662
0.478662
0.478725
0.478787
0.47885
0.478912
0.478912
0.478975
0.479037
0.4791
0.479163
0.479163
0.479225
0.479288
0.479351
0.479413
0.479413
0.479476
0.479539
0.479602
0.479665
0.479665
0.479728
0.47979
0.479853
0.479916
0.479916
0.479979
0.480042
0.480105
0.480168
0.480168
0.480231
0.480295
0.480358
0.480421
0.480421
0.480484
0.480547
0.48061
0.480674
0.480674
0.480737
0.4808
0.480864
0.480927
0.480927
0.48099
0.481054
0.481117
0.481181
0.481181
0.481244
0.481308
0.481371
0.481435
0.481435
0.481498
0.481562
0.481625
0.481689
0.481689
0.481753
0.481816
0.48188
0.481944
0.481944
0.482008
0.482072
0.482135
0.482199
0.482199
0.482263
0.482327
0.482391
0.482455
0.482455
0.482519
0.482583
0.482647
0.482711
0.482711
0.482775
0.482839
0.482903
0.482967
0.482967
0.483032
0.483096
0.48316
0.483224
0.483224
0.483289
0.483353
0.483417
0.483482
0.483482
0.483546
0.48361
0.483675
0.483739
0.483739
0.483804
0.483868
0.483933
0.483997
0.483997
0.484062
0.484127
0.484191
0.484256
0.484256
0.484321
0.484385
0.48445
0.484515
0.484515
0.48458
0.484644
0.484709
0.484774
0.484774
0.484839
0.484904
0.484969
0.485034
0.485034
0.485099
0.485164
0.485229
0.485294
0.485294
0.485359
0.485424
0.485489
0.485554
0.485554
0.48562
0.485685
0.48575
0.485815
0.485815
0.485881
0.485946
0.486011
0.486077
0.486077
0.486142
0.486208
0.486273
0.486338
0.486338
0.486404
0.486469
0.486535
0.486601
0.486601
0.486666
0.486732
0.486797
0.486863
0.486863
0.486929
0.486995
0.48706
0.487126
0.487126
0.487192
0.487258
0.487324
0.487389
0.487389
0.487455
0.487521
0.487587
0.487653
0.487653
0.487719
0.487785
0.487851
0.487917
0.487917
0.487983
0.488049
0.488116
0.488182
0.488182
0.488248
0.488314
0.48838
0.488447
0.488447
0.488513
0.488579
0.488646
0.488712
0.488712
0.488779
0.488845
0.488911
0.488978
0.488978
0.489044
0.489111
0.489177
0.489244
0.489244
0.489311
0.489377
0.489444
0.489511
0.489511
0.489577
0.489644
0.489711
0.489777
0.489777
0.489844
0.489911
0.489978
0.490045
0.490045
0.490112
0.490179
0.490246
0.490313
0.490313
0.49038
0.490447
0.490514
0.490581
0.490581
0.490648
0.490715
0.490782
0.490849
0.490849
0.490917
0.490984
0.491051
0.491118
0.491118
0.491186
0.491253
0.49132
0.491388
0.491388
0.491455
0.491522
0.49159
0.491657
0.491657
0.491725
0.491792
0.49186
0.491928
0.491928
0.491995
0.492063
0.49213
0.492198
0.492198
0.492266
0.492334
0.492401
0.492469
0.492469
0.492537
0.492605
0.492673
0.49274
0.49274
0.492808
0.492876
0.492944
0.493012
0.493012
0.49308
0.493148
0.493216
0.493284
0.493284
0.493352
0.493421
0.493489
0.493557
0.493557
0.493625
0.493693
0.493762
0.49383
0.49383
0.493898
0.493966
0.494035
0.494103
0.494103
0.494172
0.49424
0.494308
0.494377
0.494377
0.494445
0.494514
0.494583
0.494651
0.494651
0.49472
0.494788
0.494857
0.494926
0.494926
0.494994
0.495063
0.495132
0.495201
0.495201
0.495269
0.495338
0.495407
0.495476
0.495476
0.495545
0.495614
0.495683
0.495752
0.495752
0.495821
0.49589
0.495959
0.496028
0.496028
0.496097
0.496166
0.496235
0.496304
0.496304
0.496374
0.496443
0.496512
0.496581
0.496581
0.496651
0.49672
0.496789
0.496859
0.496859
0.496928
0.496997
0.497067
0.497136
0.497136
0.497206
0.497275
0.497345
0.497415
0.497415
0.497484
0.497554
0.497623
0.497693
0.497693
0.497763
0.497832
0.497902
0.497972
0.497972
0.498042
0.498112
0.498181
0.498251
0.498251
0.498321
0.498391
0.498461
0.498531
0.498531
0.498601
0.498671
0.498741
0.498811
0.498811
0.498881
0.498951
0.499022
0.499092
0.499092
0.499162
0.499232
0.499302
0.499373
0.499373
0.499443
0.499513
0.499584
0.499654
0.499654
0.499724
0.499795
0.499865
0.499936
0.499936
0.500006
0.500077
0.500147
0.500218
0.500218
0.500288
0.500359
0.50043
0.5005
0.5005
0.500571
0.500642
0.500712
0.500783
0.500783
0.500854
0.500925
0.500996
0.501067
0.501067
0.501137
0.501208
0.501279
0.50135
0.50135
0.501421
0.501492
0.501563
0.501634
0.501634
0.501705
0.501777
0.501848
0.501919
0.501919
0.50199
0.502061
0.502132