<?xml version="1.0"?>
<VTKFile type="UnstructuredGrid" version="0.1" byte_order="LittleEndian">
<UnstructuredGrid>
<Piece NumberOfPoints="5000" NumberOfCells="4000">
<PointData Scalars="Reaction 0">
<DataArray type="Float32" Name="Reaction 0" format="ascii">
0.618309
0.618309
0.618309
0.618309
0.618309
0.618309
0.618309
0.618309
0.61831
0.61831
0.61831
0.61831
0.61831
0.61831
0.61831
0.61831
0.618311
0.618311
0.618311
0.618311
0.618311
0.618312
0.618312
0.618312
0.618312
0.618312
0.618313
0.618313
0.618314
0.618314
0.618314
0.618314
0.618315
0.618315
0.618316
0.618316
0.618316
0.618317
0.618317
0.618318
0.618318
0.618318
0.618319
0.618319
0.61832
0.61832
0.618321
0.618321
0.618322
0.618323
0.618323
0.618323
0.618324
0.618325
0.618325
0.618325
0.618326
0.618327
0.618328
0.618328
0.618328
0.618329
0.61833
0.618331
0.618332
0.618332
0.618333
0.618334
0.618334
0.618335
0.618335
0.618336
0.618337
0.618338
0.618339
0.618339
0.61834
0.618341
0.618342
0.618343
0.618343
0.618345
0.618346
0.618347
0.618348
0.618348
0.618349
0.61835
0.618351
0.618353
0.618353
0.618354
0.618355
0.618356
0.618357
0.618357
0.618359
0.61836
0.618361
0.618363
0.618363
0.618364
0.618365
0.618367
0.618368
0.618368
0.61837
0.618371
0.618372
0.618374
0.618374
0.618375
0.618377
0.618378
0.61838
0.61838
0.618382
0.618383
0.618385
0.618386
0.618386
0.618388
0.61839
0.618391
0.618393
0.618393
0.618395
0.618396
0.618398
0.6184
0.6184
0.618401
0.618403
0.618405
0.618407
0.618407
0.618409
0.61841
0.618412
0.618414
0.618414
0.618416
0.618418
0.61842
0.618422
0.618422
0.618424
0.618426
0.618428
0.61843
0.61843
0.618432
0.618434
0.618436
0.618438
0.618438
0.61844
0.618442
0.618444
0.618446
0.618446
0.618448
0.618451
0.618453
0.618455
0.618455
0.618457
0.618459
0.618462
0.618464
0.618464
0.618466
0.618469
0.618471
0.618473
0.618473
0.618476
0.618478
0.61848
0.618483
0.618483
0.618485
0.618488
0.61849
0.618492
0.618492
0.618495
0.618497
0.6185
0.618502
0.618502
0.618505
0.618508
0.61851
0.618513
0.618513
0.618515
0.618518
0.618521
0.618523
0.618523
0.618526
0.618529
0.618531
0.618534
0.618534
0.618537
0.61854
0.618543
0.618545
0.618545
0.618548
0.618551
0.618554
0.618557
0.618557
0.61856
0.618562
0.618565
0.618568
0.618568
0.618571
0.618574
0.618577
0.61858
0.61858
0.618583
0.618586
0.618589
0.618592
0.618592
0.618595
0.618599
0.618602
0.618605
0.618605
0.618608
0.618611
0.618614
0.618618
0.618618
0.618621
0.618624
0.618627
0.618631
0.618631
0.618634
0.618637
0.61864
0.618644
0.618644
0.618647
0.61865
0.618654
0.618657
0.618657
0.618661
0.618664
0.618668
0.618671
0.618671
0.618675
0.618678
0.618682
0.618685
0.618685
0.618689
0.618692
0.618696
0.618699
0.618699
0.618703
0.618707
0.61871
0.618714
0.618714
0.618718
0.618721
0.618725
0.618729
0.618729
0.618733
0.618736
0.61874
0.618744
0.618744
0.618748
0.618752
0.618755
0.618759
0.618759
0.618763
0.618767
0.618771
0.618775
0.618775
0.618779
0.618783
0.618787
0.618791
0.618791
0.618795
0.618799
0.618803
0.618807
0.618807
0.618811
0.618815
0.618819
0.618823
0.618823
0.618828
0.618832
0.618836
0.61884
0.61884
0.618844
0.618849
0.618853
0.618857
0.618857
0.618861
0.618866
0.61887
0.618874
0.618874
0.618879
0.618883
0.618887
0.618892
0.618892
0.618896
0.618901
0.618905
0.61891
0.61891
0.618914
0.618919
0.618923
0.618928
0.618928
0.618932
0.618937
0.618941
0.618946
0.618946
0.618951
0.618955
0.61896
0.618965
0.618965
0.618969
0.618974
0.618979
0.618983
0.618983
0.618988
0.618993
0.618998
0.619002
0.619002
0.619007
0.619012
0.619017
0.619022
0.619022
0.619027
0.619032
0.619036
0.619041
0.619041
0.619046
0.619051
0.619056
0.619061
0.619061
0.619066
0.619071
0.619076
0.619081
0.619081
0.619087
0.619092
0.619097
0.619102
0.619102
0.619107
0.619112
0.619117
0.619123
0.619123
0.619128
0.619133
0.619138
0.619144
0.619144
0.619149
0.619154
0.619159
0.619165
0.619165
0.61917
0.619175
0.619181
0.619186
0.619186
0.619192
0.619197
0.619203
0.619208
0.619208
0.619213
0.619219
0.619224
0.61923
0.61923
0.619236
0.619241
0.619247
0.619252
0.619252
0.619258
0.619263
0.619269
0.619275
0.619275
0.61928
0.619286
0.619292
0.619298
0.619298
0.619303
0.619309
0.619315
0.619321
0.619321
0.619326
0.619332
0.619338
0.619344
0.619344
0.61935
0.619356
0.619362
0.619368
0.619368
0.619374
0.619379
0.619385
0.619391
0.619391
0.619397
0.619403
0.619409
0.619416
0.619416
0.619422
0.619428
0.619434
0.61944
0.61944
0.619446
0.619452
0.619458
0.619465
0.619465
0.619471
0.619477
0.619483
0.619489
0.619489
0.619496
0.619502
0.619508
0.619515
0.619515
0.619521
0.619527
0.619534
0.61954
0.61954
0.619547
0.619553
0.619559
0.619566
0.619566
0.619572
0.619579
0.619585
0.619592
0.619592
0.619598
0.619605
0.619611
0.619618
0.619618
0.619625
0.619631
0.619638
0.619644
0.619644
0.619651
0.619658
0.619665
0.619671
0.619671
0.619678
0.619685
0.619691
0.619698
0.619698
0.619705
0.619712
0.619719
0.619726
0.619726
0.619732
0.619739
0.619746
0.619753
0.619753
0.61976
0.619767
0.619774
0.619781
0.619781
0.619788
0.619795
0.619802
0.619809
0.619809
0.619816
0.619823
0.61983
0.619837
0.619837
0.619844
0.619852
0.619859
0.619866
0.619866
0.619873
0.61988
0.619887
0.619895
0.619895
0.619902
0.619909
0.619917
0.619924
0.619924
0.619931
0.619938
0.619946
0.619953
0.619953
0.619961
0.619968
0.619975
0.619983
0.619983
0.61999
0.619998
0.620005
0.620013
0.620013
0.62002
0.620028
0.620035
0.620043
0.620043
0.62005
0.620058
0.620066
0.620073
0.620073
0.620081
0.620089
0.620096
0.620104
0.620104
0.620112
0.620119
0.620127
0.620135
0.620135
0.620143
0.620151
0.620158
0.620166
0.620166
0.620174
0.620182
0.62019
0.620198
0.620198
0.620206
0.620213
0.620221
0.620229
0.620229
0.620237
0.620245
0.620253
0.620261
0.620261
0.620269
0.620277
0.620286
0.620294
0.620294
0.620302
0.62031
0.620318
0.620326
0.620326
0.620334
0.620342
0.620351
0.620359
0.620359
0.620367
0.620375
0.620384
0.620392
0.620392
0.6204
0.620409
0.620417
0.620425
0.620425
0.620434
0.620442
0.62045
0.620459
0.620459
0.620467
0.620476
0.620484
0.620493
0.620493
0.620501
0.62051
0.620518
0.620527
0.620527
0.620535
0.620544
0.620552
0.620561
0.620561
0.62057
0.620578
0.620587
0.620596
0.620596
0.620604
0.620613
0.620622
0.62063
0.62063
0.620639
0.620648
0.620657
0.620666
0.620666
0.620674
0.620683
0.620692
0.620701
0.620701
0.62071
0.620719
0.620728
0.620736
0.620736
0.620745
0.620754
0.620763
0.620772
0.620772
0.620781
0.62079
0.620799
0.620809
0.620809
0.620818
0.620827
0.620836
0.620845
0.620845
0.620854
0.620863
0.620872
0.620882
0.620882
0.620891
0.6209
0.620909
0.620919
0.620919
0.620928
0.620937
0.620946
0.620956
0.620956
0.620965
0.620974
0.620984
0.620993
0.620993
0.621003
0.621012
0.621021
0.621031
0.621031
0.62104
0.62105
0.621059
0.621069
0.621069
0.621078
0.621088
0.621097
0.621107
0.621107
0.621117
0.621126
0.621136
0.621145
0.621145
0.621155
0.621165
0.621174
0.621184
0.621184
0.621194
0.621204
0.621213
0.621223
0.621223
0.621233
0.621243
0.621253
0.621262
0.621262
0.621272
0.621282
0.621292
0.621302
0.621302
0.621312
0.621322
0.621332
0.621342
0.621342
0.621352
0.621362
0.621372
0.621382
0.621382
0.621392
0.621402
0.621412
0.621422
0.621422
0.621432
0.621442
0.621452
0.621462
0.621462
0.621473
0.621483
0.621493
0.621503
0.621503
0.621513
0.621524
0.621534
0.621544
0.621544
0.621554
0.621565
0.621575
0.621585
0.621585
0.621596
0.621606
0.621617
0.621627
0.621627
0.621637
0.621648
0.621658
0.621669
0.621669
0.621679
0.62169
0.6217
0.621711
0.621711
0.621721
0.621732
0.621743
0.621753
0.621753
0.621764
0.621774
0.621785
0.621796
0.621796
0.621806
0.621817
0.621828
0.621839
0.621839
0.621849
0.62186
0.621871
0.621882
0.621882
0.621892
0.621903
0.621914
0.621925
0.621925
0.621936
0.621947
0.621958
0.621969
0.621969
0.621979
0.62199
0.622001
0.622012
0.622012
0.622023
0.622034
0.622045
0.622056
0.622056
0.622068
0.622079
0.62209
0.622101
0.622101
0.622112
0.622123
0.622134
0.622145
0.622145
0.622157
0.622168
0.622179
0.62219
0.62219
0.622202
0.622213
0.622224
0.622235
0.622235
0.622247
0.622258
0.622269
0.622281
0.622281
0.622292
0.622303
0.622315
0.622326
0.622326
0.622338
0.622349
0.622361
0.622372
0.622372
0.622384
0.622395
0.622407
0.622418
0.622418
0.62243
0.622441
0.622453
0.622465
0.622465
0.622476
0.622488
0.6225
0.622511
0.622511
0.622523
0.622535
0.622546
0.622558
0.622558
0.62257
0.622582
0.622593
0.622605
0.622605
0.622617
0.622629
0.622641
0.622653
0.622653
0.622665
0.622676
0.622688
0.6227
0.6227
0.622712
0.622724
0.622736
0.622748
0.622748
0.62276
0.622772
0.622784
0.622796
0.622796
0.622808
0.62282
0.622833
0.622845
0.622845
0.622857
0.622869
0.622881
0.622893
0.622893
0.622906
0.622918
0.62293
0.622942
0.622942
0.622954
0.622967
0.622979
0.622991
0.622991
0.623004
0.623016
0.623028
0.623041
0.623041
0.623053
0.623066
0.623078
0.62309
0.62309
0.623103
0.623115
0.623128
0.62314
0.62314
0.623153
0.623165
0.623178
0.62319
0.62319
0.623203
0.623216
0.623228
0.623241
0.623241
0.623253
0.623266
0.623279
0.623291
0.623291
0.623304
0.623317
0.62333
0.623342
0.623342
0.623355
0.623368
0.623381
0.623393
0.623393
0.623406
0.623419
0.623432
0.623445
0.623445
0.623458
0.623471
0.623484
0.623496
0.623496
0.623509
0.623522
0.623535
0.623548
0.623548
0.623561
0.623574
0.623587
0.623601
0.623601
0.623614
0.623627
0.62364
0.623653
0.623653
0.623666
0.623679
0.623692
0.623706
0.623706
0.623719
0.623732
0.623745
0.623758
0.623758
0.623772
0.623785
0.623798
0.623812
0.623812
0.623825
0.623838
0.623852
0.623865
0.623865
0.623878
0.623892
0.623905
0.623918
0.623918
0.623932
0.623945
0.623959
0.623972
0.623972
0.623986
0.623999
0.624013
0.624026
0.624026
0.62404
0.624053
0.624067
0.62408
0.62408
0.624093
0.624107
0.62412
0.624134
0.624134
0.624147
0.62416
0.624173
0.624186
0.624186
0.6242
0.624213
0.624226
0.624239
0.624239
0.624252
0.624264
0.624277
0.62429
0.62429
0.624303
0.624315
0.624328
0.624341
0.624341
0.624354
0.624366
0.624379
0.624391
0.624391
0.624404
0.624417
0.624429
0.624442
0.624442
0.624455
0.624467
0.62448
0.624493
0.624493
0.624505
0.624518
0.624531
0.624543
0.624543
0.624556
0.624569
0.624582
0.624594
0.624594
0.624607
0.62462
0.624633
0.624646
0.624646
0.624658
0.624671
0.624684
0.624697
0.624697
0.62471
0.624723
0.624736
0.624749
0.624749
0.624762
0.624775
0.624788
0.624801
0.624801
0.624814
0.624827
0.62484
0.624853
0.624853
0.624866
0.624879
0.624892
0.624905
0.624905
0.624918
0.624931
0.624944
0.624958
0.624958
0.624971
0.624984
0.624997
0.62501
0.62501
0.625024
0.625037
0.62505
0.625063
0.625063
0.625077
0.62509
0.625103
0.625117
0.625117
0.62513
0.625143
0.625157
0.62517
0.62517
0.625183
0.625197
0.62521
0.625224
0.625224
0.625237
0.62525
0.625264
0.625277
0.625277
0.625291
0.625304
0.625318
0.625331
0.625331
0.625345
0.625359
0.625372
0.625386
0.625386
0.625399
0.625413
0.625427
0.62544
0.62544
0.625454
0.625468
0.625481
0.625495
0.625495
0.625509
0.625522
0.625536
0.62555
0.62555
0.625564
0.625577
0.625591
0.625605
0.625605
0.625619
0.625633
0.625647
0.62566
0.62566
0.625674
0.625688
0.625702
0.625716
0.625716
0.62573
0.625744
0.625758
0.625772
0.625772
0.625786
0.6258
0.625814
0.625828
0.625828
0.625842
0.625856
0.62587
0.625884
0.625884
0.625898
0.625912
0.625926
0.62594
0.62594
0.625955
0.625969
0.625983
0.625997
0.625997
0.626011
0.626025
0.62604
0.626054
0.626054
0.626068
0.626082
0.626097
0.626111
0.626111
0.626125
0.62614
0.626154
0.626168
0.626168
0.626183
0.626197
0.626211
0.626226
0.626226
0.62624
0.626255
0.626269
0.626283
0.626283
0.626298
0.626312
0.626327
0.626341
0.626341
0.626356
0.62637
0.626385
0.626399
0.626399
0.626414
0.626429
0.626443
0.626458
0.626458
0.626472
0.626487
0.626502
0.626516
0.626516
0.626531
0.626546
0.62656
0.626575
0.626575
0.62659
0.626605
0.626619
0.626634
0.626634
0.626649
0.626664
0.626679
0.626693
0.626693
0.626708
0.626723
0.626738
0.626753
0.626753
0.626768
0.626783
0.626797
0.626812
0.626812
0.626827
0.626842
0.626857
0.626872
0.626872
0.626887
0.626902
0.626917
0.626932
0.626932
0.626947
0.626962
0.626977
0.626993
0.626993
0.627008
0.627023
0.627038
0.627053
0.627053
0.627068
0.627083
0.627099
0.627114
0.627114
0.627129
0.627144
0.627159
0.627175
0.627175
0.62719
0.627205
0.62722
0.627236
0.627236
0.627251
0.627266
0.627282
0.627297
0.627297
0.627312
0.627328
0.627343
0.627359
0.627359
0.627374
0.627389
0.627405
0.62742
0.62742
0.627436
0.627451
0.627467
0.627482
0.627482
0.627498
0.627513
0.627529
0.627544
0.627544
0.62756
0.627576
0.627591
0.627607
0.627607
0.627622
0.627638
0.627654
0.627669
0.627669
0.627685
0.627701
0.627716
0.627732
0.627732
0.627748
0.627764
0.627779
0.627795
0.627795
0.627811
0.627827
0.627842
0.627858
0.627858
0.627874
0.62789
0.627906
0.627922
0.627922
0.627938
0.627953
0.627969
0.627985
0.627985
0.628001
0.628017
0.628033
0.628049
0.628049
0.628065
0.628081
0.628097
0.628113
0.628113
0.628129
0.628145
0.628161
0.628177
0.628177
0.628193
0.62821
0.628226
0.628242
0.628242
0.628258
0.628274
0.62829
0.628306
0.628306
0.628323
0.628339
0.628355
0.628371
0.628371
0.628388
0.628404
0.62842
0.628436
0.628436
0.628453
0.628469
0.628485
0.628502
0.628502
0.628518
0.628534
0.628551
0.628567
0.628567
0.628584
0.6286
0.628616
0.628633
0.628633
0.628649
0.628666
0.628682
0.628699
0.628699
0.628715
0.628732
0.628748
0.628765
0.628765
0.628781
0.628798
0.628815
0.628831
0.628831
0.628848
0.628864
0.628881
0.628898
0.628898
0.628914
0.628931
0.628948
0.628964
0.628964
0.628981
0.628998
0.629015
0.629031
0.629031
0.629048
0.629065
0.629082
0.629098
0.629098
0.629115
0.629132
0.629149
0.629166
0.629166
0.629183
0.6292
0.629216
0.629233
0.629233
0.62925
0.629267
0.629284
0.629301
0.629301
0.629318
0.629335
0.629352
0.629369
0.629369
0.629386
0.629403
0.62942
0.629437
0.629437
0.629454
0.629471
0.629488
0.629505
0.629505
0.629523
0.62954
0.629557
0.629574
0.629574
0.629591
0.629608
0.629625
0.629643
0.629643
0.62966
0.629677
0.629694
0.629711
0.629711
0.629728
0.629745
0.629762
0.62978
0.62978
0.629797
0.629814
0.62983
0.629847
0.629847
0.629864
0.629881
0.629898
0.629914
0.629914
0.629931
0.629948
0.629964
0.62998
0.62998
0.629997
0.630013
0.630029
0.630045
0.630045
0.630062
0.630078
0.630094
0.63011
0.63011
0.630126
0.630142
0.630158
0.630174
0.630174
0.630189
0.630205
0.630221
0.630237
0.630237
0.630253
0.630269
0.630285
0.630301
0.630301
0.630317
0.630333
0.630348
0.630364
0.630364
0.63038
0.630396
0.630412
0.630428
0.630428
0.630444
0.63046
0.630476
0.630492
0.630492
0.630508
0.630524
0.63054
0.630557
0.630557
0.630573
0.630589
0.630605
0.630621
0.630621
0.630637
0.630653
0.630669
0.630685
0.630685
0.630702
0.630718
0.630734
0.63075
0.63075
0.630766
0.630783
0.630799
0.630815
0.630815
0.630831
0.630848
0.630864
0.63088
0.63088
0.630896
0.630913
0.630929
0.630945
0.630945
0.630962
0.630978
0.630994
0.631011
0.631011
0.631027
0.631044
0.63106
0.631076
0.631076
0.631093
0.631109
0.631126
0.631142
0.631142
0.631159
0.631175
0.631192
0.631208
0.631208
0.631225
0.631241
0.631258
0.631274
0.631274
0.631291
0.631308
0.631324
0.631341
0.631341
0.631357
0.631374
0.631391
0.631407
0.631407
0.631424
0.631441
0.631457
0.631474
0.631474
0.631491
0.631507
0.631524
0.631541
0.631541
0.631558
0.631574
0.631591
0.631608
0.631608
0.631625
0.631641
0.631658
0.631675
0.631675
0.631692
0.631709
0.631726
0.631742
0.631742
0.631759
0.631776
0.631793
0.63181
0.63181
0.631827
0.631844
0.631861
0.631878
0.631878
0.631895
0.631912
0.631929
0.631946
0.631946
0.631963
0.63198
0.631997
0.632014
0.632014
0.632031
0.632048
0.632065
0.632082
0.632082
0.632099
0.632116
0.632133
0.63215
0.63215
0.632168
0.632185
0.632202
0.632219
0.632219
0.632236
0.632253
0.632271
0.632288
0.632288
0.632305
0.632322
0.632339
0.632357
0.632357
0.632374
0.632391
0.632409
0.632426
0.632426
0.632443
0.63246
0.632478
0.632495
0.632495
0.632513
0.63253
0.632547
0.632565
0.632565
0.632582
0.632599
0.632617
0.632634
0.632634
0.632652
0.632669
0.632687
0.632704
0.632704
0.632722
0.632739
0.632757
0.632774
0.632774
0.632792
0.632809
0.632827
0.632844
0.632844
0.632862
0.632879
0.632897
0.632915
0.632915
0.632932
0.63295
0.632967
0.632985
0.632985
0.633003
0.63302
0.633038
0.633056
0.633056
0.633074
0.633091
0.633109
0.633127
0.633127
0.633144
0.633162
0.63318
0.633198
0.633198
0.633216
0.633233
0.633251
0.633269
0.633269
0.633287
0.633305
0.633322
0.63334
0.63334
0.633358
0.633376
0.633394
0.633412
0.633412
0.63343
0.633448
0.633466
0.633484
0.633484
0.633502
0.633519
0.633537
0.633555
0.633555
0.633573
0.633591
0.633609
0.633628
0.633628
0.633646
0.633664
0.633682
0.6337
0.6337
0.633718
0.633736
0.633754
0.633772
0.633772
0.63379
0.633808
0.633827
0.633845
0.633845
0.633863
0.633881
0.633899
0.633917
0.633917
0.633936
0.633954
0.633972
0.63399
0.63399
0.634009
0.634027
0.634045
0.634063
0.634063
0.634082
0.6341
0.634118
0.634137
0.634137
0.634155
0.634173
0.634192
0.63421
0.63421
0.634229
0.634247
0.634265
0.634284
0.634284
0.634302
0.634321
0.634339
0.634357
0.634357
0.634376
0.634394
0.634413
0.634431
0.634431
0.63445
0.634468
0.634487
0.634505
0.634505
0.634524
0.634543
0.634561
0.63458
0.63458
0.634598
0.634617
0.634635
0.634654
0.634654
0.634672
0.634691
0.634709
0.634728
0.634728
0.634746
0.634765
0.634783
0.634802
0.634802
0.63482
0.634838
0.634857
0.634875
0.634875
0.634893
0.634911
0.634929
0.634947
0.634947
0.634965
0.634983
0.635
0.635018
0.635018
0.635036
0.635053
0.635071
0.635088
0.635088
0.635106
0.635123
0.63514
0.635158
0.635158
0.635175
0.635192
0.635209
0.635226
0.635226
0.635243
0.63526
0.635278
0.635295
0.635295
0.635312
0.635329
0.635346
0.635363
0.635363
0.63538
0.635397
0.635414
0.635431
0.635431
0.635448
0.635466
0.635483
0.6355
0.6355
0.635517
0.635534
0.635551
0.635568
0.635568
0.635586
0.635603
0.63562
0.635637
0.635637
0.635654
0.635672
0.635689
0.635706
0.635706
0.635723
0.635741
0.635758
0.635775
0.635775
0.635793
0.63581
0.635827
0.635844
0.635844
0.635862
0.635879
0.635896
0.635914
0.635914
0.635931
0.635949
0.635966
0.635983
0.635983
0.636001
0.636018
0.636036
0.636053
0.636053
0.63607
0.636088
0.636105
0.636123
0.636123
0.63614
0.636158
0.636175
0.636193
0.636193
0.63621
0.636228
0.636245
0.636263
0.636263
0.63628
0.636298
0.636315
0.636333
0.636333
0.636351
0.636368
0.636386
0.636403
0.636403
0.636421
0.636439
0.636456
0.636474
0.636474
0.636492
0.636509
0.636527
0.636545
0.636545
0.636562
0.63658
0.636598
0.636615
0.636615
0.636633
0.636651
0.636669
0.636686
0.636686
0.636704
0.636722
0.63674
0.636758
0.636758
0.636775
0.636793
0.636811
0.636829
0.636829
0.636847
0.636865
0.636882
0.6369
0.6369
0.636918
0.636936
0.636954
0.636972
0.636972
0.63699
0.637008
0.637026
0.637044
0.637044
0.637061
0.637079
0.637097
0.637115
0.637115
0.637133
0.637151
0.637169
0.637187
0.637187
0.637205
0.637223
0.637241
0.637259
0.637259
0.637278
0.637296
0.637314
0.637332
0.637332
0.63735
0.637368
0.637386
0.637404
0.637404
0.637422
0.63744
0.637459
0.637477
0.637477
0.637495
0.637513
0.637531
0.637549
0.637549
0.637568
0.637586
0.637604
0.637622
0.637622
0.637641
0.637659
0.637677
0.637695
0.637695
0.637714
0.637732
0.63775
0.637769
0.637769
0.637787
0.637805
0.637823
0.637842
0.637842
0.63786
0.637879
0.637897
0.637915
0.637915
0.637934
0.637952
0.63797
0.637989
0.637989
0.638007
0.638026
0.638044
0.638063
0.638063
0.638081
0.638099
0.638118
0.638136
0.638136
0.638155
0.638173
0.638192
0.63821
0.63821
0.638229
0.638247
0.638266
0.638285
0.638285
0.638303
0.638322
0.63834
0.638359
0.638359
0.638377
0.638396
0.638415
0.638433
0.638433
0.638452
0.638471
0.638489
0.638508
0.638508
0.638527
0.638545
0.638564
0.638583
0.638583
0.638601
0.63862
0.638639
0.638658
0.638658
0.638676
0.638695
0.638714
0.638733
0.638733
0.638751
0.63877
0.638789
0.638808
0.638808
0.638827
0.638845
0.638864
0.638883
0.638883
0.638902
0.638921
0.638939
0.638958
0.638958
0.638977
0.638996
0.639015
0.639034
0.639034
0.639052
0.639071
0.63909
0.639109
0.639109
0.639128
0.639146
0.639165
0.639184
0.639184
0.639202
0.639221
0.639239
0.639258
0.639258
0.639276
0.639295
0.639313
0.639331
0.639331
0.639349
0.639367
0.639386
0.639403
0.639403
0.639421
0.639439
0.639457
0.639475
0.639475
0.639492
0.63951
0.639528
0.639545
0.639545
0.639563
0.63958
0.639598
0.639615
0.639615
0.639632
0.63965
0.639667
0.639684
0.639684
0.639702
0.639719
0.639736
0.639753
0.639753
0.639771
0.639788
0.639805
0.639822
0.639822
0.63984
0.639857
0.639874
0.639892
0.639892
0.639909
0.639926
0.639944
0.639961
0.639961
0.639978
0.639996
0.640013
0.64003
0.64003
0.640048
0.640065
0.640082
0.6401
0.6401
0.640117
0.640135
0.640152
0.640169
0.640169
0.640187
0.640204
0.640222
0.640239
0.640239
0.640257
0.640274
0.640292
0.640309
0.640309
0.640327
0.640344
0.640361
0.640379
0.640379
0.640397
0.640414
0.640432
0.640449
0.640449
0.640467
0.640484
0.640502
0.640519
0.640519
0.640537
0.640555
0.640572
0.64059
0.64059
0.640607
0.640625
0.640643
0.64066
0.64066
0.640678
0.640696
0.640713
0.640731
0.640731
0.640749
0.640766
0.640784
0.640802
0.640802
0.640819
0.640837
0.640855
0.640872
0.640872
0.64089
0.640908
0.640926
0.640943
0.640943
0.640961
0.640979
0.640997
0.641015
0.641015
0.641032
0.64105
0.641068
0.641086
0.641086
0.641104
0.641121
0.641139
0.641157
0.641157
0.641175
0.641193
0.641211
0.641229
0.641229
0.641247
0.641264
0.641282
0.6413
0.6413
0.641318
0.641336
0.641354
0.641372
0.641372
0.64139
0.641408
0.641426
0.641444
0.641444
0.641462
0.64148
0.641498
0.641516
0.641516
0.641534
0.641552
0.64157
0.641588
0.641588
0.641606
0.641624
0.641642
0.64166
0.64166
0.641678
0.641696
0.641714
0.641733
0.641733
0.641751
0.641769
0.641787
0.641805
0.641805
0.641823
0.641841
0.641859
0.641878
0.641878
0.641896
0.641914
0.641932
0.64195
0.64195
0.641969
0.641987
0.642005
0.642023
0.642023
0.642041
0.64206
0.642078
0.642096
0.642096
0.642114
0.642133
0.642151
0.642169
0.642169
0.642188
0.642206
0.642224
0.642243
0.642243
0.642261
0.642279
0.642298
0.642316
0.642316
0.642334
0.642353
0.642371
0.642389
0.642389
0.642408
0.642426
0.642445
0.642463
0.642463
0.642481
0.6425
0.642518
0.642537
0.642537
0.642555
0.642574
0.642592
0.64261
0.64261
0.642629
0.642647
0.642666
0.642684
0.642684
0.642703
0.642721
0.64274
0.642758
0.642758
0.642777
0.642795
0.642814
0.642832
0.642832
0.642851
0.642869
0.642888
0.642906
0.642906
0.642925
0.642943
0.642962
0.64298
0.64298
0.642998
0.643017
0.643035
0.643053
0.643053
0.643071
0.64309
0.643108
0.643126
0.643126
0.643144
0.643162
0.64318
0.643197
0.643197
0.643215
0.643233
0.64325
0.643268
0.643268
0.643286
0.643303
0.64332
0.643338
0.643338
0.643355
0.643372
0.643389
0.643407
0.643407
0.643424
0.643441
0.643458
0.643475
0.643475
0.643492
0.643509
0.643526
0.643543
0.643543
0.64356
0.643577
0.643594
0.64361
0.64361
0.643627
0.643644
0.643661
0.643678
0.643678
0.643695
0.643712
0.643729
0.643746
0.643746
0.643763
0.64378
0.643797
0.643814
0.643814
0.643831
0.643848
0.643865
0.643882
0.643882
0.643899
0.643916
0.643933
0.64395
0.64395
0.643967
0.643984
0.644001
0.644018
0.644018
0.644035
0.644052
0.644069
0.644086
0.644086
0.644103
0.64412
0.644137
0.644154
0.644154
0.644171
0.644189
0.644206
0.644223
0.644223
0.64424
0.644257
0.644274
0.644291
0.644291
0.644308
0.644326
0.644343
0.64436
0.64436
0.644377
0.644394
0.644412
0.644429
0.644429
0.644446
0.644463
0.64448
0.644498
0.644498
0.644515
0.644532
0.644549
0.644567
0.644567
0.644584
0.644601
0.644618
0.644636
0.644636
0.644653
0.64467
0.644688
0.644705
0.644705
0.644722
0.64474
0.644757
0.644774
0.644774
0.644792
0.644809
0.644826
0.644844
0.644844
0.644861
0.644878
0.644896
0.644913
0.644913
0.644931
0.644948
0.644965
0.644983
0.644983
0.645
0.645018
0.645035
0.645053
0.645053
0.64507
0.645088
0.645105
0.645123
0.645123
0.64514
0.645158
0.645175
0.645193
0.645193
0.64521
0.645228
0.645245
0.645263
0.645263
0.64528
0.645298
0.645315
0.645333
0.645333
0.64535
0.645368
0.645385
0.645403
0.645403
0.645421
0.645438
0.645456
0.645473
0.645473
0.645491
0.645509
0.645526
0.645544
0.645544
0.645562
0.645579
0.645597
0.645615
0.645615
0.645632
0.64565
0.645668
0.645685
0.645685
0.645703
0.645721
0.645738
0.645756
0.645756
0.645774
0.645792
0.645809
0.645827
0.645827
0.645845
0.645863
0.64588
0.645898
0.645898
0.645916
0.645934
0.645952
0.645969
0.645969
0.645987
0.646005
0.646023
0.646041
0.646041
0.646058
0.646076
0.646094
0.646112
0.646112
0.64613
0.646148
0.646165
0.646183
0.646183
0.646201
0.646219
0.646237
0.646254
0.646254
0.646272
0.64629
0.646308
0.646325
0.646325
0.646343
0.646361
0.646378
0.646396
0.646396
0.646414
0.646431
0.646449
0.646466
0.646466
0.646483
0.646501
0.646518
0.646535
0.646535
0.646552
0.646569
0.646586
0.646603
0.646603
0.64662
0.646637
0.646654
0.646671
0.646671
0.646687
0.646704
0.646721
0.646737
0.646737
0.646754
0.64677
0.646787
0.646803
0.646803
0.646819
0.646836
0.646852
0.646869
0.646869
0.646885
0.646901
0.646917
0.646934
0.646934
0.64695
0.646966
0.646983
0.646999
0.646999
0.647015
0.647031
0.647048
0.647064
0.647064
0.64708
0.647096
0.647113
0.647129
0.647129
0.647145
0.647162
0.647178
0.647194
0.647194
0.647211
0.647227
0.647243
0.64726
0.64726
0.647276
0.647292
0.647309
0.647325
0.647325
0.647341
0.647358
0.647374
0.64739
0.64739
0.647407
0.647423
0.64744
0.647456
0.647456
0.647473
0.647489
0.647505
0.647522
0.647522
0.647538
0.647555
0.647571
0.647588
0.647588
0.647604
0.647621
0.647637
0.647653
0.647653
0.64767
0.647686
0.647703
0.647719
0.647719
0.647736
0.647753
0.647769
0.647786
0.647786
0.647802
0.647819
0.647835
0.647852
0.647852
0.647868
0.647885
0.647901
0.647918
0.647918
0.647935
0.647951
0.647968
0.647984
0.647984
0.648001
0.648018
0.648034
0.648051
0.648051
0.648068
0.648084
0.648101
0.648118
0.648118
0.648134
0.648151
0.648168
0.648184
0.648184
0.648201
0.648218
0.648234
0.648251
0.648251
0.648268
0.648284
0.648301
0.648318
0.648318
0.648335
0.648351
0.648368
0.648385
0.648385
0.648402
0.648418
0.648435
0.648452
0.648452
0.648469
0.648485
0.648502
0.648519
0.648519
0.648536
0.648553
0.64857
0.648586
0.648586
0.648603
0.64862
0.648637
0.648654
0.648654
0.648671
0.648687
0.648704
0.648721
0.648721
0.648738
0.648755
0.648772
0.648789
0.648789
0.648806
0.648823
0.64884
0.648856
0.648856
0.648873
0.64889
0.648907
0.648924
0.648924
0.648941
0.648958
0.648975
0.648992
0.648992
0.649009
0.649026
0.649043
0.64906
0.64906
0.649077
0.649094
0.649111
0.649128
0.649128
0.649145
0.649162
0.649179
0.649196
0.649196
0.649212
0.649229
0.649246
0.649263
0.649263
0.64928
0.649297
0.649313
0.64933
0.64933
0.649347
0.649363
0.64938
0.649397
0.649397
0.649413
0.64943
0.649446
0.649462
0.649462
0.649479
0.649495
0.649511
0.649527
0.649527
0.649543
0.64956
0.649576
0.649592
0.649592
0.649607
0.649623
0.649639
0.649655
0.649655
0.649671
0.649686
0.649702
0.649718
0.649718
0.649733
0.649749
0.649764
0.64978
0.64978
0.649795
0.649811
0.649826
0.649842
0.649842
0.649857
0.649873
0.649888
0.649904
0.649904
0.649919
0.649935
0.64995
0.649966
0.649966
0.649981
0.649997
0.650012
0.650028
0.650028
0.650043
0.650059
0.650074
0.65009
0.65009
0.650105
0.650121
0.650136
0.650152
0.650152
0.650167
0.650183
0.650198
0.650214
0.650214
0.650229
0.650245
0.65026
0.650276
0.650276
0.650292
0.650307
0.650323
0.650338
0.650338
0.650354
0.650369
0.650385
0.650401
0.650401
0.650416
0.650432
0.650448
0.650463
0.650463
0.650479
0.650494
0.65051
0.650526
0.650526
0.650541
0.650557
0.650573
0.650588
0.650588
0.650604
0.65062
0.650636
0.650651
0.650651
0.650667
0.650683
0.650698
0.650714
0.650714
0.65073
0.650746
0.650761
0.650777
0.650777
0.650793
0.650809
0.650824
0.65084
0.65084
0.650856
0.650872
0.650887
0.650903
0.650903
0.650919
0.650935
0.650951
0.650966
0.650966
0.650982
0.650998
0.651014
0.65103
0.65103
0.651046
0.651061
0.651077
0.651093
0.651093
0.651109
0.651125
0.651141
0.651157
0.651157
0.651173
0.651188
0.651204
0.65122
0.65122
0.651236
0.651252
0.651268
0.651284
0.651284
0.6513
0.651316
0.651332
0.651348
0.651348
0.651364
0.65138
0.651396
0.651412
0.651412
0.651428
0.651443
0.651459
0.651475
0.651475
0.651491
0.651507
0.651523
0.65154
0.65154
0.651556
0.651572
0.651588
0.651604
0.651604
0.65162
0.651636
0.651652
0.651668
0.651668
0.651684
0.6517
0.651716
0.651732
0.651732
0.651748
0.651764
0.65178
0.651796
0.651796
0.651812
0.651827
0.651843
0.651859
0.651859
0.651875
0.651891
0.651907
0.651922
0.651922
0.651938
0.651954
0.651969
0.651985
0.651985
0.652
0.652016
0.652031
0.652047
0.652047
0.652062
0.652077
0.652093
0.652108
0.652108
0.652123
0.652138
0.652153
0.652168
0.652168
0.652183
0.652198
0.652213
0.652228
0.652228
0.652243
0.652257
0.652272
0.652287
0.652287
0.652302
0.652316
0.652331
0.652346
0.652346
0.65236
0.652375
0.65239
0.652404
0.652404
0.652419
0.652433
0.652448
0.652463
0.652463
0.652477
0.652492
0.652506
0.652521
0.652521
0.652536
0.65255
0.652565
0.652579
0.652579
0.652594
0.652609
0.652623
0.652638
0.652638
0.652653
0.652667
0.652682
0.652696
0.652696
0.652711
0.652726
0.65274
0.652755
0.652755
0.65277
0.652784
0.652799
0.652814
0.652814
0.652829
0.652843
0.652858
0.652873
0.652873
0.652887
0.652902
0.652917
0.652932
0.652932
0.652946
0.652961
0.652976
0.652991
0.652991
0.653005
0.65302
0.653035
0.65305
0.65305
0.653064
0.653079
0.653094
0.653109
0.653109
0.653124
0.653138
0.653153
0.653168
0.653168
0.653183
0.653198
0.653213
0.653227
0.653227
0.653242
0.653257
0.653272
0.653287
0.653287
0.653302
0.653317
0.653332
0.653346
0.653346
0.653361
0.653376
0.653391
0.653406
0.653406
0.653421
0.653436
0.653451
0.653466
0.653466
0.653481
0.653496
0.653511
0.653526
0.653526
0.65354
0.653555
0.65357
0.653585
0.653585
0.6536
0.653615
0.65363
0.653645
0.653645
0.65366
0.653675
0.65369
0.653705
0.653705
0.65372
0.653735
0.65375
0.653765
0.653765
0.653781
0.653796
0.653811
0.653826
0.653826
0.653841
0.653856
0.653871
0.653886
0.653886
0.653901
0.653916
0.653931
0.653946
0.653946
0.653961
0.653976
0.653991
0.654006
0.654006
0.654021
0.654036
0.654051
0.654066
0.654066
0.654081
0.654096
0.654111
0.654126
0.654126
0.654141
0.654156
0.65417
0.654185
0.654185
0.6542
0.654214
0.654229
0.654244
0.654244
0.654258
0.654273
0.654287
0.654302
0.654302
0.654316
0.65433
0.654345
0.654359
0.654359
0.654373
0.654387
0.654401
0.654415
0.654415
0.65443
0.654444
0.654458
0.654471