<?xml version="1.0"?>
<VTKFile type="UnstructuredGrid" version="0.1" byte_order="LittleEndian">
<UnstructuredGrid>
<Piece NumberOfPoints="5000" NumberOfCells="4000">
<PointData Scalars="Reaction 0">
<DataArray type="Float32" Name="Reaction 0" format="ascii">
0.23834
0.23834
0.23834
0.23834
0.238341
0.238341
0.238341
0.238341
0.238341
0.238341
0.238341
0.238342
0.238342
0.238342
0.238343
0.238343
0.238343
0.238344
0.238344
0.238345
0.238345
0.238345
0.238346
0.238346
0.238347
0.238347
0.238348
0.238349
0.238349
0.23835
0.23835
0.238351
0.238352
0.238353
0.238354
0.238354
0.238355
0.238356
0.238357
0.238358
0.238358
0.238359
0.23836
0.238361
0.238362
0.238362
0.238364
0.238365
0.238366
0.238368
0.238368
0.238369
0.23837
0.238372
0.238373
0.238373
0.238375
0.238376
0.238378
0.23838
0.23838
0.238381
0.238383
0.238385
0.238387
0.238387
0.238388
0.23839
0.238392
0.238394
0.238394
0.238396
0.238398
0.2384
0.238402
0.238402
0.238404
0.238406
0.238408
0.23841
0.23841
0.238413
0.238415
0.238417
0.238419
0.238419
0.238422
0.238424
0.238426
0.238429
0.238429
0.238431
0.238434
0.238436
0.238439
0.238439
0.238442
0.238444
0.238447
0.23845
0.23845
0.238452
0.238455
0.238458
0.238461
0.238461
0.238464
0.238467
0.23847
0.238473
0.238473
0.238476
0.238479
0.238482
0.238485
0.238485
0.238488
0.238491
0.238495
0.238498
0.238498
0.238501
0.238504
0.238508
0.238511
0.238511
0.238515
0.238518
0.238522
0.238525
0.238525
0.238529
0.238532
0.238536
0.23854
0.23854
0.238543
0.238547
0.238551
0.238555
0.238555
0.238559
0.238562
0.238566
0.23857
0.23857
0.238574
0.238578
0.238582
0.238586
0.238586
0.23859
0.238595
0.238599
0.238603
0.238603
0.238607
0.238612
0.238616
0.23862
0.23862
0.238625
0.238629
0.238634
0.238638
0.238638
0.238643
0.238647
0.238652
0.238656
0.238656
0.238661
0.238666
0.23867
0.238675
0.238675
0.23868
0.238685
0.23869
0.238695
0.238695
0.2387
0.238705
0.23871
0.238715
0.238715
0.23872
0.238725
0.23873
0.238735
0.238735
0.23874
0.238746
0.238751
0.238756
0.238756
0.238761
0.238767
0.238772
0.238778
0.238778
0.238783
0.238789
0.238794
0.2388
0.2388
0.238806
0.238811
0.238817
0.238823
0.238823
0.238828
0.238834
0.23884
0.238846
0.238846
0.238852
0.238858
0.238864
0.23887
0.23887
0.238876
0.238882
0.238888
0.238894
0.238894
0.2389
0.238906
0.238913
0.238919
0.238919
0.238925
0.238931
0.238938
0.238944
0.238944
0.238951
0.238957
0.238964
0.23897
0.23897
0.238977
0.238983
0.23899
0.238997
0.238997
0.239003
0.23901
0.239017
0.239024
0.239024
0.239031
0.239037
0.239044
0.239051
0.239051
0.239058
0.239065
0.239072
0.23908
0.23908
0.239087
0.239094
0.239101
0.239108
0.239108
0.239115
0.239123
0.23913
0.239137
0.239137
0.239145
0.239152
0.23916
0.239167
0.239167
0.239175
0.239182
0.23919
0.239198
0.239198
0.239205
0.239213
0.239221
0.239228
0.239228
0.239236
0.239244
0.239252
0.23926
0.23926
0.239268
0.239276
0.239284
0.239292
0.239292
0.2393
0.239308
0.239316
0.239324
0.239324
0.239333
0.239341
0.239349
0.239358
0.239358
0.239366
0.239374
0.239383
0.239391
0.239391
0.2394
0.239408
0.239417
0.239425
0.239425
0.239434
0.239443
0.239451
0.23946
0.23946
0.239469
0.239478
0.239486
0.239495
0.239495
0.239504
0.239513
0.239522
0.239531
0.239531
0.23954
0.239549
0.239558
0.239567
0.239567
0.239577
0.239586
0.239595
0.239604
0.239604
0.239614
0.239623
0.239632
0.239642
0.239642
0.239651
0.239661
0.23967
0.23968
0.23968
0.239689
0.239699
0.239709
0.239718
0.239718
0.239728
0.239738
0.239748
0.239757
0.239757
0.239767
0.239777
0.239787
0.239797
0.239797
0.239807
0.239817
0.239827
0.239837
0.239837
0.239847
0.239857
0.239868
0.239878
0.239878
0.239888
0.239898
0.239909
0.239919
0.239919
0.23993
0.23994
0.23995
0.239961
0.239961
0.239972
0.239982
0.239993
0.240003
0.240003
0.240014
0.240025
0.240035
0.240046
0.240046
0.240057
0.240068
0.240079
0.24009
0.24009
0.240101
0.240112
0.240123
0.240134
0.240134
0.240145
0.240156
0.240167
0.240178
0.240178
0.240189
0.240201
0.240212
0.240223
0.240223
0.240235
0.240246
0.240257
0.240269
0.240269
0.24028
0.240292
0.240304
0.240315
0.240315
0.240327
0.240338
0.24035
0.240362
0.240362
0.240374
0.240385
0.240397
0.240409
0.240409
0.240421
0.240433
0.240445
0.240457
0.240457
0.240469
0.240481
0.240493
0.240505
0.240505
0.240518
0.24053
0.240542
0.240554
0.240554
0.240567
0.240579
0.240591
0.240604
0.240604
0.240616
0.240629
0.240641
0.240654
0.240654
0.240666
0.240679
0.240692
0.240704
0.240704
0.240717
0.24073
0.240743
0.240755
0.240755
0.240768
0.240781
0.240794
0.240807
0.240807
0.24082
0.240833
0.240846
0.240859
0.240859
0.240872
0.240885
0.240899
0.240912
0.240912
0.240925
0.240938
0.240952
0.240965
0.240965
0.240979
0.240992
0.241006
0.241019
0.241019
0.241033
0.241046
0.24106
0.241073
0.241073
0.241087
0.241101
0.241115
0.241128
0.241128
0.241142
0.241156
0.24117
0.241184
0.241184
0.241198
0.241212
0.241226
0.24124
0.24124
0.241254
0.241268
0.241282
0.241296
0.241296
0.241311
0.241325
0.241339
0.241353
0.241353
0.241368
0.241382
0.241397
0.241411
0.241411
0.241426
0.24144
0.241455
0.241469
0.241469
0.241484
0.241499
0.241513
0.241528
0.241528
0.241543
0.241558
0.241572
0.241587
0.241587
0.241602
0.241617
0.241632
0.241647
0.241647
0.241662
0.241677
0.241692
0.241707
0.241707
0.241723
0.241738
0.241753
0.241768
0.241768
0.241784
0.241799
0.241814
0.24183
0.24183
0.241845
0.241861
0.241876
0.241892
0.241892
0.241907
0.241923
0.241939
0.241954
0.241954
0.24197
0.241986
0.242002
0.242018
0.242018
0.242033
0.242049
0.242065
0.242081
0.242081
0.242097
0.242113
0.242129
0.242145
0.242145
0.242162
0.242178
0.242194
0.24221
0.24221
0.242226
0.242243
0.242259
0.242275
0.242275
0.242292
0.242308
0.242325
0.242341
0.242341
0.242358
0.242374
0.242391
0.242408
0.242408
0.242424
0.242441
0.242458
0.242475
0.242475
0.242491
0.242508
0.242525
0.242542
0.242542
0.242559
0.242576
0.242593
0.24261
0.24261
0.242627
0.242644
0.242661
0.242679
0.242679
0.242696
0.242713
0.24273
0.242748
0.242748
0.242765
0.242782
0.2428
0.242817
0.242817
0.242835
0.242852
0.24287
0.242887
0.242887
0.242905
0.242923
0.24294
0.242958
0.242958
0.242976
0.242994
0.243012
0.243029
0.243029
0.243047
0.243065
0.243083
0.243101
0.243101
0.243119
0.243137
0.243156
0.243174
0.243174
0.243192
0.24321
0.243228
0.243247
0.243247
0.243265
0.243283
0.243302
0.24332
0.24332
0.243338
0.243357
0.243375
0.243394
0.243394
0.243413
0.243431
0.24345
0.243469
0.243469
0.243487
0.243506
0.243525
0.243544
0.243544
0.243563
0.243581
0.2436
0.243619
0.243619
0.243638
0.243657
0.243676
0.243696
0.243696
0.243715
0.243734
0.243753
0.243772
0.243772
0.243791
0.243811
0.24383
0.24385
0.24385
0.243869
0.243888
0.243908
0.243927
0.243927
0.243947
0.243966
0.243986
0.244006
0.244006
0.244025
0.244045
0.244065
0.244085
0.244085
0.244104
0.244124
0.244144
0.244164
0.244164
0.244184
0.244204
0.244224
0.244244
0.244244
0.244264
0.244284
0.244304
0.244325
0.244325
0.244345
0.244365
0.244385
0.244406
0.244406
0.244426
0.244446
0.244467
0.244487
0.244487
0.244508
0.244528
0.244549
0.244569
0.244569
0.24459
0.244611
0.244631
0.244652
0.244652
0.244673
0.244694
0.244715
0.244735
0.244735
0.244756
0.244777
0.244798
0.244819
0.244819
0.24484
0.244861
0.244882
0.244904
0.244904
0.244925
0.244946
0.244967
0.244988
0.244988
0.24501
0.245031
0.245053
0.245074
0.245074
0.245095
0.245117
0.245138
0.24516
0.24516
0.245181
0.245203
0.245225
0.245246
0.245246
0.245268
0.24529
0.245312
0.245334
0.245334
0.245355
0.245377
0.245399
0.245421
0.245421
0.245443
0.245465
0.245487
0.245509
0.245509
0.245531
0.245554
0.245576
0.245598
0.245598
0.24562
0.245643
0.245665
0.245687
0.245687
0.24571
0.245732
0.245755
0.245777
0.245777
0.2458
0.245822
0.245845
0.245867
0.245867
0.24589
0.245913
0.245935
0.245958
0.245958
0.245981
0.246004
0.246027
0.24605
0.24605
0.246073
0.246096
0.246119
0.246142
0.246142
0.246165
0.246188
0.246211
0.246234
0.246234
0.246257
0.246281
0.246304
0.246327
0.246327
0.246351
0.246374
0.246397
0.246421
0.246421
0.246444
0.246468
0.246491
0.246515
0.246515
0.246539
0.246562
0.246586
0.24661
0.24661
0.246633
0.246657
0.246681
0.246705
0.246705
0.246729
0.246753
0.246777
0.246801
0.246801
0.246825
0.246849
0.246873
0.246897
0.246897
0.246921
0.246945
0.24697
0.246994
0.246994
0.247018
0.247042
0.247067
0.247091
0.247091
0.247116
0.24714
0.247165
0.247189
0.247189
0.247214
0.247238
0.247263
0.247288
0.247288
0.247312
0.247337
0.247362
0.247387
0.247387
0.247412
0.247436
0.247461
0.247486
0.247486
0.247511
0.247536
0.247561
0.247586
0.247586
0.247611
0.247637
0.247662
0.247687
0.247687
0.247712
0.247738
0.247763
0.247788
0.247788
0.247814
0.247839
0.247864
0.24789
0.24789
0.247915
0.247941
0.247967
0.247992
0.247992
0.248018
0.248044
0.248069
0.248095
0.248095
0.248121
0.248147
0.248173
0.248198
0.248198
0.248224
0.24825
0.248276
0.248302
0.248302
0.248328
0.248355
0.248381
0.248407
0.248407
0.248433
0.248459
0.248486
0.248512
0.248512
0.248538
0.248565
0.248591
0.248617
0.248617
0.248644
0.24867
0.248697
0.248724
0.248724
0.24875
0.248777
0.248803
0.24883
0.24883
0.248857
0.248884
0.24891
0.248937
0.248937
0.248964
0.248991
0.249018
0.249045
0.249045
0.249072
0.249099
0.249126
0.249153
0.249153
0.24918
0.249208
0.249235
0.249262
0.249262
0.249289
0.249317
0.249344
0.249371
0.249371
0.249399
0.249426
0.249454
0.249481
0.249481
0.249509
0.249537
0.249564
0.249592
0.249592
0.249619
0.249647
0.249675
0.249703
0.249703
0.249731
0.249758
0.249786
0.249814
0.249814
0.249842
0.24987
0.249898
0.249926
0.249926
0.249954
0.249983
0.250011
0.250039
0.250039
0.250067
0.250095
0.250124
0.250152
0.250152
0.25018
0.250209
0.250237
0.250266
0.250266
0.250294
0.250323
0.250351
0.25038
0.25038
0.250409
0.250437
0.250466
0.250495
0.250495
0.250524
0.250552
0.250581
0.25061
0.25061
0.250639
0.250668
0.250697
0.250726
0.250726
0.250755
0.250784
0.250813
0.250842
0.250842
0.250872
0.250901
0.25093
0.250959
0.250959
0.250989
0.251018
0.251047
0.251077
0.251077
0.251106
0.251136
0.251165
0.251195
0.251195
0.251224
0.251254
0.251284
0.251313
0.251313
0.251343
0.251373
0.251403
0.251432
0.251432
0.251462
0.251492
0.251522
0.251552
0.251552
0.251582
0.251612
0.251642
0.251672
0.251672
0.251702
0.251733
0.251763
0.251793
0.251793
0.251823
0.251854
0.251884
0.251914
0.251914
0.251945
0.251975
0.252006
0.252036
0.252036
0.252067
0.252097
0.252128
0.252158
0.252158
0.252189
0.25222
0.252251
0.252281
0.252281
0.252312
0.252343
0.252374
0.252405
0.252405
0.252436
0.252467
0.252498
0.252529
0.252529
0.25256
0.252591
0.252622
0.252653
0.252653
0.252685
0.252716
0.252747
0.252778
0.252778
0.25281
0.252841
0.252873
0.252904
0.252904
0.252935
0.252967
0.252999
0.25303
0.25303
0.253062
0.253093
0.253125
0.253157
0.253157
0.253189
0.25322
0.253252
0.253284
0.253284
0.253316
0.253348
0.25338
0.253412
0.253412
0.253444
0.253476
0.253508
0.25354
0.25354
0.253572
0.253604
0.253637
0.253669
0.253669
0.253701
0.253734
0.253766
0.253798
0.253798
0.253831
0.253863
0.253896
0.253928
0.253928
0.253961
0.253993
0.254026
0.254059
0.254059
0.254091
0.254124
0.254157
0.25419
0.25419
0.254223
0.254255
0.254288
0.254321
0.254321
0.254354
0.254387
0.25442
0.254453
0.254453
0.254486
0.25452
0.254553
0.254586
0.254586
0.254619
0.254653
0.254686
0.254719
0.254719
0.254753
0.254786
0.254819
0.254853
0.254853
0.254886
0.25492
0.254954
0.254987
0.254987
0.255021
0.255054
0.255088
0.255122
0.255122
0.255156
0.25519
0.255223
0.255257
0.255257
0.255291
0.255325
0.255359
0.255393
0.255393
0.255427
0.255461
0.255495
0.25553
0.25553
0.255564
0.255598
0.255632
0.255667
0.255667
0.255701
0.255735
0.25577
0.255804
0.255804
0.255838
0.255873
0.255907
0.255942
0.255942
0.255977
0.256011
0.256046
0.256081
0.256081
0.256115
0.25615
0.256185
0.25622
0.25622
0.256255
0.256289
0.256324
0.256359
0.256359
0.256394
0.256429
0.256464
0.2565
0.2565
0.256535
0.25657
0.256605
0.25664
0.25664
0.256676
0.256711
0.256746
0.256782
0.256782
0.256817
0.256852
0.256888
0.256923
0.256923
0.256959
0.256994
0.25703
0.257066
0.257066
0.257101
0.257137
0.257173
0.257209
0.257209
0.257244
0.25728
0.257316
0.257352
0.257352
0.257388
0.257424
0.25746
0.257496
0.257496
0.257532
0.257568
0.257604
0.257641
0.257641
0.257677
0.257713
0.257749
0.257786
0.257786
0.257822
0.257858
0.257895
0.257931
0.257931
0.257968
0.258004
0.258041
0.258077
0.258077
0.258114
0.258151
0.258187
0.258224
0.258224
0.258261
0.258297
0.258334
0.258371
0.258371
0.258408
0.258445
0.258482
0.258519
0.258519
0.258556
0.258593
0.25863
0.258667
0.258667
0.258704
0.258741
0.258779
0.258816
0.258816
0.258853
0.258891
0.258928
0.258965
0.258965
0.259003
0.25904
0.259078
0.259115
0.259115
0.259153
0.25919
0.259228
0.259266
0.259266
0.259303
0.259341
0.259379
0.259417
0.259417
0.259454
0.259492
0.25953
0.259568
0.259568
0.259606
0.259644
0.259682
0.25972
0.25972
0.259758
0.259796
0.259835
0.259873
0.259873
0.259911
0.259949
0.259988
0.260026
0.260026
0.260064
0.260103
0.260141
0.26018
0.26018
0.260218
0.260257
0.260295
0.260334
0.260334
0.260372
0.260411
0.26045
0.260488
0.260488
0.260527
0.260566
0.260605
0.260644
0.260644
0.260683
0.260722
0.260761
0.2608
0.2608
0.260839
0.260878
0.260917
0.260956
0.260956
0.260995
0.261034
0.261074
0.261113
0.261113
0.261152
0.261191
0.261231
0.26127
0.26127
0.26131
0.261349
0.261389
0.261428
0.261428
0.261468
0.261507
0.261547
0.261587
0.261587
0.261626
0.261666
0.261706
0.261746
0.261746
0.261786
0.261825
0.261865
0.261905
0.261905
0.261945
0.261985
0.262025
0.262065
0.262065
0.262106
0.262146
0.262186
0.262226
0.262226
0.262266
0.262307
0.262347
0.262387
0.262387
0.262428
0.262468
0.262509
0.262549
0.262549
0.26259
0.26263
0.262671
0.262711
0.262711
0.262752
0.262793
0.262833
0.262874
0.262874
0.262915
0.262956
0.262997
0.263037
0.263037
0.263078
0.263119
0.26316
0.263201
0.263201
0.263242
0.263283
0.263325
0.263366
0.263366
0.263407
0.263448
0.263489
0.263531
0.263531
0.263572
0.263613
0.263655
0.263696
0.263696
0.263738
0.263779
0.263821
0.263862
0.263862
0.263904
0.263945
0.263987
0.264029
0.264029
0.26407
0.264112
0.264154
0.264196
0.264196
0.264238
0.26428
0.264321
0.264363
0.264363
0.264405
0.264447
0.264489
0.264532
0.264532
0.264574
0.264616
0.264658
0.2647
0.2647
0.264743
0.264785
0.264827
0.264869
0.264869
0.264912
0.264954
0.264997
0.265039
0.265039
0.265082
0.265124
0.265167
0.26521
0.26521
0.265252
0.265295
0.265338
0.26538
0.26538
0.265423
0.265466
0.265509
0.265552
0.265552
0.265595
0.265638
0.265681
0.265724
0.265724
0.265767
0.26581
0.265853
0.265896
0.265896
0.265939
0.265983
0.266026
0.266069
0.266069
0.266112
0.266156
0.266199
0.266243
0.266243
0.266286
0.26633
0.266373
0.266417
0.266417
0.26646
0.266504
0.266548
0.266591
0.266591
0.266635
0.266679
0.266723
0.266766
0.266766
0.26681
0.266854
0.266898
0.266942
0.266942
0.266986
0.26703
0.267074
0.267118
0.267118
0.267162
0.267207
0.267251
0.267295
0.267295
0.267339
0.267384
0.267428
0.267472
0.267472
0.267517
0.267561
0.267606
0.26765
0.26765
0.267695
0.267739
0.267784
0.267828
0.267828
0.267873
0.267918
0.267963
0.268007
0.268007
0.268052
0.268097
0.268142
0.268187
0.268187
0.268232
0.268277
0.268322
0.268367
0.268367
0.268412
0.268457
0.268502
0.268547
0.268547
0.268592
0.268638
0.268683
0.268728
0.268728
0.268773
0.268819
0.268864
0.26891
0.26891
0.268955
0.269001
0.269046
0.269092
0.269092
0.269137
0.269183
0.269229
0.269274
0.269274
0.26932
0.269366
0.269412
0.269458
0.269458
0.269503
0.269549
0.269595
0.269641
0.269641
0.269687
0.269733
0.269779
0.269825
0.269825
0.269872
0.269918
0.269964
0.27001
0.27001
0.270056
0.270103
0.270149
0.270195
0.270195
0.270242
0.270288
0.270335
0.270381
0.270381
0.270428
0.270474
0.270521
0.270568
0.270568
0.270614
0.270661
0.270708
0.270754
0.270754
0.270801
0.270848
0.270895
0.270942
0.270942
0.270989
0.271036
0.271083
0.27113
0.27113
0.271177
0.271224
0.271271
0.271318
0.271318
0.271366
0.271413
0.27146
0.271507
0.271507
0.271555
0.271602
0.271649
0.271697
0.271697
0.271744
0.271792
0.271839
0.271887
0.271887
0.271935
0.271982
0.27203
0.272078
0.272078
0.272125
0.272173
0.272221
0.272269
0.272269
0.272317
0.272364
0.272412
0.27246
0.27246
0.272508
0.272556
0.272604
0.272653
0.272653
0.272701
0.272749
0.272797
0.272845
0.272845
0.272894
0.272942
0.27299
0.273039
0.273039
0.273087
0.273135
0.273184
0.273232
0.273232
0.273281
0.27333
0.273378
0.273427
0.273427
0.273475
0.273524
0.273573
0.273622
0.273622
0.27367
0.273719
0.273768
0.273817
0.273817
0.273866
0.273915
0.273964
0.274013
0.274013
0.274062
0.274111
0.27416
0.274209
0.274209
0.274259
0.274308
0.274357
0.274406
0.274406
0.274456
0.274505
0.274555
0.274604
0.274604
0.274653
0.274703
0.274752
0.274802
0.274802
0.274852
0.274901
0.274951
0.275001
0.275001
0.27505
0.2751
0.27515
0.2752
0.2752
0.27525
0.2753
0.275349
0.275399
0.275399
0.275449
0.275499
0.27555
0.2756
0.2756
0.27565
0.2757
0.27575
0.2758
0.2758
0.275851
0.275901
0.275951
0.276002
0.276002
0.276052
0.276102
0.276153
0.276203
0.276203
0.276254
0.276304
0.276355
0.276406
0.276406
0.276456
0.276507
0.276558
0.276609
0.276609
0.276659
0.27671
0.276761
0.276812
0.276812
0.276863
0.276914
0.276965
0.277016
0.277016
0.277067
0.277118
0.277169
0.27722
0.27722
0.277271
0.277323
0.277374
0.277425
0.277425
0.277477
0.277528
0.277579
0.277631
0.277631
0.277682
0.277734
0.277785
0.277837
0.277837
0.277888
0.27794
0.277992
0.278043
0.278043
0.278095
0.278147
0.278199
0.27825
0.27825
0.278302
0.278354
0.278406
0.278458
0.278458
0.27851
0.278562
0.278614
0.278666
0.278666
0.278718
0.27877
0.278823
0.278875
0.278875
0.278927
0.278979
0.279032
0.279084
0.279084
0.279136
0.279189
0.279241
0.279294
0.279294
0.279346
0.279399
0.279451
0.279504
0.279504
0.279557
0.279609
0.279662
0.279715
0.279715
0.279768
0.27982
0.279873
0.279926
0.279926
0.279979
0.280032
0.280085
0.280138
0.280138
0.280191
0.280244
0.280297
0.28035
0.28035
0.280403
0.280457
0.28051
0.280563
0.280563
0.280617
0.28067
0.280723
0.280777
0.280777
0.28083
0.280884
0.280937
0.280991
0.280991
0.281044
0.281098
0.281151
0.281205
0.281205
0.281259
0.281313
0.281366
0.28142
0.28142
0.281474
0.281528
0.281582
0.281636
0.281636
0.28169
0.281744
0.281798
0.281852
0.281852
0.281906
0.28196
0.282014
0.282068
0.282068
0.282123
0.282177
0.282231
0.282286
0.282286
0.28234
0.282394
0.282449
0.282503
0.282503
0.282558
0.282612
0.282667
0.282721
0.282721
0.282776
0.282831
0.282885
0.28294
0.28294
0.282995
0.28305
0.283104
0.283159
0.283159
0.283214
0.283269
0.283324
0.283379
0.283379
0.283434
0.283489
0.283544
0.283599
0.283599
0.283655
0.28371
0.283765
0.28382
0.28382
0.283876
0.283931
0.283986
0.284042
0.284042
0.284097
0.284152
0.284208
0.284263
0.284263
0.284319
0.284375
0.28443
0.284486
0.284486
0.284542
0.284597
0.284653
0.284709
0.284709
0.284765
0.28482
0.284876
0.284932
0.284932
0.284988
0.285044
0.2851
0.285156
0.285156
0.285212
0.285268
0.285325
0.285381
0.285381
0.285437
0.285493
0.28555
0.285606
0.285606
0.285662
0.285719
0.285775
0.285831
0.285831
0.285888
0.285944
0.286001
0.286058
0.286058
0.286114
0.286171
0.286227
0.286284
0.286284
0.286341
0.286398
0.286454
0.286511
0.286511
0.286568
0.286625
0.286682
0.286739
0.286739
0.286796
0.286853
0.28691
0.286967
0.286967
0.287024
0.287081
0.287139
0.287196
0.287196
0.287253
0.28731
0.287368
0.287425
0.287425
0.287483
0.28754
0.287597
0.287655
0.287655
0.287712
0.28777
0.287828
0.287885
0.287885
0.287943
0.288001
0.288058
0.288116
0.288116
0.288174
0.288232
0.288289
0.288347
0.288347
0.288405
0.288463
0.288521
0.288579
0.288579
0.288637
0.288695
0.288754
0.288812
0.288812
0.28887
0.288928
0.288986
0.289045
0.289045
0.289103
0.289161
0.28922
0.289278
0.289278
0.289336
0.289395
0.289453
0.289512
0.289512
0.289571
0.289629
0.289688
0.289747
0.289747
0.289805
0.289864
0.289923
0.289982
0.289982
0.29004
0.290099
0.290158
0.290217
0.290217
0.290276
0.290335
0.290394
0.290453
0.290453
0.290512
0.290571
0.290631
0.29069
0.29069
0.290749
0.290808
0.290868
0.290927
0.290927
0.290986
0.291046
0.291105
0.291165
0.291165
0.291224
0.291284
0.291343
0.291403
0.291403
0.291462
0.291522
0.291582
0.291641
0.291641
0.291701
0.291761
0.291821
0.291881
0.291881
0.291941
0.292
0.29206
0.29212
0.29212
0.29218
0.29224
0.292301
0.292361
0.292361
0.292421
0.292481
0.292541
0.292601
0.292601
0.292662
0.292722
0.292782
0.292843
0.292843
0.292903
0.292964
0.293024
0.293085
0.293085
0.293145
0.293206
0.293266
0.293327
0.293327
0.293388
0.293448
0.293509
0.29357
0.29357
0.293631
0.293691
0.293752
0.293813
0.293813
0.293874
0.293935
0.293996
0.294057
0.294057
0.294118
0.294179
0.29424
0.294302
0.294302
0.294363
0.294424
0.294485
0.294546
0.294546
0.294608
0.294669
0.294731
0.294792
0.294792
0.294853
0.294915
0.294976
0.295038
0.295038
0.2951
0.295161
0.295223
0.295285
0.295285
0.295346
0.295408
0.29547
0.295532
0.295532
0.295593
0.295655
0.295717
0.295779
0.295779
0.295841
0.295903
0.295965
0.296027
0.296027
0.296089
0.296151
0.296214
0.296276
0.296276
0.296338
0.2964
0.296463
0.296525
0.296525
0.296587
0.29665
0.296712
0.296775
0.296775
0.296837
0.2969
0.296962
0.297025
0.297025
0.297087
0.29715
0.297213
0.297276
0.297276
0.297338
0.297401
0.297464
0.297527
0.297527
0.29759
0.297653
0.297716
0.297779
0.297779
0.297842
0.297905
0.297968
0.298031
0.298031
0.298094
0.298157
0.29822
0.298284
0.298284
0.298347
0.29841
0.298473
0.298537
0.298537
0.2986
0.298664
0.298727
0.298791
0.298791
0.298854
0.298918
0.298981
0.299045
0.299045
0.299109
0.299172
0.299236
0.2993
0.2993
0.299364
0.299427
0.299491
0.299555
0.299555
0.299619
0.299683
0.299747
0.299811
0.299811
0.299875
0.299939
0.300003
0.300068
0.300068
0.300132
0.300196
0.30026
0.300325
0.300325
0.300389
0.300453
0.300518
0.300582
0.300582
0.300646
0.300711
0.300775
0.30084
0.30084
0.300905
0.300969
0.301034
0.301098
0.301098
0.301163
0.301228
0.301293
0.301357
0.301357
0.301422
0.301487
0.301552
0.301617
0.301617
0.301682
0.301747
0.301812
0.301877
0.301877
0.301942
0.302007
0.302072
0.302138
0.302138
0.302203
0.302268
0.302333
0.302399
0.302399
0.302464
0.302529
0.302595
0.30266
0.30266
0.302726
0.302791
0.302857
0.302922
0.302922
0.302988
0.303054
0.303119
0.303185
0.303185
0.303251
0.303317
0.303382
0.303448
0.303448
0.303514
0.30358
0.303646
0.303712
0.303712
0.303778
0.303844
0.30391
0.303976
0.303976
0.304042
0.304108
0.304175
0.304241
0.304241
0.304307
0.304373
0.30444
0.304506
0.304506
0.304572
0.304639
0.304705
0.304772
0.304772
0.304838
0.304905
0.304971
0.305038
0.305038
0.305105
0.305171
0.305238
0.305305
0.305305
0.305372
0.305438
0.305505
0.305572
0.305572
0.305639
0.305706
0.305773
0.30584
0.30584
0.305907
0.305974
0.306041
0.306108
0.306108
0.306175
0.306243
0.30631
0.306377
0.306377
0.306444
0.306512
0.306579
0.306646
0.306646
0.306714
0.306781
0.306849
0.306916
0.306916
0.306984
0.307051
0.307119
0.307187
0.307187
0.307254
0.307322
0.30739
0.307458
0.307458
0.307525
0.307593
0.307661
0.307729
0.307729
0.307797
0.307865
0.307933
0.308001
0.308001
0.308069
0.308137
0.308205
0.308273
0.308273
0.308342
0.30841
0.308478
0.308546
0.308546
0.308615
0.308683
0.308751
0.30882
0.30882
0.308888
0.308957
0.309025
0.309094
0.309094
0.309162
0.309231
0.3093
0.309368
0.309368
0.309437
0.309506
0.309575
0.309643
0.309643
0.309712
0.309781
0.30985
0.309919
0.309919
0.309988
0.310057
0.310126
0.310195
0.310195
0.310264
0.310333
0.310402
0.310471
0.310471
0.310541
0.31061
0.310679
0.310749
0.310749
0.310818
0.310887
0.310957
0.311026
0.311026
0.311096
0.311165
0.311235
0.311304
0.311304
0.311374
0.311444
0.311513
0.311583
0.311583
0.311653
0.311722
0.311792
0.311862
0.311862
0.311932
0.312002
0.312072
0.312142
0.312142
0.312212
0.312282
0.312352
0.312422
0.312422
0.312492
0.312562
0.312632
0.312702
0.312702
0.312773
0.312843
0.312913
0.312984
0.312984
0.313054
0.313124
0.313195
0.313265
0.313265
0.313336
0.313406
0.313477
0.313548
0.313548
0.313618
0.313689
0.31376
0.31383
0.31383
0.313901
0.313972
0.314043
0.314114
0.314114
0.314184
0.314255
0.314326
0.314397
0.314397
0.314468
0.314539
0.31461
0.314682
0.314682
0.314753
0.314824
0.314895
0.314966
0.314966
0.315038
0.315109
0.31518
0.315252
0.315252
0.315323
0.315394
0.315466
0.315537
0.315537
0.315609
0.31568
0.315752
0.315824
0.315824
0.315895
0.315967
0.316039
0.31611
0.31611
0.316182
0.316254
0.316326
0.316398
0.316398
0.31647
0.316542
0.316614
0.316686
0.316686
0.316758
0.31683
0.316902
0.316974
0.316974
0.317046
0.317118
0.317191
0.317263
0.317263
0.317335
0.317407
0.31748
0.317552
0.317552
0.317625
0.317697
0.31777
0.317842
0.317842
0.317915
0.317987
0.31806
0.318132
0.318132
0.318205
0.318278
0.318351
0.318423
0.318423
0.318496
0.318569
0.318642
0.318715
0.318715
0.318788
0.318861
0.318934
0.319007
0.319007
0.31908
0.319153
0.319226
0.319299
0.319299
0.319372
0.319445
0.319519
0.319592
0.319592
0.319665
0.319739
0.319812
0.319885
0.319885
0.319959
0.320032
0.320106
0.320179
0.320179
0.320253
0.320326
0.3204
0.320474
0.320474
0.320547
0.320621
0.320695
0.320769
0.320769
0.320843
0.320916
0.32099
0.321064
0.321064
0.321138
0.321212
0.321286
0.32136
0.32136
0.321434
0.321508
0.321582
0.321657
0.321657
0.321731
0.321805
0.321879
0.321954
0.321954
0.322028
0.322102
0.322177
0.322251
0.322251
0.322326
0.3224
0.322475
0.322549
0.322549
0.322624
0.322698
0.322773
0.322848
0.322848
0.322922
0.322997
0.323072
0.323147
0.323147
0.323222
0.323296
0.323371
0.323446
0.323446
0.323521
0.323596
0.323671
0.323746
0.323746
0.323821
0.323896
0.323972
0.324047
0.324047
0.324122
0.324197
0.324273
0.324348
0.324348
0.324423
0.324499
0.324574
0.324649
0.324649
0.324725
0.3248
0.324876
0.324951
0.324951
0.325027
0.325103
0.325178
0.325254
0.325254
0.32533
0.325405
0.325481
0.325557
0.325557
0.325633
0.325709
0.325785
0.325861
0.325861
0.325937
0.326013
0.326089
0.326165
0.326165
0.326241
0.326317
0.326393
0.326469
0.326469
0.326546
0.326622
0.326698
0.326774
0.326774
0.326851
0.326927
0.327004
0.32708
0.32708
0.327156
0.327233
0.32731
0.327386
0.327386
0.327463
0.327539
0.327616
0.327693
0.327693
0.327769
0.327846
0.327923
0.328
0.328
0.328077
0.328154
0.32823
0.328307
0.328307
0.328384
0.328461
0.328538
0.328616
0.328616
0.328693
0.32877
0.328847
0.328924
0.328924
0.329001
0.329079
0.329156
0.329233
0.329233
0.329311
0.329388
0.329465
0.329543
0.329543
0.32962
0.329698
0.329775
0.329853
0.329853
0.329931
0.330008
0.330086
0.330164
0.330164
0.330241
0.330319
0.330397
0.330475
0.330475
0.330553
0.330631
0.330709
0.330786
0.330786
0.330864
0.330942
0.331021
0.331099
0.331099
0.331177
0.331255
0.331333
0.331411
0.331411
0.331489
0.331568
0.331646
0.331724
0.331724
0.331803
0.331881
0.33196
0.332038
0.332038
0.332117
0.332195
0.332274
0.332352
0.332352
0.332431
0.332509
0.332588
0.332667
0.332667
0.332746
0.332824
0.332903
0.332982
0.332982
0.333061
0.33314
0.333219
0.333298
0.333298
0.333377
0.333456
0.333535
0.333614
0.333614
0.333693
0.333772
0.333851
0.33393
0.33393
0.33401
0.334089
0.334168
0.334248
0.334248
0.334327
0.334406
0.334486
0.334565
0.334565
0.334645
0.334724
0.334804
0.334883
0.334883
0.334963
0.335043
0.335122
0.335202
0.335202
0.335282
0.335362
0.335441
0.335521
0.335521
0.335601
0.335681
0.335761
0.335841
0.335841
0.335921
0.336001
0.336081
0.336161
0.336161
0.336241
0.336321
0.336401
0.336482
0.336482
0.336562
0.336642
0.336723
0.336803
0.336803
0.336883
0.336964
0.337044
0.337124
0.337124
0.337205
0.337286
0.337366
0.337447
0.337447
0.337527
0.337608
0.337689
0.337769
0.337769
0.33785
0.337931
0.338012
0.338092
0.338092
0.338173
0.338254
0.338335
0.338416
0.338416
0.338497
0.338578
0.338659
0.33874
0.33874
0.338821
0.338903
0.338984
0.339065
0.339065
0.339146
0.339227
0.339309
0.33939
0.33939
0.339471
0.339553
0.339634
0.339716
0.339716
0.339797
0.339879
0.33996
0.340042
0.340042
0.340123
0.340205
0.340287
0.340368
0.340368
0.34045
0.340532
0.340614
0.340696
0.340696
0.340777
0.340859
0.340941
0.341023
0.341023
0.341105
0.341187
0.341269
0.341351
0.341351
0.341433
0.341516
0.341598
0.34168
0.34168
0.341762
0.341844
0.341927
0.342009
0.342009
0.342091
0.342174
0.342256
0.342339
0.342339
0.342421
0.342504
0.342586
0.342669
0.342669
0.342751
0.342834
0.342917
0.342999
0.342999
0.343082
0.343165
0.343248
0.34333
0.34333
0.343413
0.343496
0.343579
0.343662
0.343662
0.343745
0.343828
0.343911
0.343994
0.343994
0.344077
0.34416
0.344244
0.344327
0.344327
0.34441
0.344493
0.344576
0.34466
0.34466
0.344743
0.344827
0.34491
0.344993
0.344993
0.345077
0.34516
0.345244
0.345327
0.345327
0.345411
0.345495
0.345578
0.345662
0.345662
0.345746
0.345829
0.345913
0.345997
0.345997
0.346081
0.346165
0.346249
0.346333
0.346333
0.346417
0.346501
0.346585
0.346669
0.346669
0.346753
0.346837
0.346921
0.347005
0.347005
0.347089
0.347174
0.347258
0.347342
0.347342
0.347427
0.347511
0.347595
0.34768
0.34768
0.347764
0.347849
0.347933
0.348018
0.348018
0.348102
0.348187
0.348272
0.348356
0.348356
0.348441
0.348526
0.34861
0.348695
0.348695
0.34878
0.348865
0.34895
0.349035
0.349035
0.34912
0.349205
0.34929
0.349375
0.349375
0.34946
0.349545
0.34963
0.349715
0.349715
0.3498
0.349886
0.349971
0.350056
0.350056
0.350141
0.350227
0.350312
0.350398
0.350398
0.350483
0.350569
0.350654
0.35074
0.35074
0.350825
0.350911
0.350996
0.351082
0.351082
0.351168
0.351253
0.351339
0.351425
0.351425
0.351511
0.351597
0.351682
0.351768
0.351768
0.351854
0.35194
0.352026
0.352112
0.352112
0.352198
0.352284
0.35237
0.352457
0.352457
0.352543
0.352629
0.352715
0.352802
0.352802
0.352888
0.352974
0.35306
0.353147
0.353147
0.353233
0.35332
0.353406
0.353493
0.353493
0.353579
0.353666
0.353752
0.353839
0.353839
0.353926
0.354012
0.354099
0.354186
0.354186
0.354273
0.35436
0.354446
0.354533
0.354533
0.35462
0.354707
0.354794
0.354881
0.354881
0.354968
0.355055
0.355142
0.355229
0.355229
0.355317
0.355404
0.355491
0.355578
0.355578
0.355665
0.355753
0.35584
0.355927
0.355927
0.356015
0.356102
0.35619
0.356277
0.356277
0.356365
0.356452
0.35654
0.356628
0.356628
0.356715
0.356803
0.356891
0.356978
0.356978
0.357066
0.357154
0.357242
0.357329
0.357329
0.357417
0.357505
0.357593
0.357681
0.357681
0.357769
0.357857
0.357945
0.358033
0.358033
0.358122
0.35821
0.358298
0.358386
0.358386
0.358474
0.358563
0.358651
0.358739
0.358739
0.358828
0.358916
0.359004