<?xml version="1.0"?>
<VTKFile type="UnstructuredGrid" version="0.1" byte_order="LittleEndian">
<UnstructuredGrid>
<Piece NumberOfPoints="5000" NumberOfCells="4000">
<PointData Scalars="Reaction 0">
<DataArray type="Float32" Name="Reaction 0" format="ascii">
0.314233
0.314233
0.314233
0.314233
0.314233
0.314233
0.314233
0.314233
0.314234
0.314234
0.314234
0.314234
0.314234
0.314235
0.314235
0.314235
0.314235
0.314236
0.314236
0.314237
0.314237
0.314237
0.314238
0.314238
0.314239
0.314239
0.31424
0.31424
0.314241
0.314242
0.314242
0.314243
0.314243
0.314244
0.314245
0.314245
0.314246
0.314247
0.314248
0.314249
0.314249
0.31425
0.314251
0.314252
0.314253
0.314253
0.314254
0.314256
0.314257
0.314258
0.314258
0.314259
0.314261
0.314262
0.314263
0.314263
0.314265
0.314266
0.314268
0.314269
0.314269
0.314271
0.314272
0.314274
0.314275
0.314275
0.314277
0.314279
0.31428
0.314282
0.314282
0.314284
0.314286
0.314288
0.31429
0.31429
0.314291
0.314293
0.314295
0.314297
0.314297
0.314299
0.314301
0.314304
0.314306
0.314306
0.314308
0.31431
0.314312
0.314315
0.314315
0.314317
0.314319
0.314321
0.314324
0.314324
0.314326
0.314329
0.314331
0.314334
0.314334
0.314336
0.314339
0.314341
0.314344
0.314344
0.314347
0.314349
0.314352
0.314355
0.314355
0.314358
0.314361
0.314363
0.314366
0.314366
0.314369
0.314372
0.314375
0.314378
0.314378
0.314381
0.314384
0.314387
0.31439
0.31439
0.314394
0.314397
0.3144
0.314403
0.314403
0.314407
0.31441
0.314413
0.314417
0.314417
0.31442
0.314424
0.314427
0.314431
0.314431
0.314434
0.314438
0.314441
0.314445
0.314445
0.314449
0.314452
0.314456
0.31446
0.31446
0.314464
0.314467
0.314471
0.314475
0.314475
0.314479
0.314483
0.314487
0.314491
0.314491
0.314495
0.314499
0.314503
0.314508
0.314508
0.314512
0.314516
0.31452
0.314524
0.314524
0.314529
0.314533
0.314537
0.314542
0.314542
0.314546
0.314551
0.314555
0.31456
0.31456
0.314564
0.314569
0.314574
0.314578
0.314578
0.314583
0.314588
0.314592
0.314597
0.314597
0.314602
0.314607
0.314612
0.314617
0.314617
0.314621
0.314626
0.314631
0.314636
0.314636
0.314642
0.314647
0.314652
0.314657
0.314657
0.314662
0.314667
0.314673
0.314678
0.314678
0.314683
0.314688
0.314694
0.314699
0.314699
0.314705
0.31471
0.314716
0.314721
0.314721
0.314727
0.314732
0.314738
0.314744
0.314744
0.314749
0.314755
0.314761
0.314767
0.314767
0.314772
0.314778
0.314784
0.31479
0.31479
0.314796
0.314802
0.314808
0.314814
0.314814
0.31482
0.314826
0.314832
0.314839
0.314839
0.314845
0.314851
0.314857
0.314863
0.314863
0.31487
0.314876
0.314883
0.314889
0.314889
0.314895
0.314902
0.314908
0.314915
0.314915
0.314922
0.314928
0.314935
0.314941
0.314941
0.314948
0.314955
0.314962
0.314968
0.314968
0.314975
0.314982
0.314989
0.314996
0.314996
0.315003
0.31501
0.315017
0.315024
0.315024
0.315031
0.315038
0.315045
0.315052
0.315052
0.31506
0.315067
0.315074
0.315081
0.315081
0.315089
0.315096
0.315104
0.315111
0.315111
0.315118
0.315126
0.315133
0.315141
0.315141
0.315149
0.315156
0.315164
0.315171
0.315171
0.315179
0.315187
0.315195
0.315202
0.315202
0.31521
0.315218
0.315226
0.315234
0.315234
0.315242
0.31525
0.315258
0.315266
0.315266
0.315274
0.315282
0.31529
0.315299
0.315299
0.315307
0.315315
0.315323
0.315332
0.315332
0.31534
0.315348
0.315357
0.315365
0.315365
0.315374
0.315382
0.315391
0.315399
0.315399
0.315408
0.315416
0.315425
0.315434
0.315434
0.315442
0.315451
0.31546
0.315469
0.315469
0.315478
0.315487
0.315495
0.315504
0.315504
0.315513
0.315522
0.315531
0.31554
0.31554
0.31555
0.315559
0.315568
0.315577
0.315577
0.315586
0.315595
0.315605
0.315614
0.315614
0.315623
0.315633
0.315642
0.315652
0.315652
0.315661
0.315671
0.31568
0.31569
0.31569
0.315699
0.315709
0.315719
0.315728
0.315728
0.315738
0.315748
0.315758
0.315767
0.315767
0.315777
0.315787
0.315797
0.315807
0.315807
0.315817
0.315827
0.315837
0.315847
0.315847
0.315857
0.315867
0.315877
0.315888
0.315888
0.315898
0.315908
0.315918
0.315929
0.315929
0.315939
0.315949
0.31596
0.31597
0.31597
0.315981
0.315991
0.316002
0.316012
0.316012
0.316023
0.316034
0.316044
0.316055
0.316055
0.316066
0.316077
0.316087
0.316098
0.316098
0.316109
0.31612
0.316131
0.316142
0.316142
0.316153
0.316164
0.316175
0.316186
0.316186
0.316197
0.316208
0.316219
0.316231
0.316231
0.316242
0.316253
0.316264
0.316276
0.316276
0.316287
0.316298
0.31631
0.316321
0.316321
0.316333
0.316344
0.316356
0.316367
0.316367
0.316379
0.316391
0.316402
0.316414
0.316414
0.316426
0.316438
0.316449
0.316461
0.316461
0.316473
0.316485
0.316497
0.316509
0.316509
0.316521
0.316533
0.316545
0.316557
0.316557
0.316569
0.316581
0.316593
0.316606
0.316606
0.316618
0.31663
0.316642
0.316655
0.316655
0.316667
0.31668
0.316692
0.316704
0.316704
0.316717
0.316729
0.316742
0.316755
0.316755
0.316767
0.31678
0.316793
0.316805
0.316805
0.316818
0.316831
0.316844
0.316856
0.316856
0.316869
0.316882
0.316895
0.316908
0.316908
0.316921
0.316934
0.316947
0.31696
0.31696
0.316973
0.316986
0.317
0.317013
0.317013
0.317026
0.317039
0.317053
0.317066
0.317066
0.317079
0.317093
0.317106
0.31712
0.31712
0.317133
0.317147
0.31716
0.317174
0.317174
0.317188
0.317201
0.317215
0.317229
0.317229
0.317242
0.317256
0.31727
0.317284
0.317284
0.317298
0.317312
0.317326
0.317339
0.317339
0.317353
0.317368
0.317382
0.317396
0.317396
0.31741
0.317424
0.317438
0.317452
0.317452
0.317467
0.317481
0.317495
0.31751
0.31751
0.317524
0.317538
0.317553
0.317567
0.317567
0.317582
0.317596
0.317611
0.317625
0.317625
0.31764
0.317655
0.317669
0.317684
0.317684
0.317699
0.317714
0.317729
0.317743
0.317743
0.317758
0.317773
0.317788
0.317803
0.317803
0.317818
0.317833
0.317848
0.317863
0.317863
0.317878
0.317894
0.317909
0.317924
0.317924
0.317939
0.317955
0.31797
0.317985
0.317985
0.318001
0.318016
0.318031
0.318047
0.318047
0.318062
0.318078
0.318094
0.318109
0.318109
0.318125
0.31814
0.318156
0.318172
0.318172
0.318188
0.318203
0.318219
0.318235
0.318235
0.318251
0.318267
0.318283
0.318299
0.318299
0.318315
0.318331
0.318347
0.318363
0.318363
0.318379
0.318395
0.318412
0.318428
0.318428
0.318444
0.31846
0.318477
0.318493
0.318493
0.318509
0.318526
0.318542
0.318559
0.318559
0.318575
0.318592
0.318608
0.318625
0.318625
0.318642
0.318658
0.318675
0.318692
0.318692
0.318708
0.318725
0.318742
0.318759
0.318759
0.318776
0.318793
0.31881
0.318827
0.318827
0.318844
0.318861
0.318878
0.318895
0.318895
0.318912
0.318929
0.318946
0.318964
0.318964
0.318981
0.318998
0.319015
0.319033
0.319033
0.31905
0.319068
0.319085
0.319103
0.319103
0.31912
0.319138
0.319155
0.319173
0.319173
0.31919
0.319208
0.319226
0.319244
0.319244
0.319261
0.319279
0.319297
0.319315
0.319315
0.319333
0.319351
0.319369
0.319387
0.319387
0.319405
0.319423
0.319441
0.319459
0.319459
0.319477
0.319495
0.319513
0.319532
0.319532
0.31955
0.319568
0.319586
0.319605
0.319605
0.319623
0.319642
0.31966
0.319679
0.319679
0.319697
0.319716
0.319734
0.319753
0.319753
0.319771
0.31979
0.319809
0.319828
0.319828
0.319846
0.319865
0.319884
0.319903
0.319903
0.319922
0.319941
0.31996
0.319979
0.319979
0.319998
0.320017
0.320036
0.320055
0.320055
0.320074
0.320093
0.320112
0.320132
0.320132
0.320151
0.32017
0.32019
0.320209
0.320209
0.320228
0.320248
0.320267
0.320287
0.320287
0.320306
0.320326
0.320345
0.320365
0.320365
0.320385
0.320404
0.320424
0.320444
0.320444
0.320463
0.320483
0.320503
0.320523
0.320523
0.320543
0.320563
0.320583
0.320603
0.320603
0.320623
0.320643
0.320663
0.320683
0.320683
0.320703
0.320723
0.320743
0.320764
0.320764
0.320784
0.320804
0.320825
0.320845
0.320845
0.320865
0.320886
0.320906
0.320927
0.320927
0.320947
0.320968
0.320988
0.321009
0.321009
0.32103
0.32105
0.321071
0.321092
0.321092
0.321113
0.321133
0.321154
0.321175
0.321175
0.321196
0.321217
0.321238
0.321259
0.321259
0.32128
0.321301
0.321322
0.321343
0.321343
0.321364
0.321385
0.321407
0.321428
0.321428
0.321449
0.32147
0.321492
0.321513
0.321513
0.321534
0.321556
0.321577
0.321599
0.321599
0.32162
0.321642
0.321663
0.321685
0.321685
0.321707
0.321728
0.32175
0.321772
0.321772
0.321794
0.321815
0.321837
0.321859
0.321859
0.321881
0.321903
0.321925
0.321947
0.321947
0.321969
0.321991
0.322013
0.322035
0.322035
0.322057
0.322079
0.322102
0.322124
0.322124
0.322146
0.322168
0.322191
0.322213
0.322213
0.322236
0.322258
0.32228
0.322303
0.322303
0.322325
0.322348
0.322371
0.322393
0.322393
0.322416
0.322438
0.322461
0.322484
0.322484
0.322507
0.322529
0.322552
0.322575
0.322575
0.322598
0.322621
0.322644
0.322667
0.322667
0.32269
0.322713
0.322736
0.322759
0.322759
0.322782
0.322805
0.322829
0.322852
0.322852
0.322875
0.322898
0.322922
0.322945
0.322945
0.322969
0.322992
0.323015
0.323039
0.323039
0.323062
0.323086
0.32311
0.323133
0.323133
0.323157
0.32318
0.323204
0.323228
0.323228
0.323252
0.323275
0.323299
0.323323
0.323323
0.323347
0.323371
0.323395
0.323419
0.323419
0.323443
0.323467
0.323491
0.323515
0.323515
0.323539
0.323563
0.323588
0.323612
0.323612
0.323636
0.32366
0.323685
0.323709
0.323709
0.323733
0.323758
0.323782
0.323807
0.323807
0.323831
0.323856
0.32388
0.323905
0.323905
0.32393
0.323954
0.323979
0.324004
0.324004
0.324029
0.324053
0.324078
0.324103
0.324103
0.324128
0.324153
0.324178
0.324203
0.324203
0.324228
0.324253
0.324278
0.324303
0.324303
0.324328
0.324353
0.324378
0.324404
0.324404
0.324429
0.324454
0.32448
0.324505
0.324505
0.32453
0.324556
0.324581
0.324607
0.324607
0.324632
0.324658
0.324683
0.324709
0.324709
0.324735
0.32476
0.324786
0.324812
0.324812
0.324837
0.324863
0.324889
0.324915
0.324915
0.324941
0.324967
0.324993
0.325019
0.325019
0.325045
0.325071
0.325097
0.325123
0.325123
0.325149
0.325175
0.325201
0.325227
0.325227
0.325254
0.32528
0.325306
0.325333
0.325333
0.325359
0.325385
0.325412
0.325438
0.325438
0.325465
0.325491
0.325518
0.325545
0.325545
0.325571
0.325598
0.325625
0.325651
0.325651
0.325678
0.325705
0.325732
0.325758
0.325758
0.325785
0.325812
0.325839
0.325866
0.325866
0.325893
0.32592
0.325947
0.325974
0.325974
0.326001
0.326029
0.326056
0.326083
0.326083
0.32611
0.326137
0.326165
0.326192
0.326192
0.32622
0.326247
0.326274
0.326302
0.326302
0.326329
0.326357
0.326384
0.326412
0.326412
0.32644
0.326467
0.326495
0.326523
0.326523
0.32655
0.326578
0.326606
0.326634
0.326634
0.326662
0.32669
0.326718
0.326745
0.326745
0.326773
0.326801
0.32683
0.326858
0.326858
0.326886
0.326914
0.326942
0.32697
0.32697
0.326999
0.327027
0.327055
0.327083
0.327083
0.327112
0.32714
0.327169
0.327197
0.327197
0.327226
0.327254
0.327283
0.327311
0.327311
0.32734
0.327368
0.327397
0.327426
0.327426
0.327455
0.327483
0.327512
0.327541
0.327541
0.32757
0.327599
0.327628
0.327657
0.327657
0.327686
0.327715
0.327744
0.327773
0.327773
0.327802
0.327831
0.32786
0.327889
0.327889
0.327919
0.327948
0.327977
0.328006
0.328006
0.328036
0.328065
0.328095
0.328124
0.328124
0.328154
0.328183
0.328213
0.328242
0.328242
0.328272
0.328301
0.328331
0.328361
0.328361
0.328391
0.32842
0.32845
0.32848
0.32848
0.32851
0.32854
0.32857
0.328599
0.328599
0.328629
0.328659
0.328689
0.32872
0.32872
0.32875
0.32878
0.32881
0.32884
0.32884
0.32887
0.328901
0.328931
0.328961
0.328961
0.328992
0.329022
0.329052
0.329083
0.329083
0.329113
0.329144
0.329174
0.329205
0.329205
0.329235
0.329266
0.329297
0.329327
0.329327
0.329358
0.329389
0.32942
0.32945
0.32945
0.329481
0.329512
0.329543
0.329574
0.329574
0.329605
0.329636
0.329667
0.329698
0.329698
0.329729
0.32976
0.329791
0.329823
0.329823
0.329854
0.329885
0.329916
0.329948
0.329948
0.329979
0.33001
0.330042
0.330073
0.330073
0.330105
0.330136
0.330168
0.330199
0.330199
0.330231
0.330262
0.330294
0.330326
0.330326
0.330357
0.330389
0.330421
0.330453
0.330453
0.330484
0.330516
0.330548
0.33058
0.33058
0.330612
0.330644
0.330676
0.330708
0.330708
0.33074
0.330772
0.330804
0.330837
0.330837
0.330869
0.330901
0.330933
0.330966
0.330966
0.330998
0.33103
0.331063
0.331095
0.331095
0.331128
0.33116
0.331193
0.331225
0.331225
0.331258
0.33129
0.331323
0.331356
0.331356
0.331388
0.331421
0.331454
0.331486
0.331486
0.331519
0.331552
0.331585
0.331618
0.331618
0.331651
0.331684
0.331717
0.33175
0.33175
0.331783
0.331816
0.331849
0.331882
0.331882
0.331915
0.331949
0.331982
0.332015
0.332015
0.332049
0.332082
0.332115
0.332149
0.332149
0.332182
0.332216
0.332249
0.332283
0.332283
0.332316
0.33235
0.332383
0.332417
0.332417
0.332451
0.332484
0.332518
0.332552
0.332552
0.332586
0.332619
0.332653
0.332687
0.332687
0.332721
0.332755
0.332789
0.332823
0.332823
0.332857
0.332891
0.332925
0.332959
0.332959
0.332994
0.333028
0.333062
0.333096
0.333096
0.333131
0.333165
0.333199
0.333234
0.333234
0.333268
0.333303
0.333337
0.333372
0.333372
0.333406
0.333441
0.333475
0.33351
0.33351
0.333545
0.333579
0.333614
0.333649
0.333649
0.333683
0.333718
0.333753
0.333788
0.333788
0.333823
0.333858
0.333893
0.333928
0.333928
0.333963
0.333998
0.334033
0.334068
0.334068
0.334103
0.334138
0.334174
0.334209
0.334209
0.334244
0.334279
0.334315
0.33435
0.33435
0.334386
0.334421
0.334456
0.334492
0.334492
0.334527
0.334563
0.334599
0.334634
0.334634
0.33467
0.334706
0.334741
0.334777
0.334777
0.334813
0.334849
0.334884
0.33492
0.33492
0.334956
0.334992
0.335028
0.335064
0.335064
0.3351
0.335136
0.335172
0.335208
0.335208
0.335244
0.335281
0.335317
0.335353
0.335353
0.335389
0.335425
0.335462
0.335498
0.335498
0.335535
0.335571
0.335607
0.335644
0.335644
0.33568
0.335717
0.335753
0.33579
0.33579
0.335827
0.335863
0.3359
0.335937
0.335937
0.335973
0.33601
0.336047
0.336084
0.336084
0.336121
0.336158
0.336195
0.336232
0.336232
0.336269
0.336306
0.336343
0.33638
0.33638
0.336417
0.336454
0.336491
0.336528
0.336528
0.336566
0.336603
0.33664
0.336677
0.336677
0.336715
0.336752
0.33679
0.336827
0.336827
0.336865
0.336902
0.33694
0.336977
0.336977
0.337015
0.337052
0.33709
0.337128
0.337128
0.337166
0.337203
0.337241
0.337279
0.337279
0.337317
0.337355
0.337393
0.33743
0.33743
0.337468
0.337506
0.337544
0.337583
0.337583
0.337621
0.337659
0.337697
0.337735
0.337735
0.337773
0.337812
0.33785
0.337888
0.337888
0.337926
0.337965
0.338003
0.338042
0.338042
0.33808
0.338119
0.338157
0.338196
0.338196
0.338234
0.338273
0.338312
0.33835
0.33835
0.338389
0.338428
0.338466
0.338505
0.338505
0.338544
0.338583
0.338622
0.338661
0.338661
0.3387
0.338739
0.338778
0.338817
0.338817
0.338856
0.338895
0.338934
0.338973
0.338973
0.339012
0.339052
0.339091
0.33913
0.33913
0.339169
0.339209
0.339248
0.339287
0.339287
0.339327
0.339366
0.339406
0.339445
0.339445
0.339485
0.339525
0.339564
0.339604
0.339604
0.339644
0.339683
0.339723
0.339763
0.339763
0.339803
0.339842
0.339882
0.339922
0.339922
0.339962
0.340002
0.340042
0.340082
0.340082
0.340122
0.340162
0.340202
0.340242
0.340242
0.340283
0.340323
0.340363
0.340403
0.340403
0.340443
0.340484
0.340524
0.340565
0.340565
0.340605
0.340645
0.340686
0.340726
0.340726
0.340767
0.340807
0.340848
0.340889
0.340889
0.340929
0.34097
0.341011
0.341051
0.341051
0.341092
0.341133
0.341174
0.341215
0.341215
0.341256
0.341297
0.341338
0.341378
0.341378
0.34142
0.341461
0.341502
0.341543
0.341543
0.341584
0.341625
0.341666
0.341707
0.341707
0.341749
0.34179
0.341831
0.341873
0.341873
0.341914
0.341956
0.341997
0.342038
0.342038
0.34208
0.342121
0.342163
0.342205
0.342205
0.342246
0.342288
0.34233
0.342371
0.342371
0.342413
0.342455
0.342497
0.342538
0.342538
0.34258
0.342622
0.342664
0.342706
0.342706
0.342748
0.34279
0.342832
0.342874
0.342874
0.342916
0.342959
0.343001
0.343043
0.343043
0.343085
0.343127
0.34317
0.343212
0.343212
0.343254
0.343297
0.343339
0.343382
0.343382
0.343424
0.343467
0.343509
0.343552
0.343552
0.343594
0.343637
0.34368
0.343722
0.343722
0.343765
0.343808
0.34385
0.343893
0.343893
0.343936
0.343979
0.344022
0.344065
0.344065
0.344108
0.344151
0.344194
0.344237
0.344237
0.34428
0.344323
0.344366
0.344409
0.344409
0.344453
0.344496
0.344539
0.344582
0.344582
0.344626
0.344669
0.344712
0.344756
0.344756
0.344799
0.344843
0.344886
0.34493
0.34493
0.344973
0.345017
0.345061
0.345104
0.345104
0.345148
0.345192
0.345235
0.345279
0.345279
0.345323
0.345367
0.345411
0.345455
0.345455
0.345498
0.345542
0.345586
0.34563
0.34563
0.345674
0.345719
0.345763
0.345807
0.345807
0.345851
0.345895
0.345939
0.345984
0.345984
0.346028
0.346072
0.346117
0.346161
0.346161
0.346205
0.34625
0.346294
0.346339
0.346339
0.346383
0.346428
0.346472
0.346517
0.346517
0.346562
0.346606
0.346651
0.346696
0.346696
0.346741
0.346785
0.34683
0.346875
0.346875
0.34692
0.346965
0.34701
0.347055
0.347055
0.3471
0.347145
0.34719
0.347235
0.347235
0.34728
0.347325
0.347371
0.347416
0.347416
0.347461
0.347506
0.347552
0.347597
0.347597
0.347642
0.347688
0.347733
0.347779
0.347779
0.347824
0.34787
0.347915
0.347961
0.347961
0.348007
0.348052
0.348098
0.348144
0.348144
0.348189
0.348235
0.348281
0.348327
0.348327
0.348373
0.348418
0.348464
0.34851
0.34851
0.348556
0.348602
0.348648
0.348694
0.348694
0.34874
0.348787
0.348833
0.348879
0.348879
0.348925
0.348971
0.349018
0.349064
0.349064
0.34911
0.349157
0.349203
0.34925
0.34925
0.349296
0.349342
0.349389
0.349436
0.349436
0.349482
0.349529
0.349575
0.349622
0.349622
0.349669
0.349715
0.349762
0.349809
0.349809
0.349856
0.349903
0.34995
0.349996
0.349996
0.350043
0.35009
0.350137
0.350184
0.350184
0.350231
0.350279
0.350326
0.350373
0.350373
0.35042
0.350467
0.350514
0.350562
0.350562
0.350609
0.350656
0.350704
0.350751
0.350751
0.350798
0.350846
0.350893
0.350941
0.350941
0.350988
0.351036
0.351084
0.351131
0.351131
0.351179
0.351227
0.351274
0.351322
0.351322
0.35137
0.351418
0.351465
0.351513
0.351513
0.351561
0.351609
0.351657
0.351705
0.351705
0.351753
0.351801
0.351849
0.351897
0.351897
0.351946
0.351994
0.352042
0.35209
0.35209
0.352138
0.352187
0.352235
0.352283
0.352283
0.352332
0.35238
0.352429
0.352477
0.352477
0.352526
0.352574
0.352623
0.352671
0.352671
0.35272
0.352768
0.352817
0.352866
0.352866
0.352915
0.352963
0.353012
0.353061
0.353061
0.35311
0.353159
0.353208
0.353257
0.353257
0.353306
0.353355
0.353404
0.353453
0.353453
0.353502
0.353551
0.3536
0.353649
0.353649
0.353698
0.353748
0.353797
0.353846
0.353846
0.353896
0.353945
0.353994
0.354044
0.354044
0.354093
0.354143
0.354192
0.354242
0.354242
0.354291
0.354341
0.354391
0.35444
0.35444
0.35449
0.35454
0.354589
0.354639
0.354639
0.354689
0.354739
0.354789
0.354839
0.354839
0.354888
0.354938
0.354988
0.355038
0.355038
0.355089
0.355139
0.355189
0.355239
0.355239
0.355289
0.355339
0.355389
0.35544
0.35544
0.35549
0.35554
0.355591
0.355641
0.355641
0.355691
0.355742
0.355792
0.355843
0.355843
0.355893
0.355944
0.355994
0.356045
0.356045
0.356096
0.356146
0.356197
0.356248
0.356248
0.356299
0.356349
0.3564
0.356451
0.356451
0.356502
0.356553
0.356604
0.356655
0.356655
0.356706
0.356757
0.356808
0.356859
0.356859
0.35691
0.356961
0.357012
0.357064
0.357064
0.357115
0.357166
0.357217
0.357269
0.357269
0.35732
0.357372
0.357423
0.357474
0.357474
0.357526
0.357577
0.357629
0.35768
0.35768
0.357732
0.357784
0.357835
0.357887
0.357887
0.357939
0.357991
0.358042
0.358094
0.358094
0.358146
0.358198
0.35825
0.358302
0.358302
0.358354
0.358406
0.358458
0.35851
0.35851
0.358562
0.358614
0.358666
0.358718
0.358718
0.35877
0.358822
0.358875
0.358927
0.358927
0.358979
0.359032
0.359084
0.359136
0.359136
0.359189
0.359241
0.359294
0.359346
0.359346
0.359399
0.359451
0.359504
0.359557
0.359557
0.359609
0.359662
0.359715
0.359767
0.359767
0.35982
0.359873
0.359926
0.359979
0.359979
0.360032
0.360085
0.360138
0.360191
0.360191
0.360244
0.360297
0.36035
0.360403
0.360403
0.360456
0.360509
0.360562
0.360616
0.360616
0.360669
0.360722
0.360775
0.360829
0.360829
0.360882
0.360936
0.360989
0.361042
0.361042
0.361096
0.361149
0.361203
0.361257
0.361257
0.36131
0.361364
0.361417
0.361471
0.361471
0.361525
0.361579
0.361632
0.361686
0.361686
0.36174
0.361794
0.361848
0.361902
0.361902
0.361956
0.36201
0.362064
0.362118
0.362118
0.362172
0.362226
0.36228
0.362334
0.362334
0.362389
0.362443
0.362497
0.362551
0.362551
0.362606
0.36266
0.362714
0.362769
0.362769
0.362823
0.362878
0.362932
0.362987
0.362987
0.363041
0.363096
0.36315
0.363205
0.363205
0.36326
0.363314
0.363369
0.363424
0.363424
0.363479
0.363534
0.363588
0.363643
0.363643
0.363698
0.363753
0.363808
0.363863
0.363863
0.363918
0.363973
0.364028
0.364083
0.364083
0.364138
0.364194
0.364249
0.364304
0.364304
0.364359
0.364415
0.36447
0.364525
0.364525
0.364581
0.364636
0.364692
0.364747
0.364747
0.364802
0.364858
0.364914
0.364969
0.364969
0.365025
0.36508
0.365136
0.365192
0.365192
0.365247
0.365303
0.365359
0.365415
0.365415
0.365471
0.365527
0.365582
0.365638
0.365638
0.365694
0.36575
0.365806
0.365862
0.365862
0.365919
0.365975
0.366031
0.366087
0.366087
0.366143
0.366199
0.366256
0.366312
0.366312
0.366368
0.366425
0.366481
0.366537
0.366537
0.366594
0.36665
0.366707
0.366763
0.366763
0.36682
0.366876
0.366933
0.36699
0.36699
0.367046
0.367103
0.36716
0.367217
0.367217
0.367273
0.36733
0.367387
0.367444
0.367444
0.367501
0.367558
0.367615
0.367672
0.367672
0.367729
0.367786
0.367843
0.3679
0.3679
0.367957
0.368014
0.368071
0.368129
0.368129
0.368186
0.368243
0.3683
0.368358
0.368358
0.368415
0.368473
0.36853
0.368587
0.368587
0.368645
0.368702
0.36876
0.368818
0.368818
0.368875
0.368933
0.36899
0.369048
0.369048
0.369106
0.369164
0.369221
0.369279
0.369279
0.369337
0.369395
0.369453
0.369511
0.369511
0.369569
0.369627
0.369685
0.369743
0.369743
0.369801
0.369859
0.369917
0.369975
0.369975
0.370033
0.370092
0.37015
0.370208
0.370208
0.370266
0.370325
0.370383
0.370441
0.370441
0.3705
0.370558
0.370617
0.370675
0.370675
0.370734
0.370792
0.370851
0.37091
0.37091
0.370968
0.371027
0.371086
0.371144
0.371144
0.371203
0.371262
0.371321
0.37138
0.37138
0.371439
0.371498
0.371556
0.371615
0.371615
0.371674
0.371733
0.371793
0.371852
0.371852
0.371911
0.37197
0.372029
0.372088
0.372088
0.372148
0.372207
0.372266
0.372325
0.372325
0.372385
0.372444
0.372504
0.372563
0.372563
0.372622
0.372682
0.372741
0.372801
0.372801
0.372861
0.37292
0.37298
0.37304
0.37304
0.373099
0.373159
0.373219
0.373278
0.373278
0.373338
0.373398
0.373458
0.373518
0.373518
0.373578
0.373638
0.373698
0.373758
0.373758
0.373818
0.373878
0.373938
0.373998
0.373998
0.374058
0.374119
0.374179
0.374239
0.374239
0.374299
0.37436
0.37442
0.37448
0.37448
0.374541
0.374601
0.374662
0.374722
0.374722
0.374783
0.374843
0.374904
0.374964
0.374964
0.375025
0.375086
0.375146
0.375207
0.375207
0.375268
0.375328
0.375389
0.37545
0.37545
0.375511
0.375572
0.375633
0.375694
0.375694
0.375755
0.375816
0.375877
0.375938
0.375938
0.375999
0.37606
0.376121
0.376182
0.376182
0.376244
0.376305
0.376366
0.376427
0.376427
0.376489
0.37655
0.376611
0.376673
0.376673
0.376734
0.376796
0.376857
0.376919
0.376919
0.37698
0.377042
0.377103
0.377165
0.377165
0.377227
0.377288
0.37735
0.377412
0.377412
0.377474
0.377536
0.377597
0.377659
0.377659
0.377721
0.377783
0.377845
0.377907
0.377907
0.377969
0.378031
0.378093
0.378155
0.378155
0.378217
0.37828
0.378342
0.378404
0.378404
0.378466
0.378528
0.378591
0.378653
0.378653
0.378715
0.378778
0.37884
0.378903
0.378903
0.378965
0.379028
0.37909
0.379153
0.379153
0.379215
0.379278
0.379341
0.379403
0.379403
0.379466
0.379529
0.379591
0.379654
0.379654
0.379717
0.37978
0.379843
0.379906
0.379906
0.379969
0.380032
0.380095
0.380158
0.380158
0.380221
0.380284
0.380347
0.38041
0.38041
0.380473
0.380536
0.3806
0.380663
0.380663
0.380726
0.380789
0.380853
0.380916
0.380916
0.380979
0.381043
0.381106
0.38117
0.38117
0.381233
0.381297
0.38136
0.381424
0.381424
0.381488
0.381551
0.381615
0.381679
0.381679
0.381742
0.381806
0.38187
0.381934
0.381934
0.381998
0.382062
0.382125
0.382189
0.382189
0.382253
0.382317
0.382381
0.382445
0.382445
0.382509
0.382574
0.382638
0.382702
0.382702
0.382766
0.38283
0.382895
0.382959
0.382959
0.383023
0.383087
0.383152
0.383216
0.383216
0.383281
0.383345
0.38341
0.383474
0.383474
0.383539
0.383603
0.383668
0.383732
0.383732
0.383797
0.383862
0.383926
0.383991
0.383991
0.384056
0.384121
0.384186
0.38425
0.38425
0.384315
0.38438
0.384445
0.38451
0.38451
0.384575
0.38464
0.384705
0.38477
0.38477
0.384835
0.384901
0.384966
0.385031
0.385031
0.385096
0.385161
0.385227
0.385292
0.385292
0.385357
0.385423
0.385488
0.385553
0.385553
0.385619
0.385684
0.38575
0.385815
0.385815
0.385881
0.385947
0.386012
0.386078
0.386078
0.386144
0.386209
0.386275
0.386341
0.386341
0.386407
0.386472
0.386538
0.386604
0.386604
0.38667
0.386736
0.386802
0.386868
0.386868
0.386934
0.387
0.387066
0.387132
0.387132
0.387198
0.387264
0.387331
0.387397
0.387397
0.387463
0.387529
0.387596
0.387662
0.387662
0.387728
0.387795
0.387861
0.387928
0.387928
0.387994
0.388061
0.388127
0.388194
0.388194
0.38826
0.388327
0.388393
0.38846
0.38846
0.388527
0.388594
0.38866
0.388727
0.388727
0.388794
0.388861
0.388928
0.388995
0.388995
0.389061
0.389128
0.389195
0.389262
0.389262
0.389329
0.389397
0.389464
0.389531
0.389531
0.389598
0.389665
0.389732
0.3898
0.3898
0.389867
0.389934
0.390001
0.390069
0.390069
0.390136
0.390204
0.390271
0.390338
0.390338
0.390406
0.390473
0.390541
0.390609
0.390609
0.390676
0.390744
0.390811
0.390879
0.390879
0.390947
0.391015
0.391082
0.39115
0.39115
0.391218
0.391286
0.391354
0.391422
0.391422
0.39149
0.391558
0.391626
0.391694
0.391694
0.391762
0.39183
0.391898
0.391966
0.391966
0.392034
0.392102
0.392171
0.392239
0.392239
0.392307
0.392376
0.392444
0.392512
0.392512
0.392581
0.392649
0.392717
0.392786
0.392786
0.392854
0.392923
0.392992
0.39306
0.39306
0.393129
0.393197
0.393266
0.393335
0.393335
0.393404
0.393472
0.393541
0.39361
0.39361
0.393679
0.393748
0.393817
0.393885
0.393885
0.393954
0.394023
0.394092
0.394161
0.394161
0.394231
0.3943
0.394369
0.394438
0.394438
0.394507
0.394576
0.394646
0.394715
0.394715
0.394784
0.394853
0.394923
0.394992
0.394992
0.395062
0.395131
0.3952
0.39527
0.39527
0.395339
0.395409
0.395479
0.395548
0.395548
0.395618
0.395687
0.395757
0.395827
0.395827
0.395897
0.395966
0.396036
0.396106
0.396106
0.396176
0.396246
0.396316
0.396386
0.396386
0.396456
0.396526
0.396596
0.396666
0.396666
0.396736
0.396806
0.396876
0.396946
0.396946
0.397016
0.397087
0.397157
0.397227
0.397227
0.397297
0.397368
0.397438
0.397508
0.397508
0.397579
0.397649
0.39772
0.39779
0.39779
0.397861
0.397931
0.398002
0.398073
0.398073
0.398143
0.398214
0.398285
0.398355
0.398355
0.398426
0.398497
0.398568
0.398638
0.398638
0.398709
0.39878
0.398851
0.398922
0.398922
0.398993
0.399064
0.399135
0.399206
0.399206
0.399277
0.399348
0.399419
0.399491
0.399491
0.399562
0.399633
0.399704
0.399776
0.399776
0.399847
0.399918
0.39999
0.400061
0.400061
0.400132
0.400204
0.400275
0.400347
0.400347
0.400418
0.40049
0.400562
0.400633
0.400633
0.400705
0.400776
0.400848
0.40092
0.40092
0.400992
0.401063
0.401135
0.401207
0.401207
0.401279
0.401351
0.401423
0.401495
0.401495
0.401567
0.401639
0.401711
0.401783
0.401783
0.401855
0.401927
0.401999
0.402071
0.402071
0.402143
0.402216
0.402288
0.40236
0.40236
0.402432
0.402505
0.402577
0.40265
0.40265
0.402722
0.402794
0.402867
0.402939
0.402939
0.403012
0.403085
0.403157
0.40323
0.40323
0.403302
0.403375
0.403448
0.40352
0.40352
0.403593
0.403666
0.403739
0.403812
0.403812
0.403884
0.403957
0.40403
0.404103
0.404103
0.404176
0.404249
0.404322
0.404395
0.404395
0.404468
0.404541
0.404615
0.404688
0.404688
0.404761
0.404834
0.404907
0.404981
0.404981
0.405054
0.405127
0.405201
0.405274
0.405274
0.405348
0.405421
0.405494
0.405568
0.405568
0.405641
0.405715
0.405789
0.405862
0.405862
0.405936
0.406009
0.406083
0.406157
0.406157
0.406231
0.406304
0.406378
0.406452
0.406452
0.406526
0.4066
0.406674
0.406748
0.406748
0.406822
0.406896
0.40697
0.407044
0.407044
0.407118
0.407192
0.407266
0.40734
0.40734
0.407414
0.407489
0.407563
0.407637
0.407637
0.407711
0.407786
0.40786
0.407934
0.407934
0.408009
0.408083
0.408158
0.408232
0.408232
0.408307
0.408381
0.408456
0.40853
0.40853
0.408605
0.40868
0.408754
0.408829
0.408829
0.408904
0.408979
0.409053
0.409128
0.409128
0.409203
0.409278
0.409353
0.409428
0.409428
0.409503
0.409578
0.409653
0.409728
0.409728
0.409803
0.409878
0.409953
0.410028
0.410028
0.410103
0.410179
0.410254
0.410329
0.410329
0.410404
0.41048
0.410555
0.41063
0.41063
0.410706
0.410781
0.410857
0.410932
0.410932
0.411008
0.411083
0.411159
0.411234
0.411234
0.41131
0.411385
0.411461
0.411537
0.411537
0.411613
0.411688
0.411764
0.41184
0.41184
0.411916
0.411992
0.412067
0.412143
0.412143
0.412219
0.412295
0.412371
0.412447
0.412447
0.412523
0.412599
0.412676
0.412752
0.412752
0.412828
0.412904
0.41298
0.413056
0.413056
0.413133
0.413209
0.413285
0.413362
0.413362
0.413438
0.413514
0.413591
0.413667
0.413667
0.413744
0.41382
0.413897
0.413973
0.413973
0.41405
0.414127
0.414203
0.41428
0.41428
0.414357
0.414433
0.41451
0.414587
0.414587
0.414664
0.414741
0.414817
0.414894
0.414894
0.414971
0.415048
0.415125
0.415202
0.415202
0.415279
0.415356
0.415433
0.415511
0.415511
0.415588
0.415665
0.415742
0.415819
0.415819
0.415896
0.415974
0.416051
0.416128
0.416128
0.416206
0.416283
0.416361
0.416438
0.416438
0.416515
0.416593
0.41667
0.416748
0.416748
0.416826
0.416903
0.416981
0.417058
0.417058
0.417136
0.417214
0.417292
0.417369
0.417369
0.417447
0.417525
0.417603
0.417681
0.417681
0.417759
0.417836
0.417914
0.417992
0.417992
0.41807
0.418148
0.418226
0.418305
0.418305
0.418383
0.418461
0.418539
0.418617
0.418617
0.418695
0.418774
0.418852
0.41893
0.41893
0.419009
0.419087
0.419165
0.419244
0.419244
0.419322
0.419401
0.419479
0.419558
0.419558
0.419636
0.419715
0.419793
0.419872
0.419872
0.419951
0.420029
0.420108
0.420187
0.420187
0.420265
0.420344
0.420423
0.420502
0.420502
0.420581
0.42066
0.420739
0.420818
0.420818
0.420897
0.420976
0.421055
0.421134
0.421134
0.421213
0.421292
0.421371
0.42145
0.42145
0.421529
0.421608
0.421688
0.421767
0.421767
0.421846
0.421926
0.422005
0.422084
0.422084
0.422164
0.422243
0.422323
0.422402
0.422402
0.422482
0.422561
0.422641
0.42272
0.42272
0.4228
0.42288
0.422959
0.423039
0.423039
0.423119
0.423198
0.423278
0.423358
0.423358
0.423438
0.423518
0.423598
0.423678
0.423678
0.423758
0.423837
0.423917
0.423997
0.423997
0.424078
0.424158
0.424238
0.424318