<?xml version="1.0"?>
<VTKFile type="UnstructuredGrid" version="0.1" byte_order="LittleEndian">
<UnstructuredGrid>
<Piece NumberOfPoints="5000" NumberOfCells="4000">
<PointData Scalars="Reaction 0">
<DataArray type="Float32" Name="Reaction 0" format="ascii">
0.159866
0.159866
0.159866
0.159866
0.159866
0.159866
0.159866
0.159867
0.159867
0.159867
0.159867
0.159867
0.159868
0.159868
0.159868
0.159868
0.159869
0.159869
0.15987
0.15987
0.15987
0.159871
0.159871
0.159872
0.159873
0.159873
0.159873
0.159874
0.159875
0.159876
0.159876
0.159876
0.159877
0.159878
0.159879
0.159879
0.15988
0.159881
0.159882
0.159883
0.159883
0.159884
0.159885
0.159886
0.159887
0.159887
0.159888
0.15989
0.159891
0.159892
0.159892
0.159894
0.159895
0.159896
0.159898
0.159898
0.159899
0.159901
0.159902
0.159904
0.159904
0.159905
0.159907
0.159909
0.15991
0.15991
0.159912
0.159914
0.159916
0.159917
0.159917
0.159919
0.159921
0.159923
0.159925
0.159925
0.159927
0.159929
0.159931
0.159933
0.159933
0.159935
0.159937
0.159939
0.159942
0.159942
0.159944
0.159946
0.159949
0.159951
0.159951
0.159953
0.159956
0.159958
0.159961
0.159961
0.159963
0.159966
0.159968
0.159971
0.159971
0.159973
0.159976
0.159979
0.159981
0.159981
0.159984
0.159987
0.15999
0.159993
0.159993
0.159996
0.159999
0.160002
0.160005
0.160005
0.160008
0.160011
0.160014
0.160017
0.160017
0.16002
0.160023
0.160026
0.16003
0.16003
0.160033
0.160036
0.16004
0.160043
0.160043
0.160046
0.16005
0.160053
0.160057
0.160057
0.16006
0.160064
0.160068
0.160071
0.160071
0.160075
0.160079
0.160082
0.160086
0.160086
0.16009
0.160094
0.160098
0.160102
0.160102
0.160106
0.16011
0.160114
0.160118
0.160118
0.160122
0.160126
0.16013
0.160134
0.160134
0.160138
0.160143
0.160147
0.160151
0.160151
0.160155
0.16016
0.160164
0.160169
0.160169
0.160173
0.160178
0.160182
0.160187
0.160187
0.160191
0.160196
0.160201
0.160205
0.160205
0.16021
0.160215
0.16022
0.160224
0.160224
0.160229
0.160234
0.160239
0.160244
0.160244
0.160249
0.160254
0.160259
0.160264
0.160264
0.160269
0.160274
0.16028
0.160285
0.160285
0.16029
0.160295
0.160301
0.160306
0.160306
0.160311
0.160317
0.160322
0.160328
0.160328
0.160333
0.160339
0.160344
0.16035
0.16035
0.160356
0.160361
0.160367
0.160373
0.160373
0.160379
0.160384
0.16039
0.160396
0.160396
0.160402
0.160408
0.160414
0.16042
0.16042
0.160426
0.160432
0.160438
0.160444
0.160444
0.16045
0.160457
0.160463
0.160469
0.160469
0.160475
0.160482
0.160488
0.160495
0.160495
0.160501
0.160507
0.160514
0.16052
0.16052
0.160527
0.160534
0.16054
0.160547
0.160547
0.160554
0.16056
0.160567
0.160574
0.160574
0.160581
0.160588
0.160594
0.160601
0.160601
0.160608
0.160615
0.160622
0.160629
0.160629
0.160636
0.160644
0.160651
0.160658
0.160658
0.160665
0.160672
0.16068
0.160687
0.160687
0.160694
0.160702
0.160709
0.160717
0.160717
0.160724
0.160732
0.160739
0.160747
0.160747
0.160754
0.160762
0.16077
0.160777
0.160777
0.160785
0.160793
0.160801
0.160809
0.160809
0.160816
0.160824
0.160832
0.16084
0.16084
0.160848
0.160856
0.160864
0.160872
0.160872
0.160881
0.160889
0.160897
0.160905
0.160905
0.160913
0.160922
0.16093
0.160938
0.160938
0.160947
0.160955
0.160964
0.160972
0.160972
0.160981
0.160989
0.160998
0.161007
0.161007
0.161015
0.161024
0.161033
0.161041
0.161041
0.16105
0.161059
0.161068
0.161077
0.161077
0.161086
0.161095
0.161104
0.161113
0.161113
0.161122
0.161131
0.16114
0.161149
0.161149
0.161158
0.161167
0.161177
0.161186
0.161186
0.161195
0.161205
0.161214
0.161223
0.161223
0.161233
0.161242
0.161252
0.161261
0.161261
0.161271
0.161281
0.16129
0.1613
0.1613
0.16131
0.161319
0.161329
0.161339
0.161339
0.161349
0.161359
0.161369
0.161379
0.161379
0.161389
0.161399
0.161409
0.161419
0.161419
0.161429
0.161439
0.161449
0.161459
0.161459
0.16147
0.16148
0.16149
0.1615
0.1615
0.161511
0.161521
0.161532
0.161542
0.161542
0.161553
0.161563
0.161574
0.161584
0.161584
0.161595
0.161606
0.161616
0.161627
0.161627
0.161638
0.161649
0.161659
0.16167
0.16167
0.161681
0.161692
0.161703
0.161714
0.161714
0.161725
0.161736
0.161747
0.161758
0.161758
0.16177
0.161781
0.161792
0.161803
0.161803
0.161814
0.161826
0.161837
0.161849
0.161849
0.16186
0.161871
0.161883
0.161894
0.161894
0.161906
0.161918
0.161929
0.161941
0.161941
0.161953
0.161964
0.161976
0.161988
0.161988
0.162
0.162011
0.162023
0.162035
0.162035
0.162047
0.162059
0.162071
0.162083
0.162083
0.162095
0.162107
0.16212
0.162132
0.162132
0.162144
0.162156
0.162168
0.162181
0.162181
0.162193
0.162205
0.162218
0.16223
0.16223
0.162243
0.162255
0.162268
0.16228
0.16228
0.162293
0.162306
0.162318
0.162331
0.162331
0.162344
0.162357
0.162369
0.162382
0.162382
0.162395
0.162408
0.162421
0.162434
0.162434
0.162447
0.16246
0.162473
0.162486
0.162486
0.162499
0.162512
0.162526
0.162539
0.162539
0.162552
0.162565
0.162579
0.162592
0.162592
0.162605
0.162619
0.162632
0.162646
0.162646
0.162659
0.162673
0.162687
0.1627
0.1627
0.162714
0.162728
0.162741
0.162755
0.162755
0.162769
0.162783
0.162796
0.16281
0.16281
0.162824
0.162838
0.162852
0.162866
0.162866
0.16288
0.162894
0.162909
0.162923
0.162923
0.162937
0.162951
0.162965
0.16298
0.16298
0.162994
0.163008
0.163023
0.163037
0.163037
0.163052
0.163066
0.163081
0.163095
0.163095
0.16311
0.163124
0.163139
0.163154
0.163154
0.163168
0.163183
0.163198
0.163213
0.163213
0.163228
0.163242
0.163257
0.163272
0.163272
0.163287
0.163302
0.163317
0.163332
0.163332
0.163348
0.163363
0.163378
0.163393
0.163393
0.163408
0.163424
0.163439
0.163454
0.163454
0.16347
0.163485
0.1635
0.163516
0.163516
0.163531
0.163547
0.163563
0.163578
0.163578
0.163594
0.163609
0.163625
0.163641
0.163641
0.163657
0.163673
0.163688
0.163704
0.163704
0.16372
0.163736
0.163752
0.163768
0.163768
0.163784
0.1638
0.163816
0.163832
0.163832
0.163849
0.163865
0.163881
0.163897
0.163897
0.163914
0.16393
0.163946
0.163963
0.163963
0.163979
0.163996
0.164012
0.164029
0.164029
0.164045
0.164062
0.164078
0.164095
0.164095
0.164112
0.164128
0.164145
0.164162
0.164162
0.164179
0.164196
0.164213
0.16423
0.16423
0.164247
0.164264
0.164281
0.164298
0.164298
0.164315
0.164332
0.164349
0.164366
0.164366
0.164383
0.164401
0.164418
0.164435
0.164435
0.164453
0.16447
0.164488
0.164505
0.164505
0.164522
0.16454
0.164558
0.164575
0.164575
0.164593
0.16461
0.164628
0.164646
0.164646
0.164664
0.164681
0.164699
0.164717
0.164717
0.164735
0.164753
0.164771
0.164789
0.164789
0.164807
0.164825
0.164843
0.164861
0.164861
0.164879
0.164898
0.164916
0.164934
0.164934
0.164952
0.164971
0.164989
0.165007
0.165007
0.165026
0.165044
0.165063
0.165081
0.165081
0.1651
0.165118
0.165137
0.165156
0.165156
0.165174
0.165193
0.165212
0.165231
0.165231
0.165249
0.165268
0.165287
0.165306
0.165306
0.165325
0.165344
0.165363
0.165382
0.165382
0.165401
0.16542
0.165439
0.165459
0.165459
0.165478
0.165497
0.165516
0.165536
0.165536
0.165555
0.165574
0.165594
0.165613
0.165613
0.165633
0.165652
0.165672
0.165691
0.165691
0.165711
0.165731
0.16575
0.16577
0.16577
0.16579
0.16581
0.165829
0.165849
0.165849
0.165869
0.165889
0.165909
0.165929
0.165929
0.165949
0.165969
0.165989
0.166009
0.166009
0.166029
0.16605
0.16607
0.16609
0.16609
0.16611
0.166131
0.166151
0.166171
0.166171
0.166192
0.166212
0.166233
0.166253
0.166253
0.166274
0.166294
0.166315
0.166336
0.166336
0.166356
0.166377
0.166398
0.166419
0.166419
0.166439
0.16646
0.166481
0.166502
0.166502
0.166523
0.166544
0.166565
0.166586
0.166586
0.166607
0.166628
0.166649
0.166671
0.166671
0.166692
0.166713
0.166734
0.166756
0.166756
0.166777
0.166798
0.16682
0.166841
0.166841
0.166863
0.166884
0.166906
0.166927
0.166927
0.166949
0.166971
0.166992
0.167014
0.167014
0.167036
0.167058
0.167079
0.167101
0.167101
0.167123
0.167145
0.167167
0.167189
0.167189
0.167211
0.167233
0.167255
0.167277
0.167277
0.167299
0.167322
0.167344
0.167366
0.167366
0.167388
0.167411
0.167433
0.167455
0.167455
0.167478
0.1675
0.167523
0.167545
0.167545
0.167568
0.16759
0.167613
0.167636
0.167636
0.167658
0.167681
0.167704
0.167727
0.167727
0.167749
0.167772
0.167795
0.167818
0.167818
0.167841
0.167864
0.167887
0.16791
0.16791
0.167933
0.167956
0.167979
0.168003
0.168003
0.168026
0.168049
0.168072
0.168096
0.168096
0.168119
0.168142
0.168166
0.168189
0.168189
0.168213
0.168236
0.16826
0.168283
0.168283
0.168307
0.168331
0.168354
0.168378
0.168378
0.168402
0.168426
0.168449
0.168473
0.168473
0.168497
0.168521
0.168545
0.168569
0.168569
0.168593
0.168617
0.168641
0.168665
0.168665
0.168689
0.168714
0.168738
0.168762
0.168762
0.168786
0.168811
0.168835
0.168859
0.168859
0.168884
0.168908
0.168933
0.168957
0.168957
0.168982
0.169007
0.169031
0.169056
0.169056
0.169081
0.169105
0.16913
0.169155
0.169155
0.16918
0.169204
0.169229
0.169254
0.169254
0.169279
0.169304
0.169329
0.169354
0.169354
0.169379
0.169405
0.16943
0.169455
0.169455
0.16948
0.169505
0.169531
0.169556
0.169556
0.169581
0.169607
0.169632
0.169658
0.169658
0.169683
0.169709
0.169734
0.16976
0.16976
0.169785
0.169811
0.169837
0.169863
0.169863
0.169888
0.169914
0.16994
0.169966
0.169966
0.169992
0.170018
0.170044
0.17007
0.17007
0.170096
0.170122
0.170148
0.170174
0.170174
0.1702
0.170226
0.170253
0.170279
0.170279
0.170305
0.170331
0.170358
0.170384
0.170384
0.170411
0.170437
0.170464
0.17049
0.17049
0.170517
0.170543
0.17057
0.170597
0.170597
0.170623
0.17065
0.170677
0.170704
0.170704
0.170731
0.170757
0.170784
0.170811
0.170811
0.170838
0.170865
0.170892
0.170919
0.170919
0.170946
0.170974
0.171001
0.171028
0.171028
0.171055
0.171083
0.17111
0.171137
0.171137
0.171165
0.171192
0.171219
0.171247
0.171247
0.171274
0.171302
0.17133
0.171357
0.171357
0.171385
0.171413
0.17144
0.171468
0.171468
0.171496
0.171524
0.171551
0.171579
0.171579
0.171607
0.171635
0.171663
0.171691
0.171691
0.171719
0.171747
0.171775
0.171804
0.171804
0.171832
0.17186
0.171888
0.171917
0.171917
0.171945
0.171973
0.172002
0.17203
0.17203
0.172059
0.172087
0.172116
0.172144
0.172144
0.172173
0.172201
0.17223
0.172259
0.172259
0.172287
0.172316
0.172345
0.172374
0.172374
0.172403
0.172432
0.172461
0.172489
0.172489
0.172518
0.172548
0.172577
0.172606
0.172606
0.172635
0.172664
0.172693
0.172722
0.172722
0.172752
0.172781
0.17281
0.17284
0.17284
0.172869
0.172899
0.172928
0.172958
0.172958
0.172987
0.173017
0.173046
0.173076
0.173076
0.173106
0.173135
0.173165
0.173195
0.173195
0.173225
0.173254
0.173284
0.173314
0.173314
0.173344
0.173374
0.173404
0.173434
0.173434
0.173464
0.173494
0.173525
0.173555
0.173555
0.173585
0.173615
0.173646
0.173676
0.173676
0.173706
0.173737
0.173767
0.173797
0.173797
0.173828
0.173858
0.173889
0.17392
0.17392
0.17395
0.173981
0.174012
0.174042
0.174042
0.174073
0.174104
0.174135
0.174166
0.174166
0.174196
0.174227
0.174258
0.174289
0.174289
0.17432
0.174351
0.174383
0.174414
0.174414
0.174445
0.174476
0.174507
0.174539
0.174539
0.17457
0.174601
0.174633
0.174664
0.174664
0.174695
0.174727
0.174758
0.17479
0.17479
0.174822
0.174853
0.174885
0.174916
0.174916
0.174948
0.17498
0.175012
0.175043
0.175043
0.175075
0.175107
0.175139
0.175171
0.175171
0.175203
0.175235
0.175267
0.175299
0.175299
0.175331
0.175363
0.175396
0.175428
0.175428
0.17546
0.175492
0.175525
0.175557
0.175557
0.17559
0.175622
0.175654
0.175687
0.175687
0.175719
0.175752
0.175785
0.175817
0.175817
0.17585
0.175883
0.175915
0.175948
0.175948
0.175981
0.176014
0.176047
0.176079
0.176079
0.176112
0.176145
0.176178
0.176211
0.176211
0.176245
0.176278
0.176311
0.176344
0.176344
0.176377
0.17641
0.176444
0.176477
0.176477
0.17651
0.176544
0.176577
0.176611
0.176611
0.176644
0.176678
0.176711
0.176745
0.176745
0.176778
0.176812
0.176846
0.176879
0.176879
0.176913
0.176947
0.176981
0.177015
0.177015
0.177048
0.177082
0.177116
0.17715
0.17715
0.177184
0.177218
0.177253
0.177287
0.177287
0.177321
0.177355
0.177389
0.177424
0.177424
0.177458
0.177492
0.177527
0.177561
0.177561
0.177595
0.17763
0.177664
0.177699
0.177699
0.177733
0.177768
0.177803
0.177837
0.177837
0.177872
0.177907
0.177942
0.177976
0.177976
0.178011
0.178046
0.178081
0.178116
0.178116
0.178151
0.178186
0.178221
0.178256
0.178256
0.178291
0.178327
0.178362
0.178397
0.178397
0.178432
0.178467
0.178503
0.178538
0.178538
0.178574
0.178609
0.178644
0.17868
0.17868
0.178715
0.178751
0.178787
0.178822
0.178822
0.178858
0.178894
0.178929
0.178965
0.178965
0.179001
0.179037
0.179073
0.179109
0.179109
0.179145
0.179181
0.179217
0.179253
0.179253
0.179289
0.179325
0.179361
0.179397
0.179397
0.179433
0.17947
0.179506
0.179542
0.179542
0.179579
0.179615
0.179651
0.179688
0.179688
0.179724
0.179761
0.179797
0.179834
0.179834
0.179871
0.179907
0.179944
0.179981
0.179981
0.180018
0.180054
0.180091
0.180128
0.180128
0.180165
0.180202
0.180239
0.180276
0.180276
0.180313
0.18035
0.180387
0.180424
0.180424
0.180461
0.180499
0.180536
0.180573
0.180573
0.180611
0.180648
0.180685
0.180723
0.180723
0.18076
0.180798
0.180835
0.180873
0.180873
0.18091
0.180948
0.180986
0.181023
0.181023
0.181061
0.181099
0.181137
0.181174
0.181174
0.181212
0.18125
0.181288
0.181326
0.181326
0.181364
0.181402
0.18144
0.181478
0.181478
0.181517
0.181555
0.181593
0.181631
0.181631
0.181669
0.181708
0.181746
0.181785
0.181785
0.181823
0.181861
0.1819
0.181938
0.181938
0.181977
0.182016
0.182054
0.182093
0.182093
0.182132
0.18217
0.182209
0.182248
0.182248
0.182287
0.182326
0.182364
0.182403
0.182403
0.182442
0.182481
0.18252
0.182559
0.182559
0.182599
0.182638
0.182677
0.182716
0.182716
0.182755
0.182795
0.182834
0.182873
0.182873
0.182913
0.182952
0.182992
0.183031
0.183031
0.183071
0.18311
0.18315
0.183189
0.183189
0.183229
0.183269
0.183309
0.183348
0.183348
0.183388
0.183428
0.183468
0.183508
0.183508
0.183548
0.183588
0.183628
0.183668
0.183668
0.183708
0.183748
0.183788
0.183828
0.183828
0.183868
0.183909
0.183949
0.183989
0.183989
0.18403
0.18407
0.18411
0.184151
0.184151
0.184191
0.184232
0.184273
0.184313
0.184313
0.184354
0.184394
0.184435
0.184476
0.184476
0.184517
0.184557
0.184598
0.184639
0.184639
0.18468
0.184721
0.184762
0.184803
0.184803
0.184844
0.184885
0.184926
0.184967
0.184967
0.185009
0.18505
0.185091
0.185132
0.185132
0.185174
0.185215
0.185257
0.185298
0.185298
0.185339
0.185381
0.185422
0.185464
0.185464
0.185506
0.185547
0.185589
0.185631
0.185631
0.185672
0.185714
0.185756
0.185798
0.185798
0.18584
0.185882
0.185924
0.185966
0.185966
0.186008
0.18605
0.186092
0.186134
0.186134
0.186176
0.186218
0.18626
0.186303
0.186303
0.186345
0.186387
0.18643
0.186472
0.186472
0.186515
0.186557
0.1866
0.186642
0.186642
0.186685
0.186727
0.18677
0.186813
0.186813
0.186855
0.186898
0.186941
0.186984
0.186984
0.187027
0.187069
0.187112
0.187155
0.187155
0.187198
0.187241
0.187284
0.187328
0.187328
0.187371
0.187414
0.187457
0.1875
0.1875
0.187544
0.187587
0.18763
0.187674
0.187674
0.187717
0.187761
0.187804
0.187848
0.187848
0.187891
0.187935
0.187978
0.188022
0.188022
0.188066
0.188109
0.188153
0.188197
0.188197
0.188241
0.188285
0.188329
0.188372
0.188372
0.188416
0.18846
0.188505
0.188549
0.188549
0.188593
0.188637
0.188681
0.188725
0.188725
0.18877
0.188814
0.188858
0.188902
0.188902
0.188947
0.188991
0.189036
0.18908
0.18908
0.189125
0.189169
0.189214
0.189259
0.189259
0.189303
0.189348
0.189393
0.189438
0.189438
0.189482
0.189527
0.189572
0.189617
0.189617
0.189662
0.189707
0.189752
0.189797
0.189797
0.189842
0.189887
0.189932
0.189978
0.189978
0.190023
0.190068
0.190113
0.190159
0.190159
0.190204
0.19025
0.190295
0.19034
0.19034
0.190386
0.190431
0.190477
0.190523
0.190523
0.190568
0.190614
0.19066
0.190706
0.190706
0.190751
0.190797
0.190843
0.190889
0.190889
0.190935
0.190981
0.191027
0.191073
0.191073
0.191119
0.191165
0.191211
0.191257
0.191257
0.191304
0.19135
0.191396
0.191442
0.191442
0.191489
0.191535
0.191582
0.191628
0.191628
0.191675
0.191721
0.191768
0.191814
0.191814
0.191861
0.191908
0.191954
0.192001
0.192001
0.192048
0.192095
0.192141
0.192188
0.192188
0.192235
0.192282
0.192329
0.192376
0.192376
0.192423
0.19247
0.192518
0.192565
0.192565
0.192612
0.192659
0.192706
0.192754
0.192754
0.192801
0.192848
0.192896
0.192943
0.192943
0.192991
0.193038
0.193086
0.193133
0.193133
0.193181
0.193229
0.193276
0.193324
0.193324
0.193372
0.19342
0.193467
0.193515
0.193515
0.193563
0.193611
0.193659
0.193707
0.193707
0.193755
0.193803
0.193851
0.1939
0.1939
0.193948
0.193996
0.194044
0.194092
0.194092
0.194141
0.194189
0.194238
0.194286
0.194286
0.194334
0.194383
0.194432
0.19448
0.19448
0.194529
0.194577
0.194626
0.194675
0.194675
0.194723
0.194772
0.194821
0.19487
0.19487
0.194919
0.194968
0.195017
0.195066
0.195066
0.195115
0.195164
0.195213
0.195262
0.195262
0.195311
0.19536
0.19541
0.195459
0.195459
0.195508
0.195558
0.195607
0.195656
0.195656
0.195706
0.195755
0.195805
0.195854
0.195854
0.195904
0.195954
0.196003
0.196053
0.196053
0.196103
0.196153
0.196202
0.196252
0.196252
0.196302
0.196352
0.196402
0.196452
0.196452
0.196502
0.196552
0.196602
0.196652
0.196652
0.196702
0.196753
0.196803
0.196853
0.196853
0.196903
0.196954
0.197004
0.197055
0.197055
0.197105
0.197155
0.197206
0.197257
0.197257
0.197307
0.197358
0.197408
0.197459
0.197459
0.19751
0.197561
0.197611
0.197662
0.197662
0.197713
0.197764
0.197815
0.197866
0.197866
0.197917
0.197968
0.198019
0.19807
0.19807
0.198121
0.198173
0.198224
0.198275
0.198275
0.198326
0.198378
0.198429
0.19848
0.19848
0.198532
0.198583
0.198635
0.198686
0.198686
0.198738
0.19879
0.198841
0.198893
0.198893
0.198945
0.198996
0.199048
0.1991
0.1991
0.199152
0.199204
0.199256
0.199308
0.199308
0.19936
0.199412
0.199464
0.199516
0.199516
0.199568
0.19962
0.199673
0.199725
0.199725
0.199777
0.199829
0.199882
0.199934
0.199934
0.199987
0.200039
0.200092
0.200144
0.200144
0.200197
0.200249
0.200302
0.200355
0.200355
0.200407
0.20046
0.200513
0.200566
0.200566
0.200619
0.200672
0.200724
0.200777
0.200777
0.20083
0.200883
0.200937
0.20099
0.20099
0.201043
0.201096
0.201149
0.201202
0.201202
0.201256
0.201309
0.201362
0.201416
0.201416
0.201469
0.201523
0.201576
0.20163
0.20163
0.201683
0.201737
0.201791
0.201844
0.201844
0.201898
0.201952
0.202006
0.202059
0.202059
0.202113
0.202167
0.202221
0.202275
0.202275
0.202329
0.202383
0.202437
0.202491
0.202491
0.202545
0.2026
0.202654
0.202708
0.202708
0.202762
0.202817
0.202871
0.202925
0.202925
0.20298
0.203034
0.203089
0.203143
0.203143
0.203198
0.203253
0.203307
0.203362
0.203362
0.203417
0.203471
0.203526
0.203581
0.203581
0.203636
0.203691
0.203746
0.203801
0.203801
0.203856
0.203911
0.203966
0.204021
0.204021
0.204076
0.204131
0.204186
0.204242
0.204242
0.204297
0.204352
0.204408
0.204463
0.204463
0.204518
0.204574
0.204629
0.204685
0.204685
0.20474
0.204796
0.204852
0.204907
0.204907
0.204963
0.205019
0.205075
0.205131
0.205131
0.205186
0.205242
0.205298
0.205354
0.205354
0.20541
0.205466
0.205522
0.205578
0.205578
0.205635
0.205691
0.205747
0.205803
0.205803
0.20586
0.205916
0.205972
0.206029
0.206029
0.206085
0.206142
0.206198
0.206255
0.206255
0.206311
0.206368
0.206424
0.206481
0.206481
0.206538
0.206595
0.206651
0.206708
0.206708
0.206765
0.206822
0.206879
0.206936
0.206936
0.206993
0.20705
0.207107
0.207164
0.207164
0.207221
0.207279
0.207336
0.207393
0.207393
0.20745
0.207508
0.207565
0.207622
0.207622
0.20768
0.207737
0.207795
0.207852
0.207852
0.20791
0.207968
0.208025
0.208083
0.208083
0.208141
0.208198
0.208256
0.208314
0.208314
0.208372
0.20843
0.208488
0.208546
0.208546
0.208604
0.208662
0.20872
0.208778
0.208778
0.208836
0.208894
0.208953
0.209011
0.209011
0.209069
0.209128
0.209186
0.209244
0.209244
0.209303
0.209361
0.20942
0.209478
0.209478
0.209537
0.209596
0.209654
0.209713
0.209713
0.209772
0.20983
0.209889
0.209948
0.209948
0.210007
0.210066
0.210125
0.210184
0.210184
0.210243
0.210302
0.210361
0.21042
0.21042
0.210479
0.210539
0.210598
0.210657
0.210657
0.210716
0.210776
0.210835
0.210895
0.210895
0.210954
0.211014
0.211073
0.211133
0.211133
0.211192
0.211252
0.211312
0.211371
0.211371
0.211431
0.211491
0.211551
0.21161
0.21161
0.21167
0.21173
0.21179
0.21185
0.21185
0.21191
0.21197
0.21203
0.212091
0.212091
0.212151
0.212211
0.212271
0.212332
0.212332
0.212392
0.212452
0.212513
0.212573
0.212573
0.212634
0.212694
0.212755
0.212815
0.212815
0.212876
0.212936
0.212997
0.213058
0.213058
0.213119
0.213179
0.21324
0.213301
0.213301
0.213362
0.213423
0.213484
0.213545
0.213545
0.213606
0.213667
0.213728
0.213789
0.213789
0.21385
0.213912
0.213973
0.214034
0.214034
0.214096
0.214157
0.214218
0.21428
0.21428
0.214341
0.214403
0.214464
0.214526
0.214526
0.214588
0.214649
0.214711
0.214773
0.214773
0.214835
0.214896
0.214958
0.21502
0.21502
0.215082
0.215144
0.215206
0.215268
0.215268
0.21533
0.215392
0.215454
0.215516
0.215516
0.215579
0.215641
0.215703
0.215765
0.215765
0.215828
0.21589
0.215953
0.216015
0.216015
0.216078
0.21614
0.216203
0.216265
0.216265
0.216328
0.216391
0.216453
0.216516
0.216516
0.216579
0.216642
0.216705
0.216767
0.216767
0.21683
0.216893
0.216956
0.217019
0.217019
0.217082
0.217146
0.217209
0.217272
0.217272
0.217335
0.217398
0.217462
0.217525
0.217525
0.217588
0.217652
0.217715
0.217779
0.217779
0.217842
0.217906
0.217969
0.218033
0.218033
0.218097
0.21816
0.218224
0.218288
0.218288
0.218352
0.218416
0.218479
0.218543
0.218543
0.218607
0.218671
0.218735
0.218799
0.218799
0.218863
0.218928
0.218992
0.219056
0.219056
0.21912
0.219185
0.219249
0.219313
0.219313
0.219378
0.219442
0.219506
0.219571
0.219571
0.219635
0.2197
0.219765
0.219829
0.219829
0.219894
0.219959
0.220023
0.220088
0.220088
0.220153
0.220218
0.220283
0.220348
0.220348
0.220413
0.220478
0.220543
0.220608
0.220608
0.220673
0.220738
0.220803
0.220869
0.220869
0.220934
0.220999
0.221064
0.22113
0.22113
0.221195
0.221261
0.221326
0.221392
0.221392
0.221457
0.221523
0.221588
0.221654
0.221654
0.22172
0.221786
0.221851
0.221917
0.221917
0.221983
0.222049
0.222115
0.222181
0.222181
0.222247
0.222313
0.222379
0.222445
0.222445
0.222511
0.222577
0.222643
0.22271
0.22271
0.222776
0.222842
0.222909
0.222975
0.222975
0.223041
0.223108
0.223174
0.223241
0.223241
0.223308
0.223374
0.223441
0.223508
0.223508
0.223574
0.223641
0.223708
0.223775
0.223775
0.223842
0.223908
0.223975
0.224042
0.224042
0.224109
0.224176
0.224243
0.224311
0.224311
0.224378
0.224445
0.224512
0.224579
0.224579
0.224647
0.224714
0.224782
0.224849
0.224849
0.224916
0.224984
0.225051
0.225119
0.225119
0.225187
0.225254
0.225322
0.22539
0.22539
0.225457
0.225525
0.225593
0.225661
0.225661
0.225729
0.225797
0.225865
0.225933
0.225933
0.226001
0.226069
0.226137
0.226205
0.226205
0.226273
0.226341
0.22641
0.226478
0.226478
0.226546
0.226615
0.226683
0.226752
0.226752
0.22682
0.226889
0.226957
0.227026
0.227026
0.227094
0.227163
0.227232
0.2273
0.2273
0.227369
0.227438
0.227507
0.227576
0.227576
0.227645
0.227714
0.227783
0.227852
0.227852
0.227921
0.22799
0.228059
0.228128
0.228128
0.228197
0.228267
0.228336
0.228405
0.228405
0.228475
0.228544
0.228613
0.228683
0.228683
0.228752
0.228822
0.228891
0.228961
0.228961
0.229031
0.2291
0.22917
0.22924
0.22924
0.22931
0.22938
0.229449
0.229519
0.229519
0.229589
0.229659
0.229729
0.229799
0.229799
0.229869
0.22994
0.23001
0.23008
0.23008
0.23015
0.23022
0.230291
0.230361
0.230361
0.230431
0.230502
0.230572
0.230643
0.230643
0.230713
0.230784
0.230855
0.230925
0.230925
0.230996
0.231067
0.231137
0.231208
0.231208
0.231279
0.23135
0.231421
0.231492
0.231492
0.231563
0.231634
0.231705
0.231776
0.231776
0.231847
0.231918
0.231989
0.232061
0.232061
0.232132
0.232203
0.232275
0.232346
0.232346
0.232417
0.232489
0.23256
0.232632
0.232632
0.232703
0.232775
0.232847
0.232918
0.232918
0.23299
0.233062
0.233134
0.233205
0.233205
0.233277
0.233349
0.233421
0.233493
0.233493
0.233565
0.233637
0.233709
0.233781
0.233781
0.233853
0.233926
0.233998
0.23407
0.23407
0.234142
0.234215
0.234287
0.23436
0.23436
0.234432
0.234504
0.234577
0.23465
0.23465
0.234722
0.234795
0.234867
0.23494
0.23494
0.235013
0.235086
0.235158
0.235231
0.235231
0.235304
0.235377
0.23545
0.235523
0.235523
0.235596
0.235669
0.235742
0.235816
0.235816
0.235889
0.235962
0.236035
0.236108
0.236108
0.236182
0.236255
0.236329
0.236402
0.236402
0.236476
0.236549
0.236623
0.236696
0.236696
0.23677
0.236843
0.236917
0.236991
0.236991
0.237065
0.237139
0.237212
0.237286
0.237286
0.23736
0.237434
0.237508
0.237582
0.237582
0.237656
0.23773
0.237804
0.237879
0.237879
0.237953
0.238027
0.238101
0.238176
0.238176
0.23825
0.238325
0.238399
0.238473
0.238473
0.238548
0.238623
0.238697
0.238772
0.238772
0.238846
0.238921
0.238996
0.239071
0.239071
0.239145
0.23922
0.239295
0.23937
0.23937
0.239445
0.23952
0.239595
0.23967
0.23967
0.239745
0.23982
0.239896
0.239971
0.239971
0.240046
0.240121
0.240197
0.240272
0.240272
0.240347
0.240423
0.240498
0.240574
0.240574
0.240649
0.240725
0.240801
0.240876
0.240876
0.240952
0.241028
0.241104
0.241179
0.241179
0.241255
0.241331
0.241407
0.241483
0.241483
0.241559
0.241635
0.241711
0.241787
0.241787
0.241863
0.241939
0.242016
0.242092
0.242092
0.242168
0.242245
0.242321
0.242397
0.242397
0.242474
0.24255
0.242627
0.242703
0.242703
0.24278
0.242856
0.242933
0.24301
0.24301
0.243087
0.243163
0.24324
0.243317
0.243317
0.243394
0.243471
0.243548
0.243625
0.243625
0.243702
0.243779
0.243856
0.243933
0.243933
0.24401
0.244088
0.244165
0.244242
0.244242
0.244319
0.244397
0.244474
0.244552
0.244552
0.244629
0.244707
0.244784
0.244862
0.244862
0.244939
0.245017
0.245095
0.245172
0.245172
0.24525
0.245328
0.245406
0.245484
0.245484
0.245562
0.24564
0.245718
0.245796
0.245796
0.245874
0.245952
0.24603
0.246108
0.246108
0.246186
0.246265
0.246343
0.246421
0.246421
0.2465
0.246578
0.246656
0.246735
0.246735
0.246813
0.246892
0.246971
0.247049
0.247049
0.247128
0.247207
0.247285
0.247364
0.247364
0.247443
0.247522
0.247601
0.24768
0.24768
0.247759
0.247838
0.247917
0.247996
0.247996
0.248075
0.248154
0.248233
0.248312
0.248312
0.248392
0.248471
0.24855
0.24863
0.24863
0.248709
0.248788
0.248868
0.248947
0.248947
0.249027
0.249106
0.249186
0.249266
0.249266
0.249345
0.249425
0.249505
0.249585
0.249585
0.249665
0.249745
0.249824
0.249904
0.249904
0.249984
0.250064
0.250145
0.250225
0.250225
0.250305
0.250385
0.250465
0.250545
0.250545
0.250626
0.250706
0.250786
0.250867
0.250867
0.250947
0.251028
0.251108
0.251189
0.251189
0.251269
0.25135
0.251431
0.251511
0.251511
0.251592
0.251673
0.251754
0.251835
0.251835
0.251916
0.251996
0.252077
0.252158
0.252158
0.252239
0.252321
0.252402
0.252483
0.252483
0.252564
0.252645
0.252727
0.252808
0.252808
0.252889
0.252971
0.253052
0.253133
0.253133
0.253215
0.253296
0.253378
0.25346
0.25346
0.253541
0.253623
0.253705
0.253786
0.253786
0.253868
0.25395
0.254032
0.254114
0.254114
0.254196
0.254278
0.25436
0.254442
0.254442
0.254524
0.254606
0.254688
0.25477
0.25477
0.254852
0.254935
0.255017
0.255099
0.255099
0.255182
0.255264
0.255347
0.255429
0.255429
0.255512
0.255594
0.255677
0.255759
0.255759
0.255842
0.255925
0.256007
0.25609
0.25609
0.256173
0.256256
0.256339
0.256422
0.256422
0.256505
0.256588
0.256671
0.256754
0.256754
0.256837
0.25692
0.257003
0.257087
0.257087
0.25717
0.257253
0.257337
0.25742
0.25742
0.257503
0.257587
0.25767
0.257754
0.257754
0.257837
0.257921
0.258005
0.258088
0.258088
0.258172
0.258256
0.25834
0.258423
0.258423
0.258507
0.258591
0.258675
0.258759
0.258759
0.258843
0.258927
0.259011
0.259095
0.259095
0.25918
0.259264
0.259348
0.259432
0.259432
0.259517
0.259601
0.259685
0.25977
0.25977
0.259854
0.259939
0.260023
0.260108
0.260108
0.260192
0.260277
0.260362
0.260446
0.260446
0.260531
0.260616
0.260701
0.260786
0.260786
0.260871
0.260956
0.261041
0.261126
0.261126
0.261211
0.261296
0.261381
0.261466
0.261466
0.261551
0.261637
0.261722
0.261807
0.261807
0.261892
0.261978
0.262063
0.262149
0.262149
0.262234
0.26232
0.262405
0.262491
0.262491
0.262577
0.262662
0.262748
0.262834
0.262834
0.26292
0.263006
0.263091
0.263177
0.263177
0.263263
0.263349
0.263435
0.263521
0.263521
0.263607
0.263694
0.26378
0.263866
0.263866
0.263952
0.264039
0.264125
0.264211
0.264211
0.264298
0.264384
0.264471
0.264557
0.264557
0.264644
0.26473
0.264817
0.264903
0.264903
0.26499
0.265077
0.265164
0.26525
0.26525
0.265337
0.265424
0.265511
0.265598
0.265598
0.265685
0.265772
0.265859
0.265946
0.265946
0.266033
0.266121
0.266208
0.266295
0.266295
0.266382
0.26647
0.266557
0.266644
0.266644
0.266732
0.266819
0.266907
0.266994
0.266994
0.267082
0.26717
0.267257
0.267345
0.267345
0.267433
0.267521
0.267608
0.267696
0.267696
0.267784
0.267872
0.26796
0.268048
0.268048
0.268136
0.268224
0.268312
0.2684
0.2684
0.268489
0.268577
0.268665
0.268753
0.268753
0.268842
0.26893
0.269019
0.269107
0.269107
0.269195
0.269284
0.269373
0.269461
0.269461
0.26955
0.269638
0.269727
0.269816
0.269816
0.269905
0.269994
0.270082
0.270171
0.270171
0.27026
0.270349
0.270438
0.270527
0.270527
0.270616
0.270705
0.270795
0.270884
0.270884
0.270973
0.271062
0.271152
0.271241
0.271241
0.27133
0.27142
0.271509
0.271599
0.271599
0.271688
0.271778
0.271867
0.271957
0.271957
0.272047
0.272136
0.272226
0.272316
0.272316
0.272406
0.272496
0.272586
0.272676
0.272676
0.272766
0.272856
0.272946
0.273036
0.273036
0.273126
0.273216
0.273306
0.273396
0.273396
0.273487
0.273577
0.273667
0.273758
0.273758
0.273848
0.273939
0.274029
0.27412
0.27412
0.27421
0.274301
0.274392
0.274482
0.274482
0.274573
0.274664
0.274755
0.274845
0.274845
0.274936
0.275027
0.275118
0.275209
0.275209
0.2753
0.275391
0.275482
0.275573
0.275573
0.275665
0.275756
0.275847
0.275938
0.275938
0.27603
0.276121
0.276212
0.276304
0.276304
0.276395
0.276487
0.276578
0.27667
0.27667
0.276762
0.276853
0.276945
0.277037
0.277037
0.277128
0.27722
0.277312
0.277404
0.277404
0.277496
0.277588
0.27768
0.277772
0.277772
0.277864
0.277956
0.278048
0.27814
0.27814
0.278233
0.278325
0.278417
0.278509
0.278509
0.278602
0.278694
0.278787
0.278879
0.278879
0.278972
0.279064
0.279157
0.279249
0.279249
0.279342
0.279435
0.279527
0.27962
0.27962
0.279713
0.279806
0.279899
0.279992
0.279992
0.280085
0.280178
0.280271
0.280364
0.280364
0.280457
0.28055
0.280643
0.280736
0.280736
0.28083
0.280923
0.281016
0.28111
0.28111
0.281203
0.281297
0.28139
0.281484
0.281484
0.281577
0.281671
0.281764
0.281858
0.281858