<?xml version="1.0"?>
<VTKFile type="UnstructuredGrid" version="0.1" byte_order="LittleEndian">
<UnstructuredGrid>
<Piece NumberOfPoints="5000" NumberOfCells="4000">
<PointData Scalars="Reaction 0">
<DataArray type="Float32" Name="Reaction 0" format="ascii">
0.757997
0.757997
0.757997
0.757997
0.757997
0.757997
0.757997
0.757997
0.757997
0.757997
0.757997
0.757997
0.757997
0.757997
0.757997
0.757997
0.757997
0.757997
0.757997
0.757997
0.757997
0.757997
0.757998
0.757998
0.757998
0.757998
0.757998
0.757998
0.757998
0.757998
0.757998
0.757998
0.757998
0.757998
0.757999
0.757999
0.757999
0.757999
0.757999
0.757999
0.757999
0.757999
0.757999
0.758
0.758
0.758
0.758
0.758
0.758
0.758
0.758
0.758001
0.758001
0.758001
0.758001
0.758001
0.758001
0.758002
0.758002
0.758002
0.758002
0.758002
0.758002
0.758003
0.758003
0.758003
0.758003
0.758003
0.758004
0.758004
0.758004
0.758004
0.758004
0.758005
0.758005
0.758005
0.758005
0.758006
0.758006
0.758006
0.758006
0.758006
0.758007
0.758007
0.758007
0.758007
0.758008
0.758008
0.758008
0.758009
0.758009
0.758009
0.758009
0.75801
0.75801
0.75801
0.75801
0.758011
0.758011
0.758011
0.758011
0.758012
0.758012
0.758012
0.758013
0.758013
0.758013
0.758014
0.758014
0.758014
0.758014
0.758015
0.758015
0.758016
0.758016
0.758016
0.758016
0.758017
0.758017
0.758018
0.758018
0.758018
0.758019
0.758019
0.758019
0.758019
0.75802
0.75802
0.758021
0.758021
0.758021
0.758022
0.758022
0.758023
0.758023
0.758023
0.758024
0.758024
0.758025
0.758025
0.758025
0.758026
0.758026
0.758027
0.758027
0.758027
0.758028
0.758028
0.758029
0.758029
0.758029
0.75803
0.758031
0.758031
0.758032
0.758032
0.758032
0.758033
0.758033
0.758034
0.758034
0.758034
0.758035
0.758036
0.758036
0.758036
0.758037
0.758037
0.758038
0.758039
0.758039
0.758039
0.75804
0.758041
0.758041
0.758041
0.758042
0.758042
0.758043
0.758044
0.758044
0.758044
0.758045
0.758046
0.758046
0.758046
0.758047
0.758048
0.758048
0.758049
0.758049
0.75805
0.75805
0.758051
0.758052
0.758052
0.758053
0.758053
0.758054
0.758055
0.758055
0.758055
0.758056
0.758057
0.758058
0.758058
0.758058
0.758059
0.75806
0.758061
0.758061
0.758061
0.758062
0.758063
0.758064
0.758064
0.758065
0.758065
0.758066
0.758067
0.758067
0.758068
0.758069
0.758069
0.75807
0.75807
0.758071
0.758072
0.758073
0.758073
0.758073
0.758074
0.758075
0.758076
0.758077
0.758077
0.758078
0.758079
0.758079
0.75808
0.75808
0.758081
0.758082
0.758083
0.758084
0.758084
0.758085
0.758086
0.758086
0.758087
0.758087
0.758088
0.758089
0.75809
0.758091
0.758091
0.758092
0.758093
0.758094
0.758095
0.758095
0.758096
0.758097
0.758098
0.758099
0.758099
0.758099
0.7581
0.758101
0.758102
0.758102
0.758103
0.758104
0.758105
0.758106
0.758106
0.758107
0.758108
0.758109
0.75811
0.75811
0.758111
0.758112
0.758113
0.758114
0.758114
0.758115
0.758117
0.758118
0.758119
0.758119
0.75812
0.758121
0.758122
0.758123
0.758123
0.758124
0.758125
0.758126
0.758127
0.758127
0.758128
0.758129
0.75813
0.758132
0.758132
0.758133
0.758134
0.758135
0.758136
0.758136
0.758137
0.758138
0.758139
0.758141
0.758141
0.758142
0.758143
0.758144
0.758145
0.758145
0.758146
0.758147
0.758149
0.75815
0.75815
0.758151
0.758152
0.758153
0.758155
0.758155
0.758156
0.758157
0.758158
0.758159
0.758159
0.758161
0.758162
0.758163
0.758164
0.758164
0.758165
0.758167
0.758168
0.758169
0.758169
0.75817
0.758172
0.758173
0.758174
0.758174
0.758176
0.758177
0.758178
0.758179
0.758179
0.758181
0.758182
0.758183
0.758185
0.758185
0.758186
0.758187
0.758188
0.75819
0.75819
0.758191
0.758192
0.758194
0.758195
0.758195
0.758196
0.758198
0.758199
0.7582
0.7582
0.758202
0.758203
0.758205
0.758206
0.758206
0.758207
0.758209
0.75821
0.758212
0.758212
0.758213
0.758214
0.758216
0.758217
0.758217
0.758219
0.75822
0.758221
0.758223
0.758223
0.758224
0.758226
0.758227
0.758229
0.758229
0.75823
0.758231
0.758233
0.758234
0.758234
0.758236
0.758237
0.758239
0.75824
0.75824
0.758242
0.758243
0.758245
0.758246
0.758246
0.758248
0.758249
0.758251
0.758252
0.758252
0.758254
0.758255
0.758257
0.758258
0.758258
0.75826
0.758262
0.758263
0.758265
0.758265
0.758266
0.758268
0.758269
0.758271
0.758271
0.758272
0.758274
0.758276
0.758277
0.758277
0.758279
0.75828
0.758282
0.758284
0.758284
0.758285
0.758287
0.758288
0.75829
0.75829
0.758292
0.758293
0.758295
0.758297
0.758297
0.758298
0.7583
0.758302
0.758303
0.758303
0.758305
0.758307
0.758308
0.75831
0.75831
0.758312
0.758313
0.758315
0.758317
0.758317
0.758318
0.75832
0.758322
0.758324
0.758324
0.758325
0.758327
0.758329
0.75833
0.75833
0.758332
0.758334
0.758336
0.758337
0.758337
0.758339
0.758341
0.758343
0.758344
0.758344
0.758346
0.758348
0.75835
0.758352
0.758352
0.758353
0.758355
0.758357
0.758359
0.758359
0.758361
0.758362
0.758364
0.758366
0.758366
0.758368
0.75837
0.758372
0.758373
0.758373
0.758375
0.758377
0.758379
0.758381
0.758381
0.758383
0.758385
0.758386
0.758388
0.758388
0.75839
0.758392
0.758394
0.758396
0.758396
0.758398
0.7584
0.758402
0.758404
0.758404
0.758406
0.758407
0.758409
0.758411
0.758411
0.758413
0.758415
0.758417
0.758419
0.758419
0.758421
0.758423
0.758425
0.758427
0.758427
0.758429
0.758431
0.758433
0.758435
0.758435
0.758437
0.758439
0.758441
0.758443
0.758443
0.758445
0.758447
0.758449
0.758451
0.758451
0.758453
0.758455
0.758457
0.758459
0.758459
0.758461
0.758463
0.758465
0.758467
0.758467
0.75847
0.758472
0.758474
0.758476
0.758476
0.758478
0.75848
0.758482
0.758484
0.758484
0.758486
0.758488
0.75849
0.758493
0.758493
0.758495
0.758497
0.758499
0.758501
0.758501
0.758503
0.758505
0.758508
0.75851
0.75851
0.758512
0.758514
0.758516
0.758518
0.758518
0.758521
0.758523
0.758525
0.758527
0.758527
0.758529
0.758531
0.758534
0.758536
0.758536
0.758538
0.75854
0.758543
0.758545
0.758545
0.758547
0.758549
0.758551
0.758554
0.758554
0.758556
0.758558
0.75856
0.758563
0.758563
0.758565
0.758567
0.75857
0.758572
0.758572
0.758574
0.758576
0.758579
0.758581
0.758581
0.758583
0.758586
0.758588
0.75859
0.75859
0.758593
0.758595
0.758597
0.7586
0.7586
0.758602
0.758604
0.758607
0.758609
0.758609
0.758611
0.758614
0.758616
0.758618
0.758618
0.758621
0.758623
0.758626
0.758628
0.758628
0.75863
0.758633
0.758635
0.758638
0.758638
0.75864
0.758642
0.758645
0.758647
0.758647
0.75865
0.758652
0.758655
0.758657
0.758657
0.758659
0.758662
0.758664
0.758667
0.758667
0.758669
0.758672
0.758674
0.758677
0.758677
0.758679
0.758682
0.758684
0.758687
0.758687
0.758689
0.758692
0.758694
0.758697
0.758697
0.758699
0.758702
0.758704
0.758707
0.758707
0.758709
0.758712
0.758714
0.758717
0.758717
0.75872
0.758722
0.758725
0.758727
0.758727
0.75873
0.758732
0.758735
0.758738
0.758738
0.75874
0.758743
0.758745
0.758748
0.758748
0.758751
0.758753
0.758756
0.758758
0.758758
0.758761
0.758764
0.758766
0.758769
0.758769
0.758772
0.758774
0.758777
0.75878
0.75878
0.758782
0.758785
0.758788
0.75879
0.75879
0.758793
0.758796
0.758798
0.758801
0.758801
0.758804
0.758807
0.758809
0.758812
0.758812
0.758815
0.758817
0.75882
0.758823
0.758823
0.758826
0.758828
0.758831
0.758834
0.758834
0.758837
0.758839
0.758842
0.758845
0.758845
0.758848
0.75885
0.758853
0.758856
0.758856
0.758859
0.758862
0.758864
0.758867
0.758867
0.75887
0.758873
0.758876
0.758879
0.758879
0.758881
0.758884
0.758887
0.75889
0.75889
0.758893
0.758896
0.758898
0.758901
0.758901
0.758904
0.758907
0.75891
0.758913
0.758913
0.758916
0.758919
0.758922
0.758924
0.758924
0.758927
0.75893
0.758933
0.758936
0.758936
0.758939
0.758942
0.758945
0.758948
0.758948
0.758951
0.758954
0.758957
0.75896
0.75896
0.758963
0.758965
0.758968
0.758971
0.758971
0.758974
0.758977
0.75898
0.758983
0.758983
0.758986
0.758989
0.758992
0.758995
0.758995
0.758998
0.759001
0.759004
0.759007
0.759007
0.75901
0.759014
0.759017
0.75902
0.75902
0.759023
0.759026
0.759029
0.759032
0.759032
0.759035
0.759038
0.759041
0.759044
0.759044
0.759047
0.75905
0.759053
0.759056
0.759056
0.75906
0.759063
0.759066
0.759069
0.759069
0.759072
0.759075
0.759078
0.759081
0.759081
0.759085
0.759088
0.759091
0.759094
0.759094
0.759097
0.7591
0.759104
0.759107
0.759107
0.75911
0.759113
0.759116
0.759119
0.759119
0.759123
0.759126
0.759129
0.759132
0.759132
0.759135
0.759139
0.759142
0.759145
0.759145
0.759148
0.759152
0.759155
0.759158
0.759158
0.759161
0.759165
0.759168
0.759171
0.759171
0.759174
0.759178
0.759181
0.759184
0.759184
0.759187
0.759191
0.759194
0.759197
0.759197
0.759201
0.759204
0.759207
0.759211
0.759211
0.759214
0.759217
0.75922
0.759224
0.759224
0.759227
0.75923
0.759234
0.759237
0.759237
0.75924
0.759244
0.759247
0.759251
0.759251
0.759254
0.759257
0.759261
0.759264
0.759264
0.759267
0.759271
0.759274
0.759278
0.759278
0.759281
0.759284
0.759288
0.759291
0.759291
0.759295
0.759298
0.759302
0.759305
0.759305
0.759309
0.759312
0.759315
0.759319
0.759319
0.759322
0.759326
0.759329
0.759333
0.759333
0.759336
0.75934
0.759343
0.759347
0.759347
0.75935
0.759354
0.759357
0.759361
0.759361
0.759365
0.759368
0.759372
0.759375
0.759375
0.759379
0.759382
0.759386
0.759389
0.759389
0.759393
0.759397
0.7594
0.759404
0.759404
0.759407
0.759411
0.759414
0.759418
0.759418
0.759422
0.759425
0.759429
0.759432
0.759432
0.759436
0.75944
0.759443
0.759447
0.759447
0.759451
0.759454
0.759458
0.759462
0.759462
0.759465
0.759469
0.759473
0.759476
0.759476
0.75948
0.759484
0.759487
0.759491
0.759491
0.759495
0.759498
0.759502
0.759506
0.759506
0.759509
0.759513
0.759517
0.759521
0.759521
0.759524
0.759528
0.759532
0.759535
0.759535
0.759539
0.759543
0.759547
0.75955
0.75955
0.759554
0.759558
0.759562
0.759566
0.759566
0.759569
0.759573
0.759577
0.759581
0.759581
0.759584
0.759588
0.759592
0.759596
0.759596
0.7596
0.759604
0.759607
0.759611
0.759611
0.759615
0.759619
0.759623
0.759627
0.759627
0.75963
0.759634
0.759638
0.759642
0.759642
0.759646
0.75965
0.759654
0.759657
0.759657
0.759661
0.759665
0.759669
0.759673
0.759673
0.759677
0.759681
0.759685
0.759689
0.759689
0.759693
0.759697
0.759701
0.759704
0.759704
0.759708
0.759712
0.759716
0.75972
0.75972
0.759724
0.759728
0.759732
0.759736
0.759736
0.75974
0.759744
0.759748
0.759752
0.759752
0.759756
0.75976
0.759764
0.759768
0.759768
0.759772
0.759776
0.75978
0.759784
0.759784
0.759788
0.759792
0.759796
0.7598
0.7598
0.759804
0.759809
0.759813
0.759817
0.759817
0.759821
0.759825
0.759829
0.759833
0.759833
0.759837
0.759841
0.759845
0.759849
0.759849
0.759853
0.759858
0.759862
0.759866
0.759866
0.75987
0.759874
0.759878
0.759882
0.759882
0.759886
0.759891
0.759895
0.759899
0.759899
0.759903
0.759907
0.759911
0.759916
0.759916
0.75992
0.759924
0.759928
0.759932
0.759932
0.759937
0.759941
0.759945
0.759949
0.759949
0.759953
0.759958
0.759962
0.759966
0.759966
0.75997
0.759975
0.759979
0.759983
0.759983
0.759987
0.759992
0.759996
0.76
0.76
0.760004
0.760009
0.760013
0.760017
0.760017
0.760022
0.760026
0.76003
0.760034
0.760034
0.760039
0.760043
0.760047
0.760052
0.760052
0.760056
0.76006
0.760065
0.760069
0.760069
0.760073
0.760078
0.760082
0.760086
0.760086
0.760091
0.760095
0.7601
0.760104
0.760104
0.760108
0.760113
0.760117
0.760121
0.760121
0.760126
0.76013
0.760135
0.760139
0.760139
0.760143
0.760148
0.760152
0.760157
0.760157
0.760161
0.760166
0.76017
0.760174
0.760174
0.760179
0.760183
0.760188
0.760192
0.760192
0.760197
0.760201
0.760206
0.76021
0.76021
0.760215
0.760219
0.760224
0.760228
0.760228
0.760233
0.760237
0.760242
0.760246
0.760246
0.760251
0.760255
0.76026
0.760264
0.760264
0.760269
0.760273
0.760278
0.760283
0.760283
0.760287
0.760292
0.760296
0.760301
0.760301
0.760306
0.76031
0.760315
0.760319
0.760319
0.760324
0.760329
0.760333
0.760338
0.760338
0.760343
0.760347
0.760352
0.760356
0.760356
0.760361
0.760366
0.76037
0.760375
0.760375
0.76038
0.760384
0.760389
0.760394
0.760394
0.760398
0.760403
0.760408
0.760413
0.760413
0.760417
0.760422
0.760427
0.760431
0.760431
0.760436
0.760441
0.760446
0.76045
0.76045
0.760455
0.76046
0.760464
0.760469
0.760469
0.760474
0.760479
0.760483
0.760488
0.760488
0.760493
0.760498
0.760503
0.760507
0.760507
0.760512
0.760517
0.760522
0.760527
0.760527
0.760531
0.760536
0.760541
0.760546
0.760546
0.760551
0.760555
0.76056
0.760565
0.760565
0.76057
0.760575
0.76058
0.760585
0.760585
0.760589
0.760594
0.760599
0.760604
0.760604
0.760609
0.760614
0.760619
0.760624
0.760624
0.760628
0.760633
0.760638
0.760643
0.760643
0.760648
0.760653
0.760658
0.760663
0.760663
0.760668
0.760673
0.760678
0.760683
0.760683
0.760688
0.760693
0.760698
0.760702
0.760702
0.760707
0.760712
0.760717
0.760722
0.760722
0.760727
0.760732
0.760737
0.760742
0.760742
0.760747
0.760752
0.760757
0.760762
0.760762
0.760767
0.760773
0.760778
0.760783
0.760783
0.760788
0.760793
0.760798
0.760803
0.760803
0.760808
0.760813
0.760818
0.760823
0.760823
0.760828
0.760833
0.760838
0.760843
0.760843
0.760849
0.760854
0.760859
0.760864
0.760864
0.760869
0.760874
0.760879
0.760884
0.760884
0.76089
0.760895
0.7609
0.760905
0.760905
0.76091
0.760915
0.76092
0.760926
0.760926
0.760931
0.760936
0.760941
0.760946
0.760946
0.760952
0.760957
0.760962
0.760967
0.760967
0.760972
0.760978
0.760983
0.760988
0.760988
0.760993
0.760998
0.761004
0.761009
0.761009
0.761014
0.761019
0.761025
0.76103
0.76103
0.761035
0.76104
0.761046
0.761051
0.761051
0.761056
0.761062
0.761067
0.761072
0.761072
0.761077
0.761083
0.761088
0.761093
0.761093
0.761099
0.761104
0.761109
0.761115
0.761115
0.76112
0.761125
0.761131
0.761136
0.761136
0.761141
0.761147
0.761152
0.761157
0.761157
0.761163
0.761168
0.761173
0.761179
0.761179
0.761184
0.761189
0.761195
0.7612
0.7612
0.761206
0.761211
0.761217
0.761222
0.761222
0.761227
0.761233
0.761238
0.761244
0.761244
0.761249
0.761255
0.76126
0.761266
0.761266
0.761271
0.761277
0.761282
0.761288
0.761288
0.761293
0.761299
0.761304
0.76131
0.76131
0.761315
0.761321
0.761326
0.761332
0.761332
0.761337
0.761343
0.761349
0.761354
0.761354
0.76136
0.761365
0.761371
0.761376
0.761376
0.761382
0.761387
0.761393
0.761399
0.761399
0.761404
0.76141
0.761415
0.761421
0.761421
0.761427
0.761432
0.761438
0.761443
0.761443
0.761449
0.761455
0.76146
0.761466
0.761466
0.761472
0.761477
0.761483
0.761489
0.761489
0.761494
0.7615
0.761506
0.761511
0.761511
0.761517
0.761523
0.761528
0.761534
0.761534
0.76154
0.761545
0.761551
0.761557
0.761557
0.761562
0.761568
0.761574
0.76158
0.76158
0.761585
0.761591
0.761597
0.761603
0.761603
0.761608
0.761614
0.76162
0.761626
0.761626
0.761631
0.761637
0.761643
0.761649
0.761649
0.761654
0.76166
0.761666
0.761672
0.761672
0.761678
0.761683
0.761689
0.761695
0.761695
0.761701
0.761707
0.761713
0.761718
0.761718
0.761724
0.76173
0.761736
0.761742
0.761742
0.761748
0.761753
0.761759
0.761765
0.761765
0.761771
0.761777
0.761783
0.761789
0.761789
0.761795
0.761801
0.761806
0.761812
0.761812
0.761818
0.761824
0.76183
0.761836
0.761836
0.761842
0.761848
0.761854
0.76186
0.76186
0.761866
0.761872
0.761878
0.761884
0.761884
0.76189
0.761896
0.761902
0.761908
0.761908
0.761914
0.761919
0.761925
0.761931
0.761931
0.761937
0.761943
0.76195
0.761956
0.761956
0.761962
0.761968
0.761974
0.76198
0.76198
0.761986
0.761992
0.761998
0.762004
0.762004
0.76201
0.762016
0.762022
0.762028
0.762028
0.762034
0.76204
0.762046
0.762052
0.762052
0.762058
0.762064
0.762071
0.762077
0.762077
0.762083
0.762089
0.762095
0.762101
0.762101
0.762107
0.762113
0.762119
0.762126
0.762126
0.762132
0.762138
0.762144
0.76215
0.76215
0.762156
0.762162
0.762169
0.762175
0.762175
0.762181
0.762187
0.762193
0.7622
0.7622
0.762206
0.762212
0.762218
0.762225
0.762225
0.762231
0.762237
0.762243
0.76225
0.76225
0.762256
0.762262
0.762268
0.762275
0.762275
0.762281
0.762287
0.762294
0.7623
0.7623
0.762306
0.762313
0.762319
0.762325
0.762325
0.762331
0.762338
0.762344
0.76235
0.76235
0.762357
0.762363
0.762369
0.762376
0.762376
0.762382
0.762389
0.762395
0.762401
0.762401
0.762408
0.762414
0.76242
0.762427
0.762427
0.762433
0.762439
0.762446
0.762452
0.762452
0.762459
0.762465
0.762471
0.762478
0.762478
0.762484
0.762491
0.762497
0.762504
0.762504
0.76251
0.762516
0.762523
0.762529
0.762529
0.762536
0.762542
0.762549
0.762555
0.762555
0.762562
0.762568
0.762575
0.762581
0.762581
0.762588
0.762594
0.762601
0.762607
0.762607
0.762614
0.76262
0.762627
0.762633
0.762633
0.76264
0.762646
0.762653
0.762659
0.762659
0.762666
0.762672
0.762679
0.762686
0.762686
0.762692
0.762699
0.762705
0.762712
0.762712
0.762718
0.762725
0.762732
0.762738
0.762738
0.762745
0.762751
0.762758
0.762765
0.762765
0.762771
0.762778
0.762785
0.762791
0.762791
0.762798
0.762804
0.762811
0.762818
0.762818
0.762824
0.762831
0.762838
0.762844
0.762844
0.762851
0.762858
0.762864
0.762871
0.762871
0.762878
0.762884
0.762891
0.762898
0.762898
0.762905
0.762911
0.762918
0.762925
0.762925
0.762931
0.762938
0.762945
0.762952
0.762952
0.762958
0.762965
0.762972
0.762979
0.762979
0.762985
0.762992
0.762999
0.763006
0.763006
0.763013
0.763019
0.763026
0.763033
0.763033
0.76304
0.763046
0.763053
0.76306
0.76306
0.763067
0.763074
0.76308
0.763087
0.763087
0.763094
0.763101
0.763108
0.763115
0.763115
0.763121
0.763128
0.763135
0.763142
0.763142
0.763149
0.763156
0.763163
0.763169
0.763169
0.763176
0.763183
0.76319
0.763197
0.763197
0.763204
0.763211
0.763218
0.763225
0.763225
0.763232
0.763239
0.763246
0.763253
0.763253
0.76326
0.763267
0.763274
0.763281
0.763281
0.763288
0.763295
0.763302
0.763309
0.763309
0.763316
0.763323
0.76333
0.763337
0.763337
0.763344
0.763351
0.763358
0.763365
0.763365
0.763372
0.763379
0.763386
0.763393
0.763393
0.7634
0.763407
0.763414
0.763421
0.763421
0.763429
0.763436
0.763443
0.76345
0.76345
0.763457
0.763464
0.763471
0.763478
0.763478
0.763485
0.763492
0.7635
0.763507
0.763507
0.763514
0.763521
0.763528
0.763535
0.763535
0.763542
0.763549
0.763557
0.763564
0.763564
0.763571
0.763578
0.763585
0.763592
0.763592
0.7636
0.763607
0.763614
0.763621
0.763621
0.763628
0.763636
0.763643
0.76365
0.76365
0.763657
0.763665
0.763672
0.763679
0.763679
0.763686
0.763693
0.763701
0.763708
0.763708
0.763715
0.763722
0.76373
0.763737
0.763737
0.763744
0.763752
0.763759
0.763766
0.763766
0.763773
0.763781
0.763788
0.763795
0.763795
0.763803
0.76381
0.763817
0.763825
0.763825
0.763832
0.763839
0.763847
0.763854
0.763854
0.763861
0.763869
0.763876
0.763883
0.763883
0.763891
0.763898
0.763905
0.763913
0.763913
0.76392
0.763928
0.763935
0.763942
0.763942
0.76395
0.763957
0.763965
0.763972
0.763972
0.763979
0.763987
0.763994
0.764002
0.764002
0.764009
0.764016
0.764024
0.764031
0.764031
0.764039
0.764046
0.764054
0.764061
0.764061
0.764069
0.764076
0.764083
0.764091
0.764091
0.764098
0.764106
0.764113
0.764121
0.764121
0.764128
0.764136
0.764143
0.764151
0.764151
0.764158
0.764166
0.764174
0.764181
0.764181
0.764189
0.764196
0.764204
0.764211
0.764211
0.764219
0.764227
0.764234
0.764242
0.764242
0.76425
0.764257
0.764265
0.764272
0.764272
0.76428
0.764288
0.764295
0.764303
0.764303
0.764311
0.764318
0.764326
0.764334
0.764334
0.764341
0.764349
0.764357
0.764364
0.764364
0.764372
0.76438
0.764387
0.764395
0.764395
0.764403
0.76441
0.764418
0.764426
0.764426
0.764434
0.764441
0.764449
0.764457
0.764457
0.764464
0.764472
0.76448
0.764488
0.764488
0.764495
0.764503
0.764511
0.764519
0.764519
0.764526
0.764534
0.764542
0.76455
0.76455
0.764558
0.764565
0.764573
0.764581
0.764581
0.764589
0.764597
0.764604
0.764612
0.764612
0.76462
0.764628
0.764636
0.764644
0.764644
0.764651
0.764659
0.764667
0.764675
0.764675
0.764683
0.764691
0.764698
0.764706
0.764706
0.764714
0.764722
0.76473
0.764738
0.764738
0.764746
0.764754
0.764762
0.76477
0.76477
0.764777
0.764785
0.764793
0.764801
0.764801
0.764809
0.764817
0.764825
0.764833
0.764833
0.764841
0.764849
0.764857
0.764865
0.764865
0.764873
0.764881
0.764889
0.764897
0.764897
0.764905
0.764913
0.764921
0.764929
0.764929
0.764937
0.764945
0.764953
0.764961
0.764961
0.764969
0.764977
0.764985
0.764993
0.764993
0.765001
0.765009
0.765017
0.765025
0.765025
0.765033
0.765041
0.765049
0.765057
0.765057
0.765065
0.765073
0.765081
0.765089
0.765089
0.765097
0.765105
0.765113
0.765122
0.765122
0.76513
0.765138
0.765146
0.765154
0.765154
0.765162
0.76517
0.765178
0.765187
0.765187
0.765195
0.765203
0.765211
0.765219
0.765219
0.765228
0.765236
0.765244
0.765252
0.765252
0.76526
0.765269
0.765277
0.765285
0.765285
0.765293
0.765302
0.76531
0.765318
0.765318
0.765326
0.765335
0.765343
0.765351
0.765351
0.765359
0.765368
0.765376
0.765384
0.765384
0.765393
0.765401
0.765409
0.765417
0.765417
0.765426
0.765434
0.765442
0.765451
0.765451
0.765459
0.765467
0.765476
0.765484
0.765484
0.765492
0.765501
0.765509
0.765517
0.765517
0.765526
0.765534
0.765542
0.765551
0.765551
0.765559
0.765568
0.765576
0.765584
0.765584
0.765593
0.765601
0.765609
0.765618
0.765618
0.765626
0.765635
0.765643
0.765652
0.765652
0.76566
0.765668
0.765677
0.765685
0.765685
0.765694
0.765702
0.765711
0.765719
0.765719
0.765728
0.765736
0.765744
0.765753
0.765753
0.765761
0.76577
0.765778
0.765787
0.765787
0.765795
0.765804
0.765812
0.765821
0.765821
0.765829
0.765838
0.765846
0.765855
0.765855
0.765863
0.765872
0.765881
0.765889
0.765889
0.765898
0.765906
0.765915
0.765923
0.765923
0.765932
0.76594
0.765949
0.765958
0.765958
0.765966
0.765975
0.765983
0.765992
0.765992
0.766001
0.766009
0.766018
0.766026
0.766026
0.766035
0.766044
0.766052
0.766061
0.766061
0.766069
0.766078
0.766087
0.766095
0.766095
0.766104
0.766113
0.766121
0.76613
0.76613
0.766139
0.766147
0.766156
0.766165
0.766165
0.766173
0.766182
0.766191
0.766199
0.766199
0.766208
0.766217
0.766226
0.766234
0.766234
0.766243
0.766252
0.766261
0.76627
0.76627
0.766278
0.766287
0.766296
0.766305
0.766305
0.766314
0.766322
0.766331
0.76634
0.76634
0.766349
0.766358
0.766367
0.766375
0.766375
0.766384
0.766393
0.766402
0.766411
0.766411
0.76642
0.766429
0.766437
0.766446
0.766446
0.766455
0.766464
0.766473
0.766482
0.766482
0.766491
0.7665
0.766508
0.766517
0.766517
0.766526
0.766535
0.766544
0.766553
0.766553
0.766562
0.766571
0.76658
0.766589
0.766589
0.766598
0.766607
0.766616
0.766625
0.766625
0.766633
0.766642
0.766651
0.76666
0.76666
0.766669
0.766678
0.766687
0.766696
0.766696
0.766705
0.766714
0.766723
0.766732
0.766732
0.766741
0.76675
0.766759
0.766768
0.766768
0.766777
0.766786
0.766795
0.766805
0.766805
0.766814
0.766823
0.766832
0.766841
0.766841
0.76685
0.766859
0.766868
0.766877
0.766877
0.766886
0.766895
0.766904
0.766913
0.766913
0.766922
0.766932
0.766941
0.76695
0.76695
0.766959
0.766968
0.766977
0.766986
0.766986
0.766995
0.767004
0.767014
0.767023
0.767023
0.767032
0.767041
0.76705
0.767059
0.767059
0.767068
0.767078
0.767087
0.767096
0.767096
0.767105
0.767114
0.767124
0.767133
0.767133
0.767142
0.767151
0.76716
0.76717
0.76717
0.767179
0.767188
0.767197
0.767206
0.767206
0.767216
0.767225
0.767234
0.767244
0.767244
0.767253
0.767262
0.767272
0.767281
0.767281
0.76729
0.7673
0.767309
0.767318
0.767318
0.767328
0.767337
0.767346
0.767356
0.767356
0.767365
0.767374
0.767384
0.767393
0.767393
0.767403
0.767412
0.767421
0.767431
0.767431
0.76744
0.767449
0.767459
0.767468
0.767468
0.767478
0.767487
0.767496
0.767506
0.767506
0.767515
0.767525
0.767534
0.767544
0.767544
0.767553
0.767563
0.767572
0.767581
0.767581
0.767591
0.7676
0.76761
0.767619
0.767619
0.767629
0.767638
0.767648
0.767657
0.767657
0.767667
0.767676
0.767686
0.767695
0.767695
0.767705
0.767714
0.767724
0.767733
0.767733
0.767743
0.767752
0.767762
0.767771
0.767771
0.767781
0.76779
0.7678
0.76781
0.76781
0.767819
0.767829
0.767838
0.767848
0.767848
0.767857
0.767867
0.767877
0.767886
0.767886
0.767896
0.767905
0.767915
0.767925
0.767925
0.767934
0.767944
0.767953
0.767963
0.767963
0.767973
0.767982
0.767992
0.768002
0.768002
0.768011
0.768021
0.768031
0.76804
0.76804
0.76805
0.76806
0.768069
0.768079
0.768079
0.768089
0.768098
0.768108
0.768118
0.768118
0.768127
0.768137
0.768147
0.768156
0.768156
0.768166
0.768176
0.768185
0.768195
0.768195
0.768205
0.768215
0.768224
0.768234
0.768234
0.768244
0.768254
0.768264
0.768273
0.768273
0.768283
0.768293
0.768303
0.768313
0.768313
0.768323
0.768333
0.768342
0.768352
0.768352
0.768362
0.768372
0.768382
0.768392
0.768392
0.768402
0.768411
0.768421
0.768431
0.768431
0.768441
0.768451
0.768461
0.768471
0.768471
0.768481
0.768491
0.768501
0.768511
0.768511
0.76852
0.76853
0.76854
0.76855
0.76855
0.76856
0.76857
0.76858
0.76859
0.76859
0.7686
0.76861
0.76862
0.76863
0.76863
0.76864
0.76865
0.76866
0.76867
0.76867
0.76868
0.76869
0.7687
0.76871
0.76871
0.76872
0.76873
0.76874
0.76875
0.76875
0.76876
0.76877
0.76878
0.76879
0.76879
0.7688
0.76881
0.76882
0.76883
0.76883
0.76884
0.76885
0.76886
0.76887
0.76887
0.768881
0.768891
0.768901
0.768911
0.768911
0.768921
0.768931
0.768941
0.768951
0.768951
0.768961
0.768971
0.768982
0.768992
0.768992
0.769002
0.769012
0.769022
0.769032
0.769032
0.769042
0.769052
0.769063
0.769073
0.769073
0.769083
0.769093
0.769103
0.769113
0.769113
0.769124
0.769134
0.769144
0.769154
0.769154
0.769164
0.769174
0.769185
0.769195
0.769195
0.769205
0.769215
0.769225
0.769236
0.769236
0.769246
0.769256
0.769267
0.769277
0.769277
0.769287
0.769297
0.769308
0.769318
0.769318
0.769328
0.769339
0.769349
0.769359
0.769359
0.76937
0.76938
0.76939
0.769401
0.769401
0.769411
0.769422
0.769432
0.769442
0.769442
0.769453
0.769463
0.769473
0.769484
0.769484
0.769494
0.769505
0.769515
0.769525
0.769525
0.769536
0.769546
0.769557
0.769567
0.769567
0.769578
0.769588
0.769598
0.769609
0.769609
0.769619
0.76963
0.76964
0.769651
0.769651
0.769661
0.769672
0.769682
0.769692
0.769692
0.769703
0.769713
0.769724
0.769734
0.769734
0.769745
0.769755
0.769766
0.769776
0.769776
0.769787
0.769797
0.769808
0.769818
0.769818
0.769829
0.769839
0.76985
0.769861
0.769861
0.769871
0.769882
0.769892
0.769903
0.769903
0.769913
0.769924
0.769934
0.769945
0.769945
0.769956
0.769966
0.769977
0.769987
0.769987
0.769998
0.770008
0.770019
0.77003
0.77003
0.77004
0.770051
0.770062
0.770072
0.770072
0.770083
0.770093
0.770104
0.770115
0.770115
0.770125
0.770136
0.770147
0.770157
0.770157
0.770168
0.770178
0.770189
0.7702
0.7702
0.77021
0.770221
0.770232
0.770242
0.770242
0.770253
0.770264
0.770275
0.770285
0.770285
0.770296
0.770307
0.770318
0.770328
0.770328
0.770339
0.77035
0.770361
0.770372
0.770372
0.770382
0.770393
0.770404
0.770415
0.770415
0.770426
0.770437
0.770447
0.770458
0.770458
0.770469
0.77048
0.770491
0.770502
0.770502
0.770513
0.770523
0.770534
0.770545
0.770545
0.770556
0.770567
0.770578
0.770589
0.770589
0.7706
0.77061
0.770621
0.770632
0.770632
0.770643
0.770654
0.770665
0.770676
0.770676
0.770687
0.770698
0.770709
0.77072
0.77072
0.770731
0.770742
0.770752
0.770763
0.770763
0.770774
0.770785
0.770796
0.770807
0.770807
0.770818
0.770829
0.77084
0.770851
0.770851
0.770862
0.770873
0.770884
0.770895
0.770895
0.770906
0.770917
0.770928
0.770939
0.770939
0.77095
0.770961
0.770972
0.770983
0.770983
0.770994
0.771005
0.771016
0.771027
0.771027
0.771039
0.77105
0.771061
0.771072
0.771072
0.771083
0.771094
0.771105
0.771116
0.771116
0.771127
0.771138
0.771149
0.77116
0.77116
0.771171
0.771182
0.771194
0.771205
0.771205
0.771216
0.771227
0.771238
0.771249
0.771249
0.77126
0.771271
0.771283
0.771294
0.771294
0.771305
0.771316
0.771327
0.771339
0.771339
0.77135
0.771361
0.771372
0.771384
0.771384
0.771395
0.771406
0.771417
0.771429
0.771429
0.77144
0.771451
0.771463
0.771474
0.771474
0.771485
0.771496
0.771508
0.771519
0.771519
0.77153
0.771542
0.771553
0.771564
0.771564
0.771576
0.771587
0.771598
0.77161
0.77161
0.771621
0.771632
0.771644
0.771655
0.771655
0.771666
0.771678
0.771689
0.7717
0.7717
0.771712
0.771723
0.771735
0.771746
0.771746
0.771757
0.771769
0.77178
0.771792
0.771792
0.771803
0.771814
0.771826
0.771837
0.771837
0.771849
0.77186
0.771871
0.771883
0.771883
0.771894
0.771906
0.771917
0.771929
0.771929
0.77194
0.771952
0.771963
0.771974
0.771974
0.771986
0.771997
0.772009
0.77202
0.77202
0.772032
0.772043
0.772055
0.772066
0.772066
0.772078
0.772089
0.772101
0.772112
0.772112
0.772124
0.772135
0.772147
0.772158
0.772158
0.77217
0.772181
0.772193
0.772204
0.772204
0.772216
0.772228
0.772239
0.772251
0.772251
0.772262
0.772274
0.772285
0.772297
0.772297
0.772308
0.77232
0.772332
0.772343
0.772343
0.772355
0.772367
0.772378
0.77239
0.77239
0.772402
0.772413
0.772425
0.772437
0.772437
0.772449
0.77246
0.772472
0.772484
0.772484
0.772495
0.772507
0.772519
0.772531
0.772531
0.772542
0.772554
0.772566
0.772578
0.772578
0.772589
0.772601
0.772613
0.772625
0.772625
0.772636
0.772648
0.77266
0.772672
0.772672
0.772684
0.772695
0.772707
0.772719
0.772719
0.772731
0.772743
0.772754
0.772766
0.772766
0.772778
0.77279
0.772802
0.772813
0.772813
0.772825
0.772837
0.772849
0.772861
0.772861
0.772873
0.772885
0.772896
0.772908
0.772908
0.77292
0.772932
0.772944
0.772956
0.772956
0.772968
0.772979
0.772991
0.773003
0.773003
0.773015
0.773027
0.773039
0.773051
0.773051
0.773063
0.773075
0.773087
0.773099
0.773099
0.77311
0.773122
0.773134
0.773146
0.773146
0.773158
0.77317
0.773182
0.773194
0.773194
0.773206
0.773218
0.77323
0.773242
0.773242
0.773254
0.773266
0.773278
0.77329
0.77329
0.773302
0.773314
0.773326
0.773338
0.773338
0.77335
0.773362
0.773374
0.773386
0.773386
0.773398
0.77341
0.773422
0.773434
0.773434
0.773446
0.773459
0.773471
0.773483
0.773483
0.773495
0.773507
0.773519
0.773531
0.773531
0.773544
0.773556
0.773568
0.77358
0.77358
0.773592
0.773604
0.773617
0.773629
0.773629
0.773641
0.773653
0.773665
0.773678
0.773678
0.77369
0.773702
0.773714
0.773726
0.773726
0.773739
0.773751
0.773763
0.773775
0.773775
0.773788
0.7738
0.773812
0.773824
0.773824
0.773837
0.773849
0.773861
0.773873
0.773873
0.773886
0.773898
0.77391
0.773922
0.773922
0.773935
0.773947
0.773959
0.773971
0.773971
0.773984
0.773996
0.774008
0.774021
0.774021
0.774033
0.774045
0.774058
0.77407
0.77407
0.774082
0.774095
0.774107
0.774119
0.774119
0.774132
0.774144
0.774156
0.774169
0.774169
0.774181
0.774193
0.774206
0.774218
0.774218
0.77423
0.774243
0.774255
0.774267
0.774267
0.77428
0.774292
0.774305
0.774317
0.774317
0.774329
0.774342
0.774354
0.774367
0.774367
0.774379
0.774392
0.774404
0.774417
0.774417
0.774429
0.774442
0.774454
0.774467
0.774467
0.774479
0.774492
0.774504
0.774517