<?xml version="1.0"?>
<VTKFile type="UnstructuredGrid" version="0.1" byte_order="LittleEndian">
<UnstructuredGrid>
<Piece NumberOfPoints="5000" NumberOfCells="4000">
<PointData Scalars="Reaction 0">
<DataArray type="Float32" Name="Reaction 0" format="ascii">
0.351582
0.351582
0.351582
0.351582
0.351582
0.351582
0.351583
0.351583
0.351583
0.351583
0.351583
0.351583
0.351584
0.351584
0.351584
0.351584
0.351585
0.351585
0.351586
0.351586
0.351586
0.351586
0.351587
0.351588
0.351588
0.351588
0.351589
0.351589
0.35159
0.351591
0.351591
0.351591
0.351592
0.351593
0.351594
0.351594
0.351595
0.351596
0.351597
0.351597
0.351597
0.351598
0.351599
0.3516
0.351602
0.351602
0.351603
0.351604
0.351605
0.351606
0.351606
0.351607
0.351609
0.35161
0.351611
0.351611
0.351612
0.351614
0.351615
0.351617
0.351617
0.351618
0.35162
0.351621
0.351623
0.351623
0.351624
0.351626
0.351627
0.351629
0.351629
0.351631
0.351632
0.351634
0.351636
0.351636
0.351638
0.35164
0.351642
0.351643
0.351643
0.351645
0.351647
0.351649
0.351651
0.351651
0.351653
0.351655
0.351658
0.35166
0.35166
0.351662
0.351664
0.351666
0.351669
0.351669
0.351671
0.351673
0.351675
0.351678
0.351678
0.35168
0.351683
0.351685
0.351688
0.351688
0.35169
0.351693
0.351695
0.351698
0.351698
0.351701
0.351703
0.351706
0.351709
0.351709
0.351712
0.351714
0.351717
0.35172
0.35172
0.351723
0.351726
0.351729
0.351732
0.351732
0.351735
0.351738
0.351741
0.351744
0.351744
0.351747
0.35175
0.351753
0.351757
0.351757
0.35176
0.351763
0.351766
0.35177
0.35177
0.351773
0.351777
0.35178
0.351783
0.351783
0.351787
0.35179
0.351794
0.351798
0.351798
0.351801
0.351805
0.351808
0.351812
0.351812
0.351816
0.35182
0.351823
0.351827
0.351827
0.351831
0.351835
0.351839
0.351843
0.351843
0.351847
0.351851
0.351855
0.351859
0.351859
0.351863
0.351867
0.351871
0.351875
0.351875
0.35188
0.351884
0.351888
0.351892
0.351892
0.351897
0.351901
0.351905
0.35191
0.35191
0.351914
0.351919
0.351923
0.351928
0.351928
0.351932
0.351937
0.351941
0.351946
0.351946
0.351951
0.351956
0.35196
0.351965
0.351965
0.35197
0.351975
0.35198
0.351984
0.351984
0.351989
0.351994
0.351999
0.352004
0.352004
0.352009
0.352014
0.352019
0.352025
0.352025
0.35203
0.352035
0.35204
0.352045
0.352045
0.352051
0.352056
0.352061
0.352067
0.352067
0.352072
0.352078
0.352083
0.352088
0.352088
0.352094
0.3521
0.352105
0.352111
0.352111
0.352116
0.352122
0.352128
0.352133
0.352133
0.352139
0.352145
0.352151
0.352157
0.352157
0.352163
0.352168
0.352174
0.35218
0.35218
0.352186
0.352192
0.352198
0.352205
0.352205
0.352211
0.352217
0.352223
0.352229
0.352229
0.352235
0.352242
0.352248
0.352254
0.352254
0.352261
0.352267
0.352273
0.35228
0.35228
0.352286
0.352293
0.352299
0.352306
0.352306
0.352313
0.352319
0.352326
0.352333
0.352333
0.352339
0.352346
0.352353
0.35236
0.35236
0.352366
0.352373
0.35238
0.352387
0.352387
0.352394
0.352401
0.352408
0.352415
0.352415
0.352422
0.352429
0.352436
0.352444
0.352444
0.352451
0.352458
0.352465
0.352472
0.352472
0.35248
0.352487
0.352495
0.352502
0.352502
0.352509
0.352517
0.352524
0.352532
0.352532
0.352539
0.352547
0.352555
0.352562
0.352562
0.35257
0.352578
0.352585
0.352593
0.352593
0.352601
0.352609
0.352617
0.352624
0.352624
0.352632
0.35264
0.352648
0.352656
0.352656
0.352664
0.352672
0.35268
0.352688
0.352688
0.352697
0.352705
0.352713
0.352721
0.352721
0.35273
0.352738
0.352746
0.352755
0.352755
0.352763
0.352771
0.35278
0.352788
0.352788
0.352797
0.352805
0.352814
0.352822
0.352822
0.352831
0.35284
0.352848
0.352857
0.352857
0.352866
0.352875
0.352883
0.352892
0.352892
0.352901
0.35291
0.352919
0.352928
0.352928
0.352937
0.352946
0.352955
0.352964
0.352964
0.352973
0.352982
0.352991
0.353001
0.353001
0.35301
0.353019
0.353028
0.353038
0.353038
0.353047
0.353056
0.353066
0.353075
0.353075
0.353085
0.353094
0.353104
0.353113
0.353113
0.353123
0.353132
0.353142
0.353152
0.353152
0.353161
0.353171
0.353181
0.353191
0.353191
0.353201
0.35321
0.35322
0.35323
0.35323
0.35324
0.35325
0.35326
0.35327
0.35327
0.35328
0.35329
0.3533
0.353311
0.353311
0.353321
0.353331
0.353341
0.353351
0.353351
0.353362
0.353372
0.353382
0.353393
0.353393
0.353403
0.353414
0.353424
0.353435
0.353435
0.353445
0.353456
0.353466
0.353477
0.353477
0.353488
0.353498
0.353509
0.35352
0.35352
0.353531
0.353541
0.353552
0.353563
0.353563
0.353574
0.353585
0.353596
0.353607
0.353607
0.353618
0.353629
0.35364
0.353651
0.353651
0.353662
0.353673
0.353685
0.353696
0.353696
0.353707
0.353718
0.35373
0.353741
0.353741
0.353752
0.353764
0.353775
0.353787
0.353787
0.353798
0.35381
0.353821
0.353833
0.353833
0.353844
0.353856
0.353868
0.353879
0.353879
0.353891
0.353903
0.353915
0.353926
0.353926
0.353938
0.35395
0.353962
0.353974
0.353974
0.353986
0.353998
0.35401
0.354022
0.354022
0.354034
0.354046
0.354058
0.354071
0.354071
0.354083
0.354095
0.354107
0.35412
0.35412
0.354132
0.354144
0.354157
0.354169
0.354169
0.354182
0.354194
0.354207
0.354219
0.354219
0.354232
0.354244
0.354257
0.354269
0.354269
0.354282
0.354295
0.354308
0.35432
0.35432
0.354333
0.354346
0.354359
0.354372
0.354372
0.354385
0.354398
0.354411
0.354424
0.354424
0.354437
0.35445
0.354463
0.354476
0.354476
0.354489
0.354502
0.354516
0.354529
0.354529
0.354542
0.354555
0.354569
0.354582
0.354582
0.354595
0.354609
0.354622
0.354636
0.354636
0.354649
0.354663
0.354676
0.35469
0.35469
0.354704
0.354717
0.354731
0.354745
0.354745
0.354759
0.354772
0.354786
0.3548
0.3548
0.354814
0.354828
0.354842
0.354856
0.354856
0.35487
0.354884
0.354898
0.354912
0.354912
0.354926
0.35494
0.354954
0.354968
0.354968
0.354983
0.354997
0.355011
0.355026
0.355026
0.35504
0.355054
0.355069
0.355083
0.355083
0.355098
0.355112
0.355127
0.355141
0.355141
0.355156
0.35517
0.355185
0.3552
0.3552
0.355214
0.355229
0.355244
0.355259
0.355259
0.355274
0.355288
0.355303
0.355318
0.355318
0.355333
0.355348
0.355363
0.355378
0.355378
0.355393
0.355408
0.355423
0.355439
0.355439
0.355454
0.355469
0.355484
0.3555
0.3555
0.355515
0.35553
0.355546
0.355561
0.355561
0.355576
0.355592
0.355607
0.355623
0.355623
0.355638
0.355654
0.35567
0.355685
0.355685
0.355701
0.355716
0.355732
0.355748
0.355748
0.355764
0.35578
0.355795
0.355811
0.355811
0.355827
0.355843
0.355859
0.355875
0.355875
0.355891
0.355907
0.355923
0.355939
0.355939
0.355955
0.355972
0.355988
0.356004
0.356004
0.35602
0.356037
0.356053
0.356069
0.356069
0.356086
0.356102
0.356118
0.356135
0.356135
0.356151
0.356168
0.356184
0.356201
0.356201
0.356218
0.356234
0.356251
0.356268
0.356268
0.356284
0.356301
0.356318
0.356335
0.356335
0.356352
0.356368
0.356385
0.356402
0.356402
0.356419
0.356436
0.356453
0.35647
0.35647
0.356487
0.356505
0.356522
0.356539
0.356539
0.356556
0.356573
0.356591
0.356608
0.356608
0.356625
0.356643
0.35666
0.356677
0.356677
0.356695
0.356712
0.35673
0.356747
0.356747
0.356765
0.356782
0.3568
0.356818
0.356818
0.356835
0.356853
0.356871
0.356889
0.356889
0.356906
0.356924
0.356942
0.35696
0.35696
0.356978
0.356996
0.357014
0.357032
0.357032
0.35705
0.357068
0.357086
0.357104
0.357104
0.357122
0.35714
0.357159
0.357177
0.357177
0.357195
0.357214
0.357232
0.35725
0.35725
0.357269
0.357287
0.357305
0.357324
0.357324
0.357342
0.357361
0.35738
0.357398
0.357398
0.357417
0.357435
0.357454
0.357473
0.357473
0.357492
0.35751
0.357529
0.357548
0.357548
0.357567
0.357586
0.357605
0.357624
0.357624
0.357643
0.357662
0.357681
0.3577
0.3577
0.357719
0.357738
0.357757
0.357776
0.357776
0.357796
0.357815
0.357834
0.357853
0.357853
0.357873
0.357892
0.357912
0.357931
0.357931
0.35795
0.35797
0.357989
0.358009
0.358009
0.358029
0.358048
0.358068
0.358088
0.358088
0.358107
0.358127
0.358147
0.358166
0.358166
0.358186
0.358206
0.358226
0.358246
0.358246
0.358266
0.358286
0.358306
0.358326
0.358326
0.358346
0.358366
0.358386
0.358406
0.358406
0.358426
0.358447
0.358467
0.358487
0.358487
0.358507
0.358528
0.358548
0.358568
0.358568
0.358589
0.358609
0.35863
0.35865
0.35865
0.358671
0.358691
0.358712
0.358733
0.358733
0.358753
0.358774
0.358795
0.358815
0.358815
0.358836
0.358857
0.358878
0.358899
0.358899
0.358919
0.35894
0.358961
0.358982
0.358982
0.359003
0.359024
0.359045
0.359066
0.359066
0.359088
0.359109
0.35913
0.359151
0.359151
0.359172
0.359194
0.359215
0.359236
0.359236
0.359258
0.359279
0.3593
0.359322
0.359322
0.359343
0.359365
0.359386
0.359408
0.359408
0.359429
0.359451
0.359473
0.359494
0.359494
0.359516
0.359538
0.35956
0.359581
0.359581
0.359603
0.359625
0.359647
0.359669
0.359669
0.359691
0.359713
0.359735
0.359757
0.359757
0.359779
0.359801
0.359823
0.359845
0.359845
0.359867
0.35989
0.359912
0.359934
0.359934
0.359956
0.359979
0.360001
0.360024
0.360024
0.360046
0.360068
0.360091
0.360113
0.360113
0.360136
0.360159
0.360181
0.360204
0.360204
0.360226
0.360249
0.360272
0.360295
0.360295
0.360317
0.36034
0.360363
0.360386
0.360386
0.360409
0.360432
0.360455
0.360478
0.360478
0.360501
0.360524
0.360547
0.36057
0.36057
0.360593
0.360616
0.360639
0.360662
0.360662
0.360686
0.360709
0.360732
0.360756
0.360756
0.360779
0.360802
0.360826
0.360849
0.360849
0.360873
0.360896
0.36092
0.360943
0.360943
0.360967
0.360991
0.361014
0.361038
0.361038
0.361062
0.361085
0.361109
0.361133
0.361133
0.361157
0.361181
0.361205
0.361229
0.361229
0.361252
0.361276
0.3613
0.361325
0.361325
0.361349
0.361373
0.361397
0.361421
0.361421
0.361445
0.361469
0.361494
0.361518
0.361518
0.361542
0.361567
0.361591
0.361615
0.361615
0.36164
0.361664
0.361689
0.361713
0.361713
0.361738
0.361762
0.361787
0.361812
0.361812
0.361836
0.361861
0.361886
0.36191
0.36191
0.361935
0.36196
0.361985
0.36201
0.36201
0.362035
0.36206
0.362084
0.362109
0.362109
0.362134
0.36216
0.362185
0.36221
0.36221
0.362235
0.36226
0.362285
0.36231
0.36231
0.362336
0.362361
0.362386
0.362412
0.362412
0.362437
0.362462
0.362488
0.362513
0.362513
0.362539
0.362564
0.36259
0.362615
0.362615
0.362641
0.362667
0.362692
0.362718
0.362718
0.362744
0.362769
0.362795
0.362821
0.362821
0.362847
0.362873
0.362899
0.362925
0.362925
0.362951
0.362977
0.363003
0.363029
0.363029
0.363055
0.363081
0.363107
0.363133
0.363133
0.363159
0.363185
0.363212
0.363238
0.363238
0.363264
0.363291
0.363317
0.363343
0.363343
0.36337
0.363396
0.363423
0.363449
0.363449
0.363476
0.363502
0.363529
0.363556
0.363556
0.363582
0.363609
0.363636
0.363663
0.363663
0.363689
0.363716
0.363743
0.36377
0.36377
0.363797
0.363824
0.363851
0.363878
0.363878
0.363905
0.363932
0.363959
0.363986
0.363986
0.364013
0.36404
0.364067
0.364095
0.364095
0.364122
0.364149
0.364176
0.364204
0.364204
0.364231
0.364258
0.364286
0.364313
0.364313
0.364341
0.364368
0.364396
0.364423
0.364423
0.364451
0.364479
0.364506
0.364534
0.364534
0.364562
0.36459
0.364617
0.364645
0.364645
0.364673
0.364701
0.364729
0.364757
0.364757
0.364785
0.364813
0.364841
0.364869
0.364869
0.364897
0.364925
0.364953
0.364981
0.364981
0.365009
0.365038
0.365066
0.365094
0.365094
0.365122
0.365151
0.365179
0.365207
0.365207
0.365236
0.365264
0.365293
0.365321
0.365321
0.36535
0.365378
0.365407
0.365436
0.365436
0.365464
0.365493
0.365522
0.36555
0.36555
0.365579
0.365608
0.365637
0.365666
0.365666
0.365695
0.365724
0.365753
0.365782
0.365782
0.365811
0.36584
0.365869
0.365898
0.365898
0.365927
0.365956
0.365985
0.366014
0.366014
0.366044
0.366073
0.366102
0.366132
0.366132
0.366161
0.36619
0.36622
0.366249
0.366249
0.366279
0.366308
0.366338
0.366367
0.366367
0.366397
0.366427
0.366456
0.366486
0.366486
0.366516
0.366545
0.366575
0.366605
0.366605
0.366635
0.366665
0.366694
0.366724
0.366724
0.366754
0.366784
0.366814
0.366844
0.366844
0.366874
0.366905
0.366935
0.366965
0.366965
0.366995
0.367025
0.367055
0.367086
0.367086
0.367116
0.367146
0.367177
0.367207
0.367207
0.367238
0.367268
0.367298
0.367329
0.367329
0.367359
0.36739
0.367421
0.367451
0.367451
0.367482
0.367513
0.367543
0.367574
0.367574
0.367605
0.367636
0.367666
0.367697
0.367697
0.367728
0.367759
0.36779
0.367821
0.367821
0.367852
0.367883
0.367914
0.367945
0.367945
0.367976
0.368007
0.368039
0.36807
0.36807
0.368101
0.368132
0.368164
0.368195
0.368195
0.368226
0.368258
0.368289
0.36832
0.36832
0.368352
0.368383
0.368415
0.368447
0.368447
0.368478
0.36851
0.368541
0.368573
0.368573
0.368605
0.368636
0.368668
0.3687
0.3687
0.368732
0.368764
0.368796
0.368827
0.368827
0.368859
0.368891
0.368923
0.368955
0.368955
0.368987
0.369019
0.369052
0.369084
0.369084
0.369116
0.369148
0.36918
0.369213
0.369213
0.369245
0.369277
0.36931
0.369342
0.369342
0.369374
0.369407
0.369439
0.369472
0.369472
0.369504
0.369537
0.369569
0.369602
0.369602
0.369635
0.369667
0.3697
0.369733
0.369733
0.369765
0.369798
0.369831
0.369864
0.369864
0.369897
0.36993
0.369962
0.369995
0.369995
0.370028
0.370061
0.370094
0.370128
0.370128
0.370161
0.370194
0.370227
0.37026
0.37026
0.370293
0.370327
0.37036
0.370393
0.370393
0.370427
0.37046
0.370493
0.370527
0.370527
0.37056
0.370594
0.370627
0.370661
0.370661
0.370694
0.370728
0.370761
0.370795
0.370795
0.370829
0.370862
0.370896
0.37093
0.37093
0.370964
0.370998
0.371031
0.371065
0.371065
0.371099
0.371133
0.371167
0.371201
0.371201
0.371235
0.371269
0.371303
0.371337
0.371337
0.371372
0.371406
0.37144
0.371474
0.371474
0.371509
0.371543
0.371577
0.371611
0.371611
0.371646
0.37168
0.371715
0.371749
0.371749
0.371784
0.371818
0.371853
0.371887
0.371887
0.371922
0.371957
0.371991
0.372026
0.372026
0.372061
0.372095
0.37213
0.372165
0.372165
0.3722
0.372235
0.37227
0.372305
0.372305
0.37234
0.372375
0.37241
0.372445
0.372445
0.37248
0.372515
0.37255
0.372585
0.372585
0.37262
0.372655
0.372691
0.372726
0.372726
0.372761
0.372797
0.372832
0.372867
0.372867
0.372903
0.372938
0.372974
0.373009
0.373009
0.373045
0.37308
0.373116
0.373152
0.373152
0.373187
0.373223
0.373259
0.373294
0.373294
0.37333
0.373366
0.373402
0.373438
0.373438
0.373474
0.373509
0.373545
0.373581
0.373581
0.373617
0.373653
0.373689
0.373726
0.373726
0.373762
0.373798
0.373834
0.37387
0.37387
0.373906
0.373943
0.373979
0.374015
0.374015
0.374052
0.374088
0.374124
0.374161
0.374161
0.374197
0.374234
0.37427
0.374307
0.374307
0.374344
0.37438
0.374417
0.374453
0.374453
0.37449
0.374527
0.374564
0.3746
0.3746
0.374637
0.374674
0.374711
0.374748
0.374748
0.374785
0.374822
0.374859
0.374896
0.374896
0.374933
0.37497
0.375007
0.375044
0.375044
0.375081
0.375118
0.375156
0.375193
0.375193
0.37523
0.375268
0.375305
0.375342
0.375342
0.37538
0.375417
0.375454
0.375492
0.375492
0.375529
0.375567
0.375605
0.375642
0.375642
0.37568
0.375717
0.375755
0.375793
0.375793
0.375831
0.375868
0.375906
0.375944
0.375944
0.375982
0.37602
0.376058
0.376096
0.376096
0.376133
0.376171
0.37621
0.376248
0.376248
0.376286
0.376324
0.376362
0.3764
0.3764
0.376438
0.376477
0.376515
0.376553
0.376553
0.376591
0.37663
0.376668
0.376706
0.376706
0.376745
0.376783
0.376822
0.37686
0.37686
0.376899
0.376938
0.376976
0.377015
0.377015
0.377053
0.377092
0.377131
0.37717
0.37717
0.377208
0.377247
0.377286
0.377325
0.377325
0.377364
0.377403
0.377442
0.377481
0.377481
0.37752
0.377559
0.377598
0.377637
0.377637
0.377676
0.377715
0.377754
0.377793
0.377793
0.377833
0.377872
0.377911
0.377951
0.377951
0.37799
0.378029
0.378069
0.378108
0.378108
0.378148
0.378187
0.378227
0.378266
0.378266
0.378306
0.378345
0.378385
0.378425
0.378425
0.378464
0.378504
0.378544
0.378584
0.378584
0.378623
0.378663
0.378703
0.378743
0.378743
0.378783
0.378823
0.378863
0.378903
0.378903
0.378943
0.378983
0.379023
0.379063
0.379063
0.379103
0.379144
0.379184
0.379224
0.379224
0.379264
0.379305
0.379345
0.379385
0.379385
0.379426
0.379466
0.379507
0.379547
0.379547
0.379588
0.379628
0.379669
0.379709
0.379709
0.37975
0.37979
0.379831
0.379872
0.379872
0.379913
0.379953
0.379994
0.380035
0.380035
0.380076
0.380117
0.380158
0.380199
0.380199
0.380239
0.38028
0.380321
0.380363
0.380363
0.380404
0.380445
0.380486
0.380527
0.380527
0.380568
0.380609
0.380651
0.380692
0.380692
0.380733
0.380775
0.380816
0.380857
0.380857
0.380899
0.38094
0.380982
0.381023
0.381023
0.381065
0.381106
0.381148
0.381189
0.381189
0.381231
0.381273
0.381315
0.381356
0.381356
0.381398
0.38144
0.381482
0.381523
0.381523
0.381565
0.381607
0.381649
0.381691
0.381691
0.381733
0.381775
0.381817
0.381859
0.381859
0.381901
0.381944
0.381986
0.382028
0.382028
0.38207
0.382112
0.382155
0.382197
0.382197
0.382239
0.382282
0.382324
0.382366
0.382366
0.382409
0.382451
0.382494
0.382536
0.382536
0.382579
0.382622
0.382664
0.382707
0.382707
0.38275
0.382792
0.382835
0.382878
0.382878
0.382921
0.382963
0.383006
0.383049
0.383049
0.383092
0.383135
0.383178
0.383221
0.383221
0.383264
0.383307
0.38335
0.383393
0.383393
0.383436
0.383479
0.383523
0.383566
0.383566
0.383609
0.383652
0.383696
0.383739
0.383739
0.383782
0.383826
0.383869
0.383913
0.383913
0.383956
0.384
0.384043
0.384087
0.384087
0.38413
0.384174
0.384218
0.384261
0.384261
0.384305
0.384349
0.384392
0.384436
0.384436
0.38448
0.384524
0.384568
0.384612
0.384612
0.384656
0.3847
0.384744
0.384788
0.384788
0.384832
0.384876
0.38492
0.384964
0.384964
0.385008
0.385052
0.385096
0.385141
0.385141
0.385185
0.385229
0.385274
0.385318
0.385318
0.385362
0.385407
0.385451
0.385496
0.385496
0.38554
0.385585
0.385629
0.385674
0.385674
0.385719
0.385763
0.385808
0.385853
0.385853
0.385897
0.385942
0.385987
0.386032
0.386032
0.386076
0.386121
0.386166
0.386211
0.386211
0.386256
0.386301
0.386346
0.386391
0.386391
0.386436
0.386481
0.386526
0.386572
0.386572
0.386617
0.386662
0.386707
0.386753
0.386753
0.386798
0.386843
0.386889
0.386934
0.386934
0.386979
0.387025
0.38707
0.387116
0.387116
0.387161
0.387207
0.387252
0.387298
0.387298
0.387344
0.387389
0.387435
0.387481
0.387481
0.387526
0.387572
0.387618
0.387664
0.387664
0.38771
0.387756
0.387802
0.387848
0.387848
0.387894
0.38794
0.387986
0.388032
0.388032
0.388078
0.388124
0.38817
0.388216
0.388216
0.388262
0.388309
0.388355
0.388401
0.388401
0.388447
0.388494
0.38854
0.388587
0.388587
0.388633
0.388679
0.388726
0.388772
0.388772
0.388819
0.388866
0.388912
0.388959
0.388959
0.389006
0.389052
0.389099
0.389146
0.389146
0.389192
0.389239
0.389286
0.389333
0.389333
0.38938
0.389427
0.389474
0.389521
0.389521
0.389568
0.389615
0.389662
0.389709
0.389709
0.389756
0.389803
0.38985
0.389897
0.389897
0.389945
0.389992
0.390039
0.390086
0.390086
0.390134
0.390181
0.390229
0.390276
0.390276
0.390323
0.390371
0.390418
0.390466
0.390466
0.390514
0.390561
0.390609
0.390656
0.390656
0.390704
0.390752
0.390799
0.390847
0.390847
0.390895
0.390943
0.390991
0.391039
0.391039
0.391086
0.391134
0.391182
0.39123
0.39123
0.391278
0.391326
0.391374
0.391423
0.391423
0.391471
0.391519
0.391567
0.391615
0.391615
0.391664
0.391712
0.39176
0.391808
0.391808
0.391857
0.391905
0.391954
0.392002
0.392002
0.39205
0.392099
0.392147
0.392196
0.392196
0.392245
0.392293
0.392342
0.39239
0.39239
0.392439
0.392488
0.392537
0.392585
0.392585
0.392634
0.392683
0.392732
0.392781
0.392781
0.39283
0.392879
0.392928
0.392977
0.392977
0.393026
0.393075
0.393124
0.393173
0.393173
0.393222
0.393271
0.39332
0.39337
0.39337
0.393419
0.393468
0.393518
0.393567
0.393567
0.393616
0.393666
0.393715
0.393764
0.393764
0.393814
0.393863
0.393913
0.393963
0.393963
0.394012
0.394062
0.394111
0.394161
0.394161
0.394211
0.394261
0.39431
0.39436
0.39436
0.39441
0.39446
0.39451
0.39456
0.39456
0.394609
0.394659
0.394709
0.394759
0.394759
0.394809
0.39486
0.39491
0.39496
0.39496
0.39501
0.39506
0.39511
0.395161
0.395161
0.395211
0.395261
0.395311
0.395362
0.395362
0.395412
0.395463
0.395513
0.395563
0.395563
0.395614
0.395664
0.395715
0.395766
0.395766
0.395816
0.395867
0.395917
0.395968
0.395968
0.396019
0.39607
0.39612
0.396171
0.396171
0.396222
0.396273
0.396324
0.396375
0.396375
0.396426
0.396476
0.396527
0.396579
0.396579
0.39663
0.396681
0.396732
0.396783
0.396783
0.396834
0.396885
0.396936
0.396988
0.396988
0.397039
0.39709
0.397142
0.397193
0.397193
0.397244
0.397296
0.397347
0.397399
0.397399
0.39745
0.397502
0.397553
0.397605
0.397605
0.397656
0.397708
0.39776
0.397811
0.397811
0.397863
0.397915
0.397967
0.398018
0.398018
0.39807
0.398122
0.398174
0.398226
0.398226
0.398278
0.39833
0.398382
0.398434
0.398434
0.398486
0.398538
0.39859
0.398642
0.398642
0.398694
0.398747
0.398799
0.398851
0.398851
0.398903
0.398956
0.399008
0.39906
0.39906
0.399113
0.399165
0.399218
0.39927
0.39927
0.399323
0.399375
0.399428
0.39948
0.39948
0.399533
0.399586
0.399638
0.399691
0.399691
0.399744
0.399796
0.399849
0.399902
0.399902
0.399955
0.400008
0.400061
0.400113
0.400113
0.400166
0.400219
0.400272
0.400325
0.400325
0.400378
0.400432
0.400485
0.400538
0.400538
0.400591
0.400644
0.400697
0.400751
0.400751
0.400804
0.400857
0.400911
0.400964
0.400964
0.401017
0.401071
0.401124
0.401178
0.401178
0.401231
0.401285
0.401338
0.401392
0.401392
0.401445
0.401499
0.401553
0.401606
0.401606
0.40166
0.401714
0.401768
0.401822
0.401822
0.401875
0.401929
0.401983
0.402037
0.402037
0.402091
0.402145
0.402199
0.402253
0.402253
0.402307
0.402361
0.402415
0.402469
0.402469
0.402524
0.402578
0.402632
0.402686
0.402686
0.40274
0.402795
0.402849
0.402904
0.402904
0.402958
0.403012
0.403067
0.403121
0.403121
0.403176
0.40323
0.403285
0.403339
0.403339
0.403394
0.403449
0.403503
0.403558
0.403558
0.403613
0.403667
0.403722
0.403777
0.403777
0.403832
0.403887
0.403942
0.403997
0.403997
0.404052
0.404106
0.404161
0.404217
0.404217
0.404272
0.404327
0.404382
0.404437
0.404437
0.404492
0.404547
0.404602
0.404658
0.404658
0.404713
0.404768
0.404824
0.404879
0.404879
0.404934
0.40499
0.405045
0.405101
0.405101
0.405156
0.405212
0.405267
0.405323
0.405323
0.405378
0.405434
0.40549
0.405545
0.405545
0.405601
0.405657
0.405713
0.405768
0.405768
0.405824
0.40588
0.405936
0.405992
0.405992
0.406048
0.406104
0.40616
0.406216
0.406216
0.406272
0.406328
0.406384
0.40644
0.40644
0.406496
0.406553
0.406609
0.406665
0.406665
0.406721
0.406778
0.406834
0.40689
0.40689
0.406947
0.407003
0.40706
0.407116
0.407116
0.407172
0.407229
0.407286
0.407342
0.407342
0.407399
0.407455
0.407512
0.407569
0.407569
0.407625
0.407682
0.407739
0.407796
0.407796
0.407853
0.407909
0.407966
0.408023
0.408023
0.40808
0.408137
0.408194
0.408251
0.408251
0.408308
0.408365
0.408422
0.408479
0.408479
0.408536
0.408594
0.408651
0.408708
0.408708
0.408765
0.408823
0.40888
0.408937
0.408937
0.408995
0.409052
0.40911
0.409167
0.409167
0.409224
0.409282
0.409339
0.409397
0.409397
0.409455
0.409512
0.40957
0.409628
0.409628
0.409685
0.409743
0.409801
0.409859
0.409859
0.409916
0.409974
0.410032
0.41009
0.41009
0.410148
0.410206
0.410264
0.410322
0.410322
0.41038
0.410438
0.410496
0.410554
0.410554
0.410612
0.41067
0.410729
0.410787
0.410787
0.410845
0.410903
0.410962
0.41102
0.41102
0.411078
0.411137
0.411195
0.411253
0.411253
0.411312
0.41137
0.411429
0.411488
0.411488
0.411546
0.411605
0.411663
0.411722
0.411722
0.411781
0.411839
0.411898
0.411957
0.411957
0.412016
0.412075
0.412133
0.412192
0.412192
0.412251
0.41231
0.412369
0.412428
0.412428
0.412487
0.412546
0.412605
0.412664
0.412664
0.412723
0.412783
0.412842
0.412901
0.412901
0.41296
0.413019
0.413079
0.413138
0.413138
0.413197
0.413257
0.413316
0.413376
0.413376
0.413435
0.413494
0.413554
0.413613
0.413613
0.413673
0.413733
0.413792
0.413852
0.413852
0.413912
0.413971
0.414031
0.414091
0.414091
0.41415
0.41421
0.41427
0.41433
0.41433
0.41439
0.41445
0.41451
0.41457
0.41457
0.41463
0.41469
0.41475
0.41481
0.41481
0.41487
0.41493
0.41499
0.41505
0.41505
0.415111
0.415171
0.415231
0.415291
0.415291
0.415352
0.415412
0.415472
0.415533
0.415533
0.415593
0.415654
0.415714
0.415775
0.415775
0.415835
0.415896
0.415956
0.416017
0.416017
0.416078
0.416138
0.416199
0.41626
0.41626
0.416321
0.416381
0.416442
0.416503
0.416503
0.416564
0.416625
0.416686
0.416747
0.416747
0.416808
0.416869
0.41693
0.416991
0.416991
0.417052
0.417113
0.417174
0.417235
0.417235
0.417296
0.417358
0.417419
0.41748
0.41748
0.417541
0.417603
0.417664
0.417725
0.417725
0.417787
0.417848
0.41791
0.417971
0.417971
0.418033
0.418094
0.418156
0.418218
0.418218
0.418279
0.418341
0.418402
0.418464
0.418464
0.418526
0.418588
0.418649
0.418711
0.418711
0.418773
0.418835
0.418897
0.418959
0.418959
0.419021
0.419083
0.419145
0.419207
0.419207
0.419269
0.419331
0.419393
0.419455
0.419455
0.419517
0.41958
0.419642
0.419704
0.419704
0.419766
0.419829
0.419891
0.419953
0.419953
0.420016
0.420078
0.42014
0.420203
0.420203
0.420265
0.420328
0.42039
0.420453
0.420453
0.420516
0.420578
0.420641
0.420704
0.420704
0.420766
0.420829
0.420892
0.420955
0.420955
0.421017
0.42108
0.421143
0.421206
0.421206
0.421269
0.421332
0.421395
0.421458
0.421458
0.421521
0.421584
0.421647
0.42171
0.42171
0.421773
0.421836
0.4219
0.421963
0.421963
0.422026
0.422089
0.422153
0.422216
0.422216
0.422279
0.422343
0.422406
0.42247
0.42247
0.422533
0.422596
0.42266
0.422724
0.422724
0.422787
0.422851
0.422914
0.422978
0.422978
0.423042
0.423105
0.423169
0.423233
0.423233
0.423297
0.42336
0.423424
0.423488
0.423488
0.423552
0.423616
0.42368
0.423744
0.423744
0.423808
0.423872
0.423936
0.424
0.424
0.424064
0.424128
0.424192
0.424257
0.424257
0.424321
0.424385
0.424449
0.424514
0.424514
0.424578
0.424642
0.424707
0.424771
0.424771
0.424835
0.4249
0.424964
0.425029
0.425029
0.425093
0.425158
0.425223
0.425287
0.425287
0.425352
0.425417
0.425481
0.425546
0.425546
0.425611
0.425675
0.42574
0.425805
0.425805
0.42587
0.425935
0.426
0.426065
0.426065
0.42613
0.426195
0.42626
0.426325
0.426325
0.42639
0.426455
0.42652
0.426585
0.426585
0.42665
0.426716
0.426781
0.426846
0.426846
0.426911
0.426977
0.427042
0.427107
0.427107
0.427173
0.427238
0.427304
0.427369
0.427369
0.427435
0.4275
0.427566
0.427631
0.427631
0.427697
0.427762
0.427828
0.427894
0.427894
0.427959
0.428025
0.428091
0.428157
0.428157
0.428223
0.428288
0.428354
0.42842
0.42842
0.428486
0.428552
0.428618
0.428684
0.428684
0.42875
0.428816
0.428882
0.428948
0.428948
0.429014
0.429081
0.429147
0.429213
0.429213
0.429279
0.429346
0.429412
0.429478
0.429478
0.429545
0.429611
0.429677
0.429744
0.429744
0.42981
0.429877
0.429943
0.43001
0.43001
0.430076
0.430143
0.43021
0.430276
0.430276
0.430343
0.43041
0.430476
0.430543
0.430543
0.43061
0.430677
0.430743
0.43081
0.43081
0.430877
0.430944
0.431011
0.431078
0.431078
0.431145
0.431212
0.431279
0.431346
0.431346
0.431413
0.43148
0.431547
0.431615
0.431615
0.431682
0.431749
0.431816
0.431884
0.431884
0.431951
0.432018
0.432086
0.432153
0.432153
0.43222
0.432288
0.432355
0.432423
0.432423
0.43249
0.432558
0.432625
0.432693
0.432693
0.432761
0.432828
0.432896
0.432964
0.432964
0.433031
0.433099
0.433167
0.433235
0.433235
0.433303
0.433371
0.433438
0.433506
0.433506
0.433574
0.433642
0.43371
0.433778
0.433778
0.433846
0.433914
0.433983
0.434051
0.434051
0.434119
0.434187
0.434255
0.434323
0.434323
0.434392
0.43446
0.434528
0.434597
0.434597
0.434665
0.434733
0.434802
0.43487
0.43487
0.434939
0.435007
0.435076
0.435144
0.435144
0.435213
0.435281
0.43535
0.435419
0.435419
0.435487
0.435556
0.435625
0.435694
0.435694
0.435762
0.435831
0.4359
0.435969
0.435969
0.436038
0.436107
0.436176
0.436245
0.436245
0.436314
0.436383
0.436452
0.436521
0.436521
0.43659
0.436659
0.436728
0.436797
0.436797
0.436867
0.436936
0.437005
0.437074
0.437074
0.437144
0.437213
0.437283
0.437352
0.437352
0.437421
0.437491
0.43756
0.43763
0.43763
0.437699
0.437769
0.437838
0.437908
0.437908
0.437978
0.438047
0.438117
0.438187
0.438187
0.438256
0.438326
0.438396
0.438466
0.438466
0.438536
0.438606
0.438675
0.438745
0.438745
0.438815
0.438885
0.438955
0.439025
0.439025
0.439095
0.439165
0.439236
0.439306
0.439306
0.439376
0.439446
0.439516
0.439587
0.439587
0.439657
0.439727
0.439797
0.439868
0.439868
0.439938
0.440008
0.440079
0.440149
0.440149
0.44022
0.44029
0.440361
0.440431
0.440431
0.440502
0.440573
0.440643
0.440714
0.440714
0.440785
0.440855
0.440926
0.440997
0.440997
0.441068
0.441138
0.441209
0.44128
0.44128
0.441351
0.441422
0.441493
0.441564
0.441564
0.441635
0.441706
0.441777
0.441848
0.441848
0.441919
0.44199
0.442061
0.442133
0.442133
0.442204
0.442275
0.442346
0.442417
0.442417
0.442489
0.44256
0.442632
0.442703
0.442703
0.442774
0.442846
0.442917
0.442989
0.442989
0.44306
0.443132
0.443203
0.443275
0.443275
0.443347
0.443418
0.44349
0.443562
0.443562
0.443633
0.443705
0.443777
0.443849
0.443849
0.443921
0.443992
0.444064
0.444136
0.444136
0.444208
0.44428
0.444352
0.444424
0.444424
0.444496
0.444568
0.44464
0.444712
0.444712
0.444785
0.444857
0.444929
0.445001
0.445001
0.445073
0.445146
0.445218
0.44529
0.44529
0.445363
0.445435
0.445507
0.44558
0.44558
0.445652
0.445725
0.445797
0.44587
0.44587
0.445942
0.446015
0.446088
0.44616
0.44616
0.446233
0.446306
0.446378
0.446451
0.446451
0.446524
0.446597
0.446669
0.446742
0.446742
0.446815
0.446888
0.446961
0.447034
0.447034
0.447107
0.44718
0.447253
0.447326
0.447326
0.447399
0.447472
0.447545
0.447619
0.447619
0.447692
0.447765
0.447838
0.447911
0.447911
0.447985
0.448058
0.448131
0.448205
0.448205
0.448278
0.448352
0.448425
0.448498
0.448498
0.448572
0.448645
0.448719
0.448793
0.448793
0.448866
0.44894
0.449013
0.449087
0.449087
0.449161
0.449235
0.449308
0.449382
0.449382
0.449456
0.44953
0.449604
0.449678
0.449678
0.449751
0.449825
0.449899
0.449973
0.449973
0.450047
0.450121
0.450195
0.45027
0.45027
0.450344
0.450418
0.450492
0.450566
0.450566
0.45064
0.450715
0.450789
0.450863
0.450863
0.450938
0.451012
0.451086
0.451161
0.451161
0.451235
0.45131
0.451384
0.451459
0.451459
0.451533
0.451608
0.451682
0.451757
0.451757
0.451831
0.451906
0.451981
0.452055
0.452055
0.45213
0.452205
0.45228
0.452355
0.452355
0.452429
0.452504
0.452579
0.452654
0.452654
0.452729
0.452804
0.452879
0.452954
0.452954
0.453029
0.453104
0.453179
0.453254
0.453254
0.45333
0.453405
0.45348
0.453555
0.453555
0.45363
0.453706
0.453781
0.453856
0.453856
0.453932
0.454007
0.454082
0.454158
0.454158
0.454233
0.454309
0.454384
0.45446
0.45446
0.454535
0.454611
0.454687
0.454762
0.454762
0.454838
0.454914
0.454989
0.455065
0.455065
0.455141
0.455217
0.455292
0.455368
0.455368
0.455444
0.45552
0.455596
0.455672
0.455672
0.455748
0.455824
0.4559
0.455976
0.455976
0.456052
0.456128
0.456204
0.45628
0.45628