<?xml version="1.0"?>
<VTKFile type="UnstructuredGrid" version="0.1" byte_order="LittleEndian">
<UnstructuredGrid>
<Piece NumberOfPoints="5000" NumberOfCells="4000">
<PointData Scalars="Reaction 0">
<DataArray type="Float32" Name="Reaction 0" format="ascii">
0.776455
0.776455
0.776455
0.776455
0.776455
0.776455
0.776455
0.776455
0.776455
0.776455
0.776455
0.776455
0.776455
0.776456
0.776456
0.776456
0.776456
0.776456
0.776456
0.776456
0.776456
0.776456
0.776456
0.776456
0.776456
0.776456
0.776456
0.776456
0.776456
0.776457
0.776457
0.776457
0.776457
0.776457
0.776457
0.776457
0.776457
0.776457
0.776457
0.776458
0.776458
0.776458
0.776458
0.776458
0.776458
0.776458
0.776458
0.776459
0.776459
0.776459
0.776459
0.776459
0.776459
0.776459
0.77646
0.77646
0.77646
0.77646
0.77646
0.77646
0.77646
0.776461
0.776461
0.776461
0.776461
0.776461
0.776462
0.776462
0.776462
0.776462
0.776462
0.776463
0.776463
0.776463
0.776463
0.776463
0.776464
0.776464
0.776464
0.776464
0.776464
0.776465
0.776465
0.776465
0.776466
0.776466
0.776466
0.776466
0.776467
0.776467
0.776467
0.776467
0.776468
0.776468
0.776468
0.776468
0.776469
0.776469
0.776469
0.77647
0.77647
0.77647
0.77647
0.776471
0.776471
0.776471
0.776471
0.776472
0.776472
0.776473
0.776473
0.776473
0.776473
0.776474
0.776474
0.776474
0.776475
0.776475
0.776476
0.776476
0.776476
0.776476
0.776477
0.776477
0.776478
0.776478
0.776478
0.776479
0.776479
0.77648
0.77648
0.77648
0.77648
0.776481
0.776481
0.776481
0.776482
0.776482
0.776483
0.776483
0.776483
0.776484
0.776484
0.776485
0.776485
0.776485
0.776486
0.776487
0.776487
0.776488
0.776488
0.776488
0.776489
0.776489
0.77649
0.77649
0.77649
0.776491
0.776491
0.776492
0.776492
0.776493
0.776493
0.776494
0.776494
0.776494
0.776495
0.776496
0.776496
0.776497
0.776497
0.776497
0.776498
0.776499
0.776499
0.776499
0.7765
0.776501
0.776501
0.776502
0.776502
0.776502
0.776503
0.776504
0.776504
0.776504
0.776505
0.776506
0.776506
0.776507
0.776507
0.776508
0.776509
0.776509
0.77651
0.77651
0.776511
0.776511
0.776512
0.776513
0.776513
0.776513
0.776514
0.776515
0.776516
0.776516
0.776516
0.776517
0.776518
0.776519
0.776519
0.776519
0.77652
0.776521
0.776522
0.776522
0.776522
0.776523
0.776524
0.776525
0.776525
0.776526
0.776526
0.776527
0.776528
0.776528
0.776529
0.77653
0.77653
0.776531
0.776531
0.776532
0.776533
0.776534
0.776535
0.776535
0.776535
0.776536
0.776537
0.776538
0.776538
0.776539
0.77654
0.776541
0.776542
0.776542
0.776542
0.776543
0.776544
0.776545
0.776545
0.776546
0.776547
0.776548
0.776549
0.776549
0.77655
0.776551
0.776551
0.776552
0.776552
0.776553
0.776554
0.776555
0.776556
0.776556
0.776557
0.776558
0.776559
0.77656
0.77656
0.776561
0.776562
0.776563
0.776564
0.776564
0.776565
0.776566
0.776567
0.776568
0.776568
0.776569
0.77657
0.776571
0.776572
0.776572
0.776573
0.776574
0.776575
0.776576
0.776576
0.776577
0.776578
0.776579
0.77658
0.77658
0.776581
0.776582
0.776584
0.776585
0.776585
0.776586
0.776587
0.776588
0.776589
0.776589
0.77659
0.776591
0.776592
0.776593
0.776593
0.776595
0.776596
0.776597
0.776598
0.776598
0.776599
0.7766
0.776601
0.776602
0.776602
0.776604
0.776605
0.776606
0.776607
0.776607
0.776608
0.776609
0.776611
0.776612
0.776612
0.776613
0.776614
0.776615
0.776617
0.776617
0.776618
0.776619
0.77662
0.776621
0.776621
0.776623
0.776624
0.776625
0.776626
0.776626
0.776628
0.776629
0.77663
0.776631
0.776631
0.776633
0.776634
0.776635
0.776636
0.776636
0.776638
0.776639
0.77664
0.776642
0.776642
0.776643
0.776644
0.776645
0.776647
0.776647
0.776648
0.776649
0.776651
0.776652
0.776652
0.776653
0.776655
0.776656
0.776657
0.776657
0.776659
0.77666
0.776661
0.776663
0.776663
0.776664
0.776666
0.776667
0.776668
0.776668
0.77667
0.776671
0.776672
0.776674
0.776674
0.776675
0.776677
0.776678
0.77668
0.77668
0.776681
0.776682
0.776684
0.776685
0.776685
0.776687
0.776688
0.77669
0.776691
0.776691
0.776692
0.776694
0.776695
0.776697
0.776697
0.776698
0.7767
0.776701
0.776703
0.776703
0.776704
0.776706
0.776707
0.776709
0.776709
0.77671
0.776712
0.776713
0.776715
0.776715
0.776716
0.776718
0.776719
0.776721
0.776721
0.776723
0.776724
0.776726
0.776727
0.776727
0.776729
0.77673
0.776732
0.776734
0.776734
0.776735
0.776737
0.776738
0.77674
0.77674
0.776741
0.776743
0.776745
0.776746
0.776746
0.776748
0.77675
0.776751
0.776753
0.776753
0.776754
0.776756
0.776758
0.776759
0.776759
0.776761
0.776763
0.776764
0.776766
0.776766
0.776768
0.776769
0.776771
0.776773
0.776773
0.776774
0.776776
0.776778
0.77678
0.77678
0.776781
0.776783
0.776785
0.776786
0.776786
0.776788
0.77679
0.776792
0.776793
0.776793
0.776795
0.776797
0.776798
0.7768
0.7768
0.776802
0.776804
0.776806
0.776807
0.776807
0.776809
0.776811
0.776813
0.776814
0.776814
0.776816
0.776818
0.77682
0.776822
0.776822
0.776823
0.776825
0.776827
0.776829
0.776829
0.776831
0.776833
0.776834
0.776836
0.776836
0.776838
0.77684
0.776842
0.776844
0.776844
0.776846
0.776848
0.776849
0.776851
0.776851
0.776853
0.776855
0.776857
0.776859
0.776859
0.776861
0.776863
0.776865
0.776867
0.776867
0.776869
0.776871
0.776872
0.776874
0.776874
0.776876
0.776878
0.77688
0.776882
0.776882
0.776884
0.776886
0.776888
0.77689
0.77689
0.776892
0.776894
0.776896
0.776898
0.776898
0.7769
0.776902
0.776904
0.776906
0.776906
0.776908
0.77691
0.776912
0.776914
0.776914
0.776916
0.776918
0.77692
0.776922
0.776922
0.776924
0.776926
0.776928
0.776931
0.776931
0.776933
0.776935
0.776937
0.776939
0.776939
0.776941
0.776943
0.776945
0.776947
0.776947
0.776949
0.776951
0.776954
0.776956
0.776956
0.776958
0.77696
0.776962
0.776964
0.776964
0.776966
0.776968
0.776971
0.776973
0.776973
0.776975
0.776977
0.776979
0.776981
0.776981
0.776984
0.776986
0.776988
0.77699
0.77699
0.776992
0.776995
0.776997
0.776999
0.776999
0.777001
0.777003
0.777006
0.777008
0.777008
0.77701
0.777012
0.777015
0.777017
0.777017
0.777019
0.777021
0.777024
0.777026
0.777026
0.777028
0.77703
0.777033
0.777035
0.777035
0.777037
0.77704
0.777042
0.777044
0.777044
0.777046
0.777049
0.777051
0.777053
0.777053
0.777056
0.777058
0.77706
0.777063
0.777063
0.777065
0.777067
0.77707
0.777072
0.777072
0.777074
0.777077
0.777079
0.777082
0.777082
0.777084
0.777086
0.777089
0.777091
0.777091
0.777093
0.777096
0.777098
0.777101
0.777101
0.777103
0.777105
0.777108
0.77711
0.77711
0.777113
0.777115
0.777118
0.77712
0.77712
0.777123
0.777125
0.777127
0.77713
0.77713
0.777132
0.777135
0.777137
0.77714
0.77714
0.777142
0.777145
0.777147
0.77715
0.77715
0.777152
0.777155
0.777157
0.77716
0.77716
0.777162
0.777165
0.777167
0.77717
0.77717
0.777172
0.777175
0.777178
0.77718
0.77718
0.777183
0.777185
0.777188
0.77719
0.77719
0.777193
0.777195
0.777198
0.777201
0.777201
0.777203
0.777206
0.777208
0.777211
0.777211
0.777214
0.777216
0.777219
0.777221
0.777221
0.777224
0.777227
0.777229
0.777232
0.777232
0.777235
0.777237
0.77724
0.777243
0.777243
0.777245
0.777248
0.777251
0.777253
0.777253
0.777256
0.777259
0.777261
0.777264
0.777264
0.777267
0.777269
0.777272
0.777275
0.777275
0.777278
0.77728
0.777283
0.777286
0.777286
0.777289
0.777291
0.777294
0.777297
0.777297
0.7773
0.777302
0.777305
0.777308
0.777308
0.777311
0.777313
0.777316
0.777319
0.777319
0.777322
0.777325
0.777327
0.77733
0.77733
0.777333
0.777336
0.777339
0.777341
0.777341
0.777344
0.777347
0.77735
0.777353
0.777353
0.777356
0.777358
0.777361
0.777364
0.777364
0.777367
0.77737
0.777373
0.777376
0.777376
0.777378
0.777381
0.777384
0.777387
0.777387
0.77739
0.777393
0.777396
0.777399
0.777399
0.777402
0.777405
0.777408
0.77741
0.77741
0.777413
0.777416
0.777419
0.777422
0.777422
0.777425
0.777428
0.777431
0.777434
0.777434
0.777437
0.77744
0.777443
0.777446
0.777446
0.777449
0.777452
0.777455
0.777458
0.777458
0.777461
0.777464
0.777467
0.77747
0.77747
0.777473
0.777476
0.777479
0.777482
0.777482
0.777485
0.777488
0.777491
0.777494
0.777494
0.777497
0.7775
0.777504
0.777507
0.777507
0.77751
0.777513
0.777516
0.777519
0.777519
0.777522
0.777525
0.777528
0.777531
0.777531
0.777534
0.777538
0.777541
0.777544
0.777544
0.777547
0.77755
0.777553
0.777556
0.777556
0.77756
0.777563
0.777566
0.777569
0.777569
0.777572
0.777575
0.777579
0.777582
0.777582
0.777585
0.777588
0.777591
0.777594
0.777594
0.777598
0.777601
0.777604
0.777607
0.777607
0.777611
0.777614
0.777617
0.77762
0.77762
0.777623
0.777627
0.77763
0.777633
0.777633
0.777636
0.77764
0.777643
0.777646
0.777646
0.77765
0.777653
0.777656
0.777659
0.777659
0.777663
0.777666
0.777669
0.777673
0.777673
0.777676
0.777679
0.777682
0.777686
0.777686
0.777689
0.777692
0.777696
0.777699
0.777699
0.777702
0.777706
0.777709
0.777712
0.777712
0.777716
0.777719
0.777722
0.777726
0.777726
0.777729
0.777733
0.777736
0.777739
0.777739
0.777743
0.777746
0.77775
0.777753
0.777753
0.777757
0.77776
0.777763
0.777767
0.777767
0.77777
0.777774
0.777777
0.777781
0.777781
0.777784
0.777788
0.777791
0.777795
0.777795
0.777798
0.777802
0.777805
0.777809
0.777809
0.777812
0.777816
0.777819
0.777823
0.777823
0.777826
0.77783
0.777833
0.777837
0.777837
0.77784
0.777844
0.777847
0.777851
0.777851
0.777854
0.777858
0.777862
0.777865
0.777865
0.777869
0.777872
0.777876
0.777879
0.777879
0.777883
0.777887
0.77789
0.777894
0.777894
0.777897
0.777901
0.777905
0.777908
0.777908
0.777912
0.777915
0.777919
0.777923
0.777923
0.777926
0.77793
0.777934
0.777937
0.777937
0.777941
0.777945
0.777948
0.777952
0.777952
0.777956
0.777959
0.777963
0.777967
0.777967
0.77797
0.777974
0.777978
0.777982
0.777982
0.777985
0.777989
0.777993
0.777996
0.777996
0.778
0.778004
0.778008
0.778011
0.778011
0.778015
0.778019
0.778023
0.778026
0.778026
0.77803
0.778034
0.778038
0.778041
0.778041
0.778045
0.778049
0.778053
0.778057
0.778057
0.77806
0.778064
0.778068
0.778072
0.778072
0.778076
0.778079
0.778083
0.778087
0.778087
0.778091
0.778095
0.778099
0.778103
0.778103
0.778106
0.77811
0.778114
0.778118
0.778118
0.778122
0.778126
0.77813
0.778133
0.778133
0.778137
0.778141
0.778145
0.778149
0.778149
0.778153
0.778157
0.778161
0.778165
0.778165
0.778169
0.778173
0.778177
0.77818
0.77818
0.778184
0.778188
0.778192
0.778196
0.778196
0.7782
0.778204
0.778208
0.778212
0.778212
0.778216
0.77822
0.778224
0.778228
0.778228
0.778232
0.778236
0.77824
0.778244
0.778244
0.778248
0.778252
0.778256
0.77826
0.77826
0.778264
0.778268
0.778272
0.778276
0.778276
0.778281
0.778285
0.778289
0.778293
0.778293
0.778297
0.778301
0.778305
0.778309
0.778309
0.778313
0.778317
0.778321
0.778325
0.778325
0.77833
0.778334
0.778338
0.778342
0.778342
0.778346
0.77835
0.778354
0.778358
0.778358
0.778363
0.778367
0.778371
0.778375
0.778375
0.778379
0.778383
0.778388
0.778392
0.778392
0.778396
0.7784
0.778404
0.778408
0.778408
0.778413
0.778417
0.778421
0.778425
0.778425
0.778429
0.778434
0.778438
0.778442
0.778442
0.778446
0.778451
0.778455
0.778459
0.778459
0.778463
0.778468
0.778472
0.778476
0.778476
0.77848
0.778485
0.778489
0.778493
0.778493
0.778498
0.778502
0.778506
0.77851
0.77851
0.778515
0.778519
0.778523
0.778528
0.778528
0.778532
0.778536
0.778541
0.778545
0.778545
0.778549
0.778554
0.778558
0.778562
0.778562
0.778567
0.778571
0.778575
0.77858
0.77858
0.778584
0.778589
0.778593
0.778597
0.778597
0.778602
0.778606
0.77861
0.778615
0.778615
0.778619
0.778624
0.778628
0.778632
0.778632
0.778637
0.778641
0.778646
0.77865
0.77865
0.778655
0.778659
0.778663
0.778668
0.778668
0.778672
0.778677
0.778681
0.778686
0.778686
0.77869
0.778695
0.778699
0.778704
0.778704
0.778708
0.778713
0.778717
0.778722
0.778722
0.778727
0.778731
0.778736
0.77874
0.77874
0.778745
0.778749
0.778754
0.778758
0.778758
0.778763
0.778768
0.778772
0.778777
0.778777
0.778781
0.778786
0.778791
0.778795
0.778795
0.7788
0.778804
0.778809
0.778814
0.778814
0.778818
0.778823
0.778828
0.778832
0.778832
0.778837
0.778841
0.778846
0.778851
0.778851
0.778855
0.77886
0.778865
0.778869
0.778869
0.778874
0.778879
0.778883
0.778888
0.778888
0.778893
0.778898
0.778902
0.778907
0.778907
0.778912
0.778916
0.778921
0.778926
0.778926
0.778931
0.778935
0.77894
0.778945
0.778945
0.778949
0.778954
0.778959
0.778964
0.778964
0.778968
0.778973
0.778978
0.778983
0.778983
0.778988
0.778992
0.778997
0.779002
0.779002
0.779007
0.779012
0.779016
0.779021
0.779021
0.779026
0.779031
0.779036
0.77904
0.77904
0.779045
0.77905
0.779055
0.77906
0.77906
0.779065
0.77907
0.779074
0.779079
0.779079
0.779084
0.779089
0.779094
0.779099
0.779099
0.779104
0.779109
0.779113
0.779118
0.779118
0.779123
0.779128
0.779133
0.779138
0.779138
0.779143
0.779148
0.779153
0.779158
0.779158
0.779163
0.779168
0.779173
0.779178
0.779178
0.779183
0.779187
0.779192
0.779197
0.779197
0.779202
0.779207
0.779212
0.779217
0.779217
0.779222
0.779227
0.779232
0.779237
0.779237
0.779242
0.779247
0.779252
0.779257
0.779257
0.779263
0.779268
0.779273
0.779278
0.779278
0.779283
0.779288
0.779293
0.779298
0.779298
0.779303
0.779308
0.779313
0.779318
0.779318
0.779323
0.779328
0.779333
0.779339
0.779339
0.779344
0.779349
0.779354
0.779359
0.779359
0.779364
0.779369
0.779374
0.77938
0.77938
0.779385
0.77939
0.779395
0.7794
0.7794
0.779405
0.77941
0.779416
0.779421
0.779421
0.779426
0.779431
0.779436
0.779441
0.779441
0.779447
0.779452
0.779457
0.779462
0.779462
0.779467
0.779473
0.779478
0.779483
0.779483
0.779488
0.779494
0.779499
0.779504
0.779504
0.779509
0.779515
0.77952
0.779525
0.779525
0.77953
0.779536
0.779541
0.779546
0.779546
0.779551
0.779557
0.779562
0.779567
0.779567
0.779572
0.779578
0.779583
0.779588
0.779588
0.779594
0.779599
0.779604
0.77961
0.77961
0.779615
0.77962
0.779626
0.779631
0.779631
0.779636
0.779642
0.779647
0.779652
0.779652
0.779658
0.779663
0.779669
0.779674
0.779674
0.77968
0.779685
0.77969
0.779696
0.779696
0.779701
0.779707
0.779712
0.779718
0.779718
0.779723
0.779728
0.779734
0.779739
0.779739
0.779745
0.77975
0.779756
0.779761
0.779761
0.779767
0.779772
0.779778
0.779783
0.779783
0.779789
0.779794
0.7798
0.779805
0.779805
0.779811
0.779816
0.779822
0.779827
0.779827
0.779833
0.779838
0.779844
0.77985
0.77985
0.779855
0.779861
0.779866
0.779872
0.779872
0.779877
0.779883
0.779888
0.779894
0.779894
0.7799
0.779905
0.779911
0.779916
0.779916
0.779922
0.779928
0.779933
0.779939
0.779939
0.779944
0.77995
0.779956
0.779961
0.779961
0.779967
0.779973
0.779978
0.779984
0.779984
0.77999
0.779995
0.780001
0.780006
0.780006
0.780012
0.780018
0.780024
0.780029
0.780029
0.780035
0.780041
0.780046
0.780052
0.780052
0.780058
0.780063
0.780069
0.780075
0.780075
0.780081
0.780086
0.780092
0.780098
0.780098
0.780104
0.780109
0.780115
0.780121
0.780121
0.780127
0.780132
0.780138
0.780144
0.780144
0.78015
0.780155
0.780161
0.780167
0.780167
0.780173
0.780179
0.780184
0.78019
0.78019
0.780196
0.780202
0.780208
0.780214
0.780214
0.780219
0.780225
0.780231
0.780237
0.780237
0.780243
0.780249
0.780254
0.78026
0.78026
0.780266
0.780272
0.780278
0.780284
0.780284
0.78029
0.780296
0.780302
0.780307
0.780307
0.780313
0.780319
0.780325
0.780331
0.780331
0.780337
0.780343
0.780349
0.780355
0.780355
0.780361
0.780367
0.780373
0.780379
0.780379
0.780385
0.78039
0.780396
0.780402
0.780402
0.780408
0.780414
0.78042
0.780426
0.780426
0.780432
0.780438
0.780444
0.78045
0.78045
0.780456
0.780462
0.780468
0.780474
0.780474
0.78048
0.780486
0.780492
0.780498
0.780498
0.780504
0.78051
0.780517
0.780523
0.780523
0.780529
0.780535
0.780541
0.780547
0.780547
0.780553
0.780559
0.780565
0.780571
0.780571
0.780577
0.780583
0.780589
0.780596
0.780596
0.780602
0.780608
0.780614
0.78062
0.78062
0.780626
0.780632
0.780639
0.780645
0.780645
0.780651
0.780657
0.780663
0.78067
0.78067
0.780676
0.780682
0.780688
0.780694
0.780694
0.780701
0.780707
0.780713
0.780719
0.780719
0.780726
0.780732
0.780738
0.780744
0.780744
0.780751
0.780757
0.780763
0.780769
0.780769
0.780776
0.780782
0.780788
0.780794
0.780794
0.780801
0.780807
0.780813
0.78082
0.78082
0.780826
0.780832
0.780838
0.780845
0.780845
0.780851
0.780857
0.780864
0.78087
0.78087
0.780876
0.780883
0.780889
0.780895
0.780895
0.780902
0.780908
0.780914
0.780921
0.780921
0.780927
0.780934
0.78094
0.780946
0.780946
0.780953
0.780959
0.780966
0.780972
0.780972
0.780978
0.780985
0.780991
0.780998
0.780998
0.781004
0.78101
0.781017
0.781023
0.781023
0.78103
0.781036
0.781043
0.781049
0.781049
0.781056
0.781062
0.781068
0.781075
0.781075
0.781081
0.781088
0.781094
0.781101
0.781101
0.781107
0.781114
0.78112
0.781127
0.781127
0.781133
0.78114
0.781146
0.781153
0.781153
0.781159
0.781166
0.781173
0.781179
0.781179
0.781186
0.781192
0.781199
0.781205
0.781205
0.781212
0.781218
0.781225
0.781232
0.781232
0.781238
0.781245
0.781251
0.781258
0.781258
0.781265
0.781271
0.781278
0.781284
0.781284
0.781291
0.781298
0.781304
0.781311
0.781311
0.781317
0.781324
0.781331
0.781337
0.781337
0.781344
0.781351
0.781357
0.781364
0.781364
0.781371
0.781377
0.781384
0.781391
0.781391
0.781397
0.781404
0.781411
0.781417
0.781417
0.781424
0.781431
0.781438
0.781444
0.781444
0.781451
0.781458
0.781464
0.781471
0.781471
0.781478
0.781485
0.781491
0.781498
0.781498
0.781505
0.781512
0.781518
0.781525
0.781525
0.781532
0.781539
0.781545
0.781552
0.781552
0.781559
0.781566
0.781573
0.781579
0.781579
0.781586
0.781593
0.7816
0.781607
0.781607
0.781614
0.78162
0.781627
0.781634
0.781634
0.781641
0.781648
0.781655
0.781662
0.781662
0.781669
0.781676
0.781683
0.781689
0.781689
0.781696
0.781703
0.78171
0.781717
0.781717
0.781724
0.781731
0.781738
0.781745
0.781745
0.781752
0.781759
0.781766
0.781773
0.781773
0.78178
0.781787
0.781794
0.781801
0.781801
0.781808
0.781815
0.781821
0.781828
0.781828
0.781835
0.781842
0.781849
0.781856
0.781856
0.781864
0.781871
0.781878
0.781885
0.781885
0.781892
0.781899
0.781906
0.781913
0.781913
0.78192
0.781927
0.781934
0.781941
0.781941
0.781948
0.781955
0.781962
0.781969
0.781969
0.781976
0.781983
0.78199
0.781998
0.781998
0.782005
0.782012
0.782019
0.782026
0.782026
0.782033
0.78204
0.782047
0.782054
0.782054
0.782062
0.782069
0.782076
0.782083
0.782083
0.78209
0.782097
0.782104
0.782112
0.782112
0.782119
0.782126
0.782133
0.78214
0.78214
0.782148
0.782155
0.782162
0.782169
0.782169
0.782176
0.782184
0.782191
0.782198
0.782198
0.782205
0.782212
0.78222
0.782227
0.782227
0.782234
0.782241
0.782249
0.782256
0.782256
0.782263
0.78227
0.782278
0.782285
0.782285
0.782292
0.7823
0.782307
0.782314
0.782314
0.782321
0.782329
0.782336
0.782343
0.782343
0.782351
0.782358
0.782365
0.782373
0.782373
0.78238
0.782387
0.782395
0.782402
0.782402
0.782409
0.782417
0.782424
0.782431
0.782431
0.782439
0.782446
0.782453
0.782461
0.782461
0.782468
0.782475
0.782483
0.78249
0.78249
0.782497
0.782505
0.782512
0.78252
0.78252
0.782527
0.782534
0.782542
0.782549
0.782549
0.782557
0.782564
0.782572
0.782579
0.782579
0.782587
0.782594
0.782602
0.782609
0.782609
0.782617
0.782624
0.782632
0.782639
0.782639
0.782647
0.782654
0.782662
0.782669
0.782669
0.782677
0.782684
0.782692
0.7827
0.7827
0.782707
0.782715
0.782722
0.78273
0.78273
0.782737
0.782745
0.782753
0.78276
0.78276
0.782768
0.782775
0.782783
0.782791
0.782791
0.782798
0.782806
0.782813
0.782821
0.782821
0.782829
0.782836
0.782844
0.782852
0.782852
0.782859
0.782867
0.782874
0.782882
0.782882
0.78289
0.782897
0.782905
0.782913
0.782913
0.78292
0.782928
0.782936
0.782943
0.782943
0.782951
0.782959
0.782967
0.782974
0.782974
0.782982
0.78299
0.782997
0.783005
0.783005
0.783013
0.783021
0.783028
0.783036
0.783036
0.783044
0.783052
0.783059
0.783067
0.783067
0.783075
0.783083
0.78309
0.783098
0.783098
0.783106
0.783114
0.783121
0.783129
0.783129
0.783137
0.783145
0.783153
0.78316
0.78316
0.783168
0.783176
0.783184
0.783192
0.783192
0.7832
0.783207
0.783215
0.783223
0.783223
0.783231
0.783239
0.783247
0.783254
0.783254
0.783262
0.78327
0.783278
0.783286
0.783286
0.783294
0.783302
0.78331
0.783317
0.783317
0.783325
0.783333
0.783341
0.783349
0.783349
0.783357
0.783365
0.783373
0.783381
0.783381
0.783389
0.783397
0.783405
0.783412
0.783412
0.78342
0.783428
0.783436
0.783444
0.783444
0.783452
0.78346
0.783468
0.783476
0.783476
0.783484
0.783492
0.7835
0.783508
0.783508
0.783516
0.783524
0.783532
0.78354
0.78354
0.783548
0.783556
0.783564
0.783572
0.783572
0.78358
0.783588
0.783596
0.783605
0.783605
0.783613
0.783621
0.783629
0.783637
0.783637
0.783645
0.783653
0.783661
0.78367
0.78367
0.783678
0.783686
0.783694
0.783702
0.783702
0.78371
0.783718
0.783727
0.783735
0.783735
0.783743
0.783751
0.783759
0.783767
0.783767
0.783776
0.783784
0.783792
0.7838
0.7838
0.783808
0.783817
0.783825
0.783833
0.783833
0.783841
0.783849
0.783858
0.783866
0.783866
0.783874
0.783882
0.783891
0.783899
0.783899
0.783907
0.783915
0.783924
0.783932
0.783932
0.78394
0.783948
0.783957
0.783965
0.783965
0.783973
0.783981
0.78399
0.783998
0.783998
0.784006
0.784015
0.784023
0.784031
0.784031
0.78404
0.784048
0.784056
0.784065
0.784065
0.784073
0.784081
0.78409
0.784098
0.784098
0.784106
0.784115
0.784123
0.784131
0.784131
0.78414
0.784148
0.784156
0.784165
0.784165
0.784173
0.784182
0.78419
0.784198
0.784198
0.784207
0.784215
0.784224
0.784232
0.784232
0.78424
0.784249
0.784257
0.784266
0.784266
0.784274
0.784283
0.784291
0.784299
0.784299
0.784308
0.784316
0.784325
0.784333
0.784333
0.784342
0.78435
0.784359
0.784367
0.784367
0.784376
0.784384
0.784393
0.784401
0.784401
0.78441
0.784418
0.784427
0.784435
0.784435
0.784444
0.784452
0.784461
0.784469
0.784469
0.784478
0.784486
0.784495
0.784503
0.784503
0.784512
0.78452
0.784529
0.784537
0.784537
0.784546
0.784555
0.784563
0.784572
0.784572
0.784581
0.784589
0.784598
0.784606
0.784606
0.784615
0.784624
0.784632
0.784641
0.784641
0.78465
0.784658
0.784667
0.784676
0.784676
0.784685
0.784693
0.784702
0.784711
0.784711
0.784719
0.784728
0.784737
0.784746
0.784746
0.784754
0.784763
0.784772
0.78478
0.78478
0.784789
0.784798
0.784807
0.784815
0.784815
0.784824
0.784833
0.784842
0.78485
0.78485
0.784859
0.784868
0.784877
0.784886
0.784886
0.784894
0.784903
0.784912
0.784921
0.784921
0.784929
0.784938
0.784947
0.784956
0.784956
0.784965
0.784974
0.784982
0.784991
0.784991
0.785
0.785009
0.785018
0.785027
0.785027
0.785035
0.785044
0.785053
0.785062
0.785062
0.785071
0.78508
0.785089
0.785098
0.785098
0.785106
0.785115
0.785124
0.785133
0.785133
0.785142
0.785151
0.78516
0.785169
0.785169
0.785178
0.785187
0.785196
0.785204
0.785204
0.785213
0.785222
0.785231
0.78524
0.78524
0.785249
0.785258
0.785267
0.785276
0.785276
0.785285
0.785294
0.785303
0.785312
0.785312
0.785321
0.78533
0.785339
0.785348
0.785348
0.785357
0.785366
0.785375
0.785384
0.785384
0.785393
0.785402
0.785411
0.78542
0.78542
0.785429
0.785438
0.785447
0.785456
0.785456
0.785465
0.785474
0.785483
0.785492
0.785492
0.785501
0.78551
0.78552
0.785529
0.785529
0.785538
0.785547
0.785556
0.785565
0.785565
0.785574
0.785583
0.785593
0.785602
0.785602
0.785611
0.78562
0.785629
0.785638
0.785638
0.785648
0.785657
0.785666
0.785675
0.785675
0.785684
0.785694
0.785703
0.785712
0.785712
0.785721
0.785731
0.78574
0.785749
0.785749
0.785758
0.785768
0.785777
0.785786
0.785786
0.785795
0.785805
0.785814
0.785823
0.785823
0.785832
0.785842
0.785851
0.78586
0.78586
0.78587
0.785879
0.785888
0.785897
0.785897
0.785907
0.785916
0.785925
0.785935
0.785935
0.785944
0.785953
0.785963
0.785972
0.785972
0.785981
0.785991
0.786
0.786009
0.786009
0.786019
0.786028
0.786037
0.786047
0.786047
0.786056
0.786066
0.786075
0.786084
0.786084
0.786094
0.786103
0.786113
0.786122
0.786122
0.786131
0.786141
0.78615
0.78616
0.78616
0.786169
0.786178
0.786188
0.786197
0.786197
0.786207
0.786216
0.786226
0.786235
0.786235
0.786245
0.786254
0.786263
0.786273
0.786273
0.786282
0.786292
0.786301
0.786311
0.786311
0.78632
0.78633
0.786339
0.786349
0.786349
0.786358
0.786368
0.786377
0.786387
0.786387
0.786396
0.786406
0.786415
0.786425
0.786425
0.786434
0.786444
0.786453
0.786463
0.786463
0.786473
0.786482
0.786492
0.786501
0.786501
0.786511
0.78652
0.78653
0.78654
0.78654
0.786549
0.786559
0.786568
0.786578
0.786578
0.786588
0.786597
0.786607
0.786617
0.786617
0.786626
0.786636
0.786646
0.786655
0.786655
0.786665
0.786675
0.786684
0.786694
0.786694
0.786704
0.786714
0.786723
0.786733
0.786733
0.786743
0.786753
0.786762
0.786772
0.786772
0.786782
0.786792
0.786801
0.786811
0.786811
0.786821
0.786831
0.78684
0.78685
0.78685
0.78686
0.78687
0.78688
0.786889
0.786889
0.786899
0.786909
0.786919
0.786928
0.786928
0.786938
0.786948
0.786958
0.786968
0.786968
0.786978
0.786987
0.786997
0.787007
0.787007
0.787017
0.787027
0.787037
0.787046
0.787046
0.787056
0.787066
0.787076
0.787086
0.787086
0.787096
0.787106
0.787116
0.787125
0.787125
0.787135
0.787145
0.787155
0.787165
0.787165
0.787175
0.787185
0.787195
0.787205
0.787205
0.787215
0.787225
0.787234
0.787244
0.787244
0.787254
0.787264
0.787274
0.787284
0.787284
0.787294
0.787304
0.787314
0.787324
0.787324
0.787334
0.787344
0.787354
0.787364
0.787364
0.787374
0.787384
0.787394
0.787404
0.787404
0.787414
0.787424
0.787434
0.787444
0.787444
0.787454
0.787464
0.787474
0.787484
0.787484
0.787494
0.787504
0.787514
0.787524
0.787524
0.787534
0.787544
0.787554
0.787564
0.787564
0.787574
0.787585
0.787595
0.787605
0.787605
0.787615
0.787625
0.787635
0.787645
0.787645
0.787656
0.787666
0.787676
0.787686
0.787686
0.787696
0.787706
0.787717
0.787727
0.787727
0.787737
0.787747
0.787758
0.787768
0.787768
0.787778
0.787788
0.787798
0.787809
0.787809
0.787819
0.787829
0.787839
0.78785
0.78785
0.78786
0.78787
0.78788
0.787891
0.787891
0.787901
0.787911
0.787921
0.787932
0.787932
0.787942
0.787952
0.787962
0.787973
0.787973
0.787983
0.787993
0.788004
0.788014
0.788014
0.788024
0.788035
0.788045
0.788055
0.788055
0.788066
0.788076
0.788086
0.788097
0.788097
0.788107
0.788117
0.788128
0.788138
0.788138
0.788148
0.788159
0.788169
0.788179
0.788179
0.78819
0.7882
0.788211
0.788221
0.788221
0.788231
0.788242
0.788252
0.788263
0.788263
0.788273
0.788283
0.788294
0.788304
0.788304
0.788315
0.788325
0.788335
0.788346
0.788346
0.788356
0.788367
0.788377
0.788388
0.788388
0.788398
0.788408
0.788419
0.788429
0.788429
0.78844
0.78845
0.788461
0.788471
0.788471
0.788482
0.788492
0.788503
0.788513
0.788513
0.788524
0.788534
0.788545
0.788555
0.788555
0.788566
0.788576
0.788587
0.788597
0.788597
0.788608
0.788619
0.788629
0.78864
0.78864
0.78865
0.788661
0.788672
0.788682
0.788682
0.788693
0.788704
0.788714
0.788725
0.788725
0.788736
0.788746
0.788757
0.788768
0.788768
0.788778
0.788789
0.7888
0.78881
0.78881
0.788821
0.788832
0.788842
0.788853
0.788853
0.788864
0.788874
0.788885
0.788896
0.788896
0.788907
0.788917
0.788928
0.788939
0.788939
0.788949
0.78896
0.788971
0.788982
0.788982
0.788992
0.789003
0.789014
0.789025
0.789025
0.789035
0.789046
0.789057
0.789068
0.789068
0.789078
0.789089
0.7891
0.789111
0.789111
0.789122
0.789132
0.789143
0.789154
0.789154
0.789165
0.789176
0.789186
0.789197
0.789197
0.789208
0.789219
0.78923
0.789241
0.789241
0.789251
0.789262
0.789273
0.789284
0.789284
0.789295
0.789306
0.789317
0.789327
0.789327
0.789338
0.789349
0.78936
0.789371
0.789371
0.789382
0.789393
0.789403
0.789414
0.789414
0.789425
0.789436
0.789447
0.789458
0.789458
0.789469
0.78948
0.789491
0.789502
0.789502
0.789513
0.789523
0.789534
0.789545
0.789545
0.789556
0.789567
0.789578
0.789589
0.789589
0.7896
0.789611
0.789622
0.789633
0.789633
0.789644
0.789655
0.789666
0.789678
0.789678
0.789689
0.7897
0.789711
0.789722
0.789722
0.789733
0.789744
0.789755
0.789766
0.789766
0.789777
0.789788
0.7898
0.789811
0.789811
0.789822
0.789833
0.789844
0.789855
0.789855
0.789866
0.789877
0.789889
0.7899
0.7899
0.789911
0.789922
0.789933
0.789944
0.789944
0.789956
0.789967
0.789978
0.789989
0.789989
0.79
0.790011
0.790023
0.790034
0.790034
0.790045
0.790056
0.790067
0.790079
0.790079
0.79009
0.790101
0.790112
0.790123
0.790123
0.790135
0.790146
0.790157
0.790168
0.790168
0.79018
0.790191
0.790202
0.790213
0.790213
0.790225
0.790236
0.790247
0.790258
0.790258
0.79027
0.790281
0.790292
0.790303
0.790303
0.790315
0.790326
0.790337
0.790349
0.790349
0.79036
0.790371
0.790382
0.790394
0.790394
0.790405
0.790416
0.790428
0.790439
0.790439
0.79045
0.790462
0.790473
0.790484
0.790484
0.790496
0.790507
0.790518
0.79053
0.79053
0.790541
0.790552
0.790564
0.790575
0.790575
0.790587
0.790598
0.790609
0.790621
0.790621
0.790632
0.790644
0.790655
0.790667
0.790667
0.790678
0.79069
0.790701
0.790713
0.790713
0.790724
0.790736
0.790747
0.790759
0.790759
0.79077
0.790782
0.790793
0.790805
0.790805
0.790816
0.790828
0.790839
0.790851
0.790851
0.790863
0.790874
0.790886
0.790897
0.790897
0.790909
0.79092
0.790932
0.790944
0.790944
0.790955
0.790967
0.790978
0.79099
0.79099
0.791001
0.791013
0.791025
0.791036
0.791036
0.791048
0.791059
0.791071
0.791083
0.791083
0.791094
0.791106
0.791118
0.791129
0.791129
0.791141
0.791152
0.791164
0.791176
0.791176
0.791187
0.791199
0.791211
0.791222
0.791222
0.791234
0.791246
0.791257
0.791269
0.791269
0.791281
0.791292
0.791304
0.791316
0.791316
0.791328
0.791339
0.791351
0.791363
0.791363
0.791374
0.791386
0.791398
0.79141
0.79141
0.791421
0.791433
0.791445
0.791456
0.791456
0.791468
0.79148
0.791492
0.791503
0.791503
0.791515
0.791527
0.791539
0.79155
0.79155
0.791562
0.791574
0.791586
0.791598
0.791598
0.791609
0.791621
0.791633
0.791645
0.791645
0.791657
0.791669
0.791681
0.791692
0.791692
0.791704
0.791716
0.791728
0.79174
0.79174
0.791752
0.791764
0.791776
0.791788
0.791788
0.7918
0.791812
0.791824
0.791836
0.791836
0.791848
0.791859
0.791871
0.791883
0.791883
0.791895
0.791907
0.791919
0.791931
0.791931
0.791943
0.791955
0.791967
0.791979
0.791979
0.791991
0.792003
0.792015
0.792027
0.792027
0.792039
0.792051
0.792063
0.792075
0.792075
0.792087
0.792099
0.792111
0.792123
0.792123
0.792135
0.792147
0.792159
0.792172
0.792172
0.792184
0.792196
0.792208
0.79222
0.79222
0.792232
0.792244
0.792256
0.792268
0.792268
0.79228
0.792292
0.792304
0.792316
0.792316
0.792328
0.792341
0.792353
0.792365
0.792365
0.792377
0.792389
0.792401
0.792413
0.792413
0.792425
0.792437
0.79245
0.792462
0.792462
0.792474
0.792486
0.792498
0.79251
0.79251
0.792522
0.792535
0.792547
0.792559
0.792559
0.792571
0.792583
0.792595
0.792608
0.792608
0.79262
0.792632
0.792644
0.792657
0.792657
0.792669
0.792681
0.792693
0.792706
0.792706