<?xml version="1.0"?>
<VTKFile type="UnstructuredGrid" version="0.1" byte_order="LittleEndian">
<UnstructuredGrid>
<Piece NumberOfPoints="5000" NumberOfCells="4000">
<PointData Scalars="Reaction 0">
<DataArray type="Float32" Name="Reaction 0" format="ascii">
0.820961
0.820961
0.820961
0.820961
0.820961
0.820961
0.820961
0.820961
0.820961
0.820961
0.820961
0.820961
0.820961
0.820961
0.820961
0.820961
0.820961
0.820961
0.820961
0.820961
0.820961
0.820961
0.820961
0.820961
0.820961
0.820961
0.820962
0.820962
0.820962
0.820962
0.820962
0.820962
0.820962
0.820962
0.820962
0.820962
0.820962
0.820962
0.820963
0.820963
0.820963
0.820963
0.820963
0.820963
0.820963
0.820963
0.820963
0.820964
0.820964
0.820964
0.820964
0.820964
0.820964
0.820964
0.820965
0.820965
0.820965
0.820965
0.820965
0.820965
0.820965
0.820965
0.820966
0.820966
0.820966
0.820966
0.820966
0.820966
0.820967
0.820967
0.820967
0.820967
0.820967
0.820968
0.820968
0.820968
0.820968
0.820968
0.820969
0.820969
0.820969
0.820969
0.820969
0.82097
0.82097
0.82097
0.82097
0.82097
0.820971
0.820971
0.820971
0.820971
0.820972
0.820972
0.820972
0.820972
0.820972
0.820973
0.820973
0.820973
0.820973
0.820974
0.820974
0.820974
0.820975
0.820975
0.820975
0.820975
0.820976
0.820976
0.820976
0.820976
0.820977
0.820977
0.820977
0.820977
0.820978
0.820978
0.820979
0.820979
0.820979
0.820979
0.82098
0.82098
0.820981
0.820981
0.820981
0.820981
0.820982
0.820982
0.820982
0.820983
0.820983
0.820983
0.820984
0.820984
0.820984
0.820985
0.820985
0.820986
0.820986
0.820986
0.820986
0.820987
0.820987
0.820987
0.820988
0.820988
0.820989
0.820989
0.820989
0.82099
0.82099
0.820991
0.820991
0.820991
0.820992
0.820992
0.820993
0.820993
0.820993
0.820994
0.820994
0.820995
0.820995
0.820995
0.820996
0.820996
0.820997
0.820997
0.820997
0.820998
0.820998
0.820999
0.821
0.821
0.821
0.821001
0.821001
0.821002
0.821002
0.821002
0.821003
0.821004
0.821004
0.821004
0.821005
0.821005
0.821006
0.821007
0.821007
0.821007
0.821008
0.821008
0.821009
0.821009
0.82101
0.82101
0.821011
0.821012
0.821012
0.821012
0.821013
0.821013
0.821014
0.821014
0.821015
0.821015
0.821016
0.821017
0.821017
0.821017
0.821018
0.821019
0.821019
0.821019
0.82102
0.821021
0.821021
0.821022
0.821022
0.821023
0.821024
0.821024
0.821025
0.821025
0.821026
0.821026
0.821027
0.821028
0.821028
0.821029
0.821029
0.82103
0.821031
0.821031
0.821032
0.821032
0.821033
0.821034
0.821034
0.821035
0.821035
0.821036
0.821037
0.821037
0.821038
0.821039
0.821039
0.82104
0.82104
0.821041
0.821042
0.821042
0.821043
0.821043
0.821044
0.821045
0.821046
0.821047
0.821047
0.821047
0.821048
0.821049
0.82105
0.82105
0.821051
0.821052
0.821052
0.821053
0.821053
0.821054
0.821055
0.821056
0.821057
0.821057
0.821058
0.821059
0.821059
0.82106
0.82106
0.821061
0.821062
0.821063
0.821064
0.821064
0.821065
0.821066
0.821067
0.821068
0.821068
0.821068
0.821069
0.82107
0.821071
0.821071
0.821072
0.821073
0.821074
0.821075
0.821075
0.821076
0.821077
0.821078
0.821079
0.821079
0.82108
0.821081
0.821082
0.821083
0.821083
0.821084
0.821085
0.821086
0.821087
0.821087
0.821088
0.821089
0.82109
0.821091
0.821091
0.821092
0.821093
0.821094
0.821095
0.821095
0.821096
0.821097
0.821098
0.821099
0.821099
0.8211
0.821101
0.821102
0.821103
0.821103
0.821104
0.821105
0.821106
0.821108
0.821108
0.821109
0.82111
0.821111
0.821112
0.821112
0.821113
0.821114
0.821115
0.821116
0.821116
0.821117
0.821119
0.82112
0.821121
0.821121
0.821122
0.821123
0.821124
0.821125
0.821125
0.821126
0.821128
0.821129
0.82113
0.82113
0.821131
0.821132
0.821133
0.821135
0.821135
0.821136
0.821137
0.821138
0.821139
0.821139
0.821141
0.821142
0.821143
0.821144
0.821144
0.821145
0.821147
0.821148
0.821149
0.821149
0.82115
0.821151
0.821153
0.821154
0.821154
0.821155
0.821156
0.821158
0.821159
0.821159
0.82116
0.821161
0.821163
0.821164
0.821164
0.821165
0.821167
0.821168
0.821169
0.821169
0.82117
0.821172
0.821173
0.821174
0.821174
0.821176
0.821177
0.821178
0.821179
0.821179
0.821181
0.821182
0.821183
0.821185
0.821185
0.821186
0.821187
0.821189
0.82119
0.82119
0.821192
0.821193
0.821194
0.821196
0.821196
0.821197
0.821198
0.8212
0.821201
0.821201
0.821202
0.821204
0.821205
0.821207
0.821207
0.821208
0.821209
0.821211
0.821212
0.821212
0.821214
0.821215
0.821217
0.821218
0.821218
0.821219
0.821221
0.821222
0.821224
0.821224
0.821225
0.821227
0.821228
0.821229
0.821229
0.821231
0.821232
0.821234
0.821235
0.821235
0.821237
0.821238
0.82124
0.821241
0.821241
0.821243
0.821244
0.821246
0.821247
0.821247
0.821249
0.82125
0.821252
0.821253
0.821253
0.821255
0.821256
0.821258
0.821259
0.821259
0.821261
0.821262
0.821264
0.821266
0.821266
0.821267
0.821269
0.82127
0.821272
0.821272
0.821273
0.821275
0.821276
0.821278
0.821278
0.82128
0.821281
0.821283
0.821284
0.821284
0.821286
0.821288
0.821289
0.821291
0.821291
0.821293
0.821294
0.821296
0.821297
0.821297
0.821299
0.821301
0.821302
0.821304
0.821304
0.821306
0.821307
0.821309
0.821311
0.821311
0.821312
0.821314
0.821316
0.821317
0.821317
0.821319
0.821321
0.821323
0.821324
0.821324
0.821326
0.821328
0.821329
0.821331
0.821331
0.821333
0.821334
0.821336
0.821338
0.821338
0.82134
0.821341
0.821343
0.821345
0.821345
0.821347
0.821348
0.82135
0.821352
0.821352
0.821354
0.821355
0.821357
0.821359
0.821359
0.821361
0.821363
0.821364
0.821366
0.821366
0.821368
0.82137
0.821372
0.821373
0.821373
0.821375
0.821377
0.821379
0.821381
0.821381
0.821383
0.821384
0.821386
0.821388
0.821388
0.82139
0.821392
0.821394
0.821395
0.821395
0.821397
0.821399
0.821401
0.821403
0.821403
0.821405
0.821407
0.821409
0.82141
0.82141
0.821412
0.821414
0.821416
0.821418
0.821418
0.82142
0.821422
0.821424
0.821426
0.821426
0.821428
0.82143
0.821431
0.821433
0.821433
0.821435
0.821437
0.821439
0.821441
0.821441
0.821443
0.821445
0.821447
0.821449
0.821449
0.821451
0.821453
0.821455
0.821457
0.821457
0.821459
0.821461
0.821463
0.821465
0.821465
0.821467
0.821469
0.821471
0.821473
0.821473
0.821475
0.821477
0.821479
0.821481
0.821481
0.821483
0.821485
0.821487
0.821489
0.821489
0.821491
0.821493
0.821495
0.821497
0.821497
0.821499
0.821502
0.821504
0.821506
0.821506
0.821508
0.82151
0.821512
0.821514
0.821514
0.821516
0.821518
0.82152
0.821522
0.821522
0.821525
0.821527
0.821529
0.821531
0.821531
0.821533
0.821535
0.821537
0.821539
0.821539
0.821542
0.821544
0.821546
0.821548
0.821548
0.82155
0.821552
0.821555
0.821557
0.821557
0.821559
0.821561
0.821563
0.821566
0.821566
0.821568
0.82157
0.821572
0.821574
0.821574
0.821577
0.821579
0.821581
0.821583
0.821583
0.821585
0.821588
0.82159
0.821592
0.821592
0.821594
0.821597
0.821599
0.821601
0.821601
0.821603
0.821606
0.821608
0.82161
0.82161
0.821612
0.821615
0.821617
0.821619
0.821619
0.821622
0.821624
0.821626
0.821628
0.821628
0.821631
0.821633
0.821635
0.821638
0.821638
0.82164
0.821642
0.821645
0.821647
0.821647
0.821649
0.821652
0.821654
0.821656
0.821656
0.821659
0.821661
0.821663
0.821666
0.821666
0.821668
0.821671
0.821673
0.821675
0.821675
0.821678
0.82168
0.821682
0.821685
0.821685
0.821687
0.82169
0.821692
0.821694
0.821694
0.821697
0.821699
0.821702
0.821704
0.821704
0.821707
0.821709
0.821711
0.821714
0.821714
0.821716
0.821719
0.821721
0.821724
0.821724
0.821726
0.821729
0.821731
0.821734
0.821734
0.821736
0.821739
0.821741
0.821744
0.821744
0.821746
0.821749
0.821751
0.821754
0.821754
0.821756
0.821759
0.821761
0.821764
0.821764
0.821766
0.821769
0.821771
0.821774
0.821774
0.821776
0.821779
0.821781
0.821784
0.821784
0.821786
0.821789
0.821792
0.821794
0.821794
0.821797
0.821799
0.821802
0.821804
0.821804
0.821807
0.82181
0.821812
0.821815
0.821815
0.821817
0.82182
0.821823
0.821825
0.821825
0.821828
0.821831
0.821833
0.821836
0.821836
0.821838
0.821841
0.821844
0.821846
0.821846
0.821849
0.821852
0.821854
0.821857
0.821857
0.82186
0.821862
0.821865
0.821868
0.821868
0.82187
0.821873
0.821876
0.821879
0.821879
0.821881
0.821884
0.821887
0.821889
0.821889
0.821892
0.821895
0.821898
0.8219
0.8219
0.821903
0.821906
0.821908
0.821911
0.821911
0.821914
0.821917
0.821919
0.821922
0.821922
0.821925
0.821928
0.821931
0.821933
0.821933
0.821936
0.821939
0.821942
0.821944
0.821944
0.821947
0.82195
0.821953
0.821956
0.821956
0.821958
0.821961
0.821964
0.821967
0.821967
0.82197
0.821973
0.821975
0.821978
0.821978
0.821981
0.821984
0.821987
0.82199
0.82199
0.821992
0.821995
0.821998
0.822001
0.822001
0.822004
0.822007
0.82201
0.822013
0.822013
0.822015
0.822018
0.822021
0.822024
0.822024
0.822027
0.82203
0.822033
0.822036
0.822036
0.822039
0.822042
0.822044
0.822047
0.822047
0.82205
0.822053
0.822056
0.822059
0.822059
0.822062
0.822065
0.822068
0.822071
0.822071
0.822074
0.822077
0.82208
0.822083
0.822083
0.822086
0.822089
0.822092
0.822095
0.822095
0.822098
0.822101
0.822104
0.822107
0.822107
0.82211
0.822113
0.822116
0.822119
0.822119
0.822122
0.822125
0.822128
0.822131
0.822131
0.822134
0.822137
0.82214
0.822143
0.822143
0.822146
0.82215
0.822153
0.822156
0.822156
0.822159
0.822162
0.822165
0.822168
0.822168
0.822171
0.822174
0.822177
0.822181
0.822181
0.822184
0.822187
0.82219
0.822193
0.822193
0.822196
0.822199
0.822203
0.822206
0.822206
0.822209
0.822212
0.822215
0.822218
0.822218
0.822221
0.822225
0.822228
0.822231
0.822231
0.822234
0.822237
0.822241
0.822244
0.822244
0.822247
0.82225
0.822253
0.822257
0.822257
0.82226
0.822263
0.822266
0.822269
0.822269
0.822273
0.822276
0.822279
0.822282
0.822282
0.822286
0.822289
0.822292
0.822295
0.822295
0.822299
0.822302
0.822305
0.822308
0.822308
0.822312
0.822315
0.822318
0.822321
0.822321
0.822325
0.822328
0.822331
0.822335
0.822335
0.822338
0.822341
0.822345
0.822348
0.822348
0.822351
0.822355
0.822358
0.822361
0.822361
0.822365
0.822368
0.822371
0.822375
0.822375
0.822378
0.822381
0.822385
0.822388
0.822388
0.822391
0.822395
0.822398
0.822402
0.822402
0.822405
0.822408
0.822412
0.822415
0.822415
0.822418
0.822422
0.822425
0.822429
0.822429
0.822432
0.822436
0.822439
0.822442
0.822442
0.822446
0.822449
0.822453
0.822456
0.822456
0.82246
0.822463
0.822466
0.82247
0.82247
0.822473
0.822477
0.82248
0.822484
0.822484
0.822487
0.822491
0.822494
0.822498
0.822498
0.822501
0.822505
0.822508
0.822512
0.822512
0.822515
0.822519
0.822522
0.822526
0.822526
0.822529
0.822533
0.822536
0.82254
0.82254
0.822544
0.822547
0.822551
0.822554
0.822554
0.822558
0.822561
0.822565
0.822568
0.822568
0.822572
0.822576
0.822579
0.822583
0.822583
0.822586
0.82259
0.822594
0.822597
0.822597
0.822601
0.822604
0.822608
0.822612
0.822612
0.822615
0.822619
0.822622
0.822626
0.822626
0.82263
0.822633
0.822637
0.822641
0.822641
0.822644
0.822648
0.822652
0.822655
0.822655
0.822659
0.822663
0.822666
0.82267
0.82267
0.822674
0.822677
0.822681
0.822685
0.822685
0.822688
0.822692
0.822696
0.8227
0.8227
0.822703
0.822707
0.822711
0.822714
0.822714
0.822718
0.822722
0.822726
0.822729
0.822729
0.822733
0.822737
0.822741
0.822744
0.822744
0.822748
0.822752
0.822756
0.82276
0.82276
0.822763
0.822767
0.822771
0.822775
0.822775
0.822778
0.822782
0.822786
0.82279
0.82279
0.822794
0.822797
0.822801
0.822805
0.822805
0.822809
0.822813
0.822817
0.82282
0.82282
0.822824
0.822828
0.822832
0.822836
0.822836
0.82284
0.822843
0.822847
0.822851
0.822851
0.822855
0.822859
0.822863
0.822867
0.822867
0.82287
0.822874
0.822878
0.822882
0.822882
0.822886
0.82289
0.822894
0.822898
0.822898
0.822902
0.822906
0.822909
0.822913
0.822913
0.822917
0.822921
0.822925
0.822929
0.822929
0.822933
0.822937
0.822941
0.822945
0.822945
0.822949
0.822953
0.822957
0.822961
0.822961
0.822965
0.822969
0.822973
0.822977
0.822977
0.822981
0.822985
0.822989
0.822993
0.822993
0.822997
0.823001
0.823005
0.823009
0.823009
0.823013
0.823017
0.823021
0.823026
0.823026
0.82303
0.823034
0.823038
0.823042
0.823042
0.823046
0.82305
0.823054
0.823058
0.823058
0.823062
0.823066
0.82307
0.823075
0.823075
0.823079
0.823083
0.823087
0.823091
0.823091
0.823095
0.823099
0.823103
0.823107
0.823107
0.823112
0.823116
0.82312
0.823124
0.823124
0.823128
0.823132
0.823136
0.823141
0.823141
0.823145
0.823149
0.823153
0.823157
0.823157
0.823161
0.823166
0.82317
0.823174
0.823174
0.823178
0.823182
0.823187
0.823191
0.823191
0.823195
0.823199
0.823203
0.823208
0.823208
0.823212
0.823216
0.82322
0.823225
0.823225
0.823229
0.823233
0.823237
0.823242
0.823242
0.823246
0.82325
0.823254
0.823259
0.823259
0.823263
0.823267
0.823271
0.823276
0.823276
0.82328
0.823284
0.823289
0.823293
0.823293
0.823297
0.823302
0.823306
0.82331
0.82331
0.823315
0.823319
0.823323
0.823328
0.823328
0.823332
0.823336
0.823341
0.823345
0.823345
0.823349
0.823354
0.823358
0.823362
0.823362
0.823367
0.823371
0.823375
0.82338
0.82338
0.823384
0.823389
0.823393
0.823397
0.823397
0.823402
0.823406
0.823411
0.823415
0.823415
0.823419
0.823424
0.823428
0.823433
0.823433
0.823437
0.823442
0.823446
0.82345
0.82345
0.823455
0.823459
0.823464
0.823468
0.823468
0.823473
0.823477
0.823482
0.823486
0.823486
0.823491
0.823495
0.8235
0.823504
0.823504
0.823509
0.823513
0.823518
0.823522
0.823522
0.823527
0.823531
0.823536
0.82354
0.82354
0.823545
0.823549
0.823554
0.823558
0.823558
0.823563
0.823567
0.823572
0.823576
0.823576
0.823581
0.823585
0.82359
0.823595
0.823595
0.823599
0.823604
0.823608
0.823613
0.823613
0.823617
0.823622
0.823627
0.823631
0.823631
0.823636
0.82364
0.823645
0.82365
0.82365
0.823654
0.823659
0.823663
0.823668
0.823668
0.823673
0.823677
0.823682
0.823687
0.823687
0.823691
0.823696
0.8237
0.823705
0.823705
0.82371
0.823714
0.823719
0.823724
0.823724
0.823728
0.823733
0.823738
0.823742
0.823742
0.823747
0.823752
0.823757
0.823761
0.823761
0.823766
0.823771
0.823775
0.82378
0.82378
0.823785
0.82379
0.823794
0.823799
0.823799
0.823804
0.823809
0.823814
0.823818
0.823818
0.823823
0.823828
0.823833
0.823838
0.823838
0.823842
0.823847
0.823852
0.823857
0.823857
0.823862
0.823866
0.823871
0.823876
0.823876
0.823881
0.823886
0.82389
0.823895
0.823895
0.8239
0.823905
0.82391
0.823915
0.823915
0.82392
0.823924
0.823929
0.823934
0.823934
0.823939
0.823944
0.823949
0.823954
0.823954
0.823958
0.823963
0.823968
0.823973
0.823973
0.823978
0.823983
0.823988
0.823993
0.823993
0.823998
0.824003
0.824008
0.824012
0.824012
0.824017
0.824022
0.824027
0.824032
0.824032
0.824037
0.824042
0.824047
0.824052
0.824052
0.824057
0.824062
0.824067
0.824072
0.824072
0.824077
0.824082
0.824087
0.824092
0.824092
0.824097
0.824102
0.824107
0.824112
0.824112
0.824117
0.824122
0.824127
0.824132
0.824132
0.824137
0.824142
0.824147
0.824152
0.824152
0.824157
0.824162
0.824167
0.824172
0.824172
0.824177
0.824182
0.824187
0.824192
0.824192
0.824197
0.824202
0.824207
0.824212
0.824212
0.824218
0.824223
0.824228
0.824233
0.824233
0.824238
0.824243
0.824248
0.824253
0.824253
0.824258
0.824263
0.824269
0.824274
0.824274
0.824279
0.824284
0.824289
0.824294
0.824294
0.824299
0.824305
0.82431
0.824315
0.824315
0.82432
0.824325
0.82433
0.824336
0.824336
0.824341
0.824346
0.824351
0.824356
0.824356
0.824361
0.824367
0.824372
0.824377
0.824377
0.824382
0.824387
0.824393
0.824398
0.824398
0.824403
0.824408
0.824414
0.824419
0.824419
0.824424
0.824429
0.824434
0.82444
0.82444
0.824445
0.82445
0.824455
0.824461
0.824461
0.824466
0.824471
0.824477
0.824482
0.824482
0.824487
0.824492
0.824498
0.824503
0.824503
0.824508
0.824513
0.824519
0.824524
0.824524
0.824529
0.824535
0.82454
0.824545
0.824545
0.824551
0.824556
0.824561
0.824567
0.824567
0.824572
0.824577
0.824583
0.824588
0.824588
0.824593
0.824599
0.824604
0.824609
0.824609
0.824615
0.82462
0.824626
0.824631
0.824631
0.824636
0.824642
0.824647
0.824653
0.824653
0.824658
0.824664
0.824669
0.824674
0.824674
0.82468
0.824685
0.824691
0.824696
0.824696
0.824702
0.824707
0.824713
0.824718
0.824718
0.824724
0.824729
0.824735
0.82474
0.82474
0.824746
0.824751
0.824757
0.824762
0.824762
0.824768
0.824773
0.824779
0.824784
0.824784
0.82479
0.824795
0.824801
0.824806
0.824806
0.824812
0.824817
0.824823
0.824828
0.824828
0.824834
0.82484
0.824845
0.824851
0.824851
0.824856
0.824862
0.824867
0.824873
0.824873
0.824878
0.824884
0.82489
0.824895
0.824895
0.824901
0.824906
0.824912
0.824918
0.824918
0.824923
0.824929
0.824934
0.82494
0.82494
0.824946
0.824951
0.824957
0.824963
0.824963
0.824968
0.824974
0.82498
0.824985
0.824985
0.824991
0.824996
0.825002
0.825008
0.825008
0.825013
0.825019
0.825025
0.825031
0.825031
0.825036
0.825042
0.825048
0.825053
0.825053
0.825059
0.825065
0.82507
0.825076
0.825076
0.825082
0.825088
0.825093
0.825099
0.825099
0.825105
0.82511
0.825116
0.825122
0.825122
0.825128
0.825133
0.825139
0.825145
0.825145
0.825151
0.825156
0.825162
0.825168
0.825168
0.825174
0.82518
0.825185
0.825191
0.825191
0.825197
0.825203
0.825209
0.825214
0.825214
0.82522
0.825226
0.825232
0.825238
0.825238
0.825243
0.825249
0.825255
0.825261
0.825261
0.825267
0.825273
0.825278
0.825284
0.825284
0.82529
0.825296
0.825302
0.825308
0.825308
0.825314
0.825319
0.825325
0.825331
0.825331
0.825337
0.825343
0.825349
0.825355
0.825355
0.82536
0.825366
0.825372
0.825378
0.825378
0.825384
0.82539
0.825396
0.825402
0.825402
0.825408
0.825414
0.82542
0.825425
0.825425
0.825431
0.825437
0.825443
0.825449
0.825449
0.825455
0.825461
0.825467
0.825473
0.825473
0.825479
0.825485
0.825491
0.825497
0.825497
0.825503
0.825509
0.825515
0.825521
0.825521
0.825527
0.825533
0.825539
0.825545
0.825545
0.825552
0.825558
0.825564
0.82557
0.82557
0.825576
0.825582
0.825588
0.825594
0.825594
0.8256
0.825606
0.825612
0.825618
0.825618
0.825624
0.825631
0.825637
0.825643
0.825643
0.825649
0.825655
0.825661
0.825667
0.825667
0.825673
0.82568
0.825686
0.825692
0.825692
0.825698
0.825704
0.82571
0.825716
0.825716
0.825723
0.825729
0.825735
0.825741
0.825741
0.825747
0.825753
0.825759
0.825766
0.825766
0.825772
0.825778
0.825784
0.82579
0.82579
0.825797
0.825803
0.825809
0.825815
0.825815
0.825821
0.825828
0.825834
0.82584
0.82584
0.825846
0.825853
0.825859
0.825865
0.825865
0.825871
0.825877
0.825884
0.82589
0.82589
0.825896
0.825902
0.825909
0.825915
0.825915
0.825921
0.825928
0.825934
0.82594
0.82594
0.825946
0.825953
0.825959
0.825965
0.825965
0.825972
0.825978
0.825984
0.825991
0.825991
0.825997
0.826003
0.826009
0.826016
0.826016
0.826022
0.826028
0.826035
0.826041
0.826041
0.826048
0.826054
0.82606
0.826067
0.826067
0.826073
0.826079
0.826086
0.826092
0.826092
0.826098
0.826105
0.826111
0.826118
0.826118
0.826124
0.82613
0.826137
0.826143
0.826143
0.82615
0.826156
0.826162
0.826169
0.826169
0.826175
0.826182
0.826188
0.826194
0.826194
0.826201
0.826207
0.826214
0.82622
0.82622
0.826227
0.826233
0.826239
0.826246
0.826246
0.826252
0.826259
0.826265
0.826272
0.826272
0.826278
0.826285
0.826291
0.826298
0.826298
0.826304
0.826311
0.826317
0.826324
0.826324
0.82633
0.826337
0.826343
0.82635
0.82635
0.826356
0.826363
0.826369
0.826376
0.826376
0.826383
0.826389
0.826396
0.826402
0.826402
0.826409
0.826416
0.826422
0.826429
0.826429
0.826435
0.826442
0.826449
0.826455
0.826455
0.826462
0.826469
0.826475
0.826482
0.826482
0.826488
0.826495
0.826502
0.826508
0.826508
0.826515
0.826522
0.826528
0.826535
0.826535
0.826542
0.826548
0.826555
0.826562
0.826562
0.826568
0.826575
0.826582
0.826588
0.826588
0.826595
0.826602
0.826609
0.826615
0.826615
0.826622
0.826629
0.826635
0.826642
0.826642
0.826649
0.826656
0.826662
0.826669
0.826669
0.826676
0.826682
0.826689
0.826696
0.826696
0.826703
0.826709
0.826716
0.826723
0.826723
0.82673
0.826736
0.826743
0.82675
0.82675
0.826757
0.826764
0.82677
0.826777
0.826777
0.826784
0.826791
0.826798
0.826804
0.826804
0.826811
0.826818
0.826825
0.826832
0.826832
0.826838
0.826845
0.826852
0.826859
0.826859
0.826866
0.826873
0.826879
0.826886
0.826886
0.826893
0.8269
0.826907
0.826914
0.826914
0.826921
0.826927
0.826934
0.826941
0.826941
0.826948
0.826955
0.826962
0.826969
0.826969
0.826976
0.826983
0.826989
0.826996
0.826996
0.827003
0.82701
0.827017
0.827024
0.827024
0.827031
0.827038
0.827045
0.827052
0.827052
0.827059
0.827066
0.827073
0.827079
0.827079
0.827086
0.827093
0.8271
0.827107
0.827107
0.827114
0.827121
0.827128
0.827135
0.827135
0.827142
0.827149
0.827156
0.827163
0.827163
0.82717
0.827177
0.827184
0.827191
0.827191
0.827198
0.827205
0.827212
0.827219
0.827219
0.827226
0.827233
0.82724
0.827248
0.827248
0.827255
0.827262
0.827269
0.827276
0.827276
0.827283
0.82729
0.827297
0.827304
0.827304
0.827311
0.827319
0.827326
0.827333
0.827333
0.82734
0.827347
0.827354
0.827361
0.827361
0.827369
0.827376
0.827383
0.82739
0.82739
0.827397
0.827404
0.827412
0.827419
0.827419
0.827426
0.827433
0.82744
0.827447
0.827447
0.827455
0.827462
0.827469
0.827476
0.827476
0.827483
0.827491
0.827498
0.827505
0.827505
0.827512
0.827519
0.827527
0.827534
0.827534
0.827541
0.827548
0.827556
0.827563
0.827563
0.82757
0.827577
0.827585
0.827592
0.827592
0.827599
0.827606
0.827614
0.827621
0.827621
0.827628
0.827635
0.827643
0.82765
0.82765
0.827657
0.827665
0.827672
0.827679
0.827679
0.827686
0.827694
0.827701
0.827708
0.827708
0.827716
0.827723
0.82773
0.827738
0.827738
0.827745
0.827752
0.82776
0.827767
0.827767
0.827774
0.827782
0.827789
0.827796
0.827796
0.827804
0.827811
0.827818
0.827826
0.827826
0.827833
0.827841
0.827848
0.827855
0.827855
0.827863
0.82787
0.827877
0.827885
0.827885
0.827892
0.8279
0.827907
0.827914
0.827914
0.827922
0.827929
0.827937
0.827944
0.827944
0.827951
0.827959
0.827966
0.827974
0.827974
0.827981
0.827989
0.827996
0.828003
0.828003
0.828011
0.828018
0.828026
0.828033
0.828033
0.828041
0.828048
0.828056
0.828063
0.828063
0.828071
0.828078
0.828086
0.828093
0.828093
0.828101
0.828108
0.828116
0.828123
0.828123
0.828131
0.828139
0.828146
0.828154
0.828154
0.828161
0.828169
0.828177
0.828184
0.828184
0.828192
0.828199
0.828207
0.828215
0.828215
0.828222
0.82823
0.828237
0.828245
0.828245
0.828253
0.82826
0.828268
0.828276
0.828276
0.828283
0.828291
0.828298
0.828306
0.828306
0.828314
0.828321
0.828329
0.828337
0.828337
0.828344
0.828352
0.82836
0.828367
0.828367
0.828375
0.828383
0.82839
0.828398
0.828398
0.828406
0.828413
0.828421
0.828429
0.828429
0.828437
0.828444
0.828452
0.82846
0.82846
0.828467
0.828475
0.828483
0.828491
0.828491
0.828498
0.828506
0.828514
0.828522
0.828522
0.828529
0.828537
0.828545
0.828553
0.828553
0.82856
0.828568
0.828576
0.828584
0.828584
0.828591
0.828599
0.828607
0.828615
0.828615
0.828622
0.82863
0.828638
0.828646
0.828646
0.828654
0.828661
0.828669
0.828677
0.828677
0.828685
0.828693
0.828701
0.828708
0.828708
0.828716
0.828724
0.828732
0.82874
0.82874
0.828748
0.828755
0.828763
0.828771
0.828771
0.828779
0.828787
0.828795
0.828802
0.828802
0.82881
0.828818
0.828826
0.828834
0.828834
0.828842
0.82885
0.828858
0.828865
0.828865
0.828873
0.828881
0.828889
0.828897
0.828897
0.828905
0.828913
0.828921
0.828929
0.828929
0.828937
0.828945
0.828953
0.82896
0.82896
0.828968
0.828976
0.828984
0.828992
0.828992
0.829
0.829008
0.829016
0.829025
0.829025
0.829033
0.829041
0.829049
0.829057
0.829057
0.829065
0.829073
0.829081
0.829089
0.829089
0.829097
0.829105
0.829113
0.829121
0.829121
0.829129
0.829137
0.829145
0.829153
0.829153
0.829161
0.82917
0.829178
0.829186
0.829186
0.829194
0.829202
0.82921
0.829218
0.829218
0.829226
0.829234
0.829242
0.829251
0.829251
0.829259
0.829267
0.829275
0.829283
0.829283
0.829291
0.829299
0.829307
0.829316
0.829316
0.829324
0.829332
0.82934
0.829348
0.829348
0.829356
0.829365
0.829373
0.829381
0.829381
0.829389
0.829397
0.829405
0.829414
0.829414
0.829422
0.82943
0.829438
0.829446
0.829446
0.829455
0.829463
0.829471
0.829479
0.829479
0.829487
0.829496
0.829504
0.829512
0.829512
0.82952
0.829529
0.829537
0.829545
0.829545
0.829553
0.829561
0.82957
0.829578
0.829578
0.829586
0.829594
0.829603
0.829611
0.829611
0.829619
0.829628
0.829636
0.829644
0.829644
0.829652
0.829661
0.829669
0.829677
0.829677
0.829685
0.829694
0.829702
0.82971
0.82971
0.829719
0.829727
0.829735
0.829744
0.829744
0.829752
0.82976
0.829769
0.829777
0.829777
0.829785
0.829794
0.829802
0.82981
0.82981
0.829819
0.829827
0.829835
0.829844
0.829844
0.829852
0.829861
0.829869
0.829877
0.829877
0.829886
0.829894
0.829903
0.829911
0.829911
0.82992
0.829928
0.829937
0.829945
0.829945
0.829954
0.829962
0.82997
0.829979
0.829979
0.829987
0.829996
0.830004
0.830013
0.830013
0.830021
0.83003
0.830038
0.830047
0.830047
0.830055
0.830064
0.830072
0.830081
0.830081
0.83009
0.830098
0.830107
0.830115
0.830115
0.830124
0.830132
0.830141
0.830149
0.830149
0.830158
0.830166
0.830175
0.830183
0.830183
0.830192
0.830201
0.830209
0.830218
0.830218
0.830226
0.830235
0.830243
0.830252
0.830252
0.830261
0.830269
0.830278
0.830286
0.830286
0.830295
0.830304
0.830312
0.830321
0.830321
0.830329
0.830338
0.830347
0.830355
0.830355
0.830364
0.830373
0.830381
0.83039
0.83039
0.830398
0.830407
0.830416
0.830424
0.830424
0.830433
0.830442
0.83045
0.830459
0.830459
0.830468
0.830476
0.830485
0.830494
0.830494
0.830502
0.830511
0.83052
0.830528
0.830528
0.830537
0.830546
0.830554
0.830563
0.830563
0.830572
0.83058
0.830589
0.830598
0.830598
0.830607
0.830615
0.830624
0.830633
0.830633
0.830641
0.83065
0.830659
0.830668
0.830668
0.830676
0.830685
0.830694
0.830703
0.830703
0.830712
0.83072
0.830729
0.830738
0.830738
0.830747
0.830756
0.830764
0.830773
0.830773
0.830782
0.830791
0.8308
0.830809
0.830809
0.830818
0.830826
0.830835
0.830844
0.830844
0.830853
0.830862
0.830871
0.83088
0.83088
0.830889
0.830898
0.830906
0.830915
0.830915
0.830924
0.830933
0.830942
0.830951
0.830951
0.83096
0.830969
0.830978
0.830987
0.830987
0.830996
0.831005
0.831014
0.831022
0.831022
0.831031
0.83104
0.831049
0.831058
0.831058
0.831067
0.831076
0.831085
0.831094
0.831094
0.831103
0.831112
0.831121
0.83113
0.83113
0.831139
0.831148
0.831157
0.831166
0.831166
0.831175
0.831184
0.831193
0.831202
0.831202
0.831211
0.83122
0.831229
0.831238
0.831238
0.831247
0.831256
0.831265
0.831274
0.831274
0.831283
0.831292
0.831301
0.83131
0.83131
0.831319
0.831328
0.831337
0.831346
0.831346
0.831355
0.831364
0.831374
0.831383
0.831383
0.831392
0.831401
0.83141
0.831419
0.831419
0.831428
0.831437
0.831446
0.831455
0.831455
0.831464
0.831473
0.831482
0.831492
0.831492
0.831501
0.83151
0.831519
0.831528
0.831528
0.831537
0.831546
0.831555
0.831565
0.831565
0.831574
0.831583
0.831592
0.831601
0.831601
0.83161
0.83162
0.831629
0.831638
0.831638
0.831647
0.831657
0.831666
0.831675
0.831675
0.831684
0.831694
0.831703
0.831712
0.831712
0.831721
0.831731
0.83174
0.831749
0.831749
0.831758
0.831768
0.831777
0.831786
0.831786
0.831796
0.831805
0.831814
0.831823
0.831823
0.831833
0.831842
0.831851
0.831861
0.831861
0.83187
0.831879
0.831889
0.831898
0.831898
0.831907
0.831917
0.831926
0.831935
0.831935
0.831945
0.831954
0.831963
0.831973
0.831973
0.831982
0.831991
0.832001
0.83201
0.83201
0.832019
0.832029
0.832038
0.832047
0.832047
0.832057
0.832066
0.832076
0.832085
0.832085
0.832094
0.832104
0.832113
0.832123
0.832123
0.832132
0.832141
0.832151
0.83216
0.83216
0.83217
0.832179
0.832188
0.832198
0.832198
0.832207
0.832217
0.832226
0.832235
0.832235
0.832245
0.832254
0.832264
0.832273
0.832273
0.832283
0.832292
0.832302
0.832311
0.832311
0.83232
0.83233
0.832339
0.832349
0.832349
0.832358
0.832368
0.832377
0.832387
0.832387
0.832396
0.832406
0.832415
0.832425
0.832425
0.832434
0.832444
0.832453
0.832463
0.832463
0.832472
0.832482
0.832491
0.832501
0.832501
0.832511
0.83252
0.83253
0.832539
0.832539
0.832549
0.832559
0.832568
0.832578
0.832578
0.832587
0.832597
0.832607
0.832616
0.832616
0.832626
0.832636
0.832645
0.832655
0.832655
0.832665
0.832674
0.832684
0.832694
0.832694
0.832703
0.832713
0.832723
0.832732
0.832732
0.832742
0.832752
0.832761
0.832771
0.832771
0.832781
0.83279
0.8328
0.83281
0.83281
0.83282
0.832829
0.832839
0.832849
0.832849
0.832858
0.832868
0.832878
0.832887
0.832887
0.832897
0.832907
0.832917
0.832926
0.832926
0.832936
0.832946
0.832956
0.832965
0.832965
0.832975
0.832985
0.832995
0.833004
0.833004
0.833014
0.833024
0.833034
0.833043
0.833043
0.833053
0.833063
0.833073
0.833083
0.833083
0.833092
0.833102
0.833112
0.833122
0.833122
0.833131
0.833141
0.833151
0.833161
0.833161
0.833171
0.83318
0.83319
0.8332
0.8332
0.83321
0.83322
0.83323
0.833239
0.833239
0.833249
0.833259
0.833269
0.833279
0.833279
0.833289
0.833298
0.833308
0.833318
0.833318
0.833328
0.833338
0.833348
0.833358
0.833358
0.833368
0.833378
0.833387
0.833397
0.833397
0.833407
0.833417
0.833427
0.833437
0.833437
0.833447
0.833457
0.833467
0.833477
0.833477
0.833487
0.833497
0.833507
0.833517
0.833517
0.833527
0.833537
0.833547
0.833557
0.833557
0.833567
0.833577
0.833587
0.833597
0.833597
0.833607
0.833617
0.833627
0.833637
0.833637
0.833647
0.833658
0.833668
0.833678
0.833678
0.833688
0.833698
0.833708
0.833718
0.833718
0.833728
0.833738
0.833748
0.833758
0.833758
0.833768
0.833778
0.833788
0.833798
0.833798
0.833808
0.833819
0.833829
0.833839
0.833839
0.833849
0.833859
0.833869
0.833879
0.833879
0.833889
0.833899
0.833909
0.83392
0.83392
0.83393
0.83394
0.83395
0.83396
0.83396
0.83397
0.83398
0.83399
0.834001
0.834001
0.834011
0.834021
0.834031
0.834041
0.834041
0.834051
0.834061
0.834072
0.834082
0.834082
0.834092
0.834102
0.834112
0.834122
0.834122
0.834133
0.834143
0.834153
0.834163
0.834163
0.834173
0.834184
0.834194
0.834204
0.834204
0.834214
0.834224
0.834235
0.834245
0.834245
0.834255
0.834266
0.834276
0.834286
0.834286
0.834296
0.834307
0.834317
0.834327
0.834327
0.834338
0.834348
0.834358
0.834369
0.834369
0.834379
0.834389
0.8344
0.83441
0.83441
0.83442
0.834431
0.834441
0.834451
0.834451
0.834462
0.834472
0.834483
0.834493
0.834493
0.834503
0.834514
0.834524
0.834534
0.834534
0.834545
0.834555
0.834566
0.834576
0.834576
0.834586
0.834597
0.834607
0.834618
0.834618
0.834628
0.834638
0.834649
0.834659
0.834659
0.83467
0.83468
0.83469
0.834701
0.834701
0.834711
0.834722
0.834732
0.834743
0.834743
0.834753
0.834763
0.834774
0.834784
0.834784
0.834795
0.834805
0.834816
0.834826
0.834826
0.834837
0.834847
0.834858
0.834868
0.834868
0.834878
0.834889
0.834899
0.83491
0.83491
0.83492
0.834931
0.834941
0.834952
0.834952
0.834962
0.834973
0.834983
0.834994
0.834994
0.835004
0.835015
0.835025
0.835036
0.835036
0.835046
0.835057
0.835067
0.835078
0.835078
0.835089
0.835099
0.83511