<?xml version="1.0"?>
<VTKFile type="UnstructuredGrid" version="0.1" byte_order="LittleEndian">
<UnstructuredGrid>
<Piece NumberOfPoints="5000" NumberOfCells="4000">
<PointData Scalars="Reaction 0">
<DataArray type="Float32" Name="Reaction 0" format="ascii">
0.385239
0.38524
0.38524
0.38524
0.38524
0.38524
0.38524
0.38524
0.38524
0.38524
0.38524
0.385241
0.385241
0.385241
0.385242
0.385242
0.385242
0.385242
0.385243
0.385243
0.385243
0.385244
0.385244
0.385245
0.385245
0.385245
0.385246
0.385246
0.385247
0.385248
0.385248
0.385248
0.385249
0.38525
0.385251
0.385251
0.385252
0.385252
0.385253
0.385254
0.385254
0.385255
0.385256
0.385257
0.385258
0.385258
0.385259
0.38526
0.385261
0.385262
0.385262
0.385264
0.385265
0.385266
0.385267
0.385267
0.385268
0.38527
0.385271
0.385272
0.385272
0.385274
0.385275
0.385277
0.385278
0.385278
0.38528
0.385281
0.385283
0.385284
0.385284
0.385286
0.385288
0.385289
0.385291
0.385291
0.385293
0.385294
0.385296
0.385298
0.385298
0.3853
0.385302
0.385304
0.385306
0.385306
0.385308
0.38531
0.385312
0.385314
0.385314
0.385316
0.385318
0.38532
0.385322
0.385322
0.385324
0.385326
0.385329
0.385331
0.385331
0.385333
0.385336
0.385338
0.38534
0.38534
0.385343
0.385345
0.385348
0.38535
0.38535
0.385353
0.385355
0.385358
0.38536
0.38536
0.385363
0.385366
0.385368
0.385371
0.385371
0.385374
0.385377
0.38538
0.385382
0.385382
0.385385
0.385388
0.385391
0.385394
0.385394
0.385397
0.3854
0.385403
0.385406
0.385406
0.385409
0.385412
0.385416
0.385419
0.385419
0.385422
0.385425
0.385429
0.385432
0.385432
0.385435
0.385438
0.385442
0.385445
0.385445
0.385449
0.385452
0.385456
0.385459
0.385459
0.385463
0.385466
0.38547
0.385474
0.385474
0.385477
0.385481
0.385485
0.385489
0.385489
0.385492
0.385496
0.3855
0.385504
0.385504
0.385508
0.385512
0.385516
0.38552
0.38552
0.385524
0.385528
0.385532
0.385536
0.385536
0.38554
0.385544
0.385548
0.385553
0.385553
0.385557
0.385561
0.385565
0.38557
0.38557
0.385574
0.385578
0.385583
0.385587
0.385587
0.385592
0.385596
0.385601
0.385605
0.385605
0.38561
0.385615
0.385619
0.385624
0.385624
0.385629
0.385633
0.385638
0.385643
0.385643
0.385648
0.385653
0.385657
0.385662
0.385662
0.385667
0.385672
0.385677
0.385682
0.385682
0.385687
0.385692
0.385697
0.385703
0.385703
0.385708
0.385713
0.385718
0.385723
0.385723
0.385729
0.385734
0.385739
0.385745
0.385745
0.38575
0.385755
0.385761
0.385766
0.385766
0.385772
0.385777
0.385783
0.385788
0.385788
0.385794
0.3858
0.385805
0.385811
0.385811
0.385817
0.385823
0.385828
0.385834
0.385834
0.38584
0.385846
0.385852
0.385858
0.385858
0.385864
0.38587
0.385876
0.385882
0.385882
0.385888
0.385894
0.3859
0.385906
0.385906
0.385912
0.385919
0.385925
0.385931
0.385931
0.385937
0.385944
0.38595
0.385957
0.385957
0.385963
0.385969
0.385976
0.385982
0.385982
0.385989
0.385995
0.386002
0.386009
0.386009
0.386015
0.386022
0.386029
0.386035
0.386035
0.386042
0.386049
0.386056
0.386063
0.386063
0.386069
0.386076
0.386083
0.38609
0.38609
0.386097
0.386104
0.386111
0.386118
0.386118
0.386125
0.386133
0.38614
0.386147
0.386147
0.386154
0.386161
0.386169
0.386176
0.386176
0.386183
0.386191
0.386198
0.386205
0.386205
0.386213
0.38622
0.386228
0.386235
0.386235
0.386243
0.386251
0.386258
0.386266
0.386266
0.386273
0.386281
0.386289
0.386297
0.386297
0.386304
0.386312
0.38632
0.386328
0.386328
0.386336
0.386344
0.386352
0.38636
0.38636
0.386368
0.386376
0.386384
0.386392
0.386392
0.3864
0.386408
0.386416
0.386425
0.386425
0.386433
0.386441
0.386449
0.386458
0.386458
0.386466
0.386475
0.386483
0.386491
0.386491
0.3865
0.386508
0.386517
0.386525
0.386525
0.386534
0.386543
0.386551
0.38656
0.38656
0.386569
0.386577
0.386586
0.386595
0.386595
0.386604
0.386613
0.386621
0.38663
0.38663
0.386639
0.386648
0.386657
0.386666
0.386666
0.386675
0.386684
0.386693
0.386703
0.386703
0.386712
0.386721
0.38673
0.386739
0.386739
0.386749
0.386758
0.386767
0.386777
0.386777
0.386786
0.386795
0.386805
0.386814
0.386814
0.386824
0.386833
0.386843
0.386853
0.386853
0.386862
0.386872
0.386881
0.386891
0.386891
0.386901
0.386911
0.38692
0.38693
0.38693
0.38694
0.38695
0.38696
0.38697
0.38697
0.38698
0.38699
0.387
0.38701
0.38701
0.38702
0.38703
0.38704
0.38705
0.38705
0.38706
0.387071
0.387081
0.387091
0.387091
0.387101
0.387112
0.387122
0.387132
0.387132
0.387143
0.387153
0.387164
0.387174
0.387174
0.387185
0.387195
0.387206
0.387217
0.387217
0.387227
0.387238
0.387249
0.387259
0.387259
0.38727
0.387281
0.387292
0.387302
0.387302
0.387313
0.387324
0.387335
0.387346
0.387346
0.387357
0.387368
0.387379
0.38739
0.38739
0.387401
0.387412
0.387424
0.387435
0.387435
0.387446
0.387457
0.387468
0.38748
0.38748
0.387491
0.387502
0.387514
0.387525
0.387525
0.387537
0.387548
0.38756
0.387571
0.387571
0.387583
0.387594
0.387606
0.387618
0.387618
0.387629
0.387641
0.387653
0.387664
0.387664
0.387676
0.387688
0.3877
0.387712
0.387712
0.387724
0.387735
0.387747
0.387759
0.387759
0.387771
0.387783
0.387796
0.387808
0.387808
0.38782
0.387832
0.387844
0.387856
0.387856
0.387869
0.387881
0.387893
0.387905
0.387905
0.387918
0.38793
0.387943
0.387955
0.387955
0.387967
0.38798
0.387992
0.388005
0.388005
0.388018
0.38803
0.388043
0.388055
0.388055
0.388068
0.388081
0.388094
0.388106
0.388106
0.388119
0.388132
0.388145
0.388158
0.388158
0.388171
0.388184
0.388197
0.38821
0.38821
0.388223
0.388236
0.388249
0.388262
0.388262
0.388275
0.388288
0.388302
0.388315
0.388315
0.388328
0.388341
0.388355
0.388368
0.388368
0.388381
0.388395
0.388408
0.388422
0.388422
0.388435
0.388449
0.388462
0.388476
0.388476
0.388489
0.388503
0.388517
0.38853
0.38853
0.388544
0.388558
0.388572
0.388585
0.388585
0.388599
0.388613
0.388627
0.388641
0.388641
0.388655
0.388669
0.388683
0.388697
0.388697
0.388711
0.388725
0.388739
0.388753
0.388753
0.388767
0.388782
0.388796
0.38881
0.38881
0.388824
0.388839
0.388853
0.388867
0.388867
0.388882
0.388896
0.388911
0.388925
0.388925
0.38894
0.388954
0.388969
0.388983
0.388983
0.388998
0.389013
0.389027
0.389042
0.389042
0.389057
0.389072
0.389086
0.389101
0.389101
0.389116
0.389131
0.389146
0.389161
0.389161
0.389176
0.389191
0.389206
0.389221
0.389221
0.389236
0.389251
0.389266
0.389281
0.389281
0.389297
0.389312
0.389327
0.389342
0.389342
0.389358
0.389373
0.389388
0.389404
0.389404
0.389419
0.389435
0.38945
0.389466
0.389466
0.389481
0.389497
0.389512
0.389528
0.389528
0.389544
0.389559
0.389575
0.389591
0.389591
0.389607
0.389622
0.389638
0.389654
0.389654
0.38967
0.389686
0.389702
0.389718
0.389718
0.389734
0.38975
0.389766
0.389782
0.389782
0.389798
0.389814
0.38983
0.389846
0.389846
0.389863
0.389879
0.389895
0.389912
0.389912
0.389928
0.389944
0.389961
0.389977
0.389977
0.389993
0.39001
0.390026
0.390043
0.390043
0.39006
0.390076
0.390093
0.390109
0.390109
0.390126
0.390143
0.39016
0.390176
0.390176
0.390193
0.39021
0.390227
0.390244
0.390244
0.390261
0.390277
0.390294
0.390311
0.390311
0.390328
0.390345
0.390363
0.39038
0.39038
0.390397
0.390414
0.390431
0.390448
0.390448
0.390466
0.390483
0.3905
0.390518
0.390518
0.390535
0.390552
0.39057
0.390587
0.390587
0.390605
0.390622
0.39064
0.390657
0.390657
0.390675
0.390692
0.39071
0.390728
0.390728
0.390745
0.390763
0.390781
0.390799
0.390799
0.390816
0.390834
0.390852
0.39087
0.39087
0.390888
0.390906
0.390924
0.390942
0.390942
0.39096
0.390978
0.390996
0.391014
0.391014
0.391032
0.391051
0.391069
0.391087
0.391087
0.391105
0.391124
0.391142
0.39116
0.39116
0.391179
0.391197
0.391216
0.391234
0.391234
0.391253
0.391271
0.39129
0.391308
0.391308
0.391327
0.391345
0.391364
0.391383
0.391383
0.391402
0.39142
0.391439
0.391458
0.391458
0.391477
0.391496
0.391514
0.391533
0.391533
0.391552
0.391571
0.39159
0.391609
0.391609
0.391628
0.391648
0.391667
0.391686
0.391686
0.391705
0.391724
0.391743
0.391763
0.391763
0.391782
0.391801
0.391821
0.39184
0.39184
0.391859
0.391879
0.391898
0.391918
0.391918
0.391937
0.391957
0.391976
0.391996
0.391996
0.392016
0.392035
0.392055
0.392075
0.392075
0.392094
0.392114
0.392134
0.392154
0.392154
0.392174
0.392194
0.392214
0.392233
0.392233
0.392253
0.392273
0.392293
0.392314
0.392314
0.392334
0.392354
0.392374
0.392394
0.392394
0.392414
0.392434
0.392455
0.392475
0.392475
0.392495
0.392516
0.392536
0.392556
0.392556
0.392577
0.392597
0.392618
0.392638
0.392638
0.392659
0.392679
0.3927
0.392721
0.392721
0.392741
0.392762
0.392783
0.392803
0.392803
0.392824
0.392845
0.392866
0.392887
0.392887
0.392907
0.392928
0.392949
0.39297
0.39297
0.392991
0.393012
0.393033
0.393054
0.393054
0.393076
0.393097
0.393118
0.393139
0.393139
0.39316
0.393181
0.393203
0.393224
0.393224
0.393245
0.393267
0.393288
0.39331
0.39331
0.393331
0.393352
0.393374
0.393395
0.393395
0.393417
0.393439
0.39346
0.393482
0.393482
0.393504
0.393525
0.393547
0.393569
0.393569
0.393591
0.393612
0.393634
0.393656
0.393656
0.393678
0.3937
0.393722
0.393744
0.393744
0.393766
0.393788
0.39381
0.393832
0.393832
0.393854
0.393876
0.393898
0.393921
0.393921
0.393943
0.393965
0.393988
0.39401
0.39401
0.394032
0.394055
0.394077
0.394099
0.394099
0.394122
0.394144
0.394167
0.394189
0.394189
0.394212
0.394235
0.394257
0.39428
0.39428
0.394303
0.394325
0.394348
0.394371
0.394371
0.394394
0.394416
0.394439
0.394462
0.394462
0.394485
0.394508
0.394531
0.394554
0.394554
0.394577
0.3946
0.394623
0.394646
0.394646
0.39467
0.394693
0.394716
0.394739
0.394739
0.394762
0.394786
0.394809
0.394832
0.394832
0.394856
0.394879
0.394903
0.394926
0.394926
0.394949
0.394973
0.394996
0.39502
0.39502
0.395044
0.395067
0.395091
0.395115
0.395115
0.395138
0.395162
0.395186
0.39521
0.39521
0.395233
0.395257
0.395281
0.395305
0.395305
0.395329
0.395353
0.395377
0.395401
0.395401
0.395425
0.395449
0.395473
0.395497
0.395497
0.395522
0.395546
0.39557
0.395594
0.395594
0.395618
0.395643
0.395667
0.395691
0.395691
0.395716
0.39574
0.395765
0.395789
0.395789
0.395814
0.395838
0.395863
0.395887
0.395887
0.395912
0.395937
0.395961
0.395986
0.395986
0.396011
0.396035
0.39606
0.396085
0.396085
0.39611
0.396135
0.39616
0.396185
0.396185
0.39621
0.396235
0.39626
0.396285
0.396285
0.39631
0.396335
0.39636
0.396385
0.396385
0.39641
0.396435
0.396461
0.396486
0.396486
0.396511
0.396536
0.396562
0.396587
0.396587
0.396613
0.396638
0.396663
0.396689
0.396689
0.396715
0.39674
0.396766
0.396791
0.396791
0.396817
0.396843
0.396868
0.396894
0.396894
0.39692
0.396945
0.396971
0.396997
0.396997
0.397023
0.397049
0.397075
0.397101
0.397101
0.397127
0.397153
0.397179
0.397205
0.397205
0.397231
0.397257
0.397283
0.397309
0.397309
0.397335
0.397362
0.397388
0.397414
0.397414
0.39744
0.397467
0.397493
0.39752
0.39752
0.397546
0.397572
0.397599
0.397625
0.397625
0.397652
0.397678
0.397705
0.397732
0.397732
0.397758
0.397785
0.397812
0.397838
0.397838
0.397865
0.397892
0.397919
0.397946
0.397946
0.397973
0.397999
0.398026
0.398053
0.398053
0.39808
0.398107
0.398134
0.398161
0.398161
0.398189
0.398216
0.398243
0.39827
0.39827
0.398297
0.398324
0.398352
0.398379
0.398379
0.398406
0.398434
0.398461
0.398488
0.398488
0.398516
0.398543
0.398571
0.398598
0.398598
0.398626
0.398653
0.398681
0.398709
0.398709
0.398736
0.398764
0.398792
0.39882
0.39882
0.398847
0.398875
0.398903
0.398931
0.398931
0.398959
0.398987
0.399015
0.399043
0.399043
0.399071
0.399099
0.399127
0.399155
0.399155
0.399183
0.399211
0.399239
0.399267
0.399267
0.399296
0.399324
0.399352
0.39938
0.39938
0.399409
0.399437
0.399465
0.399494
0.399494
0.399522
0.399551
0.399579
0.399608
0.399608
0.399636
0.399665
0.399694
0.399722
0.399722
0.399751
0.39978
0.399808
0.399837
0.399837
0.399866
0.399895
0.399924
0.399952
0.399952
0.399981
0.40001
0.400039
0.400068
0.400068
0.400097
0.400126
0.400155
0.400184
0.400184
0.400214
0.400243
0.400272
0.400301
0.400301
0.40033
0.40036
0.400389
0.400418
0.400418
0.400448
0.400477
0.400506
0.400536
0.400536
0.400565
0.400595
0.400624
0.400654
0.400654
0.400683
0.400713
0.400743
0.400772
0.400772
0.400802
0.400832
0.400861
0.400891
0.400891
0.400921
0.400951
0.400981
0.401011
0.401011
0.40104
0.40107
0.4011
0.40113
0.40113
0.40116
0.40119
0.40122
0.401251
0.401251
0.401281
0.401311
0.401341
0.401371
0.401371
0.401402
0.401432
0.401462
0.401492
0.401492
0.401523
0.401553
0.401584
0.401614
0.401614
0.401645
0.401675
0.401706
0.401736
0.401736
0.401767
0.401797
0.401828
0.401859
0.401859
0.401889
0.40192
0.401951
0.401982
0.401982
0.402012
0.402043
0.402074
0.402105
0.402105
0.402136
0.402167
0.402198
0.402229
0.402229
0.40226
0.402291
0.402322
0.402353
0.402353
0.402384
0.402416
0.402447
0.402478
0.402478
0.402509
0.402541
0.402572
0.402603
0.402603
0.402635
0.402666
0.402697
0.402729
0.402729
0.40276
0.402792
0.402823
0.402855
0.402855
0.402887
0.402918
0.40295
0.402981
0.402981
0.403013
0.403045
0.403077
0.403108
0.403108
0.40314
0.403172
0.403204
0.403236
0.403236
0.403268
0.4033
0.403332
0.403364
0.403364
0.403396
0.403428
0.40346
0.403492
0.403492
0.403524
0.403557
0.403589
0.403621
0.403621
0.403653
0.403686
0.403718
0.40375
0.40375
0.403783
0.403815
0.403847
0.40388
0.40388
0.403912
0.403945
0.403977
0.40401
0.40401
0.404043
0.404075
0.404108
0.404141
0.404141
0.404173
0.404206
0.404239
0.404272
0.404272
0.404305
0.404337
0.40437
0.404403
0.404403
0.404436
0.404469
0.404502
0.404535
0.404535
0.404568
0.404601
0.404634
0.404667
0.404667
0.404701
0.404734
0.404767
0.4048
0.4048
0.404834
0.404867
0.4049
0.404934
0.404934
0.404967
0.405
0.405034
0.405067
0.405067
0.405101
0.405134
0.405168
0.405202
0.405202
0.405235
0.405269
0.405302
0.405336
0.405336
0.40537
0.405404
0.405437
0.405471
0.405471
0.405505
0.405539
0.405573
0.405607
0.405607
0.405641
0.405675
0.405709
0.405743
0.405743
0.405777
0.405811
0.405845
0.405879
0.405879
0.405913
0.405947
0.405982
0.406016
0.406016
0.40605
0.406085
0.406119
0.406153
0.406153
0.406188
0.406222
0.406257
0.406291
0.406291
0.406326
0.40636
0.406395
0.406429
0.406429
0.406464
0.406498
0.406533
0.406568
0.406568
0.406603
0.406637
0.406672
0.406707
0.406707
0.406742
0.406777
0.406812
0.406847
0.406847
0.406881
0.406916
0.406951
0.406986
0.406986
0.407022
0.407057
0.407092
0.407127
0.407127
0.407162
0.407197
0.407233
0.407268
0.407268
0.407303
0.407338
0.407374
0.407409
0.407409
0.407445
0.40748
0.407515
0.407551
0.407551
0.407586
0.407622
0.407658
0.407693
0.407693
0.407729
0.407764
0.4078
0.407836
0.407836
0.407872
0.407907
0.407943
0.407979
0.407979
0.408015
0.408051
0.408087
0.408123
0.408123
0.408158
0.408194
0.40823
0.408267
0.408267
0.408303
0.408339
0.408375
0.408411
0.408411
0.408447
0.408483
0.40852
0.408556
0.408556
0.408592
0.408628
0.408665
0.408701
0.408701
0.408738
0.408774
0.408811
0.408847
0.408847
0.408884
0.40892
0.408957
0.408993
0.408993
0.40903
0.409067
0.409103
0.40914
0.40914
0.409177
0.409213
0.40925
0.409287
0.409287
0.409324
0.409361
0.409398
0.409435
0.409435
0.409472
0.409509
0.409546
0.409583
0.409583
0.40962
0.409657
0.409694
0.409731
0.409731
0.409768
0.409806
0.409843
0.40988
0.40988
0.409917
0.409955
0.409992
0.410029
0.410029
0.410067
0.410104
0.410142
0.410179
0.410179
0.410217
0.410254
0.410292
0.41033
0.41033
0.410367
0.410405
0.410443
0.41048
0.41048
0.410518
0.410556
0.410594
0.410631
0.410631
0.410669
0.410707
0.410745
0.410783
0.410783
0.410821
0.410859
0.410897
0.410935
0.410935
0.410973
0.411011
0.411049
0.411087
0.411087
0.411126
0.411164
0.411202
0.41124
0.41124
0.411279
0.411317
0.411355
0.411394
0.411394
0.411432
0.411471
0.411509
0.411548
0.411548
0.411586
0.411625
0.411663
0.411702
0.411702
0.41174
0.411779
0.411818
0.411857
0.411857
0.411895
0.411934
0.411973
0.412012
0.412012
0.412051
0.412089
0.412128
0.412167
0.412167
0.412206
0.412245
0.412284
0.412323
0.412323
0.412362
0.412402
0.412441
0.41248
0.41248
0.412519
0.412558
0.412598
0.412637
0.412637
0.412676
0.412715
0.412755
0.412794
0.412794
0.412834
0.412873
0.412912
0.412952
0.412952
0.412992
0.413031
0.413071
0.41311
0.41311
0.41315
0.41319
0.413229
0.413269
0.413269
0.413309
0.413348
0.413388
0.413428
0.413428
0.413468
0.413508
0.413548
0.413588
0.413588
0.413628
0.413668
0.413708
0.413748
0.413748
0.413788
0.413828
0.413868
0.413908
0.413908
0.413948
0.413989
0.414029
0.414069
0.414069
0.414109
0.41415
0.41419
0.414231
0.414231
0.414271
0.414311
0.414352
0.414392
0.414392
0.414433
0.414473
0.414514
0.414555
0.414555
0.414595
0.414636
0.414677
0.414717
0.414717
0.414758
0.414799
0.41484
0.41488
0.41488
0.414921
0.414962
0.415003
0.415044
0.415044
0.415085
0.415126
0.415167
0.415208
0.415208
0.415249
0.41529
0.415331
0.415373
0.415373
0.415414
0.415455
0.415496
0.415538
0.415538
0.415579
0.41562
0.415661
0.415703
0.415703
0.415744
0.415786
0.415827
0.415869
0.415869
0.41591
0.415952
0.415993
0.416035
0.416035
0.416077
0.416118
0.41616
0.416202
0.416202
0.416243
0.416285
0.416327
0.416369
0.416369
0.416411
0.416453
0.416494
0.416536
0.416536
0.416578
0.41662
0.416662
0.416704
0.416704
0.416746
0.416789
0.416831
0.416873
0.416873
0.416915
0.416957
0.417
0.417042
0.417042
0.417084
0.417126
0.417169
0.417211
0.417211
0.417254
0.417296
0.417338
0.417381
0.417381
0.417423
0.417466
0.417509
0.417551
0.417551
0.417594
0.417636
0.417679
0.417722
0.417722
0.417765
0.417807
0.41785
0.417893
0.417893
0.417936
0.417979
0.418022
0.418065
0.418065
0.418108
0.418151
0.418194
0.418237
0.418237
0.41828
0.418323
0.418366
0.418409
0.418409
0.418452
0.418495
0.418539
0.418582
0.418582
0.418625
0.418669
0.418712
0.418755
0.418755
0.418799
0.418842
0.418886
0.418929
0.418929
0.418973
0.419016
0.41906
0.419103
0.419103
0.419147
0.419191
0.419234
0.419278
0.419278
0.419322
0.419365
0.419409
0.419453
0.419453
0.419497
0.419541
0.419585
0.419629
0.419629
0.419673
0.419717
0.419761
0.419805
0.419805
0.419849
0.419893
0.419937
0.419981
0.419981
0.420025
0.420069
0.420114
0.420158
0.420158
0.420202
0.420246
0.420291
0.420335
0.420335
0.42038
0.420424
0.420468
0.420513
0.420513
0.420557
0.420602
0.420647
0.420691
0.420691
0.420736
0.42078
0.420825
0.42087
0.42087
0.420914
0.420959
0.421004
0.421049
0.421049
0.421094
0.421139
0.421183
0.421228
0.421228
0.421273
0.421318
0.421363
0.421408
0.421408
0.421453
0.421498
0.421544
0.421589
0.421589
0.421634
0.421679
0.421724
0.42177
0.42177
0.421815
0.42186
0.421906
0.421951
0.421951
0.421996
0.422042
0.422087
0.422133
0.422133
0.422178
0.422224
0.422269
0.422315
0.422315
0.42236
0.422406
0.422452
0.422497
0.422497
0.422543
0.422589
0.422635
0.42268
0.42268
0.422726
0.422772
0.422818
0.422864
0.422864
0.42291
0.422956
0.423002
0.423048
0.423048
0.423094
0.42314
0.423186
0.423232
0.423232
0.423278
0.423325
0.423371
0.423417
0.423417
0.423463
0.42351
0.423556
0.423602
0.423602
0.423649
0.423695
0.423741
0.423788
0.423788
0.423834
0.423881
0.423928
0.423974
0.423974
0.424021
0.424067
0.424114
0.424161
0.424161
0.424207
0.424254
0.424301
0.424348
0.424348
0.424394
0.424441
0.424488
0.424535
0.424535
0.424582
0.424629
0.424676
0.424723
0.424723
0.42477
0.424817
0.424864
0.424911
0.424911
0.424959
0.425006
0.425053
0.4251
0.4251
0.425147
0.425195
0.425242
0.425289
0.425289
0.425337
0.425384
0.425432
0.425479
0.425479
0.425526
0.425574
0.425622
0.425669
0.425669
0.425717
0.425764
0.425812
0.42586
0.42586
0.425907
0.425955
0.426003
0.426051
0.426051
0.426098
0.426146
0.426194
0.426242
0.426242
0.42629
0.426338
0.426386
0.426434
0.426434
0.426482
0.42653
0.426578
0.426626
0.426626
0.426674
0.426722
0.426771
0.426819
0.426819
0.426867
0.426915
0.426964
0.427012
0.427012
0.42706
0.427109
0.427157
0.427206
0.427206
0.427254
0.427303
0.427351
0.4274
0.4274
0.427448
0.427497
0.427545
0.427594
0.427594
0.427643
0.427692
0.42774
0.427789
0.427789
0.427838
0.427887
0.427936
0.427984
0.427984
0.428033
0.428082
0.428131
0.42818
0.42818
0.428229
0.428278
0.428327
0.428376
0.428376
0.428426
0.428475
0.428524
0.428573
0.428573
0.428622
0.428672
0.428721
0.42877
0.42877
0.42882
0.428869
0.428918
0.428968
0.428968
0.429017
0.429067
0.429116
0.429166
0.429166
0.429215
0.429265
0.429315
0.429364
0.429364
0.429414
0.429464
0.429513
0.429563
0.429563
0.429613
0.429663
0.429713
0.429762
0.429762
0.429812
0.429862
0.429912
0.429962
0.429962
0.430012
0.430062
0.430112
0.430162
0.430162
0.430212
0.430263
0.430313
0.430363
0.430363
0.430413
0.430463
0.430514
0.430564
0.430564
0.430614
0.430665
0.430715
0.430766
0.430766
0.430816
0.430866
0.430917
0.430967
0.430967
0.431018
0.431069
0.431119
0.43117
0.43117
0.43122
0.431271
0.431322
0.431373
0.431373
0.431423
0.431474
0.431525
0.431576
0.431576
0.431627
0.431678
0.431729
0.43178
0.43178
0.431831
0.431882
0.431933
0.431984
0.431984
0.432035
0.432086
0.432137
0.432188
0.432188
0.432239
0.432291
0.432342
0.432393
0.432393
0.432445
0.432496
0.432547
0.432599
0.432599
0.43265
0.432702
0.432753
0.432805
0.432805
0.432856
0.432908
0.432959
0.433011
0.433011
0.433063
0.433114
0.433166
0.433218
0.433218
0.433269
0.433321
0.433373
0.433425
0.433425
0.433477
0.433529
0.43358
0.433632
0.433632
0.433684
0.433736
0.433788
0.43384
0.43384
0.433893
0.433945
0.433997
0.434049
0.434049
0.434101
0.434153
0.434206
0.434258
0.434258
0.43431
0.434363
0.434415
0.434467
0.434467
0.43452
0.434572
0.434625
0.434677
0.434677
0.43473
0.434782
0.434835
0.434887
0.434887
0.43494
0.434993
0.435045
0.435098
0.435098
0.435151
0.435203
0.435256
0.435309
0.435309
0.435362
0.435415
0.435468
0.435521
0.435521
0.435574
0.435627
0.43568
0.435733
0.435733
0.435786
0.435839
0.435892
0.435945
0.435945
0.435998
0.436051
0.436105
0.436158
0.436158
0.436211
0.436265
0.436318
0.436371
0.436371
0.436425
0.436478
0.436531
0.436585
0.436585
0.436638
0.436692
0.436746
0.436799
0.436799
0.436853
0.436906
0.43696
0.437014
0.437014
0.437067
0.437121
0.437175
0.437229
0.437229
0.437283
0.437336
0.43739
0.437444
0.437444
0.437498
0.437552
0.437606
0.43766
0.43766
0.437714
0.437768
0.437822
0.437876
0.437876
0.437931
0.437985
0.438039
0.438093
0.438093
0.438148
0.438202
0.438256
0.43831
0.43831
0.438365
0.438419
0.438474
0.438528
0.438528
0.438583
0.438637
0.438692
0.438746
0.438746
0.438801
0.438855
0.43891
0.438965
0.438965
0.439019
0.439074
0.439129
0.439184
0.439184
0.439238
0.439293
0.439348
0.439403
0.439403
0.439458
0.439513
0.439568
0.439623
0.439623
0.439678
0.439733
0.439788
0.439843
0.439843
0.439898
0.439953
0.440009
0.440064
0.440064
0.440119
0.440174
0.44023
0.440285
0.440285
0.44034
0.440396
0.440451
0.440507
0.440507
0.440562
0.440617
0.440673
0.440729
0.440729
0.440784
0.44084
0.440895
0.440951
0.440951
0.441007
0.441062
0.441118
0.441174
0.441174
0.44123
0.441285
0.441341
0.441397
0.441397
0.441453
0.441509
0.441565
0.441621
0.441621
0.441677
0.441733
0.441789
0.441845
0.441845
0.441901
0.441957
0.442013
0.44207
0.44207
0.442126
0.442182
0.442238
0.442295
0.442295
0.442351
0.442407
0.442464
0.44252
0.44252
0.442577
0.442633
0.44269
0.442746
0.442746
0.442803
0.442859
0.442916
0.442972
0.442972
0.443029
0.443086
0.443142
0.443199
0.443199
0.443256
0.443313
0.44337
0.443426
0.443426
0.443483
0.44354
0.443597
0.443654
0.443654
0.443711
0.443768
0.443825
0.443882
0.443882
0.443939
0.443996
0.444053
0.444111
0.444111
0.444168
0.444225
0.444282
0.44434
0.44434
0.444397
0.444454
0.444512
0.444569
0.444569
0.444626
0.444684
0.444741
0.444799
0.444799
0.444856
0.444914
0.444971
0.445029
0.445029
0.445087
0.445144
0.445202
0.44526
0.44526
0.445317
0.445375
0.445433
0.445491
0.445491
0.445549
0.445607
0.445664
0.445722
0.445722
0.44578
0.445838
0.445896
0.445954
0.445954
0.446012
0.446071
0.446129
0.446187
0.446187
0.446245
0.446303
0.446361
0.44642
0.44642
0.446478
0.446536
0.446595
0.446653
0.446653
0.446711
0.44677
0.446828
0.446887
0.446887
0.446945
0.447004
0.447062
0.447121
0.447121
0.447179
0.447238
0.447297
0.447355
0.447355
0.447414
0.447473
0.447532
0.44759
0.44759
0.447649
0.447708
0.447767
0.447826
0.447826
0.447885
0.447944
0.448003
0.448062
0.448062
0.448121
0.44818
0.448239
0.448298
0.448298
0.448357
0.448416
0.448475
0.448535
0.448535
0.448594
0.448653
0.448713
0.448772
0.448772
0.448831
0.448891
0.44895
0.449009
0.449009
0.449069
0.449128
0.449188
0.449248
0.449248
0.449307
0.449367
0.449426
0.449486
0.449486
0.449546
0.449605
0.449665
0.449725
0.449725
0.449785
0.449845
0.449904
0.449964
0.449964
0.450024
0.450084
0.450144
0.450204
0.450204
0.450264
0.450324
0.450384
0.450444
0.450444
0.450504
0.450564
0.450625
0.450685
0.450685
0.450745
0.450805
0.450866
0.450926
0.450926
0.450986
0.451047
0.451107
0.451167
0.451167
0.451228
0.451288
0.451349
0.451409
0.451409
0.45147
0.45153
0.451591
0.451652
0.451652
0.451712
0.451773
0.451834
0.451894
0.451894
0.451955
0.452016
0.452077
0.452138
0.452138
0.452199
0.452259
0.45232
0.452381
0.452381
0.452442
0.452503
0.452564
0.452625
0.452625
0.452687
0.452748
0.452809
0.45287
0.45287
0.452931
0.452992
0.453054
0.453115
0.453115
0.453176
0.453238
0.453299
0.45336
0.45336
0.453422
0.453483
0.453545
0.453606
0.453606
0.453668
0.453729
0.453791
0.453852
0.453852
0.453914
0.453976
0.454037
0.454099
0.454099
0.454161
0.454222
0.454284
0.454346
0.454346
0.454408
0.45447
0.454532
0.454594
0.454594
0.454656
0.454718
0.45478
0.454842
0.454842
0.454904
0.454966
0.455028
0.45509
0.45509
0.455152
0.455214
0.455277
0.455339
0.455339
0.455401
0.455463
0.455526
0.455588
0.455588
0.45565
0.455713
0.455775
0.455838
0.455838
0.4559
0.455963
0.456025
0.456088
0.456088
0.45615
0.456213
0.456276
0.456338
0.456338
0.456401
0.456464
0.456527
0.456589
0.456589
0.456652
0.456715
0.456778
0.456841
0.456841
0.456904
0.456967
0.45703
0.457093
0.457093
0.457156
0.457219
0.457282
0.457345
0.457345
0.457408
0.457471
0.457534
0.457598
0.457598
0.457661
0.457724
0.457787
0.457851
0.457851
0.457914
0.457978
0.458041
0.458104
0.458104
0.458168
0.458231
0.458295
0.458358
0.458358
0.458422
0.458485
0.458549
0.458613
0.458613
0.458676
0.45874
0.458804
0.458868
0.458868
0.458931
0.458995
0.459059
0.459123
0.459123
0.459187
0.459251
0.459315
0.459379
0.459379
0.459443
0.459507
0.459571
0.459635
0.459635
0.459699
0.459763
0.459827
0.459891
0.459891
0.459956
0.46002
0.460084
0.460148
0.460148
0.460213
0.460277
0.460341
0.460406
0.460406
0.46047
0.460535
0.460599
0.460664
0.460664
0.460728
0.460793
0.460857
0.460922
0.460922
0.460987
0.461051
0.461116
0.461181
0.461181
0.461245
0.46131
0.461375
0.46144
0.46144
0.461505
0.46157
0.461634
0.461699
0.461699
0.461764
0.461829
0.461894
0.461959
0.461959
0.462024
0.46209
0.462155
0.46222
0.46222
0.462285
0.46235
0.462415
0.462481
0.462481
0.462546
0.462611
0.462677
0.462742
0.462742
0.462807
0.462873
0.462938
0.463004
0.463004
0.463069
0.463135
0.4632
0.463266
0.463266
0.463332
0.463397
0.463463
0.463528
0.463528
0.463594
0.46366
0.463726
0.463792
0.463792
0.463857
0.463923
0.463989
0.464055
0.464055
0.464121
0.464187
0.464253
0.464319
0.464319
0.464385
0.464451
0.464517
0.464583
0.464583
0.464649
0.464715
0.464782
0.464848
0.464848
0.464914
0.46498
0.465047
0.465113
0.465113
0.465179
0.465246
0.465312
0.465379
0.465379
0.465445
0.465512
0.465578
0.465645
0.465645
0.465711
0.465778
0.465844
0.465911
0.465911
0.465978
0.466044
0.466111
0.466178
0.466178
0.466245
0.466312
0.466378
0.466445
0.466445
0.466512
0.466579
0.466646
0.466713
0.466713
0.46678
0.466847
0.466914
0.466981
0.466981
0.467048
0.467115
0.467183
0.46725
0.46725
0.467317
0.467384
0.467451
0.467519
0.467519
0.467586
0.467653
0.467721
0.467788
0.467788
0.467856
0.467923
0.467991
0.468058
0.468058
0.468126
0.468193
0.468261
0.468328
0.468328
0.468396
0.468464
0.468531
0.468599
0.468599
0.468667
0.468735
0.468802
0.46887
0.46887
0.468938
0.469006
0.469074
0.469142
0.469142
0.46921
0.469278
0.469346
0.469414
0.469414
0.469482
0.46955
0.469618
0.469686
0.469686
0.469755
0.469823
0.469891
0.469959
0.469959
0.470027
0.470096
0.470164
0.470233
0.470233
0.470301
0.470369
0.470438
0.470506
0.470506
0.470575
0.470643
0.470712
0.47078
0.47078
0.470849
0.470918
0.470986
0.471055
0.471055
0.471124
0.471192
0.471261
0.47133
0.47133
0.471399
0.471468
0.471537
0.471605
0.471605
0.471674
0.471743
0.471812
0.471881
0.471881
0.47195
0.472019
0.472088
0.472158
0.472158
0.472227
0.472296
0.472365
0.472434
0.472434
0.472504
0.472573
0.472642
0.472711
0.472711
0.472781
0.47285
0.47292
0.472989
0.472989
0.473059
0.473128
0.473198
0.473267
0.473267
0.473337
0.473406
0.473476
0.473545
0.473545
0.473615
0.473685
0.473755
0.473824
0.473824
0.473894
0.473964
0.474034
0.474104
0.474104
0.474174
0.474243
0.474313
0.474383
0.474383
0.474453
0.474523
0.474593
0.474664
0.474664
0.474734
0.474804
0.474874
0.474944
0.474944
0.475014
0.475085
0.475155
0.475225
0.475225
0.475295
0.475366
0.475436
0.475507
0.475507
0.475577
0.475647
0.475718
0.475788
0.475788
0.475859
0.475929
0.476
0.476071
0.476071
0.476141
0.476212
0.476283
0.476353
0.476353
0.476424
0.476495
0.476566
0.476636
0.476636
0.476707
0.476778
0.476849
0.47692
0.47692
0.476991
0.477062
0.477133
0.477204
0.477204
0.477275
0.477346
0.477417
0.477488
0.477488
0.47756
0.477631
0.477702
0.477773
0.477773
0.477845
0.477916
0.477987
0.478059
0.478059
0.47813
0.478201
0.478273
0.478344
0.478344
0.478416
0.478487
0.478559
0.47863
0.47863
0.478702
0.478774
0.478845
0.478917
0.478917
0.478989
0.47906
0.479132
0.479204
0.479204
0.479276
0.479348
0.479419
0.479491
0.479491
0.479563
0.479635
0.479707
0.479779
0.479779
0.479851
0.479923
0.479995
0.480067
0.480067
0.48014
0.480212
0.480284
0.480356
0.480356
0.480428
0.480501
0.480573
0.480645
0.480645
0.480718
0.48079
0.480862
0.480935
0.480935
0.481007
0.48108
0.481152
0.481225
0.481225
0.481297
0.48137
0.481442
0.481515
0.481515
0.481588
0.48166
0.481733
0.481806
0.481806
0.481879
0.481951
0.482024
0.482097
0.482097
0.48217
0.482243
0.482316
0.482389
0.482389
0.482462
0.482535
0.482608
0.482681
0.482681
0.482754
0.482827
0.4829
0.482973
0.482973
0.483047
0.48312
0.483193
0.483266
0.483266
0.48334
0.483413
0.483486
0.48356
0.48356
0.483633
0.483707
0.48378
0.483854
0.483854
0.483927
0.484001
0.484074
0.484148
0.484148
0.484221
0.484295
0.484369
0.484442
0.484442
0.484516
0.48459
0.484664
0.484738
0.484738
0.484811
0.484885
0.484959
0.485033
0.485033
0.485107
0.485181
0.485255
0.485329
0.485329
0.485403
0.485477
0.485551
0.485625
0.485625
0.485699
0.485774
0.485848
0.485922
0.485922
0.485996
0.486071