<?xml version="1.0"?>
<VTKFile type="UnstructuredGrid" version="0.1" byte_order="LittleEndian">
<UnstructuredGrid>
<Piece NumberOfPoints="5000" NumberOfCells="4000">
<PointData Scalars="Reaction 0">
<DataArray type="Float32" Name="Reaction 0" format="ascii">
0.919043
0.919043
0.919043
0.919043
0.919043
0.919043
0.919043
0.919043
0.919043
0.919043
0.919043
0.919043
0.919043
0.919044
0.919044
0.919044
0.919044
0.919044
0.919044
0.919044
0.919044
0.919044
0.919044
0.919044
0.919044
0.919044
0.919044
0.919044
0.919044
0.919044
0.919044
0.919044
0.919044
0.919044
0.919044
0.919044
0.919044
0.919044
0.919044
0.919044
0.919044
0.919044
0.919044
0.919044
0.919044
0.919044
0.919044
0.919044
0.919045
0.919045
0.919045
0.919045
0.919045
0.919045
0.919045
0.919045
0.919045
0.919045
0.919045
0.919045
0.919045
0.919045
0.919045
0.919045
0.919045
0.919045
0.919045
0.919046
0.919046
0.919046
0.919046
0.919046
0.919046
0.919046
0.919046
0.919046
0.919046
0.919046
0.919046
0.919046
0.919046
0.919047
0.919047
0.919047
0.919047
0.919047
0.919047
0.919047
0.919047
0.919047
0.919047
0.919047
0.919047
0.919048
0.919048
0.919048
0.919048
0.919048
0.919048
0.919048
0.919048
0.919048
0.919048
0.919049
0.919049
0.919049
0.919049
0.919049
0.919049
0.919049
0.919049
0.919049
0.919049
0.91905
0.91905
0.91905
0.91905
0.91905
0.91905
0.91905
0.91905
0.91905
0.919051
0.919051
0.919051
0.919051
0.919051
0.919051
0.919051
0.919051
0.919051
0.919052
0.919052
0.919052
0.919052
0.919052
0.919052
0.919052
0.919053
0.919053
0.919053
0.919053
0.919053
0.919053
0.919053
0.919053
0.919054
0.919054
0.919054
0.919054
0.919054
0.919054
0.919054
0.919055
0.919055
0.919055
0.919055
0.919055
0.919055
0.919056
0.919056
0.919056
0.919056
0.919056
0.919056
0.919056
0.919056
0.919057
0.919057
0.919057
0.919057
0.919057
0.919057
0.919058
0.919058
0.919058
0.919058
0.919058
0.919059
0.919059
0.919059
0.919059
0.919059
0.919059
0.91906
0.91906
0.91906
0.91906
0.91906
0.91906
0.91906
0.919061
0.919061
0.919061
0.919061
0.919061
0.919062
0.919062
0.919062
0.919062
0.919062
0.919063
0.919063
0.919063
0.919063
0.919063
0.919064
0.919064
0.919064
0.919064
0.919064
0.919065
0.919065
0.919065
0.919065
0.919065
0.919066
0.919066
0.919066
0.919066
0.919066
0.919067
0.919067
0.919067
0.919067
0.919067
0.919068
0.919068
0.919068
0.919068
0.919068
0.919069
0.919069
0.919069
0.91907
0.91907
0.91907
0.91907
0.91907
0.919071
0.919071
0.919071
0.919071
0.919072
0.919072
0.919072
0.919072
0.919072
0.919073
0.919073
0.919073
0.919073
0.919074
0.919074
0.919074
0.919074
0.919074
0.919075
0.919075
0.919075
0.919075
0.919076
0.919076
0.919076
0.919077
0.919077
0.919077
0.919077
0.919078
0.919078
0.919078
0.919078
0.919079
0.919079
0.919079
0.919079
0.919079
0.91908
0.91908
0.91908
0.91908
0.919081
0.919081
0.919081
0.919082
0.919082
0.919082
0.919082
0.919083
0.919083
0.919083
0.919084
0.919084
0.919084
0.919085
0.919085
0.919085
0.919085
0.919086
0.919086
0.919086
0.919086
0.919087
0.919087
0.919087
0.919087
0.919088
0.919088
0.919088
0.919089
0.919089
0.919089
0.91909
0.91909
0.91909
0.91909
0.919091
0.919091
0.919091
0.919092
0.919092
0.919092
0.919093
0.919093
0.919093
0.919093
0.919094
0.919094
0.919094
0.919095
0.919095
0.919095
0.919096
0.919096
0.919096
0.919096
0.919097
0.919097
0.919098
0.919098
0.919098
0.919098
0.919099
0.919099
0.9191
0.9191
0.9191
0.9191
0.919101
0.919101
0.919101
0.919102
0.919102
0.919103
0.919103
0.919103
0.919103
0.919104
0.919104
0.919105
0.919105
0.919105
0.919106
0.919106
0.919106
0.919106
0.919107
0.919107
0.919108
0.919108
0.919108
0.919109
0.919109
0.919109
0.91911
0.91911
0.91911
0.919111
0.919111
0.919112
0.919112
0.919112
0.919113
0.919113
0.919113
0.919113
0.919114
0.919114
0.919115
0.919115
0.919115
0.919116
0.919116
0.919117
0.919117
0.919117
0.919118
0.919118
0.919119
0.919119
0.919119
0.91912
0.91912
0.91912
0.919121
0.919121
0.919121
0.919122
0.919122
0.919123
0.919123
0.919123
0.919124
0.919124
0.919125
0.919125
0.919125
0.919126
0.919126
0.919127
0.919127
0.919127
0.919128
0.919128
0.919129
0.919129
0.919129
0.91913
0.91913
0.919131
0.919131
0.919131
0.919132
0.919132
0.919133
0.919133
0.919133
0.919134
0.919134
0.919135
0.919135
0.919135
0.919136
0.919136
0.919137
0.919137
0.919137
0.919138
0.919139
0.919139
0.919139
0.91914
0.91914
0.919141
0.919141
0.919141
0.919142
0.919142
0.919143
0.919143
0.919143
0.919144
0.919144
0.919145
0.919146
0.919146
0.919146
0.919147
0.919147
0.919148
0.919148
0.919148
0.919149
0.919149
0.91915
0.91915
0.91915
0.919151
0.919152
0.919152
0.919152
0.919153
0.919153
0.919154
0.919154
0.919154
0.919155
0.919156
0.919156
0.919157
0.919157
0.919157
0.919158
0.919158
0.919159
0.919159
0.91916
0.91916
0.919161
0.919161
0.919161
0.919162
0.919162
0.919163
0.919164
0.919164
0.919164
0.919165
0.919165
0.919166
0.919166
0.919167
0.919167
0.919168
0.919168
0.919168
0.919169
0.91917
0.91917
0.919171
0.919171
0.919172
0.919172
0.919173
0.919173
0.919173
0.919174
0.919175
0.919175
0.919176
0.919176
0.919177
0.919177
0.919178
0.919179
0.919179
0.919179
0.91918
0.91918
0.919181
0.919181
0.919182
0.919182
0.919183
0.919184
0.919184
0.919184
0.919185
0.919186
0.919186
0.919186
0.919187
0.919188
0.919188
0.919189
0.919189
0.91919
0.91919
0.919191
0.919192
0.919192
0.919192
0.919193
0.919194
0.919194
0.919194
0.919195
0.919196
0.919196
0.919197
0.919197
0.919198
0.919198
0.919199
0.9192
0.9192
0.9192
0.919201
0.919202
0.919202
0.919202
0.919203
0.919204
0.919204
0.919205
0.919205
0.919206
0.919206
0.919207
0.919208
0.919208
0.919209
0.919209
0.91921
0.919211
0.919211
0.919211
0.919212
0.919213
0.919213
0.919213
0.919214
0.919215
0.919216
0.919216
0.919216
0.919217
0.919218
0.919218
0.919219
0.919219
0.91922
0.919221
0.919221
0.919222
0.919222
0.919223
0.919224
0.919224
0.919225
0.919225
0.919226
0.919226
0.919227
0.919228
0.919228
0.919229
0.919229
0.91923
0.919231
0.919231
0.919232
0.919232
0.919233
0.919234
0.919234
0.919235
0.919235
0.919236
0.919237
0.919237
0.919238
0.919238
0.919239
0.91924
0.91924
0.919241
0.919241
0.919242
0.919243
0.919243
0.919244
0.919245
0.919245
0.919246
0.919246
0.919247
0.919248
0.919248
0.919249
0.919249
0.91925
0.919251
0.919252
0.919252
0.919252
0.919253
0.919254
0.919255
0.919255
0.919255
0.919256
0.919257
0.919258
0.919259
0.919259
0.919259
0.91926
0.919261
0.919262
0.919262
0.919263
0.919263
0.919264
0.919265
0.919265
0.919266
0.919267
0.919268
0.919268
0.919268
0.919269
0.91927
0.919271
0.919272
0.919272
0.919272
0.919273
0.919274
0.919275
0.919275
0.919276
0.919277
0.919277
0.919278
0.919278
0.919279
0.91928
0.919281
0.919282
0.919282
0.919282
0.919283
0.919284
0.919285
0.919285
0.919286
0.919287
0.919287
0.919288
0.919288
0.919289
0.91929
0.919291
0.919292
0.919292
0.919293
0.919293
0.919294
0.919295
0.919295
0.919296
0.919297
0.919298
0.919299
0.919299
0.9193
0.9193
0.919301
0.919302
0.919302
0.919303
0.919304
0.919305
0.919306
0.919306
0.919307
0.919307
0.919308
0.919309
0.919309
0.91931
0.919311
0.919312
0.919313
0.919313
0.919314
0.919315
0.919315
0.919316
0.919316
0.919317
0.919318
0.919319
0.91932
0.91932
0.919321
0.919322
0.919323
0.919324
0.919324
0.919324
0.919325
0.919326
0.919327
0.919327
0.919328
0.919329
0.91933
0.919331
0.919331
0.919332
0.919333
0.919334
0.919335
0.919335
0.919335
0.919336
0.919337
0.919338
0.919338
0.919339
0.91934
0.919341
0.919342
0.919342
0.919343
0.919344
0.919345
0.919346
0.919346
0.919347
0.919348
0.919349
0.91935
0.91935
0.919351
0.919351
0.919352
0.919353
0.919353
0.919354
0.919355
0.919356
0.919357
0.919357
0.919358
0.919359
0.91936
0.919361
0.919361
0.919362
0.919363
0.919364
0.919365
0.919365
0.919366
0.919367
0.919368
0.919369
0.919369
0.91937
0.919371
0.919372
0.919373
0.919373
0.919374
0.919375
0.919376
0.919377
0.919377
0.919378
0.919379
0.91938
0.919381
0.919381
0.919382
0.919383
0.919384
0.919385
0.919385
0.919386
0.919387
0.919388
0.919389
0.919389
0.91939
0.919391
0.919392
0.919393
0.919393
0.919394
0.919395
0.919396
0.919397
0.919397
0.919398
0.919399
0.9194
0.919401
0.919401
0.919402
0.919403
0.919404
0.919405
0.919405
0.919406
0.919407
0.919408
0.919409
0.919409
0.91941
0.919411
0.919412
0.919413
0.919413
0.919414
0.919415
0.919417
0.919418
0.919418
0.919419
0.91942
0.919421
0.919422
0.919422
0.919423
0.919424
0.919425
0.919426
0.919426
0.919427
0.919428
0.919429
0.91943
0.91943
0.919431
0.919432
0.919433
0.919434
0.919434
0.919435
0.919437
0.919438
0.919439
0.919439
0.91944
0.919441
0.919442
0.919443
0.919443
0.919444
0.919445
0.919446
0.919447
0.919447
0.919448
0.919449
0.919451
0.919452
0.919452
0.919453
0.919454
0.919455
0.919456
0.919456
0.919457
0.919458
0.919459
0.91946
0.91946
0.919461
0.919463
0.919464
0.919465
0.919465
0.919466
0.919467
0.919468
0.919469
0.919469
0.91947
0.919472
0.919473
0.919474
0.919474
0.919475
0.919476
0.919477
0.919478
0.919478
0.91948
0.919481
0.919482
0.919483
0.919483
0.919484
0.919485
0.919486
0.919488
0.919488
0.919489
0.91949
0.919491
0.919492
0.919492
0.919493
0.919495
0.919496
0.919497
0.919497
0.919498
0.919499
0.9195
0.919502
0.919502
0.919503
0.919504
0.919505
0.919506
0.919506
0.919507
0.919509
0.91951
0.919511
0.919511
0.919512
0.919513
0.919515
0.919516
0.919516
0.919517
0.919518
0.919519
0.91952
0.91952
0.919522
0.919523
0.919524
0.919525
0.919525
0.919526
0.919528
0.919529
0.91953
0.91953
0.919531
0.919532
0.919534
0.919535
0.919535
0.919536
0.919537
0.919538
0.91954
0.91954
0.919541
0.919542
0.919543
0.919545
0.919545
0.919546
0.919547
0.919548
0.919549
0.919549
0.919551
0.919552
0.919553
0.919554
0.919554
0.919556
0.919557
0.919558
0.919559
0.919559
0.91956
0.919562
0.919563
0.919564
0.919564
0.919565
0.919567
0.919568
0.919569
0.919569
0.91957
0.919572
0.919573
0.919574
0.919574
0.919575
0.919577
0.919578
0.919579
0.919579
0.91958
0.919582
0.919583
0.919584
0.919584
0.919585
0.919587
0.919588
0.919589
0.919589
0.919591
0.919592
0.919593
0.919594
0.919594
0.919596
0.919597
0.919598
0.919599
0.919599
0.919601
0.919602
0.919603
0.919605
0.919605
0.919606
0.919607
0.919608
0.91961
0.91961
0.919611
0.919612
0.919614
0.919615
0.919615
0.919616
0.919618
0.919619
0.91962
0.91962
0.919621
0.919623
0.919624
0.919625
0.919625
0.919627
0.919628
0.919629
0.919631
0.919631
0.919632
0.919633
0.919635
0.919636
0.919636
0.919637
0.919639
0.91964
0.919641
0.919641
0.919643
0.919644
0.919645
0.919647
0.919647
0.919648
0.919649
0.919651
0.919652
0.919652
0.919653
0.919655
0.919656
0.919657
0.919657
0.919659
0.91966
0.919661
0.919663
0.919663
0.919664
0.919665
0.919667
0.919668
0.919668
0.919669
0.919671
0.919672
0.919674
0.919674
0.919675
0.919676
0.919678
0.919679
0.919679
0.91968
0.919682
0.919683
0.919684
0.919684
0.919686
0.919687
0.919689
0.91969
0.91969
0.919691
0.919693
0.919694
0.919695
0.919695
0.919697
0.919698
0.9197
0.919701
0.919701
0.919702
0.919704
0.919705
0.919707
0.919707
0.919708
0.919709
0.919711
0.919712
0.919712
0.919714
0.919715
0.919716
0.919718
0.919718
0.919719
0.919721
0.919722
0.919723
0.919723
0.919725
0.919726
0.919728
0.919729
0.919729
0.91973
0.919732
0.919733
0.919735
0.919735
0.919736
0.919737
0.919739
0.91974
0.91974
0.919742
0.919743
0.919745
0.919746
0.919746
0.919747
0.919749
0.91975
0.919752
0.919752
0.919753
0.919755
0.919756
0.919757
0.919757
0.919759
0.91976
0.919762
0.919763
0.919763
0.919765
0.919766
0.919768
0.919769
0.919769
0.91977
0.919772
0.919773
0.919775
0.919775
0.919776
0.919778
0.919779
0.919781
0.919781
0.919782
0.919784
0.919785
0.919787
0.919787
0.919788
0.91979
0.919791
0.919793
0.919793
0.919794
0.919796
0.919797
0.919799
0.919799
0.9198
0.919802
0.919803
0.919805
0.919805
0.919806
0.919808
0.919809
0.919811
0.919811
0.919812
0.919814
0.919815
0.919817
0.919817
0.919819
0.91982
0.919822
0.919823
0.919823
0.919825
0.919826
0.919828
0.919829
0.919829
0.919831
0.919832
0.919834
0.919835
0.919835
0.919837
0.919838
0.91984
0.919841
0.919841
0.919843
0.919845
0.919846
0.919848
0.919848
0.919849
0.919851
0.919852
0.919854
0.919854
0.919855
0.919857
0.919858
0.91986
0.91986
0.919862
0.919863
0.919865
0.919866
0.919866
0.919868
0.919869
0.919871
0.919873
0.919873
0.919874
0.919876
0.919877
0.919879
0.919879
0.91988
0.919882
0.919884
0.919885
0.919885
0.919887
0.919888
0.91989
0.919891
0.919891
0.919893
0.919895
0.919896
0.919898
0.919898
0.919899
0.919901
0.919903
0.919904
0.919904
0.919906
0.919907
0.919909
0.91991
0.91991
0.919912
0.919914
0.919915
0.919917
0.919917
0.919918
0.91992
0.919922
0.919923
0.919923
0.919925
0.919927
0.919928
0.91993
0.91993
0.919931
0.919933
0.919935
0.919936
0.919936
0.919938
0.91994
0.919941
0.919943
0.919943
0.919944
0.919946
0.919948
0.919949
0.919949
0.919951
0.919953
0.919954
0.919956
0.919956
0.919957
0.919959
0.919961
0.919962
0.919962
0.919964
0.919966
0.919967
0.919969
0.919969
0.919971
0.919972
0.919974
0.919976
0.919976
0.919977
0.919979
0.919981
0.919982
0.919982
0.919984
0.919986
0.919987
0.919989
0.919989
0.919991
0.919992
0.919994
0.919996
0.919996
0.919997
0.919999
0.920001
0.920002
0.920002
0.920004
0.920006
0.920007
0.920009
0.920009
0.920011
0.920012
0.920014
0.920016
0.920016
0.920017
0.920019
0.920021
0.920022
0.920022
0.920024
0.920026
0.920028
0.920029
0.920029
0.920031
0.920033
0.920034
0.920036
0.920036
0.920038
0.920039
0.920041
0.920043
0.920043
0.920044
0.920046
0.920048
0.92005
0.92005
0.920051
0.920053
0.920055
0.920056
0.920056
0.920058
0.92006
0.920062
0.920063
0.920063
0.920065
0.920067
0.920068
0.92007
0.92007
0.920072
0.920074
0.920075
0.920077
0.920077
0.920079
0.920081
0.920082
0.920084
0.920084
0.920086
0.920088
0.920089
0.920091
0.920091
0.920093
0.920095
0.920096
0.920098
0.920098
0.9201
0.920102
0.920104
0.920105
0.920105
0.920107
0.920109
0.920111
0.920112
0.920112
0.920114
0.920116
0.920118
0.92012
0.92012
0.920121
0.920123
0.920125
0.920127
0.920127
0.920129
0.92013
0.920132
0.920134
0.920134
0.920136
0.920138
0.92014
0.920141
0.920141
0.920143
0.920145
0.920147
0.920149
0.920149
0.92015
0.920152
0.920154
0.920156
0.920156
0.920158
0.92016
0.920161
0.920163
0.920163
0.920165
0.920167
0.920169
0.92017
0.92017
0.920172
0.920174
0.920176
0.920178
0.920178
0.92018
0.920181
0.920183
0.920185
0.920185
0.920187
0.920189
0.920191
0.920192
0.920192
0.920194
0.920196
0.920198
0.9202
0.9202
0.920202
0.920204
0.920205
0.920207
0.920207
0.920209
0.920211
0.920213
0.920215
0.920215
0.920217
0.920218
0.92022
0.920222
0.920222
0.920224
0.920226
0.920228
0.92023
0.92023
0.920231
0.920233
0.920235
0.920237
0.920237
0.920239
0.920241
0.920243
0.920245
0.920245
0.920246
0.920248
0.92025
0.920252
0.920252
0.920254
0.920256
0.920258
0.92026
0.92026
0.920262
0.920263
0.920265
0.920267
0.920267
0.920269
0.920271
0.920273
0.920275
0.920275
0.920277
0.920279
0.920281
0.920282
0.920282
0.920284
0.920286
0.920288
0.92029
0.92029
0.920292
0.920294
0.920296
0.920298
0.920298
0.9203
0.920302
0.920304
0.920305
0.920305
0.920307
0.920309
0.920311
0.920313
0.920313
0.920315
0.920317
0.920319
0.920321
0.920321
0.920323
0.920325
0.920327
0.920329
0.920329
0.920331
0.920332
0.920334
0.920336
0.920336
0.920338
0.92034
0.920342
0.920344
0.920344
0.920346
0.920348
0.92035
0.920352
0.920352
0.920354
0.920356
0.920358
0.92036
0.92036
0.920362
0.920364
0.920366
0.920367
0.920367
0.920369
0.920371
0.920373
0.920375
0.920375
0.920377
0.920379
0.920381
0.920383
0.920383
0.920385
0.920387
0.920389
0.920391
0.920391
0.920393
0.920395
0.920397
0.920399
0.920399
0.920401
0.920403
0.920405
0.920407
0.920407
0.920409
0.920411
0.920413
0.920415
0.920415
0.920417
0.920419
0.920421
0.920423
0.920423
0.920425
0.920427
0.920429
0.920431
0.920431
0.920434
0.920436
0.920438
0.92044
0.92044
0.920442
0.920444
0.920446
0.920448
0.920448
0.92045
0.920452
0.920454
0.920456
0.920456
0.920458
0.92046
0.920462
0.920464
0.920464
0.920466
0.920468
0.92047
0.920473
0.920473
0.920475
0.920477
0.920479
0.920481
0.920481
0.920483
0.920485
0.920487
0.920489
0.920489
0.920491
0.920493
0.920495
0.920497
0.920497
0.920499
0.920502
0.920504
0.920506
0.920506
0.920508
0.92051
0.920512
0.920514
0.920514
0.920516
0.920518
0.92052
0.920522
0.920522
0.920524
0.920527
0.920529
0.920531
0.920531
0.920533
0.920535
0.920537
0.920539
0.920539
0.920541
0.920543
0.920545
0.920548
0.920548
0.92055
0.920552
0.920554
0.920556
0.920556
0.920558
0.92056
0.920562
0.920564
0.920564
0.920567
0.920569
0.920571
0.920573
0.920573
0.920575
0.920577
0.920579
0.920581
0.920581
0.920584
0.920586
0.920588
0.92059
0.92059
0.920592
0.920594
0.920596
0.920598
0.920598
0.920601
0.920603
0.920605
0.920607
0.920607
0.920609
0.920611
0.920613
0.920616
0.920616
0.920618
0.92062
0.920622
0.920624
0.920624
0.920626
0.920628
0.920631
0.920633
0.920633
0.920635
0.920637
0.920639
0.920641
0.920641
0.920644
0.920646
0.920648
0.92065
0.92065
0.920652
0.920654
0.920657
0.920659
0.920659
0.920661
0.920663
0.920665
0.920667
0.920667
0.92067
0.920672
0.920674
0.920676
0.920676
0.920678
0.92068
0.920683
0.920685
0.920685
0.920687
0.920689
0.920691
0.920693
0.920693
0.920696
0.920698
0.9207
0.920702
0.920702
0.920704
0.920707
0.920709
0.920711
0.920711
0.920713
0.920715
0.920718
0.92072
0.92072
0.920722
0.920724
0.920727
0.920729
0.920729
0.920731
0.920733
0.920736
0.920738
0.920738
0.92074
0.920742
0.920745
0.920747
0.920747
0.920749
0.920751
0.920754
0.920756
0.920756
0.920758
0.92076
0.920763
0.920765
0.920765
0.920767
0.92077
0.920772
0.920774
0.920774
0.920776
0.920779
0.920781
0.920783
0.920783
0.920785
0.920788
0.92079
0.920792
0.920792
0.920795
0.920797
0.920799
0.920801
0.920801
0.920804
0.920806
0.920808
0.920811
0.920811
0.920813
0.920815
0.920817
0.92082
0.92082
0.920822
0.920824
0.920827
0.920829
0.920829
0.920831
0.920834
0.920836
0.920838
0.920838
0.92084
0.920843
0.920845
0.920847
0.920847
0.92085
0.920852
0.920854
0.920857
0.920857
0.920859
0.920861
0.920864
0.920866
0.920866
0.920868
0.920871
0.920873
0.920875
0.920875
0.920877
0.92088
0.920882
0.920884
0.920884
0.920887
0.920889
0.920891
0.920894
0.920894
0.920896
0.920898
0.920901
0.920903
0.920903
0.920905
0.920908
0.92091
0.920912
0.920912
0.920915
0.920917
0.92092
0.920922
0.920922
0.920924
0.920927
0.920929
0.920931
0.920931
0.920934
0.920936
0.920938
0.920941
0.920941
0.920943
0.920945
0.920948
0.92095
0.92095
0.920952
0.920955
0.920957
0.92096
0.92096
0.920962
0.920964
0.920967
0.920969
0.920969
0.920971
0.920974
0.920976
0.920978
0.920978
0.920981
0.920983
0.920986
0.920988
0.920988
0.92099
0.920993
0.920995
0.920997
0.920997
0.921
0.921002
0.921004
0.921007
0.921007
0.921009
0.921012
0.921014
0.921016
0.921016
0.921019
0.921021
0.921024
0.921026
0.921026
0.921028
0.921031
0.921033
0.921036
0.921036
0.921038
0.92104
0.921043
0.921045
0.921045
0.921048
0.92105
0.921053
0.921055
0.921055
0.921058
0.92106
0.921062
0.921065
0.921065
0.921067
0.92107
0.921072
0.921075
0.921075
0.921077
0.92108
0.921082
0.921085
0.921085
0.921087
0.92109
0.921092
0.921095
0.921095
0.921097
0.9211
0.921102
0.921105
0.921105
0.921107
0.92111
0.921112
0.921114
0.921114
0.921117
0.921119
0.921122
0.921124
0.921124
0.921127
0.921129
0.921132
0.921134
0.921134
0.921137
0.921139
0.921142
0.921144
0.921144
0.921147
0.921149
0.921152
0.921154
0.921154
0.921157
0.921159
0.921162
0.921164
0.921164
0.921167
0.921169
0.921172
0.921174
0.921174
0.921177
0.921179
0.921182
0.921184
0.921184
0.921187
0.921189
0.921192
0.921194
0.921194
0.921197
0.9212
0.921202
0.921205
0.921205
0.921207
0.92121
0.921212
0.921215
0.921215
0.921217
0.92122
0.921222
0.921225
0.921225
0.921227
0.92123
0.921232
0.921235
0.921235
0.921237
0.92124
0.921243
0.921245
0.921245
0.921248
0.92125
0.921253
0.921255
0.921255
0.921258
0.92126
0.921263
0.921265
0.921265
0.921268
0.92127
0.921273
0.921276
0.921276
0.921278
0.921281
0.921283
0.921286
0.921286
0.921288
0.921291
0.921293
0.921296
0.921296
0.921299
0.921301
0.921304
0.921306
0.921306
0.921309
0.921311
0.921314
0.921316
0.921316
0.921319
0.921322
0.921324
0.921327
0.921327
0.921329
0.921332
0.921334
0.921337
0.921337
0.92134
0.921342
0.921345
0.921347
0.921347
0.92135
0.921352
0.921355
0.921358
0.921358
0.92136
0.921363
0.921365
0.921368
0.921368
0.921371
0.921373
0.921376
0.921379
0.921379
0.921381
0.921384
0.921387
0.921389
0.921389
0.921392
0.921395
0.921397
0.9214
0.9214
0.921403
0.921405
0.921408
0.921411
0.921411
0.921413
0.921416
0.921419
0.921421
0.921421
0.921424
0.921427
0.921429
0.921432
0.921432
0.921435
0.921437
0.92144
0.921443
0.921443
0.921445
0.921448
0.921451
0.921453
0.921453
0.921456
0.921459
0.921461
0.921464
0.921464
0.921467
0.921469
0.921472
0.921475
0.921475
0.921477
0.92148
0.921483
0.921485
0.921485
0.921488
0.921491
0.921494
0.921496
0.921496
0.921499
0.921502
0.921504
0.921507
0.921507
0.92151
0.921512
0.921515
0.921518
0.921518
0.92152
0.921523
0.921526
0.921529
0.921529
0.921531
0.921534
0.921537
0.921539
0.921539
0.921542
0.921545
0.921548
0.92155
0.92155
0.921553
0.921556
0.921558
0.921561
0.921561
0.921564
0.921567
0.921569
0.921572
0.921572
0.921575
0.921577
0.92158
0.921583
0.921583
0.921586
0.921588
0.921591
0.921594
0.921594
0.921596
0.921599
0.921602
0.921605
0.921605
0.921607
0.92161
0.921613
0.921616
0.921616
0.921618
0.921621
0.921624
0.921626
0.921626
0.921629
0.921632
0.921635
0.921637
0.921637
0.92164
0.921643
0.921646
0.921648
0.921648
0.921651
0.921654
0.921657
0.921659
0.921659
0.921662
0.921665
0.921668
0.92167
0.92167
0.921673
0.921676
0.921679
0.921681
0.921681
0.921684
0.921687
0.92169
0.921693
0.921693
0.921695
0.921698
0.921701
0.921704
0.921704
0.921707
0.921709
0.921712
0.921715
0.921715
0.921718
0.921721
0.921724
0.921726
0.921726
0.921729
0.921732
0.921735
0.921738
0.921738
0.921741
0.921743
0.921746
0.921749
0.921749
0.921752
0.921755
0.921758
0.921761
0.921761
0.921763
0.921766
0.921769
0.921772
0.921772
0.921775
0.921778
0.921781
0.921783
0.921783
0.921786
0.921789
0.921792
0.921795
0.921795
0.921798
0.921801
0.921803
0.921806
0.921806
0.921809
0.921812
0.921815
0.921818
0.921818
0.921821
0.921823
0.921826
0.921829
0.921829
0.921832
0.921835
0.921838
0.921841
0.921841
0.921843
0.921846
0.921849
0.921852
0.921852
0.921855
0.921858
0.921861
0.921864
0.921864
0.921866
0.921869
0.921872
0.921875
0.921875
0.921878
0.921881
0.921884
0.921887
0.921887
0.92189
0.921892
0.921895
0.921898
0.921898
0.921901
0.921904
0.921907
0.92191
0.92191
0.921913
0.921916
0.921918
0.921921
0.921921
0.921924
0.921927
0.92193
0.921933
0.921933
0.921936
0.921939
0.921942
0.921944
0.921944
0.921947
0.92195
0.921953
0.921956
0.921956
0.921959
0.921962
0.921965
0.921968
0.921968
0.921971
0.921973
0.921976
0.921979
0.921979
0.921982
0.921985
0.921988
0.921991
0.921991
0.921994
0.921997
0.922
0.922003
0.922003
0.922006
0.922009
0.922011
0.922014
0.922014
0.922017
0.92202
0.922023
0.922026
0.922026
0.922029
0.922032
0.922035
0.922038
0.922038
0.922041
0.922044
0.922047
0.92205
0.92205
0.922053
0.922056
0.922059
0.922062
0.922062
0.922065
0.922068
0.922071
0.922074
0.922074
0.922077
0.92208
0.922083
0.922086
0.922086
0.922089
0.922092
0.922095
0.922098
0.922098
0.922101
0.922104
0.922108
0.922111
0.922111
0.922114
0.922117
0.92212
0.922123
0.922123
0.922126
0.922129
0.922132
0.922135
0.922135
0.922138
0.922141
0.922144
0.922147
0.922147
0.92215
0.922153
0.922156
0.922159
0.922159
0.922162
0.922165
0.922168
0.922171
0.922171
0.922174
0.922177
0.92218
0.922183
0.922183
0.922186
0.922189
0.922192
0.922195
0.922195
0.922198
0.922201
0.922204
0.922208
0.922208
0.922211
0.922214
0.922217
0.92222
0.92222
0.922223
0.922226
0.922229
0.922232
0.922232
0.922235
0.922238
0.922241
0.922244
0.922244
0.922247
0.92225
0.922253
0.922256
0.922256
0.922259
0.922262
0.922265
0.922268
0.922268
0.922272
0.922275
0.922278
0.922281
0.922281
0.922284
0.922287
0.92229
0.922293
0.922293
0.922296
0.922299
0.922302
0.922305
0.922305
0.922308
0.922311
0.922314
0.922317
0.922317
0.922321
0.922324
0.922327
0.92233
0.92233
0.922333
0.922336
0.922339
0.922342
0.922342
0.922345
0.922349
0.922352
0.922355
0.922355
0.922358
0.922361
0.922364
0.922367
0.922367
0.922371
0.922374
0.922377
0.92238
0.92238
0.922383
0.922386
0.92239
0.922393
0.922393
0.922396
0.922399
0.922402
0.922405
0.922405
0.922409
0.922412
0.922415
0.922418
0.922418
0.922421
0.922424
0.922428
0.922431
0.922431
0.922434
0.922437
0.92244
0.922443
0.922443
0.922447
0.92245
0.922453
0.922456
0.922456
0.922459
0.922463
0.922466
0.922469
0.922469
0.922472
0.922475
0.922478
0.922482
0.922482
0.922485
0.922488
0.922491
0.922494
0.922494
0.922498
0.922501
0.922504
0.922507
0.922507
0.92251
0.922514
0.922517
0.92252
0.92252
0.922523
0.922526
0.922529
0.922533
0.922533
0.922536
0.922539
0.922542
0.922545
0.922545
0.922549
0.922552
0.922555
0.922558
0.922558
0.922561
0.922565
0.922568
0.922571
0.922571
0.922574
0.922577
0.922581
0.922584
0.922584
0.922587
0.92259
0.922593
0.922597
0.922597
0.9226
0.922603
0.922606
0.922609
0.922609
0.922613
0.922616
0.922619
0.922622
0.922622
0.922626
0.922629
0.922632
0.922635
0.922635
0.922638
0.922642
0.922645
0.922648
0.922648
0.922651
0.922655
0.922658
0.922661
0.922661
0.922664
0.922668
0.922671
0.922674
0.922674
0.922677
0.922681
0.922684
0.922687
0.922687
0.922691
0.922694
0.922697
0.922701
0.922701
0.922704
0.922707
0.92271
0.922714
0.922714
0.922717
0.92272
0.922724
0.922727
0.922727
0.92273
0.922734
0.922737
0.92274
0.92274
0.922744
0.922747
0.92275
0.922754
0.922754
0.922757
0.92276
0.922764
0.922767
0.922767
0.92277
0.922774
0.922777
0.92278
0.92278
0.922784
0.922787
0.92279
0.922794
0.922794
0.922797
0.9228
0.922804
0.922807
0.922807
0.92281
0.922814
0.922817
0.92282
0.92282
0.922824
0.922827
0.92283
0.922834
0.922834
0.922837
0.92284
0.922844
0.922847
0.922847
0.92285
0.922854
0.922857
0.92286
0.92286
0.922864
0.922867
0.92287
0.922874
0.922874
0.922877
0.92288
0.922884
0.922887
0.922887
0.92289
0.922894
0.922897
0.9229
0.9229
0.922904
0.922907
0.92291
0.922914
0.922914
0.922917
0.92292
0.922924
0.922927
0.922927
0.922931
0.922934
0.922937
0.922941
0.922941
0.922944
0.922947
0.922951
0.922954
0.922954
0.922957
0.922961
0.922964
0.922967
0.922967
0.922971
0.922974
0.922978
0.922981
0.922981
0.922984
0.922988
0.922991
0.922995
0.922995
0.922998
0.923001
0.923005
0.923008
0.923008
0.923012
0.923015
0.923019
0.923022
0.923022
0.923025
0.923029
0.923032
0.923036
0.923036
0.923039
0.923043
0.923046
0.92305
0.92305
0.923053
0.923057
0.92306
0.923064
0.923064
0.923067
0.92307
0.923074
0.923077
0.923077
0.923081
0.923084
0.923088
0.923091
0.923091
0.923095
0.923098
0.923102
0.923105
0.923105
0.923109
0.923112
0.923116
0.923119
0.923119
0.923123
0.923126
0.923129
0.923133
0.923133
0.923136
0.92314
0.923143
0.923147
0.923147
0.92315
0.923154
0.923157
0.923161
0.923161
0.923164
0.923168
0.923171
0.923175
0.923175
0.923178
0.923182
0.923185
0.923189
0.923189
0.923192
0.923196
0.923199
0.923202
0.923202
0.923206
0.923209
0.923213
0.923216
0.923216
0.92322
0.923223
0.923227
0.92323
0.92323
0.923234
0.923237
0.923241
0.923244
0.923244
0.923248
0.923251
0.923255
0.923258
0.923258
0.923262
0.923265
0.923269
0.923272
0.923272
0.923276
0.923279
0.923283
0.923286
0.923286
0.92329
0.923293
0.923297
0.9233
0.9233
0.923304
0.923307
0.923311
0.923314
0.923314
0.923318
0.923321
0.923325
0.923329
0.923329
0.923332
0.923336
0.923339
0.923343
0.923343
0.923346
0.92335
0.923354
0.923357
0.923357
0.923361
0.923364
0.923368
0.923372
0.923372
0.923375
0.923379
0.923382
0.923386
0.923386
0.92339
0.923393
0.923397
0.9234
0.9234
0.923404
0.923408
0.923411
0.923415
0.923415
0.923418
0.923422
0.923426
0.923429
0.923429
0.923433
0.923436
0.92344
0.923444
0.923444
0.923447
0.923451
0.923454
0.923458
0.923458
0.923462
0.923465
0.923469
0.923473
0.923473
0.923476
0.92348
0.923483
0.923487
0.923487
0.923491
0.923494
0.923498
0.923501
0.923501
0.923505
0.923509
0.923512
0.923516
0.923516
0.92352
0.923523
0.923527
0.92353
0.92353
0.923534
0.923538
0.923541
0.923545
0.923545
0.923548
0.923552
0.923556
0.923559
0.923559
0.923563
0.923567
0.92357
0.923574
0.923574
0.923577
0.923581
0.923585
0.923588
0.923588
0.923592
0.923595
0.923599
0.923603
0.923603
0.923606
0.92361
0.923614
0.923617
0.923617
0.923621
0.923625
0.923628
0.923632
0.923632
0.923636
0.923639
0.923643
0.923647
0.923647
0.92365
0.923654
0.923658
0.923661
0.923661
0.923665
0.923669
0.923672
0.923676
0.923676
0.92368
0.923684
0.923687
0.923691
0.923691
0.923695
0.923699
0.923702
0.923706
0.923706
0.92371
0.923713
0.923717
0.923721
0.923721
0.923725
0.923728
0.923732
0.923736
0.923736
0.92374
0.923743
0.923747
0.923751
0.923751
0.923755
0.923758
0.923762
0.923766
0.923766
0.92377
0.923773
0.923777
0.923781
0.923781
0.923784
0.923788
0.923792
0.923796
0.923796
0.923799
0.923803
0.923807
0.923811
0.923811
0.923814
0.923818
0.923822
0.923826
0.923826
0.923829
0.923833
0.923837
0.923841
0.923841
0.923844
0.923848
0.923852
0.923856
0.923856
0.923859
0.923863
0.923867
0.923871
0.923871
0.923874
0.923878
0.923882
0.923886
0.923886
0.923889
0.923893
0.923897
0.923901
0.923901
0.923904
0.923908
0.923912
0.923916
0.923916
0.923919
0.923923
0.923927
0.923931
0.923931
0.923934
0.923938
0.923942
0.923946
0.923946
0.923949
0.923953
0.923957
0.923961
0.923961
0.923965
0.923968
0.923972
0.923976
0.923976
0.92398
0.923984
0.923987
0.923991
0.923991
0.923995
0.923999
0.924003
0.924007
0.924007
0.924011
0.924014
0.924018
0.924022
0.924022
0.924026
0.92403
0.924034
0.924038
0.924038
0.924041
0.924045
0.924049
0.924053
0.924053
0.924057
0.924061
0.924065
0.924068
0.924068
0.924072
0.924076
0.92408
0.924084
0.924084
0.924088
0.924092
0.924095
0.924099
0.924099
0.924103
0.924107
0.924111
0.924115
0.924115
0.924119
0.924123
0.924126
0.92413
0.92413
0.924134
0.924138
0.924142
0.924146
0.924146
0.92415
0.924153
0.924157
0.924161
0.924161
0.924165
0.924169
0.924173
0.924177
0.924177
0.924181
0.924184
0.924188
0.924192
0.924192
0.924196
0.9242
0.924204
0.924208
0.924208
0.924212
0.924215
0.924219
0.924223
0.924223
0.924227
0.924231
0.924235
0.924239
0.924239
0.924242
0.924246
0.92425
0.924254
0.924254
0.924258
0.924262
0.924266
0.92427
0.92427
0.924274
0.924277
0.924281
0.924285
0.924285
0.924289
0.924293
0.924297
0.924301
0.924301
0.924305
0.924309
0.924313