<?xml version="1.0"?>
<VTKFile type="UnstructuredGrid" version="0.1" byte_order="LittleEndian">
<UnstructuredGrid>
<Piece NumberOfPoints="5000" NumberOfCells="4000">
<PointData Scalars="Reaction 0">
<DataArray type="Float32" Name="Reaction 0" format="ascii">
0.784619
0.784619
0.784619
0.784619
0.784619
0.784619
0.784619
0.784619
0.784619
0.784619
0.784619
0.784619
0.784619
0.784619
0.784619
0.784619
0.784619
0.784619
0.784619
0.784619
0.784619
0.784619
0.784619
0.784619
0.784619
0.784619
0.784619
0.784619
0.784619
0.784619
0.784619
0.784619
0.784619
0.784619
0.784619
0.784619
0.784619
0.784619
0.784619
0.784619
0.784619
0.784619
0.784619
0.784619
0.784619
0.784619
0.784619
0.784619
0.784619
0.784619
0.784619
0.784619
0.784619
0.784619
0.784619
0.784619
0.784619
0.784619
0.784619
0.784619
0.784619
0.784619
0.784619
0.784619
0.784619
0.784619
0.784619
0.784619
0.784619
0.784619
0.784619
0.784619
0.784619
0.784619
0.784619
0.784619
0.784619
0.784619
0.784619
0.784619
0.784619
0.784619
0.784619
0.784619
0.784619
0.784619
0.784619
0.784619
0.784619
0.784619
0.784619
0.784619
0.784619
0.784619
0.784619
0.784619
0.784619
0.784619
0.784619
0.784619
0.784619
0.784619
0.784619
0.784619
0.784619
0.784619
0.784619
0.784619
0.784619
0.784619
0.784619
0.784619
0.784619
0.784619
0.784619
0.784619
0.784619
0.784619
0.784619
0.784619
0.784619
0.784619
0.784619
0.784619
0.784619
0.784619
0.784619
0.784619
0.784619
0.784619
0.784619
0.784619
0.784619
0.784619
0.784619
0.784619
0.784619
0.784619
0.784619
0.784619
0.784619
0.784619
0.784619
0.784619
0.784619
0.784619
0.784619
0.784619
0.784619
0.784619
0.784619
0.784619
0.784619
0.784619
0.784619
0.784619
0.784619
0.784619
0.784619
0.784619
0.784619
0.784619
0.784619
0.784619
0.784619
0.784619
0.784619
0.784619
0.784619
0.784619
0.784619
0.784619
0.784619
0.784619
0.784619
0.784619
0.784619
0.784619
0.784619
0.784619
0.784619
0.784619
0.784619
0.784619
0.784619
0.784619
0.784619
0.784619
0.784619
0.784619
0.784619
0.784619
0.784619
0.784619
0.784619
0.784619
0.784619
0.784619
0.784619
0.784619
0.784619
0.784619
0.784619
0.784619
0.784619
0.784619
0.784619
0.784619
0.784619
0.784619
0.784619
0.784619
0.784619
0.784619
0.784619
0.784619
0.784619
0.784619
0.784619
0.784619
0.784619
0.784619
0.784619
0.784619
0.784619
0.784619
0.784619
0.784619
0.784619
0.784619
0.784619
0.784619
0.784619
0.784619
0.784619
0.784619
0.784619
0.784619
0.784619
0.784619
0.784619
0.784619
0.784619
0.784619
0.784619
0.784619
0.784619
0.784619
0.784619
0.784619
0.784619
0.784619
0.784619
0.784619
0.784619
0.784619
0.784619
0.784619
0.784619
0.784619
0.784619
0.784619
0.784619
0.784619
0.784619
0.784619
0.784619
0.784619
0.784619
0.784619
0.784619
0.784619
0.784619
0.784619
0.784619
0.784619
0.784619
0.784619
0.784619
0.784619
0.784619
0.784619
0.784619
0.784619
0.784619
0.784619
0.784619
0.784619
0.784619
0.784619
0.784619
0.784619
0.784619
0.784619
0.784619
0.784619
0.784619
0.784619
0.784619
0.784619
0.784619
0.784619
0.784619
0.784619
0.784619
0.784619
0.784619
0.784619
0.784619
0.784619
0.784619
0.784619
0.784619
0.784619
0.784619
0.784619
0.784619
0.784619
0.784619
0.784619
0.784619
0.784619
0.784619
0.784619
0.784619
0.784619
0.784619
0.784619
0.784619
0.784619
0.784619
0.784619
0.784619
0.784619
0.784619
0.784619
0.784619
0.78462
0.78462
0.78462
0.78462
0.78462
0.78462
0.78462
0.78462
0.78462
0.78462
0.78462
0.78462
0.78462
0.78462
0.78462
0.78462
0.78462
0.78462
0.78462
0.78462
0.78462
0.78462
0.78462
0.78462
0.78462
0.78462
0.78462
0.78462
0.78462
0.78462
0.78462
0.78462
0.78462
0.78462
0.78462
0.78462
0.78462
0.78462
0.78462
0.78462
0.78462
0.78462
0.78462
0.78462
0.78462
0.78462
0.78462
0.78462
0.78462
0.78462
0.78462
0.78462
0.78462
0.78462
0.78462
0.78462
0.78462
0.78462
0.78462
0.78462
0.78462
0.78462
0.78462
0.78462
0.78462
0.78462
0.78462
0.78462
0.78462
0.78462
0.78462
0.78462
0.78462
0.78462
0.78462
0.78462
0.78462
0.78462
0.78462
0.78462
0.78462
0.78462
0.78462
0.78462
0.78462
0.78462
0.78462
0.78462
0.78462
0.78462
0.78462
0.78462
0.78462
0.78462
0.78462
0.78462
0.78462
0.78462
0.78462
0.78462
0.784621
0.784621
0.784621
0.784621
0.784621
0.784621
0.784621
0.784621
0.784621
0.784621
0.784621
0.784621
0.784621
0.784621
0.784621
0.784621
0.784621
0.784621
0.784621
0.784621
0.784621
0.784621
0.784621
0.784621
0.784621
0.784621
0.784621
0.784621
0.784621
0.784621
0.784621
0.784621
0.784621
0.784621
0.784621
0.784621
0.784621
0.784621
0.784621
0.784621
0.784621
0.784621
0.784621
0.784621
0.784621
0.784621
0.784621
0.784621
0.784621
0.784621
0.784621
0.784621
0.784621
0.784621
0.784621
0.784621
0.784621
0.784621
0.784621
0.784621
0.784621
0.784621
0.784621
0.784621
0.784621
0.784621
0.784622
0.784622
0.784622
0.784622
0.784622
0.784622
0.784622
0.784622
0.784622
0.784622
0.784622
0.784622
0.784622
0.784622
0.784622
0.784622
0.784622
0.784622
0.784622
0.784622
0.784622
0.784622
0.784622
0.784622
0.784622
0.784622
0.784622
0.784622
0.784622
0.784622
0.784622
0.784622
0.784622
0.784622
0.784622
0.784622
0.784622
0.784622
0.784622
0.784622
0.784622
0.784622
0.784622
0.784622
0.784622
0.784622
0.784622
0.784622
0.784622
0.784622
0.784623
0.784623
0.784623
0.784623
0.784623
0.784623
0.784623
0.784623
0.784623
0.784623
0.784623
0.784623
0.784623
0.784623
0.784623
0.784623
0.784623
0.784623
0.784623
0.784623
0.784623
0.784623
0.784623
0.784623
0.784623
0.784623
0.784623
0.784623
0.784623
0.784623
0.784623
0.784623
0.784623
0.784623
0.784623
0.784623
0.784623
0.784623
0.784623
0.784623
0.784623
0.784623
0.784623
0.784623
0.784624
0.784624
0.784624
0.784624
0.784624
0.784624
0.784624
0.784624
0.784624
0.784624
0.784624
0.784624
0.784624
0.784624
0.784624
0.784624
0.784624
0.784624
0.784624
0.784624
0.784624
0.784624
0.784624
0.784624
0.784623
0.784623
0.784623
0.784623
0.784623
0.784623
0.784623
0.784623
0.784623
0.784623
0.784623
0.784623
0.784623
0.784623
0.784623
0.784623
0.784623
0.784623
0.784623
0.784623
0.784623
0.784623
0.784622
0.784622
0.784622
0.784622
0.784622
0.784622
0.784622
0.784622
0.784622
0.784622
0.784622
0.784622
0.784622
0.784621
0.784621
0.784621
0.784621
0.784621
0.784621
0.784621
0.784621
0.784621
0.784621
0.78462
0.78462
0.78462
0.78462
0.78462
0.78462
0.78462
0.78462
0.784619
0.784619
0.784619
0.784619
0.784619
0.784619
0.784619
0.784619
0.784619
0.784619
0.784618
0.784618
0.784618
0.784618
0.784618
0.784618
0.784618
0.784618
0.784618
0.784617
0.784617
0.784617
0.784617
0.784617
0.784617
0.784617
0.784617
0.784617
0.784616
0.784616
0.784616
0.784616
0.784616
0.784616
0.784616
0.784616
0.784616
0.784615
0.784615
0.784615
0.784615
0.784615
0.784615
0.784615
0.784615
0.784614
0.784614
0.784614
0.784614
0.784614
0.784614
0.784614
0.784614
0.784614
0.784613
0.784613
0.784613
0.784613
0.784613
0.784613
0.784613
0.784613
0.784613
0.784612
0.784612
0.784612
0.784612
0.784612
0.784612
0.784612
0.784612
0.784612
0.784611
0.784611
0.784611
0.784611
0.784611
0.784611
0.784611
0.784611
0.78461
0.78461
0.78461
0.78461
0.78461
0.78461
0.78461
0.78461
0.78461
0.784609
0.784609
0.784609
0.784609
0.784609
0.784609
0.784609
0.784609
0.784609
0.784608
0.784608
0.784608
0.784608
0.784608
0.784608
0.784608
0.784608
0.784608
0.784607
0.784607
0.784607
0.784607
0.784607
0.784607
0.784607
0.784607
0.784606
0.784606
0.784606
0.784606
0.784606
0.784606
0.784606
0.784606
0.784606
0.784605
0.784605
0.784605
0.784605
0.784605
0.784605
0.784605
0.784605
0.784605
0.784604
0.784604
0.784604
0.784604
0.784604
0.784604
0.784604
0.784604
0.784604
0.784603
0.784603
0.784603
0.784603
0.784603
0.784603
0.784603
0.784603
0.784602
0.784602
0.784602
0.784602
0.784602
0.784602
0.784602
0.784602
0.784602
0.784601
0.784601
0.784601
0.784601
0.784601
0.784601
0.784601
0.784601
0.7846
0.7846
0.7846
0.7846
0.7846
0.7846
0.7846
0.7846
0.784599
0.784599
0.784599
0.784599
0.784599
0.784599
0.784599
0.784599
0.784599
0.784598
0.784598
0.784598
0.784598
0.784598
0.784598
0.784598
0.784598
0.784598
0.784597
0.784597
0.784597
0.784597
0.784597
0.784597
0.784597
0.784597
0.784597
0.784596
0.784596
0.784596
0.784596
0.784596
0.784596
0.784596
0.784596
0.784595
0.784595
0.784595
0.784595
0.784595
0.784595
0.784595
0.784595
0.784595
0.784594
0.784594
0.784594
0.784594
0.784594
0.784594
0.784594
0.784594
0.784593
0.784593
0.784593
0.784593
0.784593
0.784593
0.784593
0.784593
0.784592
0.784592
0.784592
0.784592
0.784592
0.784592
0.784592
0.784592
0.784592
0.784591
0.784591
0.784591
0.784591
0.784591
0.784591
0.784591
0.784591
0.784591
0.78459
0.78459
0.78459
0.78459
0.78459
0.78459
0.78459
0.78459
0.78459
0.784589
0.784589
0.784589
0.784589
0.784589
0.784589
0.784589
0.784589
0.784588
0.784588
0.784588
0.784588
0.784588
0.784588
0.784588
0.784588
0.784588
0.784587
0.784587
0.784587
0.784587
0.784587
0.784587
0.784587
0.784587
0.784587
0.784586
0.784586
0.784586
0.784586
0.784586
0.784586
0.784586
0.784586
0.784586
0.784585
0.784585
0.784585
0.784585
0.784585
0.784585
0.784585
0.784585
0.784584
0.784584
0.784584
0.784584
0.784584
0.784584
0.784584
0.784584
0.784584
0.784583
0.784583
0.784583
0.784583
0.784583
0.784583
0.784583
0.784583
0.784583
0.784583
0.784582
0.784582
0.784582
0.784582
0.784582
0.784582
0.784582
0.784582
0.784582
0.784581
0.784581
0.784581
0.784581
0.784581
0.784581
0.784581
0.784581
0.784581
0.78458
0.78458
0.78458
0.78458
0.78458
0.78458
0.78458
0.78458
0.784579
0.784579
0.784579
0.784579
0.784579
0.784579
0.784579
0.784579
0.784579
0.784579
0.784578
0.784578
0.784578
0.784578
0.784578
0.784578
0.784578
0.784578
0.784578
0.784577
0.784577
0.784577
0.784577
0.784577
0.784577
0.784577
0.784577
0.784577
0.784577
0.784576
0.784576
0.784576
0.784576
0.784576
0.784576
0.784576
0.784576
0.784576
0.784575
0.784575
0.784575
0.784575
0.784575
0.784575
0.784575
0.784575
0.784575
0.784575
0.784574
0.784574
0.784574
0.784574
0.784574
0.784574
0.784574
0.784574
0.784574
0.784574
0.784573
0.784573
0.784573
0.784573
0.784573
0.784573
0.784573
0.784573
0.784573
0.784572
0.784572
0.784572
0.784572
0.784572
0.784572
0.784572
0.784572
0.784572
0.784572
0.784571
0.784571
0.784571
0.784571
0.784571
0.784571
0.784571
0.784571
0.784571
0.784571
0.78457
0.78457
0.78457
0.78457
0.78457
0.78457
0.78457
0.78457
0.78457
0.78457
0.78457
0.784569
0.784569
0.784569
0.784569
0.784569
0.784569
0.784569
0.784569
0.784569
0.784569
0.784568
0.784568
0.784568
0.784568
0.784568
0.784568
0.784568
0.784568
0.784568
0.784568
0.784567
0.784567
0.784567
0.784567
0.784567
0.784567
0.784567
0.784567
0.784567
0.784567
0.784567
0.784566
0.784566
0.784566
0.784566
0.784566
0.784566
0.784566
0.784566
0.784566
0.784566
0.784566
0.784565
0.784565
0.784565
0.784565
0.784565
0.784565
0.784565
0.784565
0.784565
0.784565
0.784565
0.784565
0.784564
0.784564
0.784564
0.784564
0.784564
0.784564
0.784564
0.784564
0.784564
0.784564
0.784564
0.784563
0.784563
0.784563
0.784563
0.784563
0.784563
0.784563
0.784563
0.784563
0.784563
0.784563
0.784562
0.784562
0.784562
0.784562
0.784562
0.784562
0.784562
0.784562
0.784562
0.784562
0.784562
0.784562
0.784562
0.784561
0.784561
0.784561
0.784561
0.784561
0.784561
0.784561
0.784561
0.784561
0.784561
0.784561
0.784561
0.78456
0.78456
0.78456
0.78456
0.78456
0.78456
0.78456
0.78456
0.78456
0.78456
0.78456
0.78456
0.78456
0.78456
0.784559
0.784559
0.784559
0.784559
0.784559
0.784559
0.784559
0.784559
0.784559
0.784559
0.784559
0.784559
0.784558
0.784558
0.784558
0.784558
0.784558
0.784558
0.784558
0.784558
0.784558
0.784558
0.784558
0.784558
0.784558
0.784558
0.784558
0.784557
0.784557
0.784557
0.784557
0.784557
0.784557
0.784557
0.784557
0.784557
0.784557
0.784557
0.784557
0.784557
0.784557
0.784557
0.784556
0.784556
0.784556
0.784556
0.784556
0.784556
0.784556
0.784556
0.784556
0.784556
0.784556
0.784556
0.784556
0.784556
0.784556
0.784555
0.784555
0.784555
0.784555
0.784555
0.784555
0.784555
0.784555
0.784555
0.784555
0.784555
0.784555
0.784555
0.784555
0.784555
0.784555
0.784555
0.784555
0.784554
0.784554
0.784554
0.784554
0.784554
0.784554
0.784554
0.784554
0.784554
0.784554
0.784554
0.784554
0.784554
0.784554
0.784554
0.784554
0.784554
0.784554
0.784554
0.784553
0.784553
0.784553
0.784553
0.784553
0.784553
0.784553
0.784553
0.784553
0.784553
0.784553
0.784553
0.784553
0.784553
0.784553
0.784553
0.784553
0.784553
0.784553
0.784553
0.784552
0.784552
0.784552
0.784552
0.784552
0.784552
0.784552
0.784552
0.784552
0.784552
0.784552
0.784552
0.784552
0.784552
0.784552
0.784552
0.784552
0.784552
0.784552
0.784552
0.784552
0.784552
0.784552
0.784551
0.784551
0.784551
0.784551
0.784551
0.784551
0.784551
0.784551
0.784551
0.784551
0.784551
0.784551
0.784551
0.784551
0.784551
0.784551
0.784551
0.784551
0.784551
0.784551
0.784551
0.784551
0.78455
0.78455
0.78455
0.78455
0.78455
0.78455
0.78455
0.78455
0.78455
0.78455
0.78455
0.78455
0.784549
0.784549
0.784549
0.784549
0.784549
0.784549
0.784549
0.784549
0.784549
0.784548
0.784548
0.784548
0.784548
0.784548
0.784548
0.784547
0.784547
0.784547
0.784547
0.784547
0.784547
0.784546
0.784546
0.784546
0.784546
0.784546
0.784545
0.784545
0.784545
0.784545
0.784544
0.784544
0.784544
0.784544
0.784544
0.784543
0.784543
0.784543
0.784543
0.784542
0.784542
0.784542
0.784542
0.784541
0.784541
0.784541
0.78454
0.78454
0.78454
0.78454
0.784539
0.784539
0.784539
0.784539
0.784538
0.784538
0.784538
0.784538
0.784537
0.784537
0.784537
0.784536
0.784536
0.784536
0.784535
0.784535
0.784535
0.784535
0.784534
0.784534
0.784534
0.784533
0.784533
0.784533
0.784533
0.784532
0.784532
0.784532
0.784531
0.784531
0.784531
0.78453
0.78453
0.78453
0.78453
0.784529
0.784529
0.784529
0.784529
0.784528
0.784528
0.784528
0.784528
0.784527
0.784527
0.784526
0.784526
0.784526
0.784526
0.784525
0.784525
0.784525
0.784525
0.784524
0.784524
0.784524
0.784523
0.784523
0.784523
0.784523
0.784522
0.784522
0.784522
0.784522
0.784521
0.784521
0.78452
0.78452
0.78452
0.78452
0.784519
0.784519
0.784519
0.784519
0.784518
0.784518
0.784518
0.784518
0.784517
0.784517
0.784517
0.784516
0.784516
0.784516
0.784516
0.784515
0.784515
0.784515
0.784515
0.784514
0.784514
0.784514
0.784514
0.784513
0.784513
0.784513
0.784512
0.784512
0.784512
0.784511
0.784511
0.784511
0.784511
0.78451
0.78451
0.78451
0.784509
0.784509
0.784509
0.784509
0.784508
0.784508
0.784508
0.784508
0.784507
0.784507
0.784507
0.784507
0.784506
0.784506
0.784506
0.784505
0.784505
0.784505
0.784505
0.784504
0.784504
0.784504
0.784504
0.784503
0.784503
0.784503
0.784503
0.784502
0.784502
0.784502
0.784501
0.784501
0.784501
0.784501
0.784501
0.7845
0.7845
0.7845
0.7845
0.784499
0.784499
0.784499
0.784499
0.784498
0.784498
0.784498
0.784498
0.784497
0.784497
0.784497
0.784496
0.784496
0.784496
0.784496
0.784495
0.784495
0.784495
0.784495
0.784494
0.784494
0.784494
0.784494
0.784493
0.784493
0.784493
0.784493
0.784493
0.784492
0.784492
0.784492
0.784491
0.784491
0.784491
0.784491
0.78449
0.78449
0.78449
0.78449
0.784489
0.784489
0.784489
0.784489
0.784489
0.784488
0.784488
0.784488
0.784488
0.784487
0.784487
0.784487
0.784486
0.784486
0.784486
0.784486
0.784485
0.784485
0.784485
0.784485
0.784485
0.784484
0.784484
0.784484
0.784484
0.784483
0.784483
0.784483
0.784483
0.784483
0.784482
0.784482
0.784482
0.784482
0.784481
0.784481
0.784481
0.78448
0.78448
0.78448
0.78448
0.78448
0.784479
0.784479
0.784479
0.784479
0.784478
0.784478
0.784478
0.784478
0.784478
0.784477
0.784477
0.784477
0.784477
0.784476
0.784476
0.784476
0.784476
0.784476
0.784475
0.784475
0.784475
0.784475
0.784475
0.784474
0.784474
0.784474
0.784474
0.784473
0.784473
0.784473
0.784473
0.784473
0.784472
0.784472
0.784472
0.784471
0.784471
0.784471
0.784471
0.784471
0.78447
0.78447
0.78447
0.78447
0.78447
0.784469
0.784469
0.784469
0.784469
0.784469
0.784468
0.784468
0.784468
0.784468
0.784468
0.784467
0.784467
0.784467
0.784467
0.784466
0.784466
0.784466
0.784466
0.784466
0.784465
0.784465
0.784465
0.784465
0.784465
0.784464
0.784464
0.784464
0.784464
0.784464
0.784463
0.784463
0.784463
0.784463
0.784463
0.784462
0.784462
0.784462
0.784462
0.784462
0.784461
0.784461
0.784461
0.784461
0.784461
0.78446
0.78446
0.78446
0.78446
0.78446
0.78446
0.784459
0.784459
0.784459
0.784459
0.784459
0.784458
0.784458
0.784458
0.784458
0.784458
0.784457
0.784457
0.784457
0.784457
0.784457
0.784456
0.784456
0.784456
0.784456
0.784456
0.784456
0.784456
0.784455
0.784455
0.784455
0.784455
0.784455
0.784454
0.784454
0.784454
0.784454
0.784454
0.784454
0.784453
0.784453
0.784453
0.784453
0.784453
0.784452
0.784452
0.784452
0.784452
0.784452
0.784452
0.784451
0.784451
0.784451
0.784451
0.784451
0.784451
0.78445
0.78445
0.78445
0.78445
0.78445
0.78445
0.78445
0.784449
0.784449
0.784449
0.784449
0.784449
0.784449
0.784448
0.784448
0.784448
0.784448
0.784448
0.784448
0.784447
0.784447
0.784447
0.784447
0.784447
0.784447
0.784446
0.784446
0.784446
0.784446
0.784446
0.784446
0.784446
0.784445
0.784445
0.784445
0.784445
0.784445
0.784445
0.784444
0.784444
0.784444
0.784444
0.784444
0.784444
0.784443
0.784443
0.784443
0.784443
0.784443
0.784443
0.784442
0.784442
0.784442
0.784442
0.784442
0.784442
0.784442
0.784441
0.784441
0.784441
0.784441
0.784441
0.78444
0.78444
0.78444
0.78444
0.78444
0.784439
0.784439
0.784439
0.784439
0.784439
0.784438
0.784438
0.784438
0.784437
0.784437
0.784437
0.784437
0.784436
0.784436
0.784436
0.784436
0.784435
0.784435
0.784435
0.784435
0.784434
0.784434
0.784433
0.784433
0.784433
0.784433
0.784432
0.784432
0.784431
0.784431
0.784431
0.78443
0.78443
0.78443
0.78443
0.784429
0.784429
0.784428
0.784428
0.784428
0.784427
0.784427
0.784426
0.784426
0.784426
0.784425
0.784425
0.784424
0.784424
0.784424
0.784423
0.784423
0.784422
0.784421
0.784421
0.784421
0.78442
0.78442
0.784419
0.784419
0.784419
0.784418
0.784418
0.784417
0.784417
0.784417
0.784416
0.784415
0.784415
0.784415
0.784414
0.784414
0.784413
0.784413
0.784413
0.784412
0.784412
0.784411
0.784411
0.784411
0.78441
0.784409
0.784409
0.784408
0.784408
0.784408
0.784407
0.784407
0.784406
0.784406
0.784406
0.784405
0.784405
0.784404
0.784404
0.784404
0.784403
0.784402
0.784402
0.784402
0.784401
0.784401
0.7844
0.7844
0.7844
0.784399
0.784399
0.784398
0.784398
0.784398
0.784397
0.784397
0.784396
0.784396
0.784396
0.784395
0.784395
0.784394
0.784394
0.784394
0.784393
0.784392
0.784392
0.784391
0.784391
0.784391
0.78439
0.78439
0.784389
0.784389
0.784389
0.784388
0.784388
0.784387
0.784387
0.784387
0.784386
0.784386
0.784385
0.784385
0.784385
0.784384
0.784384
0.784383
0.784383
0.784383
0.784382
0.784382
0.784381
0.784381
0.784381
0.78438
0.78438
0.784379
0.784379
0.784379
0.784378
0.784378
0.784377
0.784377
0.784377
0.784376
0.784376
0.784375
0.784375
0.784375
0.784374
0.784374
0.784373
0.784373
0.784373
0.784372
0.784372
0.784371
0.784371
0.784371
0.78437
0.78437
0.78437
0.78437
0.784369
0.784369
0.784368
0.784368
0.784368
0.784367
0.784367
0.784366
0.784366
0.784366
0.784365
0.784365
0.784364
0.784364
0.784364
0.784363
0.784363
0.784362
0.784362
0.784362
0.784361
0.784361
0.784361
0.78436
0.78436
0.78436
0.784359
0.784359
0.784358
0.784358
0.784358
0.784357
0.784357
0.784356
0.784356
0.784356
0.784356
0.784355
0.784355
0.784355
0.784354
0.784354
0.784353
0.784353
0.784353
0.784352
0.784352
0.784352
0.784351
0.784351
0.784351
0.78435
0.78435
0.784349
0.784349
0.784349
0.784348
0.784348
0.784348
0.784348
0.784347
0.784347
0.784346
0.784346
0.784346
0.784345
0.784345
0.784345
0.784344
0.784344
0.784344
0.784343
0.784343
0.784342
0.784342
0.784342
0.784342
0.784341
0.784341
0.784341
0.78434
0.78434
0.784339
0.784339
0.784339
0.784339
0.784338
0.784338
0.784337
0.784337
0.784337
0.784337
0.784336
0.784336
0.784336
0.784335
0.784335
0.784335
0.784334
0.784334
0.784334
0.784333
0.784333
0.784333
0.784333
0.784332
0.784332
0.784331
0.784331
0.784331
0.784331
0.78433
0.78433
0.784329
0.784329
0.784329
0.784329
0.784328
0.784328
0.784328
0.784327
0.784327
0.784327
0.784326
0.784326
0.784326
0.784326
0.784325
0.784325
0.784325
0.784324
0.784324
0.784324
0.784323
0.784323
0.784323
0.784323
0.784322
0.784322
0.784322
0.784321
0.784321
0.784321
0.78432
0.78432
0.78432
0.78432
0.784319
0.784319
0.784319
0.784319
0.784318
0.784318
0.784318
0.784318
0.784317
0.784317
0.784316
0.784316
0.784316
0.784316
0.784315
0.784315
0.784315
0.784315
0.784314
0.784314
0.784314
0.784313
0.784313
0.784313
0.784313
0.784312
0.784312
0.784312
0.784312
0.784311
0.784311
0.784311
0.784311
0.78431
0.78431
0.78431
0.784309
0.784309
0.784309
0.784309
0.784308
0.784308
0.784308
0.784308
0.784307
0.784307
0.784306
0.784306
0.784306
0.784306
0.784305
0.784305
0.784305
0.784305
0.784304
0.784304
0.784303
0.784303
0.784303
0.784303
0.784302
0.784302
0.784302
0.784301
0.784301
0.7843
0.7843
0.7843
0.784299
0.784299
0.784298
0.784298
0.784298
0.784297
0.784297
0.784296
0.784296
0.784296
0.784295
0.784295
0.784294
0.784294
0.784294
0.784293
0.784293
0.784292
0.784291
0.784291
0.784291
0.78429
0.78429
0.784289
0.784289
0.784289
0.784288
0.784287
0.784287
0.784287
0.784286
0.784285
0.784285
0.784284
0.784284
0.784283
0.784283
0.784282
0.784281
0.784281
0.784281
0.78428
0.784279
0.784279
0.784279
0.784278
0.784277
0.784276
0.784276
0.784276
0.784275
0.784274
0.784274
0.784273
0.784273
0.784272
0.784271
0.784271
0.78427
0.78427
0.784269
0.784269
0.784268
0.784267
0.784267
0.784267
0.784266
0.784265
0.784264
0.784264
0.784264
0.784263
0.784262
0.784262
0.784262
0.784261
0.78426
0.784259
0.784259
0.784259
0.784258
0.784257
0.784257
0.784256
0.784256
0.784255
0.784255
0.784254
0.784253
0.784253
0.784253
0.784252
0.784251
0.784251
0.784251
0.78425
0.784249
0.784248
0.784248
0.784248
0.784247
0.784246
0.784246
0.784245
0.784245
0.784244
0.784244
0.784243
0.784242
0.784242
0.784242
0.784241
0.78424
0.78424
0.78424
0.784239
0.784238
0.784238
0.784237
0.784237
0.784236
0.784236
0.784235
0.784234
0.784234
0.784234
0.784233
0.784232
0.784232
0.784232
0.784231
0.78423
0.78423
0.784229
0.784229
0.784229
0.784228
0.784227
0.784227
0.784227
0.784226
0.784225
0.784225
0.784224
0.784224
0.784223
0.784223
0.784222
0.784222
0.784222
0.784221
0.78422
0.78422
0.784219
0.784219
0.784218
0.784218
0.784217
0.784217
0.784217
0.784216
0.784215
0.784215
0.784214
0.784214
0.784213
0.784213
0.784212
0.784212
0.784212
0.784211
0.78421
0.78421
0.784209
0.784209
0.784209
0.784208
0.784207
0.784207
0.784207
0.784206
0.784206
0.784205
0.784204
0.784204
0.784204
0.784203
0.784203
0.784202
0.784202
0.784201
0.784201
0.7842
0.7842
0.7842
0.784199
0.784198
0.784198
0.784197
0.784197
0.784197
0.784196
0.784196
0.784195
0.784195
0.784194
0.784194
0.784193
0.784193
0.784193
0.784192
0.784192
0.784191
0.78419
0.78419
0.78419
0.784189
0.784189
0.784188
0.784188
0.784188
0.784187
0.784186
0.784186
0.784186
0.784185
0.784185
0.784184
0.784184
0.784184
0.784183
0.784183
0.784182
0.784182
0.784182
0.784181
0.78418
0.78418
0.784179
0.784179
0.784179
0.784178
0.784178
0.784177
0.784177
0.784177
0.784176
0.784176
0.784175
0.784175
0.784175
0.784174
0.784174
0.784173
0.784173
0.784173
0.784172
0.784172
0.784171
0.784171
0.784171
0.78417
0.784169
0.784169
0.784169
0.784168
0.784168
0.784167
0.784167
0.784167
0.784166
0.784166
0.784165
0.784165
0.784165
0.784164
0.784164
0.784163
0.784163
0.784163
0.784162
0.784162
0.784161
0.784161
0.784161
0.784161
0.78416
0.78416
0.784159
0.784159
0.784159
0.784158
0.784158
0.784157
0.784157
0.784157
0.784156
0.784156
0.784155
0.784155
0.784155
0.784154
0.784154
0.784153
0.784153
0.784153
0.784152
0.784152
0.784151
0.784151
0.784151
0.78415
0.78415
0.784149
0.784149
0.784149
0.784148
0.784147
0.784147
0.784147
0.784146
0.784146
0.784145
0.784145
0.784145
0.784144
0.784143
0.784143
0.784142
0.784142
0.784141
0.784141
0.78414
0.78414
0.78414
0.784139
0.784138
0.784138
0.784137
0.784137
0.784136
0.784136
0.784135
0.784134
0.784134
0.784133
0.784133
0.784132
0.784131
0.784131
0.784131
0.78413
0.784129
0.784128
0.784128
0.784128
0.784127
0.784126
0.784125
0.784125
0.784124
0.784124
0.784123
0.784122
0.784122
0.784121
0.78412
0.78412
0.784119
0.784119
0.784118
0.784117
0.784116
0.784115
0.784115
0.784115
0.784114
0.784113
0.784112
0.784112
0.784111
0.78411
0.784109
0.784109
0.784109
0.784108
0.784107
0.784106
0.784105
0.784105
0.784104
0.784104
0.784103
0.784102
0.784102
0.784101
0.7841
0.784099
0.784098
0.784098
0.784098
0.784097
0.784096
0.784095
0.784095
0.784094
0.784093
0.784093
0.784092
0.784092
0.784091
0.78409
0.784089
0.784088
0.784088
0.784088
0.784087
0.784086
0.784085
0.784085
0.784084
0.784083
0.784083
0.784082
0.784082
0.784081
0.78408
0.784079
0.784079
0.784079
0.784078
0.784077
0.784076
0.784075
0.784075
0.784075
0.784074
0.784073
0.784072
0.784072
0.784071
0.784071
0.78407
0.784069
0.784069
0.784068
0.784067
0.784067
0.784066
0.784066
0.784065
0.784064
0.784063
0.784063
0.784063
0.784062
0.784061
0.78406
0.78406
0.78406
0.784059
0.784058
0.784057
0.784057
0.784057
0.784056
0.784055
0.784054
0.784053
0.784053
0.784053
0.784052
0.784051
0.78405
0.78405
0.78405
0.784049
0.784048
0.784047
0.784047
0.784047
0.784046
0.784045
0.784044
0.784044
0.784044
0.784043
0.784042
0.784042
0.784042
0.784041
0.78404
0.784039
0.784039
0.784039
0.784038
0.784037
0.784036
0.784036
0.784036
0.784035
0.784034
0.784034
0.784033
0.784033
0.784032
0.784031
0.784031
0.78403
0.78403
0.784029
0.784029
0.784028
0.784027
0.784027
0.784026
0.784026
0.784025
0.784024
0.784024
0.784024
0.784023
0.784022
0.784022
0.784022
0.784021
0.78402
0.78402
0.784019
0.784019
0.784018
0.784018
0.784017
0.784016
0.784016
0.784015
0.784015
0.784014
0.784013
0.784013
0.784013
0.784012
0.784011
0.784011
0.784011
0.78401
0.784009
0.784009
0.784008
0.784008
0.784008
0.784007
0.784006
0.784006
0.784006
0.784005
0.784004
0.784004
0.784003
0.784003
0.784002
0.784002
0.784001
0.784
0.784
0.784
0.783999
0.783999
0.783998
0.783998
0.783997
0.783997
0.783996
0.783995
0.783995
0.783995
0.783994
0.783994
0.783993
0.783993
0.783992
0.783992
0.783991
0.78399
0.78399
0.78399
0.783989
0.783989
0.783988
0.783988
0.783987
0.783987
0.783986
0.783985
0.783985
0.783985
0.783984
0.783984
0.783983
0.783983
0.783982
0.783982
0.783981
0.78398
0.78398
0.78398
0.783979
0.783978
0.783977
0.783977
0.783977
0.783976
0.783975
0.783975
0.783975
0.783974
0.783973
0.783972
0.783972
0.783972
0.783971
0.78397
0.783969
0.783968
0.783968
0.783968
0.783967
0.783966
0.783965
0.783965
0.783965
0.783964
0.783963
0.783962
0.783962
0.783961
0.78396
0.78396
0.783959
0.783959
0.783958
0.783957
0.783956
0.783955
0.783955
0.783954
0.783953
0.783953
0.783952
0.783952
0.783951
0.78395
0.783949
0.783948
0.783948
0.783947
0.783946
0.783945
0.783944
0.783944
0.783943
0.783942
0.783941
0.78394
0.78394
0.783939
0.783938
0.783937
0.783936
0.783936
0.783935
0.783934
0.783933
0.783932
0.783932
0.783932
0.783931
0.78393
0.783929
0.783929
0.783928
0.783927
0.783926
0.783925
0.783925
0.783924
0.783923
0.783922
0.783921
0.783921
0.78392
0.783919
0.783918
0.783917
0.783917
0.783916
0.783915
0.783914
0.783913
0.783913
0.783912
0.783911
0.78391
0.783909
0.783909
0.783909
0.783908
0.783907
0.783906
0.783906
0.783905
0.783904
0.783903
0.783902
0.783902
0.783901
0.7839
0.783899
0.783898
0.783898
0.783897
0.783896
0.783896
0.783895
0.783895
0.783894
0.783893
0.783892
0.783891
0.783891
0.78389
0.783889
0.783888
0.783887
0.783887
0.783886
0.783886
0.783885
0.783884
0.783884
0.783883
0.783882
0.783881
0.78388
0.78388
0.783879
0.783879
0.783878
0.783877
0.783877
0.783876
0.783875
0.783874
0.783873
0.783873
0.783872
0.783872
0.783871
0.78387
0.78387
0.783869
0.783868
0.783867
0.783866
0.783866
0.783866
0.783865
0.783864
0.783863
0.783863
0.783862
0.783861
0.78386
0.78386
0.78386
0.783859
0.783858
0.783857
0.783856
0.783856
0.783856
0.783855
0.783854
0.783853
0.783853
0.783852
0.783851
0.783851
0.78385
0.78385
0.783849
0.783848
0.783847
0.783847
0.783847
0.783846
0.783845
0.783844
0.783843
0.783843
0.783843
0.783842
0.783841
0.78384
0.78384
0.783839
0.783839
0.783838
0.783837
0.783837
0.783836
0.783835
0.783835
0.783834
0.783834
0.783833
0.783832
0.783832
0.783831
0.783831
0.78383
0.783829
0.783829
0.783828
0.783828
0.783827
0.783826
0.783826
0.783825
0.783825
0.783824
0.783823
0.783823
0.783822
0.783822
0.783821
0.78382
0.78382
0.783819
0.783819
0.783818
0.783817
0.783817
0.783816
0.783816
0.783815
0.783814
0.783814
0.783813
0.783813
0.783812
0.783811
0.783811
0.78381
0.78381
0.783809
0.783808
0.783808
0.783807
0.783807
0.783806
0.783805
0.783804
0.783804
0.783804
0.783803
0.783802
0.783801
0.7838
0.7838
0.7838
0.783799
0.783798
0.783797
0.783797
0.783796
0.783795
0.783794
0.783794
0.783794
0.783793
0.783792
0.783791
0.78379
0.78379
0.783789
0.783788
0.783787
0.783786
0.783786
0.783785
0.783785
0.783784
0.783783
0.783783
0.783782
0.783781
0.78378
0.783779
0.783779
0.783778
0.783777
0.783776
0.783775
0.783775
0.783774
0.783773
0.783772
0.783771
0.783771
0.78377
0.783769
0.783768
0.783767
0.783767
0.783766
0.783765
0.783764
0.783763
0.783763
0.783761
0.78376
0.783759
0.783758
0.783758
0.783757
0.783756
0.783755
0.783754
0.783754
0.783753
0.783752
0.783751
0.78375
0.78375
0.783749
0.783748
0.783746
0.783745
0.783745
0.783744
0.783743
0.783742
0.783741
0.783741
0.78374
0.783739
0.783738
0.783737
0.783737
0.783736
0.783735
0.783734
0.783733
0.783733
0.783732
0.783731
0.78373
0.783728
0.783728
0.783727
0.783726
0.783725
0.783724
0.783724
0.783723
0.783722
0.783721
0.78372
0.78372
0.783719
0.783718
0.783717
0.783716
0.783716
0.783715
0.783714
0.783713
0.783712
0.783712
0.783711
0.78371
0.783709
0.783708
0.783708
0.783707
0.783706
0.783705
0.783704
0.783704
0.783703
0.783702
0.783701
0.7837
0.7837
0.783699
0.783698
0.783697
0.783696
0.783696
0.783695
0.783694
0.783693
0.783692
0.783692
0.783691
0.78369
0.783689
0.783688
0.783688
0.783687
0.783686
0.783685
0.783685
0.783685
0.783684
0.783683
0.783682
0.783681
0.783681
0.78368
0.783679
0.783678
0.783677
0.783677
0.783676
0.783675
0.783674
0.783673
0.783673
0.783672
0.783671
0.783671
0.78367
0.78367
0.783669
0.783668
0.783667
0.783666
0.783666
0.783665
0.783664
0.783663
0.783662
0.783662
0.783661
0.783661
0.78366
0.783659
0.783659
0.783658
0.783657
0.783656
0.783655
0.783655
0.783654
0.783653
0.783653
0.783652