<?xml version="1.0"?>
<VTKFile type="UnstructuredGrid" version="0.1" byte_order="LittleEndian">
<UnstructuredGrid>
<Piece NumberOfPoints="5000" NumberOfCells="4000">
<PointData Scalars="Reaction 0">
<DataArray type="Float32" Name="Reaction 0" format="ascii">
0.893867
0.893867
0.893867
0.893867
0.893867
0.893867
0.893867
0.893867
0.893867
0.893867
0.893867
0.893867
0.893867
0.893867
0.893867
0.893867
0.893867
0.893867
0.893867
0.893867
0.893867
0.893867
0.893867
0.893867
0.893867
0.893867
0.893867
0.893867
0.893867
0.893867
0.893867
0.893867
0.893867
0.893867
0.893867
0.893867
0.893867
0.893867
0.893867
0.893867
0.893867
0.893867
0.893867
0.893867
0.893867
0.893867
0.893867
0.893867
0.893867
0.893866
0.893866
0.893866
0.893866
0.893866
0.893866
0.893866
0.893866
0.893866
0.893866
0.893866
0.893866
0.893866
0.893866
0.893866
0.893866
0.893866
0.893866
0.893866
0.893866
0.893866
0.893866
0.893866
0.893866
0.893866
0.893866
0.893866
0.893866
0.893866
0.893866
0.893865
0.893865
0.893865
0.893865
0.893865
0.893865
0.893865
0.893865
0.893865
0.893865
0.893865
0.893865
0.893865
0.893865
0.893865
0.893865
0.893865
0.893865
0.893865
0.893865
0.893865
0.893865
0.893865
0.893864
0.893864
0.893864
0.893864
0.893864
0.893864
0.893864
0.893864
0.893864
0.893864
0.893864
0.893864
0.893864
0.893864
0.893864
0.893864
0.893864
0.893863
0.893863
0.893863
0.893863
0.893863
0.893863
0.893863
0.893863
0.893863
0.893863
0.893863
0.893863
0.893863
0.893863
0.893863
0.893862
0.893862
0.893862
0.893862
0.893862
0.893862
0.893862
0.893862
0.893862
0.893862
0.893862
0.893862
0.893862
0.893862
0.893861
0.893861
0.893861
0.893861
0.893861
0.893861
0.893861
0.893861
0.893861
0.893861
0.893861
0.893861
0.893861
0.89386
0.89386
0.89386
0.89386
0.89386
0.89386
0.89386
0.89386
0.89386
0.89386
0.89386
0.89386
0.893859
0.893859
0.893859
0.893859
0.893859
0.893859
0.893859
0.893859
0.893859
0.893859
0.893858
0.893858
0.893858
0.893858
0.893858
0.893858
0.893858
0.893858
0.893858
0.893858
0.893858
0.893857
0.893857
0.893857
0.893857
0.893857
0.893857
0.893857
0.893857
0.893857
0.893856
0.893856
0.893856
0.893856
0.893856
0.893856
0.893856
0.893856
0.893856
0.893856
0.893855
0.893855
0.893855
0.893855
0.893855
0.893855
0.893855
0.893855
0.893855
0.893854
0.893854
0.893854
0.893854
0.893854
0.893854
0.893854
0.893854
0.893854
0.893853
0.893853
0.893853
0.893853
0.893853
0.893853
0.893853
0.893853
0.893852
0.893852
0.893852
0.893852
0.893852
0.893852
0.893852
0.893852
0.893851
0.893851
0.893851
0.893851
0.893851
0.893851
0.893851
0.89385
0.89385
0.89385
0.89385
0.89385
0.89385
0.89385
0.89385
0.893849
0.893849
0.893849
0.893849
0.893849
0.893849
0.893849
0.893848
0.893848
0.893848
0.893848
0.893848
0.893848
0.893848
0.893848
0.893847
0.893847
0.893847
0.893847
0.893847
0.893847
0.893847
0.893846
0.893846
0.893846
0.893846
0.893846
0.893846
0.893846
0.893845
0.893845
0.893845
0.893845
0.893845
0.893845
0.893844
0.893844
0.893844
0.893844
0.893844
0.893844
0.893843
0.893843
0.893843
0.893843
0.893843
0.893843
0.893843
0.893843
0.893842
0.893842
0.893842
0.893842
0.893842
0.893842
0.893841
0.893841
0.893841
0.893841
0.893841
0.89384
0.89384
0.89384
0.89384
0.89384
0.89384
0.893839
0.893839
0.893839
0.893839
0.893839
0.893839
0.893838
0.893838
0.893838
0.893838
0.893838
0.893838
0.893838
0.893837
0.893837
0.893837
0.893837
0.893837
0.893836
0.893836
0.893836
0.893836
0.893836
0.893836
0.893835
0.893835
0.893835
0.893835
0.893835
0.893834
0.893834
0.893834
0.893834
0.893834
0.893833
0.893833
0.893833
0.893833
0.893833
0.893833
0.893832
0.893832
0.893832
0.893832
0.893832
0.893831
0.893831
0.893831
0.893831
0.893831
0.89383
0.89383
0.89383
0.89383
0.89383
0.893829
0.893829
0.893829
0.893829
0.893829
0.893828
0.893828
0.893828
0.893828
0.893828
0.893827
0.893827
0.893827
0.893827
0.893827
0.893826
0.893826
0.893826
0.893826
0.893826
0.893825
0.893825
0.893825
0.893825
0.893825
0.893824
0.893824
0.893824
0.893824
0.893824
0.893823
0.893823
0.893823
0.893823
0.893823
0.893822
0.893822
0.893822
0.893822
0.893821
0.893821
0.893821
0.893821
0.893821
0.89382
0.89382
0.89382
0.89382
0.89382
0.893819
0.893819
0.893819
0.893819
0.893818
0.893818
0.893818
0.893818
0.893818
0.893817
0.893817
0.893817
0.893816
0.893816
0.893816
0.893816
0.893816
0.893815
0.893815
0.893815
0.893815
0.893814
0.893814
0.893814
0.893814
0.893814
0.893813
0.893813
0.893813
0.893813
0.893812
0.893812
0.893812
0.893812
0.893812
0.893811
0.893811
0.893811
0.893811
0.89381
0.89381
0.89381
0.893809
0.893809
0.893809
0.893809
0.893809
0.893808
0.893808
0.893808
0.893808
0.893807
0.893807
0.893807
0.893807
0.893806
0.893806
0.893806
0.893806
0.893805
0.893805
0.893805
0.893805
0.893805
0.893804
0.893804
0.893804
0.893803
0.893803
0.893803
0.893803
0.893802
0.893802
0.893802
0.893802
0.893801
0.893801
0.893801
0.893801
0.8938
0.8938
0.8938
0.893799
0.893799
0.893799
0.893799
0.893798
0.893798
0.893798
0.893798
0.893797
0.893797
0.893797
0.893797
0.893796
0.893796
0.893796
0.893795
0.893795
0.893795
0.893795
0.893794
0.893794
0.893794
0.893794
0.893793
0.893793
0.893793
0.893793
0.893792
0.893792
0.893792
0.893791
0.893791
0.893791
0.893791
0.89379
0.89379
0.89379
0.89379
0.893789
0.893789
0.893788
0.893788
0.893788
0.893788
0.893787
0.893787
0.893787
0.893787
0.893786
0.893786
0.893786
0.893786
0.893785
0.893785
0.893785
0.893784
0.893784
0.893784
0.893783
0.893783
0.893783
0.893783
0.893782
0.893782
0.893782
0.893781
0.893781
0.893781
0.893781
0.89378
0.89378
0.89378
0.893779
0.893779
0.893779
0.893778
0.893778
0.893778
0.893777
0.893777
0.893777
0.893777
0.893776
0.893776
0.893776
0.893775
0.893775
0.893775
0.893774
0.893774
0.893774
0.893774
0.893773
0.893773
0.893772
0.893772
0.893772
0.893772
0.893771
0.893771
0.89377
0.89377
0.89377
0.89377
0.893769
0.893769
0.893769
0.893768
0.893768
0.893768
0.893767
0.893767
0.893767
0.893766
0.893766
0.893765
0.893765
0.893765
0.893765
0.893764
0.893764
0.893764
0.893763
0.893763
0.893763
0.893762
0.893762
0.893762
0.893761
0.893761
0.89376
0.89376
0.89376
0.89376
0.893759
0.893759
0.893759
0.893758
0.893758
0.893757
0.893757
0.893757
0.893757
0.893756
0.893756
0.893755
0.893755
0.893755
0.893754
0.893754
0.893753
0.893753
0.893753
0.893753
0.893752
0.893752
0.893752
0.893751
0.893751
0.89375
0.89375
0.89375
0.893749
0.893749
0.893748
0.893748
0.893748
0.893748
0.893747
0.893747
0.893746
0.893746
0.893746
0.893745
0.893745
0.893744
0.893744
0.893744
0.893743
0.893743
0.893742
0.893742
0.893742
0.893741
0.893741
0.893741
0.893741
0.89374
0.89374
0.893739
0.893739
0.893739
0.893738
0.893738
0.893737
0.893737
0.893737
0.893736
0.893736
0.893735
0.893735
0.893735
0.893734
0.893734
0.893733
0.893733
0.893733
0.893732
0.893732
0.893731
0.893731
0.893731
0.89373
0.89373
0.893729
0.893729
0.893729
0.893728
0.893728
0.893727
0.893727
0.893727
0.893726
0.893726
0.893725
0.893725
0.893725
0.893724
0.893724
0.893723
0.893723
0.893723
0.893722
0.893722
0.893721
0.893721
0.893721
0.89372
0.89372
0.893719
0.893719
0.893719
0.893718
0.893718
0.893717
0.893717
0.893717
0.893716
0.893716
0.893715
0.893715
0.893715
0.893714
0.893714
0.893713
0.893713
0.893713
0.893712
0.893712
0.893711
0.89371
0.89371
0.89371
0.893709
0.893709
0.893708
0.893708
0.893708
0.893707
0.893707
0.893706
0.893706
0.893706
0.893705
0.893705
0.893704
0.893704
0.893704
0.893703
0.893702
0.893702
0.893702
0.893701
0.893701
0.8937
0.8937
0.8937
0.893699
0.893699
0.893698
0.893698
0.893698
0.893697
0.893697
0.893696
0.893695
0.893695
0.893695
0.893694
0.893694
0.893693
0.893693
0.893693
0.893692
0.893692
0.893691
0.893691
0.89369
0.89369
0.893689
0.893689
0.893689
0.893688
0.893688
0.893687
0.893687
0.893687
0.893686
0.893685
0.893685
0.893684
0.893684
0.893684
0.893683
0.893683
0.893682
0.893682
0.893681
0.893681
0.89368
0.89368
0.89368
0.893679
0.893679
0.893678
0.893677
0.893677
0.893677
0.893676
0.893676
0.893675
0.893675
0.893675
0.893674
0.893673
0.893673
0.893673
0.893672
0.893672
0.893671
0.89367
0.89367
0.89367
0.893669
0.893669
0.893668
0.893668
0.893668
0.893667
0.893666
0.893666
0.893666
0.893665
0.893665
0.893664
0.893663
0.893663
0.893663
0.893662
0.893662
0.893661
0.893661
0.89366
0.89366
0.893659
0.893659
0.893659
0.893658
0.893657
0.893657
0.893656
0.893656
0.893656
0.893655
0.893654
0.893654
0.893654
0.893653
0.893653
0.893652
0.893651
0.893651
0.893651
0.89365
0.89365
0.893649
0.893649
0.893648
0.893648
0.893647
0.893646
0.893646
0.893646
0.893645
0.893645
0.893644
0.893644
0.893643
0.893643
0.893642
0.893641
0.893641
0.893641
0.89364
0.89364
0.893639
0.893639
0.893638
0.893638
0.893637
0.893636
0.893636
0.893636
0.893635
0.893635
0.893634
0.893634
0.893633
0.893633
0.893632
0.893631
0.893631
0.893631
0.89363
0.89363
0.893629
0.893629
0.893628
0.893628
0.893627
0.893626
0.893626
0.893626
0.893625
0.893624
0.893624
0.893624
0.893623
0.893622
0.893622
0.893621
0.893621
0.89362
0.89362
0.893619
0.893619
0.893619
0.893618
0.893617
0.893617
0.893616
0.893616
0.893615
0.893615
0.893614
0.893613
0.893613
0.893613
0.893612
0.893611
0.893611
0.893611
0.89361
0.893609
0.893609
0.893608
0.893608
0.893607
0.893607
0.893606
0.893605
0.893605
0.893605
0.893604
0.893603
0.893603
0.893603
0.893602
0.893601
0.893601
0.8936
0.8936
0.893599
0.893599
0.893598
0.893597
0.893597
0.893597
0.893596
0.893595
0.893595
0.893595
0.893594
0.893593
0.893592
0.893592
0.893592
0.893591
0.89359
0.89359
0.893589
0.893589
0.893588
0.893588
0.893587
0.893586
0.893586
0.893586
0.893585
0.893584
0.893584
0.893584
0.893583
0.893582
0.893581
0.893581
0.893581
0.89358
0.893579
0.893579
0.893578
0.893578
0.893577
0.893577
0.893576
0.893575
0.893575
0.893574
0.893574
0.893573
0.893572
0.893572
0.893572
0.893571
0.89357
0.89357
0.89357
0.893569
0.893568
0.893567
0.893567
0.893567
0.893566
0.893565
0.893565
0.893564
0.893564
0.893563
0.893562
0.893562
0.893561
0.893561
0.89356
0.89356
0.893559
0.893558
0.893558
0.893557
0.893557
0.893556
0.893555
0.893555
0.893554
0.893554
0.893553
0.893552
0.893552
0.893552
0.893551
0.89355
0.893549
0.893549
0.893549
0.893548
0.893547
0.893546
0.893546
0.893546
0.893545
0.893544
0.893543
0.893543
0.893543
0.893542
0.893541
0.893541
0.893541
0.89354
0.893539
0.893538
0.893538
0.893538
0.893537
0.893536
0.893535
0.893535
0.893535
0.893534
0.893533
0.893532
0.893532
0.893532
0.893531
0.89353
0.893529
0.893529
0.893529
0.893528
0.893527
0.893526
0.893526
0.893526
0.893525
0.893524
0.893523
0.893523
0.893523
0.893522
0.893521
0.89352
0.893519
0.893519
0.893519
0.893518
0.893517
0.893516
0.893516
0.893516
0.893515
0.893514
0.893513
0.893513
0.893513
0.893512
0.893511
0.89351
0.89351
0.89351
0.893509
0.893508
0.893507
0.893507
0.893506
0.893506
0.893505
0.893504
0.893504
0.893503
0.893503
0.893502
0.893501
0.893501
0.8935
0.893499
0.893499
0.893498
0.893498
0.893497
0.893496
0.893495
0.893495
0.893495
0.893494
0.893493
0.893492
0.893492
0.893492
0.893491
0.89349
0.893489
0.893488
0.893488
0.893488
0.893487
0.893486
0.893485
0.893485
0.893484
0.893484
0.893483
0.893482
0.893482
0.893481
0.89348
0.89348
0.893479
0.893479
0.893478
0.893477
0.893476
0.893476
0.893476
0.893475
0.893474
0.893473
0.893472
0.893472
0.893472
0.893471
0.89347
0.893469
0.893469
0.893468
0.893467
0.893467
0.893466
0.893466
0.893465
0.893464
0.893463
0.893463
0.893463
0.893462
0.893461
0.89346
0.893459
0.893459
0.893458
0.893458
0.893457
0.893456
0.893456
0.893455
0.893454
0.893454
0.893453
0.893453
0.893452
0.893451
0.89345
0.893449
0.893449
0.893449
0.893448
0.893447
0.893446
0.893446
0.893445
0.893444
0.893444
0.893443
0.893443
0.893442
0.893441
0.89344
0.893439
0.893439
0.893439
0.893438
0.893437
0.893436
0.893436
0.893435
0.893434
0.893434
0.893433
0.893433
0.893432
0.893431
0.89343
0.893429
0.893429
0.893428
0.893428
0.893427
0.893426
0.893426
0.893425
0.893424
0.893423
0.893422
0.893422
0.893422
0.893421
0.89342
0.893419
0.893419
0.893418
0.893417
0.893416
0.893416
0.893416
0.893415
0.893414
0.893413
0.893412
0.893412
0.893411
0.89341
0.89341
0.893409
0.893409
0.893408
0.893407
0.893406
0.893405
0.893405
0.893404
0.893404
0.893403
0.893402
0.893402
0.893401
0.8934
0.893399
0.893398
0.893398
0.893397
0.893397
0.893396
0.893395
0.893395
0.893394
0.893393
0.893392
0.893391
0.893391
0.89339
0.893389
0.893389
0.893388
0.893388
0.893387
0.893386
0.893385
0.893384
0.893384
0.893383
0.893382
0.893382
0.893381
0.893381
0.89338
0.893379
0.893378
0.893377
0.893377
0.893376
0.893375
0.893374
0.893373
0.893373
0.893373
0.893372
0.893371
0.89337
0.89337
0.893369
0.893368
0.893367
0.893366
0.893366
0.893365
0.893364
0.893364
0.893363
0.893363
0.893362
0.893361
0.89336
0.893359
0.893359
0.893358
0.893357
0.893356
0.893355
0.893355
0.893354
0.893353
0.893352
0.893352
0.893352
0.893351
0.89335
0.893349
0.893348
0.893348
0.893347
0.893346
0.893345
0.893344
0.893344
0.893343
0.893342
0.893341
0.89334
0.89334
0.893339
0.893338
0.893337
0.893336
0.893336
0.893335
0.893334
0.893333
0.893332
0.893332
0.893331
0.893331
0.89333
0.893329
0.893329
0.893328
0.893327
0.893326
0.893325
0.893325
0.893324
0.893323
0.893322
0.893321
0.893321
0.89332
0.893319
0.893318
0.893317
0.893317
0.893316
0.893315
0.893314
0.893313
0.893313
0.893312
0.893311
0.89331
0.893309
0.893309
0.893308
0.893307
0.893306
0.893305
0.893305
0.893304
0.893303
0.893302
0.893301
0.893301
0.8933
0.893299
0.893298
0.893297
0.893297
0.893296
0.893295
0.893294
0.893293
0.893293
0.893292
0.893291
0.89329
0.893289
0.893289
0.893288
0.893287
0.893286
0.893285
0.893285
0.893284
0.893283
0.893282
0.893281
0.893281
0.89328
0.893279
0.893278
0.893277
0.893277
0.893276
0.893275
0.893274
0.893273
0.893273
0.893272
0.893271
0.89327
0.893269
0.893269
0.893267
0.893266
0.893265
0.893264
0.893264
0.893263
0.893262
0.893261
0.89326
0.89326
0.893259
0.893258
0.893257
0.893256
0.893256
0.893255
0.893254
0.893253
0.893252
0.893252
0.893251
0.89325
0.893249
0.893248
0.893248
0.893246
0.893245
0.893244
0.893243
0.893243
0.893242
0.893241
0.89324
0.893239
0.893239
0.893238
0.893237
0.893236
0.893235
0.893235
0.893234
0.893233
0.893232
0.893231
0.893231
0.893229
0.893228
0.893227
0.893226
0.893226
0.893225
0.893224
0.893223
0.893222
0.893222
0.893221
0.89322
0.893219
0.893218
0.893218
0.893217
0.893216
0.893214
0.893213
0.893213
0.893212
0.893211
0.89321
0.893209
0.893209
0.893208
0.893207
0.893206
0.893205
0.893205
0.893204
0.893203
0.893201
0.8932
0.8932
0.893199
0.893198
0.893197
0.893196
0.893196
0.893195
0.893194
0.893193
0.893192
0.893192
0.893191
0.893189
0.893188
0.893187
0.893187
0.893186
0.893185
0.893184
0.893183
0.893183
0.893182
0.893181
0.89318
0.893178
0.893178
0.893177
0.893176
0.893175
0.893174
0.893174
0.893173
0.893172
0.893171
0.89317
0.89317
0.893168
0.893167
0.893166
0.893165
0.893165
0.893164
0.893163
0.893162
0.893161
0.893161
0.89316
0.893158
0.893157
0.893156
0.893156
0.893155
0.893154
0.893153
0.893152
0.893152
0.893151
0.893149
0.893148
0.893147
0.893147
0.893146
0.893145
0.893144
0.893143
0.893143
0.893142
0.89314
0.893139
0.893138
0.893138
0.893137
0.893136
0.893135
0.893134
0.893134
0.893132
0.893131
0.89313
0.893129
0.893129
0.893128
0.893127
0.893126
0.893125
0.893125
0.893123
0.893122
0.893121
0.89312
0.89312
0.893119
0.893118
0.893117
0.893115
0.893115
0.893114
0.893113
0.893112
0.893111
0.893111
0.89311
0.893108
0.893107
0.893106
0.893106
0.893105
0.893104
0.893103
0.893102
0.893102
0.8931
0.893099
0.893098
0.893097
0.893097
0.893096
0.893095
0.893093
0.893092
0.893092
0.893091
0.89309
0.893089
0.893088
0.893088
0.893086
0.893085
0.893084
0.893083
0.893083
0.893082
0.893081
0.893079
0.893078
0.893078
0.893077
0.893076
0.893075
0.893074
0.893074
0.893072
0.893071
0.89307
0.893069
0.893069
0.893068
0.893067
0.893065
0.893064
0.893064
0.893063
0.893062
0.893061
0.893059
0.893059
0.893058
0.893057
0.893056
0.893055
0.893055
0.893054
0.893052
0.893051
0.89305
0.89305
0.893049
0.893048
0.893046
0.893045
0.893045
0.893044
0.893043
0.893042
0.89304
0.89304
0.893039
0.893038
0.893037
0.893036
0.893036
0.893035
0.893033
0.893032
0.893031
0.893031
0.89303
0.893029
0.893027
0.893026
0.893026
0.893025
0.893024
0.893022
0.893021
0.893021
0.89302
0.893019
0.893018
0.893016
0.893016
0.893015
0.893014
0.893013
0.893012
0.893012
0.89301
0.893009
0.893008
0.893007
0.893007
0.893006
0.893004
0.893003
0.893002
0.893002
0.893001
0.892999
0.892998
0.892997
0.892997
0.892996
0.892995
0.892993
0.892992
0.892992
0.892991
0.89299
0.892989
0.892987
0.892987
0.892986
0.892985
0.892984
0.892982
0.892982
0.892981
0.89298
0.892979
0.892977
0.892977
0.892976
0.892975
0.892974
0.892973
0.892973
0.892971
0.89297
0.892969
0.892968
0.892968
0.892966
0.892965
0.892964
0.892963
0.892963
0.892961
0.89296
0.892959
0.892958
0.892958
0.892956
0.892955
0.892954
0.892953
0.892953
0.892951
0.89295
0.892949
0.892948
0.892948
0.892946
0.892945
0.892944
0.892943
0.892943
0.892941
0.89294
0.892939
0.892938
0.892938
0.892936
0.892935
0.892934
0.892933
0.892933
0.892931
0.89293
0.892929
0.892928
0.892928
0.892926
0.892925
0.892924
0.892922
0.892922
0.892921
0.89292
0.892919
0.892917
0.892917
0.892916
0.892915
0.892913
0.892912
0.892912
0.892911
0.89291
0.892908
0.892907
0.892907
0.892906
0.892904
0.892903
0.892902
0.892902
0.8929
0.892899
0.892898
0.892896
0.892896
0.892895
0.892894
0.892893
0.892891
0.892891
0.89289
0.892889
0.892887
0.892886
0.892886
0.892885
0.892883
0.892882
0.892881
0.892881
0.892879
0.892878
0.892877
0.892875
0.892875
0.892874
0.892873
0.892871
0.89287
0.89287
0.892869
0.892867
0.892866
0.892865
0.892865
0.892863
0.892862
0.892861
0.892859
0.892859
0.892858
0.892857
0.892855
0.892854
0.892854
0.892853
0.892851
0.89285
0.892849
0.892849
0.892847
0.892846
0.892845
0.892843
0.892843
0.892842
0.89284
0.892839
0.892838
0.892838
0.892836
0.892835
0.892834
0.892832
0.892832
0.892831
0.892829
0.892828
0.892827
0.892827
0.892825
0.892824
0.892823
0.892821
0.892821
0.89282
0.892818
0.892817
0.892816
0.892816
0.892814
0.892813
0.892811
0.89281
0.89281
0.892809
0.892807
0.892806
0.892804
0.892804
0.892803
0.892802
0.8928
0.892799
0.892799
0.892797
0.892796
0.892795
0.892793
0.892793
0.892792
0.89279
0.892789
0.892787
0.892787
0.892786
0.892785
0.892783
0.892782
0.892782
0.89278
0.892779
0.892778
0.892776
0.892776
0.892775
0.892773
0.892772
0.89277
0.89277
0.892769
0.892768
0.892766
0.892765
0.892765
0.892763
0.892762
0.892761
0.892759
0.892759
0.892758
0.892756
0.892755
0.892753
0.892753
0.892752
0.892751
0.892749
0.892748
0.892748
0.892746
0.892745
0.892743
0.892742
0.892742
0.89274
0.892739
0.892738
0.892736
0.892736
0.892735
0.892733
0.892732
0.89273
0.89273
0.892729
0.892728
0.892726
0.892725
0.892725
0.892723
0.892722
0.89272
0.892719
0.892719
0.892717
0.892716
0.892715
0.892713
0.892713
0.892712
0.89271
0.892709
0.892707
0.892707
0.892706
0.892704
0.892703
0.892701
0.892701
0.8927
0.892699
0.892697
0.892696
0.892696
0.892694
0.892693
0.892691
0.89269
0.89269
0.892688
0.892687
0.892685
0.892684
0.892684
0.892682
0.892681
0.89268
0.892678
0.892678
0.892677
0.892675
0.892674
0.892672
0.892672
0.892671
0.892669
0.892668
0.892666
0.892666
0.892665
0.892663
0.892662
0.89266
0.89266
0.892659
0.892658
0.892656
0.892655
0.892655
0.892653
0.892652
0.89265
0.892649
0.892649
0.892647
0.892646
0.892644
0.892643
0.892643
0.892641
0.89264
0.892638
0.892637
0.892637
0.892635
0.892634
0.892632
0.892631
0.892631
0.892629
0.892628
0.892626
0.892625
0.892625
0.892623
0.892622
0.89262
0.892619
0.892619
0.892617
0.892616
0.892614
0.892613
0.892613
0.892611
0.89261
0.892608
0.892607
0.892607
0.892605
0.892604
0.892602
0.892601
0.892601
0.892599
0.892598
0.892596
0.892595
0.892595
0.892593
0.892592
0.89259
0.892589
0.892589
0.892587
0.892586
0.892584
0.892583
0.892583
0.892581
0.89258
0.892578
0.892577
0.892577
0.892575
0.892574
0.892572
0.892571
0.892571
0.892569
0.892568
0.892566
0.892565
0.892565
0.892563
0.892562
0.89256
0.892559
0.892559
0.892557
0.892556
0.892554
0.892552
0.892552
0.892551
0.892549
0.892548
0.892546
0.892546
0.892545
0.892543
0.892542
0.89254
0.89254
0.892539
0.892537
0.892536
0.892534
0.892534
0.892533
0.892531
0.89253
0.892528
0.892528
0.892526
0.892525
0.892523
0.892522
0.892522
0.89252
0.892519
0.892517
0.892516
0.892516
0.892514
0.892513
0.892511
0.89251
0.89251
0.892508
0.892506
0.892505
0.892503
0.892503
0.892502
0.8925
0.892499
0.892497
0.892497
0.892496
0.892494
0.892492
0.892491
0.892491
0.892489
0.892488
0.892486
0.892485
0.892485
0.892483
0.892482
0.89248
0.892478
0.892478
0.892477
0.892475
0.892474
0.892472
0.892472
0.892471
0.892469
0.892467
0.892466
0.892466
0.892464
0.892463
0.892461
0.892459
0.892459
0.892458
0.892456
0.892455
0.892453
0.892453
0.892451
0.89245
0.892448
0.892447
0.892447
0.892445
0.892443
0.892442
0.89244
0.89244
0.892438
0.892437
0.892435
0.892433
0.892433
0.892432
0.89243
0.892429
0.892427
0.892427
0.892425
0.892424
0.892422
0.892421
0.892421
0.892419
0.892417
0.892416
0.892414
0.892414
0.892412
0.892411
0.892409
0.892408
0.892408
0.892406
0.892404
0.892403
0.892401
0.892401
0.892399
0.892398
0.892396
0.892395
0.892395
0.892393
0.892391
0.89239
0.892388
0.892388
0.892386
0.892385
0.892383
0.892381
0.892381
0.89238
0.892378
0.892376
0.892375
0.892375
0.892373
0.892371
0.89237
0.892368
0.892368
0.892366
0.892365
0.892363
0.892361
0.892361
0.89236
0.892358
0.892356
0.892354
0.892354
0.892353
0.892351
0.892349
0.892348
0.892348
0.892346
0.892344
0.892343
0.892341
0.892341
0.892339
0.892337
0.892336
0.892334
0.892334
0.892332
0.892331
0.892329
0.892327
0.892327
0.892326
0.892324
0.892322
0.89232
0.89232
0.892319
0.892317
0.892315
0.892314
0.892314
0.892312
0.89231
0.892308
0.892307
0.892307
0.892305
0.892303
0.892302
0.8923
0.8923
0.892298
0.892296
0.892295
0.892293
0.892293
0.892291
0.89229
0.892288
0.892286
0.892286
0.892284
0.892283
0.892281
0.892279
0.892279
0.892278
0.892276
0.892274
0.892272
0.892272
0.892271
0.892269
0.892267
0.892265
0.892265
0.892264
0.892262
0.89226
0.892258
0.892258
0.892257
0.892255
0.892253
0.892252
0.892252
0.89225
0.892248
0.892246
0.892245
0.892245
0.892243
0.892241
0.892239
0.892238
0.892238
0.892236
0.892234
0.892232
0.892231
0.892231
0.892229
0.892227
0.892225
0.892224
0.892224
0.892222
0.89222
0.892218
0.892217
0.892217
0.892215
0.892213
0.892211
0.89221
0.89221
0.892208
0.892206
0.892204
0.892203
0.892203
0.892201
0.892199
0.892197
0.892196
0.892196
0.892194
0.892192
0.89219
0.892189
0.892189
0.892187
0.892185
0.892183
0.892182
0.892182
0.89218
0.892178
0.892176
0.892174
0.892174
0.892173
0.892171
0.892169
0.892167
0.892167
0.892166
0.892164
0.892162
0.89216
0.89216
0.892159
0.892157
0.892155
0.892153
0.892153
0.892151
0.89215
0.892148
0.892146
0.892146
0.892144
0.892143
0.892141
0.892139
0.892139
0.892137
0.892135
0.892134
0.892132
0.892132
0.89213
0.892128
0.892127
0.892125
0.892125
0.892123
0.892121
0.892119
0.892118
0.892118
0.892116
0.892114
0.892112
0.89211
0.89211
0.892109
0.892107
0.892105
0.892103
0.892103
0.892102
0.8921
0.892098
0.892096
0.892096
0.892094
0.892093
0.892091
0.892089
0.892089
0.892087
0.892085
0.892084
0.892082
0.892082
0.89208
0.892078
0.892076
0.892075
0.892075
0.892073
0.892071
0.892069
0.892067
0.892067
0.892066
0.892064
0.892062
0.89206
0.89206
0.892058
0.892056
0.892055
0.892053
0.892053
0.892051
0.892049
0.892047
0.892046
0.892046
0.892044
0.892042
0.89204
0.892038
0.892038
0.892036
0.892035
0.892033
0.892031
0.892031
0.892029
0.892027
0.892025
0.892024
0.892024
0.892022
0.89202
0.892018
0.892016
0.892016
0.892014
0.892013
0.892011
0.892009
0.892009
0.892007
0.892005
0.892003
0.892001
0.892001
0.892
0.891998
0.891996
0.891994
0.891994
0.891992
0.89199
0.891988
0.891986
0.891986
0.891984
0.891983
0.891981
0.891979
0.891979
0.891977
0.891975
0.891973
0.891971
0.891971
0.891969
0.891967
0.891966
0.891964
0.891964
0.891962
0.89196
0.891958
0.891956
0.891956
0.891954
0.891952
0.89195
0.891949
0.891949
0.891947
0.891945
0.891943
0.891941
0.891941
0.891939
0.891937
0.891935
0.891934
0.891934
0.891932
0.89193
0.891928
0.891926
0.891926
0.891924
0.891922
0.89192
0.891918
0.891918
0.891916
0.891914
0.891912
0.891911
0.891911
0.891909
0.891907
0.891905
0.891903
0.891903
0.891901
0.891899
0.891897
0.891895
0.891895
0.891893
0.891891
0.891889
0.891887
0.891887
0.891885
0.891883
0.891881
0.891879
0.891879
0.891877
0.891876
0.891874
0.891872
0.891872
0.89187
0.891868
0.891866
0.891864
0.891864
0.891862
0.89186
0.891858
0.891856
0.891856
0.891854
0.891852
0.89185
0.891848
0.891848
0.891846
0.891844
0.891842
0.89184
0.89184
0.891838
0.891836
0.891834
0.891832
0.891832
0.89183
0.891828
0.891826
0.891824
0.891824
0.891822
0.89182
0.891818
0.891816
0.891816
0.891814
0.891812
0.89181
0.891808
0.891808
0.891806
0.891804
0.891802
0.8918
0.8918
0.891798
0.891796
0.891794
0.891792
0.891792
0.89179
0.891788
0.891786
0.891784
0.891784
0.891783
0.891781
0.891779
0.891777
0.891777
0.891775
0.891773
0.891771
0.891769
0.891769
0.891767
0.891765
0.891763
0.891761
0.891761
0.891759
0.891757
0.891755
0.891753
0.891753
0.891751
0.891749
0.891746
0.891744
0.891744
0.891742
0.89174
0.891738
0.891736
0.891736
0.891734
0.891732
0.89173
0.891728
0.891728
0.891726
0.891724
0.891722
0.89172
0.89172
0.891718
0.891716
0.891714
0.891712
0.891712
0.89171
0.891708
0.891706
0.891704
0.891704
0.891702
0.8917
0.891698
0.891696
0.891696
0.891694
0.891692
0.89169
0.891688
0.891688
0.891686
0.891684
0.891682
0.89168
0.89168
0.891678
0.891676
0.891674
0.891672
0.891672
0.89167
0.891668
0.891666
0.891664
0.891664
0.891662
0.89166
0.891658
0.891656
0.891656
0.891654
0.891652
0.891649
0.891647
0.891647
0.891645
0.891643
0.891641
0.891639
0.891639
0.891637
0.891635
0.891633
0.891631
0.891631
0.891629
0.891627
0.891625
0.891623
0.891623
0.891621
0.891619
0.891617
0.891615
0.891615
0.891613
0.891611
0.891609
0.891607
0.891607
0.891605
0.891602
0.8916
0.891598
0.891598
0.891596
0.891594
0.891592
0.89159
0.89159
0.891588
0.891586
0.891584
0.891582
0.891582
0.89158
0.891578
0.891576
0.891574
0.891574
0.891571
0.891569
0.891567
0.891565
0.891565
0.891563
0.891561
0.891559
0.891557
0.891557
0.891555
0.891553
0.891551
0.891549
0.891549
0.891546
0.891544
0.891542
0.89154
0.89154
0.891538
0.891536
0.891534
0.891532
0.891532
0.891529
0.891527
0.891525
0.891523
0.891523
0.891521
0.891519
0.891517
0.891514
0.891514
0.891512
0.89151
0.891508
0.891506
0.891506
0.891504
0.891502
0.8915
0.891497
0.891497
0.891495
0.891493
0.891491
0.891489
0.891489
0.891487
0.891485
0.891483
0.89148
0.89148
0.891478
0.891476
0.891474
0.891472
0.891472
0.89147
0.891468
0.891466
0.891463
0.891463
0.891461
0.891459
0.891457
0.891455
0.891455
0.891453
0.891451
0.891448
0.891446
0.891446
0.891444
0.891442
0.89144
0.891438
0.891438
0.891435
0.891433
0.891431
0.891429
0.891429
0.891427
0.891424
0.891422
0.89142
0.89142
0.891418
0.891416
0.891414
0.891411
0.891411
0.891409
0.891407
0.891405
0.891403
0.891403
0.8914
0.891398
0.891396
0.891394
0.891394
0.891392
0.891389
0.891387
0.891385
0.891385
0.891383
0.89138
0.891378
0.891376
0.891376
0.891374
0.891372
0.891369
0.891367
0.891367
0.891365
0.891363
0.891361
0.891358
0.891358
0.891356
0.891354
0.891352
0.891349
0.891349
0.891347
0.891345
0.891343
0.891341
0.891341
0.891338
0.891336
0.891334
0.891332
0.891332
0.891329
0.891327
0.891325
0.891323
0.891323
0.891321
0.891318
0.891316
0.891314
0.891314
0.891312
0.891309
0.891307
0.891305
0.891305
0.891303
0.8913
0.891298
0.891296
0.891296
0.891294
0.891292
0.891289
0.891287
0.891287
0.891285
0.891283
0.89128
0.891278
0.891278
0.891276
0.891274
0.891271
0.891269
0.891269
0.891267
0.891265
0.891262
0.89126
0.89126
0.891258
0.891256
0.891253
0.891251
0.891251
0.891249
0.891247
0.891244
0.891242
0.891242
0.89124
0.891238
0.891235
0.891233
0.891233
0.891231
0.891229
0.891226
0.891224
0.891224
0.891222
0.89122
0.891217
0.891215
0.891215
0.891213
0.891211
0.891208
0.891206
0.891206
0.891204
0.891202
0.891199
0.891197
0.891197
0.891195
0.891193
0.89119
0.891188
0.891188
0.891186
0.891183
0.891181
0.891179
0.891179
0.891177
0.891174
0.891172
0.89117
0.89117
0.891168
0.891165
0.891163
0.891161
0.891161
0.891159
0.891156
0.891154
0.891152
0.891152
0.891149
0.891147
0.891145
0.891143
0.891143
0.89114
0.891138
0.891136
0.891133
0.891133
0.891131
0.891129
0.891127
0.891124
0.891124
0.891122
0.89112
0.891117
0.891115
0.891115
0.891113
0.89111
0.891108
0.891106
0.891106
0.891104
0.891101
0.891099
0.891097
0.891097
0.891094
0.891092
0.89109
0.891087
0.891087
0.891085
0.891083
0.89108
0.891078
0.891078
0.891076
0.891073
0.891071
0.891069
0.891069
0.891066
0.891064
0.891061
0.891059
0.891059
0.891057
0.891054
0.891052
0.89105
0.89105
0.891047
0.891045
0.891043
0.89104
0.89104
0.891038
0.891035
0.891033
0.891031
0.891031
0.891028
0.891026
0.891024
0.891021
0.891021
0.891019
0.891017
0.891014
0.891012
0.891012
0.89101
0.891007
0.891005
0.891003
0.891003
0.891
0.890998
0.890996
0.890993
0.890993
0.890991
0.890989
0.890986
0.890984
0.890984
0.890981
0.890979
0.890977
0.890974
0.890974
0.890972
0.890969
0.890967
0.890965
0.890965
0.890962
0.89096
0.890957
0.890955
0.890955
0.890953
0.89095
0.890948
0.890945
0.890945
0.890943
0.890941
0.890938
0.890936
0.890936
0.890933
0.890931
0.890929
0.890926
0.890926
0.890924
0.890921
0.890919
0.890916
0.890916
0.890914
0.890912
0.890909
0.890907
0.890907
0.890904
0.890902
0.890899
0.890897
0.890897
0.890895
0.890892
0.89089
0.890887
0.890887
0.890885
0.890882
0.89088
0.890877
0.890877
0.890875
0.890873
0.89087
0.890868
0.890868
0.890865
0.890863
0.89086
0.890858
0.890858
0.890855
0.890853
0.890851
0.890848
0.890848
0.890846
0.890843
0.890841
0.890838
0.890838
0.890836
0.890833
0.890831
0.890828
0.890828
0.890826
0.890824
0.890821
0.890819
0.890819
0.890816
0.890814
0.890811
0.890809
0.890809
0.890806
0.890804
0.890801
0.890799
0.890799
0.890797
0.890794
0.890792
0.890789
0.890789
0.890787
0.890784
0.890782
0.890779
0.890779
0.890777
0.890774
0.890772
0.890769
0.890769
0.890767
0.890764
0.890762
0.89076
0.89076
0.890757
0.890755
0.890752
0.89075
0.89075
0.890747
0.890745
0.890742
0.89074
0.89074
0.890737
0.890735
0.890732
0.89073
0.89073
0.890727
0.890725
0.890722
0.89072
0.89072
0.890717
0.890715
0.890712