<?xml version="1.0"?>
<VTKFile type="UnstructuredGrid" version="0.1" byte_order="LittleEndian">
<UnstructuredGrid>
<Piece NumberOfPoints="5000" NumberOfCells="4000">
<PointData Scalars="Reaction 0">
<DataArray type="Float32" Name="Reaction 0" format="ascii">
0.774022
0.774022
0.774022
0.774022
0.774022
0.774022
0.774022
0.774022
0.774022
0.774022
0.774022
0.774022
0.774022
0.774022
0.774023
0.774023
0.774023
0.774023
0.774023
0.774023
0.774023
0.774023
0.774023
0.774023
0.774023
0.774023
0.774023
0.774023
0.774023
0.774024
0.774024
0.774024
0.774024
0.774024
0.774024
0.774024
0.774024
0.774024
0.774024
0.774025
0.774025
0.774025
0.774025
0.774025
0.774025
0.774025
0.774025
0.774025
0.774026
0.774026
0.774026
0.774026
0.774026
0.774026
0.774027
0.774027
0.774027
0.774027
0.774027
0.774027
0.774027
0.774028
0.774028
0.774028
0.774028
0.774028
0.774029
0.774029
0.774029
0.774029
0.774029
0.77403
0.77403
0.77403
0.77403
0.77403
0.774031
0.774031
0.774031
0.774031
0.774031
0.774032
0.774032
0.774032
0.774033
0.774033
0.774033
0.774033
0.774034
0.774034
0.774034
0.774034
0.774035
0.774035
0.774035
0.774035
0.774036
0.774036
0.774036
0.774037
0.774037
0.774037
0.774037
0.774038
0.774038
0.774038
0.774038
0.774039
0.774039
0.77404
0.77404
0.77404
0.77404
0.774041
0.774041
0.774041
0.774042
0.774042
0.774043
0.774043
0.774043
0.774043
0.774044
0.774044
0.774045
0.774045
0.774045
0.774046
0.774046
0.774047
0.774047
0.774047
0.774048
0.774048
0.774048
0.774048
0.774049
0.774049
0.77405
0.77405
0.77405
0.774051
0.774051
0.774052
0.774052
0.774052
0.774053
0.774054
0.774054
0.774055
0.774055
0.774055
0.774056
0.774056
0.774057
0.774057
0.774057
0.774058
0.774059
0.774059
0.774059
0.77406
0.77406
0.774061
0.774061
0.774061
0.774062
0.774063
0.774063
0.774064
0.774064
0.774064
0.774065
0.774066
0.774066
0.774066
0.774067
0.774068
0.774068
0.774069
0.774069
0.77407
0.77407
0.774071
0.774072
0.774072
0.774072
0.774073
0.774074
0.774074
0.774074
0.774075
0.774076
0.774076
0.774077
0.774077
0.774078
0.774078
0.774079
0.77408
0.77408
0.774081
0.774081
0.774082
0.774083
0.774083
0.774083
0.774084
0.774085
0.774086
0.774086
0.774087
0.774087
0.774088
0.774089
0.774089
0.77409
0.77409
0.774091
0.774092
0.774092
0.774093
0.774094
0.774094
0.774095
0.774095
0.774096
0.774097
0.774098
0.774098
0.774098
0.774099
0.7741
0.774101
0.774102
0.774102
0.774103
0.774103
0.774104
0.774105
0.774105
0.774106
0.774107
0.774108
0.774109
0.774109
0.77411
0.77411
0.774111
0.774112
0.774112
0.774113
0.774114
0.774115
0.774116
0.774116
0.774117
0.774118
0.774119
0.77412
0.77412
0.774121
0.774121
0.774122
0.774123
0.774123
0.774124
0.774125
0.774126
0.774127
0.774127
0.774128
0.774129
0.77413
0.774131
0.774131
0.774132
0.774133
0.774134
0.774135
0.774135
0.774136
0.774137
0.774138
0.774139
0.774139
0.77414
0.774141
0.774142
0.774143
0.774143
0.774144
0.774145
0.774147
0.774148
0.774148
0.774149
0.77415
0.774151
0.774152
0.774152
0.774153
0.774154
0.774155
0.774156
0.774156
0.774157
0.774158
0.77416
0.774161
0.774161
0.774162
0.774163
0.774164
0.774165
0.774165
0.774166
0.774167
0.774169
0.77417
0.77417
0.774171
0.774172
0.774173
0.774174
0.774174
0.774176
0.774177
0.774178
0.774179
0.774179
0.77418
0.774182
0.774183
0.774184
0.774184
0.774185
0.774186
0.774188
0.774189
0.774189
0.77419
0.774191
0.774192
0.774194
0.774194
0.774195
0.774196
0.774197
0.774199
0.774199
0.7742
0.774201
0.774203
0.774204
0.774204
0.774205
0.774206
0.774208
0.774209
0.774209
0.77421
0.774212
0.774213
0.774214
0.774214
0.774215
0.774217
0.774218
0.774219
0.774219
0.774221
0.774222
0.774223
0.774225
0.774225
0.774226
0.774228
0.774229
0.77423
0.77423
0.774232
0.774233
0.774234
0.774236
0.774236
0.774237
0.774239
0.77424
0.774241
0.774241
0.774243
0.774244
0.774246
0.774247
0.774247
0.774248
0.77425
0.774251
0.774253
0.774253
0.774254
0.774256
0.774257
0.774259
0.774259
0.77426
0.774261
0.774263
0.774264
0.774264
0.774266
0.774267
0.774269
0.77427
0.77427
0.774272
0.774273
0.774275
0.774276
0.774276
0.774278
0.774279
0.774281
0.774282
0.774282
0.774284
0.774286
0.774287
0.774289
0.774289
0.77429
0.774292
0.774293
0.774295
0.774295
0.774296
0.774298
0.7743
0.774301
0.774301
0.774303
0.774304
0.774306
0.774308
0.774308
0.774309
0.774311
0.774312
0.774314
0.774314
0.774316
0.774317
0.774319
0.774321
0.774321
0.774322
0.774324
0.774325
0.774327
0.774327
0.774329
0.77433
0.774332
0.774334
0.774334
0.774335
0.774337
0.774339
0.77434
0.77434
0.774342
0.774344
0.774346
0.774347
0.774347
0.774349
0.774351
0.774352
0.774354
0.774354
0.774356
0.774358
0.774359
0.774361
0.774361
0.774363
0.774365
0.774366
0.774368
0.774368
0.77437
0.774372
0.774373
0.774375
0.774375
0.774377
0.774379
0.77438
0.774382
0.774382
0.774384
0.774386
0.774388
0.77439
0.77439
0.774391
0.774393
0.774395
0.774397
0.774397
0.774399
0.774401
0.774402
0.774404
0.774404
0.774406
0.774408
0.77441
0.774412
0.774412
0.774414
0.774416
0.774417
0.774419
0.774419
0.774421
0.774423
0.774425
0.774427
0.774427
0.774429
0.774431
0.774433
0.774435
0.774435
0.774437
0.774439
0.77444
0.774442
0.774442
0.774444
0.774446
0.774448
0.77445
0.77445
0.774452
0.774454
0.774456
0.774458
0.774458
0.77446
0.774462
0.774464
0.774466
0.774466
0.774468
0.77447
0.774472
0.774474
0.774474
0.774476
0.774478
0.77448
0.774482
0.774482
0.774484
0.774486
0.774488
0.77449
0.77449
0.774493
0.774495
0.774497
0.774499
0.774499
0.774501
0.774503
0.774505
0.774507
0.774507
0.774509
0.774511
0.774513
0.774515
0.774515
0.774518
0.77452
0.774522
0.774524
0.774524
0.774526
0.774528
0.77453
0.774532
0.774532
0.774535
0.774537
0.774539
0.774541
0.774541
0.774543
0.774545
0.774548
0.77455
0.77455
0.774552
0.774554
0.774556
0.774559
0.774559
0.774561
0.774563
0.774565
0.774567
0.774567
0.77457
0.774572
0.774574
0.774576
0.774576
0.774578
0.774581
0.774583
0.774585
0.774585
0.774587
0.77459
0.774592
0.774594
0.774594
0.774597
0.774599
0.774601
0.774603
0.774603
0.774606
0.774608
0.77461
0.774613
0.774613
0.774615
0.774617
0.77462
0.774622
0.774622
0.774624
0.774627
0.774629
0.774631
0.774631
0.774634
0.774636
0.774638
0.774641
0.774641
0.774643
0.774645
0.774648
0.77465
0.77465
0.774652
0.774655
0.774657
0.77466
0.77466
0.774662
0.774664
0.774667
0.774669
0.774669
0.774672
0.774674
0.774677
0.774679
0.774679
0.774681
0.774684
0.774686
0.774689
0.774689
0.774691
0.774694
0.774696
0.774699
0.774699
0.774701
0.774704
0.774706
0.774708
0.774708
0.774711
0.774713
0.774716
0.774718
0.774718
0.774721
0.774723
0.774726
0.774729
0.774729
0.774731
0.774734
0.774736
0.774739
0.774739
0.774741
0.774744
0.774746
0.774749
0.774749
0.774751
0.774754
0.774757
0.774759
0.774759
0.774762
0.774764
0.774767
0.77477
0.77477
0.774772
0.774775
0.774777
0.77478
0.77478
0.774783
0.774785
0.774788
0.77479
0.77479
0.774793
0.774796
0.774798
0.774801
0.774801
0.774804
0.774806
0.774809
0.774812
0.774812
0.774814
0.774817
0.77482
0.774822
0.774822
0.774825
0.774828
0.77483
0.774833
0.774833
0.774836
0.774839
0.774841
0.774844
0.774844
0.774847
0.774849
0.774852
0.774855
0.774855
0.774858
0.77486
0.774863
0.774866
0.774866
0.774869
0.774871
0.774874
0.774877
0.774877
0.77488
0.774883
0.774885
0.774888
0.774888
0.774891
0.774894
0.774897
0.774899
0.774899
0.774902
0.774905
0.774908
0.774911
0.774911
0.774913
0.774916
0.774919
0.774922
0.774922
0.774925
0.774928
0.774931
0.774933
0.774933
0.774936
0.774939
0.774942
0.774945
0.774945
0.774948
0.774951
0.774954
0.774957
0.774957
0.774959
0.774962
0.774965
0.774968
0.774968
0.774971
0.774974
0.774977
0.77498
0.77498
0.774983
0.774986
0.774989
0.774992
0.774992
0.774995
0.774998
0.775001
0.775004
0.775004
0.775007
0.77501
0.775012
0.775015
0.775015
0.775018
0.775021
0.775024
0.775027
0.775027
0.775031
0.775034
0.775037
0.77504
0.77504
0.775043
0.775046
0.775049
0.775052
0.775052
0.775055
0.775058
0.775061
0.775064
0.775064
0.775067
0.77507
0.775073
0.775076
0.775076
0.775079
0.775082
0.775086
0.775089
0.775089
0.775092
0.775095
0.775098
0.775101
0.775101
0.775104
0.775107
0.77511
0.775114
0.775114
0.775117
0.77512
0.775123
0.775126
0.775126
0.775129
0.775133
0.775136
0.775139
0.775139
0.775142
0.775145
0.775148
0.775152
0.775152
0.775155
0.775158
0.775161
0.775164
0.775164
0.775168
0.775171
0.775174
0.775177
0.775177
0.77518
0.775184
0.775187
0.77519
0.77519
0.775193
0.775197
0.7752
0.775203
0.775203
0.775206
0.77521
0.775213
0.775216
0.775216
0.77522
0.775223
0.775226
0.775229
0.775229
0.775233
0.775236
0.775239
0.775243
0.775243
0.775246
0.775249
0.775253
0.775256
0.775256
0.775259
0.775263
0.775266
0.775269
0.775269
0.775273
0.775276
0.775279
0.775283
0.775283
0.775286
0.775289
0.775293
0.775296
0.775296
0.775299
0.775303
0.775306
0.77531
0.77531
0.775313
0.775317
0.77532
0.775323
0.775323
0.775327
0.77533
0.775334
0.775337
0.775337
0.775341
0.775344
0.775348
0.775351
0.775351
0.775355
0.775358
0.775362
0.775365
0.775365
0.775369
0.775372
0.775376
0.775379
0.775379
0.775383
0.775386
0.77539
0.775393
0.775393
0.775397
0.7754
0.775404
0.775407
0.775407
0.775411
0.775414
0.775418
0.775421
0.775421
0.775425
0.775429
0.775432
0.775436
0.775436
0.775439
0.775443
0.775446
0.77545
0.77545
0.775454
0.775457
0.775461
0.775464
0.775464
0.775468
0.775472
0.775475
0.775479
0.775479
0.775483
0.775486
0.77549
0.775494
0.775494
0.775497
0.775501
0.775504
0.775508
0.775508
0.775512
0.775515
0.775519
0.775523
0.775523
0.775527
0.77553
0.775534
0.775538
0.775538
0.775541
0.775545
0.775549
0.775552
0.775552
0.775556
0.77556
0.775564
0.775567
0.775567
0.775571
0.775575
0.775579
0.775582
0.775582
0.775586
0.77559
0.775594
0.775597
0.775597
0.775601
0.775605
0.775609
0.775613
0.775613
0.775616
0.77562
0.775624
0.775628
0.775628
0.775632
0.775635
0.775639
0.775643
0.775643
0.775647
0.775651
0.775655
0.775658
0.775658
0.775662
0.775666
0.77567
0.775674
0.775674
0.775678
0.775682
0.775685
0.775689
0.775689
0.775693
0.775697
0.775701
0.775705
0.775705
0.775709
0.775713
0.775717
0.77572
0.77572
0.775724
0.775728
0.775732
0.775736
0.775736
0.77574
0.775744
0.775748
0.775752
0.775752
0.775756
0.77576
0.775764
0.775768
0.775768
0.775772
0.775776
0.77578
0.775784
0.775784
0.775788
0.775792
0.775796
0.7758
0.7758
0.775804
0.775808
0.775812
0.775816
0.775816
0.77582
0.775824
0.775828
0.775832
0.775832
0.775836
0.77584
0.775844
0.775848
0.775848
0.775852
0.775856
0.77586
0.775864
0.775864
0.775869
0.775873
0.775877
0.775881
0.775881
0.775885
0.775889
0.775893
0.775897
0.775897
0.775901
0.775906
0.77591
0.775914
0.775914
0.775918
0.775922
0.775926
0.77593
0.77593
0.775935
0.775939
0.775943
0.775947
0.775947
0.775951
0.775955
0.77596
0.775964
0.775964
0.775968
0.775972
0.775976
0.775981
0.775981
0.775985
0.775989
0.775993
0.775997
0.775997
0.776002
0.776006
0.77601
0.776014
0.776014
0.776019
0.776023
0.776027
0.776031
0.776031
0.776036
0.77604
0.776044
0.776048
0.776048
0.776053
0.776057
0.776061
0.776066
0.776066
0.77607
0.776074
0.776078
0.776083
0.776083
0.776087
0.776091
0.776096
0.7761
0.7761
0.776104
0.776109
0.776113
0.776117
0.776117
0.776122
0.776126
0.77613
0.776135
0.776135
0.776139
0.776144
0.776148
0.776152
0.776152
0.776157
0.776161
0.776165
0.77617
0.77617
0.776174
0.776179
0.776183
0.776187
0.776187
0.776192
0.776196
0.776201
0.776205
0.776205
0.77621
0.776214
0.776218
0.776223
0.776223
0.776227
0.776232
0.776236
0.776241
0.776241
0.776245
0.77625
0.776254
0.776259
0.776259
0.776263
0.776268
0.776272
0.776277
0.776277
0.776281
0.776286
0.77629
0.776295
0.776295
0.7763
0.776304
0.776309
0.776313
0.776313
0.776318
0.776322
0.776327
0.776332
0.776332
0.776336
0.776341
0.776345
0.77635
0.77635
0.776355
0.776359
0.776364
0.776368
0.776368
0.776373
0.776378
0.776382
0.776387
0.776387
0.776392
0.776396
0.776401
0.776405
0.776405
0.77641
0.776415
0.776419
0.776424
0.776424
0.776429
0.776433
0.776438
0.776443
0.776443
0.776447
0.776452
0.776457
0.776462
0.776462
0.776466
0.776471
0.776476
0.77648
0.77648
0.776485
0.77649
0.776495
0.776499
0.776499
0.776504
0.776509
0.776514
0.776518
0.776518
0.776523
0.776528
0.776533
0.776537
0.776537
0.776542
0.776547
0.776552
0.776556
0.776556
0.776561
0.776566
0.776571
0.776576
0.776576
0.77658
0.776585
0.77659
0.776595
0.776595
0.7766
0.776605
0.776609
0.776614
0.776614
0.776619
0.776624
0.776629
0.776634
0.776634
0.776639
0.776643
0.776648
0.776653
0.776653
0.776658
0.776663
0.776668
0.776673
0.776673
0.776678
0.776683
0.776687
0.776692
0.776692
0.776697
0.776702
0.776707
0.776712
0.776712
0.776717
0.776722
0.776727
0.776732
0.776732
0.776737
0.776742
0.776747
0.776752
0.776752
0.776757
0.776762
0.776767
0.776772
0.776772
0.776777
0.776782
0.776787
0.776792
0.776792
0.776797
0.776802
0.776807
0.776812
0.776812
0.776817
0.776822
0.776827
0.776832
0.776832
0.776837
0.776842
0.776847
0.776852
0.776852
0.776857
0.776862
0.776867
0.776872
0.776872
0.776878
0.776883
0.776888
0.776893
0.776893
0.776898
0.776903
0.776908
0.776913
0.776913
0.776918
0.776923
0.776929
0.776934
0.776934
0.776939
0.776944
0.776949
0.776954
0.776954
0.776959
0.776965
0.77697
0.776975
0.776975
0.77698
0.776985
0.77699
0.776996
0.776996
0.777001
0.777006
0.777011
0.777016
0.777016
0.777022
0.777027
0.777032
0.777037
0.777037
0.777043
0.777048
0.777053
0.777058
0.777058
0.777063
0.777069
0.777074
0.777079
0.777079
0.777084
0.77709
0.777095
0.7771
0.7771
0.777105
0.777111
0.777116
0.777121
0.777121
0.777127
0.777132
0.777137
0.777142
0.777142
0.777148
0.777153
0.777158
0.777164
0.777164
0.777169
0.777174
0.77718
0.777185
0.777185
0.77719
0.777196
0.777201
0.777206
0.777206
0.777212
0.777217
0.777223
0.777228
0.777228
0.777233
0.777239
0.777244
0.77725
0.77725
0.777255
0.777261
0.777266
0.777272
0.777272
0.777277
0.777282
0.777288
0.777293
0.777293
0.777299
0.777304
0.77731
0.777315
0.777315
0.777321
0.777326
0.777332
0.777337
0.777337
0.777343
0.777348
0.777354
0.777359
0.777359
0.777365
0.77737
0.777376
0.777381
0.777381
0.777387
0.777392
0.777398
0.777403
0.777403
0.777409
0.777415
0.77742
0.777426
0.777426
0.777431
0.777437
0.777442
0.777448
0.777448
0.777453
0.777459
0.777465
0.77747
0.77747
0.777476
0.777481
0.777487
0.777493
0.777493
0.777498
0.777504
0.77751
0.777515
0.777515
0.777521
0.777526
0.777532
0.777538
0.777538
0.777543
0.777549
0.777555
0.77756
0.77756
0.777566
0.777572
0.777577
0.777583
0.777583
0.777589
0.777594
0.7776
0.777606
0.777606
0.777612
0.777617
0.777623
0.777629
0.777629
0.777634
0.77764
0.777646
0.777652
0.777652
0.777657
0.777663
0.777669
0.777675
0.777675
0.77768
0.777686
0.777692
0.777698
0.777698
0.777703
0.777709
0.777715
0.777721
0.777721
0.777727
0.777732
0.777738
0.777744
0.777744
0.77775
0.777756
0.777762
0.777767
0.777767
0.777773
0.777779
0.777785
0.777791
0.777791
0.777797
0.777802
0.777808
0.777814
0.777814
0.77782
0.777826
0.777832
0.777838
0.777838
0.777844
0.777849
0.777855
0.777861
0.777861
0.777867
0.777873
0.777879
0.777885
0.777885
0.777891
0.777897
0.777903
0.777909
0.777909
0.777915
0.77792
0.777926
0.777932
0.777932
0.777938
0.777944
0.77795
0.777956
0.777956
0.777962
0.777968
0.777974
0.77798
0.77798
0.777986
0.777992
0.777998
0.778004
0.778004
0.77801
0.778016
0.778022
0.778028
0.778028
0.778034
0.77804
0.778046
0.778052
0.778052
0.778058
0.778064
0.77807
0.778076
0.778076
0.778082
0.778089
0.778095
0.778101
0.778101
0.778107
0.778113
0.778119
0.778125
0.778125
0.778131
0.778137
0.778143
0.778149
0.778149
0.778155
0.778162
0.778168
0.778174
0.778174
0.77818
0.778186
0.778192
0.778199
0.778199
0.778205
0.778211
0.778217
0.778223
0.778223
0.778229
0.778236
0.778242
0.778248
0.778248
0.778254
0.778261
0.778267
0.778273
0.778273
0.778279
0.778286
0.778292
0.778298
0.778298
0.778304
0.778311
0.778317
0.778323
0.778323
0.778329
0.778336
0.778342
0.778348
0.778348
0.778354
0.778361
0.778367
0.778373
0.778373
0.77838
0.778386
0.778392
0.778399
0.778399
0.778405
0.778411
0.778418
0.778424
0.778424
0.77843
0.778437
0.778443
0.778449
0.778449
0.778456
0.778462
0.778468
0.778475
0.778475
0.778481
0.778487
0.778494
0.7785
0.7785
0.778507
0.778513
0.778519
0.778526
0.778526
0.778532
0.778539
0.778545
0.778551
0.778551
0.778558
0.778564
0.778571
0.778577
0.778577
0.778583
0.77859
0.778596
0.778603
0.778603
0.778609
0.778616
0.778622
0.778629
0.778629
0.778635
0.778642
0.778648
0.778655
0.778655
0.778661
0.778668
0.778674
0.778681
0.778681
0.778687
0.778694
0.7787
0.778707
0.778707
0.778713
0.77872
0.778726
0.778733
0.778733
0.778739
0.778746
0.778753
0.778759
0.778759
0.778766
0.778772
0.778779
0.778785
0.778785
0.778792
0.778799
0.778805
0.778812
0.778812
0.778818
0.778825
0.778832
0.778838
0.778838
0.778845
0.778851
0.778858
0.778865
0.778865
0.778871
0.778878
0.778885
0.778891
0.778891
0.778898
0.778905
0.778911
0.778918
0.778918
0.778925
0.778931
0.778938
0.778945
0.778945
0.778951
0.778958
0.778965
0.778971
0.778971
0.778978
0.778985
0.778991
0.778998
0.778998
0.779005
0.779012
0.779018
0.779025
0.779025
0.779032
0.779039
0.779045
0.779052
0.779052
0.779059
0.779066
0.779072
0.779079
0.779079
0.779086
0.779093
0.779099
0.779106
0.779106
0.779113
0.77912
0.779126
0.779133
0.779133
0.77914
0.779147
0.779154
0.779161
0.779161
0.779167
0.779174
0.779181
0.779188
0.779188
0.779195
0.779202
0.779209
0.779216
0.779216
0.779223
0.779229
0.779236
0.779243
0.779243
0.77925
0.779257
0.779264
0.779271
0.779271
0.779278
0.779285
0.779292
0.779299
0.779299
0.779306
0.779313
0.77932
0.779327
0.779327
0.779334
0.779341
0.779348
0.779355
0.779355
0.779361
0.779368
0.779375
0.779382
0.779382
0.779389
0.779396
0.779403
0.77941
0.77941
0.779418
0.779425
0.779432
0.779439
0.779439
0.779446
0.779453
0.77946
0.779467
0.779467
0.779474
0.779481
0.779488
0.779495
0.779495
0.779502
0.779509
0.779516
0.779523
0.779523
0.77953
0.779537
0.779545
0.779552
0.779552
0.779559
0.779566
0.779573
0.77958
0.77958
0.779587
0.779594
0.779601
0.779609
0.779609
0.779616
0.779623
0.77963
0.779637
0.779637
0.779644
0.779651
0.779659
0.779666
0.779666
0.779673
0.77968
0.779687
0.779695
0.779695
0.779702
0.779709
0.779716
0.779723
0.779723
0.779731
0.779738
0.779745
0.779752
0.779752
0.779759
0.779767
0.779774
0.779781
0.779781
0.779788
0.779796
0.779803
0.77981
0.77981
0.779817
0.779825
0.779832
0.779839
0.779839
0.779847
0.779854
0.779861
0.779868
0.779868
0.779876
0.779883
0.77989
0.779898
0.779898
0.779905
0.779912
0.77992
0.779927
0.779927
0.779934
0.779942
0.779949
0.779956
0.779956
0.779964
0.779971
0.779978
0.779986
0.779986
0.779993
0.78
0.780008
0.780015
0.780015
0.780022
0.78003
0.780037
0.780045
0.780045
0.780052
0.780059
0.780067
0.780074
0.780074
0.780082
0.780089
0.780096
0.780104
0.780104
0.780111
0.780119
0.780126
0.780134
0.780134
0.780141
0.780149
0.780156
0.780164
0.780164
0.780171
0.780179
0.780186
0.780194
0.780194
0.780201
0.780209
0.780216
0.780224
0.780224
0.780231
0.780239
0.780246
0.780254
0.780254
0.780262
0.780269
0.780277
0.780284
0.780284
0.780292
0.780299
0.780307
0.780315
0.780315
0.780322
0.78033
0.780337
0.780345
0.780345
0.780353
0.78036
0.780368
0.780376
0.780376
0.780383
0.780391
0.780398
0.780406
0.780406
0.780414
0.780421
0.780429
0.780437
0.780437
0.780444
0.780452
0.78046
0.780467
0.780467
0.780475
0.780483
0.78049
0.780498
0.780498
0.780506
0.780514
0.780521
0.780529
0.780529
0.780537
0.780544
0.780552
0.78056
0.78056
0.780568
0.780575
0.780583
0.780591
0.780591
0.780599
0.780606
0.780614
0.780622
0.780622
0.78063
0.780637
0.780645
0.780653
0.780653
0.780661
0.780668
0.780676
0.780684
0.780684
0.780692
0.7807
0.780707
0.780715
0.780715
0.780723
0.780731
0.780739
0.780747
0.780747
0.780754
0.780762
0.78077
0.780778
0.780778
0.780786
0.780794
0.780802
0.780809
0.780809
0.780817
0.780825
0.780833
0.780841
0.780841
0.780849
0.780857
0.780865
0.780873
0.780873
0.78088
0.780888
0.780896
0.780904
0.780904
0.780912
0.78092
0.780928
0.780936
0.780936
0.780944
0.780952
0.78096
0.780968
0.780968
0.780976
0.780984
0.780991
0.780999
0.780999
0.781007
0.781015
0.781023
0.781031
0.781031
0.781039
0.781047
0.781055
0.781063
0.781063
0.781071
0.781079
0.781087
0.781095
0.781095
0.781103
0.781111
0.781119
0.781127
0.781127
0.781135
0.781144
0.781152
0.78116
0.78116
0.781168
0.781176
0.781184
0.781192
0.781192
0.7812
0.781208
0.781217
0.781225
0.781225
0.781233
0.781241
0.781249
0.781257
0.781257
0.781265
0.781274
0.781282
0.78129
0.78129
0.781298
0.781306
0.781315
0.781323
0.781323
0.781331
0.781339
0.781347
0.781356
0.781356
0.781364
0.781372
0.78138
0.781388
0.781388
0.781397
0.781405
0.781413
0.781421
0.781421
0.78143
0.781438
0.781446
0.781454
0.781454
0.781463
0.781471
0.781479
0.781487
0.781487
0.781496
0.781504
0.781512
0.78152
0.78152
0.781529
0.781537
0.781545
0.781554
0.781554
0.781562
0.78157
0.781579
0.781587
0.781587
0.781595
0.781604
0.781612
0.78162
0.78162
0.781629
0.781637
0.781645
0.781654
0.781654
0.781662
0.78167
0.781679
0.781687
0.781687
0.781695
0.781704
0.781712
0.781721
0.781721
0.781729
0.781737
0.781746
0.781754
0.781754
0.781763
0.781771
0.781779
0.781788
0.781788
0.781796
0.781805
0.781813
0.781822
0.781822
0.78183
0.781839
0.781847
0.781855
0.781855
0.781864
0.781872
0.781881
0.781889
0.781889
0.781898
0.781906
0.781915
0.781923
0.781923
0.781932
0.78194
0.781949
0.781957
0.781957
0.781966
0.781974
0.781983
0.781991
0.781991
0.782
0.782008
0.782017
0.782025
0.782025
0.782034
0.782042
0.782051
0.78206
0.78206
0.782068
0.782077
0.782085
0.782094
0.782094
0.782102
0.782111
0.78212
0.782128
0.782128
0.782137
0.782145
0.782154
0.782163
0.782163
0.782171
0.78218
0.782189
0.782197
0.782197
0.782206
0.782215
0.782223
0.782232
0.782232
0.782241
0.782249
0.782258
0.782267
0.782267
0.782276
0.782284
0.782293
0.782302
0.782302
0.782311
0.782319
0.782328
0.782337
0.782337
0.782346
0.782354
0.782363
0.782372
0.782372
0.782381
0.782389
0.782398
0.782407
0.782407
0.782416
0.782425
0.782433
0.782442
0.782442
0.782451
0.78246
0.782468
0.782477
0.782477
0.782486
0.782495
0.782504
0.782513
0.782513
0.782521
0.78253
0.782539
0.782548
0.782548
0.782557
0.782566
0.782574
0.782583
0.782583
0.782592
0.782601
0.78261
0.782619
0.782619
0.782628
0.782637
0.782645
0.782654
0.782654
0.782663
0.782672
0.782681
0.78269
0.78269
0.782699
0.782708
0.782717
0.782726
0.782726
0.782735
0.782744
0.782753
0.782761
0.782761
0.78277
0.782779
0.782788
0.782797
0.782797
0.782806
0.782815
0.782824
0.782833
0.782833
0.782842
0.782851
0.78286
0.782869
0.782869
0.782878
0.782887
0.782896
0.782905
0.782905
0.782914
0.782923
0.782932
0.782941
0.782941
0.78295
0.782959
0.782968
0.782977
0.782977
0.782986
0.782995
0.783005
0.783014
0.783014
0.783023
0.783032
0.783041
0.78305
0.78305
0.783059
0.783068
0.783077
0.783086
0.783086
0.783095
0.783104
0.783113
0.783123
0.783123
0.783132
0.783141
0.78315
0.783159
0.783159
0.783168
0.783177
0.783187
0.783196
0.783196
0.783205
0.783214
0.783224
0.783233
0.783233
0.783242
0.783251
0.78326
0.78327
0.78327
0.783279
0.783288
0.783297
0.783307
0.783307
0.783316
0.783325
0.783335
0.783344
0.783344
0.783353
0.783362
0.783372
0.783381
0.783381
0.78339
0.783399
0.783409
0.783418
0.783418
0.783427
0.783437
0.783446
0.783455
0.783455
0.783465
0.783474
0.783483
0.783493
0.783493
0.783502
0.783511
0.783521
0.78353
0.78353
0.783539
0.783549
0.783558
0.783567
0.783567
0.783577
0.783586
0.783596
0.783605
0.783605
0.783614
0.783624
0.783633
0.783643
0.783643
0.783652
0.783661
0.783671
0.78368
0.78368
0.78369
0.783699
0.783708
0.783718
0.783718
0.783727
0.783737
0.783746
0.783756
0.783756
0.783765
0.783775
0.783784
0.783794
0.783794
0.783803
0.783812
0.783822
0.783831
0.783831
0.783841
0.78385
0.78386
0.783869
0.783869
0.783879
0.783888
0.783898
0.783907
0.783907
0.783917
0.783926
0.783936
0.783946
0.783946
0.783955
0.783965
0.783974
0.783984
0.783984
0.783993
0.784003
0.784012
0.784022
0.784022
0.784031
0.784041
0.784051
0.78406
0.78406
0.78407
0.784079
0.784089
0.784098
0.784098
0.784108
0.784118
0.784127
0.784137
0.784137
0.784147
0.784156
0.784166
0.784176
0.784176
0.784185
0.784195
0.784205
0.784214
0.784214
0.784224
0.784234
0.784243
0.784253
0.784253
0.784263
0.784273
0.784282
0.784292
0.784292
0.784302
0.784312
0.784321
0.784331
0.784331
0.784341
0.784351
0.784361
0.78437
0.78437
0.78438
0.78439
0.7844
0.784409
0.784409
0.784419
0.784429
0.784439
0.784449
0.784449
0.784458
0.784468
0.784478
0.784488
0.784488
0.784498
0.784508
0.784517
0.784527
0.784527
0.784537
0.784547
0.784557
0.784567
0.784567
0.784577
0.784586
0.784596
0.784606
0.784606
0.784616
0.784626
0.784636
0.784646
0.784646
0.784656
0.784665
0.784675
0.784685
0.784685
0.784695
0.784705
0.784715
0.784725
0.784725
0.784735
0.784745
0.784755
0.784765
0.784765
0.784775
0.784785
0.784794
0.784804
0.784804
0.784814
0.784824
0.784834
0.784844
0.784844
0.784854
0.784864
0.784874
0.784884
0.784884
0.784894
0.784904
0.784914
0.784924
0.784924
0.784934
0.784944
0.784954
0.784964
0.784964
0.784974
0.784984
0.784994
0.785004
0.785004
0.785014
0.785024
0.785034
0.785044
0.785044
0.785054
0.785065
0.785075
0.785085
0.785085
0.785095
0.785105
0.785115
0.785125
0.785125
0.785135
0.785145
0.785155
0.785165
0.785165
0.785175
0.785186
0.785196
0.785206
0.785206
0.785216
0.785226
0.785237
0.785247
0.785247
0.785257
0.785267
0.785277
0.785288
0.785288
0.785298
0.785308
0.785318
0.785328
0.785328
0.785339
0.785349
0.785359
0.785369
0.785369
0.78538
0.78539
0.7854
0.785411
0.785411
0.785421
0.785431
0.785441
0.785452
0.785452
0.785462
0.785472
0.785482
0.785493
0.785493
0.785503
0.785513
0.785524
0.785534
0.785534
0.785544
0.785555
0.785565
0.785575
0.785575
0.785586
0.785596
0.785606
0.785617
0.785617
0.785627
0.785637
0.785648
0.785658
0.785658
0.785668
0.785679
0.785689
0.7857
0.7857
0.78571
0.78572
0.785731
0.785741
0.785741
0.785751
0.785762
0.785772
0.785783
0.785783
0.785793
0.785803
0.785814
0.785824
0.785824
0.785835
0.785845
0.785856
0.785866
0.785866
0.785876
0.785887
0.785897
0.785908
0.785908
0.785918
0.785929
0.785939
0.78595
0.78595
0.78596
0.785971
0.785981
0.785992
0.785992
0.786002
0.786013
0.786023
0.786034
0.786034
0.786044
0.786055
0.786065
0.786076
0.786076
0.786086
0.786097
0.786107
0.786118
0.786118
0.786128
0.786139
0.786149
0.78616
0.78616
0.78617
0.786181
0.786192
0.786202
0.786202
0.786213
0.786223
0.786234
0.786245
0.786245
0.786255
0.786266
0.786277
0.786287
0.786287
0.786298
0.786309
0.786319
0.78633
0.78633
0.786341
0.786352
0.786362
0.786373
0.786373
0.786384
0.786394
0.786405
0.786416
0.786416
0.786427
0.786437
0.786448
0.786459
0.786459
0.786469
0.78648
0.786491
0.786502
0.786502
0.786512
0.786523
0.786534
0.786545
0.786545
0.786555
0.786566
0.786577
0.786588
0.786588
0.786599
0.786609
0.78662
0.786631
0.786631
0.786642
0.786653
0.786663
0.786674
0.786674
0.786685
0.786696
0.786707
0.786717
0.786717
0.786728
0.786739
0.78675
0.786761
0.786761
0.786772
0.786783
0.786793
0.786804
0.786804
0.786815
0.786826
0.786837
0.786848
0.786848
0.786859
0.786869
0.78688
0.786891
0.786891
0.786902
0.786913
0.786924
0.786935
0.786935
0.786946
0.786957
0.786968
0.786978
0.786978
0.786989
0.787
0.787011
0.787022
0.787022
0.787033
0.787044
0.787055
0.787066
0.787066
0.787077
0.787088
0.787099
0.78711
0.78711
0.787121
0.787132
0.787143
0.787154
0.787154
0.787165
0.787176
0.787187
0.787198
0.787198
0.787209
0.78722
0.787231
0.787242
0.787242
0.787253
0.787264
0.787275
0.787286
0.787286
0.787297
0.787309
0.78732
0.787331
0.787331
0.787342
0.787353
0.787364
0.787375
0.787375
0.787386
0.787398
0.787409
0.78742
0.78742
0.787431
0.787442
0.787453
0.787465
0.787465
0.787476
0.787487
0.787498
0.787509
0.787509
0.787521
0.787532
0.787543
0.787554
0.787554
0.787565
0.787577
0.787588
0.787599
0.787599
0.78761
0.787621
0.787633
0.787644
0.787644
0.787655
0.787666
0.787678
0.787689
0.787689
0.7877
0.787711
0.787723
0.787734
0.787734
0.787745
0.787756
0.787768
0.787779
0.787779
0.78779
0.787802
0.787813
0.787824
0.787824
0.787835
0.787847
0.787858
0.787869
0.787869
0.787881
0.787892
0.787903
0.787915
0.787915
0.787926
0.787937
0.787949
0.78796
0.78796
0.787971
0.787983
0.787994
0.788005
0.788005
0.788017
0.788028
0.788039
0.788051
0.788051
0.788062
0.788073
0.788085
0.788096
0.788096
0.788108
0.788119
0.78813
0.788142
0.788142
0.788153
0.788165
0.788176
0.788187
0.788187
0.788199
0.78821
0.788222
0.788233
0.788233
0.788245
0.788256
0.788268
0.788279
0.788279
0.788291
0.788302
0.788314
0.788325
0.788325
0.788337
0.788348
0.78836
0.788372
0.788372
0.788383
0.788395
0.788406
0.788418
0.788418
0.788429
0.788441
0.788453
0.788464
0.788464
0.788476
0.788487
0.788499
0.788511
0.788511
0.788522
0.788534
0.788545
0.788557
0.788557
0.788569
0.78858
0.788592
0.788604
0.788604
0.788615
0.788627
0.788639
0.78865
0.78865
0.788662
0.788674
0.788685
0.788697
0.788697
0.788708
0.78872
0.788732
0.788744
0.788744
0.788755
0.788767
0.788779
0.78879
0.78879
0.788802
0.788814
0.788825
0.788837
0.788837
0.788849
0.788861
0.788872
0.788884
0.788884
0.788896
0.788907
0.788919
0.788931
0.788931
0.788943
0.788954
0.788966
0.788978
0.788978
0.78899
0.789001
0.789013
0.789025
0.789025
0.789037
0.789048
0.78906
0.789072
0.789072
0.789084
0.789096
0.789107
0.789119
0.789119
0.789131
0.789143
0.789155
0.789166
0.789166
0.789178
0.78919
0.789202
0.789214
0.789214
0.789226
0.789237
0.789249
0.789261
0.789261
0.789273
0.789285
0.789297
0.789309
0.789309
0.789321
0.789333
0.789345
0.789357
0.789357
0.789369
0.789381
0.789393
0.789405
0.789405
0.789417
0.789429
0.789441
0.789453
0.789453
0.789465
0.789477
0.789489
0.789501
0.789501
0.789513
0.789525
0.789537
0.789549
0.789549
0.789561
0.789573
0.789585
0.789597
0.789597
0.789609
0.789621
0.789633
0.789645
0.789645
0.789657
0.789669
0.789681
0.789693
0.789693
0.789705
0.789717
0.78973
0.789742
0.789742
0.789754
0.789766
0.789778
0.78979
0.78979
0.789802
0.789814
0.789826
0.789838
0.789838
0.78985
0.789863
0.789875
0.789887
0.789887
0.789899
0.789911
0.789923
0.789935
0.789935
0.789947
0.78996
0.789972
0.789984
0.789984
0.789996
0.790008
0.79002
0.790033
0.790033
0.790045
0.790057
0.790069
0.790081
0.790081
0.790093
0.790106
0.790118
0.79013
0.79013
0.790142
0.790154
0.790167
0.790179
0.790179
0.790191
0.790203
0.790216
0.790228
0.790228
0.79024
0.790252
0.790265
0.790277
0.790277
0.790289
0.790302