<?xml version="1.0"?>
<VTKFile type="UnstructuredGrid" version="0.1" byte_order="LittleEndian">
<UnstructuredGrid>
<Piece NumberOfPoints="5000" NumberOfCells="4000">
<PointData Scalars="Reaction 0">
<DataArray type="Float32" Name="Reaction 0" format="ascii">
0.690366
0.690366
0.690366
0.690366
0.690366
0.690366
0.690366
0.690366
0.690366
0.690366
0.690366
0.690366
0.690366
0.690366
0.690366
0.690366
0.690366
0.690366
0.690366
0.690366
0.690366
0.690366
0.690366
0.690366
0.690366
0.690366
0.690366
0.690367
0.690367
0.690367
0.690367
0.690367
0.690367
0.690367
0.690367
0.690367
0.690367
0.690367
0.690367
0.690367
0.690367
0.690368
0.690368
0.690368
0.690368
0.690368
0.690368
0.690368
0.690368
0.690368
0.690368
0.690369
0.690369
0.690369
0.690369
0.690369
0.690369
0.690369
0.69037
0.69037
0.69037
0.69037
0.69037
0.69037
0.69037
0.69037
0.690371
0.690371
0.690371
0.690371
0.690371
0.690371
0.690372
0.690372
0.690372
0.690372
0.690372
0.690372
0.690373
0.690373
0.690373
0.690373
0.690373
0.690374
0.690374
0.690374
0.690374
0.690374
0.690375
0.690375
0.690375
0.690375
0.690375
0.690376
0.690376
0.690376
0.690376
0.690376
0.690377
0.690377
0.690377
0.690377
0.690378
0.690378
0.690378
0.690378
0.690378
0.690379
0.690379
0.690379
0.690379
0.69038
0.69038
0.69038
0.690381
0.690381
0.690381
0.690381
0.690382
0.690382
0.690382
0.690382
0.690383
0.690383
0.690383
0.690383
0.690384
0.690384
0.690384
0.690385
0.690385
0.690385
0.690386
0.690386
0.690386
0.690386
0.690387
0.690387
0.690387
0.690388
0.690388
0.690388
0.690389
0.690389
0.690389
0.690389
0.69039
0.69039
0.690391
0.690391
0.690391
0.690392
0.690392
0.690392
0.690393
0.690393
0.690393
0.690394
0.690394
0.690395
0.690395
0.690395
0.690396
0.690396
0.690396
0.690396
0.690397
0.690397
0.690398
0.690398
0.690398
0.690399
0.690399
0.6904
0.6904
0.6904
0.690401
0.690401
0.690402
0.690402
0.690402
0.690403
0.690403
0.690404
0.690404
0.690404
0.690405
0.690405
0.690406
0.690407
0.690407
0.690407
0.690408
0.690408
0.690409
0.690409
0.690409
0.69041
0.69041
0.690411
0.690411
0.690412
0.690412
0.690413
0.690413
0.690413
0.690414
0.690414
0.690415
0.690416
0.690416
0.690416
0.690417
0.690417
0.690418
0.690418
0.690419
0.690419
0.69042
0.69042
0.69042
0.690421
0.690422
0.690422
0.690423
0.690423
0.690424
0.690424
0.690425
0.690426
0.690426
0.690426
0.690427
0.690428
0.690428
0.690428
0.690429
0.69043
0.69043
0.690431
0.690431
0.690432
0.690432
0.690433
0.690434
0.690434
0.690434
0.690435
0.690436
0.690436
0.690436
0.690437
0.690438
0.690439
0.690439
0.690439
0.69044
0.690441
0.690441
0.690442
0.690442
0.690443
0.690444
0.690444
0.690445
0.690445
0.690446
0.690447
0.690447
0.690448
0.690448
0.690449
0.69045
0.690451
0.690451
0.690451
0.690452
0.690453
0.690454
0.690454
0.690454
0.690455
0.690456
0.690457
0.690458
0.690458
0.690458
0.690459
0.69046
0.690461
0.690461
0.690462
0.690463
0.690463
0.690464
0.690464
0.690465
0.690466
0.690467
0.690468
0.690468
0.690468
0.690469
0.69047
0.690471
0.690471
0.690472
0.690473
0.690474
0.690474
0.690474
0.690475
0.690476
0.690477
0.690478
0.690478
0.690479
0.69048
0.690481
0.690482
0.690482
0.690483
0.690483
0.690484
0.690485
0.690485
0.690486
0.690487
0.690488
0.690489
0.690489
0.69049
0.690491
0.690492
0.690493
0.690493
0.690494
0.690495
0.690496
0.690497
0.690497
0.690498
0.690498
0.690499
0.6905
0.6905
0.690501
0.690502
0.690503
0.690504
0.690504
0.690505
0.690506
0.690507
0.690508
0.690508
0.690509
0.69051
0.690511
0.690512
0.690512
0.690513
0.690514
0.690515
0.690517
0.690517
0.690518
0.690519
0.69052
0.690521
0.690521
0.690522
0.690523
0.690524
0.690525
0.690525
0.690526
0.690527
0.690528
0.690529
0.690529
0.69053
0.690531
0.690532
0.690533
0.690533
0.690535
0.690536
0.690537
0.690538
0.690538
0.690539
0.69054
0.690541
0.690542
0.690542
0.690543
0.690545
0.690546
0.690547
0.690547
0.690548
0.690549
0.69055
0.690551
0.690551
0.690553
0.690554
0.690555
0.690556
0.690556
0.690557
0.690558
0.69056
0.690561
0.690561
0.690562
0.690563
0.690564
0.690565
0.690565
0.690567
0.690568
0.690569
0.69057
0.69057
0.690571
0.690573
0.690574
0.690575
0.690575
0.690576
0.690577
0.690579
0.69058
0.69058
0.690581
0.690582
0.690584
0.690585
0.690585
0.690586
0.690587
0.690589
0.69059
0.69059
0.690591
0.690592
0.690594
0.690595
0.690595
0.690596
0.690598
0.690599
0.6906
0.6906
0.690601
0.690603
0.690604
0.690605
0.690605
0.690607
0.690608
0.690609
0.69061
0.69061
0.690612
0.690613
0.690614
0.690616
0.690616
0.690617
0.690618
0.69062
0.690621
0.690621
0.690622
0.690624
0.690625
0.690627
0.690627
0.690628
0.690629
0.690631
0.690632
0.690632
0.690633
0.690635
0.690636
0.690637
0.690637
0.690639
0.69064
0.690642
0.690643
0.690643
0.690644
0.690646
0.690647
0.690649
0.690649
0.69065
0.690651
0.690653
0.690654
0.690654
0.690656
0.690657
0.690659
0.69066
0.69066
0.690661
0.690663
0.690664
0.690666
0.690666
0.690667
0.690669
0.69067
0.690672
0.690672
0.690673
0.690675
0.690676
0.690678
0.690678
0.690679
0.690681
0.690682
0.690684
0.690684
0.690685
0.690687
0.690688
0.69069
0.69069
0.690691
0.690693
0.690694
0.690696
0.690696
0.690697
0.690699
0.6907
0.690702
0.690702
0.690703
0.690705
0.690707
0.690708
0.690708
0.69071
0.690711
0.690713
0.690714
0.690714
0.690716
0.690718
0.690719
0.690721
0.690721
0.690722
0.690724
0.690725
0.690727
0.690727
0.690729
0.69073
0.690732
0.690733
0.690733
0.690735
0.690737
0.690738
0.69074
0.69074
0.690742
0.690743
0.690745
0.690747
0.690747
0.690748
0.69075
0.690751
0.690753
0.690753
0.690755
0.690756
0.690758
0.69076
0.69076
0.690761
0.690763
0.690765
0.690766
0.690766
0.690768
0.69077
0.690772
0.690773
0.690773
0.690775
0.690777
0.690778
0.69078
0.69078
0.690782
0.690783
0.690785
0.690787
0.690787
0.690789
0.69079
0.690792
0.690794
0.690794
0.690796
0.690797
0.690799
0.690801
0.690801
0.690803
0.690804
0.690806
0.690808
0.690808
0.69081
0.690811
0.690813
0.690815
0.690815
0.690817
0.690819
0.69082
0.690822
0.690822
0.690824
0.690826
0.690828
0.690829
0.690829
0.690831
0.690833
0.690835
0.690837
0.690837
0.690838
0.69084
0.690842
0.690844
0.690844
0.690846
0.690848
0.690849
0.690851
0.690851
0.690853
0.690855
0.690857
0.690859
0.690859
0.690861
0.690862
0.690864
0.690866
0.690866
0.690868
0.69087
0.690872
0.690874
0.690874
0.690876
0.690878
0.69088
0.690881
0.690881
0.690883
0.690885
0.690887
0.690889
0.690889
0.690891
0.690893
0.690895
0.690897
0.690897
0.690899
0.690901
0.690903
0.690905
0.690905
0.690907
0.690908
0.69091
0.690912
0.690912
0.690914
0.690916
0.690918
0.69092
0.69092
0.690922
0.690924
0.690926
0.690928
0.690928
0.69093
0.690932
0.690934
0.690936
0.690936
0.690938
0.69094
0.690942
0.690944
0.690944
0.690946
0.690948
0.69095
0.690952
0.690952
0.690954
0.690957
0.690959
0.690961
0.690961
0.690963
0.690965
0.690967
0.690969
0.690969
0.690971
0.690973
0.690975
0.690977
0.690977
0.690979
0.690981
0.690983
0.690986
0.690986
0.690988
0.69099
0.690992
0.690994
0.690994
0.690996
0.690998
0.691
0.691002
0.691002
0.691004
0.691007
0.691009
0.691011
0.691011
0.691013
0.691015
0.691017
0.691019
0.691019
0.691022
0.691024
0.691026
0.691028
0.691028
0.69103
0.691032
0.691035
0.691037
0.691037
0.691039
0.691041
0.691043
0.691046
0.691046
0.691048
0.69105
0.691052
0.691054
0.691054
0.691057
0.691059
0.691061
0.691063
0.691063
0.691065
0.691068
0.69107
0.691072
0.691072
0.691074
0.691077
0.691079
0.691081
0.691081
0.691083
0.691086
0.691088
0.69109
0.69109
0.691092
0.691095
0.691097
0.691099
0.691099
0.691101
0.691104
0.691106
0.691108
0.691108
0.691111
0.691113
0.691115
0.691118
0.691118
0.69112
0.691122
0.691124
0.691127
0.691127
0.691129
0.691131
0.691134
0.691136
0.691136
0.691138
0.691141
0.691143
0.691145
0.691145
0.691148
0.69115
0.691153
0.691155
0.691155
0.691157
0.69116
0.691162
0.691164
0.691164
0.691167
0.691169
0.691171
0.691174
0.691174
0.691176
0.691179
0.691181
0.691183
0.691183
0.691186
0.691188
0.691191
0.691193
0.691193
0.691196
0.691198
0.6912
0.691203
0.691203
0.691205
0.691208
0.69121
0.691213
0.691213
0.691215
0.691218
0.69122
0.691222
0.691222
0.691225
0.691227
0.69123
0.691232
0.691232
0.691235
0.691237
0.69124
0.691242
0.691242
0.691245
0.691247
0.69125
0.691252
0.691252
0.691255
0.691257
0.69126
0.691262
0.691262
0.691265
0.691267
0.69127
0.691272
0.691272
0.691275
0.691277
0.69128
0.691283
0.691283
0.691285
0.691288
0.69129
0.691293
0.691293
0.691295
0.691298
0.6913
0.691303
0.691303
0.691306
0.691308
0.691311
0.691313
0.691313
0.691316
0.691318
0.691321
0.691324
0.691324
0.691326
0.691329
0.691331
0.691334
0.691334
0.691337
0.691339
0.691342
0.691345
0.691345
0.691347
0.69135
0.691352
0.691355
0.691355
0.691358
0.69136
0.691363
0.691366
0.691366
0.691368
0.691371
0.691374
0.691376
0.691376
0.691379
0.691382
0.691384
0.691387
0.691387
0.69139
0.691392
0.691395
0.691398
0.691398
0.691401
0.691403
0.691406
0.691409
0.691409
0.691411
0.691414
0.691417
0.69142
0.69142
0.691422
0.691425
0.691428
0.691431
0.691431
0.691433
0.691436
0.691439
0.691442
0.691442
0.691444
0.691447
0.69145
0.691453
0.691453
0.691455
0.691458
0.691461
0.691464
0.691464
0.691467
0.691469
0.691472
0.691475
0.691475
0.691478
0.691481
0.691483
0.691486
0.691486
0.691489
0.691492
0.691495
0.691498
0.691498
0.6915
0.691503
0.691506
0.691509
0.691509
0.691512
0.691515
0.691517
0.69152
0.69152
0.691523
0.691526
0.691529
0.691532
0.691532
0.691535
0.691537
0.69154
0.691543
0.691543
0.691546
0.691549
0.691552
0.691555
0.691555
0.691558
0.691561
0.691564
0.691566
0.691566
0.691569
0.691572
0.691575
0.691578
0.691578
0.691581
0.691584
0.691587
0.69159
0.69159
0.691593
0.691596
0.691599
0.691602
0.691602
0.691605
0.691608
0.691611
0.691614
0.691614
0.691616
0.691619
0.691622
0.691625
0.691625
0.691628
0.691631
0.691634
0.691637
0.691637
0.69164
0.691643
0.691646
0.691649
0.691649
0.691652
0.691655
0.691658
0.691661
0.691661
0.691665
0.691668
0.691671
0.691674
0.691674
0.691677
0.69168
0.691683
0.691686
0.691686
0.691689
0.691692
0.691695
0.691698
0.691698
0.691701
0.691704
0.691707
0.69171
0.69171
0.691713
0.691717
0.69172
0.691723
0.691723
0.691726
0.691729
0.691732
0.691735
0.691735
0.691738
0.691741
0.691745
0.691748
0.691748
0.691751
0.691754
0.691757
0.69176
0.69176
0.691763
0.691766
0.69177
0.691773
0.691773
0.691776
0.691779
0.691782
0.691785
0.691785
0.691789
0.691792
0.691795
0.691798
0.691798
0.691801
0.691804
0.691808
0.691811
0.691811
0.691814
0.691817
0.69182
0.691824
0.691824
0.691827
0.69183
0.691833
0.691837
0.691837
0.69184
0.691843
0.691846
0.691849
0.691849
0.691853
0.691856
0.691859
0.691862
0.691862
0.691866
0.691869
0.691872
0.691876
0.691876
0.691879
0.691882
0.691885
0.691889
0.691889
0.691892
0.691895
0.691898
0.691902
0.691902
0.691905
0.691908
0.691912
0.691915
0.691915
0.691918
0.691922
0.691925
0.691928
0.691928
0.691932
0.691935
0.691938
0.691942
0.691942
0.691945
0.691948
0.691952
0.691955
0.691955
0.691958
0.691962
0.691965
0.691968
0.691968
0.691972
0.691975
0.691979
0.691982
0.691982
0.691985
0.691989
0.691992
0.691995
0.691995
0.691999
0.692002
0.692006
0.692009
0.692009
0.692012
0.692016
0.692019
0.692023
0.692023
0.692026
0.69203
0.692033
0.692036
0.692036
0.69204
0.692043
0.692047
0.69205
0.69205
0.692054
0.692057
0.69206
0.692064
0.692064
0.692067
0.692071
0.692074
0.692078
0.692078
0.692081
0.692085
0.692088
0.692092
0.692092
0.692095
0.692099
0.692102
0.692106
0.692106
0.692109
0.692113
0.692116
0.69212
0.69212
0.692123
0.692127
0.69213
0.692134
0.692134
0.692137
0.692141
0.692144
0.692148
0.692148
0.692152
0.692155
0.692159
0.692162
0.692162
0.692166
0.69217
0.692173
0.692177
0.692177
0.69218
0.692184
0.692187
0.692191
0.692191
0.692195
0.692198
0.692202
0.692205
0.692205
0.692209
0.692213
0.692216
0.69222
0.69222
0.692224
0.692227
0.692231
0.692234
0.692234
0.692238
0.692242
0.692245
0.692249
0.692249
0.692253
0.692256
0.69226
0.692264
0.692264
0.692267
0.692271
0.692275
0.692278
0.692278
0.692282
0.692286
0.692289
0.692293
0.692293
0.692297
0.6923
0.692304
0.692308
0.692308
0.692312
0.692315
0.692319
0.692323
0.692323
0.692326
0.69233
0.692334
0.692338
0.692338
0.692341
0.692345
0.692349
0.692353
0.692353
0.692356
0.69236
0.692364
0.692368
0.692368
0.692371
0.692375
0.692379
0.692383
0.692383
0.692386
0.69239
0.692394
0.692398
0.692398
0.692402
0.692405
0.692409
0.692413
0.692413
0.692417
0.692421
0.692424
0.692428
0.692428
0.692432
0.692436
0.69244
0.692444
0.692444
0.692447
0.692451
0.692455
0.692459
0.692459
0.692463
0.692467
0.69247
0.692474
0.692474
0.692478
0.692482
0.692486
0.69249
0.69249
0.692494
0.692498
0.692501
0.692505
0.692505
0.692509
0.692513
0.692517
0.692521
0.692521
0.692525
0.692529
0.692533
0.692537
0.692537
0.692541
0.692544
0.692548
0.692552
0.692552
0.692556
0.69256
0.692564
0.692568
0.692568
0.692572
0.692576
0.69258
0.692584
0.692584
0.692588
0.692592
0.692596
0.6926
0.6926
0.692604
0.692608
0.692612
0.692616
0.692616
0.69262
0.692624
0.692628
0.692632
0.692632
0.692636
0.69264
0.692644
0.692648
0.692648
0.692652
0.692656
0.69266
0.692664
0.692664
0.692668
0.692672
0.692676
0.69268
0.69268
0.692684
0.692688
0.692692
0.692696
0.692696
0.6927
0.692704
0.692708
0.692712
0.692712
0.692716
0.692721
0.692725
0.692729
0.692729
0.692733
0.692737
0.692741
0.692745
0.692745
0.692749
0.692753
0.692757
0.692762
0.692762
0.692766
0.69277
0.692774
0.692778
0.692778
0.692782
0.692786
0.69279
0.692794
0.692794
0.692799
0.692803
0.692807
0.692811
0.692811
0.692815
0.692819
0.692823
0.692828
0.692828
0.692832
0.692836
0.69284
0.692844
0.692844
0.692848
0.692853
0.692857
0.692861
0.692861
0.692865
0.692869
0.692874
0.692878
0.692878
0.692882
0.692886
0.692891
0.692895
0.692895
0.692899
0.692903
0.692908
0.692912
0.692912
0.692916
0.69292
0.692925
0.692929
0.692929
0.692933
0.692937
0.692942
0.692946
0.692946
0.69295
0.692955
0.692959
0.692963
0.692963
0.692967
0.692972
0.692976
0.69298
0.69298
0.692985
0.692989
0.692993
0.692998
0.692998
0.693002
0.693006
0.693011
0.693015
0.693015
0.693019
0.693024
0.693028
0.693032
0.693032
0.693037
0.693041
0.693045
0.69305
0.69305
0.693054
0.693058
0.693063
0.693067
0.693067
0.693071
0.693076
0.69308
0.693085
0.693085
0.693089
0.693093
0.693098
0.693102
0.693102
0.693107
0.693111
0.693115
0.69312
0.69312
0.693124
0.693129
0.693133
0.693137
0.693137
0.693142
0.693146
0.693151
0.693155
0.693155
0.69316
0.693164
0.693169
0.693173
0.693173
0.693177
0.693182
0.693186
0.693191
0.693191
0.693195
0.6932
0.693204
0.693209
0.693209
0.693213
0.693218
0.693222
0.693227
0.693227
0.693231
0.693236
0.69324
0.693245
0.693245
0.693249
0.693254
0.693258
0.693263
0.693263
0.693267
0.693272
0.693276
0.693281
0.693281
0.693286
0.69329
0.693295
0.693299
0.693299
0.693304
0.693308
0.693313
0.693317
0.693317
0.693322
0.693327
0.693331
0.693336
0.693336
0.69334
0.693345
0.693349
0.693354
0.693354
0.693359
0.693363
0.693368
0.693372
0.693372
0.693377
0.693382
0.693386
0.693391
0.693391
0.693396
0.6934
0.693405
0.693409
0.693409
0.693414
0.693419
0.693423
0.693428
0.693428
0.693433
0.693437
0.693442
0.693447
0.693447
0.693451
0.693456
0.693461
0.693465
0.693465
0.69347
0.693475
0.693479
0.693484
0.693484
0.693489
0.693494
0.693498
0.693503
0.693503
0.693508
0.693512
0.693517
0.693522
0.693522
0.693526
0.693531
0.693536
0.693541
0.693541
0.693545
0.69355
0.693555
0.69356
0.69356
0.693564
0.693569
0.693574
0.693578
0.693578
0.693583
0.693588
0.693593
0.693597
0.693597
0.693602
0.693607
0.693612
0.693617
0.693617
0.693621
0.693626
0.693631
0.693636
0.693636
0.693641
0.693646
0.69365
0.693655
0.693655
0.69366
0.693665
0.69367
0.693675
0.693675
0.69368
0.693684
0.693689
0.693694
0.693694
0.693699
0.693704
0.693709
0.693714
0.693714
0.693718
0.693723
0.693728
0.693733
0.693733
0.693738
0.693743
0.693748
0.693753
0.693753
0.693758
0.693763
0.693767
0.693772
0.693772
0.693777
0.693782
0.693787
0.693792
0.693792
0.693797
0.693802
0.693807
0.693812
0.693812
0.693817
0.693822
0.693827
0.693831
0.693831
0.693836
0.693841
0.693846
0.693851
0.693851
0.693856
0.693861
0.693866
0.693871
0.693871
0.693876
0.693881
0.693886
0.693891
0.693891
0.693896
0.693901
0.693906
0.693911
0.693911
0.693916
0.693921
0.693926
0.693931
0.693931
0.693936
0.693941
0.693946
0.693951
0.693951
0.693956
0.693961
0.693966
0.693972
0.693972
0.693977
0.693982
0.693987
0.693992
0.693992
0.693997
0.694002
0.694007
0.694012
0.694012
0.694017
0.694022
0.694027
0.694032
0.694032
0.694037
0.694043
0.694048
0.694053
0.694053
0.694058
0.694063
0.694068
0.694073
0.694073
0.694078
0.694083
0.694089
0.694094
0.694094
0.694099
0.694104
0.694109
0.694114
0.694114
0.694119
0.694125
0.69413
0.694135
0.694135
0.69414
0.694145
0.69415
0.694156
0.694156
0.694161
0.694166
0.694171
0.694176
0.694176
0.694182
0.694187
0.694192
0.694197
0.694197
0.694202
0.694208
0.694213
0.694218
0.694218
0.694223
0.694228
0.694234
0.694239
0.694239
0.694244
0.694249
0.694255
0.69426
0.69426
0.694265
0.69427
0.694276
0.694281
0.694281
0.694286
0.694291
0.694297
0.694302
0.694302
0.694307
0.694312
0.694318
0.694323
0.694323
0.694328
0.694333
0.694339
0.694344
0.694344
0.694349
0.694354
0.69436
0.694365
0.694365
0.69437
0.694376
0.694381
0.694386
0.694386
0.694392
0.694397
0.694402
0.694408
0.694408
0.694413
0.694419
0.694424
0.694429
0.694429
0.694435
0.69444
0.694446
0.694451
0.694451
0.694456
0.694462
0.694467
0.694473
0.694473
0.694478
0.694483
0.694489
0.694494
0.694494
0.6945
0.694505
0.69451
0.694516
0.694516
0.694521
0.694527
0.694532
0.694538
0.694538
0.694543
0.694548
0.694554
0.694559
0.694559
0.694565
0.69457
0.694576
0.694581
0.694581
0.694587
0.694592
0.694598
0.694603
0.694603
0.694609
0.694614
0.69462
0.694625
0.694625
0.69463
0.694636
0.694641
0.694647
0.694647
0.694652
0.694658
0.694664
0.694669
0.694669
0.694675
0.69468
0.694686
0.694691
0.694691
0.694697
0.694702
0.694708
0.694713
0.694713
0.694719
0.694724
0.69473
0.694736
0.694736
0.694741
0.694747
0.694752
0.694758
0.694758
0.694763
0.694769
0.694775
0.69478
0.69478
0.694786
0.694791
0.694797
0.694802
0.694802
0.694808
0.694814
0.694819
0.694825
0.694825
0.694831
0.694836
0.694842
0.694847
0.694847
0.694853
0.694859
0.694864
0.69487
0.69487
0.694876
0.694881
0.694887
0.694893
0.694893
0.694898
0.694904
0.69491
0.694915
0.694915
0.694921
0.694927
0.694932
0.694938
0.694938
0.694944
0.694949
0.694955
0.694961
0.694961
0.694966
0.694972
0.694978
0.694984
0.694984
0.694989
0.694995
0.695001
0.695006
0.695006
0.695012
0.695018
0.695024
0.695029
0.695029
0.695035
0.695041
0.695047
0.695052
0.695052
0.695058
0.695064
0.69507
0.695075
0.695075
0.695081
0.695087
0.695093
0.695098
0.695098
0.695104
0.69511
0.695116
0.695121
0.695121
0.695127
0.695133
0.695139
0.695144
0.695144
0.69515
0.695156
0.695162
0.695168
0.695168
0.695174
0.69518
0.695185
0.695191
0.695191
0.695197
0.695203
0.695209
0.695215
0.695215
0.695221
0.695227
0.695232
0.695238
0.695238
0.695244
0.69525
0.695256
0.695262
0.695262
0.695268
0.695274
0.69528
0.695286
0.695286
0.695292
0.695297
0.695303
0.695309
0.695309
0.695315
0.695321
0.695327
0.695333
0.695333
0.695339
0.695345
0.695351
0.695357
0.695357
0.695363
0.695369
0.695375
0.695381
0.695381
0.695387
0.695392
0.695398
0.695404
0.695404
0.69541
0.695416
0.695422
0.695428
0.695428
0.695434
0.69544
0.695446
0.695452
0.695452
0.695458
0.695464
0.69547
0.695476
0.695476
0.695482
0.695488
0.695494
0.6955
0.6955
0.695506
0.695513
0.695519
0.695525
0.695525
0.695531
0.695537
0.695543
0.695549
0.695549
0.695555
0.695561
0.695567
0.695573
0.695573
0.695579
0.695585
0.695591
0.695597
0.695597
0.695603
0.69561
0.695616
0.695622
0.695622
0.695628
0.695634
0.69564
0.695646
0.695646
0.695652
0.695658
0.695665
0.695671
0.695671
0.695677
0.695683
0.695689
0.695695
0.695695
0.695701
0.695707
0.695714
0.69572
0.69572
0.695726
0.695732
0.695738
0.695744
0.695744
0.695751
0.695757
0.695763
0.695769
0.695769
0.695775
0.695781
0.695788
0.695794
0.695794
0.6958
0.695806
0.695812
0.695819
0.695819
0.695825
0.695831
0.695837
0.695843
0.695843
0.69585
0.695856
0.695862
0.695868
0.695868
0.695874
0.695881
0.695887
0.695893
0.695893
0.695899
0.695906
0.695912
0.695918
0.695918
0.695924
0.695931
0.695937
0.695943
0.695943
0.695949
0.695956
0.695962
0.695968
0.695968
0.695975
0.695981
0.695987
0.695994
0.695994
0.696
0.696006
0.696013
0.696019
0.696019
0.696026
0.696032
0.696038
0.696045
0.696045
0.696051
0.696057
0.696064
0.69607
0.69607
0.696076
0.696083
0.696089
0.696096
0.696096
0.696102
0.696108
0.696115
0.696121
0.696121
0.696127
0.696134
0.69614
0.696147
0.696147
0.696153
0.696159
0.696166
0.696172
0.696172
0.696179
0.696185
0.696192
0.696198
0.696198
0.696204
0.696211
0.696217
0.696224
0.696224
0.69623
0.696237
0.696243
0.69625
0.69625
0.696256
0.696262
0.696269
0.696275
0.696275
0.696282
0.696288
0.696295
0.696301
0.696301
0.696308
0.696314
0.696321
0.696327
0.696327
0.696334
0.69634
0.696347
0.696353
0.696353
0.69636
0.696366
0.696373
0.696379
0.696379
0.696386
0.696392
0.696399
0.696406
0.696406
0.696412
0.696419
0.696425
0.696432
0.696432
0.696438
0.696445
0.696451
0.696458
0.696458
0.696465
0.696471
0.696478
0.696484
0.696484
0.696491
0.696497
0.696504
0.696511
0.696511
0.696517
0.696524
0.69653
0.696537
0.696537
0.696544
0.69655
0.696557
0.696563
0.696563
0.69657
0.696577
0.696583
0.69659
0.69659
0.696596
0.696603
0.69661
0.696616
0.696616
0.696623
0.69663
0.696636
0.696643
0.696643
0.69665
0.696656
0.696663
0.696669
0.696669
0.696676
0.696683
0.696689
0.696696
0.696696
0.696703
0.69671
0.696716
0.696723
0.696723
0.69673
0.696736
0.696743
0.69675
0.69675
0.696757
0.696763
0.69677
0.696777
0.696777
0.696784
0.696791
0.696797
0.696804
0.696804
0.696811
0.696818
0.696824
0.696831
0.696831
0.696838
0.696845
0.696852
0.696858
0.696858
0.696865
0.696872
0.696879
0.696886
0.696886
0.696892
0.696899
0.696906
0.696913
0.696913
0.69692
0.696927
0.696933
0.69694
0.69694
0.696947
0.696954
0.696961
0.696968
0.696968
0.696974
0.696981
0.696988
0.696995
0.696995
0.697002
0.697009
0.697016
0.697022
0.697022
0.697029
0.697036
0.697043
0.69705
0.69705
0.697057
0.697064
0.697071
0.697077
0.697077
0.697084
0.697091
0.697098
0.697105
0.697105
0.697112
0.697119
0.697126
0.697133
0.697133
0.69714
0.697147
0.697154
0.69716
0.69716
0.697167
0.697174
0.697181
0.697188
0.697188
0.697195
0.697202
0.697209
0.697216
0.697216
0.697223
0.69723
0.697237
0.697244
0.697244
0.697251
0.697258
0.697265
0.697272
0.697272
0.697279
0.697286
0.697293
0.6973
0.6973
0.697307
0.697314
0.697321
0.697328
0.697328
0.697335
0.697342
0.697349
0.697356
0.697356
0.697363
0.69737
0.697377
0.697384
0.697384
0.697391
0.697398
0.697405
0.697412
0.697412
0.697419
0.697426
0.697433
0.69744
0.69744
0.697447
0.697455
0.697462
0.697469
0.697469
0.697476
0.697483
0.69749
0.697497
0.697497
0.697504
0.697511
0.697518
0.697526
0.697526
0.697533
0.69754
0.697547
0.697554
0.697554
0.697561
0.697569
0.697576
0.697583
0.697583
0.69759
0.697597
0.697605
0.697612
0.697612
0.697619
0.697626
0.697633
0.697641
0.697641
0.697648
0.697655
0.697662
0.697669
0.697669
0.697677
0.697684
0.697691
0.697698
0.697698
0.697705
0.697713
0.69772
0.697727
0.697727
0.697734
0.697742
0.697749
0.697756
0.697756
0.697763
0.697771
0.697778
0.697785
0.697785
0.697792
0.6978
0.697807
0.697814
0.697814
0.697821
0.697829
0.697836
0.697843
0.697843
0.697851
0.697858
0.697865
0.697872
0.697872
0.69788
0.697887
0.697894
0.697902
0.697902
0.697909
0.697916
0.697924
0.697931
0.697931
0.697938
0.697946
0.697953
0.69796
0.69796
0.697968
0.697975
0.697982
0.69799
0.69799
0.697997
0.698004
0.698012
0.698019
0.698019
0.698026
0.698034
0.698041
0.698049
0.698049
0.698056
0.698063
0.698071
0.698078
0.698078
0.698085
0.698093
0.6981
0.698108
0.698108
0.698115
0.698122
0.69813
0.698137
0.698137
0.698145
0.698152
0.698159
0.698167
0.698167
0.698174
0.698182
0.698189
0.698197
0.698197
0.698204
0.698211
0.698219
0.698226
0.698226
0.698234
0.698241
0.698249
0.698256
0.698256
0.698264
0.698271
0.698278
0.698286
0.698286
0.698294
0.698301
0.698309
0.698316
0.698316
0.698324
0.698331
0.698339
0.698346
0.698346
0.698354
0.698361
0.698369
0.698377
0.698377
0.698384
0.698392
0.698399
0.698407
0.698407
0.698415
0.698422
0.69843
0.698437
0.698437
0.698445
0.698452
0.69846
0.698468
0.698468
0.698475
0.698483
0.69849
0.698498
0.698498
0.698506
0.698513
0.698521
0.698528
0.698528
0.698536
0.698544
0.698551
0.698559
0.698559
0.698567
0.698574
0.698582
0.69859
0.69859
0.698597
0.698605
0.698612
0.69862
0.69862
0.698628
0.698635
0.698643
0.698651
0.698651
0.698658
0.698666
0.698674
0.698681
0.698681
0.698689
0.698697
0.698705
0.698712
0.698712
0.69872
0.698728
0.698735
0.698743
0.698743
0.698751
0.698758
0.698766
0.698774
0.698774
0.698782
0.698789
0.698797
0.698805
0.698805
0.698813
0.69882
0.698828
0.698836
0.698836
0.698844
0.698851
0.698859
0.698867
0.698867
0.698875
0.698882
0.69889
0.698898
0.698898
0.698906
0.698913
0.698921
0.698929
0.698929
0.698937
0.698945
0.698952
0.69896
0.69896
0.698968
0.698976
0.698983
0.698991
0.698991
0.698999
0.699007
0.699015
0.699022
0.699022
0.69903
0.699038
0.699046
0.699054
0.699054
0.699062
0.699069
0.699077
0.699085
0.699085
0.699093
0.699101
0.699109
0.699117
0.699117
0.699125
0.699133
0.699141
0.699149
0.699149
0.699157
0.699165
0.699172
0.69918
0.69918
0.699188
0.699196
0.699204
0.699212
0.699212
0.69922
0.699228
0.699236
0.699244
0.699244
0.699252
0.69926
0.699268
0.699276
0.699276
0.699284
0.699292
0.6993
0.699308
0.699308
0.699316
0.699324
0.699332
0.69934
0.69934
0.699348
0.699356
0.699364
0.699372
0.699372
0.69938
0.699388
0.699396
0.699404
0.699404
0.699412
0.69942
0.699428
0.699436
0.699436
0.699444
0.699452
0.69946
0.699468
0.699468
0.699476
0.699484
0.699492
0.6995
0.6995
0.699508
0.699516
0.699524
0.699532
0.699532
0.699541
0.699549
0.699557
0.699565
0.699565
0.699573
0.699581
0.699589
0.699597
0.699597
0.699605
0.699613
0.699621
0.69963
0.69963
0.699638
0.699646
0.699654
0.699662
0.699662
0.69967
0.699678
0.699686
0.699694
0.699694
0.699703
0.699711
0.699719
0.699727
0.699727
0.699735
0.699743
0.699751
0.69976
0.69976
0.699768
0.699776
0.699784
0.699792
0.699792
0.6998
0.699808
0.699817
0.699825
0.699825
0.699833
0.699841
0.699849
0.699858
0.699858
0.699866
0.699874
0.699882
0.699891
0.699891
0.699899
0.699907
0.699915
0.699924
0.699924
0.699932
0.69994
0.699949
0.699957
0.699957
0.699965
0.699973
0.699982
0.69999
0.69999
0.699998
0.700007
0.700015
0.700023
0.700023
0.700032
0.70004
0.700048
0.700056
0.700056
0.700065
0.700073
0.700081
0.70009
0.70009
0.700098
0.700106
0.700115
0.700123
0.700123
0.700131
0.70014
0.700148
0.700156
0.700156
0.700165
0.700173
0.700182
0.70019
0.70019
0.700198
0.700207
0.700215
0.700223
0.700223
0.700232
0.70024
0.700249
0.700257
0.700257
0.700265
0.700274
0.700282
0.700291
0.700291
0.700299
0.700307
0.700316
0.700324
0.700324
0.700333
0.700341
0.700349
0.700358
0.700358
0.700366
0.700375
0.700383
0.700392
0.700392
0.7004
0.700408
0.700417
0.700425
0.700425
0.700434
0.700442
0.700451
0.700459
0.700459
0.700468
0.700476
0.700485
0.700493
0.700493
0.700502
0.70051
0.700518
0.700527
0.700527
0.700535
0.700544
0.700552
0.700561
0.700561
0.700569
0.700578
0.700586
0.700595
0.700595
0.700603
0.700612
0.70062
0.700629
0.700629
0.700637
0.700646
0.700655
0.700663
0.700663
0.700672
0.70068
0.700689
0.700698
0.700698
0.700706
0.700715
0.700723
0.700732
0.700732
0.700741
0.700749
0.700758
0.700767
0.700767
0.700775
0.700784
0.700793
0.700801
0.700801
0.70081
0.700818
0.700827
0.700836
0.700836
0.700844
0.700853
0.700862
0.70087
0.70087
0.700879
0.700888
0.700896
0.700905
0.700905
0.700914
0.700922
0.700931
0.70094
0.70094
0.700949
0.700957
0.700966
0.700975
0.700975
0.700983
0.700992
0.701001
0.701009
0.701009
0.701018
0.701027
0.701036
0.701044
0.701044
0.701053
0.701062
0.70107
0.701079
0.701079
0.701088
0.701097
0.701105
0.701114
0.701114
0.701123
0.701132
0.70114
0.701149
0.701149
0.701158
0.701167
0.701176
0.701184
0.701184
0.701193
0.701202
0.701211
0.701219
0.701219
0.701228
0.701237
0.701246
0.701255
0.701255
0.701263
0.701272
0.701281
0.70129
0.70129
0.701299
0.701307
0.701316
0.701325
0.701325
0.701334
0.701343
0.701351
0.70136
0.70136
0.701369
0.701378
0.701387
0.701395
0.701395
0.701404
0.701413
0.701422
0.701431
0.701431
0.70144
0.701449
0.701458
0.701467
0.701467
0.701476
0.701484
0.701493
0.701502
0.701502
0.701511
0.70152
0.701529
0.701538
0.701538
0.701547
0.701556
0.701565
0.701574
0.701574
0.701583
0.701592
0.701601
0.70161
0.70161
0.701619
0.701628
0.701637
0.701646
0.701646
0.701655
0.701664
0.701673
0.701682
0.701682
0.701691
0.7017
0.701709
0.701718
0.701718
0.701727
0.701736
0.701745
0.701754
0.701754
0.701763
0.701772
0.701781
0.70179
0.70179
0.701799
0.701808
0.701817
0.701826
0.701826
0.701835
0.701844
0.701853
0.701862
0.701862
0.701872
0.701881
0.70189
0.701899
0.701899
0.701908
0.701917
0.701926
0.701935
0.701935
0.701944
0.701953
0.701962
0.701971
0.701971
0.70198
0.70199
0.701999
0.702008
0.702008
0.702017
0.702026
0.702035
0.702044
0.702044
0.702053
0.702062
0.702072
0.702081
0.702081
0.70209
0.702099
0.702108
0.702117
0.702117
0.702126
0.702135
0.702144
0.702154
0.702154
0.702163
0.702172
0.702181
0.70219
0.70219
0.702199
0.702209
0.702218
0.702227
0.702227
0.702236
0.702246
0.702255
0.702264
0.702264
0.702273
0.702283
0.702292
0.702301
0.702301
0.70231
0.70232
0.702329
0.702338
0.702338
0.702348
0.702357
0.702366
0.702375
0.702375
0.702385
0.702394
0.702403
0.702413
0.702413
0.702422
0.702431
0.70244
0.70245
0.70245
0.702459
0.702468
0.702478
0.702487
0.702487
0.702496
0.702506
0.702515
0.702524
0.702524
0.702534
0.702543
0.702552
0.702562
0.702562
0.702571
0.70258
0.70259
0.702599
0.702599
0.702608
0.702618
0.702627
0.702636
0.702636
0.702646
0.702655
0.702665
0.702674
0.702674
0.702683
0.702693
0.702702
0.702712
0.702712
0.702721
0.70273
0.70274
0.702749
0.702749
0.702759
0.702768
0.702777
0.702787
0.702787
0.702796
0.702806
0.702815
0.702824
0.702824
0.702834
0.702843
0.702853
0.702862
0.702862
0.702871
0.702881
0.70289
0.7029
0.7029
0.702909
0.702919
0.702928
0.702938
0.702938
0.702947
0.702956
0.702966
0.702975
0.702975
0.702985
0.702994
0.703004
0.703013
0.703013
0.703023
0.703033
0.703042
0.703052
0.703052
0.703061