<?xml version="1.0"?>
<VTKFile type="UnstructuredGrid" version="0.1" byte_order="LittleEndian">
<UnstructuredGrid>
<Piece NumberOfPoints="5000" NumberOfCells="4000">
<PointData Scalars="Reaction 0">
<DataArray type="Float32" Name="Reaction 0" format="ascii">
1.00119
1.00119
1.00119
1.00119
1.00119
1.00119
1.00119
1.00119
1.00119
1.00119
1.00119
1.00119
1.00119
1.00119
1.00119
1.00119
1.00119
1.00119
1.00119
1.00119
1.00119
1.00119
1.00119
1.00119
1.00119
1.00119
1.00119
1.00119
1.00119
1.00119
1.00119
1.00119
1.00119
1.00119
1.00119
1.00119
1.00119
1.00119
1.00119
1.00119
1.00119
1.00119
1.00119
1.00119
1.00119
1.00119
1.00119
1.00119
1.00119
1.00119
1.00119
1.00119
1.00119
1.00119
1.00119
1.00119
1.00119
1.00119
1.00119
1.00119
1.00119
1.00119
1.00119
1.00119
1.00119
1.00119
1.00119
1.00119
1.00119
1.00119
1.00119
1.00119
1.00119
1.00119
1.00119
1.00119
1.00119
1.00119
1.00119
1.00119
1.00119
1.00119
1.00119
1.00119
1.00119
1.00119
1.00119
1.00119
1.00119
1.00119
1.00119
1.00119
1.00119
1.00119
1.00119
1.00119
1.00119
1.00119
1.00119
1.00119
1.00119
1.00119
1.00119
1.00119
1.00119
1.00119
1.00119
1.00119
1.00119
1.00119
1.00119
1.00119
1.00119
1.00119
1.00119
1.00119
1.00119
1.00119
1.00119
1.00119
1.00119
1.00119
1.00119
1.00119
1.00119
1.00119
1.00119
1.00119
1.00119
1.00119
1.00119
1.00119
1.00119
1.00119
1.00119
1.00119
1.00119
1.00119
1.00119
1.00118
1.00118
1.00118
1.00118
1.00118
1.00118
1.00118
1.00118
1.00118
1.00118
1.00118
1.00118
1.00118
1.00118
1.00118
1.00118
1.00118
1.00118
1.00118
1.00118
1.00118
1.00118
1.00118
1.00118
1.00118
1.00118
1.00118
1.00118
1.00118
1.00118
1.00118
1.00118
1.00118
1.00118
1.00118
1.00118
1.00118
1.00118
1.00118
1.00118
1.00118
1.00118
1.00118
1.00118
1.00118
1.00118
1.00118
1.00118
1.00118
1.00118
1.00118
1.00118
1.00118
1.00118
1.00118
1.00118
1.00118
1.00118
1.00118
1.00118
1.00118
1.00118
1.00118
1.00118
1.00118
1.00118
1.00118
1.00118
1.00118
1.00118
1.00118
1.00118
1.00118
1.00118
1.00118
1.00118
1.00118
1.00118
1.00118
1.00118
1.00118
1.00118
1.00118
1.00118
1.00117
1.00117
1.00117
1.00117
1.00117
1.00117
1.00117
1.00117
1.00117
1.00117
1.00117
1.00117
1.00117
1.00117
1.00117
1.00117
1.00117
1.00117
1.00117
1.00117
1.00117
1.00117
1.00117
1.00117
1.00117
1.00117
1.00117
1.00117
1.00117
1.00117
1.00117
1.00117
1.00117
1.00117
1.00117
1.00117
1.00117
1.00117
1.00117
1.00117
1.00117
1.00117
1.00117
1.00117
1.00117
1.00117
1.00117
1.00117
1.00117
1.00117
1.00117
1.00117
1.00117
1.00117
1.00117
1.00117
1.00117
1.00117
1.00117
1.00117
1.00116
1.00116
1.00116
1.00116
1.00116
1.00116
1.00116
1.00116
1.00116
1.00116
1.00116
1.00116
1.00116
1.00116
1.00116
1.00116
1.00116
1.00116
1.00116
1.00116
1.00116
1.00116
1.00116
1.00116
1.00116
1.00116
1.00116
1.00116
1.00116
1.00116
1.00116
1.00116
1.00116
1.00116
1.00116
1.00116
1.00116
1.00116
1.00116
1.00116
1.00116
1.00116
1.00116
1.00116
1.00116
1.00116
1.00116
1.00116
1.00116
1.00115
1.00115
1.00115
1.00115
1.00115
1.00115
1.00115
1.00115
1.00115
1.00115
1.00115
1.00115
1.00115
1.00115
1.00115
1.00115
1.00115
1.00115
1.00115
1.00115
1.00115
1.00115
1.00115
1.00115
1.00115
1.00115
1.00115
1.00115
1.00115
1.00115
1.00115
1.00115
1.00115
1.00115
1.00115
1.00115
1.00115
1.00115
1.00115
1.00115
1.00115
1.00115
1.00114
1.00114
1.00114
1.00114
1.00114
1.00114
1.00114
1.00114
1.00114
1.00114
1.00114
1.00114
1.00114
1.00114
1.00114
1.00114
1.00114
1.00114
1.00114
1.00114
1.00114
1.00114
1.00114
1.00114
1.00114
1.00114
1.00114
1.00114
1.00114
1.00114
1.00114
1.00114
1.00114
1.00114
1.00114
1.00114
1.00114
1.00114
1.00114
1.00113
1.00113
1.00113
1.00113
1.00113
1.00113
1.00113
1.00113
1.00113
1.00113
1.00113
1.00113
1.00113
1.00113
1.00113
1.00113
1.00113
1.00113
1.00113
1.00113
1.00113
1.00113
1.00113
1.00113
1.00113
1.00113
1.00113
1.00113
1.00113
1.00113
1.00113
1.00113
1.00113
1.00113
1.00113
1.00112
1.00112
1.00112
1.00112
1.00112
1.00112
1.00112
1.00112
1.00112
1.00112
1.00112
1.00112
1.00112
1.00112
1.00112
1.00112
1.00112
1.00112
1.00112
1.00112
1.00112
1.00112
1.00112
1.00112
1.00112
1.00112
1.00112
1.00112
1.00112
1.00112
1.00112
1.00112
1.00112
1.00111
1.00111
1.00111
1.00111
1.00111
1.00111
1.00111
1.00111
1.00111
1.00111
1.00111
1.00111
1.00111
1.00111
1.00111
1.00111
1.00111
1.00111
1.00111
1.00111
1.00111
1.00111
1.00111
1.00111
1.00111
1.00111
1.00111
1.00111
1.00111
1.00111
1.0011
1.0011
1.0011
1.0011
1.0011
1.0011
1.0011
1.0011
1.0011
1.0011
1.0011
1.0011
1.0011
1.0011
1.0011
1.0011
1.0011
1.0011
1.0011
1.0011
1.0011
1.0011
1.0011
1.0011
1.0011
1.0011
1.0011
1.0011
1.00109
1.00109
1.00109
1.00109
1.00109
1.00109
1.00109
1.00109
1.00109
1.00109
1.00109
1.00109
1.00109
1.00109
1.00109
1.00109
1.00109
1.00109
1.00109
1.00109
1.00109
1.00109
1.00109
1.00109
1.00109
1.00109
1.00109
1.00109
1.00108
1.00108
1.00108
1.00108
1.00108
1.00108
1.00108
1.00108
1.00108
1.00108
1.00108
1.00108
1.00108
1.00108
1.00108
1.00108
1.00108
1.00108
1.00108
1.00108
1.00108
1.00108
1.00108
1.00108
1.00108
1.00108
1.00107
1.00107
1.00107
1.00107
1.00107
1.00107
1.00107
1.00107
1.00107
1.00107
1.00107
1.00107
1.00107
1.00107
1.00107
1.00107
1.00107
1.00107
1.00107
1.00107
1.00107
1.00107
1.00107
1.00107
1.00107
1.00106
1.00106
1.00106
1.00106
1.00106
1.00106
1.00106
1.00106
1.00106
1.00106
1.00106
1.00106
1.00106
1.00106
1.00106
1.00106
1.00106
1.00106
1.00106
1.00106
1.00106
1.00106
1.00106
1.00106
1.00106
1.00105
1.00105
1.00105
1.00105
1.00105
1.00105
1.00105
1.00105
1.00105
1.00105
1.00105
1.00105
1.00105
1.00105
1.00105
1.00105
1.00105
1.00105
1.00105
1.00105
1.00105
1.00105
1.00105
1.00104
1.00104
1.00104
1.00104
1.00104
1.00104
1.00104
1.00104
1.00104
1.00104
1.00104
1.00104
1.00104
1.00104
1.00104
1.00104
1.00104
1.00104
1.00104
1.00104
1.00104
1.00104
1.00103
1.00103
1.00103
1.00103
1.00103
1.00103
1.00103
1.00103
1.00103
1.00103
1.00103
1.00103
1.00103
1.00103
1.00103
1.00103
1.00103
1.00103
1.00103
1.00103
1.00103
1.00102
1.00102
1.00102
1.00102
1.00102
1.00102
1.00102
1.00102
1.00102
1.00102
1.00102
1.00102
1.00102
1.00102
1.00102
1.00102
1.00102
1.00102
1.00102
1.00102
1.00102
1.00102
1.00101
1.00101
1.00101
1.00101
1.00101
1.00101
1.00101
1.00101
1.00101
1.00101
1.00101
1.00101
1.00101
1.00101
1.00101
1.00101
1.00101
1.00101
1.00101
1.00101
1.00101
1.001
1.001
1.001
1.001
1.001
1.001
1.001
1.001
1.001
1.001
1.001
1.001
1.001
1.001
1.001
1.001
1.001
1.001
1.001
1.001
1.00099
1.00099
1.00099
1.00099
1.00099
1.00099
1.00099
1.00099
1.00099
1.00099
1.00099
1.00099
1.00099
1.00099
1.00099
1.00099
1.00099
1.00099
1.00099
1.00098
1.00098
1.00098
1.00098
1.00098
1.00098
1.00098
1.00098
1.00098
1.00098
1.00098
1.00098
1.00098
1.00098
1.00098
1.00098
1.00098
1.00098
1.00097
1.00097
1.00097
1.00097
1.00097
1.00097
1.00097
1.00097
1.00097
1.00097
1.00097
1.00097
1.00097
1.00097
1.00097
1.00097
1.00097
1.00097
1.00097
1.00096
1.00096
1.00096
1.00096
1.00096
1.00096
1.00096
1.00096
1.00096
1.00096
1.00096
1.00096
1.00096
1.00096
1.00096
1.00096
1.00096
1.00096
1.00096
1.00095
1.00095
1.00095
1.00095
1.00095
1.00095
1.00095
1.00095
1.00095
1.00095
1.00095
1.00095
1.00095
1.00095
1.00095
1.00095
1.00095
1.00094
1.00094
1.00094
1.00094
1.00094
1.00094
1.00094
1.00094
1.00094
1.00094
1.00094
1.00094
1.00094
1.00094
1.00094
1.00094
1.00094
1.00094
1.00093
1.00093
1.00093
1.00093
1.00093
1.00093
1.00093
1.00093
1.00093
1.00093
1.00093
1.00093
1.00093
1.00093
1.00093
1.00093
1.00092
1.00092
1.00092
1.00092
1.00092
1.00092
1.00092
1.00092
1.00092
1.00092
1.00092
1.00092
1.00092
1.00092
1.00092
1.00092
1.00092
1.00092
1.00091
1.00091
1.00091
1.00091
1.00091
1.00091
1.00091
1.00091
1.00091
1.00091
1.00091
1.00091
1.00091
1.00091
1.00091
1.00091
1.0009
1.0009
1.0009
1.0009
1.0009
1.0009
1.0009
1.0009
1.0009
1.0009
1.0009
1.0009
1.0009
1.0009
1.0009
1.0009
1.00089
1.00089
1.00089
1.00089
1.00089
1.00089
1.00089
1.00089
1.00089
1.00089
1.00089
1.00089
1.00089
1.00089
1.00089
1.00088
1.00088
1.00088
1.00088
1.00088
1.00088
1.00088
1.00088
1.00088
1.00088
1.00088
1.00088
1.00088
1.00088
1.00088
1.00088
1.00087
1.00087
1.00087
1.00087
1.00087
1.00087
1.00087
1.00087
1.00087
1.00087
1.00087
1.00087
1.00087
1.00087
1.00087
1.00087
1.00087
1.00086
1.00086
1.00086
1.00086
1.00086
1.00086
1.00086
1.00086
1.00086
1.00086
1.00086
1.00086
1.00086
1.00086
1.00086
1.00085
1.00085
1.00085
1.00085
1.00085
1.00085
1.00085
1.00085
1.00085
1.00085
1.00085
1.00085
1.00085
1.00085
1.00085
1.00084
1.00084
1.00084
1.00084
1.00084
1.00084
1.00084
1.00084
1.00084
1.00084
1.00084
1.00084
1.00084
1.00084
1.00084
1.00083
1.00083
1.00083
1.00083
1.00083
1.00083
1.00083
1.00083
1.00083
1.00083
1.00083
1.00083
1.00083
1.00082
1.00082
1.00082
1.00082
1.00082
1.00082
1.00082
1.00082
1.00082
1.00082
1.00082
1.00082
1.00082
1.00082
1.00082
1.00081
1.00081
1.00081
1.00081
1.00081
1.00081
1.00081
1.00081
1.00081
1.00081
1.00081
1.00081
1.00081
1.00081
1.0008
1.0008
1.0008
1.0008
1.0008
1.0008
1.0008
1.0008
1.0008
1.0008
1.0008
1.0008
1.0008
1.0008
1.0008
1.00079
1.00079
1.00079
1.00079
1.00079
1.00079
1.00079
1.00079
1.00079
1.00079
1.00079
1.00079
1.00079
1.00079
1.00078
1.00078
1.00078
1.00078
1.00078
1.00078
1.00078
1.00078
1.00078
1.00078
1.00078
1.00078
1.00078
1.00078
1.00077
1.00077
1.00077
1.00077
1.00077
1.00077
1.00077
1.00077
1.00077
1.00077
1.00077
1.00077
1.00076
1.00076
1.00076
1.00076
1.00076
1.00076
1.00076
1.00076
1.00076
1.00076
1.00076
1.00076
1.00076
1.00076
1.00075
1.00075
1.00075
1.00075
1.00075
1.00075
1.00075
1.00075
1.00075
1.00075
1.00075
1.00075
1.00075
1.00075
1.00074
1.00074
1.00074
1.00074
1.00074
1.00074
1.00074
1.00074
1.00074
1.00074
1.00074
1.00074
1.00073
1.00073
1.00073
1.00073
1.00073
1.00073
1.00073
1.00073
1.00073
1.00073
1.00073
1.00073
1.00073
1.00072
1.00072
1.00072
1.00072
1.00072
1.00072
1.00072
1.00072
1.00072
1.00072
1.00072
1.00072
1.00071
1.00071
1.00071
1.00071
1.00071
1.00071
1.00071
1.00071
1.00071
1.00071
1.00071
1.00071
1.00071
1.0007
1.0007
1.0007
1.0007
1.0007
1.0007
1.0007
1.0007
1.0007
1.0007
1.0007
1.0007
1.00069
1.00069
1.00069
1.00069
1.00069
1.00069
1.00069
1.00069
1.00069
1.00069
1.00069
1.00069
1.00069
1.00068
1.00068
1.00068
1.00068
1.00068
1.00068
1.00068
1.00068
1.00068
1.00068
1.00068
1.00068
1.00067
1.00067
1.00067
1.00067
1.00067
1.00067
1.00067
1.00067
1.00067
1.00067
1.00067
1.00067
1.00067
1.00066
1.00066
1.00066
1.00066
1.00066
1.00066
1.00066
1.00066
1.00066
1.00066
1.00066
1.00066
1.00065
1.00065
1.00065
1.00065
1.00065
1.00065
1.00065
1.00065
1.00065
1.00065
1.00065
1.00064
1.00064
1.00064
1.00064
1.00064
1.00064
1.00064
1.00064
1.00064
1.00064
1.00064
1.00064
1.00064
1.00063
1.00063
1.00063
1.00063
1.00063
1.00063
1.00063
1.00063
1.00063
1.00063
1.00063
1.00062
1.00062
1.00062
1.00062
1.00062
1.00062
1.00062
1.00062
1.00062
1.00062
1.00062
1.00062
1.00062
1.00061
1.00061
1.00061
1.00061
1.00061
1.00061
1.00061
1.00061
1.00061
1.00061
1.00061
1.0006
1.0006
1.0006
1.0006
1.0006
1.0006
1.0006
1.0006
1.0006
1.0006
1.0006
1.00059
1.00059
1.00059
1.00059
1.00059
1.00059
1.00059
1.00059
1.00059
1.00059
1.00059
1.00058
1.00058
1.00058
1.00058
1.00058
1.00058
1.00058
1.00058
1.00058
1.00058
1.00058
1.00058
1.00057
1.00057
1.00057
1.00057
1.00057
1.00057
1.00057
1.00057
1.00057
1.00057
1.00057
1.00056
1.00056
1.00056
1.00056
1.00056
1.00056
1.00056
1.00056
1.00056
1.00056
1.00056
1.00055
1.00055
1.00055
1.00055
1.00055
1.00055
1.00055
1.00055
1.00055
1.00055
1.00055
1.00054
1.00054
1.00054
1.00054
1.00054
1.00054
1.00054
1.00054
1.00054
1.00054
1.00054
1.00054
1.00053
1.00053
1.00053
1.00053
1.00053
1.00053
1.00053
1.00053
1.00053
1.00053
1.00052
1.00052
1.00052
1.00052
1.00052
1.00052
1.00052
1.00052
1.00052
1.00052
1.00052
1.00051
1.00051
1.00051
1.00051
1.00051
1.00051
1.00051
1.00051
1.00051
1.00051
1.0005
1.0005
1.0005
1.0005
1.0005
1.0005
1.0005
1.0005
1.0005
1.0005
1.0005
1.00049
1.00049
1.00049
1.00049
1.00049
1.00049
1.00049
1.00049
1.00049
1.00049
1.00048
1.00048
1.00048
1.00048
1.00048
1.00048
1.00048
1.00048
1.00048
1.00048
1.00047
1.00047
1.00047
1.00047
1.00047
1.00047
1.00047
1.00047
1.00047
1.00047
1.00047
1.00046
1.00046
1.00046
1.00046
1.00046
1.00046
1.00046
1.00046
1.00046
1.00046
1.00045
1.00045
1.00045
1.00045
1.00045
1.00045
1.00045
1.00045
1.00045
1.00045
1.00044
1.00044
1.00044
1.00044
1.00044
1.00044
1.00044
1.00044
1.00044
1.00044
1.00044
1.00044
1.00043
1.00043
1.00043
1.00043
1.00043
1.00043
1.00043
1.00043
1.00043
1.00043
1.00042
1.00042
1.00042
1.00042
1.00042
1.00042
1.00042
1.00042
1.00042
1.00042
1.00041
1.00041
1.00041
1.00041
1.00041
1.00041
1.00041
1.00041
1.00041
1.00041
1.0004
1.0004
1.0004
1.0004
1.0004
1.0004
1.0004
1.0004
1.0004
1.0004
1.00039
1.00039
1.00039
1.00039
1.00039
1.00039
1.00039
1.00039
1.00039
1.00039
1.00038
1.00038
1.00038
1.00038
1.00038
1.00038
1.00038
1.00038
1.00038
1.00038
1.00037
1.00037
1.00037
1.00037
1.00037
1.00037
1.00037
1.00037
1.00037
1.00037
1.00036
1.00036
1.00036
1.00036
1.00036
1.00036
1.00036
1.00036
1.00035
1.00035
1.00035
1.00035
1.00035
1.00035
1.00035
1.00035
1.00035
1.00035
1.00034
1.00034
1.00034
1.00034
1.00034
1.00034
1.00034
1.00034
1.00034
1.00034
1.00033
1.00033
1.00033
1.00033
1.00033
1.00033
1.00033
1.00033
1.00033
1.00032
1.00032
1.00032
1.00032
1.00032
1.00032
1.00032
1.00032
1.00032
1.00032
1.00031
1.00031
1.00031
1.00031
1.00031
1.00031
1.00031
1.00031
1.00031
1.0003
1.0003
1.0003
1.0003
1.0003
1.0003
1.0003
1.0003
1.0003
1.0003
1.00029
1.00029
1.00029
1.00029
1.00029
1.00029
1.00029
1.00029
1.00029
1.00028
1.00028
1.00028
1.00028
1.00028
1.00028
1.00028
1.00028
1.00027
1.00027
1.00027
1.00027
1.00027
1.00027
1.00027
1.00027
1.00027
1.00027
1.00026
1.00026
1.00026
1.00026
1.00026
1.00026
1.00026
1.00026
1.00026
1.00025
1.00025
1.00025
1.00025
1.00025
1.00025
1.00025
1.00025
1.00025
1.00024
1.00024
1.00024
1.00024
1.00024
1.00024
1.00024
1.00024
1.00024
1.00024
1.00023
1.00023
1.00023
1.00023
1.00023
1.00023
1.00023
1.00023
1.00023
1.00022
1.00022
1.00022
1.00022
1.00022
1.00022
1.00022
1.00022
1.00022
1.00022
1.00021
1.00021
1.00021
1.00021
1.00021
1.00021
1.00021
1.00021
1.0002
1.0002
1.0002
1.0002
1.0002
1.0002
1.0002
1.0002
1.0002
1.00019
1.00019
1.00019
1.00019
1.00019
1.00019
1.00019
1.00019
1.00019
1.00018
1.00018
1.00018
1.00018
1.00018
1.00018
1.00018
1.00018
1.00018
1.00017
1.00017
1.00017
1.00017
1.00017
1.00017
1.00017
1.00017
1.00016
1.00016
1.00016
1.00016
1.00016
1.00016
1.00016
1.00016
1.00016
1.00015
1.00015
1.00015
1.00015
1.00015
1.00015
1.00015
1.00015
1.00015
1.00014
1.00014
1.00014
1.00014
1.00014
1.00014
1.00014
1.00014
1.00014
1.00013
1.00013
1.00013
1.00013
1.00013
1.00013
1.00013
1.00013
1.00012
1.00012
1.00012
1.00012
1.00012
1.00012
1.00012
1.00012
1.00012
1.00011
1.00011
1.00011
1.00011
1.00011
1.00011
1.00011
1.00011
1.00011
1.0001
1.0001
1.0001
1.0001
1.0001
1.0001
1.0001
1.0001
1.0001
1.00009
1.00009
1.00009
1.00009
1.00009
1.00009
1.00009
1.00008
1.00008
1.00008
1.00008
1.00008
1.00008
1.00008
1.00008
1.00008
1.00007
1.00007
1.00007
1.00007
1.00007
1.00007
1.00007
1.00007
1.00007
1.00006
1.00006
1.00006
1.00006
1.00006
1.00006
1.00006
1.00005
1.00005
1.00005
1.00005
1.00005
1.00005
1.00005
1.00005
1.00005
1.00004
1.00004
1.00004
1.00004
1.00004
1.00004
1.00004
1.00004
1.00004
1.00003
1.00003
1.00003
1.00003
1.00003
1.00003
1.00003
1.00002
1.00002
1.00002
1.00002
1.00002
1.00002
1.00002
1.00002
1.00002
1.00001
1.00001
1.00001
1.00001
1.00001
1.00001
1.00001
1.00001
1.00001
1
1
1
0.999999
0.999999
0.999998
0.999996
0.999995
0.999993
0.999993
0.999992
0.99999
0.999989
0.999987
0.999987
0.999985
0.999984
0.999982
0.999981
0.999981
0.999979
0.999978
0.999976
0.999975
0.999975
0.999973
0.999972
0.99997
0.999969
0.999969
0.999967
0.999966
0.999964
0.999963
0.999963
0.999961
0.999959
0.999958
0.999956
0.999956
0.999955
0.999953
0.999952
0.99995
0.99995
0.999949
0.999947
0.999945
0.999944
0.999944
0.999942
0.999941
0.999939
0.999938
0.999938
0.999936
0.999935
0.999933
0.999931
0.999931
0.99993
0.999928
0.999927
0.999925
0.999925
0.999924
0.999922
0.99992
0.999919
0.999919
0.999917
0.999916
0.999914
0.999913
0.999913
0.999911
0.999909
0.999908
0.999906
0.999906
0.999905
0.999903
0.999901
0.9999
0.9999
0.999898
0.999897
0.999895
0.999893
0.999893
0.999892
0.99989
0.999889
0.999887
0.999887
0.999885
0.999884
0.999882
0.999881
0.999881
0.999879
0.999877
0.999876
0.999874
0.999874
0.999873
0.999871
0.999869
0.999868
0.999868
0.999866
0.999864
0.999863
0.999861
0.999861
0.99986
0.999858
0.999856
0.999855
0.999855
0.999853
0.999851
0.99985
0.999848
0.999848
0.999846
0.999845
0.999843
0.999842
0.999842
0.99984
0.999838
0.999837
0.999835
0.999835
0.999833
0.999832
0.99983
0.999828
0.999828
0.999827
0.999825
0.999824
0.999822
0.999822
0.99982
0.999819
0.999817
0.999815
0.999815
0.999814
0.999812
0.99981
0.999809
0.999809
0.999807
0.999806
0.999804
0.999802
0.999802
0.999801
0.999799
0.999798
0.999796
0.999796
0.999794
0.999793
0.999791
0.999789
0.999789
0.999788
0.999786
0.999785
0.999783
0.999783
0.999781
0.99978
0.999778
0.999776
0.999776
0.999775
0.999773
0.999771
0.99977
0.99977
0.999768
0.999767
0.999765
0.999763
0.999763
0.999762
0.99976
0.999758
0.999757
0.999757
0.999755
0.999753
0.999752
0.99975
0.99975
0.999748
0.999747
0.999745
0.999743
0.999743
0.999742
0.99974
0.999738
0.999737
0.999737
0.999735
0.999733
0.999732
0.99973
0.99973
0.999728
0.999727
0.999725
0.999723
0.999723
0.999722
0.99972
0.999718
0.999717
0.999717
0.999715
0.999713
0.999712
0.99971
0.99971
0.999708
0.999706
0.999705
0.999703
0.999703
0.999701
0.9997
0.999698
0.999696
0.999696
0.999695
0.999693
0.999691
0.999689
0.999689
0.999688
0.999686
0.999684
0.999683
0.999683
0.999681
0.999679
0.999677
0.999676
0.999676
0.999674
0.999672
0.999671
0.999669
0.999669
0.999667
0.999665
0.999664
0.999662
0.999662
0.99966
0.999658
0.999657
0.999655
0.999655
0.999653
0.999651
0.99965
0.999648
0.999648
0.999646
0.999644
0.999643
0.999641
0.999641
0.999639
0.999638
0.999636
0.999634
0.999634
0.999632
0.99963
0.999629
0.999627
0.999627
0.999625
0.999623
0.999622
0.99962
0.99962
0.999618
0.999616
0.999615
0.999613
0.999613
0.999611
0.999609
0.999608
0.999606
0.999606
0.999604
0.999602
0.999601
0.999599
0.999599
0.999597
0.999595
0.999594
0.999592
0.999592
0.99959
0.999589
0.999587
0.999585
0.999585
0.999583
0.999582
0.99958
0.999578
0.999578
0.999576
0.999575
0.999573
0.999571
0.999571
0.999569
0.999568
0.999566
0.999564
0.999564
0.999562
0.999561
0.999559
0.999557
0.999557
0.999555
0.999554
0.999552
0.99955
0.99955
0.999548
0.999547
0.999545
0.999543
0.999543
0.999541
0.99954
0.999538
0.999536
0.999536
0.999534
0.999533
0.999531
0.999529
0.999529
0.999527
0.999526
0.999524
0.999522
0.999522
0.99952
0.999518
0.999517
0.999515
0.999515
0.999513
0.999511
0.99951
0.999508
0.999508
0.999506
0.999504
0.999502
0.999501
0.999501
0.999499
0.999497
0.999495
0.999493
0.999493
0.999492
0.99949
0.999488
0.999486
0.999486
0.999484
0.999483
0.999481
0.999479
0.999479
0.999477
0.999475
0.999473
0.999472
0.999472
0.99947
0.999468
0.999466
0.999464
0.999464
0.999463
0.999461
0.999459
0.999457
0.999457
0.999455
0.999453
0.999452
0.99945
0.99945
0.999448
0.999446
0.999444
0.999442
0.999442
0.99944
0.999439
0.999437
0.999435
0.999435
0.999433
0.999431
0.999429
0.999428
0.999428
0.999426
0.999424
0.999422
0.99942
0.99942
0.999418
0.999416
0.999415
0.999413
0.999413
0.999411
0.999409
0.999407
0.999405
0.999405
0.999403
0.999401
0.9994
0.999398
0.999398
0.999396
0.999394
0.999392
0.99939
0.99939
0.999388
0.999387
0.999385
0.999383
0.999383
0.999381
0.999379
0.999377
0.999376
0.999376
0.999374
0.999372
0.99937
0.999368
0.999368
0.999366
0.999365
0.999363
0.999361
0.999361
0.999359
0.999357
0.999355
0.999353
0.999353
0.999352
0.99935
0.999348
0.999346
0.999346
0.999344
0.999342
0.999341
0.999339
0.999339
0.999337
0.999335
0.999333
0.999331
0.999331
0.999329
0.999328
0.999326
0.999324
0.999324
0.999322
0.99932
0.999318
0.999316
0.999316
0.999315
0.999313
0.999311
0.999309
0.999309
0.999307
0.999305
0.999303
0.999301
0.999301
0.999299
0.999298
0.999296
0.999294
0.999294
0.999292
0.99929
0.999288
0.999286
0.999286
0.999284
0.999282
0.999281
0.999279
0.999279
0.999277
0.999275
0.999273
0.999271
0.999271
0.999269
0.999267
0.999265
0.999263
0.999263
0.999261
0.99926
0.999258
0.999256
0.999256
0.999254
0.999252
0.99925
0.999248
0.999248
0.999246
0.999244
0.999242
0.99924
0.99924
0.999238
0.999236
0.999235
0.999233
0.999233
0.999231
0.999229
0.999227
0.999225
0.999225
0.999223
0.999221
0.999219
0.999217
0.999217
0.999215
0.999213
0.999211
0.999209
0.999209
0.999207
0.999205
0.999203
0.999201
0.999201
0.999199
0.999197
0.999196
0.999194
0.999194
0.999192
0.99919
0.999188
0.999186
0.999186
0.999184
0.999182
0.99918
0.999178
0.999178
0.999176
0.999174
0.999172
0.99917
0.99917
0.999168
0.999166
0.999164
0.999162
0.999162
0.99916
0.999158
0.999157
0.999155
0.999155
0.999153
0.999151
0.999149
0.999147
0.999147
0.999145
0.999143
0.999141
0.999139
0.999139
0.999137
0.999135
0.999133
0.999131
0.999131
0.999129
0.999127
0.999126
0.999124
0.999124
0.999122
0.99912
0.999118
0.999116
0.999116
0.999114
0.999112
0.99911
0.999108
0.999108
0.999106
0.999104
0.999102
0.9991
0.9991
0.999098
0.999096
0.999094
0.999092
0.999092
0.99909
0.999088
0.999086
0.999084
0.999084
0.999082
0.99908
0.999078
0.999076
0.999076
0.999074
0.999072
0.99907
0.999068
0.999068
0.999066
0.999064
0.999063
0.999061
0.999061
0.999059
0.999057
0.999055
0.999053
0.999053
0.999051
0.999048
0.999046
0.999044
0.999044
0.999042
0.99904
0.999038
0.999036
0.999036
0.999034
0.999032
0.99903
0.999028
0.999028
0.999026
0.999024
0.999022
0.99902
0.99902
0.999018
0.999016
0.999014
0.999012
0.999012
0.99901
0.999008
0.999006
0.999004
0.999004
0.999002
0.999
0.998998
0.998996
0.998996
0.998994
0.998992
0.99899
0.998988
0.998988
0.998986
0.998983
0.998981
0.998979
0.998979
0.998977
0.998975
0.998973
0.998971
0.998971
0.998969
0.998967
0.998965
0.998963
0.998963
0.998961
0.998959
0.998957
0.998955
0.998955
0.998953
0.998951
0.998949
0.998947
0.998947
0.998945
0.998943
0.998941
0.998939
0.998939
0.998937
0.998935
0.998933
0.998931
0.998931
0.998929
0.998926
0.998924
0.998922
0.998922
0.99892
0.998918
0.998916
0.998914
0.998914
0.998912
0.99891
0.998908
0.998906
0.998906
0.998904
0.998902
0.9989
0.998898
0.998898
0.998896
0.998894
0.998892
0.99889
0.99889
0.998888
0.998886
0.998884
0.998882
0.998882
0.99888
0.998878
0.998875
0.998873
0.998873
0.998871
0.998869
0.998867
0.998865
0.998865
0.998863
0.998861
0.998859
0.998857
0.998857
0.998855
0.998853
0.998851
0.998849
0.998849
0.998847
0.998844
0.998842
0.99884
0.99884
0.998838
0.998836
0.998834
0.998832
0.998832
0.99883
0.998828
0.998826
0.998823
0.998823
0.998821
0.998819
0.998817
0.998815
0.998815
0.998813
0.998811
0.998809
0.998807
0.998807
0.998804
0.998802
0.9988
0.998798
0.998798
0.998796
0.998794
0.998792
0.99879
0.99879
0.998787
0.998785
0.998783
0.998781
0.998781
0.998779
0.998777
0.998775
0.998773
0.998773
0.99877
0.998768
0.998766
0.998764
0.998764
0.998762
0.99876
0.998758
0.998756
0.998756
0.998753
0.998751
0.998749
0.998747
0.998747
0.998745
0.998743
0.998741
0.998739
0.998739
0.998736
0.998734
0.998732
0.99873
0.99873
0.998728
0.998726
0.998724
0.998722
0.998722
0.99872
0.998717
0.998715
0.998713
0.998713
0.998711
0.998709
0.998707
0.998705
0.998705
0.998703
0.998701
0.998698
0.998696
0.998696
0.998694
0.998692
0.99869
0.998688
0.998688
0.998686
0.998684
0.998682
0.998679
0.998679
0.998677
0.998675
0.998673
0.998671
0.998671
0.998669
0.998667
0.998664
0.998662
0.998662
0.99866
0.998658
0.998656
0.998654
0.998654
0.998652
0.998649
0.998647
0.998645
0.998645
0.998643
0.998641
0.998639
0.998637
0.998637
0.998634
0.998632
0.99863
0.998628
0.998628
0.998626
0.998624
0.998621
0.998619
0.998619
0.998617
0.998615
0.998613
0.99861
0.99861
0.998608
0.998606
0.998604
0.998602
0.998602
0.9986
0.998597
0.998595
0.998593
0.998593
0.998591
0.998589
0.998586
0.998584
0.998584
0.998582
0.99858
0.998578
0.998575
0.998575
0.998573
0.998571
0.998569
0.998566
0.998566
0.998564
0.998562
0.99856
0.998558
0.998558
0.998555
0.998553
0.998551
0.998549
0.998549
0.998547
0.998544
0.998542
0.99854
0.99854
0.998538
0.998536
0.998533
0.998531
0.998531
0.998529
0.998527
0.998525
0.998522
0.998522
0.99852
0.998518
0.998516
0.998514
0.998514
0.998511
0.998509
0.998507
0.998505
0.998505
0.998503
0.998501
0.998498
0.998496
0.998496
0.998494
0.998492
0.99849
0.998487
0.998487
0.998485
0.998483
0.998481
0.998479
0.998479
0.998476
0.998474
0.998472
0.99847
0.99847
0.998468
0.998465
0.998463
0.998461
0.998461
0.998459
0.998457
0.998454
0.998452
0.998452
0.99845
0.998448
0.998446
0.998443
0.998443
0.998441
0.998439
0.998437
0.998434
0.998434
0.998432
0.99843
0.998428
0.998426
0.998426
0.998423
0.998421
0.998419
0.998417
0.998417
0.998414
0.998412
0.99841
0.998408
0.998408
0.998405
0.998403
0.998401
0.998399
0.998399
0.998396
0.998394
0.998392
0.998389
0.998389
0.998387
0.998385
0.998383
0.99838
0.99838
0.998378
0.998376
0.998374
0.998371
0.998371
0.998369
0.998367
0.998364
0.998362
0.998362
0.99836
0.998358
0.998355
0.998353
0.998353
0.998351
0.998349
0.998346
0.998344
0.998344
0.998342
0.998339
0.998337
0.998335
0.998335
0.998333
0.99833
0.998328
0.998326
0.998326
0.998323
0.998321
0.998319
0.998317
0.998317
0.998314
0.998312
0.99831
0.998308
0.998308
0.998305
0.998303
0.998301
0.998299
0.998299
0.998296
0.998294
0.998292
0.99829
0.99829
0.998287
0.998285
0.998283
0.998281
0.998281
0.998278
0.998276
0.998274
0.998271
0.998271
0.998269
0.998267
0.998265
0.998262
0.998262
0.99826
0.998258
0.998256
0.998253
0.998253
0.998251
0.998249
0.998246
0.998244
0.998244
0.998242
0.99824
0.998237
0.998235
0.998235
0.998233
0.99823
0.998228
0.998226
0.998226
0.998224
0.998221
0.998219
0.998217
0.998217
0.998214
0.998212
0.99821
0.998207
0.998207
0.998205
0.998203
0.9982
0.998198
0.998198
0.998196
0.998193
0.998191
0.998189
0.998189
0.998186
0.998184
0.998182
0.998179
0.998179
0.998177
0.998175
0.998172
0.99817
0.99817
0.998168
0.998165
0.998163
0.998161
0.998161
0.998158
0.998156
0.998154
0.998151
0.998151
0.998149
0.998147
0.998144
0.998142
0.998142
0.99814
0.998137
0.998135
0.998133
0.998133
0.99813
0.998128
0.998126
0.998123
0.998123
0.998121
0.998118
0.998116
0.998114
0.998114
0.998111
0.998109
0.998107
0.998104
0.998104
0.998102
0.9981
0.998098
0.998095
0.998095
0.998093
0.998091
0.998088
0.998086
0.998086
0.998084
0.998081
0.998079
0.998077
0.998077
0.998074
0.998072
0.99807
0.998067
0.998067
0.998065
0.998063
0.99806
0.998058
0.998058
0.998056
0.998053
0.998051
0.998049
0.998049
0.998046
0.998044
0.998042
0.998039
0.998039
0.998037
0.998035
0.998032
0.99803
0.99803
0.998027
0.998025
0.998023
0.99802
0.99802
0.998018
0.998016
0.998013
0.998011
0.998011
0.998009
0.998006
0.998004
0.998001
0.998001
0.997999
0.997997
0.997994
0.997992
0.997992
0.997989
0.997987
0.997985
0.997982
0.997982
0.99798
0.997978
0.997975
0.997973
0.997973
0.99797
0.997968
0.997966
0.997963
0.997963
0.997961
0.997958
0.997956
0.997953
0.997953
0.997951
0.997949
0.997946
0.997944
0.997944
0.997941
0.997939
0.997937
0.997934
0.997934
0.997932
0.997929
0.997927
0.997925
0.997925
0.997922
0.99792
0.997917
0.997915
0.997915
0.997912
0.99791
0.997908
0.997905
0.997905
0.997903
0.9979
0.997898
0.997896
0.997896
0.997893
0.997891
0.997889
0.997886
0.997886
0.997884
0.997881
0.997879
0.997877
0.997877
0.997874
0.997872
0.997869
0.997867
0.997867
0.997865
0.997862
0.99786
0.997857
0.997857
0.997855
0.997853
0.99785
0.997848
0.997848
0.997845
0.997843
0.997841
0.997838
0.997838
0.997836
0.997833
0.997831
0.997829
0.997829
0.997826
0.997824
0.997821
0.997819
0.997819
0.997817
0.997814
0.997812
0.997809
0.997809
0.997807
0.997804
0.997802
0.9978
0.9978
0.997797
0.997795
0.997792
0.99779
0.99779
0.997787
0.997785
0.997782
0.99778
0.99778
0.997778
0.997775
0.997773
0.99777
0.99777
0.997768
0.997765
0.997763
0.99776
0.99776
0.997758
0.997755
0.997753
0.99775
0.99775
0.997748
0.997745
0.997743
0.997741
0.997741
0.997738
0.997736
0.997733
0.997731
0.997731
0.997728
0.997726
0.997723
0.997721
0.997721
0.997718
0.997716
0.997713
0.997711
0.997711
0.997708
0.997706
0.997703
0.997701
0.997701
0.997699
0.997696
0.997694
0.997691
0.997691
0.997689
0.997686
0.997684
0.997681
0.997681
0.997679
0.997677
0.997674
0.997672
0.997672
0.997669
0.997667
0.997664
0.997662
0.997662
0.997659
0.997657
0.997654
0.997652
0.997652
0.99765
0.997647
0.997645
0.997642
0.997642
0.99764
0.997637
0.997635
0.997632
0.997632
0.99763
0.997627
0.997625
0.997622
0.997622
0.99762
0.997618
0.997615
0.997613
0.997613
0.99761
0.997608
0.997605
0.997603
0.997603
0.9976
0.997598
0.997595
0.997593
0.997593
0.99759
0.997588
0.997585
0.997583
0.997583
0.99758
0.997578
0.997575
0.997573
0.997573
0.99757
0.997568
0.997565
0.997562
0.997562
0.99756
0.997557
0.997555
0.997552
0.997552
0.99755
0.997547
0.997545
0.997542
0.997542
0.99754
0.997537
0.997535
0.997532
0.997532
0.99753
0.997527
0.997525
0.997522
0.997522
0.99752
0.997517
0.997514
0.997512
0.997512
0.997509
0.997507
0.997504
0.997502
0.997502
0.997499
0.997497
0.997494
0.997492
0.997492
0.997489
0.997487
0.997484
0.997482
0.997482
0.997479
0.997477
0.997474
0.997472
0.997472
0.997469
0.997467
0.997464
0.997462
0.997462
0.997459
0.997457
0.997454
0.997452
0.997452
0.997449
0.997447
0.997444
0.997442
0.997442
0.997439
0.997437
0.997434
0.997432
0.997432
0.997429
0.997427
0.997424
0.997422
0.997422
0.997419
0.997416
0.997414
0.997411
0.997411
0.997409
0.997406
0.997404
0.997401
0.997401
0.997399
0.997396
0.997394
0.997391
0.997391
0.997388
0.997386
0.997383
0.997381
0.997381
0.997378
0.997376
0.997373
0.997371
0.997371
0.997368
0.997365
0.997363
0.99736
0.99736
0.997358
0.997355
0.997353
0.99735
0.99735
0.997347
0.997345
0.997342
0.99734
0.99734
0.997337
0.997334
0.997332
0.997329
0.997329
0.997327
0.997324
0.997322
0.997319
0.997319
0.997316
0.997314
0.997311
0.997309
0.997309
0.997306
0.997304
0.997301
0.997298
0.997298
0.997296
0.997293
0.997291
0.997288
0.997288
0.997286
0.997283
0.997281
0.997278
0.997278
0.997275
0.997273
0.99727
0.997268
0.997268
0.997265
0.997263
0.99726