<?xml version="1.0"?>
<VTKFile type="UnstructuredGrid" version="0.1" byte_order="LittleEndian">
<UnstructuredGrid>
<Piece NumberOfPoints="5000" NumberOfCells="4000">
<PointData Scalars="Reaction 0">
<DataArray type="Float32" Name="Reaction 0" format="ascii">
0.838435
0.838435
0.838435
0.838435
0.838435
0.838435
0.838435
0.838435
0.838435
0.838435
0.838435
0.838435
0.838435
0.838435
0.838435
0.838435
0.838435
0.838435
0.838435
0.838435
0.838435
0.838435
0.838435
0.838436
0.838436
0.838436
0.838436
0.838436
0.838436
0.838436
0.838436
0.838436
0.838436
0.838436
0.838436
0.838436
0.838436
0.838436
0.838436
0.838436
0.838436
0.838437
0.838437
0.838437
0.838437
0.838437
0.838437
0.838437
0.838437
0.838437
0.838437
0.838437
0.838437
0.838438
0.838438
0.838438
0.838438
0.838438
0.838438
0.838438
0.838438
0.838438
0.838438
0.838439
0.838439
0.838439
0.838439
0.838439
0.838439
0.838439
0.838439
0.838439
0.83844
0.83844
0.83844
0.83844
0.83844
0.83844
0.83844
0.838441
0.838441
0.838441
0.838441
0.838441
0.838441
0.838441
0.838442
0.838442
0.838442
0.838442
0.838442
0.838442
0.838443
0.838443
0.838443
0.838443
0.838443
0.838443
0.838444
0.838444
0.838444
0.838444
0.838444
0.838444
0.838445
0.838445
0.838445
0.838445
0.838445
0.838446
0.838446
0.838446
0.838446
0.838446
0.838447
0.838447
0.838447
0.838447
0.838447
0.838448
0.838448
0.838448
0.838448
0.838448
0.838449
0.838449
0.838449
0.838449
0.83845
0.83845
0.83845
0.83845
0.83845
0.838451
0.838451
0.838451
0.838451
0.838452
0.838452
0.838452
0.838452
0.838453
0.838453
0.838453
0.838453
0.838453
0.838454
0.838454
0.838454
0.838455
0.838455
0.838455
0.838455
0.838456
0.838456
0.838456
0.838456
0.838457
0.838457
0.838457
0.838457
0.838458
0.838458
0.838459
0.838459
0.838459
0.838459
0.83846
0.83846
0.83846
0.83846
0.838461
0.838461
0.838462
0.838462
0.838462
0.838462
0.838463
0.838463
0.838463
0.838463
0.838464
0.838464
0.838465
0.838465
0.838465
0.838465
0.838466
0.838466
0.838467
0.838467
0.838467
0.838468
0.838468
0.838468
0.838468
0.838469
0.838469
0.83847
0.83847
0.83847
0.838471
0.838471
0.838471
0.838472
0.838472
0.838472
0.838473
0.838473
0.838474
0.838474
0.838474
0.838475
0.838475
0.838476
0.838476
0.838476
0.838477
0.838477
0.838477
0.838477
0.838478
0.838478
0.838479
0.838479
0.838479
0.83848
0.83848
0.838481
0.838481
0.838481
0.838482
0.838482
0.838483
0.838483
0.838483
0.838484
0.838485
0.838485
0.838486
0.838486
0.838486
0.838487
0.838487
0.838488
0.838488
0.838488
0.838489
0.838489
0.83849
0.83849
0.83849
0.838491
0.838492
0.838492
0.838492
0.838493
0.838493
0.838494
0.838494
0.838494
0.838495
0.838495
0.838496
0.838497
0.838497
0.838497
0.838498
0.838498
0.838499
0.838499
0.8385
0.8385
0.838501
0.838501
0.838501
0.838502
0.838503
0.838503
0.838504
0.838504
0.838504
0.838505
0.838506
0.838506
0.838506
0.838507
0.838508
0.838508
0.838509
0.838509
0.838509
0.83851
0.838511
0.838511
0.838511
0.838512
0.838513
0.838513
0.838514
0.838514
0.838515
0.838515
0.838516
0.838517
0.838517
0.838517
0.838518
0.838519
0.838519
0.838519
0.83852
0.838521
0.838521
0.838522
0.838522
0.838523
0.838523
0.838524
0.838525
0.838525
0.838526
0.838526
0.838527
0.838528
0.838528
0.838528
0.838529
0.83853
0.838531
0.838531
0.838531
0.838532
0.838533
0.838533
0.838533
0.838534
0.838535
0.838536
0.838536
0.838536
0.838537
0.838538
0.838539
0.838539
0.838539
0.83854
0.838541
0.838542
0.838543
0.838543
0.838543
0.838544
0.838545
0.838546
0.838546
0.838546
0.838547
0.838548
0.838549
0.838549
0.83855
0.83855
0.838551
0.838552
0.838552
0.838553
0.838554
0.838554
0.838555
0.838555
0.838556
0.838557
0.838558
0.838558
0.838558
0.838559
0.83856
0.838561
0.838562
0.838562
0.838563
0.838563
0.838564
0.838565
0.838565
0.838566
0.838567
0.838568
0.838568
0.838568
0.838569
0.83857
0.838571
0.838572
0.838572
0.838573
0.838574
0.838575
0.838575
0.838575
0.838576
0.838577
0.838578
0.838579
0.838579
0.83858
0.838581
0.838582
0.838583
0.838583
0.838583
0.838584
0.838585
0.838586
0.838586
0.838587
0.838588
0.838589
0.83859
0.83859
0.838591
0.838592
0.838593
0.838593
0.838593
0.838594
0.838595
0.838596
0.838597
0.838597
0.838598
0.838599
0.8386
0.838601
0.838601
0.838602
0.838603
0.838604
0.838605
0.838605
0.838606
0.838607
0.838608
0.838609
0.838609
0.83861
0.838611
0.838612
0.838613
0.838613
0.838614
0.838615
0.838616
0.838617
0.838617
0.838618
0.838619
0.83862
0.838621
0.838621
0.838622
0.838623
0.838624
0.838625
0.838625
0.838626
0.838627
0.838628
0.838629
0.838629
0.83863
0.838631
0.838632
0.838633
0.838633
0.838634
0.838635
0.838636
0.838637
0.838637
0.838638
0.838639
0.83864
0.838641
0.838641
0.838642
0.838644
0.838645
0.838646
0.838646
0.838647
0.838648
0.838649
0.83865
0.83865
0.838651
0.838652
0.838653
0.838654
0.838654
0.838655
0.838657
0.838658
0.838659
0.838659
0.83866
0.838661
0.838662
0.838663
0.838663
0.838664
0.838665
0.838667
0.838668
0.838668
0.838669
0.83867
0.838671
0.838672
0.838672
0.838673
0.838675
0.838676
0.838677
0.838677
0.838678
0.838679
0.83868
0.838681
0.838681
0.838683
0.838684
0.838685
0.838686
0.838686
0.838687
0.838688
0.83869
0.838691
0.838691
0.838692
0.838693
0.838694
0.838696
0.838696
0.838697
0.838698
0.838699
0.8387
0.8387
0.838702
0.838703
0.838704
0.838705
0.838705
0.838706
0.838708
0.838709
0.83871
0.83871
0.838711
0.838713
0.838714
0.838715
0.838715
0.838716
0.838718
0.838719
0.83872
0.83872
0.838721
0.838723
0.838724
0.838725
0.838725
0.838726
0.838728
0.838729
0.83873
0.83873
0.838731
0.838733
0.838734
0.838735
0.838735
0.838736
0.838738
0.838739
0.83874
0.83874
0.838742
0.838743
0.838744
0.838745
0.838745
0.838747
0.838748
0.838749
0.838751
0.838751
0.838752
0.838753
0.838755
0.838756
0.838756
0.838757
0.838759
0.83876
0.838761
0.838761
0.838763
0.838764
0.838765
0.838767
0.838767
0.838768
0.838769
0.838771
0.838772
0.838772
0.838773
0.838775
0.838776
0.838777
0.838777
0.838779
0.83878
0.838782
0.838783
0.838783
0.838784
0.838786
0.838787
0.838789
0.838789
0.83879
0.838791
0.838793
0.838794
0.838794
0.838796
0.838797
0.838798
0.8388
0.8388
0.838801
0.838803
0.838804
0.838806
0.838806
0.838807
0.838808
0.83881
0.838811
0.838811
0.838813
0.838814
0.838816
0.838817
0.838817
0.838819
0.83882
0.838821
0.838823
0.838823
0.838824
0.838826
0.838827
0.838829
0.838829
0.83883
0.838832
0.838833
0.838835
0.838835
0.838836
0.838838
0.838839
0.838841
0.838841
0.838842
0.838844
0.838845
0.838847
0.838847
0.838848
0.83885
0.838851
0.838853
0.838853
0.838854
0.838856
0.838857
0.838859
0.838859
0.83886
0.838862
0.838863
0.838865
0.838865
0.838866
0.838868
0.838869
0.838871
0.838871
0.838872
0.838874
0.838876
0.838877
0.838877
0.838879
0.83888
0.838882
0.838883
0.838883
0.838885
0.838887
0.838888
0.83889
0.83889
0.838891
0.838893
0.838894
0.838896
0.838896
0.838898
0.838899
0.838901
0.838902
0.838902
0.838904
0.838906
0.838907
0.838909
0.838909
0.83891
0.838912
0.838914
0.838915
0.838915
0.838917
0.838918
0.83892
0.838922
0.838922
0.838923
0.838925
0.838927
0.838928
0.838928
0.83893
0.838932
0.838933
0.838935
0.838935
0.838937
0.838938
0.83894
0.838942
0.838942
0.838943
0.838945
0.838947
0.838948
0.838948
0.83895
0.838952
0.838953
0.838955
0.838955
0.838957
0.838958
0.83896
0.838962
0.838962
0.838963
0.838965
0.838967
0.838969
0.838969
0.83897
0.838972
0.838974
0.838975
0.838975
0.838977
0.838979
0.838981
0.838982
0.838982
0.838984
0.838986
0.838987
0.838989
0.838989
0.838991
0.838993
0.838994
0.838996
0.838996
0.838998
0.839
0.839001
0.839003
0.839003
0.839005
0.839007
0.839009
0.83901
0.83901
0.839012
0.839014
0.839016
0.839017
0.839017
0.839019
0.839021
0.839023
0.839025
0.839025
0.839026
0.839028
0.83903
0.839032
0.839032
0.839034
0.839035
0.839037
0.839039
0.839039
0.839041
0.839043
0.839045
0.839046
0.839046
0.839048
0.83905
0.839052
0.839054
0.839054
0.839056
0.839057
0.839059
0.839061
0.839061
0.839063
0.839065
0.839067
0.839068
0.839068
0.83907
0.839072
0.839074
0.839076
0.839076
0.839078
0.83908
0.839082
0.839083
0.839083
0.839085
0.839087
0.839089
0.839091
0.839091
0.839093
0.839095
0.839097
0.839099
0.839099
0.839101
0.839102
0.839104
0.839106
0.839106
0.839108
0.83911
0.839112
0.839114
0.839114
0.839116
0.839118
0.83912
0.839122
0.839122
0.839124
0.839126
0.839128
0.839129
0.839129
0.839131
0.839133
0.839135
0.839137
0.839137
0.839139
0.839141
0.839143
0.839145
0.839145
0.839147
0.839149
0.839151
0.839153
0.839153
0.839155
0.839157
0.839159
0.839161
0.839161
0.839163
0.839165
0.839167
0.839169
0.839169
0.839171
0.839173
0.839175
0.839177
0.839177
0.839179
0.839181
0.839183
0.839185
0.839185
0.839187
0.839189
0.839191
0.839193
0.839193
0.839195
0.839197
0.839199
0.839201
0.839201
0.839203
0.839205
0.839208
0.83921
0.83921
0.839212
0.839214
0.839216
0.839218
0.839218
0.83922
0.839222
0.839224
0.839226
0.839226
0.839228
0.83923
0.839232
0.839234
0.839234
0.839237
0.839239
0.839241
0.839243
0.839243
0.839245
0.839247
0.839249
0.839251
0.839251
0.839253
0.839256
0.839258
0.83926
0.83926
0.839262
0.839264
0.839266
0.839268
0.839268
0.83927
0.839273
0.839275
0.839277
0.839277
0.839279
0.839281
0.839283
0.839285
0.839285
0.839288
0.83929
0.839292
0.839294
0.839294
0.839296
0.839298
0.839301
0.839303
0.839303
0.839305
0.839307
0.839309
0.839312
0.839312
0.839314
0.839316
0.839318
0.83932
0.83932
0.839323
0.839325
0.839327
0.839329
0.839329
0.839331
0.839334
0.839336
0.839338
0.839338
0.83934
0.839342
0.839345
0.839347
0.839347
0.839349
0.839351
0.839354
0.839356
0.839356
0.839358
0.83936
0.839363
0.839365
0.839365
0.839367
0.839369
0.839372
0.839374
0.839374
0.839376
0.839378
0.839381
0.839383
0.839383
0.839385
0.839388
0.83939
0.839392
0.839392
0.839394
0.839397
0.839399
0.839401
0.839401
0.839404
0.839406
0.839408
0.83941
0.83941
0.839413
0.839415
0.839417
0.83942
0.83942
0.839422
0.839424
0.839427
0.839429
0.839429
0.839431
0.839434
0.839436
0.839438
0.839438
0.839441
0.839443
0.839445
0.839448
0.839448
0.83945
0.839452
0.839455
0.839457
0.839457
0.839459
0.839462
0.839464
0.839466
0.839466
0.839469
0.839471
0.839474
0.839476
0.839476
0.839478
0.839481
0.839483
0.839485
0.839485
0.839488
0.83949
0.839493
0.839495
0.839495
0.839497
0.8395
0.839502
0.839505
0.839505
0.839507
0.839509
0.839512
0.839514
0.839514
0.839517
0.839519
0.839522
0.839524
0.839524
0.839527
0.839529
0.839531
0.839534
0.839534
0.839536
0.839539
0.839541
0.839544
0.839544
0.839546
0.839549
0.839551
0.839554
0.839554
0.839556
0.839559
0.839561
0.839564
0.839564
0.839566
0.839569
0.839571
0.839574
0.839574
0.839576
0.839579
0.839581
0.839584
0.839584
0.839586
0.839589
0.839591
0.839594
0.839594
0.839596
0.839599
0.839601
0.839604
0.839604
0.839606
0.839609
0.839611
0.839614
0.839614
0.839616
0.839619
0.839622
0.839624
0.839624
0.839627
0.839629
0.839632
0.839634
0.839634
0.839637
0.839639
0.839642
0.839645
0.839645
0.839647
0.83965
0.839652
0.839655
0.839655
0.839657
0.83966
0.839663
0.839665
0.839665
0.839668
0.83967
0.839673
0.839676
0.839676
0.839678
0.839681
0.839683
0.839686
0.839686
0.839689
0.839691
0.839694
0.839697
0.839697
0.839699
0.839702
0.839704
0.839707
0.839707
0.83971
0.839712
0.839715
0.839718
0.839718
0.83972
0.839723
0.839726
0.839728
0.839728
0.839731
0.839734
0.839736
0.839739
0.839739
0.839742
0.839744
0.839747
0.83975
0.83975
0.839752
0.839755
0.839758
0.83976
0.83976
0.839763
0.839766
0.839768
0.839771
0.839771
0.839774
0.839776
0.839779
0.839782
0.839782
0.839785
0.839787
0.83979
0.839793
0.839793
0.839795
0.839798
0.839801
0.839804
0.839804
0.839806
0.839809
0.839812
0.839815
0.839815
0.839817
0.83982
0.839823
0.839826
0.839826
0.839828
0.839831
0.839834
0.839837
0.839837
0.839839
0.839842
0.839845
0.839848
0.839848
0.83985
0.839853
0.839856
0.839859
0.839859
0.839862
0.839864
0.839867
0.83987
0.83987
0.839873
0.839876
0.839878
0.839881
0.839881
0.839884
0.839887
0.83989
0.839892
0.839892
0.839895
0.839898
0.839901
0.839904
0.839904
0.839907
0.839909
0.839912
0.839915
0.839915
0.839918
0.839921
0.839924
0.839927
0.839927
0.839929
0.839932
0.839935
0.839938
0.839938
0.839941
0.839944
0.839947
0.839949
0.839949
0.839952
0.839955
0.839958
0.839961
0.839961
0.839964
0.839967
0.83997
0.839972
0.839972
0.839975
0.839978
0.839981
0.839984
0.839984
0.839987
0.83999
0.839993
0.839996
0.839996
0.839999
0.840002
0.840004
0.840007
0.840007
0.84001
0.840013
0.840016
0.840019
0.840019
0.840022
0.840025
0.840028
0.840031
0.840031
0.840034
0.840037
0.84004
0.840043
0.840043
0.840046
0.840049
0.840052
0.840055
0.840055
0.840058
0.840061
0.840064
0.840067
0.840067
0.840069
0.840072
0.840075
0.840078
0.840078
0.840081
0.840084
0.840087
0.84009
0.84009
0.840093
0.840096
0.840099
0.840102
0.840102
0.840105
0.840108
0.840112
0.840115
0.840115
0.840118
0.840121
0.840124
0.840127
0.840127
0.84013
0.840133
0.840136
0.840139
0.840139
0.840142
0.840145
0.840148
0.840151
0.840151
0.840154
0.840157
0.84016
0.840163
0.840163
0.840166
0.840169
0.840172
0.840175
0.840175
0.840179
0.840182
0.840185
0.840188
0.840188
0.840191
0.840194
0.840197
0.8402
0.8402
0.840203
0.840206
0.840209
0.840212
0.840212
0.840215
0.840219
0.840222
0.840225
0.840225
0.840228
0.840231
0.840234
0.840237
0.840237
0.84024
0.840243
0.840247
0.84025
0.84025
0.840253
0.840256
0.840259
0.840262
0.840262
0.840266
0.840269
0.840272
0.840275
0.840275
0.840278
0.840281
0.840285
0.840288
0.840288
0.840291
0.840294
0.840297
0.840301
0.840301
0.840304
0.840307
0.84031
0.840313
0.840313
0.840317
0.84032
0.840323
0.840326
0.840326
0.84033
0.840333
0.840336
0.840339
0.840339
0.840342
0.840346
0.840349
0.840352
0.840352
0.840355
0.840359
0.840362
0.840365
0.840365
0.840368
0.840372
0.840375
0.840378
0.840378
0.840381
0.840385
0.840388
0.840391
0.840391
0.840394
0.840398
0.840401
0.840404
0.840404
0.840408
0.840411
0.840414
0.840417
0.840417
0.840421
0.840424
0.840427
0.840431
0.840431
0.840434
0.840437
0.84044
0.840444
0.840444
0.840447
0.84045
0.840454
0.840457
0.840457
0.84046
0.840464
0.840467
0.84047
0.84047
0.840474
0.840477
0.84048
0.840484
0.840484
0.840487
0.84049
0.840494
0.840497
0.840497
0.8405
0.840504
0.840507
0.84051
0.84051
0.840514
0.840517
0.840521
0.840524
0.840524
0.840527
0.840531
0.840534
0.840537
0.840537
0.840541
0.840544
0.840548
0.840551
0.840551
0.840554
0.840558
0.840561
0.840565
0.840565
0.840568
0.840571
0.840575
0.840578
0.840578
0.840582
0.840585
0.840588
0.840592
0.840592
0.840595
0.840599
0.840602
0.840606
0.840606
0.840609
0.840612
0.840616
0.840619
0.840619
0.840623
0.840626
0.84063
0.840633
0.840633
0.840637
0.84064
0.840643
0.840647
0.840647
0.84065
0.840654
0.840657
0.840661
0.840661
0.840664
0.840668
0.840671
0.840675
0.840675
0.840678
0.840682
0.840685
0.840689
0.840689
0.840692
0.840696
0.840699
0.840703
0.840703
0.840706
0.84071
0.840713
0.840717
0.840717
0.84072
0.840724
0.840727
0.840731
0.840731
0.840734
0.840738
0.840742
0.840745
0.840745
0.840749
0.840752
0.840756
0.840759
0.840759
0.840763
0.840766
0.84077
0.840774
0.840774
0.840777
0.840781
0.840784
0.840788
0.840788
0.840791
0.840795
0.840799
0.840802
0.840802
0.840806
0.840809
0.840813
0.840817
0.840817
0.84082
0.840824
0.840827
0.840831
0.840831
0.840835
0.840838
0.840842
0.840845
0.840845
0.840849
0.840853
0.840856
0.84086
0.84086
0.840863
0.840867
0.840871
0.840874
0.840874
0.840878
0.840882
0.840885
0.840889
0.840889
0.840893
0.840896
0.8409
0.840903
0.840903
0.840907
0.840911
0.840914
0.840918
0.840918
0.840922
0.840925
0.840929
0.840933
0.840933
0.840936
0.84094
0.840944
0.840947
0.840947
0.840951
0.840955
0.840958
0.840962
0.840962
0.840966
0.840969
0.840973
0.840977
0.840977
0.840981
0.840984
0.840988
0.840992
0.840992
0.840995
0.840999
0.841003
0.841007
0.841007
0.84101
0.841014
0.841018
0.841022
0.841022
0.841025
0.841029
0.841033
0.841037
0.841037
0.84104
0.841044
0.841048
0.841052
0.841052
0.841056
0.841059
0.841063
0.841067
0.841067
0.841071
0.841075
0.841078
0.841082
0.841082
0.841086
0.84109
0.841094
0.841097
0.841097
0.841101
0.841105
0.841109
0.841113
0.841113
0.841117
0.84112
0.841124
0.841128
0.841128
0.841132
0.841136
0.84114
0.841143
0.841143
0.841147
0.841151
0.841155
0.841159
0.841159
0.841163
0.841166
0.84117
0.841174
0.841174
0.841178
0.841182
0.841186
0.84119
0.84119
0.841193
0.841197
0.841201
0.841205
0.841205
0.841209
0.841213
0.841217
0.841221
0.841221
0.841225
0.841228
0.841232
0.841236
0.841236
0.84124
0.841244
0.841248
0.841252
0.841252
0.841256
0.84126
0.841264
0.841267
0.841267
0.841271
0.841275
0.841279
0.841283
0.841283
0.841287
0.841291
0.841295
0.841299
0.841299
0.841303
0.841307
0.841311
0.841315
0.841315
0.841319
0.841323
0.841327
0.841331
0.841331
0.841334
0.841338
0.841342
0.841346
0.841346
0.84135
0.841354
0.841358
0.841362
0.841362
0.841366
0.84137
0.841374
0.841378
0.841378
0.841382
0.841386
0.84139
0.841394
0.841394
0.841398
0.841402
0.841406
0.84141
0.84141
0.841414
0.841418
0.841422
0.841426
0.841426
0.84143
0.841434
0.841438
0.841442
0.841442
0.841447
0.841451
0.841455
0.841459
0.841459
0.841463
0.841467
0.841471
0.841475
0.841475
0.841479
0.841483
0.841487
0.841491
0.841491
0.841495
0.841499
0.841503
0.841507
0.841507
0.841511
0.841516
0.84152
0.841524
0.841524
0.841528
0.841532
0.841536
0.84154
0.84154
0.841544
0.841548
0.841552
0.841557
0.841557
0.841561
0.841565
0.841569
0.841573
0.841573
0.841577
0.841581
0.841585
0.84159
0.84159
0.841594
0.841598
0.841602
0.841606
0.841606
0.84161
0.841614
0.841618
0.841623
0.841623
0.841627
0.841631
0.841635
0.841639
0.841639
0.841643
0.841648
0.841652
0.841656
0.841656
0.84166
0.841664
0.841668
0.841672
0.841672
0.841677
0.841681
0.841685
0.841689
0.841689
0.841693
0.841698
0.841702
0.841706
0.841706
0.84171
0.841714
0.841718
0.841723
0.841723
0.841727
0.841731
0.841735
0.841739
0.841739
0.841744
0.841748
0.841752
0.841756
0.841756
0.841761
0.841765
0.841769
0.841773
0.841773
0.841778
0.841782
0.841786
0.84179
0.84179
0.841795
0.841799
0.841803
0.841808
0.841808
0.841812
0.841816
0.84182
0.841825
0.841825
0.841829
0.841833
0.841838
0.841842
0.841842
0.841846
0.841851
0.841855
0.841859
0.841859
0.841864
0.841868
0.841872
0.841877
0.841877
0.841881
0.841885
0.84189
0.841894
0.841894
0.841898
0.841903
0.841907
0.841911
0.841911
0.841916
0.84192
0.841924
0.841929
0.841929
0.841933
0.841937
0.841942
0.841946
0.841946
0.84195
0.841955
0.841959
0.841964
0.841964
0.841968
0.841972
0.841977
0.841981
0.841981
0.841985
0.84199
0.841994
0.841999
0.841999
0.842003
0.842007
0.842012
0.842016
0.842016
0.842021
0.842025
0.842029
0.842034
0.842034
0.842038
0.842043
0.842047
0.842051
0.842051
0.842056
0.84206
0.842065
0.842069
0.842069
0.842074
0.842078
0.842082
0.842087
0.842087
0.842091
0.842096
0.8421
0.842105
0.842105
0.842109
0.842114
0.842118
0.842123
0.842123
0.842127
0.842131
0.842136
0.84214
0.84214
0.842145
0.842149
0.842154
0.842158
0.842158
0.842163
0.842167
0.842172
0.842176
0.842176
0.842181
0.842185
0.84219
0.842194
0.842194
0.842199
0.842203
0.842208
0.842212
0.842212
0.842217
0.842221
0.842226
0.84223
0.84223
0.842235
0.842239
0.842244
0.842249
0.842249
0.842253
0.842258
0.842262
0.842267
0.842267
0.842271
0.842276
0.84228
0.842285
0.842285
0.842289
0.842294
0.842299
0.842303
0.842303
0.842308
0.842312
0.842317
0.842321
0.842321
0.842326
0.842331
0.842335
0.84234
0.84234
0.842344
0.842349
0.842354
0.842358
0.842358
0.842363
0.842367
0.842372
0.842377
0.842377
0.842381
0.842386
0.84239
0.842395
0.842395
0.8424
0.842404
0.842409
0.842413
0.842413
0.842418
0.842423
0.842427
0.842432
0.842432
0.842437
0.842441
0.842446
0.84245
0.84245
0.842455
0.84246
0.842464
0.842469
0.842469
0.842474
0.842478
0.842483
0.842488
0.842488
0.842492
0.842497
0.842501
0.842506
0.842506
0.842511
0.842515
0.84252
0.842525
0.842525
0.84253
0.842534
0.842539
0.842544
0.842544
0.842548
0.842553
0.842558
0.842563
0.842563
0.842567
0.842572
0.842577
0.842582
0.842582
0.842586
0.842591
0.842596
0.842601
0.842601
0.842605
0.84261
0.842615
0.84262
0.84262
0.842624
0.842629
0.842634
0.842639
0.842639
0.842644
0.842648
0.842653
0.842658
0.842658
0.842663
0.842668
0.842672
0.842677
0.842677
0.842682
0.842687
0.842691
0.842696
0.842696
0.842701
0.842706
0.842711
0.842716
0.842716
0.84272
0.842725
0.84273
0.842735
0.842735
0.84274
0.842744
0.842749
0.842754
0.842754
0.842759
0.842764
0.842769
0.842773
0.842773
0.842778
0.842783
0.842788
0.842793
0.842793
0.842798
0.842802
0.842807
0.842812
0.842812
0.842817
0.842822
0.842827
0.842832
0.842832
0.842836
0.842841
0.842846
0.842851
0.842851
0.842856
0.842861
0.842866
0.842871
0.842871
0.842876
0.84288
0.842885
0.84289
0.84289
0.842895
0.8429
0.842905
0.84291
0.84291
0.842915
0.84292
0.842925
0.842929
0.842929
0.842934
0.842939
0.842944
0.842949
0.842949
0.842954
0.842959
0.842964
0.842969
0.842969
0.842974
0.842979
0.842984
0.842989
0.842989
0.842994
0.842999
0.843004
0.843009
0.843009
0.843013
0.843018
0.843023
0.843028
0.843028
0.843033
0.843038
0.843043
0.843048
0.843048
0.843053
0.843058
0.843063
0.843068
0.843068
0.843073
0.843078
0.843083
0.843088
0.843088
0.843093
0.843098
0.843103
0.843108
0.843108
0.843113
0.843118
0.843123
0.843128
0.843128
0.843133
0.843138
0.843143
0.843148
0.843148
0.843153
0.843158
0.843163
0.843168
0.843168
0.843173
0.843178
0.843183
0.843189
0.843189
0.843194
0.843199
0.843204
0.843209
0.843209
0.843214
0.843219
0.843224
0.843229
0.843229
0.843234
0.843239
0.843244
0.843249
0.843249
0.843254
0.843259
0.843264
0.843269
0.843269
0.843274
0.843279
0.843285
0.84329
0.84329
0.843295
0.8433
0.843305
0.84331
0.84331
0.843315
0.84332
0.843326
0.843331
0.843331
0.843336
0.843341
0.843346
0.843351
0.843351
0.843357
0.843362
0.843367
0.843372
0.843372
0.843377
0.843382
0.843388
0.843393
0.843393
0.843398
0.843403
0.843408
0.843414
0.843414
0.843419
0.843424
0.843429
0.843434
0.843434
0.84344
0.843445
0.84345
0.843455
0.843455
0.84346
0.843466
0.843471
0.843476
0.843476
0.843481
0.843486
0.843492
0.843497
0.843497
0.843502
0.843507
0.843513
0.843518
0.843518
0.843523
0.843528
0.843533
0.843539
0.843539
0.843544
0.843549
0.843554
0.84356
0.84356
0.843565
0.84357
0.843575
0.843581
0.843581
0.843586
0.843591
0.843596
0.843602
0.843602
0.843607
0.843612
0.843618
0.843623
0.843623
0.843628
0.843633
0.843639
0.843644
0.843644
0.843649
0.843655
0.84366
0.843665
0.843665
0.84367
0.843676
0.843681
0.843686
0.843686
0.843692
0.843697
0.843702
0.843708
0.843708
0.843713
0.843718
0.843724
0.843729
0.843729
0.843734
0.84374
0.843745
0.84375
0.84375
0.843756
0.843761
0.843766
0.843772
0.843772
0.843777
0.843782
0.843788
0.843793
0.843793
0.843798
0.843804
0.843809
0.843814
0.843814
0.84382
0.843825
0.843831
0.843836
0.843836
0.843841
0.843847
0.843852
0.843857
0.843857
0.843863
0.843868
0.843874
0.843879
0.843879
0.843884
0.84389
0.843895
0.843901
0.843901
0.843906
0.843911
0.843917
0.843922
0.843922
0.843928
0.843933
0.843938
0.843944
0.843944
0.843949
0.843955
0.84396
0.843965
0.843965
0.843971
0.843976
0.843982
0.843987
0.843987
0.843993
0.843998
0.844003
0.844009
0.844009
0.844014
0.84402
0.844025
0.844031
0.844031
0.844036
0.844042
0.844047
0.844052
0.844052
0.844058
0.844063
0.844069
0.844074
0.844074
0.84408
0.844085
0.844091
0.844097
0.844097
0.844102
0.844108
0.844113
0.844119
0.844119
0.844124
0.84413
0.844135
0.844141
0.844141
0.844147
0.844152
0.844158
0.844163
0.844163
0.844169
0.844174
0.84418
0.844185
0.844185
0.844191
0.844197
0.844202
0.844208
0.844208
0.844213
0.844219
0.844225
0.84423
0.84423
0.844236
0.844241
0.844247
0.844252
0.844252
0.844258
0.844264
0.844269
0.844275
0.844275
0.84428
0.844286
0.844292
0.844297
0.844297
0.844303
0.844308
0.844314
0.84432
0.84432
0.844325
0.844331
0.844337
0.844342
0.844342
0.844348
0.844353
0.844359
0.844365
0.844365
0.84437
0.844376
0.844382
0.844387
0.844387
0.844393
0.844399
0.844404
0.84441
0.84441
0.844415
0.844421
0.844427
0.844432
0.844432
0.844438
0.844444
0.844449
0.844455
0.844455
0.844461
0.844466
0.844472
0.844478
0.844478
0.844484
0.844489
0.844495
0.844501
0.844501
0.844506
0.844512
0.844518
0.844523
0.844523
0.844529
0.844535
0.844541
0.844546
0.844546
0.844552
0.844558
0.844563
0.844569
0.844569
0.844575
0.844581
0.844586
0.844592
0.844592
0.844598
0.844603
0.844609
0.844615
0.844615
0.844621
0.844626
0.844632
0.844638
0.844638
0.844644
0.844649
0.844655
0.844661
0.844661
0.844667
0.844672
0.844678
0.844684
0.844684
0.84469
0.844695
0.844701
0.844707
0.844707
0.844713
0.844718
0.844724
0.84473
0.84473
0.844736
0.844742
0.844747
0.844753
0.844753
0.844759
0.844765
0.84477
0.844776
0.844776
0.844782
0.844788
0.844794
0.844799
0.844799
0.844805
0.844811
0.844817
0.844823
0.844823
0.844828
0.844834
0.84484
0.844846
0.844846
0.844852
0.844858
0.844864
0.84487
0.84487
0.844875
0.844881
0.844887
0.844893
0.844893
0.844899
0.844905
0.844911
0.844917
0.844917
0.844923
0.844929
0.844935
0.844941
0.844941
0.844946
0.844952
0.844958
0.844964
0.844964
0.84497
0.844976
0.844982
0.844988
0.844988
0.844994
0.845
0.845006
0.845012
0.845012
0.845018
0.845024
0.845029
0.845035
0.845035
0.845041
0.845047
0.845053
0.845059
0.845059
0.845065
0.845071
0.845077
0.845083
0.845083
0.845089
0.845095
0.845101
0.845107
0.845107
0.845113
0.845119
0.845125
0.845131
0.845131
0.845137
0.845143
0.845149
0.845155
0.845155
0.845161
0.845167
0.845173
0.845179
0.845179
0.845185
0.845191
0.845197
0.845203
0.845203
0.845209
0.845215
0.845221
0.845227
0.845227
0.845233
0.845239
0.845245
0.845251
0.845251
0.845257
0.845263
0.845269
0.845275
0.845275
0.845281
0.845287
0.845293
0.845299
0.845299
0.845305
0.845311
0.845317
0.845323
0.845323
0.845329
0.845335
0.845341
0.845347
0.845347
0.845354
0.84536
0.845366
0.845372
0.845372
0.845378
0.845384
0.84539
0.845396
0.845396
0.845402
0.845408
0.845414
0.84542
0.84542
0.845426
0.845432
0.845439
0.845445
0.845445
0.845451
0.845457
0.845463
0.845469
0.845469
0.845475
0.845481
0.845487
0.845493
0.845493
0.845499
0.845506
0.845512
0.845518
0.845518
0.845524
0.84553
0.845536
0.845542
0.845542
0.845548
0.845554
0.845561
0.845567
0.845567
0.845573
0.845579
0.845585
0.845591
0.845591
0.845597
0.845604
0.84561
0.845616
0.845616
0.845622
0.845629
0.845635
0.845641
0.845641
0.845647
0.845653
0.84566
0.845666
0.845666
0.845672
0.845678
0.845685
0.845691
0.845691
0.845697
0.845703
0.84571
0.845716
0.845716
0.845722
0.845728
0.845735
0.845741
0.845741
0.845747
0.845753
0.84576
0.845766
0.845766
0.845772
0.845778
0.845785
0.845791
0.845791
0.845797
0.845803
0.84581
0.845816
0.845816
0.845822
0.845829
0.845835
0.845841
0.845841
0.845847
0.845854
0.84586
0.845866
0.845866
0.845873
0.845879
0.845885
0.845891
0.845891
0.845898
0.845904
0.84591
0.845917
0.845917
0.845923
0.845929
0.845936
0.845942
0.845942
0.845948
0.845954
0.845961
0.845967
0.845967
0.845973
0.84598
0.845986
0.845992
0.845992
0.845999
0.846005
0.846011
0.846018
0.846018
0.846024
0.846031
0.846037
0.846043
0.846043
0.84605
0.846056
0.846062
0.846069
0.846069
0.846075
0.846081
0.846088
0.846094
0.846094
0.8461
0.846107
0.846113
0.84612
0.84612
0.846126
0.846132
0.846139
0.846145
0.846145
0.846151
0.846158
0.846164
0.846171
0.846171
0.846177
0.846183
0.84619
0.846196
0.846196
0.846203
0.846209
0.846215
0.846222
0.846222
0.846228
0.846235
0.846241
0.846247
0.846247
0.846254
0.84626
0.846267
0.846273
0.846273
0.846279
0.846286
0.846292
0.846299
0.846299
0.846305
0.846311
0.846318
0.846324
0.846324
0.846331
0.846337
0.846344
0.84635
0.84635
0.846357
0.846363
0.84637
0.846376
0.846376
0.846383
0.846389
0.846396
0.846402
0.846402
0.846409
0.846415
0.846422
0.846428
0.846428
0.846435
0.846442
0.846448
0.846455
0.846455
0.846461
0.846468
0.846474
0.846481
0.846481
0.846487
0.846494
0.846501
0.846507
0.846507
0.846514
0.84652
0.846527
0.846533
0.846533
0.84654
0.846547
0.846553
0.84656
0.84656
0.846566
0.846573
0.846579
0.846586
0.846586
0.846593
0.846599
0.846606
0.846612
0.846612
0.846619
0.846626
0.846632
0.846639
0.846639
0.846645
0.846652
0.846658
0.846665
0.846665
0.846672
0.846678
0.846685
0.846692
0.846692
0.846698
0.846705
0.846711
0.846718
0.846718
0.846725
0.846731
0.846738
0.846744
0.846744
0.846751
0.846758
0.846764
0.846771
0.846771
0.846778
0.846784
0.846791
0.846798
0.846798
0.846804
0.846811
0.846818
0.846824
0.846824
0.846831
0.846838
0.846844
0.846851
0.846851
0.846857
0.846864
0.846871
0.846877
0.846877
0.846884
0.846891
0.846897
0.846904
0.846904
0.846911
0.846918
0.846924
0.846931
0.846931
0.846938
0.846944
0.846951
0.846958
0.846958
0.846964
0.846971
0.846978
0.846984
0.846984
0.846991
0.846998
0.847004
0.847011
0.847011
0.847018
0.847024
0.847031
0.847038
0.847038
0.847045
0.847051
0.847058
0.847065
0.847065
0.847071
0.847078
0.847085
0.847092
0.847092
0.847098
0.847105
0.847112
0.847119
0.847119
0.847126
0.847132
0.847139
0.847146
0.847146
0.847153
0.84716
0.847166
0.847173
0.847173
0.84718
0.847187
0.847194
0.847201
0.847201
0.847208
0.847214
0.847221
0.847228
0.847228
0.847235
0.847242
0.847249
0.847255
0.847255
0.847262
0.847269
0.847276
0.847283
0.847283
0.84729
0.847297
0.847303
0.84731
0.84731
0.847317
0.847324
0.847331
0.847338
0.847338
0.847345
0.847351
0.847358
0.847365
0.847365
0.847372
0.847379
0.847386
0.847393
0.847393
0.8474
0.847406
0.847413
0.84742
0.84742
0.847427
0.847434
0.847441
0.847448
0.847448
0.847455
0.847462
0.847468
0.847475
0.847475
0.847482
0.847489
0.847496
0.847503
0.847503
0.84751
0.847517
0.847524
0.847531
0.847531
0.847538
0.847545
0.847551
0.847558
0.847558
0.847565
0.847572
0.847579
0.847586
0.847586
0.847593
0.8476
0.847607
0.847614
0.847614
0.847621
0.847628
0.847635
0.847642
0.847642
0.847649
0.847656
0.847662
0.847669
0.847669
0.847676
0.847683
0.84769
0.847697
0.847697
0.847704
0.847711
0.847718
0.847725
0.847725
0.847732
0.847739
0.847746
0.847753
0.847753
0.84776
0.847767
0.847774
0.847781
0.847781
0.847788
0.847795
0.847802
0.847809
0.847809
0.847816
0.847823
0.84783
0.847837
0.847837
0.847844
0.847851
0.847858
0.847865
0.847865
0.847872
0.847879
0.847886
0.847893
0.847893
0.8479
0.847907
0.847915
0.847922
0.847922
0.847929
0.847936
0.847943
0.84795
0.84795
0.847957
0.847964
0.847971
0.847979
0.847979
0.847986
0.847993
0.848
0.848007
0.848007
0.848014
0.848021
0.848028
0.848036
0.848036
0.848043
0.84805
0.848057
0.848064
0.848064
0.848071
0.848078
0.848085
0.848093
0.848093