<?xml version="1.0"?>
<VTKFile type="UnstructuredGrid" version="0.1" byte_order="LittleEndian">
<UnstructuredGrid>
<Piece NumberOfPoints="5000" NumberOfCells="4000">
<PointData Scalars="Reaction 0">
<DataArray type="Float32" Name="Reaction 0" format="ascii">
0.555536
0.555536
0.555536
0.555536
0.555536
0.555536
0.555536
0.555537
0.555537
0.555537
0.555537
0.555537
0.555538
0.555538
0.555539
0.555539
0.555539
0.55554
0.55554
0.555541
0.555541
0.555541
0.555542
0.555543
0.555543
0.555543
0.555544
0.555545
0.555546
0.555546
0.555546
0.555547
0.555548
0.555549
0.55555
0.55555
0.555551
0.555552
0.555553
0.555555
0.555555
0.555556
0.555557
0.555558
0.55556
0.55556
0.555561
0.555562
0.555564
0.555565
0.555565
0.555567
0.555568
0.55557
0.555571
0.555571
0.555573
0.555574
0.555576
0.555578
0.555578
0.55558
0.555581
0.555583
0.555585
0.555585
0.555587
0.555589
0.555591
0.555593
0.555593
0.555595
0.555597
0.555599
0.555601
0.555601
0.555604
0.555606
0.555608
0.55561
0.55561
0.555613
0.555615
0.555618
0.55562
0.55562
0.555623
0.555625
0.555628
0.55563
0.55563
0.555633
0.555636
0.555638
0.555641
0.555641
0.555644
0.555647
0.555649
0.555652
0.555652
0.555655
0.555658
0.555661
0.555664
0.555664
0.555667
0.555671
0.555674
0.555677
0.555677
0.55568
0.555683
0.555687
0.55569
0.55569
0.555693
0.555697
0.5557
0.555704
0.555704
0.555707
0.555711
0.555714
0.555718
0.555718
0.555722
0.555725
0.555729
0.555733
0.555733
0.555737
0.55574
0.555744
0.555748
0.555748
0.555752
0.555756
0.55576
0.555764
0.555764
0.555768
0.555772
0.555777
0.555781
0.555781
0.555785
0.555789
0.555794
0.555798
0.555798
0.555802
0.555807
0.555811
0.555816
0.555816
0.55582
0.555825
0.555829
0.555834
0.555834
0.555839
0.555843
0.555848
0.555853
0.555853
0.555858
0.555863
0.555868
0.555872
0.555872
0.555877
0.555882
0.555888
0.555893
0.555893
0.555898
0.555903
0.555908
0.555913
0.555913
0.555919
0.555924
0.555929
0.555935
0.555935
0.55594
0.555945
0.555951
0.555956
0.555956
0.555962
0.555968
0.555973
0.555979
0.555979
0.555985
0.55599
0.555996
0.556002
0.556002
0.556008
0.556014
0.556019
0.556025
0.556025
0.556031
0.556037
0.556044
0.55605
0.55605
0.556056
0.556062
0.556068
0.556074
0.556074
0.556081
0.556087
0.556093
0.5561
0.5561
0.556106
0.556113
0.556119
0.556126
0.556126
0.556132
0.556139
0.556145
0.556152
0.556152
0.556159
0.556166
0.556172
0.556179
0.556179
0.556186
0.556193
0.5562
0.556207
0.556207
0.556214
0.556221
0.556228
0.556235
0.556235
0.556242
0.55625
0.556257
0.556264
0.556264
0.556271
0.556279
0.556286
0.556294
0.556294
0.556301
0.556308
0.556316
0.556324
0.556324
0.556331
0.556339
0.556346
0.556354
0.556354
0.556362
0.55637
0.556378
0.556385
0.556385
0.556393
0.556401
0.556409
0.556417
0.556417
0.556425
0.556433
0.556441
0.55645
0.55645
0.556458
0.556466
0.556474
0.556483
0.556483
0.556491
0.556499
0.556508
0.556516
0.556516
0.556525
0.556533
0.556542
0.55655
0.55655
0.556559
0.556567
0.556576
0.556585
0.556585
0.556594
0.556602
0.556611
0.55662
0.55662
0.556629
0.556638
0.556647
0.556656
0.556656
0.556665
0.556674
0.556683
0.556693
0.556693
0.556702
0.556711
0.55672
0.55673
0.55673
0.556739
0.556748
0.556758
0.556767
0.556767
0.556777
0.556786
0.556796
0.556806
0.556806
0.556815
0.556825
0.556835
0.556844
0.556844
0.556854
0.556864
0.556874
0.556884
0.556884
0.556894
0.556904
0.556914
0.556924
0.556924
0.556934
0.556944
0.556954
0.556964
0.556964
0.556975
0.556985
0.556995
0.557006
0.557006
0.557016
0.557026
0.557037
0.557047
0.557047
0.557058
0.557068
0.557079
0.55709
0.55709
0.5571
0.557111
0.557122
0.557133
0.557133
0.557143
0.557154
0.557165
0.557176
0.557176
0.557187
0.557198
0.557209
0.55722
0.55722
0.557231
0.557243
0.557254
0.557265
0.557265
0.557276
0.557288
0.557299
0.55731
0.55731
0.557322
0.557333
0.557345
0.557356
0.557356
0.557368
0.557379
0.557391
0.557403
0.557403
0.557414
0.557426
0.557438
0.55745
0.55745
0.557462
0.557473
0.557485
0.557497
0.557497
0.557509
0.557521
0.557533
0.557546
0.557546
0.557558
0.55757
0.557582
0.557594
0.557594
0.557607
0.557619
0.557631
0.557644
0.557644
0.557656
0.557669
0.557681
0.557694
0.557694
0.557706
0.557719
0.557732
0.557744
0.557744
0.557757
0.55777
0.557783
0.557796
0.557796
0.557809
0.557822
0.557834
0.557847
0.557847
0.557861
0.557874
0.557887
0.5579
0.5579
0.557913
0.557926
0.55794
0.557953
0.557953
0.557966
0.55798
0.557993
0.558006
0.558006
0.55802
0.558033
0.558047
0.558061
0.558061
0.558074
0.558088
0.558102
0.558115
0.558115
0.558129
0.558143
0.558157
0.558171
0.558171
0.558185
0.558199
0.558213
0.558227
0.558227
0.558241
0.558255
0.558269
0.558283
0.558283
0.558297
0.558312
0.558326
0.55834
0.55834
0.558355
0.558369
0.558384
0.558398
0.558398
0.558413
0.558427
0.558442
0.558456
0.558456
0.558471
0.558486
0.558501
0.558515
0.558515
0.55853
0.558545
0.55856
0.558575
0.558575
0.55859
0.558605
0.55862
0.558635
0.558635
0.55865
0.558665
0.55868
0.558696
0.558696
0.558711
0.558726
0.558742
0.558757
0.558757
0.558772
0.558788
0.558803
0.558819
0.558819
0.558834
0.55885
0.558866
0.558881
0.558881
0.558897
0.558913
0.558929
0.558944
0.558944
0.55896
0.558976
0.558992
0.559008
0.559008
0.559024
0.55904
0.559056
0.559072
0.559072
0.559088
0.559105
0.559121
0.559137
0.559137
0.559154
0.55917
0.559186
0.559203
0.559203
0.559219
0.559236
0.559252
0.559269
0.559269
0.559285
0.559302
0.559319
0.559335
0.559335
0.559352
0.559369
0.559386
0.559403
0.559403
0.55942
0.559437
0.559454
0.559471
0.559471
0.559488
0.559505
0.559522
0.559539
0.559539
0.559556
0.559573
0.559591
0.559608
0.559608
0.559625
0.559643
0.55966
0.559678
0.559678
0.559695
0.559713
0.55973
0.559748
0.559748
0.559766
0.559783
0.559801
0.559819
0.559819
0.559837
0.559855
0.559872
0.55989
0.55989
0.559908
0.559926
0.559944
0.559962
0.559962
0.55998
0.559997
0.560014
0.560031
0.560031
0.560048
0.560065
0.560082
0.560099
0.560099
0.560116
0.560132
0.560149
0.560166
0.560166
0.560183
0.5602
0.560217
0.560234
0.560234
0.560251
0.560268
0.560286
0.560303
0.560303
0.56032
0.560337
0.560354
0.560372
0.560372
0.560389
0.560406
0.560424
0.560441
0.560441
0.560459
0.560476
0.560494
0.560511
0.560511
0.560529
0.560547
0.560564
0.560582
0.560582
0.5606
0.560618
0.560635
0.560653
0.560653
0.560671
0.560689
0.560707
0.560725
0.560725
0.560743
0.560761
0.560779
0.560797
0.560797
0.560816
0.560834
0.560852
0.56087
0.56087
0.560889
0.560907
0.560925
0.560944
0.560944
0.560962
0.560981
0.560999
0.561018
0.561018
0.561036
0.561055
0.561074
0.561092
0.561092
0.561111
0.56113
0.561148
0.561167
0.561167
0.561186
0.561205
0.561224
0.561243
0.561243
0.561262
0.561281
0.5613
0.561319
0.561319
0.561338
0.561357
0.561376
0.561396
0.561396
0.561415
0.561434
0.561454
0.561473
0.561473
0.561492
0.561512
0.561531
0.561551
0.561551
0.56157
0.56159
0.561609
0.561629
0.561629
0.561649
0.561668
0.561688
0.561708
0.561708
0.561728
0.561747
0.561767
0.561787
0.561787
0.561807
0.561827
0.561847
0.561867
0.561867
0.561887
0.561907
0.561928
0.561948
0.561948
0.561968
0.561988
0.562008
0.562029
0.562029
0.562049
0.562069
0.56209
0.56211
0.56211
0.562131
0.562151
0.562172
0.562192
0.562192
0.562213
0.562234
0.562254
0.562275
0.562275
0.562296
0.562317
0.562337
0.562358
0.562358
0.562379
0.5624
0.562421
0.562442
0.562442
0.562463
0.562484
0.562505
0.562526
0.562526
0.562547
0.562569
0.56259
0.562611
0.562611
0.562632
0.562654
0.562675
0.562697
0.562697
0.562718
0.562739
0.562761
0.562782
0.562782
0.562804
0.562826
0.562847
0.562869
0.562869
0.562891
0.562912
0.562934
0.562956
0.562956
0.562978
0.563
0.563022
0.563043
0.563043
0.563065
0.563087
0.563109
0.563132
0.563132
0.563154
0.563176
0.563198
0.56322
0.56322
0.563242
0.563265
0.563287
0.563309
0.563309
0.563332
0.563354
0.563377
0.563399
0.563399
0.563421
0.563444
0.563467
0.563489
0.563489
0.563512
0.563535
0.563557
0.56358
0.56358
0.563603
0.563626
0.563648
0.563671
0.563671
0.563694
0.563717
0.56374
0.563763
0.563763
0.563786
0.563809
0.563832
0.563856
0.563856
0.563879
0.563902
0.563925
0.563948
0.563948
0.563972
0.563995
0.564019
0.564042
0.564042
0.564065
0.564089
0.564112
0.564136
0.564136
0.56416
0.564183
0.564207
0.56423
0.56423
0.564254
0.564278
0.564302
0.564326
0.564326
0.564349
0.564373
0.564397
0.564421
0.564421
0.564445
0.564469
0.564493
0.564517
0.564517
0.564541
0.564566
0.56459
0.564614
0.564614
0.564638
0.564663
0.564687
0.564711
0.564711
0.564736
0.56476
0.564785
0.564809
0.564809
0.564834
0.564858
0.564883
0.564907
0.564907
0.564932
0.564957
0.564981
0.565006
0.565006
0.565031
0.565056
0.565081
0.565105
0.565105
0.56513
0.565155
0.56518
0.565205
0.565205
0.56523
0.565256
0.565281
0.565306
0.565306
0.565331
0.565356
0.565381
0.565407
0.565407
0.565432
0.565457
0.565483
0.565508
0.565508
0.565534
0.565559
0.565585
0.56561
0.56561
0.565636
0.565662
0.565687
0.565713
0.565713
0.565739
0.565764
0.56579
0.565816
0.565816
0.565842
0.565868
0.565894
0.56592
0.56592
0.565946
0.565972
0.565998
0.566024
0.566024
0.56605
0.566076
0.566102
0.566128
0.566128
0.566155
0.566181
0.566207
0.566234
0.566234
0.56626
0.566286
0.566313
0.566339
0.566339
0.566366
0.566392
0.566419
0.566446
0.566446
0.566472
0.566499
0.566526
0.566552
0.566552
0.566579
0.566606
0.566633
0.56666
0.56666
0.566687
0.566714
0.566741
0.566768
0.566768
0.566795
0.566822
0.566849
0.566876
0.566876
0.566903
0.56693
0.566958
0.566985
0.566985
0.567012
0.56704
0.567067
0.567094
0.567094
0.567122
0.567149
0.567177
0.567204
0.567204
0.567232
0.56726
0.567287
0.567315
0.567315
0.567343
0.56737
0.567398
0.567426
0.567426
0.567454
0.567482
0.56751
0.567538
0.567538
0.567565
0.567593
0.567622
0.56765
0.56765
0.567678
0.567706
0.567734
0.567762
0.567762
0.56779
0.567819
0.567847
0.567875
0.567875
0.567904
0.567932
0.567961
0.567989
0.567989
0.568017
0.568046
0.568075
0.568103
0.568103
0.568132
0.56816
0.568189
0.568218
0.568218
0.568247
0.568275
0.568304
0.568333
0.568333
0.568362
0.568391
0.56842
0.568449
0.568449
0.568478
0.568507
0.568536
0.568565
0.568565
0.568594
0.568623
0.568653
0.568682
0.568682
0.568711
0.56874
0.56877
0.568799
0.568799
0.568828
0.568858
0.568887
0.568916
0.568916
0.568945
0.568973
0.569002
0.56903
0.56903
0.569058
0.569085
0.569112
0.569139
0.569139
0.569166
0.569192
0.569219
0.569246
0.569246
0.569272
0.569299
0.569326
0.569352
0.569352
0.569379
0.569406
0.569432
0.569459
0.569459
0.569486
0.569513
0.569539
0.569566
0.569566
0.569593
0.56962
0.569647
0.569674
0.569674
0.569701
0.569728
0.569755
0.569782
0.569782
0.569809
0.569836
0.569864
0.569891
0.569891
0.569918
0.569945
0.569973
0.57
0.57
0.570027
0.570055
0.570082
0.570109
0.570109
0.570137
0.570164
0.570192
0.570219
0.570219
0.570247
0.570274
0.570302
0.57033
0.57033
0.570357
0.570385
0.570413
0.570441
0.570441
0.570468
0.570496
0.570524
0.570552
0.570552
0.57058
0.570608
0.570636
0.570664
0.570664
0.570692
0.57072
0.570748
0.570776
0.570776
0.570804
0.570832
0.57086
0.570888
0.570888
0.570917
0.570945
0.570973
0.571002
0.571002
0.57103
0.571058
0.571087
0.571115
0.571115
0.571144
0.571172
0.571201
0.571229
0.571229
0.571258
0.571286
0.571315
0.571344
0.571344
0.571372
0.571401
0.57143
0.571458
0.571458
0.571487
0.571516
0.571545
0.571574
0.571574
0.571603
0.571632
0.571661
0.57169
0.57169
0.571719
0.571748
0.571777
0.571806
0.571806
0.571835
0.571864
0.571893
0.571922
0.571922
0.571952
0.571981
0.57201
0.572039
0.572039
0.572069
0.572098
0.572128
0.572157
0.572157
0.572186
0.572216
0.572245
0.572275
0.572275
0.572305
0.572334
0.572364
0.572393
0.572393
0.572423
0.572453
0.572483
0.572512
0.572512
0.572542
0.572572
0.572602
0.572632
0.572632
0.572661
0.572691
0.572721
0.572751
0.572751
0.572781
0.572811
0.572841
0.572872
0.572872
0.572902
0.572932
0.572962
0.572992
0.572992
0.573022
0.573053
0.573083
0.573113
0.573113
0.573144
0.573174
0.573204
0.573235
0.573235
0.573265
0.573296
0.573326
0.573357
0.573357
0.573387
0.573418
0.573448
0.573479
0.573479
0.57351
0.57354
0.573571
0.573602
0.573602
0.573633
0.573663
0.573694
0.573725
0.573725
0.573756
0.573787
0.573818
0.573849
0.573849
0.57388
0.573911
0.573942
0.573973
0.573973
0.574004
0.574035
0.574066
0.574097
0.574097
0.574129
0.57416
0.574191
0.574222
0.574222
0.574254
0.574285
0.574316
0.574348
0.574348
0.574379
0.574411
0.574442
0.574474
0.574474
0.574505
0.574537
0.574568
0.5746
0.5746
0.574631
0.574663
0.574695
0.574727
0.574727
0.574758
0.57479
0.574822
0.574854
0.574854
0.574885
0.574917
0.574949
0.574981
0.574981
0.575013
0.575045
0.575077
0.575109
0.575109
0.575141
0.575173
0.575205
0.575238
0.575238
0.57527
0.575302
0.575334
0.575366
0.575366
0.575399
0.575431
0.575463
0.575496
0.575496
0.575528
0.57556
0.575593
0.575625
0.575625
0.575658
0.57569
0.575723
0.575755
0.575755
0.575788
0.575821
0.575853
0.575886
0.575886
0.575919
0.575951
0.575984
0.576017
0.576017
0.57605
0.576083
0.576115
0.576148
0.576148
0.576181
0.576214
0.576247
0.57628
0.57628
0.576313
0.576346
0.576379
0.576412
0.576412
0.576445
0.576479
0.576512
0.576545
0.576545
0.576578
0.576611
0.576645
0.576678
0.576678
0.576711
0.576744
0.576778
0.576811
0.576811
0.576844
0.576877
0.57691
0.576943
0.576943
0.576976
0.577008
0.57704
0.577072
0.577072
0.577104
0.577135
0.577166
0.577197
0.577197
0.577227
0.577257
0.577287
0.577317
0.577317
0.577347
0.577377
0.577407
0.577437
0.577437
0.577467
0.577497
0.577526
0.577556
0.577556
0.577586
0.577616
0.577646
0.577676
0.577676
0.577706
0.577736
0.577766
0.577796
0.577796
0.577826
0.577856
0.577886
0.577916
0.577916
0.577947
0.577977
0.578007
0.578037
0.578037
0.578067
0.578098
0.578128
0.578158
0.578158
0.578189
0.578219
0.578249
0.57828
0.57828
0.57831
0.57834
0.578371
0.578401
0.578401
0.578432
0.578462
0.578493
0.578524
0.578524
0.578554
0.578585
0.578615
0.578646
0.578646
0.578677
0.578707
0.578738
0.578769
0.578769
0.5788
0.57883
0.578861
0.578892
0.578892
0.578923
0.578954
0.578985
0.579016
0.579016
0.579046
0.579077
0.579108
0.579139
0.579139
0.57917
0.579201
0.579233
0.579264
0.579264
0.579295
0.579326
0.579357
0.579388
0.579388
0.579419
0.579451
0.579482
0.579513
0.579513
0.579544
0.579576
0.579607
0.579638
0.579638
0.57967
0.579701
0.579733
0.579764
0.579764
0.579795
0.579827
0.579858
0.57989
0.57989
0.579921
0.579953
0.579985
0.580016
0.580016
0.580048
0.580079
0.580111
0.580143
0.580143
0.580174
0.580206
0.580238
0.58027
0.58027
0.580302
0.580333
0.580365
0.580397
0.580397
0.580429
0.580461
0.580493
0.580525
0.580525
0.580557
0.580589
0.580621
0.580653
0.580653
0.580685
0.580717
0.580749
0.580781
0.580781
0.580813
0.580845
0.580877
0.58091
0.58091
0.580942
0.580974
0.581006
0.581039
0.581039
0.581071
0.581103
0.581136
0.581168
0.581168
0.5812
0.581233
0.581265
0.581298
0.581298
0.58133
0.581363
0.581395
0.581428
0.581428
0.58146
0.581493
0.581525
0.581558
0.581558
0.581591
0.581623
0.581656
0.581689
0.581689
0.581721
0.581754
0.581787
0.58182
0.58182
0.581852
0.581885
0.581918
0.581951
0.581951
0.581984
0.582017
0.58205
0.582083
0.582083
0.582116
0.582149
0.582182
0.582215
0.582215
0.582248
0.582281
0.582314
0.582347
0.582347
0.58238
0.582413
0.582446
0.58248
0.58248
0.582513
0.582546
0.582579
0.582613
0.582613
0.582646
0.582679
0.582713
0.582746
0.582746
0.582779
0.582813
0.582846
0.58288
0.58288
0.582913
0.582947
0.58298
0.583014
0.583014
0.583047
0.583081
0.583114
0.583148
0.583148
0.583181
0.583215
0.583249
0.583282
0.583282
0.583316
0.58335
0.583384
0.583417
0.583417
0.583451
0.583485
0.583519
0.583553
0.583553
0.583586
0.58362
0.583654
0.583688
0.583688
0.583722
0.583756
0.583789
0.583823
0.583823
0.583857
0.58389
0.583923
0.583956
0.583956
0.583989
0.584022
0.584054
0.584087
0.584087
0.584118
0.58415
0.584181
0.584212
0.584212
0.584243
0.584274
0.584305
0.584335
0.584335
0.584365
0.584396
0.584426
0.584456
0.584456
0.584486
0.584516
0.584547
0.584577
0.584577
0.584607
0.584637
0.584667
0.584698
0.584698
0.584728
0.584758
0.584788
0.584819
0.584819
0.584849
0.584879
0.584909
0.58494
0.58494
0.58497
0.585001
0.585031
0.585061
0.585061
0.585092
0.585122
0.585153
0.585183
0.585183
0.585214
0.585244
0.585275
0.585305
0.585305
0.585336
0.585366
0.585397
0.585427
0.585427
0.585458
0.585489
0.585519
0.58555
0.58555
0.585581
0.585611
0.585642
0.585673
0.585673
0.585704
0.585734
0.585765
0.585796
0.585796
0.585827
0.585858
0.585888
0.585919
0.585919
0.58595
0.585981
0.586012
0.586043
0.586043
0.586074
0.586105
0.586136
0.586167
0.586167
0.586198
0.586229
0.58626
0.586291
0.586291
0.586322
0.586353
0.586384
0.586415
0.586415
0.586447
0.586478
0.586509
0.58654
0.58654
0.586571
0.586603
0.586634
0.586665
0.586665
0.586696
0.586728
0.586759
0.58679
0.58679
0.586822
0.586853
0.586884
0.586916
0.586916
0.586947
0.586978
0.58701
0.587041
0.587041
0.587073
0.587104
0.587136
0.587167
0.587167
0.587199
0.58723
0.587262
0.587294
0.587294
0.587325
0.587357
0.587388
0.58742
0.58742
0.587452
0.587483
0.587515
0.587547
0.587547
0.587578
0.58761
0.587642
0.587674
0.587674
0.587705
0.587737
0.587769
0.587801
0.587801
0.587833
0.587865
0.587897
0.587928
0.587928
0.58796
0.587992
0.588024
0.588056
0.588056
0.588088
0.58812
0.588152
0.588184
0.588184
0.588216
0.588248
0.58828
0.588312
0.588312
0.588344
0.588377
0.588409
0.588441
0.588441
0.588473
0.588505
0.588537
0.58857
0.58857
0.588602
0.588634
0.588666
0.588699
0.588699
0.588731
0.588763
0.588796
0.588828
0.588828
0.58886
0.588893
0.588925
0.588957
0.588957
0.58899
0.589022
0.589055
0.589087
0.589087
0.58912
0.589152
0.589185
0.589217
0.589217
0.58925
0.589282
0.589315
0.589347
0.589347
0.58938
0.589412
0.589445
0.589478
0.589478
0.58951
0.589543
0.589576
0.589608
0.589608
0.589641
0.589673
0.589706
0.589739
0.589739
0.589771
0.589803
0.589836
0.589868
0.589868
0.5899
0.589932
0.589963
0.589995
0.589995
0.590026
0.590057
0.590088
0.590119
0.590119
0.590149
0.590179
0.590209
0.590239
0.590239
0.590269
0.590298
0.590328
0.590357
0.590357
0.590386
0.590415
0.590444
0.590473
0.590473
0.590502
0.590531
0.59056
0.590589
0.590589
0.590618
0.590647
0.590676
0.590705
0.590705
0.590734
0.590763
0.590792
0.590821
0.590821
0.59085
0.590879
0.590908
0.590938
0.590938
0.590967
0.590996
0.591025
0.591054
0.591054
0.591083
0.591112
0.591142
0.591171
0.591171
0.5912
0.591229
0.591258
0.591288
0.591288
0.591317
0.591346
0.591375
0.591405
0.591405
0.591434
0.591463
0.591493
0.591522
0.591522
0.591551
0.591581
0.59161
0.59164
0.59164
0.591669
0.591698
0.591728
0.591757
0.591757
0.591787
0.591816
0.591846
0.591875
0.591875
0.591905
0.591934
0.591964
0.591993
0.591993
0.592023
0.592052
0.592082
0.592112
0.592112
0.592141
0.592171
0.5922
0.59223
0.59223
0.59226
0.592289
0.592319
0.592349
0.592349
0.592378
0.592408
0.592438
0.592468
0.592468
0.592497
0.592527
0.592557
0.592587
0.592587
0.592616
0.592646
0.592676
0.592706
0.592706
0.592736
0.592766
0.592795
0.592825
0.592825
0.592855
0.592885
0.592915
0.592945
0.592945
0.592975
0.593005
0.593035
0.593065
0.593065
0.593095
0.593125
0.593155
0.593185
0.593185
0.593215
0.593245
0.593275
0.593305
0.593305
0.593335
0.593365
0.593395
0.593425
0.593425
0.593455
0.593486
0.593516
0.593546
0.593546
0.593576
0.593606
0.593636
0.593667
0.593667
0.593697
0.593727
0.593757
0.593788
0.593788
0.593818
0.593848
0.593878
0.593909
0.593909
0.593939
0.593969
0.594
0.59403
0.59403
0.59406
0.594091
0.594121
0.594152
0.594152
0.594182
0.594212
0.594243
0.594273
0.594273
0.594304
0.594334
0.594365
0.594395
0.594395
0.594426
0.594456
0.594487
0.594517
0.594517
0.594548
0.594578
0.594609
0.594639
0.594639
0.59467
0.5947
0.594731
0.594761
0.594761
0.594792
0.594822
0.594853
0.594883
0.594883
0.594913
0.594943
0.594973
0.595003
0.595003
0.595033
0.595062
0.595091
0.595121
0.595121
0.595149
0.595178
0.595207
0.595235
0.595235
0.595263
0.595292
0.595319
0.595347
0.595347
0.595375
0.595402
0.59543
0.595457
0.595457
0.595484
0.595511
0.595539
0.595566
0.595566
0.595593
0.59562
0.595647
0.595674
0.595674
0.595701
0.595728
0.595755
0.595782
0.595782
0.595809
0.595836
0.595863
0.59589
0.59589
0.595918
0.595945
0.595972
0.595999
0.595999
0.596026
0.596053
0.59608
0.596107
0.596107
0.596135
0.596162
0.596189
0.596216
0.596216
0.596243
0.596271
0.596298
0.596325
0.596325
0.596352
0.59638
0.596407
0.596434
0.596434
0.596461
0.596489
0.596516
0.596543
0.596543
0.596571
0.596598
0.596625
0.596653
0.596653
0.59668
0.596707
0.596735
0.596762
0.596762
0.596789
0.596817
0.596844
0.596872
0.596872
0.596899
0.596927
0.596954
0.596981
0.596981
0.597009
0.597036
0.597064
0.597091
0.597091
0.597119
0.597146
0.597174
0.597201
0.597201
0.597229
0.597256
0.597284
0.597312
0.597312
0.597339
0.597367
0.597394
0.597422
0.597422
0.59745
0.597477
0.597505
0.597532
0.597532
0.59756
0.597588
0.597615
0.597643
0.597643
0.597671
0.597698
0.597726
0.597754
0.597754
0.597782
0.597809
0.597837
0.597865
0.597865
0.597893
0.59792
0.597948
0.597976
0.597976
0.598004
0.598031
0.598059
0.598087
0.598087
0.598115
0.598143
0.598171
0.598198
0.598198
0.598226
0.598254
0.598282
0.59831
0.59831
0.598338
0.598366
0.598394
0.598422
0.598422
0.59845
0.598477
0.598505
0.598533
0.598533
0.598561
0.598589
0.598617
0.598645
0.598645
0.598673
0.598701
0.598729
0.598757
0.598757
0.598785
0.598813
0.598841
0.59887
0.59887
0.598898
0.598926
0.598954
0.598982
0.598982
0.59901
0.599038
0.599066
0.599094
0.599094
0.599122
0.599149
0.599177
0.599205
0.599205
0.599232
0.59926
0.599287
0.599315
0.599315
0.599342
0.599369
0.599396
0.599422
0.599422
0.599449
0.599475
0.599502
0.599528
0.599528
0.599554
0.59958
0.599605
0.599631
0.599631
0.599656
0.599681
0.599707
0.599732
0.599732
0.599757
0.599782
0.599807
0.599832
0.599832
0.599857
0.599881
0.599906
0.599931
0.599931
0.599956
0.599981
0.600005
0.60003
0.60003
0.600055
0.60008
0.600105
0.600129
0.600129
0.600154
0.600179
0.600204
0.600229
0.600229
0.600254
0.600278
0.600303
0.600328
0.600328
0.600353
0.600378
0.600403
0.600428
0.600428
0.600453
0.600478
0.600502
0.600527
0.600527
0.600552
0.600577
0.600602
0.600627
0.600627
0.600652
0.600677
0.600702
0.600727
0.600727
0.600752
0.600777
0.600802
0.600827
0.600827
0.600852
0.600877
0.600902
0.600927
0.600927
0.600952
0.600977
0.601002
0.601027
0.601027
0.601052
0.601077
0.601103
0.601128
0.601128
0.601153
0.601178
0.601203
0.601228
0.601228
0.601253
0.601278
0.601303
0.601329
0.601329
0.601354
0.601379
0.601404
0.601429
0.601429
0.601454
0.60148
0.601505
0.60153
0.60153
0.601555
0.60158
0.601606
0.601631
0.601631
0.601656
0.601681
0.601707
0.601732
0.601732
0.601757
0.601782
0.601808
0.601833
0.601833
0.601858
0.601884
0.601909
0.601934
0.601934
0.60196
0.601985
0.60201
0.602036
0.602036
0.602061
0.602086
0.602112
0.602137
0.602137
0.602162
0.602188
0.602213
0.602239
0.602239
0.602264
0.602289
0.602315
0.60234
0.60234
0.602366
0.602391
0.602417
0.602442
0.602442
0.602468
0.602493
0.602518
0.602544
0.602544
0.602569
0.602595
0.60262
0.602646
0.602646
0.602671
0.602696
0.602722
0.602747
0.602747
0.602772
0.602798
0.602823
0.602848
0.602848
0.602873
0.602898
0.602923
0.602948
0.602948
0.602972
0.602997
0.603021
0.603045
0.603045
0.603069
0.603094
0.603117
0.603141
0.603141
0.603165
0.603188
0.603212
0.603235
0.603235
0.603258
0.603281
0.603304
0.603327
0.603327
0.60335
0.603373
0.603395
0.603418
0.603418
0.60344
0.603463
0.603486
0.603508
0.603508
0.603531
0.603553
0.603576
0.603598
0.603598
0.603621
0.603643
0.603666
0.603688
0.603688
0.603711
0.603733
0.603756
0.603778
0.603778
0.603801
0.603823
0.603846
0.603868
0.603868
0.603891
0.603913
0.603936
0.603958
0.603958
0.603981
0.604003
0.604026
0.604048
0.604048
0.604071
0.604094
0.604116
0.604139
0.604139
0.604161
0.604184
0.604207
0.604229
0.604229
0.604252
0.604274
0.604297
0.60432
0.60432
0.604342
0.604365
0.604388
0.60441
0.60441
0.604433
0.604456
0.604478
0.604501
0.604501
0.604524
0.604546
0.604569
0.604592
0.604592
0.604615
0.604637
0.60466
0.604683
0.604683
0.604705
0.604728
0.604751
0.604774
0.604774
0.604796
0.604819
0.604842
0.604865
0.604865
0.604888
0.60491
0.604933
0.604956
0.604956
0.604979
0.605002
0.605024
0.605047
0.605047
0.60507
0.605093
0.605116
0.605138
0.605138
0.605161
0.605184
0.605207
0.60523
0.60523
0.605253
0.605276
0.605299
0.605321
0.605321
0.605344
0.605367
0.60539
0.605413
0.605413
0.605436
0.605459
0.605482
0.605505
0.605505
0.605528
0.605551
0.605574
0.605596
0.605596
0.605619
0.605642
0.605665
0.605688
0.605688
0.605711
0.605734
0.605757
0.60578
0.60578
0.605803
0.605825
0.605848
0.605871
0.605871
0.605894
0.605916
0.605939
0.605961
0.605961
0.605984
0.606006
0.606028
0.60605
0.60605
0.606072
0.606094
0.606116
0.606138
0.606138
0.60616
0.606181
0.606202
0.606224
0.606224
0.606245
0.606266
0.606287
0.606308
0.606308
0.606329
0.60635
0.60637
0.606391
0.606391
0.606411
0.606432
0.606452
0.606473
0.606473
0.606493
0.606513
0.606534
0.606554
0.606554
0.606574
0.606594
0.606615
0.606635
0.606635
0.606655
0.606676
0.606696
0.606716
0.606716
0.606736
0.606757
0.606777
0.606797
0.606797
0.606817
0.606838
0.606858
0.606878
0.606878
0.606899
0.606919
0.606939
0.606959
0.606959
0.60698
0.607
0.60702
0.607041
0.607041
0.607061
0.607081
0.607102
0.607122
0.607122
0.607142
0.607163
0.607183
0.607203
0.607203
0.607224
0.607244
0.607265
0.607285
0.607285
0.607305
0.607326
0.607346
0.607367
0.607367
0.607387
0.607407
0.607428
0.607448
0.607448
0.607469
0.607489
0.60751
0.60753
0.60753
0.60755
0.607571
0.607591
0.607612
0.607612
0.607632
0.607653
0.607673
0.607694
0.607694
0.607714
0.607735
0.607755
0.607776
0.607776
0.607796
0.607817
0.607837
0.607858
0.607858
0.607878
0.607899
0.607919
0.60794
0.60794
0.60796
0.607981
0.608001
0.608022
0.608022
0.608043
0.608063
0.608084
0.608104
0.608104
0.608125
0.608145
0.608166
0.608187
0.608187
0.608207
0.608228
0.608248
0.608269
0.608269
0.608289
0.60831
0.608331
0.608351
0.608351
0.608372
0.608392
0.608413
0.608433
0.608433
0.608454
0.608474
0.608494
0.608515
0.608515
0.608535
0.608555
0.608575
0.608595
0.608595
0.608615
0.608635
0.608655
0.608675
0.608675
0.608695
0.608714
0.608734
0.608753
0.608753
0.608772
0.608791
0.608811
0.60883
0.60883
0.608849
0.608867
0.608886
0.608905
0.608905
0.608924
0.608942
0.608961
0.608979
0.608979
0.608998
0.609016
0.609034
0.609053
0.609053
0.609071
0.609089
0.609107
0.609126
0.609126
0.609144
0.609162
0.60918
0.609199
0.609199
0.609217
0.609235
0.609253
0.609271
0.609271
0.60929
0.609308
0.609326
0.609344
0.609344
0.609362
0.609381
0.609399
0.609417
0.609417
0.609435
0.609453
0.609472
0.60949
0.60949
0.609508
0.609526
0.609545
0.609563
0.609563
0.609581
0.609599
0.609618
0.609636
0.609636
0.609654
0.609673
0.609691
0.609709
0.609709
0.609727
0.609746
0.609764
0.609782
0.609782
0.609801
0.609819
0.609837
0.609856
0.609856
0.609874
0.609892
0.609911
0.609929
0.609929
0.609947
0.609966
0.609984
0.610002
0.610002
0.610021
0.610039
0.610057
0.610076
0.610076
0.610094
0.610113
0.610131
0.610149
0.610149
0.610168
0.610186
0.610205
0.610223
0.610223
0.610241
0.61026
0.610278
0.610297
0.610297
0.610315
0.610333
0.610352
0.61037
0.61037
0.610389
0.610407
0.610426
0.610444
0.610444
0.610463
0.610481
0.610499
0.610518
0.610518
0.610536
0.610555
0.610573
0.610592
0.610592
0.61061
0.610628
0.610647
0.610665
0.610665
0.610683
0.610702
0.61072
0.610738
0.610738
0.610756
0.610774
0.610792
0.61081
0.61081
0.610828
0.610846
0.610864
0.610881
0.610881
0.610899
0.610916
0.610934
0.610951
0.610951
0.610969
0.610986
0.611003
0.61102
0.61102
0.611037
0.611054
0.611071
0.611088
0.611088
0.611104
0.611121
0.611138
0.611154
0.611154
0.611171
0.611188
0.611204
0.61122
0.61122
0.611237
0.611253
0.61127
0.611286
0.611286
0.611302
0.611319
0.611335
0.611352
0.611352
0.611368
0.611384
0.611401
0.611417
0.611417
0.611433
0.61145
0.611466
0.611482
0.611482
0.611499
0.611515
0.611531
0.611548
0.611548
0.611564
0.61158
0.611597
0.611613
0.611613
0.61163
0.611646
0.611662
0.611679
0.611679
0.611695
0.611711
0.611728
0.611744
0.611744
0.611761
0.611777
0.611793
0.61181
0.61181
0.611826
0.611843
0.611859
0.611876
0.611876
0.611892
0.611909
0.611925
0.611941
0.611941
0.611958
0.611974
0.611991
0.612007
0.612007
0.612024
0.61204
0.612057
0.612073
0.612073
0.61209
0.612106
0.612123
0.612139
0.612139
0.612156
0.612172
0.612189
0.612205
0.612205
0.612222
0.612238
0.612255
0.612271
0.612271
0.612288
0.612304
0.612321
0.612337
0.612337
0.612354
0.61237
0.612387
0.612404
0.612404
0.61242
0.612437
0.612453
0.61247
0.61247
0.612486
0.612503
0.612519
0.612536
0.612536
0.612552
0.612568
0.612585
0.612601
0.612601
0.612617
0.612634
0.61265
0.612666
0.612666
0.612682
0.612698
0.612714
0.61273
0.61273
0.612746
0.612762
0.612778
0.612794
0.612794
0.612809
0.612825
0.61284
0.612856
0.612856
0.612871
0.612887
0.612902
0.612917
0.612917
0.612932
0.612947
0.612962
0.612977
0.612977
0.612992
0.613007
0.613022
0.613037
0.613037
0.613052
0.613067
0.613082
0.613096
0.613096
0.613111
0.613126
0.613141
0.613155
0.613155
0.61317
0.613185
0.613199
0.613214
0.613214
0.613229
0.613244
0.613258
0.613273
0.613273
0.613288
0.613302
0.613317
0.613332
0.613332
0.613346
0.613361
0.613376
0.613391
0.613391
0.613405
0.61342
0.613435
0.613449
0.613449
0.613464
0.613479
0.613494
0.613508
0.613508
0.613523
0.613538
0.613553
0.613567
0.613567
0.613582
0.613597
0.613612
0.613627
0.613627
0.613641
0.613656
0.613671
0.613686
0.613686
0.6137
0.613715
0.61373
0.613745
0.613745
0.61376
0.613775
0.613789
0.613804
0.613804
0.613819
0.613834
0.613849
0.613864
0.613864
0.613878
0.613893
0.613908
0.613923
0.613923
0.613938
0.613953
0.613967
0.613982
0.613982
0.613997
0.614012
0.614027
0.614042
0.614042
0.614057
0.614071
0.614086
0.614101
0.614101
0.614116
0.614131
0.614146
0.61416
0.61416
0.614175
0.61419
0.614205
0.614219
0.614219
0.614234
0.614249
0.614263
0.614278
0.614278
0.614292
0.614307
0.614321
0.614335
0.614335
0.61435
0.614364
0.614378
0.614392
0.614392
0.614406
0.614421
0.614435
0.614449
0.614449
0.614462
0.614476
0.61449
0.614504
0.614504
0.614518
0.614531
0.614545
0.614558
0.614558
0.614572
0.614585
0.614599
0.614612
0.614612
0.614626
0.614639
0.614652
0.614666
0.614666
0.614679
0.614692
0.614706
0.614719
0.614719
0.614732
0.614746
0.614759
0.614772
0.614772
0.614785
0.614799
0.614812
0.614825
0.614825
0.614838
0.614852
0.614865
0.614878
0.614878
0.614892
0.614905
0.614918