<?xml version="1.0"?>
<VTKFile type="UnstructuredGrid" version="0.1" byte_order="LittleEndian">
<UnstructuredGrid>
<Piece NumberOfPoints="5000" NumberOfCells="4000">
<PointData Scalars="Reaction 0">
<DataArray type="Float32" Name="Reaction 0" format="ascii">
0.917104
0.917104
0.917104
0.917104
0.917104
0.917104
0.917104
0.917104
0.917104
0.917104
0.917104
0.917104
0.917104
0.917104
0.917104
0.917104
0.917104
0.917104
0.917104
0.917104
0.917104
0.917104
0.917104
0.917104
0.917104
0.917104
0.917104
0.917104
0.917104
0.917104
0.917104
0.917104
0.917104
0.917104
0.917104
0.917104
0.917104
0.917104
0.917104
0.917104
0.917104
0.917104
0.917104
0.917104
0.917105
0.917105
0.917105
0.917105
0.917105
0.917105
0.917105
0.917105
0.917105
0.917105
0.917105
0.917105
0.917105
0.917105
0.917105
0.917105
0.917105
0.917105
0.917105
0.917105
0.917105
0.917105
0.917105
0.917106
0.917106
0.917106
0.917106
0.917106
0.917106
0.917106
0.917106
0.917106
0.917106
0.917106
0.917106
0.917106
0.917106
0.917106
0.917106
0.917106
0.917107
0.917107
0.917107
0.917107
0.917107
0.917107
0.917107
0.917107
0.917107
0.917107
0.917107
0.917107
0.917107
0.917107
0.917108
0.917108
0.917108
0.917108
0.917108
0.917108
0.917108
0.917108
0.917108
0.917108
0.917108
0.917108
0.917108
0.917109
0.917109
0.917109
0.917109
0.917109
0.917109
0.917109
0.917109
0.917109
0.917109
0.917109
0.91711
0.91711
0.91711
0.91711
0.91711
0.91711
0.91711
0.91711
0.91711
0.91711
0.917111
0.917111
0.917111
0.917111
0.917111
0.917111
0.917111
0.917111
0.917111
0.917112
0.917112
0.917112
0.917112
0.917112
0.917112
0.917112
0.917112
0.917113
0.917113
0.917113
0.917113
0.917113
0.917113
0.917113
0.917113
0.917113
0.917114
0.917114
0.917114
0.917114
0.917114
0.917114
0.917114
0.917114
0.917115
0.917115
0.917115
0.917115
0.917115
0.917115
0.917115
0.917116
0.917116
0.917116
0.917116
0.917116
0.917116
0.917116
0.917116
0.917117
0.917117
0.917117
0.917117
0.917117
0.917117
0.917117
0.917118
0.917118
0.917118
0.917118
0.917118
0.917118
0.917119
0.917119
0.917119
0.917119
0.917119
0.917119
0.917119
0.91712
0.91712
0.91712
0.91712
0.91712
0.91712
0.917121
0.917121
0.917121
0.917121
0.917121
0.917121
0.917122
0.917122
0.917122
0.917122
0.917122
0.917122
0.917123
0.917123
0.917123
0.917123
0.917123
0.917123
0.917123
0.917124
0.917124
0.917124
0.917124
0.917124
0.917125
0.917125
0.917125
0.917125
0.917125
0.917126
0.917126
0.917126
0.917126
0.917126
0.917126
0.917127
0.917127
0.917127
0.917127
0.917127
0.917128
0.917128
0.917128
0.917128
0.917128
0.917129
0.917129
0.917129
0.917129
0.917129
0.91713
0.91713
0.91713
0.91713
0.91713
0.917131
0.917131
0.917131
0.917131
0.917131
0.917132
0.917132
0.917132
0.917132
0.917132
0.917133
0.917133
0.917133
0.917133
0.917133
0.917134
0.917134
0.917134
0.917134
0.917135
0.917135
0.917135
0.917135
0.917135
0.917136
0.917136
0.917136
0.917137
0.917137
0.917137
0.917137
0.917137
0.917138
0.917138
0.917138
0.917138
0.917139
0.917139
0.917139
0.917139
0.917139
0.91714
0.91714
0.91714
0.91714
0.917141
0.917141
0.917141
0.917141
0.917142
0.917142
0.917142
0.917142
0.917142
0.917143
0.917143
0.917143
0.917144
0.917144
0.917144
0.917144
0.917145
0.917145
0.917145
0.917145
0.917146
0.917146
0.917146
0.917146
0.917147
0.917147
0.917147
0.917147
0.917147
0.917148
0.917148
0.917148
0.917149
0.917149
0.917149
0.917149
0.91715
0.91715
0.91715
0.91715
0.917151
0.917151
0.917151
0.917151
0.917152
0.917152
0.917153
0.917153
0.917153
0.917153
0.917154
0.917154
0.917154
0.917154
0.917155
0.917155
0.917155
0.917156
0.917156
0.917156
0.917156
0.917157
0.917157
0.917157
0.917157
0.917158
0.917158
0.917159
0.917159
0.917159
0.917159
0.91716
0.91716
0.91716
0.91716
0.917161
0.917161
0.917162
0.917162
0.917162
0.917162
0.917163
0.917163
0.917163
0.917163
0.917164
0.917164
0.917165
0.917165
0.917165
0.917165
0.917166
0.917166
0.917166
0.917166
0.917167
0.917167
0.917168
0.917168
0.917168
0.917168
0.917169
0.917169
0.917169
0.91717
0.91717
0.91717
0.917171
0.917171
0.917171
0.917172
0.917172
0.917172
0.917172
0.917173
0.917173
0.917174
0.917174
0.917174
0.917175
0.917175
0.917175
0.917176
0.917176
0.917176
0.917177
0.917177
0.917177
0.917177
0.917178
0.917178
0.917179
0.917179
0.917179
0.91718
0.91718
0.91718
0.917181
0.917181
0.917181
0.917182
0.917182
0.917183
0.917183
0.917183
0.917184
0.917184
0.917184
0.917184
0.917185
0.917185
0.917186
0.917186
0.917186
0.917187
0.917187
0.917188
0.917188
0.917188
0.917188
0.917189
0.917189
0.91719
0.91719
0.91719
0.917191
0.917191
0.917192
0.917192
0.917192
0.917193
0.917193
0.917194
0.917194
0.917194
0.917194
0.917195
0.917195
0.917195
0.917196
0.917196
0.917197
0.917197
0.917197
0.917198
0.917198
0.917199
0.917199
0.917199
0.9172
0.9172
0.917201
0.917201
0.917201
0.917202
0.917202
0.917203
0.917203
0.917203
0.917204
0.917204
0.917205
0.917205
0.917205
0.917206
0.917206
0.917207
0.917207
0.917207
0.917208
0.917208
0.917209
0.917209
0.917209
0.91721
0.91721
0.917211
0.917211
0.917211
0.917212
0.917212
0.917213
0.917213
0.917213
0.917214
0.917214
0.917215
0.917215
0.917215
0.917216
0.917216
0.917217
0.917217
0.917217
0.917218
0.917218
0.917219
0.917219
0.917219
0.91722
0.917221
0.917221
0.917222
0.917222
0.917222
0.917223
0.917223
0.917224
0.917224
0.917224
0.917225
0.917225
0.917226
0.917226
0.917226
0.917227
0.917228
0.917228
0.917228
0.917229
0.917229
0.91723
0.91723
0.91723
0.917231
0.917231
0.917232
0.917233
0.917233
0.917233
0.917234
0.917234
0.917235
0.917235
0.917235
0.917236
0.917236
0.917237
0.917237
0.917238
0.917238
0.917239
0.917239
0.917239
0.91724
0.91724
0.917241
0.917242
0.917242
0.917242
0.917243
0.917243
0.917244
0.917244
0.917244
0.917245
0.917246
0.917246
0.917246
0.917247
0.917247
0.917248
0.917248
0.917248
0.917249
0.91725
0.91725
0.917251
0.917251
0.917251
0.917252
0.917253
0.917253
0.917253
0.917254
0.917254
0.917255
0.917256
0.917256
0.917256
0.917257
0.917257
0.917258
0.917258
0.917259
0.917259
0.91726
0.917261
0.917261
0.917261
0.917262
0.917262
0.917263
0.917263
0.917264
0.917264
0.917265
0.917266
0.917266
0.917266
0.917267
0.917268
0.917268
0.917268
0.917269
0.917269
0.91727
0.917271
0.917271
0.917271
0.917272
0.917273
0.917273
0.917273
0.917274
0.917275
0.917275
0.917276
0.917276
0.917277
0.917277
0.917278
0.917279
0.917279
0.917279
0.91728
0.917281
0.917281
0.917281
0.917282
0.917282
0.917283
0.917284
0.917284
0.917284
0.917285
0.917286
0.917286
0.917286
0.917287
0.917288
0.917288
0.917289
0.917289
0.91729
0.91729
0.917291
0.917292
0.917292
0.917293
0.917293
0.917294
0.917295
0.917295
0.917295
0.917296
0.917297
0.917297
0.917297
0.917298
0.917299
0.917299
0.9173
0.9173
0.917301
0.917301
0.917302
0.917303
0.917303
0.917304
0.917304
0.917305
0.917306
0.917306
0.917306
0.917307
0.917308
0.917308
0.917308
0.917309
0.91731
0.917311
0.917311
0.917311
0.917312
0.917313
0.917313
0.917314
0.917314
0.917315
0.917316
0.917316
0.917317
0.917317
0.917318
0.917318
0.917319
0.91732
0.91732
0.917321
0.917321
0.917322
0.917323
0.917323
0.917323
0.917324
0.917325
0.917326
0.917326
0.917326
0.917327
0.917328
0.917329
0.917329
0.917329
0.91733
0.917331
0.917332
0.917332
0.917332
0.917333
0.917334
0.917335
0.917335
0.917335
0.917336
0.917337
0.917338
0.917338
0.917338
0.917339
0.91734
0.917341
0.917341
0.917341
0.917342
0.917343
0.917344
0.917344
0.917344
0.917345
0.917346
0.917347
0.917347
0.917347
0.917348
0.917349
0.91735
0.91735
0.917351
0.917351
0.917352
0.917353
0.917353
0.917354
0.917354
0.917355
0.917356
0.917356
0.917357
0.917358
0.917358
0.917359
0.917359
0.91736
0.917361
0.917362
0.917362
0.917362
0.917363
0.917364
0.917365
0.917365
0.917365
0.917366
0.917367
0.917368
0.917369
0.917369
0.917369
0.91737
0.917371
0.917372
0.917372
0.917373
0.917374
0.917374
0.917375
0.917375
0.917376
0.917377
0.917378
0.917378
0.917378
0.917379
0.91738
0.917381
0.917382
0.917382
0.917382
0.917383
0.917384
0.917385
0.917385
0.917386
0.917387
0.917387
0.917388
0.917388
0.917389
0.91739
0.917391
0.917392
0.917392
0.917392
0.917393
0.917394
0.917395
0.917395
0.917396
0.917397
0.917397
0.917398
0.917398
0.917399
0.9174
0.917401
0.917402
0.917402
0.917403
0.917403
0.917404
0.917405
0.917405
0.917406
0.917407
0.917408
0.917409
0.917409
0.917409
0.91741
0.917411
0.917412
0.917412
0.917413
0.917414
0.917415
0.917415
0.917415
0.917416
0.917417
0.917418
0.917419
0.917419
0.91742
0.917421
0.917422
0.917422
0.917422
0.917423
0.917424
0.917425
0.917426
0.917426
0.917427
0.917428
0.917429
0.91743
0.91743
0.91743
0.917431
0.917432
0.917433
0.917433
0.917434
0.917435
0.917436
0.917437
0.917437
0.917438
0.917438
0.917439
0.91744
0.91744
0.917441
0.917442
0.917443
0.917444
0.917444
0.917445
0.917446
0.917447
0.917448
0.917448
0.917448
0.917449
0.91745
0.917451
0.917451
0.917452
0.917453
0.917454
0.917455
0.917455
0.917456
0.917457
0.917458
0.917459
0.917459
0.91746
0.91746
0.917461
0.917462
0.917462
0.917463
0.917464
0.917465
0.917466
0.917466
0.917467
0.917468
0.917469
0.91747
0.91747
0.917471
0.917472
0.917473
0.917474
0.917474
0.917475
0.917475
0.917476
0.917477
0.917477
0.917478
0.917479
0.91748
0.917481
0.917481
0.917482
0.917483
0.917484
0.917485
0.917485
0.917486
0.917487
0.917488
0.917489
0.917489
0.91749
0.917491
0.917492
0.917493
0.917493
0.917494
0.917495
0.917496
0.917497
0.917497
0.917498
0.917499
0.9175
0.917501
0.917501
0.917502
0.917503
0.917503
0.917504
0.917504
0.917505
0.917506
0.917507
0.917508
0.917508
0.917509
0.91751
0.917511
0.917512
0.917512
0.917513
0.917514
0.917515
0.917516
0.917516
0.917517
0.917518
0.917519
0.91752
0.91752
0.917521
0.917522
0.917523
0.917524
0.917524
0.917525
0.917526
0.917527
0.917528
0.917528
0.917529
0.91753
0.917531
0.917532
0.917532
0.917533
0.917535
0.917536
0.917537
0.917537
0.917538
0.917539
0.91754
0.917541
0.917541
0.917542
0.917543
0.917544
0.917545
0.917545
0.917546
0.917547
0.917548
0.917549
0.917549
0.91755
0.917551
0.917552
0.917553
0.917553
0.917554
0.917555
0.917556
0.917557
0.917557
0.917558
0.917559
0.91756
0.917561
0.917561
0.917562
0.917563
0.917564
0.917565
0.917565
0.917566
0.917567
0.917569
0.91757
0.91757
0.917571
0.917572
0.917573
0.917574
0.917574
0.917575
0.917576
0.917577
0.917578
0.917578
0.917579
0.91758
0.917581
0.917582
0.917582
0.917583
0.917585
0.917586
0.917587
0.917587
0.917588
0.917589
0.91759
0.917591
0.917591
0.917592
0.917593
0.917594
0.917595
0.917595
0.917597
0.917598
0.917599
0.9176
0.9176
0.917601
0.917602
0.917603
0.917604
0.917604
0.917605
0.917607
0.917608
0.917609
0.917609
0.91761
0.917611
0.917612
0.917613
0.917613
0.917614
0.917616
0.917617
0.917618
0.917618
0.917619
0.91762
0.917621
0.917622
0.917622
0.917623
0.917624
0.917626
0.917627
0.917627
0.917628
0.917629
0.91763
0.917631
0.917631
0.917632
0.917634
0.917635
0.917636
0.917636
0.917637
0.917638
0.917639
0.91764
0.91764
0.917641
0.917643
0.917644
0.917645
0.917645
0.917646
0.917647
0.917648
0.917649
0.917649
0.917651
0.917652
0.917653
0.917654
0.917654
0.917655
0.917656
0.917658
0.917659
0.917659
0.91766
0.917661
0.917662
0.917663
0.917663
0.917665
0.917666
0.917667
0.917668
0.917668
0.917669
0.91767
0.917672
0.917673
0.917673
0.917674
0.917675
0.917676
0.917677
0.917677
0.917679
0.91768
0.917681
0.917682
0.917682
0.917683
0.917684
0.917686
0.917687
0.917687
0.917688
0.917689
0.91769
0.917692
0.917692
0.917693
0.917694
0.917695
0.917696
0.917696
0.917698
0.917699
0.9177
0.917701
0.917701
0.917702
0.917704
0.917705
0.917706
0.917706
0.917707
0.917708
0.91771
0.917711
0.917711
0.917712
0.917713
0.917714
0.917716
0.917716
0.917717
0.917718
0.917719
0.917721
0.917721
0.917722
0.917723
0.917724
0.917725
0.917725
0.917727
0.917728
0.917729
0.91773
0.91773
0.917732
0.917733
0.917734
0.917735
0.917735
0.917736
0.917738
0.917739
0.91774
0.91774
0.917741
0.917743
0.917744
0.917745
0.917745
0.917746
0.917748
0.917749
0.91775
0.91775
0.917751
0.917753
0.917754
0.917755
0.917755
0.917756
0.917758
0.917759
0.91776
0.91776
0.917761
0.917763
0.917764
0.917765
0.917765
0.917766
0.917768
0.917769
0.91777
0.91777
0.917772
0.917773
0.917774
0.917775
0.917775
0.917777
0.917778
0.917779
0.91778
0.91778
0.917782
0.917783
0.917784
0.917786
0.917786
0.917787
0.917788
0.917789
0.917791
0.917791
0.917792
0.917793
0.917795
0.917796
0.917796
0.917797
0.917798
0.9178
0.917801
0.917801
0.917802
0.917804
0.917805
0.917806
0.917806
0.917808
0.917809
0.91781
0.917811
0.917811
0.917813
0.917814
0.917815
0.917817
0.917817
0.917818
0.917819
0.917821
0.917822
0.917822
0.917823
0.917825
0.917826
0.917827
0.917827
0.917829
0.91783
0.917831
0.917832
0.917832
0.917834
0.917835
0.917836
0.917838
0.917838
0.917839
0.91784
0.917842
0.917843
0.917843
0.917844
0.917846
0.917847
0.917848
0.917848
0.91785
0.917851
0.917852
0.917854
0.917854
0.917855
0.917856
0.917858
0.917859
0.917859
0.91786
0.917862
0.917863
0.917864
0.917864
0.917866
0.917867
0.917869
0.91787
0.91787
0.917871
0.917873
0.917874
0.917875
0.917875
0.917877
0.917878
0.917879
0.917881
0.917881
0.917882
0.917883
0.917885
0.917886
0.917886
0.917887
0.917889
0.91789
0.917891
0.917891
0.917893
0.917894
0.917896
0.917897
0.917897
0.917898
0.9179
0.917901
0.917902
0.917902
0.917904
0.917905
0.917907
0.917908
0.917908
0.917909
0.917911
0.917912
0.917913
0.917913
0.917915
0.917916
0.917918
0.917919
0.917919
0.917921
0.917922
0.917923
0.917925
0.917925
0.917926
0.917928
0.917929
0.917931
0.917931
0.917932
0.917933
0.917935
0.917936
0.917936
0.917938
0.917939
0.917941
0.917942
0.917942
0.917943
0.917945
0.917946
0.917948
0.917948
0.917949
0.917951
0.917952
0.917953
0.917953
0.917955
0.917956
0.917958
0.917959
0.917959
0.917961
0.917962
0.917964
0.917965
0.917965
0.917966
0.917968
0.917969
0.917971
0.917971
0.917972
0.917974
0.917975
0.917977
0.917977
0.917978
0.917979
0.917981
0.917982
0.917982
0.917984
0.917985
0.917987
0.917988
0.917988
0.91799
0.917991
0.917993
0.917994
0.917994
0.917996
0.917997
0.917998
0.918
0.918
0.918001
0.918003
0.918004
0.918006
0.918006
0.918007
0.918009
0.91801
0.918012
0.918012
0.918013
0.918015
0.918016
0.918018
0.918018
0.918019
0.918021
0.918022
0.918024
0.918024
0.918025
0.918027
0.918028
0.91803
0.91803
0.918031
0.918033
0.918034
0.918035
0.918035
0.918037
0.918038
0.91804
0.918041
0.918041
0.918043
0.918044
0.918046
0.918047
0.918047
0.918049
0.918051
0.918052
0.918054
0.918054
0.918055
0.918057
0.918058
0.91806
0.91806
0.918061
0.918063
0.918064
0.918066
0.918066
0.918067
0.918069
0.91807
0.918072
0.918072
0.918073
0.918075
0.918076
0.918078
0.918078
0.918079
0.918081
0.918082
0.918084
0.918084
0.918085
0.918087
0.918089
0.91809
0.91809
0.918092
0.918093
0.918095
0.918096
0.918096
0.918098
0.918099
0.918101
0.918102
0.918102
0.918104
0.918106
0.918107
0.918109
0.918109
0.91811
0.918112
0.918113
0.918115
0.918115
0.918116
0.918118
0.91812
0.918121
0.918121
0.918123
0.918124
0.918126
0.918127
0.918127
0.918129
0.91813
0.918132
0.918134
0.918134
0.918135
0.918137
0.918138
0.91814
0.91814
0.918141
0.918143
0.918145
0.918146
0.918146
0.918148
0.918149
0.918151
0.918153
0.918153
0.918154
0.918156
0.918157
0.918159
0.918159
0.91816
0.918162
0.918164
0.918165
0.918165
0.918167
0.918168
0.91817
0.918172
0.918172
0.918173
0.918175
0.918176
0.918178
0.918178
0.91818
0.918181
0.918183
0.918184
0.918184
0.918186
0.918188
0.918189
0.918191
0.918191
0.918192
0.918194
0.918196
0.918197
0.918197
0.918199
0.9182
0.918202
0.918204
0.918204
0.918205
0.918207
0.918208
0.91821
0.91821
0.918212
0.918213
0.918215
0.918216
0.918216
0.918218
0.91822
0.918221
0.918223
0.918223
0.918224
0.918226
0.918228
0.918229
0.918229
0.918231
0.918233
0.918234
0.918236
0.918236
0.918237
0.918239
0.918241
0.918242
0.918242
0.918244
0.918246
0.918247
0.918249
0.918249
0.918251
0.918252
0.918254
0.918256
0.918256
0.918257
0.918259
0.918261
0.918262
0.918262
0.918264
0.918266
0.918268
0.918269
0.918269
0.918271
0.918273
0.918274
0.918276
0.918276
0.918278
0.918279
0.918281
0.918283
0.918283
0.918284
0.918286
0.918288
0.91829
0.91829
0.918291
0.918293
0.918295
0.918296
0.918296
0.918298
0.9183
0.918301
0.918303
0.918303
0.918305
0.918307
0.918308
0.91831
0.91831
0.918312
0.918313
0.918315
0.918317
0.918317
0.918318
0.91832
0.918322
0.918324
0.918324
0.918325
0.918327
0.918329
0.91833
0.91833
0.918332
0.918334
0.918336
0.918337
0.918337
0.918339
0.918341
0.918342
0.918344
0.918344
0.918346
0.918348
0.918349
0.918351
0.918351
0.918353
0.918355
0.918356
0.918358
0.918358
0.91836
0.918361
0.918363
0.918365
0.918365
0.918367
0.918368
0.91837
0.918372
0.918372
0.918374
0.918375
0.918377
0.918379
0.918379
0.918381
0.918382
0.918384
0.918386
0.918386
0.918388
0.918389
0.918391
0.918393
0.918393
0.918395
0.918396
0.918398
0.9184
0.9184
0.918402
0.918403
0.918405
0.918407
0.918407
0.918409
0.91841
0.918412
0.918414
0.918414
0.918416
0.918418
0.918419
0.918421
0.918421
0.918423
0.918425
0.918426
0.918428
0.918428
0.91843
0.918432
0.918433
0.918435
0.918435
0.918437
0.918439
0.918441
0.918442
0.918442
0.918444
0.918446
0.918448
0.91845
0.91845
0.918451
0.918453
0.918455
0.918457
0.918457
0.918459
0.91846
0.918462
0.918464
0.918464
0.918466
0.918468
0.918469
0.918471
0.918471
0.918473
0.918475
0.918477
0.918478
0.918478
0.91848
0.918482
0.918484
0.918486
0.918486
0.918487
0.918489
0.918491
0.918493
0.918493
0.918495
0.918496
0.918498
0.9185
0.9185
0.918502
0.918504
0.918506
0.918507
0.918507
0.918509
0.918511
0.918513
0.918515
0.918515
0.918516
0.918518
0.91852
0.918522
0.918522
0.918524
0.918526
0.918527
0.918529
0.918529
0.918531
0.918533
0.918535
0.918537
0.918537
0.918538
0.91854
0.918542
0.918544
0.918544
0.918546
0.918547
0.918549
0.918551
0.918551
0.918553
0.918555
0.918557
0.918558
0.918558
0.91856
0.918562
0.918564
0.918566
0.918566
0.918568
0.91857
0.918571
0.918573
0.918573
0.918575
0.918577
0.918579
0.918581
0.918581
0.918583
0.918584
0.918586
0.918588
0.918588
0.91859
0.918592
0.918594
0.918596
0.918596
0.918598
0.9186
0.918602
0.918604
0.918604
0.918605
0.918607
0.918609
0.918611
0.918611
0.918613
0.918615
0.918617
0.918619
0.918619
0.918621
0.918623
0.918625
0.918627
0.918627
0.918628
0.91863
0.918632
0.918634
0.918634
0.918636
0.918638
0.91864
0.918642
0.918642
0.918644
0.918646
0.918648
0.91865
0.91865
0.918651
0.918653
0.918655
0.918657
0.918657
0.918659
0.918661
0.918663
0.918665
0.918665
0.918667
0.918669
0.918671
0.918673
0.918673
0.918675
0.918677
0.918679
0.91868
0.91868
0.918682
0.918684
0.918686
0.918688
0.918688
0.91869
0.918692
0.918694
0.918696
0.918696
0.918698
0.9187
0.918702
0.918704
0.918704
0.918706
0.918708
0.91871
0.918712
0.918712
0.918714
0.918716
0.918717
0.918719
0.918719
0.918721
0.918723
0.918725
0.918727
0.918727
0.918729
0.918731
0.918733
0.918735
0.918735
0.918737
0.918739
0.918741
0.918743
0.918743
0.918745
0.918747
0.918749
0.918751
0.918751
0.918753
0.918755
0.918757
0.918759
0.918759
0.918761
0.918763
0.918765
0.918767
0.918767
0.918769
0.918771
0.918773
0.918775
0.918775
0.918777
0.918779
0.918781
0.918783
0.918783
0.918785
0.918787
0.918789
0.918791
0.918791
0.918793
0.918795
0.918797
0.918799
0.918799
0.918801
0.918803
0.918805
0.918807
0.918807
0.918809
0.918811
0.918813
0.918815
0.918815
0.918817
0.918819
0.918821
0.918823
0.918823
0.918825
0.918827
0.918829
0.918831
0.918831
0.918833
0.918835
0.918837
0.918839
0.918839
0.918841
0.918843
0.918845
0.918847
0.918847
0.918849
0.918851
0.918853
0.918855
0.918855
0.918857
0.918859
0.918861
0.918863
0.918863
0.918865
0.918867
0.918869
0.918871
0.918871
0.918873
0.918875
0.918877
0.918879
0.918879
0.918881
0.918883
0.918885
0.918887
0.918887
0.918889
0.918891
0.918893
0.918895
0.918895
0.918897
0.918899
0.918902
0.918904
0.918904
0.918906
0.918908
0.91891
0.918912
0.918912
0.918914
0.918916
0.918918
0.91892
0.91892
0.918922
0.918924
0.918926
0.918928
0.918928
0.918931
0.918933
0.918935
0.918937
0.918937
0.918939
0.918941
0.918943
0.918945
0.918945
0.918947
0.91895
0.918952
0.918954
0.918954
0.918956
0.918958
0.91896
0.918962
0.918962
0.918964
0.918966
0.918969
0.918971
0.918971
0.918973
0.918975
0.918977
0.918979
0.918979
0.918981
0.918983
0.918985
0.918988
0.918988
0.91899
0.918992
0.918994
0.918996
0.918996
0.918998
0.919
0.919002
0.919005
0.919005
0.919007
0.919009
0.919011
0.919013
0.919013
0.919015
0.919017
0.919019
0.919022
0.919022
0.919024
0.919026
0.919028
0.91903
0.91903
0.919032
0.919034
0.919037
0.919039
0.919039
0.919041
0.919043
0.919045
0.919047
0.919047
0.919049
0.919052
0.919054
0.919056
0.919056
0.919058
0.91906
0.919062
0.919064
0.919064
0.919067
0.919069
0.919071
0.919073
0.919073
0.919075
0.919077
0.91908
0.919082
0.919082
0.919084
0.919086
0.919088
0.91909
0.91909
0.919092
0.919095
0.919097
0.919099
0.919099
0.919101
0.919103
0.919105
0.919108
0.919108
0.91911
0.919112
0.919114
0.919116
0.919116
0.919119
0.919121
0.919123
0.919125
0.919125
0.919127
0.919129
0.919132
0.919134
0.919134
0.919136
0.919138
0.91914
0.919143
0.919143
0.919145
0.919147
0.919149
0.919151
0.919151
0.919153
0.919156
0.919158
0.91916
0.91916
0.919162
0.919164
0.919167
0.919169
0.919169
0.919171
0.919173
0.919175
0.919178
0.919178
0.91918
0.919182
0.919184
0.919186
0.919186
0.919189
0.919191
0.919193
0.919195
0.919195
0.919197
0.9192
0.919202
0.919204
0.919204
0.919206
0.919208
0.919211
0.919213
0.919213
0.919215
0.919217
0.919219
0.919222
0.919222
0.919224
0.919226
0.919228
0.91923
0.91923
0.919233
0.919235
0.919237
0.919239
0.919239
0.919241
0.919244
0.919246
0.919248
0.919248
0.91925
0.919253
0.919255
0.919257
0.919257
0.919259
0.919262
0.919264
0.919266
0.919266
0.919268
0.919271
0.919273
0.919275
0.919275
0.919278
0.91928
0.919282
0.919284
0.919284
0.919287
0.919289
0.919291
0.919294
0.919294
0.919296
0.919298
0.919301
0.919303
0.919303
0.919305
0.919307
0.91931
0.919312
0.919312
0.919314
0.919317
0.919319
0.919321
0.919321
0.919323
0.919326
0.919328
0.91933
0.91933
0.919333
0.919335
0.919337
0.91934
0.91934
0.919342
0.919344
0.919346
0.919349
0.919349
0.919351
0.919353
0.919356
0.919358
0.919358
0.91936
0.919363
0.919365
0.919367
0.919367
0.91937
0.919372
0.919374
0.919376
0.919376
0.919379
0.919381
0.919383
0.919386
0.919386
0.919388
0.91939
0.919393
0.919395
0.919395
0.919397
0.9194
0.919402
0.919404
0.919404
0.919407
0.919409
0.919411
0.919414
0.919414
0.919416
0.919418
0.919421
0.919423
0.919423
0.919425
0.919428
0.91943
0.919432
0.919432
0.919435
0.919437
0.919439
0.919442
0.919442
0.919444
0.919446
0.919449
0.919451
0.919451
0.919453
0.919456
0.919458
0.91946
0.91946
0.919463
0.919465
0.919467
0.91947
0.91947
0.919472
0.919474
0.919477
0.919479
0.919479
0.919481
0.919484
0.919486
0.919488
0.919488
0.919491
0.919493
0.919496
0.919498
0.919498
0.9195
0.919503
0.919505
0.919507
0.919507
0.91951
0.919512
0.919514
0.919517
0.919517
0.919519
0.919521
0.919524
0.919526
0.919526
0.919529
0.919531
0.919533
0.919536
0.919536
0.919538
0.91954
0.919543
0.919545
0.919545
0.919547
0.91955
0.919552
0.919555
0.919555
0.919557
0.919559
0.919562
0.919564
0.919564
0.919566
0.919569
0.919571
0.919573
0.919573
0.919576
0.919578
0.919581
0.919583
0.919583
0.919585
0.919588
0.91959
0.919593
0.919593
0.919595
0.919598
0.9196
0.919602
0.919602
0.919605
0.919607
0.91961
0.919612
0.919612
0.919615
0.919617
0.91962
0.919622
0.919622
0.919624
0.919627
0.919629
0.919632
0.919632
0.919634
0.919637
0.919639
0.919642
0.919642
0.919644
0.919647
0.919649
0.919651
0.919651
0.919654
0.919656
0.919659
0.919661
0.919661
0.919664
0.919666
0.919669
0.919671
0.919671
0.919674
0.919676
0.919679
0.919681
0.919681
0.919683
0.919686
0.919688
0.919691
0.919691
0.919693
0.919696
0.919698
0.919701
0.919701
0.919703
0.919706
0.919708
0.919711
0.919711
0.919713
0.919716
0.919718
0.91972
0.91972
0.919723
0.919725
0.919728
0.91973
0.91973
0.919733
0.919735
0.919738
0.91974
0.91974
0.919743
0.919745
0.919748
0.91975
0.91975
0.919753
0.919755
0.919758
0.91976
0.91976
0.919763
0.919765
0.919768
0.91977
0.91977
0.919773
0.919775
0.919778
0.91978
0.91978
0.919783
0.919785
0.919788
0.91979
0.91979
0.919793
0.919795
0.919798
0.9198
0.9198
0.919803
0.919805
0.919808
0.91981
0.91981
0.919813
0.919815
0.919818
0.91982
0.91982
0.919823
0.919825
0.919828
0.91983
0.91983
0.919833
0.919835
0.919838
0.91984
0.91984
0.919843
0.919845
0.919848
0.91985
0.91985
0.919853
0.919855
0.919858
0.91986
0.91986
0.919863
0.919865
0.919868
0.91987
0.91987
0.919873
0.919875
0.919878
0.91988
0.91988
0.919883
0.919885
0.919888
0.91989
0.91989
0.919893
0.919895
0.919898
0.9199
0.9199
0.919903
0.919905
0.919908
0.91991
0.91991
0.919913
0.919915
0.919918
0.919921
0.919921
0.919923
0.919926
0.919928
0.919931
0.919931
0.919933
0.919936
0.919939
0.919941
0.919941
0.919944
0.919946
0.919949
0.919952
0.919952
0.919954
0.919957
0.919959
0.919962
0.919962
0.919965
0.919967
0.91997
0.919972
0.919972
0.919975
0.919978
0.91998
0.919983
0.919983
0.919985
0.919988
0.919991
0.919993
0.919993
0.919996
0.919998
0.920001
0.920004
0.920004
0.920006
0.920009
0.920012
0.920014
0.920014
0.920017
0.920019
0.920022
0.920025
0.920025
0.920027
0.92003
0.920032
0.920035
0.920035
0.920038
0.92004
0.920043
0.920046
0.920046
0.920048
0.920051
0.920053
0.920056
0.920056
0.920059
0.920061
0.920064
0.920066
0.920066
0.920069
0.920072
0.920074
0.920077
0.920077
0.92008
0.920082
0.920085
0.920087
0.920087
0.92009
0.920093
0.920095
0.920098
0.920098
0.920101
0.920103
0.920106
0.920109
0.920109
0.920111
0.920114
0.920116
0.920119
0.920119
0.920122
0.920124
0.920127
0.92013
0.92013
0.920132
0.920135
0.920138
0.92014
0.92014
0.920143
0.920145
0.920148
0.920151
0.920151
0.920153
0.920156
0.920159
0.920161
0.920161
0.920164
0.920167
0.920169
0.920172
0.920172
0.920175
0.920177
0.92018
0.920182
0.920182
0.920185
0.920188
0.92019
0.920193
0.920193
0.920196
0.920198
0.920201
0.920204
0.920204
0.920206
0.920209
0.920212
0.920214
0.920214
0.920217
0.92022
0.920222
0.920225
0.920225
0.920227
0.92023
0.920233
0.920235
0.920235
0.920238
0.920241
0.920243
0.920246
0.920246
0.920249
0.920251
0.920254
0.920257
0.920257
0.92026
0.920262
0.920265
0.920268
0.920268
0.92027
0.920273
0.920276
0.920279
0.920279
0.920281
0.920284
0.920287
0.92029
0.92029
0.920292
0.920295
0.920298
0.920301
0.920301
0.920303
0.920306
0.920309
0.920312
0.920312
0.920314
0.920317
0.92032
0.920323
0.920323
0.920325
0.920328
0.920331
0.920334
0.920334
0.920336
0.920339
0.920342
0.920345
0.920345
0.920347
0.92035
0.920353
0.920356
0.920356
0.920358
0.920361
0.920364
0.920367
0.920367
0.920369
0.920372
0.920375
0.920378
0.920378
0.92038
0.920383
0.920386
0.920389
0.920389
0.920391
0.920394
0.920397
0.9204
0.9204
0.920402
0.920405
0.920408
0.920411
0.920411
0.920413
0.920416
0.920419
0.920422
0.920422
0.920424
0.920427
0.92043
0.920433
0.920433
0.920436
0.920438
0.920441
0.920444
0.920444
0.920447
0.920449
0.920452
0.920455
0.920455
0.920458
0.92046
0.920463
0.920466
0.920466
0.920469
0.920472
0.920474
0.920477
0.920477
0.92048
0.920483
0.920485
0.920488
0.920488
0.920491
0.920494
0.920496
0.920499
0.920499
0.920502
0.920505
0.920508
0.92051
0.92051
0.920513
0.920516
0.920519
0.920521
0.920521
0.920524
0.920527
0.92053
0.920533
0.920533
0.920535
0.920538
0.920541
0.920544
0.920544
0.920546
0.920549
0.920552
0.920555
0.920555
0.920558
0.92056
0.920563
0.920566
0.920566
0.920569
0.920571
0.920574
0.920577
0.920577
0.92058
0.920583
0.920586
0.920588
0.920588
0.920591
0.920594
0.920597
0.9206
0.9206
0.920603
0.920605
0.920608
0.920611
0.920611
0.920614
0.920617
0.92062
0.920623
0.920623
0.920626
0.920628
0.920631
0.920634
0.920634
0.920637
0.92064
0.920643
0.920646
0.920646
0.920649
0.920651
0.920654
0.920657
0.920657
0.92066
0.920663
0.920666
0.920669
0.920669
0.920672
0.920674
0.920677
0.92068
0.92068
0.920683
0.920686
0.920689
0.920692
0.920692
0.920695
0.920697
0.9207
0.920703
0.920703
0.920706
0.920709
0.920712
0.920715
0.920715
0.920718
0.920721
0.920723
0.920726
0.920726
0.920729
0.920732
0.920735
0.920738
0.920738
0.920741
0.920744
0.920746
0.920749
0.920749
0.920752
0.920755
0.920758
0.920761
0.920761
0.920764
0.920767
0.92077
0.920772
0.920772
0.920775
0.920778
0.920781
0.920784
0.920784
0.920787
0.92079
0.920793
0.920796
0.920796
0.920799
0.920801
0.920804
0.920807
0.920807
0.92081
0.920813
0.920816
0.920819
0.920819
0.920822
0.920825
0.920827
0.92083
0.92083
0.920833
0.920836
0.920839
0.920842
0.920842
0.920845
0.920848
0.920851
0.920854
0.920854
0.920856
0.920859
0.920862
0.920865
0.920865
0.920868
0.920871
0.920874
0.920877
0.920877
0.92088
0.920883
0.920885
0.920888
0.920888
0.920891
0.920894
0.920897
0.9209
0.9209
0.920903
0.920906
0.920909
0.920912
0.920912
0.920915
0.920918
0.920921
0.920923
0.920923
0.920926
0.920929
0.920932
0.920935
0.920935
0.920938
0.920941
0.920944
0.920947
0.920947
0.92095
0.920953
0.920956
0.920959
0.920959
0.920962
0.920965
0.920968
0.920971
0.920971
0.920974
0.920977
0.92098
0.920983
0.920983
0.920986
0.920989
0.920992
0.920995
0.920995
0.920998
0.921001
0.921004
0.921007
0.921007
0.92101
0.921013
0.921016
0.921019
0.921019
0.921022
0.921025
0.921028
0.921031
0.921031
0.921034
0.921037
0.92104
0.921043
0.921043
0.921046
0.921049
0.921052
0.921055
0.921055
0.921058
0.921061
0.921064
0.921067
0.921067
0.92107
0.921073
0.921076
0.921079
0.921079
0.921082
0.921085
0.921088
0.921091
0.921091
0.921094
0.921097
0.9211
0.921103
0.921103
0.921106
0.921109
0.921112
0.921115
0.921115
0.921118
0.921121
0.921125
0.921128
0.921128
0.921131
0.921134
0.921137
0.92114
0.92114
0.921143
0.921146
0.921149
0.921152
0.921152
0.921155
0.921158
0.921161
0.921164
0.921164
0.921167
0.92117
0.921173
0.921176
0.921176
0.921179
0.921182
0.921185
0.921188
0.921188
0.921191
0.921194
0.921197
0.9212
0.9212
0.921203
0.921206
0.921209
0.921212
0.921212
0.921215
0.921218
0.921221
0.921224
0.921224
0.921227
0.92123
0.921233
0.921236
0.921236
0.921239
0.921242
0.921245
0.921248
0.921248
0.921251
0.921254
0.921258
0.921261
0.921261
0.921264
0.921267
0.92127
0.921273
0.921273
0.921276
0.921279
0.921282
0.921286
0.921286
0.921289
0.921292
0.921295
0.921298
0.921298
0.921301
0.921304
0.921307
0.92131
0.92131
0.921314
0.921317
0.92132
0.921323
0.921323
0.921326
0.921329
0.921332
0.921335
0.921335
0.921338
0.921342
0.921345
0.921348
0.921348
0.921351
0.921354
0.921357
0.92136
0.92136
0.921363