<?xml version="1.0"?>
<VTKFile type="UnstructuredGrid" version="0.1" byte_order="LittleEndian">
<UnstructuredGrid>
<Piece NumberOfPoints="5000" NumberOfCells="4000">
<PointData Scalars="Reaction 0">
<DataArray type="Float32" Name="Reaction 0" format="ascii">
0.849532
0.849532
0.849532
0.849532
0.849532
0.849532
0.849532
0.849532
0.849532
0.849532
0.849532
0.849532
0.849532
0.849532
0.849532
0.849532
0.849532
0.849532
0.849532
0.849532
0.849532
0.849532
0.849532
0.849532
0.849532
0.849532
0.849532
0.849532
0.849532
0.849532
0.849532
0.849532
0.849533
0.849533
0.849533
0.849533
0.849533
0.849533
0.849533
0.849533
0.849533
0.849533
0.849533
0.849533
0.849533
0.849533
0.849533
0.849534
0.849534
0.849534
0.849534
0.849534
0.849534
0.849534
0.849534
0.849534
0.849534
0.849534
0.849535
0.849535
0.849535
0.849535
0.849535
0.849535
0.849535
0.849535
0.849535
0.849535
0.849536
0.849536
0.849536
0.849536
0.849536
0.849536
0.849536
0.849536
0.849537
0.849537
0.849537
0.849537
0.849537
0.849537
0.849537
0.849537
0.849538
0.849538
0.849538
0.849538
0.849538
0.849538
0.849538
0.849539
0.849539
0.849539
0.849539
0.849539
0.849539
0.84954
0.84954
0.84954
0.84954
0.84954
0.84954
0.849541
0.849541
0.849541
0.849541
0.849541
0.849541
0.849542
0.849542
0.849542
0.849542
0.849542
0.849543
0.849543
0.849543
0.849543
0.849543
0.849544
0.849544
0.849544
0.849544
0.849544
0.849545
0.849545
0.849545
0.849545
0.849545
0.849546
0.849546
0.849546
0.849546
0.849547
0.849547
0.849547
0.849547
0.849547
0.849548
0.849548
0.849548
0.849548
0.849549
0.849549
0.849549
0.849549
0.849549
0.84955
0.84955
0.84955
0.84955
0.849551
0.849551
0.849551
0.849552
0.849552
0.849552
0.849552
0.849553
0.849553
0.849553
0.849553
0.849554
0.849554
0.849554
0.849554
0.849555
0.849555
0.849555
0.849556
0.849556
0.849556
0.849556
0.849557
0.849557
0.849557
0.849557
0.849558
0.849558
0.849559
0.849559
0.849559
0.849559
0.84956
0.84956
0.84956
0.84956
0.849561
0.849561
0.849562
0.849562
0.849562
0.849562
0.849563
0.849563
0.849563
0.849564
0.849564
0.849564
0.849565
0.849565
0.849565
0.849566
0.849566
0.849567
0.849567
0.849567
0.849567
0.849568
0.849568
0.849568
0.849569
0.849569
0.84957
0.84957
0.84957
0.84957
0.849571
0.849571
0.849572
0.849572
0.849572
0.849573
0.849573
0.849574
0.849574
0.849574
0.849575
0.849575
0.849576
0.849576
0.849576
0.849577
0.849577
0.849578
0.849578
0.849578
0.849578
0.849579
0.849579
0.849579
0.84958
0.84958
0.849581
0.849581
0.849581
0.849582
0.849583
0.849583
0.849584
0.849584
0.849584
0.849585
0.849585
0.849586
0.849586
0.849586
0.849587
0.849587
0.849588
0.849588
0.849588
0.849589
0.849589
0.84959
0.84959
0.849591
0.849591
0.849592
0.849592
0.849592
0.849593
0.849593
0.849594
0.849594
0.849594
0.849595
0.849596
0.849596
0.849597
0.849597
0.849597
0.849598
0.849599
0.849599
0.849599
0.8496
0.8496
0.849601
0.849601
0.849601
0.849602
0.849603
0.849603
0.849604
0.849604
0.849605
0.849605
0.849606
0.849606
0.849606
0.849607
0.849608
0.849608
0.849609
0.849609
0.84961
0.84961
0.849611
0.849611
0.849611
0.849612
0.849613
0.849613
0.849614
0.849614
0.849615
0.849615
0.849616
0.849617
0.849617
0.849617
0.849618
0.849619
0.849619
0.849619
0.84962
0.849621
0.849621
0.849622
0.849622
0.849623
0.849623
0.849624
0.849625
0.849625
0.849626
0.849626
0.849627
0.849628
0.849628
0.849628
0.849629
0.84963
0.84963
0.84963
0.849631
0.849632
0.849633
0.849633
0.849633
0.849634
0.849635
0.849636
0.849636
0.849636
0.849637
0.849638
0.849638
0.849639
0.849639
0.84964
0.849641
0.849641
0.849642
0.849642
0.849643
0.849644
0.849645
0.849645
0.849645
0.849646
0.849647
0.849648
0.849648
0.849648
0.849649
0.84965
0.849651
0.849652
0.849652
0.849652
0.849653
0.849654
0.849655
0.849655
0.849655
0.849656
0.849657
0.849658
0.849658
0.849659
0.84966
0.84966
0.849661
0.849661
0.849662
0.849663
0.849664
0.849664
0.849664
0.849665
0.849666
0.849667
0.849668
0.849668
0.849669
0.849669
0.84967
0.849671
0.849671
0.849672
0.849673
0.849674
0.849675
0.849675
0.849675
0.849676
0.849677
0.849678
0.849678
0.849679
0.84968
0.849681
0.849682
0.849682
0.849682
0.849683
0.849684
0.849685
0.849685
0.849686
0.849687
0.849688
0.849689
0.849689
0.84969
0.849691
0.849691
0.849692
0.849692
0.849693
0.849694
0.849695
0.849696
0.849696
0.849697
0.849698
0.849699
0.8497
0.8497
0.849701
0.849702
0.849703
0.849703
0.849703
0.849704
0.849705
0.849706
0.849707
0.849707
0.849708
0.849709
0.84971
0.849711
0.849711
0.849712
0.849713
0.849714
0.849715
0.849715
0.849716
0.849717
0.849718
0.849719
0.849719
0.84972
0.849721
0.849722
0.849723
0.849723
0.849724
0.849725
0.849726
0.849727
0.849727
0.849728
0.849729
0.84973
0.849731
0.849731
0.849732
0.849733
0.849734
0.849735
0.849735
0.849736
0.849737
0.849738
0.849739
0.849739
0.84974
0.849741
0.849742
0.849743
0.849743
0.849744
0.849745
0.849746
0.849748
0.849748
0.849749
0.84975
0.849751
0.849752
0.849752
0.849753
0.849754
0.849755
0.849756
0.849756
0.849757
0.849758
0.849759
0.84976
0.84976
0.849761
0.849763
0.849764
0.849765
0.849765
0.849766
0.849767
0.849768
0.849769
0.849769
0.84977
0.849771
0.849773
0.849774
0.849774
0.849775
0.849776
0.849777
0.849778
0.849778
0.849779
0.84978
0.849782
0.849783
0.849783
0.849784
0.849785
0.849786
0.849787
0.849787
0.849788
0.84979
0.849791
0.849792
0.849792
0.849793
0.849794
0.849795
0.849797
0.849797
0.849798
0.849799
0.8498
0.849801
0.849801
0.849802
0.849804
0.849805
0.849806
0.849806
0.849807
0.849808
0.84981
0.849811
0.849811
0.849812
0.849813
0.849814
0.849816
0.849816
0.849817
0.849818
0.849819
0.84982
0.84982
0.849822
0.849823
0.849824
0.849825
0.849825
0.849827
0.849828
0.849829
0.84983
0.84983
0.849831
0.849833
0.849834
0.849835
0.849835
0.849836
0.849838
0.849839
0.84984
0.84984
0.849841
0.849843
0.849844
0.849845
0.849845
0.849846
0.849848
0.849849
0.84985
0.84985
0.849852
0.849853
0.849854
0.849856
0.849856
0.849857
0.849858
0.849859
0.849861
0.849861
0.849862
0.849863
0.849865
0.849866
0.849866
0.849867
0.849869
0.84987
0.849871
0.849871
0.849873
0.849874
0.849875
0.849877
0.849877
0.849878
0.849879
0.849881
0.849882
0.849882
0.849883
0.849885
0.849886
0.849888
0.849888
0.849889
0.84989
0.849892
0.849893
0.849893
0.849894
0.849896
0.849897
0.849899
0.849899
0.8499
0.849901
0.849903
0.849904
0.849904
0.849905
0.849907
0.849908
0.84991
0.84991
0.849911
0.849912
0.849914
0.849915
0.849915
0.849917
0.849918
0.849919
0.849921
0.849921
0.849922
0.849924
0.849925
0.849927
0.849927
0.849928
0.849929
0.849931
0.849932
0.849932
0.849934
0.849935
0.849937
0.849938
0.849938
0.84994
0.849941
0.849943
0.849944
0.849944
0.849945
0.849947
0.849948
0.84995
0.84995
0.849951
0.849953
0.849954
0.849956
0.849956
0.849957
0.849959
0.84996
0.849962
0.849962
0.849963
0.849965
0.849966
0.849968
0.849968
0.849969
0.849971
0.849972
0.849974
0.849974
0.849975
0.849977
0.849978
0.84998
0.84998
0.849981
0.849983
0.849984
0.849986
0.849986
0.849987
0.849989
0.84999
0.849992
0.849992
0.849994
0.849995
0.849997
0.849998
0.849998
0.85
0.850001
0.850003
0.850004
0.850004
0.850006
0.850008
0.850009
0.850011
0.850011
0.850012
0.850014
0.850015
0.850017
0.850017
0.850019
0.85002
0.850022
0.850023
0.850023
0.850025
0.850027
0.850028
0.85003
0.85003
0.850031
0.850033
0.850035
0.850036
0.850036
0.850038
0.85004
0.850041
0.850043
0.850043
0.850044
0.850046
0.850048
0.850049
0.850049
0.850051
0.850053
0.850054
0.850056
0.850056
0.850057
0.850059
0.850061
0.850062
0.850062
0.850064
0.850066
0.850067
0.850069
0.850069
0.850071
0.850072
0.850074
0.850076
0.850076
0.850077
0.850079
0.850081
0.850083
0.850083
0.850084
0.850086
0.850088
0.850089
0.850089
0.850091
0.850093
0.850094
0.850096
0.850096
0.850098
0.8501
0.850101
0.850103
0.850103
0.850105
0.850106
0.850108
0.85011
0.85011
0.850112
0.850113
0.850115
0.850117
0.850117
0.850119
0.85012
0.850122
0.850124
0.850124
0.850126
0.850127
0.850129
0.850131
0.850131
0.850133
0.850134
0.850136
0.850138
0.850138
0.85014
0.850141
0.850143
0.850145
0.850145
0.850147
0.850149
0.85015
0.850152
0.850152
0.850154
0.850156
0.850158
0.850159
0.850159
0.850161
0.850163
0.850165
0.850167
0.850167
0.850168
0.85017
0.850172
0.850174
0.850174
0.850176
0.850177
0.850179
0.850181
0.850181
0.850183
0.850185
0.850187
0.850188
0.850188
0.85019
0.850192
0.850194
0.850196
0.850196
0.850198
0.8502
0.850201
0.850203
0.850203
0.850205
0.850207
0.850209
0.850211
0.850211
0.850213
0.850215
0.850216
0.850218
0.850218
0.85022
0.850222
0.850224
0.850226
0.850226
0.850228
0.85023
0.850232
0.850233
0.850233
0.850235
0.850237
0.850239
0.850241
0.850241
0.850243
0.850245
0.850247
0.850249
0.850249
0.850251
0.850253
0.850255
0.850256
0.850256
0.850258
0.85026
0.850262
0.850264
0.850264
0.850266
0.850268
0.85027
0.850272
0.850272
0.850274
0.850276
0.850278
0.85028
0.85028
0.850282
0.850284
0.850286
0.850288
0.850288
0.85029
0.850292
0.850294
0.850296
0.850296
0.850298
0.8503
0.850302
0.850304
0.850304
0.850306
0.850308
0.85031
0.850312
0.850312
0.850314
0.850316
0.850318
0.85032
0.85032
0.850322
0.850324
0.850326
0.850328
0.850328
0.85033
0.850332
0.850334
0.850336
0.850336
0.850338
0.85034
0.850342
0.850344
0.850344
0.850346
0.850348
0.85035
0.850352
0.850352
0.850354
0.850357
0.850359
0.850361
0.850361
0.850363
0.850365
0.850367
0.850369
0.850369
0.850371
0.850373
0.850375
0.850377
0.850377
0.850379
0.850381
0.850384
0.850386
0.850386
0.850388
0.85039
0.850392
0.850394
0.850394
0.850396
0.850398
0.8504
0.850403
0.850403
0.850405
0.850407
0.850409
0.850411
0.850411
0.850413
0.850415
0.850417
0.85042
0.85042
0.850422
0.850424
0.850426
0.850428
0.850428
0.85043
0.850433
0.850435
0.850437
0.850437
0.850439
0.850441
0.850443
0.850445
0.850445
0.850448
0.85045
0.850452
0.850454
0.850454
0.850456
0.850459
0.850461
0.850463
0.850463
0.850465
0.850467
0.850469
0.850472
0.850472
0.850474
0.850476
0.850478
0.85048
0.85048
0.850483
0.850485
0.850487
0.850489
0.850489
0.850492
0.850494
0.850496
0.850498
0.850498
0.8505
0.850503
0.850505
0.850507
0.850507
0.850509
0.850512
0.850514
0.850516
0.850516
0.850518
0.850521
0.850523
0.850525
0.850525
0.850527
0.85053
0.850532
0.850534
0.850534
0.850536
0.850539
0.850541
0.850543
0.850543
0.850545
0.850548
0.85055
0.850552
0.850552
0.850555
0.850557
0.850559
0.850562
0.850562
0.850564
0.850566
0.850569
0.850571
0.850571
0.850573
0.850576
0.850578
0.85058
0.85058
0.850583
0.850585
0.850587
0.85059
0.85059
0.850592
0.850594
0.850597
0.850599
0.850599
0.850601
0.850604
0.850606
0.850608
0.850608
0.850611
0.850613
0.850616
0.850618
0.850618
0.85062
0.850623
0.850625
0.850627
0.850627
0.85063
0.850632
0.850635
0.850637
0.850637
0.850639
0.850642
0.850644
0.850647
0.850647
0.850649
0.850651
0.850654
0.850656
0.850656
0.850659
0.850661
0.850663
0.850666
0.850666
0.850668
0.850671
0.850673
0.850676
0.850676
0.850678
0.85068
0.850683
0.850685
0.850685
0.850688
0.85069
0.850693
0.850695
0.850695
0.850698
0.8507
0.850702
0.850705
0.850705
0.850707
0.85071
0.850712
0.850715
0.850715
0.850717
0.85072
0.850722
0.850725
0.850725
0.850727
0.85073
0.850732
0.850735
0.850735
0.850737
0.85074
0.850742
0.850745
0.850745
0.850747
0.85075
0.850752
0.850755
0.850755
0.850757
0.85076
0.850762
0.850765
0.850765
0.850767
0.85077
0.850772
0.850775
0.850775
0.850777
0.85078
0.850782
0.850785
0.850785
0.850788
0.85079
0.850793
0.850795
0.850795
0.850798
0.8508
0.850803
0.850805
0.850805
0.850808
0.850811
0.850813
0.850816
0.850816
0.850818
0.850821
0.850823
0.850826
0.850826
0.850829
0.850831
0.850834
0.850836
0.850836
0.850839
0.850842
0.850844
0.850847
0.850847
0.850849
0.850852
0.850855
0.850857
0.850857
0.85086
0.850862
0.850865
0.850868
0.850868
0.85087
0.850873
0.850876
0.850878
0.850878
0.850881
0.850883
0.850886
0.850889
0.850889
0.850891
0.850894
0.850897
0.850899
0.850899
0.850902
0.850905
0.850907
0.85091
0.85091
0.850913
0.850915
0.850918
0.850921
0.850921
0.850923
0.850926
0.850929
0.850931
0.850931
0.850934
0.850937
0.850939
0.850942
0.850942
0.850945
0.850948
0.85095
0.850953
0.850953
0.850956
0.850958
0.850961
0.850964
0.850964
0.850967
0.850969
0.850972
0.850975
0.850975
0.850977
0.85098
0.850983
0.850986
0.850986
0.850988
0.850991
0.850994
0.850997
0.850997
0.850999
0.851002
0.851005
0.851008
0.851008
0.85101
0.851013
0.851016
0.851019
0.851019
0.851021
0.851024
0.851027
0.85103
0.85103
0.851033
0.851035
0.851038
0.851041
0.851041
0.851044
0.851046
0.851049
0.851052
0.851052
0.851055
0.851058
0.85106
0.851063
0.851063
0.851066
0.851069
0.851072
0.851075
0.851075
0.851077
0.85108
0.851083
0.851086
0.851086
0.851089
0.851091
0.851094
0.851097
0.851097
0.8511
0.851103
0.851106
0.851109
0.851109
0.851111
0.851114
0.851117
0.85112
0.85112
0.851123
0.851126
0.851128
0.851131
0.851131
0.851134
0.851137
0.85114
0.851143
0.851143
0.851146
0.851149
0.851151
0.851154
0.851154
0.851157
0.85116
0.851163
0.851166
0.851166
0.851169
0.851172
0.851175
0.851177
0.851177
0.85118
0.851183
0.851186
0.851189
0.851189
0.851192
0.851195
0.851198
0.851201
0.851201
0.851204
0.851207
0.851209
0.851212
0.851212
0.851215
0.851218
0.851221
0.851224
0.851224
0.851227
0.85123
0.851233
0.851236
0.851236
0.851239
0.851242
0.851245
0.851248
0.851248
0.851251
0.851254
0.851257
0.85126
0.85126
0.851263
0.851266
0.851269
0.851272
0.851272
0.851275
0.851278
0.851281
0.851284
0.851284
0.851287
0.85129
0.851293
0.851296
0.851296
0.851299
0.851302
0.851305
0.851308
0.851308
0.851311
0.851314
0.851317
0.85132
0.85132
0.851323
0.851326
0.851329
0.851332
0.851332
0.851335
0.851338
0.851341
0.851345
0.851345
0.851348
0.851351
0.851354
0.851357
0.851357
0.85136
0.851363
0.851366
0.851369
0.851369
0.851372
0.851375
0.851378
0.851381
0.851381
0.851385
0.851388
0.851391
0.851394
0.851394
0.851397
0.8514
0.851403
0.851406
0.851406
0.851409
0.851412
0.851416
0.851419
0.851419
0.851422
0.851425
0.851428
0.851431
0.851431
0.851434
0.851437
0.851441
0.851444
0.851444
0.851447
0.85145
0.851453
0.851456
0.851456
0.851459
0.851463
0.851466
0.851469
0.851469
0.851472
0.851475
0.851478
0.851481
0.851481
0.851485
0.851488
0.851491
0.851494
0.851494
0.851497
0.851501
0.851504
0.851507
0.851507
0.85151
0.851513
0.851516
0.85152
0.85152
0.851523
0.851526
0.851529
0.851532
0.851532
0.851536
0.851539
0.851542
0.851545
0.851545
0.851549
0.851552
0.851555
0.851558
0.851558
0.851561
0.851565
0.851568
0.851571
0.851571
0.851574
0.851578
0.851581
0.851584
0.851584
0.851587
0.851591
0.851594
0.851597
0.851597
0.8516
0.851604
0.851607
0.85161
0.85161
0.851613
0.851617
0.85162
0.851623
0.851623
0.851627
0.85163
0.851633
0.851636
0.851636
0.85164
0.851643
0.851646
0.85165
0.85165
0.851653
0.851656
0.851659
0.851663
0.851663
0.851666
0.851669
0.851673
0.851676
0.851676
0.851679
0.851683
0.851686
0.851689
0.851689
0.851693
0.851696
0.851699
0.851703
0.851703
0.851706
0.851709
0.851713
0.851716
0.851716
0.851719
0.851723
0.851726
0.851729
0.851729
0.851733
0.851736
0.85174
0.851743
0.851743
0.851746
0.85175
0.851753
0.851756
0.851756
0.85176
0.851763
0.851767
0.85177
0.85177
0.851773
0.851777
0.85178
0.851783
0.851783
0.851787
0.85179
0.851794
0.851797
0.851797
0.851801
0.851804
0.851807
0.851811
0.851811
0.851814
0.851818
0.851821
0.851824
0.851824
0.851828
0.851831
0.851835
0.851838
0.851838
0.851842
0.851845
0.851848
0.851852
0.851852
0.851855
0.851859
0.851862
0.851866
0.851866
0.851869
0.851873
0.851876
0.851879
0.851879
0.851883
0.851886
0.85189
0.851893
0.851893
0.851897
0.8519
0.851904
0.851907
0.851907
0.851911
0.851914
0.851918
0.851921
0.851921
0.851925
0.851928
0.851932
0.851935
0.851935
0.851939
0.851942
0.851946
0.851949
0.851949
0.851953
0.851956
0.85196
0.851963
0.851963
0.851967
0.85197
0.851974
0.851977
0.851977
0.851981
0.851984
0.851988
0.851992
0.851992
0.851995
0.851999
0.852002
0.852006
0.852006
0.852009
0.852013
0.852017
0.85202
0.85202
0.852024
0.852027
0.852031
0.852035
0.852035
0.852038
0.852042
0.852045
0.852049
0.852049
0.852053
0.852056
0.85206
0.852063
0.852063
0.852067
0.852071
0.852074
0.852078
0.852078
0.852082
0.852085
0.852089
0.852092
0.852092
0.852096
0.8521
0.852103
0.852107
0.852107
0.852111
0.852114
0.852118
0.852122
0.852122
0.852125
0.852129
0.852132
0.852136
0.852136
0.85214
0.852143
0.852147
0.852151
0.852151
0.852154
0.852158
0.852162
0.852165
0.852165
0.852169
0.852173
0.852176
0.85218
0.85218
0.852184
0.852188
0.852191
0.852195
0.852195
0.852199
0.852202
0.852206
0.85221
0.85221
0.852213
0.852217
0.852221
0.852225
0.852225
0.852228
0.852232
0.852236
0.852239
0.852239
0.852243
0.852247
0.852251
0.852254
0.852254
0.852258
0.852262
0.852266
0.852269
0.852269
0.852273
0.852277
0.852281
0.852284
0.852284
0.852288
0.852292
0.852296
0.852299
0.852299
0.852303
0.852307
0.852311
0.852314
0.852314
0.852318
0.852322
0.852326
0.85233
0.85233
0.852333
0.852337
0.852341
0.852345
0.852345
0.852349
0.852352
0.852356
0.85236
0.85236
0.852364
0.852368
0.852371
0.852375
0.852375
0.852379
0.852383
0.852387
0.85239
0.85239
0.852394
0.852398
0.852402
0.852406
0.852406
0.85241
0.852413
0.852417
0.852421
0.852421
0.852425
0.852429
0.852433
0.852437
0.852437
0.85244
0.852444
0.852448
0.852452
0.852452
0.852456
0.85246
0.852464
0.852467
0.852467
0.852471
0.852475
0.852479
0.852483
0.852483
0.852487
0.852491
0.852495
0.852498
0.852498
0.852502
0.852506
0.85251
0.852514
0.852514
0.852518
0.852522
0.852526
0.85253
0.85253
0.852534
0.852538
0.852541
0.852545
0.852545
0.852549
0.852553
0.852557
0.852561
0.852561
0.852565
0.852569
0.852573
0.852577
0.852577
0.852581
0.852585
0.852589
0.852592
0.852592
0.852596
0.8526
0.852604
0.852608
0.852608
0.852612
0.852616
0.85262
0.852624
0.852624
0.852628
0.852632
0.852636
0.85264
0.85264
0.852644
0.852648
0.852652
0.852656
0.852656
0.85266
0.852664
0.852668
0.852672
0.852672
0.852676
0.85268
0.852684
0.852688
0.852688
0.852692
0.852696
0.8527
0.852704
0.852704
0.852708
0.852712
0.852716
0.85272
0.85272
0.852724
0.852728
0.852732
0.852736
0.852736
0.85274
0.852744
0.852749
0.852753
0.852753
0.852757
0.852761
0.852765
0.852769
0.852769
0.852773
0.852777
0.852781
0.852785
0.852785
0.852789
0.852794
0.852798
0.852802
0.852802
0.852806
0.85281
0.852814
0.852818
0.852818
0.852822
0.852826
0.85283
0.852835
0.852835
0.852839
0.852843
0.852847
0.852851
0.852851
0.852855
0.852859
0.852863
0.852868
0.852868
0.852872
0.852876
0.85288
0.852884
0.852884
0.852888
0.852892
0.852897
0.852901
0.852901
0.852905
0.852909
0.852913
0.852917
0.852917
0.852921
0.852926
0.85293
0.852934
0.852934
0.852938
0.852942
0.852946
0.852951
0.852951
0.852955
0.852959
0.852963
0.852967
0.852967
0.852972
0.852976
0.85298
0.852984
0.852984
0.852988
0.852993
0.852997
0.853001
0.853001
0.853005
0.853009
0.853014
0.853018
0.853018
0.853022
0.853026
0.85303
0.853035
0.853035
0.853039
0.853043
0.853047
0.853052
0.853052
0.853056
0.85306
0.853064
0.853069
0.853069
0.853073
0.853077
0.853081
0.853086
0.853086
0.85309
0.853094
0.853098
0.853103
0.853103
0.853107
0.853111
0.853115
0.85312
0.85312
0.853124
0.853128
0.853133
0.853137
0.853137
0.853141
0.853145
0.85315
0.853154
0.853154
0.853158
0.853163
0.853167
0.853171
0.853171
0.853176
0.85318
0.853184
0.853188
0.853188
0.853193
0.853197
0.853201
0.853206
0.853206
0.85321
0.853214
0.853219
0.853223
0.853223
0.853227
0.853232
0.853236
0.85324
0.85324
0.853245
0.853249
0.853253
0.853258
0.853258
0.853262
0.853266
0.853271
0.853275
0.853275
0.85328
0.853284
0.853288
0.853293
0.853293
0.853297
0.853301
0.853306
0.85331
0.85331
0.853314
0.853319
0.853323
0.853328
0.853328
0.853332
0.853336
0.853341
0.853345
0.853345
0.853349
0.853354
0.853358
0.853363
0.853363
0.853367
0.853371
0.853376
0.85338
0.85338
0.853385
0.853389
0.853393
0.853398
0.853398
0.853402
0.853407
0.853411
0.853416
0.853416
0.85342
0.853425
0.853429
0.853433
0.853433
0.853438
0.853442
0.853447
0.853451
0.853451
0.853456
0.85346
0.853465
0.853469
0.853469
0.853474
0.853478
0.853483
0.853487
0.853487
0.853492
0.853497
0.853501
0.853506
0.853506
0.85351
0.853515
0.853519
0.853524
0.853524
0.853528
0.853533
0.853537
0.853542
0.853542
0.853546
0.853551
0.853555
0.85356
0.85356
0.853564
0.853569
0.853573
0.853578
0.853578
0.853583
0.853587
0.853592
0.853596
0.853596
0.853601
0.853605
0.85361
0.853614
0.853614
0.853619
0.853624
0.853628
0.853633
0.853633
0.853637
0.853642
0.853646
0.853651
0.853651
0.853656
0.85366
0.853665
0.853669
0.853669
0.853674
0.853679
0.853683
0.853688
0.853688
0.853692
0.853697
0.853702
0.853706
0.853706
0.853711
0.853715
0.85372
0.853725
0.853725
0.853729
0.853734
0.853738
0.853743
0.853743
0.853748
0.853752
0.853757
0.853762
0.853762
0.853766
0.853771
0.853776
0.85378
0.85378
0.853785
0.853789
0.853794
0.853799
0.853799
0.853803
0.853808
0.853813
0.853817
0.853817
0.853822
0.853827
0.853831
0.853836
0.853836
0.853841
0.853845
0.85385
0.853855
0.853855
0.85386
0.853864
0.853869
0.853874
0.853874
0.853878
0.853883
0.853888
0.853892
0.853892
0.853897
0.853902
0.853906
0.853911
0.853911
0.853916
0.853921
0.853925
0.85393
0.85393
0.853935
0.85394
0.853944
0.853949
0.853949
0.853954
0.853958
0.853963
0.853968
0.853968
0.853973
0.853977
0.853982
0.853987
0.853987
0.853992
0.853996
0.854001
0.854006
0.854006
0.854011
0.854015
0.85402
0.854025
0.854025
0.85403
0.854034
0.854039
0.854044
0.854044
0.854049
0.854053
0.854058
0.854063
0.854063
0.854068
0.854072
0.854077
0.854082
0.854082
0.854087
0.854092
0.854096
0.854101
0.854101
0.854106
0.854111
0.854116
0.85412
0.85412
0.854125
0.85413
0.854135
0.85414
0.85414
0.854145
0.854149
0.854154
0.854159
0.854159
0.854164
0.854169
0.854174
0.854179
0.854179
0.854184
0.854188
0.854193
0.854198
0.854198
0.854203
0.854208
0.854213
0.854218
0.854218
0.854223
0.854228
0.854232
0.854237
0.854237
0.854242
0.854247
0.854252
0.854257
0.854257
0.854262
0.854267
0.854272
0.854277
0.854277
0.854282
0.854287
0.854291
0.854296
0.854296
0.854301
0.854306
0.854311
0.854316
0.854316
0.854321
0.854326
0.854331
0.854336
0.854336
0.854341
0.854346
0.854351
0.854356
0.854356
0.854361
0.854366
0.85437
0.854375
0.854375
0.85438
0.854385
0.85439
0.854395
0.854395
0.8544
0.854405
0.85441
0.854415
0.854415
0.85442
0.854425
0.85443
0.854435
0.854435
0.85444
0.854445
0.85445
0.854455
0.854455
0.85446
0.854465
0.85447
0.854475
0.854475
0.85448
0.854485
0.85449
0.854495
0.854495
0.8545
0.854505
0.85451
0.854515
0.854515
0.85452
0.854525
0.85453
0.854535
0.854535
0.85454
0.854545
0.85455
0.854555
0.854555
0.85456
0.854565
0.854571
0.854576
0.854576
0.854581
0.854586
0.854591
0.854596
0.854596
0.854601
0.854606
0.854611
0.854616
0.854616
0.854621
0.854626
0.854631
0.854636
0.854636
0.854641
0.854647
0.854652
0.854657
0.854657
0.854662
0.854667
0.854672
0.854677
0.854677
0.854682
0.854687
0.854692
0.854697
0.854697
0.854702
0.854708
0.854713
0.854718
0.854718
0.854723
0.854728
0.854733
0.854738
0.854738
0.854743
0.854748
0.854754
0.854759
0.854759
0.854764
0.854769
0.854774
0.854779
0.854779
0.854784
0.854789
0.854794
0.8548
0.8548
0.854805
0.85481
0.854815
0.85482
0.85482
0.854825
0.85483
0.854836
0.854841
0.854841
0.854846
0.854851
0.854856
0.854862
0.854862
0.854867
0.854872
0.854877
0.854882
0.854882
0.854888
0.854893
0.854898
0.854903
0.854903
0.854909
0.854914
0.854919
0.854924
0.854924
0.85493
0.854935
0.85494
0.854945
0.854945
0.854951
0.854956
0.854961
0.854966
0.854966
0.854972
0.854977
0.854982
0.854987
0.854987
0.854993
0.854998
0.855003
0.855009
0.855009
0.855014
0.855019
0.855024
0.85503
0.85503
0.855035
0.85504
0.855046
0.855051
0.855051
0.855056
0.855061
0.855067
0.855072
0.855072
0.855077
0.855083
0.855088
0.855093
0.855093
0.855098
0.855104
0.855109
0.855114
0.855114
0.85512
0.855125
0.85513
0.855136
0.855136
0.855141
0.855146
0.855152
0.855157
0.855157
0.855162
0.855168
0.855173
0.855178
0.855178
0.855184
0.855189
0.855194
0.8552
0.8552
0.855205
0.85521
0.855216
0.855221
0.855221
0.855226
0.855232
0.855237
0.855243
0.855243
0.855248
0.855253
0.855259
0.855264
0.855264
0.855269
0.855275
0.85528
0.855286
0.855286
0.855291
0.855296
0.855302
0.855307
0.855307
0.855312
0.855318
0.855323
0.855329
0.855329
0.855334
0.855339
0.855345
0.85535
0.85535
0.855356
0.855361
0.855367
0.855372
0.855372
0.855377
0.855383
0.855388
0.855394
0.855394
0.855399
0.855404
0.85541
0.855415
0.855415
0.855421
0.855426
0.855432
0.855437
0.855437
0.855442
0.855448
0.855453
0.855459
0.855459
0.855464
0.85547
0.855475
0.855481
0.855481
0.855486
0.855491
0.855497
0.855502
0.855502
0.855508
0.855513
0.855519
0.855524
0.855524
0.85553
0.855535
0.855541
0.855546
0.855546
0.855552
0.855557
0.855563
0.855568
0.855568
0.855574
0.855579
0.855585
0.85559
0.85559
0.855596
0.855601
0.855607
0.855612
0.855612
0.855618
0.855624
0.855629
0.855635
0.855635
0.85564
0.855646
0.855651
0.855657
0.855657
0.855663
0.855668
0.855674
0.855679
0.855679
0.855685
0.855691
0.855696
0.855702
0.855702
0.855707
0.855713
0.855718
0.855724
0.855724
0.85573
0.855735
0.855741
0.855746
0.855746
0.855752
0.855758
0.855763
0.855769
0.855769
0.855775
0.85578
0.855786
0.855791
0.855791
0.855797
0.855803
0.855808
0.855814
0.855814
0.85582
0.855825
0.855831
0.855836
0.855836
0.855842
0.855848
0.855853
0.855859
0.855859
0.855865
0.85587
0.855876
0.855882
0.855882
0.855887
0.855893
0.855899
0.855904
0.855904
0.85591
0.855916
0.855921
0.855927
0.855927
0.855933
0.855938
0.855944
0.85595
0.85595
0.855955
0.855961
0.855967
0.855972
0.855972
0.855978
0.855984
0.855989
0.855995
0.855995
0.856001
0.856006
0.856012
0.856018
0.856018
0.856024
0.856029
0.856035
0.856041
0.856041
0.856046
0.856052
0.856058
0.856064
0.856064
0.856069
0.856075
0.856081
0.856086
0.856086
0.856092
0.856098
0.856104
0.856109
0.856109
0.856115
0.856121
0.856127
0.856132
0.856132
0.856138
0.856144
0.85615
0.856155
0.856155
0.856161
0.856167
0.856172
0.856178
0.856178
0.856184
0.85619
0.856195
0.856201
0.856201
0.856207
0.856213
0.856219
0.856224
0.856224
0.85623
0.856236
0.856242
0.856247
0.856247
0.856253
0.856259
0.856265
0.85627
0.85627
0.856276
0.856282
0.856288
0.856294
0.856294
0.8563
0.856305
0.856311
0.856317
0.856317
0.856323
0.856329
0.856335
0.856341
0.856341
0.856346
0.856352
0.856358
0.856364
0.856364
0.85637
0.856376
0.856382
0.856388
0.856388
0.856394
0.856399
0.856405
0.856411
0.856411
0.856417
0.856423
0.856429
0.856435
0.856435
0.856441
0.856447
0.856453
0.856458
0.856458
0.856464
0.85647
0.856476
0.856482
0.856482
0.856488
0.856494
0.8565
0.856506
0.856506
0.856512
0.856518
0.856524
0.85653
0.85653
0.856535
0.856541
0.856547
0.856553
0.856553
0.856559
0.856565
0.856571
0.856577
0.856577
0.856583
0.856589
0.856595
0.856601
0.856601
0.856607
0.856613
0.856619
0.856625
0.856625
0.856631
0.856637
0.856643
0.856648
0.856648
0.856654
0.85666
0.856666
0.856672
0.856672
0.856678
0.856684
0.85669
0.856696
0.856696
0.856702
0.856708
0.856714
0.85672
0.85672
0.856726
0.856732
0.856738
0.856744
0.856744
0.85675
0.856756
0.856762
0.856768
0.856768
0.856774
0.85678
0.856786
0.856792
0.856792
0.856798
0.856804
0.85681
0.856816
0.856816
0.856822
0.856828
0.856834
0.856841
0.856841
0.856847
0.856853
0.856859
0.856865
0.856865
0.856871
0.856877
0.856883
0.856889
0.856889
0.856895
0.856901
0.856907
0.856913
0.856913
0.856919
0.856925
0.856931
0.856937
0.856937
0.856943
0.856949
0.856955
0.856961
0.856961
0.856967
0.856973
0.85698
0.856986
0.856986
0.856992
0.856998
0.857004
0.85701
0.85701
0.857016
0.857022
0.857028
0.857035
0.857035
0.857041
0.857047
0.857053
0.857059
0.857059
0.857065
0.857072
0.857078
0.857084
0.857084
0.85709
0.857096
0.857102
0.857109
0.857109
0.857115
0.857121
0.857127
0.857133
0.857133
0.85714
0.857146
0.857152
0.857158
0.857158
0.857164
0.857171
0.857177
0.857183
0.857183
0.857189
0.857195
0.857202
0.857208
0.857208
0.857214
0.85722
0.857226
0.857233
0.857233
0.857239
0.857245
0.857251
0.857257
0.857257
0.857264
0.85727
0.857276
0.857282
0.857282
0.857288
0.857295
0.857301
0.857307
0.857307
0.857313
0.85732
0.857326
0.857332
0.857332
0.857338
0.857345
0.857351
0.857357
0.857357
0.857363
0.85737
0.857376
0.857382
0.857382
0.857388
0.857395
0.857401
0.857407
0.857407
0.857413
0.85742
0.857426
0.857432
0.857432
0.857438
0.857445
0.857451
0.857457
0.857457
0.857464
0.85747
0.857476
0.857482
0.857482
0.857489
0.857495
0.857501
0.857508
0.857508
0.857514
0.85752
0.857526
0.857533
0.857533
0.857539
0.857545
0.857552
0.857558
0.857558
0.857564
0.857571
0.857577
0.857583
0.857583
0.857589
0.857596
0.857602
0.857608
0.857608
0.857615
0.857621
0.857627
0.857634
0.857634
0.85764
0.857646
0.857653
0.857659
0.857659
0.857665
0.857672
0.857678
0.857684
0.857684
0.857691
0.857697
0.857703
0.85771
0.85771
0.857716
0.857722
0.857729
0.857735
0.857735
0.857742
0.857748
0.857755
0.857761
0.857761
0.857767
0.857774
0.85778
0.857787
0.857787
0.857793
0.8578
0.857806
0.857813
0.857813
0.857819
0.857825
0.857832
0.857838
0.857838
0.857845
0.857851
0.857858
0.857864
0.857864
0.857871
0.857877
0.857884
0.85789
0.85789
0.857897
0.857903
0.857909
0.857916
0.857916
0.857922
0.857929
0.857935
0.857942
0.857942
0.857948
0.857955
0.857961
0.857968
0.857968
0.857974
0.857981
0.857987
0.857994
0.857994
0.858
0.858007
0.858013
0.85802
0.85802
0.858026
0.858033
0.858039
0.858046
0.858046
0.858052
0.858059
0.858065
0.858072
0.858072
0.858078
0.858085
0.858091
0.858098
0.858098
0.858104
0.858111
0.858117
0.858124
0.858124
0.85813
0.858137
0.858144
0.85815
0.85815
0.858157
0.858163
0.85817
0.858176
0.858176
0.858183
0.858189
0.858196
0.858202
0.858202
0.858209
0.858215
0.858222
0.858229
0.858229
0.858235
0.858242
0.858248
0.858255
0.858255
0.858261
0.858268
0.858274
0.858281
0.858281
0.858288
0.858294
0.858301
0.858307
0.858307
0.858314
0.85832
0.858327
0.858334
0.858334
0.85834
0.858347
0.858353
0.85836
0.85836
0.858366
0.858373
0.85838
0.858386
0.858386
0.858393
0.858399
0.858406
0.858413
0.858413
0.858419
0.858426
0.858433
0.858439
0.858439
0.858446
0.858453
0.858459
0.858466
0.858466
0.858473
0.858479
0.858486
0.858493
0.858493
0.858499
0.858506
0.858513
0.85852
0.85852
0.858526
0.858533
0.85854
0.858546
0.858546
0.858553
0.85856
0.858567
0.858573
0.858573
0.85858
0.858587
0.858593
0.8586
0.8586
0.858607
0.858614
0.85862
0.858627
0.858627
0.858634
0.858641
0.858647
0.858654
0.858654
0.858661
0.858667
0.858674
0.858681
0.858681
0.858688
0.858694