<?xml version="1.0"?>
<VTKFile type="UnstructuredGrid" version="0.1" byte_order="LittleEndian">
<UnstructuredGrid>
<Piece NumberOfPoints="5000" NumberOfCells="4000">
<PointData Scalars="Reaction 0">
<DataArray type="Float32" Name="Reaction 0" format="ascii">
0.830289
0.830289
0.830289
0.830289
0.830289
0.830289
0.830289
0.830289
0.830289
0.830289
0.830289
0.830289
0.830289
0.830289
0.830289
0.830289
0.830289
0.830289
0.830289
0.830289
0.830289
0.830289
0.830289
0.830289
0.83029
0.83029
0.83029
0.83029
0.83029
0.83029
0.83029
0.83029
0.83029
0.83029
0.83029
0.83029
0.83029
0.83029
0.83029
0.83029
0.83029
0.830291
0.830291
0.830291
0.830291
0.830291
0.830291
0.830291
0.830291
0.830291
0.830291
0.830291
0.830291
0.830292
0.830292
0.830292
0.830292
0.830292
0.830292
0.830292
0.830292
0.830292
0.830293
0.830293
0.830293
0.830293
0.830293
0.830293
0.830293
0.830293
0.830293
0.830294
0.830294
0.830294
0.830294
0.830294
0.830294
0.830294
0.830295
0.830295
0.830295
0.830295
0.830295
0.830295
0.830296
0.830296
0.830296
0.830296
0.830296
0.830296
0.830296
0.830297
0.830297
0.830297
0.830297
0.830297
0.830297
0.830298
0.830298
0.830298
0.830298
0.830298
0.830299
0.830299
0.830299
0.830299
0.830299
0.830299
0.8303
0.8303
0.8303
0.8303
0.8303
0.830301
0.830301
0.830301
0.830301
0.830301
0.830302
0.830302
0.830302
0.830302
0.830303
0.830303
0.830303
0.830303
0.830303
0.830304
0.830304
0.830304
0.830304
0.830305
0.830305
0.830305
0.830306
0.830306
0.830306
0.830306
0.830306
0.830307
0.830307
0.830307
0.830307
0.830308
0.830308
0.830308
0.830308
0.830309
0.830309
0.830309
0.830309
0.83031
0.83031
0.83031
0.830311
0.830311
0.830311
0.830311
0.830312
0.830312
0.830312
0.830313
0.830313
0.830313
0.830314
0.830314
0.830314
0.830314
0.830315
0.830315
0.830315
0.830316
0.830316
0.830316
0.830317
0.830317
0.830317
0.830318
0.830318
0.830318
0.830318
0.830319
0.830319
0.83032
0.83032
0.83032
0.83032
0.830321
0.830321
0.830322
0.830322
0.830322
0.830323
0.830323
0.830323
0.830323
0.830324
0.830324
0.830325
0.830325
0.830325
0.830326
0.830326
0.830327
0.830327
0.830327
0.830328
0.830328
0.830328
0.830329
0.830329
0.830329
0.83033
0.83033
0.830331
0.830331
0.830331
0.830332
0.830332
0.830333
0.830333
0.830333
0.830334
0.830334
0.830335
0.830335
0.830335
0.830336
0.830336
0.830337
0.830337
0.830337
0.830338
0.830339
0.830339
0.830339
0.83034
0.83034
0.830341
0.830341
0.830341
0.830342
0.830342
0.830343
0.830343
0.830343
0.830344
0.830345
0.830345
0.830346
0.830346
0.830346
0.830347
0.830347
0.830348
0.830348
0.830349
0.830349
0.83035
0.83035
0.83035
0.830351
0.830351
0.830352
0.830353
0.830353
0.830353
0.830354
0.830354
0.830355
0.830355
0.830356
0.830356
0.830357
0.830358
0.830358
0.830358
0.830359
0.830359
0.83036
0.83036
0.830361
0.830361
0.830362
0.830363
0.830363
0.830363
0.830364
0.830365
0.830365
0.830365
0.830366
0.830367
0.830367
0.830368
0.830368
0.830369
0.830369
0.83037
0.830371
0.830371
0.830371
0.830372
0.830373
0.830373
0.830373
0.830374
0.830375
0.830375
0.830376
0.830376
0.830377
0.830378
0.830378
0.830379
0.830379
0.83038
0.83038
0.830381
0.830382
0.830382
0.830383
0.830383
0.830384
0.830385
0.830385
0.830385
0.830386
0.830387
0.830388
0.830388
0.830388
0.830389
0.83039
0.830391
0.830391
0.830391
0.830392
0.830393
0.830394
0.830394
0.830395
0.830395
0.830396
0.830397
0.830397
0.830398
0.830398
0.830399
0.8304
0.8304
0.830401
0.830402
0.830402
0.830403
0.830403
0.830404
0.830405
0.830406
0.830406
0.830406
0.830407
0.830408
0.830409
0.83041
0.83041
0.830411
0.830411
0.830412
0.830413
0.830413
0.830414
0.830415
0.830416
0.830416
0.830416
0.830417
0.830418
0.830419
0.83042
0.83042
0.830421
0.830422
0.830423
0.830423
0.830423
0.830424
0.830425
0.830426
0.830427
0.830427
0.830428
0.830429
0.83043
0.83043
0.83043
0.830431
0.830432
0.830433
0.830434
0.830434
0.830435
0.830436
0.830437
0.830438
0.830438
0.830439
0.83044
0.83044
0.830441
0.830441
0.830442
0.830443
0.830444
0.830445
0.830445
0.830446
0.830447
0.830448
0.830449
0.830449
0.83045
0.830451
0.830452
0.830453
0.830453
0.830454
0.830455
0.830456
0.830457
0.830457
0.830458
0.830459
0.83046
0.830461
0.830461
0.830462
0.830463
0.830464
0.830465
0.830465
0.830466
0.830467
0.830468
0.830469
0.830469
0.83047
0.830471
0.830472
0.830473
0.830473
0.830474
0.830475
0.830476
0.830477
0.830477
0.830478
0.830479
0.83048
0.830481
0.830481
0.830482
0.830483
0.830484
0.830485
0.830485
0.830486
0.830487
0.830488
0.830489
0.830489
0.83049
0.830491
0.830492
0.830494
0.830494
0.830495
0.830496
0.830497
0.830498
0.830498
0.830499
0.8305
0.830501
0.830502
0.830502
0.830503
0.830504
0.830506
0.830507
0.830507
0.830508
0.830509
0.83051
0.830511
0.830511
0.830512
0.830513
0.830515
0.830516
0.830516
0.830517
0.830518
0.830519
0.83052
0.83052
0.830521
0.830522
0.830524
0.830525
0.830525
0.830526
0.830527
0.830528
0.830529
0.830529
0.830531
0.830532
0.830533
0.830534
0.830534
0.830535
0.830536
0.830538
0.830539
0.830539
0.83054
0.830541
0.830542
0.830544
0.830544
0.830545
0.830546
0.830547
0.830548
0.830548
0.83055
0.830551
0.830552
0.830553
0.830553
0.830555
0.830556
0.830557
0.830558
0.830558
0.830559
0.830561
0.830562
0.830563
0.830563
0.830564
0.830566
0.830567
0.830568
0.830568
0.830569
0.830571
0.830572
0.830573
0.830573
0.830575
0.830576
0.830577
0.830578
0.830578
0.83058
0.830581
0.830582
0.830584
0.830584
0.830585
0.830586
0.830587
0.830589
0.830589
0.83059
0.830591
0.830593
0.830594
0.830594
0.830595
0.830597
0.830598
0.830599
0.830599
0.8306
0.830602
0.830603
0.830604
0.830604
0.830606
0.830607
0.830608
0.83061
0.83061
0.830611
0.830612
0.830614
0.830615
0.830615
0.830617
0.830618
0.830619
0.830621
0.830621
0.830622
0.830623
0.830625
0.830626
0.830626
0.830627
0.830629
0.83063
0.830632
0.830632
0.830633
0.830634
0.830636
0.830637
0.830637
0.830639
0.83064
0.830641
0.830643
0.830643
0.830644
0.830646
0.830647
0.830649
0.830649
0.83065
0.830651
0.830653
0.830654
0.830654
0.830656
0.830657
0.830659
0.83066
0.83066
0.830662
0.830663
0.830665
0.830666
0.830666
0.830667
0.830669
0.83067
0.830672
0.830672
0.830673
0.830675
0.830676
0.830678
0.830678
0.830679
0.830681
0.830682
0.830684
0.830684
0.830685
0.830687
0.830688
0.83069
0.83069
0.830691
0.830693
0.830694
0.830696
0.830696
0.830697
0.830699
0.8307
0.830702
0.830702
0.830703
0.830705
0.830707
0.830708
0.830708
0.83071
0.830711
0.830713
0.830714
0.830714
0.830716
0.830717
0.830719
0.83072
0.83072
0.830722
0.830724
0.830725
0.830727
0.830727
0.830728
0.83073
0.830731
0.830733
0.830733
0.830735
0.830736
0.830738
0.830739
0.830739
0.830741
0.830743
0.830744
0.830746
0.830746
0.830747
0.830749
0.830751
0.830752
0.830752
0.830754
0.830756
0.830757
0.830759
0.830759
0.83076
0.830762
0.830764
0.830765
0.830765
0.830767
0.830769
0.83077
0.830772
0.830772
0.830774
0.830775
0.830777
0.830779
0.830779
0.83078
0.830782
0.830784
0.830785
0.830785
0.830787
0.830789
0.83079
0.830792
0.830792
0.830794
0.830795
0.830797
0.830799
0.830799
0.8308
0.830802
0.830804
0.830806
0.830806
0.830807
0.830809
0.830811
0.830812
0.830812
0.830814
0.830816
0.830818
0.830819
0.830819
0.830821
0.830823
0.830825
0.830826
0.830826
0.830828
0.83083
0.830832
0.830833
0.830833
0.830835
0.830837
0.830839
0.83084
0.83084
0.830842
0.830844
0.830846
0.830847
0.830847
0.830849
0.830851
0.830853
0.830855
0.830855
0.830856
0.830858
0.83086
0.830862
0.830862
0.830863
0.830865
0.830867
0.830869
0.830869
0.830871
0.830873
0.830874
0.830876
0.830876
0.830878
0.83088
0.830882
0.830883
0.830883
0.830885
0.830887
0.830889
0.830891
0.830891
0.830893
0.830895
0.830896
0.830898
0.830898
0.8309
0.830902
0.830904
0.830906
0.830906
0.830908
0.830909
0.830911
0.830913
0.830913
0.830915
0.830917
0.830919
0.830921
0.830921
0.830923
0.830925
0.830926
0.830928
0.830928
0.83093
0.830932
0.830934
0.830936
0.830936
0.830938
0.83094
0.830942
0.830944
0.830944
0.830946
0.830947
0.830949
0.830951
0.830951
0.830953
0.830955
0.830957
0.830959
0.830959
0.830961
0.830963
0.830965
0.830967
0.830967
0.830969
0.830971
0.830973
0.830975
0.830975
0.830977
0.830979
0.830981
0.830983
0.830983
0.830985
0.830987
0.830989
0.830991
0.830991
0.830993
0.830995
0.830997
0.830999
0.830999
0.831001
0.831003
0.831005
0.831007
0.831007
0.831009
0.831011
0.831013
0.831015
0.831015
0.831017
0.831019
0.831021
0.831023
0.831023
0.831025
0.831027
0.831029
0.831031
0.831031
0.831033
0.831035
0.831037
0.831039
0.831039
0.831041
0.831043
0.831045
0.831047
0.831047
0.83105
0.831052
0.831054
0.831056
0.831056
0.831058
0.83106
0.831062
0.831064
0.831064
0.831066
0.831068
0.83107
0.831073
0.831073
0.831075
0.831077
0.831079
0.831081
0.831081
0.831083
0.831085
0.831087
0.831089
0.831089
0.831092
0.831094
0.831096
0.831098
0.831098
0.8311
0.831102
0.831104
0.831107
0.831107
0.831109
0.831111
0.831113
0.831115
0.831115
0.831117
0.831119
0.831122
0.831124
0.831124
0.831126
0.831128
0.83113
0.831133
0.831133
0.831135
0.831137
0.831139
0.831141
0.831141
0.831143
0.831146
0.831148
0.83115
0.83115
0.831152
0.831155
0.831157
0.831159
0.831159
0.831161
0.831163
0.831166
0.831168
0.831168
0.83117
0.831172
0.831175
0.831177
0.831177
0.831179
0.831181
0.831184
0.831186
0.831186
0.831188
0.83119
0.831193
0.831195
0.831195
0.831197
0.831199
0.831202
0.831204
0.831204
0.831206
0.831208
0.831211
0.831213
0.831213
0.831215
0.831218
0.83122
0.831222
0.831222
0.831224
0.831227
0.831229
0.831231
0.831231
0.831234
0.831236
0.831238
0.831241
0.831241
0.831243
0.831245
0.831248
0.83125
0.83125
0.831252
0.831255
0.831257
0.831259
0.831259
0.831262
0.831264
0.831266
0.831269
0.831269
0.831271
0.831273
0.831276
0.831278
0.831278
0.83128
0.831283
0.831285
0.831288
0.831288
0.83129
0.831292
0.831295
0.831297
0.831297
0.831299
0.831302
0.831304
0.831307
0.831307
0.831309
0.831311
0.831314
0.831316
0.831316
0.831319
0.831321
0.831323
0.831326
0.831326
0.831328
0.831331
0.831333
0.831335
0.831335
0.831338
0.83134
0.831343
0.831345
0.831345
0.831348
0.83135
0.831352
0.831355
0.831355
0.831357
0.83136
0.831362
0.831365
0.831365
0.831367
0.83137
0.831372
0.831374
0.831374
0.831377
0.831379
0.831382
0.831384
0.831384
0.831387
0.831389
0.831392
0.831394
0.831394
0.831397
0.831399
0.831402
0.831404
0.831404
0.831407
0.831409
0.831412
0.831414
0.831414
0.831417
0.83142
0.831422
0.831425
0.831425
0.831427
0.83143
0.831432
0.831435
0.831435
0.831437
0.83144
0.831443
0.831445
0.831445
0.831448
0.83145
0.831453
0.831455
0.831455
0.831458
0.831461
0.831463
0.831466
0.831466
0.831468
0.831471
0.831473
0.831476
0.831476
0.831479
0.831481
0.831484
0.831486
0.831486
0.831489
0.831492
0.831494
0.831497
0.831497
0.831499
0.831502
0.831505
0.831507
0.831507
0.83151
0.831513
0.831515
0.831518
0.831518
0.83152
0.831523
0.831526
0.831528
0.831528
0.831531
0.831534
0.831536
0.831539
0.831539
0.831542
0.831544
0.831547
0.83155
0.83155
0.831552
0.831555
0.831558
0.83156
0.83156
0.831563
0.831566
0.831568
0.831571
0.831571
0.831574
0.831576
0.831579
0.831582
0.831582
0.831585
0.831587
0.83159
0.831593
0.831593
0.831595
0.831598
0.831601
0.831604
0.831604
0.831606
0.831609
0.831612
0.831614
0.831614
0.831617
0.83162
0.831623
0.831625
0.831625
0.831628
0.831631
0.831634
0.831636
0.831636
0.831639
0.831642
0.831645
0.831647
0.831647
0.83165
0.831653
0.831656
0.831659
0.831659
0.831661
0.831664
0.831667
0.83167
0.83167
0.831673
0.831675
0.831678
0.831681
0.831681
0.831684
0.831687
0.831689
0.831692
0.831692
0.831695
0.831698
0.831701
0.831703
0.831703
0.831706
0.831709
0.831712
0.831715
0.831715
0.831718
0.83172
0.831723
0.831726
0.831726
0.831729
0.831732
0.831735
0.831737
0.831737
0.83174
0.831743
0.831746
0.831749
0.831749
0.831752
0.831755
0.831758
0.83176
0.83176
0.831763
0.831766
0.831769
0.831772
0.831772
0.831775
0.831778
0.831781
0.831784
0.831784
0.831786
0.831789
0.831792
0.831795
0.831795
0.831798
0.831801
0.831804
0.831807
0.831807
0.83181
0.831813
0.831816
0.831819
0.831819
0.831822
0.831824
0.831827
0.83183
0.83183
0.831833
0.831836
0.831839
0.831842
0.831842
0.831845
0.831848
0.831851
0.831854
0.831854
0.831857
0.83186
0.831863
0.831866
0.831866
0.831869
0.831872
0.831875
0.831878
0.831878
0.831881
0.831884
0.831887
0.83189
0.83189
0.831893
0.831896
0.831899
0.831902
0.831902
0.831905
0.831908
0.831911
0.831914
0.831914
0.831917
0.83192
0.831923
0.831926
0.831926
0.831929
0.831932
0.831935
0.831938
0.831938
0.831941
0.831944
0.831947
0.831951
0.831951
0.831954
0.831957
0.83196
0.831963
0.831963
0.831966
0.831969
0.831972
0.831975
0.831975
0.831978
0.831981
0.831984
0.831987
0.831987
0.831991
0.831994
0.831997
0.832
0.832
0.832003
0.832006
0.832009
0.832012
0.832012
0.832015
0.832019
0.832022
0.832025
0.832025
0.832028
0.832031
0.832034
0.832037
0.832037
0.83204
0.832044
0.832047
0.83205
0.83205
0.832053
0.832056
0.832059
0.832062
0.832062
0.832066
0.832069
0.832072
0.832075
0.832075
0.832078
0.832081
0.832085
0.832088
0.832088
0.832091
0.832094
0.832097
0.8321
0.8321
0.832104
0.832107
0.83211
0.832113
0.832113
0.832116
0.83212
0.832123
0.832126
0.832126
0.832129
0.832132
0.832136
0.832139
0.832139
0.832142
0.832145
0.832148
0.832152
0.832152
0.832155
0.832158
0.832161
0.832164
0.832164
0.832168
0.832171
0.832174
0.832178
0.832178
0.832181
0.832184
0.832187
0.832191
0.832191
0.832194
0.832197
0.832201
0.832204
0.832204
0.832207
0.83221
0.832214
0.832217
0.832217
0.83222
0.832224
0.832227
0.83223
0.83223
0.832234
0.832237
0.83224
0.832244
0.832244
0.832247
0.83225
0.832254
0.832257
0.832257
0.83226
0.832264
0.832267
0.83227
0.83227
0.832274
0.832277
0.83228
0.832284
0.832284
0.832287
0.83229
0.832294
0.832297
0.832297
0.832301
0.832304
0.832307
0.832311
0.832311
0.832314
0.832317
0.832321
0.832324
0.832324
0.832328
0.832331
0.832334
0.832338
0.832338
0.832341
0.832345
0.832348
0.832351
0.832351
0.832355
0.832358
0.832362
0.832365
0.832365
0.832368
0.832372
0.832375
0.832379
0.832379
0.832382
0.832386
0.832389
0.832392
0.832392
0.832396
0.832399
0.832403
0.832406
0.832406
0.83241
0.832413
0.832417
0.83242
0.83242
0.832424
0.832427
0.83243
0.832434
0.832434
0.832437
0.832441
0.832444
0.832448
0.832448
0.832451
0.832455
0.832458
0.832462
0.832462
0.832465
0.832469
0.832472
0.832476
0.832476
0.832479
0.832483
0.832486
0.83249
0.83249
0.832493
0.832497
0.8325
0.832504
0.832504
0.832507
0.832511
0.832515
0.832518
0.832518
0.832522
0.832525
0.832529
0.832532
0.832532
0.832536
0.832539
0.832543
0.832547
0.832547
0.83255
0.832554
0.832557
0.832561
0.832561
0.832564
0.832568
0.832572
0.832575
0.832575
0.832579
0.832582
0.832586
0.832589
0.832589
0.832593
0.832597
0.8326
0.832604
0.832604
0.832607
0.832611
0.832615
0.832618
0.832618
0.832622
0.832626
0.832629
0.832633
0.832633
0.832636
0.83264
0.832644
0.832647
0.832647
0.832651
0.832655
0.832658
0.832662
0.832662
0.832666
0.832669
0.832673
0.832677
0.832677
0.83268
0.832684
0.832688
0.832691
0.832691
0.832695
0.832699
0.832702
0.832706
0.832706
0.83271
0.832713
0.832717
0.832721
0.832721
0.832724
0.832728
0.832732
0.832736
0.832736
0.832739
0.832743
0.832747
0.83275
0.83275
0.832754
0.832758
0.832762
0.832765
0.832765
0.832769
0.832773
0.832776
0.83278
0.83278
0.832784
0.832788
0.832791
0.832795
0.832795
0.832799
0.832803
0.832806
0.83281
0.83281
0.832814
0.832818
0.832821
0.832825
0.832825
0.832829
0.832833
0.832837
0.83284
0.83284
0.832844
0.832848
0.832852
0.832855
0.832855
0.832859
0.832863
0.832867
0.832871
0.832871
0.832874
0.832878
0.832882
0.832886
0.832886
0.83289
0.832893
0.832897
0.832901
0.832901
0.832905
0.832909
0.832912
0.832916
0.832916
0.83292
0.832924
0.832928
0.832931
0.832931
0.832935
0.832939
0.832943
0.832947
0.832947
0.832951
0.832955
0.832958
0.832962
0.832962
0.832966
0.83297
0.832974
0.832978
0.832978
0.832982
0.832986
0.83299
0.832994
0.832994
0.832998
0.833001
0.833005
0.833009
0.833009
0.833013
0.833017
0.833021
0.833025
0.833025
0.833029
0.833033
0.833037
0.833041
0.833041
0.833045
0.833049
0.833053
0.833057
0.833057
0.833061
0.833065
0.833068
0.833072
0.833072
0.833076
0.83308
0.833084
0.833088
0.833088
0.833092
0.833096
0.8331
0.833104
0.833104
0.833108
0.833112
0.833116
0.83312
0.83312
0.833124
0.833128
0.833132
0.833136
0.833136
0.83314
0.833144
0.833148
0.833152
0.833152
0.833156
0.83316
0.833164
0.833168
0.833168
0.833172
0.833176
0.83318
0.833184
0.833184
0.833188
0.833192
0.833196
0.8332
0.8332
0.833204
0.833208
0.833213
0.833217
0.833217
0.833221
0.833225
0.833229
0.833233
0.833233
0.833237
0.833241
0.833245
0.833249
0.833249
0.833253
0.833257
0.833261
0.833265
0.833265
0.833269
0.833274
0.833278
0.833282
0.833282
0.833286
0.83329
0.833294
0.833298
0.833298
0.833302
0.833306
0.83331
0.833315
0.833315
0.833319
0.833323
0.833327
0.833331
0.833331
0.833335
0.833339
0.833344
0.833348
0.833348
0.833352
0.833356
0.83336
0.833364
0.833364
0.833368
0.833373
0.833377
0.833381
0.833381
0.833385
0.833389
0.833393
0.833398
0.833398
0.833402
0.833406
0.83341
0.833414
0.833414
0.833418
0.833423
0.833427
0.833431
0.833431
0.833435
0.833439
0.833444
0.833448
0.833448
0.833452
0.833456
0.83346
0.833465
0.833465
0.833469
0.833473
0.833477
0.833482
0.833482
0.833486
0.83349
0.833494
0.833498
0.833498
0.833503
0.833507
0.833511
0.833515
0.833515
0.83352
0.833524
0.833528
0.833532
0.833532
0.833537
0.833541
0.833545
0.83355
0.83355
0.833554
0.833558
0.833562
0.833567
0.833567
0.833571
0.833575
0.833579
0.833584
0.833584
0.833588
0.833592
0.833597
0.833601
0.833601
0.833605
0.83361
0.833614
0.833618
0.833618
0.833622
0.833627
0.833631
0.833635
0.833635
0.83364
0.833644
0.833648
0.833653
0.833653
0.833657
0.833661
0.833666
0.83367
0.83367
0.833674
0.833679
0.833683
0.833687
0.833687
0.833692
0.833696
0.8337
0.833705
0.833705
0.833709
0.833713
0.833718
0.833722
0.833722
0.833726
0.833731
0.833735
0.83374
0.83374
0.833744
0.833748
0.833753
0.833757
0.833757
0.833762
0.833766
0.833771
0.833775
0.833775
0.833779
0.833784
0.833788
0.833793
0.833793
0.833797
0.833802
0.833806
0.833811
0.833811
0.833815
0.83382
0.833824
0.833828
0.833828
0.833833
0.833837
0.833842
0.833846
0.833846
0.833851
0.833855
0.83386
0.833864
0.833864
0.833869
0.833873
0.833878
0.833882
0.833882
0.833887
0.833891
0.833896
0.8339
0.8339
0.833905
0.833909
0.833914
0.833918
0.833918
0.833923
0.833927
0.833932
0.833936
0.833936
0.833941
0.833945
0.83395
0.833954
0.833954
0.833959
0.833963
0.833968
0.833973
0.833973
0.833977
0.833982
0.833986
0.833991
0.833991
0.833995
0.834
0.834004
0.834009
0.834009
0.834013
0.834018
0.834023
0.834027
0.834027
0.834032
0.834036
0.834041
0.834045
0.834045
0.83405
0.834055
0.834059
0.834064
0.834064
0.834068
0.834073
0.834078
0.834082
0.834082
0.834087
0.834091
0.834096
0.834101
0.834101
0.834105
0.83411
0.834115
0.834119
0.834119
0.834124
0.834128
0.834133
0.834138
0.834138
0.834142
0.834147
0.834152
0.834156
0.834156
0.834161
0.834166
0.83417
0.834175
0.834175
0.83418
0.834184
0.834189
0.834194
0.834194
0.834198
0.834203
0.834208
0.834212
0.834212
0.834217
0.834222
0.834226
0.834231
0.834231
0.834236
0.83424
0.834245
0.83425
0.83425
0.834254
0.834259
0.834264
0.834269
0.834269
0.834273
0.834278
0.834283
0.834287
0.834287
0.834292
0.834297
0.834302
0.834306
0.834306
0.834311
0.834316
0.834321
0.834325
0.834325
0.83433
0.834335
0.83434
0.834344
0.834344
0.834349
0.834354
0.834359
0.834363
0.834363
0.834368
0.834373
0.834378
0.834382
0.834382
0.834387
0.834392
0.834397
0.834401
0.834401
0.834406
0.834411
0.834416
0.834421
0.834421
0.834425
0.83443
0.834435
0.83444
0.83444
0.834445
0.834449
0.834454
0.834459
0.834459
0.834464
0.834469
0.834473
0.834478
0.834478
0.834483
0.834488
0.834493
0.834497
0.834497
0.834502
0.834507
0.834512
0.834517
0.834517
0.834522
0.834526
0.834531
0.834536
0.834536
0.834541
0.834546
0.834551
0.834556
0.834556
0.834561
0.834566
0.83457
0.834575
0.834575
0.83458
0.834585
0.83459
0.834595
0.834595
0.8346
0.834605
0.83461
0.834615
0.834615
0.83462
0.834625
0.83463
0.834635
0.834635
0.83464
0.834644
0.834649
0.834654
0.834654
0.834659
0.834664
0.834669
0.834674
0.834674
0.834679
0.834684
0.834689
0.834694
0.834694
0.834699
0.834704
0.834709
0.834714
0.834714
0.834719
0.834724
0.834729
0.834734
0.834734
0.834739
0.834744
0.834749
0.834754
0.834754
0.834759
0.834764
0.834769
0.834774
0.834774
0.834779
0.834784
0.834789
0.834794
0.834794
0.834799
0.834804
0.834809
0.834814
0.834814
0.834819
0.834824
0.834829
0.834834
0.834834
0.834839
0.834844
0.834849
0.834854
0.834854
0.834859
0.834864
0.834869
0.834874
0.834874
0.834879
0.834884
0.834889
0.834895
0.834895
0.8349
0.834905
0.83491
0.834915
0.834915
0.83492
0.834925
0.83493
0.834935
0.834935
0.83494
0.834945
0.83495
0.834956
0.834956
0.834961
0.834966
0.834971
0.834976
0.834976
0.834981
0.834986
0.834991
0.834996
0.834996
0.835002
0.835007
0.835012
0.835017
0.835017
0.835022
0.835027
0.835032
0.835037
0.835037
0.835043
0.835048
0.835053
0.835058
0.835058
0.835063
0.835068
0.835073
0.835079
0.835079
0.835084
0.835089
0.835094
0.835099
0.835099
0.835104
0.83511
0.835115
0.83512
0.83512
0.835125
0.83513
0.835136
0.835141
0.835141
0.835146
0.835151
0.835156
0.835161
0.835161
0.835167
0.835172
0.835177
0.835182
0.835182
0.835187
0.835193
0.835198
0.835203
0.835203
0.835208
0.835214
0.835219
0.835224
0.835224
0.835229
0.835234
0.83524
0.835245
0.835245
0.83525
0.835255
0.83526
0.835266
0.835266
0.835271
0.835276
0.835281
0.835287
0.835287
0.835292
0.835297
0.835302
0.835308
0.835308
0.835313
0.835318
0.835324
0.835329
0.835329
0.835334
0.835339
0.835345
0.83535
0.83535
0.835355
0.835361
0.835366
0.835372
0.835372
0.835377
0.835382
0.835388
0.835393
0.835393
0.835398
0.835404
0.835409
0.835414
0.835414
0.83542
0.835425
0.83543
0.835436
0.835436
0.835441
0.835447
0.835452
0.835457
0.835457
0.835463
0.835468
0.835473
0.835479
0.835479
0.835484
0.83549
0.835495
0.8355
0.8355
0.835506
0.835511
0.835517
0.835522
0.835522
0.835527
0.835533
0.835538
0.835544
0.835544
0.835549
0.835554
0.83556
0.835565
0.835565
0.835571
0.835576
0.835582
0.835587
0.835587
0.835592
0.835598
0.835603
0.835609
0.835609
0.835614
0.83562
0.835625
0.83563
0.83563
0.835636
0.835641
0.835647
0.835652
0.835652
0.835658
0.835663
0.835669
0.835674
0.835674
0.83568
0.835685
0.835691
0.835696
0.835696
0.835701
0.835707
0.835712
0.835718
0.835718
0.835723
0.835729
0.835734
0.83574
0.83574
0.835745
0.835751
0.835756
0.835762
0.835762
0.835767
0.835773
0.835779
0.835784
0.835784
0.83579
0.835795
0.835801
0.835806
0.835806
0.835812
0.835817
0.835823
0.835828
0.835828
0.835834
0.835839
0.835845
0.83585
0.83585
0.835856
0.835862
0.835867
0.835873
0.835873
0.835878
0.835884
0.835889
0.835895
0.835895
0.835901
0.835906
0.835912
0.835917
0.835917
0.835923
0.835928
0.835934
0.83594
0.83594
0.835945
0.835951
0.835956
0.835962
0.835962
0.835968
0.835973
0.835979
0.835984
0.835984
0.83599
0.835996
0.836001
0.836007
0.836007
0.836012
0.836018
0.836024
0.836029
0.836029
0.836035
0.83604
0.836046
0.836052
0.836052
0.836057
0.836063
0.836068
0.836074
0.836074
0.83608
0.836085
0.836091
0.836097
0.836097
0.836102
0.836108
0.836114
0.836119
0.836119
0.836125
0.836131
0.836137
0.836142
0.836142
0.836148
0.836154
0.83616
0.836165
0.836165
0.836171
0.836177
0.836182
0.836188
0.836188
0.836194
0.8362
0.836205
0.836211
0.836211
0.836217
0.836223
0.836229
0.836234
0.836234
0.83624
0.836246
0.836252
0.836257
0.836257
0.836263
0.836269
0.836275
0.83628
0.83628
0.836286
0.836292
0.836298
0.836304
0.836304
0.836309
0.836315
0.836321
0.836327
0.836327
0.836332
0.836338
0.836344
0.83635
0.83635
0.836356
0.836361
0.836367
0.836373
0.836373
0.836379
0.836385
0.836391
0.836396
0.836396
0.836402
0.836408
0.836414
0.83642
0.83642
0.836425
0.836431
0.836437
0.836443
0.836443
0.836449
0.836455
0.83646
0.836466
0.836466
0.836472
0.836478
0.836484
0.83649
0.83649
0.836496
0.836501
0.836507
0.836513
0.836513
0.836519
0.836525
0.836531
0.836537
0.836537
0.836543
0.836548
0.836554
0.83656
0.83656
0.836566
0.836572
0.836578
0.836584
0.836584
0.83659
0.836596
0.836602
0.836607
0.836607
0.836613
0.836619
0.836625
0.836631
0.836631
0.836637
0.836643
0.836649
0.836655
0.836655
0.836661
0.836667
0.836673
0.836679
0.836679
0.836684
0.83669
0.836696
0.836702
0.836702
0.836708
0.836714
0.83672
0.836726
0.836726
0.836732
0.836738
0.836744
0.83675
0.83675
0.836756
0.836762
0.836768
0.836774
0.836774
0.83678
0.836786
0.836792
0.836798
0.836798
0.836804
0.83681
0.836815
0.836821
0.836821
0.836827
0.836833
0.836839
0.836845
0.836845
0.836851
0.836857
0.836863
0.836869
0.836869
0.836875
0.836881
0.836887
0.836893
0.836893
0.836899
0.836906
0.836912
0.836918
0.836918
0.836924
0.83693
0.836936
0.836942
0.836942
0.836948
0.836954
0.83696
0.836966
0.836966
0.836973
0.836979
0.836985
0.836991
0.836991
0.836997
0.837003
0.837009
0.837015
0.837015
0.837021
0.837028
0.837034
0.83704
0.83704
0.837046
0.837052
0.837058
0.837064
0.837064
0.837071
0.837077
0.837083
0.837089
0.837089
0.837095
0.837101
0.837107
0.837114
0.837114
0.83712
0.837126
0.837132
0.837138
0.837138
0.837144
0.83715
0.837157
0.837163
0.837163
0.837169
0.837175
0.837181
0.837187
0.837187
0.837194
0.8372
0.837206
0.837212
0.837212
0.837218
0.837225
0.837231
0.837237
0.837237
0.837243
0.837249
0.837256
0.837262
0.837262
0.837268
0.837274
0.83728
0.837287
0.837287
0.837293
0.837299
0.837305
0.837311
0.837311
0.837318
0.837324
0.83733
0.837336
0.837336
0.837343
0.837349
0.837355
0.837361
0.837361
0.837368
0.837374
0.83738
0.837386
0.837386
0.837393
0.837399
0.837405
0.837411
0.837411
0.837418
0.837424
0.83743
0.837436
0.837436
0.837443
0.837449
0.837455
0.837461
0.837461
0.837468
0.837474
0.83748
0.837487
0.837487
0.837493
0.837499
0.837505
0.837512
0.837512
0.837518
0.837524
0.837531
0.837537
0.837537
0.837543
0.83755
0.837556
0.837562
0.837562
0.837568
0.837575
0.837581
0.837587
0.837587
0.837594
0.8376
0.837606
0.837613
0.837613
0.837619
0.837625
0.837632
0.837638
0.837638
0.837644
0.837651
0.837657
0.837663
0.837663
0.83767
0.837676
0.837682
0.837689
0.837689
0.837695
0.837702
0.837708
0.837714
0.837714
0.837721
0.837727
0.837734
0.83774
0.83774
0.837747
0.837753
0.837759
0.837766
0.837766
0.837772
0.837779
0.837785
0.837792
0.837792
0.837798
0.837805
0.837811
0.837818
0.837818
0.837824
0.837831
0.837837
0.837843
0.837843
0.83785
0.837856
0.837863
0.837869
0.837869
0.837876
0.837882
0.837889
0.837895
0.837895
0.837902
0.837908
0.837915
0.837921
0.837921
0.837928
0.837934
0.837941
0.837947
0.837947
0.837954
0.83796
0.837967
0.837973
0.837973
0.83798
0.837986
0.837993
0.837999
0.837999
0.838006
0.838012
0.838019
0.838025
0.838025
0.838032
0.838038
0.838045
0.838051
0.838051
0.838058
0.838064
0.838071
0.838078
0.838078
0.838084
0.838091
0.838097
0.838104
0.838104
0.83811
0.838117
0.838123
0.83813
0.83813
0.838137
0.838143
0.83815
0.838156
0.838156
0.838163
0.838169
0.838176
0.838183
0.838183
0.838189
0.838196
0.838202
0.838209
0.838209
0.838216
0.838222
0.838229
0.838235
0.838235
0.838242
0.838249
0.838255
0.838262
0.838262
0.838268
0.838275
0.838282
0.838288
0.838288
0.838295
0.838301
0.838308
0.838315
0.838315
0.838321
0.838328
0.838334
0.838341
0.838341
0.838348
0.838354
0.838361
0.838368
0.838368
0.838374
0.838381
0.838387
0.838394
0.838394
0.838401
0.838407
0.838414
0.838421
0.838421
0.838427
0.838434
0.838441
0.838447
0.838447
0.838454
0.838461
0.838467
0.838474
0.838474
0.838481
0.838487
0.838494
0.838501
0.838501
0.838508
0.838514
0.838521
0.838528
0.838528
0.838535
0.838542
0.838548
0.838555
0.838555
0.838562
0.838569
0.838575
0.838582
0.838582
0.838589
0.838596
0.838602
0.838609
0.838609
0.838616
0.838623
0.83863
0.838636
0.838636
0.838643
0.83865
0.838657
0.838664
0.838664
0.83867
0.838677
0.838684
0.838691
0.838691
0.838698
0.838704
0.838711
0.838718
0.838718
0.838725
0.838732
0.838738
0.838745
0.838745
0.838752
0.838759
0.838766
0.838773
0.838773
0.838779
0.838786
0.838793
0.8388
0.8388
0.838807
0.838814
0.83882
0.838827
0.838827
0.838834
0.838841
0.838848
0.838855
0.838855
0.838861
0.838868
0.838875
0.838882
0.838882
0.838889
0.838896
0.838903
0.838909
0.838909
0.838916
0.838923
0.83893
0.838937
0.838937
0.838944
0.838951
0.838958
0.838965
0.838965
0.838971
0.838978
0.838985
0.838992
0.838992
0.838999
0.839006
0.839013
0.83902
0.83902
0.839027
0.839033
0.83904
0.839047
0.839047
0.839054
0.839061
0.839068
0.839075
0.839075
0.839082
0.839089
0.839096
0.839103
0.839103
0.83911
0.839116
0.839123
0.83913
0.83913
0.839137
0.839144
0.839151
0.839158
0.839158
0.839165
0.839172
0.839179
0.839186
0.839186
0.839193
0.8392
0.839207
0.839214
0.839214
0.83922
0.839227
0.839234
0.839241
0.839241
0.839248
0.839255
0.839262
0.839269
0.839269
0.839277
0.839284
0.839291
0.839298
0.839298
0.839305
0.839312
0.839319
0.839326
0.839326
0.839333
0.83934
0.839347
0.839354
0.839354
0.839361
0.839368
0.839375
0.839383
0.839383
0.83939
0.839397
0.839404
0.839411
0.839411
0.839418
0.839425
0.839432
0.839439
0.839439
0.839446
0.839453
0.839461
0.839468
0.839468
0.839475
0.839482
0.839489
0.839496
0.839496
0.839503
0.83951
0.839517
0.839524
0.839524
0.839532
0.839539
0.839546
0.839553
0.839553
0.83956
0.839567
0.839574
0.839581
0.839581
0.839589
0.839596
0.839603
0.83961
0.83961
0.839617
0.839624
0.839631
0.839639
0.839639
0.839646
0.839653
0.83966
0.839667
0.839667
0.839674
0.839681
0.839689
0.839696
0.839696
0.839703
0.83971
0.839717
0.839724
0.839724
0.839732
0.839739
0.839746
0.839753
0.839753
0.83976
0.839767
0.839775
0.839782
0.839782
0.839789
0.839796
0.839803
0.839811
0.839811
0.839818
0.839825
0.839832
0.839839
0.839839
0.839847
0.839854
0.839861
0.839868
0.839868
0.839875
0.839883
0.83989
0.839897
0.839897
0.839904
0.839911
0.839919
0.839926
0.839926
0.839933
0.83994
0.839947
0.839955
0.839955
0.839962
0.839969
0.839976
0.839984
0.839984
0.839991
0.839998
0.840005
0.840013
0.840013
0.84002
0.840027
0.840034
0.840042
0.840042
0.840049
0.840056
0.840064
0.840071
0.840071
0.840078
0.840086
0.840093
0.8401
0.8401
0.840108
0.840115
0.840123
0.84013
0.84013
0.840137
0.840145
0.840152
0.840159
0.840159
0.840167
0.840174
0.840181
0.840189
0.840189
0.840196
0.840204
0.840211
0.840218
0.840218
0.840226
0.840233
0.84024
0.840248
0.840248
0.840255
0.840263
0.84027
0.840277
0.840277
0.840285
0.840292
0.8403
0.840307
0.840307
0.840314
0.840322