<?xml version="1.0"?>
<VTKFile type="UnstructuredGrid" version="0.1" byte_order="LittleEndian">
<UnstructuredGrid>
<Piece NumberOfPoints="5000" NumberOfCells="4000">
<PointData Scalars="Reaction 0">
<DataArray type="Float32" Name="Reaction 0" format="ascii">
0.881303
0.881303
0.881303
0.881303
0.881303
0.881303
0.881303
0.881303
0.881303
0.881303
0.881303
0.881303
0.881303
0.881303
0.881303
0.881303
0.881303
0.881303
0.881303
0.881303
0.881303
0.881303
0.881303
0.881304
0.881304
0.881304
0.881304
0.881304
0.881304
0.881304
0.881304
0.881304
0.881304
0.881304
0.881304
0.881304
0.881304
0.881304
0.881304
0.881304
0.881304
0.881304
0.881304
0.881304
0.881304
0.881304
0.881305
0.881305
0.881305
0.881305
0.881305
0.881305
0.881305
0.881305
0.881305
0.881305
0.881305
0.881305
0.881305
0.881306
0.881306
0.881306
0.881306
0.881306
0.881306
0.881306
0.881306
0.881306
0.881306
0.881306
0.881306
0.881306
0.881307
0.881307
0.881307
0.881307
0.881307
0.881307
0.881307
0.881307
0.881307
0.881307
0.881308
0.881308
0.881308
0.881308
0.881308
0.881308
0.881308
0.881308
0.881308
0.881309
0.881309
0.881309
0.881309
0.881309
0.881309
0.881309
0.88131
0.88131
0.88131
0.88131
0.88131
0.88131
0.88131
0.88131
0.881311
0.881311
0.881311
0.881311
0.881311
0.881311
0.881311
0.881312
0.881312
0.881312
0.881312
0.881312
0.881312
0.881313
0.881313
0.881313
0.881313
0.881313
0.881313
0.881313
0.881314
0.881314
0.881314
0.881314
0.881314
0.881314
0.881315
0.881315
0.881315
0.881315
0.881315
0.881315
0.881316
0.881316
0.881316
0.881316
0.881316
0.881317
0.881317
0.881317
0.881317
0.881317
0.881318
0.881318
0.881318
0.881318
0.881318
0.881319
0.881319
0.881319
0.881319
0.881319
0.88132
0.88132
0.88132
0.88132
0.88132
0.881321
0.881321
0.881321
0.881321
0.881321
0.881322
0.881322
0.881322
0.881322
0.881323
0.881323
0.881323
0.881323
0.881323
0.881324
0.881324
0.881324
0.881324
0.881325
0.881325
0.881325
0.881325
0.881325
0.881326
0.881326
0.881326
0.881327
0.881327
0.881327
0.881327
0.881328
0.881328
0.881328
0.881328
0.881329
0.881329
0.881329
0.881329
0.88133
0.88133
0.88133
0.881331
0.881331
0.881331
0.881331
0.881332
0.881332
0.881332
0.881332
0.881333
0.881333
0.881333
0.881333
0.881334
0.881334
0.881334
0.881335
0.881335
0.881335
0.881335
0.881336
0.881336
0.881336
0.881336
0.881337
0.881337
0.881338
0.881338
0.881338
0.881338
0.881339
0.881339
0.881339
0.88134
0.88134
0.88134
0.881341
0.881341
0.881341
0.881341
0.881342
0.881342
0.881342
0.881343
0.881343
0.881343
0.881344
0.881344
0.881344
0.881345
0.881345
0.881346
0.881346
0.881346
0.881346
0.881347
0.881347
0.881347
0.881348
0.881348
0.881348
0.881349
0.881349
0.881349
0.88135
0.88135
0.881351
0.881351
0.881351
0.881352
0.881352
0.881352
0.881352
0.881353
0.881353
0.881354
0.881354
0.881354
0.881355
0.881355
0.881356
0.881356
0.881356
0.881357
0.881357
0.881357
0.881358
0.881358
0.881358
0.881359
0.881359
0.88136
0.88136
0.88136
0.881361
0.881361
0.881362
0.881362
0.881362
0.881363
0.881363
0.881364
0.881364
0.881364
0.881365
0.881365
0.881366
0.881366
0.881366
0.881367
0.881367
0.881368
0.881368
0.881368
0.881369
0.881369
0.88137
0.88137
0.88137
0.881371
0.881371
0.881372
0.881372
0.881372
0.881373
0.881374
0.881374
0.881374
0.881375
0.881375
0.881376
0.881376
0.881376
0.881377
0.881377
0.881378
0.881378
0.881378
0.881379
0.88138
0.88138
0.881381
0.881381
0.881381
0.881382
0.881382
0.881383
0.881383
0.881383
0.881384
0.881385
0.881385
0.881385
0.881386
0.881386
0.881387
0.881388
0.881388
0.881388
0.881389
0.881389
0.88139
0.88139
0.88139
0.881391
0.881392
0.881392
0.881392
0.881393
0.881394
0.881394
0.881395
0.881395
0.881395
0.881396
0.881397
0.881397
0.881397
0.881398
0.881398
0.881399
0.8814
0.8814
0.8814
0.881401
0.881402
0.881402
0.881402
0.881403
0.881403
0.881404
0.881405
0.881405
0.881405
0.881406
0.881407
0.881407
0.881407
0.881408
0.881409
0.881409
0.88141
0.88141
0.881411
0.881411
0.881412
0.881413
0.881413
0.881413
0.881414
0.881415
0.881415
0.881415
0.881416
0.881417
0.881417
0.881418
0.881418
0.881419
0.881419
0.88142
0.881421
0.881421
0.881421
0.881422
0.881423
0.881424
0.881424
0.881424
0.881425
0.881426
0.881426
0.881426
0.881427
0.881428
0.881428
0.881429
0.881429
0.88143
0.881431
0.881431
0.881432
0.881432
0.881433
0.881434
0.881434
0.881435
0.881435
0.881436
0.881436
0.881437
0.881438
0.881438
0.881439
0.881439
0.88144
0.881441
0.881441
0.881442
0.881442
0.881443
0.881444
0.881444
0.881445
0.881445
0.881446
0.881447
0.881447
0.881448
0.881449
0.881449
0.88145
0.88145
0.881451
0.881452
0.881452
0.881453
0.881453
0.881454
0.881455
0.881456
0.881456
0.881456
0.881457
0.881458
0.881459
0.881459
0.881459
0.88146
0.881461
0.881462
0.881463
0.881463
0.881463
0.881464
0.881465
0.881466
0.881466
0.881467
0.881468
0.881468
0.881469
0.881469
0.88147
0.881471
0.881472
0.881472
0.881472
0.881473
0.881474
0.881475
0.881476
0.881476
0.881477
0.881478
0.881478
0.881479
0.881479
0.88148
0.881481
0.881482
0.881483
0.881483
0.881483
0.881484
0.881485
0.881486
0.881486
0.881487
0.881488
0.881489
0.881489
0.881489
0.88149
0.881491
0.881492
0.881493
0.881493
0.881494
0.881495
0.881496
0.881497
0.881497
0.881497
0.881498
0.881499
0.8815
0.8815
0.881501
0.881502
0.881503
0.881504
0.881504
0.881505
0.881505
0.881506
0.881507
0.881507
0.881508
0.881509
0.88151
0.881511
0.881511
0.881512
0.881513
0.881514
0.881515
0.881515
0.881516
0.881516
0.881517
0.881518
0.881518
0.881519
0.88152
0.881521
0.881522
0.881522
0.881523
0.881524
0.881525
0.881526
0.881526
0.881527
0.881528
0.881529
0.88153
0.88153
0.881531
0.881532
0.881532
0.881533
0.881533
0.881534
0.881535
0.881536
0.881537
0.881537
0.881538
0.881539
0.88154
0.881541
0.881541
0.881542
0.881543
0.881544
0.881545
0.881545
0.881546
0.881547
0.881548
0.881549
0.881549
0.88155
0.881551
0.881552
0.881553
0.881553
0.881554
0.881555
0.881556
0.881557
0.881557
0.881558
0.881559
0.88156
0.881561
0.881561
0.881562
0.881563
0.881564
0.881565
0.881565
0.881566
0.881567
0.881569
0.88157
0.88157
0.881571
0.881572
0.881573
0.881574
0.881574
0.881575
0.881576
0.881577
0.881578
0.881578
0.881579
0.88158
0.881581
0.881582
0.881582
0.881583
0.881584
0.881586
0.881587
0.881587
0.881588
0.881589
0.88159
0.881591
0.881591
0.881592
0.881593
0.881594
0.881595
0.881595
0.881596
0.881597
0.881599
0.8816
0.8816
0.881601
0.881602
0.881603
0.881604
0.881604
0.881605
0.881606
0.881607
0.881608
0.881608
0.88161
0.881611
0.881612
0.881613
0.881613
0.881614
0.881615
0.881616
0.881617
0.881617
0.881619
0.88162
0.881621
0.881622
0.881622
0.881623
0.881624
0.881625
0.881627
0.881627
0.881628
0.881629
0.88163
0.881631
0.881631
0.881632
0.881633
0.881635
0.881636
0.881636
0.881637
0.881638
0.881639
0.88164
0.88164
0.881642
0.881643
0.881644
0.881645
0.881645
0.881646
0.881648
0.881649
0.88165
0.88165
0.881651
0.881652
0.881653
0.881655
0.881655
0.881656
0.881657
0.881658
0.881659
0.881659
0.881661
0.881662
0.881663
0.881664
0.881664
0.881665
0.881667
0.881668
0.881669
0.881669
0.88167
0.881672
0.881673
0.881674
0.881674
0.881675
0.881676
0.881678
0.881679
0.881679
0.88168
0.881681
0.881683
0.881684
0.881684
0.881685
0.881686
0.881688
0.881689
0.881689
0.88169
0.881691
0.881693
0.881694
0.881694
0.881695
0.881696
0.881698
0.881699
0.881699
0.8817
0.881701
0.881703
0.881704
0.881704
0.881705
0.881707
0.881708
0.881709
0.881709
0.88171
0.881712
0.881713
0.881714
0.881714
0.881716
0.881717
0.881718
0.881719
0.881719
0.881721
0.881722
0.881723
0.881725
0.881725
0.881726
0.881727
0.881729
0.88173
0.88173
0.881731
0.881733
0.881734
0.881735
0.881735
0.881737
0.881738
0.881739
0.881741
0.881741
0.881742
0.881743
0.881745
0.881746
0.881746
0.881747
0.881749
0.88175
0.881751
0.881751
0.881753
0.881754
0.881755
0.881757
0.881757
0.881758
0.881759
0.881761
0.881762
0.881762
0.881763
0.881765
0.881766
0.881768
0.881768
0.881769
0.88177
0.881772
0.881773
0.881773
0.881774
0.881776
0.881777
0.881779
0.881779
0.88178
0.881781
0.881783
0.881784
0.881784
0.881786
0.881787
0.881788
0.88179
0.88179
0.881791
0.881793
0.881794
0.881795
0.881795
0.881797
0.881798
0.8818
0.881801
0.881801
0.881803
0.881804
0.881805
0.881807
0.881807
0.881808
0.88181
0.881811
0.881813
0.881813
0.881814
0.881815
0.881817
0.881818
0.881818
0.88182
0.881821
0.881823
0.881824
0.881824
0.881826
0.881827
0.881828
0.88183
0.88183
0.881831
0.881833
0.881834
0.881836
0.881836
0.881837
0.881839
0.88184
0.881842
0.881842
0.881843
0.881845
0.881846
0.881848
0.881848
0.881849
0.881851
0.881852
0.881854
0.881854
0.881855
0.881857
0.881858
0.88186
0.88186
0.881861
0.881863
0.881864
0.881866
0.881866
0.881867
0.881869
0.88187
0.881872
0.881872
0.881873
0.881875
0.881876
0.881878
0.881878
0.881879
0.881881
0.881882
0.881884
0.881884
0.881885
0.881887
0.881888
0.88189
0.88189
0.881892
0.881893
0.881895
0.881896
0.881896
0.881898
0.881899
0.881901
0.881902
0.881902
0.881904
0.881906
0.881907
0.881909
0.881909
0.88191
0.881912
0.881913
0.881915
0.881915
0.881917
0.881918
0.88192
0.881921
0.881921
0.881923
0.881924
0.881926
0.881928
0.881928
0.881929
0.881931
0.881932
0.881934
0.881934
0.881936
0.881937
0.881939
0.88194
0.88194
0.881942
0.881944
0.881945
0.881947
0.881947
0.881948
0.88195
0.881952
0.881953
0.881953
0.881955
0.881957
0.881958
0.88196
0.88196
0.881961
0.881963
0.881965
0.881966
0.881966
0.881968
0.88197
0.881971
0.881973
0.881973
0.881975
0.881976
0.881978
0.88198
0.88198
0.881981
0.881983
0.881985
0.881986
0.881986
0.881988
0.881989
0.881991
0.881993
0.881993
0.881994
0.881996
0.881998
0.882
0.882
0.882001
0.882003
0.882005
0.882006
0.882006
0.882008
0.88201
0.882011
0.882013
0.882013
0.882015
0.882016
0.882018
0.88202
0.88202
0.882021
0.882023
0.882025
0.882027
0.882027
0.882028
0.88203
0.882032
0.882033
0.882033
0.882035
0.882037
0.882039
0.88204
0.88204
0.882042
0.882044
0.882045
0.882047
0.882047
0.882049
0.882051
0.882052
0.882054
0.882054
0.882056
0.882058
0.882059
0.882061
0.882061
0.882063
0.882065
0.882066
0.882068
0.882068
0.88207
0.882072
0.882073
0.882075
0.882075
0.882077
0.882079
0.88208
0.882082
0.882082
0.882084
0.882086
0.882087
0.882089
0.882089
0.882091
0.882093
0.882094
0.882096
0.882096
0.882098
0.8821
0.882102
0.882103
0.882103
0.882105
0.882107
0.882109
0.882111
0.882111
0.882113
0.882114
0.882116
0.882118
0.882118
0.88212
0.882122
0.882124
0.882125
0.882125
0.882127
0.882129
0.882131
0.882133
0.882133
0.882135
0.882136
0.882138
0.88214
0.88214
0.882142
0.882144
0.882146
0.882148
0.882148
0.882149
0.882151
0.882153
0.882155
0.882155
0.882157
0.882159
0.882161
0.882162
0.882162
0.882164
0.882166
0.882168
0.88217
0.88217
0.882172
0.882174
0.882176
0.882177
0.882177
0.882179
0.882181
0.882183
0.882185
0.882185
0.882187
0.882189
0.882191
0.882193
0.882193
0.882194
0.882196
0.882198
0.8822
0.8822
0.882202
0.882204
0.882206
0.882208
0.882208
0.88221
0.882212
0.882214
0.882215
0.882215
0.882217
0.882219
0.882221
0.882223
0.882223
0.882225
0.882227
0.882229
0.882231
0.882231
0.882233
0.882235
0.882237
0.882239
0.882239
0.882241
0.882243
0.882245
0.882246
0.882246
0.882248
0.88225
0.882252
0.882254
0.882254
0.882256
0.882258
0.88226
0.882262
0.882262
0.882264
0.882266
0.882268
0.88227
0.88227
0.882272
0.882274
0.882276
0.882278
0.882278
0.88228
0.882282
0.882284
0.882286
0.882286
0.882288
0.88229
0.882292
0.882294
0.882294
0.882296
0.882298
0.8823
0.882302
0.882302
0.882304
0.882306
0.882308
0.88231
0.88231
0.882312
0.882314
0.882316
0.882318
0.882318
0.88232
0.882322
0.882324
0.882326
0.882326
0.882328
0.88233
0.882332
0.882334
0.882334
0.882336
0.882338
0.88234
0.882342
0.882342
0.882345
0.882347
0.882349
0.882351
0.882351
0.882353
0.882355
0.882357
0.882359
0.882359
0.882361
0.882363
0.882365
0.882367
0.882367
0.882369
0.882371
0.882373
0.882376
0.882376
0.882378
0.88238
0.882382
0.882384
0.882384
0.882386
0.882388
0.88239
0.882392
0.882392
0.882394
0.882396
0.882399
0.882401
0.882401
0.882403
0.882405
0.882407
0.882409
0.882409
0.882411
0.882413
0.882415
0.882418
0.882418
0.88242
0.882422
0.882424
0.882426
0.882426
0.882428
0.88243
0.882432
0.882435
0.882435
0.882437
0.882439
0.882441
0.882443
0.882443
0.882445
0.882447
0.88245
0.882452
0.882452
0.882454
0.882456
0.882458
0.88246
0.88246
0.882463
0.882465
0.882467
0.882469
0.882469
0.882471
0.882473
0.882476
0.882478
0.882478
0.88248
0.882482
0.882484
0.882486
0.882486
0.882489
0.882491
0.882493
0.882495
0.882495
0.882497
0.8825
0.882502
0.882504
0.882504
0.882506
0.882508
0.882511
0.882513
0.882513
0.882515
0.882517
0.882519
0.882522
0.882522
0.882524
0.882526
0.882528
0.88253
0.88253
0.882533
0.882535
0.882537
0.882539
0.882539
0.882542
0.882544
0.882546
0.882548
0.882548
0.882551
0.882553
0.882555
0.882557
0.882557
0.88256
0.882562
0.882564
0.882566
0.882566
0.882569
0.882571
0.882573
0.882575
0.882575
0.882578
0.88258
0.882582
0.882584
0.882584
0.882587
0.882589
0.882591
0.882593
0.882593
0.882596
0.882598
0.8826
0.882602
0.882602
0.882605
0.882607
0.882609
0.882612
0.882612
0.882614
0.882616
0.882618
0.882621
0.882621
0.882623
0.882625
0.882628
0.88263
0.88263
0.882632
0.882634
0.882637
0.882639
0.882639
0.882641
0.882644
0.882646
0.882648
0.882648
0.882651
0.882653
0.882655
0.882658
0.882658
0.88266
0.882662
0.882665
0.882667
0.882667
0.882669
0.882672
0.882674
0.882677
0.882677
0.882679
0.882681
0.882684
0.882686
0.882686
0.882688
0.882691
0.882693
0.882696
0.882696
0.882698
0.8827
0.882703
0.882705
0.882705
0.882707
0.88271
0.882712
0.882715
0.882715
0.882717
0.882719
0.882722
0.882724
0.882724
0.882727
0.882729
0.882731
0.882734
0.882734
0.882736
0.882739
0.882741
0.882744
0.882744
0.882746
0.882748
0.882751
0.882753
0.882753
0.882756
0.882758
0.88276
0.882763
0.882763
0.882765
0.882768
0.88277
0.882773
0.882773
0.882775
0.882777
0.88278
0.882782
0.882782
0.882785
0.882787
0.88279
0.882792
0.882792
0.882795
0.882797
0.882799
0.882802
0.882802
0.882804
0.882807
0.882809
0.882812
0.882812
0.882814
0.882817
0.882819
0.882822
0.882822
0.882824
0.882827
0.882829
0.882832
0.882832
0.882834
0.882837
0.882839
0.882841
0.882841
0.882844
0.882846
0.882849
0.882851
0.882851
0.882854
0.882856
0.882859
0.882861
0.882861
0.882864
0.882866
0.882869
0.882871
0.882871
0.882874
0.882877
0.882879
0.882882
0.882882
0.882884
0.882887
0.882889
0.882892
0.882892
0.882894
0.882897
0.882899
0.882902
0.882902
0.882904
0.882907
0.882909
0.882912
0.882912
0.882914
0.882917
0.88292
0.882922
0.882922
0.882925
0.882927
0.88293
0.882932
0.882932
0.882935
0.882937
0.88294
0.882943
0.882943
0.882945
0.882948
0.88295
0.882953
0.882953
0.882955
0.882958
0.882961
0.882963
0.882963
0.882966
0.882968
0.882971
0.882974
0.882974
0.882976
0.882979
0.882981
0.882984
0.882984
0.882986
0.882989
0.882992
0.882994
0.882994
0.882997
0.883
0.883002
0.883005
0.883005
0.883007
0.88301
0.883013
0.883015
0.883015
0.883018
0.88302
0.883023
0.883026
0.883026
0.883028
0.883031
0.883034
0.883036
0.883036
0.883039
0.883042
0.883044
0.883047
0.883047
0.883049
0.883052
0.883055
0.883057
0.883057
0.88306
0.883063
0.883065
0.883068
0.883068
0.883071
0.883073
0.883076
0.883079
0.883079
0.883081
0.883084
0.883087
0.883089
0.883089
0.883092
0.883095
0.883097
0.8831
0.8831
0.883103
0.883105
0.883108
0.883111
0.883111
0.883113
0.883116
0.883119
0.883122
0.883122
0.883124
0.883127
0.88313
0.883132
0.883132
0.883135
0.883138
0.88314
0.883143
0.883143
0.883146
0.883149
0.883151
0.883154
0.883154
0.883157
0.883159
0.883162
0.883165
0.883165
0.883167
0.88317
0.883173
0.883176
0.883176
0.883178
0.883181
0.883184
0.883187
0.883187
0.883189
0.883192
0.883195
0.883197
0.883197
0.8832
0.883203
0.883206
0.883208
0.883208
0.883211
0.883214
0.883217
0.88322
0.88322
0.883222
0.883225
0.883228
0.883231
0.883231
0.883234
0.883236
0.883239
0.883242
0.883242
0.883245
0.883248
0.88325
0.883253
0.883253
0.883256
0.883259
0.883262
0.883265
0.883265
0.883267
0.88327
0.883273
0.883276
0.883276
0.883279
0.883281
0.883284
0.883287
0.883287
0.88329
0.883293
0.883296
0.883298
0.883298
0.883301
0.883304
0.883307
0.88331
0.88331
0.883313
0.883316
0.883318
0.883321
0.883321
0.883324
0.883327
0.88333
0.883333
0.883333
0.883335
0.883338
0.883341
0.883344
0.883344
0.883347
0.88335
0.883353
0.883356
0.883356
0.883358
0.883361
0.883364
0.883367
0.883367
0.88337
0.883373
0.883376
0.883379
0.883379
0.883381
0.883384
0.883387
0.88339
0.88339
0.883393
0.883396
0.883399
0.883402
0.883402
0.883405
0.883407
0.88341
0.883413
0.883413
0.883416
0.883419
0.883422
0.883425
0.883425
0.883428
0.883431
0.883434
0.883437
0.883437
0.88344
0.883442
0.883445
0.883448
0.883448
0.883451
0.883454
0.883457
0.88346
0.88346
0.883463
0.883466
0.883469
0.883472
0.883472
0.883475
0.883478
0.883481
0.883484
0.883484
0.883487
0.88349
0.883492
0.883495
0.883495
0.883498
0.883501
0.883504
0.883507
0.883507
0.88351
0.883513
0.883516
0.883519
0.883519
0.883522
0.883525
0.883528
0.883531
0.883531
0.883534
0.883537
0.88354
0.883543
0.883543
0.883546
0.883549
0.883552
0.883555
0.883555
0.883558
0.883561
0.883564
0.883567
0.883567
0.88357
0.883573
0.883576
0.883579
0.883579
0.883582
0.883585
0.883588
0.883591
0.883591
0.883594
0.883597
0.8836
0.883603
0.883603
0.883606
0.883609
0.883612
0.883615
0.883615
0.883618
0.883622
0.883625
0.883628
0.883628
0.883631
0.883634
0.883637
0.88364
0.88364
0.883643
0.883646
0.883649
0.883652
0.883652
0.883655
0.883658
0.883661
0.883664
0.883664
0.883667
0.88367
0.883673
0.883677
0.883677
0.88368
0.883683
0.883686
0.883689
0.883689
0.883692
0.883695
0.883698
0.883701
0.883701
0.883704
0.883707
0.88371
0.883713
0.883713
0.883716
0.88372
0.883723
0.883726
0.883726
0.883729
0.883732
0.883735
0.883738
0.883738
0.883741
0.883744
0.883747
0.88375
0.88375
0.883754
0.883757
0.88376
0.883763
0.883763
0.883766
0.883769
0.883772
0.883775
0.883775
0.883779
0.883782
0.883785
0.883788
0.883788
0.883791
0.883794
0.883798
0.883801
0.883801
0.883804
0.883807
0.88381
0.883814
0.883814
0.883817
0.88382
0.883823
0.883826
0.883826
0.88383
0.883833
0.883836
0.883839
0.883839
0.883842
0.883846
0.883849
0.883852
0.883852
0.883855
0.883858
0.883862
0.883865
0.883865
0.883868
0.883871
0.883874
0.883878
0.883878
0.883881
0.883884
0.883887
0.88389
0.88389
0.883894
0.883897
0.8839
0.883903
0.883903
0.883907
0.88391
0.883913
0.883916
0.883916
0.88392
0.883923
0.883926
0.883929
0.883929
0.883932
0.883936
0.883939
0.883942
0.883942
0.883945
0.883949
0.883952
0.883955
0.883955
0.883958
0.883962
0.883965
0.883968
0.883968
0.883972
0.883975
0.883978
0.883981
0.883981
0.883985
0.883988
0.883991
0.883994
0.883994
0.883998
0.884001
0.884004
0.884008
0.884008
0.884011
0.884014
0.884017
0.884021
0.884021
0.884024
0.884027
0.884031
0.884034
0.884034
0.884037
0.88404
0.884044
0.884047
0.884047
0.88405
0.884054
0.884057
0.88406
0.88406
0.884064
0.884067
0.88407
0.884074
0.884074
0.884077
0.88408
0.884084
0.884087
0.884087
0.88409
0.884094
0.884097
0.8841
0.8841
0.884104
0.884107
0.88411
0.884114
0.884114
0.884117
0.88412
0.884124
0.884127
0.884127
0.88413
0.884134
0.884137
0.88414
0.88414
0.884144
0.884147
0.88415
0.884154
0.884154
0.884157
0.884161
0.884164
0.884167
0.884167
0.884171
0.884174
0.884177
0.884181
0.884181
0.884184
0.884188
0.884191
0.884194
0.884194
0.884198
0.884201
0.884204
0.884208
0.884208
0.884211
0.884215
0.884218
0.884221
0.884221
0.884225
0.884228
0.884232
0.884235
0.884235
0.884238
0.884242
0.884245
0.884249
0.884249
0.884252
0.884255
0.884259
0.884262
0.884262
0.884266
0.884269
0.884272
0.884276
0.884276
0.884279
0.884283
0.884286
0.88429
0.88429
0.884293
0.884296
0.8843
0.884303
0.884303
0.884307
0.88431
0.884314
0.884317
0.884317
0.88432
0.884324
0.884327
0.884331
0.884331
0.884334
0.884338
0.884341
0.884345
0.884345
0.884348
0.884352
0.884355
0.884359
0.884359
0.884362
0.884366
0.884369
0.884373
0.884373
0.884376
0.88438
0.884383
0.884387
0.884387
0.88439
0.884394
0.884397
0.884401
0.884401
0.884404
0.884408
0.884412
0.884415
0.884415
0.884419
0.884422
0.884426
0.884429
0.884429
0.884433
0.884436
0.88444
0.884443
0.884443
0.884447
0.88445
0.884454
0.884458
0.884458
0.884461
0.884465
0.884468
0.884472
0.884472
0.884475
0.884479
0.884482
0.884486
0.884486
0.88449
0.884493
0.884497
0.8845
0.8845
0.884504
0.884507
0.884511
0.884515
0.884515
0.884518
0.884522
0.884525
0.884529
0.884529
0.884532
0.884536
0.88454
0.884543
0.884543
0.884547
0.88455
0.884554
0.884558
0.884558
0.884561
0.884565
0.884568
0.884572
0.884572
0.884576
0.884579
0.884583
0.884586
0.884586
0.88459
0.884594
0.884597
0.884601
0.884601
0.884604
0.884608
0.884612
0.884615
0.884615
0.884619
0.884623
0.884626
0.88463
0.88463
0.884633
0.884637
0.884641
0.884644
0.884644
0.884648
0.884652
0.884655
0.884659
0.884659
0.884663
0.884666
0.88467
0.884674
0.884674
0.884677
0.884681
0.884684
0.884688
0.884688
0.884692
0.884695
0.884699
0.884703
0.884703
0.884706
0.88471
0.884714
0.884717
0.884717
0.884721
0.884725
0.884729
0.884732
0.884732
0.884736
0.88474
0.884743
0.884747
0.884747
0.884751
0.884754
0.884758
0.884762
0.884762
0.884765
0.884769
0.884773
0.884776
0.884776
0.88478
0.884784
0.884788
0.884791
0.884791
0.884795
0.884799
0.884802
0.884806
0.884806
0.88481
0.884813
0.884817
0.884821
0.884821
0.884825
0.884828
0.884832
0.884836
0.884836
0.884839
0.884843
0.884847
0.884851
0.884851
0.884854
0.884858
0.884862
0.884865
0.884865
0.884869
0.884873
0.884877
0.88488
0.88488
0.884884
0.884888
0.884892
0.884895
0.884895
0.884899
0.884903
0.884907
0.88491
0.88491
0.884914
0.884918
0.884922
0.884926
0.884926
0.88493
0.884933
0.884937
0.884941
0.884941
0.884945
0.884949
0.884952
0.884956
0.884956
0.88496
0.884964
0.884968
0.884972
0.884972
0.884975
0.884979
0.884983
0.884987
0.884987
0.884991
0.884995
0.884998
0.885002
0.885002
0.885006
0.88501
0.885014
0.885018
0.885018
0.885022
0.885025
0.885029
0.885033
0.885033
0.885037
0.885041
0.885045
0.885048
0.885048
0.885052
0.885056
0.88506
0.885064
0.885064
0.885068
0.885072
0.885075
0.885079
0.885079
0.885083
0.885087
0.885091
0.885095
0.885095
0.885099
0.885103
0.885106
0.88511
0.88511
0.885114
0.885118
0.885122
0.885126
0.885126
0.88513
0.885134
0.885138
0.885141
0.885141
0.885145
0.885149
0.885153
0.885157
0.885157
0.885161
0.885165
0.885169
0.885173
0.885173
0.885177
0.88518
0.885184
0.885188
0.885188
0.885192
0.885196
0.8852
0.885204
0.885204
0.885208
0.885212
0.885216
0.88522
0.88522
0.885224
0.885228
0.885231
0.885235
0.885235
0.885239
0.885243
0.885247
0.885251
0.885251
0.885255
0.885259
0.885263
0.885267
0.885267
0.885271
0.885275
0.885279
0.885283
0.885283
0.885287
0.885291
0.885295
0.885299
0.885299
0.885303
0.885307
0.88531
0.885314
0.885314
0.885318
0.885322
0.885326
0.88533
0.88533
0.885334
0.885338
0.885342
0.885346
0.885346
0.88535
0.885354
0.885358
0.885362
0.885362
0.885366
0.88537
0.885374
0.885378
0.885378
0.885382
0.885386
0.88539
0.885394
0.885394
0.885398
0.885402
0.885406
0.88541
0.88541
0.885414
0.885418
0.885422
0.885426
0.885426
0.88543
0.885434
0.885438
0.885442
0.885442
0.885446
0.88545
0.885454
0.885458
0.885458
0.885462
0.885466
0.88547
0.885474
0.885474
0.885478
0.885482
0.885486
0.885491
0.885491
0.885495
0.885499
0.885503
0.885507
0.885507
0.885511
0.885515
0.885519
0.885523
0.885523
0.885527
0.885532
0.885536
0.88554
0.88554
0.885544
0.885548
0.885552
0.885556
0.885556
0.88556
0.885564
0.885569
0.885573
0.885573
0.885577
0.885581
0.885585
0.885589
0.885589
0.885593
0.885597
0.885601
0.885606
0.885606
0.88561
0.885614
0.885618
0.885622
0.885622
0.885626
0.88563
0.885635
0.885639
0.885639
0.885643
0.885647
0.885651
0.885655
0.885655
0.885659
0.885664
0.885668
0.885672
0.885672
0.885676
0.88568
0.885684
0.885688
0.885688
0.885693
0.885697
0.885701
0.885705
0.885705
0.885709
0.885713
0.885718
0.885722
0.885722
0.885726
0.88573
0.885734
0.885738
0.885738
0.885743
0.885747
0.885751
0.885755
0.885755
0.885759
0.885763
0.885768
0.885772
0.885772
0.885776
0.88578
0.885784
0.885789
0.885789
0.885793
0.885797
0.885801
0.885805
0.885805
0.88581
0.885814
0.885818
0.885822
0.885822
0.885826
0.885831
0.885835
0.885839
0.885839
0.885843
0.885847
0.885852
0.885856
0.885856
0.88586
0.885864
0.885869
0.885873
0.885873
0.885877
0.885881
0.885885
0.88589
0.88589
0.885894
0.885898
0.885902
0.885907
0.885907
0.885911
0.885915
0.885919
0.885924
0.885924
0.885928
0.885932
0.885936
0.88594
0.88594
0.885945
0.885949
0.885953
0.885957
0.885957
0.885962
0.885966
0.88597
0.885974
0.885974
0.885979
0.885983
0.885987
0.885991
0.885991
0.885996
0.886
0.886004
0.886008
0.886008
0.886013
0.886017
0.886021
0.886026
0.886026
0.88603
0.886034
0.886038
0.886043
0.886043
0.886047
0.886051
0.886056
0.88606
0.88606
0.886065
0.886069
0.886073
0.886078
0.886078
0.886082
0.886086
0.886091
0.886095
0.886095
0.886099
0.886104
0.886108
0.886112
0.886112
0.886117
0.886121
0.886126
0.88613
0.88613
0.886134
0.886139
0.886143
0.886147
0.886147
0.886152
0.886156
0.886161
0.886165
0.886165
0.886169
0.886174
0.886178
0.886182
0.886182
0.886187
0.886191
0.886196
0.8862
0.8862
0.886204
0.886209
0.886213
0.886218
0.886218
0.886222
0.886226
0.886231
0.886235
0.886235
0.88624
0.886244
0.886248
0.886253
0.886253
0.886257
0.886262
0.886266
0.88627
0.88627
0.886275
0.886279
0.886284
0.886288
0.886288
0.886292
0.886297
0.886301
0.886306
0.886306
0.88631
0.886315
0.886319
0.886323
0.886323
0.886328
0.886332
0.886337
0.886341
0.886341
0.886346
0.88635
0.886354
0.886359
0.886359
0.886363
0.886368
0.886372
0.886377
0.886377
0.886381
0.886386
0.88639
0.886394
0.886394
0.886399
0.886403
0.886408
0.886412
0.886412
0.886417
0.886421
0.886426
0.88643
0.88643
0.886435
0.886439
0.886443
0.886448
0.886448
0.886452
0.886457
0.886461
0.886466
0.886466
0.88647
0.886475
0.886479
0.886484
0.886484
0.886488
0.886493
0.886497
0.886502
0.886502
0.886506
0.886511
0.886515
0.886519
0.886519
0.886524
0.886528
0.886533
0.886537
0.886537
0.886542
0.886546
0.886551
0.886555
0.886555
0.88656
0.886564
0.886569
0.886573
0.886573
0.886578
0.886582
0.886587
0.886591
0.886591
0.886596
0.886601
0.886605
0.88661
0.88661
0.886614
0.886619
0.886623
0.886628
0.886628
0.886633
0.886637
0.886642
0.886646
0.886646
0.886651
0.886656
0.88666
0.886665
0.886665
0.886669
0.886674
0.886679
0.886683
0.886683
0.886688
0.886692
0.886697
0.886702
0.886702
0.886706
0.886711
0.886716
0.88672
0.88672
0.886725
0.886729
0.886734
0.886739
0.886739
0.886743
0.886748
0.886752
0.886757
0.886757
0.886762
0.886766
0.886771
0.886776
0.886776
0.88678
0.886785
0.886789
0.886794
0.886794
0.886799
0.886803
0.886808
0.886813
0.886813
0.886817
0.886822
0.886826
0.886831
0.886831
0.886836
0.88684
0.886845
0.88685
0.88685
0.886854
0.886859
0.886864
0.886868
0.886868
0.886873
0.886878
0.886882
0.886887
0.886887
0.886892
0.886896
0.886901
0.886906
0.886906
0.88691
0.886915
0.88692
0.886924
0.886924
0.886929
0.886934
0.886938
0.886943
0.886943
0.886948
0.886952
0.886957
0.886962
0.886962
0.886966
0.886971
0.886976
0.88698
0.88698
0.886985
0.88699
0.886994
0.886999
0.886999
0.887004
0.887008
0.887013
0.887018
0.887018
0.887023
0.887027
0.887032
0.887037
0.887037
0.887041
0.887046
0.887051
0.887055
0.887055
0.88706
0.887065
0.88707
0.887074
0.887074
0.887079
0.887084
0.887088
0.887093
0.887093
0.887098
0.887102
0.887107
0.887112
0.887112
0.887117
0.887121
0.887126
0.887131
0.887131
0.887135
0.88714
0.887145
0.88715
0.88715
0.887155
0.887159
0.887164
0.887169
0.887169
0.887174
0.887178
0.887183
0.887188
0.887188
0.887193
0.887198
0.887203
0.887207
0.887207
0.887212
0.887217
0.887222
0.887227
0.887227
0.887231
0.887236
0.887241
0.887246
0.887246
0.887251
0.887256
0.88726
0.887265
0.887265
0.88727
0.887275
0.88728
0.887285
0.887285
0.887289
0.887294
0.887299
0.887304
0.887304
0.887309
0.887314
0.887318
0.887323
0.887323
0.887328
0.887333
0.887338
0.887343
0.887343
0.887348
0.887352
0.887357
0.887362
0.887362
0.887367
0.887372
0.887377
0.887382
0.887382
0.887386
0.887391
0.887396
0.887401
0.887401
0.887406
0.887411
0.887416
0.88742
0.88742
0.887425
0.88743
0.887435
0.88744
0.88744
0.887445
0.88745
0.887455
0.887459
0.887459
0.887464
0.887469
0.887474
0.887479
0.887479
0.887484
0.887489
0.887494
0.887498
0.887498
0.887503
0.887508
0.887513
0.887518
0.887518
0.887523
0.887528
0.887533
0.887538
0.887538
0.887542
0.887547
0.887552
0.887557
0.887557
0.887562
0.887567
0.887572
0.887577
0.887577
0.887582
0.887587
0.887591
0.887596
0.887596
0.887601
0.887606
0.887611
0.887616
0.887616
0.887621
0.887626
0.887631
0.887636
0.887636
0.88764
0.887645
0.88765
0.887655
0.887655
0.88766
0.887665
0.88767
0.887675
0.887675
0.88768
0.887685
0.88769
0.887695
0.887695
0.8877
0.887705
0.88771
0.887715
0.887715
0.88772
0.887725
0.88773
0.887735
0.887735
0.88774
0.887745
0.88775
0.887755
0.887755
0.88776
0.887765
0.88777
0.887775
0.887775
0.88778
0.887785
0.88779
0.887795
0.887795
0.8878
0.887805
0.88781
0.887815
0.887815
0.88782
0.887825
0.88783
0.887835
0.887835
0.88784
0.887845
0.88785
0.887855
0.887855
0.887861
0.887866
0.887871
0.887876
0.887876
0.887881
0.887886
0.887891
0.887896
0.887896
0.887901
0.887906
0.887911
0.887916
0.887916
0.887921
0.887926
0.887931
0.887936
0.887936
0.887941
0.887946
0.887952
0.887957
0.887957
0.887962
0.887967
0.887972
0.887977
0.887977
0.887982
0.887987
0.887992
0.887997
0.887997
0.888002
0.888007
0.888012
0.888017
0.888017
0.888023
0.888028
0.888033
0.888038
0.888038
0.888043
0.888048
0.888053
0.888058
0.888058
0.888063
0.888068
0.888073
0.888078
0.888078
0.888084
0.888089
0.888094
0.888099
0.888099
0.888104
0.888109
0.888114
0.888119
0.888119
0.888124
0.888129
0.888134
0.88814
0.88814
0.888145
0.88815
0.888155
0.88816
0.88816
0.888165
0.88817
0.888175
0.88818
0.88818
0.888186
0.888191
0.888196
0.888201
0.888201
0.888206
0.888211
0.888216
0.888221
0.888221
0.888226
0.888232
0.888237
0.888242
0.888242
0.888247
0.888252
0.888257
0.888263
0.888263
0.888268
0.888273
0.888278
0.888283
0.888283
0.888289
0.888294
0.888299
0.888304
0.888304
0.888309
0.888315
0.88832
0.888325
0.888325
0.88833
0.888336
0.888341
0.888346
0.888346
0.888351
0.888357
0.888362
0.888367
0.888367
0.888372
0.888377
0.888383
0.888388
0.888388
0.888393
0.888398
0.888404
0.888409
0.888409
0.888414
0.888419
0.888425
0.88843
0.88843
0.888435
0.88844
0.888446
0.888451
0.888451
0.888456
0.888461
0.888467