<?xml version="1.0"?>
<VTKFile type="UnstructuredGrid" version="0.1" byte_order="LittleEndian">
<UnstructuredGrid>
<Piece NumberOfPoints="5000" NumberOfCells="4000">
<PointData Scalars="Reaction 0">
<DataArray type="Float32" Name="Reaction 0" format="ascii">
0.624149
0.624149
0.624149
0.624149
0.624149
0.624149
0.624149
0.624149
0.624149
0.624149
0.624149
0.624149
0.624149
0.624149
0.624149
0.624149
0.624149
0.624149
0.62415
0.62415
0.62415
0.62415
0.62415
0.62415
0.62415
0.62415
0.62415
0.62415
0.62415
0.62415
0.62415
0.62415
0.62415
0.62415
0.62415
0.62415
0.62415
0.624151
0.624151
0.624151
0.624151
0.624151
0.624151
0.624151
0.624151
0.624151
0.624151
0.624151
0.624152
0.624152
0.624152
0.624152
0.624152
0.624152
0.624152
0.624152
0.624152
0.624152
0.624153
0.624153
0.624153
0.624153
0.624153
0.624153
0.624153
0.624153
0.624153
0.624154
0.624154
0.624154
0.624154
0.624154
0.624154
0.624155
0.624155
0.624155
0.624155
0.624155
0.624155
0.624155
0.624155
0.624156
0.624156
0.624156
0.624156
0.624156
0.624157
0.624157
0.624157
0.624157
0.624157
0.624157
0.624158
0.624158
0.624158
0.624158
0.624158
0.624159
0.624159
0.624159
0.624159
0.624159
0.62416
0.62416
0.62416
0.62416
0.62416
0.624161
0.624161
0.624161
0.624161
0.624161
0.624162
0.624162
0.624162
0.624162
0.624163
0.624163
0.624163
0.624163
0.624163
0.624164
0.624164
0.624164
0.624165
0.624165
0.624165
0.624165
0.624166
0.624166
0.624166
0.624166
0.624167
0.624167
0.624167
0.624167
0.624167
0.624168
0.624168
0.624169
0.624169
0.624169
0.624169
0.62417
0.62417
0.62417
0.62417
0.624171
0.624171
0.624171
0.624171
0.624172
0.624172
0.624173
0.624173
0.624173
0.624173
0.624174
0.624174
0.624174
0.624174
0.624175
0.624175
0.624176
0.624176
0.624176
0.624176
0.624177
0.624177
0.624178
0.624178
0.624178
0.624179
0.624179
0.624179
0.624179
0.62418
0.62418
0.624181
0.624181
0.624181
0.624182
0.624182
0.624183
0.624183
0.624183
0.624183
0.624184
0.624184
0.624185
0.624185
0.624185
0.624186
0.624186
0.624187
0.624187
0.624187
0.624188
0.624188
0.624189
0.624189
0.624189
0.62419
0.62419
0.624191
0.624191
0.624191
0.624192
0.624192
0.624193
0.624193
0.624193
0.624194
0.624194
0.624195
0.624195
0.624195
0.624196
0.624196
0.624197
0.624197
0.624198
0.624198
0.624199
0.624199
0.624199
0.6242
0.6242
0.624201
0.624201
0.624201
0.624202
0.624203
0.624203
0.624204
0.624204
0.624204
0.624205
0.624205
0.624206
0.624206
0.624207
0.624207
0.624208
0.624208
0.624208
0.624209
0.62421
0.62421
0.624211
0.624211
0.624212
0.624212
0.624213
0.624213
0.624213
0.624214
0.624215
0.624215
0.624216
0.624216
0.624217
0.624217
0.624218
0.624219
0.624219
0.624219
0.62422
0.624221
0.624221
0.624221
0.624222
0.624223
0.624223
0.624224
0.624224
0.624225
0.624225
0.624226
0.624227
0.624227
0.624227
0.624228
0.624229
0.624229
0.624229
0.62423
0.624231
0.624232
0.624232
0.624232
0.624233
0.624234
0.624234
0.624235
0.624235
0.624236
0.624237
0.624237
0.624238
0.624238
0.624239
0.62424
0.62424
0.624241
0.624241
0.624242
0.624243
0.624243
0.624244
0.624244
0.624245
0.624246
0.624246
0.624247
0.624247
0.624248
0.624249
0.62425
0.62425
0.62425
0.624251
0.624252
0.624253
0.624254
0.624254
0.624254
0.624255
0.624256
0.624257
0.624257
0.624258
0.624258
0.624259
0.62426
0.62426
0.624261
0.624262
0.624263
0.624263
0.624263
0.624264
0.624265
0.624266
0.624267
0.624267
0.624268
0.624268
0.624269
0.62427
0.62427
0.624271
0.624272
0.624273
0.624274
0.624274
0.624275
0.624275
0.624276
0.624277
0.624277
0.624278
0.624279
0.62428
0.624281
0.624281
0.624282
0.624283
0.624284
0.624284
0.624284
0.624285
0.624286
0.624287
0.624288
0.624288
0.624289
0.62429
0.624291
0.624292
0.624292
0.624293
0.624294
0.624295
0.624296
0.624296
0.624297
0.624298
0.624298
0.624299
0.624299
0.6243
0.624301
0.624302
0.624303
0.624303
0.624304
0.624305
0.624306
0.624307
0.624307
0.624308
0.624309
0.62431
0.624311
0.624311
0.624312
0.624313
0.624314
0.624315
0.624315
0.624316
0.624317
0.624318
0.624319
0.624319
0.62432
0.624321
0.624322
0.624323
0.624323
0.624325
0.624326
0.624327
0.624328
0.624328
0.624329
0.62433
0.624331
0.624332
0.624332
0.624333
0.624334
0.624335
0.624336
0.624336
0.624337
0.624338
0.624339
0.62434
0.62434
0.624342
0.624343
0.624344
0.624345
0.624345
0.624346
0.624347
0.624348
0.624349
0.624349
0.62435
0.624352
0.624353
0.624354
0.624354
0.624355
0.624356
0.624357
0.624358
0.624358
0.624359
0.624361
0.624362
0.624363
0.624363
0.624364
0.624365
0.624366
0.624367
0.624367
0.624369
0.62437
0.624371
0.624372
0.624372
0.624373
0.624374
0.624376
0.624377
0.624377
0.624378
0.624379
0.62438
0.624382
0.624382
0.624383
0.624384
0.624385
0.624386
0.624386
0.624388
0.624389
0.62439
0.624391
0.624391
0.624392
0.624394
0.624395
0.624396
0.624396
0.624397
0.624399
0.6244
0.624401
0.624401
0.624402
0.624404
0.624405
0.624406
0.624406
0.624407
0.624409
0.62441
0.624411
0.624411
0.624413
0.624414
0.624415
0.624416
0.624416
0.624418
0.624419
0.62442
0.624422
0.624422
0.624423
0.624424
0.624426
0.624427
0.624427
0.624428
0.624429
0.624431
0.624432
0.624432
0.624433
0.624435
0.624436
0.624437
0.624437
0.624439
0.62444
0.624441
0.624443
0.624443
0.624444
0.624445
0.624447
0.624448
0.624448
0.62445
0.624451
0.624452
0.624454
0.624454
0.624455
0.624456
0.624458
0.624459
0.624459
0.624461
0.624462
0.624463
0.624465
0.624465
0.624466
0.624468
0.624469
0.62447
0.62447
0.624472
0.624473
0.624475
0.624476
0.624476
0.624477
0.624479
0.62448
0.624482
0.624482
0.624483
0.624485
0.624486
0.624488
0.624488
0.624489
0.62449
0.624492
0.624493
0.624493
0.624495
0.624496
0.624498
0.624499
0.624499
0.624501
0.624502
0.624504
0.624505
0.624505
0.624507
0.624508
0.62451
0.624511
0.624511
0.624513
0.624514
0.624516
0.624517
0.624517
0.624519
0.62452
0.624522
0.624523
0.624523
0.624525
0.624526
0.624528
0.624529
0.624529
0.624531
0.624532
0.624534
0.624535
0.624535
0.624537
0.624539
0.62454
0.624542
0.624542
0.624543
0.624545
0.624546
0.624548
0.624548
0.624549
0.624551
0.624553
0.624554
0.624554
0.624556
0.624557
0.624559
0.624561
0.624561
0.624562
0.624564
0.624565
0.624567
0.624567
0.624569
0.62457
0.624572
0.624573
0.624573
0.624575
0.624577
0.624578
0.62458
0.62458
0.624582
0.624583
0.624585
0.624587
0.624587
0.624588
0.62459
0.624591
0.624593
0.624593
0.624595
0.624596
0.624598
0.6246
0.6246
0.624601
0.624603
0.624605
0.624606
0.624606
0.624608
0.62461
0.624612
0.624613
0.624613
0.624615
0.624617
0.624618
0.62462
0.62462
0.624622
0.624623
0.624625
0.624627
0.624627
0.624629
0.62463
0.624632
0.624634
0.624634
0.624636
0.624637
0.624639
0.624641
0.624641
0.624643
0.624644
0.624646
0.624648
0.624648
0.62465
0.624651
0.624653
0.624655
0.624655
0.624657
0.624658
0.62466
0.624662
0.624662
0.624664
0.624666
0.624667
0.624669
0.624669
0.624671
0.624673
0.624675
0.624676
0.624676
0.624678
0.62468
0.624682
0.624684
0.624684
0.624685
0.624687
0.624689
0.624691
0.624691
0.624693
0.624695
0.624696
0.624698
0.624698
0.6247
0.624702
0.624704
0.624706
0.624706
0.624708
0.624709
0.624711
0.624713
0.624713
0.624715
0.624717
0.624719
0.624721
0.624721
0.624723
0.624724
0.624726
0.624728
0.624728
0.62473
0.624732
0.624734
0.624736
0.624736
0.624738
0.62474
0.624742
0.624743
0.624743
0.624745
0.624747
0.624749
0.624751
0.624751
0.624753
0.624755
0.624757
0.624759
0.624759
0.624761
0.624763
0.624765
0.624767
0.624767
0.624769
0.624771
0.624773
0.624775
0.624775
0.624777
0.624779
0.62478
0.624782
0.624782
0.624784
0.624786
0.624788
0.62479
0.62479
0.624792
0.624794
0.624796
0.624798
0.624798
0.6248
0.624802
0.624804
0.624806
0.624806
0.624808
0.62481
0.624812
0.624814
0.624814
0.624816
0.624818
0.624821
0.624823
0.624823
0.624825
0.624827
0.624829
0.624831
0.624831
0.624833
0.624835
0.624837
0.624839
0.624839
0.624841
0.624843
0.624845
0.624847
0.624847
0.62485
0.624852
0.624854
0.624856
0.624856
0.624858
0.62486
0.624862
0.624864
0.624864
0.624866
0.624869
0.624871
0.624873
0.624873
0.624875
0.624877
0.624879
0.624881
0.624881
0.624883
0.624886
0.624888
0.62489
0.62489
0.624892
0.624894
0.624896
0.624898
0.624898
0.624901
0.624903
0.624905
0.624907
0.624907
0.624909
0.624911
0.624914
0.624916
0.624916
0.624918
0.62492
0.624922
0.624925
0.624925
0.624927
0.624929
0.624931
0.624933
0.624933
0.624936
0.624938
0.62494
0.624942
0.624942
0.624944
0.624947
0.624949
0.624951
0.624951
0.624953
0.624956
0.624958
0.62496
0.62496
0.624962
0.624965
0.624967
0.624969
0.624969
0.624971
0.624974
0.624976
0.624978
0.624978
0.62498
0.624983
0.624985
0.624987
0.624987
0.62499
0.624992
0.624994
0.624996
0.624996
0.624999
0.625001
0.625003
0.625006
0.625006
0.625008
0.62501
0.625013
0.625015
0.625015
0.625017
0.62502
0.625022
0.625024
0.625024
0.625027
0.625029
0.625031
0.625034
0.625034
0.625036
0.625038
0.625041
0.625043
0.625043
0.625045
0.625048
0.62505
0.625052
0.625052
0.625055
0.625057
0.62506
0.625062
0.625062
0.625064
0.625067
0.625069
0.625072
0.625072
0.625074
0.625076
0.625079
0.625081
0.625081
0.625084
0.625086
0.625088
0.625091
0.625091
0.625093
0.625096
0.625098
0.625101
0.625101
0.625103
0.625105
0.625108
0.62511
0.62511
0.625113
0.625115
0.625118
0.62512
0.62512
0.625123
0.625125
0.625127
0.62513
0.62513
0.625132
0.625135
0.625137
0.62514
0.62514
0.625142
0.625145
0.625147
0.62515
0.62515
0.625152
0.625155
0.625157
0.62516
0.62516
0.625162
0.625165
0.625167
0.62517
0.62517
0.625172
0.625175
0.625177
0.62518
0.62518
0.625183
0.625185
0.625188
0.62519
0.62519
0.625193
0.625195
0.625198
0.6252
0.6252
0.625203
0.625206
0.625208
0.625211
0.625211
0.625213
0.625216
0.625218
0.625221
0.625221
0.625223
0.625226
0.625229
0.625231
0.625231
0.625234
0.625236
0.625239
0.625242
0.625242
0.625244
0.625247
0.625249
0.625252
0.625252
0.625255
0.625257
0.62526
0.625262
0.625262
0.625265
0.625268
0.62527
0.625273
0.625273
0.625276
0.625278
0.625281
0.625284
0.625284
0.625286
0.625289
0.625292
0.625295
0.625295
0.625297
0.6253
0.625303
0.625305
0.625305
0.625308
0.625311
0.625313
0.625316
0.625316
0.625319
0.625321
0.625324
0.625327
0.625327
0.62533
0.625332
0.625335
0.625338
0.625338
0.625341
0.625343
0.625346
0.625349
0.625349
0.625351
0.625354
0.625357
0.62536
0.62536
0.625362
0.625365
0.625368
0.625371
0.625371
0.625373
0.625376
0.625379
0.625382
0.625382
0.625385
0.625387
0.62539
0.625393
0.625393
0.625396
0.625398
0.625401
0.625404
0.625404
0.625407
0.62541
0.625413
0.625415
0.625415
0.625418
0.625421
0.625424
0.625427
0.625427
0.625429
0.625432
0.625435
0.625438
0.625438
0.625441
0.625444
0.625446
0.625449
0.625449
0.625452
0.625455
0.625458
0.625461
0.625461
0.625464
0.625466
0.625469
0.625472
0.625472
0.625475
0.625478
0.625481
0.625484
0.625484
0.625487
0.62549
0.625492
0.625495
0.625495
0.625498
0.625501
0.625504
0.625507
0.625507
0.62551
0.625513
0.625516
0.625519
0.625519
0.625522
0.625524
0.625527
0.62553
0.62553
0.625533
0.625536
0.625539
0.625542
0.625542
0.625545
0.625548
0.625551
0.625554
0.625554
0.625557
0.62556
0.625563
0.625566
0.625566
0.625569
0.625572
0.625575
0.625578
0.625578
0.625581
0.625584
0.625587
0.62559
0.62559
0.625593
0.625596
0.625599
0.625602
0.625602
0.625605
0.625608
0.625611
0.625614
0.625614
0.625617
0.62562
0.625623
0.625626
0.625626
0.625629
0.625632
0.625635
0.625638
0.625638
0.625641
0.625644
0.625647
0.62565
0.62565
0.625653
0.625657
0.62566
0.625663
0.625663
0.625666
0.625669
0.625672
0.625675
0.625675
0.625678
0.625681
0.625684
0.625687
0.625687
0.62569
0.625693
0.625697
0.6257
0.6257
0.625703
0.625706
0.625709
0.625712
0.625712
0.625715
0.625718
0.625722
0.625725
0.625725
0.625728
0.625731
0.625734
0.625737
0.625737
0.625741
0.625744
0.625747
0.62575
0.62575
0.625753
0.625756
0.62576
0.625763
0.625763
0.625766
0.625769
0.625772
0.625776
0.625776
0.625779
0.625782
0.625785
0.625788
0.625788
0.625792
0.625795
0.625798
0.625801
0.625801
0.625804
0.625808
0.625811
0.625814
0.625814
0.625817
0.625821
0.625824
0.625827
0.625827
0.62583
0.625834
0.625837
0.62584
0.62584
0.625843
0.625847
0.62585
0.625853
0.625853
0.625856
0.62586
0.625863
0.625866
0.625866
0.62587
0.625873
0.625876
0.625879
0.625879
0.625883
0.625886
0.625889
0.625893
0.625893
0.625896
0.625899
0.625903
0.625906
0.625906
0.625909
0.625913
0.625916
0.625919
0.625919
0.625923
0.625926
0.625929
0.625933
0.625933
0.625936
0.625939
0.625943
0.625946
0.625946
0.625949
0.625953
0.625956
0.625959
0.625959
0.625963
0.625966
0.62597
0.625973
0.625973
0.625976
0.62598
0.625983
0.625987
0.625987
0.62599
0.625993
0.625997
0.626
0.626
0.626004
0.626007
0.62601
0.626014
0.626014
0.626017
0.626021
0.626024
0.626028
0.626028
0.626031
0.626034
0.626038
0.626041
0.626041
0.626045
0.626048
0.626052
0.626055
0.626055
0.626059
0.626062
0.626066
0.626069
0.626069
0.626072
0.626076
0.626079
0.626083
0.626083
0.626086
0.62609
0.626093
0.626097
0.626097
0.6261
0.626104
0.626107
0.626111
0.626111
0.626114
0.626118
0.626121
0.626125
0.626125
0.626128
0.626132
0.626135
0.626139
0.626139
0.626142
0.626146
0.626149
0.626153
0.626153
0.626157
0.62616
0.626164
0.626167
0.626167
0.626171
0.626174
0.626178
0.626181
0.626181
0.626185
0.626189
0.626192
0.626196
0.626196
0.6262
0.626203
0.626207
0.62621
0.62621
0.626214
0.626218
0.626221
0.626225
0.626225
0.626228
0.626232
0.626236
0.626239
0.626239
0.626243
0.626247
0.62625
0.626254
0.626254
0.626258
0.626261
0.626265
0.626269
0.626269
0.626272
0.626276
0.62628
0.626283
0.626283
0.626287
0.626291
0.626294
0.626298
0.626298
0.626302
0.626305
0.626309
0.626313
0.626313
0.626316
0.62632
0.626324
0.626327
0.626327
0.626331
0.626335
0.626339
0.626342
0.626342
0.626346
0.62635
0.626353
0.626357
0.626357
0.626361
0.626365
0.626368
0.626372
0.626372
0.626376
0.62638
0.626383
0.626387
0.626387
0.626391
0.626395
0.626398
0.626402
0.626402
0.626406
0.62641
0.626414
0.626417
0.626417
0.626421
0.626425
0.626429
0.626432
0.626432
0.626436
0.62644
0.626444
0.626448
0.626448
0.626451
0.626455
0.626459
0.626463
0.626463
0.626467
0.626471
0.626474
0.626478
0.626478
0.626482
0.626486
0.62649
0.626494
0.626494
0.626497
0.626501
0.626505
0.626509
0.626509
0.626513
0.626517
0.626521
0.626524
0.626524
0.626528
0.626532
0.626536
0.62654
0.62654
0.626544
0.626548
0.626552
0.626555
0.626555
0.626559
0.626563
0.626567
0.626571
0.626571
0.626575
0.626579
0.626583
0.626587
0.626587
0.626591
0.626594
0.626598
0.626602
0.626602
0.626606
0.62661
0.626614
0.626618
0.626618
0.626622
0.626626
0.62663
0.626634
0.626634
0.626638
0.626642
0.626646
0.62665
0.62665
0.626654
0.626658
0.626662
0.626666
0.626666
0.62667
0.626674
0.626678
0.626682
0.626682
0.626686
0.62669
0.626694
0.626698
0.626698
0.626702
0.626706
0.62671
0.626714
0.626714
0.626718
0.626722
0.626726
0.62673
0.62673
0.626734
0.626738
0.626742
0.626746
0.626746
0.62675
0.626755
0.626759
0.626763
0.626763
0.626767
0.626771
0.626775
0.626779
0.626779
0.626783
0.626787
0.626791
0.626795
0.626795
0.626799
0.626803
0.626808
0.626812
0.626812
0.626816
0.62682
0.626824
0.626828
0.626828
0.626832
0.626836
0.626841
0.626845
0.626845
0.626849
0.626853
0.626857
0.626861
0.626861
0.626865
0.626869
0.626874
0.626878
0.626878
0.626882
0.626886
0.62689
0.626894
0.626894
0.626899
0.626903
0.626907
0.626911
0.626911
0.626915
0.62692
0.626924
0.626928
0.626928
0.626932
0.626936
0.626941
0.626945
0.626945
0.626949
0.626953
0.626957
0.626962
0.626962
0.626966
0.62697
0.626974
0.626979
0.626979
0.626983
0.626987
0.626991
0.626995
0.626995
0.627
0.627004
0.627008
0.627012
0.627012
0.627017
0.627021
0.627025
0.62703
0.62703
0.627034
0.627038
0.627042
0.627047
0.627047
0.627051
0.627055
0.627059
0.627064
0.627064
0.627068
0.627072
0.627077
0.627081
0.627081
0.627085
0.627089
0.627094
0.627098
0.627098
0.627102
0.627107
0.627111
0.627115
0.627115
0.62712
0.627124
0.627128
0.627133
0.627133
0.627137
0.627142
0.627146
0.62715
0.62715
0.627155
0.627159
0.627164
0.627168
0.627168
0.627172
0.627177
0.627181
0.627186
0.627186
0.62719
0.627194
0.627199
0.627203
0.627203
0.627208
0.627212
0.627216
0.627221
0.627221
0.627225
0.62723
0.627234
0.627239
0.627239
0.627243
0.627247
0.627252
0.627256
0.627256
0.627261
0.627265
0.62727
0.627274
0.627274
0.627279
0.627283
0.627288
0.627292
0.627292
0.627296
0.627301
0.627305
0.62731
0.62731
0.627314
0.627319
0.627323
0.627328
0.627328
0.627332
0.627337
0.627341
0.627346
0.627346
0.62735
0.627355
0.627359
0.627364
0.627364
0.627368
0.627373
0.627378
0.627382
0.627382
0.627387
0.627391
0.627396
0.6274
0.6274
0.627405
0.627409
0.627414
0.627418
0.627418
0.627423
0.627428
0.627432
0.627437
0.627437
0.627441
0.627446
0.62745
0.627455
0.627455
0.62746
0.627464
0.627469
0.627473
0.627473
0.627478
0.627483
0.627487
0.627492
0.627492
0.627496
0.627501
0.627506
0.62751
0.62751
0.627515
0.627519
0.627524
0.627529
0.627529
0.627533
0.627538
0.627543
0.627547
0.627547
0.627552
0.627556
0.627561
0.627566
0.627566
0.62757
0.627575
0.62758
0.627584
0.627584
0.627589
0.627594
0.627599
0.627603
0.627603
0.627608
0.627613
0.627617
0.627622
0.627622
0.627627
0.627632
0.627636
0.627641
0.627641
0.627646
0.627651
0.627655
0.62766
0.62766
0.627665
0.62767
0.627674
0.627679
0.627679
0.627684
0.627689
0.627693
0.627698
0.627698
0.627703
0.627708
0.627712
0.627717
0.627717
0.627722
0.627727
0.627732
0.627736
0.627736
0.627741
0.627746
0.627751
0.627756
0.627756
0.62776
0.627765
0.62777
0.627775
0.627775
0.62778
0.627784
0.627789
0.627794
0.627794
0.627799
0.627804
0.627809
0.627813
0.627813
0.627818
0.627823
0.627828
0.627833
0.627833
0.627838
0.627842
0.627847
0.627852
0.627852
0.627857
0.627862
0.627867
0.627872
0.627872
0.627877
0.627881
0.627886
0.627891
0.627891
0.627896
0.627901
0.627906
0.627911
0.627911
0.627916
0.627921
0.627926
0.62793
0.62793
0.627935
0.62794
0.627945
0.62795
0.62795
0.627955
0.62796
0.627965
0.62797
0.62797
0.627975
0.62798
0.627985
0.62799
0.62799
0.627995
0.627999
0.628004
0.628009
0.628009
0.628014
0.628019
0.628024
0.628029
0.628029
0.628034
0.628039
0.628044
0.628049
0.628049
0.628054
0.628059
0.628064
0.628069
0.628069
0.628074
0.628079
0.628084
0.628089
0.628089
0.628094
0.628099
0.628104
0.62811
0.62811
0.628115
0.62812
0.628125
0.62813
0.62813
0.628135
0.62814
0.628145
0.62815
0.62815
0.628155
0.62816
0.628165
0.62817
0.62817
0.628175
0.628181
0.628186
0.628191
0.628191
0.628196
0.628201
0.628206
0.628211
0.628211
0.628216
0.628221
0.628227
0.628232
0.628232
0.628237
0.628242
0.628247
0.628252
0.628252
0.628257
0.628262
0.628268
0.628273
0.628273
0.628278
0.628283
0.628288
0.628293
0.628293
0.628298
0.628304
0.628309
0.628314
0.628314
0.628319
0.628324
0.62833
0.628335
0.628335
0.62834
0.628345
0.62835
0.628355
0.628355
0.628361
0.628366
0.628371
0.628376
0.628376
0.628381
0.628387
0.628392
0.628397
0.628397
0.628402
0.628408
0.628413
0.628418
0.628418
0.628423
0.628429
0.628434
0.628439
0.628439
0.628444
0.628449
0.628455
0.62846
0.62846
0.628465
0.62847
0.628476
0.628481
0.628481
0.628486
0.628492
0.628497
0.628502
0.628502
0.628507
0.628513
0.628518
0.628523
0.628523
0.628528
0.628534
0.628539
0.628544
0.628544
0.62855
0.628555
0.62856
0.628566
0.628566
0.628571
0.628576
0.628582
0.628587
0.628587
0.628593
0.628598
0.628603
0.628609
0.628609
0.628614
0.628619
0.628625
0.62863
0.62863
0.628636
0.628641
0.628646
0.628652
0.628652
0.628657
0.628663
0.628668
0.628673
0.628673
0.628679
0.628684
0.62869
0.628695
0.628695
0.6287
0.628706
0.628711
0.628717
0.628717
0.628722
0.628728
0.628733
0.628738
0.628738
0.628744
0.628749
0.628755
0.62876
0.62876
0.628766
0.628771
0.628777
0.628782
0.628782
0.628788
0.628793
0.628799
0.628804
0.628804
0.62881
0.628815
0.62882
0.628826
0.628826
0.628831
0.628837
0.628842
0.628848
0.628848
0.628853
0.628859
0.628865
0.62887
0.62887
0.628876
0.628881
0.628887
0.628892
0.628892
0.628898
0.628903
0.628909
0.628914
0.628914
0.62892
0.628925
0.628931
0.628936
0.628936
0.628942
0.628948
0.628953
0.628959
0.628959
0.628964
0.62897
0.628975
0.628981
0.628981
0.628986
0.628992
0.628998
0.629003
0.629003
0.629009
0.629014
0.62902
0.629025
0.629025
0.629031
0.629037
0.629042
0.629048
0.629048
0.629054
0.629059
0.629065
0.629071
0.629071
0.629076
0.629082
0.629088
0.629093
0.629093
0.629099
0.629105
0.62911
0.629116
0.629116
0.629122
0.629128
0.629133
0.629139
0.629139
0.629145
0.62915
0.629156
0.629162
0.629162
0.629167
0.629173
0.629179
0.629185
0.629185
0.62919
0.629196
0.629202
0.629207
0.629207
0.629213
0.629219
0.629225
0.62923
0.62923
0.629236
0.629242
0.629248
0.629253
0.629253
0.629259
0.629265
0.629271
0.629276
0.629276
0.629282
0.629288
0.629294
0.629299
0.629299
0.629305
0.629311
0.629317
0.629323
0.629323
0.629328
0.629334
0.62934
0.629346
0.629346
0.629352
0.629357
0.629363
0.629369
0.629369
0.629375
0.629381
0.629387
0.629392
0.629392
0.629398
0.629404
0.62941
0.629416
0.629416
0.629422
0.629427
0.629433
0.629439
0.629439
0.629445
0.629451
0.629457
0.629462
0.629462
0.629468
0.629474
0.62948
0.629486
0.629486
0.629492
0.629498
0.629503
0.629509
0.629509
0.629515
0.629521
0.629527
0.629533
0.629533
0.629539
0.629545
0.629551
0.629557
0.629557
0.629563
0.629569
0.629575
0.629581
0.629581
0.629587
0.629593
0.629599
0.629604
0.629604
0.62961
0.629616
0.629622
0.629628
0.629628
0.629634
0.62964
0.629646
0.629652
0.629652
0.629658
0.629664
0.62967
0.629676
0.629676
0.629682
0.629688
0.629694
0.6297
0.6297
0.629706
0.629712
0.629718
0.629724
0.629724
0.629731
0.629737
0.629743
0.629749
0.629749
0.629755
0.629761
0.629767
0.629773
0.629773
0.629779
0.629785
0.629791
0.629797
0.629797
0.629803
0.629809
0.629815
0.629821
0.629821
0.629827
0.629834
0.62984
0.629846
0.629846
0.629852
0.629858
0.629864
0.62987
0.62987
0.629876
0.629882
0.629888
0.629894
0.629894
0.629901
0.629907
0.629913
0.629919
0.629919
0.629925
0.629931
0.629937
0.629943
0.629943
0.62995
0.629956
0.629962
0.629968
0.629968
0.629974
0.62998
0.629986
0.629993
0.629993
0.629999
0.630005
0.630011
0.630017
0.630017
0.630023
0.63003
0.630036
0.630042
0.630042
0.630048
0.630055
0.630061
0.630067
0.630067
0.630073
0.63008
0.630086
0.630092
0.630092
0.630098
0.630105
0.630111
0.630117
0.630117
0.630123
0.63013
0.630136
0.630142
0.630142
0.630148
0.630155
0.630161
0.630167
0.630167
0.630174
0.63018
0.630186
0.630192
0.630192
0.630199
0.630205
0.630211
0.630218
0.630218
0.630224
0.63023
0.630237
0.630243
0.630243
0.630249
0.630255
0.630262
0.630268
0.630268
0.630274
0.630281
0.630287
0.630293
0.630293
0.6303
0.630306
0.630313
0.630319
0.630319
0.630325
0.630332
0.630338
0.630344
0.630344
0.630351
0.630357
0.630363
0.63037
0.63037
0.630376
0.630383
0.630389
0.630395
0.630395
0.630402
0.630408
0.630415
0.630421
0.630421
0.630427
0.630434
0.63044
0.630446
0.630446
0.630453
0.630459
0.630466
0.630472
0.630472
0.630479
0.630485
0.630491
0.630498
0.630498
0.630504
0.630511
0.630517
0.630524
0.630524
0.63053
0.630537
0.630543
0.63055
0.63055
0.630556
0.630563
0.630569
0.630576
0.630576
0.630582
0.630589
0.630595
0.630602
0.630602
0.630608
0.630615
0.630621
0.630628
0.630628
0.630635
0.630641
0.630648
0.630654
0.630654
0.630661
0.630667
0.630674
0.63068
0.63068
0.630687
0.630693
0.6307
0.630707
0.630707
0.630713
0.63072
0.630726
0.630733
0.630733
0.63074
0.630746
0.630753
0.630759
0.630759
0.630766
0.630772
0.630779
0.630786
0.630786
0.630792
0.630799
0.630806
0.630812
0.630812
0.630819
0.630825
0.630832
0.630839
0.630839
0.630845
0.630852
0.630859
0.630865
0.630865
0.630872
0.630879
0.630885
0.630892
0.630892
0.630898
0.630905
0.630912
0.630918
0.630918
0.630925
0.630932
0.630938
0.630945
0.630945
0.630952
0.630958
0.630965
0.630972
0.630972
0.630978
0.630985
0.630992
0.630998
0.630998
0.631005
0.631012
0.631019
0.631025
0.631025
0.631032
0.631039
0.631046
0.631052
0.631052
0.631059
0.631066
0.631073
0.63108
0.63108
0.631086
0.631093
0.6311
0.631107
0.631107
0.631114
0.63112
0.631127
0.631134
0.631134
0.631141
0.631148
0.631154
0.631161
0.631161
0.631168
0.631175
0.631182
0.631189
0.631189
0.631195
0.631202
0.631209
0.631216
0.631216
0.631223
0.63123
0.631236
0.631243
0.631243
0.63125
0.631257
0.631264
0.631271
0.631271
0.631278
0.631284
0.631291
0.631298
0.631298
0.631305
0.631312
0.631319
0.631326
0.631326
0.631333
0.63134
0.631346
0.631353
0.631353
0.63136
0.631367
0.631374
0.631381
0.631381
0.631388
0.631395
0.631402
0.631409
0.631409
0.631415
0.631422
0.631429
0.631436
0.631436
0.631443
0.63145
0.631457
0.631464
0.631464
0.631471
0.631478
0.631485
0.631492
0.631492
0.631499
0.631506
0.631513
0.63152
0.63152
0.631527
0.631534
0.631541
0.631548
0.631548
0.631555
0.631562
0.631569
0.631576
0.631576
0.631583
0.63159
0.631597
0.631604
0.631604
0.631611
0.631618
0.631625
0.631632
0.631632
0.631639
0.631646
0.631654
0.631661
0.631661
0.631668
0.631675
0.631682
0.631689
0.631689
0.631696
0.631703
0.63171
0.631717
0.631717
0.631724
0.631731
0.631739
0.631746
0.631746
0.631753
0.63176
0.631767
0.631774
0.631774
0.631781
0.631788
0.631796
0.631803
0.631803
0.63181
0.631817
0.631824
0.631831
0.631831
0.631838
0.631845
0.631853
0.63186
0.63186
0.631867
0.631874
0.631881
0.631888
0.631888
0.631896
0.631903
0.63191
0.631917
0.631917
0.631924
0.631931
0.631939
0.631946
0.631946
0.631953
0.63196
0.631967
0.631975
0.631975
0.631982
0.631989
0.631996
0.632003
0.632003
0.632011
0.632018
0.632025
0.632032
0.632032
0.63204
0.632047
0.632054
0.632061
0.632061
0.632069
0.632076
0.632083
0.632091
0.632091
0.632098
0.632105
0.632113
0.63212
0.63212
0.632127
0.632135
0.632142
0.632149
0.632149
0.632156
0.632164
0.632171
0.632178
0.632178
0.632186
0.632193
0.6322
0.632208
0.632208
0.632215
0.632223
0.63223
0.632237
0.632237
0.632245
0.632252
0.632259
0.632267
0.632267
0.632274
0.632281
0.632289
0.632296
0.632296
0.632304
0.632311
0.632318
0.632326
0.632326
0.632333
0.63234
0.632348
0.632355
0.632355
0.632363
0.63237
0.632377
0.632385
0.632385
0.632392
0.6324
0.632407
0.632415
0.632415
0.632422
0.632429
0.632437
0.632444
0.632444
0.632452
0.632459
0.632467
0.632474
0.632474
0.632481
0.632489
0.632496
0.632504
0.632504
0.632511
0.632519
0.632526
0.632534
0.632534
0.632541
0.632549
0.632556
0.632564
0.632564
0.632571
0.632579
0.632586
0.632594
0.632594
0.632601
0.632609
0.632617
0.632624
0.632624
0.632632
0.632639
0.632647
0.632654
0.632654
0.632662
0.63267
0.632677
0.632685
0.632685
0.632692
0.6327
0.632708
0.632715
0.632715
0.632723
0.63273
0.632738
0.632746
0.632746
0.632753
0.632761
0.632768
0.632776
0.632776
0.632784
0.632791
0.632799
0.632806
0.632806
0.632814
0.632822
0.632829
0.632837
0.632837
0.632845
0.632852
0.63286
0.632868
0.632868
0.632875
0.632883
0.63289
0.632898
0.632898
0.632906
0.632913
0.632921
0.632929
0.632929
0.632936
0.632944
0.632952
0.632959
0.632959
0.632967
0.632975
0.632983
0.63299
0.63299
0.632998
0.633006
0.633013
0.633021
0.633021
0.633029
0.633036
0.633044
0.633052
0.633052
0.63306
0.633067
0.633075
0.633083
0.633083
0.633091
0.633099
0.633106
0.633114
0.633114
0.633122
0.63313
0.633138
0.633145
0.633145
0.633153
0.633161
0.633169
0.633177
0.633177
0.633185
0.633192
0.6332
0.633208
0.633208
0.633216
0.633224
0.633232
0.633239
0.633239
0.633247
0.633255
0.633263
0.633271
0.633271
0.633279
0.633286
0.633294
0.633302
0.633302
0.63331
0.633318
0.633326
0.633334
0.633334
0.633342
0.633349
0.633357
0.633365
0.633365
0.633373
0.633381
0.633389
0.633397
0.633397
0.633405
0.633413
0.63342
0.633428
0.633428
0.633436
0.633444
0.633452
0.63346
0.63346
0.633468
0.633476
0.633484
0.633492
0.633492
0.6335
0.633508
0.633515
0.633523
0.633523
0.633531
0.633539
0.633547
0.633555
0.633555
0.633563
0.633571
0.633579
0.633587
0.633587
0.633595
0.633603
0.633611
0.633619
0.633619
0.633627
0.633635
0.633644
0.633652
0.633652
0.63366
0.633668
0.633676
0.633684
0.633684
0.633692
0.6337
0.633708
0.633716
0.633716
0.633724
0.633732
0.63374
0.633748
0.633748
0.633757
0.633765
0.633773
0.633781
0.633781
0.633789
0.633797
0.633805
0.633813
0.633813
0.633821
0.633829
0.633837
0.633846
0.633846
0.633854
0.633862
0.63387
0.633878
0.633878
0.633886
0.633894
0.633902
0.633911
0.633911
0.633919
0.633927
0.633935
0.633943
0.633943
0.633951
0.633959
0.633968
0.633976
0.633976
0.633984
0.633992
0.634
0.634008
0.634008
0.634017
0.634025
0.634033
0.634041
0.634041
0.634049
0.634057
0.634066
0.634074
0.634074
0.634082
0.63409
0.634099
0.634107
0.634107
0.634115
0.634123
0.634132
0.63414
0.63414
0.634148
0.634157
0.634165
0.634173
0.634173
0.634181
0.63419
0.634198
0.634206
0.634206
0.634215
0.634223
0.634231
0.63424
0.63424
0.634248
0.634256
0.634265
0.634273
0.634273
0.634281
0.63429
0.634298
0.634306
0.634306
0.634315
0.634323
0.634331
0.63434
0.63434
0.634348
0.634356
0.634365
0.634373
0.634373
0.634381
0.63439
0.634398
0.634406
0.634406
0.634415
0.634423
0.634431
0.63444
0.63444
0.634448
0.634457
0.634465
0.634473
0.634473
0.634482
0.63449
0.634499
0.634507
0.634507
0.634515
0.634524
0.634532
0.63454
0.63454
0.634549
0.634557
0.634566
0.634574
0.634574
0.634583
0.634591
0.634599
0.634608
0.634608
0.634616
0.634625
0.634634
0.634642
0.634642
0.634651
0.634659
0.634668
0.634676
0.634676
0.634685
0.634693
0.634702
0.63471
0.63471
0.634719
0.634727
0.634736
0.634744
0.634744
0.634753
0.634762
0.63477
0.634779
0.634779
0.634787
0.634796
0.634804
0.634813
0.634813
0.634821
0.63483
0.634839
0.634847
0.634847
0.634856
0.634864
0.634873
0.634881
0.634881
0.63489
0.634899
0.634907
0.634916
0.634916
0.634924
0.634933
0.634942
0.63495
0.63495
0.634959
0.634967
0.634976
0.634985
0.634985
0.634993
0.635002
0.635011
0.635019
0.635019
0.635028
0.635036
0.635045
0.635054
0.635054
0.635062
0.635071
0.63508
0.635088
0.635088
0.635097
0.635106
0.635114
0.635123
0.635123
0.635132
0.63514
0.635149
0.635158
0.635158
0.635167
0.635175
0.635184
0.635193
0.635193
0.635202
0.635211
0.635219
0.635228
0.635228
0.635237
0.635246
0.635254
0.635263
0.635263
0.635272
0.635281
0.635289
0.635298
0.635298
0.635307
0.635316
0.635325
0.635333
0.635333
0.635342
0.635351
0.63536
0.635369
0.635369
0.635377
0.635386
0.635395
0.635404
0.635404
0.635413
0.635422
0.63543
0.635439
0.635439
0.635448
0.635457
0.635466
0.635475
0.635475
0.635483
0.635492
0.635501
0.63551
0.63551
0.635519
0.635528
0.635536
0.635545
0.635545
0.635554
0.635563
0.635572
0.635581
0.635581
0.63559
0.635598
0.635607
0.635616
0.635616
0.635625
0.635634
0.635643
0.635652