<?xml version="1.0"?>
<VTKFile type="UnstructuredGrid" version="0.1" byte_order="LittleEndian">
<UnstructuredGrid>
<Piece NumberOfPoints="5000" NumberOfCells="4000">
<PointData Scalars="Reaction 0">
<DataArray type="Float32" Name="Reaction 0" format="ascii">
0.484639
0.484639
0.484639
0.484639
0.484639
0.484639
0.48464
0.48464
0.48464
0.48464
0.48464
0.484641
0.484641
0.484641
0.484642
0.484642
0.484642
0.484642
0.484643
0.484643
0.484643
0.484644
0.484645
0.484645
0.484646
0.484646
0.484646
0.484647
0.484648
0.484649
0.484649
0.484649
0.48465
0.484651
0.484652
0.484652
0.484653
0.484654
0.484655
0.484656
0.484656
0.484657
0.484658
0.484659
0.484661
0.484661
0.484662
0.484663
0.484664
0.484666
0.484666
0.484667
0.484668
0.48467
0.484671
0.484671
0.484673
0.484674
0.484676
0.484677
0.484677
0.484679
0.48468
0.484682
0.484684
0.484684
0.484686
0.484687
0.484689
0.484691
0.484691
0.484693
0.484695
0.484697
0.484699
0.484699
0.484701
0.484703
0.484705
0.484707
0.484707
0.484709
0.484711
0.484713
0.484715
0.484715
0.484718
0.48472
0.484722
0.484725
0.484725
0.484727
0.48473
0.484732
0.484734
0.484734
0.484737
0.48474
0.484742
0.484745
0.484745
0.484747
0.48475
0.484753
0.484756
0.484756
0.484758
0.484761
0.484764
0.484767
0.484767
0.48477
0.484773
0.484776
0.484779
0.484779
0.484782
0.484785
0.484788
0.484791
0.484791
0.484794
0.484798
0.484801
0.484804
0.484804
0.484808
0.484811
0.484814
0.484818
0.484818
0.484821
0.484825
0.484828
0.484832
0.484832
0.484835
0.484839
0.484843
0.484846
0.484846
0.48485
0.484854
0.484857
0.484861
0.484861
0.484865
0.484869
0.484873
0.484877
0.484877
0.484881
0.484885
0.484889
0.484893
0.484893
0.484897
0.484901
0.484905
0.48491
0.48491
0.484914
0.484918
0.484922
0.484927
0.484927
0.484931
0.484936
0.48494
0.484944
0.484944
0.484949
0.484953
0.484958
0.484963
0.484963
0.484967
0.484972
0.484977
0.484981
0.484981
0.484986
0.484991
0.484996
0.485001
0.485001
0.485006
0.485011
0.485015
0.48502
0.48502
0.485026
0.485031
0.485036
0.485041
0.485041
0.485046
0.485051
0.485056
0.485062
0.485062
0.485067
0.485072
0.485078
0.485083
0.485083
0.485089
0.485094
0.485099
0.485105
0.485105
0.485111
0.485116
0.485122
0.485127
0.485127
0.485133
0.485139
0.485145
0.48515
0.48515
0.485156
0.485162
0.485168
0.485174
0.485174
0.48518
0.485186
0.485192
0.485198
0.485198
0.485204
0.48521
0.485216
0.485223
0.485223
0.485229
0.485235
0.485241
0.485248
0.485248
0.485254
0.48526
0.485267
0.485273
0.485273
0.48528
0.485286
0.485293
0.485299
0.485299
0.485306
0.485313
0.485319
0.485326
0.485326
0.485333
0.48534
0.485347
0.485353
0.485353
0.48536
0.485367
0.485374
0.485381
0.485381
0.485388
0.485395
0.485402
0.485409
0.485409
0.485417
0.485424
0.485431
0.485438
0.485438
0.485445
0.485453
0.48546
0.485468
0.485468
0.485475
0.485482
0.48549
0.485497
0.485497
0.485505
0.485513
0.48552
0.485528
0.485528
0.485535
0.485543
0.485551
0.485559
0.485559
0.485567
0.485574
0.485582
0.48559
0.48559
0.485598
0.485606
0.485614
0.485622
0.485622
0.48563
0.485638
0.485646
0.485655
0.485655
0.485663
0.485671
0.485679
0.485688
0.485688
0.485696
0.485704
0.485713
0.485721
0.485721
0.48573
0.485738
0.485747
0.485755
0.485755
0.485764
0.485773
0.485781
0.48579
0.48579
0.485799
0.485808
0.485816
0.485825
0.485825
0.485834
0.485843
0.485852
0.485861
0.485861
0.48587
0.485879
0.485888
0.485897
0.485897
0.485906
0.485915
0.485925
0.485934
0.485934
0.485943
0.485952
0.485962
0.485971
0.485971
0.485981
0.48599
0.485999
0.486009
0.486009
0.486018
0.486028
0.486038
0.486047
0.486047
0.486057
0.486067
0.486076
0.486086
0.486086
0.486096
0.486106
0.486116
0.486126
0.486126
0.486136
0.486145
0.486155
0.486166
0.486166
0.486176
0.486186
0.486196
0.486206
0.486206
0.486216
0.486226
0.486237
0.486247
0.486247
0.486257
0.486268
0.486278
0.486289
0.486289
0.486299
0.486309
0.48632
0.486331
0.486331
0.486341
0.486352
0.486362
0.486373
0.486373
0.486384
0.486395
0.486405
0.486416
0.486416
0.486427
0.486438
0.486449
0.48646
0.48646
0.486471
0.486482
0.486493
0.486504
0.486504
0.486515
0.486526
0.486538
0.486549
0.486549
0.48656
0.486571
0.486583
0.486594
0.486594
0.486606
0.486617
0.486628
0.48664
0.48664
0.486651
0.486663
0.486675
0.486686
0.486686
0.486698
0.48671
0.486721
0.486733
0.486733
0.486745
0.486757
0.486769
0.48678
0.48678
0.486792
0.486804
0.486816
0.486828
0.486828
0.48684
0.486853
0.486865
0.486877
0.486877
0.486889
0.486901
0.486914
0.486926
0.486926
0.486938
0.48695
0.486963
0.486975
0.486975
0.486988
0.487
0.487013
0.487025
0.487025
0.487038
0.487051
0.487063
0.487076
0.487076
0.487089
0.487101
0.487114
0.487127
0.487127
0.48714
0.487153
0.487166
0.487179
0.487179
0.487192
0.487205
0.487218
0.487231
0.487231
0.487244
0.487257
0.48727
0.487284
0.487284
0.487297
0.48731
0.487323
0.487337
0.487337
0.48735
0.487364
0.487377
0.487391
0.487391
0.487404
0.487418
0.487431
0.487445
0.487445
0.487459
0.487472
0.487486
0.4875
0.4875
0.487514
0.487527
0.487541
0.487555
0.487555
0.487569
0.487583
0.487597
0.487611
0.487611
0.487625
0.487639
0.487653
0.487667
0.487667
0.487682
0.487696
0.48771
0.487724
0.487724
0.487739
0.487753
0.487768
0.487782
0.487782
0.487796
0.487811
0.487825
0.48784
0.48784
0.487855
0.487869
0.487884
0.487899
0.487899
0.487913
0.487928
0.487943
0.487958
0.487958
0.487973
0.487987
0.488002
0.488017
0.488017
0.488032
0.488047
0.488062
0.488078
0.488078
0.488093
0.488108
0.488123
0.488138
0.488138
0.488153
0.488169
0.488184
0.488199
0.488199
0.488215
0.48823
0.488246
0.488261
0.488261
0.488277
0.488292
0.488308
0.488324
0.488324
0.488339
0.488355
0.488371
0.488386
0.488386
0.488402
0.488418
0.488434
0.48845
0.48845
0.488466
0.488482
0.488498
0.488514
0.488514
0.48853
0.488546
0.488562
0.488578
0.488578
0.488594
0.488611
0.488627
0.488643
0.488643
0.48866
0.488676
0.488692
0.488709
0.488709
0.488725
0.488742
0.488758
0.488775
0.488775
0.488791
0.488808
0.488825
0.488841
0.488841
0.488858
0.488875
0.488892
0.488909
0.488909
0.488925
0.488942
0.488959
0.488976
0.488976
0.488993
0.48901
0.489027
0.489044
0.489044
0.489062
0.489079
0.489096
0.489113
0.489113
0.489131
0.489148
0.489165
0.489183
0.489183
0.4892
0.489217
0.489235
0.489252
0.489252
0.48927
0.489287
0.489305
0.489323
0.489323
0.48934
0.489358
0.489376
0.489394
0.489394
0.489411
0.489429
0.489447
0.489465
0.489465
0.489483
0.489501
0.489519
0.489537
0.489537
0.489555
0.489573
0.489591
0.48961
0.48961
0.489628
0.489646
0.489664
0.489683
0.489683
0.489701
0.489719
0.489738
0.489756
0.489756
0.489775
0.489793
0.489812
0.48983
0.48983
0.489849
0.489868
0.489886
0.489905
0.489905
0.489924
0.489943
0.489961
0.48998
0.48998
0.489999
0.490018
0.490037
0.490056
0.490056
0.490075
0.490094
0.490113
0.490132
0.490132
0.490151
0.490171
0.49019
0.490209
0.490209
0.490228
0.490248
0.490267
0.490286
0.490286
0.490306
0.490325
0.490345
0.490364
0.490364
0.490384
0.490403
0.490423
0.490443
0.490443
0.490462
0.490482
0.490502
0.490522
0.490522
0.490542
0.490561
0.490581
0.490601
0.490601
0.490621
0.490641
0.490661
0.490681
0.490681
0.490701
0.490722
0.490742
0.490762
0.490762
0.490782
0.490802
0.490823
0.490843
0.490843
0.490863
0.490884
0.490904
0.490925
0.490925
0.490945
0.490966
0.490986
0.491007
0.491007
0.491028
0.491048
0.491069
0.49109
0.49109
0.491111
0.491131
0.491152
0.491173
0.491173
0.491194
0.491215
0.491236
0.491257
0.491257
0.491278
0.491299
0.49132
0.491341
0.491341
0.491362
0.491384
0.491405
0.491426
0.491426
0.491447
0.491469
0.49149
0.491512
0.491512
0.491533
0.491555
0.491576
0.491598
0.491598
0.491619
0.491641
0.491663
0.491684
0.491684
0.491706
0.491728
0.491749
0.491771
0.491771
0.491793
0.491815
0.491837
0.491859
0.491859
0.491881
0.491903
0.491925
0.491947
0.491947
0.491969
0.491991
0.492014
0.492036
0.492036
0.492058
0.49208
0.492103
0.492125
0.492125
0.492147
0.49217
0.492192
0.492215
0.492215
0.492237
0.49226
0.492283
0.492305
0.492305
0.492328
0.492351
0.492373
0.492396
0.492396
0.492419
0.492442
0.492465
0.492488
0.492488
0.492511
0.492533
0.492557
0.49258
0.49258
0.492603
0.492626
0.492649
0.492672
0.492672
0.492695
0.492719
0.492742
0.492765
0.492765
0.492788
0.492812
0.492835
0.492859
0.492859
0.492882
0.492906
0.492929
0.492953
0.492953
0.492977
0.493
0.493024
0.493048
0.493048
0.493071
0.493095
0.493119
0.493143
0.493143
0.493167
0.493191
0.493215
0.493239
0.493239
0.493263
0.493287
0.493311
0.493335
0.493335
0.493359
0.493383
0.493408
0.493432
0.493432
0.493456
0.493481
0.493505
0.493529
0.493529
0.493554
0.493578
0.493603
0.493627
0.493627
0.493652
0.493676
0.493701
0.493726
0.493726
0.49375
0.493775
0.4938
0.493825
0.493825
0.49385
0.493875
0.493899
0.493924
0.493924
0.493949
0.493974
0.494
0.494025
0.494025
0.49405
0.494075
0.4941
0.494125
0.494125
0.494151
0.494176
0.494201
0.494227
0.494227
0.494252
0.494277
0.494303
0.494328
0.494328
0.494354
0.494379
0.494405
0.494431
0.494431
0.494456
0.494482
0.494508
0.494534
0.494534
0.494559
0.494585
0.494611
0.494637
0.494637
0.494663
0.494689
0.494715
0.494741
0.494741
0.494767
0.494793
0.494819
0.494846
0.494846
0.494872
0.494898
0.494924
0.494951
0.494951
0.494977
0.495003
0.49503
0.495056
0.495056
0.495083
0.495109
0.495136
0.495162
0.495162
0.495189
0.495216
0.495242
0.495269
0.495269
0.495296
0.495323
0.49535
0.495376
0.495376
0.495403
0.49543
0.495457
0.495484
0.495484
0.495511
0.495538
0.495566
0.495593
0.495593
0.49562
0.495647
0.495674
0.495702
0.495702
0.495729
0.495756
0.495784
0.495811
0.495811
0.495839
0.495866
0.495894
0.495921
0.495921
0.495949
0.495976
0.496004
0.496032
0.496032
0.496059
0.496087
0.496115
0.496143
0.496143
0.496171
0.496199
0.496227
0.496255
0.496255
0.496283
0.496311
0.496339
0.496367
0.496367
0.496395
0.496423
0.496451
0.49648
0.49648
0.496508
0.496536
0.496565
0.496593
0.496593
0.496621
0.49665
0.496678
0.496707
0.496707
0.496735
0.496764
0.496793
0.496821
0.496821
0.49685
0.496879
0.496907
0.496936
0.496936
0.496965
0.496994
0.497023
0.497052
0.497052
0.497081
0.49711
0.497139
0.497168
0.497168
0.497197
0.497226
0.497255
0.497285
0.497285
0.497314
0.497343
0.497372
0.497402
0.497402
0.497431
0.497461
0.49749
0.49752
0.49752
0.497549
0.497579
0.497608
0.497638
0.497638
0.497668
0.497697
0.497727
0.497757
0.497757
0.497787
0.497816
0.497846
0.497876
0.497876
0.497906
0.497936
0.497966
0.497996
0.497996
0.498026
0.498056
0.498087
0.498117
0.498117
0.498147
0.498177
0.498207
0.498238
0.498238
0.498268
0.498299
0.498329
0.498359
0.498359
0.49839
0.49842
0.498451
0.498482
0.498482
0.498512
0.498543
0.498574
0.498604
0.498604
0.498635
0.498666
0.498697
0.498728
0.498728
0.498759
0.49879
0.498821
0.498852
0.498852
0.498883
0.498914
0.498945
0.498976
0.498976
0.499007
0.499038
0.49907
0.499101
0.499101
0.499132
0.499164
0.499195
0.499227
0.499227
0.499258
0.49929
0.499321
0.499353
0.499353
0.499384
0.499416
0.499448
0.499479
0.499479
0.499511
0.499543
0.499575
0.499607
0.499607
0.499638
0.49967
0.499702
0.499734
0.499734
0.499766
0.499798
0.499831
0.499863
0.499863
0.499895
0.499927
0.499959
0.499992
0.499992
0.500024
0.500056
0.500089
0.500121
0.500121
0.500153
0.500186
0.500218
0.500251
0.500251
0.500284
0.500316
0.500349
0.500382
0.500382
0.500414
0.500447
0.50048
0.500513
0.500513
0.500546
0.500579
0.500611
0.500644
0.500644
0.500677
0.50071
0.500744
0.500777
0.500777
0.50081
0.500843
0.500876
0.50091
0.50091
0.500943
0.500976
0.501009
0.501043
0.501043
0.501076
0.50111
0.501143
0.501177
0.501177
0.50121
0.501244
0.501278
0.501311
0.501311
0.501345
0.501379
0.501413
0.501446
0.501446
0.50148
0.501514
0.501548
0.501582
0.501582
0.501616
0.50165
0.501684
0.501718
0.501718
0.501752
0.501787
0.501821
0.501855
0.501855
0.501889
0.501924
0.501958
0.501992
0.501992
0.502027
0.502061
0.502096
0.50213
0.50213
0.502165
0.502199
0.502234
0.502269
0.502269
0.502303
0.502338
0.502373
0.502408
0.502408
0.502442
0.502477
0.502512
0.502547
0.502547
0.502582
0.502617
0.502652
0.502687
0.502687
0.502722
0.502758
0.502793
0.502828
0.502828
0.502863
0.502899
0.502934
0.502969
0.502969
0.503005
0.50304
0.503076
0.503111
0.503111
0.503147
0.503182
0.503218
0.503254
0.503254
0.503289
0.503325
0.503361
0.503396
0.503396
0.503432
0.503468
0.503504
0.50354
0.50354
0.503576
0.503612
0.503648
0.503684
0.503684
0.50372
0.503756
0.503793
0.503829
0.503829
0.503865
0.503901
0.503938
0.503974
0.503974
0.50401
0.504047
0.504083
0.50412
0.50412
0.504156
0.504193
0.50423
0.504266
0.504266
0.504303
0.50434
0.504376
0.504413
0.504413
0.50445
0.504487
0.504524
0.504561
0.504561
0.504598
0.504635
0.504672
0.504709
0.504709
0.504746
0.504783
0.50482
0.504857
0.504857
0.504895
0.504932
0.504969
0.505007
0.505007
0.505044
0.505081
0.505119
0.505156
0.505156
0.505194
0.505231
0.505269
0.505307
0.505307
0.505344
0.505382
0.50542
0.505458
0.505458
0.505495
0.505533
0.505571
0.505609
0.505609
0.505647
0.505685
0.505723
0.505761
0.505761
0.505799
0.505837
0.505876
0.505914
0.505914
0.505952
0.50599
0.506029
0.506067
0.506067
0.506105
0.506144
0.506182
0.506221
0.506221
0.506259
0.506298
0.506337
0.506375
0.506375
0.506414
0.506453
0.506491
0.50653
0.50653
0.506569
0.506608
0.506647
0.506686
0.506686
0.506725
0.506764
0.506803
0.506842
0.506842
0.506881
0.50692
0.506959
0.506998
0.506998
0.507038
0.507077
0.507116
0.507156
0.507156
0.507195
0.507234
0.507274
0.507313
0.507313
0.507353
0.507392
0.507432
0.507472
0.507472
0.507511
0.507551
0.507591
0.507631
0.507631
0.507671
0.50771
0.50775
0.50779
0.50779
0.50783
0.50787
0.50791
0.50795
0.50795
0.50799
0.508031
0.508071
0.508111
0.508111
0.508151
0.508192
0.508232
0.508272
0.508272
0.508313
0.508353
0.508394
0.508434
0.508434
0.508475
0.508515
0.508556
0.508597
0.508597
0.508637
0.508678
0.508719
0.50876
0.50876
0.5088
0.508841
0.508882
0.508923
0.508923
0.508964
0.509005
0.509046
0.509087
0.509087
0.509128
0.50917
0.509211
0.509252
0.509252
0.509293
0.509335
0.509376
0.509417
0.509417
0.509459
0.5095
0.509542
0.509583
0.509583
0.509625
0.509666
0.509708
0.50975
0.50975
0.509791
0.509833
0.509875
0.509917
0.509917
0.509959
0.51
0.510042
0.510084
0.510084
0.510126
0.510168
0.51021
0.510253
0.510253
0.510295
0.510337
0.510379
0.510421
0.510421
0.510464
0.510506
0.510548
0.510591
0.510591
0.510633
0.510676
0.510718
0.510761
0.510761
0.510803
0.510846
0.510888
0.510931
0.510931
0.510974
0.511017
0.511059
0.511102
0.511102
0.511145
0.511188
0.511231
0.511274
0.511274
0.511317
0.51136
0.511403
0.511446
0.511446
0.511489
0.511533
0.511576
0.511619
0.511619
0.511662
0.511706
0.511749
0.511793
0.511793
0.511836
0.51188
0.511923
0.511967
0.511967
0.51201
0.512054
0.512098
0.512141
0.512141
0.512185
0.512229
0.512273
0.512317
0.512317
0.51236
0.512404
0.512448
0.512492
0.512492
0.512536
0.51258
0.512625
0.512669
0.512669
0.512713
0.512757
0.512801
0.512846
0.512846
0.51289
0.512934
0.512979
0.513023
0.513023
0.513068
0.513112
0.513157
0.513201
0.513201
0.513246
0.513291
0.513335
0.51338
0.51338
0.513425
0.51347
0.513515
0.513559
0.513559
0.513604
0.513649
0.513694
0.513739
0.513739
0.513784
0.51383
0.513875
0.51392
0.51392
0.513965
0.51401
0.514056
0.514101
0.514101
0.514146
0.514192
0.514237
0.514283
0.514283
0.514328
0.514374
0.514419
0.514465
0.514465
0.514511
0.514556
0.514602
0.514648
0.514648
0.514694
0.514739
0.514785
0.514831
0.514831
0.514877
0.514923
0.514969
0.515015
0.515015
0.515061
0.515108
0.515154
0.5152
0.5152
0.515246
0.515293
0.515339
0.515385
0.515385
0.515432
0.515478
0.515525
0.515571
0.515571
0.515618
0.515664
0.515711
0.515757
0.515757
0.515804
0.515851
0.515898
0.515945
0.515945
0.515991
0.516038
0.516085
0.516132
0.516132
0.516179
0.516226
0.516273
0.51632
0.51632
0.516367
0.516415
0.516462
0.516509
0.516509
0.516556
0.516604
0.516651
0.516699
0.516699
0.516746
0.516793
0.516841
0.516889
0.516889
0.516936
0.516984
0.517031
0.517079
0.517079
0.517127
0.517175
0.517222
0.51727
0.51727
0.517318
0.517366
0.517414
0.517462
0.517462
0.51751
0.517558
0.517606
0.517655
0.517655
0.517703
0.517751
0.517799
0.517848
0.517848
0.517896
0.517944
0.517993
0.518041
0.518041
0.51809
0.518138
0.518187
0.518235
0.518235
0.518284
0.518333
0.518381
0.51843
0.51843
0.518479
0.518528
0.518577
0.518625
0.518625
0.518674
0.518723
0.518772
0.518821
0.518821
0.518871
0.51892
0.518969
0.519018
0.519018
0.519067
0.519117
0.519166
0.519215
0.519215
0.519265
0.519314
0.519364
0.519413
0.519413
0.519463
0.519512
0.519562
0.519611
0.519611
0.519661
0.519711
0.519761
0.51981
0.51981
0.51986
0.51991
0.51996
0.52001
0.52001
0.52006
0.52011
0.52016
0.52021
0.52021
0.52026
0.520311
0.520361
0.520411
0.520411
0.520461
0.520512
0.520562
0.520612
0.520612
0.520663
0.520713
0.520764
0.520814
0.520814
0.520865
0.520916
0.520966
0.521017
0.521017
0.521068
0.521119
0.521169
0.52122
0.52122
0.521271
0.521322
0.521373
0.521424
0.521424
0.521475
0.521526
0.521577
0.521629
0.521629
0.52168
0.521731
0.521782
0.521834
0.521834
0.521885
0.521936
0.521988
0.522039
0.522039
0.522091
0.522142
0.522194
0.522246
0.522246
0.522297
0.522349
0.522401
0.522453
0.522453
0.522504
0.522556
0.522608
0.52266
0.52266
0.522712
0.522764
0.522816
0.522868
0.522868
0.52292
0.522972
0.523025
0.523077
0.523077
0.523129
0.523181
0.523234
0.523286
0.523286
0.523339
0.523391
0.523444
0.523496
0.523496
0.523549
0.523601
0.523654
0.523707
0.523707
0.523759
0.523812
0.523865
0.523918
0.523918
0.523971
0.524024
0.524077
0.52413
0.52413
0.524183
0.524236
0.524289
0.524342
0.524342
0.524395
0.524448
0.524502
0.524555
0.524555
0.524608
0.524662
0.524715
0.524769
0.524769
0.524822
0.524876
0.524929
0.524983
0.524983
0.525037
0.52509
0.525144
0.525198
0.525198
0.525252
0.525305
0.525359
0.525413
0.525413
0.525467
0.525521
0.525575
0.525629
0.525629
0.525683
0.525738
0.525792
0.525846
0.525846
0.5259
0.525955
0.526009
0.526063
0.526063
0.526118
0.526172
0.526227
0.526281
0.526281
0.526336
0.52639
0.526445
0.5265
0.5265
0.526555
0.526609
0.526664
0.526719
0.526719
0.526774
0.526829
0.526884
0.526939
0.526939
0.526994
0.527049
0.527104
0.527159
0.527159
0.527214
0.52727
0.527325
0.52738
0.52738
0.527436
0.527491
0.527546
0.527602
0.527602
0.527657
0.527713
0.527769
0.527824
0.527824
0.52788
0.527936
0.527991
0.528047
0.528047
0.528103
0.528159
0.528215
0.528271
0.528271
0.528327
0.528383
0.528439
0.528495
0.528495
0.528551
0.528607
0.528663
0.52872
0.52872
0.528776
0.528832
0.528889
0.528945
0.528945
0.529001
0.529058
0.529114
0.529171
0.529171
0.529228
0.529284
0.529341
0.529398
0.529398
0.529454
0.529511
0.529568
0.529625
0.529625
0.529682
0.529739
0.529796
0.529853
0.529853
0.52991
0.529967
0.530024
0.530081
0.530081
0.530139
0.530196
0.530253
0.530311
0.530311
0.530368
0.530425
0.530483
0.53054
0.53054
0.530598
0.530656
0.530713
0.530771
0.530771
0.530829
0.530886
0.530944
0.531002
0.531002
0.53106
0.531118
0.531176
0.531234
0.531234
0.531292
0.53135
0.531408
0.531466
0.531466
0.531524
0.531582
0.531641
0.531699
0.531699
0.531757
0.531816
0.531874
0.531932
0.531932
0.531991
0.532049
0.532108
0.532167
0.532167
0.532225
0.532284
0.532343
0.532402
0.532402
0.53246
0.532519
0.532578
0.532637
0.532637
0.532696
0.532755
0.532814
0.532873
0.532873
0.532932
0.532991
0.533051
0.53311
0.53311
0.533169
0.533229
0.533288
0.533347
0.533347
0.533407
0.533466
0.533526
0.533585
0.533585
0.533645
0.533705
0.533764
0.533824
0.533824
0.533884
0.533944
0.534003
0.534063
0.534063
0.534123
0.534183
0.534243
0.534303
0.534303
0.534363
0.534423
0.534484
0.534544
0.534544
0.534604
0.534664
0.534725
0.534785
0.534785
0.534845
0.534906
0.534966
0.535027
0.535027
0.535087
0.535148
0.535209
0.535269
0.535269
0.53533
0.535391
0.535452
0.535513
0.535513
0.535573
0.535634
0.535695
0.535756
0.535756
0.535817
0.535878
0.53594
0.536001
0.536001
0.536062
0.536123
0.536185
0.536246
0.536246
0.536307
0.536369
0.53643
0.536492
0.536492
0.536553
0.536615
0.536676
0.536738
0.536738
0.5368
0.536861
0.536923
0.536985
0.536985
0.537047
0.537109
0.537171
0.537233
0.537233
0.537295
0.537357
0.537419
0.537481
0.537481
0.537543
0.537605
0.537668
0.53773
0.53773
0.537792
0.537855
0.537917
0.537979
0.537979
0.538042
0.538104
0.538167
0.53823
0.53823
0.538292
0.538355
0.538418
0.538481
0.538481
0.538543
0.538606
0.538669
0.538732
0.538732
0.538795
0.538858
0.538921
0.538984
0.538984
0.539047
0.539111
0.539174
0.539237
0.539237
0.5393
0.539364
0.539427
0.539491
0.539491
0.539554
0.539618
0.539681
0.539745
0.539745
0.539808
0.539872
0.539936
0.54
0.54
0.540063
0.540127
0.540191
0.540255
0.540255
0.540319
0.540383
0.540447
0.540511
0.540511
0.540575
0.540639
0.540704
0.540768
0.540768
0.540832
0.540897
0.540961
0.541025
0.541025
0.54109
0.541154
0.541219
0.541283
0.541283
0.541348
0.541413
0.541477
0.541542
0.541542
0.541607
0.541672
0.541737
0.541802
0.541802
0.541866
0.541931
0.541997
0.542062
0.542062
0.542127
0.542192
0.542257
0.542322
0.542322
0.542388
0.542453
0.542518
0.542584
0.542584
0.542649
0.542715
0.54278
0.542846
0.542846
0.542911
0.542977
0.543043
0.543108
0.543108
0.543174
0.54324
0.543306
0.543372
0.543372
0.543438
0.543504
0.54357
0.543636
0.543636
0.543702
0.543768
0.543834
0.5439
0.5439
0.543967
0.544033
0.544099
0.544166
0.544166
0.544232
0.544299
0.544365
0.544432
0.544432
0.544498
0.544565
0.544632
0.544698
0.544698
0.544765
0.544832
0.544899
0.544966
0.544966
0.545033
0.5451
0.545167
0.545234
0.545234
0.545301
0.545368
0.545435
0.545502
0.545502
0.54557
0.545637
0.545704
0.545772
0.545772
0.545839
0.545907
0.545974
0.546042
0.546042
0.546109
0.546177
0.546245
0.546312
0.546312
0.54638
0.546448
0.546516
0.546584
0.546584
0.546652
0.54672
0.546788
0.546856
0.546856
0.546924
0.546992
0.54706
0.547129
0.547129
0.547197
0.547265
0.547334
0.547402
0.547402
0.54747
0.547539
0.547607
0.547676
0.547676
0.547745
0.547813
0.547882
0.547951
0.547951
0.548019
0.548088
0.548157
0.548226
0.548226
0.548295
0.548364
0.548433
0.548502
0.548502
0.548571
0.54864
0.54871
0.548779
0.548779
0.548848
0.548917
0.548987
0.549056
0.549056
0.549126
0.549195
0.549265
0.549334
0.549334
0.549404
0.549474
0.549543
0.549613
0.549613
0.549683
0.549753
0.549823
0.549893
0.549893
0.549963
0.550033
0.550103
0.550173
0.550173
0.550243
0.550313
0.550383
0.550453
0.550453
0.550524
0.550594
0.550665
0.550735
0.550735
0.550805
0.550876
0.550947
0.551017
0.551017
0.551088
0.551159
0.551229
0.5513
0.5513
0.551371
0.551442
0.551513
0.551584
0.551584
0.551655
0.551726
0.551797
0.551868
0.551868
0.551939
0.55201
0.552081
0.552153
0.552153
0.552224
0.552295
0.552367
0.552438
0.552438
0.55251
0.552581
0.552653
0.552725
0.552725
0.552796
0.552868
0.55294
0.553012
0.553012
0.553083
0.553155
0.553227
0.553299
0.553299
0.553371
0.553443
0.553515
0.553588
0.553588
0.55366
0.553732
0.553804
0.553877
0.553877
0.553949
0.554021
0.554094
0.554166
0.554166
0.554239
0.554311
0.554384
0.554457
0.554457
0.554529
0.554602
0.554675
0.554748
0.554748
0.554821
0.554894
0.554967
0.55504
0.55504
0.555113
0.555186
0.555259
0.555332
0.555332
0.555405
0.555479
0.555552
0.555625
0.555625
0.555699
0.555772
0.555846
0.555919
0.555919
0.555993
0.556066
0.55614
0.556214
0.556214
0.556288
0.556361
0.556435
0.556509
0.556509
0.556583
0.556657
0.556731
0.556805
0.556805
0.556879
0.556953
0.557028
0.557102
0.557102
0.557176
0.55725
0.557325
0.557399
0.557399
0.557474
0.557548
0.557623
0.557697
0.557697
0.557772
0.557847
0.557921
0.557996
0.557996
0.558071
0.558146
0.558221
0.558296
0.558296
0.55837
0.558446
0.558521
0.558596
0.558596
0.558671
0.558746
0.558821
0.558897
0.558897
0.558972
0.559047
0.559123
0.559198
0.559198
0.559274
0.559349
0.559425
0.5595
0.5595
0.559575
0.559651
0.559725
0.5598
0.5598
0.559874
0.559946
0.560016
0.560084
0.560084
0.56015
0.560215
0.56028
0.560345
0.560345
0.560409
0.560473
0.560537
0.560601
0.560601
0.560665
0.560729
0.560793
0.560858
0.560858
0.560922
0.560986
0.56105
0.561115
0.561115
0.561179
0.561243
0.561308
0.561372
0.561372
0.561437
0.561501
0.561566
0.56163
0.56163
0.561695
0.56176
0.561824
0.561889
0.561889
0.561954
0.562019
0.562083
0.562148
0.562148
0.562213
0.562278
0.562343
0.562408
0.562408
0.562473
0.562538
0.562603
0.562668
0.562668
0.562734
0.562799
0.562864
0.562929
0.562929
0.562994
0.56306
0.563125
0.56319
0.56319
0.563256
0.563321
0.563387
0.563452
0.563452
0.563518
0.563583
0.563649
0.563715
0.563715
0.56378
0.563846
0.563912
0.563977
0.563977
0.564043
0.564109
0.564174
0.56424
0.56424
0.564305
0.564371
0.564436
0.5645
0.5645
0.564564
0.564627
0.564688
0.564749
0.564749
0.564807
0.564864
0.564919
0.564973
0.564973
0.565027
0.56508
0.565133
0.565186
0.565186
0.565238
0.565291
0.565343
0.565396
0.565396
0.565448
0.5655
0.565553
0.565605
0.565605
0.565658
0.56571
0.565763
0.565815
0.565815
0.565868
0.56592
0.565973
0.566025
0.566025
0.566078
0.56613
0.566183
0.566236
0.566236
0.566288
0.566341
0.566394
0.566447
0.566447
0.566499
0.566552
0.566605
0.566658
0.566658
0.566711
0.566763
0.566816
0.566869
0.566869
0.566922
0.566975
0.567028
0.567081
0.567081
0.567134
0.567187
0.56724
0.567293
0.567293
0.567346
0.567399
0.567452
0.567506
0.567506
0.567559
0.567612
0.567665
0.567718
0.567718
0.567771
0.567825
0.567878
0.567931
0.567931
0.567984
0.568037
0.56809
0.568142
0.568142
0.568195
0.568246
0.568298
0.568349
0.568349
0.568399
0.568448
0.568496
0.568543
0.568543
0.568588
0.568633
0.568677
0.568721
0.568721
0.568763
0.568805
0.568847
0.568889
0.568889
0.568931
0.568972
0.569013
0.569055
0.569055
0.569096
0.569137
0.569179
0.56922
0.56922
0.569261
0.569302
0.569344
0.569385
0.569385
0.569426
0.569468
0.569509
0.56955
0.56955
0.569592
0.569633
0.569674
0.569716
0.569716
0.569757
0.569799
0.56984
0.569881
0.569881
0.569923
0.569964
0.570006
0.570047
0.570047
0.570089
0.57013
0.570172
0.570213
0.570213
0.570255
0.570296
0.570338
0.57038
0.57038
0.570421
0.570463
0.570504
0.570546
0.570546
0.570588
0.570629
0.570671
0.570712
0.570712
0.570754
0.570796
0.570837
0.570879
0.570879
0.57092
0.570961
0.571003
0.571044
0.571044
0.571085
0.571125
0.571165
0.571205
0.571205
0.571244
0.571282
0.57132
0.571358
0.571358
0.571394
0.57143
0.571465
0.5715
0.5715
0.571534
0.571568
0.571601
0.571634
0.571634
0.571666
0.571699
0.571731
0.571763
0.571763
0.571795
0.571827
0.571859
0.571891
0.571891
0.571923
0.571955
0.571987
0.572019
0.572019
0.572051
0.572083
0.572114
0.572146
0.572146
0.572178
0.57221
0.572242
0.572274
0.572274
0.572306
0.572338
0.57237
0.572402
0.572402
0.572434
0.572466
0.572498
0.57253
0.57253
0.572562
0.572594
0.572626
0.572658
0.572658
0.57269
0.572722
0.572754
0.572787
0.572787
0.572819
0.572851
0.572883
0.572915
0.572915
0.572947
0.572979
0.573011
0.573043
0.573043
0.573075
0.573107
0.573139
0.573171
0.573171
0.573202
0.573234
0.573265
0.573296
0.573296
0.573327
0.573358
0.573388
0.573418
0.573418
0.573447
0.573476
0.573505
0.573533
0.573533
0.573561
0.573588
0.573615
0.573642
0.573642
0.573668
0.573694
0.573719
0.573744
0.573744
0.573769
0.573794
0.573819
0.573844
0.573844
0.573869
0.573893
0.573918
0.573942
0.573942
0.573967
0.573992
0.574016
0.574041
0.574041
0.574065
0.57409
0.574114
0.574139
0.574139
0.574163
0.574188
0.574212
0.574237
0.574237
0.574261
0.574286
0.57431
0.574335
0.574335
0.57436
0.574384
0.574409
0.574433
0.574433
0.574458
0.574482
0.574507
0.574532
0.574532
0.574556
0.574581
0.574605
0.57463
0.57463
0.574654
0.574679
0.574704
0.574728
0.574728
0.574753
0.574777
0.574801
0.574826
0.574826
0.57485
0.574874
0.574898
0.574922
0.574922
0.574946
0.574969
0.574993
0.575016
0.575016
0.575039
0.575061
0.575083
0.575105
0.575105
0.575127
0.575148
0.575169
0.57519
0.57519
0.575211
0.575231
0.575251
0.575271
0.575271
0.575291
0.57531
0.575329
0.575349
0.575349
0.575368
0.575387
0.575406
0.575425
0.575425
0.575444
0.575463
0.575481
0.5755
0.5755
0.575519
0.575538
0.575557
0.575576
0.575576
0.575594
0.575613
0.575632
0.575651
0.575651
0.57567
0.575689
0.575707
0.575726
0.575726
0.575745
0.575764
0.575783
0.575802
0.575802
0.575821
0.575839
0.575858
0.575877
0.575877
0.575896
0.575915
0.575934
0.575953
0.575953
0.575971
0.57599
0.576009
0.576028
0.576028
0.576047
0.576065
0.576084
0.576102
0.576102
0.576121
0.576139
0.576158
0.576176
0.576176
0.576194
0.576212
0.576229
0.576247
0.576247
0.576264
0.576281
0.576298
0.576315
0.576315
0.576331
0.576348
0.576364
0.57638
0.57638
0.576396
0.576411
0.576427
0.576442
0.576442
0.576458
0.576473
0.576488
0.576502
0.576502
0.576517
0.576532
0.576547
0.576561
0.576561
0.576576
0.576591
0.576605
0.57662
0.57662
0.576634
0.576649
0.576663
0.576678
0.576678
0.576693
0.576707
0.576722
0.576736
0.576736
0.576751
0.576765
0.57678
0.576794
0.576794
0.576809
0.576823
0.576838
0.576853
0.576853
0.576867
0.576882
0.576896
0.576911
0.576911
0.576925
0.57694
0.576954
0.576969
0.576969
0.576983
0.576998
0.577012
0.577027
0.577027
0.577041
0.577055
0.577069
0.577084
0.577084
0.577098
0.577111
0.577125
0.577139
0.577139
0.577153
0.577166
0.577179
0.577193
0.577193
0.577206
0.577219
0.577232
0.577244
0.577244
0.577257
0.577269
0.577282
0.577294
0.577294
0.577306
0.577318
0.57733
0.577342
0.577342
0.577353
0.577365
0.577377
0.577388
0.577388
0.5774
0.577411
0.577423
0.577434
0.577434
0.577445
0.577457
0.577468
0.577479
0.577479
0.577491
0.577502
0.577514
0.577525
0.577525
0.577536
0.577548
0.577559
0.57757
0.57757
0.577582
0.577593
0.577604
0.577616
0.577616
0.577627
0.577638
0.57765
0.577661
0.577661
0.577672
0.577684
0.577695
0.577706
0.577706
0.577718
0.577729
0.57774
0.577751
0.577751
0.577762
0.577774
0.577785
0.577796
0.577796
0.577807
0.577817
0.577828
0.577839
0.577839
0.57785
0.57786
0.577871
0.577881
0.577881
0.577891
0.577901
0.577912
0.577922
0.577922
0.577932
0.577941
0.577951
0.577961
0.577961
0.57797
0.57798
0.577989
0.577999
0.577999
0.578008
0.578017
0.578027
0.578036
0.578036
0.578045
0.578054
0.578063
0.578072
0.578072
0.578081
0.57809
0.578099
0.578108
0.578108
0.578117
0.578126
0.578135
0.578144
0.578144
0.578153
0.578162
0.578171
0.57818
0.57818
0.578189
0.578198
0.578207
0.578216
0.578216
0.578225
0.578234
0.578243
0.578252
0.578252
0.578261
0.57827
0.578279
0.578288
0.578288
0.578297
0.578305
0.578314
0.578323
0.578323
0.578332
0.578341
0.578349
0.578358
0.578358
0.578366
0.578375
0.578383
0.578392
0.578392
0.5784
0.578409
0.578417
0.578425
0.578425