<?xml version="1.0"?>
<VTKFile type="UnstructuredGrid" version="0.1" byte_order="LittleEndian">
<UnstructuredGrid>
<Piece NumberOfPoints="5000" NumberOfCells="4000">
<PointData Scalars="Reaction 0">
<DataArray type="Float32" Name="Reaction 0" format="ascii">
0.426255
0.426255
0.426255
0.426255
0.426255
0.426255
0.426255
0.426255
0.426256
0.426256
0.426256
0.426256
0.426256
0.426257
0.426257
0.426257
0.426257
0.426258
0.426258
0.426259
0.426259
0.426259
0.42626
0.42626
0.426261
0.426261
0.426261
0.426262
0.426263
0.426263
0.426263
0.426264
0.426265
0.426265
0.426266
0.426266
0.426267
0.426268
0.426269
0.42627
0.42627
0.426271
0.426272
0.426273
0.426274
0.426274
0.426275
0.426276
0.426277
0.426278
0.426278
0.426279
0.42628
0.426282
0.426283
0.426283
0.426284
0.426285
0.426287
0.426288
0.426288
0.42629
0.426291
0.426292
0.426294
0.426294
0.426295
0.426297
0.426299
0.4263
0.4263
0.426302
0.426303
0.426305
0.426307
0.426307
0.426309
0.42631
0.426312
0.426314
0.426314
0.426316
0.426318
0.42632
0.426322
0.426322
0.426323
0.426325
0.426328
0.42633
0.42633
0.426332
0.426334
0.426336
0.426338
0.426338
0.42634
0.426343
0.426345
0.426347
0.426347
0.426349
0.426352
0.426354
0.426357
0.426357
0.426359
0.426361
0.426364
0.426366
0.426366
0.426369
0.426372
0.426374
0.426377
0.426377
0.426379
0.426382
0.426385
0.426388
0.426388
0.42639
0.426393
0.426396
0.426399
0.426399
0.426402
0.426405
0.426408
0.426411
0.426411
0.426414
0.426417
0.42642
0.426423
0.426423
0.426426
0.426429
0.426432
0.426436
0.426436
0.426439
0.426442
0.426445
0.426449
0.426449
0.426452
0.426455
0.426459
0.426462
0.426462
0.426466
0.426469
0.426473
0.426476
0.426476
0.42648
0.426484
0.426487
0.426491
0.426491
0.426495
0.426498
0.426502
0.426506
0.426506
0.42651
0.426513
0.426517
0.426521
0.426521
0.426525
0.426529
0.426533
0.426537
0.426537
0.426541
0.426545
0.426549
0.426553
0.426553
0.426558
0.426562
0.426566
0.42657
0.42657
0.426575
0.426579
0.426583
0.426588
0.426588
0.426592
0.426596
0.426601
0.426605
0.426605
0.42661
0.426614
0.426619
0.426624
0.426624
0.426628
0.426633
0.426637
0.426642
0.426642
0.426647
0.426652
0.426656
0.426661
0.426661
0.426666
0.426671
0.426676
0.426681
0.426681
0.426686
0.426691
0.426696
0.426701
0.426701
0.426706
0.426711
0.426716
0.426721
0.426721
0.426727
0.426732
0.426737
0.426742
0.426742
0.426748
0.426753
0.426758
0.426764
0.426764
0.426769
0.426775
0.42678
0.426786
0.426786
0.426791
0.426797
0.426802
0.426808
0.426808
0.426814
0.426819
0.426825
0.426831
0.426831
0.426837
0.426842
0.426848
0.426854
0.426854
0.42686
0.426866
0.426872
0.426878
0.426878
0.426884
0.42689
0.426896
0.426902
0.426902
0.426908
0.426914
0.42692
0.426927
0.426927
0.426933
0.426939
0.426945
0.426952
0.426952
0.426958
0.426965
0.426971
0.426977
0.426977
0.426984
0.42699
0.426997
0.427003
0.427003
0.42701
0.427017
0.427023
0.42703
0.42703
0.427037
0.427043
0.42705
0.427057
0.427057
0.427064
0.427071
0.427077
0.427084
0.427084
0.427091
0.427098
0.427105
0.427112
0.427112
0.427119
0.427126
0.427133
0.42714
0.42714
0.427148
0.427155
0.427162
0.427169
0.427169
0.427177
0.427184
0.427191
0.427199
0.427199
0.427206
0.427213
0.427221
0.427228
0.427228
0.427236
0.427243
0.427251
0.427258
0.427258
0.427266
0.427274
0.427281
0.427289
0.427289
0.427297
0.427305
0.427312
0.42732
0.42732
0.427328
0.427336
0.427344
0.427352
0.427352
0.42736
0.427368
0.427376
0.427384
0.427384
0.427392
0.4274
0.427408
0.427416
0.427416
0.427424
0.427433
0.427441
0.427449
0.427449
0.427458
0.427466
0.427474
0.427483
0.427483
0.427491
0.4275
0.427508
0.427517
0.427517
0.427525
0.427534
0.427542
0.427551
0.427551
0.42756
0.427568
0.427577
0.427586
0.427586
0.427594
0.427603
0.427612
0.427621
0.427621
0.42763
0.427639
0.427648
0.427657
0.427657
0.427666
0.427675
0.427684
0.427693
0.427693
0.427702
0.427711
0.42772
0.427729
0.427729
0.427739
0.427748
0.427757
0.427767
0.427767
0.427776
0.427785
0.427795
0.427804
0.427804
0.427814
0.427823
0.427833
0.427842
0.427842
0.427852
0.427861
0.427871
0.427881
0.427881
0.42789
0.4279
0.42791
0.42792
0.42792
0.427929
0.427939
0.427949
0.427959
0.427959
0.427969
0.427979
0.427989
0.427999
0.427999
0.428009
0.428019
0.428029
0.428039
0.428039
0.428049
0.42806
0.42807
0.42808
0.42808
0.42809
0.428101
0.428111
0.428121
0.428121
0.428132
0.428142
0.428153
0.428163
0.428163
0.428173
0.428184
0.428195
0.428205
0.428205
0.428216
0.428226
0.428237
0.428248
0.428248
0.428259
0.428269
0.42828
0.428291
0.428291
0.428302
0.428313
0.428324
0.428334
0.428334
0.428345
0.428356
0.428367
0.428378
0.428378
0.42839
0.428401
0.428412
0.428423
0.428423
0.428434
0.428445
0.428457
0.428468
0.428468
0.428479
0.428491
0.428502
0.428513
0.428513
0.428525
0.428536
0.428548
0.428559
0.428559
0.428571
0.428582
0.428594
0.428606
0.428606
0.428617
0.428629
0.428641
0.428652
0.428652
0.428664
0.428676
0.428688
0.4287
0.4287
0.428711
0.428723
0.428735
0.428747
0.428747
0.428759
0.428771
0.428783
0.428795
0.428795
0.428808
0.42882
0.428832
0.428844
0.428844
0.428856
0.428869
0.428881
0.428893
0.428893
0.428906
0.428918
0.42893
0.428943
0.428943
0.428955
0.428968
0.42898
0.428993
0.428993
0.429005
0.429018
0.429031
0.429043
0.429043
0.429056
0.429069
0.429081
0.429094
0.429094
0.429107
0.42912
0.429133
0.429146
0.429146
0.429159
0.429172
0.429185
0.429198
0.429198
0.429211
0.429224
0.429237
0.42925
0.42925
0.429263
0.429276
0.429289
0.429303
0.429303
0.429316
0.429329
0.429343
0.429356
0.429356
0.429369
0.429383
0.429396
0.42941
0.42941
0.429423
0.429437
0.42945
0.429464
0.429464
0.429477
0.429491
0.429505
0.429519
0.429519
0.429532
0.429546
0.42956
0.429574
0.429574
0.429587
0.429601
0.429615
0.429629
0.429629
0.429643
0.429657
0.429671
0.429685
0.429685
0.429699
0.429713
0.429728
0.429742
0.429742
0.429756
0.42977
0.429784
0.429799
0.429799
0.429813
0.429827
0.429842
0.429856
0.429856
0.429871
0.429885
0.429899
0.429914
0.429914
0.429929
0.429943
0.429958
0.429972
0.429972
0.429987
0.430002
0.430016
0.430031
0.430031
0.430046
0.430061
0.430076
0.43009
0.43009
0.430105
0.43012
0.430135
0.43015
0.43015
0.430165
0.43018
0.430195
0.43021
0.43021
0.430225
0.430241
0.430256
0.430271
0.430271
0.430286
0.430302
0.430317
0.430332
0.430332
0.430348
0.430363
0.430378
0.430394
0.430394
0.430409
0.430425
0.43044
0.430456
0.430456
0.430471
0.430487
0.430503
0.430518
0.430518
0.430534
0.43055
0.430565
0.430581
0.430581
0.430597
0.430613
0.430629
0.430645
0.430645
0.430661
0.430677
0.430693
0.430709
0.430709
0.430725
0.430741
0.430757
0.430773
0.430773
0.430789
0.430805
0.430822
0.430838
0.430838
0.430854
0.43087
0.430887
0.430903
0.430903
0.430919
0.430936
0.430952
0.430969
0.430969
0.430985
0.431002
0.431018
0.431035
0.431035
0.431052
0.431068
0.431085
0.431102
0.431102
0.431118
0.431135
0.431152
0.431169
0.431169
0.431186
0.431203
0.43122
0.431236
0.431236
0.431253
0.43127
0.431287
0.431305
0.431305
0.431322
0.431339
0.431356
0.431373
0.431373
0.43139
0.431407
0.431425
0.431442
0.431442
0.431459
0.431477
0.431494
0.431511
0.431511
0.431529
0.431546
0.431564
0.431581
0.431581
0.431599
0.431617
0.431634
0.431652
0.431652
0.431669
0.431687
0.431705
0.431723
0.431723
0.43174
0.431758
0.431776
0.431794
0.431794
0.431812
0.43183
0.431848
0.431866
0.431866
0.431884
0.431902
0.43192
0.431938
0.431938
0.431956
0.431974
0.431992
0.432011
0.432011
0.432029
0.432047
0.432065
0.432084
0.432084
0.432102
0.432121
0.432139
0.432157
0.432157
0.432176
0.432194
0.432213
0.432232
0.432232
0.43225
0.432269
0.432287
0.432306
0.432306
0.432325
0.432344
0.432362
0.432381
0.432381
0.4324
0.432419
0.432438
0.432457
0.432457
0.432475
0.432494
0.432513
0.432532
0.432532
0.432552
0.432571
0.43259
0.432609
0.432609
0.432628
0.432647
0.432667
0.432686
0.432686
0.432705
0.432724
0.432744
0.432763
0.432763
0.432783
0.432802
0.432821
0.432841
0.432841
0.43286
0.43288
0.4329
0.432919
0.432919
0.432939
0.432958
0.432978
0.432998
0.432998
0.433018
0.433037
0.433057
0.433077
0.433077
0.433097
0.433117
0.433137
0.433157
0.433157
0.433177
0.433197
0.433217
0.433237
0.433237
0.433257
0.433277
0.433297
0.433317
0.433317
0.433338
0.433358
0.433378
0.433398
0.433398
0.433419
0.433439
0.43346
0.43348
0.43348
0.4335
0.433521
0.433541
0.433562
0.433562
0.433583
0.433603
0.433624
0.433644
0.433644
0.433665
0.433686
0.433707
0.433727
0.433727
0.433748
0.433769
0.43379
0.433811
0.433811
0.433832
0.433853
0.433873
0.433894
0.433894
0.433916
0.433937
0.433958
0.433979
0.433979
0.434
0.434021
0.434042
0.434064
0.434064
0.434085
0.434106
0.434127
0.434149
0.434149
0.43417
0.434192
0.434213
0.434234
0.434234
0.434256
0.434277
0.434299
0.434321
0.434321
0.434342
0.434364
0.434386
0.434407
0.434407
0.434429
0.434451
0.434472
0.434494
0.434494
0.434516
0.434538
0.43456
0.434582
0.434582
0.434604
0.434626
0.434648
0.43467
0.43467
0.434692
0.434714
0.434736
0.434758
0.434758
0.434781
0.434803
0.434825
0.434847
0.434847
0.43487
0.434892
0.434914
0.434937
0.434937
0.434959
0.434982
0.435004
0.435027
0.435027
0.435049
0.435072
0.435094
0.435117
0.435117
0.43514
0.435162
0.435185
0.435208
0.435208
0.43523
0.435253
0.435276
0.435299
0.435299
0.435322
0.435345
0.435368
0.435391
0.435391
0.435414
0.435437
0.43546
0.435483
0.435483
0.435506
0.435529
0.435552
0.435576
0.435576
0.435599
0.435622
0.435645
0.435669
0.435669
0.435692
0.435715
0.435739
0.435762
0.435762
0.435786
0.435809
0.435833
0.435856
0.435856
0.43588
0.435903
0.435927
0.435951
0.435951
0.435975
0.435998
0.436022
0.436046
0.436046
0.43607
0.436093
0.436117
0.436141
0.436141
0.436165
0.436189
0.436213
0.436237
0.436237
0.436261
0.436285
0.436309
0.436334
0.436334
0.436358
0.436382
0.436406
0.43643
0.43643
0.436455
0.436479
0.436503
0.436528
0.436528
0.436552
0.436577
0.436601
0.436625
0.436625
0.43665
0.436675
0.436699
0.436724
0.436724
0.436748
0.436773
0.436798
0.436822
0.436822
0.436847
0.436872
0.436897
0.436922
0.436922
0.436947
0.436971
0.436996
0.437021
0.437021
0.437046
0.437071
0.437096
0.437121
0.437121
0.437146
0.437172
0.437197
0.437222
0.437222
0.437247
0.437272
0.437298
0.437323
0.437323
0.437348
0.437374
0.437399
0.437425
0.437425
0.43745
0.437475
0.437501
0.437526
0.437526
0.437552
0.437578
0.437603
0.437629
0.437629
0.437655
0.43768
0.437706
0.437732
0.437732
0.437758
0.437783
0.437809
0.437835
0.437835
0.437861
0.437887
0.437913
0.437939
0.437939
0.437965
0.437991
0.438017
0.438043
0.438043
0.43807
0.438096
0.438122
0.438148
0.438148
0.438174
0.438201
0.438227
0.438253
0.438253
0.43828
0.438306
0.438333
0.438359
0.438359
0.438386
0.438412
0.438439
0.438465
0.438465
0.438492
0.438519
0.438545
0.438572
0.438572
0.438599
0.438625
0.438652
0.438679
0.438679
0.438706
0.438733
0.43876
0.438787
0.438787
0.438814
0.438841
0.438868
0.438895
0.438895
0.438922
0.438949
0.438976
0.439003
0.439003
0.43903
0.439058
0.439085
0.439112
0.439112
0.439139
0.439167
0.439194
0.439222
0.439222
0.439249
0.439276
0.439304
0.439331
0.439331
0.439359
0.439387
0.439414
0.439442
0.439442
0.439469
0.439497
0.439525
0.439553
0.439553
0.43958
0.439608
0.439636
0.439664
0.439664
0.439692
0.43972
0.439748
0.439776
0.439776
0.439804
0.439832
0.43986
0.439888
0.439888
0.439916
0.439944
0.439972
0.440001
0.440001
0.440029
0.440057
0.440086
0.440114
0.440114
0.440142
0.440171
0.440199
0.440228
0.440228
0.440256
0.440285
0.440313
0.440342
0.440342
0.44037
0.440399
0.440428
0.440456
0.440456
0.440485
0.440514
0.440542
0.440571
0.440571
0.4406
0.440629
0.440658
0.440687
0.440687
0.440716
0.440745
0.440774
0.440803
0.440803
0.440832
0.440861
0.44089
0.440919
0.440919
0.440948
0.440978
0.441007
0.441036
0.441036
0.441065
0.441095
0.441124
0.441154
0.441154
0.441183
0.441212
0.441242
0.441271
0.441271
0.441301
0.441331
0.44136
0.44139
0.44139
0.441419
0.441449
0.441479
0.441509
0.441509
0.441538
0.441568
0.441598
0.441628
0.441628
0.441658
0.441688
0.441718
0.441748
0.441748
0.441778
0.441808
0.441838
0.441868
0.441868
0.441898
0.441928
0.441958
0.441988
0.441988
0.442019
0.442049
0.442079
0.44211
0.44211
0.44214
0.44217
0.442201
0.442231
0.442231
0.442262
0.442292
0.442323
0.442353
0.442353
0.442384
0.442414
0.442445
0.442476
0.442476
0.442507
0.442537
0.442568
0.442599
0.442599
0.44263
0.442661
0.442691
0.442722
0.442722
0.442753
0.442784
0.442815
0.442846
0.442846
0.442877
0.442908
0.44294
0.442971
0.442971
0.443002
0.443033
0.443064
0.443096
0.443096
0.443127
0.443158
0.44319
0.443221
0.443221
0.443252
0.443284
0.443315
0.443347
0.443347
0.443378
0.44341
0.443441
0.443473
0.443473
0.443505
0.443536
0.443568
0.4436
0.4436
0.443632
0.443663
0.443695
0.443727
0.443727
0.443759
0.443791
0.443823
0.443855
0.443855
0.443887
0.443919
0.443951
0.443983
0.443983
0.444015
0.444047
0.444079
0.444112
0.444112
0.444144
0.444176
0.444208
0.444241
0.444241
0.444273
0.444306
0.444338
0.44437
0.44437
0.444403
0.444435
0.444468
0.4445
0.4445
0.444533
0.444566
0.444598
0.444631
0.444631
0.444664
0.444696
0.444729
0.444762
0.444762
0.444795
0.444828
0.444861
0.444893
0.444893
0.444926
0.444959
0.444992
0.445025
0.445025
0.445058
0.445092
0.445125
0.445158
0.445158
0.445191
0.445224
0.445257
0.445291
0.445291
0.445324
0.445357
0.445391
0.445424
0.445424
0.445457
0.445491
0.445524
0.445558
0.445558
0.445591
0.445625
0.445659
0.445692
0.445692
0.445726
0.445759
0.445793
0.445827
0.445827
0.445861
0.445894
0.445928
0.445962
0.445962
0.445996
0.44603
0.446064
0.446098
0.446098
0.446132
0.446166
0.4462
0.446234
0.446234
0.446268
0.446302
0.446336
0.446371
0.446371
0.446405
0.446439
0.446473
0.446508
0.446508
0.446542
0.446577
0.446611
0.446645
0.446645
0.44668
0.446714
0.446749
0.446783
0.446783
0.446818
0.446853
0.446887
0.446922
0.446922
0.446957
0.446991
0.447026
0.447061
0.447061
0.447096
0.447131
0.447166
0.447201
0.447201
0.447235
0.44727
0.447305
0.44734
0.44734
0.447376
0.447411
0.447446
0.447481
0.447481
0.447516
0.447551
0.447587
0.447622
0.447622
0.447657
0.447692
0.447728
0.447763
0.447763
0.447799
0.447834
0.447869
0.447905
0.447905
0.447941
0.447976
0.448012
0.448047
0.448047
0.448083
0.448119
0.448154
0.44819
0.44819
0.448226
0.448262
0.448297
0.448333
0.448333
0.448369
0.448405
0.448441
0.448477
0.448477
0.448513
0.448549
0.448585
0.448621
0.448621
0.448657
0.448694
0.44873
0.448766
0.448766
0.448802
0.448838
0.448875
0.448911
0.448911
0.448947
0.448984
0.44902
0.449057
0.449057
0.449093
0.44913
0.449166
0.449203
0.449203
0.449239
0.449276
0.449313
0.449349
0.449349
0.449386
0.449423
0.44946
0.449496
0.449496
0.449533
0.44957
0.449607
0.449644
0.449644
0.449681
0.449718
0.449755
0.449792
0.449792
0.449829
0.449866
0.449903
0.44994
0.44994
0.449978
0.450015
0.450052
0.450089
0.450089
0.450127
0.450164
0.450201
0.450239
0.450239
0.450276
0.450314
0.450351
0.450389
0.450389
0.450426
0.450464
0.450501
0.450539
0.450539
0.450577
0.450614
0.450652
0.45069
0.45069
0.450728
0.450765
0.450803
0.450841
0.450841
0.450879
0.450917
0.450955
0.450993
0.450993
0.451031
0.451069
0.451107
0.451145
0.451145
0.451183
0.451221
0.45126
0.451298
0.451298
0.451336
0.451374
0.451413
0.451451
0.451451
0.451489
0.451528
0.451566
0.451605
0.451605
0.451643
0.451682
0.45172
0.451759
0.451759
0.451797
0.451836
0.451875
0.451913
0.451913
0.451952
0.451991
0.45203
0.452069
0.452069
0.452107
0.452146
0.452185
0.452224
0.452224
0.452263
0.452302
0.452341
0.45238
0.45238
0.452419
0.452458
0.452498
0.452537
0.452537
0.452576
0.452615
0.452654
0.452694
0.452694
0.452733
0.452772
0.452812
0.452851
0.452851
0.452891
0.45293
0.45297
0.453009
0.453009
0.453049
0.453088
0.453128
0.453168
0.453168
0.453207
0.453247
0.453287
0.453326
0.453326
0.453366
0.453406
0.453446
0.453486
0.453486
0.453526
0.453566
0.453606
0.453646
0.453646
0.453686
0.453726
0.453766
0.453806
0.453806
0.453846
0.453886
0.453927
0.453967
0.453967
0.454007
0.454047
0.454088
0.454128
0.454128
0.454169
0.454209
0.454249
0.45429
0.45429
0.45433
0.454371
0.454412
0.454452
0.454452
0.454493
0.454533
0.454574
0.454615
0.454615
0.454656
0.454696
0.454737
0.454778
0.454778
0.454819
0.45486
0.454901
0.454942
0.454942
0.454983
0.455024
0.455065
0.455106
0.455106
0.455147
0.455188
0.455229
0.45527
0.45527
0.455312
0.455353
0.455394
0.455436
0.455436
0.455477
0.455518
0.45556
0.455601
0.455601
0.455643
0.455684
0.455726
0.455767
0.455767
0.455809
0.45585
0.455892
0.455934
0.455934
0.455975
0.456017
0.456059
0.456101
0.456101
0.456142
0.456184
0.456226
0.456268
0.456268
0.45631
0.456352
0.456394
0.456436
0.456436
0.456478
0.45652
0.456562
0.456605
0.456605
0.456647
0.456689
0.456731
0.456773
0.456773
0.456816
0.456858
0.4569
0.456943
0.456943
0.456985
0.457028
0.45707
0.457113
0.457113
0.457155
0.457198
0.45724
0.457283
0.457283
0.457326
0.457368
0.457411
0.457454
0.457454
0.457497
0.457539
0.457582
0.457625
0.457625
0.457668
0.457711
0.457754
0.457797
0.457797
0.45784
0.457883
0.457926
0.457969
0.457969
0.458012
0.458056
0.458099
0.458142
0.458142
0.458185
0.458229
0.458272
0.458315
0.458315
0.458359
0.458402
0.458445
0.458489
0.458489
0.458532
0.458576
0.458619
0.458663
0.458663
0.458707
0.45875
0.458794
0.458838
0.458838
0.458881
0.458925
0.458969
0.459013
0.459013
0.459057
0.459101
0.459145
0.459188
0.459188
0.459232
0.459276
0.45932
0.459365
0.459365
0.459409
0.459453
0.459497
0.459541
0.459541
0.459585
0.45963
0.459674
0.459718
0.459718
0.459763
0.459807
0.459851
0.459896
0.459896
0.45994
0.459985
0.460029
0.460074
0.460074
0.460118
0.460163
0.460208
0.460252
0.460252
0.460297
0.460342
0.460386
0.460431
0.460431
0.460476
0.460521
0.460566
0.460611
0.460611
0.460656
0.460701
0.460746
0.460791
0.460791
0.460836
0.460881
0.460926
0.460971
0.460971
0.461016
0.461061
0.461107
0.461152
0.461152
0.461197
0.461243
0.461288
0.461333
0.461333
0.461379
0.461424
0.46147
0.461515
0.461515
0.461561
0.461606
0.461652
0.461697
0.461697
0.461743
0.461789
0.461835
0.46188
0.46188
0.461926
0.461972
0.462018
0.462064
0.462064
0.46211
0.462155
0.462201
0.462247
0.462247
0.462293
0.462339
0.462386
0.462432
0.462432
0.462478
0.462524
0.46257
0.462616
0.462616
0.462663
0.462709
0.462755
0.462802
0.462802
0.462848
0.462894
0.462941
0.462987
0.462987
0.463034
0.46308
0.463127
0.463174
0.463174
0.46322
0.463267
0.463314
0.46336
0.46336
0.463407
0.463454
0.463501
0.463547
0.463547
0.463594
0.463641
0.463688
0.463735
0.463735
0.463782
0.463829
0.463876
0.463923
0.463923
0.46397
0.464017
0.464065
0.464112
0.464112
0.464159
0.464206
0.464254
0.464301
0.464301
0.464348
0.464396
0.464443
0.46449
0.46449
0.464538
0.464585
0.464633
0.464681
0.464681
0.464728
0.464776
0.464823
0.464871
0.464871
0.464919
0.464966
0.465014
0.465062
0.465062
0.46511
0.465158
0.465206
0.465254
0.465254
0.465302
0.46535
0.465398
0.465446
0.465446
0.465494
0.465542
0.46559
0.465638
0.465638
0.465686
0.465734
0.465783
0.465831
0.465831
0.465879
0.465928
0.465976
0.466024
0.466024
0.466073
0.466121
0.46617
0.466218
0.466218
0.466267
0.466316
0.466364
0.466413
0.466413
0.466462
0.46651
0.466559
0.466608
0.466608
0.466657
0.466705
0.466754
0.466803
0.466803
0.466852
0.466901
0.46695
0.466999
0.466999
0.467048
0.467097
0.467146
0.467195
0.467195
0.467245
0.467294
0.467343
0.467392
0.467392
0.467441
0.467491
0.46754
0.46759
0.46759
0.467639
0.467688
0.467738
0.467787
0.467787
0.467837
0.467886
0.467936
0.467986
0.467986
0.468035
0.468085
0.468135
0.468184
0.468184
0.468234
0.468284
0.468334
0.468384
0.468384
0.468434
0.468484
0.468533
0.468583
0.468583
0.468633
0.468684
0.468734
0.468784
0.468784
0.468834
0.468884
0.468934
0.468984
0.468984
0.469035
0.469085
0.469135
0.469186
0.469186
0.469236
0.469286
0.469337
0.469387
0.469387
0.469438
0.469488
0.469539
0.46959
0.46959
0.46964
0.469691
0.469742
0.469792
0.469792
0.469843
0.469894
0.469945
0.469995
0.469995
0.470046
0.470097
0.470148
0.470199
0.470199
0.47025
0.470301
0.470352
0.470403
0.470403
0.470454
0.470505
0.470557
0.470608
0.470608
0.470659
0.47071
0.470762
0.470813
0.470813
0.470864
0.470916
0.470967
0.471019
0.471019
0.47107
0.471122
0.471173
0.471225
0.471225
0.471276
0.471328
0.47138
0.471431
0.471431
0.471483
0.471535
0.471586
0.471638
0.471638
0.47169
0.471742
0.471794
0.471846
0.471846
0.471898
0.47195
0.472002
0.472054
0.472054
0.472106
0.472158
0.47221
0.472262
0.472262
0.472315
0.472367
0.472419
0.472471
0.472471
0.472524
0.472576
0.472629
0.472681
0.472681
0.472733
0.472786
0.472838
0.472891
0.472891
0.472944
0.472996
0.473049
0.473102
0.473102
0.473154
0.473207
0.47326
0.473312
0.473312
0.473365
0.473418
0.473471
0.473524
0.473524
0.473577
0.47363
0.473683
0.473736
0.473736
0.473789
0.473842
0.473895
0.473948
0.473948
0.474002
0.474055
0.474108
0.474161
0.474161
0.474215
0.474268
0.474321
0.474375
0.474375
0.474428
0.474482
0.474535
0.474589
0.474589
0.474642
0.474696
0.47475
0.474803
0.474803
0.474857
0.474911
0.474964
0.475018
0.475018
0.475072
0.475126
0.47518
0.475233
0.475233
0.475287
0.475341
0.475395
0.475449
0.475449
0.475503
0.475558
0.475612
0.475666
0.475666
0.47572
0.475774
0.475828
0.475883
0.475883
0.475937
0.475991
0.476046
0.4761
0.4761
0.476154
0.476209
0.476263
0.476318
0.476318
0.476372
0.476427
0.476482
0.476536
0.476536
0.476591
0.476646
0.4767
0.476755
0.476755
0.47681
0.476865
0.47692
0.476974
0.476974
0.477029
0.477084
0.477139
0.477194
0.477194
0.477249
0.477304
0.477359
0.477415
0.477415
0.47747
0.477525
0.47758
0.477635
0.477635
0.477691
0.477746
0.477801
0.477857
0.477857
0.477912
0.477968
0.478023
0.478079
0.478079
0.478134
0.47819
0.478245
0.478301
0.478301
0.478357
0.478412
0.478468
0.478524
0.478524
0.478579
0.478635
0.478691
0.478747
0.478747
0.478803
0.478859
0.478915
0.478971
0.478971
0.479027
0.479083
0.479139
0.479195
0.479195
0.479251
0.479307
0.479364
0.47942
0.47942
0.479476
0.479532
0.479589
0.479645
0.479645
0.479702
0.479758
0.479814
0.479871
0.479871
0.479927
0.479984
0.480041
0.480097
0.480097
0.480154
0.48021
0.480267
0.480324
0.480324
0.480381
0.480437
0.480494
0.480551
0.480551
0.480608
0.480665
0.480722
0.480779
0.480779
0.480836
0.480893
0.48095
0.481007
0.481007
0.481064
0.481121
0.481179
0.481236
0.481236
0.481293
0.48135
0.481408
0.481465
0.481465
0.481523
0.48158
0.481637
0.481695
0.481695
0.481752
0.48181
0.481868
0.481925
0.481925
0.481983
0.48204
0.482098
0.482156
0.482156
0.482214
0.482271
0.482329
0.482387
0.482387
0.482445
0.482503
0.482561
0.482619
0.482619
0.482677
0.482735
0.482793
0.482851
0.482851
0.482909
0.482967
0.483026
0.483084
0.483084
0.483142
0.4832
0.483259
0.483317
0.483317
0.483375
0.483434
0.483492
0.483551
0.483551
0.483609
0.483668
0.483726
0.483785
0.483785
0.483844
0.483902
0.483961
0.48402
0.48402
0.484078
0.484137
0.484196
0.484255
0.484255
0.484314
0.484373
0.484432
0.484491
0.484491
0.48455
0.484609
0.484668
0.484727
0.484727
0.484786
0.484845
0.484904
0.484964
0.484964
0.485023
0.485082
0.485141
0.485201
0.485201
0.48526
0.48532
0.485379
0.485439
0.485439
0.485498
0.485558
0.485617
0.485677
0.485677
0.485736
0.485796
0.485856
0.485915
0.485915
0.485975
0.486035
0.486095
0.486155
0.486155
0.486215
0.486274
0.486334
0.486394
0.486394
0.486454
0.486514
0.486575
0.486635
0.486635
0.486695
0.486755
0.486815
0.486875
0.486875
0.486936
0.486996
0.487056
0.487117
0.487117
0.487177
0.487237
0.487298
0.487358
0.487358
0.487419
0.487479
0.48754
0.487601
0.487601
0.487661
0.487722
0.487783
0.487843
0.487843
0.487904
0.487965
0.488026
0.488087
0.488087
0.488147
0.488208
0.488269
0.48833
0.48833
0.488391
0.488452
0.488513
0.488574
0.488574
0.488636
0.488697
0.488758
0.488819
0.488819
0.488881
0.488942
0.489003
0.489064
0.489064
0.489126
0.489187
0.489249
0.48931
0.48931
0.489372
0.489433
0.489495
0.489556
0.489556
0.489618
0.48968
0.489742
0.489803
0.489803
0.489865
0.489927
0.489989
0.490051
0.490051
0.490112
0.490174
0.490236
0.490298
0.490298
0.49036
0.490422
0.490484
0.490547
0.490547
0.490609
0.490671
0.490733
0.490795
0.490795
0.490858
0.49092
0.490982
0.491045
0.491045
0.491107
0.491169
0.491232
0.491294
0.491294
0.491357
0.49142
0.491482
0.491545
0.491545
0.491607
0.49167
0.491733
0.491796
0.491796
0.491858
0.491921
0.491984
0.492047
0.492047
0.49211
0.492173
0.492236
0.492299
0.492299
0.492362
0.492425
0.492488
0.492551
0.492551
0.492614
0.492677
0.492741
0.492804
0.492804
0.492867
0.49293
0.492994
0.493057
0.493057
0.493121
0.493184
0.493247
0.493311
0.493311
0.493375
0.493438
0.493502
0.493565
0.493565
0.493629
0.493693
0.493756
0.49382
0.49382
0.493884
0.493948
0.494012
0.494076
0.494076
0.494139
0.494203
0.494267
0.494331
0.494331
0.494395
0.49446
0.494524
0.494588
0.494588
0.494652
0.494716
0.49478
0.494845
0.494845
0.494909
0.494973
0.495038
0.495102
0.495102
0.495167
0.495231
0.495295
0.49536
0.49536
0.495425
0.495489
0.495554
0.495618
0.495618
0.495683
0.495748
0.495813
0.495877
0.495877
0.495942
0.496007
0.496072
0.496137
0.496137
0.496202
0.496267
0.496332
0.496397
0.496397
0.496462
0.496527
0.496592
0.496657
0.496657
0.496722
0.496788
0.496853
0.496918
0.496918
0.496983
0.497049
0.497114
0.49718
0.49718
0.497245
0.497311
0.497376
0.497442
0.497442
0.497507
0.497573
0.497638
0.497704
0.497704
0.49777
0.497836
0.497901
0.497967
0.497967
0.498033
0.498099
0.498165
0.498231
0.498231
0.498297
0.498363
0.498429
0.498495
0.498495
0.498561
0.498627
0.498693
0.498759
0.498759
0.498826
0.498892
0.498958
0.499024
0.499024
0.499091
0.499157
0.499223
0.49929
0.49929
0.499356
0.499423
0.499489
0.499556
0.499556
0.499623
0.499689
0.499756
0.499823
0.499823
0.499889
0.499956
0.500023
0.50009
0.50009
0.500157
0.500224
0.50029
0.500357
0.500357
0.500424
0.500491
0.500558
0.500626
0.500626
0.500693
0.50076
0.500827
0.500894
0.500894
0.500961
0.501029
0.501096
0.501163
0.501163
0.501231
0.501298
0.501366
0.501433
0.501433
0.501501
0.501568
0.501636
0.501703
0.501703
0.501771
0.501839
0.501906
0.501974
0.501974
0.502042
0.50211
0.502177
0.502245
0.502245
0.502313
0.502381
0.502449
0.502517
0.502517
0.502585
0.502653
0.502721
0.502789
0.502789
0.502857
0.502926
0.502994
0.503062
0.503062
0.50313
0.503199
0.503267
0.503335
0.503335
0.503404
0.503472
0.503541
0.503609
0.503609
0.503678
0.503746
0.503815
0.503884
0.503884
0.503952
0.504021
0.50409
0.504158
0.504158
0.504227
0.504296
0.504365
0.504434
0.504434
0.504503
0.504572
0.504641
0.50471
0.50471
0.504779
0.504848
0.504917
0.504986
0.504986
0.505055
0.505125
0.505194
0.505263
0.505263
0.505332
0.505402
0.505471
0.505541
0.505541
0.50561
0.505679
0.505749
0.505818
0.505818
0.505888
0.505958
0.506027
0.506097
0.506097
0.506167
0.506236
0.506306
0.506376
0.506376
0.506446
0.506516
0.506586
0.506656
0.506656
0.506726
0.506796
0.506866
0.506936
0.506936
0.507006
0.507076
0.507146
0.507216
0.507216
0.507286
0.507357
0.507427
0.507497
0.507497
0.507568
0.507638
0.507708
0.507779
0.507779
0.507849
0.50792
0.50799
0.508061
0.508061
0.508132
0.508202
0.508273
0.508344
0.508344
0.508414
0.508485
0.508556
0.508627
0.508627
0.508698
0.508769
0.50884
0.508911
0.508911
0.508982
0.509053
0.509124
0.509195
0.509195
0.509266
0.509337
0.509408
0.50948
0.50948
0.509551
0.509622
0.509694
0.509765
0.509765
0.509836
0.509908
0.509979
0.510051
0.510051
0.510122
0.510194
0.510265
0.510337
0.510337
0.510409
0.51048
0.510552
0.510624
0.510624
0.510696
0.510767
0.510839
0.510911
0.510911
0.510983
0.511055
0.511127
0.511199
0.511199
0.511271
0.511343
0.511415
0.511488
0.511488
0.51156
0.511632
0.511704
0.511777
0.511777
0.511849
0.511921
0.511994
0.512066
0.512066
0.512138
0.512211
0.512283
0.512356
0.512356
0.512429
0.512501
0.512574
0.512647
0.512647
0.512719
0.512792
0.512865
0.512938
0.512938
0.51301
0.513083
0.513156
0.513229
0.513229
0.513302
0.513375
0.513448
0.513521
0.513521
0.513594
0.513668
0.513741
0.513814
0.513814
0.513887
0.513961
0.514034
0.514107
0.514107
0.514181
0.514254
0.514327
0.514401
0.514401
0.514474
0.514548
0.514622
0.514695
0.514695
0.514769
0.514842
0.514916
0.51499
0.51499
0.515064
0.515137
0.515211
0.515285
0.515285
0.515359
0.515433
0.515507
0.515581
0.515581
0.515655
0.515729
0.515803
0.515877
0.515877
0.515952
0.516026
0.5161
0.516174
0.516174
0.516249
0.516323
0.516397
0.516472
0.516472
0.516546
0.516621
0.516695
0.51677
0.51677
0.516844
0.516919
0.516993
0.517068
0.517068
0.517143
0.517218
0.517292
0.517367
0.517367
0.517442
0.517517
0.517592
0.517667
0.517667
0.517742
0.517817
0.517892
0.517967
0.517967
0.518042
0.518117
0.518192
0.518267
0.518267
0.518343
0.518418
0.518493
0.518568
0.518568
0.518644
0.518719
0.518795
0.51887
0.51887
0.518946
0.519021
0.519097
0.519172
0.519172
0.519248
0.519324
0.519399
0.519475
0.519475
0.519551
0.519627
0.519702
0.519778
0.519778
0.519854
0.51993
0.520006
0.520082
0.520082
0.520158
0.520234
0.52031
0.520387
0.520387
0.520463
0.520539
0.520615
0.520691
0.520691
0.520768
0.520844
0.52092
0.520997
0.520997
0.521073
0.52115
0.521226
0.521303
0.521303
0.521379
0.521456
0.521533
0.521609
0.521609
0.521686
0.521763
0.52184
0.521916
0.521916
0.521993
0.52207
0.522147
0.522224
0.522224
0.522301
0.522378
0.522455
0.522532
0.522532
0.522609
0.522686
0.522763
0.522841
0.522841
0.522918
0.522995
0.523072
0.52315
0.52315
0.523227
0.523305
0.523382
0.52346
0.52346
0.523537
0.523615
0.523692
0.52377
0.52377
0.523847
0.523925
0.524003
0.524081
0.524081
0.524158
0.524236
0.524314
0.524392
0.524392
0.52447
0.524548
0.524626
0.524704
0.524704
0.524782
0.52486
0.524938
0.525016
0.525016
0.525094
0.525173
0.525251
0.525329
0.525329
0.525408
0.525486
0.525564
0.525643
0.525643
0.525721
0.5258
0.525878
0.525957
0.525957
0.526035
0.526114
0.526193
0.526271
0.526271
0.52635
0.526429
0.526508
0.526587
0.526587
0.526665
0.526744
0.526823
0.526902
0.526902
0.526981
0.52706
0.527139
0.527218
0.527218
0.527298
0.527377
0.527456
0.527535
0.527535
0.527614
0.527694
0.527773
0.527852
0.527852
0.527932
0.528011
0.528091
0.52817
0.52817
0.52825
0.528329
0.528409
0.528489
0.528489
0.528568
0.528648
0.528728
0.528808
0.528808
0.528887
0.528967
0.529047
0.529127
0.529127
0.529207
0.529287
0.529367
0.529447
0.529447
0.529527
0.529607
0.529688
0.529768
0.529768
0.529848
0.529928
0.530009
0.530089
0.530089
0.530169
0.53025
0.53033
0.530411
0.530411
0.530491
0.530572
0.530652
0.530733
0.530733
0.530813
0.530894
0.530975
0.531056
0.531056
0.531136
0.531217
0.531298
0.531379
0.531379