<?xml version="1.0"?>
<VTKFile type="UnstructuredGrid" version="0.1" byte_order="LittleEndian">
<UnstructuredGrid>
<Piece NumberOfPoints="5000" NumberOfCells="4000">
<PointData Scalars="Reaction 0">
<DataArray type="Float32" Name="Reaction 0" format="ascii">
0.382336
0.382336
0.382337
0.382337
0.382337
0.382337
0.382337
0.382337
0.382337
0.382337
0.382337
0.382338
0.382338
0.382338
0.382339
0.382339
0.382339
0.382339
0.38234
0.38234
0.38234
0.382341
0.382341
0.382342
0.382342
0.382342
0.382343
0.382343
0.382344
0.382345
0.382345
0.382345
0.382346
0.382347
0.382348
0.382348
0.382349
0.382349
0.38235
0.382351
0.382351
0.382352
0.382353
0.382354
0.382355
0.382355
0.382356
0.382357
0.382358
0.382359
0.382359
0.382361
0.382362
0.382363
0.382364
0.382364
0.382366
0.382367
0.382368
0.38237
0.38237
0.382371
0.382372
0.382374
0.382375
0.382375
0.382377
0.382378
0.38238
0.382382
0.382382
0.382383
0.382385
0.382387
0.382388
0.382388
0.38239
0.382392
0.382394
0.382395
0.382395
0.382397
0.382399
0.382401
0.382403
0.382403
0.382405
0.382407
0.382409
0.382411
0.382411
0.382413
0.382415
0.382417
0.38242
0.38242
0.382422
0.382424
0.382426
0.382429
0.382429
0.382431
0.382433
0.382436
0.382438
0.382438
0.38244
0.382443
0.382445
0.382448
0.382448
0.38245
0.382453
0.382456
0.382458
0.382458
0.382461
0.382464
0.382466
0.382469
0.382469
0.382472
0.382475
0.382478
0.38248
0.38248
0.382483
0.382486
0.382489
0.382492
0.382492
0.382495
0.382498
0.382501
0.382504
0.382504
0.382507
0.382511
0.382514
0.382517
0.382517
0.38252
0.382524
0.382527
0.38253
0.38253
0.382533
0.382537
0.38254
0.382544
0.382544
0.382547
0.382551
0.382554
0.382558
0.382558
0.382561
0.382565
0.382569
0.382572
0.382572
0.382576
0.38258
0.382583
0.382587
0.382587
0.382591
0.382595
0.382599
0.382603
0.382603
0.382607
0.382611
0.382615
0.382619
0.382619
0.382623
0.382627
0.382631
0.382635
0.382635
0.382639
0.382643
0.382647
0.382652
0.382652
0.382656
0.38266
0.382665
0.382669
0.382669
0.382673
0.382678
0.382682
0.382687
0.382687
0.382691
0.382696
0.3827
0.382705
0.382705
0.38271
0.382714
0.382719
0.382724
0.382724
0.382728
0.382733
0.382738
0.382743
0.382743
0.382747
0.382752
0.382757
0.382762
0.382762
0.382767
0.382772
0.382777
0.382782
0.382782
0.382787
0.382792
0.382798
0.382803
0.382803
0.382808
0.382813
0.382818
0.382824
0.382824
0.382829
0.382834
0.38284
0.382845
0.382845
0.382851
0.382856
0.382861
0.382867
0.382867
0.382873
0.382878
0.382884
0.382889
0.382889
0.382895
0.382901
0.382906
0.382912
0.382912
0.382918
0.382924
0.382929
0.382935
0.382935
0.382941
0.382947
0.382953
0.382959
0.382959
0.382965
0.382971
0.382977
0.382983
0.382983
0.382989
0.382995
0.383002
0.383008
0.383008
0.383014
0.38302
0.383027
0.383033
0.383033
0.383039
0.383046
0.383052
0.383059
0.383059
0.383065
0.383071
0.383078
0.383085
0.383085
0.383091
0.383098
0.383104
0.383111
0.383111
0.383118
0.383124
0.383131
0.383138
0.383138
0.383145
0.383152
0.383158
0.383165
0.383165
0.383172
0.383179
0.383186
0.383193
0.383193
0.3832
0.383207
0.383214
0.383222
0.383222
0.383229
0.383236
0.383243
0.38325
0.38325
0.383258
0.383265
0.383272
0.38328
0.38328
0.383287
0.383294
0.383302
0.383309
0.383309
0.383317
0.383324
0.383332
0.383339
0.383339
0.383347
0.383355
0.383362
0.38337
0.38337
0.383378
0.383385
0.383393
0.383401
0.383401
0.383409
0.383417
0.383425
0.383433
0.383433
0.383441
0.383449
0.383457
0.383465
0.383465
0.383473
0.383481
0.383489
0.383497
0.383497
0.383505
0.383513
0.383522
0.38353
0.38353
0.383538
0.383547
0.383555
0.383563
0.383563
0.383572
0.38358
0.383589
0.383597
0.383597
0.383606
0.383614
0.383623
0.383631
0.383631
0.38364
0.383649
0.383658
0.383666
0.383666
0.383675
0.383684
0.383693
0.383701
0.383701
0.38371
0.383719
0.383728
0.383737
0.383737
0.383746
0.383755
0.383764
0.383773
0.383773
0.383782
0.383792
0.383801
0.38381
0.38381
0.383819
0.383828
0.383838
0.383847
0.383847
0.383856
0.383866
0.383875
0.383884
0.383884
0.383894
0.383903
0.383913
0.383922
0.383922
0.383932
0.383942
0.383951
0.383961
0.383961
0.383971
0.38398
0.38399
0.384
0.384
0.38401
0.384019
0.384029
0.384039
0.384039
0.384049
0.384059
0.384069
0.384079
0.384079
0.384089
0.384099
0.384109
0.384119
0.384119
0.384129
0.38414
0.38415
0.38416
0.38416
0.38417
0.38418
0.384191
0.384201
0.384201
0.384212
0.384222
0.384232
0.384243
0.384243
0.384253
0.384264
0.384274
0.384285
0.384285
0.384296
0.384306
0.384317
0.384327
0.384327
0.384338
0.384349
0.38436
0.384371
0.384371
0.384381
0.384392
0.384403
0.384414
0.384414
0.384425
0.384436
0.384447
0.384458
0.384458
0.384469
0.38448
0.384491
0.384502
0.384502
0.384514
0.384525
0.384536
0.384547
0.384547
0.384559
0.38457
0.384581
0.384593
0.384593
0.384604
0.384615
0.384627
0.384638
0.384638
0.38465
0.384661
0.384673
0.384685
0.384685
0.384696
0.384708
0.38472
0.384731
0.384731
0.384743
0.384755
0.384767
0.384779
0.384779
0.38479
0.384802
0.384814
0.384826
0.384826
0.384838
0.38485
0.384862
0.384874
0.384874
0.384886
0.384898
0.384911
0.384923
0.384923
0.384935
0.384947
0.384959
0.384972
0.384972
0.384984
0.384996
0.385009
0.385021
0.385021
0.385034
0.385046
0.385059
0.385071
0.385071
0.385084
0.385096
0.385109
0.385122
0.385122
0.385134
0.385147
0.38516
0.385172
0.385172
0.385185
0.385198
0.385211
0.385224
0.385224
0.385237
0.38525
0.385263
0.385275
0.385275
0.385289
0.385302
0.385315
0.385328
0.385328
0.385341
0.385354
0.385367
0.38538
0.38538
0.385394
0.385407
0.38542
0.385434
0.385434
0.385447
0.38546
0.385474
0.385487
0.385487
0.385501
0.385514
0.385528
0.385541
0.385541
0.385555
0.385568
0.385582
0.385596
0.385596
0.385609
0.385623
0.385637
0.385651
0.385651
0.385665
0.385678
0.385692
0.385706
0.385706
0.38572
0.385734
0.385748
0.385762
0.385762
0.385776
0.38579
0.385804
0.385818
0.385818
0.385833
0.385847
0.385861
0.385875
0.385875
0.38589
0.385904
0.385918
0.385933
0.385933
0.385947
0.385961
0.385976
0.38599
0.38599
0.386005
0.386019
0.386034
0.386048
0.386048
0.386063
0.386078
0.386092
0.386107
0.386107
0.386122
0.386137
0.386151
0.386166
0.386166
0.386181
0.386196
0.386211
0.386226
0.386226
0.386241
0.386256
0.386271
0.386286
0.386286
0.386301
0.386316
0.386331
0.386346
0.386346
0.386361
0.386377
0.386392
0.386407
0.386407
0.386423
0.386438
0.386453
0.386469
0.386469
0.386484
0.3865
0.386515
0.386531
0.386531
0.386546
0.386562
0.386577
0.386593
0.386593
0.386609
0.386624
0.38664
0.386656
0.386656
0.386671
0.386687
0.386703
0.386719
0.386719
0.386735
0.386751
0.386767
0.386783
0.386783
0.386799
0.386815
0.386831
0.386847
0.386847
0.386863
0.386879
0.386895
0.386911
0.386911
0.386928
0.386944
0.38696
0.386976
0.386976
0.386993
0.387009
0.387026
0.387042
0.387042
0.387058
0.387075
0.387091
0.387108
0.387108
0.387125
0.387141
0.387158
0.387174
0.387174
0.387191
0.387208
0.387225
0.387241
0.387241
0.387258
0.387275
0.387292
0.387309
0.387309
0.387326
0.387343
0.38736
0.387377
0.387377
0.387394
0.387411
0.387428
0.387445
0.387445
0.387462
0.387479
0.387496
0.387514
0.387514
0.387531
0.387548
0.387565
0.387583
0.387583
0.3876
0.387618
0.387635
0.387652
0.387652
0.38767
0.387687
0.387705
0.387723
0.387723
0.38774
0.387758
0.387775
0.387793
0.387793
0.387811
0.387829
0.387846
0.387864
0.387864
0.387882
0.3879
0.387918
0.387936
0.387936
0.387954
0.387972
0.38799
0.388008
0.388008
0.388026
0.388044
0.388062
0.38808
0.38808
0.388098
0.388116
0.388135
0.388153
0.388153
0.388171
0.38819
0.388208
0.388226
0.388226
0.388245
0.388263
0.388282
0.3883
0.3883
0.388319
0.388337
0.388356
0.388374
0.388374
0.388393
0.388412
0.38843
0.388449
0.388449
0.388468
0.388487
0.388505
0.388524
0.388524
0.388543
0.388562
0.388581
0.3886
0.3886
0.388619
0.388638
0.388657
0.388676
0.388676
0.388695
0.388714
0.388733
0.388752
0.388752
0.388772
0.388791
0.38881
0.388829
0.388829
0.388849
0.388868
0.388887
0.388907
0.388907
0.388926
0.388946
0.388965
0.388985
0.388985
0.389004
0.389024
0.389043
0.389063
0.389063
0.389083
0.389102
0.389122
0.389142
0.389142
0.389162
0.389182
0.389201
0.389221
0.389221
0.389241
0.389261
0.389281
0.389301
0.389301
0.389321
0.389341
0.389361
0.389381
0.389381
0.389401
0.389421
0.389442
0.389462
0.389462
0.389482
0.389502
0.389523
0.389543
0.389543
0.389563
0.389584
0.389604
0.389625
0.389625
0.389645
0.389665
0.389686
0.389707
0.389707
0.389727
0.389748
0.389768
0.389789
0.389789
0.38981
0.38983
0.389851
0.389872
0.389872
0.389893
0.389914
0.389934
0.389955
0.389955
0.389976
0.389997
0.390018
0.390039
0.390039
0.39006
0.390081
0.390102
0.390124
0.390124
0.390145
0.390166
0.390187
0.390208
0.390208
0.39023
0.390251
0.390272
0.390294
0.390294
0.390315
0.390336
0.390358
0.390379
0.390379
0.390401
0.390422
0.390444
0.390465
0.390465
0.390487
0.390509
0.39053
0.390552
0.390552
0.390574
0.390596
0.390617
0.390639
0.390639
0.390661
0.390683
0.390705
0.390727
0.390727
0.390749
0.390771
0.390793
0.390815
0.390815
0.390837
0.390859
0.390881
0.390903
0.390903
0.390925
0.390947
0.39097
0.390992
0.390992
0.391014
0.391037
0.391059
0.391081
0.391081
0.391104
0.391126
0.391149
0.391171
0.391171
0.391194
0.391216
0.391239
0.391261
0.391261
0.391284
0.391307
0.391329
0.391352
0.391352
0.391375
0.391398
0.39142
0.391443
0.391443
0.391466
0.391489
0.391512
0.391535
0.391535
0.391558
0.391581
0.391604
0.391627
0.391627
0.39165
0.391673
0.391696
0.39172
0.39172
0.391743
0.391766
0.391789
0.391813
0.391813
0.391836
0.391859
0.391883
0.391906
0.391906
0.391929
0.391953
0.391976
0.392
0.392
0.392023
0.392047
0.392071
0.392094
0.392094
0.392118
0.392142
0.392165
0.392189
0.392189
0.392213
0.392237
0.392261
0.392284
0.392284
0.392308
0.392332
0.392356
0.39238
0.39238
0.392404
0.392428
0.392452
0.392476
0.392476
0.3925
0.392525
0.392549
0.392573
0.392573
0.392597
0.392622
0.392646
0.39267
0.39267
0.392694
0.392719
0.392743
0.392768
0.392768
0.392792
0.392817
0.392841
0.392866
0.392866
0.39289
0.392915
0.39294
0.392964
0.392964
0.392989
0.393014
0.393038
0.393063
0.393063
0.393088
0.393113
0.393138
0.393163
0.393163
0.393187
0.393212
0.393237
0.393262
0.393262
0.393287
0.393313
0.393338
0.393363
0.393363
0.393388
0.393413
0.393438
0.393463
0.393463
0.393489
0.393514
0.393539
0.393565
0.393565
0.39359
0.393616
0.393641
0.393666
0.393666
0.393692
0.393717
0.393743
0.393769
0.393769
0.393794
0.39382
0.393845
0.393871
0.393871
0.393897
0.393923
0.393948
0.393974
0.393974
0.394
0.394026
0.394052
0.394078
0.394078
0.394104
0.39413
0.394156
0.394182
0.394182
0.394208
0.394234
0.39426
0.394286
0.394286
0.394312
0.394338
0.394365
0.394391
0.394391
0.394417
0.394444
0.39447
0.394496
0.394496
0.394523
0.394549
0.394576
0.394602
0.394602
0.394629
0.394655
0.394682
0.394708
0.394708
0.394735
0.394762
0.394788
0.394815
0.394815
0.394842
0.394869
0.394895
0.394922
0.394922
0.394949
0.394976
0.395003
0.39503
0.39503
0.395057
0.395084
0.395111
0.395138
0.395138
0.395165
0.395192
0.395219
0.395246
0.395246
0.395274
0.395301
0.395328
0.395355
0.395355
0.395383
0.39541
0.395437
0.395465
0.395465
0.395492
0.39552
0.395547
0.395575
0.395575
0.395602
0.39563
0.395657
0.395685
0.395685
0.395713
0.39574
0.395768
0.395796
0.395796
0.395824
0.395851
0.395879
0.395907
0.395907
0.395935
0.395963
0.395991
0.396019
0.396019
0.396047
0.396075
0.396103
0.396131
0.396131
0.396159
0.396187
0.396215
0.396244
0.396244
0.396272
0.3963
0.396328
0.396357
0.396357
0.396385
0.396413
0.396442
0.39647
0.39647
0.396499
0.396527
0.396556
0.396584
0.396584
0.396613
0.396641
0.39667
0.396699
0.396699
0.396727
0.396756
0.396785
0.396813
0.396813
0.396842
0.396871
0.3969
0.396929
0.396929
0.396958
0.396987
0.397016
0.397045
0.397045
0.397074
0.397103
0.397132
0.397161
0.397161
0.39719
0.397219
0.397248
0.397278
0.397278
0.397307
0.397336
0.397365
0.397395
0.397395
0.397424
0.397453
0.397483
0.397512
0.397512
0.397542
0.397571
0.397601
0.39763
0.39763
0.39766
0.39769
0.397719
0.397749
0.397749
0.397779
0.397808
0.397838
0.397868
0.397868
0.397898
0.397928
0.397958
0.397987
0.397987
0.398017
0.398047
0.398077
0.398107
0.398107
0.398137
0.398167
0.398198
0.398228
0.398228
0.398258
0.398288
0.398318
0.398348
0.398348
0.398379
0.398409
0.398439
0.39847
0.39847
0.3985
0.398531
0.398561
0.398591
0.398591
0.398622
0.398652
0.398683
0.398714
0.398714
0.398744
0.398775
0.398806
0.398836
0.398836
0.398867
0.398898
0.398929
0.398959
0.398959
0.39899
0.399021
0.399052
0.399083
0.399083
0.399114
0.399145
0.399176
0.399207
0.399207
0.399238
0.399269
0.3993
0.399331
0.399331
0.399363
0.399394
0.399425
0.399456
0.399456
0.399488
0.399519
0.39955
0.399582
0.399582
0.399613
0.399644
0.399676
0.399707
0.399707
0.399739
0.39977
0.399802
0.399834
0.399834
0.399865
0.399897
0.399929
0.39996
0.39996
0.399992
0.400024
0.400056
0.400088
0.400088
0.400119
0.400151
0.400183
0.400215
0.400215
0.400247
0.400279
0.400311
0.400343
0.400343
0.400375
0.400407
0.40044
0.400472
0.400472
0.400504
0.400536
0.400568
0.400601
0.400601
0.400633
0.400665
0.400698
0.40073
0.40073
0.400763
0.400795
0.400828
0.40086
0.40086
0.400893
0.400925
0.400958
0.40099
0.40099
0.401023
0.401056
0.401089
0.401121
0.401121
0.401154
0.401187
0.40122
0.401252
0.401252
0.401285
0.401318
0.401351
0.401384
0.401384
0.401417
0.40145
0.401483
0.401516
0.401516
0.401549
0.401583
0.401616
0.401649
0.401649
0.401682
0.401715
0.401749
0.401782
0.401782
0.401815
0.401849
0.401882
0.401916
0.401916
0.401949
0.401983
0.402016
0.40205
0.40205
0.402083
0.402117
0.40215
0.402184
0.402184
0.402218
0.402251
0.402285
0.402319
0.402319
0.402353
0.402386
0.40242
0.402454
0.402454
0.402488
0.402522
0.402556
0.40259
0.40259
0.402624
0.402658
0.402692
0.402726
0.402726
0.40276
0.402795
0.402829
0.402863
0.402863
0.402897
0.402931
0.402966
0.403
0.403
0.403034
0.403069
0.403103
0.403138
0.403138
0.403172
0.403207
0.403241
0.403276
0.403276
0.40331
0.403345
0.40338
0.403414
0.403414
0.403449
0.403484
0.403518
0.403553
0.403553
0.403588
0.403623
0.403658
0.403693
0.403693
0.403728
0.403763
0.403798
0.403833
0.403833
0.403868
0.403903
0.403938
0.403973
0.403973
0.404008
0.404043
0.404078
0.404114
0.404114
0.404149
0.404184
0.404219
0.404255
0.404255
0.40429
0.404326
0.404361
0.404397
0.404397
0.404432
0.404468
0.404503
0.404539
0.404539
0.404574
0.40461
0.404646
0.404681
0.404681
0.404717
0.404753
0.404788
0.404824
0.404824
0.40486
0.404896
0.404932
0.404968
0.404968
0.405004
0.40504
0.405076
0.405112
0.405112
0.405148
0.405184
0.40522
0.405256
0.405256
0.405292
0.405328
0.405365
0.405401
0.405401
0.405437
0.405474
0.40551
0.405546
0.405546
0.405583
0.405619
0.405656
0.405692
0.405692
0.405729
0.405765
0.405802
0.405838
0.405838
0.405875
0.405912
0.405948
0.405985
0.405985
0.406022
0.406058
0.406095
0.406132
0.406132
0.406169
0.406206
0.406243
0.40628
0.40628
0.406317
0.406354
0.406391
0.406428
0.406428
0.406465
0.406502
0.406539
0.406576
0.406576
0.406613
0.40665
0.406688
0.406725
0.406725
0.406762
0.4068
0.406837
0.406874
0.406874
0.406912
0.406949
0.406987
0.407024
0.407024
0.407062
0.407099
0.407137
0.407174
0.407174
0.407212
0.40725
0.407287
0.407325
0.407325
0.407363
0.407401
0.407439
0.407476
0.407476
0.407514
0.407552
0.40759
0.407628
0.407628
0.407666
0.407704
0.407742
0.40778
0.40778
0.407818
0.407856
0.407894
0.407933
0.407933
0.407971
0.408009
0.408047
0.408086
0.408086
0.408124
0.408162
0.408201
0.408239
0.408239
0.408277
0.408316
0.408354
0.408393
0.408393
0.408431
0.40847
0.408509
0.408547
0.408547
0.408586
0.408625
0.408663
0.408702
0.408702
0.408741
0.40878
0.408818
0.408857
0.408857
0.408896
0.408935
0.408974
0.409013
0.409013
0.409052
0.409091
0.40913
0.409169
0.409169
0.409208
0.409247
0.409287
0.409326
0.409326
0.409365
0.409404
0.409443
0.409483
0.409483
0.409522
0.409561
0.409601
0.40964
0.40964
0.40968
0.409719
0.409759
0.409798
0.409798
0.409838
0.409877
0.409917
0.409957
0.409957
0.409996
0.410036
0.410076
0.410116
0.410116
0.410155
0.410195
0.410235
0.410275
0.410275
0.410315
0.410355
0.410395
0.410435
0.410435
0.410475
0.410515
0.410555
0.410595
0.410595
0.410635
0.410675
0.410715
0.410755
0.410755
0.410796
0.410836
0.410876
0.410917
0.410917
0.410957
0.410997
0.411038
0.411078
0.411078
0.411119
0.411159
0.4112
0.41124
0.41124
0.411281
0.411321
0.411362
0.411403
0.411403
0.411443
0.411484
0.411525
0.411566
0.411566
0.411606
0.411647
0.411688
0.411729
0.411729
0.41177
0.411811
0.411852
0.411893
0.411893
0.411934
0.411975
0.412016
0.412057
0.412057
0.412098
0.412139
0.41218
0.412222
0.412222
0.412263
0.412304
0.412346
0.412387
0.412387
0.412428
0.41247
0.412511
0.412553
0.412553
0.412594
0.412635
0.412677
0.412719
0.412719
0.41276
0.412802
0.412843
0.412885
0.412885
0.412927
0.412969
0.41301
0.413052
0.413052
0.413094
0.413136
0.413178
0.413219
0.413219
0.413261
0.413303
0.413345
0.413387
0.413387
0.413429
0.413471
0.413514
0.413556
0.413556
0.413598
0.41364
0.413682
0.413724
0.413724
0.413767
0.413809
0.413851
0.413894
0.413894
0.413936
0.413978
0.414021
0.414063
0.414063
0.414106
0.414148
0.414191
0.414233
0.414233
0.414276
0.414319
0.414361
0.414404
0.414404
0.414447
0.41449
0.414532
0.414575
0.414575
0.414618
0.414661
0.414704
0.414747
0.414747
0.41479
0.414832
0.414875
0.414918
0.414918
0.414962
0.415005
0.415048
0.415091
0.415091
0.415134
0.415177
0.41522
0.415264
0.415264
0.415307
0.41535
0.415394
0.415437
0.415437
0.41548
0.415524
0.415567
0.415611
0.415611
0.415654
0.415698
0.415741
0.415785
0.415785
0.415828
0.415872
0.415916
0.41596
0.41596
0.416003
0.416047
0.416091
0.416135
0.416135
0.416178
0.416222
0.416266
0.41631
0.41631
0.416354
0.416398
0.416442
0.416486
0.416486
0.41653
0.416574
0.416618
0.416663
0.416663
0.416707
0.416751
0.416795
0.416839
0.416839
0.416884
0.416928
0.416972
0.417017
0.417017
0.417061
0.417106
0.41715
0.417194
0.417194
0.417239
0.417284
0.417328
0.417373
0.417373
0.417417
0.417462
0.417507
0.417551
0.417551
0.417596
0.417641
0.417686
0.41773
0.41773
0.417775
0.41782
0.417865
0.41791
0.41791
0.417955
0.418
0.418045
0.41809
0.41809
0.418135
0.41818
0.418225
0.418271
0.418271
0.418316
0.418361
0.418406
0.418451
0.418451
0.418497
0.418542
0.418587
0.418633
0.418633
0.418678
0.418724
0.418769
0.418815
0.418815
0.41886
0.418906
0.418951
0.418997
0.418997
0.419043
0.419088
0.419134
0.41918
0.41918
0.419225
0.419271
0.419317
0.419363
0.419363
0.419409
0.419455
0.4195
0.419546
0.419546
0.419592
0.419638
0.419684
0.41973
0.41973
0.419777
0.419823
0.419869
0.419915
0.419915
0.419961
0.420007
0.420054
0.4201
0.4201
0.420146
0.420193
0.420239
0.420285
0.420285
0.420332
0.420378
0.420425
0.420471
0.420471
0.420518
0.420564
0.420611
0.420658
0.420658
0.420704
0.420751
0.420798
0.420844
0.420844
0.420891
0.420938
0.420985
0.421032
0.421032
0.421078
0.421125
0.421172
0.421219
0.421219
0.421266
0.421313
0.42136
0.421407
0.421407
0.421454
0.421501
0.421549
0.421596
0.421596
0.421643
0.42169
0.421738
0.421785
0.421785
0.421832
0.421879
0.421927
0.421974
0.421974
0.422022
0.422069
0.422117
0.422164
0.422164
0.422212
0.422259
0.422307
0.422355
0.422355
0.422402
0.42245
0.422498
0.422545
0.422545
0.422593
0.422641
0.422689
0.422737
0.422737
0.422784
0.422832
0.42288
0.422928
0.422928
0.422976
0.423024
0.423072
0.42312
0.42312
0.423168
0.423217
0.423265
0.423313
0.423313
0.423361
0.423409
0.423458
0.423506
0.423506
0.423554
0.423603
0.423651
0.423699
0.423699
0.423748
0.423796
0.423845
0.423893
0.423893
0.423942
0.423991
0.424039
0.424088
0.424088
0.424136
0.424185
0.424234
0.424283
0.424283
0.424331
0.42438
0.424429
0.424478
0.424478
0.424527
0.424576
0.424625
0.424674
0.424674
0.424723
0.424772
0.424821
0.42487
0.42487
0.424919
0.424968
0.425017
0.425066
0.425066
0.425116
0.425165
0.425214
0.425264
0.425264
0.425313
0.425362
0.425412
0.425461
0.425461
0.42551
0.42556
0.425609
0.425659
0.425659
0.425709
0.425758
0.425808
0.425857
0.425857
0.425907
0.425957
0.426007
0.426056
0.426056
0.426106
0.426156
0.426206
0.426256
0.426256
0.426305
0.426355
0.426405
0.426455
0.426455
0.426505
0.426555
0.426605
0.426656
0.426656
0.426706
0.426756
0.426806
0.426856
0.426856
0.426906
0.426957
0.427007
0.427057
0.427057
0.427108
0.427158
0.427208
0.427259
0.427259
0.427309
0.42736
0.42741
0.427461
0.427461
0.427511
0.427562
0.427613
0.427663
0.427663
0.427714
0.427765
0.427815
0.427866
0.427866
0.427917
0.427968
0.428019
0.42807
0.42807
0.42812
0.428171
0.428222
0.428273
0.428273
0.428324
0.428375
0.428426
0.428478
0.428478
0.428529
0.42858
0.428631
0.428682
0.428682
0.428733
0.428785
0.428836
0.428887
0.428887
0.428939
0.42899
0.429042
0.429093
0.429093
0.429144
0.429196
0.429247
0.429299
0.429299
0.429351
0.429402
0.429454
0.429505
0.429505
0.429557
0.429609
0.429661
0.429712
0.429712
0.429764
0.429816
0.429868
0.42992
0.42992
0.429972
0.430024
0.430076
0.430128
0.430128
0.43018
0.430232
0.430284
0.430336
0.430336
0.430388
0.43044
0.430492
0.430545
0.430545
0.430597
0.430649
0.430701
0.430754
0.430754
0.430806
0.430858
0.430911
0.430963
0.430963
0.431016
0.431068
0.431121
0.431173
0.431173
0.431226
0.431279
0.431331
0.431384
0.431384
0.431437
0.431489
0.431542
0.431595
0.431595
0.431648
0.4317
0.431753
0.431806
0.431806
0.431859
0.431912
0.431965
0.432018
0.432018
0.432071
0.432124
0.432177
0.43223
0.43223
0.432283
0.432337
0.43239
0.432443
0.432443
0.432496
0.43255
0.432603
0.432656
0.432656
0.43271
0.432763
0.432816
0.43287
0.43287
0.432923
0.432977
0.43303
0.433084
0.433084
0.433138
0.433191
0.433245
0.433298
0.433298
0.433352
0.433406
0.43346
0.433513
0.433513
0.433567
0.433621
0.433675
0.433729
0.433729
0.433783
0.433837
0.433891
0.433945
0.433945
0.433999
0.434053
0.434107
0.434161
0.434161
0.434215
0.434269
0.434324
0.434378
0.434378
0.434432
0.434486
0.434541
0.434595
0.434595
0.434649
0.434704
0.434758
0.434813
0.434813
0.434867
0.434922
0.434976
0.435031
0.435031
0.435085
0.43514
0.435195
0.435249
0.435249
0.435304
0.435359
0.435413
0.435468
0.435468
0.435523
0.435578
0.435633
0.435688
0.435688
0.435743
0.435798
0.435853
0.435908
0.435908
0.435963
0.436018
0.436073
0.436128
0.436128
0.436183
0.436238
0.436293
0.436349
0.436349
0.436404
0.436459
0.436515
0.43657
0.43657
0.436625
0.436681
0.436736
0.436792
0.436792
0.436847
0.436903
0.436958
0.437014
0.437014
0.437069
0.437125
0.437181
0.437236
0.437236
0.437292
0.437348
0.437403
0.437459
0.437459
0.437515
0.437571
0.437627
0.437683
0.437683
0.437739
0.437795
0.437851
0.437907
0.437907
0.437963
0.438019
0.438075
0.438131
0.438131
0.438187
0.438243
0.438299
0.438356
0.438356
0.438412
0.438468
0.438525
0.438581
0.438581
0.438637
0.438694
0.43875
0.438807
0.438807
0.438863
0.43892
0.438976
0.439033
0.439033
0.439089
0.439146
0.439203
0.439259
0.439259
0.439316
0.439373
0.43943
0.439486
0.439486
0.439543
0.4396
0.439657
0.439714
0.439714
0.439771
0.439828
0.439885
0.439942
0.439942
0.439999
0.440056
0.440113
0.44017
0.44017
0.440227
0.440285
0.440342
0.440399
0.440399
0.440456
0.440514
0.440571
0.440628
0.440628
0.440686
0.440743
0.4408
0.440858
0.440858
0.440915
0.440973
0.441031
0.441088
0.441088
0.441146
0.441203
0.441261
0.441319
0.441319
0.441376
0.441434
0.441492
0.44155
0.44155
0.441608
0.441665
0.441723
0.441781
0.441781
0.441839
0.441897
0.441955
0.442013
0.442013
0.442071
0.442129
0.442187
0.442246
0.442246
0.442304
0.442362
0.44242
0.442478
0.442478
0.442537
0.442595
0.442653
0.442712
0.442712
0.44277
0.442828
0.442887
0.442945
0.442945
0.443004
0.443062
0.443121
0.44318
0.44318
0.443238
0.443297
0.443355
0.443414
0.443414
0.443473
0.443532
0.44359
0.443649
0.443649
0.443708
0.443767
0.443826
0.443885
0.443885
0.443944
0.444003
0.444062
0.444121
0.444121
0.44418
0.444239
0.444298
0.444357
0.444357
0.444416
0.444475
0.444535
0.444594
0.444594
0.444653
0.444712
0.444772
0.444831
0.444831
0.444891
0.44495
0.445009
0.445069
0.445069
0.445128
0.445188
0.445247
0.445307
0.445307
0.445367
0.445426
0.445486
0.445546
0.445546
0.445605
0.445665
0.445725
0.445785
0.445785
0.445845
0.445904
0.445964
0.446024
0.446024
0.446084
0.446144
0.446204
0.446264
0.446264
0.446324
0.446384
0.446445
0.446505
0.446505
0.446565
0.446625
0.446685
0.446746
0.446746
0.446806
0.446866
0.446926
0.446987
0.446987
0.447047
0.447108
0.447168
0.447229
0.447229
0.447289
0.44735
0.44741
0.447471
0.447471
0.447531
0.447592
0.447653
0.447713
0.447713
0.447774
0.447835
0.447896
0.447956
0.447956
0.448017
0.448078
0.448139
0.4482
0.4482
0.448261
0.448322
0.448383
0.448444
0.448444
0.448505
0.448566
0.448627
0.448688
0.448688
0.44875
0.448811
0.448872
0.448933
0.448933
0.448995
0.449056
0.449117
0.449179
0.449179
0.44924
0.449301
0.449363
0.449424
0.449424
0.449486
0.449547
0.449609
0.449671
0.449671
0.449732
0.449794
0.449856
0.449917
0.449917
0.449979
0.450041
0.450103
0.450164
0.450164
0.450226
0.450288
0.45035
0.450412
0.450412
0.450474
0.450536
0.450598
0.45066
0.45066
0.450722
0.450784
0.450846
0.450908
0.450908
0.45097
0.451033
0.451095
0.451157
0.451157
0.451219
0.451282
0.451344
0.451407
0.451407
0.451469
0.451531
0.451594
0.451656
0.451656
0.451719
0.451781
0.451844
0.451906
0.451906
0.451969
0.452032
0.452094
0.452157
0.452157
0.45222
0.452283
0.452345
0.452408
0.452408
0.452471
0.452534
0.452597
0.45266
0.45266
0.452723
0.452786
0.452849
0.452912
0.452912
0.452975
0.453038
0.453101
0.453164
0.453164
0.453227
0.453291
0.453354
0.453417
0.453417
0.45348
0.453544
0.453607
0.453671
0.453671
0.453734
0.453797
0.453861
0.453924
0.453924
0.453988
0.454051
0.454115
0.454179
0.454179
0.454242
0.454306
0.45437
0.454433
0.454433
0.454497
0.454561
0.454625
0.454688
0.454688
0.454752
0.454816
0.45488
0.454944
0.454944
0.455008
0.455072
0.455136
0.4552
0.4552
0.455264
0.455328
0.455392
0.455456
0.455456
0.455521
0.455585
0.455649
0.455713
0.455713
0.455778
0.455842
0.455906
0.455971
0.455971
0.456035
0.4561
0.456164
0.456228
0.456228
0.456293
0.456358
0.456422
0.456487
0.456487
0.456551
0.456616
0.456681
0.456745
0.456745
0.45681
0.456875
0.45694
0.457005
0.457005
0.457069
0.457134
0.457199
0.457264
0.457264
0.457329
0.457394
0.457459
0.457524
0.457524
0.457589
0.457654
0.457719
0.457785
0.457785
0.45785
0.457915
0.45798
0.458046
0.458046
0.458111
0.458176
0.458242
0.458307
0.458307
0.458372
0.458438
0.458503
0.458569
0.458569
0.458634
0.4587
0.458765
0.458831
0.458831
0.458897
0.458962
0.459028
0.459094
0.459094
0.459159
0.459225
0.459291
0.459357
0.459357
0.459423
0.459489
0.459555
0.45962
0.45962
0.459686
0.459752
0.459818
0.459884
0.459884
0.459951
0.460017
0.460083
0.460149
0.460149
0.460215
0.460281
0.460348
0.460414
0.460414
0.46048
0.460547
0.460613
0.460679
0.460679
0.460746
0.460812
0.460879
0.460945
0.460945
0.461012
0.461078
0.461145
0.461211
0.461211
0.461278
0.461345
0.461411
0.461478
0.461478
0.461545
0.461612
0.461678
0.461745
0.461745
0.461812
0.461879
0.461946
0.462013
0.462013
0.46208
0.462147
0.462214
0.462281
0.462281
0.462348
0.462415
0.462482
0.462549
0.462549
0.462617
0.462684
0.462751
0.462818
0.462818
0.462886
0.462953
0.46302
0.463088
0.463088
0.463155
0.463223
0.46329
0.463358
0.463358
0.463425
0.463493
0.46356
0.463628
0.463628
0.463696
0.463763
0.463831
0.463899
0.463899
0.463966
0.464034
0.464102
0.46417
0.46417
0.464238
0.464306
0.464374
0.464442
0.464442
0.46451
0.464578
0.464646
0.464714
0.464714
0.464782
0.46485
0.464918
0.464986
0.464986
0.465054
0.465123
0.465191
0.465259
0.465259
0.465327
0.465396
0.465464
0.465533
0.465533
0.465601
0.465669
0.465738
0.465806
0.465806
0.465875
0.465943
0.466012
0.466081
0.466081
0.466149
0.466218
0.466287
0.466355
0.466355
0.466424
0.466493
0.466562
0.466631
0.466631
0.4667
0.466768
0.466837
0.466906
0.466906
0.466975
0.467044
0.467113
0.467182
0.467182
0.467252
0.467321
0.46739
0.467459
0.467459
0.467528
0.467597
0.467667
0.467736
0.467736
0.467805
0.467875
0.467944
0.468013
0.468013
0.468083
0.468152
0.468222
0.468291
0.468291
0.468361
0.46843
0.4685
0.46857
0.46857
0.468639
0.468709
0.468779
0.468848
0.468848
0.468918
0.468988
0.469058
0.469128
0.469128
0.469197
0.469267
0.469337
0.469407
0.469407
0.469477
0.469547
0.469617
0.469687
0.469687
0.469758
0.469828
0.469898
0.469968
0.469968
0.470038
0.470108
0.470179
0.470249
0.470249
0.470319
0.47039
0.47046
0.47053
0.47053
0.470601
0.470671
0.470742
0.470812
0.470812
0.470883
0.470953
0.471024
0.471095
0.471095
0.471165
0.471236
0.471307
0.471378
0.471378
0.471448
0.471519
0.47159
0.471661
0.471661
0.471732
0.471803
0.471874
0.471944
0.471944
0.472015
0.472086
0.472158
0.472229
0.472229
0.4723
0.472371
0.472442
0.472513
0.472513
0.472584
0.472656
0.472727
0.472798
0.472798
0.47287
0.472941
0.473012
0.473084
0.473084
0.473155
0.473227
0.473298
0.47337
0.47337
0.473441
0.473513
0.473584
0.473656
0.473656
0.473728
0.473799
0.473871
0.473943
0.473943
0.474015
0.474086
0.474158
0.47423
0.47423
0.474302
0.474374
0.474446
0.474518
0.474518
0.47459
0.474662
0.474734
0.474806
0.474806
0.474878
0.47495
0.475022
0.475095
0.475095
0.475167
0.475239
0.475311
0.475384
0.475384
0.475456
0.475528
0.475601
0.475673
0.475673
0.475746
0.475818
0.475891
0.475963
0.475963
0.476036
0.476108
0.476181
0.476254
0.476254
0.476326
0.476399
0.476472
0.476544
0.476544
0.476617
0.47669
0.476763
0.476836
0.476836
0.476909
0.476982
0.477055
0.477128
0.477128
0.477201
0.477274
0.477347
0.47742
0.47742
0.477493
0.477566
0.477639
0.477712
0.477712
0.477786
0.477859
0.477932
0.478006
0.478006
0.478079
0.478152
0.478226
0.478299
0.478299
0.478373
0.478446
0.47852
0.478593
0.478593
0.478667
0.47874
0.478814
0.478888
0.478888
0.478961
0.479035
0.479109
0.479182
0.479182
0.479256
0.47933
0.479404
0.479478
0.479478
0.479552
0.479626
0.4797
0.479774
0.479774
0.479848
0.479922
0.479996
0.48007
0.48007
0.480144
0.480218
0.480292
0.480366
0.480366
0.480441
0.480515
0.480589
0.480664
0.480664
0.480738
0.480812
0.480887
0.480961
0.480961
0.481036
0.48111
0.481185
0.481259
0.481259
0.481334
0.481408
0.481483
0.481558
0.481558
0.481632
0.481707
0.481782
0.481857
0.481857
0.481931
0.482006
0.482081
0.482156
0.482156
0.482231
0.482306
0.482381
0.482456
0.482456
0.482531
0.482606
0.482681
0.482756
0.482756
0.482831
0.482906
0.482982
0.483057
0.483057
0.483132
0.483207
0.483283
0.483358
0.483358
0.483433
0.483509
0.483584
0.48366
0.48366
0.483735
0.483811
0.483886
0.483962
0.483962
0.484037
0.484113
0.484189
0.484264
0.484264