<?xml version="1.0"?>
<VTKFile type="UnstructuredGrid" version="0.1" byte_order="LittleEndian">
<UnstructuredGrid>
<Piece NumberOfPoints="5000" NumberOfCells="4000">
<PointData Scalars="Reaction 0">
<DataArray type="Float32" Name="Reaction 0" format="ascii">
0.588865
0.588865
0.588865
0.588865
0.588865
0.588865
0.588866
0.588866
0.588866
0.588866
0.588866
0.588866
0.588866
0.588866
0.588866
0.588866
0.588866
0.588866
0.588866
0.588867
0.588867
0.588867
0.588867
0.588867
0.588867
0.588867
0.588867
0.588868
0.588868
0.588868
0.588868
0.588868
0.588868
0.588869
0.588869
0.588869
0.588869
0.588869
0.58887
0.58887
0.58887
0.58887
0.588871
0.588871
0.588871
0.588871
0.588872
0.588872
0.588872
0.588873
0.588873
0.588873
0.588873
0.588874
0.588874
0.588874
0.588874
0.588875
0.588875
0.588876
0.588876
0.588876
0.588877
0.588877
0.588877
0.588877
0.588878
0.588878
0.588879
0.588879
0.588879
0.58888
0.58888
0.588881
0.588882
0.588882
0.588882
0.588883
0.588883
0.588884
0.588884
0.588884
0.588885
0.588885
0.588886
0.588886
0.588887
0.588887
0.588888
0.588889
0.588889
0.588889
0.58889
0.588891
0.588891
0.588891
0.588892
0.588893
0.588893
0.588894
0.588894
0.588895
0.588896
0.588896
0.588897
0.588897
0.588898
0.588899
0.588899
0.5889
0.5889
0.588901
0.588902
0.588902
0.588903
0.588903
0.588904
0.588905
0.588906
0.588907
0.588907
0.588908
0.588908
0.588909
0.58891
0.58891
0.588911
0.588912
0.588913
0.588914
0.588914
0.588915
0.588916
0.588917
0.588918
0.588918
0.588919
0.58892
0.588921
0.588922
0.588922
0.588923
0.588924
0.588925
0.588926
0.588926
0.588927
0.588928
0.588929
0.58893
0.58893
0.588931
0.588932
0.588933
0.588934
0.588934
0.588935
0.588937
0.588938
0.588939
0.588939
0.58894
0.588941
0.588942
0.588943
0.588943
0.588945
0.588946
0.588947
0.588948
0.588948
0.588949
0.588951
0.588952
0.588953
0.588953
0.588954
0.588956
0.588957
0.588958
0.588958
0.58896
0.588961
0.588962
0.588964
0.588964
0.588965
0.588966
0.588968
0.588969
0.588969
0.58897
0.588972
0.588973
0.588974
0.588974
0.588976
0.588977
0.588979
0.58898
0.58898
0.588982
0.588983
0.588984
0.588986
0.588986
0.588987
0.588989
0.58899
0.588992
0.588992
0.588993
0.588995
0.588996
0.588998
0.588998
0.588999
0.589001
0.589003
0.589004
0.589004
0.589006
0.589007
0.589009
0.589011
0.589011
0.589012
0.589014
0.589015
0.589017
0.589017
0.589019
0.58902
0.589022
0.589024
0.589024
0.589025
0.589027
0.589029
0.589031
0.589031
0.589032
0.589034
0.589036
0.589038
0.589038
0.589039
0.589041
0.589043
0.589045
0.589045
0.589046
0.589048
0.58905
0.589052
0.589052
0.589054
0.589056
0.589057
0.589059
0.589059
0.589061
0.589063
0.589065
0.589067
0.589067
0.589069
0.589071
0.589073
0.589074
0.589074
0.589076
0.589078
0.58908
0.589082
0.589082
0.589084
0.589086
0.589088
0.58909
0.58909
0.589092
0.589094
0.589096
0.589098
0.589098
0.5891
0.589102
0.589105
0.589107
0.589107
0.589109
0.589111
0.589113
0.589115
0.589115
0.589117
0.589119
0.589121
0.589124
0.589124
0.589126
0.589128
0.58913
0.589132
0.589132
0.589134
0.589137
0.589139
0.589141
0.589141
0.589143
0.589146
0.589148
0.58915
0.58915
0.589152
0.589155
0.589157
0.589159
0.589159
0.589161
0.589164
0.589166
0.589168
0.589168
0.589171
0.589173
0.589175
0.589178
0.589178
0.58918
0.589183
0.589185
0.589187
0.589187
0.58919
0.589192
0.589195
0.589197
0.589197
0.5892
0.589202
0.589204
0.589207
0.589207
0.589209
0.589212
0.589214
0.589217
0.589217
0.589219
0.589222
0.589225
0.589227
0.589227
0.58923
0.589232
0.589235
0.589237
0.589237
0.58924
0.589243
0.589245
0.589248
0.589248
0.58925
0.589253
0.589256
0.589258
0.589258
0.589261
0.589264
0.589266
0.589269
0.589269
0.589272
0.589274
0.589277
0.58928
0.58928
0.589283
0.589285
0.589288
0.589291
0.589291
0.589294
0.589296
0.589299
0.589302
0.589302
0.589305
0.589308
0.589311
0.589313
0.589313
0.589316
0.589319
0.589322
0.589325
0.589325
0.589328
0.589331
0.589333
0.589336
0.589336
0.589339
0.589342
0.589345
0.589348
0.589348
0.589351
0.589354
0.589357
0.58936
0.58936
0.589363
0.589366
0.589369
0.589372
0.589372
0.589375
0.589378
0.589381
0.589384
0.589384
0.589387
0.58939
0.589393
0.589396
0.589396
0.5894
0.589403
0.589406
0.589409
0.589409
0.589412
0.589415
0.589418
0.589421
0.589421
0.589425
0.589428
0.589431
0.589434
0.589434
0.589437
0.589441
0.589444
0.589447
0.589447
0.58945
0.589454
0.589457
0.58946
0.58946
0.589463
0.589467
0.58947
0.589473
0.589473
0.589477
0.58948
0.589483
0.589487
0.589487
0.58949
0.589493
0.589497
0.5895
0.5895
0.589504
0.589507
0.58951
0.589514
0.589514
0.589517
0.58952
0.589524
0.589527
0.589527
0.58953
0.589534
0.589537
0.58954
0.58954
0.589544
0.589547
0.58955
0.589553
0.589553
0.589556
0.589559
0.589561
0.589564
0.589564
0.589567
0.58957
0.589572
0.589575
0.589575
0.589577
0.589579
0.589582
0.589584
0.589584
0.589586
0.589588
0.589591
0.589593
0.589593
0.589595
0.589597
0.589599
0.589601
0.589601
0.589603
0.589606
0.589608
0.58961
0.58961
0.589612
0.589614
0.589616
0.589618
0.589618
0.58962
0.589623
0.589625
0.589627
0.589627
0.589629
0.589631
0.589633
0.589636
0.589636
0.589638
0.58964
0.589642
0.589644
0.589644
0.589647
0.589649
0.589651
0.589653
0.589653
0.589655
0.589658
0.58966
0.589662
0.589662
0.589664
0.589667
0.589669
0.589671
0.589671
0.589673
0.589676
0.589678
0.58968
0.58968
0.589683
0.589685
0.589687
0.589689
0.589689
0.589692
0.589694
0.589696
0.589699
0.589699
0.589701
0.589703
0.589706
0.589708
0.589708
0.58971
0.589713
0.589715
0.589717
0.589717
0.58972
0.589722
0.589725
0.589727
0.589727
0.589729
0.589732
0.589734
0.589737
0.589737
0.589739
0.589741
0.589744
0.589746
0.589746
0.589749
0.589751
0.589754
0.589756
0.589756
0.589759
0.589761
0.589763
0.589766
0.589766
0.589768
0.589771
0.589773
0.589776
0.589776
0.589778
0.589781
0.589783
0.589786
0.589786
0.589788
0.589791
0.589794
0.589796
0.589796
0.589799
0.589801
0.589804
0.589806
0.589806
0.589809
0.589811
0.589814
0.589817
0.589817
0.589819
0.589822
0.589824
0.589827
0.589827
0.58983
0.589832
0.589835
0.589838
0.589838
0.58984
0.589843
0.589845
0.589848
0.589848
0.589851
0.589853
0.589856
0.589859
0.589859
0.589861
0.589864
0.589867
0.58987
0.58987
0.589872
0.589875
0.589878
0.58988
0.58988
0.589883
0.589886
0.589889
0.589891
0.589891
0.589894
0.589897
0.5899
0.589902
0.589902
0.589905
0.589908
0.589911
0.589913
0.589913
0.589916
0.589919
0.589922
0.589925
0.589925
0.589927
0.58993
0.589933
0.589936
0.589936
0.589939
0.589942
0.589944
0.589947
0.589947
0.58995
0.589953
0.589956
0.589959
0.589959
0.589962
0.589965
0.589967
0.58997
0.58997
0.589973
0.589976
0.589979
0.589982
0.589982
0.589985
0.589988
0.589991
0.589994
0.589994
0.589997
0.59
0.590003
0.590006
0.590006
0.590009
0.590012
0.590015
0.590018
0.590018
0.590021
0.590024
0.590027
0.59003
0.59003
0.590033
0.590036
0.590039
0.590042
0.590042
0.590045
0.590048
0.590051
0.590054
0.590054
0.590057
0.59006
0.590063
0.590066
0.590066
0.590069
0.590072
0.590076
0.590079
0.590079
0.590082
0.590085
0.590088
0.590091
0.590091
0.590094
0.590097
0.590101
0.590104
0.590104
0.590107
0.59011
0.590113
0.590116
0.590116
0.59012
0.590123
0.590126
0.590129
0.590129
0.590132
0.590136
0.590139
0.590142
0.590142
0.590145
0.590149
0.590152
0.590155
0.590155
0.590158
0.590162
0.590165
0.590168
0.590168
0.590171
0.590175
0.590178
0.590181
0.590181
0.590185
0.590188
0.590191
0.590195
0.590195
0.590198
0.590201
0.590205
0.590208
0.590208
0.590211
0.590215
0.590218
0.590221
0.590221
0.590225
0.590228
0.590231
0.590235
0.590235
0.590238
0.590241
0.590245
0.590248
0.590248
0.590251
0.590254
0.590257
0.59026
0.59026
0.590263
0.590266
0.590269
0.590272
0.590272
0.590275
0.590277
0.59028
0.590282
0.590282
0.590285
0.590287
0.590289
0.590291
0.590291
0.590294
0.590296
0.590298
0.5903
0.5903
0.590302
0.590304
0.590305
0.590307
0.590307
0.590309
0.590311
0.590313
0.590315
0.590315
0.590316
0.590318
0.59032
0.590322
0.590322
0.590324
0.590325
0.590327
0.590329
0.590329
0.590331
0.590333
0.590334
0.590336
0.590336
0.590338
0.59034
0.590342
0.590343
0.590343
0.590345
0.590347
0.590349
0.590351
0.590351
0.590353
0.590354
0.590356
0.590358
0.590358
0.59036
0.590362
0.590364
0.590366
0.590366
0.590367
0.590369
0.590371
0.590373
0.590373
0.590375
0.590377
0.590379
0.590381
0.590381
0.590383
0.590384
0.590386
0.590388
0.590388
0.59039
0.590392
0.590394
0.590396
0.590396
0.590398
0.5904
0.590402
0.590404
0.590404
0.590406
0.590408
0.59041
0.590412
0.590412
0.590414
0.590415
0.590417
0.590419
0.590419
0.590421
0.590423
0.590425
0.590427
0.590427
0.590429
0.590431
0.590433
0.590435
0.590435
0.590437
0.590439
0.590441
0.590443
0.590443
0.590446
0.590448
0.59045
0.590452
0.590452
0.590454
0.590456
0.590458
0.59046
0.59046
0.590462
0.590464
0.590466
0.590468
0.590468
0.59047
0.590472
0.590474
0.590476
0.590476
0.590479
0.590481
0.590483
0.590485
0.590485
0.590487
0.590489
0.590491
0.590493
0.590493
0.590495
0.590498
0.5905
0.590502
0.590502
0.590504
0.590506
0.590508
0.59051
0.59051
0.590513
0.590515
0.590517
0.590519
0.590519
0.590521
0.590523
0.590526
0.590528
0.590528
0.59053
0.590532
0.590534
0.590537
0.590537
0.590539
0.590541
0.590543
0.590546
0.590546
0.590548
0.59055
0.590552
0.590555
0.590555
0.590557
0.590559
0.590561
0.590564
0.590564
0.590566
0.590568
0.59057
0.590573
0.590573
0.590575
0.590577
0.59058
0.590582
0.590582
0.590584
0.590586
0.590589
0.590591
0.590591
0.590593
0.590596
0.590598
0.5906
0.5906
0.590603
0.590605
0.590607
0.59061
0.59061
0.590612
0.590615
0.590617
0.590619
0.590619
0.590622
0.590624
0.590626
0.590629
0.590629
0.590631
0.590633
0.590636
0.590638
0.590638
0.59064
0.590643
0.590645
0.590647
0.590647
0.590649
0.590652
0.590654
0.590656
0.590656
0.590658
0.59066
0.590662
0.590664
0.590664
0.590665
0.590667
0.590669
0.59067
0.59067
0.590672
0.590673
0.590675
0.590676
0.590676
0.590678
0.590679
0.59068
0.590681
0.590681
0.590683
0.590684
0.590685
0.590686
0.590686
0.590687
0.590688
0.590689
0.59069
0.59069
0.590691
0.590692
0.590693
0.590694
0.590694
0.590695
0.590696
0.590696
0.590697
0.590697
0.590698
0.590699
0.5907
0.590701
0.590701
0.590702
0.590703
0.590704
0.590705
0.590705
0.590706
0.590707
0.590708
0.590709
0.590709
0.59071
0.590711
0.590712
0.590713
0.590713
0.590714
0.590715
0.590716
0.590717
0.590717
0.590718
0.590719
0.59072
0.590721
0.590721
0.590722
0.590723
0.590724
0.590725
0.590725
0.590726
0.590727
0.590728
0.590729
0.590729
0.59073
0.590732
0.590733
0.590734
0.590734
0.590735
0.590736
0.590737
0.590738
0.590738
0.590739
0.59074
0.590741
0.590742
0.590742
0.590743
0.590744
0.590746
0.590747
0.590747
0.590748
0.590749
0.59075
0.590751
0.590751
0.590752
0.590753
0.590754
0.590756
0.590756
0.590757
0.590758
0.590759
0.59076
0.59076
0.590761
0.590763
0.590764
0.590765
0.590765
0.590766
0.590767
0.590768
0.59077
0.59077
0.590771
0.590772
0.590773
0.590774
0.590774
0.590775
0.590777
0.590778
0.590779
0.590779
0.59078
0.590782
0.590783
0.590784
0.590784
0.590785
0.590786
0.590788
0.590789
0.590789
0.59079
0.590791
0.590793
0.590794
0.590794
0.590795
0.590796
0.590798
0.590799
0.590799
0.5908
0.590802
0.590803
0.590804
0.590804
0.590805
0.590807
0.590808
0.590809
0.590809
0.590811
0.590812
0.590813
0.590815
0.590815
0.590816
0.590817
0.590819
0.59082
0.59082
0.590821
0.590822
0.590824
0.590825
0.590825
0.590826
0.590828
0.590829
0.59083
0.59083
0.590832
0.590833
0.590834
0.590835
0.590835
0.590836
0.590838
0.590839
0.59084
0.59084
0.590841
0.590842
0.590843
0.590844
0.590844
0.590844
0.590845
0.590846
0.590847
0.590847
0.590847
0.590848
0.590849
0.590849
0.590849
0.59085
0.59085
0.590851
0.590851
0.590851
0.590851
0.590852
0.590852
0.590852
0.590852
0.590853
0.590853
0.590853
0.590853
0.590853
0.590853
0.590854
0.590854
0.590854
0.590854
0.590854
0.590854
0.590854
0.590855
0.590855
0.590855
0.590855
0.590855
0.590855
0.590855
0.590855
0.590856
0.590856
0.590856
0.590856
0.590856
0.590856
0.590857
0.590857
0.590857
0.590857
0.590857
0.590857
0.590857
0.590857
0.590858
0.590858
0.590858
0.590858
0.590858
0.590859
0.590859
0.590859
0.590859
0.590859
0.590859
0.59086
0.59086
0.59086
0.59086
0.59086
0.590861
0.590861
0.590861
0.590861
0.590861
0.590862
0.590862
0.590862
0.590862
0.590863
0.590863
0.590863
0.590863
0.590863
0.590864
0.590864
0.590864
0.590865
0.590865
0.590865
0.590865
0.590865
0.590866
0.590866
0.590866
0.590866
0.590867
0.590867
0.590867
0.590867
0.590868
0.590868
0.590868
0.590868
0.590869
0.590869
0.590869
0.59087
0.59087
0.59087
0.590871
0.590871
0.590871
0.590871
0.590872
0.590872
0.590872
0.590873
0.590873
0.590873
0.590874
0.590874
0.590874
0.590874
0.590875
0.590875
0.590876
0.590876
0.590876
0.590877
0.590877
0.590877
0.590878
0.590878
0.590878
0.590879
0.590879
0.59088
0.59088
0.59088
0.59088
0.590881
0.590881
0.590881
0.590882
0.590882
0.590883
0.590883
0.590883
0.590884
0.590884
0.590884
0.590885
0.590885
0.590885
0.590886
0.590886
0.590886
0.590886
0.590887
0.590887
0.590887
0.590888
0.590888
0.590888
0.590888
0.590888
0.590888
0.590888
0.590889
0.590889
0.590889
0.590889
0.590889
0.590889
0.590889
0.590889
0.590889
0.590889
0.590888
0.590888
0.590888
0.590888
0.590888
0.590887
0.590887
0.590887
0.590887
0.590887
0.590886
0.590886
0.590885
0.590885
0.590885
0.590885
0.590884
0.590884
0.590883
0.590883
0.590883
0.590882
0.590882
0.590882
0.590882
0.590881
0.590881
0.59088
0.59088
0.59088
0.590879
0.590879
0.590878
0.590878
0.590878
0.590878
0.590877
0.590877
0.590876
0.590876
0.590876
0.590875
0.590875
0.590875
0.590875
0.590874
0.590874
0.590873
0.590873
0.590873
0.590873
0.590872
0.590872
0.590872
0.590872
0.590871
0.590871
0.59087
0.59087
0.59087
0.59087
0.590869
0.590869
0.590869
0.590869
0.590868
0.590868
0.590868
0.590867
0.590867
0.590867
0.590867
0.590866
0.590866
0.590866
0.590866
0.590865
0.590865
0.590865
0.590865
0.590864
0.590864
0.590864
0.590864
0.590864
0.590863
0.590863
0.590863
0.590862
0.590862
0.590862
0.590862
0.590862
0.590861
0.590861
0.590861
0.590861
0.590861
0.59086
0.59086
0.59086
0.59086
0.59086
0.590859
0.590859
0.590859
0.590859
0.590859
0.590858
0.590858
0.590858
0.590858
0.590858
0.590858
0.590858
0.590857
0.590857
0.590857
0.590857
0.590857
0.590857
0.590856
0.590856
0.590856
0.590856
0.590856
0.590856
0.590855
0.590855
0.590855
0.590855
0.590855
0.590854
0.590854
0.590854
0.590854
0.590854
0.590853
0.590853
0.590853
0.590852
0.590852
0.590852
0.590851
0.590851
0.590851
0.59085
0.59085
0.590849
0.590849
0.590849
0.590848
0.590847
0.590847
0.590847
0.590846
0.590846
0.590845
0.590844
0.590844
0.590843
0.590843
0.590842
0.590841
0.590841
0.59084
0.590839
0.590839
0.590838
0.590838
0.590837
0.590836
0.590835
0.590834
0.590834
0.590834
0.590833
0.590832
0.590831
0.590831
0.59083
0.590829
0.590828
0.590827
0.590827
0.590827
0.590826
0.590825
0.590824
0.590824
0.590823
0.590822
0.590822
0.590821
0.590821
0.59082
0.590819
0.590818
0.590817
0.590817
0.590817
0.590816
0.590815
0.590814
0.590814
0.590813
0.590813
0.590812
0.590811
0.590811
0.59081
0.590809
0.590809
0.590808
0.590808
0.590807
0.590806
0.590805
0.590805
0.590805
0.590804
0.590803
0.590802
0.590802
0.590802
0.590801
0.5908
0.590799
0.590799
0.590799
0.590798
0.590797
0.590797
0.590796
0.590796
0.590795
0.590794
0.590794
0.590793
0.590793
0.590792
0.590792
0.590791
0.59079
0.59079
0.59079
0.590789
0.590788
0.590788
0.590788
0.590787
0.590786
0.590786
0.590785
0.590785
0.590784
0.590784
0.590783
0.590782
0.590782
0.590782
0.590781
0.59078
0.59078
0.59078
0.590779
0.590778
0.590778
0.590777
0.590777
0.590776
0.590776
0.590775
0.590774
0.590774
0.590774
0.590773
0.590772
0.590772
0.590772
0.590771
0.59077
0.590769
0.590768
0.590768
0.590768
0.590767
0.590766
0.590765
0.590765
0.590764
0.590763
0.590762
0.590761
0.590761
0.590761
0.59076
0.590759
0.590758
0.590758
0.590757
0.590756
0.590755
0.590754
0.590754
0.590752
0.590751
0.59075
0.590749
0.590749
0.590748
0.590747
0.590746
0.590745
0.590745
0.590744
0.590743
0.590741
0.59074
0.59074
0.590739
0.590738
0.590737
0.590736
0.590736
0.590735
0.590734
0.590733
0.590731
0.590731
0.59073
0.590729
0.590728
0.590727
0.590727
0.590726
0.590725
0.590724
0.590723
0.590723
0.590722
0.590721
0.590719
0.590718
0.590718
0.590717
0.590716
0.590715
0.590714
0.590714
0.590713
0.590712
0.590711
0.59071
0.59071
0.590709
0.590708
0.590707
0.590706
0.590706
0.590705
0.590704
0.590703
0.590702
0.590702
0.590701
0.5907
0.590699
0.590698
0.590698
0.590697
0.590696
0.590695
0.590694
0.590694
0.590693
0.590692
0.590691
0.59069
0.59069
0.590689
0.590688
0.590687
0.590686
0.590686
0.590685
0.590684
0.590684
0.590683
0.590683
0.590682
0.590681
0.59068
0.590679
0.590679
0.590678
0.590677
0.590676
0.590675
0.590675
0.590674
0.590673
0.590672
0.590671
0.590671
0.590671
0.59067
0.590669
0.590668
0.590668
0.590667
0.590666
0.590665
0.590664
0.590664
0.590663
0.590662
0.590661
0.590659
0.590659
0.590658
0.590657
0.590656
0.590655
0.590655
0.590654
0.590653
0.590652
0.590651
0.590651
0.59065
0.590648
0.590647
0.590646
0.590646
0.590645
0.590644
0.590642
0.590641
0.590641
0.59064
0.590639
0.590638
0.590636
0.590636
0.590635
0.590634
0.590633
0.590631
0.590631
0.59063
0.590629
0.590628
0.590626
0.590626
0.590625
0.590624
0.590623
0.590621
0.590621
0.59062
0.590619
0.590618
0.590617
0.590617
0.590615
0.590614
0.590613
0.590612
0.590612
0.59061
0.590609
0.590608
0.590607
0.590607
0.590606
0.590605
0.590603
0.590602
0.590602
0.590601
0.5906
0.590599
0.590598
0.590598
0.590596
0.590595
0.590594
0.590593
0.590593
0.590592
0.590591
0.59059
0.590588
0.590588
0.590587
0.590586
0.590585
0.590584
0.590584
0.590583
0.590582
0.590581
0.590579
0.590579
0.590578
0.590577
0.590576
0.590575
0.590575
0.590574
0.590573
0.590572
0.590571
0.590571
0.59057
0.590569
0.590568
0.590567
0.590567
0.590566
0.590564
0.590563
0.590562
0.590562
0.590561
0.59056
0.590559
0.590558
0.590558
0.590557
0.590556
0.590555
0.590554
0.590554
0.590553
0.590551
0.59055
0.590549
0.590549
0.590548
0.590547
0.590546
0.590545
0.590545
0.590543
0.590542
0.590541
0.59054
0.59054
0.590539
0.590537
0.590536
0.590535
0.590535
0.590534
0.590533
0.590531
0.59053
0.59053
0.590529
0.590528
0.590527
0.590525
0.590525
0.590524
0.590523
0.590521
0.59052
0.59052
0.590519
0.590518
0.590516
0.590515
0.590515
0.590514
0.590513
0.590511
0.59051
0.59051
0.590509
0.590508
0.590506
0.590505
0.590505
0.590504
0.590503
0.590501
0.5905
0.5905
0.590499
0.590498
0.590496
0.590495
0.590495
0.590494
0.590493
0.590492
0.59049
0.59049
0.590489
0.590488
0.590487
0.590485
0.590485
0.590484
0.590483
0.590482
0.590481
0.590481
0.59048
0.590478
0.590477
0.590476
0.590476
0.590475
0.590474
0.590473
0.590471
0.590471
0.59047
0.590469
0.590468
0.590467
0.590467
0.590466
0.590465
0.590464
0.590462
0.590462
0.590461
0.59046
0.590459
0.590458
0.590458
0.590457
0.590456
0.590455
0.590454
0.590454
0.590452
0.590451
0.59045
0.590449
0.590449
0.590448
0.590447
0.590446
0.590445
0.590445
0.590444
0.590442
0.590441
0.59044
0.59044
0.590439
0.590438
0.590437
0.590436
0.590436
0.590434
0.590433
0.590432
0.590431
0.590431
0.59043
0.590429
0.590427
0.590426
0.590426
0.590425
0.590424
0.590423
0.590422
0.590422
0.59042
0.590419
0.590418
0.590417
0.590417
0.590416
0.590414
0.590413
0.590412
0.590412
0.590411
0.590409
0.590408
0.590407
0.590407
0.590406
0.590405
0.590403
0.590402
0.590402
0.590401
0.5904
0.590399
0.590397
0.590397
0.590396
0.590395
0.590394
0.590393
0.590393
0.590391
0.59039
0.590389
0.590388
0.590388
0.590387
0.590385
0.590384
0.590383
0.590383
0.590382
0.590381
0.59038
0.590378
0.590378
0.590377
0.590376
0.590375
0.590374
0.590374
0.590373
0.590372
0.590371
0.590369
0.590369
0.590368
0.590367
0.590366
0.590365
0.590365
0.590364
0.590363
0.590362
0.590361
0.590361
0.59036
0.590358
0.590357
0.590356
0.590356
0.590355
0.590354
0.590353
0.590352
0.590352
0.590351
0.59035
0.590349
0.590348
0.590348
0.590347
0.590346
0.590345
0.590343
0.590343
0.590342
0.590341
0.59034
0.590339
0.590339
0.590338
0.590337
0.590336
0.590335
0.590335
0.590334
0.590333
0.590332
0.59033
0.59033
0.590329
0.590328
0.590327
0.590326
0.590326
0.590325
0.590324
0.590323
0.590322
0.590322
0.590321
0.59032
0.590318
0.590317
0.590317
0.590316
0.590315
0.590314
0.590313
0.590313
0.590312
0.590311
0.59031
0.590308
0.590308
0.590307
0.590306
0.590305
0.590304
0.590304
0.590303
0.590302
0.590301
0.5903
0.5903
0.590298
0.590297
0.590296
0.590295
0.590295
0.590294
0.590293
0.590292
0.590291
0.590291
0.59029
0.590289
0.590288
0.590286
0.590286
0.590285
0.590284
0.590283
0.590282
0.590282
0.590281
0.59028
0.590279
0.590278
0.590278
0.590277
0.590276
0.590275
0.590274
0.590274
0.590273
0.590272
0.590271
0.59027
0.59027
0.590269
0.590268
0.590267
0.590266
0.590266
0.590265
0.590264
0.590263
0.590262
0.590262
0.590261
0.59026
0.590259
0.590258
0.590258
0.590257
0.590256
0.590255
0.590254
0.590254
0.590253
0.590252
0.590251
0.59025
0.59025
0.590249
0.590248
0.590247
0.590246
0.590246
0.590245
0.590244
0.590243
0.590242
0.590242
0.590241
0.59024
0.59024
0.590239
0.590239
0.590238
0.590237
0.590236
0.590235
0.590235
0.590234
0.590233
0.590232
0.590231
0.590231
0.59023
0.590229
0.590228
0.590227
0.590227
0.590226
0.590225
0.590224
0.590223
0.590223
0.590222
0.590221
0.59022
0.590219
0.590219
0.590218
0.590217
0.590216
0.590215
0.590215
0.590214
0.590213
0.590212
0.590211
0.590211
0.59021
0.59021
0.590209
0.590208
0.590208
0.590207
0.590206
0.590205
0.590204
0.590204
0.590203
0.590202
0.590201
0.5902
0.5902
0.590199
0.590198
0.590198
0.590197
0.590197
0.590196
0.590195
0.590194
0.590193
0.590193
0.590192
0.590191
0.59019
0.59019
0.59019
0.590189
0.590188
0.590187
0.590186
0.590186
0.590185
0.590184
0.590184
0.590183
0.590183
0.590182
0.590181
0.59018
0.590179
0.590179
0.590179
0.590178
0.590177
0.590176
0.590176
0.590175
0.590174
0.590173
0.590173
0.590173
0.590172
0.590171
0.59017
0.590169
0.590169
0.590168
0.590168
0.590167
0.590166
0.590166
0.590165
0.590164
0.590163
0.590163
0.590163
0.590162
0.590161
0.59016
0.590159
0.590159
0.590159
0.590158
0.590157
0.590156
0.590156
0.590155
0.590155
0.590154
0.590153
0.590153
0.590152
0.590151
0.59015
0.59015
0.59015
0.590149
0.590148
0.590147
0.590146
0.590146
0.590146
0.590145
0.590144
0.590143
0.590143
0.590142
0.590142
0.590141
0.59014
0.59014
0.590139
0.590139
0.590138
0.590137
0.590137
0.590136
0.590135
0.590135
0.590134
0.590134
0.590133
0.590133
0.590132
0.590131
0.590131
0.59013
0.59013
0.590129
0.590128
0.590128
0.590127
0.590127
0.590126
0.590125
0.590125
0.590125
0.590124
0.590123
0.590122
0.590122
0.590122
0.590121
0.59012
0.59012
0.59012
0.590119
0.590118
0.590118
0.590117
0.590117
0.590116
0.590116
0.590115
0.590114
0.590114
0.590114
0.590113
0.590112
0.590111
0.590111
0.590111
0.59011
0.590109
0.590109
0.590109
0.590108
0.590107
0.590107
0.590106
0.590106
0.590105
0.590105
0.590104
0.590104
0.590104
0.590103
0.590102
0.590102
0.590101
0.590101
0.5901
0.5901
0.590099
0.590098
0.590098
0.590098
0.590097
0.590097
0.590096
0.590096
0.590095
0.590095
0.590094
0.590093
0.590093
0.590093
0.590092
0.590092
0.590091
0.590091
0.59009
0.59009
0.590089
0.590089
0.590089
0.590088
0.590087
0.590087
0.590086
0.590086
0.590086
0.590085
0.590084
0.590084
0.590084
0.590083
0.590083
0.590082
0.590082
0.590082
0.590081
0.59008
0.59008
0.590079
0.590079
0.590079
0.590078
0.590078
0.590077
0.590077
0.590077
0.590076
0.590076
0.590075
0.590075
0.590075
0.590074
0.590074
0.590073
0.590073
0.590072
0.590072
0.590071
0.590071
0.590071
0.59007
0.59007
0.590069
0.590069
0.590069
0.590068
0.590068
0.590067
0.590067
0.590067
0.590066
0.590066
0.590065
0.590065
0.590065
0.590064
0.590064
0.590063
0.590063
0.590063
0.590063
0.590062
0.590062
0.590061
0.590061
0.590061
0.59006
0.59006
0.590059
0.590059
0.590059
0.590059
0.590058
0.590058
0.590058
0.590057
0.590057
0.590056
0.590056
0.590056
0.590055
0.590055
0.590055
0.590054
0.590054
0.590054
0.590053
0.590053
0.590052
0.590052
0.590052
0.590052
0.590051
0.590051
0.590051
0.59005
0.59005
0.59005
0.590049
0.590049
0.590049
0.590048
0.590048
0.590048
0.590048
0.590047
0.590047
0.590047
0.590046
0.590046
0.590046
0.590045
0.590045
0.590045
0.590045
0.590044
0.590044
0.590044
0.590043
0.590043
0.590043
0.590043
0.590042
0.590042
0.590042
0.590042
0.590041
0.590041
0.590041
0.590041
0.59004
0.59004
0.59004
0.590039
0.590039
0.590039
0.590039
0.590038
0.590038
0.590038
0.590038
0.590037
0.590037
0.590037
0.590037
0.590037
0.590036
0.590036
0.590036
0.590036
0.590035
0.590035
0.590035
0.590035
0.590035
0.590034
0.590034
0.590034
0.590034
0.590034
0.590033
0.590033
0.590033
0.590033
0.590033
0.590032
0.590032
0.590032
0.590032
0.590032
0.590031
0.590031
0.590031
0.590031
0.590031
0.59003
0.59003
0.59003
0.59003
0.59003
0.59003
0.590029
0.590029
0.590029
0.590029
0.590029
0.590029
0.590028
0.590028
0.590028
0.590028
0.590028
0.590028
0.590027
0.590027
0.590027
0.590027
0.590027
0.590027
0.590027
0.590026
0.590026
0.590026
0.590026
0.590026
0.590026
0.590026
0.590025
0.590025
0.590025
0.590025
0.590025
0.590025
0.590025
0.590025
0.590025
0.590024
0.590024
0.590024
0.590024
0.590024
0.590024
0.590024
0.590024
0.590024
0.590024
0.590023
0.590023
0.590023
0.590023
0.590023
0.590023
0.590023
0.590023
0.590023
0.590023
0.590023
0.590022
0.590022
0.590022
0.590022
0.590022
0.590022
0.590022
0.590022
0.590022
0.590022
0.590022
0.590022
0.590022
0.590022
0.590022
0.590022
0.590022
0.590022
0.590022
0.590022
0.590022
0.590022
0.590022
0.590022
0.590022
0.590021
0.590021
0.590021
0.590021
0.590021
0.590021
0.590021
0.590021
0.590021
0.590021
0.590021
0.590021
0.590021
0.590021
0.590021
0.590021
0.590021
0.590021
0.590021
0.590021
0.590021
0.590021
0.590021
0.590021
0.590021
0.590021
0.590021
0.590021
0.590021
0.590022
0.590022
0.590022
0.590022
0.590022
0.590022
0.590022
0.590022
0.590022
0.590022
0.590022
0.590022
0.590022
0.590022
0.590022
0.590022
0.590022
0.590022
0.590022
0.590022
0.590022
0.590023
0.590023
0.590023
0.590023
0.590023
0.590023
0.590023
0.590023
0.590023
0.590023
0.590023
0.590023
0.590023
0.590023
0.590024
0.590024
0.590024
0.590024
0.590024
0.590024
0.590024
0.590024
0.590024
0.590025
0.590025
0.590025
0.590025
0.590025
0.590025
0.590025
0.590025
0.590026
0.590026
0.590026
0.590026
0.590026
0.590026
0.590026
0.590026
0.590027
0.590027
0.590027
0.590027
0.590027
0.590027
0.590028
0.590028
0.590028
0.590028
0.590028
0.590028
0.590029
0.590029
0.590029
0.590029
0.590029
0.590029
0.590029
0.59003
0.59003
0.59003
0.59003
0.59003
0.590031
0.590031
0.590031
0.590031
0.590031
0.590031
0.590032
0.590032
0.590032
0.590032
0.590032
0.590033
0.590033
0.590033
0.590033
0.590034
0.590034
0.590034
0.590034
0.590034
0.590035
0.590035
0.590035
0.590035
0.590035
0.590036
0.590036
0.590036
0.590036
0.590036
0.590037
0.590037
0.590037
0.590038
0.590038
0.590038
0.590038
0.590039
0.590039
0.590039
0.590039
0.59004
0.59004
0.59004
0.59004
0.590041
0.590041
0.590042
0.590042
0.590042
0.590042
0.590043
0.590043
0.590043
0.590043
0.590044
0.590044
0.590044
0.590045
0.590045
0.590045
0.590046
0.590046
0.590046
0.590046
0.590047
0.590047
0.590047
0.590048
0.590048
0.590048
0.590049
0.590049
0.590049
0.590049
0.59005
0.59005
0.590051
0.590051
0.590051
0.590052
0.590052
0.590052
0.590053
0.590053
0.590053
0.590054
0.590054
0.590055
0.590055
0.590055
0.590056
0.590056
0.590056
0.590056
0.590057
0.590057
0.590058
0.590058
0.590058
0.590059
0.590059
0.59006
0.59006
0.59006
0.590061
0.590061
0.590061
0.590062
0.590062
0.590062
0.590063
0.590063
0.590064
0.590064
0.590064
0.590065
0.590065
0.590066
0.590066
0.590067
0.590067
0.590068
0.590068
0.590068
0.590069
0.590069
0.59007
0.59007
0.59007
0.590071
0.590071
0.590072
0.590073
0.590073
0.590073
0.590074
0.590074
0.590075
0.590075
0.590075
0.590076
0.590077
0.590077
0.590077
0.590078
0.590078
0.590079
0.59008
0.59008
0.59008
0.590081
0.590081
0.590082
0.590082
0.590083
0.590083
0.590084
0.590084
0.590084
0.590085
0.590086
0.590086
0.590087
0.590087
0.590087
0.590088
0.590089
0.590089
0.590089
0.59009
0.590091
0.590091
0.590092
0.590092
0.590093
0.590093
0.590094
0.590095
0.590095
0.590095
0.590096
0.590097
0.590097
0.590097
0.590098
0.590098
0.590099
0.5901
0.5901
0.5901
0.590101
0.590102
0.590103
0.590103
0.590103
0.590104
0.590105
0.590105
0.590105
0.590106
0.590107
0.590108
0.590108
0.590108
0.590109
0.59011
0.590111
0.590111
0.590111
0.590112
0.590113
0.590114
0.590114
0.590114
0.590115
0.590116
0.590117
0.590117
0.590117
0.590118
0.590119
0.59012
0.590121
0.590121
0.590121
0.590122
0.590123
0.590124
0.590124
0.590124
0.590125
0.590126
0.590127
0.590127
0.590128
0.590128
0.590129
0.59013
0.59013
0.590131
0.590132
0.590133
0.590133
0.590133
0.590134
0.590135
0.590136
0.590137
0.590137
0.590138
0.590138
0.590139
0.59014
0.59014
0.590141
0.590142
0.590143
0.590143
0.590143
0.590144
0.590145
0.590146
0.590147
0.590147
0.590148
0.590149
0.590149
0.59015
0.59015
0.590151
0.590152
0.590153
0.590154
0.590154
0.590155
0.590156
0.590157
0.590158
0.590158
0.590158
0.590159
0.59016
0.590161
0.590161
0.590162
0.590163
0.590164
0.590165
0.590165
0.590166
0.590167
0.590168
0.590169
0.590169
0.59017
0.590171
0.590172
0.590173
0.590173
0.590174
0.590175
0.590176
0.590177
0.590177
0.590178
0.590179
0.59018
0.590181
0.590181
0.590181
0.590182
0.590183
0.590184
0.590184
0.590185
0.590186
0.590187
0.590188
0.590188
0.590189
0.590191
0.590192
0.590193
0.590193
0.590194
0.590195
0.590196
0.590197
0.590197
0.590198
0.590199
0.5902
0.590201
0.590201
0.590202
0.590203
0.590204
0.590205
0.590205
0.590206
0.590207
0.590208
0.590209
0.590209
0.59021
0.590211
0.590212
0.590213
0.590213
0.590215
0.590216
0.590217
0.590218
0.590218
0.590219
0.59022
0.590221
0.590222
0.590222
0.590224
0.590225
0.590226
0.590227
0.590227
0.590228
0.590229
0.59023
0.590231
0.590231
0.590233
0.590234
0.590235
0.590236
0.590236
0.590237
0.590238
0.59024
0.590241
0.590241
0.590242
0.590243
0.590244
0.590245
0.590245
0.590247
0.590248
0.590249
0.59025
0.59025
0.590251
0.590252
0.590254
0.590255
0.590255
0.590256
0.590257
0.590258
0.59026
0.59026
0.590261
0.590262
0.590263
0.590264
0.590264
0.590266
0.590267
0.590268
0.590269
0.590269
0.590271
0.590272
0.590273
0.590274
0.590274
0.590275
0.590277
0.590278