<?xml version="1.0"?>
<VTKFile type="UnstructuredGrid" version="0.1" byte_order="LittleEndian">
<UnstructuredGrid>
<Piece NumberOfPoints="5000" NumberOfCells="4000">
<PointData Scalars="Reaction 0">
<DataArray type="Float32" Name="Reaction 0" format="ascii">
0.872311
0.872311
0.872311
0.872311
0.872311
0.872311
0.872311
0.872311
0.872311
0.872311
0.872311
0.872311
0.872311
0.872311
0.872311
0.872311
0.872311
0.872311
0.872311
0.872311
0.872311
0.872311
0.872311
0.872312
0.872312
0.872312
0.872312
0.872312
0.872312
0.872312
0.872312
0.872312
0.872312
0.872312
0.872312
0.872312
0.872312
0.872313
0.872313
0.872313
0.872313
0.872313
0.872313
0.872313
0.872313
0.872313
0.872313
0.872314
0.872314
0.872314
0.872314
0.872314
0.872314
0.872314
0.872314
0.872314
0.872315
0.872315
0.872315
0.872315
0.872315
0.872315
0.872315
0.872316
0.872316
0.872316
0.872316
0.872316
0.872316
0.872317
0.872317
0.872317
0.872317
0.872317
0.872317
0.872317
0.872318
0.872318
0.872318
0.872318
0.872318
0.872319
0.872319
0.872319
0.872319
0.872319
0.87232
0.87232
0.87232
0.87232
0.87232
0.872321
0.872321
0.872321
0.872321
0.872321
0.872322
0.872322
0.872322
0.872323
0.872323
0.872323
0.872323
0.872323
0.872324
0.872324
0.872324
0.872324
0.872325
0.872325
0.872325
0.872325
0.872326
0.872326
0.872326
0.872326
0.872327
0.872327
0.872327
0.872328
0.872328
0.872328
0.872328
0.872329
0.872329
0.872329
0.87233
0.87233
0.87233
0.872331
0.872331
0.872331
0.872331
0.872332
0.872332
0.872332
0.872333
0.872333
0.872333
0.872334
0.872334
0.872334
0.872335
0.872335
0.872335
0.872335
0.872336
0.872336
0.872337
0.872337
0.872337
0.872338
0.872338
0.872338
0.872339
0.872339
0.872339
0.87234
0.87234
0.872341
0.872341
0.872341
0.872342
0.872342
0.872343
0.872343
0.872343
0.872344
0.872344
0.872345
0.872345
0.872345
0.872346
0.872346
0.872347
0.872347
0.872347
0.872348
0.872348
0.872349
0.872349
0.872349
0.87235
0.87235
0.872351
0.872351
0.872351
0.872352
0.872352
0.872353
0.872353
0.872354
0.872354
0.872355
0.872355
0.872355
0.872356
0.872356
0.872357
0.872358
0.872358
0.872358
0.872359
0.872359
0.87236
0.87236
0.872361
0.872361
0.872362
0.872362
0.872362
0.872363
0.872364
0.872364
0.872365
0.872365
0.872365
0.872366
0.872367
0.872367
0.872367
0.872368
0.872369
0.872369
0.87237
0.87237
0.872371
0.872371
0.872372
0.872373
0.872373
0.872373
0.872374
0.872375
0.872375
0.872375
0.872376
0.872377
0.872377
0.872378
0.872378
0.872379
0.87238
0.87238
0.872381
0.872381
0.872382
0.872382
0.872383
0.872384
0.872384
0.872385
0.872385
0.872386
0.872387
0.872387
0.872388
0.872388
0.872389
0.87239
0.87239
0.872391
0.872391
0.872392
0.872393
0.872393
0.872394
0.872394
0.872395
0.872396
0.872396
0.872397
0.872398
0.872398
0.872399
0.872399
0.8724
0.872401
0.872402
0.872402
0.872402
0.872403
0.872404
0.872405
0.872406
0.872406
0.872407
0.872407
0.872408
0.872409
0.872409
0.87241
0.872411
0.872412
0.872412
0.872412
0.872413
0.872414
0.872415
0.872416
0.872416
0.872417
0.872418
0.872419
0.872419
0.872419
0.87242
0.872421
0.872422
0.872423
0.872423
0.872424
0.872425
0.872426
0.872427
0.872427
0.872428
0.872429
0.872429
0.87243
0.87243
0.872431
0.872432
0.872433
0.872434
0.872434
0.872435
0.872436
0.872437
0.872438
0.872438
0.872439
0.87244
0.872441
0.872442
0.872442
0.872443
0.872444
0.872445
0.872446
0.872446
0.872447
0.872448
0.872449
0.87245
0.87245
0.872451
0.872452
0.872453
0.872454
0.872454
0.872455
0.872456
0.872457
0.872458
0.872458
0.872459
0.87246
0.872461
0.872462
0.872462
0.872463
0.872464
0.872465
0.872466
0.872466
0.872467
0.872468
0.87247
0.872471
0.872471
0.872472
0.872473
0.872474
0.872475
0.872475
0.872476
0.872477
0.872478
0.872479
0.872479
0.87248
0.872482
0.872483
0.872484
0.872484
0.872485
0.872486
0.872487
0.872488
0.872488
0.872489
0.872491
0.872492
0.872493
0.872493
0.872494
0.872495
0.872496
0.872498
0.872498
0.872499
0.8725
0.872501
0.872502
0.872502
0.872503
0.872505
0.872506
0.872507
0.872507
0.872508
0.872509
0.872511
0.872512
0.872512
0.872513
0.872514
0.872515
0.872517
0.872517
0.872518
0.872519
0.87252
0.872522
0.872522
0.872523
0.872524
0.872525
0.872527
0.872527
0.872528
0.872529
0.87253
0.872532
0.872532
0.872533
0.872534
0.872535
0.872537
0.872537
0.872538
0.872539
0.872541
0.872542
0.872542
0.872543
0.872544
0.872546
0.872547
0.872547
0.872548
0.87255
0.872551
0.872552
0.872552
0.872554
0.872555
0.872556
0.872558
0.872558
0.872559
0.87256
0.872562
0.872563
0.872563
0.872564
0.872566
0.872567
0.872568
0.872568
0.87257
0.872571
0.872573
0.872574
0.872574
0.872575
0.872577
0.872578
0.872579
0.872579
0.872581
0.872582
0.872584
0.872585
0.872585
0.872586
0.872588
0.872589
0.872591
0.872591
0.872592
0.872594
0.872595
0.872596
0.872596
0.872598
0.872599
0.872601
0.872602
0.872602
0.872604
0.872605
0.872607
0.872608
0.872608
0.87261
0.872611
0.872613
0.872614
0.872614
0.872616
0.872617
0.872619
0.87262
0.87262
0.872622
0.872623
0.872625
0.872626
0.872626
0.872628
0.872629
0.872631
0.872632
0.872632
0.872634
0.872635
0.872637
0.872638
0.872638
0.87264
0.872642
0.872643
0.872645
0.872645
0.872646
0.872648
0.872649
0.872651
0.872651
0.872653
0.872654
0.872656
0.872657
0.872657
0.872659
0.87266
0.872662
0.872664
0.872664
0.872665
0.872667
0.872669
0.87267
0.87267
0.872672
0.872673
0.872675
0.872677
0.872677
0.872678
0.87268
0.872682
0.872683
0.872683
0.872685
0.872687
0.872688
0.87269
0.87269
0.872692
0.872693
0.872695
0.872697
0.872697
0.872698
0.8727
0.872702
0.872703
0.872703
0.872705
0.872707
0.872708
0.87271
0.87271
0.872712
0.872713
0.872715
0.872717
0.872717
0.872719
0.87272
0.872722
0.872724
0.872724
0.872726
0.872727
0.872729
0.872731
0.872731
0.872733
0.872734
0.872736
0.872738
0.872738
0.87274
0.872741
0.872743
0.872745
0.872745
0.872747
0.872748
0.87275
0.872752
0.872752
0.872754
0.872756
0.872757
0.872759
0.872759
0.872761
0.872763
0.872765
0.872767
0.872767
0.872768
0.87277
0.872772
0.872774
0.872774
0.872776
0.872778
0.872779
0.872781
0.872781
0.872783
0.872785
0.872787
0.872789
0.872789
0.87279
0.872792
0.872794
0.872796
0.872796
0.872798
0.8728
0.872802
0.872804
0.872804
0.872806
0.872807
0.872809
0.872811
0.872811
0.872813
0.872815
0.872817
0.872819
0.872819
0.872821
0.872823
0.872825
0.872827
0.872827
0.872829
0.872831
0.872833
0.872834
0.872834
0.872836
0.872838
0.87284
0.872842
0.872842
0.872844
0.872846
0.872848
0.87285
0.87285
0.872852
0.872854
0.872856
0.872858
0.872858
0.87286
0.872862
0.872864
0.872866
0.872866
0.872868
0.87287
0.872872
0.872874
0.872874
0.872876
0.872878
0.87288
0.872882
0.872882
0.872884
0.872886
0.872889
0.872891
0.872891
0.872893
0.872895
0.872897
0.872899
0.872899
0.872901
0.872903
0.872905
0.872907
0.872907
0.872909
0.872911
0.872913
0.872915
0.872915
0.872918
0.87292
0.872922
0.872924
0.872924
0.872926
0.872928
0.87293
0.872932
0.872932
0.872935
0.872937
0.872939
0.872941
0.872941
0.872943
0.872945
0.872947
0.87295
0.87295
0.872952
0.872954
0.872956
0.872958
0.872958
0.87296
0.872963
0.872965
0.872967
0.872967
0.872969
0.872971
0.872973
0.872976
0.872976
0.872978
0.87298
0.872982
0.872984
0.872984
0.872987
0.872989
0.872991
0.872993
0.872993
0.872996
0.872998
0.873
0.873002
0.873002
0.873005
0.873007
0.873009
0.873011
0.873011
0.873013
0.873016
0.873018
0.87302
0.87302
0.873023
0.873025
0.873027
0.873029
0.873029
0.873032
0.873034
0.873036
0.873039
0.873039
0.873041
0.873043
0.873045
0.873048
0.873048
0.87305
0.873052
0.873055
0.873057
0.873057
0.873059
0.873062
0.873064
0.873066
0.873066
0.873069
0.873071
0.873073
0.873076
0.873076
0.873078
0.87308
0.873083
0.873085
0.873085
0.873087
0.87309
0.873092
0.873094
0.873094
0.873097
0.873099
0.873102
0.873104
0.873104
0.873106
0.873109
0.873111
0.873114
0.873114
0.873116
0.873119
0.873121
0.873124
0.873124
0.873126
0.873128
0.873131
0.873133
0.873133
0.873136
0.873138
0.873141
0.873143
0.873143
0.873146
0.873148
0.873151
0.873153
0.873153
0.873156
0.873158
0.873161
0.873163
0.873163
0.873166
0.873168
0.873171
0.873173
0.873173
0.873176
0.873178
0.873181
0.873183
0.873183
0.873186
0.873188
0.873191
0.873193
0.873193
0.873196
0.873198
0.873201
0.873204
0.873204
0.873206
0.873209
0.873211
0.873214
0.873214
0.873216
0.873219
0.873222
0.873224
0.873224
0.873227
0.873229
0.873232
0.873234
0.873234
0.873237
0.87324
0.873242
0.873245
0.873245
0.873247
0.87325
0.873253
0.873255
0.873255
0.873258
0.873261
0.873263
0.873266
0.873266
0.873269
0.873271
0.873274
0.873276
0.873276
0.873279
0.873282
0.873284
0.873287
0.873287
0.87329
0.873292
0.873295
0.873298
0.873298
0.8733
0.873303
0.873306
0.873309
0.873309
0.873311
0.873314
0.873317
0.873319
0.873319
0.873322
0.873325
0.873327
0.87333
0.87333
0.873333
0.873336
0.873338
0.873341
0.873341
0.873344
0.873347
0.873349
0.873352
0.873352
0.873355
0.873358
0.87336
0.873363
0.873363
0.873366
0.873369
0.873371
0.873374
0.873374
0.873377
0.87338
0.873383
0.873385
0.873385
0.873388
0.873391
0.873394
0.873397
0.873397
0.873399
0.873402
0.873405
0.873408
0.873408
0.873411
0.873414
0.873416
0.873419
0.873419
0.873422
0.873425
0.873428
0.873431
0.873431
0.873433
0.873436
0.873439
0.873442
0.873442
0.873445
0.873448
0.873451
0.873454
0.873454
0.873456
0.873459
0.873462
0.873465
0.873465
0.873468
0.873471
0.873474
0.873477
0.873477
0.87348
0.873483
0.873485
0.873488
0.873488
0.873491
0.873494
0.873497
0.8735
0.8735
0.873503
0.873506
0.873509
0.873512
0.873512
0.873515
0.873518
0.873521
0.873524
0.873524
0.873527
0.87353
0.873533
0.873536
0.873536
0.873538
0.873541
0.873544
0.873547
0.873547
0.87355
0.873553
0.873556
0.873559
0.873559
0.873562
0.873565
0.873568
0.873571
0.873571
0.873574
0.873577
0.87358
0.873583
0.873583
0.873587
0.87359
0.873593
0.873596
0.873596
0.873599
0.873602
0.873605
0.873608
0.873608
0.873611
0.873614
0.873617
0.87362
0.87362
0.873623
0.873626
0.873629
0.873633
0.873633
0.873636
0.873639
0.873642
0.873645
0.873645
0.873648
0.873651
0.873654
0.873658
0.873658
0.873661
0.873664
0.873667
0.87367
0.87367
0.873673
0.873677
0.87368
0.873683
0.873683
0.873686
0.873689
0.873692
0.873696
0.873696
0.873699
0.873702
0.873705
0.873708
0.873708
0.873712
0.873715
0.873718
0.873721
0.873721
0.873724
0.873728
0.873731
0.873734
0.873734
0.873737
0.873741
0.873744
0.873747
0.873747
0.87375
0.873754
0.873757
0.87376
0.87376
0.873763
0.873767
0.87377
0.873773
0.873773
0.873776
0.87378
0.873783
0.873786
0.873786
0.873789
0.873793
0.873796
0.873799
0.873799
0.873803
0.873806
0.873809
0.873812
0.873812
0.873816
0.873819
0.873822
0.873826
0.873826
0.873829
0.873832
0.873836
0.873839
0.873839
0.873842
0.873846
0.873849
0.873852
0.873852
0.873856
0.873859
0.873862
0.873866
0.873866
0.873869
0.873873
0.873876
0.873879
0.873879
0.873883
0.873886
0.873889
0.873893
0.873893
0.873896
0.8739
0.873903
0.873906
0.873906
0.87391
0.873913
0.873917
0.87392
0.87392
0.873924
0.873927
0.87393
0.873934
0.873934
0.873937
0.873941
0.873944
0.873948
0.873948
0.873951
0.873954
0.873958
0.873961
0.873961
0.873965
0.873968
0.873972
0.873975
0.873975
0.873979
0.873982
0.873986
0.873989
0.873989
0.873993
0.873996
0.874
0.874003
0.874003
0.874007
0.87401
0.874014
0.874017
0.874017
0.874021
0.874024
0.874028
0.874031
0.874031
0.874035
0.874038
0.874042
0.874045
0.874045
0.874049
0.874052
0.874056
0.87406
0.87406
0.874063
0.874067
0.87407
0.874074
0.874074
0.874077
0.874081
0.874084
0.874088
0.874088
0.874092
0.874095
0.874099
0.874102
0.874102
0.874106
0.87411
0.874113
0.874117
0.874117
0.87412
0.874124
0.874128
0.874131
0.874131
0.874135
0.874138
0.874142
0.874146
0.874146
0.874149
0.874153
0.874157
0.87416
0.87416
0.874164
0.874168
0.874172
0.874175
0.874175
0.874179
0.874183
0.874186
0.87419
0.87419
0.874194
0.874197
0.874201
0.874205
0.874205
0.874209
0.874212
0.874216
0.87422
0.87422
0.874224
0.874227
0.874231
0.874235
0.874235
0.874239
0.874242
0.874246
0.87425
0.87425
0.874254
0.874257
0.874261
0.874265
0.874265
0.874269
0.874273
0.874276
0.87428
0.87428
0.874284
0.874288
0.874292
0.874295
0.874295
0.874299
0.874303
0.874307
0.874311
0.874311
0.874314
0.874318
0.874322
0.874326
0.874326
0.87433
0.874334
0.874337
0.874341
0.874341
0.874345
0.874349
0.874353
0.874357
0.874357
0.874361
0.874364
0.874368
0.874372
0.874372
0.874376
0.87438
0.874384
0.874388
0.874388
0.874392
0.874395
0.874399
0.874403
0.874403
0.874407
0.874411
0.874415
0.874419
0.874419
0.874423
0.874427
0.874431
0.874435
0.874435
0.874438
0.874442
0.874446
0.87445
0.87445
0.874454
0.874458
0.874462
0.874466
0.874466
0.87447
0.874474
0.874478
0.874482
0.874482
0.874486
0.87449
0.874494
0.874498
0.874498
0.874502
0.874506
0.87451
0.874514
0.874514
0.874518
0.874522
0.874526
0.87453
0.87453
0.874534
0.874538
0.874542
0.874546
0.874546
0.87455
0.874554
0.874558
0.874562
0.874562
0.874566
0.87457
0.874574
0.874578
0.874578
0.874582
0.874586
0.87459
0.874594
0.874594
0.874598
0.874602
0.874606
0.87461
0.87461
0.874614
0.874619
0.874623
0.874627
0.874627
0.874631
0.874635
0.874639
0.874643
0.874643
0.874647
0.874651
0.874655
0.874659
0.874659
0.874664
0.874668
0.874672
0.874676
0.874676
0.87468
0.874684
0.874688
0.874693
0.874693
0.874697
0.874701
0.874705
0.874709
0.874709
0.874714
0.874718
0.874722
0.874726
0.874726
0.87473
0.874735
0.874739
0.874743
0.874743
0.874747
0.874752
0.874756
0.87476
0.87476
0.874764
0.874768
0.874773
0.874777
0.874777
0.874781
0.874785
0.87479
0.874794
0.874794
0.874798
0.874803
0.874807
0.874811
0.874811
0.874815
0.87482
0.874824
0.874828
0.874828
0.874832
0.874837
0.874841
0.874845
0.874845
0.87485
0.874854
0.874858
0.874863
0.874863
0.874867
0.874871
0.874876
0.87488
0.87488
0.874884
0.874889
0.874893
0.874897
0.874897
0.874902
0.874906
0.87491
0.874915
0.874915
0.874919
0.874923
0.874928
0.874932
0.874932
0.874936
0.874941
0.874945
0.874949
0.874949
0.874954
0.874958
0.874963
0.874967
0.874967
0.874971
0.874976
0.87498
0.874985
0.874985
0.874989
0.874993
0.874998
0.875002
0.875002
0.875007
0.875011
0.875015
0.87502
0.87502
0.875024
0.875029
0.875033
0.875038
0.875038
0.875042
0.875047
0.875051
0.875055
0.875055
0.87506
0.875064
0.875069
0.875073
0.875073
0.875078
0.875082
0.875087
0.875091
0.875091
0.875096
0.8751
0.875105
0.875109
0.875109
0.875114
0.875118
0.875123
0.875127
0.875127
0.875132
0.875136
0.875141
0.875145
0.875145
0.87515
0.875154
0.875159
0.875163
0.875163
0.875168
0.875172
0.875177
0.875181
0.875181
0.875186
0.87519
0.875195
0.8752
0.8752
0.875204
0.875209
0.875213
0.875218
0.875218
0.875222
0.875227
0.875232
0.875236
0.875236
0.875241
0.875246
0.87525
0.875255
0.875255
0.875259
0.875264
0.875269
0.875273
0.875273
0.875278
0.875283
0.875287
0.875292
0.875292
0.875297
0.875301
0.875306
0.875311
0.875311
0.875315
0.87532
0.875325
0.87533
0.87533
0.875334
0.875339
0.875344
0.875348
0.875348
0.875353
0.875358
0.875363
0.875367
0.875367
0.875372
0.875377
0.875381
0.875386
0.875386
0.875391
0.875396
0.8754
0.875405
0.875405
0.87541
0.875415
0.875419
0.875424
0.875424
0.875429
0.875434
0.875438
0.875443
0.875443
0.875448
0.875453
0.875458
0.875462
0.875462
0.875467
0.875472
0.875477
0.875482
0.875482
0.875486
0.875491
0.875496
0.875501
0.875501
0.875506
0.87551
0.875515
0.87552
0.87552
0.875525
0.87553
0.875534
0.875539
0.875539
0.875544
0.875549
0.875554
0.875559
0.875559
0.875563
0.875568
0.875573
0.875578
0.875578
0.875583
0.875588
0.875593
0.875598
0.875598
0.875602
0.875607
0.875612
0.875617
0.875617
0.875622
0.875627
0.875632
0.875637
0.875637
0.875641
0.875646
0.875651
0.875656
0.875656
0.875661
0.875666
0.875671
0.875676
0.875676
0.875681
0.875686
0.875691
0.875695
0.875695
0.8757
0.875705
0.87571
0.875715
0.875715
0.87572
0.875725
0.87573
0.875735
0.875735
0.87574
0.875745
0.87575
0.875755
0.875755
0.87576
0.875765
0.87577
0.875775
0.875775
0.87578
0.875785
0.87579
0.875795
0.875795
0.8758
0.875805
0.87581
0.875815
0.875815
0.87582
0.875826
0.875831
0.875836
0.875836
0.875841
0.875846
0.875851
0.875856
0.875856
0.875861
0.875866
0.875871
0.875876
0.875876
0.875882
0.875887
0.875892
0.875897
0.875897
0.875902
0.875907
0.875912
0.875917
0.875917
0.875923
0.875928
0.875933
0.875938
0.875938
0.875943
0.875948
0.875953
0.875959
0.875959
0.875964
0.875969
0.875974
0.875979
0.875979
0.875984
0.875989
0.875995
0.876
0.876
0.876005
0.87601
0.876015
0.876021
0.876021
0.876026
0.876031
0.876036
0.876041
0.876041
0.876047
0.876052
0.876057
0.876062
0.876062
0.876067
0.876073
0.876078
0.876083
0.876083
0.876088
0.876093
0.876099
0.876104
0.876104
0.876109
0.876114
0.87612
0.876125
0.876125
0.87613
0.876135
0.876141
0.876146
0.876146
0.876151
0.876156
0.876162
0.876167
0.876167
0.876172
0.876178
0.876183
0.876188
0.876188
0.876193
0.876199
0.876204
0.876209
0.876209
0.876215
0.87622
0.876225
0.87623
0.87623
0.876236
0.876241
0.876246
0.876252
0.876252
0.876257
0.876262
0.876268
0.876273
0.876273
0.876278
0.876284
0.876289
0.876294
0.876294
0.8763
0.876305
0.876311
0.876316
0.876316
0.876321
0.876327
0.876332
0.876338
0.876338
0.876343
0.876348
0.876354
0.876359
0.876359
0.876365
0.87637
0.876376
0.876381
0.876381
0.876387
0.876392
0.876397
0.876403
0.876403
0.876408
0.876414
0.876419
0.876425
0.876425
0.87643
0.876436
0.876441
0.876447
0.876447
0.876452
0.876458
0.876463
0.876469
0.876469
0.876474
0.87648
0.876485
0.876491
0.876491
0.876496
0.876502
0.876507
0.876513
0.876513
0.876518
0.876524
0.87653
0.876535
0.876535
0.876541
0.876546
0.876552
0.876557
0.876557
0.876563
0.876568
0.876574
0.876579
0.876579
0.876585
0.876591
0.876596
0.876602
0.876602
0.876607
0.876613
0.876618
0.876624
0.876624
0.87663
0.876635
0.876641
0.876646
0.876646
0.876652
0.876658
0.876663
0.876669
0.876669
0.876674
0.87668
0.876686
0.876691
0.876691
0.876697
0.876703
0.876708
0.876714
0.876714
0.876719
0.876725
0.876731
0.876736
0.876736
0.876742
0.876748
0.876753
0.876759
0.876759
0.876765
0.87677
0.876776
0.876782
0.876782
0.876787
0.876793
0.876799
0.876804
0.876804
0.87681
0.876816
0.876821
0.876827
0.876827
0.876833
0.876838
0.876844
0.87685
0.87685
0.876856
0.876861
0.876867
0.876873
0.876873
0.876879
0.876884
0.87689
0.876896
0.876896
0.876902
0.876907
0.876913
0.876919
0.876919
0.876925
0.876931
0.876937
0.876942
0.876942
0.876948
0.876954
0.87696
0.876966
0.876966
0.876971
0.876977
0.876983
0.876989
0.876989
0.876995
0.877001
0.877007
0.877012
0.877012
0.877018
0.877024
0.87703
0.877036
0.877036
0.877042
0.877048
0.877053
0.877059
0.877059
0.877065
0.877071
0.877077
0.877083
0.877083
0.877089
0.877095
0.877101
0.877106
0.877106
0.877112
0.877118
0.877124
0.87713
0.87713
0.877136
0.877142
0.877148
0.877154
0.877154
0.87716
0.877166
0.877171
0.877177
0.877177
0.877183
0.877189
0.877195
0.877201
0.877201
0.877207
0.877213
0.877219
0.877225
0.877225
0.877231
0.877237
0.877243
0.877249
0.877249
0.877255
0.877261
0.877267
0.877273
0.877273
0.877279
0.877285
0.877291
0.877297
0.877297
0.877303
0.877308
0.877314
0.87732
0.87732
0.877326
0.877332
0.877338
0.877345
0.877345
0.877351
0.877357
0.877363
0.877369
0.877369
0.877375
0.877381
0.877387
0.877393
0.877393
0.877399
0.877405
0.877411
0.877417
0.877417
0.877423
0.877429
0.877435
0.877441
0.877441
0.877448
0.877454
0.87746
0.877466
0.877466
0.877472
0.877478
0.877484
0.87749
0.87749
0.877497
0.877503
0.877509
0.877515
0.877515
0.877521
0.877527
0.877534
0.87754
0.87754
0.877546
0.877552
0.877558
0.877565
0.877565
0.877571
0.877577
0.877583
0.877589
0.877589
0.877595
0.877602
0.877608
0.877614
0.877614
0.87762
0.877627
0.877633
0.877639
0.877639
0.877645
0.877651
0.877658
0.877664
0.877664
0.87767
0.877676
0.877683
0.877689
0.877689
0.877695
0.877701
0.877708
0.877714
0.877714
0.87772
0.877726
0.877733
0.877739
0.877739
0.877745
0.877751
0.877758
0.877764
0.877764
0.87777
0.877776
0.877783
0.877789
0.877789
0.877795
0.877802
0.877808
0.877814
0.877814
0.87782
0.877827
0.877833
0.877839
0.877839
0.877846
0.877852
0.877858
0.877865
0.877865
0.877871
0.877877
0.877884
0.87789
0.87789
0.877896
0.877902
0.877909
0.877915
0.877915
0.877922
0.877928
0.877934
0.877941
0.877941
0.877947
0.877953
0.87796
0.877966
0.877966
0.877973
0.877979
0.877985
0.877992
0.877992
0.877998
0.878005
0.878011
0.878018
0.878018
0.878024
0.87803
0.878037
0.878043
0.878043
0.87805
0.878056
0.878063
0.878069
0.878069
0.878076
0.878082
0.878089
0.878095
0.878095
0.878102
0.878108
0.878115
0.878121
0.878121
0.878128
0.878134
0.878141
0.878147
0.878147
0.878154
0.87816
0.878167
0.878173
0.878173
0.87818
0.878186
0.878193
0.878199
0.878199
0.878206
0.878213
0.878219
0.878226
0.878226
0.878232
0.878239
0.878245
0.878252
0.878252
0.878258
0.878265
0.878272
0.878278
0.878278
0.878285
0.878291
0.878298
0.878304
0.878304
0.878311
0.878318
0.878324
0.878331
0.878331
0.878337
0.878344
0.87835
0.878357
0.878357
0.878364
0.87837
0.878377
0.878383
0.878383
0.87839
0.878397
0.878403
0.87841
0.87841
0.878417
0.878423
0.87843
0.878436
0.878436
0.878443
0.87845
0.878456
0.878463
0.878463
0.87847
0.878476
0.878483
0.87849
0.87849
0.878496
0.878503
0.87851
0.878516
0.878516
0.878523
0.87853
0.878536
0.878543
0.878543
0.87855
0.878557
0.878563
0.87857
0.87857
0.878577
0.878584
0.87859
0.878597
0.878597
0.878604
0.878611
0.878617
0.878624
0.878624
0.878631
0.878638
0.878645
0.878651
0.878651
0.878658
0.878665
0.878672
0.878679
0.878679
0.878685
0.878692
0.878699
0.878706
0.878706
0.878713
0.87872
0.878726
0.878733
0.878733
0.87874
0.878747
0.878754
0.87876
0.87876
0.878767
0.878774
0.878781
0.878788
0.878788
0.878795
0.878802
0.878808
0.878815
0.878815
0.878822
0.878829
0.878836
0.878843
0.878843
0.87885
0.878856
0.878863
0.87887
0.87887
0.878877
0.878884
0.878891
0.878898
0.878898
0.878905
0.878912
0.878918
0.878925
0.878925
0.878932
0.878939
0.878946
0.878953
0.878953
0.87896
0.878967
0.878974
0.878981
0.878981
0.878988
0.878994
0.879001
0.879008
0.879008
0.879015
0.879022
0.879029
0.879036
0.879036
0.879043
0.87905
0.879057
0.879064
0.879064
0.879071
0.879078
0.879085
0.879092
0.879092
0.879099
0.879106
0.879113
0.87912
0.87912
0.879127
0.879134
0.879141
0.879148
0.879148
0.879155
0.879162
0.879169
0.879176
0.879176
0.879183
0.879191
0.879198
0.879205
0.879205
0.879212
0.879219
0.879226
0.879233
0.879233
0.87924
0.879247
0.879254
0.879261
0.879261
0.879269
0.879276
0.879283
0.87929
0.87929
0.879297
0.879304
0.879311
0.879318
0.879318
0.879326
0.879333
0.87934
0.879347
0.879347
0.879354
0.879361
0.879368
0.879376
0.879376
0.879383
0.87939
0.879397
0.879404
0.879404
0.879411
0.879418
0.879426
0.879433
0.879433
0.87944
0.879447
0.879454
0.879461
0.879461
0.879469
0.879476
0.879483
0.87949
0.87949
0.879497
0.879505
0.879512
0.879519
0.879519
0.879526
0.879533
0.879541
0.879548
0.879548
0.879555
0.879562
0.879569
0.879577
0.879577
0.879584
0.879591
0.879598
0.879606
0.879606
0.879613
0.87962
0.879627
0.879635
0.879635
0.879642
0.879649
0.879656
0.879664
0.879664
0.879671
0.879678
0.879686
0.879693
0.879693
0.8797
0.879708
0.879715
0.879722
0.879722
0.87973
0.879737
0.879744
0.879752
0.879752
0.879759
0.879766
0.879774
0.879781
0.879781
0.879789
0.879796
0.879803
0.879811
0.879811
0.879818
0.879825
0.879833
0.87984
0.87984
0.879848
0.879855
0.879862
0.87987
0.87987
0.879877
0.879885
0.879892
0.879899
0.879899
0.879907
0.879914
0.879922
0.879929
0.879929
0.879937
0.879944
0.879951
0.879959
0.879959
0.879966
0.879974
0.879981
0.879989
0.879989
0.879996
0.880003
0.880011
0.880018
0.880018
0.880026
0.880033
0.880041
0.880048
0.880048
0.880056
0.880063
0.880071
0.880078
0.880078
0.880086
0.880093
0.8801
0.880108
0.880108
0.880115
0.880123
0.88013
0.880138
0.880138
0.880145
0.880153
0.88016
0.880168
0.880168
0.880175
0.880183
0.88019
0.880198
0.880198
0.880206
0.880213
0.880221
0.880228
0.880228
0.880236
0.880243
0.880251
0.880259
0.880259
0.880266
0.880274
0.880281
0.880289
0.880289
0.880297
0.880304
0.880312
0.88032
0.88032
0.880327
0.880335
0.880342
0.88035
0.88035
0.880358
0.880365
0.880373
0.880381
0.880381
0.880388
0.880396
0.880404
0.880411
0.880411
0.880419
0.880427
0.880434
0.880442
0.880442
0.88045
0.880457
0.880465
0.880473
0.880473
0.88048
0.880488
0.880496
0.880504
0.880504
0.880511
0.880519
0.880527
0.880534
0.880534
0.880542
0.88055
0.880557
0.880565
0.880565
0.880573
0.880581
0.880588
0.880596
0.880596
0.880604
0.880611
0.880619
0.880627
0.880627
0.880635
0.880642
0.88065
0.880658
0.880658
0.880666
0.880673
0.880681
0.880689
0.880689
0.880697
0.880704
0.880712
0.88072
0.88072
0.880728
0.880735
0.880743
0.880751
0.880751
0.880759
0.880767
0.880774
0.880782
0.880782
0.88079
0.880798
0.880806
0.880814
0.880814
0.880822
0.880829
0.880837
0.880845
0.880845
0.880853
0.880861
0.880869
0.880877
0.880877
0.880885
0.880892
0.8809
0.880908
0.880908
0.880916
0.880924
0.880932
0.88094
0.88094
0.880948
0.880956
0.880964
0.880972
0.880972
0.88098
0.880987
0.880995
0.881003
0.881003
0.881011
0.881019
0.881027
0.881035
0.881035
0.881043
0.881051
0.881059
0.881067
0.881067
0.881075
0.881083
0.881091
0.881099
0.881099
0.881107
0.881115
0.881123
0.881131
0.881131
0.881139
0.881147
0.881155
0.881163
0.881163
0.881171
0.881178
0.881186
0.881194
0.881194
0.881202
0.88121
0.881218
0.881226
0.881226
0.881234
0.881242
0.88125
0.881258
0.881258
0.881266
0.881275
0.881283
0.881291
0.881291
0.881299
0.881307
0.881315
0.881323
0.881323
0.881331
0.881339
0.881347
0.881355
0.881355
0.881363
0.881371
0.881379
0.881387
0.881387
0.881396
0.881404
0.881412
0.88142
0.88142
0.881428
0.881436
0.881444
0.881453
0.881453
0.881461
0.881469
0.881477
0.881485
0.881485
0.881493
0.881502
0.88151
0.881518
0.881518
0.881526
0.881534
0.881542
0.881551
0.881551
0.881559
0.881567
0.881575
0.881583
0.881583
0.881592
0.8816
0.881608
0.881616
0.881616
0.881624
0.881633
0.881641
0.881649
0.881649
0.881657
0.881665
0.881674
0.881682
0.881682
0.88169
0.881698
0.881707
0.881715
0.881715
0.881723
0.881731
0.881739
0.881748
0.881748
0.881756
0.881764
0.881772
0.881781
0.881781
0.881789
0.881797
0.881805
0.881814
0.881814
0.881822
0.88183
0.881838
0.881847
0.881847
0.881855
0.881863
0.881872
0.88188
0.88188
0.881888
0.881896
0.881905
0.881913
0.881913
0.881921
0.88193
0.881938
0.881947
0.881947
0.881955
0.881963
0.881972
0.88198
0.88198
0.881988
0.881997
0.882005
0.882014
0.882014
0.882022
0.88203
0.882039
0.882047
0.882047
0.882056
0.882064
0.882072
0.882081
0.882081
0.882089
0.882098
0.882106
0.882115
0.882115
0.882123
0.882131
0.88214
0.882148
0.882148
0.882157
0.882165
0.882174
0.882182
0.882182
0.882191
0.882199
0.882207
0.882216
0.882216
0.882224
0.882233
0.882241
0.88225
0.88225
0.882258
0.882267
0.882275
0.882284
0.882284
0.882292
0.882301
0.882309
0.882317
0.882317
0.882326
0.882334
0.882343
0.882351
0.882351
0.88236
0.882368
0.882377
0.882385
0.882385
0.882394
0.882402
0.882411
0.882419
0.882419
0.882428
0.882437
0.882445
0.882454
0.882454
0.882462
0.882471
0.882479
0.882488
0.882488
0.882496
0.882505
0.882514
0.882522
0.882522
0.882531
0.882539
0.882548
0.882557
0.882557
0.882565
0.882574
0.882583
0.882591
0.882591
0.8826
0.882609
0.882617
0.882626
0.882626
0.882635
0.882643
0.882652
0.882661
0.882661
0.882669
0.882678
0.882687
0.882695
0.882695
0.882704
0.882713
0.882721
0.88273
0.88273
0.882739
0.882747
0.882756
0.882765
0.882765
0.882773
0.882782
0.882791
0.882799
0.882799
0.882808
0.882817
0.882826
0.882834
0.882834
0.882843
0.882852
0.88286
0.882869
0.882869
0.882878
0.882887
0.882895
0.882904
0.882904
0.882913
0.882921
0.88293
0.882939
0.882939
0.882948
0.882956
0.882965
0.882974
0.882974
0.882983
0.882991
0.883
0.883009
0.883009
0.883018
0.883027
0.883035
0.883044
0.883044
0.883053
0.883062
0.883071
0.883079
0.883079
0.883088
0.883097
0.883106
0.883115
0.883115
0.883124
0.883132
0.883141
0.88315
0.88315
0.883159
0.883168
0.883177
0.883186
0.883186
0.883195
0.883204
0.883212
0.883221
0.883221
0.88323
0.883239
0.883248
0.883257
0.883257
0.883266
0.883275
0.883284
0.883293
0.883293
0.883301
0.88331
0.883319
0.883328
0.883328
0.883337
0.883346
0.883355
0.883364
0.883364
0.883373
0.883382
0.883391
0.8834
0.8834
0.883409
0.883418
0.883427
0.883435
0.883435
0.883444
0.883453
0.883462
0.883471
0.883471
0.88348
0.883489
0.883498
0.883507
0.883507
0.883516
0.883525
0.883534
0.883543
0.883543
0.883552
0.883561
0.88357
0.883579
0.883579
0.883588
0.883597
0.883606
0.883615
0.883615
0.883624
0.883633
0.883642
0.883651
0.883651
0.88366
0.883669
0.883679
0.883688
0.883688
0.883697
0.883706
0.883715
0.883724
0.883724
0.883733
0.883742
0.883751
0.88376
0.88376
0.88377
0.883779
0.883788
0.883797
0.883797
0.883806
0.883815
0.883824
0.883833
0.883833
0.883843
0.883852
0.883861
0.88387
0.88387
0.883879
0.883888
0.883897
0.883907
0.883907
0.883916
0.883925
0.883934
0.883943
0.883943
0.883952
0.883962
0.883971
0.88398
0.88398
0.883989
0.883998
0.884007
0.884017
0.884017
0.884026
0.884035
0.884044
0.884053
0.884053
0.884063
0.884072
0.884081
0.88409
0.88409
0.884099
0.884109
0.884118
0.884127
0.884127
0.884136
0.884145
0.884155
0.884164
0.884164
0.884173
0.884182
0.884192
0.884201
0.884201
0.88421
0.88422
0.884229
0.884238
0.884238
0.884247
0.884257
0.884266
0.884275
0.884275
0.884285
0.884294
0.884303
0.884313
0.884313
0.884322
0.884331
0.884341
0.88435
0.88435
0.884359
0.884369
0.884378
0.884387
0.884387
0.884397
0.884406
0.884416
0.884425
0.884425
0.884434
0.884444
0.884453
0.884462
0.884462
0.884472
0.884481
0.88449
0.8845
0.8845
0.884509
0.884519
0.884528
0.884537
0.884537
0.884547
0.884556
0.884566
0.884575
0.884575
0.884584
0.884594
0.884603
0.884613
0.884613
0.884622
0.884631
0.884641
0.88465
0.88465
0.88466
0.884669
0.884678
0.884688
0.884688
0.884697
0.884707
0.884716
0.884726
0.884726
0.884735
0.884745
0.884754
0.884764
0.884764
0.884773
0.884783
0.884792
0.884802
0.884802
0.884811
0.884821
0.88483
0.88484
0.88484
0.884849
0.884859
0.884868
0.884878
0.884878
0.884888
0.884897
0.884907
0.884916
0.884916
0.884926
0.884935
0.884945
0.884954
0.884954
0.884964
0.884974
0.884983
0.884993
0.884993
0.885002
0.885012
0.885022
0.885031
0.885031
0.885041
0.88505
0.88506
0.885069
0.885069
0.885079
0.885089
0.885098
0.885108
0.885108
0.885117
0.885127
0.885137
0.885146
0.885146
0.885156
0.885166
0.885175
0.885185
0.885185
0.885194
0.885204
0.885214
0.885223
0.885223
0.885233
0.885243
0.885252
0.885262
0.885262
0.885272
0.885281
0.885291
0.885301
0.885301