<?xml version="1.0"?>
<VTKFile type="UnstructuredGrid" version="0.1" byte_order="LittleEndian">
<UnstructuredGrid>
<Piece NumberOfPoints="5000" NumberOfCells="4000">
<PointData Scalars="Reaction 0">
<DataArray type="Float32" Name="Reaction 0" format="ascii">
0.583439
0.583439
0.583439
0.583439
0.583439
0.583439
0.583439
0.583439
0.583439
0.583439
0.583439
0.583439
0.58344
0.58344
0.58344
0.58344
0.58344
0.58344
0.583441
0.583441
0.583441
0.583441
0.583441
0.583442
0.583442
0.583442
0.583443
0.583443
0.583443
0.583444
0.583444
0.583444
0.583445
0.583445
0.583446
0.583446
0.583446
0.583447
0.583447
0.583448
0.583448
0.583448
0.583449
0.583449
0.58345
0.58345
0.583451
0.583451
0.583452
0.583453
0.583453
0.583453
0.583454
0.583455
0.583456
0.583456
0.583456
0.583457
0.583458
0.583459
0.583459
0.58346
0.583461
0.583462
0.583462
0.583462
0.583463
0.583464
0.583465
0.583466
0.583466
0.583467
0.583468
0.583469
0.58347
0.58347
0.583471
0.583472
0.583474
0.583475
0.583475
0.583476
0.583477
0.583478
0.583479
0.583479
0.583481
0.583482
0.583483
0.583484
0.583484
0.583486
0.583487
0.583488
0.583489
0.583489
0.583491
0.583492
0.583494
0.583495
0.583495
0.583496
0.583498
0.583499
0.583501
0.583501
0.583502
0.583504
0.583505
0.583507
0.583507
0.583508
0.58351
0.583512
0.583513
0.583513
0.583515
0.583516
0.583518
0.58352
0.58352
0.583521
0.583523
0.583525
0.583527
0.583527
0.583528
0.58353
0.583532
0.583534
0.583534
0.583536
0.583537
0.583539
0.583541
0.583541
0.583543
0.583545
0.583547
0.583549
0.583549
0.583551
0.583553
0.583555
0.583557
0.583557
0.583559
0.583561
0.583563
0.583565
0.583565
0.583567
0.58357
0.583572
0.583574
0.583574
0.583576
0.583578
0.58358
0.583583
0.583583
0.583585
0.583587
0.58359
0.583592
0.583592
0.583594
0.583596
0.583599
0.583601
0.583601
0.583604
0.583606
0.583608
0.583611
0.583611
0.583613
0.583616
0.583618
0.583621
0.583621
0.583623
0.583626
0.583629
0.583631
0.583631
0.583634
0.583636
0.583639
0.583642
0.583642
0.583644
0.583647
0.58365
0.583652
0.583652
0.583655
0.583658
0.583661
0.583663
0.583663
0.583666
0.583669
0.583672
0.583675
0.583675
0.583678
0.583681
0.583684
0.583686
0.583686
0.583689
0.583692
0.583695
0.583698
0.583698
0.583701
0.583704
0.583707
0.583711
0.583711
0.583714
0.583717
0.58372
0.583723
0.583723
0.583726
0.583729
0.583733
0.583736
0.583736
0.583739
0.583742
0.583745
0.583749
0.583749
0.583752
0.583755
0.583759
0.583762
0.583762
0.583765
0.583769
0.583772
0.583776
0.583776
0.583779
0.583782
0.583786
0.583789
0.583789
0.583793
0.583796
0.5838
0.583804
0.583804
0.583807
0.583811
0.583814
0.583818
0.583818
0.583822
0.583825
0.583829
0.583833
0.583833
0.583836
0.58384
0.583844
0.583848
0.583848
0.583851
0.583855
0.583859
0.583863
0.583863
0.583867
0.58387
0.583874
0.583878
0.583878
0.583882
0.583886
0.58389
0.583894
0.583894
0.583898
0.583902
0.583906
0.58391
0.58391
0.583914
0.583918
0.583922
0.583926
0.583926
0.58393
0.583935
0.583939
0.583943
0.583943
0.583947
0.583951
0.583955
0.58396
0.58396
0.583964
0.583968
0.583973
0.583977
0.583977
0.583981
0.583985
0.58399
0.583994
0.583994
0.583999
0.584003
0.584007
0.584012
0.584012
0.584016
0.584021
0.584025
0.58403
0.58403
0.584034
0.584039
0.584043
0.584048
0.584048
0.584053
0.584057
0.584062
0.584066
0.584066
0.584071
0.584076
0.58408
0.584085
0.584085
0.58409
0.584095
0.584099
0.584104
0.584104
0.584109
0.584114
0.584119
0.584123
0.584123
0.584128
0.584133
0.584138
0.584143
0.584143
0.584148
0.584153
0.584158
0.584163
0.584163
0.584168
0.584173
0.584178
0.584183
0.584183
0.584188
0.584193
0.584198
0.584203
0.584203
0.584208
0.584214
0.584219
0.584224
0.584224
0.584229
0.584234
0.58424
0.584245
0.584245
0.58425
0.584255
0.584261
0.584266
0.584266
0.584271
0.584277
0.584282
0.584287
0.584287
0.584293
0.584298
0.584304
0.584309
0.584309
0.584314
0.58432
0.584325
0.584331
0.584331
0.584336
0.584342
0.584348
0.584353
0.584353
0.584359
0.584364
0.58437
0.584376
0.584376
0.584381
0.584387
0.584393
0.584398
0.584398
0.584404
0.58441
0.584416
0.584421
0.584421
0.584427
0.584433
0.584439
0.584445
0.584445
0.58445
0.584456
0.584462
0.584468
0.584468
0.584474
0.58448
0.584486
0.584492
0.584492
0.584498
0.584504
0.58451
0.584516
0.584516
0.584522
0.584528
0.584534
0.58454
0.58454
0.584546
0.584553
0.584559
0.584565
0.584565
0.584571
0.584577
0.584583
0.58459
0.58459
0.584596
0.584602
0.584609
0.584615
0.584615
0.584621
0.584627
0.584634
0.58464
0.58464
0.584647
0.584653
0.584659
0.584666
0.584666
0.584672
0.584679
0.584685
0.584692
0.584692
0.584698
0.584705
0.584711
0.584717
0.584717
0.584724
0.58473
0.584737
0.584743
0.584743
0.584749
0.584756
0.584762
0.584768
0.584768
0.584774
0.58478
0.584785
0.584791
0.584791
0.584797
0.584802
0.584808
0.584813
0.584813
0.584818
0.584823
0.584828
0.584833
0.584833
0.584838
0.584843
0.584848
0.584853
0.584853
0.584858
0.584862
0.584867
0.584872
0.584872
0.584877
0.584882
0.584887
0.584892
0.584892
0.584897
0.584901
0.584906
0.584911
0.584911
0.584916
0.584921
0.584926
0.584931
0.584931
0.584936
0.584941
0.584946
0.584951
0.584951
0.584956
0.584961
0.584966
0.584971
0.584971
0.584976
0.584981
0.584986
0.584992
0.584992
0.584997
0.585002
0.585007
0.585012
0.585012
0.585017
0.585022
0.585028
0.585033
0.585033
0.585038
0.585043
0.585048
0.585054
0.585054
0.585059
0.585064
0.585069
0.585075
0.585075
0.58508
0.585085
0.58509
0.585096
0.585096
0.585101
0.585106
0.585112
0.585117
0.585117
0.585122
0.585128
0.585133
0.585139
0.585139
0.585144
0.585149
0.585155
0.58516
0.58516
0.585166
0.585171
0.585177
0.585182
0.585182
0.585187
0.585193
0.585198
0.585204
0.585204
0.58521
0.585215
0.585221
0.585226
0.585226
0.585232
0.585237
0.585243
0.585248
0.585248
0.585254
0.58526
0.585265
0.585271
0.585271
0.585277
0.585282
0.585288
0.585294
0.585294
0.585299
0.585305
0.585311
0.585316
0.585316
0.585322
0.585328
0.585334
0.585339
0.585339
0.585345
0.585351
0.585357
0.585363
0.585363
0.585368
0.585374
0.58538
0.585386
0.585386
0.585392
0.585398
0.585404
0.585409
0.585409
0.585415
0.585421
0.585427
0.585433
0.585433
0.585439
0.585445
0.585451
0.585457
0.585457
0.585463
0.585469
0.585475
0.585481
0.585481
0.585487
0.585493
0.585499
0.585505
0.585505
0.585511
0.585517
0.585523
0.585529
0.585529
0.585535
0.585542
0.585548
0.585554
0.585554
0.58556
0.585566
0.585572
0.585578
0.585578
0.585585
0.585591
0.585597
0.585603
0.585603
0.585609
0.585616
0.585622
0.585628
0.585628
0.585634
0.585641
0.585647
0.585653
0.585653
0.58566
0.585666
0.585672
0.585679
0.585679
0.585685
0.585691
0.585698
0.585704
0.585704
0.58571
0.585717
0.585723
0.58573
0.58573
0.585736
0.585743
0.585749
0.585755
0.585755
0.585762
0.585768
0.585775
0.585781
0.585781
0.585788
0.585794
0.585801
0.585808
0.585808
0.585814
0.585821
0.585827
0.585834
0.585834
0.58584
0.585847
0.585854
0.58586
0.58586
0.585867
0.585874
0.58588
0.585887
0.585887
0.585894
0.5859
0.585907
0.585914
0.585914
0.58592
0.585927
0.585934
0.585941
0.585941
0.585947
0.585954
0.585961
0.585968
0.585968
0.585974
0.585981
0.585988
0.585995
0.585995
0.586002
0.586008
0.586015
0.586022
0.586022
0.586029
0.586036
0.586043
0.58605
0.58605
0.586057
0.586064
0.586071
0.586077
0.586077
0.586084
0.586091
0.586098
0.586105
0.586105
0.586112
0.586119
0.586126
0.586133
0.586133
0.58614
0.586148
0.586155
0.586162
0.586162
0.586169
0.586176
0.586183
0.58619
0.58619
0.586197
0.586204
0.586211
0.586218
0.586218
0.586226
0.586233
0.58624
0.586247
0.586247
0.586254
0.586261
0.586269
0.586276
0.586276
0.586283
0.58629
0.586297
0.586304
0.586304
0.586311
0.586318
0.586325
0.586332
0.586332
0.586339
0.586345
0.586352
0.586358
0.586358
0.586364
0.586371
0.586377
0.586383
0.586383
0.586389
0.586394
0.5864
0.586406
0.586406
0.586411
0.586417
0.586422
0.586427
0.586427
0.586432
0.586438
0.586443
0.586448
0.586448
0.586453
0.586458
0.586463
0.586468
0.586468
0.586473
0.586479
0.586484
0.586489
0.586489
0.586494
0.586499
0.586504
0.586509
0.586509
0.586514
0.586519
0.586525
0.58653
0.58653
0.586535
0.58654
0.586545
0.58655
0.58655
0.586555
0.586561
0.586566
0.586571
0.586571
0.586576
0.586581
0.586587
0.586592
0.586592
0.586597
0.586602
0.586607
0.586613
0.586613
0.586618
0.586623
0.586628
0.586634
0.586634
0.586639
0.586644
0.58665
0.586655
0.586655
0.58666
0.586665
0.586671
0.586676
0.586676
0.586681
0.586687
0.586692
0.586697
0.586697
0.586703
0.586708
0.586713
0.586719
0.586719
0.586724
0.586729
0.586735
0.58674
0.58674
0.586746
0.586751
0.586756
0.586762
0.586762
0.586767
0.586773
0.586778
0.586784
0.586784
0.586789
0.586794
0.5868
0.586805
0.586805
0.586811
0.586816
0.586822
0.586827
0.586827
0.586833
0.586838
0.586844
0.586849
0.586849
0.586855
0.58686
0.586866
0.586871
0.586871
0.586877
0.586882
0.586888
0.586894
0.586894
0.586899
0.586905
0.58691
0.586916
0.586916
0.586922
0.586927
0.586933
0.586938
0.586938
0.586944
0.58695
0.586955
0.586961
0.586961
0.586966
0.586972
0.586978
0.586983
0.586983
0.586989
0.586995
0.587001
0.587006
0.587006
0.587012
0.587018
0.587023
0.587029
0.587029
0.587035
0.58704
0.587046
0.587052
0.587052
0.587058
0.587063
0.587069
0.587075
0.587075
0.587081
0.587087
0.587092
0.587098
0.587098
0.587104
0.58711
0.587116
0.587121
0.587121
0.587127
0.587133
0.587139
0.587145
0.587145
0.587151
0.587156
0.587162
0.587168
0.587168
0.587174
0.58718
0.587186
0.587192
0.587192
0.587198
0.587203
0.587209
0.587215
0.587215
0.587221
0.587227
0.587233
0.587239
0.587239
0.587245
0.587251
0.587257
0.587263
0.587263
0.587269
0.587275
0.587281
0.587287
0.587287
0.587293
0.587299
0.587305
0.587311
0.587311
0.587317
0.587323
0.587329
0.587335
0.587335
0.587341
0.587347
0.587353
0.587358
0.587358
0.587364
0.58737
0.587376
0.587381
0.587381
0.587387
0.587392
0.587398
0.587403
0.587403
0.587408
0.587414
0.587419
0.587424
0.587424
0.587429
0.587433
0.587438
0.587443
0.587443
0.587447
0.587452
0.587456
0.58746
0.58746
0.587465
0.587469
0.587473
0.587477
0.587477
0.587481
0.587486
0.58749
0.587494
0.587494
0.587498
0.587502
0.587506
0.58751
0.58751
0.587514
0.587518
0.587522
0.587526
0.587526
0.58753
0.587534
0.587539
0.587543
0.587543
0.587547
0.587551
0.587555
0.587559
0.587559
0.587563
0.587567
0.587571
0.587575
0.587575
0.58758
0.587584
0.587588
0.587592
0.587592
0.587596
0.5876
0.587604
0.587608
0.587608
0.587613
0.587617
0.587621
0.587625
0.587625
0.587629
0.587633
0.587638
0.587642
0.587642
0.587646
0.58765
0.587654
0.587659
0.587659
0.587663
0.587667
0.587671
0.587675
0.587675
0.58768
0.587684
0.587688
0.587692
0.587692
0.587697
0.587701
0.587705
0.587709
0.587709
0.587714
0.587718
0.587722
0.587726
0.587726
0.587731
0.587735
0.587739
0.587743
0.587743
0.587748
0.587752
0.587756
0.587761
0.587761
0.587765
0.587769
0.587774
0.587778
0.587778
0.587782
0.587787
0.587791
0.587795
0.587795
0.5878
0.587804
0.587808
0.587813
0.587813
0.587817
0.587821
0.587826
0.58783
0.58783
0.587834
0.587839
0.587843
0.587848
0.587848
0.587852
0.587856
0.587861
0.587865
0.587865
0.58787
0.587874
0.587878
0.587883
0.587883
0.587887
0.587892
0.587896
0.587901
0.587901
0.587905
0.58791
0.587914
0.587918
0.587918
0.587923
0.587927
0.587932
0.587936
0.587936
0.587941
0.587945
0.58795
0.587954
0.587954
0.587959
0.587963
0.587968
0.587972
0.587972
0.587977
0.587981
0.587986
0.587991
0.587991
0.587995
0.588
0.588004
0.588009
0.588009
0.588013
0.588018
0.588022
0.588027
0.588027
0.588031
0.588036
0.58804
0.588044
0.588044
0.588049
0.588053
0.588057
0.588062
0.588062
0.588066
0.58807
0.588074
0.588078
0.588078
0.588082
0.588085
0.588089
0.588093
0.588093
0.588097
0.5881
0.588104
0.588107
0.588107
0.58811
0.588114
0.588117
0.58812
0.58812
0.588123
0.588126
0.588129
0.588132
0.588132
0.588135
0.588138
0.588141
0.588144
0.588144
0.588147
0.58815
0.588153
0.588156
0.588156
0.588159
0.588162
0.588165
0.588168
0.588168
0.588171
0.588173
0.588176
0.588179
0.588179
0.588182
0.588185
0.588188
0.588191
0.588191
0.588194
0.588197
0.5882
0.588203
0.588203
0.588206
0.588208
0.588211
0.588214
0.588214
0.588217
0.58822
0.588223
0.588226
0.588226
0.588229
0.588232
0.588235
0.588238
0.588238
0.588241
0.588244
0.588247
0.58825
0.58825
0.588253
0.588256
0.588259
0.588262
0.588262
0.588265
0.588268
0.588271
0.588274
0.588274
0.588277
0.58828
0.588283
0.588286
0.588286
0.588289
0.588292
0.588295
0.588298
0.588298
0.588301
0.588304
0.588307
0.58831
0.58831
0.588313
0.588317
0.58832
0.588323
0.588323
0.588326
0.588329
0.588332
0.588335
0.588335
0.588338
0.588341
0.588344
0.588347
0.588347
0.58835
0.588354
0.588357
0.58836
0.58836
0.588363
0.588366
0.588369
0.588372
0.588372
0.588375
0.588379
0.588382
0.588385
0.588385
0.588388
0.588391
0.588394
0.588397
0.588397
0.588401
0.588404
0.588407
0.58841
0.58841
0.588413
0.588417
0.58842
0.588423
0.588423
0.588426
0.588429
0.588432
0.588436
0.588436
0.588439
0.588442
0.588445
0.588448
0.588448
0.588452
0.588455
0.588458
0.588461
0.588461
0.588464
0.588467
0.588471
0.588474
0.588474
0.588477
0.58848
0.588483
0.588486
0.588486
0.588489
0.588491
0.588494
0.588497
0.588497
0.5885
0.588502
0.588505
0.588508
0.588508
0.58851
0.588513
0.588515
0.588517
0.588517
0.58852
0.588522
0.588524
0.588526
0.588526
0.588529
0.588531
0.588533
0.588535
0.588535
0.588537
0.588539
0.588541
0.588543
0.588543
0.588545
0.588547
0.588548
0.58855
0.58855
0.588552
0.588554
0.588556
0.588558
0.588558
0.58856
0.588562
0.588564
0.588566
0.588566
0.588567
0.588569
0.588571
0.588573
0.588573
0.588575
0.588577
0.588579
0.588581
0.588581
0.588583
0.588585
0.588587
0.588589
0.588589
0.58859
0.588592
0.588594
0.588596
0.588596
0.588598
0.5886
0.588602
0.588604
0.588604
0.588606
0.588608
0.58861
0.588612
0.588612
0.588614
0.588616
0.588618
0.58862
0.58862
0.588622
0.588624
0.588626
0.588628
0.588628
0.58863
0.588632
0.588634
0.588636
0.588636
0.588638
0.58864
0.588642
0.588644
0.588644
0.588646
0.588648
0.58865
0.588652
0.588652
0.588654
0.588656
0.588658
0.58866
0.58866
0.588662
0.588664
0.588666
0.588668
0.588668
0.58867
0.588673
0.588675
0.588677
0.588677
0.588679
0.588681
0.588683
0.588685
0.588685
0.588687
0.588689
0.588691
0.588693
0.588693
0.588695
0.588698
0.5887
0.588702
0.588702
0.588704
0.588706
0.588708
0.58871
0.58871
0.588712
0.588715
0.588717
0.588719
0.588719
0.588721
0.588723
0.588725
0.588727
0.588727
0.588729
0.588731
0.588733
0.588735
0.588735
0.588737
0.588739
0.588741
0.588743
0.588743
0.588745
0.588747
0.588748
0.58875
0.58875
0.588752
0.588754
0.588755
0.588757
0.588757
0.588758
0.58876
0.588762
0.588763
0.588763
0.588764
0.588766
0.588767
0.588769
0.588769
0.58877
0.588771
0.588772
0.588774
0.588774
0.588775
0.588776
0.588777
0.588778
0.588778
0.58878
0.588781
0.588782
0.588783
0.588783
0.588784
0.588785
0.588786
0.588787
0.588787
0.588789
0.58879
0.588791
0.588792
0.588792
0.588793
0.588794
0.588795
0.588796
0.588796
0.588798
0.588799
0.5888
0.588801
0.588801
0.588802
0.588803
0.588804
0.588806
0.588806
0.588807
0.588808
0.588809
0.58881
0.58881
0.588811
0.588813
0.588814
0.588815
0.588815
0.588816
0.588817
0.588818
0.58882
0.58882
0.588821
0.588822
0.588823
0.588824
0.588824
0.588826
0.588827
0.588828
0.588829
0.588829
0.58883
0.588832
0.588833
0.588834
0.588834
0.588835
0.588837
0.588838
0.588839
0.588839
0.58884
0.588842
0.588843
0.588844
0.588844
0.588845
0.588847
0.588848
0.588849
0.588849
0.58885
0.588852
0.588853
0.588854
0.588854
0.588856
0.588857
0.588858
0.588859
0.588859
0.588861
0.588862
0.588863
0.588865
0.588865
0.588866
0.588867
0.588869
0.58887
0.58887
0.588871
0.588872
0.588874
0.588875
0.588875
0.588876
0.588877
0.588879
0.58888
0.58888
0.588881
0.588882
0.588884
0.588885
0.588885
0.588886
0.588887
0.588888
0.588889
0.588889
0.58889
0.588891
0.588892
0.588893
0.588893
0.588894
0.588895
0.588896
0.588897
0.588897
0.588898
0.588898
0.588899
0.5889
0.5889
0.588901
0.588901
0.588902
0.588903
0.588903
0.588903
0.588904
0.588905
0.588905
0.588905
0.588906
0.588906
0.588907
0.588908
0.588908
0.588908
0.588909
0.588909
0.58891
0.58891
0.58891
0.588911
0.588912
0.588912
0.588912
0.588913
0.588913
0.588914
0.588914
0.588914
0.588915
0.588915
0.588916
0.588917
0.588917
0.588917
0.588918
0.588918
0.588919
0.588919
0.58892
0.58892
0.588921
0.588921
0.588921
0.588922
0.588923
0.588923
0.588924
0.588924
0.588924
0.588925
0.588926
0.588926
0.588926
0.588927
0.588928
0.588928
0.588929
0.588929
0.588929
0.58893
0.588931
0.588931
0.588931
0.588932
0.588933
0.588933
0.588934
0.588934
0.588935
0.588935
0.588936
0.588937
0.588937
0.588937
0.588938
0.588939
0.588939
0.588939
0.58894
0.588941
0.588942
0.588942
0.588942
0.588943
0.588944
0.588944
0.588945
0.588945
0.588946
0.588947
0.588947
0.588948
0.588948
0.588949
0.588949
0.58895
0.588951
0.588951
0.588952
0.588952
0.588953
0.588954
0.588954
0.588954
0.588955
0.588956
0.588956
0.588956
0.588957
0.588957
0.588958
0.588959
0.588959
0.588959
0.58896
0.58896
0.588961
0.588961
0.588961
0.588962
0.588962
0.588962
0.588962
0.588963
0.588963
0.588964
0.588964
0.588964
0.588964
0.588965
0.588965
0.588965
0.588965
0.588966
0.588966
0.588966
0.588966
0.588966
0.588967
0.588967
0.588967
0.588967
0.588967
0.588967
0.588968
0.588968
0.588968
0.588968
0.588968
0.588968
0.588968
0.588969
0.588969
0.588969
0.588969
0.588969
0.588969
0.588969
0.58897
0.58897
0.58897
0.58897
0.58897
0.58897
0.588971
0.588971
0.588971
0.588971
0.588971
0.588971
0.588972
0.588972
0.588972
0.588972
0.588972
0.588972
0.588973
0.588973
0.588973
0.588973
0.588973
0.588974
0.588974
0.588974
0.588974
0.588974
0.588975
0.588975
0.588975
0.588975
0.588976
0.588976
0.588976
0.588976
0.588976
0.588977
0.588977
0.588977
0.588977
0.588977
0.588978
0.588978
0.588978
0.588978
0.588979
0.588979
0.588979
0.588979
0.58898
0.58898
0.58898
0.588981
0.588981
0.588981
0.588981
0.588982
0.588982
0.588982
0.588982
0.588982
0.588983
0.588983
0.588983
0.588983
0.588984
0.588984
0.588984
0.588984
0.588985
0.588985
0.588985
0.588985
0.588985
0.588986
0.588986
0.588986
0.588986
0.588986
0.588986
0.588987
0.588987
0.588987
0.588987
0.588987
0.588987
0.588987
0.588987
0.588987
0.588988
0.588988
0.588988
0.588988
0.588988
0.588988
0.588988
0.588988
0.588988
0.588988
0.588988
0.588988
0.588988
0.588988
0.588988
0.588988
0.588988
0.588988
0.588988
0.588988
0.588988
0.588988
0.588988
0.588988
0.588988
0.588988
0.588988
0.588987
0.588987
0.588987
0.588987
0.588987
0.588987
0.588987
0.588987
0.588987
0.588987
0.588987
0.588987
0.588987
0.588987
0.588987
0.588987
0.588987
0.588987
0.588987
0.588987
0.588987
0.588987
0.588987
0.588987
0.588987
0.588987
0.588987
0.588987
0.588987
0.588987
0.588987
0.588987
0.588987
0.588987
0.588987
0.588987
0.588987
0.588987
0.588987
0.588987
0.588987
0.588987
0.588987
0.588987
0.588987
0.588987
0.588987
0.588987
0.588988
0.588988
0.588988
0.588988
0.588988
0.588988
0.588988
0.588988
0.588988
0.588988
0.588988
0.588988
0.588988
0.588988
0.588988
0.588988
0.588988
0.588989
0.588989
0.588989
0.588989
0.588989
0.588989
0.588989
0.588989
0.588989
0.588989
0.588989
0.588989
0.588989
0.588989
0.588989
0.588989
0.588989
0.588989
0.588989
0.588989
0.588989
0.588989
0.588989
0.588989
0.588989
0.588988
0.588988
0.588988
0.588988
0.588988
0.588988
0.588988
0.588988
0.588988
0.588988
0.588988
0.588988
0.588988
0.588987
0.588987
0.588987
0.588987
0.588987
0.588987
0.588987
0.588986
0.588986
0.588986
0.588986
0.588986
0.588986
0.588986
0.588986
0.588985
0.588985
0.588985
0.588985
0.588985
0.588985
0.588985
0.588984
0.588984
0.588984
0.588984
0.588984
0.588984
0.588984
0.588984
0.588984
0.588983
0.588983
0.588983
0.588983
0.588983
0.588983
0.588983
0.588983
0.588983
0.588982
0.588982
0.588982
0.588982
0.588982
0.588982
0.588982
0.588982
0.588982
0.588982
0.588982
0.588982
0.588982
0.588981
0.588981
0.588981
0.588981
0.588981
0.588981
0.588981
0.588981
0.588981
0.588981
0.588981
0.588981
0.588981
0.588981
0.588981
0.588981
0.588981
0.588981
0.588981
0.58898
0.58898
0.58898
0.58898
0.58898
0.58898
0.58898
0.58898
0.58898
0.58898
0.58898
0.58898
0.58898
0.58898
0.58898
0.588979
0.588979
0.588979
0.588979
0.588979
0.588979
0.588979
0.588979
0.588979
0.588979
0.588978
0.588978
0.588978
0.588978
0.588978
0.588978
0.588978
0.588978
0.588978
0.588977
0.588977
0.588977
0.588977
0.588977
0.588977
0.588976
0.588976
0.588976
0.588976
0.588976
0.588976
0.588975
0.588975
0.588975
0.588975
0.588975
0.588975
0.588975
0.588974
0.588974
0.588974
0.588974
0.588974
0.588974
0.588973
0.588973
0.588973
0.588973
0.588973
0.588973
0.588972
0.588972
0.588972
0.588972
0.588972
0.588972
0.588972
0.588972
0.588971
0.588971
0.588971
0.588971
0.588971
0.588971
0.588971
0.588971
0.58897
0.58897
0.58897
0.58897
0.58897
0.58897
0.58897
0.58897
0.58897
0.588969
0.588969
0.588969
0.588969
0.588969
0.588969
0.588969
0.588969
0.588969
0.588969
0.588969
0.588968
0.588968
0.588968
0.588968
0.588968
0.588968
0.588968
0.588968
0.588968
0.588968
0.588968
0.588968
0.588967
0.588967
0.588967
0.588967
0.588967
0.588967
0.588967
0.588967
0.588967
0.588967
0.588966
0.588966
0.588966
0.588966
0.588966
0.588966
0.588966
0.588966
0.588965
0.588965
0.588965
0.588965
0.588965
0.588965
0.588965
0.588965
0.588965
0.588964
0.588964
0.588964
0.588964
0.588964
0.588964
0.588964
0.588964
0.588963
0.588963
0.588963
0.588963
0.588963
0.588963
0.588963
0.588962
0.588962
0.588962
0.588962
0.588962
0.588962
0.588961
0.588961
0.588961
0.588961
0.588961
0.588961
0.588961
0.588961
0.58896
0.58896
0.58896
0.58896
0.58896
0.58896
0.58896
0.58896
0.58896
0.588959
0.588959
0.588959
0.588959
0.588959
0.588959
0.588959
0.588959
0.588958
0.588958
0.588958
0.588958
0.588958
0.588958
0.588958
0.588958
0.588958
0.588958
0.588958
0.588958
0.588958
0.588957
0.588957
0.588957
0.588957
0.588957
0.588957
0.588957
0.588957
0.588957
0.588957
0.588957
0.588957
0.588957
0.588957
0.588956
0.588956
0.588956
0.588956
0.588956
0.588956
0.588956
0.588956
0.588956
0.588956
0.588956
0.588956
0.588956
0.588955
0.588955
0.588955
0.588955
0.588955
0.588955
0.588955
0.588955
0.588955
0.588955
0.588955
0.588955
0.588955
0.588954
0.588954
0.588954
0.588954
0.588954
0.588954
0.588954
0.588954
0.588954
0.588954
0.588954
0.588954
0.588953
0.588953
0.588953
0.588953
0.588953
0.588953
0.588953
0.588953
0.588953
0.588953
0.588953
0.588953
0.588952
0.588952
0.588952
0.588952
0.588952
0.588952
0.588952
0.588952
0.588952
0.588952
0.588952
0.588952
0.588951
0.588951
0.588951
0.588951
0.588951
0.588951
0.588951
0.588951
0.588951
0.588951
0.588951
0.588951
0.588951
0.588951
0.588951
0.588951
0.588951
0.588951
0.588951
0.588951
0.588951
0.588951
0.588951
0.588951
0.58895
0.58895
0.58895
0.58895
0.58895
0.58895
0.58895
0.58895
0.58895
0.58895
0.58895
0.58895
0.58895
0.58895
0.58895
0.58895
0.58895
0.58895
0.58895
0.58895
0.58895
0.58895
0.58895
0.58895
0.58895
0.58895
0.58895
0.58895
0.58895
0.58895
0.58895
0.58895
0.58895
0.58895
0.58895
0.58895
0.58895
0.58895
0.58895
0.58895
0.58895
0.58895
0.58895
0.58895
0.58895
0.58895
0.58895
0.58895
0.58895
0.58895
0.58895
0.58895
0.58895
0.58895
0.58895
0.58895
0.58895
0.58895
0.58895
0.58895
0.58895
0.58895
0.58895
0.58895
0.58895
0.58895
0.58895
0.58895
0.58895
0.58895
0.58895
0.58895
0.58895
0.58895
0.58895
0.58895
0.58895
0.58895
0.58895
0.58895
0.58895
0.58895
0.58895
0.58895
0.58895
0.58895
0.58895
0.58895
0.58895
0.58895
0.58895
0.58895
0.588951
0.588951
0.588951
0.588951
0.588951
0.588951
0.588951
0.588951
0.588951
0.588951
0.588951
0.588951
0.588951
0.588951
0.588951
0.588951
0.588951
0.588952
0.588952
0.588952
0.588952
0.588952
0.588952
0.588952
0.588952
0.588952
0.588952
0.588952
0.588952
0.588952
0.588952
0.588952
0.588952
0.588953
0.588953
0.588953
0.588953
0.588953
0.588953
0.588953
0.588953
0.588953
0.588953
0.588953
0.588954
0.588954
0.588954
0.588954
0.588954
0.588954
0.588954
0.588954
0.588954
0.588954
0.588954
0.588955
0.588955
0.588955
0.588955
0.588955
0.588955
0.588955
0.588955
0.588955
0.588955
0.588956
0.588956
0.588956
0.588956
0.588956
0.588956
0.588956
0.588956
0.588956
0.588956
0.588957
0.588957
0.588957
0.588957
0.588957
0.588957
0.588957
0.588957
0.588958
0.588958
0.588958
0.588958
0.588958
0.588958
0.588958
0.588959
0.588959
0.588959
0.588959
0.588959
0.588959
0.588959
0.58896
0.58896
0.58896
0.58896
0.58896
0.58896
0.588961
0.588961
0.588961
0.588961
0.588961
0.588961
0.588962
0.588962
0.588962
0.588962
0.588962
0.588962
0.588963
0.588963
0.588963
0.588963
0.588963
0.588963
0.588963
0.588964
0.588964
0.588964
0.588964
0.588964
0.588964
0.588965
0.588965
0.588965
0.588965
0.588965
0.588966
0.588966
0.588966
0.588966
0.588966
0.588967
0.588967
0.588967
0.588967
0.588967
0.588968
0.588968
0.588968
0.588968
0.588968
0.588969
0.588969
0.588969
0.588969
0.588969
0.58897
0.58897
0.58897
0.58897
0.588971
0.588971
0.588971
0.588971
0.588971
0.588972
0.588972
0.588972
0.588972
0.588972
0.588973
0.588973
0.588973
0.588974
0.588974
0.588974
0.588974
0.588975
0.588975
0.588975
0.588975
0.588975
0.588976
0.588976
0.588976
0.588976
0.588977
0.588977
0.588977
0.588977
0.588978
0.588978
0.588978
0.588979
0.588979
0.588979
0.588979
0.58898
0.58898
0.58898
0.58898
0.588981
0.588981
0.588981
0.588981
0.588982
0.588982
0.588982
0.588983
0.588983
0.588983
0.588983
0.588984
0.588984
0.588984
0.588985
0.588985
0.588985
0.588986
0.588986
0.588986
0.588986
0.588987
0.588987
0.588987
0.588988
0.588988
0.588988
0.588989
0.588989
0.588989
0.58899
0.58899
0.58899
0.58899
0.588991
0.588991
0.588992
0.588992
0.588992
0.588992
0.588993
0.588993
0.588994
0.588994
0.588994
0.588995
0.588995
0.588995
0.588995
0.588996
0.588996
0.588997
0.588997
0.588997
0.588997
0.588998
0.588998
0.588999
0.588999
0.588999
0.589
0.589
0.589001
0.589001
0.589001
0.589001
0.589002
0.589002
0.589002
0.589003
0.589003
0.589004
0.589004
0.589004
0.589005
0.589005
0.589006
0.589006
0.589006
0.589007
0.589007
0.589008
0.589008
0.589008
0.589009
0.589009
0.58901
0.58901
0.58901
0.589011
0.589011
0.589012
0.589012
0.589012
0.589013
0.589013
0.589014
0.589014
0.589014
0.589015
0.589015
0.589016
0.589016
0.589016
0.589017
0.589017
0.589018
0.589018
0.589018
0.589019
0.589019
0.58902
0.58902
0.58902
0.589021
0.589022
0.589022
0.589023
0.589023
0.589023
0.589024
0.589024
0.589025
0.589025
0.589025
0.589026
0.589027
0.589027
0.589027
0.589028
0.589028
0.589029
0.589029
0.589029
0.58903
0.589031
0.589031
0.589032
0.589032
0.589032
0.589033
0.589034
0.589034
0.589034
0.589035
0.589035
0.589036
0.589037
0.589037
0.589037
0.589038
0.589038
0.589039
0.589039
0.58904
0.58904
0.589041
0.589042
0.589042
0.589042
0.589043
0.589043
0.589044
0.589044
0.589045
0.589045
0.589046
0.589047
0.589047
0.589047
0.589048
0.589049
0.589049
0.589049
0.58905
0.58905
0.589051
0.589052
0.589052
0.589052
0.589053
0.589054
0.589054
0.589054
0.589055
0.589056
0.589056
0.589057
0.589057
0.589058
0.589058
0.589059
0.58906
0.58906
0.589061
0.589061
0.589062
0.589063
0.589063
0.589064
0.589064
0.589065
0.589066
0.589066
0.589066
0.589067
0.589068
0.589069
0.589069
0.589069
0.58907
0.589071
0.589071
0.589071
0.589072
0.589073
0.589074
0.589074
0.589074
0.589075
0.589076
0.589077
0.589077
0.589077
0.589078
0.589079
0.58908
0.58908
0.58908
0.589081
0.589082
0.589083
0.589084
0.589084
0.589084
0.589085
0.589086
0.589087
0.589087
0.589087
0.589088
0.589089
0.58909
0.58909
0.589091
0.589091
0.589092
0.589093
0.589093
0.589094
0.589095
0.589095
0.589096
0.589096
0.589097
0.589098
0.589099
0.589099
0.589099
0.5891
0.589101
0.589102
0.589103
0.589103
0.589103
0.589104
0.589105
0.589106
0.589106
0.589107
0.589108
0.589109
0.589109
0.589109
0.58911
0.589111
0.589112
0.589113
0.589113
0.589114
0.589115
0.589116
0.589116
0.589116
0.589117
0.589118
0.589119
0.58912
0.58912
0.589121
0.589122
0.589123
0.589124
0.589124
0.589124
0.589125
0.589126
0.589127
0.589127
0.589128
0.589129
0.58913
0.589131
0.589131
0.589132
0.589133
0.589134
0.589135
0.589135
0.589135
0.589136
0.589137
0.589138
0.589138
0.589139
0.58914
0.589141
0.589142
0.589142
0.589143
0.589144
0.589145
0.589146
0.589146
0.589147
0.589148
0.589149
0.58915
0.58915
0.589151
0.589152
0.589153
0.589153
0.589153
0.589154
0.589155
0.589156
0.589157
0.589157
0.589158
0.589159
0.58916
0.589161
0.589161
0.589162
0.589163
0.589164
0.589165
0.589165
0.589166
0.589167
0.589168
0.589169
0.589169
0.58917
0.589171
0.589172
0.589173
0.589173
0.589175
0.589176
0.589177
0.589178
0.589178
0.589179
0.58918
0.589181
0.589182
0.589182
0.589183
0.589184
0.589185
0.589186
0.589186
0.589187
0.589188
0.589189
0.58919
0.58919
0.589191
0.589193
0.589194
0.589195
0.589195
0.589196
0.589197
0.589198
0.589199
0.589199
0.5892
0.589201
0.589202
0.589203
0.589203
0.589205
0.589206
0.589207
0.589208
0.589208
0.589209
0.58921
0.589211
0.589212
0.589212
0.589213
0.589215
0.589216
0.589217
0.589217
0.589218
0.589219
0.58922
0.589221
0.589221
0.589222
0.589224
0.589225
0.589226
0.589226
0.589227
0.589228
0.589229
0.58923
0.58923
0.589232
0.589233
0.589234
0.589235
0.589235
0.589236
0.589238
0.589239
0.58924
0.58924
0.589241
0.589242
0.589244
0.589245
0.589245
0.589246
0.589247
0.589248
0.58925
0.58925
0.589251
0.589252
0.589253
0.589255
0.589255
0.589256
0.589257
0.589258
0.589259
0.589259
0.589261
0.589262
0.589263
0.589264
0.589264
0.589266
0.589267
0.589268
0.589269
0.589269
0.589271
0.589272
0.589273
0.589274
0.589274
0.589276
0.589277
0.589278
0.58928
0.58928
0.589281
0.589282
0.589283
0.589285
0.589285
0.589286
0.589287
0.589288
0.58929
0.58929
0.589291
0.589292
0.589294
0.589295
0.589295
0.589296
0.589297
0.589299
0.5893
0.5893
0.589301
0.589303
0.589304
0.589305
0.589305
0.589307
0.589308
0.589309
0.589311
0.589311
0.589312
0.589313
0.589315
0.589316
0.589316
0.589317
0.589319
0.58932
0.589322
0.589322
0.589323
0.589324
0.589326
0.589327
0.589327
0.589328
0.58933
0.589331
0.589333
0.589333
0.589334
0.589335
0.589337
0.589338
0.589338
0.58934
0.589341
0.589342
0.589344
0.589344
0.589345
0.589347
0.589348
0.589349
0.589349
0.589351
0.589352
0.589354
0.589355
0.589355
0.589357
0.589358
0.589359
0.589361
0.589361
0.589362
0.589364
0.589365
0.589367
0.589367
0.589368
0.58937
0.589371
0.589372
0.589372
0.589374
0.589375
0.589377
0.589378
0.589378
0.58938
0.589381
0.589383
0.589384
0.589384
0.589385
0.589387
0.589388
0.58939
0.58939
0.589391
0.589393
0.589394
0.589396