<?xml version="1.0"?>
<VTKFile type="UnstructuredGrid" version="0.1" byte_order="LittleEndian">
<UnstructuredGrid>
<Piece NumberOfPoints="5000" NumberOfCells="4000">
<PointData Scalars="Reaction 0">
<DataArray type="Float32" Name="Reaction 0" format="ascii">
0.542975
0.542975
0.542975
0.542975
0.542975
0.542975
0.542976
0.542976
0.542976
0.542976
0.542976
0.542977
0.542977
0.542978
0.542978
0.542978
0.542979
0.54298
0.54298
0.542981
0.542981
0.542982
0.542982
0.542983
0.542984
0.542984
0.542985
0.542986
0.542987
0.542988
0.542988
0.542989
0.542991
0.542992
0.542993
0.542993
0.542994
0.542996
0.542997
0.542999
0.542999
0.543
0.543002
0.543003
0.543005
0.543005
0.543007
0.543008
0.54301
0.543012
0.543012
0.543014
0.543016
0.543018
0.54302
0.54302
0.543022
0.543024
0.543026
0.543028
0.543028
0.543031
0.543033
0.543035
0.543038
0.543038
0.54304
0.543042
0.543045
0.543048
0.543048
0.54305
0.543053
0.543056
0.543058
0.543058
0.543061
0.543064
0.543067
0.54307
0.54307
0.543073
0.543076
0.543079
0.543082
0.543082
0.543085
0.543088
0.543092
0.543095
0.543095
0.543098
0.543102
0.543105
0.543109
0.543109
0.543112
0.543116
0.543119
0.543123
0.543123
0.543127
0.543131
0.543134
0.543138
0.543138
0.543142
0.543146
0.54315
0.543154
0.543154
0.543158
0.543162
0.543167
0.543171
0.543171
0.543175
0.54318
0.543184
0.543188
0.543188
0.543193
0.543197
0.543202
0.543206
0.543206
0.543211
0.543216
0.543221
0.543225
0.543225
0.54323
0.543235
0.54324
0.543245
0.543245
0.54325
0.543255
0.54326
0.543265
0.543265
0.543271
0.543276
0.543281
0.543286
0.543286
0.543292
0.543297
0.543303
0.543308
0.543308
0.543314
0.54332
0.543325
0.543331
0.543331
0.543337
0.543343
0.543348
0.543354
0.543354
0.54336
0.543366
0.543372
0.543378
0.543378
0.543385
0.543391
0.543397
0.543403
0.543403
0.54341
0.543416
0.543422
0.543429
0.543429
0.543435
0.543442
0.543448
0.543455
0.543455
0.543462
0.543469
0.543475
0.543482
0.543482
0.543489
0.543496
0.543503
0.54351
0.54351
0.543517
0.543524
0.543531
0.543539
0.543539
0.543546
0.543553
0.54356
0.543568
0.543568
0.543575
0.543583
0.54359
0.543598
0.543598
0.543606
0.543613
0.543621
0.543629
0.543629
0.543636
0.543644
0.543652
0.54366
0.54366
0.543668
0.543676
0.543684
0.543692
0.543692
0.543701
0.543709
0.543717
0.543725
0.543725
0.543734
0.543742
0.543751
0.543759
0.543759
0.543768
0.543776
0.543785
0.543794
0.543794
0.543803
0.543811
0.54382
0.543829
0.543829
0.543838
0.543847
0.543856
0.543865
0.543865
0.543874
0.543883
0.543893
0.543902
0.543902
0.543911
0.54392
0.54393
0.543939
0.543939
0.543949
0.543958
0.543968
0.543978
0.543978
0.543987
0.543997
0.544007
0.544017
0.544017
0.544026
0.544036
0.544046
0.544056
0.544056
0.544066
0.544076
0.544087
0.544097
0.544097
0.544107
0.544117
0.544128
0.544138
0.544138
0.544148
0.544159
0.544169
0.54418
0.54418
0.544191
0.544201
0.544212
0.544223
0.544223
0.544233
0.544244
0.544255
0.544266
0.544266
0.544277
0.544288
0.544299
0.54431
0.54431
0.544322
0.544333
0.544344
0.544355
0.544355
0.544367
0.544378
0.54439
0.544401
0.544401
0.544413
0.544424
0.544436
0.544448
0.544448
0.544459
0.544471
0.544483
0.544495
0.544495
0.544507
0.544519
0.544531
0.544543
0.544543
0.544555
0.544567
0.544579
0.544592
0.544592
0.544604
0.544616
0.544629
0.544641
0.544641
0.544654
0.544666
0.544679
0.544691
0.544691
0.544704
0.544717
0.544729
0.544742
0.544742
0.544755
0.544768
0.544781
0.544794
0.544794
0.544807
0.54482
0.544833
0.544846
0.544846
0.54486
0.544873
0.544886
0.5449
0.5449
0.544913
0.544927
0.54494
0.544954
0.544954
0.544967
0.544981
0.544995
0.545008
0.545008
0.545022
0.545036
0.54505
0.545064
0.545064
0.545078
0.545092
0.545106
0.54512
0.54512
0.545134
0.545149
0.545163
0.545177
0.545177
0.545192
0.545206
0.545221
0.545235
0.545235
0.54525
0.545264
0.545279
0.545294
0.545294
0.545308
0.545323
0.545338
0.545353
0.545353
0.545368
0.545383
0.545398
0.545413
0.545413
0.545428
0.545443
0.545458
0.545474
0.545474
0.545489
0.545504
0.54552
0.545535
0.545535
0.545551
0.545566
0.545582
0.545598
0.545598
0.545613
0.545629
0.545645
0.545661
0.545661
0.545677
0.545692
0.545708
0.545724
0.545724
0.545741
0.545757
0.545773
0.545789
0.545789
0.545805
0.545822
0.545838
0.545854
0.545854
0.545871
0.545887
0.545904
0.545921
0.545921
0.545937
0.545954
0.545971
0.545987
0.545987
0.546004
0.546021
0.546038
0.546055
0.546055
0.546072
0.546089
0.546106
0.546123
0.546123
0.546141
0.546158
0.546175
0.546193
0.546193
0.54621
0.546227
0.546245
0.546262
0.546262
0.54628
0.546298
0.546315
0.546333
0.546333
0.546351
0.546369
0.546387
0.546405
0.546405
0.546423
0.546441
0.546459
0.546477
0.546477
0.546495
0.546513
0.546531
0.54655
0.54655
0.546568
0.546587
0.546605
0.546624
0.546624
0.546642
0.546661
0.546679
0.546698
0.546698
0.546717
0.546736
0.546754
0.546773
0.546773
0.546792
0.546811
0.54683
0.546849
0.546849
0.546868
0.546888
0.546907
0.546926
0.546926
0.546945
0.546965
0.546984
0.547004
0.547004
0.547023
0.547043
0.547062
0.547082
0.547082
0.547102
0.547122
0.547141
0.547161
0.547161
0.547181
0.547201
0.547221
0.547241
0.547241
0.547261
0.547281
0.547301
0.547322
0.547322
0.547342
0.547362
0.547383
0.547403
0.547403
0.547424
0.547444
0.547465
0.547485
0.547485
0.547506
0.547527
0.547547
0.547568
0.547568
0.547589
0.54761
0.547631
0.547652
0.547652
0.547673
0.547694
0.547715
0.547737
0.547737
0.547758
0.547779
0.5478
0.547822
0.547822
0.547843
0.547865
0.547886
0.547908
0.547908
0.547929
0.547951
0.547973
0.547995
0.547995
0.548017
0.548038
0.54806
0.548082
0.548082
0.548104
0.548126
0.548149
0.548171
0.548171
0.548193
0.548215
0.548237
0.54826
0.54826
0.548282
0.548305
0.548327
0.54835
0.54835
0.548372
0.548395
0.548418
0.54844
0.54844
0.548463
0.548486
0.548509
0.548532
0.548532
0.548555
0.548578
0.548601
0.548624
0.548624
0.548647
0.548671
0.548694
0.548717
0.548717
0.548741
0.548764
0.548788
0.548811
0.548811
0.548835
0.548858
0.548882
0.548906
0.548906
0.54893
0.548953
0.548977
0.549001
0.549001
0.549025
0.549049
0.549073
0.549097
0.549097
0.549121
0.549146
0.54917
0.549194
0.549194
0.549219
0.549243
0.549268
0.549292
0.549292
0.549317
0.549341
0.549366
0.549391
0.549391
0.549415
0.54944
0.549465
0.54949
0.54949
0.549515
0.54954
0.549565
0.54959
0.54959
0.549615
0.54964
0.549666
0.549691
0.549691
0.549716
0.549742
0.549767
0.549793
0.549793
0.549818
0.549844
0.549869
0.549895
0.549895
0.549921
0.549947
0.549972
0.549998
0.549998
0.550024
0.55005
0.550076
0.550102
0.550102
0.550128
0.550155
0.550181
0.550207
0.550207
0.550233
0.55026
0.550286
0.550313
0.550313
0.550339
0.550366
0.550392
0.550419
0.550419
0.550446
0.550473
0.5505
0.550526
0.550526
0.550553
0.55058
0.550607
0.550634
0.550634
0.550662
0.550689
0.550716
0.550743
0.550743
0.550771
0.550798
0.550825
0.550853
0.550853
0.55088
0.550908
0.550935
0.550963
0.550963
0.550991
0.551019
0.551046
0.551074
0.551074
0.551102
0.55113
0.551158
0.551186
0.551186
0.551214
0.551243
0.551271
0.551299
0.551299
0.551327
0.551356
0.551384
0.551413
0.551413
0.551441
0.55147
0.551498
0.551527
0.551527
0.551556
0.551585
0.551613
0.551642
0.551642
0.551671
0.5517
0.551729
0.551758
0.551758
0.551787
0.551817
0.551846
0.551875
0.551875
0.551904
0.551934
0.551963
0.551993
0.551993
0.552022
0.552052
0.552081
0.552111
0.552111
0.552141
0.552171
0.5522
0.55223
0.55223
0.55226
0.55229
0.55232
0.55235
0.55235
0.55238
0.552411
0.552441
0.552471
0.552471
0.552501
0.552532
0.552562
0.552593
0.552593
0.552623
0.552654
0.552684
0.552715
0.552715
0.552746
0.552777
0.552807
0.552838
0.552838
0.552869
0.5529
0.552931
0.552962
0.552962
0.552994
0.553025
0.553056
0.553087
0.553087
0.553119
0.55315
0.553181
0.553213
0.553213
0.553244
0.553276
0.553308
0.553339
0.553339
0.553371
0.553403
0.553435
0.553467
0.553467
0.553499
0.553531
0.553563
0.553595
0.553595
0.553627
0.553659
0.553692
0.553724
0.553724
0.553756
0.553789
0.553821
0.553854
0.553854
0.553886
0.553919
0.553951
0.553984
0.553984
0.554017
0.55405
0.554083
0.554116
0.554116
0.554149
0.554182
0.554215
0.554248
0.554248
0.554281
0.554314
0.554347
0.554381
0.554381
0.554414
0.554448
0.554481
0.554515
0.554515
0.554548
0.554582
0.554616
0.554649
0.554649
0.554683
0.554717
0.554751
0.554785
0.554785
0.554819
0.554853
0.554887
0.554921
0.554921
0.554955
0.55499
0.555024
0.555058
0.555058
0.555093
0.555127
0.555162
0.555196
0.555196
0.555231
0.555266
0.5553
0.555335
0.555335
0.55537
0.555405
0.55544
0.555475
0.555475
0.55551
0.555545
0.55558
0.555615
0.555615
0.555651
0.555686
0.555721
0.555757
0.555757
0.555792
0.555828
0.555863
0.555899
0.555899
0.555934
0.55597
0.556006
0.556042
0.556042
0.556078
0.556113
0.556149
0.556186
0.556186
0.556222
0.556258
0.556294
0.55633
0.55633
0.556366
0.556403
0.556439
0.556476
0.556476
0.556512
0.556549
0.556585
0.556622
0.556622
0.556659
0.556695
0.556732
0.556769
0.556769
0.556806
0.556843
0.55688
0.556917
0.556917
0.556954
0.556991
0.557029
0.557066
0.557066
0.557103
0.557141
0.557178
0.557216
0.557216
0.557253
0.557291
0.557328
0.557366
0.557366
0.557404
0.557442
0.55748
0.557518
0.557518
0.557556
0.557594
0.557632
0.55767
0.55767
0.557708
0.557746
0.557785
0.557823
0.557823
0.557861
0.5579
0.557938
0.557977
0.557977
0.558015
0.558054
0.558093
0.558132
0.558132
0.55817
0.558209
0.558248
0.558287
0.558287
0.558326
0.558365
0.558405
0.558444
0.558444
0.558483
0.558522
0.558562
0.558601
0.558601
0.558641
0.55868
0.55872
0.558759
0.558759
0.558799
0.558839
0.558878
0.558918
0.558918
0.558958
0.558998
0.559038
0.559078
0.559078
0.559118
0.559158
0.559199
0.559239
0.559239
0.559279
0.55932
0.55936
0.559401
0.559401
0.559441
0.559482
0.559522
0.559563
0.559563
0.559604
0.559645
0.559685
0.559726
0.559726
0.559767
0.559808
0.559848
0.559889
0.559889
0.559929
0.559968
0.560006
0.560043
0.560043
0.560079
0.560115
0.56015
0.560185
0.560185
0.560221
0.560256
0.560291
0.560326
0.560326
0.560361
0.560396
0.560431
0.560466
0.560466
0.560502
0.560537
0.560572
0.560608
0.560608
0.560643
0.560679
0.560714
0.56075
0.56075
0.560785
0.560821
0.560857
0.560893
0.560893
0.560928
0.560964
0.561
0.561036
0.561036
0.561072
0.561108
0.561144
0.56118
0.56118
0.561216
0.561253
0.561289
0.561325
0.561325
0.561361
0.561398
0.561434
0.561471
0.561471
0.561507
0.561544
0.56158
0.561617
0.561617
0.561654
0.56169
0.561727
0.561764
0.561764
0.561801
0.561838
0.561875
0.561912
0.561912
0.561949
0.561986
0.562023
0.56206
0.56206
0.562097
0.562134
0.562172
0.562209
0.562209
0.562246
0.562284
0.562321
0.562359
0.562359
0.562396
0.562434
0.562472
0.562509
0.562509
0.562547
0.562585
0.562622
0.56266
0.56266
0.562698
0.562736
0.562774
0.562812
0.562812
0.56285
0.562888
0.562926
0.562964
0.562964
0.563003
0.563041
0.563079
0.563118
0.563118
0.563156
0.563194
0.563233
0.563271
0.563271
0.56331
0.563349
0.563387
0.563426
0.563426
0.563465
0.563503
0.563542
0.563581
0.563581
0.56362
0.563659
0.563698
0.563737
0.563737
0.563776
0.563815
0.563854
0.563893
0.563893
0.563932
0.563972
0.564011
0.56405
0.56405
0.56409
0.564129
0.564168
0.564208
0.564208
0.564247
0.564287
0.564327
0.564366
0.564366
0.564406
0.564446
0.564485
0.564525
0.564525
0.564565
0.564605
0.564645
0.564685
0.564685
0.564725
0.564765
0.564805
0.564845
0.564845
0.564885
0.564926
0.564966
0.565006
0.565006
0.565046
0.565087
0.565127
0.565168
0.565168
0.565208
0.565249
0.565289
0.56533
0.56533
0.565371
0.565411
0.565452
0.565493
0.565493
0.565533
0.565574
0.565615
0.565655
0.565655
0.565696
0.565736
0.565776
0.565816
0.565816
0.565855
0.565893
0.565931
0.565967
0.565967
0.566003
0.566037
0.566072
0.566105
0.566105
0.566139
0.566172
0.566205
0.566238
0.566238
0.566271
0.566304
0.566337
0.56637
0.56637
0.566403
0.566437
0.56647
0.566503
0.566503
0.566536
0.566569
0.566603
0.566636
0.566636
0.566669
0.566702
0.566736
0.566769
0.566769
0.566803
0.566836
0.566869
0.566903
0.566903
0.566936
0.56697
0.567004
0.567037
0.567037
0.567071
0.567105
0.567138
0.567172
0.567172
0.567206
0.567239
0.567273
0.567307
0.567307
0.567341
0.567375
0.567409
0.567443
0.567443
0.567477
0.567511
0.567545
0.567579
0.567579
0.567613
0.567647
0.567681
0.567715
0.567715
0.567749
0.567784
0.567818
0.567852
0.567852
0.567886
0.567921
0.567955
0.567989
0.567989
0.568024
0.568058
0.568093
0.568127
0.568127
0.568162
0.568196
0.568231
0.568265
0.568265
0.5683
0.568335
0.568369
0.568404
0.568404
0.568439
0.568473
0.568508
0.568543
0.568543
0.568578
0.568613
0.568648
0.568682
0.568682
0.568717
0.568752
0.568787
0.568822
0.568822
0.568857
0.568892
0.568927
0.568963
0.568963
0.568998
0.569033
0.569068
0.569103
0.569103
0.569139
0.569174
0.569209
0.569244
0.569244
0.56928
0.569315
0.569351
0.569386
0.569386
0.569421
0.569457
0.569492
0.569528
0.569528
0.569563
0.569599
0.569635
0.56967
0.56967
0.569706
0.569742
0.569777
0.569813
0.569813
0.569849
0.569884
0.56992
0.569956
0.569956
0.569992
0.570028
0.570064
0.5701
0.5701
0.570136
0.570171
0.570207
0.570243
0.570243
0.570279
0.570315
0.570351
0.570387
0.570387
0.570422
0.570458
0.570493
0.570528
0.570528
0.570562
0.570596
0.570629
0.570661
0.570661
0.570693
0.570724
0.570755
0.570785
0.570785
0.570814
0.570843
0.570872
0.570901
0.570901
0.57093
0.570958
0.570987
0.571015
0.571015
0.571044
0.571072
0.5711
0.571129
0.571129
0.571157
0.571186
0.571214
0.571243
0.571243
0.571271
0.5713
0.571329
0.571357
0.571357
0.571386
0.571414
0.571443
0.571472
0.571472
0.5715
0.571529
0.571558
0.571586
0.571586
0.571615
0.571644
0.571672
0.571701
0.571701
0.57173
0.571759
0.571788
0.571816
0.571816
0.571845
0.571874
0.571903
0.571932
0.571932
0.571961
0.57199
0.572019
0.572047
0.572047
0.572076
0.572105
0.572134
0.572163
0.572163
0.572192
0.572221
0.572251
0.57228
0.57228
0.572309
0.572338
0.572367
0.572396
0.572396
0.572425
0.572454
0.572484
0.572513
0.572513
0.572542
0.572571
0.5726
0.57263
0.57263
0.572659
0.572688
0.572717
0.572747
0.572747
0.572776
0.572805
0.572835
0.572864
0.572864
0.572894
0.572923
0.572952
0.572982
0.572982
0.573011
0.573041
0.57307
0.5731
0.5731
0.573129
0.573159
0.573188
0.573218
0.573218
0.573247
0.573277
0.573306
0.573336
0.573336
0.573366
0.573395
0.573425
0.573455
0.573455
0.573484
0.573514
0.573544
0.573573
0.573573
0.573603
0.573633
0.573663
0.573692
0.573692
0.573722
0.573752
0.573782
0.573812
0.573812
0.573841
0.573871
0.573901
0.573931
0.573931
0.57396
0.57399
0.574019
0.574049
0.574049
0.574078
0.574107
0.574135
0.574163
0.574163
0.574191
0.574219
0.574245
0.574272
0.574272
0.574298
0.574323
0.574349
0.574373
0.574373
0.574398
0.574422
0.574446
0.57447
0.57447
0.574493
0.574517
0.57454
0.574563
0.574563
0.574587
0.57461
0.574633
0.574657
0.574657
0.57468
0.574703
0.574726
0.57475
0.57475
0.574773
0.574796
0.57482
0.574843
0.574843
0.574866
0.57489
0.574913
0.574936
0.574936
0.57496
0.574983
0.575006
0.57503
0.57503
0.575053
0.575077
0.5751
0.575123
0.575123
0.575147
0.57517
0.575194
0.575217
0.575217
0.575241
0.575264
0.575288
0.575311
0.575311
0.575335
0.575358
0.575382
0.575405
0.575405
0.575429
0.575452
0.575476
0.575499
0.575499
0.575523
0.575546
0.57557
0.575593
0.575593
0.575617
0.575641
0.575664
0.575688
0.575688
0.575711
0.575735
0.575759
0.575782
0.575782
0.575806
0.57583
0.575853
0.575877
0.575877
0.575901
0.575924
0.575948
0.575972
0.575972
0.575996
0.576019
0.576043
0.576067
0.576067
0.57609
0.576114
0.576138
0.576162
0.576162
0.576185
0.576209
0.576233
0.576257
0.576257
0.576281
0.576304
0.576328
0.576352
0.576352
0.576376
0.5764
0.576424
0.576448
0.576448
0.576471
0.576495
0.576519
0.576543
0.576543
0.576567
0.576591
0.576614
0.576638
0.576638
0.576662
0.576686
0.576709
0.576733
0.576733
0.576756
0.576779
0.576802
0.576825
0.576825
0.576847
0.576869
0.576891
0.576913
0.576913
0.576934
0.576955
0.576976
0.576996
0.576996
0.577016
0.577036
0.577055
0.577075
0.577075
0.577094
0.577113
0.577132
0.57715
0.57715
0.577169
0.577188
0.577206
0.577225
0.577225
0.577244
0.577262
0.577281
0.577299
0.577299
0.577318
0.577336
0.577355
0.577373
0.577373
0.577392
0.57741
0.577429
0.577447
0.577447
0.577466
0.577484
0.577503
0.577521
0.577521
0.57754
0.577558
0.577577
0.577595
0.577595
0.577614
0.577633
0.577651
0.57767
0.57767
0.577688
0.577707
0.577725
0.577744
0.577744
0.577763
0.577781
0.5778
0.577818
0.577818
0.577837
0.577856
0.577874
0.577893
0.577893
0.577911
0.57793
0.577949
0.577967
0.577967
0.577986
0.578005
0.578023
0.578042
0.578042
0.57806
0.578079
0.578098
0.578116
0.578116
0.578135
0.578154
0.578172
0.578191
0.578191
0.57821
0.578228
0.578247
0.578266
0.578266
0.578285
0.578303
0.578322
0.578341
0.578341
0.578359
0.578378
0.578397
0.578416
0.578416
0.578434
0.578453
0.578472
0.57849
0.57849
0.578509
0.578528
0.578547
0.578565
0.578565
0.578584
0.578603
0.578621
0.57864
0.57864
0.578659
0.578677
0.578696
0.578714
0.578714
0.578733
0.578751
0.578769
0.578787
0.578787
0.578805
0.578822
0.57884
0.578857
0.578857
0.578874
0.578891
0.578907
0.578924
0.578924
0.57894
0.578956
0.578971
0.578987
0.578987
0.579002
0.579018
0.579033
0.579048
0.579048
0.579062
0.579077
0.579092
0.579107
0.579107
0.579121
0.579136
0.57915
0.579165
0.579165
0.579179
0.579194
0.579208
0.579223
0.579223
0.579237
0.579252
0.579266
0.579281
0.579281
0.579295
0.57931
0.579324
0.579338
0.579338
0.579353
0.579367
0.579382
0.579396
0.579396
0.579411
0.579425
0.57944
0.579454
0.579454
0.579469
0.579483
0.579498
0.579512
0.579512
0.579527
0.579541
0.579556
0.57957
0.57957
0.579585
0.579599
0.579614
0.579628
0.579628
0.579643
0.579657
0.579672
0.579686
0.579686
0.579701
0.579716
0.57973
0.579745
0.579745
0.579759
0.579774
0.579788
0.579803
0.579803
0.579817
0.579832
0.579846
0.579861
0.579861
0.579875
0.57989
0.579905
0.579919
0.579919
0.579934
0.579948
0.579963
0.579977
0.579977
0.579992
0.580006
0.580021
0.580036
0.580036
0.58005
0.580065
0.580079
0.580094
0.580094
0.580108
0.580123
0.580137
0.580152
0.580152
0.580166
0.58018
0.580194
0.580209
0.580209
0.580223
0.580237
0.580251
0.580264
0.580264
0.580278
0.580291
0.580305
0.580318
0.580318
0.580331
0.580344
0.580357
0.580369
0.580369
0.580382
0.580394
0.580406
0.580418
0.580418
0.58043
0.580442
0.580454
0.580466
0.580466
0.580477
0.580489
0.5805
0.580512
0.580512
0.580523
0.580534
0.580546
0.580557
0.580557
0.580568
0.580579
0.580591
0.580602
0.580602
0.580613
0.580624
0.580636
0.580647
0.580647
0.580658
0.580669
0.580681
0.580692
0.580692
0.580703
0.580714
0.580725
0.580737
0.580737
0.580748
0.580759
0.58077
0.580782
0.580782
0.580793
0.580804
0.580815
0.580827
0.580827
0.580838
0.580849
0.58086
0.580872
0.580872
0.580883
0.580894
0.580905
0.580917
0.580917
0.580928
0.580939
0.580951
0.580962
0.580962
0.580973
0.580984
0.580996
0.581007
0.581007
0.581018
0.581029
0.581041
0.581052
0.581052
0.581063
0.581074
0.581086
0.581097
0.581097
0.581108
0.58112
0.581131
0.581142
0.581142
0.581153
0.581165
0.581176
0.581187
0.581187
0.581198
0.58121
0.581221
0.581232
0.581232
0.581243
0.581254
0.581265
0.581276
0.581276
0.581287
0.581298
0.581309
0.58132
0.58132
0.581331
0.581341
0.581352
0.581362
0.581362
0.581372
0.581383
0.581393
0.581403
0.581403
0.581413
0.581422
0.581432
0.581442
0.581442
0.581451
0.581461
0.58147
0.581479
0.581479
0.581488
0.581497
0.581506
0.581515
0.581515
0.581524
0.581533
0.581542
0.581551
0.581551
0.58156
0.581568
0.581577
0.581586
0.581586
0.581595
0.581603
0.581612
0.581621
0.581621
0.58163
0.581638
0.581647
0.581656
0.581656
0.581665
0.581673
0.581682
0.581691
0.581691
0.581699
0.581708
0.581717
0.581726
0.581726
0.581734
0.581743
0.581752
0.581761
0.581761
0.581769
0.581778
0.581787
0.581796
0.581796
0.581804
0.581813
0.581822
0.58183
0.58183
0.581839
0.581848
0.581857
0.581865
0.581865
0.581874
0.581883
0.581892
0.5819
0.5819
0.581909
0.581918
0.581927
0.581935
0.581935
0.581944
0.581953
0.581962
0.58197
0.58197
0.581979
0.581988
0.581997
0.582005
0.582005
0.582014
0.582023
0.582032
0.58204
0.58204
0.582049
0.582057
0.582066
0.582075
0.582075
0.582083
0.582092
0.5821
0.582109
0.582109
0.582117
0.582125
0.582133
0.582142
0.582142
0.58215
0.582158
0.582166
0.582173
0.582173
0.582181
0.582189
0.582197
0.582204
0.582204
0.582212
0.582219
0.582227
0.582234
0.582234
0.582241
0.582248
0.582256
0.582263
0.582263
0.58227
0.582277
0.582284
0.582291
0.582291
0.582298
0.582304
0.582311
0.582318
0.582318
0.582325
0.582332
0.582339
0.582346
0.582346
0.582352
0.582359
0.582366
0.582373
0.582373
0.58238
0.582387
0.582393
0.5824
0.5824
0.582407
0.582414
0.582421
0.582427
0.582427
0.582434
0.582441
0.582448
0.582455
0.582455
0.582462
0.582468
0.582475
0.582482
0.582482
0.582489
0.582496
0.582503
0.582509
0.582509
0.582516
0.582523
0.58253
0.582537
0.582537
0.582544
0.58255
0.582557
0.582564
0.582564
0.582571
0.582578
0.582585
0.582591
0.582591
0.582598
0.582605
0.582612
0.582619
0.582619
0.582626
0.582632
0.582639
0.582646
0.582646
0.582653
0.58266
0.582666
0.582673
0.582673
0.58268
0.582686
0.582693
0.5827
0.5827
0.582706
0.582713
0.582719
0.582726
0.582726
0.582732
0.582738
0.582745
0.582751
0.582751
0.582757
0.582763
0.582769
0.582775
0.582775
0.582781
0.582787
0.582793
0.582799
0.582799
0.582805
0.582811
0.582816
0.582822
0.582822
0.582828
0.582833
0.582839
0.582844
0.582844
0.58285
0.582855
0.582861
0.582866
0.582866
0.582872
0.582877
0.582883
0.582888
0.582888
0.582893
0.582899
0.582904
0.58291
0.58291
0.582915
0.58292
0.582926
0.582931
0.582931
0.582937
0.582942
0.582947
0.582953
0.582953
0.582958
0.582964
0.582969
0.582974
0.582974
0.58298
0.582985
0.582991
0.582996
0.582996
0.583001
0.583007
0.583012
0.583018
0.583018
0.583023
0.583028
0.583034
0.583039
0.583039
0.583045
0.58305
0.583055
0.583061
0.583061
0.583066
0.583072
0.583077
0.583082
0.583082
0.583088
0.583093
0.583099
0.583104
0.583104
0.583109
0.583115
0.58312
0.583125
0.583125
0.583131
0.583136
0.583141
0.583147
0.583147
0.583152
0.583157
0.583162
0.583167
0.583167
0.583173
0.583178
0.583183
0.583188
0.583188
0.583193
0.583198
0.583203
0.583208
0.583208
0.583212
0.583217
0.583222
0.583227
0.583227
0.583232
0.583236
0.583241
0.583245
0.583245
0.58325
0.583255
0.583259
0.583264
0.583264
0.583268
0.583273
0.583277
0.583281
0.583281
0.583286
0.58329
0.583295
0.583299
0.583299
0.583303
0.583308
0.583312
0.583316
0.583316
0.583321
0.583325
0.58333
0.583334
0.583334
0.583338
0.583343
0.583347
0.583351
0.583351
0.583356
0.58336
0.583364
0.583369
0.583369
0.583373
0.583377
0.583382
0.583386
0.583386
0.58339
0.583395
0.583399
0.583403
0.583403
0.583408
0.583412
0.583416
0.583421
0.583421
0.583425
0.58343
0.583434
0.583438
0.583438
0.583443
0.583447
0.583451
0.583456
0.583456
0.58346
0.583464
0.583469
0.583473
0.583473
0.583477
0.583482
0.583486
0.58349
0.58349
0.583495
0.583499
0.583503
0.583507
0.583507
0.583511
0.583516
0.58352
0.583524
0.583524
0.583528
0.583532
0.583536
0.58354
0.58354
0.583544
0.583548
0.583552
0.583556
0.583556
0.58356
0.583564
0.583568
0.583572
0.583572
0.583576
0.583579
0.583583
0.583587
0.583587
0.583591
0.583594
0.583598
0.583602
0.583602
0.583605
0.583609
0.583613
0.583616
0.583616
0.58362
0.583624
0.583627
0.583631
0.583631
0.583634
0.583638
0.583642
0.583645
0.583645
0.583649
0.583652
0.583656
0.583659
0.583659
0.583663
0.583667
0.58367
0.583674
0.583674
0.583677
0.583681
0.583684
0.583688
0.583688
0.583692
0.583695
0.583699
0.583702
0.583702
0.583706
0.58371
0.583713
0.583717
0.583717
0.58372
0.583724
0.583728
0.583731
0.583731
0.583735
0.583738
0.583742
0.583745
0.583745
0.583749
0.583753
0.583756
0.58376
0.58376
0.583763
0.583767
0.58377
0.583774
0.583774
0.583778
0.583781
0.583785
0.583788
0.583788
0.583792
0.583795
0.583798
0.583802
0.583802
0.583805
0.583809
0.583812
0.583815
0.583815
0.583819
0.583822
0.583825
0.583829
0.583829
0.583832
0.583835
0.583838
0.583842
0.583842
0.583845
0.583848
0.583851
0.583854
0.583854
0.583858
0.583861
0.583864
0.583867
0.583867
0.58387
0.583873
0.583876
0.583879
0.583879
0.583882
0.583885
0.583889
0.583892
0.583892
0.583895
0.583898
0.583901
0.583904
0.583904
0.583907
0.58391
0.583913
0.583916
0.583916
0.583919
0.583922
0.583925
0.583928
0.583928
0.583931
0.583934
0.583937
0.58394
0.58394
0.583943
0.583946
0.583949
0.583952
0.583952
0.583955
0.583958
0.583961
0.583964
0.583964
0.583967
0.583971
0.583974
0.583977
0.583977
0.58398
0.583983
0.583986
0.583989
0.583989
0.583992
0.583995
0.583998
0.584001
0.584001
0.584004
0.584007
0.58401
0.584013
0.584013
0.584016
0.584019
0.584022
0.584025
0.584025
0.584028
0.58403
0.584033
0.584036
0.584036
0.584039
0.584042
0.584045
0.584048
0.584048
0.584051
0.584053
0.584056
0.584059
0.584059
0.584062
0.584065
0.584067
0.58407
0.58407
0.584073
0.584076
0.584078
0.584081
0.584081
0.584084
0.584087
0.584089
0.584092
0.584092
0.584095
0.584097
0.5841
0.584103
0.584103
0.584105
0.584108
0.584111
0.584113
0.584113
0.584116
0.584119
0.584121
0.584124
0.584124
0.584126
0.584129
0.584132
0.584134
0.584134
0.584137
0.58414
0.584142
0.584145
0.584145
0.584148
0.58415
0.584153
0.584156
0.584156
0.584158
0.584161
0.584164
0.584166
0.584166
0.584169
0.584172
0.584174
0.584177
0.584177
0.58418
0.584182
0.584185
0.584188
0.584188
0.58419
0.584193
0.584195
0.584198
0.584198
0.584201
0.584203
0.584206
0.584209
0.584209
0.584211
0.584214
0.584216
0.584219
0.584219
0.584221
0.584224
0.584227
0.584229
0.584229
0.584232
0.584234
0.584237
0.584239
0.584239
0.584242
0.584244
0.584247
0.584249
0.584249
0.584252
0.584254
0.584257
0.584259
0.584259
0.584262
0.584264
0.584267
0.584269
0.584269
0.584271
0.584274
0.584276
0.584279
0.584279
0.584281
0.584284
0.584286
0.584288
0.584288
0.584291
0.584293
0.584295
0.584298
0.584298
0.5843
0.584303
0.584305
0.584307
0.584307
0.58431
0.584312
0.584315
0.584317
0.584317
0.584319
0.584322
0.584324
0.584327
0.584327
0.584329
0.584331
0.584334
0.584336
0.584336
0.584339
0.584341
0.584343
0.584346
0.584346
0.584348
0.584351
0.584353
0.584355
0.584355
0.584358
0.58436
0.584362
0.584365
0.584365
0.584367
0.58437
0.584372
0.584374
0.584374
0.584377
0.584379
0.584381
0.584384
0.584384
0.584386
0.584388
0.584391
0.584393
0.584393
0.584395
0.584398
0.5844
0.584402
0.584402
0.584405
0.584407
0.584409
0.584412
0.584412
0.584414
0.584416
0.584418
0.584421
0.584421
0.584423
0.584425
0.584428
0.58443
0.58443
0.584432
0.584434
0.584437
0.584439
0.584439
0.584441
0.584443
0.584446
0.584448
0.584448
0.58445
0.584452
0.584454
0.584457
0.584457
0.584459
0.584461
0.584463
0.584466
0.584466
0.584468
0.58447
0.584472
0.584474
0.584474
0.584477
0.584479
0.584481
0.584483
0.584483
0.584486
0.584488
0.58449
0.584492
0.584492
0.584494
0.584497
0.584499
0.584501
0.584501
0.584503
0.584506
0.584508
0.58451
0.58451
0.584512
0.584515
0.584517
0.584519
0.584519
0.584521
0.584523
0.584526
0.584528
0.584528
0.58453
0.584532
0.584534
0.584537
0.584537
0.584539
0.584541
0.584543
0.584545
0.584545
0.584548
0.58455
0.584552
0.584554
0.584554
0.584556
0.584558
0.584561
0.584563
0.584563
0.584565
0.584567
0.584569
0.584571
0.584571
0.584574
0.584576
0.584578
0.58458
0.58458
0.584582
0.584584
0.584586
0.584589
0.584589
0.584591
0.584593
0.584595
0.584597
0.584597
0.584599
0.584601
0.584603
0.584606
0.584606
0.584608
0.58461
0.584612
0.584614
0.584614
0.584616
0.584618
0.58462
0.584623
0.584623
0.584625
0.584627
0.584629
0.584631
0.584631
0.584633
0.584635
0.584637
0.58464
0.58464
0.584642
0.584644
0.584646
0.584648
0.584648
0.58465
0.584652
0.584655
0.584657
0.584657
0.584659
0.584661
0.584663
0.584665
0.584665
0.584667
0.584669
0.584672
0.584674
0.584674
0.584676
0.584678
0.58468
0.584682
0.584682
0.584684
0.584686
0.584688
0.58469
0.58469
0.584693
0.584695
0.584697
0.584699
0.584699
0.584701
0.584703
0.584705
0.584707
0.584707
0.584709
0.584712
0.584714
0.584716
0.584716
0.584718
0.58472
0.584722
0.584724
0.584724
0.584726
0.584728
0.58473
0.584732
0.584732
0.584734
0.584736
0.584739
0.584741
0.584741
0.584743
0.584745
0.584747
0.584749
0.584749
0.584751
0.584753
0.584755
0.584757
0.584757
0.584759
0.584761
0.584764
0.584766
0.584766
0.584768
0.58477
0.584772
0.584774
0.584774
0.584776
0.584778
0.58478
0.584782
0.584782
0.584784
0.584786
0.584789
0.584791
0.584791
0.584793
0.584795
0.584797
0.584799
0.584799
0.584801
0.584803
0.584805
0.584807
0.584807
0.584809
0.584811
0.584813
0.584816
0.584816
0.584818
0.58482
0.584822
0.584824
0.584824
0.584826
0.584828
0.58483
0.584832
0.584832
0.584834
0.584836
0.584838
0.584841
0.584841
0.584843
0.584845
0.584847
0.584849
0.584849
0.584851
0.584853
0.584855
0.584857
0.584857
0.584859
0.584861
0.584863
0.584865
0.584865
0.584867
0.58487
0.584872
0.584874
0.584874
0.584876
0.584878
0.58488
0.584882
0.584882
0.584884
0.584886
0.584888
0.58489
0.58489
0.584892
0.584894
0.584896
0.584899
0.584899
0.584901
0.584903
0.584905
0.584907
0.584907
0.584909
0.584911
0.584913
0.584915
0.584915
0.584917
0.584919
0.584921
0.584923
0.584923
0.584926
0.584928
0.58493
0.584932
0.584932
0.584934
0.584936
0.584938
0.58494
0.58494
0.584942
0.584944
0.584946
0.584948
0.584948
0.58495
0.584952
0.584955
0.584957
0.584957
0.584959
0.584961
0.584963
0.584965
0.584965
0.584967
0.584969
0.584971
0.584973
0.584973
0.584976
0.584978
0.58498
0.584982
0.584982
0.584984
0.584986
0.584988
0.58499
0.58499
0.584992
0.584994
0.584996
0.584999
0.584999
0.585001
0.585003
0.585005
0.585007
0.585007
0.585009
0.585011
0.585013
0.585015
0.585015
0.585017
0.585019
0.585022
0.585024
0.585024
0.585026
0.585028
0.58503
0.585032
0.585032
0.585034
0.585036
0.585038
0.58504
0.58504
0.585043
0.585045
0.585047
0.585049
0.585049
0.585051
0.585053
0.585055
0.585057
0.585057
0.585059
0.585061
0.585064
0.585066
0.585066
0.585068
0.58507
0.585072
0.585074
0.585074
0.585076
0.585078
0.58508
0.585082
0.585082
0.585085
0.585087
0.585089
0.585091
0.585091
0.585093
0.585095
0.585097
0.5851
0.5851
0.585102
0.585104
0.585106
0.585108
0.585108
0.58511
0.585112
0.585114
0.585117
0.585117
0.585119
0.585121
0.585123
0.585125
0.585125
0.585127
0.585129
0.585132
0.585134
0.585134
0.585136
0.585138
0.58514
0.585142
0.585142
0.585144
0.585146
0.585149
0.585151
0.585151
0.585153
0.585155
0.585157
0.585159
0.585159
0.585161
0.585164
0.585166
0.585168
0.585168
0.58517
0.585172
0.585174
0.585176
0.585176
0.585179
0.585181
0.585183
0.585185
0.585185
0.585187
0.585189
0.585192
0.585194
0.585194
0.585196
0.585198
0.5852