<?xml version="1.0"?>
<VTKFile type="UnstructuredGrid" version="0.1" byte_order="LittleEndian">
<UnstructuredGrid>
<Piece NumberOfPoints="5000" NumberOfCells="4000">
<PointData Scalars="Reaction 0">
<DataArray type="Float32" Name="Reaction 0" format="ascii">
0.98723
0.98723
0.98723
0.98723
0.98723
0.98723
0.98723
0.98723
0.98723
0.98723
0.98723
0.98723
0.98723
0.98723
0.98723
0.98723
0.98723
0.98723
0.98723
0.98723
0.98723
0.98723
0.98723
0.98723
0.98723
0.98723
0.98723
0.98723
0.987229
0.987229
0.987229
0.987229
0.987229
0.987229
0.987229
0.987229
0.987229
0.987229
0.987229
0.987229
0.987229
0.987229
0.987229
0.987229
0.987229
0.987229
0.987229
0.987229
0.987229
0.987229
0.987229
0.987229
0.987229
0.987229
0.987229
0.987229
0.987229
0.987229
0.987229
0.987229
0.987229
0.987229
0.987229
0.987229
0.987229
0.987229
0.987229
0.987229
0.987229
0.987229
0.987229
0.987229
0.987229
0.987228
0.987228
0.987228
0.987228
0.987228
0.987228
0.987228
0.987228
0.987228
0.987228
0.987228
0.987228
0.987228
0.987228
0.987228
0.987228
0.987228
0.987228
0.987228
0.987228
0.987228
0.987228
0.987228
0.987228
0.987228
0.987228
0.987227
0.987227
0.987227
0.987227
0.987227
0.987227
0.987227
0.987227
0.987227
0.987227
0.987227
0.987227
0.987227
0.987227
0.987227
0.987227
0.987227
0.987227
0.987227
0.987227
0.987226
0.987226
0.987226
0.987226
0.987226
0.987226
0.987226
0.987226
0.987226
0.987226
0.987226
0.987226
0.987226
0.987226
0.987226
0.987226
0.987226
0.987226
0.987225
0.987225
0.987225
0.987225
0.987225
0.987225
0.987225
0.987225
0.987225
0.987225
0.987225
0.987225
0.987225
0.987225
0.987225
0.987225
0.987224
0.987224
0.987224
0.987224
0.987224
0.987224
0.987224
0.987224
0.987224
0.987224
0.987224
0.987224
0.987224
0.987224
0.987223
0.987223
0.987223
0.987223
0.987223
0.987223
0.987223
0.987223
0.987223
0.987223
0.987223
0.987223
0.987222
0.987222
0.987222
0.987222
0.987222
0.987222
0.987222
0.987222
0.987222
0.987222
0.987222
0.987222
0.987222
0.987221
0.987221
0.987221
0.987221
0.987221
0.987221
0.987221
0.987221
0.987221
0.987221
0.987221
0.98722
0.98722
0.98722
0.98722
0.98722
0.98722
0.98722
0.98722
0.98722
0.98722
0.98722
0.987219
0.987219
0.987219
0.987219
0.987219
0.987219
0.987219
0.987219
0.987219
0.987219
0.987218
0.987218
0.987218
0.987218
0.987218
0.987218
0.987218
0.987218
0.987218
0.987218
0.987217
0.987217
0.987217
0.987217
0.987217
0.987217
0.987217
0.987217
0.987217
0.987217
0.987216
0.987216
0.987216
0.987216
0.987216
0.987216
0.987216
0.987216
0.987216
0.987215
0.987215
0.987215
0.987215
0.987215
0.987215
0.987215
0.987215
0.987215
0.987214
0.987214
0.987214
0.987214
0.987214
0.987214
0.987214
0.987214
0.987214
0.987213
0.987213
0.987213
0.987213
0.987213
0.987213
0.987213
0.987212
0.987212
0.987212
0.987212
0.987212
0.987212
0.987212
0.987212
0.987212
0.987211
0.987211
0.987211
0.987211
0.987211
0.987211
0.987211
0.98721
0.98721
0.98721
0.98721
0.98721
0.98721
0.98721
0.98721
0.987209
0.987209
0.987209
0.987209
0.987209
0.987209
0.987209
0.987208
0.987208
0.987208
0.987208
0.987208
0.987208
0.987208
0.987208
0.987207
0.987207
0.987207
0.987207
0.987207
0.987207
0.987206
0.987206
0.987206
0.987206
0.987206
0.987206
0.987206
0.987206
0.987205
0.987205
0.987205
0.987205
0.987205
0.987205
0.987204
0.987204
0.987204
0.987204
0.987204
0.987204
0.987204
0.987203
0.987203
0.987203
0.987203
0.987203
0.987203
0.987203
0.987202
0.987202
0.987202
0.987202
0.987202
0.987202
0.987201
0.987201
0.987201
0.987201
0.987201
0.987201
0.9872
0.9872
0.9872
0.9872
0.9872
0.9872
0.987199
0.987199
0.987199
0.987199
0.987199
0.987199
0.987199
0.987198
0.987198
0.987198
0.987198
0.987198
0.987198
0.987197
0.987197
0.987197
0.987197
0.987197
0.987196
0.987196
0.987196
0.987196
0.987196
0.987196
0.987195
0.987195
0.987195
0.987195
0.987195
0.987194
0.987194
0.987194
0.987194
0.987194
0.987194
0.987193
0.987193
0.987193
0.987193
0.987193
0.987192
0.987192
0.987192
0.987192
0.987192
0.987192
0.987192
0.987191
0.987191
0.987191
0.987191
0.987191
0.98719
0.98719
0.98719
0.98719
0.98719
0.987189
0.987189
0.987189
0.987189
0.987189
0.987188
0.987188
0.987188
0.987188
0.987188
0.987188
0.987187
0.987187
0.987187
0.987187
0.987187
0.987186
0.987186
0.987186
0.987186
0.987186
0.987185
0.987185
0.987185
0.987185
0.987185
0.987184
0.987184
0.987184
0.987184
0.987183
0.987183
0.987183
0.987183
0.987183
0.987182
0.987182
0.987182
0.987182
0.987182
0.987181
0.987181
0.987181
0.987181
0.987181
0.98718
0.98718
0.98718
0.98718
0.98718
0.987179
0.987179
0.987179
0.987178
0.987178
0.987178
0.987178
0.987178
0.987177
0.987177
0.987177
0.987177
0.987177
0.987176
0.987176
0.987176
0.987176
0.987175
0.987175
0.987175
0.987175
0.987175
0.987174
0.987174
0.987174
0.987174
0.987174
0.987173
0.987173
0.987173
0.987173
0.987172
0.987172
0.987172
0.987172
0.987172
0.987171
0.987171
0.987171
0.987171
0.987171
0.98717
0.98717
0.98717
0.98717
0.987169
0.987169
0.987169
0.987169
0.987169
0.987168
0.987168
0.987168
0.987167
0.987167
0.987167
0.987167
0.987167
0.987166
0.987166
0.987166
0.987166
0.987165
0.987165
0.987165
0.987165
0.987165
0.987164
0.987164
0.987164
0.987164
0.987163
0.987163
0.987163
0.987163
0.987162
0.987162
0.987162
0.987162
0.987162
0.987161
0.987161
0.987161
0.98716
0.98716
0.98716
0.98716
0.987159
0.987159
0.987159
0.987159
0.987159
0.987158
0.987158
0.987158
0.987158
0.987157
0.987157
0.987157
0.987157
0.987156
0.987156
0.987156
0.987155
0.987155
0.987155
0.987155
0.987154
0.987154
0.987154
0.987154
0.987153
0.987153
0.987153
0.987153
0.987153
0.987152
0.987152
0.987152
0.987152
0.987151
0.987151
0.987151
0.98715
0.98715
0.98715
0.98715
0.987149
0.987149
0.987149
0.987149
0.987148
0.987148
0.987148
0.987148
0.987147
0.987147
0.987147
0.987146
0.987146
0.987146
0.987146
0.987145
0.987145
0.987145
0.987145
0.987144
0.987144
0.987144
0.987144
0.987143
0.987143
0.987143
0.987142
0.987142
0.987142
0.987141
0.987141
0.987141
0.987141
0.98714
0.98714
0.98714
0.987139
0.987139
0.987139
0.987139
0.987138
0.987138
0.987138
0.987138
0.987137
0.987137
0.987137
0.987137
0.987136
0.987136
0.987136
0.987135
0.987135
0.987135
0.987134
0.987134
0.987134
0.987134
0.987133
0.987133
0.987133
0.987132
0.987132
0.987132
0.987132
0.987131
0.987131
0.987131
0.98713
0.98713
0.98713
0.987129
0.987129
0.987129
0.987129
0.987128
0.987128
0.987128
0.987128
0.987127
0.987127
0.987126
0.987126
0.987126
0.987126
0.987125
0.987125
0.987125
0.987125
0.987124
0.987124
0.987123
0.987123
0.987123
0.987123
0.987122
0.987122
0.987122
0.987121
0.987121
0.987121
0.98712
0.98712
0.98712
0.98712
0.987119
0.987119
0.987119
0.987118
0.987118
0.987118
0.987117
0.987117
0.987117
0.987116
0.987116
0.987116
0.987116
0.987115
0.987115
0.987114
0.987114
0.987114
0.987114
0.987113
0.987113
0.987113
0.987113
0.987112
0.987112
0.987111
0.987111
0.987111
0.987111
0.98711
0.98711
0.987109
0.987109
0.987109
0.987108
0.987108
0.987108
0.987108
0.987107
0.987107
0.987106
0.987106
0.987106
0.987106
0.987105
0.987105
0.987104
0.987104
0.987104
0.987104
0.987103
0.987103
0.987103
0.987102
0.987102
0.987101
0.987101
0.987101
0.987101
0.9871
0.9871
0.987099
0.987099
0.987099
0.987099
0.987098
0.987098
0.987098
0.987097
0.987097
0.987096
0.987096
0.987096
0.987095
0.987095
0.987095
0.987094
0.987094
0.987094
0.987093
0.987093
0.987092
0.987092
0.987092
0.987092
0.987091
0.987091
0.987091
0.98709
0.98709
0.987089
0.987089
0.987089
0.987088
0.987088
0.987088
0.987087
0.987087
0.987087
0.987086
0.987086
0.987085
0.987085
0.987085
0.987084
0.987084
0.987083
0.987083
0.987083
0.987083
0.987082
0.987082
0.987082
0.987081
0.987081
0.98708
0.98708
0.98708
0.987079
0.987079
0.987079
0.987078
0.987078
0.987078
0.987077
0.987077
0.987076
0.987076
0.987076
0.987075
0.987075
0.987075
0.987075
0.987074
0.987074
0.987073
0.987073
0.987073
0.987072
0.987072
0.987071
0.987071
0.987071
0.987071
0.98707
0.98707
0.987069
0.987069
0.987069
0.987068
0.987068
0.987067
0.987067
0.987067
0.987067
0.987066
0.987066
0.987066
0.987065
0.987065
0.987064
0.987064
0.987064
0.987063
0.987063
0.987062
0.987062
0.987062
0.987061
0.987061
0.987061
0.98706
0.98706
0.98706
0.987059
0.987059
0.987058
0.987058
0.987058
0.987057
0.987057
0.987056
0.987056
0.987056
0.987055
0.987055
0.987054
0.987054
0.987054
0.987053
0.987053
0.987052
0.987052
0.987052
0.987052
0.987051
0.987051
0.987051
0.98705
0.98705
0.987049
0.987049
0.987049
0.987048
0.987048
0.987047
0.987047
0.987047
0.987046
0.987046
0.987045
0.987045
0.987045
0.987044
0.987044
0.987043
0.987043
0.987043
0.987042
0.987042
0.987041
0.987041
0.987041
0.98704
0.98704
0.987039
0.987039
0.987039
0.987038
0.987038
0.987037
0.987037
0.987037
0.987036
0.987036
0.987035
0.987035
0.987035
0.987034
0.987034
0.987033
0.987033
0.987033
0.987032
0.987032
0.987031
0.987031
0.987031
0.98703
0.98703
0.987029
0.987029
0.987029
0.987028
0.987028
0.987027
0.987026
0.987026
0.987026
0.987025
0.987025
0.987024
0.987024
0.987024
0.987023
0.987023
0.987022
0.987022
0.987022
0.987021
0.987021
0.98702
0.98702
0.98702
0.987019
0.987019
0.987018
0.987018
0.987018
0.987017
0.987017
0.987016
0.987016
0.987015
0.987015
0.987014
0.987014
0.987014
0.987013
0.987013
0.987012
0.987012
0.987012
0.987011
0.987011
0.98701
0.987009
0.987009
0.987009
0.987008
0.987008
0.987007
0.987007
0.987007
0.987006
0.987006
0.987005
0.987005
0.987005
0.987004
0.987003
0.987003
0.987003
0.987002
0.987002
0.987001
0.987001
0.987001
0.987
0.987
0.986999
0.986998
0.986998
0.986998
0.986997
0.986997
0.986996
0.986996
0.986996
0.986995
0.986994
0.986994
0.986994
0.986993
0.986993
0.986992
0.986992
0.986992
0.986991
0.98699
0.98699
0.986989
0.986989
0.986989
0.986988
0.986988
0.986987
0.986987
0.986986
0.986986
0.986985
0.986985
0.986985
0.986984
0.986984
0.986983
0.986983
0.986983
0.986982
0.986981
0.986981
0.98698
0.98698
0.98698
0.986979
0.986979
0.986978
0.986978
0.986978
0.986977
0.986976
0.986976
0.986976
0.986975
0.986975
0.986974
0.986974
0.986974
0.986973
0.986972
0.986972
0.986971
0.986971
0.986971
0.98697
0.98697
0.986969
0.986969
0.986969
0.986968
0.986967
0.986967
0.986967
0.986966
0.986966
0.986965
0.986965
0.986965
0.986964
0.986963
0.986963
0.986962
0.986962
0.986962
0.986961
0.98696
0.98696
0.98696
0.986959
0.986959
0.986958
0.986958
0.986958
0.986957
0.986956
0.986956
0.986955
0.986955
0.986955
0.986954
0.986953
0.986953
0.986953
0.986952
0.986952
0.986951
0.98695
0.98695
0.98695
0.986949
0.986949
0.986948
0.986948
0.986947
0.986947
0.986946
0.986946
0.986946
0.986945
0.986944
0.986944
0.986943
0.986943
0.986943
0.986942
0.986941
0.986941
0.986941
0.98694
0.98694
0.986939
0.986938
0.986938
0.986938
0.986937
0.986937
0.986936
0.986936
0.986935
0.986935
0.986934
0.986933
0.986933
0.986933
0.986932
0.986932
0.986931
0.986931
0.98693
0.98693
0.986929
0.986929
0.986929
0.986928
0.986927
0.986927
0.986926
0.986926
0.986925
0.986925
0.986924
0.986923
0.986923
0.986923
0.986922
0.986922
0.986921
0.986921
0.98692
0.98692
0.986919
0.986918
0.986918
0.986918
0.986917
0.986916
0.986916
0.986916
0.986915
0.986915
0.986914
0.986913
0.986913
0.986913
0.986912
0.986911
0.986911
0.986911
0.98691
0.986909
0.986909
0.986908
0.986908
0.986907
0.986907
0.986906
0.986905
0.986905
0.986905
0.986904
0.986903
0.986903
0.986903
0.986902
0.986901
0.986901
0.9869
0.9869
0.986899
0.986899
0.986898
0.986897
0.986897
0.986897
0.986896
0.986895
0.986895
0.986895
0.986894
0.986893
0.986893
0.986892
0.986892
0.986891
0.986891
0.98689
0.98689
0.98689
0.986889
0.986888
0.986888
0.986887
0.986887
0.986886
0.986886
0.986885
0.986884
0.986884
0.986884
0.986883
0.986882
0.986882
0.986882
0.986881
0.98688
0.98688
0.986879
0.986879
0.986879
0.986878
0.986877
0.986877
0.986877
0.986876
0.986875
0.986875
0.986874
0.986874
0.986873
0.986873
0.986872
0.986871
0.986871
0.986871
0.98687
0.986869
0.986869
0.986869
0.986868
0.986867
0.986867
0.986866
0.986866
0.986865
0.986865
0.986864
0.986863
0.986863
0.986863
0.986862
0.986861
0.986861
0.986861
0.98686
0.986859
0.986859
0.986858
0.986858
0.986857
0.986857
0.986856
0.986855
0.986855
0.986855
0.986854
0.986853
0.986853
0.986853
0.986852
0.986851
0.986851
0.98685
0.98685
0.986849
0.986849
0.986848
0.986847
0.986847
0.986846
0.986846
0.986845
0.986844
0.986844
0.986844
0.986843
0.986842
0.986842
0.986842
0.986841
0.98684
0.986839
0.986839
0.986839
0.986838
0.986837
0.986837
0.986836
0.986836
0.986835
0.986835
0.986834
0.986833
0.986833
0.986832
0.986832
0.986831
0.98683
0.98683
0.98683
0.986829
0.986828
0.986827
0.986827
0.986827
0.986826
0.986825
0.986825
0.986825
0.986824
0.986823
0.986822
0.986822
0.986822
0.986821
0.98682
0.986819
0.986819
0.986819
0.986818
0.986817
0.986817
0.986816
0.986816
0.986815
0.986814
0.986814
0.986813
0.986813
0.986812
0.986811
0.986811
0.98681
0.98681
0.986809
0.986808
0.986808
0.986807
0.986807
0.986806
0.986805
0.986805
0.986804
0.986804
0.986803
0.986803
0.986802
0.986801
0.986801
0.9868
0.9868
0.986799
0.986798
0.986798
0.986797
0.986797
0.986796
0.986795
0.986795
0.986794
0.986794
0.986793
0.986792
0.986792
0.986792
0.986791
0.98679
0.986789
0.986789
0.986789
0.986788
0.986787
0.986786
0.986786
0.986786
0.986785
0.986784
0.986784
0.986784
0.986783
0.986782
0.986781
0.986781
0.986781
0.98678
0.986779
0.986779
0.986778
0.986778
0.986777
0.986776
0.986776
0.986775
0.986775
0.986774
0.986773
0.986773
0.986772
0.986772
0.986771
0.986771
0.98677
0.986769
0.986769
0.986768
0.986768
0.986767
0.986766
0.986766
0.986765
0.986765
0.986764
0.986763
0.986763
0.986762
0.986762
0.986761
0.98676
0.98676
0.986759
0.986759
0.986758
0.986757
0.986757
0.986756
0.986756
0.986755
0.986754
0.986754
0.986753
0.986753
0.986752
0.986751
0.986751
0.98675
0.98675
0.986749
0.986748
0.986748
0.986747
0.986747
0.986746
0.986745
0.986745
0.986744
0.986743
0.986743
0.986742
0.986742
0.986741
0.98674
0.98674
0.986739
0.986739
0.986738
0.986737
0.986736
0.986736
0.986736
0.986735
0.986734
0.986733
0.986733
0.986733
0.986732
0.986731
0.98673
0.986729
0.986729
0.986729
0.986728
0.986727
0.986726
0.986726
0.986725
0.986725
0.986724
0.986723
0.986723
0.986722
0.986721
0.986721
0.98672
0.98672
0.986719
0.986718
0.986717
0.986717
0.986717
0.986716
0.986715
0.986714
0.986713
0.986713
0.986713
0.986712
0.986711
0.98671
0.98671
0.986709
0.986709
0.986708
0.986707
0.986707
0.986706
0.986705
0.986704
0.986704
0.986704
0.986703
0.986702
0.986701
0.9867
0.9867
0.9867
0.986699
0.986698
0.986697
0.986697
0.986697
0.986696
0.986695
0.986694
0.986694
0.986693
0.986693
0.986692
0.986691
0.986691
0.98669
0.98669
0.986689
0.986688
0.986688
0.986687
0.986686
0.986686
0.986685
0.986685
0.986684
0.986683
0.986682
0.986682
0.986682
0.986681
0.98668
0.986679
0.986679
0.986679
0.986678
0.986677
0.986676
0.986675
0.986675
0.986675
0.986674
0.986673
0.986672
0.986672
0.986671
0.986671
0.98667
0.986669
0.986669
0.986668
0.986667
0.986667
0.986666
0.986666
0.986665
0.986664
0.986663
0.986662
0.986662
0.986662
0.986661
0.98666
0.986659
0.986659
0.986658
0.986658
0.986657
0.986656
0.986656
0.986655
0.986654
0.986653
0.986653
0.986653
0.986652
0.986651
0.98665
0.986649
0.986649
0.986649
0.986648
0.986647
0.986646
0.986646
0.986645
0.986644
0.986643
0.986643
0.986643
0.986642
0.986641
0.98664
0.986639
0.986639
0.986638
0.986638
0.986637
0.986636
0.986636
0.986635
0.986634
0.986633
0.986632
0.986632
0.986632
0.986631
0.98663
0.986629
0.986629
0.986628
0.986627
0.986626
0.986626
0.986626
0.986625
0.986624
0.986623
0.986622
0.986622
0.986621
0.98662
0.98662
0.986619
0.986619
0.986618
0.986617
0.986616
0.986615
0.986615
0.986614
0.986614
0.986613
0.986612
0.986612
0.986611
0.98661
0.986609
0.986608
0.986608
0.986608
0.986607
0.986606
0.986605
0.986605
0.986604
0.986603
0.986602
0.986602
0.986602
0.986601
0.9866
0.986599
0.986598
0.986598
0.986597
0.986597
0.986596
0.986595
0.986595
0.986594
0.986593
0.986592
0.986592
0.986592
0.986591
0.98659
0.986589
0.986588
0.986588
0.986587
0.986587
0.986586
0.986585
0.986585
0.986584
0.986583
0.986582
0.986582
0.986582
0.986581
0.98658
0.986579
0.986578
0.986578
0.986577
0.986576
0.986576
0.986575
0.986575
0.986574
0.986573
0.986572
0.986571
0.986571
0.98657
0.98657
0.986569
0.986568
0.986568
0.986567
0.986566
0.986565
0.986564
0.986564
0.986563
0.986563
0.986562
0.986561
0.986561
0.98656
0.986559
0.986558
0.986557
0.986557
0.986556
0.986556
0.986555
0.986554
0.986554
0.986553
0.986552
0.986551
0.98655
0.98655
0.986549
0.986548
0.986548
0.986547
0.986547
0.986546
0.986545
0.986544
0.986543
0.986543
0.986542
0.986541
0.98654
0.986539
0.986539
0.986539
0.986538
0.986537
0.986536
0.986536
0.986535
0.986534
0.986533
0.986532
0.986532
0.986531
0.98653
0.986529
0.986529
0.986529
0.986528
0.986527
0.986526
0.986525
0.986525
0.986524
0.986523
0.986522
0.986521
0.986521
0.98652
0.986519
0.986519
0.986518
0.986518
0.986517
0.986516
0.986515
0.986514
0.986514
0.986513
0.986512
0.986511
0.986511
0.986511
0.98651
0.986509
0.986508
0.986507
0.986507
0.986506
0.986505
0.986504
0.986503
0.986503
0.986503
0.986502
0.986501
0.9865
0.9865
0.986499
0.986498
0.986497
0.986496
0.986496
0.986496
0.986495
0.986494
0.986493
0.986493
0.986492
0.986491
0.98649
0.986489
0.986489
0.986488
0.986488
0.986487
0.986486
0.986486
0.986485
0.986484
0.986483
0.986482
0.986482
0.986481
0.98648
0.986479
0.986479
0.986479
0.986478
0.986477
0.986476
0.986475
0.986475
0.986474
0.986473
0.986472
0.986471
0.986471
0.98647
0.986469
0.986469
0.986468
0.986468
0.986467
0.986466
0.986465
0.986464
0.986464
0.986463
0.986462
0.986461
0.98646
0.98646
0.986459
0.986458
0.986457
0.986456
0.986456
0.986455
0.986455
0.986454
0.986453
0.986453
0.986452
0.986451
0.98645
0.986449
0.986449
0.986448
0.986447
0.986446
0.986445
0.986445
0.986444
0.986443
0.986442
0.986441
0.986441
0.98644
0.986439
0.986438
0.986437
0.986437
0.986437
0.986436
0.986435
0.986434
0.986434
0.986433
0.986432
0.986431
0.98643
0.98643
0.986429
0.986428
0.986427
0.986426
0.986426
0.986425
0.986424
0.986423
0.986422
0.986422
0.986421
0.98642
0.98642
0.986419
0.986419
0.986418
0.986417
0.986416
0.986415
0.986415
0.986414
0.986413
0.986412
0.986411
0.986411
0.98641
0.986409
0.986408
0.986408
0.986408
0.986407
0.986406
0.986405
0.986404
0.986404
0.986403
0.986402
0.986401
0.9864
0.9864
0.986399
0.986398
0.986397
0.986396
0.986396
0.986396
0.986395
0.986394
0.986393
0.986393
0.986392
0.986391
0.98639
0.986389
0.986389
0.986388
0.986387
0.986386
0.986385
0.986385
0.986384
0.986383
0.986382
0.986381
0.986381
0.98638
0.986379
0.986379
0.986378
0.986378
0.986377
0.986376
0.986375
0.986374
0.986374
0.986373
0.986372
0.986371
0.98637
0.98637
0.986369
0.986368
0.986367
0.986366
0.986366
0.986365
0.986364
0.986363
0.986362
0.986362
0.986361
0.98636
0.986359
0.986358
0.986358
0.986357
0.986356
0.986355
0.986354
0.986354
0.986353
0.986352
0.986351
0.98635
0.98635
0.986349
0.986348
0.986347
0.986346
0.986346
0.986345
0.986344
0.986343
0.986342
0.986342
0.986341
0.98634
0.986339
0.986338
0.986338
0.986337
0.986336
0.986335
0.986334
0.986334
0.986333
0.986333
0.986332
0.986331
0.986331
0.98633
0.986329
0.986328
0.986327
0.986327
0.986326
0.986325
0.986324
0.986323
0.986323
0.986322
0.986321
0.98632
0.986319
0.986319
0.986318
0.986317
0.986316
0.986315
0.986315
0.986314
0.986313
0.986312
0.986311
0.986311
0.986311
0.98631
0.986309
0.986308
0.986308
0.986307
0.986306
0.986305
0.986304
0.986304
0.986303
0.986302
0.986301
0.9863
0.9863
0.986299
0.986298
0.986297
0.986296
0.986296
0.986295
0.986294
0.986293
0.986292
0.986292
0.986291
0.98629
0.986289
0.986288
0.986288
0.986287
0.986286
0.986285
0.986284
0.986284
0.986283
0.986282
0.986281
0.98628
0.98628
0.986279
0.986278
0.986277
0.986276
0.986276
0.986275
0.986274
0.986273
0.986272
0.986272
0.986271
0.98627
0.986269
0.986268
0.986268
0.986267
0.986266
0.986265
0.986264
0.986264
0.986263
0.986262
0.986261
0.98626
0.98626
0.986259
0.986258
0.986257
0.986256
0.986256
0.986255
0.986254
0.986253
0.986252
0.986252
0.986251
0.98625
0.986249
0.986248
0.986248
0.986247
0.986246
0.986245
0.986244
0.986244
0.986243
0.986242
0.986241
0.98624
0.98624
0.986239
0.986238
0.986237
0.986236
0.986236
0.986235
0.986234
0.986233
0.986232
0.986232
0.986231
0.98623
0.986229
0.986228
0.986228
0.986227
0.986226
0.986225
0.986224
0.986224
0.986223
0.986222
0.986221
0.98622
0.98622
0.986219
0.986218
0.986217
0.986216
0.986216
0.986215
0.986214
0.986213
0.986212
0.986212
0.986211
0.98621
0.986209
0.986208
0.986208
0.986207
0.986206
0.986205
0.986204
0.986204
0.986203
0.986202
0.986201
0.9862
0.9862
0.986199
0.986198
0.986197
0.986196
0.986196
0.986195
0.986194
0.986193
0.986192
0.986192
0.986191
0.98619
0.986188
0.986187
0.986187
0.986186
0.986185
0.986184
0.986183
0.986183
0.986182
0.986181
0.98618
0.986179
0.986179
0.986178
0.986177
0.986176
0.986175
0.986175
0.986174
0.986173
0.986172
0.986171
0.986171
0.98617
0.986169
0.986168
0.986167
0.986167
0.986166
0.986164
0.986163
0.986162
0.986162
0.986161
0.98616
0.986159
0.986158
0.986158
0.986157
0.986156
0.986155
0.986154
0.986154
0.986153
0.986152
0.986151
0.98615
0.98615
0.986149
0.986148
0.986147
0.986146
0.986146
0.986145
0.986144
0.986143
0.986142
0.986142
0.986141
0.98614
0.986139
0.986138
0.986138
0.986137
0.986136
0.986135
0.986134
0.986134
0.986133
0.986132
0.986131
0.98613
0.98613
0.986129
0.986128
0.986127
0.986126
0.986126
0.986125
0.986124
0.986123
0.986122
0.986122
0.986121
0.98612
0.986119
0.986118
0.986118
0.986117
0.986115
0.986114
0.986113
0.986113
0.986112
0.986111
0.98611
0.986109
0.986109
0.986108
0.986107
0.986106
0.986105
0.986105
0.986104
0.986103
0.986102
0.986101
0.986101
0.9861
0.986099
0.986098
0.986096
0.986096
0.986095
0.986094
0.986093
0.986092
0.986092
0.986091
0.98609
0.986089
0.986088
0.986088
0.986087
0.986086
0.986085
0.986084
0.986084
0.986083
0.986082
0.98608
0.986079
0.986079
0.986078
0.986077
0.986076
0.986075
0.986075
0.986074
0.986073
0.986072
0.986071
0.986071
0.98607
0.986069
0.986068
0.986067
0.986067
0.986066
0.986065
0.986064
0.986063
0.986063
0.986062
0.986061
0.98606
0.986059
0.986059
0.986058
0.986057
0.986056
0.986055
0.986055
0.986053
0.986052
0.986051
0.98605
0.98605
0.986049
0.986048
0.986047
0.986046
0.986046
0.986045
0.986044
0.986043
0.986042
0.986042
0.986041
0.98604
0.986039
0.986038
0.986038
0.986037
0.986036
0.986035
0.986034
0.986034
0.986033
0.986031
0.98603
0.986029
0.986029
0.986028
0.986027
0.986026
0.986025
0.986025
0.986024
0.986023
0.986022
0.986021
0.986021
0.98602
0.986019
0.986018
0.986016
0.986016
0.986015
0.986014
0.986013
0.986012
0.986012
0.986011
0.98601
0.986009
0.986008
0.986008
0.986007
0.986006
0.986005
0.986003
0.986003
0.986002
0.986001
0.986
0.985999
0.985999
0.985998
0.985997
0.985996
0.985995
0.985995
0.985994
0.985993
0.985992
0.985991
0.985991
0.985989
0.985988
0.985987
0.985986
0.985986
0.985985
0.985984
0.985983
0.985982
0.985982
0.985981
0.98598
0.985979
0.985978
0.985978
0.985977
0.985976
0.985975
0.985974
0.985974
0.985973
0.985972
0.985971
0.98597
0.98597
0.985968
0.985967
0.985966
0.985965
0.985965
0.985964
0.985963
0.985962
0.985961
0.985961
0.98596
0.985959
0.985958
0.985957
0.985957
0.985956
0.985955
0.985954
0.985953
0.985953
0.985951
0.98595
0.985949
0.985948
0.985948
0.985947
0.985946
0.985945
0.985944
0.985944
0.985943
0.985942
0.985941
0.98594
0.98594
0.985938
0.985937
0.985936
0.985935
0.985935
0.985934
0.985933
0.985932
0.985931
0.985931
0.98593
0.985929
0.985927
0.985926
0.985926
0.985925
0.985924
0.985923
0.985922
0.985922
0.985921
0.98592
0.985919
0.985918
0.985918
0.985916
0.985915
0.985914
0.985913
0.985913
0.985912
0.985911
0.98591
0.985909
0.985909
0.985908
0.985907
0.985906
0.985905
0.985905
0.985904
0.985902
0.985901
0.9859
0.9859
0.985899
0.985898
0.985897
0.985896
0.985896
0.985895
0.985894
0.985893
0.985892
0.985892
0.985891
0.98589
0.985889
0.985888
0.985888
0.985886
0.985885
0.985884
0.985883
0.985883
0.985882
0.985881
0.98588
0.985879
0.985879
0.985878
0.985877
0.985876
0.985875
0.985875
0.985874
0.985872
0.985871
0.98587
0.98587
0.985869
0.985868
0.985867
0.985866
0.985866
0.985865
0.985864
0.985863
0.985862
0.985862
0.98586
0.985859
0.985858
0.985857
0.985857
0.985856
0.985855
0.985854
0.985853
0.985853
0.985852
0.985851
0.985849
0.985848
0.985848
0.985847
0.985846
0.985845
0.985844
0.985844
0.985843
0.985842
0.985841
0.985839
0.985839
0.985838
0.985837
0.985836
0.985835
0.985835
0.985834
0.985833
0.985832
0.985831
0.985831
0.985829
0.985828
0.985827
0.985826
0.985826
0.985825
0.985824
0.985823
0.985822
0.985822
0.985821
0.98582
0.985819
0.985818
0.985818
0.985817
0.985815
0.985814
0.985813
0.985813
0.985812
0.985811
0.98581
0.985809
0.985809
0.985808
0.985807
0.985806
0.985805
0.985805
0.985804
0.985803
0.985801
0.9858
0.9858
0.985799
0.985798
0.985797
0.985796
0.985796
0.985795
0.985794
0.985793
0.985792
0.985792
0.985791
0.985789
0.985788
0.985787
0.985787
0.985786
0.985785
0.985784
0.985783
0.985783
0.985782
0.985781
0.985779
0.985778
0.985778
0.985777
0.985776
0.985775
0.985774
0.985774
0.985773
0.985772
0.985771
0.985769
0.985769
0.985768
0.985767
0.985766
0.985765
0.985765
0.985764
0.985763
0.985762
0.98576
0.98576
0.985759
0.985758
0.985757
0.985756
0.985756
0.985755
0.985754
0.985753
0.985752
0.985752
0.98575
0.985749
0.985748
0.985747
0.985747
0.985746
0.985745
0.985744
0.985743
0.985743
0.985742
0.985741
0.98574
0.985738
0.985738
0.985737
0.985736
0.985735
0.985734
0.985734
0.985733
0.985732
0.985731
0.98573
0.98573
0.985729
0.985728
0.985727
0.985725
0.985725
0.985724
0.985723
0.985722
0.985721
0.985721
0.98572
0.985719
0.985718
0.985717
0.985717
0.985716
0.985714
0.985713
0.985712
0.985712
0.985711
0.98571
0.985709
0.985708
0.985708
0.985707
0.985706
0.985704
0.985703
0.985703
0.985702
0.985701
0.9857
0.985699
0.985699
0.985698
0.985697
0.985696
0.985694
0.985694
0.985693
0.985692
0.985691
0.98569
0.98569
0.985689
0.985688
0.985686
0.985685
0.985685
0.985684
0.985683
0.985682
0.985681
0.985681
0.98568
0.985679
0.985678
0.985676
0.985676
0.985675
0.985674
0.985673
0.985672
0.985672
0.985671
0.98567
0.985669
0.985668
0.985668
0.985667
0.985665
0.985664
0.985663
0.985663
0.985662
0.985661
0.98566
0.985659
0.985659
0.985658
0.985657
0.985656
0.985655
0.985655
0.985653
0.985652
0.985651
0.98565
0.98565
0.985649
0.985648
0.985647
0.985646
0.985646
0.985645
0.985644
0.985642
0.985641
0.985641
0.98564
0.985639
0.985638
0.985637
0.985637
0.985636
0.985635
0.985634
0.985632
0.985632
0.985631
0.98563
0.985629
0.985628
0.985628
0.985627
0.985626
0.985625
0.985623
0.985623
0.985622
0.985621
0.98562
0.985619
0.985619
0.985618
0.985617
0.985616
0.985614
0.985614
0.985613
0.985612
0.985611
0.98561
0.98561
0.985609
0.985608
0.985607
0.985605
0.985605
0.985604
0.985603
0.985602
0.985601
0.985601
0.9856
0.985599
0.985598
0.985597
0.985597
0.985595
0.985594
0.985593
0.985592
0.985592
0.985591
0.98559
0.985589
0.985588
0.985588
0.985587
0.985586
0.985585
0.985583
0.985583
0.985582
0.985581
0.98558
0.985579
0.985579
0.985578
0.985577
0.985576
0.985575
0.985575
0.985574
0.985572
0.985571
0.98557
0.98557
0.985569
0.985568
0.985567
0.985566
0.985566
0.985565
0.985564
0.985562
0.985561
0.985561
0.98556
0.985559
0.985558
0.985557
0.985557
0.985556
0.985555
0.985554
0.985552
0.985552
0.985551
0.98555
0.985549
0.985548
0.985548
0.985547
0.985546
0.985544
0.985543
0.985543
0.985542
0.985541
0.98554
0.985539
0.985539
0.985538
0.985537
0.985535
0.985534
0.985534
0.985533
0.985532
0.985531
0.98553
0.98553
0.985529
0.985528
0.985527
0.985525
0.985525
0.985524
0.985523
0.985522
0.985521
0.985521
0.98552
0.985519
0.985518
0.985517
0.985517
0.985516
0.985514
0.985513
0.985512
0.985512
0.985511
0.98551
0.985509
0.985508
0.985508
0.985507
0.985506
0.985505
0.985503
0.985503
0.985502
0.985501
0.9855
0.985499
0.985499
0.985498
0.985497
0.985496
0.985495
0.985495
0.985494
0.985492
0.985491
0.98549
0.98549
0.985489
0.985488
0.985487
0.985486
0.985486
0.985485
0.985483
0.985482
0.985481
0.985481
0.98548
0.985479
0.985478
0.985477
0.985477
0.985476
0.985474
0.985473
0.985472
0.985472
0.985471
0.98547
0.985469
0.985468
0.985468
0.985467
0.985465
0.985464
0.985463
0.985463
0.985462
0.985461
0.98546
0.985459
0.985459
0.985458
0.985456
0.985455
0.985454
0.985454
0.985453
0.985452
0.985451
0.98545
0.98545
0.985449
0.985448
0.985447
0.985446
0.985446
0.985444
0.985443
0.985442
0.985441
0.985441
0.98544
0.985439
0.985438
0.985437
0.985437
0.985436
0.985435
0.985433
0.985432
0.985432
0.985431
0.98543
0.985429
0.985428
0.985428
0.985427
0.985426
0.985425
0.985424
0.985424
0.985422
0.985421
0.98542
0.985419
0.985419
0.985418
0.985417
0.985416
0.985415
0.985415
0.985413
0.985412
0.985411
0.98541
0.98541
0.985409
0.985408
0.985407
0.985406
0.985406
0.985404
0.985403
0.985402
0.985401
0.985401
0.9854
0.985399
0.985398
0.985397
0.985397
0.985395
0.985394
0.985393
0.985392
0.985392
0.985391
0.98539
0.985389
0.985388
0.985388
0.985387
0.985386
0.985384
0.985383
0.985383
0.985382
0.985381
0.98538
0.985379
0.985379
0.985378
0.985377
0.985376
0.985375
0.985375
0.985373
0.985372
0.985371
0.98537
0.98537
0.985369
0.985368
0.985367
0.985366
0.985366
0.985365
0.985364
0.985363
0.985361
0.985361
0.98536
0.985359
0.985358
0.985357
0.985357
0.985356
0.985355
0.985354
0.985353
0.985353
0.985351
0.98535
0.985349
0.985348
0.985348
0.985347
0.985346
0.985345
0.985344
0.985344
0.985343
0.985341
0.98534
0.985339
0.985339
0.985338
0.985337
0.985336
0.985335
0.985335
0.985334
0.985332
0.985331
0.98533
0.98533
0.985329
0.985328
0.985327
0.985326
0.985326
0.985325
0.985324
0.985322
0.985321
0.985321
0.98532
0.985319
0.985318
0.985317
0.985317
0.985316
0.985315
0.985314
0.985313
0.985313
0.985312
0.985311
0.985309
0.985308
0.985308
0.985307
0.985306
0.985305
0.985304
0.985304
0.985303
0.985302
0.985301
0.9853
0.9853
0.985299
0.985297
0.985296
0.985295
0.985295
0.985294
0.985293
0.985292
0.985291
0.985291
0.98529
0.985289
0.985288
0.985286
0.985286
0.985285
0.985284
0.985283
0.985282
0.985282
0.985281
0.98528
0.985279
0.985278
0.985278
0.985276
0.985275
0.985274
0.985273
0.985273
0.985272
0.985271
0.98527
0.985269
0.985269
0.985268
0.985266
0.985265
0.985264
0.985264
0.985263
0.985262
0.985261
0.98526
0.98526
0.985259