<?xml version="1.0"?>
<VTKFile type="UnstructuredGrid" version="0.1" byte_order="LittleEndian">
<UnstructuredGrid>
<Piece NumberOfPoints="5000" NumberOfCells="4000">
<PointData Scalars="Reaction 0">
<DataArray type="Float32" Name="Reaction 0" format="ascii">
0.753492
0.753492
0.753492
0.753492
0.753492
0.753492
0.753493
0.753493
0.753493
0.753493
0.753493
0.753493
0.753493
0.753493
0.753493
0.753493
0.753493
0.753493
0.753493
0.753493
0.753493
0.753493
0.753494
0.753494
0.753494
0.753494
0.753494
0.753494
0.753494
0.753494
0.753494
0.753494
0.753495
0.753495
0.753495
0.753495
0.753495
0.753495
0.753496
0.753496
0.753496
0.753496
0.753496
0.753496
0.753497
0.753497
0.753497
0.753497
0.753497
0.753498
0.753498
0.753498
0.753498
0.753498
0.753499
0.753499
0.753499
0.753499
0.7535
0.7535
0.7535
0.7535
0.753501
0.753501
0.753501
0.753501
0.753502
0.753502
0.753502
0.753503
0.753503
0.753503
0.753503
0.753504
0.753504
0.753504
0.753505
0.753505
0.753505
0.753506
0.753506
0.753506
0.753507
0.753507
0.753508
0.753508
0.753508
0.753508
0.753509
0.753509
0.753509
0.75351
0.75351
0.753511
0.753511
0.753511
0.753512
0.753512
0.753513
0.753513
0.753513
0.753514
0.753514
0.753515
0.753516
0.753516
0.753516
0.753517
0.753517
0.753518
0.753518
0.753518
0.753519
0.75352
0.75352
0.75352
0.753521
0.753521
0.753522
0.753523
0.753523
0.753523
0.753524
0.753525
0.753525
0.753525
0.753526
0.753526
0.753527
0.753528
0.753528
0.753529
0.753529
0.75353
0.753531
0.753531
0.753531
0.753532
0.753533
0.753533
0.753533
0.753534
0.753535
0.753536
0.753536
0.753536
0.753537
0.753538
0.753539
0.75354
0.75354
0.75354
0.753541
0.753542
0.753543
0.753543
0.753544
0.753544
0.753545
0.753546
0.753546
0.753547
0.753548
0.753549
0.753549
0.753549
0.75355
0.753551
0.753552
0.753553
0.753553
0.753554
0.753555
0.753556
0.753557
0.753557
0.753558
0.753558
0.753559
0.75356
0.75356
0.753561
0.753562
0.753563
0.753564
0.753564
0.753565
0.753566
0.753567
0.753568
0.753568
0.753569
0.75357
0.753571
0.753572
0.753572
0.753573
0.753574
0.753575
0.753576
0.753576
0.753577
0.753578
0.753579
0.75358
0.75358
0.753582
0.753583
0.753584
0.753585
0.753585
0.753586
0.753587
0.753588
0.753589
0.753589
0.75359
0.753592
0.753593
0.753594
0.753594
0.753595
0.753596
0.753597
0.753598
0.753598
0.7536
0.753601
0.753602
0.753603
0.753603
0.753604
0.753606
0.753607
0.753608
0.753608
0.753609
0.753611
0.753612
0.753613
0.753613
0.753614
0.753616
0.753617
0.753618
0.753618
0.753619
0.753621
0.753622
0.753623
0.753623
0.753625
0.753626
0.753627
0.753629
0.753629
0.75363
0.753631
0.753633
0.753634
0.753634
0.753635
0.753637
0.753638
0.75364
0.75364
0.753641
0.753642
0.753644
0.753645
0.753645
0.753647
0.753648
0.753649
0.753651
0.753651
0.753652
0.753654
0.753655
0.753657
0.753657
0.753658
0.75366
0.753661
0.753663
0.753663
0.753664
0.753666
0.753667
0.753669
0.753669
0.75367
0.753672
0.753673
0.753675
0.753675
0.753676
0.753678
0.753679
0.753681
0.753681
0.753683
0.753684
0.753686
0.753687
0.753687
0.753689
0.75369
0.753692
0.753694
0.753694
0.753695
0.753697
0.753699
0.7537
0.7537
0.753702
0.753704
0.753705
0.753707
0.753707
0.753709
0.75371
0.753712
0.753714
0.753714
0.753715
0.753717
0.753719
0.753721
0.753721
0.753722
0.753724
0.753726
0.753728
0.753728
0.753729
0.753731
0.753733
0.753735
0.753735
0.753736
0.753738
0.75374
0.753742
0.753742
0.753744
0.753745
0.753747
0.753749
0.753749
0.753751
0.753753
0.753755
0.753756
0.753756
0.753758
0.75376
0.753762
0.753764
0.753764
0.753766
0.753768
0.75377
0.753771
0.753771
0.753773
0.753775
0.753777
0.753779
0.753779
0.753781
0.753783
0.753785
0.753787
0.753787
0.753789
0.753791
0.753793
0.753795
0.753795
0.753797
0.753799
0.753801
0.753803
0.753803
0.753805
0.753807
0.753809
0.753811
0.753811
0.753813
0.753815
0.753817
0.753819
0.753819
0.753821
0.753823
0.753826
0.753828
0.753828
0.75383
0.753832
0.753834
0.753836
0.753836
0.753838
0.75384
0.753842
0.753845
0.753845
0.753847
0.753849
0.753851
0.753853
0.753853
0.753855
0.753858
0.75386
0.753862
0.753862
0.753864
0.753866
0.753869
0.753871
0.753871
0.753873
0.753875
0.753878
0.75388
0.75388
0.753882
0.753884
0.753887
0.753889
0.753889
0.753891
0.753893
0.753896
0.753898
0.753898
0.7539
0.753903
0.753905
0.753907
0.753907
0.75391
0.753912
0.753914
0.753917
0.753917
0.753919
0.753921
0.753924
0.753926
0.753926
0.753928
0.753931
0.753933
0.753936
0.753936
0.753938
0.75394
0.753943
0.753945
0.753945
0.753948
0.75395
0.753953
0.753955
0.753955
0.753958
0.75396
0.753962
0.753965
0.753965
0.753967
0.75397
0.753972
0.753975
0.753975
0.753977
0.75398
0.753982
0.753985
0.753985
0.753988
0.75399
0.753993
0.753995
0.753995
0.753998
0.754
0.754003
0.754005
0.754005
0.754008
0.754011
0.754013
0.754016
0.754016
0.754019
0.754021
0.754024
0.754026
0.754026
0.754029
0.754032
0.754034
0.754037
0.754037
0.75404
0.754043
0.754045
0.754048
0.754048
0.754051
0.754053
0.754056
0.754059
0.754059
0.754062
0.754064
0.754067
0.75407
0.75407
0.754073
0.754075
0.754078
0.754081
0.754081
0.754084
0.754086
0.754089
0.754092
0.754092
0.754095
0.754098
0.7541
0.754103
0.754103
0.754106
0.754109
0.754112
0.754115
0.754115
0.754118
0.75412
0.754123
0.754126
0.754126
0.754129
0.754132
0.754135
0.754138
0.754138
0.754141
0.754144
0.754147
0.754149
0.754149
0.754152
0.754155
0.754158
0.754161
0.754161
0.754164
0.754167
0.75417
0.754173
0.754173
0.754176
0.754179
0.754182
0.754185
0.754185
0.754188
0.754191
0.754194
0.754197
0.754197
0.7542
0.754203
0.754206
0.754209
0.754209
0.754213
0.754216
0.754219
0.754222
0.754222
0.754225
0.754228
0.754231
0.754234
0.754234
0.754237
0.75424
0.754244
0.754247
0.754247
0.75425
0.754253
0.754256
0.754259
0.754259
0.754263
0.754266
0.754269
0.754272
0.754272
0.754275
0.754278
0.754282
0.754285
0.754285
0.754288
0.754291
0.754295
0.754298
0.754298
0.754301
0.754304
0.754308
0.754311
0.754311
0.754314
0.754317
0.754321
0.754324
0.754324
0.754327
0.754331
0.754334
0.754337
0.754337
0.754341
0.754344
0.754347
0.754351
0.754351
0.754354
0.754357
0.754361
0.754364
0.754364
0.754368
0.754371
0.754374
0.754378
0.754378
0.754381
0.754385
0.754388
0.754391
0.754391
0.754395
0.754398
0.754402
0.754405
0.754405
0.754409
0.754412
0.754416
0.754419
0.754419
0.754423
0.754426
0.75443
0.754433
0.754433
0.754437
0.75444
0.754444
0.754447
0.754447
0.754451
0.754454
0.754458
0.754461
0.754461
0.754465
0.754469
0.754472
0.754476
0.754476
0.754479
0.754483
0.754487
0.75449
0.75449
0.754494
0.754497
0.754501
0.754505
0.754505
0.754508
0.754512
0.754516
0.754519
0.754519
0.754523
0.754527
0.75453
0.754534
0.754534
0.754538
0.754541
0.754545
0.754549
0.754549
0.754553
0.754556
0.75456
0.754564
0.754564
0.754568
0.754571
0.754575
0.754579
0.754579
0.754583
0.754586
0.75459
0.754594
0.754594
0.754598
0.754602
0.754605
0.754609
0.754609
0.754613
0.754617
0.754621
0.754625
0.754625
0.754628
0.754632
0.754636
0.75464
0.75464
0.754644
0.754648
0.754652
0.754656
0.754656
0.75466
0.754663
0.754667
0.754671
0.754671
0.754675
0.754679
0.754683
0.754687
0.754687
0.754691
0.754695
0.754699
0.754703
0.754703
0.754707
0.754711
0.754715
0.754719
0.754719
0.754723
0.754727
0.754731
0.754735
0.754735
0.754739
0.754743
0.754747
0.754751
0.754751
0.754755
0.754759
0.754763
0.754768
0.754768
0.754772
0.754776
0.75478
0.754784
0.754784
0.754788
0.754792
0.754796
0.7548
0.7548
0.754805
0.754809
0.754813
0.754817
0.754817
0.754821
0.754825
0.75483
0.754834
0.754834
0.754838
0.754842
0.754846
0.75485
0.75485
0.754855
0.754859
0.754863
0.754867
0.754867
0.754872
0.754876
0.75488
0.754884
0.754884
0.754889
0.754893
0.754897
0.754901
0.754901
0.754906
0.75491
0.754914
0.754919
0.754919
0.754923
0.754927
0.754932
0.754936
0.754936
0.75494
0.754945
0.754949
0.754954
0.754954
0.754958
0.754962
0.754967
0.754971
0.754971
0.754976
0.75498
0.754985
0.754989
0.754989
0.754993
0.754998
0.755002
0.755007
0.755007
0.755011
0.755016
0.75502
0.755025
0.755025
0.755029
0.755034
0.755038
0.755043
0.755043
0.755047
0.755052
0.755056
0.755061
0.755061
0.755065
0.75507
0.755075
0.755079
0.755079
0.755084
0.755088
0.755093
0.755097
0.755097
0.755102
0.755107
0.755111
0.755116
0.755116
0.75512
0.755125
0.75513
0.755134
0.755134
0.755139
0.755144
0.755148
0.755153
0.755153
0.755158
0.755162
0.755167
0.755172
0.755172
0.755176
0.755181
0.755186
0.755191
0.755191
0.755195
0.7552
0.755205
0.75521
0.75521
0.755214
0.755219
0.755224
0.755229
0.755229
0.755233
0.755238
0.755243
0.755248
0.755248
0.755253
0.755257
0.755262
0.755267
0.755267
0.755272
0.755277
0.755282
0.755286
0.755286
0.755291
0.755296
0.755301
0.755306
0.755306
0.755311
0.755316
0.755321
0.755325
0.755325
0.75533
0.755335
0.75534
0.755345
0.755345
0.75535
0.755355
0.75536
0.755365
0.755365
0.75537
0.755375
0.75538
0.755385
0.755385
0.75539
0.755395
0.7554
0.755405
0.755405
0.75541
0.755415
0.75542
0.755425
0.755425
0.75543
0.755435
0.75544
0.755445
0.755445
0.75545
0.755455
0.75546
0.755465
0.755465
0.75547
0.755476
0.755481
0.755486
0.755486
0.755491
0.755496
0.755501
0.755506
0.755506
0.755511
0.755517
0.755522
0.755527
0.755527
0.755532
0.755537
0.755543
0.755548
0.755548
0.755553
0.755558
0.755563
0.755569
0.755569
0.755574
0.755579
0.755584
0.755589
0.755589
0.755595
0.7556
0.755605
0.755611
0.755611
0.755616
0.755621
0.755626
0.755632
0.755632
0.755637
0.755642
0.755648
0.755653
0.755653
0.755658
0.755664
0.755669
0.755674
0.755674
0.75568
0.755685
0.75569
0.755696
0.755696
0.755701
0.755706
0.755712
0.755717
0.755717
0.755723
0.755728
0.755733
0.755739
0.755739
0.755744
0.75575
0.755755
0.755761
0.755761
0.755766
0.755771
0.755777
0.755782
0.755782
0.755788
0.755793
0.755799
0.755804
0.755804
0.75581
0.755815
0.755821
0.755826
0.755826
0.755832
0.755837
0.755843
0.755849
0.755849
0.755854
0.75586
0.755865
0.755871
0.755871
0.755877
0.755882
0.755888
0.755893
0.755893
0.755899
0.755905
0.75591
0.755916
0.755916
0.755922
0.755927
0.755933
0.755939
0.755939
0.755944
0.75595
0.755956
0.755962
0.755962
0.755967
0.755973
0.755979
0.755984
0.755984
0.75599
0.755996
0.756002
0.756007
0.756007
0.756013
0.756019
0.756025
0.75603
0.75603
0.756036
0.756042
0.756048
0.756054
0.756054
0.756059
0.756065
0.756071
0.756077
0.756077
0.756083
0.756089
0.756095
0.7561
0.7561
0.756106
0.756112
0.756118
0.756124
0.756124
0.75613
0.756136
0.756142
0.756147
0.756147
0.756153
0.756159
0.756165
0.756171
0.756171
0.756177
0.756183
0.756189
0.756195
0.756195
0.756201
0.756207
0.756213
0.756219
0.756219
0.756225
0.756231
0.756237
0.756243
0.756243
0.756249
0.756255
0.756261
0.756267
0.756267
0.756273
0.756279
0.756285
0.756291
0.756291
0.756297
0.756303
0.756309
0.756316
0.756316
0.756322
0.756328
0.756334
0.75634
0.75634
0.756346
0.756352
0.756358
0.756365
0.756365
0.756371
0.756377
0.756383
0.756389
0.756389
0.756395
0.756402
0.756408
0.756414
0.756414
0.75642
0.756426
0.756433
0.756439
0.756439
0.756445
0.756451
0.756457
0.756464
0.756464
0.75647
0.756476
0.756483
0.756489
0.756489
0.756495
0.756501
0.756508
0.756514
0.756514
0.75652
0.756527
0.756533
0.756539
0.756539
0.756546
0.756552
0.756558
0.756565
0.756565
0.756571
0.756577
0.756584
0.75659
0.75659
0.756596
0.756603
0.756609
0.756616
0.756616
0.756622
0.756628
0.756635
0.756641
0.756641
0.756648
0.756654
0.756661
0.756667
0.756667
0.756673
0.75668
0.756686
0.756693
0.756693
0.756699
0.756706
0.756712
0.756719
0.756719
0.756725
0.756732
0.756738
0.756745
0.756745
0.756751
0.756758
0.756764
0.756771
0.756771
0.756778
0.756784
0.756791
0.756797
0.756797
0.756804
0.756811
0.756817
0.756824
0.756824
0.756831
0.756837
0.756844
0.75685
0.75685
0.756857
0.756864
0.756871
0.756877
0.756877
0.756884
0.756891
0.756897
0.756904
0.756904
0.756911
0.756918
0.756924
0.756931
0.756931
0.756938
0.756944
0.756951
0.756958
0.756958
0.756965
0.756972
0.756978
0.756985
0.756985
0.756992
0.756999
0.757006
0.757012
0.757012
0.757019
0.757026
0.757033
0.75704
0.75704
0.757047
0.757053
0.75706
0.757067
0.757067
0.757074
0.757081
0.757088
0.757095
0.757095
0.757102
0.757108
0.757115
0.757122
0.757122
0.757129
0.757136
0.757143
0.75715
0.75715
0.757157
0.757164
0.757171
0.757178
0.757178
0.757185
0.757192
0.757199
0.757206
0.757206
0.757213
0.75722
0.757227
0.757234
0.757234
0.757241
0.757248
0.757255
0.757262
0.757262
0.757269
0.757276
0.757283
0.75729
0.75729
0.757297
0.757304
0.757311
0.757319
0.757319
0.757326
0.757333
0.75734
0.757347
0.757347
0.757354
0.757361
0.757368
0.757376
0.757376
0.757383
0.75739
0.757397
0.757404
0.757404
0.757411
0.757419
0.757426
0.757433
0.757433
0.75744
0.757447
0.757455
0.757462
0.757462
0.757469
0.757476
0.757484
0.757491
0.757491
0.757498
0.757505
0.757513
0.75752
0.75752
0.757527
0.757535
0.757542
0.757549
0.757549
0.757556
0.757564
0.757571
0.757578
0.757578
0.757586
0.757593
0.7576
0.757608
0.757608
0.757615
0.757622
0.75763
0.757637
0.757637
0.757645
0.757652
0.757659
0.757667
0.757667
0.757674
0.757682
0.757689
0.757696
0.757696
0.757704
0.757711
0.757719
0.757726
0.757726
0.757734
0.757741
0.757749
0.757756
0.757756
0.757764
0.757771
0.757779
0.757786
0.757786
0.757794
0.757801
0.757809
0.757816
0.757816
0.757824
0.757832
0.757839
0.757847
0.757847
0.757854
0.757862
0.75787
0.757877
0.757877
0.757885
0.757893
0.7579
0.757908
0.757908
0.757915
0.757923
0.757931
0.757938
0.757938
0.757946
0.757954
0.757962
0.757969
0.757969
0.757977
0.757985
0.757992
0.758
0.758
0.758008
0.758016
0.758023
0.758031
0.758031
0.758039
0.758047
0.758054
0.758062
0.758062
0.75807
0.758078
0.758085
0.758093
0.758093
0.758101
0.758109
0.758117
0.758124
0.758124
0.758132
0.75814
0.758148
0.758156
0.758156
0.758164
0.758172
0.758179
0.758187
0.758187
0.758195
0.758203
0.758211
0.758219
0.758219
0.758227
0.758235
0.758243
0.75825
0.75825
0.758258
0.758266
0.758274
0.758282
0.758282
0.75829
0.758298
0.758306
0.758314
0.758314
0.758322
0.75833
0.758338
0.758346
0.758346
0.758354
0.758362
0.75837
0.758378
0.758378
0.758386
0.758394
0.758402
0.75841
0.75841
0.758418
0.758426
0.758435
0.758443
0.758443
0.758451
0.758459
0.758467
0.758475
0.758475
0.758483
0.758491
0.758499
0.758507
0.758507
0.758516
0.758524
0.758532
0.75854
0.75854
0.758548
0.758556
0.758564
0.758573
0.758573
0.758581
0.758589
0.758597
0.758605
0.758605
0.758614
0.758622
0.75863
0.758638
0.758638
0.758646
0.758655
0.758663
0.758671
0.758671
0.758679
0.758688
0.758696
0.758704
0.758704
0.758713
0.758721
0.758729
0.758738
0.758738
0.758746
0.758754
0.758763
0.758771
0.758771
0.758779
0.758788
0.758796
0.758804
0.758804
0.758813
0.758821
0.75883
0.758838
0.758838
0.758847
0.758855
0.758863
0.758872
0.758872
0.75888
0.758889
0.758897
0.758906
0.758906
0.758914
0.758923
0.758931
0.75894
0.75894
0.758948
0.758957
0.758965
0.758974
0.758974
0.758982
0.758991
0.758999
0.759008
0.759008
0.759017
0.759025
0.759034
0.759042
0.759042
0.759051
0.759059
0.759068
0.759077
0.759077
0.759085
0.759094
0.759102
0.759111
0.759111
0.75912
0.759128
0.759137
0.759146
0.759146
0.759154
0.759163
0.759172
0.75918
0.75918
0.759189
0.759198
0.759206
0.759215
0.759215
0.759224
0.759232
0.759241
0.75925
0.75925
0.759259
0.759267
0.759276
0.759285
0.759285
0.759294
0.759302
0.759311
0.75932
0.75932
0.759329
0.759337
0.759346
0.759355
0.759355
0.759364
0.759373
0.759382
0.75939
0.75939
0.759399
0.759408
0.759417
0.759426
0.759426
0.759435
0.759443
0.759452
0.759461
0.759461
0.75947
0.759479
0.759488
0.759497
0.759497
0.759506
0.759515
0.759523
0.759532
0.759532
0.759541
0.75955
0.759559
0.759568
0.759568
0.759577
0.759586
0.759595
0.759604
0.759604
0.759613
0.759622
0.759631
0.75964
0.75964
0.759649
0.759658
0.759667
0.759676
0.759676
0.759685
0.759694
0.759703
0.759712
0.759712
0.759721
0.75973
0.759739
0.759749
0.759749
0.759758
0.759767
0.759776
0.759785
0.759785
0.759794
0.759803
0.759813
0.759822
0.759822
0.759831
0.75984
0.759849
0.759859
0.759859
0.759868
0.759877
0.759886
0.759895
0.759895
0.759905
0.759914
0.759923
0.759932
0.759932
0.759942
0.759951
0.75996
0.759969
0.759969
0.759979
0.759988
0.759997
0.760007
0.760007
0.760016
0.760025
0.760035
0.760044
0.760044
0.760053
0.760063
0.760072
0.760081
0.760081
0.760091
0.7601
0.760109
0.760119
0.760119
0.760128
0.760137
0.760147
0.760156
0.760156
0.760166
0.760175
0.760185
0.760194
0.760194
0.760203
0.760213
0.760222
0.760232
0.760232
0.760241
0.760251
0.76026
0.76027
0.76027
0.760279
0.760289
0.760298
0.760308
0.760308
0.760317
0.760327
0.760336
0.760346
0.760346
0.760355
0.760365
0.760374
0.760384
0.760384
0.760393
0.760403
0.760412
0.760422
0.760422
0.760432
0.760441
0.760451
0.76046
0.76046
0.76047
0.76048
0.760489
0.760499
0.760499
0.760508
0.760518
0.760528
0.760537
0.760537
0.760547
0.760557
0.760566
0.760576
0.760576
0.760586
0.760595
0.760605
0.760615
0.760615
0.760624
0.760634
0.760644
0.760654
0.760654
0.760663
0.760673
0.760683
0.760693
0.760693
0.760702
0.760712
0.760722
0.760732
0.760732
0.760741
0.760751
0.760761
0.760771
0.760771
0.760781
0.760791
0.760801
0.76081
0.76081
0.76082
0.76083
0.76084
0.76085
0.76085
0.76086
0.76087
0.76088
0.76089
0.76089
0.7609
0.76091
0.76092
0.760929
0.760929
0.760939
0.760949
0.760959
0.760969
0.760969
0.760979
0.760989
0.760999
0.761009
0.761009
0.761019
0.761029
0.761039
0.761049
0.761049
0.761059
0.761069
0.761079
0.76109
0.76109
0.7611
0.76111
0.76112
0.76113
0.76113
0.76114
0.76115
0.76116
0.76117
0.76117
0.76118
0.76119
0.7612
0.761211
0.761211
0.761221
0.761231
0.761241
0.761251
0.761251
0.761261
0.761271
0.761282
0.761292
0.761292
0.761302
0.761312
0.761322
0.761333
0.761333
0.761343
0.761353
0.761363
0.761373
0.761373
0.761384
0.761394
0.761404
0.761414
0.761414
0.761425
0.761435
0.761445
0.761455
0.761455
0.761466
0.761476
0.761486
0.761496
0.761496
0.761507
0.761517
0.761527
0.761538
0.761538
0.761548
0.761558
0.761569
0.761579
0.761579
0.761589
0.7616
0.76161
0.76162
0.76162
0.761631
0.761641
0.761652
0.761662
0.761662
0.761672
0.761683
0.761693
0.761704
0.761704
0.761714
0.761725
0.761735
0.761746
0.761746
0.761756
0.761767
0.761777
0.761788
0.761788
0.761798
0.761809
0.761819
0.76183
0.76183
0.76184
0.761851
0.761861
0.761872
0.761872
0.761883
0.761893
0.761904
0.761914
0.761914
0.761925
0.761936
0.761946
0.761957
0.761957
0.761968
0.761978
0.761989
0.761999
0.761999
0.76201
0.762021
0.762031
0.762042
0.762042
0.762053
0.762063
0.762074
0.762085
0.762085
0.762096
0.762106
0.762117
0.762128
0.762128
0.762138
0.762149
0.76216
0.762171
0.762171
0.762181
0.762192
0.762203
0.762214
0.762214
0.762224
0.762235
0.762246
0.762257
0.762257
0.762268
0.762278
0.762289
0.7623
0.7623
0.762311
0.762322
0.762333
0.762343
0.762343
0.762354
0.762365
0.762376
0.762387
0.762387
0.762398
0.762409
0.76242
0.76243
0.76243
0.762441
0.762452
0.762463
0.762474
0.762474
0.762485
0.762496
0.762507
0.762518
0.762518
0.762529
0.76254
0.762551
0.762562
0.762562
0.762573
0.762583
0.762594
0.762605
0.762605
0.762616
0.762627
0.762638
0.762649
0.762649
0.762661
0.762672
0.762683
0.762694
0.762694
0.762705
0.762716
0.762727
0.762738
0.762738
0.762749
0.76276
0.762771
0.762782
0.762782
0.762794
0.762805
0.762816
0.762827
0.762827
0.762838
0.762849
0.762861
0.762872
0.762872
0.762883
0.762894
0.762906
0.762917
0.762917
0.762928
0.762939
0.76295
0.762962
0.762962
0.762973
0.762984
0.762995
0.763007
0.763007
0.763018
0.763029
0.763041
0.763052
0.763052
0.763063
0.763075
0.763086
0.763097
0.763097
0.763109
0.76312
0.763131
0.763143
0.763143
0.763154
0.763165
0.763177
0.763188
0.763188
0.763199
0.763211
0.763222
0.763234
0.763234
0.763245
0.763256
0.763268
0.763279
0.763279
0.763291
0.763302
0.763313
0.763325
0.763325
0.763336
0.763348
0.763359
0.763371
0.763371
0.763382
0.763394
0.763405
0.763417
0.763417
0.763428
0.76344
0.763451
0.763463
0.763463
0.763474
0.763486
0.763497
0.763509
0.763509
0.76352
0.763532
0.763543
0.763555
0.763555
0.763567
0.763578
0.76359
0.763601
0.763601
0.763613
0.763624
0.763636
0.763648
0.763648
0.763659
0.763671
0.763683
0.763694
0.763694
0.763706
0.763718
0.763729
0.763741
0.763741
0.763753
0.763764
0.763776
0.763788
0.763788
0.763799
0.763811
0.763823
0.763835
0.763835
0.763847
0.763858
0.76387
0.763882
0.763882
0.763894
0.763906
0.763917
0.763929
0.763929
0.763941
0.763953
0.763965
0.763977
0.763977
0.763988
0.764
0.764012
0.764024
0.764024
0.764036
0.764048
0.76406
0.764072
0.764072
0.764083
0.764095
0.764107
0.764119
0.764119
0.764131
0.764143
0.764155
0.764167
0.764167
0.764179
0.764191
0.764203
0.764215
0.764215
0.764227
0.764239
0.764251
0.764263
0.764263
0.764275
0.764287
0.764299
0.764311
0.764311
0.764323
0.764335
0.764347
0.764359
0.764359
0.764371
0.764383
0.764395
0.764407
0.764407
0.764419
0.764431
0.764443
0.764455
0.764455
0.764467
0.76448
0.764492
0.764504
0.764504
0.764516
0.764528
0.76454
0.764552
0.764552
0.764564
0.764577
0.764589
0.764601
0.764601
0.764613
0.764625
0.764637
0.76465
0.76465
0.764662
0.764674
0.764686
0.764698
0.764698
0.764711
0.764723
0.764735
0.764747
0.764747
0.76476
0.764772
0.764784
0.764796
0.764796
0.764809
0.764821
0.764833
0.764846
0.764846
0.764858
0.76487
0.764883
0.764895
0.764895
0.764908
0.76492
0.764932
0.764945
0.764945
0.764957
0.76497
0.764982
0.764994
0.764994
0.765007
0.765019
0.765032
0.765044
0.765044
0.765057
0.765069
0.765082
0.765094
0.765094
0.765107
0.765119
0.765131
0.765144
0.765144
0.765156
0.765169
0.765182
0.765194
0.765194
0.765207
0.765219
0.765232
0.765244
0.765244
0.765257
0.765269
0.765282
0.765294
0.765294
0.765307
0.76532
0.765332
0.765345
0.765345
0.765357
0.76537
0.765382
0.765395
0.765395
0.765408
0.76542
0.765433
0.765446
0.765446
0.765458
0.765471
0.765484
0.765496
0.765496
0.765509
0.765522
0.765534
0.765547
0.765547
0.76556
0.765572
0.765585
0.765598
0.765598
0.76561
0.765623
0.765636
0.765649
0.765649
0.765661
0.765674
0.765687
0.7657
0.7657
0.765712
0.765725
0.765738
0.765751
0.765751
0.765763
0.765776
0.765789
0.765802
0.765802
0.765815
0.765828
0.76584
0.765853
0.765853
0.765866
0.765879
0.765892
0.765905
0.765905
0.765918
0.765931
0.765944
0.765957
0.765957
0.76597
0.765983
0.765996
0.766009
0.766009
0.766022
0.766035
0.766048
0.766061
0.766061
0.766074
0.766087
0.7661
0.766113
0.766113
0.766126
0.766139
0.766152
0.766165
0.766165
0.766178
0.766191
0.766204
0.766217
0.766217
0.76623
0.766243
0.766256
0.766269
0.766269
0.766282
0.766296
0.766309
0.766322
0.766322
0.766335
0.766348
0.766361
0.766374
0.766374
0.766387
0.766401
0.766414
0.766427
0.766427
0.76644
0.766453
0.766466
0.76648
0.76648
0.766493
0.766506
0.766519
0.766532
0.766532
0.766546
0.766559
0.766572
0.766585
0.766585
0.766598
0.766612
0.766625
0.766638
0.766638
0.766651
0.766665
0.766678
0.766691
0.766691
0.766705
0.766718
0.766731
0.766744
0.766744
0.766758
0.766771
0.766784
0.766798
0.766798
0.766811
0.766824
0.766838
0.766851
0.766851
0.766865
0.766878
0.766891
0.766905
0.766905
0.766918
0.766932
0.766945
0.766959
0.766959
0.766972
0.766986
0.766999
0.767013
0.767013
0.767026
0.76704
0.767053
0.767067
0.767067
0.76708
0.767094
0.767107
0.767121
0.767121
0.767134
0.767148
0.767162
0.767175
0.767175
0.767189
0.767202
0.767216
0.767229
0.767229
0.767243
0.767257
0.76727
0.767284
0.767284
0.767297
0.767311
0.767325
0.767338
0.767338
0.767352
0.767366
0.767379
0.767393
0.767393
0.767407
0.76742
0.767434
0.767448
0.767448
0.767461
0.767475
0.767489
0.767502
0.767502
0.767516
0.76753
0.767544
0.767557
0.767557
0.767571
0.767585
0.767599
0.767612
0.767612
0.767626
0.76764
0.767654
0.767667
0.767667
0.767681
0.767695
0.767709
0.767723
0.767723
0.767736
0.76775
0.767764
0.767778
0.767778
0.767792
0.767805
0.767819
0.767833
0.767833
0.767847
0.767861
0.767875
0.767889
0.767889
0.767903
0.767917
0.767931
0.767945
0.767945
0.767959
0.767973
0.767986
0.768
0.768
0.768014
0.768028
0.768043
0.768057
0.768057
0.768071
0.768085
0.768099
0.768113
0.768113
0.768127
0.768141
0.768155
0.768169
0.768169
0.768183
0.768197
0.768211
0.768225
0.768225
0.768239
0.768253
0.768268
0.768282
0.768282
0.768296
0.76831
0.768324
0.768338
0.768338
0.768352
0.768366
0.768381
0.768395
0.768395
0.768409
0.768423
0.768437
0.768451
0.768451
0.768466
0.76848
0.768494
0.768508
0.768508
0.768522
0.768537
0.768551
0.768565
0.768565
0.768579
0.768594
0.768608
0.768622
0.768622
0.768636
0.768651
0.768665
0.768679
0.768679
0.768693
0.768708
0.768722
0.768736
0.768736
0.768751
0.768765
0.768779
0.768794
0.768794
0.768808
0.768822
0.768837
0.768851
0.768851
0.768865
0.76888
0.768894
0.768908
0.768908
0.768923
0.768937
0.768952
0.768966
0.768966
0.768981
0.768995
0.76901
0.769024
0.769024
0.769039
0.769053
0.769068
0.769082
0.769082
0.769097
0.769111
0.769126
0.76914
0.76914
0.769155
0.769169
0.769184
0.769199
0.769199
0.769213
0.769228
0.769242
0.769257
0.769257
0.769271
0.769286
0.769301
0.769315
0.769315
0.76933
0.769345
0.769359
0.769374
0.769374
0.769388
0.769403
0.769418
0.769432
0.769432
0.769447
0.769462
0.769476
0.769491
0.769491
0.769506
0.76952
0.769535
0.76955
0.76955
0.769565
0.769579
0.769594
0.769609
0.769609
0.769623
0.769638
0.769653
0.769668
0.769668
0.769682
0.769697
0.769712
0.769727
0.769727
0.769742
0.769756
0.769771
0.769786
0.769786
0.769801
0.769815
0.76983
0.769845
0.769845
0.76986
0.769875
0.76989
0.769905
0.769905
0.769919
0.769934
0.769949
0.769964
0.769964
0.769979
0.769994
0.770009
0.770024
0.770024
0.770039
0.770054
0.770069
0.770084
0.770084
0.770099
0.770114
0.770129
0.770144
0.770144
0.770159
0.770174
0.770189
0.770204
0.770204
0.770219
0.770234
0.770249
0.770264
0.770264
0.770279
0.770294
0.770309
0.770324
0.770324
0.77034
0.770355
0.77037
0.770385
0.770385
0.7704
0.770415
0.77043
0.770445
0.770445
0.770461
0.770476
0.770491
0.770506
0.770506
0.770521
0.770536
0.770551
0.770567
0.770567
0.770582
0.770597
0.770612
0.770627
0.770627
0.770643
0.770658
0.770673
0.770688
0.770688
0.770703
0.770719
0.770734
0.770749
0.770749
0.770764
0.77078
0.770795
0.77081
0.77081
0.770826
0.770841
0.770856
0.770871
0.770871
0.770887
0.770902
0.770917
0.770933
0.770933
0.770948
0.770963
0.770979
0.770994
0.770994
0.771009
0.771025
0.77104
0.771056
0.771056
0.771071
0.771087
0.771102
0.771118
0.771118
0.771133
0.771148
0.771164
0.771179
0.771179
0.771195
0.77121
0.771226
0.771241
0.771241
0.771257
0.771273
0.771288
0.771304
0.771304
0.771319
0.771335
0.77135
0.771366
0.771366
0.771381
0.771397
0.771413
0.771428
0.771428
0.771444
0.771459
0.771475
0.771491
0.771491
0.771506
0.771522
0.771537
0.771553
0.771553
0.771569
0.771584
0.7716
0.771616
0.771616
0.771631
0.771647
0.771663
0.771678
0.771678
0.771694
0.77171
0.771725
0.771741
0.771741
0.771757
0.771772
0.771788
0.771804
0.771804
0.77182
0.771835
0.771851
0.771867
0.771867
0.771883
0.771898
0.771914
0.77193
0.77193
0.771946
0.771961
0.771977
0.771993
0.771993
0.772009
0.772025
0.77204
0.772056
0.772056
0.772072
0.772088
0.772104
0.77212
0.77212
0.772136
0.772152
0.772168
0.772184
0.772184
0.7722
0.772215
0.772231
0.772247
0.772247
0.772263
0.772279
0.772295
0.772311
0.772311
0.772327
0.772343
0.772359
0.772375
0.772375
0.772391
0.772407
0.772423
0.772439
0.772439
0.772456
0.772472
0.772488
0.772504
0.772504
0.77252
0.772536
0.772552
0.772568
0.772568
0.772584
0.7726
0.772616
0.772632
0.772632
0.772648
0.772665
0.772681
0.772697
0.772697
0.772713
0.772729
0.772745
0.772761
0.772761
0.772777
0.772794
0.77281
0.772826
0.772826
0.772842
0.772858
0.772875
0.772891
0.772891
0.772907
0.772923
0.772939
0.772956
0.772956
0.772972
0.772988
0.773004
0.77302
0.77302
0.773037
0.773053
0.773069
0.773086
0.773086
0.773102
0.773118
0.773135
0.773151
0.773151
0.773167
0.773184
0.7732
0.773216
0.773216
0.773233
0.773249
0.773266
0.773282
0.773282
0.773298
0.773315
0.773331
0.773348
0.773348
0.773364
0.773381
0.773397
0.773414
0.773414
0.77343
0.773447
0.773463
0.77348
0.77348
0.773496
0.773512
0.773529
0.773546
0.773546
0.773562
0.773579
0.773595
0.773612
0.773612
0.773628
0.773645
0.773661
0.773678
0.773678
0.773694
0.773711
0.773727
0.773744
0.773744
0.773761
0.773777
0.773794
0.77381
0.77381
0.773827
0.773844
0.77386
0.773877
0.773877
0.773893
0.77391
0.773927
0.773943
0.773943
0.77396
0.773977
0.773993
0.77401
0.77401
0.774027
0.774043
0.77406
0.774077
0.774077
0.774093
0.77411
0.774127
0.774144
0.774144
0.77416
0.774177
0.774194
0.774211
0.774211
0.774228
0.774244
0.774261
0.774278
0.774278
0.774295
0.774312
0.774329
0.774345
0.774345
0.774362
0.774379
0.774396
0.774413
0.774413
0.77443
0.774447
0.774464
0.774481
0.774481
0.774498
0.774514
0.774531
0.774548
0.774548
0.774565
0.774582
0.774599
0.774616
0.774616
0.774633
0.77465
0.774667
0.774684
0.774684
0.774701
0.774718
0.774735
0.774752
0.774752
0.774769
0.774786
0.774803
0.77482
0.77482
0.774837
0.774854
0.774871
0.774888
0.774888
0.774905
0.774922
0.774939
0.774956
0.774956
0.774973
0.774991
0.775008
0.775025
0.775025
0.775042
0.775059
0.775076
0.775093
0.775093
0.77511
0.775127
0.775145
0.775162
0.775162
0.775179
0.775196
0.775213
0.775231
0.775231
0.775248
0.775265
0.775282
0.775299
0.775299
0.775317
0.775334
0.775351
0.775369
0.775369
0.775386
0.775403
0.775421
0.775438
0.775438
0.775455
0.775472
0.77549
0.775507
0.775507
0.775524
0.775542
0.775559
0.775577
0.775577
0.775594
0.775611
0.775629
0.775646
0.775646
0.775663
0.775681
0.775698
0.775716
0.775716
0.775733
0.77575
0.775768
0.775785
0.775785
0.775803
0.77582
0.775838
0.775855
0.775855
0.775872
0.77589
0.775907
0.775925
0.775925
0.775942
0.77596
0.775977
0.775995
0.775995
0.776012
0.77603
0.776047
0.776065
0.776065
0.776082
0.7761
0.776117
0.776135
0.776135
0.776153
0.77617
0.776188
0.776205
0.776205
0.776223
0.77624
0.776258
0.776276
0.776276
0.776293
0.776311
0.776329
0.776346
0.776346
0.776364
0.776382
0.776399
0.776417
0.776417
0.776435
0.776453
0.77647
0.776488
0.776488
0.776506
0.776524
0.776541
0.776559
0.776559
0.776577
0.776595
0.776612
0.77663
0.77663
0.776648
0.776666
0.776684
0.776701
0.776701
0.776719
0.776737
0.776755
0.776773
0.776773
0.776791
0.776808
0.776826
0.776844
0.776844
0.776862
0.77688
0.776898
0.776916
0.776916
0.776933
0.776951
0.776969
0.776987
0.776987
0.777005
0.777023
0.777041
0.777059
0.777059
0.777077
0.777095
0.777112
0.77713
0.77713
0.777148
0.777166
0.777184
0.777202
0.777202
0.77722
0.777238
0.777256
0.777274
0.777274
0.777292