<?xml version="1.0"?>
<VTKFile type="UnstructuredGrid" version="0.1" byte_order="LittleEndian">
<UnstructuredGrid>
<Piece NumberOfPoints="5000" NumberOfCells="4000">
<PointData Scalars="Reaction 0">
<DataArray type="Float32" Name="Reaction 0" format="ascii">
0.930413
0.930413
0.930413
0.930413
0.930413
0.930413
0.930413
0.930413
0.930413
0.930413
0.930413
0.930413
0.930413
0.930413
0.930413
0.930413
0.930413
0.930413
0.930413
0.930413
0.930413
0.930413
0.930413
0.930413
0.930413
0.930413
0.930413
0.930413
0.930413
0.930413
0.930413
0.930413
0.930413
0.930413
0.930413
0.930413
0.930413
0.930413
0.930414
0.930414
0.930414
0.930414
0.930414
0.930414
0.930414
0.930414
0.930414
0.930414
0.930414
0.930414
0.930414
0.930414
0.930414
0.930414
0.930414
0.930414
0.930414
0.930414
0.930414
0.930415
0.930415
0.930415
0.930415
0.930415
0.930415
0.930415
0.930415
0.930415
0.930415
0.930415
0.930415
0.930415
0.930415
0.930415
0.930415
0.930415
0.930416
0.930416
0.930416
0.930416
0.930416
0.930416
0.930416
0.930416
0.930416
0.930416
0.930416
0.930416
0.930417
0.930417
0.930417
0.930417
0.930417
0.930417
0.930417
0.930417
0.930417
0.930417
0.930417
0.930418
0.930418
0.930418
0.930418
0.930418
0.930418
0.930418
0.930418
0.930418
0.930418
0.930419
0.930419
0.930419
0.930419
0.930419
0.930419
0.930419
0.930419
0.930419
0.93042
0.93042
0.93042
0.93042
0.93042
0.93042
0.93042
0.93042
0.93042
0.930421
0.930421
0.930421
0.930421
0.930421
0.930421
0.930421
0.930421
0.930421
0.930422
0.930422
0.930422
0.930422
0.930422
0.930422
0.930422
0.930423
0.930423
0.930423
0.930423
0.930423
0.930423
0.930424
0.930424
0.930424
0.930424
0.930424
0.930424
0.930424
0.930424
0.930425
0.930425
0.930425
0.930425
0.930425
0.930425
0.930426
0.930426
0.930426
0.930426
0.930426
0.930426
0.930427
0.930427
0.930427
0.930427
0.930427
0.930427
0.930427
0.930428
0.930428
0.930428
0.930428
0.930428
0.930428
0.930429
0.930429
0.930429
0.930429
0.930429
0.93043
0.93043
0.93043
0.93043
0.93043
0.93043
0.930431
0.930431
0.930431
0.930431
0.930431
0.930432
0.930432
0.930432
0.930432
0.930432
0.930433
0.930433
0.930433
0.930433
0.930433
0.930434
0.930434
0.930434
0.930434
0.930434
0.930435
0.930435
0.930435
0.930435
0.930435
0.930436
0.930436
0.930436
0.930436
0.930436
0.930437
0.930437
0.930437
0.930437
0.930437
0.930438
0.930438
0.930438
0.930438
0.930439
0.930439
0.930439
0.930439
0.930439
0.93044
0.93044
0.93044
0.93044
0.930441
0.930441
0.930441
0.930441
0.930441
0.930442
0.930442
0.930442
0.930443
0.930443
0.930443
0.930443
0.930443
0.930444
0.930444
0.930444
0.930444
0.930445
0.930445
0.930445
0.930445
0.930446
0.930446
0.930446
0.930446
0.930447
0.930447
0.930447
0.930448
0.930448
0.930448
0.930448
0.930449
0.930449
0.930449
0.930449
0.930449
0.93045
0.93045
0.93045
0.93045
0.930451
0.930451
0.930451
0.930451
0.930452
0.930452
0.930453
0.930453
0.930453
0.930453
0.930454
0.930454
0.930454
0.930454
0.930455
0.930455
0.930455
0.930456
0.930456
0.930456
0.930456
0.930457
0.930457
0.930457
0.930457
0.930458
0.930458
0.930459
0.930459
0.930459
0.930459
0.93046
0.93046
0.93046
0.93046
0.930461
0.930461
0.930462
0.930462
0.930462
0.930462
0.930463
0.930463
0.930463
0.930464
0.930464
0.930464
0.930465
0.930465
0.930465
0.930465
0.930466
0.930466
0.930466
0.930467
0.930467
0.930467
0.930468
0.930468
0.930468
0.930469
0.930469
0.93047
0.93047
0.93047
0.93047
0.930471
0.930471
0.930471
0.930472
0.930472
0.930472
0.930473
0.930473
0.930473
0.930474
0.930474
0.930475
0.930475
0.930475
0.930475
0.930476
0.930476
0.930476
0.930477
0.930477
0.930478
0.930478
0.930478
0.930478
0.930479
0.930479
0.93048
0.93048
0.93048
0.930481
0.930481
0.930482
0.930482
0.930482
0.930482
0.930483
0.930483
0.930483
0.930484
0.930484
0.930485
0.930485
0.930485
0.930486
0.930486
0.930487
0.930487
0.930487
0.930488
0.930488
0.930489
0.930489
0.930489
0.930489
0.93049
0.93049
0.930491
0.930491
0.930491
0.930492
0.930492
0.930493
0.930493
0.930493
0.930494
0.930494
0.930495
0.930495
0.930495
0.930496
0.930496
0.930497
0.930497
0.930497
0.930498
0.930498
0.930499
0.930499
0.930499
0.9305
0.9305
0.930501
0.930501
0.930501
0.930502
0.930502
0.930503
0.930503
0.930503
0.930504
0.930504
0.930505
0.930505
0.930505
0.930506
0.930507
0.930507
0.930507
0.930508
0.930508
0.930509
0.930509
0.930509
0.93051
0.93051
0.930511
0.930511
0.930511
0.930512
0.930512
0.930513
0.930513
0.930513
0.930514
0.930515
0.930515
0.930516
0.930516
0.930516
0.930517
0.930517
0.930518
0.930518
0.930518
0.930519
0.930519
0.93052
0.93052
0.930521
0.930521
0.930522
0.930522
0.930522
0.930523
0.930523
0.930524
0.930525
0.930525
0.930525
0.930526
0.930526
0.930527
0.930527
0.930527
0.930528
0.930529
0.930529
0.930529
0.93053
0.93053
0.930531
0.930532
0.930532
0.930532
0.930533
0.930533
0.930534
0.930534
0.930535
0.930535
0.930536
0.930536
0.930536
0.930537
0.930538
0.930538
0.930539
0.930539
0.93054
0.93054
0.930541
0.930541
0.930541
0.930542
0.930543
0.930543
0.930544
0.930544
0.930545
0.930545
0.930546
0.930546
0.930546
0.930547
0.930548
0.930548
0.930549
0.930549
0.93055
0.93055
0.930551
0.930552
0.930552
0.930552
0.930553
0.930554
0.930554
0.930554
0.930555
0.930556
0.930556
0.930557
0.930557
0.930558
0.930558
0.930559
0.930559
0.930559
0.93056
0.930561
0.930561
0.930562
0.930562
0.930563
0.930564
0.930564
0.930565
0.930565
0.930566
0.930566
0.930567
0.930568
0.930568
0.930568
0.930569
0.93057
0.93057
0.93057
0.930571
0.930572
0.930572
0.930573
0.930573
0.930574
0.930574
0.930575
0.930576
0.930576
0.930577
0.930577
0.930578
0.930579
0.930579
0.930579
0.93058
0.930581
0.930581
0.930581
0.930582
0.930583
0.930584
0.930584
0.930584
0.930585
0.930586
0.930586
0.930587
0.930587
0.930588
0.930589
0.930589
0.93059
0.93059
0.930591
0.930592
0.930592
0.930593
0.930593
0.930594
0.930594
0.930595
0.930596
0.930596
0.930597
0.930597
0.930598
0.930599
0.930599
0.9306
0.9306
0.930601
0.930602
0.930602
0.930603
0.930603
0.930604
0.930605
0.930605
0.930606
0.930606
0.930607
0.930608
0.930608
0.930609
0.93061
0.93061
0.930611
0.930611
0.930612
0.930613
0.930613
0.930614
0.930614
0.930615
0.930616
0.930616
0.930617
0.930617
0.930618
0.930619
0.93062
0.93062
0.93062
0.930621
0.930622
0.930623
0.930624
0.930624
0.930624
0.930625
0.930626
0.930627
0.930627
0.930628
0.930628
0.930629
0.93063
0.93063
0.930631
0.930632
0.930632
0.930633
0.930633
0.930634
0.930635
0.930636
0.930636
0.930636
0.930637
0.930638
0.930639
0.93064
0.93064
0.930641
0.930641
0.930642
0.930643
0.930643
0.930644
0.930645
0.930646
0.930646
0.930646
0.930647
0.930648
0.930649
0.93065
0.93065
0.930651
0.930651
0.930652
0.930653
0.930653
0.930654
0.930655
0.930656
0.930656
0.930656
0.930657
0.930658
0.930659
0.93066
0.93066
0.930661
0.930662
0.930663
0.930663
0.930663
0.930664
0.930665
0.930666
0.930667
0.930667
0.930668
0.930669
0.930669
0.93067
0.93067
0.930671
0.930672
0.930673
0.930674
0.930674
0.930675
0.930676
0.930677
0.930677
0.930677
0.930678
0.930679
0.93068
0.930681
0.930681
0.930682
0.930683
0.930684
0.930685
0.930685
0.930685
0.930686
0.930687
0.930688
0.930688
0.930689
0.93069
0.930691
0.930692
0.930692
0.930693
0.930694
0.930694
0.930695
0.930695
0.930696
0.930697
0.930698
0.930699
0.930699
0.9307
0.930701
0.930702
0.930703
0.930703
0.930704
0.930705
0.930706
0.930706
0.930706
0.930707
0.930708
0.930709
0.93071
0.93071
0.930711
0.930712
0.930713
0.930714
0.930714
0.930715
0.930716
0.930717
0.930718
0.930718
0.930719
0.93072
0.93072
0.930721
0.930721
0.930722
0.930723
0.930724
0.930725
0.930725
0.930726
0.930727
0.930728
0.930729
0.930729
0.93073
0.930731
0.930732
0.930733
0.930733
0.930734
0.930735
0.930736
0.930737
0.930737
0.930738
0.930739
0.93074
0.930741
0.930741
0.930742
0.930743
0.930744
0.930745
0.930745
0.930746
0.930747
0.930748
0.930749
0.930749
0.93075
0.930751
0.930752
0.930753
0.930753
0.930754
0.930755
0.930756
0.930757
0.930757
0.930758
0.930759
0.93076
0.930761
0.930761
0.930762
0.930763
0.930764
0.930765
0.930765
0.930766
0.930767
0.930768
0.93077
0.93077
0.930771
0.930772
0.930773
0.930774
0.930774
0.930775
0.930776
0.930777
0.930778
0.930778
0.930779
0.93078
0.930781
0.930782
0.930782
0.930783
0.930784
0.930785
0.930786
0.930786
0.930787
0.930788
0.93079
0.930791
0.930791
0.930792
0.930793
0.930794
0.930795
0.930795
0.930796
0.930797
0.930798
0.930799
0.930799
0.9308
0.930801
0.930802
0.930804
0.930804
0.930805
0.930806
0.930807
0.930808
0.930808
0.930809
0.93081
0.930811
0.930812
0.930812
0.930813
0.930814
0.930816
0.930817
0.930817
0.930818
0.930819
0.93082
0.930821
0.930821
0.930822
0.930823
0.930824
0.930826
0.930826
0.930827
0.930828
0.930829
0.93083
0.93083
0.930831
0.930832
0.930833
0.930834
0.930834
0.930836
0.930837
0.930838
0.930839
0.930839
0.93084
0.930841
0.930842
0.930843
0.930843
0.930845
0.930846
0.930847
0.930848
0.930848
0.930849
0.93085
0.930851
0.930853
0.930853
0.930854
0.930855
0.930856
0.930857
0.930857
0.930858
0.93086
0.930861
0.930862
0.930862
0.930863
0.930864
0.930865
0.930867
0.930867
0.930868
0.930869
0.93087
0.930871
0.930871
0.930872
0.930874
0.930875
0.930876
0.930876
0.930877
0.930878
0.930879
0.930881
0.930881
0.930882
0.930883
0.930884
0.930885
0.930885
0.930887
0.930888
0.930889
0.93089
0.93089
0.930891
0.930892
0.930894
0.930895
0.930895
0.930896
0.930897
0.930898
0.9309
0.9309
0.930901
0.930902
0.930903
0.930904
0.930904
0.930906
0.930907
0.930908
0.930909
0.930909
0.93091
0.930912
0.930913
0.930914
0.930914
0.930915
0.930917
0.930918
0.930919
0.930919
0.93092
0.930921
0.930923
0.930924
0.930924
0.930925
0.930926
0.930928
0.930929
0.930929
0.93093
0.930931
0.930932
0.930934
0.930934
0.930935
0.930936
0.930937
0.930939
0.930939
0.93094
0.930941
0.930942
0.930944
0.930944
0.930945
0.930946
0.930947
0.930949
0.930949
0.93095
0.930951
0.930953
0.930954
0.930954
0.930955
0.930956
0.930958
0.930959
0.930959
0.93096
0.930962
0.930963
0.930964
0.930964
0.930965
0.930967
0.930968
0.930969
0.930969
0.930971
0.930972
0.930973
0.930975
0.930975
0.930976
0.930977
0.930979
0.93098
0.93098
0.930981
0.930983
0.930984
0.930985
0.930985
0.930987
0.930988
0.930989
0.930991
0.930991
0.930992
0.930993
0.930995
0.930996
0.930996
0.930997
0.930999
0.931
0.931001
0.931001
0.931003
0.931004
0.931005
0.931007
0.931007
0.931008
0.931009
0.931011
0.931012
0.931012
0.931013
0.931015
0.931016
0.931017
0.931017
0.931019
0.93102
0.931021
0.931023
0.931023
0.931024
0.931026
0.931027
0.931028
0.931028
0.93103
0.931031
0.931032
0.931034
0.931034
0.931035
0.931036
0.931038
0.931039
0.931039
0.931041
0.931042
0.931043
0.931045
0.931045
0.931046
0.931047
0.931049
0.93105
0.93105
0.931052
0.931053
0.931054
0.931056
0.931056
0.931057
0.931059
0.93106
0.931061
0.931061
0.931063
0.931064
0.931066
0.931067
0.931067
0.931068
0.93107
0.931071
0.931073
0.931073
0.931074
0.931075
0.931077
0.931078
0.931078
0.93108
0.931081
0.931082
0.931084
0.931084
0.931085
0.931087
0.931088
0.93109
0.93109
0.931091
0.931092
0.931094
0.931095
0.931095
0.931097
0.931098
0.9311
0.931101
0.931101
0.931102
0.931104
0.931105
0.931107
0.931107
0.931108
0.93111
0.931111
0.931112
0.931112
0.931114
0.931115
0.931117
0.931118
0.931118
0.93112
0.931121
0.931123
0.931124
0.931124
0.931125
0.931127
0.931128
0.93113
0.93113
0.931131
0.931133
0.931134
0.931136
0.931136
0.931137
0.931139
0.93114
0.931141
0.931141
0.931143
0.931144
0.931146
0.931147
0.931147
0.931149
0.93115
0.931152
0.931153
0.931153
0.931155
0.931156
0.931158
0.931159
0.931159
0.931161
0.931162
0.931164
0.931165
0.931165
0.931167
0.931168
0.93117
0.931171
0.931171
0.931173
0.931174
0.931176
0.931177
0.931177
0.931179
0.93118
0.931182
0.931184
0.931184
0.931185
0.931187
0.931188
0.93119
0.93119
0.931191
0.931193
0.931194
0.931196
0.931196
0.931198
0.931199
0.931201
0.931202
0.931202
0.931204
0.931205
0.931207
0.931208
0.931208
0.93121
0.931212
0.931213
0.931215
0.931215
0.931216
0.931218
0.931219
0.931221
0.931221
0.931223
0.931224
0.931226
0.931227
0.931227
0.931229
0.93123
0.931232
0.931234
0.931234
0.931235
0.931237
0.931238
0.93124
0.93124
0.931242
0.931243
0.931245
0.931246
0.931246
0.931248
0.93125
0.931251
0.931253
0.931253
0.931254
0.931256
0.931257
0.931259
0.931259
0.931261
0.931262
0.931264
0.931266
0.931266
0.931267
0.931269
0.93127
0.931272
0.931272
0.931274
0.931275
0.931277
0.931278
0.931278
0.93128
0.931282
0.931283
0.931285
0.931285
0.931286
0.931288
0.93129
0.931291
0.931291
0.931293
0.931295
0.931296
0.931298
0.931298
0.9313
0.931301
0.931303
0.931304
0.931304
0.931306
0.931308
0.931309
0.931311
0.931311
0.931313
0.931314
0.931316
0.931318
0.931318
0.931319
0.931321
0.931322
0.931324
0.931324
0.931326
0.931327
0.931329
0.931331
0.931331
0.931332
0.931334
0.931336
0.931337
0.931337
0.931339
0.931341
0.931342
0.931344
0.931344
0.931346
0.931347
0.931349
0.931351
0.931351
0.931352
0.931354
0.931356
0.931357
0.931357
0.931359
0.931361
0.931362
0.931364
0.931364
0.931366
0.931367
0.931369
0.931371
0.931371
0.931372
0.931374
0.931376
0.931377
0.931377
0.931379
0.931381
0.931383
0.931384
0.931384
0.931386
0.931388
0.931389
0.931391
0.931391
0.931393
0.931395
0.931396
0.931398
0.931398
0.9314
0.931402
0.931403
0.931405
0.931405
0.931407
0.931409
0.93141
0.931412
0.931412
0.931414
0.931416
0.931418
0.931419
0.931419
0.931421
0.931423
0.931425
0.931426
0.931426
0.931428
0.93143
0.931432
0.931433
0.931433
0.931435
0.931437
0.931439
0.931441
0.931441
0.931442
0.931444
0.931446
0.931448
0.931448
0.931449
0.931451
0.931453
0.931455
0.931455
0.931457
0.931458
0.93146
0.931462
0.931462
0.931464
0.931466
0.931467
0.931469
0.931469
0.931471
0.931473
0.931475
0.931476
0.931476
0.931478
0.93148
0.931482
0.931484
0.931484
0.931485
0.931487
0.931489
0.931491
0.931491
0.931493
0.931494
0.931496
0.931498
0.931498
0.9315
0.931502
0.931504
0.931505
0.931505
0.931507
0.931509
0.931511
0.931513
0.931513
0.931514
0.931516
0.931518
0.93152
0.93152
0.931522
0.931524
0.931525
0.931527
0.931527
0.931529
0.931531
0.931533
0.931535
0.931535
0.931536
0.931538
0.93154
0.931542
0.931542
0.931544
0.931546
0.931547
0.931549
0.931549
0.931551
0.931553
0.931555
0.931557
0.931557
0.931559
0.93156
0.931562
0.931564
0.931564
0.931566
0.931568
0.93157
0.931571
0.931571
0.931573
0.931575
0.931577
0.931579
0.931579
0.931581
0.931583
0.931584
0.931586
0.931586
0.931588
0.93159
0.931592
0.931594
0.931594
0.931596
0.931598
0.931599
0.931601
0.931601
0.931603
0.931605
0.931607
0.931609
0.931609
0.931611
0.931613
0.931615
0.931617
0.931617
0.931619
0.931621
0.931622
0.931624
0.931624
0.931626
0.931628
0.93163
0.931632
0.931632
0.931634
0.931636
0.931638
0.93164
0.93164
0.931642
0.931644
0.931646
0.931648
0.931648
0.93165
0.931652
0.931654
0.931656
0.931656
0.931658
0.93166
0.931662
0.931664
0.931664
0.931666
0.931668
0.931669
0.931671
0.931671
0.931673
0.931675
0.931677
0.931679
0.931679
0.931681
0.931683
0.931685
0.931687
0.931687
0.931689
0.931691
0.931693
0.931695
0.931695
0.931697
0.931699
0.931701
0.931703
0.931703
0.931705
0.931707
0.931709
0.931711
0.931711
0.931713
0.931715
0.931717
0.931719
0.931719
0.931721
0.931723
0.931725
0.931727
0.931727
0.931729
0.931731
0.931733
0.931735
0.931735
0.931737
0.931739
0.931741
0.931743
0.931743
0.931745
0.931747
0.931749
0.931751
0.931751
0.931753
0.931755
0.931757
0.931759
0.931759
0.931761
0.931763
0.931765
0.931767
0.931767
0.931769
0.931771
0.931773
0.931775
0.931775
0.931777
0.931779
0.931781
0.931783
0.931783
0.931785
0.931787
0.93179
0.931792
0.931792
0.931794
0.931796
0.931798
0.9318
0.9318
0.931802
0.931804
0.931806
0.931808
0.931808
0.93181
0.931812
0.931814
0.931816
0.931816
0.931818
0.93182
0.931822
0.931824
0.931824
0.931826
0.931828
0.93183
0.931833
0.931833
0.931835
0.931837
0.931839
0.931841
0.931841
0.931843
0.931845
0.931847
0.931849
0.931849
0.931851
0.931854
0.931856
0.931858
0.931858
0.93186
0.931862
0.931864
0.931866
0.931866
0.931868
0.931871
0.931873
0.931875
0.931875
0.931877
0.931879
0.931881
0.931883
0.931883
0.931886
0.931888
0.93189
0.931892
0.931892
0.931894
0.931896
0.931898
0.931901
0.931901
0.931903
0.931905
0.931907
0.931909
0.931909
0.931911
0.931913
0.931916
0.931918
0.931918
0.93192
0.931922
0.931924
0.931926
0.931926
0.931929
0.931931
0.931933
0.931935
0.931935
0.931937
0.931939
0.931942
0.931944
0.931944
0.931946
0.931948
0.93195
0.931952
0.931952
0.931955
0.931957
0.931959
0.931961
0.931961
0.931963
0.931965
0.931968
0.93197
0.93197
0.931972
0.931974
0.931976
0.931979
0.931979
0.931981
0.931983
0.931985
0.931987
0.931987
0.931989
0.931992
0.931994
0.931996
0.931996
0.931998
0.932
0.932003
0.932005
0.932005
0.932007
0.932009
0.932011
0.932014
0.932014
0.932016
0.932018
0.93202
0.932022
0.932022
0.932024
0.932027
0.932029
0.932031
0.932031
0.932033
0.932036
0.932038
0.93204
0.93204
0.932042
0.932044
0.932047
0.932049
0.932049
0.932051
0.932053
0.932055
0.932058
0.932058
0.93206
0.932062
0.932064
0.932067
0.932067
0.932069
0.932071
0.932074
0.932076
0.932076
0.932078
0.93208
0.932083
0.932085
0.932085
0.932087
0.93209
0.932092
0.932094
0.932094
0.932096
0.932099
0.932101
0.932103
0.932103
0.932106
0.932108
0.93211
0.932113
0.932113
0.932115
0.932117
0.932119
0.932122
0.932122
0.932124
0.932126
0.932129
0.932131
0.932131
0.932133
0.932136
0.932138
0.93214
0.93214
0.932143
0.932145
0.932147
0.93215
0.93215
0.932152
0.932154
0.932157
0.932159
0.932159
0.932161
0.932164
0.932166
0.932168
0.932168
0.93217
0.932173
0.932175
0.932177
0.932177
0.93218
0.932182
0.932184
0.932187
0.932187
0.932189
0.932191
0.932194
0.932196
0.932196
0.932198
0.932201
0.932203
0.932206
0.932206
0.932208
0.93221
0.932213
0.932215
0.932215
0.932217
0.93222
0.932222
0.932224
0.932224
0.932227
0.932229
0.932231
0.932234
0.932234
0.932236
0.932238
0.932241
0.932243
0.932243
0.932245
0.932248
0.93225
0.932252
0.932252
0.932255
0.932257
0.93226
0.932262
0.932262
0.932264
0.932267
0.932269
0.932271
0.932271
0.932274
0.932276
0.932278
0.932281
0.932281
0.932283
0.932286
0.932288
0.93229
0.93229
0.932293
0.932295
0.932298
0.9323
0.9323
0.932302
0.932305
0.932307
0.93231
0.93231
0.932312
0.932315
0.932317
0.93232
0.93232
0.932322
0.932324
0.932327
0.932329
0.932329
0.932332
0.932334
0.932337
0.932339
0.932339
0.932342
0.932344
0.932347
0.932349
0.932349
0.932352
0.932354
0.932357
0.932359
0.932359
0.932361
0.932364
0.932366
0.932369
0.932369
0.932371
0.932374
0.932376
0.932379
0.932379
0.932381
0.932384
0.932386
0.932389
0.932389
0.932391
0.932394
0.932396
0.932399
0.932399
0.932401
0.932404
0.932406
0.932409
0.932409
0.932411
0.932414
0.932416
0.932418
0.932418
0.932421
0.932423
0.932426
0.932428
0.932428
0.932431
0.932433
0.932436
0.932438
0.932438
0.932441
0.932443
0.932446
0.932448
0.932448
0.932451
0.932453
0.932456
0.932458
0.932458
0.932461
0.932463
0.932466
0.932468
0.932468
0.932471
0.932473
0.932476
0.932478
0.932478
0.932481
0.932483
0.932486
0.932488
0.932488
0.932491
0.932493
0.932496
0.932498
0.932498
0.932501
0.932503
0.932506
0.932509
0.932509
0.932511
0.932514
0.932516
0.932519
0.932519
0.932521
0.932524
0.932526
0.932529
0.932529
0.932531
0.932534
0.932537
0.932539
0.932539
0.932542
0.932544
0.932547
0.93255
0.93255
0.932552
0.932555
0.932557
0.93256
0.93256
0.932563
0.932565
0.932568
0.93257
0.93257
0.932573
0.932576
0.932578
0.932581
0.932581
0.932583
0.932586
0.932589
0.932591
0.932591
0.932594
0.932597
0.932599
0.932602
0.932602
0.932604
0.932607
0.93261
0.932612
0.932612
0.932615
0.932618
0.93262
0.932623
0.932623
0.932625
0.932628
0.932631
0.932633
0.932633
0.932636
0.932639
0.932641
0.932644
0.932644
0.932647
0.932649
0.932652
0.932654
0.932654
0.932657
0.93266
0.932662
0.932665
0.932665
0.932668
0.93267
0.932673
0.932676
0.932676
0.932678
0.932681
0.932683
0.932686
0.932686
0.932689
0.932691
0.932694
0.932697
0.932697
0.932699
0.932702
0.932705
0.932707
0.932707
0.93271
0.932713
0.932715
0.932718
0.932718
0.93272
0.932723
0.932726
0.932728
0.932728
0.932731
0.932734
0.932736
0.932739
0.932739
0.932742
0.932744
0.932747
0.93275
0.93275
0.932752
0.932755
0.932758
0.932761
0.932761
0.932763
0.932766
0.932769
0.932771
0.932771
0.932774
0.932777
0.93278
0.932782
0.932782
0.932785
0.932788
0.932791
0.932793
0.932793
0.932796
0.932799
0.932802
0.932804
0.932804
0.932807
0.93281
0.932813
0.932815
0.932815
0.932818
0.932821
0.932824
0.932826
0.932826
0.932829
0.932832
0.932835
0.932837
0.932837
0.93284
0.932843
0.932846
0.932849
0.932849
0.932851
0.932854
0.932857
0.93286
0.93286
0.932862
0.932865
0.932868
0.932871
0.932871
0.932874
0.932876
0.932879
0.932882
0.932882
0.932885
0.932887
0.93289
0.932893
0.932893
0.932896
0.932898
0.932901
0.932904
0.932904
0.932907
0.93291
0.932912
0.932915
0.932915
0.932918
0.932921
0.932924
0.932926
0.932926
0.932929
0.932932
0.932935
0.932937
0.932937
0.93294
0.932943
0.932946
0.932949
0.932949
0.932951
0.932954
0.932957
0.93296
0.93296
0.932963
0.932965
0.932968
0.932971
0.932971
0.932974
0.932977
0.932979
0.932982
0.932982
0.932985
0.932988
0.932991
0.932994
0.932994
0.932996
0.932999
0.933002
0.933005
0.933005
0.933008
0.933011
0.933013
0.933016
0.933016
0.933019
0.933022
0.933025
0.933028
0.933028
0.933031
0.933034
0.933037
0.933039
0.933039
0.933042
0.933045
0.933048
0.933051
0.933051
0.933054
0.933057
0.93306
0.933063
0.933063
0.933066
0.933068
0.933071
0.933074
0.933074
0.933077
0.93308
0.933083
0.933086
0.933086
0.933089
0.933092
0.933095
0.933098
0.933098
0.9331
0.933103
0.933106
0.933109
0.933109
0.933112
0.933115
0.933118
0.933121
0.933121
0.933124
0.933127
0.93313
0.933132
0.933132
0.933135
0.933138
0.933141
0.933144
0.933144
0.933147
0.93315
0.933153
0.933156
0.933156
0.933159
0.933162
0.933165
0.933167
0.933167
0.93317
0.933173
0.933176
0.933179
0.933179
0.933182
0.933185
0.933188
0.933191
0.933191
0.933194
0.933197
0.9332
0.933203
0.933203
0.933206
0.933208
0.933211
0.933214
0.933214
0.933217
0.93322
0.933223
0.933226
0.933226
0.933229
0.933232
0.933235
0.933238
0.933238
0.933241
0.933244
0.933247
0.93325
0.93325
0.933253
0.933256
0.933259
0.933262
0.933262
0.933265
0.933268
0.933271
0.933274
0.933274
0.933277
0.93328
0.933283
0.933286
0.933286
0.933289
0.933292
0.933295
0.933298
0.933298
0.933301
0.933304
0.933308
0.933311
0.933311
0.933314
0.933317
0.93332
0.933323
0.933323
0.933326
0.933329
0.933332
0.933335
0.933335
0.933338
0.933341
0.933344
0.933347
0.933347
0.93335
0.933353
0.933356
0.933359
0.933359
0.933362
0.933365
0.933368
0.933371
0.933371
0.933375
0.933378
0.933381
0.933384
0.933384
0.933387
0.93339
0.933393
0.933396
0.933396
0.933399
0.933402
0.933405
0.933408
0.933408
0.933411
0.933414
0.933417
0.93342
0.93342
0.933423
0.933426
0.933429
0.933433
0.933433
0.933436
0.933439
0.933442
0.933445
0.933445
0.933448
0.933451
0.933454
0.933457
0.933457
0.93346
0.933463
0.933466
0.933469
0.933469
0.933473
0.933476
0.933479
0.933482
0.933482
0.933485
0.933488
0.933491
0.933494
0.933494
0.933498
0.933501
0.933504
0.933507
0.933507
0.93351
0.933513
0.933516
0.93352
0.93352
0.933523
0.933526
0.933529
0.933532
0.933532
0.933535
0.933539
0.933542
0.933545
0.933545
0.933548
0.933551
0.933554
0.933558
0.933558
0.933561
0.933564
0.933567
0.93357
0.93357
0.933574
0.933577
0.93358
0.933583
0.933583
0.933586
0.933589
0.933593
0.933596
0.933596
0.933599
0.933602
0.933605
0.933608
0.933608
0.933612
0.933615
0.933618
0.933621
0.933621
0.933624
0.933628
0.933631
0.933634
0.933634
0.933637
0.93364
0.933643
0.933647
0.933647
0.93365
0.933653
0.933656
0.933659
0.933659
0.933663
0.933666
0.933669
0.933672
0.933672
0.933675
0.933678
0.933682
0.933685
0.933685
0.933688
0.933691
0.933694
0.933698
0.933698
0.933701
0.933704
0.933707
0.933711
0.933711
0.933714
0.933717
0.93372
0.933724
0.933724
0.933727
0.93373
0.933733
0.933737
0.933737
0.93374
0.933743
0.933746
0.93375
0.93375
0.933753
0.933756
0.933759
0.933763
0.933763
0.933766
0.933769
0.933773
0.933776
0.933776
0.933779
0.933783
0.933786
0.933789
0.933789
0.933792
0.933796
0.933799
0.933802
0.933802
0.933806
0.933809
0.933812
0.933816
0.933816
0.933819
0.933822
0.933825
0.933829
0.933829
0.933832
0.933835
0.933839
0.933842
0.933842
0.933845
0.933849
0.933852
0.933855
0.933855
0.933858
0.933862
0.933865
0.933868
0.933868
0.933872
0.933875
0.933878
0.933882
0.933882
0.933885
0.933888
0.933892
0.933895
0.933895
0.933898
0.933901
0.933905
0.933908
0.933908
0.933911
0.933915
0.933918
0.933921
0.933921
0.933925
0.933928
0.933931
0.933935
0.933935
0.933938
0.933941
0.933945
0.933948
0.933948
0.933951
0.933955
0.933958
0.933961
0.933961
0.933965
0.933968
0.933972
0.933975
0.933975
0.933978
0.933982
0.933985
0.933989
0.933989
0.933992
0.933995
0.933999
0.934002
0.934002
0.934006
0.934009
0.934012
0.934016
0.934016
0.934019
0.934023
0.934026
0.934029
0.934029
0.934033
0.934036
0.93404
0.934043
0.934043
0.934047
0.93405
0.934053
0.934057
0.934057
0.93406
0.934064
0.934067
0.934071
0.934071
0.934074
0.934077
0.934081
0.934084
0.934084
0.934088
0.934091
0.934095
0.934098
0.934098
0.934101
0.934105
0.934108
0.934112
0.934112
0.934115
0.934119
0.934122
0.934125
0.934125
0.934129
0.934132
0.934136
0.934139
0.934139
0.934143
0.934146
0.934149
0.934153
0.934153
0.934156
0.93416
0.934163
0.934167
0.934167
0.93417
0.934174
0.934177
0.93418
0.93418
0.934184
0.934187
0.934191
0.934194
0.934194
0.934198
0.934201
0.934205
0.934208
0.934208
0.934212
0.934215
0.934219
0.934222
0.934222
0.934226
0.934229
0.934233
0.934236
0.934236
0.93424
0.934243
0.934247
0.93425
0.93425
0.934254
0.934258
0.934261
0.934265
0.934265
0.934268
0.934272
0.934275
0.934279
0.934279
0.934282
0.934286
0.934289
0.934293
0.934293
0.934297
0.9343
0.934304
0.934307
0.934307
0.934311
0.934314
0.934318
0.934321
0.934321
0.934325
0.934328
0.934332
0.934336
0.934336
0.934339
0.934343
0.934346
0.93435
0.93435
0.934353
0.934357
0.93436
0.934364
0.934364
0.934368
0.934371
0.934375
0.934378
0.934378
0.934382
0.934385
0.934389
0.934392
0.934392
0.934396
0.9344
0.934403
0.934407
0.934407
0.93441
0.934414
0.934417
0.934421
0.934421
0.934424
0.934428
0.934432
0.934435
0.934435
0.934439
0.934442
0.934446
0.93445
0.93445
0.934453
0.934457
0.93446
0.934464
0.934464
0.934468
0.934471
0.934475
0.934479
0.934479
0.934482
0.934486
0.93449
0.934493
0.934493
0.934497
0.934501
0.934504
0.934508
0.934508
0.934512
0.934515
0.934519
0.934523
0.934523
0.934526
0.93453
0.934533
0.934537
0.934537
0.934541
0.934544
0.934548
0.934552
0.934552
0.934555
0.934559
0.934563
0.934566
0.934566
0.93457
0.934574
0.934577
0.934581
0.934581
0.934585
0.934589
0.934592
0.934596
0.934596
0.9346
0.934603
0.934607
0.934611
0.934611
0.934614
0.934618
0.934622
0.934625
0.934625
0.934629
0.934633
0.934636
0.93464
0.93464
0.934644
0.934647
0.934651
0.934655
0.934655
0.934658
0.934662
0.934666
0.934669
0.934669
0.934673
0.934677
0.93468
0.934684
0.934684
0.934688
0.934692
0.934695
0.934699
0.934699
0.934703
0.934707
0.93471
0.934714
0.934714
0.934718
0.934722
0.934725
0.934729
0.934729
0.934733
0.934737
0.93474
0.934744
0.934744
0.934748
0.934752
0.934755
0.934759
0.934759
0.934763
0.934767
0.934771
0.934774
0.934774
0.934778
0.934782
0.934786
0.934789
0.934789
0.934793
0.934797
0.934801
0.934805
0.934805
0.934808
0.934812
0.934816
0.93482
0.93482
0.934824
0.934827
0.934831
0.934835
0.934835
0.934839
0.934842
0.934846
0.93485
0.93485
0.934854
0.934858
0.934861
0.934865
0.934865
0.934869
0.934873
0.934877
0.93488
0.93488
0.934884
0.934888
0.934892
0.934896
0.934896
0.934899
0.934903
0.934907
0.934911
0.934911
0.934915
0.934918
0.934922
0.934926
0.934926
0.93493
0.934934
0.934937
0.934941
0.934941
0.934945
0.934949
0.934953
0.934957
0.934957
0.934961
0.934964
0.934968
0.934972
0.934972
0.934976
0.93498
0.934984
0.934988
0.934988
0.934992
0.934995
0.934999
0.935003
0.935003
0.935007
0.935011
0.935015
0.935019
0.935019
0.935023
0.935027
0.935031
0.935034
0.935034
0.935038
0.935042
0.935046
0.93505
0.93505
0.935054
0.935058
0.935062
0.935066
0.935066
0.93507
0.935073
0.935077
0.935081
0.935081
0.935085
0.935089
0.935093
0.935097
0.935097
0.935101
0.935105
0.935109
0.935112
0.935112
0.935116
0.93512
0.935124
0.935128
0.935128
0.935132
0.935136
0.93514
0.935144
0.935144
0.935148
0.935152
0.935155
0.935159
0.935159
0.935163
0.935167
0.935171
0.935175
0.935175
0.935179
0.935183
0.935187
0.935191
0.935191
0.935195
0.935199
0.935203
0.935207
0.935207
0.935211
0.935215
0.935219
0.935223
0.935223
0.935227
0.935231
0.935235
0.935239
0.935239
0.935243
0.935247
0.935251
0.935255
0.935255
0.935259
0.935263
0.935267
0.935271
0.935271
0.935275
0.935279
0.935283
0.935287
0.935287
0.935291
0.935295
0.935299
0.935303
0.935303
0.935307
0.935311
0.935315
0.935319
0.935319
0.935323
0.935327
0.935331
0.935335
0.935335
0.935339
0.935343
0.935347
0.935351
0.935351
0.935355
0.935359
0.935363
0.935367
0.935367
0.935371
0.935375
0.935379
0.935383
0.935383
0.935387
0.935391
0.935395
0.935399
0.935399
0.935403
0.935407
0.935411
0.935415
0.935415
0.935419
0.935423
0.935427
0.935432
0.935432
0.935436
0.93544
0.935444
0.935448
0.935448
0.935452
0.935456
0.93546
0.935464
0.935464
0.935468
0.935472
0.935476
0.935481
0.935481
0.935485
0.935489
0.935493
0.935497
0.935497
0.935501
0.935505
0.935509
0.935513
0.935513
0.935518
0.935522
0.935526
0.93553
0.93553
0.935534
0.935538
0.935542
0.935546
0.935546
0.935551
0.935555
0.935559
0.935563
0.935563
0.935567
0.935571
0.935575
0.935579
0.935579
0.935584
0.935588
0.935592
0.935596
0.935596
0.9356
0.935604
0.935608
0.935612
0.935612
0.935617
0.935621
0.935625
0.935629
0.935629
0.935633
0.935637
0.935641
0.935646
0.935646
0.93565
0.935654
0.935658
0.935662
0.935662
0.935666
0.93567
0.935675
0.935679
0.935679
0.935683
0.935687
0.935691
0.935695
0.935695
0.9357
0.935704
0.935708
0.935712
0.935712
0.935716
0.935721
0.935725
0.935729
0.935729
0.935733
0.935738
0.935742
0.935746
0.935746
0.93575
0.935754
0.935759
0.935763
0.935763
0.935767
0.935771
0.935776
0.93578
0.93578
0.935784
0.935788
0.935792
0.935797
0.935797
0.935801
0.935805
0.935809
0.935814
0.935814
0.935818
0.935822
0.935826
0.935831
0.935831
0.935835
0.935839
0.935843
0.935848
0.935848
0.935852
0.935856
0.93586
0.935864
0.935864
0.935869
0.935873
0.935877
0.935881
0.935881
0.935886
0.93589
0.935894
0.935898
0.935898
0.935903
0.935907
0.935911
0.935915
0.935915