<?xml version="1.0"?>
<VTKFile type="UnstructuredGrid" version="0.1" byte_order="LittleEndian">
<UnstructuredGrid>
<Piece NumberOfPoints="5000" NumberOfCells="4000">
<PointData Scalars="Reaction 0">
<DataArray type="Float32" Name="Reaction 0" format="ascii">
0.223972
0.223972
0.223972
0.223972
0.223972
0.223972
0.223972
0.223973
0.223973
0.223973
0.223973
0.223973
0.223974
0.223974
0.223975
0.223975
0.223975
0.223975
0.223976
0.223976
0.223976
0.223977
0.223978
0.223978
0.223979
0.223979
0.22398
0.22398
0.223981
0.223982
0.223982
0.223983
0.223984
0.223985
0.223986
0.223986
0.223987
0.223988
0.223989
0.22399
0.22399
0.223991
0.223992
0.223993
0.223994
0.223994
0.223996
0.223997
0.223998
0.224
0.224
0.224001
0.224002
0.224004
0.224005
0.224005
0.224007
0.224008
0.22401
0.224012
0.224012
0.224013
0.224015
0.224017
0.224018
0.224018
0.22402
0.224022
0.224024
0.224026
0.224026
0.224028
0.22403
0.224032
0.224034
0.224034
0.224036
0.224038
0.22404
0.224042
0.224042
0.224045
0.224047
0.224049
0.224051
0.224051
0.224054
0.224056
0.224059
0.224061
0.224061
0.224064
0.224066
0.224069
0.224071
0.224071
0.224074
0.224077
0.224079
0.224082
0.224082
0.224085
0.224088
0.22409
0.224093
0.224093
0.224096
0.224099
0.224102
0.224105
0.224105
0.224108
0.224111
0.224114
0.224117
0.224117
0.224121
0.224124
0.224127
0.22413
0.22413
0.224134
0.224137
0.22414
0.224144
0.224144
0.224147
0.224151
0.224154
0.224158
0.224158
0.224161
0.224165
0.224169
0.224172
0.224172
0.224176
0.22418
0.224184
0.224187
0.224187
0.224191
0.224195
0.224199
0.224203
0.224203
0.224207
0.224211
0.224215
0.224219
0.224219
0.224223
0.224228
0.224232
0.224236
0.224236
0.22424
0.224245
0.224249
0.224253
0.224253
0.224258
0.224262
0.224267
0.224271
0.224271
0.224276
0.22428
0.224285
0.22429
0.22429
0.224294
0.224299
0.224304
0.224309
0.224309
0.224313
0.224318
0.224323
0.224328
0.224328
0.224333
0.224338
0.224343
0.224348
0.224348
0.224353
0.224358
0.224364
0.224369
0.224369
0.224374
0.224379
0.224385
0.22439
0.22439
0.224395
0.224401
0.224406
0.224412
0.224412
0.224417
0.224423
0.224428
0.224434
0.224434
0.224439
0.224445
0.224451
0.224457
0.224457
0.224462
0.224468
0.224474
0.22448
0.22448
0.224486
0.224492
0.224498
0.224504
0.224504
0.22451
0.224516
0.224522
0.224528
0.224528
0.224534
0.224541
0.224547
0.224553
0.224553
0.22456
0.224566
0.224572
0.224579
0.224579
0.224585
0.224592
0.224598
0.224605
0.224605
0.224612
0.224618
0.224625
0.224632
0.224632
0.224638
0.224645
0.224652
0.224659
0.224659
0.224666
0.224673
0.22468
0.224687
0.224687
0.224694
0.224701
0.224708
0.224715
0.224715
0.224722
0.224729
0.224736
0.224744
0.224744
0.224751
0.224758
0.224766
0.224773
0.224773
0.22478
0.224788
0.224795
0.224803
0.224803
0.224811
0.224818
0.224826
0.224833
0.224833
0.224841
0.224849
0.224857
0.224864
0.224864
0.224872
0.22488
0.224888
0.224896
0.224896
0.224904
0.224912
0.22492
0.224928
0.224928
0.224936
0.224944
0.224953
0.224961
0.224961
0.224969
0.224977
0.224986
0.224994
0.224994
0.225003
0.225011
0.225019
0.225028
0.225028
0.225036
0.225045
0.225054
0.225062
0.225062
0.225071
0.22508
0.225088
0.225097
0.225097
0.225106
0.225115
0.225124
0.225133
0.225133
0.225142
0.22515
0.22516
0.225169
0.225169
0.225178
0.225187
0.225196
0.225205
0.225205
0.225214
0.225224
0.225233
0.225242
0.225242
0.225252
0.225261
0.22527
0.22528
0.22528
0.225289
0.225299
0.225308
0.225318
0.225318
0.225328
0.225337
0.225347
0.225357
0.225357
0.225366
0.225376
0.225386
0.225396
0.225396
0.225406
0.225416
0.225426
0.225436
0.225436
0.225446
0.225456
0.225466
0.225476
0.225476
0.225486
0.225497
0.225507
0.225517
0.225517
0.225527
0.225538
0.225548
0.225559
0.225559
0.225569
0.225579
0.22559
0.225601
0.225601
0.225611
0.225622
0.225632
0.225643
0.225643
0.225654
0.225665
0.225675
0.225686
0.225686
0.225697
0.225708
0.225719
0.22573
0.22573
0.225741
0.225752
0.225763
0.225774
0.225774
0.225785
0.225796
0.225808
0.225819
0.225819
0.22583
0.225841
0.225853
0.225864
0.225864
0.225876
0.225887
0.225899
0.22591
0.22591
0.225922
0.225933
0.225945
0.225956
0.225956
0.225968
0.22598
0.225992
0.226003
0.226003
0.226015
0.226027
0.226039
0.226051
0.226051
0.226063
0.226075
0.226087
0.226099
0.226099
0.226111
0.226123
0.226135
0.226148
0.226148
0.22616
0.226172
0.226184
0.226197
0.226197
0.226209
0.226222
0.226234
0.226246
0.226246
0.226259
0.226272
0.226284
0.226297
0.226297
0.226309
0.226322
0.226335
0.226348
0.226348
0.22636
0.226373
0.226386
0.226399
0.226399
0.226412
0.226425
0.226438
0.226451
0.226451
0.226464
0.226477
0.22649
0.226503
0.226503
0.226516
0.22653
0.226543
0.226556
0.226556
0.22657
0.226583
0.226596
0.22661
0.22661
0.226623
0.226637
0.22665
0.226664
0.226664
0.226678
0.226691
0.226705
0.226719
0.226719
0.226732
0.226746
0.22676
0.226774
0.226774
0.226788
0.226802
0.226815
0.226829
0.226829
0.226844
0.226858
0.226872
0.226886
0.226886
0.2269
0.226914
0.226928
0.226943
0.226943
0.226957
0.226971
0.226986
0.227
0.227
0.227014
0.227029
0.227043
0.227058
0.227058
0.227073
0.227087
0.227102
0.227116
0.227116
0.227131
0.227146
0.227161
0.227175
0.227175
0.22719
0.227205
0.22722
0.227235
0.227235
0.22725
0.227265
0.22728
0.227295
0.227295
0.22731
0.227325
0.227341
0.227356
0.227356
0.227371
0.227386
0.227402
0.227417
0.227417
0.227432
0.227448
0.227463
0.227479
0.227479
0.227494
0.22751
0.227526
0.227541
0.227541
0.227557
0.227573
0.227588
0.227604
0.227604
0.22762
0.227636
0.227652
0.227668
0.227668
0.227683
0.227699
0.227715
0.227731
0.227731
0.227748
0.227764
0.22778
0.227796
0.227796
0.227812
0.227828
0.227845
0.227861
0.227861
0.227877
0.227894
0.22791
0.227927
0.227927
0.227943
0.22796
0.227976
0.227993
0.227993
0.228009
0.228026
0.228043
0.22806
0.22806
0.228076
0.228093
0.22811
0.228127
0.228127
0.228144
0.228161
0.228178
0.228195
0.228195
0.228212
0.228229
0.228246
0.228263
0.228263
0.22828
0.228297
0.228315
0.228332
0.228332
0.228349
0.228367
0.228384
0.228401
0.228401
0.228419
0.228436
0.228454
0.228471
0.228471
0.228489
0.228507
0.228524
0.228542
0.228542
0.22856
0.228577
0.228595
0.228613
0.228613
0.228631
0.228649
0.228667
0.228685
0.228685
0.228703
0.228721
0.228739
0.228757
0.228757
0.228775
0.228793
0.228811
0.22883
0.22883
0.228848
0.228866
0.228885
0.228903
0.228903
0.228921
0.22894
0.228958
0.228977
0.228977
0.228995
0.229014
0.229033
0.229051
0.229051
0.22907
0.229089
0.229107
0.229126
0.229126
0.229145
0.229164
0.229183
0.229202
0.229202
0.229221
0.22924
0.229259
0.229278
0.229278
0.229297
0.229316
0.229335
0.229354
0.229354
0.229373
0.229393
0.229412
0.229431
0.229431
0.229451
0.22947
0.22949
0.229509
0.229509
0.229529
0.229548
0.229568
0.229587
0.229587
0.229607
0.229627
0.229646
0.229666
0.229666
0.229686
0.229706
0.229726
0.229745
0.229745
0.229765
0.229785
0.229805
0.229825
0.229825
0.229845
0.229865
0.229886
0.229906
0.229906
0.229926
0.229946
0.229966
0.229987
0.229987
0.230007
0.230027
0.230048
0.230068
0.230068
0.230089
0.230109
0.23013
0.23015
0.23015
0.230171
0.230192
0.230212
0.230233
0.230233
0.230254
0.230274
0.230295
0.230316
0.230316
0.230337
0.230358
0.230379
0.2304
0.2304
0.230421
0.230442
0.230463
0.230484
0.230484
0.230505
0.230526
0.230548
0.230569
0.230569
0.23059
0.230611
0.230633
0.230654
0.230654
0.230676
0.230697
0.230719
0.23074
0.23074
0.230762
0.230783
0.230805
0.230827
0.230827
0.230848
0.23087
0.230892
0.230914
0.230914
0.230935
0.230957
0.230979
0.231001
0.231001
0.231023
0.231045
0.231067
0.231089
0.231089
0.231111
0.231133
0.231156
0.231178
0.231178
0.2312
0.231222
0.231245
0.231267
0.231267
0.231289
0.231312
0.231334
0.231357
0.231357
0.231379
0.231402
0.231424
0.231447
0.231447
0.23147
0.231492
0.231515
0.231538
0.231538
0.231561
0.231584
0.231606
0.231629
0.231629
0.231652
0.231675
0.231698
0.231721
0.231721
0.231744
0.231767
0.231791
0.231814
0.231814
0.231837
0.23186
0.231883
0.231907
0.231907
0.23193
0.231953
0.231977
0.232
0.232
0.232024
0.232047
0.232071
0.232094
0.232094
0.232118
0.232142
0.232165
0.232189
0.232189
0.232213
0.232237
0.23226
0.232284
0.232284
0.232308
0.232332
0.232356
0.23238
0.23238
0.232404
0.232428
0.232452
0.232476
0.232476
0.232501
0.232525
0.232549
0.232573
0.232573
0.232598
0.232622
0.232646
0.232671
0.232671
0.232695
0.23272
0.232744
0.232769
0.232769
0.232793
0.232818
0.232842
0.232867
0.232867
0.232892
0.232917
0.232941
0.232966
0.232966
0.232991
0.233016
0.233041
0.233066
0.233066
0.233091
0.233116
0.233141
0.233166
0.233166
0.233191
0.233216
0.233241
0.233267
0.233267
0.233292
0.233317
0.233342
0.233368
0.233368
0.233393
0.233419
0.233444
0.23347
0.23347
0.233495
0.233521
0.233546
0.233572
0.233572
0.233598
0.233623
0.233649
0.233675
0.233675
0.233701
0.233726
0.233752
0.233778
0.233778
0.233804
0.23383
0.233856
0.233882
0.233882
0.233908
0.233934
0.233961
0.233987
0.233987
0.234013
0.234039
0.234065
0.234092
0.234092
0.234118
0.234145
0.234171
0.234197
0.234197
0.234224
0.23425
0.234277
0.234304
0.234304
0.23433
0.234357
0.234384
0.23441
0.23441
0.234437
0.234464
0.234491
0.234518
0.234518
0.234544
0.234571
0.234598
0.234625
0.234625
0.234652
0.234679
0.234707
0.234734
0.234734
0.234761
0.234788
0.234815
0.234843
0.234843
0.23487
0.234897
0.234925
0.234952
0.234952
0.23498
0.235007
0.235034
0.235062
0.235062
0.23509
0.235117
0.235145
0.235173
0.235173
0.2352
0.235228
0.235256
0.235284
0.235284
0.235312
0.235339
0.235367
0.235395
0.235395
0.235423
0.235451
0.235479
0.235507
0.235507
0.235536
0.235564
0.235592
0.23562
0.23562
0.235648
0.235677
0.235705
0.235733
0.235733
0.235762
0.23579
0.235819
0.235847
0.235847
0.235876
0.235904
0.235933
0.235962
0.235962
0.23599
0.236019
0.236048
0.236077
0.236077
0.236105
0.236134
0.236163
0.236192
0.236192
0.236221
0.23625
0.236279
0.236308
0.236308
0.236337
0.236366
0.236395
0.236425
0.236425
0.236454
0.236483
0.236512
0.236542
0.236542
0.236571
0.2366
0.23663
0.236659
0.236659
0.236689
0.236718
0.236748
0.236778
0.236778
0.236807
0.236837
0.236867
0.236896
0.236896
0.236926
0.236956
0.236986
0.237016
0.237016
0.237045
0.237075
0.237105
0.237135
0.237135
0.237165
0.237196
0.237226
0.237256
0.237256
0.237286
0.237316
0.237346
0.237377
0.237377
0.237407
0.237437
0.237468
0.237498
0.237498
0.237529
0.237559
0.23759
0.23762
0.23762
0.237651
0.237681
0.237712
0.237743
0.237743
0.237773
0.237804
0.237835
0.237866
0.237866
0.237897
0.237928
0.237959
0.23799
0.23799
0.238021
0.238052
0.238083
0.238114
0.238114
0.238145
0.238176
0.238207
0.238238
0.238238
0.23827
0.238301
0.238332
0.238364
0.238364
0.238395
0.238427
0.238458
0.23849
0.23849
0.238521
0.238553
0.238584
0.238616
0.238616
0.238648
0.238679
0.238711
0.238743
0.238743
0.238775
0.238807
0.238838
0.23887
0.23887
0.238902
0.238934
0.238966
0.238998
0.238998
0.239031
0.239063
0.239095
0.239127
0.239127
0.239159
0.239191
0.239224
0.239256
0.239256
0.239288
0.239321
0.239353
0.239386
0.239386
0.239418
0.239451
0.239483
0.239516
0.239516
0.239549
0.239581
0.239614
0.239647
0.239647
0.239679
0.239712
0.239745
0.239778
0.239778
0.239811
0.239844
0.239877
0.23991
0.23991
0.239943
0.239976
0.240009
0.240042
0.240042
0.240075
0.240109
0.240142
0.240175
0.240175
0.240209
0.240242
0.240275
0.240309
0.240309
0.240342
0.240376
0.240409
0.240443
0.240443
0.240476
0.24051
0.240544
0.240577
0.240577
0.240611
0.240645
0.240679
0.240712
0.240712
0.240746
0.24078
0.240814
0.240848
0.240848
0.240882
0.240916
0.24095
0.240984
0.240984
0.241018
0.241053
0.241087
0.241121
0.241121
0.241155
0.24119
0.241224
0.241258
0.241258
0.241293
0.241327
0.241362
0.241396
0.241396
0.241431
0.241465
0.2415
0.241535
0.241535
0.241569
0.241604
0.241639
0.241673
0.241673
0.241708
0.241743
0.241778
0.241813
0.241813
0.241848
0.241883
0.241918
0.241953
0.241953
0.241988
0.242023
0.242058
0.242094
0.242094
0.242129
0.242164
0.242199
0.242235
0.242235
0.24227
0.242305
0.242341
0.242376
0.242376
0.242412
0.242447
0.242483
0.242519
0.242519
0.242554
0.24259
0.242626
0.242661
0.242661
0.242697
0.242733
0.242769
0.242805
0.242805
0.24284
0.242876
0.242912
0.242948
0.242948
0.242984
0.243021
0.243057
0.243093
0.243093
0.243129
0.243165
0.243201
0.243238
0.243238
0.243274
0.24331
0.243347
0.243383
0.243383
0.24342
0.243456
0.243493
0.243529
0.243529
0.243566
0.243602
0.243639
0.243676
0.243676
0.243713
0.243749
0.243786
0.243823
0.243823
0.24386
0.243897
0.243934
0.243971
0.243971
0.244008
0.244045
0.244082
0.244119
0.244119
0.244156
0.244193
0.24423
0.244267
0.244267
0.244305
0.244342
0.244379
0.244417
0.244417
0.244454
0.244492
0.244529
0.244567
0.244567
0.244604
0.244642
0.244679
0.244717
0.244717
0.244755
0.244792
0.24483
0.244868
0.244868
0.244906
0.244944
0.244981
0.245019
0.245019
0.245057
0.245095
0.245133
0.245171
0.245171
0.245209
0.245248
0.245286
0.245324
0.245324
0.245362
0.2454
0.245439
0.245477
0.245477
0.245515
0.245554
0.245592
0.245631
0.245631
0.245669
0.245708
0.245746
0.245785
0.245785
0.245823
0.245862
0.245901
0.24594
0.24594
0.245978
0.246017
0.246056
0.246095
0.246095
0.246134
0.246173
0.246212
0.246251
0.246251
0.24629
0.246329
0.246368
0.246407
0.246407
0.246446
0.246485
0.246525
0.246564
0.246564
0.246603
0.246643
0.246682
0.246721
0.246721
0.246761
0.2468
0.24684
0.246879
0.246879
0.246919
0.246959
0.246998
0.247038
0.247038
0.247078
0.247117
0.247157
0.247197
0.247197
0.247237
0.247277
0.247317
0.247357
0.247357
0.247397
0.247437
0.247477
0.247517
0.247517
0.247557
0.247597
0.247637
0.247677
0.247677
0.247718
0.247758
0.247798
0.247839
0.247839
0.247879
0.24792
0.24796
0.248001
0.248001
0.248041
0.248082
0.248122
0.248163
0.248163
0.248204
0.248244
0.248285
0.248326
0.248326
0.248367
0.248407
0.248448
0.248489
0.248489
0.24853
0.248571
0.248612
0.248653
0.248653
0.248694
0.248735
0.248776
0.248818
0.248818
0.248859
0.2489
0.248941
0.248983
0.248983
0.249024
0.249065
0.249107
0.249148
0.249148
0.24919
0.249231
0.249273
0.249314
0.249314
0.249356
0.249398
0.249439
0.249481
0.249481
0.249523
0.249565
0.249607
0.249648
0.249648
0.24969
0.249732
0.249774
0.249816
0.249816
0.249858
0.2499
0.249942
0.249984
0.249984
0.250027
0.250069
0.250111
0.250153
0.250153
0.250196
0.250238
0.25028
0.250323
0.250323
0.250365
0.250408
0.25045
0.250493
0.250493
0.250535
0.250578
0.25062
0.250663
0.250663
0.250706
0.250749
0.250791
0.250834
0.250834
0.250877
0.25092
0.250963
0.251006
0.251006
0.251049
0.251092
0.251135
0.251178
0.251178
0.251221
0.251264
0.251307
0.251351
0.251351
0.251394
0.251437
0.25148
0.251524
0.251524
0.251567
0.251611
0.251654
0.251697
0.251697
0.251741
0.251785
0.251828
0.251872
0.251872
0.251915
0.251959
0.252003
0.252047
0.252047
0.25209
0.252134
0.252178
0.252222
0.252222
0.252266
0.25231
0.252354
0.252398
0.252398
0.252442
0.252486
0.25253
0.252574
0.252574
0.252618
0.252663
0.252707
0.252751
0.252751
0.252796
0.25284
0.252884
0.252929
0.252929
0.252973
0.253018
0.253062
0.253107
0.253107
0.253151
0.253196
0.253241
0.253286
0.253286
0.25333
0.253375
0.25342
0.253465
0.253465
0.25351
0.253554
0.253599
0.253644
0.253644
0.253689
0.253734
0.25378
0.253825
0.253825
0.25387
0.253915
0.25396
0.254005
0.254005
0.254051
0.254096
0.254141
0.254187
0.254187
0.254232
0.254278
0.254323
0.254369
0.254369
0.254414
0.25446
0.254505
0.254551
0.254551
0.254597
0.254642
0.254688
0.254734
0.254734
0.25478
0.254826
0.254872
0.254917
0.254917
0.254963
0.255009
0.255055
0.255101
0.255101
0.255148
0.255194
0.25524
0.255286
0.255286
0.255332
0.255379
0.255425
0.255471
0.255471
0.255518
0.255564
0.25561
0.255657
0.255657
0.255703
0.25575
0.255796
0.255843
0.255843
0.25589
0.255936
0.255983
0.25603
0.25603
0.256077
0.256123
0.25617
0.256217
0.256217
0.256264
0.256311
0.256358
0.256405
0.256405
0.256452
0.256499
0.256546
0.256593
0.256593
0.25664
0.256688
0.256735
0.256782
0.256782
0.256829
0.256877
0.256924
0.256972
0.256972
0.257019
0.257067
0.257114
0.257162
0.257162
0.257209
0.257257
0.257304
0.257352
0.257352
0.2574
0.257448
0.257495
0.257543
0.257543
0.257591
0.257639
0.257687
0.257735
0.257735
0.257783
0.257831
0.257879
0.257927
0.257927
0.257975
0.258023
0.258071
0.25812
0.25812
0.258168
0.258216
0.258264
0.258313
0.258313
0.258361
0.25841
0.258458
0.258507
0.258507
0.258555
0.258604
0.258652
0.258701
0.258701
0.25875
0.258798
0.258847
0.258896
0.258896
0.258945
0.258993
0.259042
0.259091
0.259091
0.25914
0.259189
0.259238
0.259287
0.259287
0.259336
0.259385
0.259434
0.259484
0.259484
0.259533
0.259582
0.259631
0.259681
0.259681
0.25973
0.259779
0.259829
0.259878
0.259878
0.259928
0.259977
0.260027
0.260076
0.260076
0.260126
0.260175
0.260225
0.260275
0.260275
0.260325
0.260374
0.260424
0.260474
0.260474
0.260524
0.260574
0.260624
0.260674
0.260674
0.260724
0.260774
0.260824
0.260874
0.260874
0.260924
0.260974
0.261024
0.261075
0.261075
0.261125
0.261175
0.261226
0.261276
0.261276
0.261326
0.261377
0.261427
0.261478
0.261478
0.261528
0.261579
0.26163
0.26168
0.26168
0.261731
0.261782
0.261832
0.261883
0.261883
0.261934
0.261985
0.262036
0.262087
0.262087
0.262138
0.262189
0.26224
0.262291
0.262291
0.262342
0.262393
0.262444
0.262495
0.262495
0.262547
0.262598
0.262649
0.2627
0.2627
0.262752
0.262803
0.262855
0.262906
0.262906
0.262958
0.263009
0.263061
0.263112
0.263112
0.263164
0.263215
0.263267
0.263319
0.263319
0.263371
0.263422
0.263474
0.263526
0.263526
0.263578
0.26363
0.263682
0.263734
0.263734
0.263786
0.263838
0.26389
0.263942
0.263942
0.263994
0.264047
0.264099
0.264151
0.264151
0.264203
0.264256
0.264308
0.264361
0.264361
0.264413
0.264465
0.264518
0.264571
0.264571
0.264623
0.264676
0.264728
0.264781
0.264781
0.264834
0.264886
0.264939
0.264992
0.264992
0.265045
0.265098
0.265151
0.265204
0.265204
0.265257
0.26531
0.265363
0.265416
0.265416
0.265469
0.265522
0.265575
0.265628
0.265628
0.265682
0.265735
0.265788
0.265841
0.265841
0.265895
0.265948
0.266002
0.266055
0.266055
0.266109
0.266162
0.266216
0.266269
0.266269
0.266323
0.266377
0.26643
0.266484
0.266484
0.266538
0.266592
0.266646
0.2667
0.2667
0.266753
0.266807
0.266861
0.266915
0.266915
0.266969
0.267024
0.267078
0.267132
0.267132
0.267186
0.26724
0.267294
0.267349
0.267349
0.267403
0.267457
0.267512
0.267566
0.267566
0.267621
0.267675
0.26773
0.267784
0.267784
0.267839
0.267893
0.267948
0.268003
0.268003
0.268057
0.268112
0.268167
0.268222
0.268222
0.268277
0.268332
0.268386
0.268441
0.268441
0.268496
0.268551
0.268607
0.268662
0.268662
0.268717
0.268772
0.268827
0.268882
0.268882
0.268938
0.268993
0.269048
0.269104
0.269104
0.269159
0.269214
0.26927
0.269325
0.269325
0.269381
0.269436
0.269492
0.269548
0.269548
0.269603
0.269659
0.269715
0.26977
0.26977
0.269826
0.269882
0.269938
0.269994
0.269994
0.27005
0.270106
0.270162
0.270218
0.270218
0.270274
0.27033
0.270386
0.270442
0.270442
0.270498
0.270555
0.270611
0.270667
0.270667
0.270723
0.27078
0.270836
0.270893
0.270893
0.270949
0.271006
0.271062
0.271119
0.271119
0.271175
0.271232
0.271289
0.271345
0.271345
0.271402
0.271459
0.271516
0.271572
0.271572
0.271629
0.271686
0.271743
0.2718
0.2718
0.271857
0.271914
0.271971
0.272028
0.272028
0.272085
0.272143
0.2722
0.272257
0.272257
0.272314
0.272372
0.272429
0.272486
0.272486
0.272544
0.272601
0.272659
0.272716
0.272716
0.272774
0.272831
0.272889
0.272946
0.272946
0.273004
0.273062
0.27312
0.273177
0.273177
0.273235
0.273293
0.273351
0.273409
0.273409
0.273467
0.273525
0.273583
0.273641
0.273641
0.273699
0.273757
0.273815
0.273873
0.273873
0.273931
0.27399
0.274048
0.274106
0.274106
0.274164
0.274223
0.274281
0.27434
0.27434
0.274398
0.274457
0.274515
0.274574
0.274574
0.274632
0.274691
0.27475
0.274808
0.274808
0.274867
0.274926
0.274985
0.275044
0.275044
0.275102
0.275161
0.27522
0.275279
0.275279
0.275338
0.275397
0.275456
0.275515
0.275515
0.275575
0.275634
0.275693
0.275752
0.275752
0.275811
0.275871
0.27593
0.275989
0.275989
0.276049
0.276108
0.276168
0.276227
0.276227
0.276287
0.276346
0.276406
0.276466
0.276466
0.276525
0.276585
0.276645
0.276705
0.276705
0.276764
0.276824
0.276884
0.276944
0.276944
0.277004
0.277064
0.277124
0.277184
0.277184
0.277244
0.277304
0.277364
0.277424
0.277424
0.277485
0.277545
0.277605
0.277665
0.277665
0.277726
0.277786
0.277847
0.277907
0.277907
0.277967
0.278028
0.278088
0.278149
0.278149
0.27821
0.27827
0.278331
0.278392
0.278392
0.278452
0.278513
0.278574
0.278635
0.278635
0.278696
0.278757
0.278818
0.278879
0.278879
0.27894
0.279001
0.279062
0.279123
0.279123
0.279184
0.279245
0.279306
0.279368
0.279368
0.279429
0.27949
0.279551
0.279613
0.279613
0.279674
0.279736
0.279797
0.279859
0.279859
0.27992
0.279982
0.280043
0.280105
0.280105
0.280167
0.280228
0.28029
0.280352
0.280352
0.280414
0.280475
0.280537
0.280599
0.280599
0.280661
0.280723
0.280785
0.280847
0.280847
0.280909
0.280971
0.281034
0.281096
0.281096
0.281158
0.28122
0.281282
0.281345
0.281345
0.281407
0.281469
0.281532
0.281594
0.281594
0.281657
0.281719
0.281782
0.281844
0.281844
0.281907
0.28197
0.282032
0.282095
0.282095
0.282158
0.28222
0.282283
0.282346
0.282346
0.282409
0.282472
0.282535
0.282598
0.282598
0.282661
0.282724
0.282787
0.28285
0.28285
0.282913
0.282976
0.283039
0.283103
0.283103
0.283166
0.283229
0.283293
0.283356
0.283356
0.283419
0.283483
0.283546
0.28361
0.28361
0.283673
0.283737
0.2838
0.283864
0.283864
0.283928
0.283991
0.284055
0.284119
0.284119
0.284183
0.284247
0.28431
0.284374
0.284374
0.284438
0.284502
0.284566
0.28463
0.28463
0.284694
0.284758
0.284823
0.284887
0.284887
0.284951
0.285015
0.285079
0.285144
0.285144
0.285208
0.285272
0.285337
0.285401
0.285401
0.285466
0.28553
0.285595
0.285659
0.285659
0.285724
0.285788
0.285853
0.285918
0.285918
0.285983
0.286047
0.286112
0.286177
0.286177
0.286242
0.286307
0.286372
0.286437
0.286437
0.286502
0.286567
0.286632
0.286697
0.286697
0.286762
0.286827
0.286892
0.286957
0.286957
0.287023
0.287088
0.287153
0.287219
0.287219
0.287284
0.287349
0.287415
0.28748
0.28748
0.287546
0.287611
0.287677
0.287743
0.287743
0.287808
0.287874
0.28794
0.288005
0.288005
0.288071
0.288137
0.288203
0.288269
0.288269
0.288335
0.288401
0.288467
0.288533
0.288533
0.288599
0.288665
0.288731
0.288797
0.288797
0.288863
0.288929
0.288996
0.289062
0.289062
0.289128
0.289195
0.289261
0.289327
0.289327
0.289394
0.28946
0.289527
0.289593
0.289593
0.28966
0.289727
0.289793
0.28986
0.28986
0.289927
0.289993
0.29006
0.290127
0.290127
0.290194
0.290261
0.290328
0.290395
0.290395
0.290461
0.290528
0.290596
0.290663
0.290663
0.29073
0.290797
0.290864
0.290931
0.290931
0.290998
0.291066
0.291133
0.2912
0.2912
0.291268
0.291335
0.291403
0.29147
0.29147
0.291538
0.291605
0.291673
0.29174
0.29174
0.291808
0.291876
0.291943
0.292011
0.292011
0.292079
0.292147
0.292214
0.292282
0.292282
0.29235
0.292418
0.292486
0.292554
0.292554
0.292622
0.29269
0.292758
0.292826
0.292826
0.292895
0.292963
0.293031
0.293099
0.293099
0.293168
0.293236
0.293304
0.293373
0.293373
0.293441
0.293509
0.293578
0.293646
0.293646
0.293715
0.293784
0.293852
0.293921
0.293921
0.29399
0.294058
0.294127
0.294196
0.294196
0.294265
0.294334
0.294402
0.294471
0.294471
0.29454
0.294609
0.294678
0.294747
0.294747
0.294816
0.294886
0.294955
0.295024
0.295024
0.295093
0.295162
0.295232
0.295301
0.295301
0.29537
0.29544
0.295509
0.295579
0.295579
0.295648
0.295717
0.295787
0.295857
0.295857
0.295926
0.295996
0.296066
0.296135
0.296135
0.296205
0.296275
0.296345
0.296414
0.296414
0.296484
0.296554
0.296624
0.296694
0.296694
0.296764
0.296834
0.296904
0.296974
0.296974
0.297044
0.297115
0.297185
0.297255
0.297255
0.297325
0.297396
0.297466
0.297536
0.297536
0.297607
0.297677
0.297748
0.297818
0.297818
0.297889
0.297959
0.29803
0.2981
0.2981
0.298171
0.298242
0.298312
0.298383
0.298383
0.298454
0.298525
0.298596
0.298667
0.298667
0.298738
0.298808
0.298879
0.29895
0.29895
0.299022
0.299093
0.299164
0.299235
0.299235
0.299306
0.299377
0.299449
0.29952
0.29952
0.299591
0.299662
0.299734
0.299805
0.299805
0.299877
0.299948
0.30002
0.300091
0.300091
0.300163
0.300234
0.300306
0.300378
0.300378
0.300449
0.300521
0.300593
0.300665
0.300665
0.300737
0.300809
0.30088
0.300952
0.300952
0.301024
0.301096
0.301168
0.30124
0.30124
0.301313
0.301385
0.301457
0.301529
0.301529
0.301601
0.301674
0.301746
0.301818
0.301818
0.301891
0.301963
0.302035
0.302108
0.302108
0.30218
0.302253
0.302325
0.302398
0.302398
0.302471
0.302543
0.302616
0.302689
0.302689
0.302761
0.302834
0.302907
0.30298
0.30298
0.303053
0.303126
0.303199
0.303272
0.303272
0.303345
0.303418
0.303491
0.303564
0.303564
0.303637
0.30371
0.303783
0.303857
0.303857
0.30393
0.304003
0.304077
0.30415
0.30415
0.304223
0.304297
0.30437
0.304444
0.304444
0.304517
0.304591
0.304665
0.304738
0.304738
0.304812
0.304886
0.304959
0.305033
0.305033
0.305107
0.305181
0.305255
0.305328
0.305328
0.305402
0.305476
0.30555
0.305624
0.305624
0.305698
0.305772
0.305847
0.305921
0.305921
0.305995
0.306069
0.306143
0.306218
0.306218
0.306292
0.306366
0.306441
0.306515
0.306515
0.30659
0.306664
0.306739
0.306813
0.306813
0.306888
0.306962
0.307037
0.307112
0.307112
0.307186
0.307261
0.307336
0.307411
0.307411
0.307486
0.30756
0.307635
0.30771
0.30771
0.307785
0.30786
0.307935
0.30801
0.30801
0.308086
0.308161
0.308236
0.308311
0.308311
0.308386
0.308462
0.308537
0.308612
0.308612
0.308688
0.308763
0.308838
0.308914
0.308914
0.308989
0.309065
0.30914
0.309216
0.309216
0.309292
0.309367
0.309443
0.309519
0.309519
0.309594
0.30967
0.309746
0.309822
0.309822
0.309898
0.309974
0.31005
0.310126
0.310126
0.310202
0.310278
0.310354
0.31043
0.31043
0.310506
0.310582
0.310658
0.310735
0.310735
0.310811
0.310887
0.310963
0.31104
0.31104
0.311116
0.311193
0.311269
0.311346
0.311346
0.311422
0.311499
0.311575
0.311652
0.311652
0.311729
0.311805
0.311882
0.311959
0.311959
0.312036
0.312112
0.312189
0.312266
0.312266
0.312343
0.31242
0.312497
0.312574
0.312574
0.312651
0.312728
0.312805
0.312882
0.312882
0.31296
0.313037
0.313114
0.313191
0.313191
0.313269
0.313346
0.313423
0.313501
0.313501
0.313578
0.313656
0.313733
0.313811
0.313811
0.313888
0.313966
0.314043
0.314121
0.314121
0.314199
0.314277
0.314354
0.314432
0.314432
0.31451
0.314588
0.314666
0.314744
0.314744
0.314822
0.3149
0.314978
0.315056
0.315056
0.315134
0.315212
0.31529
0.315368
0.315368
0.315446
0.315525
0.315603
0.315681
0.315681
0.31576
0.315838
0.315916
0.315995
0.315995
0.316073
0.316152
0.31623
0.316309
0.316309
0.316387
0.316466
0.316545
0.316623
0.316623
0.316702
0.316781
0.31686
0.316939
0.316939
0.317017
0.317096
0.317175
0.317254
0.317254
0.317333
0.317412
0.317491
0.31757
0.31757
0.317649
0.317729
0.317808
0.317887
0.317887
0.317966
0.318046
0.318125
0.318204
0.318204
0.318284
0.318363
0.318442
0.318522
0.318522
0.318601
0.318681
0.31876
0.31884
0.31884
0.31892
0.318999
0.319079
0.319159
0.319159
0.319239
0.319318
0.319398
0.319478
0.319478
0.319558
0.319638
0.319718
0.319798
0.319798
0.319878
0.319958
0.320038
0.320118
0.320118
0.320198
0.320278
0.320359
0.320439
0.320439
0.320519
0.320599
0.32068
0.32076
0.32076
0.320841
0.320921
0.321001
0.321082
0.321082
0.321162
0.321243
0.321324
0.321404
0.321404
0.321485
0.321566
0.321646
0.321727
0.321727
0.321808
0.321889
0.32197
0.32205
0.32205
0.322131
0.322212
0.322293
0.322374
0.322374
0.322455
0.322536
0.322618
0.322699
0.322699
0.32278
0.322861
0.322942
0.323024
0.323024
0.323105
0.323186
0.323268
0.323349
0.323349
0.32343
0.323512
0.323593
0.323675
0.323675
0.323756
0.323838
0.32392
0.324001
0.324001
0.324083
0.324165
0.324246
0.324328
0.324328
0.32441
0.324492
0.324574
0.324656
0.324656
0.324738
0.32482
0.324902
0.324984
0.324984
0.325066
0.325148
0.32523
0.325312
0.325312
0.325394
0.325477
0.325559
0.325641
0.325641
0.325723
0.325806
0.325888
0.325971
0.325971
0.326053
0.326136
0.326218
0.326301
0.326301
0.326383
0.326466
0.326548
0.326631
0.326631
0.326714
0.326797
0.326879
0.326962
0.326962
0.327045
0.327128
0.327211
0.327294
0.327294
0.327377
0.32746
0.327543
0.327626
0.327626
0.327709
0.327792
0.327875
0.327958
0.327958
0.328042
0.328125
0.328208
0.328291
0.328291
0.328375
0.328458
0.328542
0.328625
0.328625
0.328709
0.328792
0.328876
0.328959
0.328959
0.329043
0.329126
0.32921
0.329294
0.329294
0.329377
0.329461
0.329545
0.329629
0.329629
0.329713
0.329797
0.329881
0.329964
0.329964
0.330048
0.330132
0.330217
0.330301
0.330301
0.330385
0.330469
0.330553
0.330637
0.330637
0.330721
0.330806
0.33089
0.330974
0.330974
0.331059
0.331143
0.331228
0.331312
0.331312
0.331397
0.331481
0.331566
0.33165
0.33165
0.331735
0.33182
0.331904
0.331989
0.331989
0.332074
0.332158
0.332243
0.332328
0.332328
0.332413
0.332498
0.332583
0.332668
0.332668
0.332753
0.332838
0.332923
0.333008
0.333008
0.333093
0.333178
0.333263
0.333349
0.333349
0.333434
0.333519
0.333605
0.33369
0.33369
0.333775
0.333861
0.333946
0.334032
0.334032
0.334117
0.334203
0.334288
0.334374
0.334374
0.33446
0.334545
0.334631
0.334717
0.334717
0.334802
0.334888
0.334974
0.33506
0.33506
0.335146
0.335232
0.335318
0.335404
0.335404
0.33549
0.335576
0.335662
0.335748
0.335748
0.335834
0.33592
0.336006
0.336093
0.336093
0.336179
0.336265
0.336352
0.336438
0.336438
0.336524
0.336611
0.336697
0.336784
0.336784
0.33687
0.336957
0.337043
0.33713
0.33713
0.337217
0.337303
0.33739
0.337477
0.337477
0.337564
0.33765
0.337737
0.337824
0.337824
0.337911
0.337998
0.338085
0.338172
0.338172
0.338259
0.338346
0.338433
0.33852
0.33852
0.338607
0.338695
0.338782
0.338869
0.338869
0.338956
0.339044
0.339131
0.339218
0.339218
0.339306
0.339393
0.339481
0.339568
0.339568
0.339656
0.339743
0.339831
0.339918
0.339918
0.340006
0.340094
0.340182
0.340269
0.340269
0.340357
0.340445
0.340533
0.340621
0.340621
0.340709
0.340796
0.340884
0.340972
0.340972
0.34106
0.341149
0.341237
0.341325
0.341325
0.341413
0.341501
0.341589
0.341678
0.341678
0.341766
0.341854
0.341943
0.342031
0.342031
0.342119
0.342208
0.342296
0.342385
0.342385
0.342473
0.342562
0.342651
0.342739
0.342739
0.342828
0.342917
0.343005
0.343094
0.343094
0.343183
0.343272
0.34336
0.343449
0.343449
0.343538
0.343627
0.343716
0.343805
0.343805
0.343894
0.343983
0.344072
0.344162
0.344162
0.344251
0.34434
0.344429
0.344518
0.344518
0.344608
0.344697
0.344786
0.344876
0.344876
0.344965
0.345055
0.345144
0.345234
0.345234
0.345323
0.345413
0.345502
0.345592