<?xml version="1.0"?>
<VTKFile type="UnstructuredGrid" version="0.1" byte_order="LittleEndian">
<UnstructuredGrid>
<Piece NumberOfPoints="5000" NumberOfCells="4000">
<PointData Scalars="Reaction 0">
<DataArray type="Float32" Name="Reaction 0" format="ascii">
0.895377
0.895377
0.895377
0.895377
0.895377
0.895377
0.895377
0.895377
0.895377
0.895377
0.895377
0.895377
0.895377
0.895377
0.895377
0.895377
0.895377
0.895377
0.895377
0.895377
0.895377
0.895377
0.895377
0.895377
0.895377
0.895377
0.895377
0.895377
0.895377
0.895377
0.895377
0.895378
0.895378
0.895378
0.895378
0.895378
0.895378
0.895378
0.895378
0.895378
0.895378
0.895378
0.895378
0.895378
0.895378
0.895378
0.895379
0.895379
0.895379
0.895379
0.895379
0.895379
0.895379
0.895379
0.895379
0.895379
0.89538
0.89538
0.89538
0.89538
0.89538
0.89538
0.89538
0.89538
0.89538
0.89538
0.895381
0.895381
0.895381
0.895381
0.895381
0.895381
0.895381
0.895382
0.895382
0.895382
0.895382
0.895382
0.895382
0.895382
0.895382
0.895383
0.895383
0.895383
0.895383
0.895383
0.895383
0.895384
0.895384
0.895384
0.895384
0.895384
0.895384
0.895385
0.895385
0.895385
0.895385
0.895385
0.895385
0.895386
0.895386
0.895386
0.895386
0.895386
0.895387
0.895387
0.895387
0.895387
0.895387
0.895388
0.895388
0.895388
0.895388
0.895388
0.895389
0.895389
0.895389
0.895389
0.895389
0.89539
0.89539
0.89539
0.89539
0.89539
0.895391
0.895391
0.895391
0.895391
0.895392
0.895392
0.895392
0.895392
0.895392
0.895393
0.895393
0.895393
0.895393
0.895394
0.895394
0.895394
0.895394
0.895395
0.895395
0.895395
0.895396
0.895396
0.895396
0.895396
0.895397
0.895397
0.895397
0.895397
0.895398
0.895398
0.895398
0.895398
0.895399
0.895399
0.895399
0.8954
0.8954
0.8954
0.8954
0.895401
0.895401
0.895401
0.895402
0.895402
0.895402
0.895403
0.895403
0.895403
0.895403
0.895404
0.895404
0.895404
0.895405
0.895405
0.895405
0.895406
0.895406
0.895406
0.895407
0.895407
0.895408
0.895408
0.895408
0.895408
0.895409
0.895409
0.895409
0.89541
0.89541
0.895411
0.895411
0.895411
0.895411
0.895412
0.895412
0.895413
0.895413
0.895413
0.895414
0.895414
0.895415
0.895415
0.895415
0.895415
0.895416
0.895416
0.895416
0.895417
0.895417
0.895418
0.895418
0.895418
0.895419
0.895419
0.89542
0.89542
0.89542
0.895421
0.895421
0.895422
0.895422
0.895422
0.895423
0.895423
0.895424
0.895424
0.895424
0.895425
0.895425
0.895426
0.895426
0.895426
0.895427
0.895428
0.895428
0.895429
0.895429
0.895429
0.89543
0.89543
0.895431
0.895431
0.895431
0.895432
0.895432
0.895433
0.895433
0.895434
0.895434
0.895435
0.895435
0.895435
0.895436
0.895436
0.895437
0.895438
0.895438
0.895438
0.895439
0.895439
0.89544
0.89544
0.895441
0.895441
0.895442
0.895442
0.895442
0.895443
0.895444
0.895444
0.895445
0.895445
0.895446
0.895446
0.895447
0.895447
0.895447
0.895448
0.895449
0.895449
0.89545
0.89545
0.895451
0.895451
0.895452
0.895453
0.895453
0.895453
0.895454
0.895455
0.895455
0.895455
0.895456
0.895457
0.895457
0.895458
0.895458
0.895459
0.895459
0.89546
0.895461
0.895461
0.895461
0.895462
0.895463
0.895463
0.895463
0.895464
0.895465
0.895465
0.895466
0.895466
0.895467
0.895468
0.895468
0.895469
0.895469
0.89547
0.89547
0.895471
0.895472
0.895472
0.895473
0.895473
0.895474
0.895475
0.895475
0.895476
0.895476
0.895477
0.895478
0.895478
0.895479
0.895479
0.89548
0.895481
0.895481
0.895482
0.895482
0.895483
0.895484
0.895484
0.895485
0.895486
0.895486
0.895487
0.895487
0.895488
0.895489
0.89549
0.89549
0.89549
0.895491
0.895492
0.895493
0.895494
0.895494
0.895494
0.895495
0.895496
0.895497
0.895497
0.895498
0.895499
0.895499
0.8955
0.8955
0.895501
0.895502
0.895503
0.895504
0.895504
0.895504
0.895505
0.895506
0.895507
0.895507
0.895508
0.895509
0.89551
0.89551
0.89551
0.895511
0.895512
0.895513
0.895514
0.895514
0.895515
0.895516
0.895517
0.895517
0.895517
0.895518
0.895519
0.89552
0.895521
0.895521
0.895522
0.895523
0.895524
0.895525
0.895525
0.895526
0.895526
0.895527
0.895528
0.895528
0.895529
0.89553
0.895531
0.895532
0.895532
0.895533
0.895534
0.895535
0.895536
0.895536
0.895537
0.895538
0.895539
0.89554
0.89554
0.895541
0.895542
0.895542
0.895543
0.895543
0.895544
0.895545
0.895546
0.895547
0.895547
0.895548
0.895549
0.89555
0.895551
0.895551
0.895552
0.895553
0.895554
0.895555
0.895555
0.895556
0.895557
0.895558
0.895559
0.895559
0.89556
0.895561
0.895562
0.895563
0.895563
0.895564
0.895565
0.895566
0.895567
0.895567
0.895568
0.895569
0.895571
0.895572
0.895572
0.895573
0.895574
0.895575
0.895576
0.895576
0.895577
0.895578
0.895579
0.89558
0.89558
0.895581
0.895582
0.895583
0.895584
0.895584
0.895585
0.895586
0.895587
0.895589
0.895589
0.89559
0.895591
0.895592
0.895593
0.895593
0.895594
0.895595
0.895596
0.895597
0.895597
0.895598
0.8956
0.895601
0.895602
0.895602
0.895603
0.895604
0.895605
0.895606
0.895606
0.895608
0.895609
0.89561
0.895611
0.895611
0.895612
0.895613
0.895615
0.895616
0.895616
0.895617
0.895618
0.895619
0.89562
0.89562
0.895622
0.895623
0.895624
0.895625
0.895625
0.895626
0.895628
0.895629
0.89563
0.89563
0.895631
0.895632
0.895634
0.895635
0.895635
0.895636
0.895637
0.895638
0.89564
0.89564
0.895641
0.895642
0.895643
0.895645
0.895645
0.895646
0.895647
0.895648
0.895649
0.895649
0.895651
0.895652
0.895653
0.895654
0.895654
0.895656
0.895657
0.895658
0.89566
0.89566
0.895661
0.895662
0.895663
0.895665
0.895665
0.895666
0.895667
0.895668
0.89567
0.89567
0.895671
0.895672
0.895674
0.895675
0.895675
0.895676
0.895677
0.895679
0.89568
0.89568
0.895681
0.895683
0.895684
0.895685
0.895685
0.895687
0.895688
0.895689
0.895691
0.895691
0.895692
0.895693
0.895695
0.895696
0.895696
0.895697
0.895699
0.8957
0.895701
0.895701
0.895703
0.895704
0.895705
0.895707
0.895707
0.895708
0.89571
0.895711
0.895712
0.895712
0.895714
0.895715
0.895716
0.895718
0.895718
0.895719
0.895721
0.895722
0.895723
0.895723
0.895725
0.895726
0.895728
0.895729
0.895729
0.89573
0.895732
0.895733
0.895735
0.895735
0.895736
0.895738
0.895739
0.89574
0.89574
0.895742
0.895743
0.895745
0.895746
0.895746
0.895748
0.895749
0.89575
0.895752
0.895752
0.895753
0.895755
0.895756
0.895758
0.895758
0.895759
0.895761
0.895762
0.895764
0.895764
0.895765
0.895767
0.895768
0.89577
0.89577
0.895771
0.895773
0.895774
0.895776
0.895776
0.895777
0.895779
0.89578
0.895782
0.895782
0.895783
0.895785
0.895786
0.895788
0.895788
0.895789
0.895791
0.895792
0.895794
0.895794
0.895795
0.895797
0.895798
0.8958
0.8958
0.895801
0.895803
0.895805
0.895806
0.895806
0.895808
0.895809
0.895811
0.895812
0.895812
0.895814
0.895816
0.895817
0.895819
0.895819
0.89582
0.895822
0.895823
0.895825
0.895825
0.895827
0.895828
0.89583
0.895831
0.895831
0.895833
0.895835
0.895836
0.895838
0.895838
0.895839
0.895841
0.895843
0.895844
0.895844
0.895846
0.895848
0.895849
0.895851
0.895851
0.895852
0.895854
0.895856
0.895857
0.895857
0.895859
0.895861
0.895862
0.895864
0.895864
0.895866
0.895867
0.895869
0.895871
0.895871
0.895872
0.895874
0.895876
0.895877
0.895877
0.895879
0.895881
0.895882
0.895884
0.895884
0.895886
0.895887
0.895889
0.895891
0.895891
0.895893
0.895894
0.895896
0.895898
0.895898
0.895899
0.895901
0.895903
0.895905
0.895905
0.895906
0.895908
0.89591
0.895911
0.895911
0.895913
0.895915
0.895917
0.895918
0.895918
0.89592
0.895922
0.895924
0.895925
0.895925
0.895927
0.895929
0.895931
0.895932
0.895932
0.895934
0.895936
0.895938
0.895939
0.895939
0.895941
0.895943
0.895945
0.895947
0.895947
0.895948
0.89595
0.895952
0.895954
0.895954
0.895955
0.895957
0.895959
0.895961
0.895961
0.895963
0.895964
0.895966
0.895968
0.895968
0.89597
0.895972
0.895974
0.895975
0.895975
0.895977
0.895979
0.895981
0.895983
0.895983
0.895985
0.895986
0.895988
0.89599
0.89599
0.895992
0.895994
0.895996
0.895998
0.895998
0.895999
0.896001
0.896003
0.896005
0.896005
0.896007
0.896009
0.896011
0.896013
0.896013
0.896015
0.896017
0.896018
0.89602
0.89602
0.896022
0.896024
0.896026
0.896028
0.896028
0.89603
0.896032
0.896034
0.896036
0.896036
0.896038
0.89604
0.896042
0.896044
0.896044
0.896046
0.896048
0.896049
0.896051
0.896051
0.896053
0.896055
0.896057
0.896059
0.896059
0.896061
0.896063
0.896065
0.896067
0.896067
0.896069
0.896071
0.896073
0.896075
0.896075
0.896077
0.896079
0.896081
0.896083
0.896083
0.896085
0.896087
0.896089
0.896091
0.896091
0.896093
0.896095
0.896097
0.896099
0.896099
0.896101
0.896103
0.896105
0.896107
0.896107
0.896109
0.896111
0.896113
0.896115
0.896115
0.896117
0.89612
0.896122
0.896124
0.896124
0.896126
0.896128
0.89613
0.896132
0.896132
0.896134
0.896136
0.896138
0.89614
0.89614
0.896142
0.896144
0.896146
0.896148
0.896148
0.896151
0.896153
0.896155
0.896157
0.896157
0.896159
0.896161
0.896163
0.896165
0.896165
0.896167
0.896169
0.896172
0.896174
0.896174
0.896176
0.896178
0.89618
0.896182
0.896182
0.896184
0.896186
0.896189
0.896191
0.896191
0.896193
0.896195
0.896197
0.896199
0.896199
0.896201
0.896204
0.896206
0.896208
0.896208
0.89621
0.896212
0.896214
0.896217
0.896217
0.896219
0.896221
0.896223
0.896225
0.896225
0.896228
0.89623
0.896232
0.896234
0.896234
0.896236
0.896239
0.896241
0.896243
0.896243
0.896245
0.896247
0.89625
0.896252
0.896252
0.896254
0.896256
0.896258
0.896261
0.896261
0.896263
0.896265
0.896267
0.89627
0.89627
0.896272
0.896274
0.896276
0.896279
0.896279
0.896281
0.896283
0.896285
0.896288
0.896288
0.89629
0.896292
0.896294
0.896297
0.896297
0.896299
0.896301
0.896304
0.896306
0.896306
0.896308
0.89631
0.896313
0.896315
0.896315
0.896317
0.896319
0.896322
0.896324
0.896324
0.896326
0.896329
0.896331
0.896333
0.896333
0.896336
0.896338
0.89634
0.896343
0.896343
0.896345
0.896347
0.89635
0.896352
0.896352
0.896354
0.896356
0.896359
0.896361
0.896361
0.896364
0.896366
0.896368
0.896371
0.896371
0.896373
0.896375
0.896378
0.89638
0.89638
0.896382
0.896385
0.896387
0.89639
0.89639
0.896392
0.896394
0.896397
0.896399
0.896399
0.896402
0.896404
0.896406
0.896409
0.896409
0.896411
0.896414
0.896416
0.896419
0.896419
0.896421
0.896423
0.896426
0.896428
0.896428
0.896431
0.896433
0.896436
0.896438
0.896438
0.896441
0.896443
0.896446
0.896448
0.896448
0.896451
0.896453
0.896455
0.896458
0.896458
0.89646
0.896463
0.896465
0.896468
0.896468
0.89647
0.896473
0.896475
0.896478
0.896478
0.89648
0.896483
0.896485
0.896488
0.896488
0.89649
0.896493
0.896495
0.896498
0.896498
0.8965
0.896503
0.896506
0.896508
0.896508
0.896511
0.896513
0.896516
0.896518
0.896518
0.896521
0.896523
0.896526
0.896528
0.896528
0.896531
0.896533
0.896536
0.896539
0.896539
0.896541
0.896544
0.896546
0.896549
0.896549
0.896551
0.896554
0.896557
0.896559
0.896559
0.896562
0.896564
0.896567
0.89657
0.89657
0.896572
0.896575
0.896577
0.89658
0.89658
0.896583
0.896585
0.896588
0.89659
0.89659
0.896593
0.896596
0.896598
0.896601
0.896601
0.896603
0.896606
0.896609
0.896611
0.896611
0.896614
0.896617
0.896619
0.896622
0.896622
0.896625
0.896627
0.89663
0.896633
0.896633
0.896635
0.896638
0.896641
0.896643
0.896643
0.896646
0.896649
0.896651
0.896654
0.896654
0.896657
0.896659
0.896662
0.896665
0.896665
0.896667
0.89667
0.896673
0.896675
0.896675
0.896678
0.896681
0.896684
0.896686
0.896686
0.896689
0.896692
0.896694
0.896697
0.896697
0.8967
0.896703
0.896705
0.896708
0.896708
0.896711
0.896713
0.896716
0.896719
0.896719
0.896722
0.896724
0.896727
0.89673
0.89673
0.896733
0.896735
0.896738
0.896741
0.896741
0.896744
0.896746
0.896749
0.896752
0.896752
0.896755
0.896757
0.89676
0.896763
0.896763
0.896766
0.896769
0.896771
0.896774
0.896774
0.896777
0.89678
0.896782
0.896785
0.896785
0.896788
0.896791
0.896794
0.896797
0.896797
0.896799
0.896802
0.896805
0.896808
0.896808
0.896811
0.896814
0.896817
0.896819
0.896819
0.896822
0.896825
0.896828
0.896831
0.896831
0.896834
0.896837
0.89684
0.896842
0.896842
0.896845
0.896848
0.896851
0.896854
0.896854
0.896857
0.89686
0.896863
0.896866
0.896866
0.896869
0.896872
0.896874
0.896877
0.896877
0.89688
0.896883
0.896886
0.896889
0.896889
0.896892
0.896895
0.896898
0.896901
0.896901
0.896904
0.896907
0.89691
0.896913
0.896913
0.896916
0.896919
0.896921
0.896924
0.896924
0.896927
0.89693
0.896933
0.896936
0.896936
0.896939
0.896942
0.896945
0.896948
0.896948
0.896951
0.896954
0.896957
0.89696
0.89696
0.896963
0.896966
0.896969
0.896972
0.896972
0.896975
0.896978
0.896981
0.896984
0.896984
0.896987
0.89699
0.896993
0.896996
0.896996
0.896999
0.897002
0.897005
0.897008
0.897008
0.897011
0.897014
0.897017
0.89702
0.89702
0.897023
0.897027
0.89703
0.897033
0.897033
0.897036
0.897039
0.897042
0.897045
0.897045
0.897048
0.897051
0.897054
0.897057
0.897057
0.89706
0.897063
0.897066
0.897069
0.897069
0.897073
0.897076
0.897079
0.897082
0.897082
0.897085
0.897088
0.897091
0.897094
0.897094
0.897097
0.8971
0.897103
0.897107
0.897107
0.89711
0.897113
0.897116
0.897119
0.897119
0.897122
0.897125
0.897128
0.897132
0.897132
0.897135
0.897138
0.897141
0.897144
0.897144
0.897147
0.89715
0.897153
0.897157
0.897157
0.89716
0.897163
0.897166
0.897169
0.897169
0.897172
0.897176
0.897179
0.897182
0.897182
0.897185
0.897188
0.897191
0.897195
0.897195
0.897198
0.897201
0.897204
0.897207
0.897207
0.897211
0.897214
0.897217
0.89722
0.89722
0.897224
0.897227
0.89723
0.897233
0.897233
0.897237
0.89724
0.897243
0.897246
0.897246
0.89725
0.897253
0.897256
0.897259
0.897259
0.897263
0.897266
0.897269
0.897273
0.897273
0.897276
0.897279
0.897282
0.897286
0.897286
0.897289
0.897292
0.897296
0.897299
0.897299
0.897302
0.897306
0.897309
0.897312
0.897312
0.897316
0.897319
0.897322
0.897325
0.897325
0.897329
0.897332
0.897335
0.897339
0.897339
0.897342
0.897345
0.897349
0.897352
0.897352
0.897356
0.897359
0.897362
0.897366
0.897366
0.897369
0.897372
0.897376
0.897379
0.897379
0.897382
0.897386
0.897389
0.897392
0.897392
0.897396
0.897399
0.897403
0.897406
0.897406
0.897409
0.897413
0.897416
0.89742
0.89742
0.897423
0.897426
0.89743
0.897433
0.897433
0.897437
0.89744
0.897443
0.897447
0.897447
0.89745
0.897454
0.897457
0.89746
0.89746
0.897464
0.897467
0.897471
0.897474
0.897474
0.897478
0.897481
0.897484
0.897488
0.897488
0.897491
0.897495
0.897498
0.897502
0.897502
0.897505
0.897509
0.897512
0.897515
0.897515
0.897519
0.897522
0.897526
0.897529
0.897529
0.897533
0.897536
0.89754
0.897543
0.897543
0.897547
0.89755
0.897554
0.897557
0.897557
0.897561
0.897564
0.897568
0.897571
0.897571
0.897575
0.897578
0.897582
0.897585
0.897585
0.897589
0.897592
0.897596
0.897599
0.897599
0.897603
0.897606
0.89761
0.897613
0.897613
0.897617
0.89762
0.897624
0.897627
0.897627
0.897631
0.897635
0.897638
0.897642
0.897642
0.897645
0.897649
0.897653
0.897656
0.897656
0.89766
0.897663
0.897667
0.897671
0.897671
0.897674
0.897678
0.897681
0.897685
0.897685
0.897689
0.897692
0.897696
0.8977
0.8977
0.897703
0.897707
0.897711
0.897714
0.897714
0.897718
0.897722
0.897725
0.897729
0.897729
0.897732
0.897736
0.89774
0.897743
0.897743
0.897747
0.897751
0.897754
0.897758
0.897758
0.897762
0.897766
0.897769
0.897773
0.897773
0.897777
0.89778
0.897784
0.897788
0.897788
0.897791
0.897795
0.897799
0.897802
0.897802
0.897806
0.89781
0.897814
0.897817
0.897817
0.897821
0.897825
0.897828
0.897832
0.897832
0.897836
0.89784
0.897843
0.897847
0.897847
0.897851
0.897854
0.897858
0.897862
0.897862
0.897866
0.897869
0.897873
0.897877
0.897877
0.897881
0.897884
0.897888
0.897892
0.897892
0.897896
0.897899
0.897903
0.897907
0.897907
0.897911
0.897915
0.897918
0.897922
0.897922
0.897926
0.89793
0.897933
0.897937
0.897937
0.897941
0.897945
0.897949
0.897952
0.897952
0.897956
0.89796
0.897964
0.897967
0.897967
0.897971
0.897975
0.897979
0.897983
0.897983
0.897987
0.89799
0.897994
0.897998
0.897998
0.898002
0.898006
0.898009
0.898013
0.898013
0.898017
0.898021
0.898025
0.898029
0.898029
0.898032
0.898036
0.89804
0.898044
0.898044
0.898048
0.898052
0.898056
0.89806
0.89806
0.898064
0.898067
0.898071
0.898075
0.898075
0.898079
0.898083
0.898087
0.898091
0.898091
0.898095
0.898099
0.898103
0.898107
0.898107
0.898111
0.898115
0.898119
0.898123
0.898123
0.898127
0.898131
0.898134
0.898138
0.898138
0.898142
0.898146
0.89815
0.898154
0.898154
0.898158
0.898162
0.898166
0.89817
0.89817
0.898174
0.898178
0.898182
0.898186
0.898186
0.89819
0.898194
0.898198
0.898202
0.898202
0.898206
0.89821
0.898214
0.898218
0.898218
0.898222
0.898226
0.89823
0.898234
0.898234
0.898238
0.898242
0.898246
0.89825
0.89825
0.898254
0.898258
0.898262
0.898266
0.898266
0.89827
0.898275
0.898279
0.898283
0.898283
0.898287
0.898291
0.898295
0.898299
0.898299
0.898303
0.898307
0.898311
0.898315
0.898315
0.898319
0.898323
0.898327
0.898331
0.898331
0.898335
0.898339
0.898344
0.898348
0.898348
0.898352
0.898356
0.89836
0.898364
0.898364
0.898368
0.898372
0.898376
0.89838
0.89838
0.898384
0.898388
0.898393
0.898397
0.898397
0.898401
0.898405
0.898409
0.898413
0.898413
0.898417
0.898421
0.898425
0.89843
0.89843
0.898434
0.898438
0.898442
0.898446
0.898446
0.89845
0.898454
0.898459
0.898463
0.898463
0.898467
0.898471
0.898475
0.898479
0.898479
0.898484
0.898488
0.898492
0.898496
0.898496
0.8985
0.898505
0.898509
0.898513
0.898513
0.898517
0.898522
0.898526
0.89853
0.89853
0.898534
0.898539
0.898543
0.898547
0.898547
0.898551
0.898556
0.89856
0.898564
0.898564
0.898568
0.898573
0.898577
0.898581
0.898581
0.898585
0.89859
0.898594
0.898598
0.898598
0.898603
0.898607
0.898611
0.898615
0.898615
0.89862
0.898624
0.898628
0.898633
0.898633
0.898637
0.898641
0.898645
0.89865
0.89865
0.898654
0.898658
0.898663
0.898667
0.898667
0.898671
0.898676
0.89868
0.898684
0.898684
0.898689
0.898693
0.898697
0.898701
0.898701
0.898706
0.89871
0.898714
0.898719
0.898719
0.898723
0.898727
0.898732
0.898736
0.898736
0.898741
0.898745
0.898749
0.898754
0.898754
0.898758
0.898762
0.898767
0.898771
0.898771
0.898775
0.89878
0.898784
0.898788
0.898788
0.898793
0.898797
0.898802
0.898806
0.898806
0.89881
0.898815
0.898819
0.898823
0.898823
0.898828
0.898832
0.898837
0.898841
0.898841
0.898845
0.89885
0.898854
0.898859
0.898859
0.898863
0.898867
0.898872
0.898876
0.898876
0.898881
0.898885
0.89889
0.898894
0.898894
0.898898
0.898903
0.898907
0.898912
0.898912
0.898916
0.898921
0.898925
0.89893
0.89893
0.898934
0.898939
0.898943
0.898948
0.898948
0.898952
0.898957
0.898961
0.898966
0.898966
0.89897
0.898975
0.898979
0.898984
0.898984
0.898989
0.898993
0.898998
0.899002
0.899002
0.899007
0.899011
0.899016
0.89902
0.89902
0.899025
0.899029
0.899034
0.899039
0.899039
0.899043
0.899048
0.899052
0.899057
0.899057
0.899061
0.899066
0.899071
0.899075
0.899075
0.89908
0.899084
0.899089
0.899093
0.899093
0.899098
0.899103
0.899107
0.899112
0.899112
0.899116
0.899121
0.899126
0.89913
0.89913
0.899135
0.899139
0.899144
0.899149
0.899149
0.899153
0.899158
0.899162
0.899167
0.899167
0.899172
0.899176
0.899181
0.899186
0.899186
0.89919
0.899195
0.899199
0.899204
0.899204
0.899209
0.899213
0.899218
0.899223
0.899223
0.899227
0.899232
0.899236
0.899241
0.899241
0.899246
0.89925
0.899255
0.89926
0.89926
0.899264
0.899269
0.899274
0.899278
0.899278
0.899283
0.899288
0.899292
0.899297
0.899297
0.899302
0.899306
0.899311
0.899316
0.899316
0.899321
0.899325
0.89933
0.899335
0.899335
0.899339
0.899344
0.899349
0.899354
0.899354
0.899358
0.899363
0.899368
0.899373
0.899373
0.899377
0.899382
0.899387
0.899392
0.899392
0.899397
0.899401
0.899406
0.899411
0.899411
0.899416
0.899421
0.899425
0.89943
0.89943
0.899435
0.89944
0.899445
0.899449
0.899449
0.899454
0.899459
0.899464
0.899469
0.899469
0.899474
0.899478
0.899483
0.899488
0.899488
0.899493
0.899498
0.899502
0.899507
0.899507
0.899512
0.899517
0.899522
0.899527
0.899527
0.899532
0.899536
0.899541
0.899546
0.899546
0.899551
0.899556
0.899561
0.899565
0.899565
0.89957
0.899575
0.89958
0.899585
0.899585
0.89959
0.899595
0.8996
0.899604
0.899604
0.899609
0.899614
0.899619
0.899624
0.899624
0.899629
0.899634
0.899639
0.899643
0.899643
0.899648
0.899653
0.899658
0.899663
0.899663
0.899668
0.899673
0.899678
0.899683
0.899683
0.899688
0.899692
0.899697
0.899702
0.899702
0.899707
0.899712
0.899717
0.899722
0.899722
0.899727
0.899732
0.899737
0.899742
0.899742
0.899747
0.899752
0.899757
0.899762
0.899762
0.899767
0.899771
0.899776
0.899781
0.899781
0.899786
0.899791
0.899796
0.899802
0.899802
0.899807
0.899812
0.899817
0.899822
0.899822
0.899827
0.899832
0.899837
0.899842
0.899842
0.899847
0.899852
0.899857
0.899862
0.899862
0.899867
0.899872
0.899877
0.899882
0.899882
0.899887
0.899892
0.899897
0.899903
0.899903
0.899908
0.899913
0.899918
0.899923
0.899923
0.899928
0.899933
0.899938
0.899943
0.899943
0.899948
0.899953
0.899958
0.899964
0.899964
0.899969
0.899974
0.899979
0.899984
0.899984
0.899989
0.899994
0.899999
0.900004
0.900004
0.900009
0.900015
0.90002
0.900025
0.900025
0.90003
0.900035
0.90004
0.900045
0.900045
0.90005
0.900055
0.900061
0.900066
0.900066
0.900071
0.900076
0.900081
0.900086
0.900086
0.900091
0.900096
0.900102
0.900107
0.900107
0.900112
0.900117
0.900122
0.900127
0.900127
0.900133
0.900138
0.900143
0.900148
0.900148
0.900153
0.900158
0.900164
0.900169
0.900169
0.900174
0.900179
0.900184
0.900189
0.900189
0.900195
0.9002
0.900205
0.90021
0.90021
0.900216
0.900221
0.900226
0.900231
0.900231
0.900237
0.900242
0.900247
0.900252
0.900252
0.900258
0.900263
0.900268
0.900274
0.900274
0.900279
0.900284
0.900289
0.900295
0.900295
0.9003
0.900305
0.900311
0.900316
0.900316
0.900321
0.900326
0.900332
0.900337
0.900337
0.900342
0.900348
0.900353
0.900358
0.900358
0.900364
0.900369
0.900374
0.90038
0.90038
0.900385
0.90039
0.900396
0.900401
0.900401
0.900406
0.900412
0.900417
0.900422
0.900422
0.900428
0.900433
0.900438
0.900444
0.900444
0.900449
0.900454
0.90046
0.900465
0.900465
0.90047
0.900476
0.900481
0.900486
0.900486
0.900492
0.900497
0.900503
0.900508
0.900508
0.900513
0.900519
0.900524
0.900529
0.900529
0.900535
0.90054
0.900546
0.900551
0.900551
0.900556
0.900562
0.900567
0.900572
0.900572
0.900578
0.900583
0.900589
0.900594
0.900594
0.900599
0.900605
0.90061
0.900616
0.900616
0.900621
0.900627
0.900632
0.900637
0.900637
0.900643
0.900648
0.900654
0.900659
0.900659
0.900665
0.90067
0.900676
0.900681
0.900681
0.900687
0.900692
0.900698
0.900703
0.900703
0.900709
0.900714
0.90072
0.900725
0.900725
0.900731
0.900736
0.900742
0.900747
0.900747
0.900753
0.900759
0.900764
0.90077
0.90077
0.900775
0.900781
0.900786
0.900792
0.900792
0.900797
0.900803
0.900808
0.900814
0.900814
0.90082
0.900825
0.900831
0.900836
0.900836
0.900842
0.900847
0.900853
0.900858
0.900858
0.900864
0.90087
0.900875
0.900881
0.900881
0.900886
0.900892
0.900897
0.900903
0.900903
0.900909
0.900914
0.90092
0.900925
0.900925
0.900931
0.900937
0.900942
0.900948
0.900948
0.900953
0.900959
0.900964
0.90097
0.90097
0.900976
0.900981
0.900987
0.900993
0.900993
0.900998
0.901004
0.901009
0.901015
0.901015
0.901021
0.901026
0.901032
0.901037
0.901037
0.901043
0.901049
0.901054
0.90106
0.90106
0.901066
0.901071
0.901077
0.901083
0.901083
0.901088
0.901094
0.9011
0.901106
0.901106
0.901111
0.901117
0.901123
0.901128
0.901128
0.901134
0.90114
0.901146
0.901151
0.901151
0.901157
0.901163
0.901169
0.901174
0.901174
0.90118
0.901186
0.901192
0.901197
0.901197
0.901203
0.901209
0.901215
0.90122
0.90122
0.901226
0.901232
0.901238
0.901243
0.901243
0.901249
0.901255
0.901261
0.901267
0.901267
0.901272
0.901278
0.901284
0.90129
0.90129
0.901295
0.901301
0.901307
0.901313
0.901313
0.901319
0.901324
0.90133
0.901336
0.901336
0.901342
0.901348
0.901353
0.901359
0.901359
0.901365
0.901371
0.901377
0.901382
0.901382
0.901388
0.901394
0.9014
0.901406
0.901406
0.901412
0.901417
0.901423
0.901429
0.901429
0.901435
0.901441
0.901446
0.901452
0.901452
0.901458
0.901464
0.90147
0.901476
0.901476
0.901482
0.901487
0.901493
0.901499
0.901499
0.901505
0.901511
0.901517
0.901523
0.901523
0.901529
0.901535
0.90154
0.901546
0.901546
0.901552
0.901558
0.901564
0.90157
0.90157
0.901576
0.901582
0.901588
0.901594
0.901594
0.9016
0.901606
0.901612
0.901618
0.901618
0.901624
0.90163
0.901636
0.901642
0.901642
0.901648
0.901654
0.90166
0.901666
0.901666
0.901672
0.901678
0.901683
0.901689
0.901689
0.901695
0.901701
0.901707
0.901713
0.901713
0.901719
0.901725
0.901731
0.901737
0.901737
0.901743
0.901749
0.901755
0.901761
0.901761
0.901767
0.901773
0.901779
0.901785
0.901785
0.901791
0.901797
0.901804
0.90181
0.90181
0.901816
0.901822
0.901828
0.901834
0.901834
0.90184
0.901846
0.901852
0.901858
0.901858
0.901864
0.90187
0.901876
0.901882
0.901882
0.901888
0.901894
0.9019
0.901906
0.901906
0.901912
0.901918
0.901924
0.90193
0.90193
0.901936
0.901942
0.901949
0.901955
0.901955
0.901961
0.901967
0.901973
0.901979
0.901979
0.901985
0.901991
0.901998
0.902004
0.902004
0.90201
0.902016
0.902022
0.902028
0.902028
0.902034
0.902041
0.902047
0.902053
0.902053
0.902059
0.902065
0.902072
0.902078
0.902078
0.902084
0.90209
0.902096
0.902102
0.902102
0.902109
0.902115
0.902121
0.902127
0.902127
0.902133
0.90214
0.902146
0.902152
0.902152
0.902158
0.902164
0.902171
0.902177
0.902177
0.902183
0.902189
0.902195
0.902202
0.902202
0.902208
0.902214
0.90222
0.902227
0.902227
0.902233
0.902239
0.902245
0.902251
0.902251
0.902258
0.902264
0.90227
0.902276
0.902276
0.902283
0.902289
0.902295
0.902301
0.902301
0.902307
0.902314
0.90232
0.902326
0.902326
0.902332
0.902339
0.902345
0.902351
0.902351
0.902357
0.902364
0.90237
0.902376
0.902376
0.902383
0.902389
0.902395
0.902402
0.902402
0.902408
0.902414
0.90242
0.902427
0.902427
0.902433
0.90244
0.902446
0.902452
0.902452
0.902459
0.902465
0.902471
0.902478
0.902478
0.902484
0.90249
0.902497
0.902503
0.902503
0.90251
0.902516
0.902522
0.902529
0.902529
0.902535
0.902541
0.902548
0.902554
0.902554
0.902561
0.902567
0.902573
0.90258
0.90258
0.902586
0.902593
0.902599
0.902605
0.902605
0.902612
0.902618
0.902625
0.902631
0.902631
0.902637
0.902644
0.90265
0.902657
0.902657
0.902663
0.90267
0.902676
0.902682
0.902682
0.902689
0.902695
0.902702
0.902708
0.902708
0.902714
0.902721
0.902727
0.902734
0.902734
0.90274
0.902747
0.902753
0.90276
0.90276
0.902766
0.902772
0.902779
0.902785
0.902785
0.902792
0.902798
0.902805
0.902811
0.902811
0.902818
0.902824
0.902831
0.902837
0.902837
0.902844
0.90285
0.902857
0.902863
0.902863
0.90287
0.902876
0.902883
0.902889
0.902889
0.902896
0.902903
0.902909
0.902916
0.902916
0.902922
0.902929
0.902935
0.902942
0.902942
0.902948
0.902955
0.902962
0.902968
0.902968
0.902975
0.902981
0.902988
0.902995
0.902995
0.903001
0.903008
0.903014
0.903021
0.903021
0.903028
0.903034
0.903041
0.903047
0.903047
0.903054
0.903061
0.903067
0.903074
0.903074
0.90308
0.903087
0.903094
0.9031
0.9031
0.903107
0.903113
0.90312
0.903127
0.903127
0.903133
0.90314
0.903146
0.903153
0.903153
0.90316
0.903166
0.903173
0.90318
0.90318
0.903186
0.903193
0.903199
0.903206
0.903206
0.903213
0.903219
0.903226
0.903233
0.903233
0.903239
0.903246
0.903253
0.903259
0.903259
0.903266
0.903273
0.903279
0.903286
0.903286
0.903293
0.9033
0.903306
0.903313
0.903313
0.90332
0.903326
0.903333
0.90334
0.90334
0.903347
0.903353
0.90336
0.903367
0.903367
0.903374
0.903381
0.903387
0.903394
0.903394
0.903401
0.903408
0.903414
0.903421
0.903421
0.903428
0.903435
0.903441
0.903448
0.903448
0.903455
0.903462
0.903469
0.903475
0.903475
0.903482
0.903489
0.903496
0.903503
0.903503
0.903509
0.903516
0.903523
0.90353
0.90353
0.903537
0.903543
0.90355
0.903557
0.903557
0.903564
0.903571
0.903577
0.903584
0.903584
0.903591
0.903598
0.903605
0.903611
0.903611
0.903618
0.903625
0.903632
0.903639
0.903639
0.903646
0.903652
0.903659
0.903666
0.903666
0.903673
0.90368
0.903687
0.903693
0.903693
0.9037
0.903707
0.903714
0.903721
0.903721
0.903728
0.903735
0.903742
0.903748
0.903748
0.903755
0.903762
0.903769
0.903776
0.903776
0.903783
0.90379
0.903797
0.903804
0.903804
0.903811
0.903818
0.903825
0.903832
0.903832
0.903839
0.903846
0.903853
0.90386
0.90386
0.903866
0.903873
0.90388
0.903887
0.903887
0.903894
0.903901
0.903908
0.903915
0.903915
0.903922
0.903929
0.903936
0.903943
0.903943
0.90395
0.903957
0.903964
0.903971
0.903971
0.903978
0.903985
0.903992
0.903999
0.903999
0.904006
0.904013
0.90402
0.904027
0.904027
0.904034
0.904041
0.904048
0.904055
0.904055
0.904062
0.904069
0.904076
0.904083
0.904083
0.90409
0.904097
0.904104
0.904111
0.904111
0.904118
0.904125
0.904132
0.904139
0.904139
0.904146
0.904153
0.90416
0.904167
0.904167
0.904175
0.904182
0.904189
0.904196
0.904196
0.904203
0.90421
0.904217
0.904224
0.904224
0.904231
0.904238
0.904246
0.904253
0.904253
0.90426
0.904267
0.904274
0.904281
0.904281
0.904288
0.904296
0.904303
0.90431
0.90431
0.904317
0.904324
0.904331
0.904338
0.904338
0.904346
0.904353
0.90436
0.904367
0.904367
0.904374
0.904381
0.904389
0.904396
0.904396
0.904403
0.90441
0.904417
0.904424
0.904424
0.904431
0.904439
0.904446
0.904453
0.904453
0.90446
0.904467
0.904475
0.904482
0.904482
0.904489
0.904496
0.904503
0.90451
0.90451
0.904518
0.904525
0.904532
0.904539
0.904539
0.904546
0.904554
0.904561
0.904568
0.904568
0.904575
0.904582
0.90459
0.904597
0.904597
0.904604
0.904611
0.904619
0.904626
0.904626
0.904633
0.90464
0.904648
0.904655
0.904655
0.904662
0.90467
0.904677
0.904684
0.904684
0.904692
0.904699
0.904706
0.904713
0.904713
0.904721
0.904728
0.904735
0.904743
0.904743
0.90475
0.904757
0.904765
0.904772
0.904772
0.904779
0.904787
0.904794
0.904801
0.904801
0.904809
0.904816
0.904823
0.904831
0.904831
0.904838
0.904845
0.904853
0.90486
0.90486
0.904867
0.904875
0.904882
0.904889
0.904889
0.904897
0.904904
0.904911
0.904919
0.904919
0.904926
0.904934
0.904941
0.904948
0.904948
0.904956
0.904963
0.90497
0.904978
0.904978
0.904985
0.904992
0.905
0.905007
0.905007
0.905015
0.905022
0.905029
0.905037
0.905037
0.905044
0.905052
0.905059
0.905067
0.905067
0.905074
0.905081
0.905089
0.905096
0.905096
0.905104
0.905111
0.905119
0.905126
0.905126
0.905134
0.905141
0.905149
0.905156
0.905156
0.905164
0.905171
0.905179
0.905186
0.905186
0.905194
0.905201
0.905209
0.905216
0.905216
0.905224
0.905231
0.905239
0.905246
0.905246
0.905254
0.905261
0.905269
0.905276
0.905276
0.905284
0.905291
0.905299
0.905306
0.905306
0.905314
0.905321
0.905329
0.905336
0.905336
0.905344
0.905351
0.905359
0.905366
0.905366
0.905374
0.905381
0.905389
0.905397
0.905397
0.905404
0.905412
0.905419
0.905427
0.905427
0.905434
0.905442
0.905449
0.905457
0.905457
0.905465
0.905472
0.90548