<?xml version="1.0"?>
<VTKFile type="UnstructuredGrid" version="0.1" byte_order="LittleEndian">
<UnstructuredGrid>
<Piece NumberOfPoints="5000" NumberOfCells="4000">
<PointData Scalars="Reaction 0">
<DataArray type="Float32" Name="Reaction 0" format="ascii">
0.632931
0.632931
0.632931
0.632931
0.632931
0.632931
0.632931
0.632931
0.632931
0.632931
0.632931
0.632931
0.632931
0.632931
0.632931
0.632931
0.632931
0.632932
0.632932
0.632932
0.632932
0.632932
0.632932
0.632932
0.632932
0.632932
0.632932
0.632932
0.632932
0.632932
0.632932
0.632932
0.632932
0.632932
0.632933
0.632933
0.632933
0.632933
0.632933
0.632933
0.632933
0.632933
0.632933
0.632933
0.632933
0.632933
0.632934
0.632934
0.632934
0.632934
0.632934
0.632934
0.632934
0.632934
0.632934
0.632934
0.632935
0.632935
0.632935
0.632935
0.632935
0.632935
0.632935
0.632936
0.632936
0.632936
0.632936
0.632936
0.632936
0.632937
0.632937
0.632937
0.632937
0.632937
0.632937
0.632937
0.632938
0.632938
0.632938
0.632938
0.632938
0.632938
0.632939
0.632939
0.632939
0.632939
0.632939
0.63294
0.63294
0.63294
0.63294
0.63294
0.632941
0.632941
0.632941
0.632941
0.632941
0.632942
0.632942
0.632942
0.632942
0.632942
0.632943
0.632943
0.632943
0.632943
0.632944
0.632944
0.632944
0.632944
0.632944
0.632945
0.632945
0.632945
0.632946
0.632946
0.632946
0.632946
0.632947
0.632947
0.632947
0.632947
0.632948
0.632948
0.632948
0.632948
0.632949
0.632949
0.632949
0.63295
0.63295
0.63295
0.63295
0.632951
0.632951
0.632951
0.632951
0.632952
0.632952
0.632953
0.632953
0.632953
0.632953
0.632954
0.632954
0.632954
0.632955
0.632955
0.632955
0.632956
0.632956
0.632956
0.632957
0.632957
0.632957
0.632957
0.632958
0.632958
0.632959
0.632959
0.632959
0.63296
0.63296
0.63296
0.632961
0.632961
0.632961
0.632962
0.632962
0.632963
0.632963
0.632963
0.632964
0.632964
0.632965
0.632965
0.632965
0.632966
0.632966
0.632967
0.632967
0.632967
0.632968
0.632968
0.632969
0.632969
0.632969
0.63297
0.63297
0.632971
0.632971
0.632971
0.632972
0.632972
0.632973
0.632973
0.632973
0.632974
0.632974
0.632975
0.632975
0.632975
0.632976
0.632976
0.632977
0.632977
0.632978
0.632978
0.632979
0.632979
0.632979
0.63298
0.63298
0.632981
0.632982
0.632982
0.632982
0.632983
0.632983
0.632984
0.632984
0.632985
0.632985
0.632986
0.632986
0.632986
0.632987
0.632988
0.632988
0.632989
0.632989
0.63299
0.63299
0.632991
0.632991
0.632991
0.632992
0.632993
0.632993
0.632994
0.632994
0.632995
0.632995
0.632996
0.632997
0.632997
0.632997
0.632998
0.632999
0.632999
0.632999
0.633
0.633001
0.633001
0.633002
0.633002
0.633003
0.633004
0.633004
0.633005
0.633005
0.633006
0.633006
0.633007
0.633008
0.633008
0.633009
0.633009
0.63301
0.633011
0.633011
0.633011
0.633012
0.633013
0.633014
0.633014
0.633014
0.633015
0.633016
0.633017
0.633017
0.633018
0.633018
0.633019
0.63302
0.63302
0.633021
0.633021
0.633022
0.633023
0.633023
0.633024
0.633025
0.633025
0.633026
0.633026
0.633027
0.633028
0.633029
0.633029
0.633029
0.63303
0.633031
0.633032
0.633033
0.633033
0.633034
0.633034
0.633035
0.633036
0.633036
0.633037
0.633038
0.633039
0.633039
0.633039
0.63304
0.633041
0.633042
0.633043
0.633043
0.633044
0.633045
0.633046
0.633046
0.633046
0.633047
0.633048
0.633049
0.63305
0.63305
0.633051
0.633052
0.633053
0.633054
0.633054
0.633055
0.633056
0.633056
0.633057
0.633057
0.633058
0.633059
0.63306
0.633061
0.633061
0.633062
0.633063
0.633064
0.633065
0.633065
0.633066
0.633067
0.633068
0.633069
0.633069
0.63307
0.633071
0.633072
0.633073
0.633073
0.633074
0.633075
0.633076
0.633077
0.633077
0.633078
0.633079
0.63308
0.633081
0.633081
0.633082
0.633083
0.633084
0.633085
0.633085
0.633086
0.633087
0.633088
0.633089
0.633089
0.63309
0.633091
0.633092
0.633093
0.633093
0.633094
0.633095
0.633096
0.633097
0.633097
0.633098
0.633099
0.6331
0.633102
0.633102
0.633103
0.633104
0.633105
0.633106
0.633106
0.633107
0.633108
0.633109
0.63311
0.63311
0.633111
0.633113
0.633114
0.633115
0.633115
0.633116
0.633117
0.633118
0.633119
0.633119
0.63312
0.633122
0.633123
0.633124
0.633124
0.633125
0.633126
0.633127
0.633128
0.633128
0.63313
0.633131
0.633132
0.633133
0.633133
0.633134
0.633136
0.633137
0.633138
0.633138
0.633139
0.63314
0.633141
0.633143
0.633143
0.633144
0.633145
0.633146
0.633148
0.633148
0.633149
0.63315
0.633151
0.633152
0.633152
0.633154
0.633155
0.633156
0.633157
0.633157
0.633159
0.63316
0.633161
0.633162
0.633162
0.633164
0.633165
0.633166
0.633167
0.633167
0.633169
0.63317
0.633171
0.633173
0.633173
0.633174
0.633175
0.633176
0.633178
0.633178
0.633179
0.63318
0.633182
0.633183
0.633183
0.633184
0.633186
0.633187
0.633188
0.633188
0.633189
0.633191
0.633192
0.633193
0.633193
0.633195
0.633196
0.633197
0.633199
0.633199
0.6332
0.633202
0.633203
0.633204
0.633204
0.633206
0.633207
0.633208
0.63321
0.63321
0.633211
0.633213
0.633214
0.633215
0.633215
0.633217
0.633218
0.63322
0.633221
0.633221
0.633222
0.633224
0.633225
0.633227
0.633227
0.633228
0.63323
0.633231
0.633232
0.633232
0.633234
0.633235
0.633237
0.633238
0.633238
0.63324
0.633241
0.633243
0.633244
0.633244
0.633246
0.633247
0.633249
0.63325
0.63325
0.633251
0.633253
0.633254
0.633256
0.633256
0.633257
0.633259
0.63326
0.633262
0.633262
0.633263
0.633265
0.633266
0.633268
0.633268
0.63327
0.633271
0.633273
0.633274
0.633274
0.633276
0.633277
0.633279
0.63328
0.63328
0.633282
0.633283
0.633285
0.633287
0.633287
0.633288
0.63329
0.633291
0.633293
0.633293
0.633294
0.633296
0.633298
0.633299
0.633299
0.633301
0.633302
0.633304
0.633306
0.633306
0.633307
0.633309
0.63331
0.633312
0.633312
0.633314
0.633315
0.633317
0.633318
0.633318
0.63332
0.633322
0.633323
0.633325
0.633325
0.633327
0.633328
0.63333
0.633332
0.633332
0.633333
0.633335
0.633337
0.633338
0.633338
0.63334
0.633342
0.633343
0.633345
0.633345
0.633347
0.633348
0.63335
0.633352
0.633352
0.633354
0.633355
0.633357
0.633359
0.633359
0.63336
0.633362
0.633364
0.633366
0.633366
0.633367
0.633369
0.633371
0.633372
0.633372
0.633374
0.633376
0.633378
0.633379
0.633379
0.633381
0.633383
0.633385
0.633387
0.633387
0.633388
0.63339
0.633392
0.633394
0.633394
0.633395
0.633397
0.633399
0.633401
0.633401
0.633403
0.633404
0.633406
0.633408
0.633408
0.63341
0.633412
0.633414
0.633415
0.633415
0.633417
0.633419
0.633421
0.633423
0.633423
0.633425
0.633426
0.633428
0.63343
0.63343
0.633432
0.633434
0.633436
0.633438
0.633438
0.633439
0.633441
0.633443
0.633445
0.633445
0.633447
0.633449
0.633451
0.633453
0.633453
0.633454
0.633456
0.633458
0.63346
0.63346
0.633462
0.633464
0.633466
0.633468
0.633468
0.63347
0.633472
0.633474
0.633476
0.633476
0.633478
0.633479
0.633481
0.633483
0.633483
0.633485
0.633487
0.633489
0.633491
0.633491
0.633493
0.633495
0.633497
0.633499
0.633499
0.633501
0.633503
0.633505
0.633507
0.633507
0.633509
0.633511
0.633513
0.633515
0.633515
0.633517
0.633519
0.633521
0.633523
0.633523
0.633525
0.633527
0.633529
0.633531
0.633531
0.633533
0.633535
0.633537
0.633539
0.633539
0.633542
0.633544
0.633546
0.633548
0.633548
0.63355
0.633552
0.633554
0.633556
0.633556
0.633558
0.63356
0.633562
0.633564
0.633564
0.633566
0.633569
0.633571
0.633573
0.633573
0.633575
0.633577
0.633579
0.633581
0.633581
0.633583
0.633585
0.633588
0.63359
0.63359
0.633592
0.633594
0.633596
0.633598
0.633598
0.6336
0.633603
0.633605
0.633607
0.633607
0.633609
0.633611
0.633613
0.633616
0.633616
0.633618
0.63362
0.633622
0.633624
0.633624
0.633626
0.633629
0.633631
0.633633
0.633633
0.633635
0.633637
0.63364
0.633642
0.633642
0.633644
0.633646
0.633649
0.633651
0.633651
0.633653
0.633655
0.633657
0.63366
0.63366
0.633662
0.633664
0.633666
0.633669
0.633669
0.633671
0.633673
0.633675
0.633678
0.633678
0.63368
0.633682
0.633685
0.633687
0.633687
0.633689
0.633692
0.633694
0.633696
0.633696
0.633698
0.633701
0.633703
0.633705
0.633705
0.633708
0.63371
0.633712
0.633715
0.633715
0.633717
0.633719
0.633722
0.633724
0.633724
0.633727
0.633729
0.633731
0.633734
0.633734
0.633736
0.633738
0.633741
0.633743
0.633743
0.633745
0.633748
0.63375
0.633753
0.633753
0.633755
0.633757
0.63376
0.633762
0.633762
0.633765
0.633767
0.633769
0.633772
0.633772
0.633774
0.633777
0.633779
0.633782
0.633782
0.633784
0.633786
0.633789
0.633791
0.633791
0.633794
0.633796
0.633799
0.633801
0.633801
0.633804
0.633806
0.633809
0.633811
0.633811
0.633813
0.633816
0.633818
0.633821
0.633821
0.633823
0.633826
0.633828
0.633831
0.633831
0.633833
0.633836
0.633838
0.633841
0.633841
0.633843
0.633846
0.633849
0.633851
0.633851
0.633854
0.633856
0.633859
0.633861
0.633861
0.633864
0.633866
0.633869
0.633871
0.633871
0.633874
0.633877
0.633879
0.633882
0.633882
0.633884
0.633887
0.633889
0.633892
0.633892
0.633895
0.633897
0.6339
0.633902
0.633902
0.633905
0.633908
0.63391
0.633913
0.633913
0.633915
0.633918
0.633921
0.633923
0.633923
0.633926
0.633929
0.633931
0.633934
0.633934
0.633937
0.633939
0.633942
0.633945
0.633945
0.633947
0.63395
0.633953
0.633955
0.633955
0.633958
0.633961
0.633963
0.633966
0.633966
0.633969
0.633971
0.633974
0.633977
0.633977
0.633979
0.633982
0.633985
0.633988
0.633988
0.63399
0.633993
0.633996
0.633998
0.633998
0.634001
0.634004
0.634007
0.634009
0.634009
0.634012
0.634015
0.634018
0.63402
0.63402
0.634023
0.634026
0.634029
0.634032
0.634032
0.634034
0.634037
0.63404
0.634043
0.634043
0.634045
0.634048
0.634051
0.634054
0.634054
0.634057
0.634059
0.634062
0.634065
0.634065
0.634068
0.634071
0.634074
0.634076
0.634076
0.634079
0.634082
0.634085
0.634088
0.634088
0.634091
0.634093
0.634096
0.634099
0.634099
0.634102
0.634105
0.634108
0.634111
0.634111
0.634113
0.634116
0.634119
0.634122
0.634122
0.634125
0.634128
0.634131
0.634134
0.634134
0.634136
0.634139
0.634142
0.634145
0.634145
0.634148
0.634151
0.634154
0.634157
0.634157
0.63416
0.634163
0.634166
0.634169
0.634169
0.634172
0.634174
0.634177
0.63418
0.63418
0.634183
0.634186
0.634189
0.634192
0.634192
0.634195
0.634198
0.634201
0.634204
0.634204
0.634207
0.63421
0.634213
0.634216
0.634216
0.634219
0.634222
0.634225
0.634229
0.634229
0.634232
0.634235
0.634238
0.634241
0.634241
0.634244
0.634247
0.63425
0.634253
0.634253
0.634256
0.634259
0.634262
0.634265
0.634265
0.634268
0.634271
0.634274
0.634277
0.634277
0.63428
0.634284
0.634287
0.63429
0.63429
0.634293
0.634296
0.634299
0.634302
0.634302
0.634305
0.634308
0.634311
0.634315
0.634315
0.634318
0.634321
0.634324
0.634327
0.634327
0.63433
0.634333
0.634337
0.63434
0.63434
0.634343
0.634346
0.634349
0.634352
0.634352
0.634355
0.634359
0.634362
0.634365
0.634365
0.634368
0.634371
0.634375
0.634378
0.634378
0.634381
0.634384
0.634387
0.634391
0.634391
0.634394
0.634397
0.6344
0.634403
0.634403
0.634407
0.63441
0.634413
0.634416
0.634416
0.63442
0.634423
0.634426
0.634429
0.634429
0.634433
0.634436
0.634439
0.634442
0.634442
0.634446
0.634449
0.634452
0.634456
0.634456
0.634459
0.634462
0.634465
0.634469
0.634469
0.634472
0.634475
0.634479
0.634482
0.634482
0.634485
0.634489
0.634492
0.634495
0.634495
0.634498
0.634502
0.634505
0.634509
0.634509
0.634512
0.634515
0.634519
0.634522
0.634522
0.634525
0.634529
0.634532
0.634535
0.634535
0.634539
0.634542
0.634545
0.634549
0.634549
0.634552
0.634556
0.634559
0.634562
0.634562
0.634566
0.634569
0.634573
0.634576
0.634576
0.634579
0.634583
0.634586
0.63459
0.63459
0.634593
0.634597
0.6346
0.634603
0.634603
0.634607
0.63461
0.634614
0.634617
0.634617
0.634621
0.634624
0.634628
0.634631
0.634631
0.634634
0.634638
0.634641
0.634645
0.634645
0.634648
0.634652
0.634655
0.634659
0.634659
0.634662
0.634666
0.634669
0.634673
0.634673
0.634676
0.63468
0.634683
0.634687
0.634687
0.634691
0.634694
0.634698
0.634701
0.634701
0.634705
0.634708
0.634712
0.634716
0.634716
0.634719
0.634723
0.634726
0.63473
0.63473
0.634733
0.634737
0.634741
0.634744
0.634744
0.634748
0.634751
0.634755
0.634759
0.634759
0.634762
0.634766
0.634769
0.634773
0.634773
0.634777
0.63478
0.634784
0.634788
0.634788
0.634791
0.634795
0.634799
0.634802
0.634802
0.634806
0.63481
0.634813
0.634817
0.634817
0.634821
0.634824
0.634828
0.634832
0.634832
0.634835
0.634839
0.634843
0.634846
0.634846
0.63485
0.634854
0.634857
0.634861
0.634861
0.634865
0.634869
0.634872
0.634876
0.634876
0.63488
0.634883
0.634887
0.634891
0.634891
0.634895
0.634898
0.634902
0.634906
0.634906
0.63491
0.634913
0.634917
0.634921
0.634921
0.634925
0.634929
0.634932
0.634936
0.634936
0.63494
0.634944
0.634948
0.634951
0.634951
0.634955
0.634959
0.634963
0.634967
0.634967
0.63497
0.634974
0.634978
0.634982
0.634982
0.634986
0.63499
0.634993
0.634997
0.634997
0.635001
0.635005
0.635009
0.635013
0.635013
0.635017
0.63502
0.635024
0.635028
0.635028
0.635032
0.635036
0.63504
0.635044
0.635044
0.635048
0.635051
0.635055
0.635059
0.635059
0.635063
0.635067
0.635071
0.635075
0.635075
0.635079
0.635083
0.635087
0.635091
0.635091
0.635095
0.635098
0.635102
0.635106
0.635106
0.63511
0.635114
0.635118
0.635122
0.635122
0.635126
0.63513
0.635134
0.635138
0.635138
0.635142
0.635146
0.63515
0.635154
0.635154
0.635158
0.635162
0.635166
0.63517
0.63517
0.635174
0.635178
0.635182
0.635186
0.635186
0.63519
0.635194
0.635198
0.635202
0.635202
0.635206
0.63521
0.635214
0.635218
0.635218
0.635222
0.635226
0.635231
0.635235
0.635235
0.635239
0.635243
0.635247
0.635251
0.635251
0.635255
0.635259
0.635263
0.635267
0.635267
0.635272
0.635276
0.63528
0.635284
0.635284
0.635288
0.635292
0.635296
0.6353
0.6353
0.635305
0.635309
0.635313
0.635317
0.635317
0.635321
0.635325
0.635329
0.635334
0.635334
0.635338
0.635342
0.635346
0.63535
0.63535
0.635355
0.635359
0.635363
0.635367
0.635367
0.635371
0.635375
0.63538
0.635384
0.635384
0.635388
0.635392
0.635397
0.635401
0.635401
0.635405
0.635409
0.635413
0.635418
0.635418
0.635422
0.635426
0.63543
0.635435
0.635435
0.635439
0.635443
0.635447
0.635452
0.635452
0.635456
0.63546
0.635465
0.635469
0.635469
0.635473
0.635477
0.635482
0.635486
0.635486
0.63549
0.635495
0.635499
0.635503
0.635503
0.635508
0.635512
0.635516
0.635521
0.635521
0.635525
0.635529
0.635534
0.635538
0.635538
0.635542
0.635547
0.635551
0.635555
0.635555
0.63556
0.635564
0.635568
0.635573
0.635573
0.635577
0.635582
0.635586
0.63559
0.63559
0.635595
0.635599
0.635604
0.635608
0.635608
0.635612
0.635617
0.635621
0.635626
0.635626
0.63563
0.635634
0.635639
0.635643
0.635643
0.635648
0.635652
0.635657
0.635661
0.635661
0.635665
0.63567
0.635674
0.635679
0.635679
0.635683
0.635688
0.635692
0.635697
0.635697
0.635701
0.635706
0.63571
0.635715
0.635715
0.635719
0.635724
0.635728
0.635733
0.635733
0.635737
0.635742
0.635746
0.635751
0.635751
0.635755
0.63576
0.635765
0.635769
0.635769
0.635774
0.635778
0.635783
0.635787
0.635787
0.635792
0.635797
0.635801
0.635806
0.635806
0.63581
0.635815
0.63582
0.635824
0.635824
0.635829
0.635833
0.635838
0.635843
0.635843
0.635847
0.635852
0.635856
0.635861
0.635861
0.635866
0.63587
0.635875
0.63588
0.63588
0.635884
0.635889
0.635894
0.635898
0.635898
0.635903
0.635907
0.635912
0.635917
0.635917
0.635922
0.635926
0.635931
0.635936
0.635936
0.63594
0.635945
0.63595
0.635954
0.635954
0.635959
0.635964
0.635968
0.635973
0.635973
0.635978
0.635983
0.635987
0.635992
0.635992
0.635997
0.636002
0.636006
0.636011
0.636011
0.636016
0.636021
0.636025
0.63603
0.63603
0.636035
0.63604
0.636044
0.636049
0.636049
0.636054
0.636059
0.636064
0.636068
0.636068
0.636073
0.636078
0.636083
0.636088
0.636088
0.636092
0.636097
0.636102
0.636107
0.636107
0.636112
0.636117
0.636121
0.636126
0.636126
0.636131
0.636136
0.636141
0.636146
0.636146
0.63615
0.636155
0.63616
0.636165
0.636165
0.63617
0.636175
0.63618
0.636185
0.636185
0.636189
0.636194
0.636199
0.636204
0.636204
0.636209
0.636214
0.636219
0.636224
0.636224
0.636229
0.636233
0.636238
0.636243
0.636243
0.636248
0.636253
0.636258
0.636263
0.636263
0.636268
0.636273
0.636278
0.636283
0.636283
0.636288
0.636293
0.636298
0.636303
0.636303
0.636308
0.636313
0.636318
0.636323
0.636323
0.636328
0.636333
0.636338
0.636343
0.636343
0.636348
0.636353
0.636358
0.636363
0.636363
0.636368
0.636373
0.636379
0.636384
0.636384
0.636389
0.636394
0.636399
0.636404
0.636404
0.636409
0.636414
0.636419
0.636424
0.636424
0.636429
0.636434
0.636439
0.636445
0.636445
0.63645
0.636455
0.63646
0.636465
0.636465
0.63647
0.636475
0.63648
0.636485
0.636485
0.636491
0.636496
0.636501
0.636506
0.636506
0.636511
0.636516
0.636521
0.636527
0.636527
0.636532
0.636537
0.636542
0.636547
0.636547
0.636553
0.636558
0.636563
0.636568
0.636568
0.636573
0.636578
0.636584
0.636589
0.636589
0.636594
0.636599
0.636605
0.63661
0.63661
0.636615
0.63662
0.636625
0.636631
0.636631
0.636636
0.636641
0.636646
0.636652
0.636652
0.636657
0.636662
0.636667
0.636673
0.636673
0.636678
0.636683
0.636689
0.636694
0.636694
0.636699
0.636704
0.63671
0.636715
0.636715
0.63672
0.636726
0.636731
0.636736
0.636736
0.636741
0.636747
0.636752
0.636757
0.636757
0.636763
0.636768
0.636773
0.636779
0.636779
0.636784
0.636789
0.636795
0.6368
0.6368
0.636806
0.636811
0.636816
0.636822
0.636822
0.636827
0.636833
0.636838
0.636843
0.636843
0.636849
0.636854
0.63686
0.636865
0.636865
0.636871
0.636876
0.636882
0.636887
0.636887
0.636892
0.636898
0.636903
0.636909
0.636909
0.636914
0.63692
0.636925
0.636931
0.636931
0.636936
0.636942
0.636947
0.636953
0.636953
0.636958
0.636964
0.636969
0.636975
0.636975
0.63698
0.636986
0.636991
0.636997
0.636997
0.637002
0.637008
0.637013
0.637019
0.637019
0.637024
0.63703
0.637035
0.637041
0.637041
0.637047
0.637052
0.637058
0.637063
0.637063
0.637069
0.637074
0.63708
0.637086
0.637086
0.637091
0.637097
0.637102
0.637108
0.637108
0.637114
0.637119
0.637125
0.63713
0.63713
0.637136
0.637142
0.637147
0.637153
0.637153
0.637158
0.637164
0.63717
0.637175
0.637175
0.637181
0.637187
0.637192
0.637198
0.637198
0.637204
0.637209
0.637215
0.637221
0.637221
0.637226
0.637232
0.637238
0.637243
0.637243
0.637249
0.637255
0.63726
0.637266
0.637266
0.637272
0.637278
0.637283
0.637289
0.637289
0.637295
0.6373
0.637306
0.637312
0.637312
0.637318
0.637323
0.637329
0.637335
0.637335
0.637341
0.637346
0.637352
0.637358
0.637358
0.637364
0.63737
0.637375
0.637381
0.637381
0.637387
0.637393
0.637399
0.637404
0.637404
0.63741
0.637416
0.637422
0.637428
0.637428
0.637434
0.63744
0.637445
0.637451
0.637451
0.637457
0.637463
0.637469
0.637475
0.637475
0.637481
0.637487
0.637492
0.637498
0.637498
0.637504
0.63751
0.637516
0.637522
0.637522
0.637528
0.637534
0.63754
0.637546
0.637546
0.637551
0.637557
0.637563
0.637569
0.637569
0.637575
0.637581
0.637587
0.637593
0.637593
0.637599
0.637605
0.637611
0.637617
0.637617
0.637623
0.637629
0.637635
0.637641
0.637641
0.637647
0.637653
0.637659
0.637665
0.637665
0.637671
0.637677
0.637683
0.637689
0.637689
0.637695
0.637701
0.637707
0.637713
0.637713
0.637719
0.637725
0.637731
0.637737
0.637737
0.637743
0.637749
0.637755
0.637761
0.637761
0.637767
0.637773
0.637779
0.637785
0.637785
0.637791
0.637798
0.637804
0.63781
0.63781
0.637816
0.637822
0.637828
0.637834
0.637834
0.63784
0.637846
0.637852
0.637858
0.637858
0.637865
0.637871
0.637877
0.637883
0.637883
0.637889
0.637895
0.637901
0.637908
0.637908
0.637914
0.63792
0.637926
0.637932
0.637932
0.637939
0.637945
0.637951
0.637957
0.637957
0.637963
0.63797
0.637976
0.637982
0.637982
0.637988
0.637995
0.638001
0.638007
0.638007
0.638013
0.63802
0.638026
0.638032
0.638032
0.638038
0.638045
0.638051
0.638057
0.638057
0.638064
0.63807
0.638076
0.638082
0.638082
0.638089
0.638095
0.638101
0.638108
0.638108
0.638114
0.63812
0.638127
0.638133
0.638133
0.638139
0.638145
0.638152
0.638158
0.638158
0.638164
0.638171
0.638177
0.638184
0.638184
0.63819
0.638196
0.638203
0.638209
0.638209
0.638215
0.638222
0.638228
0.638235
0.638235
0.638241
0.638247
0.638254
0.63826
0.63826
0.638266
0.638273
0.638279
0.638286
0.638286
0.638292
0.638299
0.638305
0.638311
0.638311
0.638318
0.638324
0.638331
0.638337
0.638337
0.638344
0.63835
0.638357
0.638363
0.638363
0.638369
0.638376
0.638382
0.638389
0.638389
0.638395
0.638402
0.638408
0.638415
0.638415
0.638421
0.638428
0.638434
0.638441
0.638441
0.638447
0.638454
0.63846
0.638467
0.638467
0.638473
0.63848
0.638486
0.638493
0.638493
0.6385
0.638506
0.638513
0.638519
0.638519
0.638526
0.638533
0.638539
0.638546
0.638546
0.638553
0.638559
0.638566
0.638572
0.638572
0.638579
0.638586
0.638592
0.638599
0.638599
0.638606
0.638612
0.638619
0.638626
0.638626
0.638632
0.638639
0.638646
0.638652
0.638652
0.638659
0.638666
0.638672
0.638679
0.638679
0.638686
0.638692
0.638699
0.638706
0.638706
0.638712
0.638719
0.638726
0.638733
0.638733
0.638739
0.638746
0.638753
0.638759
0.638759
0.638766
0.638773
0.63878
0.638786
0.638786
0.638793
0.6388
0.638807
0.638813
0.638813
0.63882
0.638827
0.638834
0.638841
0.638841
0.638847
0.638854
0.638861
0.638868
0.638868
0.638875
0.638881
0.638888
0.638895
0.638895
0.638902
0.638909
0.638915
0.638922
0.638922
0.638929
0.638936
0.638943
0.63895
0.63895
0.638956
0.638963
0.63897
0.638977
0.638977
0.638984
0.638991
0.638997
0.639004
0.639004
0.639011
0.639018
0.639025
0.639032
0.639032
0.639039
0.639046
0.639053
0.63906
0.63906
0.639066
0.639073
0.63908
0.639087
0.639087
0.639094
0.639101
0.639108
0.639115
0.639115
0.639122
0.639129
0.639136
0.639143
0.639143
0.63915
0.639157
0.639164
0.639171
0.639171
0.639178
0.639185
0.639192
0.639199
0.639199
0.639206
0.639213
0.639221
0.639228
0.639228
0.639235
0.639242
0.639249
0.639256
0.639256
0.639263
0.63927
0.639277
0.639284
0.639284
0.639291
0.639298
0.639305
0.639312
0.639312
0.639319
0.639327
0.639334
0.639341
0.639341
0.639348
0.639355
0.639362
0.639369
0.639369
0.639376
0.639383
0.639391
0.639398
0.639398
0.639405
0.639412
0.639419
0.639426
0.639426
0.639433
0.639441
0.639448
0.639455
0.639455
0.639462
0.639469
0.639476
0.639484
0.639484
0.639491
0.639498
0.639505
0.639512
0.639512
0.63952
0.639527
0.639534
0.639541
0.639541
0.639548
0.639556
0.639563
0.63957
0.63957
0.639577
0.639584
0.639592
0.639599
0.639599
0.639606
0.639613
0.639621
0.639628
0.639628
0.639635
0.639643
0.63965
0.639657
0.639657
0.639665
0.639672
0.639679
0.639687
0.639687
0.639694
0.639701
0.639709
0.639716
0.639716
0.639723
0.639731
0.639738
0.639746
0.639746
0.639753
0.63976
0.639768
0.639775
0.639775
0.639782
0.63979
0.639797
0.639805
0.639805
0.639812
0.639819
0.639827
0.639834
0.639834
0.639842
0.639849
0.639857
0.639864
0.639864
0.639871
0.639879
0.639886
0.639894
0.639894
0.639901
0.639909
0.639916
0.639924
0.639924
0.639931
0.639938
0.639946
0.639953
0.639953
0.639961
0.639968
0.639976
0.639983
0.639983
0.639991
0.639998
0.640006
0.640013
0.640013
0.640021
0.640028
0.640036
0.640044
0.640044
0.640051
0.640059
0.640066
0.640074
0.640074
0.640081
0.640089
0.640096
0.640104
0.640104
0.640111
0.640119
0.640127
0.640134
0.640134
0.640142
0.640149
0.640157
0.640164
0.640164
0.640172
0.64018
0.640187
0.640195
0.640195
0.640202
0.64021
0.640218
0.640225
0.640225
0.640233
0.640241
0.640248
0.640256
0.640256
0.640264
0.640271
0.640279
0.640287
0.640287
0.640295
0.640302
0.64031
0.640318
0.640318
0.640325
0.640333
0.640341
0.640349
0.640349
0.640356
0.640364
0.640372
0.64038
0.64038
0.640387
0.640395
0.640403
0.640411
0.640411
0.640418
0.640426
0.640434
0.640442
0.640442
0.64045
0.640457
0.640465
0.640473
0.640473
0.640481
0.640489
0.640496
0.640504
0.640504
0.640512
0.64052
0.640528
0.640536
0.640536
0.640543
0.640551
0.640559
0.640567
0.640567
0.640575
0.640583
0.64059
0.640598
0.640598
0.640606
0.640614
0.640622
0.64063
0.64063
0.640638
0.640646
0.640653
0.640661
0.640661
0.640669
0.640677
0.640685
0.640693
0.640693
0.640701
0.640709
0.640717
0.640725
0.640725
0.640732
0.64074
0.640748
0.640756
0.640756
0.640764
0.640772
0.64078
0.640788
0.640788
0.640796
0.640804
0.640812
0.64082
0.64082
0.640828
0.640836
0.640844
0.640852
0.640852
0.64086
0.640868
0.640876
0.640884
0.640884
0.640892
0.640901
0.640909
0.640917
0.640917
0.640925
0.640933
0.640941
0.640949
0.640949
0.640957
0.640965
0.640973
0.640981
0.640981
0.64099
0.640998
0.641006
0.641014
0.641014
0.641022
0.64103
0.641038
0.641046
0.641046
0.641055
0.641063
0.641071
0.641079
0.641079
0.641087
0.641095
0.641104
0.641112
0.641112
0.64112
0.641128
0.641136
0.641144
0.641144
0.641153
0.641161
0.641169
0.641177
0.641177
0.641185
0.641194
0.641202
0.64121
0.64121
0.641218
0.641227
0.641235
0.641243
0.641243
0.641251
0.641259
0.641268
0.641276
0.641276
0.641284
0.641292
0.641301
0.641309
0.641309
0.641317
0.641325
0.641334
0.641342
0.641342
0.64135
0.641359
0.641367
0.641375
0.641375
0.641383
0.641392
0.6414
0.641408
0.641408
0.641417
0.641425
0.641433
0.641442
0.641442
0.64145
0.641459
0.641467
0.641476
0.641476
0.641484
0.641492
0.641501
0.641509
0.641509
0.641518
0.641526
0.641534
0.641543
0.641543
0.641551
0.64156
0.641568
0.641577
0.641577
0.641585
0.641594
0.641602
0.641611
0.641611
0.641619
0.641628
0.641636
0.641644
0.641644
0.641653
0.641661
0.64167
0.641678
0.641678
0.641687
0.641695
0.641704
0.641712
0.641712
0.641721
0.64173
0.641738
0.641747
0.641747
0.641755
0.641764
0.641772
0.641781
0.641781
0.641789
0.641798
0.641806
0.641815
0.641815
0.641824
0.641832
0.641841
0.641849
0.641849
0.641858
0.641866
0.641875
0.641884
0.641884
0.641892
0.641901
0.641909
0.641918
0.641918
0.641927
0.641935
0.641944
0.641952
0.641952
0.641961
0.64197
0.641978
0.641987
0.641987
0.641996
0.642004
0.642013
0.642022
0.642022
0.64203
0.642039
0.642048
0.642057
0.642057
0.642065
0.642074
0.642083
0.642092
0.642092
0.6421
0.642109
0.642118
0.642127
0.642127
0.642135
0.642144
0.642153
0.642162
0.642162
0.642171
0.642179
0.642188
0.642197
0.642197
0.642206
0.642215
0.642223
0.642232
0.642232
0.642241
0.64225
0.642259
0.642267
0.642267
0.642276
0.642285
0.642294
0.642303
0.642303
0.642312
0.642321
0.642329
0.642338
0.642338
0.642347
0.642356
0.642365
0.642374
0.642374
0.642383
0.642392
0.6424
0.642409
0.642409
0.642418
0.642427
0.642436
0.642445
0.642445
0.642454
0.642463
0.642472
0.642481
0.642481
0.64249
0.642499
0.642507
0.642516
0.642516
0.642525
0.642534
0.642543
0.642552
0.642552
0.642561
0.64257
0.642579
0.642588
0.642588
0.642597
0.642606
0.642615
0.642624
0.642624
0.642633
0.642642
0.642651
0.64266
0.64266
0.642669
0.642678
0.642687
0.642697
0.642697
0.642706
0.642715
0.642724
0.642733
0.642733
0.642742
0.642751
0.64276
0.64277
0.64277
0.642779
0.642788
0.642797
0.642806
0.642806
0.642815
0.642824
0.642833
0.642843
0.642843
0.642852
0.642861
0.64287
0.642879
0.642879
0.642888
0.642898
0.642907
0.642916
0.642916
0.642925
0.642934
0.642944
0.642953
0.642953
0.642962
0.642971
0.64298
0.64299
0.64299
0.642999
0.643008
0.643017
0.643027
0.643027
0.643036
0.643045
0.643054
0.643064
0.643064
0.643073
0.643082
0.643091
0.643101
0.643101
0.64311
0.643119
0.643128
0.643138
0.643138
0.643147
0.643156
0.643166
0.643175
0.643175
0.643184
0.643193
0.643203
0.643212
0.643212
0.643221
0.643231
0.64324
0.643249
0.643249
0.643259
0.643268
0.643278
0.643287
0.643287
0.643296
0.643306
0.643315
0.643325
0.643325
0.643334
0.643344
0.643353
0.643363
0.643363
0.643372
0.643381
0.643391
0.6434
0.6434
0.64341
0.643419
0.643429
0.643438
0.643438
0.643448
0.643457
0.643467
0.643476
0.643476
0.643486
0.643495
0.643505
0.643514
0.643514
0.643524
0.643533
0.643543
0.643552
0.643552
0.643562
0.643571
0.643581
0.643591
0.643591
0.6436
0.64361
0.643619
0.643629
0.643629
0.643638
0.643648
0.643658
0.643667
0.643667
0.643677
0.643686
0.643696
0.643705
0.643705
0.643715
0.643725
0.643734
0.643744
0.643744
0.643753
0.643763
0.643773
0.643782
0.643782
0.643792
0.643802
0.643811
0.643821
0.643821
0.64383
0.64384
0.64385
0.643859
0.643859
0.643869
0.643879
0.643889
0.643898
0.643898
0.643908
0.643918
0.643928
0.643937
0.643937
0.643947
0.643957
0.643967
0.643977
0.643977
0.643986
0.643996
0.644006
0.644016
0.644016
0.644025
0.644035
0.644045
0.644055
0.644055
0.644065
0.644075
0.644084
0.644094
0.644094
0.644104
0.644114
0.644124
0.644134
0.644134
0.644143
0.644153
0.644163
0.644173
0.644173
0.644183
0.644193
0.644203
0.644212
0.644212
0.644222
0.644232
0.644242
0.644252
0.644252
0.644262
0.644272
0.644282
0.644292
0.644292
0.644302
0.644311
0.644321
0.644331
0.644331
0.644341
0.644351
0.644361
0.644371
0.644371
0.644381
0.644391
0.644401
0.644411
0.644411
0.644421
0.644431
0.644441
0.644451
0.644451
0.644461
0.644471
0.644481
0.644491
0.644491
0.644501
0.644511
0.644521
0.644531
0.644531
0.644541
0.644551
0.644561
0.644571
0.644571
0.644581
0.644592
0.644602
0.644612
0.644612
0.644622
0.644632
0.644642
0.644652
0.644652
0.644662
0.644673
0.644683
0.644693
0.644693
0.644703
0.644713
0.644723
0.644733
0.644733
0.644744
0.644754
0.644764
0.644774
0.644774
0.644784
0.644795
0.644805
0.644815
0.644815
0.644825
0.644835
0.644846
0.644856
0.644856
0.644866
0.644876
0.644886
0.644897
0.644897
0.644907
0.644917
0.644927
0.644938
0.644938
0.644948
0.644958
0.644968
0.644979
0.644979
0.644989
0.644999
0.645009
0.64502
0.64502
0.64503
0.64504
0.64505
0.645061
0.645061
0.645071
0.645081
0.645092
0.645102
0.645102
0.645112
0.645123
0.645133
0.645143
0.645143
0.645154
0.645164
0.645175
0.645185
0.645185
0.645196
0.645206
0.645216
0.645227
0.645227
0.645237
0.645248
0.645258
0.645269
0.645269
0.645279
0.64529
0.6453
0.645311
0.645311
0.645321
0.645332
0.645342
0.645352
0.645352
0.645363
0.645373
0.645384
0.645394
0.645394
0.645405
0.645415
0.645426
0.645437
0.645437
0.645447
0.645458
0.645468
0.645479
0.645479
0.645489
0.6455
0.64551
0.645521
0.645521
0.645531
0.645542
0.645552
0.645563
0.645563
0.645574
0.645584
0.645595
0.645605
0.645605
0.645616
0.645627
0.645637
0.645648
0.645648
0.645658
0.645669
0.645679
0.64569
0.64569
0.645701
0.645711
0.645722
0.645733
0.645733
0.645743
0.645754
0.645765
0.645775
0.645775
0.645786
0.645797
0.645808
0.645818
0.645818
0.645829
0.64584
0.645851
0.645861
0.645861
0.645872
0.645883
0.645894
0.645905
0.645905
0.645915
0.645926
0.645937
0.645948
0.645948
0.645958
0.645969
0.64598
0.645991
0.645991
0.646002
0.646013
0.646023
0.646034
0.646034
0.646045
0.646056
0.646067
0.646078
0.646078
0.646088
0.646099
0.64611
0.646121
0.646121
0.646132
0.646143
0.646154
0.646164
0.646164
0.646175
0.646186
0.646197
0.646208
0.646208
0.646219
0.64623
0.646241
0.646252
0.646252
0.646263
0.646273
0.646284
0.646295
0.646295
0.646306
0.646317