<?xml version="1.0"?>
<VTKFile type="UnstructuredGrid" version="0.1" byte_order="LittleEndian">
<UnstructuredGrid>
<Piece NumberOfPoints="5000" NumberOfCells="4000">
<PointData Scalars="Reaction 0">
<DataArray type="Float32" Name="Reaction 0" format="ascii">
0.332952
0.332952
0.332952
0.332952
0.332952
0.332952
0.332953
0.332953
0.332953
0.332953
0.332953
0.332953
0.332954
0.332954
0.332954
0.332954
0.332955
0.332955
0.332956
0.332956
0.332956
0.332957
0.332957
0.332958
0.332958
0.332958
0.332959
0.33296
0.33296
0.332961
0.332961
0.332962
0.332963
0.332963
0.332964
0.332964
0.332965
0.332966
0.332967
0.332968
0.332968
0.332969
0.33297
0.332971
0.332972
0.332972
0.332973
0.332974
0.332976
0.332977
0.332977
0.332978
0.332979
0.332981
0.332982
0.332982
0.332983
0.332985
0.332986
0.332988
0.332988
0.332989
0.332991
0.332992
0.332994
0.332994
0.332995
0.332997
0.332999
0.333
0.333
0.333002
0.333004
0.333006
0.333007
0.333007
0.333009
0.333011
0.333013
0.333015
0.333015
0.333017
0.333019
0.333021
0.333023
0.333023
0.333025
0.333027
0.33303
0.333032
0.333032
0.333034
0.333036
0.333039
0.333041
0.333041
0.333043
0.333046
0.333048
0.33305
0.33305
0.333053
0.333055
0.333058
0.333061
0.333061
0.333063
0.333066
0.333068
0.333071
0.333071
0.333074
0.333077
0.333079
0.333082
0.333082
0.333085
0.333088
0.333091
0.333094
0.333094
0.333097
0.3331
0.333103
0.333106
0.333106
0.333109
0.333112
0.333115
0.333118
0.333118
0.333122
0.333125
0.333128
0.333131
0.333131
0.333135
0.333138
0.333141
0.333145
0.333145
0.333148
0.333152
0.333155
0.333159
0.333159
0.333162
0.333166
0.33317
0.333173
0.333173
0.333177
0.333181
0.333185
0.333188
0.333188
0.333192
0.333196
0.3332
0.333204
0.333204
0.333208
0.333212
0.333216
0.33322
0.33322
0.333224
0.333228
0.333232
0.333236
0.333236
0.33324
0.333245
0.333249
0.333253
0.333253
0.333258
0.333262
0.333266
0.333271
0.333271
0.333275
0.33328
0.333284
0.333289
0.333289
0.333293
0.333298
0.333302
0.333307
0.333307
0.333312
0.333316
0.333321
0.333326
0.333326
0.333331
0.333336
0.33334
0.333345
0.333345
0.33335
0.333355
0.33336
0.333365
0.333365
0.33337
0.333375
0.333381
0.333386
0.333386
0.333391
0.333396
0.333401
0.333407
0.333407
0.333412
0.333417
0.333423
0.333428
0.333428
0.333433
0.333439
0.333444
0.33345
0.33345
0.333455
0.333461
0.333467
0.333472
0.333472
0.333478
0.333484
0.333489
0.333495
0.333495
0.333501
0.333507
0.333513
0.333518
0.333518
0.333524
0.33353
0.333536
0.333542
0.333542
0.333548
0.333554
0.33356
0.333567
0.333567
0.333573
0.333579
0.333585
0.333591
0.333591
0.333598
0.333604
0.33361
0.333617
0.333617
0.333623
0.33363
0.333636
0.333642
0.333642
0.333649
0.333656
0.333662
0.333669
0.333669
0.333675
0.333682
0.333689
0.333696
0.333696
0.333702
0.333709
0.333716
0.333723
0.333723
0.33373
0.333737
0.333744
0.333751
0.333751
0.333758
0.333765
0.333772
0.333779
0.333779
0.333786
0.333793
0.3338
0.333808
0.333808
0.333815
0.333822
0.333829
0.333837
0.333837
0.333844
0.333852
0.333859
0.333867
0.333867
0.333874
0.333882
0.333889
0.333897
0.333897
0.333904
0.333912
0.33392
0.333927
0.333927
0.333935
0.333943
0.333951
0.333959
0.333959
0.333967
0.333974
0.333982
0.33399
0.33399
0.333998
0.334006
0.334014
0.334023
0.334023
0.334031
0.334039
0.334047
0.334055
0.334055
0.334063
0.334072
0.33408
0.334088
0.334088
0.334097
0.334105
0.334114
0.334122
0.334122
0.334131
0.334139
0.334148
0.334156
0.334156
0.334165
0.334173
0.334182
0.334191
0.334191
0.3342
0.334208
0.334217
0.334226
0.334226
0.334235
0.334244
0.334253
0.334262
0.334262
0.334271
0.33428
0.334289
0.334298
0.334298
0.334307
0.334316
0.334325
0.334334
0.334334
0.334343
0.334353
0.334362
0.334371
0.334371
0.334381
0.33439
0.334399
0.334409
0.334409
0.334418
0.334428
0.334437
0.334447
0.334447
0.334457
0.334466
0.334476
0.334486
0.334486
0.334495
0.334505
0.334515
0.334525
0.334525
0.334534
0.334544
0.334554
0.334564
0.334564
0.334574
0.334584
0.334594
0.334604
0.334604
0.334614
0.334624
0.334635
0.334645
0.334645
0.334655
0.334665
0.334675
0.334686
0.334686
0.334696
0.334706
0.334717
0.334727
0.334727
0.334738
0.334748
0.334759
0.334769
0.334769
0.33478
0.33479
0.334801
0.334812
0.334812
0.334822
0.334833
0.334844
0.334855
0.334855
0.334866
0.334876
0.334887
0.334898
0.334898
0.334909
0.33492
0.334931
0.334942
0.334942
0.334953
0.334964
0.334975
0.334987
0.334987
0.334998
0.335009
0.33502
0.335031
0.335031
0.335043
0.335054
0.335066
0.335077
0.335077
0.335088
0.3351
0.335111
0.335123
0.335123
0.335134
0.335146
0.335158
0.335169
0.335169
0.335181
0.335193
0.335204
0.335216
0.335216
0.335228
0.33524
0.335252
0.335264
0.335264
0.335275
0.335287
0.335299
0.335311
0.335311
0.335323
0.335336
0.335348
0.33536
0.33536
0.335372
0.335384
0.335396
0.335409
0.335409
0.335421
0.335433
0.335446
0.335458
0.335458
0.33547
0.335483
0.335495
0.335508
0.335508
0.33552
0.335533
0.335545
0.335558
0.335558
0.335571
0.335583
0.335596
0.335609
0.335609
0.335622
0.335635
0.335647
0.33566
0.33566
0.335673
0.335686
0.335699
0.335712
0.335712
0.335725
0.335738
0.335751
0.335764
0.335764
0.335777
0.335791
0.335804
0.335817
0.335817
0.33583
0.335844
0.335857
0.33587
0.33587
0.335884
0.335897
0.335911
0.335924
0.335924
0.335938
0.335951
0.335965
0.335978
0.335978
0.335992
0.336006
0.336019
0.336033
0.336033
0.336047
0.336061
0.336074
0.336088
0.336088
0.336102
0.336116
0.33613
0.336144
0.336144
0.336158
0.336172
0.336186
0.3362
0.3362
0.336214
0.336228
0.336243
0.336257
0.336257
0.336271
0.336285
0.3363
0.336314
0.336314
0.336328
0.336343
0.336357
0.336372
0.336372
0.336386
0.336401
0.336415
0.33643
0.33643
0.336445
0.336459
0.336474
0.336489
0.336489
0.336503
0.336518
0.336533
0.336548
0.336548
0.336563
0.336577
0.336592
0.336607
0.336607
0.336622
0.336637
0.336652
0.336667
0.336667
0.336683
0.336698
0.336713
0.336728
0.336728
0.336743
0.336759
0.336774
0.336789
0.336789
0.336804
0.33682
0.336835
0.336851
0.336851
0.336866
0.336882
0.336897
0.336913
0.336913
0.336928
0.336944
0.33696
0.336975
0.336975
0.336991
0.337007
0.337023
0.337038
0.337038
0.337054
0.33707
0.337086
0.337102
0.337102
0.337118
0.337134
0.33715
0.337166
0.337166
0.337182
0.337198
0.337214
0.33723
0.33723
0.337247
0.337263
0.337279
0.337295
0.337295
0.337312
0.337328
0.337345
0.337361
0.337361
0.337377
0.337394
0.33741
0.337427
0.337427
0.337443
0.33746
0.337477
0.337493
0.337493
0.33751
0.337527
0.337544
0.33756
0.33756
0.337577
0.337594
0.337611
0.337628
0.337628
0.337645
0.337662
0.337679
0.337696
0.337696
0.337713
0.33773
0.337747
0.337764
0.337764
0.337781
0.337799
0.337816
0.337833
0.337833
0.33785
0.337868
0.337885
0.337902
0.337902
0.33792
0.337937
0.337955
0.337972
0.337972
0.33799
0.338007
0.338025
0.338043
0.338043
0.33806
0.338078
0.338096
0.338114
0.338114
0.338131
0.338149
0.338167
0.338185
0.338185
0.338203
0.338221
0.338239
0.338257
0.338257
0.338275
0.338293
0.338311
0.338329
0.338329
0.338347
0.338365
0.338384
0.338402
0.338402
0.33842
0.338438
0.338457
0.338475
0.338475
0.338494
0.338512
0.33853
0.338549
0.338549
0.338568
0.338586
0.338605
0.338623
0.338623
0.338642
0.338661
0.338679
0.338698
0.338698
0.338717
0.338736
0.338754
0.338773
0.338773
0.338792
0.338811
0.33883
0.338849
0.338849
0.338868
0.338887
0.338906
0.338925
0.338925
0.338944
0.338964
0.338983
0.339002
0.339002
0.339021
0.33904
0.33906
0.339079
0.339079
0.339099
0.339118
0.339137
0.339157
0.339157
0.339176
0.339196
0.339215
0.339235
0.339235
0.339255
0.339274
0.339294
0.339314
0.339314
0.339333
0.339353
0.339373
0.339393
0.339393
0.339413
0.339433
0.339453
0.339472
0.339472
0.339492
0.339512
0.339533
0.339553
0.339553
0.339573
0.339593
0.339613
0.339633
0.339633
0.339653
0.339674
0.339694
0.339714
0.339714
0.339735
0.339755
0.339775
0.339796
0.339796
0.339816
0.339837
0.339857
0.339878
0.339878
0.339899
0.339919
0.33994
0.339961
0.339961
0.339981
0.340002
0.340023
0.340044
0.340044
0.340064
0.340085
0.340106
0.340127
0.340127
0.340148
0.340169
0.34019
0.340211
0.340211
0.340232
0.340253
0.340274
0.340296
0.340296
0.340317
0.340338
0.340359
0.340381
0.340381
0.340402
0.340423
0.340445
0.340466
0.340466
0.340488
0.340509
0.340531
0.340552
0.340552
0.340574
0.340595
0.340617
0.340639
0.340639
0.34066
0.340682
0.340704
0.340725
0.340725
0.340747
0.340769
0.340791
0.340813
0.340813
0.340835
0.340857
0.340879
0.340901
0.340901
0.340923
0.340945
0.340967
0.340989
0.340989
0.341011
0.341034
0.341056
0.341078
0.341078
0.3411
0.341123
0.341145
0.341167
0.341167
0.34119
0.341212
0.341235
0.341257
0.341257
0.34128
0.341302
0.341325
0.341348
0.341348
0.34137
0.341393
0.341416
0.341438
0.341438
0.341461
0.341484
0.341507
0.34153
0.34153
0.341553
0.341576
0.341599
0.341622
0.341622
0.341645
0.341668
0.341691
0.341714
0.341714
0.341737
0.34176
0.341783
0.341807
0.341807
0.34183
0.341853
0.341877
0.3419
0.3419
0.341923
0.341947
0.34197
0.341994
0.341994
0.342017
0.342041
0.342064
0.342088
0.342088
0.342111
0.342135
0.342159
0.342183
0.342183
0.342206
0.34223
0.342254
0.342278
0.342278
0.342302
0.342326
0.342349
0.342373
0.342373
0.342397
0.342421
0.342446
0.34247
0.34247
0.342494
0.342518
0.342542
0.342566
0.342566
0.34259
0.342615
0.342639
0.342663
0.342663
0.342688
0.342712
0.342737
0.342761
0.342761
0.342785
0.34281
0.342835
0.342859
0.342859
0.342884
0.342908
0.342933
0.342958
0.342958
0.342982
0.343007
0.343032
0.343057
0.343057
0.343082
0.343106
0.343131
0.343156
0.343156
0.343181
0.343206
0.343231
0.343256
0.343256
0.343281
0.343307
0.343332
0.343357
0.343357
0.343382
0.343407
0.343433
0.343458
0.343458
0.343483
0.343509
0.343534
0.343559
0.343559
0.343585
0.34361
0.343636
0.343661
0.343661
0.343687
0.343713
0.343738
0.343764
0.343764
0.34379
0.343815
0.343841
0.343867
0.343867
0.343893
0.343918
0.343944
0.34397
0.34397
0.343996
0.344022
0.344048
0.344074
0.344074
0.3441
0.344126
0.344152
0.344179
0.344179
0.344205
0.344231
0.344257
0.344283
0.344283
0.34431
0.344336
0.344362
0.344389
0.344389
0.344415
0.344442
0.344468
0.344495
0.344495
0.344521
0.344548
0.344574
0.344601
0.344601
0.344628
0.344654
0.344681
0.344708
0.344708
0.344735
0.344761
0.344788
0.344815
0.344815
0.344842
0.344869
0.344896
0.344923
0.344923
0.34495
0.344977
0.345004
0.345031
0.345031
0.345058
0.345085
0.345113
0.34514
0.34514
0.345167
0.345194
0.345222
0.345249
0.345249
0.345277
0.345304
0.345331
0.345359
0.345359
0.345386
0.345414
0.345441
0.345469
0.345469
0.345497
0.345524
0.345552
0.34558
0.34558
0.345608
0.345635
0.345663
0.345691
0.345691
0.345719
0.345747
0.345775
0.345803
0.345803
0.345831
0.345859
0.345887
0.345915
0.345915
0.345943
0.345971
0.345999
0.346027
0.346027
0.346056
0.346084
0.346112
0.34614
0.34614
0.346169
0.346197
0.346226
0.346254
0.346254
0.346282
0.346311
0.34634
0.346368
0.346368
0.346397
0.346425
0.346454
0.346483
0.346483
0.346511
0.34654
0.346569
0.346598
0.346598
0.346626
0.346655
0.346684
0.346713
0.346713
0.346742
0.346771
0.3468
0.346829
0.346829
0.346858
0.346887
0.346916
0.346946
0.346946
0.346975
0.347004
0.347033
0.347063
0.347063
0.347092
0.347121
0.347151
0.34718
0.34718
0.347209
0.347239
0.347268
0.347298
0.347298
0.347327
0.347357
0.347387
0.347416
0.347416
0.347446
0.347476
0.347505
0.347535
0.347535
0.347565
0.347595
0.347625
0.347655
0.347655
0.347685
0.347714
0.347744
0.347774
0.347774
0.347804
0.347835
0.347865
0.347895
0.347895
0.347925
0.347955
0.347985
0.348016
0.348016
0.348046
0.348076
0.348106
0.348137
0.348137
0.348167
0.348198
0.348228
0.348259
0.348259
0.348289
0.34832
0.34835
0.348381
0.348381
0.348412
0.348442
0.348473
0.348504
0.348504
0.348534
0.348565
0.348596
0.348627
0.348627
0.348658
0.348689
0.34872
0.348751
0.348751
0.348782
0.348813
0.348844
0.348875
0.348875
0.348906
0.348937
0.348968
0.348999
0.348999
0.349031
0.349062
0.349093
0.349124
0.349124
0.349156
0.349187
0.349219
0.34925
0.34925
0.349282
0.349313
0.349345
0.349376
0.349376
0.349408
0.349439
0.349471
0.349503
0.349503
0.349534
0.349566
0.349598
0.34963
0.34963
0.349662
0.349694
0.349725
0.349757
0.349757
0.349789
0.349821
0.349853
0.349885
0.349885
0.349917
0.34995
0.349982
0.350014
0.350014
0.350046
0.350078
0.350111
0.350143
0.350143
0.350175
0.350208
0.35024
0.350272
0.350272
0.350305
0.350337
0.35037
0.350402
0.350402
0.350435
0.350467
0.3505
0.350533
0.350533
0.350565
0.350598
0.350631
0.350664
0.350664
0.350696
0.350729
0.350762
0.350795
0.350795
0.350828
0.350861
0.350894
0.350927
0.350927
0.35096
0.350993
0.351026
0.351059
0.351059
0.351092
0.351125
0.351159
0.351192
0.351192
0.351225
0.351259
0.351292
0.351325
0.351325
0.351359
0.351392
0.351425
0.351459
0.351459
0.351492
0.351526
0.35156
0.351593
0.351593
0.351627
0.351661
0.351694
0.351728
0.351728
0.351762
0.351795
0.351829
0.351863
0.351863
0.351897
0.351931
0.351965
0.351999
0.351999
0.352033
0.352067
0.352101
0.352135
0.352135
0.352169
0.352203
0.352237
0.352272
0.352272
0.352306
0.35234
0.352374
0.352409
0.352409
0.352443
0.352477
0.352512
0.352546
0.352546
0.352581
0.352615
0.35265
0.352684
0.352684
0.352719
0.352754
0.352788
0.352823
0.352823
0.352858
0.352892
0.352927
0.352962
0.352962
0.352997
0.353032
0.353067
0.353102
0.353102
0.353136
0.353171
0.353206
0.353242
0.353242
0.353277
0.353312
0.353347
0.353382
0.353382
0.353417
0.353452
0.353488
0.353523
0.353523
0.353558
0.353594
0.353629
0.353664
0.353664
0.3537
0.353735
0.353771
0.353806
0.353806
0.353842
0.353877
0.353913
0.353949
0.353949
0.353984
0.35402
0.354056
0.354091
0.354091
0.354127
0.354163
0.354199
0.354235
0.354235
0.354271
0.354307
0.354343
0.354379
0.354379
0.354415
0.354451
0.354487
0.354523
0.354523
0.354559
0.354595
0.354631
0.354668
0.354668
0.354704
0.35474
0.354776
0.354813
0.354813
0.354849
0.354886
0.354922
0.354959
0.354959
0.354995
0.355032
0.355068
0.355105
0.355105
0.355141
0.355178
0.355215
0.355251
0.355251
0.355288
0.355325
0.355362
0.355399
0.355399
0.355435
0.355472
0.355509
0.355546
0.355546
0.355583
0.35562
0.355657
0.355694
0.355694
0.355731
0.355768
0.355806
0.355843
0.355843
0.35588
0.355917
0.355955
0.355992
0.355992
0.356029
0.356067
0.356104
0.356141
0.356141
0.356179
0.356216
0.356254
0.356291
0.356291
0.356329
0.356367
0.356404
0.356442
0.356442
0.35648
0.356517
0.356555
0.356593
0.356593
0.356631
0.356668
0.356706
0.356744
0.356744
0.356782
0.35682
0.356858
0.356896
0.356896
0.356934
0.356972
0.35701
0.357048
0.357048
0.357087
0.357125
0.357163
0.357201
0.357201
0.35724
0.357278
0.357316
0.357355
0.357355
0.357393
0.357431
0.35747
0.357508
0.357508
0.357547
0.357585
0.357624
0.357663
0.357663
0.357701
0.35774
0.357779
0.357817
0.357817
0.357856
0.357895
0.357934
0.357973
0.357973
0.358011
0.35805
0.358089
0.358128
0.358128
0.358167
0.358206
0.358245
0.358284
0.358284
0.358324
0.358363
0.358402
0.358441
0.358441
0.35848
0.35852
0.358559
0.358598
0.358598
0.358638
0.358677
0.358716
0.358756
0.358756
0.358795
0.358835
0.358874
0.358914
0.358914
0.358953
0.358993
0.359033
0.359072
0.359072
0.359112
0.359152
0.359192
0.359231
0.359231
0.359271
0.359311
0.359351
0.359391
0.359391
0.359431
0.359471
0.359511
0.359551
0.359551
0.359591
0.359631
0.359671
0.359711
0.359711
0.359751
0.359792
0.359832
0.359872
0.359872
0.359912
0.359953
0.359993
0.360034
0.360034
0.360074
0.360114
0.360155
0.360195
0.360195
0.360236
0.360276
0.360317
0.360358
0.360358
0.360398
0.360439
0.36048
0.36052
0.36052
0.360561
0.360602
0.360643
0.360684
0.360684
0.360725
0.360766
0.360807
0.360847
0.360847
0.360888
0.36093
0.360971
0.361012
0.361012
0.361053
0.361094
0.361135
0.361176
0.361176
0.361218
0.361259
0.3613
0.361342
0.361342
0.361383
0.361424
0.361466
0.361507
0.361507
0.361549
0.36159
0.361632
0.361673
0.361673
0.361715
0.361756
0.361798
0.36184
0.36184
0.361882
0.361923
0.361965
0.362007
0.362007
0.362049
0.362091
0.362132
0.362174
0.362174
0.362216
0.362258
0.3623
0.362342
0.362342
0.362384
0.362427
0.362469
0.362511
0.362511
0.362553
0.362595
0.362637
0.36268
0.36268
0.362722
0.362764
0.362807
0.362849
0.362849
0.362892
0.362934
0.362976
0.363019
0.363019
0.363062
0.363104
0.363147
0.363189
0.363189
0.363232
0.363275
0.363317
0.36336
0.36336
0.363403
0.363446
0.363489
0.363531
0.363531
0.363574
0.363617
0.36366
0.363703
0.363703
0.363746
0.363789
0.363832
0.363875
0.363875
0.363918
0.363962
0.364005
0.364048
0.364048
0.364091
0.364135
0.364178
0.364221
0.364221
0.364265
0.364308
0.364351
0.364395
0.364395
0.364438
0.364482
0.364525
0.364569
0.364569
0.364613
0.364656
0.3647
0.364743
0.364743
0.364787
0.364831
0.364875
0.364919
0.364919
0.364962
0.365006
0.36505
0.365094
0.365094
0.365138
0.365182
0.365226
0.36527
0.36527
0.365314
0.365358
0.365402
0.365446
0.365446
0.365491
0.365535
0.365579
0.365623
0.365623
0.365668
0.365712
0.365756
0.365801
0.365801
0.365845
0.36589
0.365934
0.365979
0.365979
0.366023
0.366068
0.366112
0.366157
0.366157
0.366202
0.366246
0.366291
0.366336
0.366336
0.36638
0.366425
0.36647
0.366515
0.366515
0.36656
0.366605
0.36665
0.366695
0.366695
0.36674
0.366785
0.36683
0.366875
0.366875
0.36692
0.366965
0.36701
0.367056
0.367056
0.367101
0.367146
0.367191
0.367237
0.367237
0.367282
0.367327
0.367373
0.367418
0.367418
0.367464
0.367509
0.367555
0.3676
0.3676
0.367646
0.367692
0.367737
0.367783
0.367783
0.367829
0.367874
0.36792
0.367966
0.367966
0.368012
0.368058
0.368103
0.368149
0.368149
0.368195
0.368241
0.368287
0.368333
0.368333
0.368379
0.368425
0.368472
0.368518
0.368518
0.368564
0.36861
0.368656
0.368703
0.368703
0.368749
0.368795
0.368841
0.368888
0.368888
0.368934
0.368981
0.369027
0.369074
0.369074
0.36912
0.369167
0.369213
0.36926
0.36926
0.369307
0.369353
0.3694
0.369447
0.369447
0.369493
0.36954
0.369587
0.369634
0.369634
0.369681
0.369728
0.369775
0.369822
0.369822
0.369869
0.369916
0.369963
0.37001
0.37001
0.370057
0.370104
0.370151
0.370198
0.370198
0.370245
0.370293
0.37034
0.370387
0.370387
0.370435
0.370482
0.370529
0.370577
0.370577
0.370624
0.370672
0.370719
0.370767
0.370767
0.370814
0.370862
0.37091
0.370957
0.370957
0.371005
0.371053
0.3711
0.371148
0.371148
0.371196
0.371244
0.371292
0.37134
0.37134
0.371388
0.371435
0.371483
0.371531
0.371531
0.371579
0.371628
0.371676
0.371724
0.371724
0.371772
0.37182
0.371868
0.371917
0.371917
0.371965
0.372013
0.372061
0.37211
0.37211
0.372158
0.372207
0.372255
0.372304
0.372304
0.372352
0.372401
0.372449
0.372498
0.372498
0.372546
0.372595
0.372644
0.372692
0.372692
0.372741
0.37279
0.372839
0.372887
0.372887
0.372936
0.372985
0.373034
0.373083
0.373083
0.373132
0.373181
0.37323
0.373279
0.373279
0.373328
0.373377
0.373426
0.373476
0.373476
0.373525
0.373574
0.373623
0.373672
0.373672
0.373722
0.373771
0.373821
0.37387
0.37387
0.373919
0.373969
0.374018
0.374068
0.374068
0.374117
0.374167
0.374217
0.374266
0.374266
0.374316
0.374365
0.374415
0.374465
0.374465
0.374515
0.374565
0.374614
0.374664
0.374664
0.374714
0.374764
0.374814
0.374864
0.374864
0.374914
0.374964
0.375014
0.375064
0.375064
0.375114
0.375164
0.375215
0.375265
0.375265
0.375315
0.375365
0.375416
0.375466
0.375466
0.375516
0.375567
0.375617
0.375668
0.375668
0.375718
0.375768
0.375819
0.37587
0.37587
0.37592
0.375971
0.376021
0.376072
0.376072
0.376123
0.376174
0.376224
0.376275
0.376275
0.376326
0.376377
0.376428
0.376478
0.376478
0.376529
0.37658
0.376631
0.376682
0.376682
0.376733
0.376784
0.376836
0.376887
0.376887
0.376938
0.376989
0.37704
0.377092
0.377092
0.377143
0.377194
0.377245
0.377297
0.377297
0.377348
0.3774
0.377451
0.377503
0.377503
0.377554
0.377606
0.377657
0.377709
0.377709
0.37776
0.377812
0.377864
0.377915
0.377915
0.377967
0.378019
0.378071
0.378123
0.378123
0.378174
0.378226
0.378278
0.37833
0.37833
0.378382
0.378434
0.378486
0.378538
0.378538
0.37859
0.378642
0.378694
0.378747
0.378747
0.378799
0.378851
0.378903
0.378956
0.378956
0.379008
0.37906
0.379113
0.379165
0.379165
0.379217
0.37927
0.379322
0.379375
0.379375
0.379427
0.37948
0.379533
0.379585
0.379585
0.379638
0.379691
0.379743
0.379796
0.379796
0.379849
0.379902
0.379954
0.380007
0.380007
0.38006
0.380113
0.380166
0.380219
0.380219
0.380272
0.380325
0.380378
0.380431
0.380431
0.380484
0.380537
0.380591
0.380644
0.380644
0.380697
0.38075
0.380804
0.380857
0.380857
0.38091
0.380964
0.381017
0.38107
0.38107
0.381124
0.381177
0.381231
0.381284
0.381284
0.381338
0.381392
0.381445
0.381499
0.381499
0.381553
0.381606
0.38166
0.381714
0.381714
0.381768
0.381821
0.381875
0.381929
0.381929
0.381983
0.382037
0.382091
0.382145
0.382145
0.382199
0.382253
0.382307
0.382361
0.382361
0.382415
0.38247
0.382524
0.382578
0.382578
0.382632
0.382687
0.382741
0.382795
0.382795
0.38285
0.382904
0.382958
0.383013
0.383013
0.383067
0.383122
0.383176
0.383231
0.383231
0.383286
0.38334
0.383395
0.38345
0.38345
0.383504
0.383559
0.383614
0.383669
0.383669
0.383723
0.383778
0.383833
0.383888
0.383888
0.383943
0.383998
0.384053
0.384108
0.384108
0.384163
0.384218
0.384273
0.384328
0.384328
0.384384
0.384439
0.384494
0.384549
0.384549
0.384605
0.38466
0.384715
0.384771
0.384771
0.384826
0.384881
0.384937
0.384992
0.384992
0.385048
0.385103
0.385159
0.385215
0.385215
0.38527
0.385326
0.385382
0.385437
0.385437
0.385493
0.385549
0.385605
0.38566
0.38566
0.385716
0.385772
0.385828
0.385884
0.385884
0.38594
0.385996
0.386052
0.386108
0.386108
0.386164
0.38622
0.386276
0.386333
0.386333
0.386389
0.386445
0.386501
0.386558
0.386558
0.386614
0.38667
0.386727
0.386783
0.386783
0.386839
0.386896
0.386952
0.387009
0.387009
0.387065
0.387122
0.387178
0.387235
0.387235
0.387292
0.387348
0.387405
0.387462
0.387462
0.387519
0.387575
0.387632
0.387689
0.387689
0.387746
0.387803
0.38786
0.387917
0.387917
0.387974
0.388031
0.388088
0.388145
0.388145
0.388202
0.388259
0.388316
0.388373
0.388373
0.388431
0.388488
0.388545
0.388602
0.388602
0.38866
0.388717
0.388775
0.388832
0.388832
0.388889
0.388947
0.389004
0.389062
0.389062
0.389119
0.389177
0.389235
0.389292
0.389292
0.38935
0.389408
0.389465
0.389523
0.389523
0.389581
0.389639
0.389697
0.389754
0.389754
0.389812
0.38987
0.389928
0.389986
0.389986
0.390044
0.390102
0.39016
0.390218
0.390218
0.390276
0.390335
0.390393
0.390451
0.390451
0.390509
0.390568
0.390626
0.390684
0.390684
0.390742
0.390801
0.390859
0.390918
0.390918
0.390976
0.391035
0.391093
0.391152
0.391152
0.39121
0.391269
0.391327
0.391386
0.391386
0.391445
0.391504
0.391562
0.391621
0.391621
0.39168
0.391739
0.391797
0.391856
0.391856
0.391915
0.391974
0.392033
0.392092
0.392092
0.392151
0.39221
0.392269
0.392328
0.392328
0.392388
0.392447
0.392506
0.392565
0.392565
0.392624
0.392684
0.392743
0.392802
0.392802
0.392862
0.392921
0.39298
0.39304
0.39304
0.393099
0.393159
0.393218
0.393278
0.393278
0.393338
0.393397
0.393457
0.393516
0.393516
0.393576
0.393636
0.393696
0.393755
0.393755
0.393815
0.393875
0.393935
0.393995
0.393995
0.394055
0.394115
0.394175
0.394235
0.394235
0.394295
0.394355
0.394415
0.394475
0.394475
0.394535
0.394595
0.394655
0.394716
0.394716
0.394776
0.394836
0.394897
0.394957
0.394957
0.395017
0.395078
0.395138
0.395199
0.395199
0.395259
0.39532
0.39538
0.395441
0.395441
0.395501
0.395562
0.395623
0.395683
0.395683
0.395744
0.395805
0.395865
0.395926
0.395926
0.395987
0.396048
0.396109
0.39617
0.39617
0.396231
0.396292
0.396353
0.396414
0.396414
0.396475
0.396536
0.396597
0.396658
0.396658
0.396719
0.39678
0.396841
0.396903
0.396903
0.396964
0.397025
0.397087
0.397148
0.397148
0.397209
0.397271
0.397332
0.397394
0.397394
0.397455
0.397517
0.397578
0.39764
0.39764
0.397701
0.397763
0.397825
0.397886
0.397886
0.397948
0.39801
0.398071
0.398133
0.398133
0.398195
0.398257
0.398319
0.398381
0.398381
0.398443
0.398505
0.398567
0.398629
0.398629
0.398691
0.398753
0.398815
0.398877
0.398877
0.398939
0.399001
0.399063
0.399126
0.399126
0.399188
0.39925
0.399313
0.399375
0.399375
0.399437
0.3995
0.399562
0.399625
0.399625
0.399687
0.39975
0.399812
0.399875
0.399875
0.399937
0.4
0.400063
0.400125
0.400125
0.400188
0.400251
0.400314
0.400376
0.400376
0.400439
0.400502
0.400565
0.400628
0.400628
0.400691
0.400754
0.400817
0.40088
0.40088
0.400943
0.401006
0.401069
0.401132
0.401132
0.401195
0.401258
0.401322
0.401385
0.401385
0.401448
0.401511
0.401575
0.401638
0.401638
0.401702
0.401765
0.401828
0.401892
0.401892
0.401955
0.402019
0.402082
0.402146
0.402146
0.40221
0.402273
0.402337
0.402401
0.402401
0.402464
0.402528
0.402592
0.402656
0.402656
0.402719
0.402783
0.402847
0.402911
0.402911
0.402975
0.403039
0.403103
0.403167
0.403167
0.403231
0.403295
0.403359
0.403423
0.403423
0.403487
0.403552
0.403616
0.40368
0.40368
0.403744
0.403809
0.403873
0.403937
0.403937
0.404002
0.404066
0.40413
0.404195
0.404195
0.404259
0.404324
0.404388
0.404453
0.404453
0.404518
0.404582
0.404647
0.404712
0.404712
0.404776
0.404841
0.404906
0.404971
0.404971
0.405035
0.4051
0.405165
0.40523
0.40523
0.405295
0.40536
0.405425
0.40549
0.40549
0.405555
0.40562
0.405685
0.40575
0.40575
0.405815
0.40588
0.405946
0.406011
0.406011
0.406076
0.406141
0.406207
0.406272
0.406272
0.406337
0.406403
0.406468
0.406534
0.406534
0.406599
0.406665
0.40673
0.406796
0.406796
0.406861
0.406927
0.406993
0.407058
0.407058
0.407124
0.40719
0.407255
0.407321
0.407321
0.407387
0.407453
0.407519
0.407585
0.407585
0.407651
0.407717
0.407783
0.407848
0.407848
0.407915
0.407981
0.408047
0.408113
0.408113
0.408179
0.408245
0.408311
0.408377
0.408377
0.408444
0.40851
0.408576
0.408643
0.408643
0.408709
0.408775
0.408842
0.408908
0.408908
0.408975
0.409041
0.409108
0.409174
0.409174
0.409241
0.409307
0.409374
0.409441
0.409441
0.409507
0.409574
0.409641
0.409708
0.409708
0.409774
0.409841
0.409908
0.409975
0.409975
0.410042
0.410109
0.410176
0.410243
0.410243
0.41031
0.410377
0.410444
0.410511
0.410511
0.410578
0.410645
0.410712
0.41078
0.41078
0.410847
0.410914
0.410981
0.411049
0.411049
0.411116
0.411183
0.411251
0.411318
0.411318
0.411386
0.411453
0.411521
0.411588
0.411588
0.411656
0.411723
0.411791
0.411859
0.411859
0.411926
0.411994
0.412062
0.412129
0.412129
0.412197
0.412265
0.412333
0.412401
0.412401
0.412469
0.412536
0.412604
0.412672
0.412672
0.41274
0.412808
0.412876
0.412945
0.412945
0.413013
0.413081
0.413149
0.413217
0.413217
0.413285
0.413354
0.413422
0.41349
0.41349
0.413558
0.413627
0.413695
0.413764
0.413764
0.413832
0.4139
0.413969
0.414037
0.414037
0.414106
0.414175
0.414243
0.414312
0.414312
0.41438
0.414449
0.414518
0.414587
0.414587
0.414655
0.414724
0.414793
0.414862
0.414862
0.414931
0.414999
0.415068
0.415137
0.415137
0.415206
0.415275
0.415344
0.415413
0.415413
0.415482
0.415552
0.415621
0.41569
0.41569
0.415759
0.415828
0.415898
0.415967
0.415967
0.416036
0.416105
0.416175
0.416244
0.416244
0.416314
0.416383
0.416452
0.416522
0.416522
0.416591
0.416661
0.416731
0.4168
0.4168
0.41687
0.416939
0.417009
0.417079
0.417079
0.417149
0.417218
0.417288
0.417358
0.417358
0.417428
0.417498
0.417568
0.417637
0.417637
0.417707
0.417777
0.417847
0.417917
0.417917
0.417987
0.418058
0.418128
0.418198
0.418198
0.418268
0.418338
0.418408
0.418479
0.418479
0.418549
0.418619
0.418689
0.41876
0.41876
0.41883
0.418901
0.418971
0.419042
0.419042
0.419112
0.419183
0.419253
0.419324
0.419324
0.419394
0.419465
0.419535
0.419606
0.419606
0.419677
0.419748
0.419818
0.419889
0.419889
0.41996
0.420031
0.420102
0.420173
0.420173
0.420243
0.420314
0.420385
0.420456
0.420456
0.420527
0.420598
0.42067
0.420741
0.420741
0.420812
0.420883
0.420954
0.421025
0.421025
0.421097
0.421168
0.421239
0.42131
0.42131
0.421382
0.421453
0.421525
0.421596
0.421596
0.421667
0.421739
0.42181
0.421882
0.421882
0.421954
0.422025
0.422097
0.422168
0.422168
0.42224
0.422312
0.422383
0.422455
0.422455
0.422527
0.422599
0.422671
0.422743
0.422743
0.422814
0.422886
0.422958
0.42303
0.42303
0.423102
0.423174
0.423246
0.423318
0.423318
0.42339
0.423463
0.423535
0.423607
0.423607
0.423679
0.423751
0.423824
0.423896
0.423896
0.423968
0.424041
0.424113
0.424185
0.424185
0.424258
0.42433
0.424403
0.424475
0.424475
0.424548
0.42462
0.424693
0.424765
0.424765
0.424838
0.424911
0.424983
0.425056
0.425056
0.425129
0.425202
0.425274
0.425347
0.425347
0.42542
0.425493
0.425566
0.425639
0.425639
0.425712
0.425785
0.425858
0.425931
0.425931
0.426004
0.426077
0.42615
0.426223
0.426223
0.426296
0.426369
0.426443
0.426516
0.426516
0.426589
0.426662
0.426736
0.426809
0.426809
0.426883
0.426956
0.427029
0.427103
0.427103
0.427176
0.42725
0.427323
0.427397
0.427397
0.427471
0.427544
0.427618
0.427691
0.427691
0.427765
0.427839
0.427913
0.427986
0.427986
0.42806
0.428134
0.428208
0.428282
0.428282
0.428356
0.42843
0.428504
0.428578
0.428578
0.428652
0.428726
0.4288
0.428874
0.428874
0.428948
0.429022
0.429096
0.42917
0.42917
0.429245
0.429319
0.429393
0.429468
0.429468
0.429542
0.429616
0.429691
0.429765
0.429765
0.429839
0.429914
0.429988
0.430063
0.430063
0.430137
0.430212
0.430287
0.430361
0.430361
0.430436
0.430511
0.430585
0.43066
0.43066
0.430735
0.43081
0.430884
0.430959
0.430959
0.431034
0.431109
0.431184
0.431259
0.431259
0.431334
0.431409
0.431484
0.431559
0.431559
0.431634
0.431709
0.431784
0.431859
0.431859
0.431935
0.43201
0.432085
0.43216
0.43216
0.432236
0.432311
0.432386
0.432462
0.432462
0.432537
0.432612
0.432688
0.432763
0.432763
0.432839
0.432914
0.43299
0.433065
0.433065
0.433141
0.433217
0.433292
0.433368
0.433368
0.433444
0.433519
0.433595
0.433671
0.433671
0.433747
0.433823
0.433898
0.433974
0.433974
0.43405
0.434126
0.434202
0.434278
0.434278
0.434354
0.43443
0.434506
0.434582
0.434582
0.434659
0.434735
0.434811
0.434887
0.434887
0.434963
0.43504
0.435116
0.435192
0.435192
0.435269
0.435345
0.435421
0.435498
0.435498
0.435574
0.435651
0.435727
0.435804
0.435804
0.43588
0.435957
0.436033
0.43611
0.43611
0.436187
0.436263
0.43634
0.436417
0.436417
0.436493
0.43657
0.436647
0.436724
0.436724
0.436801
0.436878
0.436955
0.437031
0.437031
0.437108
0.437185
0.437262
0.43734
0.43734
0.437417
0.437494
0.437571
0.437648
0.437648
0.437725
0.437802
0.43788
0.437957
0.437957
0.438034
0.438111
0.438189
0.438266
0.438266
0.438343
0.438421
0.438498
0.438576
0.438576
0.438653
0.438731
0.438808
0.438886
0.438886
0.438963
0.439041
0.439119
0.439196
0.439196
0.439274
0.439352
0.43943
0.439507
0.439507
0.439585
0.439663
0.439741
0.439819
0.439819
0.439897
0.439975
0.440053