<?xml version="1.0"?>
<VTKFile type="UnstructuredGrid" version="0.1" byte_order="LittleEndian">
<UnstructuredGrid>
<Piece NumberOfPoints="5000" NumberOfCells="4000">
<PointData Scalars="Reaction 0">
<DataArray type="Float32" Name="Reaction 0" format="ascii">
0.642461
0.642461
0.642461
0.642461
0.642461
0.642461
0.642461
0.642461
0.642461
0.642461
0.642461
0.642461
0.642461
0.642461
0.642461
0.642461
0.642461
0.642461
0.642461
0.642461
0.642461
0.642461
0.642461
0.642461
0.642461
0.642461
0.642461
0.642461
0.642462
0.642462
0.642462
0.642462
0.642462
0.642462
0.642462
0.642462
0.642462
0.642462
0.642462
0.642463
0.642463
0.642463
0.642463
0.642463
0.642463
0.642463
0.642463
0.642463
0.642464
0.642464
0.642464
0.642464
0.642464
0.642464
0.642464
0.642464
0.642465
0.642465
0.642465
0.642465
0.642465
0.642465
0.642466
0.642466
0.642466
0.642466
0.642466
0.642466
0.642467
0.642467
0.642467
0.642467
0.642467
0.642467
0.642468
0.642468
0.642468
0.642468
0.642468
0.642469
0.642469
0.642469
0.642469
0.64247
0.64247
0.64247
0.64247
0.64247
0.642471
0.642471
0.642471
0.642471
0.642471
0.642472
0.642472
0.642472
0.642472
0.642473
0.642473
0.642473
0.642473
0.642474
0.642474
0.642474
0.642475
0.642475
0.642475
0.642475
0.642476
0.642476
0.642476
0.642476
0.642477
0.642477
0.642477
0.642477
0.642478
0.642478
0.642479
0.642479
0.642479
0.642479
0.64248
0.64248
0.642481
0.642481
0.642481
0.642481
0.642482
0.642482
0.642482
0.642483
0.642483
0.642483
0.642484
0.642484
0.642484
0.642485
0.642485
0.642486
0.642486
0.642486
0.642487
0.642487
0.642487
0.642487
0.642488
0.642488
0.642489
0.642489
0.642489
0.64249
0.64249
0.642491
0.642491
0.642491
0.642492
0.642492
0.642493
0.642493
0.642493
0.642494
0.642494
0.642495
0.642495
0.642495
0.642496
0.642496
0.642497
0.642498
0.642498
0.642498
0.642499
0.642499
0.6425
0.6425
0.6425
0.642501
0.642501
0.642502
0.642502
0.642503
0.642503
0.642504
0.642504
0.642504
0.642505
0.642506
0.642506
0.642507
0.642507
0.642507
0.642508
0.642509
0.642509
0.642509
0.64251
0.642511
0.642511
0.642512
0.642512
0.642512
0.642513
0.642514
0.642514
0.642514
0.642515
0.642516
0.642516
0.642517
0.642517
0.642518
0.642518
0.642519
0.64252
0.64252
0.64252
0.642521
0.642522
0.642523
0.642523
0.642523
0.642524
0.642525
0.642525
0.642525
0.642526
0.642527
0.642528
0.642528
0.642528
0.642529
0.64253
0.642531
0.642531
0.642531
0.642532
0.642533
0.642534
0.642534
0.642534
0.642535
0.642536
0.642537
0.642538
0.642538
0.642538
0.642539
0.64254
0.642541
0.642541
0.642542
0.642542
0.642543
0.642544
0.642544
0.642545
0.642546
0.642546
0.642547
0.642547
0.642548
0.642549
0.64255
0.642551
0.642551
0.642551
0.642552
0.642553
0.642554
0.642554
0.642555
0.642556
0.642557
0.642558
0.642558
0.642558
0.642559
0.64256
0.642561
0.642561
0.642562
0.642563
0.642564
0.642565
0.642565
0.642566
0.642567
0.642568
0.642568
0.642568
0.642569
0.64257
0.642571
0.642572
0.642572
0.642573
0.642574
0.642575
0.642576
0.642576
0.642577
0.642578
0.642579
0.64258
0.64258
0.642581
0.642582
0.642583
0.642584
0.642584
0.642585
0.642586
0.642587
0.642588
0.642588
0.642589
0.64259
0.642591
0.642592
0.642592
0.642593
0.642594
0.642595
0.642596
0.642596
0.642597
0.642598
0.642599
0.6426
0.6426
0.642601
0.642602
0.642603
0.642605
0.642605
0.642606
0.642607
0.642608
0.642609
0.642609
0.64261
0.642611
0.642612
0.642613
0.642613
0.642614
0.642616
0.642617
0.642618
0.642618
0.642619
0.64262
0.642621
0.642622
0.642622
0.642623
0.642625
0.642626
0.642627
0.642627
0.642628
0.642629
0.64263
0.642632
0.642632
0.642633
0.642634
0.642635
0.642636
0.642636
0.642637
0.642639
0.64264
0.642641
0.642641
0.642642
0.642643
0.642645
0.642646
0.642646
0.642647
0.642648
0.64265
0.642651
0.642651
0.642652
0.642653
0.642655
0.642656
0.642656
0.642657
0.642658
0.64266
0.642661
0.642661
0.642662
0.642663
0.642665
0.642666
0.642666
0.642667
0.642669
0.64267
0.642671
0.642671
0.642672
0.642674
0.642675
0.642676
0.642676
0.642678
0.642679
0.64268
0.642682
0.642682
0.642683
0.642684
0.642686
0.642687
0.642687
0.642688
0.64269
0.642691
0.642692
0.642692
0.642694
0.642695
0.642697
0.642698
0.642698
0.642699
0.642701
0.642702
0.642704
0.642704
0.642705
0.642706
0.642708
0.642709
0.642709
0.642711
0.642712
0.642713
0.642715
0.642715
0.642716
0.642718
0.642719
0.642721
0.642721
0.642722
0.642724
0.642725
0.642726
0.642726
0.642728
0.642729
0.642731
0.642732
0.642732
0.642734
0.642735
0.642737
0.642738
0.642738
0.64274
0.642741
0.642743
0.642744
0.642744
0.642746
0.642747
0.642749
0.64275
0.64275
0.642752
0.642753
0.642755
0.642756
0.642756
0.642758
0.64276
0.642761
0.642763
0.642763
0.642764
0.642766
0.642767
0.642769
0.642769
0.64277
0.642772
0.642774
0.642775
0.642775
0.642777
0.642778
0.64278
0.642782
0.642782
0.642783
0.642785
0.642787
0.642788
0.642788
0.64279
0.642791
0.642793
0.642795
0.642795
0.642796
0.642798
0.6428
0.642801
0.642801
0.642803
0.642805
0.642806
0.642808
0.642808
0.64281
0.642811
0.642813
0.642815
0.642815
0.642816
0.642818
0.64282
0.642822
0.642822
0.642823
0.642825
0.642827
0.642828
0.642828
0.64283
0.642832
0.642834
0.642835
0.642835
0.642837
0.642839
0.642841
0.642842
0.642842
0.642844
0.642846
0.642848
0.642849
0.642849
0.642851
0.642853
0.642855
0.642857
0.642857
0.642858
0.64286
0.642862
0.642864
0.642864
0.642866
0.642867
0.642869
0.642871
0.642871
0.642873
0.642875
0.642877
0.642878
0.642878
0.64288
0.642882
0.642884
0.642886
0.642886
0.642888
0.642889
0.642891
0.642893
0.642893
0.642895
0.642897
0.642899
0.642901
0.642901
0.642903
0.642904
0.642906
0.642908
0.642908
0.64291
0.642912
0.642914
0.642916
0.642916
0.642918
0.64292
0.642922
0.642924
0.642924
0.642926
0.642928
0.642929
0.642931
0.642931
0.642933
0.642935
0.642937
0.642939
0.642939
0.642941
0.642943
0.642945
0.642947
0.642947
0.642949
0.642951
0.642953
0.642955
0.642955
0.642957
0.642959
0.642961
0.642963
0.642963
0.642965
0.642967
0.642969
0.642971
0.642971
0.642973
0.642975
0.642977
0.642979
0.642979
0.642981
0.642984
0.642986
0.642988
0.642988
0.64299
0.642992
0.642994
0.642996
0.642996
0.642998
0.643
0.643002
0.643004
0.643004
0.643006
0.643009
0.643011
0.643013
0.643013
0.643015
0.643017
0.643019
0.643021
0.643021
0.643023
0.643026
0.643028
0.64303
0.64303
0.643032
0.643034
0.643036
0.643038
0.643038
0.643041
0.643043
0.643045
0.643047
0.643047
0.643049
0.643052
0.643054
0.643056
0.643056
0.643058
0.64306
0.643063
0.643065
0.643065
0.643067
0.643069
0.643071
0.643074
0.643074
0.643076
0.643078
0.64308
0.643083
0.643083
0.643085
0.643087
0.643089
0.643092
0.643092
0.643094
0.643096
0.643098
0.643101
0.643101
0.643103
0.643105
0.643108
0.64311
0.64311
0.643112
0.643114
0.643117
0.643119
0.643119
0.643121
0.643124
0.643126
0.643128
0.643128
0.643131
0.643133
0.643135
0.643138
0.643138
0.64314
0.643142
0.643145
0.643147
0.643147
0.64315
0.643152
0.643154
0.643157
0.643157
0.643159
0.643161
0.643164
0.643166
0.643166
0.643169
0.643171
0.643173
0.643176
0.643176
0.643178
0.643181
0.643183
0.643185
0.643185
0.643188
0.64319
0.643193
0.643195
0.643195
0.643198
0.6432
0.643203
0.643205
0.643205
0.643208
0.64321
0.643212
0.643215
0.643215
0.643217
0.64322
0.643222
0.643225
0.643225
0.643227
0.64323
0.643232
0.643235
0.643235
0.643237
0.64324
0.643242
0.643245
0.643245
0.643247
0.64325
0.643253
0.643255
0.643255
0.643258
0.64326
0.643263
0.643265
0.643265
0.643268
0.64327
0.643273
0.643276
0.643276
0.643278
0.643281
0.643283
0.643286
0.643286
0.643288
0.643291
0.643294
0.643296
0.643296
0.643299
0.643301
0.643304
0.643307
0.643307
0.643309
0.643312
0.643315
0.643317
0.643317
0.64332
0.643322
0.643325
0.643328
0.643328
0.64333
0.643333
0.643336
0.643338
0.643338
0.643341
0.643344
0.643346
0.643349
0.643349
0.643352
0.643355
0.643357
0.64336
0.64336
0.643363
0.643366
0.643368
0.643371
0.643371
0.643374
0.643376
0.643379
0.643382
0.643382
0.643385
0.643387
0.64339
0.643393
0.643393
0.643396
0.643399
0.643401
0.643404
0.643404
0.643407
0.64341
0.643412
0.643415
0.643415
0.643418
0.643421
0.643424
0.643426
0.643426
0.643429
0.643432
0.643435
0.643438
0.643438
0.643441
0.643443
0.643446
0.643449
0.643449
0.643452
0.643455
0.643458
0.64346
0.64346
0.643463
0.643466
0.643469
0.643472
0.643472
0.643475
0.643478
0.643481
0.643484
0.643484
0.643486
0.643489
0.643492
0.643495
0.643495
0.643498
0.643501
0.643504
0.643507
0.643507
0.64351
0.643513
0.643516
0.643519
0.643519
0.643522
0.643524
0.643527
0.64353
0.64353
0.643533
0.643536
0.643539
0.643542
0.643542
0.643545
0.643548
0.643551
0.643554
0.643554
0.643557
0.64356
0.643563
0.643566
0.643566
0.643569
0.643572
0.643575
0.643578
0.643578
0.643581
0.643584
0.643587
0.64359
0.64359
0.643593
0.643597
0.6436
0.643603
0.643603
0.643606
0.643609
0.643612
0.643615
0.643615
0.643618
0.643621
0.643624
0.643627
0.643627
0.64363
0.643633
0.643637
0.64364
0.64364
0.643643
0.643646
0.643649
0.643652
0.643652
0.643655
0.643658
0.643662
0.643665
0.643665
0.643668
0.643671
0.643674
0.643677
0.643677
0.643681
0.643684
0.643687
0.64369
0.64369
0.643693
0.643696
0.6437
0.643703
0.643703
0.643706
0.643709
0.643712
0.643716
0.643716
0.643719
0.643722
0.643725
0.643729
0.643729
0.643732
0.643735
0.643738
0.643741
0.643741
0.643745
0.643748
0.643751
0.643754
0.643754
0.643758
0.643761
0.643764
0.643768
0.643768
0.643771
0.643774
0.643777
0.643781
0.643781
0.643784
0.643787
0.643791
0.643794
0.643794
0.643797
0.643801
0.643804
0.643807
0.643807
0.643811
0.643814
0.643817
0.643821
0.643821
0.643824
0.643827
0.643831
0.643834
0.643834
0.643837
0.643841
0.643844
0.643847
0.643847
0.643851
0.643854
0.643858
0.643861
0.643861
0.643864
0.643868
0.643871
0.643875
0.643875
0.643878
0.643881
0.643885
0.643888
0.643888
0.643892
0.643895
0.643898
0.643902
0.643902
0.643905
0.643909
0.643912
0.643916
0.643916
0.643919
0.643923
0.643926
0.64393
0.64393
0.643933
0.643937
0.64394
0.643944
0.643944
0.643947
0.643951
0.643954
0.643958
0.643958
0.643961
0.643965
0.643968
0.643972
0.643972
0.643976
0.643979
0.643983
0.643986
0.643986
0.64399
0.643993
0.643997
0.644
0.644
0.644004
0.644008
0.644011
0.644015
0.644015
0.644018
0.644022
0.644026
0.644029
0.644029
0.644033
0.644036
0.64404
0.644044
0.644044
0.644047
0.644051
0.644055
0.644058
0.644058
0.644062
0.644065
0.644069
0.644073
0.644073
0.644076
0.64408
0.644084
0.644087
0.644087
0.644091
0.644095
0.644098
0.644102
0.644102
0.644106
0.64411
0.644113
0.644117
0.644117
0.644121
0.644124
0.644128
0.644132
0.644132
0.644136
0.644139
0.644143
0.644147
0.644147
0.64415
0.644154
0.644158
0.644162
0.644162
0.644166
0.644169
0.644173
0.644177
0.644177
0.644181
0.644184
0.644188
0.644192
0.644192
0.644196
0.6442
0.644203
0.644207
0.644207
0.644211
0.644215
0.644219
0.644222
0.644222
0.644226
0.64423
0.644234
0.644238
0.644238
0.644242
0.644245
0.644249
0.644253
0.644253
0.644257
0.644261
0.644265
0.644269
0.644269
0.644273
0.644276
0.64428
0.644284
0.644284
0.644288
0.644292
0.644296
0.6443
0.6443
0.644304
0.644308
0.644312
0.644316
0.644316
0.644319
0.644323
0.644327
0.644331
0.644331
0.644335
0.644339
0.644343
0.644347
0.644347
0.644351
0.644355
0.644359
0.644363
0.644363
0.644367
0.644371
0.644375
0.644379
0.644379
0.644383
0.644387
0.644391
0.644395
0.644395
0.644399
0.644403
0.644407
0.644411
0.644411
0.644415
0.644419
0.644423
0.644427
0.644427
0.644431
0.644435
0.644439
0.644443
0.644443
0.644447
0.644452
0.644456
0.64446
0.64446
0.644464
0.644468
0.644472
0.644476
0.644476
0.64448
0.644484
0.644488
0.644492
0.644492
0.644496
0.644501
0.644505
0.644509
0.644509
0.644513
0.644517
0.644521
0.644526
0.644526
0.64453
0.644534
0.644538
0.644542
0.644542
0.644546
0.644551
0.644555
0.644559
0.644559
0.644563
0.644567
0.644572
0.644576
0.644576
0.64458
0.644584
0.644589
0.644593
0.644593
0.644597
0.644601
0.644606
0.64461
0.64461
0.644614
0.644618
0.644623
0.644627
0.644627
0.644631
0.644635
0.64464
0.644644
0.644644
0.644648
0.644652
0.644657
0.644661
0.644661
0.644665
0.64467
0.644674
0.644678
0.644678
0.644683
0.644687
0.644691
0.644696
0.644696
0.6447
0.644704
0.644709
0.644713
0.644713
0.644717
0.644722
0.644726
0.64473
0.64473
0.644735
0.644739
0.644744
0.644748
0.644748
0.644752
0.644757
0.644761
0.644765
0.644765
0.64477
0.644774
0.644779
0.644783
0.644783
0.644788
0.644792
0.644796
0.644801
0.644801
0.644805
0.64481
0.644814
0.644819
0.644819
0.644823
0.644828
0.644832
0.644836
0.644836
0.644841
0.644845
0.64485
0.644854
0.644854
0.644859
0.644863
0.644868
0.644872
0.644872
0.644877
0.644881
0.644886
0.64489
0.64489
0.644895
0.6449
0.644904
0.644909
0.644909
0.644913
0.644918
0.644922
0.644927
0.644927
0.644931
0.644936
0.644941
0.644945
0.644945
0.64495
0.644954
0.644959
0.644963
0.644963
0.644968
0.644973
0.644977
0.644982
0.644982
0.644986
0.644991
0.644996
0.645
0.645
0.645005
0.64501
0.645014
0.645019
0.645019
0.645023
0.645028
0.645033
0.645037
0.645037
0.645042
0.645047
0.645051
0.645056
0.645056
0.645061
0.645065
0.64507
0.645075
0.645075
0.645079
0.645084
0.645089
0.645094
0.645094
0.645098
0.645103
0.645108
0.645112
0.645112
0.645117
0.645122
0.645127
0.645131
0.645131
0.645136
0.645141
0.645146
0.645151
0.645151
0.645155
0.64516
0.645165
0.64517
0.64517
0.645175
0.645179
0.645184
0.645189
0.645189
0.645194
0.645199
0.645204
0.645208
0.645208
0.645213
0.645218
0.645223
0.645228
0.645228
0.645233
0.645238
0.645242
0.645247
0.645247
0.645252
0.645257
0.645262
0.645267
0.645267
0.645272
0.645277
0.645281
0.645286
0.645286
0.645291
0.645296
0.645301
0.645306
0.645306
0.645311
0.645316
0.645321
0.645326
0.645326
0.645331
0.645336
0.645341
0.645345
0.645345
0.64535
0.645355
0.64536
0.645365
0.645365
0.64537
0.645375
0.64538
0.645385
0.645385
0.64539
0.645395
0.6454
0.645405
0.645405
0.64541
0.645415
0.64542
0.645425
0.645425
0.64543
0.645435
0.64544
0.645445
0.645445
0.64545
0.645456
0.645461
0.645466
0.645466
0.645471
0.645476
0.645481
0.645486
0.645486
0.645491
0.645496
0.645501
0.645506
0.645506
0.645511
0.645517
0.645522
0.645527
0.645527
0.645532
0.645537
0.645542
0.645547
0.645547
0.645552
0.645557
0.645563
0.645568
0.645568
0.645573
0.645578
0.645583
0.645588
0.645588
0.645594
0.645599
0.645604
0.645609
0.645609
0.645614
0.645619
0.645625
0.64563
0.64563
0.645635
0.64564
0.645645
0.645651
0.645651
0.645656
0.645661
0.645666
0.645672
0.645672
0.645677
0.645682
0.645687
0.645692
0.645692
0.645698
0.645703
0.645708
0.645713
0.645713
0.645719
0.645724
0.645729
0.645735
0.645735
0.64574
0.645745
0.645751
0.645756
0.645756
0.645761
0.645767
0.645772
0.645777
0.645777
0.645783
0.645788
0.645793
0.645799
0.645799
0.645804
0.645809
0.645815
0.64582
0.64582
0.645826
0.645831
0.645836
0.645842
0.645842
0.645847
0.645853
0.645858
0.645863
0.645863
0.645869
0.645874
0.64588
0.645885
0.645885
0.645891
0.645896
0.645901
0.645907
0.645907
0.645912
0.645918
0.645923
0.645929
0.645929
0.645934
0.64594
0.645945
0.645951
0.645951
0.645956
0.645962
0.645967
0.645973
0.645973
0.645978
0.645984
0.645989
0.645995
0.645995
0.646
0.646006
0.646011
0.646017
0.646017
0.646022
0.646028
0.646033
0.646039
0.646039
0.646044
0.64605
0.646056
0.646061
0.646061
0.646067
0.646072
0.646078
0.646084
0.646084
0.646089
0.646095
0.6461
0.646106
0.646106
0.646112
0.646117
0.646123
0.646128
0.646128
0.646134
0.64614
0.646145
0.646151
0.646151
0.646157
0.646162
0.646168
0.646174
0.646174
0.646179
0.646185
0.646191
0.646196
0.646196
0.646202
0.646208
0.646213
0.646219
0.646219
0.646225
0.64623
0.646236
0.646242
0.646242
0.646248
0.646253
0.646259
0.646265
0.646265
0.64627
0.646276
0.646282
0.646288
0.646288
0.646293
0.646299
0.646305
0.646311
0.646311
0.646316
0.646322
0.646328
0.646334
0.646334
0.646339
0.646345
0.646351
0.646357
0.646357
0.646363
0.646368
0.646374
0.64638
0.64638
0.646386
0.646392
0.646398
0.646404
0.646404
0.64641
0.646415
0.646421
0.646427
0.646427
0.646433
0.646439
0.646445
0.646451
0.646451
0.646457
0.646463
0.646469
0.646474
0.646474
0.64648
0.646486
0.646492
0.646498
0.646498
0.646504
0.64651
0.646516
0.646522
0.646522
0.646528
0.646534
0.64654
0.646546
0.646546
0.646552
0.646558
0.646564
0.64657
0.64657
0.646576
0.646582
0.646588
0.646594
0.646594
0.6466
0.646606
0.646612
0.646618
0.646618
0.646624
0.64663
0.646636
0.646642
0.646642
0.646648
0.646654
0.64666
0.646666
0.646666
0.646672
0.646678
0.646684
0.64669
0.64669
0.646696
0.646703
0.646709
0.646715
0.646715
0.646721
0.646727
0.646733
0.646739
0.646739
0.646745
0.646751
0.646758
0.646764
0.646764
0.64677
0.646776
0.646782
0.646788
0.646788
0.646794
0.646801
0.646807
0.646813
0.646813
0.646819
0.646825
0.646831
0.646838
0.646838
0.646844
0.64685
0.646856
0.646862
0.646862
0.646869
0.646875
0.646881
0.646887
0.646887
0.646893
0.6469
0.646906
0.646912
0.646912
0.646918
0.646925
0.646931
0.646937
0.646937
0.646943
0.64695
0.646956
0.646962
0.646962
0.646968
0.646975
0.646981
0.646987
0.646987
0.646993
0.647
0.647006
0.647012
0.647012
0.647019
0.647025
0.647031
0.647038
0.647038
0.647044
0.647051
0.647057
0.647063
0.647063
0.64707
0.647076
0.647083
0.647089
0.647089
0.647095
0.647102
0.647108
0.647115
0.647115
0.647121
0.647127
0.647134
0.64714
0.64714
0.647147
0.647153
0.64716
0.647166
0.647166
0.647172
0.647179
0.647185
0.647192
0.647192
0.647198
0.647205
0.647211
0.647218
0.647218
0.647224
0.647231
0.647237
0.647244
0.647244
0.64725
0.647257
0.647263
0.64727
0.64727
0.647276
0.647283
0.647289
0.647296
0.647296
0.647302
0.647309
0.647316
0.647322
0.647322
0.647329
0.647335
0.647342
0.647348
0.647348
0.647355
0.647361
0.647368
0.647375
0.647375
0.647381
0.647388
0.647394
0.647401
0.647401
0.647408
0.647414
0.647421
0.647428
0.647428
0.647434
0.647441
0.647447
0.647454
0.647454
0.647461
0.647467
0.647474
0.647481
0.647481
0.647487
0.647494
0.647501
0.647507
0.647507
0.647514
0.647521
0.647528
0.647534
0.647534
0.647541
0.647548
0.647554
0.647561
0.647561
0.647568
0.647574
0.647581
0.647588
0.647588
0.647595
0.647601
0.647608
0.647615
0.647615
0.647622
0.647628
0.647635
0.647642
0.647642
0.647649
0.647655
0.647662
0.647669
0.647669
0.647676
0.647683
0.64769
0.647696
0.647696
0.647703
0.64771
0.647717
0.647724
0.647724
0.647731
0.647738
0.647745
0.647751
0.647751
0.647758
0.647765
0.647772
0.647779
0.647779
0.647786
0.647793
0.6478
0.647807
0.647807
0.647814
0.647821
0.647827
0.647834
0.647834
0.647841
0.647848
0.647855
0.647862
0.647862
0.647869
0.647876
0.647883
0.64789
0.64789
0.647897
0.647904
0.647911
0.647918
0.647918
0.647925
0.647932
0.647939
0.647946
0.647946
0.647953
0.64796
0.647967
0.647974
0.647974
0.647981
0.647988
0.647995
0.648002
0.648002
0.648009
0.648016
0.648023
0.64803
0.64803
0.648037
0.648044
0.648052
0.648059
0.648059
0.648066
0.648073
0.64808
0.648087
0.648087
0.648094
0.648101
0.648108
0.648115
0.648115
0.648123
0.64813
0.648137
0.648144
0.648144
0.648151
0.648158
0.648165
0.648173
0.648173
0.64818
0.648187
0.648194
0.648201
0.648201
0.648208
0.648215
0.648223
0.64823
0.64823
0.648237
0.648244
0.648251
0.648259
0.648259
0.648266
0.648273
0.64828
0.648287
0.648287
0.648295
0.648302
0.648309
0.648316
0.648316
0.648324
0.648331
0.648338
0.648346
0.648346
0.648353
0.64836
0.648368
0.648375
0.648375
0.648382
0.64839
0.648397
0.648404
0.648404
0.648412
0.648419
0.648426
0.648434
0.648434
0.648441
0.648448
0.648456
0.648463
0.648463
0.648471
0.648478
0.648485
0.648493
0.648493
0.6485
0.648507
0.648515
0.648522
0.648522
0.64853
0.648537
0.648545
0.648552
0.648552
0.648559
0.648567
0.648574
0.648582
0.648582
0.648589
0.648597
0.648604
0.648612
0.648612
0.648619
0.648626
0.648634
0.648641
0.648641
0.648649
0.648656
0.648664
0.648671
0.648671
0.648679
0.648686
0.648694
0.648702
0.648702
0.648709
0.648717
0.648724
0.648732
0.648732
0.648739
0.648747
0.648754
0.648762
0.648762
0.648769
0.648777
0.648785
0.648792
0.648792
0.6488
0.648807
0.648815
0.648822
0.648822
0.64883
0.648838
0.648845
0.648853
0.648853
0.648861
0.648868
0.648876
0.648883
0.648883
0.648891
0.648899
0.648906
0.648914
0.648914
0.648922
0.648929
0.648937
0.648944
0.648944
0.648952
0.64896
0.648968
0.648975
0.648975
0.648983
0.648991
0.648998
0.649006
0.649006
0.649014
0.649022
0.649029
0.649037
0.649037
0.649045
0.649053
0.649061
0.649068
0.649068
0.649076
0.649084
0.649092
0.6491
0.6491
0.649107
0.649115
0.649123
0.649131
0.649131
0.649139
0.649147
0.649154
0.649162
0.649162
0.64917
0.649178
0.649186
0.649194
0.649194
0.649201
0.649209
0.649217
0.649225
0.649225
0.649233
0.649241
0.649249
0.649257
0.649257
0.649265
0.649272
0.64928
0.649288
0.649288
0.649296
0.649304
0.649312
0.64932
0.64932
0.649328
0.649336
0.649344
0.649352
0.649352
0.64936
0.649368
0.649376
0.649384
0.649384
0.649392
0.6494
0.649408
0.649416
0.649416
0.649424
0.649432
0.64944
0.649448
0.649448
0.649456
0.649464
0.649472
0.64948
0.64948
0.649488
0.649496
0.649504
0.649512
0.649512
0.64952
0.649528
0.649536
0.649544
0.649544
0.649552
0.64956
0.649568
0.649576
0.649576
0.649584
0.649592
0.6496
0.649609
0.649609
0.649617
0.649625
0.649633
0.649641
0.649641
0.649649
0.649657
0.649665
0.649674
0.649674
0.649682
0.64969
0.649698
0.649706
0.649706
0.649715
0.649723
0.649731
0.649739
0.649739
0.649748
0.649756
0.649764
0.649772
0.649772
0.649781
0.649789
0.649797
0.649805
0.649805
0.649814
0.649822
0.64983
0.649838
0.649838
0.649847
0.649855
0.649863
0.649872
0.649872
0.64988
0.649888
0.649897
0.649905
0.649905
0.649913
0.649921
0.64993
0.649938
0.649938
0.649946
0.649955
0.649963
0.649972
0.649972
0.64998
0.649988
0.649997
0.650005
0.650005
0.650013
0.650022
0.65003
0.650039
0.650039
0.650047
0.650055
0.650064
0.650072
0.650072
0.650081
0.650089
0.650097
0.650106
0.650106
0.650114
0.650123
0.650131
0.65014
0.65014
0.650148
0.650157
0.650165
0.650173
0.650173
0.650182
0.65019
0.650199
0.650207
0.650207
0.650216
0.650224
0.650233
0.650241
0.650241
0.65025
0.650258
0.650267
0.650275
0.650275
0.650284
0.650292
0.650301
0.650309
0.650309
0.650318
0.650327
0.650335
0.650344
0.650344
0.650352
0.650361
0.650369
0.650378
0.650378
0.650387
0.650395
0.650404
0.650413
0.650413
0.650421
0.65043
0.650439
0.650447
0.650447
0.650456
0.650465
0.650473
0.650482
0.650482
0.650491
0.6505
0.650508
0.650517
0.650517
0.650526
0.650534
0.650543
0.650552
0.650552
0.650561
0.650569
0.650578
0.650587
0.650587
0.650596
0.650604
0.650613
0.650622
0.650622
0.650631
0.650639
0.650648
0.650657
0.650657
0.650666
0.650674
0.650683
0.650692
0.650692
0.650701
0.65071
0.650718
0.650727
0.650727
0.650736
0.650745
0.650754
0.650763
0.650763
0.650771
0.65078
0.650789
0.650798
0.650798
0.650807
0.650816
0.650825
0.650833
0.650833
0.650842
0.650851
0.65086
0.650869
0.650869
0.650878
0.650887
0.650896
0.650905
0.650905
0.650914
0.650922
0.650931
0.65094
0.65094
0.650949
0.650958
0.650967
0.650976
0.650976
0.650985
0.650994
0.651003
0.651012
0.651012
0.651021
0.65103
0.651039
0.651048
0.651048
0.651057
0.651066
0.651075
0.651084
0.651084
0.651093
0.651102
0.651111
0.65112
0.65112
0.65113
0.651139
0.651148
0.651157
0.651157
0.651166
0.651175
0.651184
0.651193
0.651193
0.651202
0.651212
0.651221
0.65123
0.65123
0.651239
0.651248
0.651257
0.651266
0.651266
0.651276
0.651285
0.651294
0.651303
0.651303
0.651312
0.651322
0.651331
0.65134
0.65134
0.651349
0.651358
0.651368
0.651377
0.651377
0.651386
0.651395
0.651404
0.651414
0.651414
0.651423
0.651432
0.651441
0.651451
0.651451
0.65146
0.651469
0.651478
0.651488
0.651488
0.651497
0.651506
0.651516
0.651525
0.651525
0.651534
0.651543
0.651553
0.651562
0.651562
0.651571
0.651581
0.65159
0.651599
0.651599
0.651609
0.651618
0.651627
0.651637
0.651637
0.651646
0.651655
0.651665
0.651674
0.651674
0.651683
0.651693
0.651702
0.651712
0.651712
0.651721
0.65173
0.65174
0.651749
0.651749
0.651759
0.651768
0.651778
0.651787
0.651787
0.651797
0.651806
0.651816
0.651825
0.651825
0.651835
0.651844
0.651854
0.651863
0.651863
0.651873
0.651882
0.651892
0.651901
0.651901
0.651911
0.651921
0.65193
0.65194
0.65194
0.651949
0.651959
0.651968
0.651978
0.651978
0.651988
0.651997
0.652007
0.652016
0.652016
0.652026
0.652036
0.652045
0.652055
0.652055
0.652064
0.652074
0.652084
0.652093
0.652093
0.652103
0.652113
0.652122
0.652132
0.652132
0.652142
0.652151
0.652161
0.652171
0.652171
0.65218
0.65219
0.6522
0.652209
0.652209
0.652219
0.652229
0.652238
0.652248
0.652248
0.652258
0.652268
0.652277
0.652287
0.652287
0.652297
0.652306
0.652316
0.652326
0.652326
0.652336
0.652345
0.652355
0.652365
0.652365
0.652375
0.652385
0.652394
0.652404
0.652404
0.652414
0.652424
0.652434
0.652443
0.652443
0.652453
0.652463
0.652473
0.652483
0.652483
0.652493
0.652503
0.652513
0.652523
0.652523
0.652532
0.652542
0.652552
0.652562
0.652562
0.652572
0.652582
0.652592
0.652602
0.652602
0.652612
0.652622
0.652632
0.652642
0.652642
0.652652
0.652662
0.652672
0.652682
0.652682
0.652692
0.652702
0.652712
0.652722
0.652722
0.652732
0.652742
0.652752
0.652762
0.652762
0.652772
0.652782
0.652792
0.652802
0.652802
0.652812
0.652822
0.652832
0.652842
0.652842
0.652852
0.652862
0.652873
0.652883
0.652883
0.652893
0.652903
0.652913
0.652923
0.652923
0.652933
0.652943
0.652953
0.652963
0.652963
0.652974
0.652984
0.652994
0.653004
0.653004
0.653014
0.653024
0.653034
0.653045
0.653045
0.653055
0.653065
0.653075
0.653085
0.653085
0.653095
0.653106
0.653116
0.653126
0.653126
0.653136
0.653147
0.653157
0.653167
0.653167
0.653177
0.653188
0.653198
0.653208
0.653208
0.653218
0.653229
0.653239
0.653249
0.653249
0.65326
0.65327
0.653281
0.653291
0.653291
0.653301
0.653312
0.653322
0.653332
0.653332
0.653343
0.653353
0.653363
0.653374
0.653374
0.653384
0.653395
0.653405
0.653415
0.653415
0.653426
0.653436
0.653447
0.653457
0.653457
0.653468
0.653478
0.653488
0.653499
0.653499
0.653509
0.65352
0.65353
0.653541
0.653541
0.653551
0.653562
0.653572
0.653583
0.653583
0.653593
0.653604
0.653614
0.653625
0.653625
0.653635
0.653646
0.653656
0.653667
0.653667
0.653677
0.653688
0.653698
0.653709
0.653709
0.653719
0.65373
0.65374
0.653751
0.653751
0.653761
0.653772
0.653783
0.653793
0.653793
0.653804
0.653814
0.653825
0.653836
0.653836
0.653846
0.653857
0.653867
0.653878
0.653878
0.653889
0.653899
0.65391
0.653921
0.653921
0.653932
0.653942
0.653953
0.653964
0.653964
0.653974
0.653985
0.653996
0.654007
0.654007
0.654017
0.654028
0.654039
0.65405
0.65405
0.654061
0.654071
0.654082
0.654093
0.654093
0.654104
0.654114
0.654125
0.654136
0.654136
0.654147
0.654158
0.654169
0.654179
0.654179
0.65419
0.654201
0.654212
0.654223
0.654223
0.654234
0.654244
0.654255
0.654266
0.654266
0.654277
0.654288
0.654299
0.65431
0.65431
0.654321
0.654331
0.654342
0.654353
0.654353
0.654364
0.654375
0.654386
0.654397
0.654397
0.654408
0.654419
0.65443
0.654441
0.654441
0.654452
0.654463
0.654474
0.654484
0.654484
0.654495
0.654506
0.654517
0.654528
0.654528
0.654539
0.65455
0.654561
0.654572
0.654572
0.654583
0.654594
0.654605
0.654617
0.654617
0.654628
0.654639
0.65465
0.654661
0.654661
0.654672
0.654683
0.654694
0.654705
0.654705
0.654717
0.654728
0.654739
0.65475
0.65475
0.654761
0.654772
0.654784
0.654795
0.654795
0.654806
0.654817
0.654828
0.65484
0.65484
0.654851
0.654862
0.654873
0.654884
0.654884
0.654896
0.654907
0.654918
0.654929
0.654929
0.654941
0.654952
0.654963
0.654974
0.654974
0.654986
0.654997
0.655008
0.655019
0.655019
0.655031
0.655042
0.655053
0.655064
0.655064
0.655076
0.655087
0.655098
0.65511
0.65511
0.655121
0.655132
0.655144
0.655155
0.655155
0.655166
0.655178
0.655189
0.6552
0.6552
0.655212
0.655223
0.655234
0.655246
0.655246
0.655257
0.655269
0.65528
0.655291
0.655291
0.655303
0.655314
0.655326
0.655337
0.655337
0.655349
0.65536
0.655371
0.655383
0.655383
0.655394
0.655406
0.655418
0.655429
0.655429
0.655441
0.655452
0.655464
0.655475
0.655475
0.655487
0.655498
0.65551
0.655522
0.655522
0.655533
0.655545
0.655556
0.655568
0.655568
0.655579
0.655591
0.655603
0.655614
0.655614
0.655626
0.655638
0.655649
0.655661
0.655661
0.655672
0.655684
0.655696
0.655707
0.655707
0.655719
0.655731
0.655742
0.655754
0.655754
0.655766
0.655777
0.655789
0.655801
0.655801
0.655812
0.655824
0.655836
0.655848
0.655848
0.655859
0.655871
0.655883
0.655894
0.655894
0.655906
0.655918
0.65593
0.655941
0.655941
0.655953
0.655965
0.655977
0.655988
0.655988
0.656
0.656012
0.656024
0.656036
0.656036
0.656047
0.656059
0.656071
0.656083
0.656083
0.656095
0.656107
0.656118
0.65613
0.65613
0.656142
0.656154
0.656166
0.656178
0.656178
0.65619
0.656202
0.656214
0.656226
0.656226
0.656238
0.65625
0.656262
0.656274
0.656274
0.656286
0.656298
0.65631
0.656322
0.656322
0.656334
0.656346
0.656358
0.65637
0.65637
0.656382
0.656394
0.656406
0.656418
0.656418
0.65643
0.656442
0.656454
0.656466
0.656466
0.656478
0.65649
0.656502
0.656514
0.656514
0.656526
0.656538
0.65655
0.656563
0.656563
0.656575
0.656587
0.656599
0.656611
0.656611
0.656623
0.656635
0.656647
0.656659
0.656659
0.656672
0.656684
0.656696
0.656708
0.656708
0.65672
0.656732
0.656744
0.656757
0.656757
0.656769
0.656781
0.656793
0.656805
0.656805
0.656818
0.65683
0.656842
0.656854
0.656854
0.656867
0.656879
0.656891
0.656904
0.656904
0.656916
0.656928
0.656941
0.656953
0.656953
0.656965
0.656978
0.65699
0.657002
0.657002
0.657015
0.657027
0.657039
0.657052
0.657052
0.657064
0.657077
0.657089
0.657101
0.657101
0.657114
0.657126
0.657139
0.657151
0.657151
0.657163
0.657176
0.657188
0.657201
0.657201
0.657213
0.657226
0.657238
0.65725
0.65725
0.657263
0.657275
0.657288
0.6573
0.6573
0.657313
0.657325
0.657338
0.65735
0.65735
0.657363
0.657375
0.657388
0.6574
0.6574
0.657413
0.657425
0.657438
0.65745
0.65745
0.657463
0.657475
0.657488
0.657501
0.657501
0.657513
0.657526
0.657538
0.657551
0.657551
0.657564
0.657576
0.657589
0.657601
0.657601
0.657614
0.657627
0.657639
0.657652
0.657652
0.657665
0.657678
0.65769
0.657703
0.657703
0.657716
0.657729
0.657741
0.657754
0.657754
0.657767
0.65778
0.657792
0.657805
0.657805
0.657818
0.657831
0.657843
0.657856
0.657856
0.657869
0.657882
0.657895
0.657907
0.657907
0.65792
0.657933
0.657946
0.657959
0.657959
0.657972
0.657984
0.657997
0.65801
0.65801
0.658023
0.658036
0.658049
0.658061
0.658061
0.658074
0.658087
0.6581
0.658113
0.658113
0.658126
0.658139
0.658152
0.658165
0.658165
0.658177
0.65819
0.658203
0.658216
0.658216
0.658229
0.658242
0.658255
0.658268
0.658268
0.658281
0.658294
0.658307