<?xml version="1.0"?>
<VTKFile type="UnstructuredGrid" version="0.1" byte_order="LittleEndian">
<UnstructuredGrid>
<Piece NumberOfPoints="5000" NumberOfCells="4000">
<PointData Scalars="Reaction 0">
<DataArray type="Float32" Name="Reaction 0" format="ascii">
0.241476
0.241476
0.241476
0.241477
0.241477
0.241477
0.241477
0.241477
0.241477
0.241477
0.241477
0.241478
0.241478
0.241478
0.241479
0.241479
0.241479
0.24148
0.24148
0.241481
0.241481
0.241481
0.241482
0.241483
0.241483
0.241483
0.241484
0.241485
0.241485
0.241486
0.241486
0.241487
0.241488
0.241489
0.24149
0.24149
0.241491
0.241492
0.241493
0.241494
0.241494
0.241495
0.241496
0.241497
0.241498
0.241498
0.2415
0.241501
0.241502
0.241504
0.241504
0.241505
0.241506
0.241508
0.241509
0.241509
0.241511
0.241512
0.241514
0.241516
0.241516
0.241517
0.241519
0.241521
0.241522
0.241522
0.241524
0.241526
0.241528
0.24153
0.24153
0.241532
0.241534
0.241536
0.241538
0.241538
0.24154
0.241542
0.241544
0.241546
0.241546
0.241548
0.24155
0.241553
0.241555
0.241555
0.241557
0.24156
0.241562
0.241565
0.241565
0.241567
0.24157
0.241572
0.241575
0.241575
0.241577
0.24158
0.241583
0.241585
0.241585
0.241588
0.241591
0.241594
0.241596
0.241596
0.241599
0.241602
0.241605
0.241608
0.241608
0.241611
0.241614
0.241617
0.24162
0.24162
0.241624
0.241627
0.24163
0.241633
0.241633
0.241636
0.24164
0.241643
0.241646
0.241646
0.24165
0.241653
0.241657
0.24166
0.24166
0.241664
0.241668
0.241671
0.241675
0.241675
0.241678
0.241682
0.241686
0.24169
0.24169
0.241694
0.241697
0.241701
0.241705
0.241705
0.241709
0.241713
0.241717
0.241721
0.241721
0.241725
0.24173
0.241734
0.241738
0.241738
0.241742
0.241746
0.241751
0.241755
0.241755
0.241759
0.241764
0.241768
0.241773
0.241773
0.241777
0.241782
0.241786
0.241791
0.241791
0.241796
0.2418
0.241805
0.24181
0.24181
0.241815
0.241819
0.241824
0.241829
0.241829
0.241834
0.241839
0.241844
0.241849
0.241849
0.241854
0.241859
0.241864
0.241869
0.241869
0.241875
0.24188
0.241885
0.24189
0.24189
0.241896
0.241901
0.241906
0.241912
0.241912
0.241917
0.241923
0.241928
0.241934
0.241934
0.241939
0.241945
0.241951
0.241956
0.241956
0.241962
0.241968
0.241974
0.24198
0.24198
0.241985
0.241991
0.241997
0.242003
0.242003
0.242009
0.242015
0.242021
0.242027
0.242027
0.242034
0.24204
0.242046
0.242052
0.242052
0.242058
0.242065
0.242071
0.242078
0.242078
0.242084
0.24209
0.242097
0.242103
0.242103
0.24211
0.242117
0.242123
0.24213
0.24213
0.242136
0.242143
0.24215
0.242157
0.242157
0.242164
0.24217
0.242177
0.242184
0.242184
0.242191
0.242198
0.242205
0.242212
0.242212
0.242219
0.242226
0.242234
0.242241
0.242241
0.242248
0.242255
0.242263
0.24227
0.24227
0.242277
0.242285
0.242292
0.2423
0.2423
0.242307
0.242315
0.242322
0.24233
0.24233
0.242337
0.242345
0.242353
0.242361
0.242361
0.242368
0.242376
0.242384
0.242392
0.242392
0.2424
0.242408
0.242416
0.242424
0.242424
0.242432
0.24244
0.242448
0.242456
0.242456
0.242464
0.242472
0.242481
0.242489
0.242489
0.242497
0.242506
0.242514
0.242522
0.242522
0.242531
0.242539
0.242548
0.242556
0.242556
0.242565
0.242574
0.242582
0.242591
0.242591
0.2426
0.242608
0.242617
0.242626
0.242626
0.242635
0.242644
0.242653
0.242662
0.242662
0.242671
0.24268
0.242689
0.242698
0.242698
0.242707
0.242716
0.242725
0.242735
0.242735
0.242744
0.242753
0.242763
0.242772
0.242772
0.242781
0.242791
0.2428
0.24281
0.24281
0.242819
0.242829
0.242838
0.242848
0.242848
0.242858
0.242867
0.242877
0.242887
0.242887
0.242897
0.242907
0.242917
0.242926
0.242926
0.242936
0.242946
0.242956
0.242966
0.242966
0.242976
0.242987
0.242997
0.243007
0.243007
0.243017
0.243027
0.243038
0.243048
0.243048
0.243058
0.243069
0.243079
0.24309
0.24309
0.2431
0.243111
0.243121
0.243132
0.243132
0.243142
0.243153
0.243164
0.243175
0.243175
0.243185
0.243196
0.243207
0.243218
0.243218
0.243229
0.24324
0.243251
0.243262
0.243262
0.243273
0.243284
0.243295
0.243306
0.243306
0.243317
0.243328
0.24334
0.243351
0.243351
0.243362
0.243373
0.243385
0.243396
0.243396
0.243408
0.243419
0.243431
0.243442
0.243442
0.243454
0.243465
0.243477
0.243489
0.243489
0.2435
0.243512
0.243524
0.243536
0.243536
0.243548
0.24356
0.243571
0.243583
0.243583
0.243595
0.243607
0.243619
0.243632
0.243632
0.243644
0.243656
0.243668
0.24368
0.24368
0.243692
0.243705
0.243717
0.243729
0.243729
0.243742
0.243754
0.243767
0.243779
0.243779
0.243792
0.243804
0.243817
0.24383
0.24383
0.243842
0.243855
0.243868
0.24388
0.24388
0.243893
0.243906
0.243919
0.243932
0.243932
0.243945
0.243958
0.243971
0.243984
0.243984
0.243997
0.24401
0.244023
0.244036
0.244036
0.244049
0.244063
0.244076
0.244089
0.244089
0.244103
0.244116
0.244129
0.244143
0.244143
0.244156
0.24417
0.244183
0.244197
0.244197
0.244211
0.244224
0.244238
0.244252
0.244252
0.244265
0.244279
0.244293
0.244307
0.244307
0.244321
0.244335
0.244349
0.244363
0.244363
0.244377
0.244391
0.244405
0.244419
0.244419
0.244433
0.244447
0.244461
0.244476
0.244476
0.24449
0.244504
0.244519
0.244533
0.244533
0.244548
0.244562
0.244577
0.244591
0.244591
0.244606
0.24462
0.244635
0.24465
0.24465
0.244664
0.244679
0.244694
0.244709
0.244709
0.244723
0.244738
0.244753
0.244768
0.244768
0.244783
0.244798
0.244813
0.244828
0.244828
0.244843
0.244858
0.244874
0.244889
0.244889
0.244904
0.244919
0.244935
0.24495
0.24495
0.244965
0.244981
0.244996
0.245012
0.245012
0.245027
0.245043
0.245058
0.245074
0.245074
0.24509
0.245105
0.245121
0.245137
0.245137
0.245153
0.245168
0.245184
0.2452
0.2452
0.245216
0.245232
0.245248
0.245264
0.245264
0.24528
0.245296
0.245312
0.245329
0.245329
0.245345
0.245361
0.245377
0.245394
0.245394
0.24541
0.245426
0.245443
0.245459
0.245459
0.245475
0.245492
0.245509
0.245525
0.245525
0.245542
0.245558
0.245575
0.245592
0.245592
0.245608
0.245625
0.245642
0.245659
0.245659
0.245676
0.245693
0.24571
0.245727
0.245727
0.245744
0.245761
0.245778
0.245795
0.245795
0.245812
0.245829
0.245846
0.245864
0.245864
0.245881
0.245898
0.245916
0.245933
0.245933
0.24595
0.245968
0.245985
0.246003
0.246003
0.24602
0.246038
0.246056
0.246073
0.246073
0.246091
0.246109
0.246126
0.246144
0.246144
0.246162
0.24618
0.246198
0.246216
0.246216
0.246234
0.246252
0.24627
0.246288
0.246288
0.246306
0.246324
0.246342
0.24636
0.24636
0.246378
0.246397
0.246415
0.246433
0.246433
0.246452
0.24647
0.246489
0.246507
0.246507
0.246526
0.246544
0.246563
0.246581
0.246581
0.2466
0.246619
0.246637
0.246656
0.246656
0.246675
0.246694
0.246712
0.246731
0.246731
0.24675
0.246769
0.246788
0.246807
0.246807
0.246826
0.246845
0.246864
0.246884
0.246884
0.246903
0.246922
0.246941
0.24696
0.24696
0.24698
0.246999
0.247018
0.247038
0.247038
0.247057
0.247077
0.247096
0.247116
0.247116
0.247135
0.247155
0.247175
0.247194
0.247194
0.247214
0.247234
0.247254
0.247274
0.247274
0.247293
0.247313
0.247333
0.247353
0.247353
0.247373
0.247393
0.247413
0.247433
0.247433
0.247453
0.247474
0.247494
0.247514
0.247514
0.247534
0.247555
0.247575
0.247595
0.247595
0.247616
0.247636
0.247657
0.247677
0.247677
0.247698
0.247718
0.247739
0.247759
0.247759
0.24778
0.247801
0.247822
0.247842
0.247842
0.247863
0.247884
0.247905
0.247926
0.247926
0.247947
0.247968
0.247989
0.24801
0.24801
0.248031
0.248052
0.248073
0.248094
0.248094
0.248115
0.248137
0.248158
0.248179
0.248179
0.248201
0.248222
0.248243
0.248265
0.248265
0.248286
0.248308
0.248329
0.248351
0.248351
0.248373
0.248394
0.248416
0.248438
0.248438
0.248459
0.248481
0.248503
0.248525
0.248525
0.248547
0.248569
0.248591
0.248613
0.248613
0.248635
0.248657
0.248679
0.248701
0.248701
0.248723
0.248745
0.248768
0.24879
0.24879
0.248812
0.248834
0.248857
0.248879
0.248879
0.248902
0.248924
0.248947
0.248969
0.248969
0.248992
0.249014
0.249037
0.24906
0.24906
0.249082
0.249105
0.249128
0.249151
0.249151
0.249173
0.249196
0.249219
0.249242
0.249242
0.249265
0.249288
0.249311
0.249334
0.249334
0.249357
0.24938
0.249404
0.249427
0.249427
0.24945
0.249473
0.249497
0.24952
0.24952
0.249543
0.249567
0.24959
0.249614
0.249614
0.249637
0.249661
0.249684
0.249708
0.249708
0.249732
0.249755
0.249779
0.249803
0.249803
0.249827
0.24985
0.249874
0.249898
0.249898
0.249922
0.249946
0.24997
0.249994
0.249994
0.250018
0.250042
0.250066
0.25009
0.25009
0.250115
0.250139
0.250163
0.250187
0.250187
0.250212
0.250236
0.25026
0.250285
0.250285
0.250309
0.250334
0.250358
0.250383
0.250383
0.250408
0.250432
0.250457
0.250482
0.250482
0.250506
0.250531
0.250556
0.250581
0.250581
0.250605
0.25063
0.250655
0.25068
0.25068
0.250705
0.25073
0.250755
0.250781
0.250781
0.250806
0.250831
0.250856
0.250881
0.250881
0.250907
0.250932
0.250957
0.250983
0.250983
0.251008
0.251033
0.251059
0.251084
0.251084
0.25111
0.251135
0.251161
0.251187
0.251187
0.251212
0.251238
0.251264
0.25129
0.25129
0.251315
0.251341
0.251367
0.251393
0.251393
0.251419
0.251445
0.251471
0.251497
0.251497
0.251523
0.251549
0.251575
0.251602
0.251602
0.251628
0.251654
0.25168
0.251707
0.251707
0.251733
0.251759
0.251786
0.251812
0.251812
0.251839
0.251865
0.251892
0.251918
0.251918
0.251945
0.251972
0.251998
0.252025
0.252025
0.252052
0.252079
0.252106
0.252132
0.252132
0.252159
0.252186
0.252213
0.25224
0.25224
0.252267
0.252294
0.252321
0.252348
0.252348
0.252376
0.252403
0.25243
0.252457
0.252457
0.252485
0.252512
0.252539
0.252567
0.252567
0.252594
0.252622
0.252649
0.252677
0.252677
0.252704
0.252732
0.252759
0.252787
0.252787
0.252815
0.252843
0.25287
0.252898
0.252898
0.252926
0.252954
0.252982
0.25301
0.25301
0.253038
0.253066
0.253094
0.253122
0.253122
0.25315
0.253178
0.253206
0.253234
0.253234
0.253263
0.253291
0.253319
0.253348
0.253348
0.253376
0.253404
0.253433
0.253461
0.253461
0.25349
0.253518
0.253547
0.253576
0.253576
0.253604
0.253633
0.253662
0.25369
0.25369
0.253719
0.253748
0.253777
0.253806
0.253806
0.253835
0.253864
0.253892
0.253922
0.253922
0.253951
0.25398
0.254009
0.254038
0.254038
0.254067
0.254096
0.254126
0.254155
0.254155
0.254184
0.254214
0.254243
0.254272
0.254272
0.254302
0.254331
0.254361
0.25439
0.25439
0.25442
0.25445
0.254479
0.254509
0.254509
0.254539
0.254568
0.254598
0.254628
0.254628
0.254658
0.254688
0.254718
0.254748
0.254748
0.254778
0.254808
0.254838
0.254868
0.254868
0.254898
0.254928
0.254958
0.254989
0.254989
0.255019
0.255049
0.25508
0.25511
0.25511
0.25514
0.255171
0.255201
0.255232
0.255232
0.255262
0.255293
0.255323
0.255354
0.255354
0.255385
0.255415
0.255446
0.255477
0.255477
0.255508
0.255539
0.255569
0.2556
0.2556
0.255631
0.255662
0.255693
0.255724
0.255724
0.255755
0.255786
0.255818
0.255849
0.255849
0.25588
0.255911
0.255942
0.255974
0.255974
0.256005
0.256037
0.256068
0.256099
0.256099
0.256131
0.256162
0.256194
0.256225
0.256225
0.256257
0.256289
0.25632
0.256352
0.256352
0.256384
0.256416
0.256447
0.256479
0.256479
0.256511
0.256543
0.256575
0.256607
0.256607
0.256639
0.256671
0.256703
0.256735
0.256735
0.256767
0.2568
0.256832
0.256864
0.256864
0.256896
0.256929
0.256961
0.256993
0.256993
0.257026
0.257058
0.257091
0.257123
0.257123
0.257156
0.257188
0.257221
0.257254
0.257254
0.257286
0.257319
0.257352
0.257385
0.257385
0.257418
0.25745
0.257483
0.257516
0.257516
0.257549
0.257582
0.257615
0.257648
0.257648
0.257681
0.257714
0.257748
0.257781
0.257781
0.257814
0.257847
0.257881
0.257914
0.257914
0.257947
0.257981
0.258014
0.258048
0.258048
0.258081
0.258115
0.258148
0.258182
0.258182
0.258215
0.258249
0.258283
0.258316
0.258316
0.25835
0.258384
0.258418
0.258452
0.258452
0.258486
0.25852
0.258554
0.258588
0.258588
0.258622
0.258656
0.25869
0.258724
0.258724
0.258758
0.258792
0.258826
0.258861
0.258861
0.258895
0.258929
0.258964
0.258998
0.258998
0.259033
0.259067
0.259102
0.259136
0.259136
0.259171
0.259205
0.25924
0.259275
0.259275
0.259309
0.259344
0.259379
0.259414
0.259414
0.259448
0.259483
0.259518
0.259553
0.259553
0.259588
0.259623
0.259658
0.259693
0.259693
0.259728
0.259764
0.259799
0.259834
0.259834
0.259869
0.259904
0.25994
0.259975
0.259975
0.26001
0.260046
0.260081
0.260117
0.260117
0.260152
0.260188
0.260223
0.260259
0.260259
0.260295
0.26033
0.260366
0.260402
0.260402
0.260438
0.260473
0.260509
0.260545
0.260545
0.260581
0.260617
0.260653
0.260689
0.260689
0.260725
0.260761
0.260797
0.260833
0.260833
0.26087
0.260906
0.260942
0.260978
0.260978
0.261015
0.261051
0.261087
0.261124
0.261124
0.26116
0.261197
0.261233
0.26127
0.26127
0.261306
0.261343
0.26138
0.261416
0.261416
0.261453
0.26149
0.261527
0.261563
0.261563
0.2616
0.261637
0.261674
0.261711
0.261711
0.261748
0.261785
0.261822
0.261859
0.261859
0.261896
0.261933
0.261971
0.262008
0.262008
0.262045
0.262082
0.26212
0.262157
0.262157
0.262194
0.262232
0.262269
0.262307
0.262307
0.262344
0.262382
0.262419
0.262457
0.262457
0.262495
0.262532
0.26257
0.262608
0.262608
0.262646
0.262684
0.262721
0.262759
0.262759
0.262797
0.262835
0.262873
0.262911
0.262911
0.262949
0.262987
0.263025
0.263064
0.263064
0.263102
0.26314
0.263178
0.263217
0.263217
0.263255
0.263293
0.263332
0.26337
0.26337
0.263409
0.263447
0.263486
0.263524
0.263524
0.263563
0.263601
0.26364
0.263679
0.263679
0.263717
0.263756
0.263795
0.263834
0.263834
0.263873
0.263912
0.26395
0.263989
0.263989
0.264028
0.264067
0.264107
0.264146
0.264146
0.264185
0.264224
0.264263
0.264302
0.264302
0.264342
0.264381
0.26442
0.26446
0.26446
0.264499
0.264538
0.264578
0.264617
0.264617
0.264657
0.264696
0.264736
0.264776
0.264776
0.264815
0.264855
0.264895
0.264935
0.264935
0.264974
0.265014
0.265054
0.265094
0.265094
0.265134
0.265174
0.265214
0.265254
0.265254
0.265294
0.265334
0.265374
0.265414
0.265414
0.265455
0.265495
0.265535
0.265575
0.265575
0.265616
0.265656
0.265696
0.265737
0.265737
0.265777
0.265818
0.265858
0.265899
0.265899
0.26594
0.26598
0.266021
0.266062
0.266062
0.266102
0.266143
0.266184
0.266225
0.266225
0.266266
0.266306
0.266347
0.266388
0.266388
0.266429
0.26647
0.266511
0.266553
0.266553
0.266594
0.266635
0.266676
0.266717
0.266717
0.266759
0.2668
0.266841
0.266883
0.266883
0.266924
0.266965
0.267007
0.267048
0.267048
0.26709
0.267131
0.267173
0.267215
0.267215
0.267256
0.267298
0.26734
0.267382
0.267382
0.267423
0.267465
0.267507
0.267549
0.267549
0.267591
0.267633
0.267675
0.267717
0.267717
0.267759
0.267801
0.267843
0.267885
0.267885
0.267928
0.26797
0.268012
0.268054
0.268054
0.268097
0.268139
0.268182
0.268224
0.268224
0.268266
0.268309
0.268351
0.268394
0.268394
0.268437
0.268479
0.268522
0.268565
0.268565
0.268607
0.26865
0.268693
0.268736
0.268736
0.268779
0.268822
0.268865
0.268907
0.268907
0.26895
0.268994
0.269037
0.26908
0.26908
0.269123
0.269166
0.269209
0.269252
0.269252
0.269296
0.269339
0.269382
0.269426
0.269426
0.269469
0.269513
0.269556
0.2696
0.2696
0.269643
0.269687
0.26973
0.269774
0.269774
0.269818
0.269861
0.269905
0.269949
0.269949
0.269993
0.270036
0.27008
0.270124
0.270124
0.270168
0.270212
0.270256
0.2703
0.2703
0.270344
0.270388
0.270432
0.270477
0.270477
0.270521
0.270565
0.270609
0.270654
0.270654
0.270698
0.270742
0.270787
0.270831
0.270831
0.270876
0.27092
0.270965
0.271009
0.271009
0.271054
0.271098
0.271143
0.271188
0.271188
0.271233
0.271277
0.271322
0.271367
0.271367
0.271412
0.271457
0.271502
0.271547
0.271547
0.271592
0.271637
0.271682
0.271727
0.271727
0.271772
0.271817
0.271862
0.271908
0.271908
0.271953
0.271998
0.272043
0.272089
0.272089
0.272134
0.27218
0.272225
0.272271
0.272271
0.272316
0.272362
0.272407
0.272453
0.272453
0.272499
0.272544
0.27259
0.272636
0.272636
0.272682
0.272727
0.272773
0.272819
0.272819
0.272865
0.272911
0.272957
0.273003
0.273003
0.273049
0.273095
0.273141
0.273188
0.273188
0.273234
0.27328
0.273326
0.273373
0.273373
0.273419
0.273465
0.273512
0.273558
0.273558
0.273604
0.273651
0.273698
0.273744
0.273744
0.273791
0.273837
0.273884
0.273931
0.273931
0.273977
0.274024
0.274071
0.274118
0.274118
0.274165
0.274212
0.274258
0.274305
0.274305
0.274352
0.274399
0.274446
0.274494
0.274494
0.274541
0.274588
0.274635
0.274682
0.274682
0.27473
0.274777
0.274824
0.274872
0.274872
0.274919
0.274966
0.275014
0.275061
0.275061
0.275109
0.275156
0.275204
0.275252
0.275252
0.275299
0.275347
0.275395
0.275442
0.275442
0.27549
0.275538
0.275586
0.275634
0.275634
0.275682
0.27573
0.275778
0.275826
0.275826
0.275874
0.275922
0.27597
0.276018
0.276018
0.276066
0.276114
0.276163
0.276211
0.276211
0.276259
0.276308
0.276356
0.276404
0.276404
0.276453
0.276501
0.27655
0.276598
0.276598
0.276647
0.276696
0.276744
0.276793
0.276793
0.276842
0.27689
0.276939
0.276988
0.276988
0.277037
0.277086
0.277135
0.277184
0.277184
0.277233
0.277282
0.277331
0.27738
0.27738
0.277429
0.277478
0.277527
0.277576
0.277576
0.277626
0.277675
0.277724
0.277774
0.277774
0.277823
0.277872
0.277922
0.277971
0.277971
0.278021
0.27807
0.27812
0.27817
0.27817
0.278219
0.278269
0.278319
0.278368
0.278368
0.278418
0.278468
0.278518
0.278568
0.278568
0.278618
0.278667
0.278717
0.278767
0.278767
0.278817
0.278868
0.278918
0.278968
0.278968
0.279018
0.279068
0.279118
0.279169
0.279169
0.279219
0.279269
0.27932
0.27937
0.27937
0.279421
0.279471
0.279521
0.279572
0.279572
0.279623
0.279673
0.279724
0.279774
0.279774
0.279825
0.279876
0.279927
0.279977
0.279977
0.280028
0.280079
0.28013
0.280181
0.280181
0.280232
0.280283
0.280334
0.280385
0.280385
0.280436
0.280487
0.280538
0.28059
0.28059
0.280641
0.280692
0.280743
0.280795
0.280795
0.280846
0.280897
0.280949
0.281
0.281
0.281052
0.281103
0.281155
0.281207
0.281207
0.281258
0.28131
0.281362
0.281413
0.281413
0.281465
0.281517
0.281569
0.28162
0.28162
0.281672
0.281724
0.281776
0.281828
0.281828
0.28188
0.281932
0.281984
0.282036
0.282036
0.282089
0.282141
0.282193
0.282245
0.282245
0.282298
0.28235
0.282402
0.282455
0.282455
0.282507
0.282559
0.282612
0.282664
0.282664
0.282717
0.28277
0.282822
0.282875
0.282875
0.282928
0.28298
0.283033
0.283086
0.283086
0.283139
0.283191
0.283244
0.283297
0.283297
0.28335
0.283403
0.283456
0.283509
0.283509
0.283562
0.283615
0.283668
0.283722
0.283722
0.283775
0.283828
0.283881
0.283935
0.283935
0.283988
0.284041
0.284095
0.284148
0.284148
0.284202
0.284255
0.284309
0.284362
0.284362
0.284416
0.28447
0.284523
0.284577
0.284577
0.284631
0.284684
0.284738
0.284792
0.284792
0.284846
0.2849
0.284954
0.285008
0.285008
0.285062
0.285116
0.28517
0.285224
0.285224
0.285278
0.285332
0.285386
0.285441
0.285441
0.285495
0.285549
0.285603
0.285658
0.285658
0.285712
0.285767
0.285821
0.285875
0.285875
0.28593
0.285985
0.286039
0.286094
0.286094
0.286148
0.286203
0.286258
0.286313
0.286313
0.286367
0.286422
0.286477
0.286532
0.286532
0.286587
0.286642
0.286697
0.286752
0.286752
0.286807
0.286862
0.286917
0.286972
0.286972
0.287027
0.287082
0.287138
0.287193
0.287193
0.287248
0.287304
0.287359
0.287414
0.287414
0.28747
0.287525
0.287581
0.287636
0.287636
0.287692
0.287748
0.287803
0.287859
0.287859
0.287915
0.28797
0.288026
0.288082
0.288082
0.288138
0.288194
0.288249
0.288305
0.288305
0.288361
0.288417
0.288473
0.288529
0.288529
0.288586
0.288642
0.288698
0.288754
0.288754
0.28881
0.288866
0.288923
0.288979
0.288979
0.289035
0.289092
0.289148
0.289205
0.289205
0.289261
0.289318
0.289374
0.289431
0.289431
0.289487
0.289544
0.289601
0.289658
0.289658
0.289714
0.289771
0.289828
0.289885
0.289885
0.289942
0.289999
0.290055
0.290112
0.290112
0.290169
0.290226
0.290284
0.290341
0.290341
0.290398
0.290455
0.290512
0.290569
0.290569
0.290627
0.290684
0.290741
0.290799
0.290799
0.290856
0.290914
0.290971
0.291029
0.291029
0.291086
0.291144
0.291201
0.291259
0.291259
0.291317
0.291374
0.291432
0.29149
0.29149
0.291548
0.291605
0.291663
0.291721
0.291721
0.291779
0.291837
0.291895
0.291953
0.291953
0.292011
0.292069
0.292127
0.292185
0.292185
0.292244
0.292302
0.29236
0.292418
0.292418
0.292477
0.292535
0.292593
0.292652
0.292652
0.29271
0.292769
0.292827
0.292886
0.292886
0.292944
0.293003
0.293062
0.29312
0.29312
0.293179
0.293238
0.293297
0.293355
0.293355
0.293414
0.293473
0.293532
0.293591
0.293591
0.29365
0.293709
0.293768
0.293827
0.293827
0.293886
0.293945
0.294004
0.294064
0.294064
0.294123
0.294182
0.294241
0.294301
0.294301
0.29436
0.294419
0.294479
0.294538
0.294538
0.294598
0.294657
0.294717
0.294777
0.294777
0.294836
0.294896
0.294955
0.295015
0.295015
0.295075
0.295135
0.295195
0.295254
0.295254
0.295314
0.295374
0.295434
0.295494
0.295494
0.295554
0.295614
0.295674
0.295734
0.295734
0.295795
0.295855
0.295915
0.295975
0.295975
0.296035
0.296096
0.296156
0.296216
0.296216
0.296277
0.296337
0.296398
0.296458
0.296458
0.296519
0.296579
0.29664
0.296701
0.296701
0.296761
0.296822
0.296883
0.296943
0.296943
0.297004
0.297065
0.297126
0.297187
0.297187
0.297248
0.297309
0.29737
0.297431
0.297431
0.297492
0.297553
0.297614
0.297675
0.297675
0.297736
0.297797
0.297859
0.29792
0.29792
0.297981
0.298043
0.298104
0.298165
0.298165
0.298227
0.298288
0.29835
0.298411
0.298411
0.298473
0.298535
0.298596
0.298658
0.298658
0.29872
0.298781
0.298843
0.298905
0.298905
0.298967
0.299029
0.29909
0.299152
0.299152
0.299214
0.299276
0.299338
0.2994
0.2994
0.299463
0.299525
0.299587
0.299649
0.299649
0.299711
0.299774
0.299836
0.299898
0.299898
0.29996
0.300023
0.300085
0.300148
0.300148
0.30021
0.300273
0.300335
0.300398
0.300398
0.30046
0.300523
0.300586
0.300648
0.300648
0.300711
0.300774
0.300837
0.3009
0.3009
0.300962
0.301025
0.301088
0.301151
0.301151
0.301214
0.301277
0.30134
0.301403
0.301403
0.301467
0.30153
0.301593
0.301656
0.301656
0.301719
0.301783
0.301846
0.301909
0.301909
0.301973
0.302036
0.3021
0.302163
0.302163
0.302227
0.30229
0.302354
0.302417
0.302417
0.302481
0.302545
0.302608
0.302672
0.302672
0.302736
0.3028
0.302864
0.302927
0.302927
0.302991
0.303055
0.303119
0.303183
0.303183
0.303247
0.303311
0.303375
0.30344
0.30344
0.303504
0.303568
0.303632
0.303696
0.303696
0.303761
0.303825
0.303889
0.303954
0.303954
0.304018
0.304083
0.304147
0.304212
0.304212
0.304276
0.304341
0.304405
0.30447
0.30447
0.304535
0.304599
0.304664
0.304729
0.304729
0.304794
0.304859
0.304924
0.304988
0.304988
0.305053
0.305118
0.305183
0.305248
0.305248
0.305313
0.305379
0.305444
0.305509
0.305509
0.305574
0.305639
0.305705
0.30577
0.30577
0.305835
0.305901
0.305966
0.306031
0.306031
0.306097
0.306162
0.306228
0.306293
0.306293
0.306359
0.306425
0.30649
0.306556
0.306556
0.306622
0.306687
0.306753
0.306819
0.306819
0.306885
0.306951
0.307016
0.307082
0.307082
0.307148
0.307214
0.30728
0.307346
0.307346
0.307413
0.307479
0.307545
0.307611
0.307611
0.307677
0.307744
0.30781
0.307876
0.307876
0.307943
0.308009
0.308075
0.308142
0.308142
0.308208
0.308275
0.308341
0.308408
0.308408
0.308475
0.308541
0.308608
0.308675
0.308675
0.308741
0.308808
0.308875
0.308942
0.308942
0.309009
0.309075
0.309142
0.309209
0.309209
0.309276
0.309343
0.30941
0.309478
0.309478
0.309545
0.309612
0.309679
0.309746
0.309746
0.309813
0.309881
0.309948
0.310015
0.310015
0.310083
0.31015
0.310218
0.310285
0.310285
0.310353
0.31042
0.310488
0.310555
0.310555
0.310623
0.310691
0.310758
0.310826
0.310826
0.310894
0.310962
0.31103
0.311097
0.311097
0.311165
0.311233
0.311301
0.311369
0.311369
0.311437
0.311505
0.311573
0.311641
0.311641
0.31171
0.311778
0.311846
0.311914
0.311914
0.311983
0.312051
0.312119
0.312188
0.312188
0.312256
0.312324
0.312393
0.312461
0.312461
0.31253
0.312599
0.312667
0.312736
0.312736
0.312804
0.312873
0.312942
0.313011
0.313011
0.313079
0.313148
0.313217
0.313286
0.313286
0.313355
0.313424
0.313493
0.313562
0.313562
0.313631
0.3137
0.313769
0.313838
0.313838
0.313907
0.313977
0.314046
0.314115
0.314115
0.314184
0.314254
0.314323
0.314393
0.314393
0.314462
0.314531
0.314601
0.31467
0.31467
0.31474
0.31481
0.314879
0.314949
0.314949
0.315019
0.315088
0.315158
0.315228
0.315228
0.315298
0.315367
0.315437
0.315507
0.315507
0.315577
0.315647
0.315717
0.315787
0.315787
0.315857
0.315927
0.315997
0.316068
0.316068
0.316138
0.316208
0.316278
0.316349
0.316349
0.316419
0.316489
0.31656
0.31663
0.31663
0.316701
0.316771
0.316842
0.316912
0.316912
0.316983
0.317053
0.317124
0.317195
0.317195
0.317265
0.317336
0.317407
0.317478
0.317478
0.317548
0.317619
0.31769
0.317761
0.317761
0.317832
0.317903
0.317974
0.318045
0.318045
0.318116
0.318187
0.318259
0.31833
0.31833
0.318401
0.318472
0.318543
0.318615
0.318615
0.318686
0.318758
0.318829
0.3189
0.3189
0.318972
0.319043
0.319115
0.319186
0.319186
0.319258
0.31933
0.319401
0.319473
0.319473
0.319545
0.319617
0.319688
0.31976
0.31976
0.319832
0.319904
0.319976
0.320048
0.320048
0.32012
0.320192
0.320264
0.320336
0.320336
0.320408
0.32048
0.320552
0.320624
0.320624
0.320697
0.320769
0.320841
0.320914
0.320914
0.320986
0.321058
0.321131
0.321203
0.321203
0.321276
0.321348
0.321421
0.321493
0.321493
0.321566
0.321639
0.321711
0.321784
0.321784
0.321857
0.321929
0.322002
0.322075
0.322075
0.322148
0.322221
0.322294
0.322367
0.322367
0.32244
0.322513
0.322586
0.322659
0.322659
0.322732
0.322805
0.322878
0.322952
0.322952
0.323025
0.323098
0.323171
0.323245
0.323245
0.323318
0.323392
0.323465
0.323538
0.323538
0.323612
0.323685
0.323759
0.323833
0.323833
0.323906
0.32398
0.324054
0.324127
0.324127
0.324201
0.324275
0.324349
0.324423
0.324423
0.324496
0.32457
0.324644
0.324718
0.324718
0.324792
0.324866
0.32494
0.325014
0.325014
0.325089
0.325163
0.325237
0.325311
0.325311
0.325385
0.32546
0.325534
0.325608
0.325608
0.325683
0.325757
0.325832
0.325906
0.325906
0.325981
0.326055
0.32613
0.326204
0.326204
0.326279
0.326354
0.326428
0.326503
0.326503
0.326578
0.326653
0.326727
0.326802
0.326802
0.326877
0.326952
0.327027
0.327102
0.327102
0.327177
0.327252
0.327327
0.327402
0.327402
0.327477
0.327553
0.327628
0.327703
0.327703
0.327778
0.327854
0.327929
0.328004
0.328004
0.32808
0.328155
0.328231
0.328306
0.328306
0.328382
0.328457
0.328533
0.328608
0.328608
0.328684
0.32876
0.328835
0.328911
0.328911
0.328987
0.329063
0.329139
0.329214
0.329214
0.32929
0.329366
0.329442
0.329518
0.329518
0.329594
0.32967
0.329746
0.329822
0.329822
0.329899
0.329975
0.330051
0.330127
0.330127
0.330203
0.33028
0.330356
0.330433
0.330433
0.330509
0.330585
0.330662
0.330738
0.330738
0.330815
0.330891
0.330968
0.331045
0.331045
0.331121
0.331198
0.331275
0.331351
0.331351
0.331428
0.331505
0.331582
0.331659
0.331659
0.331736
0.331812
0.331889
0.331966
0.331966
0.332043
0.332121
0.332198
0.332275
0.332275
0.332352
0.332429
0.332506
0.332584
0.332584
0.332661
0.332738
0.332815
0.332893
0.332893
0.33297
0.333048
0.333125
0.333203
0.333203
0.33328
0.333358
0.333435
0.333513
0.333513
0.333591
0.333668
0.333746
0.333824
0.333824
0.333901
0.333979
0.334057
0.334135
0.334135
0.334213
0.334291
0.334369
0.334447
0.334447
0.334525
0.334603
0.334681
0.334759
0.334759
0.334837
0.334915
0.334994
0.335072
0.335072
0.33515
0.335228
0.335307
0.335385
0.335385
0.335464
0.335542
0.33562
0.335699
0.335699
0.335778
0.335856
0.335935
0.336013
0.336013
0.336092
0.336171
0.336249
0.336328
0.336328
0.336407
0.336486
0.336564
0.336643
0.336643
0.336722
0.336801
0.33688
0.336959
0.336959
0.337038
0.337117
0.337196
0.337275
0.337275
0.337355
0.337434
0.337513
0.337592
0.337592
0.337672
0.337751
0.33783
0.33791
0.33791
0.337989
0.338068
0.338148
0.338227
0.338227
0.338307
0.338386
0.338466
0.338546
0.338546
0.338625
0.338705
0.338785
0.338864
0.338864
0.338944
0.339024
0.339104
0.339184
0.339184
0.339264
0.339343
0.339423
0.339503
0.339503
0.339583
0.339663
0.339744
0.339824
0.339824
0.339904
0.339984
0.340064
0.340144
0.340144
0.340225
0.340305
0.340385
0.340466
0.340466
0.340546
0.340627
0.340707
0.340787
0.340787
0.340868
0.340949
0.341029
0.34111
0.34111
0.34119
0.341271
0.341352
0.341433
0.341433
0.341513
0.341594
0.341675
0.341756
0.341756
0.341837
0.341918
0.341999
0.34208
0.34208
0.342161
0.342242
0.342323
0.342404
0.342404
0.342485
0.342566
0.342647
0.342728
0.342728
0.34281
0.342891
0.342972
0.343054
0.343054
0.343135
0.343217
0.343298
0.343379
0.343379
0.343461
0.343542
0.343624
0.343706
0.343706
0.343787
0.343869
0.343951
0.344032
0.344032
0.344114
0.344196
0.344278
0.34436
0.34436
0.344441
0.344523
0.344605
0.344687
0.344687
0.344769
0.344851
0.344933
0.345015
0.345015
0.345098
0.34518
0.345262
0.345344
0.345344
0.345426
0.345509
0.345591
0.345673
0.345673
0.345756
0.345838
0.345921
0.346003
0.346003
0.346086
0.346168
0.346251
0.346333
0.346333
0.346416
0.346499
0.346581
0.346664
0.346664
0.346747
0.346829
0.346912
0.346995
0.346995
0.347078
0.347161
0.347244
0.347327
0.347327
0.34741
0.347493
0.347576
0.347659
0.347659
0.347742
0.347825
0.347908
0.347991
0.347991
0.348075
0.348158
0.348241
0.348325
0.348325
0.348408
0.348491
0.348575
0.348658
0.348658
0.348742
0.348825
0.348909
0.348992
0.348992
0.349076
0.34916
0.349243
0.349327
0.349327
0.349411
0.349494
0.349578
0.349662
0.349662
0.349746
0.34983
0.349914
0.349998
0.349998
0.350082
0.350166
0.35025
0.350334
0.350334
0.350418
0.350502
0.350586
0.35067
0.35067
0.350755
0.350839
0.350923
0.351007
0.351007
0.351092
0.351176
0.35126
0.351345
0.351345
0.351429
0.351514
0.351598
0.351683
0.351683
0.351768
0.351852
0.351937
0.352021
0.352021
0.352106
0.352191
0.352276
0.35236
0.35236
0.352445
0.35253
0.352615
0.3527
0.3527
0.352785
0.35287
0.352955
0.35304
0.35304
0.353125
0.35321
0.353295
0.35338
0.35338
0.353466
0.353551
0.353636
0.353721
0.353721
0.353807
0.353892
0.353978
0.354063
0.354063
0.354148
0.354234
0.354319
0.354405
0.354405
0.35449
0.354576
0.354662
0.354747
0.354747
0.354833
0.354919
0.355004
0.35509
0.35509
0.355176
0.355262
0.355348
0.355434
0.355434
0.35552
0.355606
0.355692
0.355778
0.355778
0.355864
0.35595
0.356036
0.356122
0.356122
0.356208
0.356294
0.356381
0.356467
0.356467
0.356553
0.356639
0.356726
0.356812
0.356812
0.356899
0.356985
0.357072
0.357158
0.357158
0.357245
0.357331
0.357418
0.357504
0.357504
0.357591
0.357678
0.357764
0.357851
0.357851
0.357938
0.358025
0.358112
0.358199
0.358199
0.358285
0.358372
0.358459
0.358546
0.358546
0.358633
0.35872
0.358808
0.358895
0.358895
0.358982
0.359069
0.359156
0.359243
0.359243
0.359331
0.359418
0.359505
0.359593
0.359593
0.35968
0.359767
0.359855
0.359942
0.359942
0.36003
0.360117
0.360205
0.360293
0.360293
0.36038
0.360468
0.360556
0.360643
0.360643
0.360731
0.360819
0.360907
0.360995
0.360995
0.361082
0.36117
0.361258
0.361346