<?xml version="1.0"?>
<VTKFile type="UnstructuredGrid" version="0.1" byte_order="LittleEndian">
<UnstructuredGrid>
<Piece NumberOfPoints="5000" NumberOfCells="4000">
<PointData Scalars="Reaction 0">
<DataArray type="Float32" Name="Reaction 0" format="ascii">
0.359954
0.359954
0.359954
0.359954
0.359954
0.359954
0.359954
0.359954
0.359954
0.359955
0.359955
0.359955
0.359955
0.359955
0.359956
0.359956
0.359956
0.359957
0.359957
0.359957
0.359957
0.359958
0.359958
0.359959
0.35996
0.35996
0.35996
0.359961
0.359961
0.359962
0.359962
0.359963
0.359964
0.359964
0.359965
0.359965
0.359966
0.359967
0.359968
0.359969
0.359969
0.35997
0.359971
0.359972
0.359973
0.359973
0.359974
0.359975
0.359976
0.359977
0.359977
0.359978
0.35998
0.359981
0.359982
0.359982
0.359984
0.359985
0.359986
0.359988
0.359988
0.359989
0.359991
0.359992
0.359994
0.359994
0.359995
0.359997
0.359998
0.36
0.36
0.360002
0.360003
0.360005
0.360007
0.360007
0.360009
0.36001
0.360012
0.360014
0.360014
0.360016
0.360018
0.36002
0.360022
0.360022
0.360024
0.360026
0.360028
0.36003
0.36003
0.360032
0.360035
0.360037
0.360039
0.360039
0.360041
0.360044
0.360046
0.360048
0.360048
0.360051
0.360053
0.360055
0.360058
0.360058
0.36006
0.360063
0.360066
0.360068
0.360068
0.360071
0.360073
0.360076
0.360079
0.360079
0.360081
0.360084
0.360087
0.36009
0.36009
0.360093
0.360096
0.360098
0.360101
0.360101
0.360104
0.360107
0.36011
0.360113
0.360113
0.360117
0.36012
0.360123
0.360126
0.360126
0.360129
0.360132
0.360136
0.360139
0.360139
0.360142
0.360146
0.360149
0.360153
0.360153
0.360156
0.360159
0.360163
0.360166
0.360166
0.36017
0.360174
0.360177
0.360181
0.360181
0.360185
0.360188
0.360192
0.360196
0.360196
0.3602
0.360203
0.360207
0.360211
0.360211
0.360215
0.360219
0.360223
0.360227
0.360227
0.360231
0.360235
0.360239
0.360243
0.360243
0.360247
0.360252
0.360256
0.36026
0.36026
0.360264
0.360269
0.360273
0.360277
0.360277
0.360282
0.360286
0.360291
0.360295
0.360295
0.3603
0.360304
0.360309
0.360313
0.360313
0.360318
0.360323
0.360327
0.360332
0.360332
0.360337
0.360341
0.360346
0.360351
0.360351
0.360356
0.360361
0.360366
0.360371
0.360371
0.360376
0.360381
0.360386
0.360391
0.360391
0.360396
0.360401
0.360406
0.360411
0.360411
0.360417
0.360422
0.360427
0.360432
0.360432
0.360438
0.360443
0.360449
0.360454
0.360454
0.360459
0.360465
0.36047
0.360476
0.360476
0.360482
0.360487
0.360493
0.360498
0.360498
0.360504
0.36051
0.360516
0.360521
0.360521
0.360527
0.360533
0.360539
0.360545
0.360545
0.360551
0.360557
0.360563
0.360569
0.360569
0.360575
0.360581
0.360587
0.360593
0.360593
0.360599
0.360605
0.360612
0.360618
0.360618
0.360624
0.36063
0.360637
0.360643
0.360643
0.36065
0.360656
0.360662
0.360669
0.360669
0.360675
0.360682
0.360689
0.360695
0.360695
0.360702
0.360708
0.360715
0.360722
0.360722
0.360729
0.360735
0.360742
0.360749
0.360749
0.360756
0.360763
0.36077
0.360777
0.360777
0.360784
0.360791
0.360798
0.360805
0.360805
0.360812
0.360819
0.360826
0.360833
0.360833
0.360841
0.360848
0.360855
0.360862
0.360862
0.36087
0.360877
0.360885
0.360892
0.360892
0.360899
0.360907
0.360915
0.360922
0.360922
0.36093
0.360937
0.360945
0.360953
0.360953
0.36096
0.360968
0.360976
0.360984
0.360984
0.360991
0.360999
0.361007
0.361015
0.361015
0.361023
0.361031
0.361039
0.361047
0.361047
0.361055
0.361063
0.361071
0.361079
0.361079
0.361087
0.361096
0.361104
0.361112
0.361112
0.36112
0.361129
0.361137
0.361145
0.361145
0.361154
0.361162
0.361171
0.361179
0.361179
0.361188
0.361196
0.361205
0.361213
0.361213
0.361222
0.361231
0.361239
0.361248
0.361248
0.361257
0.361266
0.361275
0.361283
0.361283
0.361292
0.361301
0.36131
0.361319
0.361319
0.361328
0.361337
0.361346
0.361355
0.361355
0.361364
0.361374
0.361383
0.361392
0.361392
0.361401
0.36141
0.36142
0.361429
0.361429
0.361438
0.361448
0.361457
0.361467
0.361467
0.361476
0.361486
0.361495
0.361505
0.361505
0.361514
0.361524
0.361533
0.361543
0.361543
0.361553
0.361563
0.361572
0.361582
0.361582
0.361592
0.361602
0.361612
0.361622
0.361622
0.361632
0.361642
0.361652
0.361662
0.361662
0.361672
0.361682
0.361692
0.361702
0.361702
0.361712
0.361722
0.361733
0.361743
0.361743
0.361753
0.361763
0.361774
0.361784
0.361784
0.361795
0.361805
0.361815
0.361826
0.361826
0.361837
0.361847
0.361858
0.361868
0.361868
0.361879
0.36189
0.3619
0.361911
0.361911
0.361922
0.361933
0.361943
0.361954
0.361954
0.361965
0.361976
0.361987
0.361998
0.361998
0.362009
0.36202
0.362031
0.362042
0.362042
0.362053
0.362064
0.362076
0.362087
0.362087
0.362098
0.362109
0.362121
0.362132
0.362132
0.362143
0.362155
0.362166
0.362178
0.362178
0.362189
0.362201
0.362212
0.362224
0.362224
0.362235
0.362247
0.362258
0.36227
0.36227
0.362282
0.362294
0.362305
0.362317
0.362317
0.362329
0.362341
0.362353
0.362365
0.362365
0.362377
0.362389
0.362401
0.362413
0.362413
0.362425
0.362437
0.362449
0.362461
0.362461
0.362473
0.362485
0.362498
0.36251
0.36251
0.362522
0.362535
0.362547
0.362559
0.362559
0.362572
0.362584
0.362597
0.362609
0.362609
0.362622
0.362634
0.362647
0.362659
0.362659
0.362672
0.362685
0.362697
0.36271
0.36271
0.362723
0.362736
0.362749
0.362761
0.362761
0.362774
0.362787
0.3628
0.362813
0.362813
0.362826
0.362839
0.362852
0.362865
0.362865
0.362878
0.362892
0.362905
0.362918
0.362918
0.362931
0.362945
0.362958
0.362971
0.362971
0.362985
0.362998
0.363011
0.363025
0.363025
0.363038
0.363052
0.363065
0.363079
0.363079
0.363092
0.363106
0.36312
0.363133
0.363133
0.363147
0.363161
0.363175
0.363188
0.363188
0.363202
0.363216
0.36323
0.363244
0.363244
0.363258
0.363272
0.363286
0.3633
0.3633
0.363314
0.363328
0.363342
0.363356
0.363356
0.36337
0.363385
0.363399
0.363413
0.363413
0.363427
0.363442
0.363456
0.363471
0.363471
0.363485
0.363499
0.363514
0.363528
0.363528
0.363543
0.363557
0.363572
0.363587
0.363587
0.363601
0.363616
0.363631
0.363645
0.363645
0.36366
0.363675
0.36369
0.363705
0.363705
0.36372
0.363735
0.36375
0.363764
0.363764
0.363779
0.363795
0.36381
0.363825
0.363825
0.36384
0.363855
0.36387
0.363885
0.363885
0.363901
0.363916
0.363931
0.363946
0.363946
0.363962
0.363977
0.363993
0.364008
0.364008
0.364024
0.364039
0.364055
0.36407
0.36407
0.364086
0.364101
0.364117
0.364133
0.364133
0.364148
0.364164
0.36418
0.364196
0.364196
0.364212
0.364227
0.364243
0.364259
0.364259
0.364275
0.364291
0.364307
0.364323
0.364323
0.364339
0.364355
0.364371
0.364388
0.364388
0.364404
0.36442
0.364436
0.364452
0.364452
0.364469
0.364485
0.364501
0.364518
0.364518
0.364534
0.364551
0.364567
0.364584
0.364584
0.3646
0.364617
0.364633
0.36465
0.36465
0.364667
0.364683
0.3647
0.364717
0.364717
0.364734
0.36475
0.364767
0.364784
0.364784
0.364801
0.364818
0.364835
0.364852
0.364852
0.364869
0.364886
0.364903
0.36492
0.36492
0.364937
0.364954
0.364971
0.364989
0.364989
0.365006
0.365023
0.36504
0.365058
0.365058
0.365075
0.365092
0.36511
0.365127
0.365127
0.365145
0.365162
0.36518
0.365197
0.365197
0.365215
0.365233
0.36525
0.365268
0.365268
0.365286
0.365303
0.365321
0.365339
0.365339
0.365357
0.365375
0.365392
0.36541
0.36541
0.365428
0.365446
0.365464
0.365482
0.365482
0.3655
0.365518
0.365537
0.365555
0.365555
0.365573
0.365591
0.365609
0.365628
0.365628
0.365646
0.365664
0.365683
0.365701
0.365701
0.365719
0.365738
0.365756
0.365775
0.365775
0.365793
0.365812
0.36583
0.365849
0.365849
0.365868
0.365886
0.365905
0.365924
0.365924
0.365943
0.365961
0.36598
0.365999
0.365999
0.366018
0.366037
0.366056
0.366075
0.366075
0.366094
0.366113
0.366132
0.366151
0.366151
0.36617
0.366189
0.366208
0.366228
0.366228
0.366247
0.366266
0.366285
0.366305
0.366305
0.366324
0.366343
0.366363
0.366382
0.366382
0.366402
0.366421
0.366441
0.36646
0.36646
0.36648
0.366499
0.366519
0.366539
0.366539
0.366558
0.366578
0.366598
0.366618
0.366618
0.366638
0.366657
0.366677
0.366697
0.366697
0.366717
0.366737
0.366757
0.366777
0.366777
0.366797
0.366817
0.366837
0.366858
0.366858
0.366878
0.366898
0.366918
0.366938
0.366938
0.366959
0.366979
0.366999
0.36702
0.36702
0.36704
0.367061
0.367081
0.367101
0.367101
0.367122
0.367143
0.367163
0.367184
0.367184
0.367204
0.367225
0.367246
0.367266
0.367266
0.367287
0.367308
0.367329
0.36735
0.36735
0.367371
0.367391
0.367412
0.367433
0.367433
0.367454
0.367475
0.367496
0.367517
0.367517
0.367539
0.36756
0.367581
0.367602
0.367602
0.367623
0.367645
0.367666
0.367687
0.367687
0.367708
0.36773
0.367751
0.367773
0.367773
0.367794
0.367816
0.367837
0.367859
0.367859
0.36788
0.367902
0.367923
0.367945
0.367945
0.367967
0.367989
0.36801
0.368032
0.368032
0.368054
0.368076
0.368098
0.368119
0.368119
0.368141
0.368163
0.368185
0.368207
0.368207
0.368229
0.368251
0.368274
0.368296
0.368296
0.368318
0.36834
0.368362
0.368384
0.368384
0.368407
0.368429
0.368451
0.368474
0.368474
0.368496
0.368519
0.368541
0.368563
0.368563
0.368586
0.368609
0.368631
0.368654
0.368654
0.368676
0.368699
0.368722
0.368744
0.368744
0.368767
0.36879
0.368813
0.368836
0.368836
0.368858
0.368881
0.368904
0.368927
0.368927
0.36895
0.368973
0.368996
0.369019
0.369019
0.369042
0.369065
0.369089
0.369112
0.369112
0.369135
0.369158
0.369181
0.369205
0.369205
0.369228
0.369251
0.369275
0.369298
0.369298
0.369322
0.369345
0.369369
0.369392
0.369392
0.369416
0.369439
0.369463
0.369487
0.369487
0.36951
0.369534
0.369558
0.369581
0.369581
0.369605
0.369629
0.369653
0.369677
0.369677
0.369701
0.369725
0.369749
0.369773
0.369773
0.369797
0.369821
0.369845
0.369869
0.369869
0.369893
0.369917
0.369941
0.369966
0.369966
0.36999
0.370014
0.370039
0.370063
0.370063
0.370087
0.370112
0.370136
0.370161
0.370161
0.370185
0.37021
0.370234
0.370259
0.370259
0.370283
0.370308
0.370333
0.370357
0.370357
0.370382
0.370407
0.370432
0.370456
0.370456
0.370481
0.370506
0.370531
0.370556
0.370556
0.370581
0.370606
0.370631
0.370656
0.370656
0.370681
0.370706
0.370731
0.370756
0.370756
0.370782
0.370807
0.370832
0.370857
0.370857
0.370883
0.370908
0.370933
0.370959
0.370959
0.370984
0.37101
0.371035
0.371061
0.371061
0.371086
0.371112
0.371137
0.371163
0.371163
0.371189
0.371214
0.37124
0.371266
0.371266
0.371292
0.371317
0.371343
0.371369
0.371369
0.371395
0.371421
0.371447
0.371473
0.371473
0.371499
0.371525
0.371551
0.371577
0.371577
0.371603
0.371629
0.371655
0.371682
0.371682
0.371708
0.371734
0.37176
0.371787
0.371787
0.371813
0.37184
0.371866
0.371892
0.371892
0.371919
0.371945
0.371972
0.371998
0.371998
0.372025
0.372052
0.372078
0.372105
0.372105
0.372132
0.372158
0.372185
0.372212
0.372212
0.372239
0.372266
0.372293
0.372319
0.372319
0.372346
0.372373
0.3724
0.372427
0.372427
0.372454
0.372481
0.372509
0.372536
0.372536
0.372563
0.37259
0.372617
0.372645
0.372645
0.372672
0.372699
0.372727
0.372754
0.372754
0.372781
0.372809
0.372836
0.372864
0.372864
0.372891
0.372919
0.372946
0.372974
0.372974
0.373002
0.373029
0.373057
0.373085
0.373085
0.373112
0.37314
0.373168
0.373196
0.373196
0.373224
0.373252
0.373279
0.373307
0.373307
0.373335
0.373363
0.373391
0.37342
0.37342
0.373448
0.373476
0.373504
0.373532
0.373532
0.37356
0.373589
0.373617
0.373645
0.373645
0.373673
0.373702
0.37373
0.373759
0.373759
0.373787
0.373816
0.373844
0.373873
0.373873
0.373901
0.37393
0.373958
0.373987
0.373987
0.374016
0.374044
0.374073
0.374102
0.374102
0.374131
0.37416
0.374188
0.374217
0.374217
0.374246
0.374275
0.374304
0.374333
0.374333
0.374362
0.374391
0.37442
0.374449
0.374449
0.374479
0.374508
0.374537
0.374566
0.374566
0.374595
0.374625
0.374654
0.374683
0.374683
0.374713
0.374742
0.374772
0.374801
0.374801
0.37483
0.37486
0.37489
0.374919
0.374919
0.374949
0.374978
0.375008
0.375038
0.375038
0.375067
0.375097
0.375127
0.375157
0.375157
0.375187
0.375216
0.375246
0.375276
0.375276
0.375306
0.375336
0.375366
0.375396
0.375396
0.375426
0.375456
0.375487
0.375517
0.375517
0.375547
0.375577
0.375607
0.375638
0.375638
0.375668
0.375698
0.375729
0.375759
0.375759
0.375789
0.37582
0.37585
0.375881
0.375881
0.375911
0.375942
0.375973
0.376003
0.376003
0.376034
0.376064
0.376095
0.376126
0.376126
0.376157
0.376187
0.376218
0.376249
0.376249
0.37628
0.376311
0.376342
0.376373
0.376373
0.376404
0.376435
0.376466
0.376497
0.376497
0.376528
0.376559
0.37659
0.376622
0.376622
0.376653
0.376684
0.376715
0.376747
0.376747
0.376778
0.376809
0.376841
0.376872
0.376872
0.376904
0.376935
0.376967
0.376998
0.376998
0.37703
0.377061
0.377093
0.377125
0.377125
0.377156
0.377188
0.37722
0.377252
0.377252
0.377283
0.377315
0.377347
0.377379
0.377379
0.377411
0.377443
0.377475
0.377507
0.377507
0.377539
0.377571
0.377603
0.377635
0.377635
0.377667
0.377699
0.377732
0.377764
0.377764
0.377796
0.377828
0.377861
0.377893
0.377893
0.377925
0.377958
0.37799
0.378023
0.378023
0.378055
0.378088
0.37812
0.378153
0.378153
0.378186
0.378218
0.378251
0.378284
0.378284
0.378316
0.378349
0.378382
0.378415
0.378415
0.378447
0.37848
0.378513
0.378546
0.378546
0.378579
0.378612
0.378645
0.378678
0.378678
0.378711
0.378744
0.378777
0.378811
0.378811
0.378844
0.378877
0.37891
0.378944
0.378944
0.378977
0.37901
0.379044
0.379077
0.379077
0.37911
0.379144
0.379177
0.379211
0.379211
0.379244
0.379278
0.379311
0.379345
0.379345
0.379379
0.379412
0.379446
0.37948
0.37948
0.379514
0.379547
0.379581
0.379615
0.379615
0.379649
0.379683
0.379717
0.379751
0.379751
0.379785
0.379819
0.379853
0.379887
0.379887
0.379921
0.379955
0.379989
0.380023
0.380023
0.380058
0.380092
0.380126
0.380161
0.380161
0.380195
0.380229
0.380264
0.380298
0.380298
0.380333
0.380367
0.380402
0.380436
0.380436
0.380471
0.380505
0.38054
0.380575
0.380575
0.380609
0.380644
0.380679
0.380713
0.380713
0.380748
0.380783
0.380818
0.380853
0.380853
0.380888
0.380923
0.380958
0.380993
0.380993
0.381028
0.381063
0.381098
0.381133
0.381133
0.381168
0.381203
0.381238
0.381274
0.381274
0.381309
0.381344
0.381379
0.381415
0.381415
0.38145
0.381486
0.381521
0.381556
0.381556
0.381592
0.381627
0.381663
0.381699
0.381699
0.381734
0.38177
0.381805
0.381841
0.381841
0.381877
0.381913
0.381948
0.381984
0.381984
0.38202
0.382056
0.382092
0.382128
0.382128
0.382164
0.3822
0.382236
0.382272
0.382272
0.382308
0.382344
0.38238
0.382416
0.382416
0.382452
0.382488
0.382525
0.382561
0.382561
0.382597
0.382634
0.38267
0.382706
0.382706
0.382743
0.382779
0.382816
0.382852
0.382852
0.382889
0.382925
0.382962
0.382998
0.382998
0.383035
0.383072
0.383108
0.383145
0.383145
0.383182
0.383219
0.383255
0.383292
0.383292
0.383329
0.383366
0.383403
0.38344
0.38344
0.383477
0.383514
0.383551
0.383588
0.383588
0.383625
0.383662
0.383699
0.383736
0.383736
0.383774
0.383811
0.383848
0.383885
0.383885
0.383923
0.38396
0.383997
0.384035
0.384035
0.384072
0.38411
0.384147
0.384185
0.384185
0.384222
0.38426
0.384298
0.384335
0.384335
0.384373
0.384411
0.384448
0.384486
0.384486
0.384524
0.384562
0.384599
0.384637
0.384637
0.384675
0.384713
0.384751
0.384789
0.384789
0.384827
0.384865
0.384903
0.384941
0.384941
0.384979
0.385017
0.385056
0.385094
0.385094
0.385132
0.38517
0.385209
0.385247
0.385247
0.385285
0.385324
0.385362
0.385401
0.385401
0.385439
0.385477
0.385516
0.385555
0.385555
0.385593
0.385632
0.38567
0.385709
0.385709
0.385748
0.385786
0.385825
0.385864
0.385864
0.385903
0.385942
0.38598
0.386019
0.386019
0.386058
0.386097
0.386136
0.386175
0.386175
0.386214
0.386253
0.386292
0.386332
0.386332
0.386371
0.38641
0.386449
0.386488
0.386488
0.386528
0.386567
0.386606
0.386646
0.386646
0.386685
0.386724
0.386764
0.386803
0.386803
0.386843
0.386882
0.386922
0.386961
0.386961
0.387001
0.387041
0.38708
0.38712
0.38712
0.38716
0.387199
0.387239
0.387279
0.387279
0.387319
0.387359
0.387399
0.387438
0.387438
0.387478
0.387518
0.387558
0.387598
0.387598
0.387638
0.387679
0.387719
0.387759
0.387759
0.387799
0.387839
0.387879
0.38792
0.38792
0.38796
0.388
0.388041
0.388081
0.388081
0.388121
0.388162
0.388202
0.388243
0.388243
0.388283
0.388324
0.388364
0.388405
0.388405
0.388446
0.388486
0.388527
0.388568
0.388568
0.388608
0.388649
0.38869
0.388731
0.388731
0.388772
0.388813
0.388854
0.388894
0.388894
0.388935
0.388976
0.389017
0.389059
0.389059
0.3891
0.389141
0.389182
0.389223
0.389223
0.389264
0.389305
0.389347
0.389388
0.389388
0.389429
0.389471
0.389512
0.389553
0.389553
0.389595
0.389636
0.389678
0.389719
0.389719
0.389761
0.389802
0.389844
0.389886
0.389886
0.389927
0.389969
0.390011
0.390052
0.390052
0.390094
0.390136
0.390178
0.39022
0.39022
0.390261
0.390303
0.390345
0.390387
0.390387
0.390429
0.390471
0.390513
0.390555
0.390555
0.390598
0.39064
0.390682
0.390724
0.390724
0.390766
0.390808
0.390851
0.390893
0.390893
0.390935
0.390978
0.39102
0.391063
0.391063
0.391105
0.391147
0.39119
0.391233
0.391233
0.391275
0.391318
0.39136
0.391403
0.391403
0.391446
0.391488
0.391531
0.391574
0.391574
0.391617
0.391659
0.391702
0.391745
0.391745
0.391788
0.391831
0.391874
0.391917
0.391917
0.39196
0.392003
0.392046
0.392089
0.392089
0.392132
0.392175
0.392219
0.392262
0.392262
0.392305
0.392348
0.392392
0.392435
0.392435
0.392478
0.392522
0.392565
0.392608
0.392608
0.392652
0.392695
0.392739
0.392782
0.392782
0.392826
0.39287
0.392913
0.392957
0.392957
0.393001
0.393044
0.393088
0.393132
0.393132
0.393176
0.39322
0.393263
0.393307
0.393307
0.393351
0.393395
0.393439
0.393483
0.393483
0.393527
0.393571
0.393615
0.393659
0.393659
0.393704
0.393748
0.393792
0.393836
0.393836
0.39388
0.393925
0.393969
0.394013
0.394013
0.394058
0.394102
0.394147
0.394191
0.394191
0.394235
0.39428
0.394325
0.394369
0.394369
0.394414
0.394458
0.394503
0.394548
0.394548
0.394592
0.394637
0.394682
0.394727
0.394727
0.394771
0.394816
0.394861
0.394906
0.394906
0.394951
0.394996
0.395041
0.395086
0.395086
0.395131
0.395176
0.395221
0.395266
0.395266
0.395312
0.395357
0.395402
0.395447
0.395447
0.395492
0.395538
0.395583
0.395628
0.395628
0.395674
0.395719
0.395765
0.39581
0.39581
0.395856
0.395901
0.395947
0.395992
0.395992
0.396038
0.396084
0.396129
0.396175
0.396175
0.396221
0.396266
0.396312
0.396358
0.396358
0.396404
0.39645
0.396496
0.396541
0.396541
0.396587
0.396633
0.396679
0.396725
0.396725
0.396771
0.396818
0.396864
0.39691
0.39691
0.396956
0.397002
0.397048
0.397095
0.397095
0.397141
0.397187
0.397234
0.39728
0.39728
0.397326
0.397373
0.397419
0.397466
0.397466
0.397512
0.397559
0.397605
0.397652
0.397652
0.397699
0.397745
0.397792
0.397839
0.397839
0.397885
0.397932
0.397979
0.398026
0.398026
0.398073
0.398119
0.398166
0.398213
0.398213
0.39826
0.398307
0.398354
0.398401
0.398401
0.398448
0.398495
0.398543
0.39859
0.39859
0.398637
0.398684
0.398731
0.398779
0.398779
0.398826
0.398873
0.398921
0.398968
0.398968
0.399015
0.399063
0.39911
0.399158
0.399158
0.399205
0.399253
0.3993
0.399348
0.399348
0.399396
0.399443
0.399491
0.399539
0.399539
0.399587
0.399634
0.399682
0.39973
0.39973
0.399778
0.399826
0.399874
0.399922
0.399922
0.39997
0.400018
0.400066
0.400114
0.400114
0.400162
0.40021
0.400258
0.400306
0.400306
0.400354
0.400402
0.400451
0.400499
0.400499
0.400547
0.400596
0.400644
0.400692
0.400692
0.400741
0.400789
0.400838
0.400886
0.400886
0.400935
0.400983
0.401032
0.401081
0.401081
0.401129
0.401178
0.401227
0.401275
0.401275
0.401324
0.401373
0.401422
0.40147
0.40147
0.401519
0.401568
0.401617
0.401666
0.401666
0.401715
0.401764
0.401813
0.401862
0.401862
0.401911
0.40196
0.40201
0.402059
0.402059
0.402108
0.402157
0.402206
0.402256
0.402256
0.402305
0.402354
0.402404
0.402453
0.402453
0.402503
0.402552
0.402601
0.402651
0.402651
0.4027
0.40275
0.4028
0.402849
0.402849
0.402899
0.402949
0.402998
0.403048
0.403048
0.403098
0.403148
0.403197
0.403247
0.403247
0.403297
0.403347
0.403397
0.403447
0.403447
0.403497
0.403547
0.403597
0.403647
0.403647
0.403697
0.403747
0.403797
0.403848
0.403848
0.403898
0.403948
0.403998
0.404049
0.404049
0.404099
0.404149
0.4042
0.40425
0.40425
0.4043
0.404351
0.404401
0.404452
0.404452
0.404502
0.404553
0.404604
0.404654
0.404654
0.404705
0.404756
0.404806
0.404857
0.404857
0.404908
0.404959
0.405009
0.40506
0.40506
0.405111
0.405162
0.405213
0.405264
0.405264
0.405315
0.405366
0.405417
0.405468
0.405468
0.405519
0.40557
0.405621
0.405673
0.405673
0.405724
0.405775
0.405826
0.405878
0.405878
0.405929
0.40598
0.406032
0.406083
0.406083
0.406134
0.406186
0.406237
0.406289
0.406289
0.40634
0.406392
0.406444
0.406495
0.406495
0.406547
0.406599
0.40665
0.406702
0.406702
0.406754
0.406806
0.406857
0.406909
0.406909
0.406961
0.407013
0.407065
0.407117
0.407117
0.407169
0.407221
0.407273
0.407325
0.407325
0.407377
0.407429
0.407481
0.407534
0.407534
0.407586
0.407638
0.40769
0.407743
0.407743
0.407795
0.407847
0.4079
0.407952
0.407952
0.408004
0.408057
0.408109
0.408162
0.408162
0.408214
0.408267
0.40832
0.408372
0.408372
0.408425
0.408478
0.40853
0.408583
0.408583
0.408636
0.408689
0.408741
0.408794
0.408794
0.408847
0.4089
0.408953
0.409006
0.409006
0.409059
0.409112
0.409165
0.409218
0.409218
0.409271
0.409324
0.409377
0.409431
0.409431
0.409484
0.409537
0.40959
0.409644
0.409644
0.409697
0.40975
0.409804
0.409857
0.409857
0.40991
0.409964
0.410017
0.410071
0.410071
0.410124
0.410178
0.410232
0.410285
0.410285
0.410339
0.410393
0.410446
0.4105
0.4105
0.410554
0.410608
0.410661
0.410715
0.410715
0.410769
0.410823
0.410877
0.410931
0.410931
0.410985
0.411039
0.411093
0.411147
0.411147
0.411201
0.411255
0.411309
0.411363
0.411363
0.411418
0.411472
0.411526
0.41158
0.41158
0.411635
0.411689
0.411743
0.411798
0.411798
0.411852
0.411907
0.411961
0.412016
0.412016
0.41207
0.412125
0.412179
0.412234
0.412234
0.412289
0.412343
0.412398
0.412453
0.412453
0.412508
0.412562
0.412617
0.412672
0.412672
0.412727
0.412782
0.412837
0.412892
0.412892
0.412947
0.413002
0.413057
0.413112
0.413112
0.413167
0.413222
0.413277
0.413332
0.413332
0.413387
0.413443
0.413498
0.413553
0.413553
0.413608
0.413664
0.413719
0.413775
0.413775
0.41383
0.413885
0.413941
0.413996
0.413996
0.414052
0.414107
0.414163
0.414219
0.414219
0.414274
0.41433
0.414386
0.414441
0.414441
0.414497
0.414553
0.414609
0.414665
0.414665
0.41472
0.414776
0.414832
0.414888
0.414888
0.414944
0.415
0.415056
0.415112
0.415112
0.415168
0.415224
0.415281
0.415337
0.415337
0.415393
0.415449
0.415505
0.415562
0.415562
0.415618
0.415674
0.415731
0.415787
0.415787
0.415843
0.4159
0.415956
0.416013
0.416013
0.416069
0.416126
0.416182
0.416239
0.416239
0.416296
0.416352
0.416409
0.416466
0.416466
0.416522
0.416579
0.416636
0.416693
0.416693
0.41675
0.416807
0.416863
0.41692
0.41692
0.416977
0.417034
0.417091
0.417148
0.417148
0.417205
0.417263
0.41732
0.417377
0.417377
0.417434
0.417491
0.417548
0.417606
0.417606
0.417663
0.41772
0.417778
0.417835
0.417835
0.417892
0.41795
0.418007
0.418065
0.418065
0.418122
0.41818
0.418237
0.418295
0.418295
0.418353
0.41841
0.418468
0.418526
0.418526
0.418583
0.418641
0.418699
0.418757
0.418757
0.418815
0.418872
0.41893
0.418988
0.418988
0.419046
0.419104
0.419162
0.41922
0.41922
0.419278
0.419336
0.419394
0.419453
0.419453
0.419511
0.419569
0.419627
0.419685
0.419685
0.419744
0.419802
0.41986
0.419919
0.419919
0.419977
0.420035
0.420094
0.420152
0.420152
0.420211
0.420269
0.420328
0.420386
0.420386
0.420445
0.420504
0.420562
0.420621
0.420621
0.42068
0.420738
0.420797
0.420856
0.420856
0.420915
0.420974
0.421033
0.421092
0.421092
0.42115
0.421209
0.421268
0.421327
0.421327
0.421386
0.421446
0.421505
0.421564
0.421564
0.421623
0.421682
0.421741
0.4218
0.4218
0.42186
0.421919
0.421978
0.422038
0.422038
0.422097
0.422156
0.422216
0.422275
0.422275
0.422335
0.422394
0.422454
0.422513
0.422513
0.422573
0.422633
0.422692
0.422752
0.422752
0.422812
0.422871
0.422931
0.422991
0.422991
0.423051
0.423111
0.42317
0.42323
0.42323
0.42329
0.42335
0.42341
0.42347
0.42347
0.42353
0.42359
0.42365
0.42371
0.42371
0.42377
0.423831
0.423891
0.423951
0.423951
0.424011
0.424072
0.424132
0.424192
0.424192
0.424253
0.424313
0.424373
0.424434
0.424434
0.424494
0.424555
0.424615
0.424676
0.424676
0.424736
0.424797
0.424858
0.424918
0.424918
0.424979
0.42504
0.4251
0.425161
0.425161
0.425222
0.425283
0.425343
0.425404
0.425404
0.425465
0.425526
0.425587
0.425648
0.425648
0.425709
0.42577
0.425831
0.425892
0.425892
0.425953
0.426015
0.426076
0.426137
0.426137
0.426198
0.426259
0.426321
0.426382
0.426382
0.426443
0.426505
0.426566
0.426627
0.426627
0.426689
0.42675
0.426812
0.426873
0.426873
0.426935
0.426996
0.427058
0.42712
0.42712
0.427181
0.427243
0.427305
0.427366
0.427366
0.427428
0.42749
0.427552
0.427614
0.427614
0.427676
0.427737
0.427799
0.427861
0.427861
0.427923
0.427985
0.428047
0.428109
0.428109
0.428172
0.428234
0.428296
0.428358
0.428358
0.42842
0.428482
0.428545
0.428607
0.428607
0.428669
0.428732
0.428794
0.428856
0.428856
0.428919
0.428981
0.429044
0.429106
0.429106
0.429169
0.429231
0.429294
0.429356
0.429356
0.429419
0.429482
0.429544
0.429607
0.429607
0.42967
0.429733
0.429795
0.429858
0.429858
0.429921
0.429984
0.430047
0.43011
0.43011
0.430173
0.430236
0.430299
0.430362
0.430362
0.430425
0.430488
0.430551
0.430614
0.430614
0.430677
0.430741
0.430804
0.430867
0.430867
0.43093
0.430994
0.431057
0.43112
0.43112
0.431184
0.431247
0.431311
0.431374
0.431374
0.431438
0.431501
0.431565
0.431628
0.431628
0.431692
0.431755
0.431819
0.431883
0.431883
0.431947
0.43201
0.432074
0.432138
0.432138
0.432202
0.432266
0.432329
0.432393
0.432393
0.432457
0.432521
0.432585
0.432649
0.432649
0.432713
0.432777
0.432841
0.432906
0.432906
0.43297
0.433034
0.433098
0.433162
0.433162
0.433227
0.433291
0.433355
0.433419
0.433419
0.433484
0.433548
0.433613
0.433677
0.433677
0.433742
0.433806
0.433871
0.433935
0.433935
0.434
0.434064
0.434129
0.434194
0.434194
0.434258
0.434323
0.434388
0.434453
0.434453
0.434517
0.434582
0.434647
0.434712
0.434712
0.434777
0.434842
0.434907
0.434972
0.434972
0.435037
0.435102
0.435167
0.435232
0.435232
0.435297
0.435362
0.435427
0.435492
0.435492
0.435558
0.435623
0.435688
0.435754
0.435754
0.435819
0.435884
0.43595
0.436015
0.436015
0.43608
0.436146
0.436211
0.436277
0.436277
0.436343
0.436408
0.436474
0.436539
0.436539
0.436605
0.436671
0.436736
0.436802
0.436802
0.436868
0.436934
0.436999
0.437065
0.437065
0.437131
0.437197
0.437263
0.437329
0.437329
0.437395
0.437461
0.437527
0.437593
0.437593
0.437659
0.437725
0.437791
0.437858
0.437858
0.437924
0.43799
0.438056
0.438123
0.438123
0.438189
0.438255
0.438321
0.438388
0.438388
0.438454
0.438521
0.438587
0.438654
0.438654
0.43872
0.438787
0.438853
0.43892
0.43892
0.438987
0.439053
0.43912
0.439187
0.439187
0.439253
0.43932
0.439387
0.439454
0.439454
0.43952
0.439587
0.439654
0.439721
0.439721
0.439788
0.439855
0.439922
0.439989
0.439989
0.440056
0.440123
0.44019
0.440258
0.440258
0.440325
0.440392
0.440459
0.440526
0.440526
0.440594
0.440661
0.440728
0.440796
0.440796
0.440863
0.44093
0.440998
0.441065
0.441065
0.441133
0.4412
0.441268
0.441335
0.441335
0.441403
0.441471
0.441538
0.441606
0.441606
0.441674
0.441741
0.441809
0.441877
0.441877
0.441945
0.442012
0.44208
0.442148
0.442148
0.442216
0.442284
0.442352
0.44242
0.44242
0.442488
0.442556
0.442624
0.442692
0.442692
0.44276
0.442828
0.442897
0.442965
0.442965
0.443033
0.443101
0.44317
0.443238
0.443238
0.443306
0.443375
0.443443
0.443511
0.443511
0.44358
0.443648
0.443717
0.443785
0.443785
0.443854
0.443923
0.443991
0.44406
0.44406
0.444128
0.444197
0.444266
0.444335
0.444335
0.444403
0.444472
0.444541
0.44461
0.44461
0.444679
0.444748
0.444817
0.444885
0.444885
0.444954
0.445023
0.445092
0.445162
0.445162
0.445231
0.4453
0.445369
0.445438
0.445438
0.445507
0.445576
0.445646
0.445715
0.445715
0.445784
0.445854
0.445923
0.445992
0.445992
0.446062
0.446131
0.446201
0.44627
0.44627
0.44634
0.446409
0.446479
0.446548
0.446548
0.446618
0.446688
0.446757
0.446827
0.446827
0.446897
0.446966
0.447036
0.447106
0.447106
0.447176
0.447246
0.447316
0.447386
0.447386
0.447456
0.447525
0.447595
0.447666
0.447666
0.447736
0.447806
0.447876
0.447946
0.447946
0.448016
0.448086
0.448156
0.448227
0.448227
0.448297
0.448367
0.448438
0.448508
0.448508
0.448578
0.448649
0.448719
0.448789
0.448789
0.44886
0.44893
0.449001
0.449072
0.449072
0.449142
0.449213
0.449283
0.449354
0.449354
0.449425
0.449495
0.449566
0.449637
0.449637
0.449708
0.449779
0.449849
0.44992
0.44992
0.449991
0.450062
0.450133
0.450204
0.450204
0.450275
0.450346
0.450417
0.450488
0.450488
0.450559
0.45063
0.450702
0.450773
0.450773
0.450844
0.450915
0.450987
0.451058
0.451058
0.451129
0.451201
0.451272
0.451343
0.451343
0.451415
0.451486
0.451558
0.451629
0.451629
0.451701
0.451772
0.451844
0.451915
0.451915
0.451987
0.452059
0.45213
0.452202
0.452202
0.452274
0.452346
0.452418
0.452489
0.452489
0.452561
0.452633
0.452705
0.452777
0.452777
0.452849
0.452921
0.452993
0.453065
0.453065
0.453137
0.453209
0.453281
0.453353
0.453353
0.453426
0.453498
0.45357
0.453642
0.453642
0.453715
0.453787
0.453859
0.453932
0.453932
0.454004
0.454076
0.454149
0.454221
0.454221
0.454294
0.454366
0.454439
0.454511
0.454511
0.454584
0.454657
0.454729
0.454802
0.454802
0.454875
0.454947
0.45502
0.455093
0.455093
0.455166
0.455239
0.455311
0.455384
0.455384
0.455457
0.45553
0.455603
0.455676
0.455676
0.455749
0.455822
0.455895
0.455968
0.455968
0.456041
0.456115
0.456188
0.456261
0.456261
0.456334
0.456408
0.456481
0.456554
0.456554
0.456627
0.456701
0.456774
0.456848
0.456848
0.456921
0.456995
0.457068
0.457142
0.457142
0.457215
0.457289
0.457362
0.457436
0.457436
0.45751
0.457583
0.457657
0.457731
0.457731
0.457805
0.457878
0.457952
0.458026
0.458026
0.4581
0.458174
0.458248
0.458322
0.458322
0.458396
0.45847
0.458544
0.458618
0.458618
0.458692
0.458766
0.45884
0.458914
0.458914
0.458988
0.459063
0.459137
0.459211
0.459211
0.459285
0.45936
0.459434
0.459508
0.459508
0.459583
0.459657
0.459732
0.459806
0.459806
0.459881
0.459955
0.46003
0.460104
0.460104
0.460179
0.460254
0.460328
0.460403
0.460403
0.460478
0.460552
0.460627
0.460702
0.460702
0.460777
0.460852
0.460926
0.461001
0.461001
0.461076
0.461151
0.461226
0.461301
0.461301
0.461376
0.461451
0.461526
0.461601
0.461601
0.461677
0.461752
0.461827
0.461902
0.461902
0.461977
0.462053
0.462128
0.462203
0.462203
0.462279
0.462354
0.462429
0.462505
0.462505
0.46258
0.462656
0.462731
0.462807
0.462807
0.462882
0.462958
0.463034
0.463109
0.463109
0.463185