<?xml version="1.0"?>
<VTKFile type="UnstructuredGrid" version="0.1" byte_order="LittleEndian">
<UnstructuredGrid>
<Piece NumberOfPoints="5000" NumberOfCells="4000">
<PointData Scalars="Reaction 0">
<DataArray type="Float32" Name="Reaction 0" format="ascii">
0.146542
0.146542
0.146542
0.146542
0.146542
0.146542
0.146542
0.146543
0.146543
0.146543
0.146543
0.146543
0.146544
0.146544
0.146544
0.146544
0.146545
0.146545
0.146546
0.146546
0.146546
0.146547
0.146547
0.146548
0.146548
0.146548
0.146549
0.14655
0.14655
0.146551
0.146551
0.146552
0.146553
0.146553
0.146554
0.146554
0.146555
0.146556
0.146557
0.146558
0.146558
0.146559
0.14656
0.146561
0.146562
0.146562
0.146563
0.146564
0.146566
0.146567
0.146567
0.146568
0.146569
0.146571
0.146572
0.146572
0.146573
0.146575
0.146576
0.146578
0.146578
0.146579
0.146581
0.146582
0.146584
0.146584
0.146586
0.146587
0.146589
0.146591
0.146591
0.146592
0.146594
0.146596
0.146598
0.146598
0.1466
0.146602
0.146604
0.146606
0.146606
0.146608
0.14661
0.146612
0.146614
0.146614
0.146616
0.146618
0.14662
0.146622
0.146622
0.146625
0.146627
0.146629
0.146632
0.146632
0.146634
0.146636
0.146639
0.146641
0.146641
0.146644
0.146646
0.146649
0.146651
0.146651
0.146654
0.146657
0.146659
0.146662
0.146662
0.146665
0.146668
0.14667
0.146673
0.146673
0.146676
0.146679
0.146682
0.146685
0.146685
0.146688
0.146691
0.146694
0.146697
0.146697
0.1467
0.146703
0.146706
0.14671
0.14671
0.146713
0.146716
0.146719
0.146723
0.146723
0.146726
0.14673
0.146733
0.146736
0.146736
0.14674
0.146743
0.146747
0.146751
0.146751
0.146754
0.146758
0.146762
0.146765
0.146765
0.146769
0.146773
0.146777
0.14678
0.14678
0.146784
0.146788
0.146792
0.146796
0.146796
0.1468
0.146804
0.146808
0.146812
0.146812
0.146816
0.14682
0.146825
0.146829
0.146829
0.146833
0.146837
0.146841
0.146846
0.146846
0.14685
0.146855
0.146859
0.146863
0.146863
0.146868
0.146872
0.146877
0.146882
0.146882
0.146886
0.146891
0.146895
0.1469
0.1469
0.146905
0.14691
0.146914
0.146919
0.146919
0.146924
0.146929
0.146934
0.146939
0.146939
0.146944
0.146949
0.146954
0.146959
0.146959
0.146964
0.146969
0.146974
0.14698
0.14698
0.146985
0.14699
0.146995
0.147001
0.147001
0.147006
0.147011
0.147017
0.147022
0.147022
0.147028
0.147033
0.147039
0.147044
0.147044
0.14705
0.147055
0.147061
0.147067
0.147067
0.147073
0.147078
0.147084
0.14709
0.14709
0.147096
0.147102
0.147108
0.147113
0.147113
0.147119
0.147125
0.147131
0.147138
0.147138
0.147144
0.14715
0.147156
0.147162
0.147162
0.147168
0.147175
0.147181
0.147187
0.147187
0.147194
0.1472
0.147206
0.147213
0.147213
0.147219
0.147226
0.147232
0.147239
0.147239
0.147245
0.147252
0.147259
0.147265
0.147265
0.147272
0.147279
0.147286
0.147292
0.147292
0.147299
0.147306
0.147313
0.14732
0.14732
0.147327
0.147334
0.147341
0.147348
0.147348
0.147355
0.147362
0.147369
0.147377
0.147377
0.147384
0.147391
0.147398
0.147406
0.147406
0.147413
0.14742
0.147428
0.147435
0.147435
0.147443
0.14745
0.147458
0.147465
0.147465
0.147473
0.14748
0.147488
0.147496
0.147496
0.147503
0.147511
0.147519
0.147527
0.147527
0.147535
0.147542
0.14755
0.147558
0.147558
0.147566
0.147574
0.147582
0.14759
0.14759
0.147598
0.147606
0.147615
0.147623
0.147623
0.147631
0.147639
0.147648
0.147656
0.147656
0.147664
0.147673
0.147681
0.147689
0.147689
0.147698
0.147706
0.147715
0.147723
0.147723
0.147732
0.147741
0.147749
0.147758
0.147758
0.147767
0.147775
0.147784
0.147793
0.147793
0.147802
0.147811
0.14782
0.147828
0.147828
0.147837
0.147846
0.147855
0.147864
0.147864
0.147874
0.147883
0.147892
0.147901
0.147901
0.14791
0.147919
0.147929
0.147938
0.147938
0.147947
0.147957
0.147966
0.147976
0.147976
0.147985
0.147994
0.148004
0.148014
0.148014
0.148023
0.148033
0.148042
0.148052
0.148052
0.148062
0.148071
0.148081
0.148091
0.148091
0.148101
0.148111
0.148121
0.148131
0.148131
0.148141
0.148151
0.148161
0.148171
0.148171
0.148181
0.148191
0.148201
0.148211
0.148211
0.148221
0.148232
0.148242
0.148252
0.148252
0.148262
0.148273
0.148283
0.148294
0.148294
0.148304
0.148315
0.148325
0.148336
0.148336
0.148346
0.148357
0.148367
0.148378
0.148378
0.148389
0.1484
0.14841
0.148421
0.148421
0.148432
0.148443
0.148454
0.148465
0.148465
0.148476
0.148487
0.148498
0.148509
0.148509
0.14852
0.148531
0.148542
0.148553
0.148553
0.148564
0.148576
0.148587
0.148598
0.148598
0.14861
0.148621
0.148632
0.148644
0.148644
0.148655
0.148667
0.148678
0.14869
0.14869
0.148701
0.148713
0.148725
0.148736
0.148736
0.148748
0.14876
0.148771
0.148783
0.148783
0.148795
0.148807
0.148819
0.148831
0.148831
0.148843
0.148855
0.148867
0.148879
0.148879
0.148891
0.148903
0.148915
0.148927
0.148927
0.14894
0.148952
0.148964
0.148976
0.148976
0.148989
0.149001
0.149013
0.149026
0.149026
0.149038
0.149051
0.149063
0.149076
0.149076
0.149088
0.149101
0.149114
0.149126
0.149126
0.149139
0.149152
0.149165
0.149177
0.149177
0.14919
0.149203
0.149216
0.149229
0.149229
0.149242
0.149255
0.149268
0.149281
0.149281
0.149294
0.149307
0.14932
0.149334
0.149334
0.149347
0.14936
0.149373
0.149387
0.149387
0.1494
0.149413
0.149427
0.14944
0.14944
0.149454
0.149467
0.149481
0.149494
0.149494
0.149508
0.149521
0.149535
0.149549
0.149549
0.149562
0.149576
0.14959
0.149604
0.149604
0.149618
0.149632
0.149645
0.149659
0.149659
0.149673
0.149687
0.149701
0.149715
0.149715
0.14973
0.149744
0.149758
0.149772
0.149772
0.149786
0.1498
0.149815
0.149829
0.149829
0.149843
0.149858
0.149872
0.149887
0.149887
0.149901
0.149916
0.14993
0.149945
0.149945
0.149959
0.149974
0.149989
0.150003
0.150003
0.150018
0.150033
0.150048
0.150062
0.150062
0.150077
0.150092
0.150107
0.150122
0.150122
0.150137
0.150152
0.150167
0.150182
0.150182
0.150197
0.150212
0.150227
0.150243
0.150243
0.150258
0.150273
0.150288
0.150304
0.150304
0.150319
0.150334
0.15035
0.150365
0.150365
0.150381
0.150396
0.150412
0.150427
0.150427
0.150443
0.150459
0.150474
0.15049
0.15049
0.150506
0.150522
0.150537
0.150553
0.150553
0.150569
0.150585
0.150601
0.150617
0.150617
0.150633
0.150649
0.150665
0.150681
0.150681
0.150697
0.150713
0.150729
0.150746
0.150746
0.150762
0.150778
0.150794
0.150811
0.150811
0.150827
0.150843
0.15086
0.150876
0.150876
0.150893
0.150909
0.150926
0.150942
0.150942
0.150959
0.150976
0.150992
0.151009
0.151009
0.151026
0.151043
0.151059
0.151076
0.151076
0.151093
0.15111
0.151127
0.151144
0.151144
0.151161
0.151178
0.151195
0.151212
0.151212
0.151229
0.151246
0.151264
0.151281
0.151281
0.151298
0.151315
0.151333
0.15135
0.15135
0.151367
0.151385
0.151402
0.15142
0.15142
0.151437
0.151455
0.151472
0.15149
0.15149
0.151508
0.151525
0.151543
0.151561
0.151561
0.151578
0.151596
0.151614
0.151632
0.151632
0.15165
0.151668
0.151686
0.151704
0.151704
0.151722
0.15174
0.151758
0.151776
0.151776
0.151794
0.151812
0.15183
0.151849
0.151849
0.151867
0.151885
0.151903
0.151922
0.151922
0.15194
0.151959
0.151977
0.151996
0.151996
0.152014
0.152033
0.152051
0.15207
0.15207
0.152089
0.152107
0.152126
0.152145
0.152145
0.152163
0.152182
0.152201
0.15222
0.15222
0.152239
0.152258
0.152277
0.152296
0.152296
0.152315
0.152334
0.152353
0.152372
0.152372
0.152391
0.15241
0.15243
0.152449
0.152449
0.152468
0.152487
0.152507
0.152526
0.152526
0.152546
0.152565
0.152585
0.152604
0.152604
0.152624
0.152643
0.152663
0.152682
0.152682
0.152702
0.152722
0.152742
0.152761
0.152761
0.152781
0.152801
0.152821
0.152841
0.152841
0.152861
0.152881
0.152901
0.152921
0.152921
0.152941
0.152961
0.152981
0.153001
0.153001
0.153021
0.153041
0.153062
0.153082
0.153082
0.153102
0.153122
0.153143
0.153163
0.153163
0.153184
0.153204
0.153225
0.153245
0.153245
0.153266
0.153286
0.153307
0.153328
0.153328
0.153348
0.153369
0.15339
0.153411
0.153411
0.153431
0.153452
0.153473
0.153494
0.153494
0.153515
0.153536
0.153557
0.153578
0.153578
0.153599
0.15362
0.153641
0.153662
0.153662
0.153684
0.153705
0.153726
0.153747
0.153747
0.153769
0.15379
0.153812
0.153833
0.153833
0.153854
0.153876
0.153897
0.153919
0.153919
0.153941
0.153962
0.153984
0.154006
0.154006
0.154027
0.154049
0.154071
0.154093
0.154093
0.154114
0.154136
0.154158
0.15418
0.15418
0.154202
0.154224
0.154246
0.154268
0.154268
0.15429
0.154312
0.154335
0.154357
0.154357
0.154379
0.154401
0.154424
0.154446
0.154446
0.154468
0.154491
0.154513
0.154536
0.154536
0.154558
0.154581
0.154603
0.154626
0.154626
0.154648
0.154671
0.154694
0.154716
0.154716
0.154739
0.154762
0.154785
0.154807
0.154807
0.15483
0.154853
0.154876
0.154899
0.154899
0.154922
0.154945
0.154968
0.154991
0.154991
0.155014
0.155038
0.155061
0.155084
0.155084
0.155107
0.155131
0.155154
0.155177
0.155177
0.155201
0.155224
0.155248
0.155271
0.155271
0.155295
0.155318
0.155342
0.155365
0.155365
0.155389
0.155413
0.155436
0.15546
0.15546
0.155484
0.155508
0.155531
0.155555
0.155555
0.155579
0.155603
0.155627
0.155651
0.155651
0.155675
0.155699
0.155723
0.155747
0.155747
0.155772
0.155796
0.15582
0.155844
0.155844
0.155869
0.155893
0.155917
0.155942
0.155942
0.155966
0.155991
0.156015
0.15604
0.15604
0.156064
0.156089
0.156113
0.156138
0.156138
0.156163
0.156187
0.156212
0.156237
0.156237
0.156262
0.156286
0.156311
0.156336
0.156336
0.156361
0.156386
0.156411
0.156436
0.156436
0.156461
0.156486
0.156512
0.156537
0.156537
0.156562
0.156587
0.156612
0.156638
0.156638
0.156663
0.156688
0.156714
0.156739
0.156739
0.156765
0.15679
0.156816
0.156841
0.156841
0.156867
0.156892
0.156918
0.156944
0.156944
0.156969
0.156995
0.157021
0.157047
0.157047
0.157073
0.157099
0.157124
0.15715
0.15715
0.157176
0.157202
0.157228
0.157254
0.157254
0.157281
0.157307
0.157333
0.157359
0.157359
0.157385
0.157412
0.157438
0.157464
0.157464
0.157491
0.157517
0.157543
0.15757
0.15757
0.157596
0.157623
0.15765
0.157676
0.157676
0.157703
0.157729
0.157756
0.157783
0.157783
0.15781
0.157836
0.157863
0.15789
0.15789
0.157917
0.157944
0.157971
0.157998
0.157998
0.158025
0.158052
0.158079
0.158106
0.158106
0.158133
0.15816
0.158188
0.158215
0.158215
0.158242
0.158269
0.158297
0.158324
0.158324
0.158352
0.158379
0.158407
0.158434
0.158434
0.158462
0.158489
0.158517
0.158544
0.158544
0.158572
0.1586
0.158628
0.158655
0.158655
0.158683
0.158711
0.158739
0.158767
0.158767
0.158795
0.158823
0.158851
0.158879
0.158879
0.158907
0.158935
0.158963
0.158991
0.158991
0.159019
0.159048
0.159076
0.159104
0.159104
0.159132
0.159161
0.159189
0.159218
0.159218
0.159246
0.159275
0.159303
0.159332
0.159332
0.15936
0.159389
0.159417
0.159446
0.159446
0.159475
0.159504
0.159532
0.159561
0.159561
0.15959
0.159619
0.159648
0.159677
0.159677
0.159706
0.159735
0.159764
0.159793
0.159793
0.159822
0.159851
0.15988
0.15991
0.15991
0.159939
0.159968
0.159997
0.160027
0.160027
0.160056
0.160086
0.160115
0.160145
0.160145
0.160174
0.160204
0.160233
0.160263
0.160263
0.160292
0.160322
0.160352
0.160382
0.160382
0.160411
0.160441
0.160471
0.160501
0.160501
0.160531
0.160561
0.160591
0.160621
0.160621
0.160651
0.160681
0.160711
0.160741
0.160741
0.160771
0.160801
0.160832
0.160862
0.160862
0.160892
0.160923
0.160953
0.160983
0.160983
0.161014
0.161044
0.161075
0.161105
0.161105
0.161136
0.161166
0.161197
0.161228
0.161228
0.161258
0.161289
0.16132
0.161351
0.161351
0.161381
0.161412
0.161443
0.161474
0.161474
0.161505
0.161536
0.161567
0.161598
0.161598
0.161629
0.16166
0.161692
0.161723
0.161723
0.161754
0.161785
0.161817
0.161848
0.161848
0.161879
0.161911
0.161942
0.161974
0.161974
0.162005
0.162037
0.162068
0.1621
0.1621
0.162131
0.162163
0.162195
0.162226
0.162226
0.162258
0.16229
0.162322
0.162354
0.162354
0.162386
0.162417
0.162449
0.162481
0.162481
0.162513
0.162545
0.162578
0.16261
0.16261
0.162642
0.162674
0.162706
0.162739
0.162739
0.162771
0.162803
0.162835
0.162868
0.162868
0.1629
0.162933
0.162965
0.162998
0.162998
0.16303
0.163063
0.163096
0.163128
0.163128
0.163161
0.163194
0.163226
0.163259
0.163259
0.163292
0.163325
0.163358
0.163391
0.163391
0.163424
0.163457
0.16349
0.163523
0.163523
0.163556
0.163589
0.163622
0.163655
0.163655
0.163688
0.163722
0.163755
0.163788
0.163788
0.163822
0.163855
0.163888
0.163922
0.163922
0.163955
0.163989
0.164022
0.164056
0.164056
0.16409
0.164123
0.164157
0.164191
0.164191
0.164224
0.164258
0.164292
0.164326
0.164326
0.16436
0.164394
0.164428
0.164462
0.164462
0.164496
0.16453
0.164564
0.164598
0.164598
0.164632
0.164666
0.164701
0.164735
0.164735
0.164769
0.164803
0.164838
0.164872
0.164872
0.164907
0.164941
0.164976
0.16501
0.16501
0.165045
0.165079
0.165114
0.165148
0.165148
0.165183
0.165218
0.165253
0.165287
0.165287
0.165322
0.165357
0.165392
0.165427
0.165427
0.165462
0.165497
0.165532
0.165567
0.165567
0.165602
0.165637
0.165672
0.165708
0.165708
0.165743
0.165778
0.165813
0.165849
0.165849
0.165884
0.165919
0.165955
0.16599
0.16599
0.166026
0.166061
0.166097
0.166133
0.166133
0.166168
0.166204
0.16624
0.166275
0.166275
0.166311
0.166347
0.166383
0.166419
0.166419
0.166454
0.16649
0.166526
0.166562
0.166562
0.166598
0.166635
0.166671
0.166707
0.166707
0.166743
0.166779
0.166815
0.166852
0.166852
0.166888
0.166924
0.166961
0.166997
0.166997
0.167034
0.16707
0.167107
0.167143
0.167143
0.16718
0.167216
0.167253
0.16729
0.16729
0.167326
0.167363
0.1674
0.167437
0.167437
0.167473
0.16751
0.167547
0.167584
0.167584
0.167621
0.167658
0.167695
0.167732
0.167732
0.167769
0.167807
0.167844
0.167881
0.167881
0.167918
0.167956
0.167993
0.16803
0.16803
0.168068
0.168105
0.168143
0.16818
0.16818
0.168218
0.168255
0.168293
0.16833
0.16833
0.168368
0.168406
0.168443
0.168481
0.168481
0.168519
0.168557
0.168595
0.168633
0.168633
0.168671
0.168708
0.168746
0.168785
0.168785
0.168823
0.168861
0.168899
0.168937
0.168937
0.168975
0.169013
0.169052
0.16909
0.16909
0.169128
0.169167
0.169205
0.169244
0.169244
0.169282
0.169321
0.169359
0.169398
0.169398
0.169436
0.169475
0.169514
0.169552
0.169552
0.169591
0.16963
0.169669
0.169708
0.169708
0.169746
0.169785
0.169824
0.169863
0.169863
0.169902
0.169941
0.16998
0.17002
0.17002
0.170059
0.170098
0.170137
0.170176
0.170176
0.170216
0.170255
0.170294
0.170334
0.170334
0.170373
0.170413
0.170452
0.170492
0.170492
0.170531
0.170571
0.170611
0.17065
0.17065
0.17069
0.17073
0.170769
0.170809
0.170809
0.170849
0.170889
0.170929
0.170969
0.170969
0.171009
0.171049
0.171089
0.171129
0.171129
0.171169
0.171209
0.171249
0.17129
0.17129
0.17133
0.17137
0.17141
0.171451
0.171451
0.171491
0.171532
0.171572
0.171613
0.171613
0.171653
0.171694
0.171734
0.171775
0.171775
0.171816
0.171856
0.171897
0.171938
0.171938
0.171979
0.172019
0.17206
0.172101
0.172101
0.172142
0.172183
0.172224
0.172265
0.172265
0.172306
0.172347
0.172388
0.17243
0.17243
0.172471
0.172512
0.172553
0.172595
0.172595
0.172636
0.172677
0.172719
0.17276
0.17276
0.172802
0.172843
0.172885
0.172926
0.172926
0.172968
0.17301
0.173051
0.173093
0.173093
0.173135
0.173177
0.173219
0.17326
0.17326
0.173302
0.173344
0.173386
0.173428
0.173428
0.17347
0.173512
0.173554
0.173597
0.173597
0.173639
0.173681
0.173723
0.173765
0.173765
0.173808
0.17385
0.173893
0.173935
0.173935
0.173977
0.17402
0.174062
0.174105
0.174105
0.174148
0.17419
0.174233
0.174276
0.174276
0.174318
0.174361
0.174404
0.174447
0.174447
0.17449
0.174532
0.174575
0.174618
0.174618
0.174661
0.174704
0.174748
0.174791
0.174791
0.174834
0.174877
0.17492
0.174963
0.174963
0.175007
0.17505
0.175093
0.175137
0.175137
0.17518
0.175224
0.175267
0.175311
0.175311
0.175354
0.175398
0.175441
0.175485
0.175485
0.175529
0.175573
0.175616
0.17566
0.17566
0.175704
0.175748
0.175792
0.175836
0.175836
0.17588
0.175924
0.175968
0.176012
0.176012
0.176056
0.1761
0.176144
0.176188
0.176188
0.176233
0.176277
0.176321
0.176366
0.176366
0.17641
0.176455
0.176499
0.176544
0.176544
0.176588
0.176633
0.176677
0.176722
0.176722
0.176767
0.176811
0.176856
0.176901
0.176901
0.176946
0.17699
0.177035
0.17708
0.17708
0.177125
0.17717
0.177215
0.17726
0.17726
0.177305
0.17735
0.177396
0.177441
0.177441
0.177486
0.177531
0.177577
0.177622
0.177622
0.177667
0.177713
0.177758
0.177804
0.177804
0.177849
0.177895
0.17794
0.177986
0.177986
0.178032
0.178077
0.178123
0.178169
0.178169
0.178215
0.17826
0.178306
0.178352
0.178352
0.178398
0.178444
0.17849
0.178536
0.178536
0.178582
0.178628
0.178674
0.178721
0.178721
0.178767
0.178813
0.178859
0.178906
0.178906
0.178952
0.178998
0.179045
0.179091
0.179091
0.179138
0.179184
0.179231
0.179277
0.179277
0.179324
0.179371
0.179417
0.179464
0.179464
0.179511
0.179558
0.179605
0.179652
0.179652
0.179698
0.179745
0.179792
0.179839
0.179839
0.179886
0.179934
0.179981
0.180028
0.180028
0.180075
0.180122
0.18017
0.180217
0.180217
0.180264
0.180312
0.180359
0.180406
0.180406
0.180454
0.180501
0.180549
0.180597
0.180597
0.180644
0.180692
0.180739
0.180787
0.180787
0.180835
0.180883
0.180931
0.180978
0.180978
0.181026
0.181074
0.181122
0.18117
0.18117
0.181218
0.181266
0.181314
0.181363
0.181363
0.181411
0.181459
0.181507
0.181556
0.181556
0.181604
0.181652
0.181701
0.181749
0.181749
0.181798
0.181846
0.181895
0.181943
0.181943
0.181992
0.18204
0.182089
0.182138
0.182138
0.182187
0.182235
0.182284
0.182333
0.182333
0.182382
0.182431
0.18248
0.182529
0.182529
0.182578
0.182627
0.182676
0.182725
0.182725
0.182774
0.182824
0.182873
0.182922
0.182922
0.182971
0.183021
0.18307
0.18312
0.18312
0.183169
0.183218
0.183268
0.183318
0.183318
0.183367
0.183417
0.183466
0.183516
0.183516
0.183566
0.183616
0.183666
0.183715
0.183715
0.183765
0.183815
0.183865
0.183915
0.183915
0.183965
0.184015
0.184065
0.184115
0.184115
0.184166
0.184216
0.184266
0.184316
0.184316
0.184367
0.184417
0.184467
0.184518
0.184518
0.184568
0.184619
0.184669
0.18472
0.18472
0.18477
0.184821
0.184872
0.184922
0.184922
0.184973
0.185024
0.185075
0.185126
0.185126
0.185176
0.185227
0.185278
0.185329
0.185329
0.18538
0.185431
0.185482
0.185534
0.185534
0.185585
0.185636
0.185687
0.185739
0.185739
0.18579
0.185841
0.185893
0.185944
0.185944
0.185995
0.186047
0.186098
0.18615
0.18615
0.186202
0.186253
0.186305
0.186357
0.186357
0.186408
0.18646
0.186512
0.186564
0.186564
0.186616
0.186668
0.186719
0.186771
0.186771
0.186824
0.186876
0.186928
0.18698
0.18698
0.187032
0.187084
0.187136
0.187189
0.187189
0.187241
0.187293
0.187346
0.187398
0.187398
0.187451
0.187503
0.187556
0.187608
0.187608
0.187661
0.187713
0.187766
0.187819
0.187819
0.187872
0.187924
0.187977
0.18803
0.18803
0.188083
0.188136
0.188189
0.188242
0.188242
0.188295
0.188348
0.188401
0.188454
0.188454
0.188507
0.18856
0.188614
0.188667
0.188667
0.18872
0.188774
0.188827
0.18888
0.18888
0.188934
0.188987
0.189041
0.189095
0.189095
0.189148
0.189202
0.189255
0.189309
0.189309
0.189363
0.189417
0.189471
0.189524
0.189524
0.189578
0.189632
0.189686
0.18974
0.18974
0.189794
0.189848
0.189902
0.189957
0.189957
0.190011
0.190065
0.190119
0.190174
0.190174
0.190228
0.190282
0.190337
0.190391
0.190391
0.190446
0.1905
0.190555
0.190609
0.190609
0.190664
0.190718
0.190773
0.190828
0.190828
0.190883
0.190937
0.190992
0.191047
0.191047
0.191102
0.191157
0.191212
0.191267
0.191267
0.191322
0.191377
0.191432
0.191487
0.191487
0.191543
0.191598
0.191653
0.191708
0.191708
0.191764
0.191819
0.191875
0.19193
0.19193
0.191985
0.192041
0.192097
0.192152
0.192152
0.192208
0.192263
0.192319
0.192375
0.192375
0.192431
0.192486
0.192542
0.192598
0.192598
0.192654
0.19271
0.192766
0.192822
0.192822
0.192878
0.192934
0.19299
0.193047
0.193047
0.193103
0.193159
0.193215
0.193272
0.193272
0.193328
0.193384
0.193441
0.193497
0.193497
0.193554
0.19361
0.193667
0.193724
0.193724
0.19378
0.193837
0.193894
0.19395
0.19395
0.194007
0.194064
0.194121
0.194178
0.194178
0.194235
0.194292
0.194349
0.194406
0.194406
0.194463
0.19452
0.194577
0.194634
0.194634
0.194692
0.194749
0.194806
0.194863
0.194863
0.194921
0.194978
0.195036
0.195093
0.195093
0.195151
0.195208
0.195266
0.195324
0.195324
0.195381
0.195439
0.195497
0.195554
0.195554
0.195612
0.19567
0.195728
0.195786
0.195786
0.195844
0.195902
0.19596
0.196018
0.196018
0.196076
0.196134
0.196192
0.196251
0.196251
0.196309
0.196367
0.196426
0.196484
0.196484
0.196542
0.196601
0.196659
0.196718
0.196718
0.196776
0.196835
0.196894
0.196952
0.196952
0.197011
0.19707
0.197128
0.197187
0.197187
0.197246
0.197305
0.197364
0.197423
0.197423
0.197482
0.197541
0.1976
0.197659
0.197659
0.197718
0.197777
0.197836
0.197896
0.197896
0.197955
0.198014
0.198074
0.198133
0.198133
0.198193
0.198252
0.198311
0.198371
0.198371
0.198431
0.19849
0.19855
0.19861
0.19861
0.198669
0.198729
0.198789
0.198849
0.198849
0.198909
0.198968
0.199028
0.199088
0.199088
0.199148
0.199208
0.199269
0.199329
0.199329
0.199389
0.199449
0.199509
0.19957
0.19957
0.19963
0.19969
0.199751
0.199811
0.199811
0.199872
0.199932
0.199993
0.200053
0.200053
0.200114
0.200174
0.200235
0.200296
0.200296
0.200357
0.200417
0.200478
0.200539
0.200539
0.2006
0.200661
0.200722
0.200783
0.200783
0.200844
0.200905
0.200966
0.201027
0.201027
0.201089
0.20115
0.201211
0.201272
0.201272
0.201334
0.201395
0.201457
0.201518
0.201518
0.201579
0.201641
0.201703
0.201764
0.201764
0.201826
0.201888
0.201949
0.202011
0.202011
0.202073
0.202135
0.202197
0.202258
0.202258
0.20232
0.202382
0.202444
0.202506
0.202506
0.202568
0.202631
0.202693
0.202755
0.202755
0.202817
0.20288
0.202942
0.203004
0.203004
0.203067
0.203129
0.203191
0.203254
0.203254
0.203316
0.203379
0.203442
0.203504
0.203504
0.203567
0.20363
0.203692
0.203755
0.203755
0.203818
0.203881
0.203944
0.204007
0.204007
0.20407
0.204133
0.204196
0.204259
0.204259
0.204322
0.204385
0.204448
0.204512
0.204512
0.204575
0.204638
0.204702
0.204765
0.204765
0.204829
0.204892
0.204955
0.205019
0.205019
0.205083
0.205146
0.20521
0.205274
0.205274
0.205337
0.205401
0.205465
0.205529
0.205529
0.205593
0.205656
0.20572
0.205784
0.205784
0.205848
0.205913
0.205977
0.206041
0.206041
0.206105
0.206169
0.206233
0.206298
0.206298
0.206362
0.206426
0.206491
0.206555
0.206555
0.20662
0.206684
0.206749
0.206813
0.206813
0.206878
0.206943
0.207007
0.207072
0.207072
0.207137
0.207202
0.207266
0.207331
0.207331
0.207396
0.207461
0.207526
0.207591
0.207591
0.207656
0.207721
0.207787
0.207852
0.207852
0.207917
0.207982
0.208048
0.208113
0.208113
0.208178
0.208244
0.208309
0.208375
0.208375
0.20844
0.208506
0.208571
0.208637
0.208637
0.208703
0.208768
0.208834
0.2089
0.2089
0.208966
0.209032
0.209097
0.209163
0.209163
0.209229
0.209295
0.209361
0.209427
0.209427
0.209494
0.20956
0.209626
0.209692
0.209692
0.209758
0.209825
0.209891
0.209957
0.209957
0.210024
0.21009
0.210157
0.210223
0.210223
0.21029
0.210357
0.210423
0.21049
0.21049
0.210557
0.210623
0.21069
0.210757
0.210757
0.210824
0.210891
0.210958
0.211025
0.211025
0.211092
0.211159
0.211226
0.211293
0.211293
0.21136
0.211427
0.211495
0.211562
0.211562
0.211629
0.211697
0.211764
0.211832
0.211832
0.211899
0.211967
0.212034
0.212102
0.212102
0.212169
0.212237
0.212305
0.212372
0.212372
0.21244
0.212508
0.212576
0.212644
0.212644
0.212712
0.21278
0.212848
0.212916
0.212916
0.212984
0.213052
0.21312
0.213188
0.213188
0.213257
0.213325
0.213393
0.213461
0.213461
0.21353
0.213598
0.213667
0.213735
0.213735
0.213804
0.213872
0.213941
0.21401
0.21401
0.214078
0.214147
0.214216
0.214285
0.214285
0.214353
0.214422
0.214491
0.21456
0.21456
0.214629
0.214698
0.214767
0.214836
0.214836
0.214905
0.214975
0.215044
0.215113
0.215113
0.215182
0.215252
0.215321
0.21539
0.21539
0.21546
0.215529
0.215599
0.215668
0.215668
0.215738
0.215808
0.215877
0.215947
0.215947
0.216017
0.216087
0.216156
0.216226
0.216226
0.216296
0.216366
0.216436
0.216506
0.216506
0.216576
0.216646
0.216716
0.216787
0.216787
0.216857
0.216927
0.216997
0.217068
0.217068
0.217138
0.217208
0.217279
0.217349
0.217349
0.21742
0.21749
0.217561
0.217632
0.217632
0.217702
0.217773
0.217844
0.217914
0.217914
0.217985
0.218056
0.218127
0.218198
0.218198
0.218269
0.21834
0.218411
0.218482
0.218482
0.218553
0.218624
0.218695
0.218767
0.218767
0.218838
0.218909
0.218981
0.219052
0.219052
0.219123
0.219195
0.219266
0.219338
0.219338
0.219409
0.219481
0.219553
0.219624
0.219624
0.219696
0.219768
0.21984
0.219911
0.219911
0.219983
0.220055
0.220127
0.220199
0.220199
0.220271
0.220343
0.220415
0.220488
0.220488
0.22056
0.220632
0.220704
0.220777
0.220777
0.220849
0.220921
0.220994
0.221066
0.221066
0.221139
0.221211
0.221284
0.221356
0.221356
0.221429
0.221502
0.221574
0.221647
0.221647
0.22172
0.221793
0.221866
0.221939
0.221939
0.222011
0.222084
0.222157
0.222231
0.222231
0.222304
0.222377
0.22245
0.222523
0.222523
0.222596
0.22267
0.222743
0.222816
0.222816
0.22289
0.222963
0.223037
0.22311
0.22311
0.223184
0.223257
0.223331
0.223405
0.223405
0.223479
0.223552
0.223626
0.2237
0.2237
0.223774
0.223848
0.223922
0.223996
0.223996
0.22407
0.224144
0.224218
0.224292
0.224292
0.224366
0.22444
0.224515
0.224589
0.224589
0.224663
0.224738
0.224812
0.224886
0.224886
0.224961
0.225035
0.22511
0.225185
0.225185
0.225259
0.225334
0.225409
0.225483
0.225483
0.225558
0.225633
0.225708
0.225783
0.225783
0.225858
0.225933
0.226008
0.226083
0.226083
0.226158
0.226233
0.226308
0.226383
0.226383
0.226459
0.226534
0.226609
0.226685
0.226685
0.22676
0.226835
0.226911
0.226986
0.226986
0.227062
0.227138
0.227213
0.227289
0.227289
0.227365
0.22744
0.227516
0.227592
0.227592
0.227668
0.227744
0.22782
0.227896
0.227896
0.227972
0.228048
0.228124
0.2282
0.2282
0.228276
0.228352
0.228429
0.228505
0.228505
0.228581
0.228658
0.228734
0.22881
0.22881
0.228887
0.228963
0.22904
0.229117
0.229117
0.229193
0.22927
0.229347
0.229423
0.229423
0.2295
0.229577
0.229654
0.229731
0.229731
0.229808
0.229885
0.229962
0.230039
0.230039
0.230116
0.230193
0.23027
0.230347
0.230347
0.230425
0.230502
0.230579
0.230657
0.230657
0.230734
0.230812
0.230889
0.230967
0.230967
0.231044
0.231122
0.231199
0.231277
0.231277
0.231355
0.231433
0.23151
0.231588
0.231588
0.231666
0.231744
0.231822
0.2319
0.2319
0.231978
0.232056
0.232134
0.232212
0.232212
0.232291
0.232369
0.232447
0.232525
0.232525
0.232604
0.232682
0.23276
0.232839
0.232839
0.232917
0.232996
0.233075
0.233153
0.233153
0.233232
0.23331
0.233389
0.233468
0.233468
0.233547
0.233626
0.233704
0.233783
0.233783
0.233862
0.233941
0.23402
0.234099
0.234099
0.234179
0.234258
0.234337
0.234416
0.234416
0.234495
0.234575
0.234654
0.234734
0.234734
0.234813
0.234892
0.234972
0.235051
0.235051
0.235131
0.235211
0.23529
0.23537
0.23537
0.23545
0.23553
0.235609
0.235689
0.235689
0.235769
0.235849
0.235929
0.236009
0.236009
0.236089
0.236169
0.236249
0.236329
0.236329
0.23641
0.23649
0.23657
0.23665
0.23665
0.236731
0.236811
0.236892
0.236972
0.236972
0.237053
0.237133
0.237214
0.237294
0.237294
0.237375
0.237456
0.237537
0.237617
0.237617
0.237698
0.237779
0.23786
0.237941
0.237941
0.238022
0.238103
0.238184
0.238265
0.238265
0.238346
0.238427
0.238509
0.23859
0.23859
0.238671
0.238752
0.238834
0.238915
0.238915
0.238997
0.239078
0.23916
0.239241
0.239241
0.239323
0.239405
0.239486
0.239568
0.239568
0.23965
0.239732
0.239813
0.239895
0.239895
0.239977
0.240059
0.240141
0.240223
0.240223
0.240305
0.240387
0.240469
0.240552
0.240552
0.240634
0.240716
0.240798
0.240881
0.240881
0.240963
0.241046
0.241128
0.241211
0.241211
0.241293
0.241376
0.241458
0.241541
0.241541
0.241624
0.241706
0.241789
0.241872
0.241872
0.241955
0.242038
0.242121
0.242204
0.242204
0.242287
0.24237
0.242453
0.242536
0.242536
0.242619
0.242702
0.242786
0.242869
0.242869
0.242952
0.243036
0.243119
0.243202
0.243202
0.243286
0.243369
0.243453
0.243537
0.243537
0.24362
0.243704
0.243788
0.243871
0.243871
0.243955
0.244039
0.244123
0.244207
0.244207
0.244291
0.244375
0.244459
0.244543
0.244543
0.244627
0.244711
0.244795
0.244879
0.244879
0.244964
0.245048
0.245132
0.245217
0.245217
0.245301
0.245386
0.24547
0.245555
0.245555
0.245639
0.245724
0.245808
0.245893
0.245893
0.245978
0.246063
0.246148
0.246232
0.246232
0.246317
0.246402
0.246487
0.246572
0.246572
0.246657
0.246742
0.246827
0.246913
0.246913
0.246998
0.247083
0.247168
0.247254
0.247254
0.247339
0.247424
0.24751
0.247595
0.247595
0.247681
0.247766
0.247852
0.247938
0.247938
0.248023
0.248109
0.248195
0.248281
0.248281
0.248366
0.248452
0.248538
0.248624
0.248624
0.24871
0.248796
0.248882
0.248968
0.248968
0.249054
0.249141
0.249227
0.249313
0.249313
0.249399
0.249486
0.249572
0.249659
0.249659
0.249745
0.249832
0.249918
0.250005
0.250005
0.250091
0.250178
0.250265
0.250351
0.250351
0.250438
0.250525
0.250612
0.250699
0.250699
0.250786
0.250873
0.25096
0.251047
0.251047
0.251134
0.251221
0.251308
0.251395
0.251395
0.251483
0.25157
0.251657
0.251744
0.251744
0.251832
0.251919
0.252007
0.252094
0.252094
0.252182
0.252269
0.252357
0.252445
0.252445
0.252533
0.25262
0.252708
0.252796
0.252796
0.252884
0.252972
0.25306
0.253148
0.253148
0.253236
0.253324
0.253412
0.2535
0.2535
0.253588
0.253676
0.253765
0.253853
0.253853
0.253941
0.25403
0.254118
0.254207
0.254207
0.254295
0.254384
0.254472
0.254561
0.254561
0.25465
0.254738
0.254827
0.254916
0.254916
0.255005
0.255094
0.255182
0.255271
0.255271
0.25536
0.255449
0.255538
0.255628
0.255628
0.255717
0.255806
0.255895
0.255984
0.255984
0.256074
0.256163
0.256252
0.256342
0.256342
0.256431
0.256521
0.25661
0.2567
0.2567
0.256789
0.256879
0.256969
0.257058
0.257058
0.257148
0.257238
0.257328
0.257418
0.257418
0.257508
0.257598
0.257688
0.257778
0.257778
0.257868
0.257958
0.258048
0.258138
0.258138
0.258229
0.258319
0.258409
0.258499
0.258499
0.25859
0.25868
0.258771
0.258861
0.258861
0.258952
0.259042
0.259133
0.259224
0.259224
0.259315
0.259405
0.259496
0.259587
0.259587
0.259678
0.259769
0.25986
0.259951
0.259951
0.260042
0.260133
0.260224
0.260315
0.260315
0.260406
0.260497
0.260589
0.26068
0.26068
0.260771
0.260863
0.260954
0.261046
0.261046
0.261137
0.261229
0.26132
0.261412
0.261412
0.261504
0.261595
0.261687
0.261779
0.261779
0.261871
0.261962
0.262054
0.262146
0.262146
0.262238
0.26233
0.262422
0.262514
0.262514
0.262607
0.262699
0.262791
0.262883
0.262883
0.262976
0.263068
0.26316
0.263253
0.263253
0.263345
0.263438
0.26353
0.263623
0.263623
0.263715
0.263808
0.263901
0.263993
0.263993
0.264086
0.264179
0.264272
0.264365
0.264365
0.264458
0.264551
0.264644
0.264737
0.264737
0.26483
0.264923
0.265016
0.265109
0.265109
0.265203
0.265296
0.265389
0.265483