<?xml version="1.0"?>
<VTKFile type="UnstructuredGrid" version="0.1" byte_order="LittleEndian">
<UnstructuredGrid>
<Piece NumberOfPoints="5000" NumberOfCells="4000">
<PointData Scalars="Reaction 0">
<DataArray type="Float32" Name="Reaction 0" format="ascii">
0.497645
0.497645
0.497645
0.497645
0.497645
0.497645
0.497645
0.497645
0.497646
0.497646
0.497646
0.497646
0.497647
0.497647
0.497647
0.497647
0.497648
0.497648
0.497649
0.497649
0.497649
0.49765
0.49765
0.497651
0.497652
0.497652
0.497652
0.497653
0.497654
0.497655
0.497655
0.497656
0.497657
0.497658
0.497658
0.497658
0.497659
0.49766
0.497662
0.497663
0.497663
0.497664
0.497665
0.497666
0.497667
0.497667
0.497669
0.49767
0.497671
0.497673
0.497673
0.497674
0.497676
0.497677
0.497678
0.497678
0.49768
0.497682
0.497683
0.497685
0.497685
0.497687
0.497688
0.49769
0.497692
0.497692
0.497694
0.497696
0.497697
0.497699
0.497699
0.497701
0.497703
0.497705
0.497707
0.497707
0.49771
0.497712
0.497714
0.497716
0.497716
0.497718
0.497721
0.497723
0.497725
0.497725
0.497728
0.49773
0.497733
0.497735
0.497735
0.497738
0.49774
0.497743
0.497745
0.497745
0.497748
0.497751
0.497753
0.497756
0.497756
0.497759
0.497762
0.497765
0.497768
0.497768
0.49777
0.497773
0.497776
0.49778
0.49778
0.497783
0.497786
0.497789
0.497792
0.497792
0.497795
0.497799
0.497802
0.497805
0.497805
0.497808
0.497812
0.497815
0.497819
0.497819
0.497822
0.497826
0.497829
0.497833
0.497833
0.497837
0.49784
0.497844
0.497848
0.497848
0.497851
0.497855
0.497859
0.497863
0.497863
0.497867
0.497871
0.497875
0.497879
0.497879
0.497883
0.497887
0.497891
0.497895
0.497895
0.4979
0.497904
0.497908
0.497912
0.497912
0.497917
0.497921
0.497925
0.49793
0.49793
0.497934
0.497939
0.497943
0.497948
0.497948
0.497953
0.497957
0.497962
0.497967
0.497967
0.497971
0.497976
0.497981
0.497986
0.497986
0.497991
0.497996
0.498001
0.498006
0.498006
0.498011
0.498016
0.498021
0.498026
0.498026
0.498031
0.498036
0.498041
0.498047
0.498047
0.498052
0.498057
0.498063
0.498068
0.498068
0.498074
0.498079
0.498085
0.49809
0.49809
0.498096
0.498101
0.498107
0.498113
0.498113
0.498118
0.498124
0.49813
0.498136
0.498136
0.498142
0.498148
0.498154
0.49816
0.49816
0.498166
0.498172
0.498178
0.498184
0.498184
0.49819
0.498196
0.498202
0.498209
0.498209
0.498215
0.498221
0.498228
0.498234
0.498234
0.49824
0.498247
0.498253
0.49826
0.49826
0.498266
0.498273
0.49828
0.498286
0.498286
0.498293
0.4983
0.498306
0.498313
0.498313
0.49832
0.498327
0.498334
0.498341
0.498341
0.498348
0.498355
0.498362
0.498369
0.498369
0.498376
0.498383
0.49839
0.498398
0.498398
0.498405
0.498412
0.49842
0.498427
0.498427
0.498434
0.498442
0.498449
0.498457
0.498457
0.498464
0.498472
0.498479
0.498487
0.498487
0.498495
0.498503
0.49851
0.498518
0.498518
0.498526
0.498534
0.498542
0.49855
0.49855
0.498558
0.498565
0.498574
0.498582
0.498582
0.49859
0.498598
0.498606
0.498614
0.498614
0.498622
0.498631
0.498639
0.498647
0.498647
0.498656
0.498664
0.498673
0.498681
0.498681
0.49869
0.498698
0.498707
0.498715
0.498715
0.498724
0.498733
0.498741
0.49875
0.49875
0.498759
0.498768
0.498777
0.498786
0.498786
0.498795
0.498804
0.498813
0.498822
0.498822
0.498831
0.49884
0.498849
0.498858
0.498858
0.498867
0.498877
0.498886
0.498895
0.498895
0.498905
0.498914
0.498923
0.498933
0.498933
0.498942
0.498952
0.498961
0.498971
0.498971
0.498981
0.49899
0.499
0.49901
0.49901
0.49902
0.499029
0.499039
0.499049
0.499049
0.499059
0.499069
0.499079
0.499089
0.499089
0.499099
0.499109
0.499119
0.499129
0.499129
0.49914
0.49915
0.49916
0.49917
0.49917
0.499181
0.499191
0.499201
0.499212
0.499212
0.499222
0.499233
0.499243
0.499254
0.499254
0.499265
0.499275
0.499286
0.499297
0.499297
0.499307
0.499318
0.499329
0.49934
0.49934
0.499351
0.499362
0.499373
0.499384
0.499384
0.499395
0.499406
0.499417
0.499428
0.499428
0.499439
0.499451
0.499462
0.499473
0.499473
0.499484
0.499496
0.499507
0.499519
0.499519
0.49953
0.499541
0.499553
0.499565
0.499565
0.499576
0.499588
0.499599
0.499611
0.499611
0.499623
0.499635
0.499646
0.499658
0.499658
0.49967
0.499682
0.499694
0.499706
0.499706
0.499718
0.49973
0.499742
0.499754
0.499754
0.499767
0.499779
0.499791
0.499803
0.499803
0.499816
0.499828
0.49984
0.499853
0.499853
0.499865
0.499878
0.49989
0.499903
0.499903
0.499915
0.499928
0.49994
0.499953
0.499953
0.499966
0.499979
0.499991
0.500004
0.500004
0.500017
0.50003
0.500043
0.500056
0.500056
0.500069
0.500082
0.500095
0.500108
0.500108
0.500121
0.500134
0.500148
0.500161
0.500161
0.500174
0.500188
0.500201
0.500214
0.500214
0.500228
0.500241
0.500255
0.500268
0.500268
0.500282
0.500295
0.500309
0.500323
0.500323
0.500336
0.50035
0.500364
0.500378
0.500378
0.500392
0.500405
0.500419
0.500433
0.500433
0.500447
0.500461
0.500475
0.500489
0.500489
0.500504
0.500518
0.500532
0.500546
0.500546
0.50056
0.500575
0.500589
0.500603
0.500603
0.500618
0.500632
0.500647
0.500661
0.500661
0.500676
0.50069
0.500705
0.50072
0.50072
0.500734
0.500749
0.500764
0.500779
0.500779
0.500794
0.500808
0.500823
0.500838
0.500838
0.500853
0.500868
0.500883
0.500898
0.500898
0.500914
0.500929
0.500944
0.500959
0.500959
0.500974
0.50099
0.501005
0.50102
0.50102
0.501036
0.501051
0.501067
0.501082
0.501082
0.501098
0.501113
0.501129
0.501144
0.501144
0.50116
0.501176
0.501192
0.501207
0.501207
0.501223
0.501239
0.501255
0.501271
0.501271
0.501287
0.501303
0.501319
0.501335
0.501335
0.501351
0.501367
0.501383
0.5014
0.5014
0.501416
0.501432
0.501448
0.501465
0.501465
0.501481
0.501498
0.501514
0.501531
0.501531
0.501547
0.501564
0.50158
0.501597
0.501597
0.501614
0.50163
0.501647
0.501664
0.501664
0.501681
0.501697
0.501714
0.501731
0.501731
0.501748
0.501765
0.501782
0.501799
0.501799
0.501816
0.501834
0.501851
0.501868
0.501868
0.501885
0.501902
0.50192
0.501937
0.501937
0.501954
0.501972
0.501989
0.502007
0.502007
0.502024
0.502042
0.502059
0.502077
0.502077
0.502095
0.502112
0.50213
0.502148
0.502148
0.502166
0.502184
0.502202
0.502219
0.502219
0.502237
0.502255
0.502273
0.502291
0.502291
0.50231
0.502328
0.502346
0.502364
0.502364
0.502382
0.502401
0.502419
0.502437
0.502437
0.502456
0.502474
0.502492
0.502511
0.502511
0.502529
0.502548
0.502567
0.502585
0.502585
0.502604
0.502622
0.502641
0.50266
0.50266
0.502679
0.502698
0.502716
0.502735
0.502735
0.502754
0.502773
0.502792
0.502811
0.502811
0.50283
0.50285
0.502869
0.502888
0.502888
0.502907
0.502926
0.502946
0.502965
0.502965
0.502984
0.503004
0.503023
0.503043
0.503043
0.503062
0.503082
0.503101
0.503121
0.503121
0.503141
0.50316
0.50318
0.5032
0.5032
0.50322
0.503239
0.503259
0.503279
0.503279
0.503299
0.503319
0.503339
0.503359
0.503359
0.503379
0.503399
0.50342
0.50344
0.50344
0.50346
0.50348
0.503501
0.503521
0.503521
0.503541
0.503562
0.503582
0.503603
0.503603
0.503623
0.503644
0.503664
0.503685
0.503685
0.503705
0.503726
0.503747
0.503768
0.503768
0.503788
0.503809
0.50383
0.503851
0.503851
0.503872
0.503893
0.503914
0.503935
0.503935
0.503956
0.503977
0.503998
0.50402
0.50402
0.504041
0.504062
0.504083
0.504105
0.504105
0.504126
0.504147
0.504169
0.50419
0.50419
0.504212
0.504233
0.504255
0.504277
0.504277
0.504298
0.50432
0.504342
0.504363
0.504363
0.504385
0.504407
0.504429
0.504451
0.504451
0.504473
0.504495
0.504517
0.504539
0.504539
0.504561
0.504583
0.504605
0.504627
0.504627
0.50465
0.504672
0.504694
0.504717
0.504717
0.504739
0.504761
0.504784
0.504806
0.504806
0.504829
0.504851
0.504874
0.504897
0.504897
0.504919
0.504942
0.504965
0.504987
0.504987
0.50501
0.505033
0.505056
0.505079
0.505079
0.505102
0.505125
0.505148
0.505171
0.505171
0.505194
0.505217
0.50524
0.505263
0.505263
0.505287
0.50531
0.505333
0.505357
0.505357
0.50538
0.505403
0.505427
0.50545
0.50545
0.505474
0.505497
0.505521
0.505545
0.505545
0.505568
0.505592
0.505616
0.505639
0.505639
0.505663
0.505687
0.505711
0.505735
0.505735
0.505759
0.505783
0.505807
0.505831
0.505831
0.505855
0.505879
0.505903
0.505928
0.505928
0.505952
0.505976
0.506
0.506025
0.506025
0.506049
0.506074
0.506098
0.506123
0.506123
0.506147
0.506172
0.506196
0.506221
0.506221
0.506246
0.50627
0.506295
0.50632
0.50632
0.506345
0.506369
0.506394
0.506419
0.506419
0.506444
0.506469
0.506494
0.506519
0.506519
0.506544
0.50657
0.506595
0.50662
0.50662
0.506645
0.506671
0.506696
0.506721
0.506721
0.506747
0.506772
0.506798
0.506823
0.506823
0.506849
0.506874
0.5069
0.506925
0.506925
0.506951
0.506977
0.507003
0.507028
0.507028
0.507054
0.50708
0.507106
0.507132
0.507132
0.507158
0.507184
0.50721
0.507236
0.507236
0.507262
0.507288
0.507315
0.507341
0.507341
0.507367
0.507393
0.50742
0.507446
0.507446
0.507473
0.507499
0.507526
0.507552
0.507552
0.507579
0.507605
0.507632
0.507659
0.507659
0.507685
0.507712
0.507739
0.507766
0.507766
0.507792
0.507819
0.507846
0.507873
0.507873
0.5079
0.507927
0.507954
0.507981
0.507981
0.508009
0.508036
0.508063
0.50809
0.50809
0.508117
0.508145
0.508172
0.5082
0.5082
0.508227
0.508254
0.508282
0.50831
0.50831
0.508337
0.508365
0.508392
0.50842
0.50842
0.508448
0.508476
0.508503
0.508531
0.508531
0.508559
0.508587
0.508615
0.508643
0.508643
0.508671
0.508699
0.508727
0.508755
0.508755
0.508783
0.508812
0.50884
0.508868
0.508868
0.508896
0.508925
0.508953
0.508982
0.508982
0.50901
0.509038
0.509067
0.509096
0.509096
0.509124
0.509153
0.509181
0.50921
0.50921
0.509239
0.509268
0.509297
0.509325
0.509325
0.509354
0.509383
0.509412
0.509441
0.509441
0.50947
0.509499
0.509528
0.509558
0.509558
0.509587
0.509616
0.509645
0.509675
0.509675
0.509704
0.509733
0.509763
0.509792
0.509792
0.509822
0.509851
0.509881
0.50991
0.50991
0.50994
0.50997
0.509999
0.510029
0.510029
0.510059
0.510089
0.510118
0.510148
0.510148
0.510178
0.510208
0.510238
0.510268
0.510268
0.510298
0.510328
0.510359
0.510389
0.510389
0.510419
0.510449
0.51048
0.51051
0.51051
0.51054
0.510571
0.510601
0.510632
0.510632
0.510662
0.510693
0.510723
0.510754
0.510754
0.510784
0.510815
0.510846
0.510877
0.510877
0.510907
0.510938
0.510969
0.511
0.511
0.511031
0.511062
0.511093
0.511124
0.511124
0.511155
0.511186
0.511218
0.511249
0.511249
0.51128
0.511311
0.511343
0.511374
0.511374
0.511405
0.511437
0.511468
0.5115
0.5115
0.511531
0.511563
0.511595
0.511626
0.511626
0.511658
0.51169
0.511721
0.511753
0.511753
0.511785
0.511817
0.511849
0.511881
0.511881
0.511913
0.511945
0.511977
0.512009
0.512009
0.512041
0.512073
0.512106
0.512138
0.512138
0.51217
0.512202
0.512235
0.512267
0.512267
0.5123
0.512332
0.512365
0.512397
0.512397
0.51243
0.512462
0.512495
0.512528
0.512528
0.51256
0.512593
0.512626
0.512659
0.512659
0.512692
0.512725
0.512758
0.512791
0.512791
0.512824
0.512857
0.51289
0.512923
0.512923
0.512956
0.512989
0.513023
0.513056
0.513056
0.513089
0.513123
0.513156
0.513189
0.513189
0.513223
0.513256
0.51329
0.513324
0.513324
0.513357
0.513391
0.513425
0.513458
0.513458
0.513492
0.513526
0.51356
0.513594
0.513594
0.513627
0.513661
0.513695
0.513729
0.513729
0.513764
0.513798
0.513832
0.513866
0.513866
0.5139
0.513934
0.513969
0.514003
0.514003
0.514038
0.514072
0.514106
0.514141
0.514141
0.514175
0.51421
0.514245
0.514279
0.514279
0.514314
0.514349
0.514383
0.514418
0.514418
0.514453
0.514488
0.514523
0.514558
0.514558
0.514593
0.514628
0.514663
0.514698
0.514698
0.514733
0.514768
0.514803
0.514838
0.514838
0.514874
0.514909
0.514944
0.51498
0.51498
0.515015
0.515051
0.515086
0.515122
0.515122
0.515157
0.515193
0.515228
0.515264
0.515264
0.5153
0.515336
0.515371
0.515407
0.515407
0.515443
0.515479
0.515515
0.515551
0.515551
0.515587
0.515623
0.515659
0.515695
0.515695
0.515731
0.515768
0.515804
0.51584
0.51584
0.515877
0.515913
0.515949
0.515986
0.515986
0.516022
0.516059
0.516095
0.516132
0.516132
0.516169
0.516205
0.516242
0.516279
0.516279
0.516315
0.516352
0.516389
0.516426
0.516426
0.516463
0.5165
0.516537
0.516574
0.516574
0.516611
0.516648
0.516685
0.516722
0.516722
0.51676
0.516797
0.516834
0.516872
0.516872
0.516909
0.516946
0.516984
0.517021
0.517021
0.517059
0.517097
0.517134
0.517172
0.517172
0.517209
0.517247
0.517285
0.517323
0.517323
0.517361
0.517398
0.517436
0.517474
0.517474
0.517512
0.51755
0.517588
0.517627
0.517627
0.517665
0.517703
0.517741
0.517779
0.517779
0.517818
0.517856
0.517894
0.517933
0.517933
0.517971
0.51801
0.518048
0.518087
0.518087
0.518125
0.518164
0.518203
0.518241
0.518241
0.51828
0.518319
0.518358
0.518397
0.518397
0.518436
0.518474
0.518513
0.518552
0.518552
0.518592
0.518631
0.51867
0.518709
0.518709
0.518748
0.518787
0.518827
0.518866
0.518866
0.518905
0.518945
0.518984
0.519024
0.519024
0.519063
0.519103
0.519142
0.519182
0.519182
0.519222
0.519261
0.519301
0.519341
0.519341
0.519381
0.519421
0.51946
0.5195
0.5195
0.51954
0.51958
0.51962
0.519661
0.519661
0.519701
0.519741
0.519781
0.519821
0.519821
0.519862
0.519902
0.519942
0.519983
0.519983
0.520023
0.520064
0.520104
0.520145
0.520145
0.520185
0.520226
0.520266
0.520307
0.520307
0.520348
0.520389
0.52043
0.52047
0.52047
0.520511
0.520552
0.520593
0.520634
0.520634
0.520675
0.520716
0.520758
0.520799
0.520799
0.52084
0.520881
0.520922
0.520964
0.520964
0.521005
0.521046
0.521088
0.521129
0.521129
0.521171
0.521212
0.521254
0.521296
0.521296
0.521337
0.521379
0.521421
0.521463
0.521463
0.521504
0.521546
0.521588
0.52163
0.52163
0.521672
0.521714
0.521756
0.521798
0.521798
0.52184
0.521883
0.521925
0.521967
0.521967
0.522009
0.522052
0.522094
0.522136
0.522136
0.522179
0.522221
0.522264
0.522306
0.522306
0.522349
0.522392
0.522434
0.522477
0.522477
0.52252
0.522563
0.522605
0.522648
0.522648
0.522691
0.522734
0.522777
0.52282
0.52282
0.522863
0.522906
0.52295
0.522993
0.522993
0.523036
0.523079
0.523122
0.523166
0.523166
0.523209
0.523253
0.523296
0.52334
0.52334
0.523383
0.523427
0.52347
0.523514
0.523514
0.523558
0.523601
0.523645
0.523689
0.523689
0.523733
0.523777
0.523821
0.523865
0.523865
0.523909
0.523953
0.523997
0.524041
0.524041
0.524085
0.524129
0.524173
0.524218
0.524218
0.524262
0.524306
0.524351
0.524395
0.524395
0.52444
0.524484
0.524529
0.524573
0.524573
0.524618
0.524663
0.524707
0.524752
0.524752
0.524797
0.524842
0.524886
0.524931
0.524931
0.524976
0.525021
0.525066
0.525111
0.525111
0.525156
0.525202
0.525247
0.525292
0.525292
0.525337
0.525383
0.525428
0.525473
0.525473
0.525519
0.525564
0.52561
0.525655
0.525655
0.525701
0.525746
0.525792
0.525838
0.525838
0.525883
0.525929
0.525975
0.526021
0.526021
0.526067
0.526113
0.526159
0.526205
0.526205
0.526251
0.526297
0.526343
0.526389
0.526389
0.526435
0.526481
0.526528
0.526574
0.526574
0.52662
0.526667
0.526713
0.52676
0.52676
0.526806
0.526853
0.526899
0.526946
0.526946
0.526993
0.52704
0.527086
0.527133
0.527133
0.52718
0.527227
0.527274
0.527321
0.527321
0.527368
0.527415
0.527462
0.527509
0.527509
0.527556
0.527603
0.52765
0.527698
0.527698
0.527745
0.527792
0.52784
0.527887
0.527887
0.527935
0.527982
0.52803
0.528077
0.528077
0.528125
0.528173
0.52822
0.528268
0.528268
0.528316
0.528364
0.528412
0.52846
0.52846
0.528507
0.528555
0.528604
0.528652
0.528652
0.5287
0.528748
0.528796
0.528844
0.528844
0.528893
0.528941
0.528989
0.529038
0.529038
0.529086
0.529135
0.529183
0.529232
0.529232
0.52928
0.529329
0.529377
0.529426
0.529426
0.529475
0.529524
0.529573
0.529621
0.529621
0.52967
0.529719
0.529768
0.529817
0.529817
0.529866
0.529916
0.529965
0.530014
0.530014
0.530063
0.530112
0.530162
0.530211
0.530211
0.53026
0.53031
0.530359
0.530409
0.530409
0.530458
0.530508
0.530558
0.530607
0.530607
0.530657
0.530707
0.530757
0.530806
0.530806
0.530856
0.530906
0.530956
0.531006
0.531006
0.531056
0.531106
0.531156
0.531207
0.531207
0.531257
0.531307
0.531357
0.531408
0.531408
0.531458
0.531508
0.531559
0.531609
0.531609
0.53166
0.53171
0.531761
0.531812
0.531812
0.531862
0.531913
0.531964
0.532015
0.532015
0.532066
0.532116
0.532167
0.532218
0.532218
0.532269
0.53232
0.532371
0.532423
0.532423
0.532474
0.532525
0.532576
0.532628
0.532628
0.532679
0.53273
0.532782
0.532833
0.532833
0.532885
0.532936
0.532988
0.533039
0.533039
0.533091
0.533143
0.533194
0.533246
0.533246
0.533298
0.53335
0.533402
0.533454
0.533454
0.533506
0.533558
0.53361
0.533662
0.533662
0.533714
0.533766
0.533819
0.533871
0.533871
0.533923
0.533976
0.534028
0.53408
0.53408
0.534133
0.534185
0.534238
0.534291
0.534291
0.534343
0.534396
0.534449
0.534501
0.534501
0.534554
0.534607
0.53466
0.534713
0.534713
0.534766
0.534819
0.534872
0.534925
0.534925
0.534978
0.535031
0.535085
0.535138
0.535138
0.535191
0.535244
0.535298
0.535351
0.535351
0.535405
0.535458
0.535512
0.535565
0.535565
0.535619
0.535673
0.535726
0.53578
0.53578
0.535834
0.535888
0.535942
0.535996
0.535996
0.536049
0.536103
0.536158
0.536212
0.536212
0.536266
0.53632
0.536374
0.536428
0.536428
0.536483
0.536537
0.536591
0.536646
0.536646
0.5367
0.536755
0.536809
0.536864
0.536864
0.536918
0.536973
0.537028
0.537083
0.537083
0.537137
0.537192
0.537247
0.537302
0.537302
0.537357
0.537412
0.537467
0.537522
0.537522
0.537577
0.537632
0.537688
0.537743
0.537743
0.537798
0.537853
0.537909
0.537964
0.537964
0.53802
0.538075
0.538131
0.538186
0.538186
0.538242
0.538298
0.538353
0.538409
0.538409
0.538465
0.538521
0.538577
0.538632
0.538632
0.538688
0.538744
0.5388
0.538856
0.538856
0.538913
0.538969
0.539025
0.539081
0.539081
0.539138
0.539194
0.53925
0.539307
0.539307
0.539363
0.53942
0.539476
0.539533
0.539533
0.539589
0.539646
0.539703
0.539759
0.539759
0.539816
0.539873
0.53993
0.539987
0.539987
0.540044
0.540101
0.540158
0.540215
0.540215
0.540272
0.540329
0.540387
0.540444
0.540444
0.540501
0.540558
0.540616
0.540673
0.540673
0.540731
0.540788
0.540846
0.540903
0.540903
0.540961
0.541019
0.541076
0.541134
0.541134
0.541192
0.54125
0.541308
0.541366
0.541366
0.541424
0.541482
0.54154
0.541598
0.541598
0.541656
0.541714
0.541772
0.541831
0.541831
0.541889
0.541947
0.542006
0.542064
0.542064
0.542123
0.542181
0.54224
0.542298
0.542298
0.542357
0.542416
0.542474
0.542533
0.542533
0.542592
0.542651
0.54271
0.542769
0.542769
0.542828
0.542887
0.542946
0.543005
0.543005
0.543064
0.543123
0.543183
0.543242
0.543242
0.543301
0.543361
0.54342
0.543479
0.543479
0.543539
0.543599
0.543658
0.543718
0.543718
0.543777
0.543837
0.543897
0.543957
0.543957
0.544017
0.544076
0.544136
0.544196
0.544196
0.544256
0.544316
0.544377
0.544437
0.544437
0.544497
0.544557
0.544617
0.544678
0.544678
0.544738
0.544798
0.544859
0.544919
0.544919
0.54498
0.545041
0.545101
0.545162
0.545162
0.545223
0.545283
0.545344
0.545405
0.545405
0.545466
0.545527
0.545588
0.545649
0.545649
0.54571
0.545771
0.545832
0.545893
0.545893
0.545954
0.546016
0.546077
0.546138
0.546138
0.5462
0.546261
0.546323
0.546384
0.546384
0.546446
0.546507
0.546569
0.546631
0.546631
0.546692
0.546754
0.546816
0.546878
0.546878
0.54694
0.547002
0.547064
0.547126
0.547126
0.547188
0.54725
0.547312
0.547375
0.547375
0.547437
0.547499
0.547561
0.547624
0.547624
0.547686
0.547749
0.547811
0.547874
0.547874
0.547936
0.547999
0.548062
0.548125
0.548125
0.548187
0.54825
0.548313
0.548376
0.548376
0.548439
0.548502
0.548565
0.548628
0.548628
0.548691
0.548754
0.548818
0.548881
0.548881
0.548944
0.549008
0.549071
0.549134
0.549134
0.549198
0.549261
0.549325
0.549389
0.549389
0.549452
0.549516
0.54958
0.549644
0.549644
0.549707
0.549771
0.549835
0.549899
0.549899
0.549963
0.550027
0.550091
0.550156
0.550156
0.55022
0.550284
0.550348
0.550413
0.550413
0.550477
0.550541
0.550606
0.55067
0.55067
0.550735
0.550799
0.550864
0.550929
0.550929
0.550994
0.551058
0.551123
0.551188
0.551188
0.551253
0.551318
0.551383
0.551448
0.551448
0.551513
0.551578
0.551643
0.551708
0.551708
0.551774
0.551839
0.551904
0.55197
0.55197
0.552035
0.552101
0.552166
0.552232
0.552232
0.552297
0.552363
0.552429
0.552494
0.552494
0.55256
0.552626
0.552692
0.552758
0.552758
0.552824
0.55289
0.552956
0.553022
0.553022
0.553088
0.553154
0.55322
0.553287
0.553287
0.553353
0.553419
0.553486
0.553552
0.553552
0.553619
0.553685
0.553752
0.553819
0.553819
0.553885
0.553952
0.554019
0.554086
0.554086
0.554152
0.554219
0.554286
0.554353
0.554353
0.55442
0.554487
0.554555
0.554622
0.554622
0.554689
0.554756
0.554824
0.554891
0.554891
0.554958
0.555026
0.555093
0.555161
0.555161
0.555228
0.555296
0.555364
0.555431
0.555431
0.555499
0.555567
0.555635
0.555703
0.555703
0.555771
0.555839
0.555907
0.555975
0.555975
0.556043
0.556111
0.556179
0.556247
0.556247
0.556316
0.556384
0.556453
0.556521
0.556521
0.556589
0.556658
0.556727
0.556795
0.556795
0.556864
0.556933
0.557001
0.55707
0.55707
0.557139
0.557208
0.557277
0.557346
0.557346
0.557415
0.557484
0.557553
0.557622
0.557622
0.557691
0.557761
0.55783
0.557899
0.557899
0.557969
0.558038
0.558108
0.558177
0.558177
0.558247
0.558316
0.558386
0.558456
0.558456
0.558525
0.558595
0.558665
0.558735
0.558735
0.558805
0.558875
0.558945
0.559015
0.559015
0.559085
0.559155
0.559226
0.559296
0.559296
0.559366
0.559436
0.559507
0.559577
0.559577
0.559647
0.559717
0.559786
0.559855
0.559855
0.559924
0.55999
0.560054
0.560116
0.560116
0.560177
0.560237
0.560297
0.560357
0.560357
0.560417
0.560477
0.560536
0.560596
0.560596
0.560656
0.560716
0.560776
0.560835
0.560835
0.560895
0.560955
0.561015
0.561075
0.561075
0.561135
0.561195
0.561255
0.561315
0.561315
0.561376
0.561436
0.561496
0.561556
0.561556
0.561617
0.561677
0.561737
0.561798
0.561798
0.561858
0.561919
0.561979
0.56204
0.56204
0.562101
0.562161
0.562222
0.562283
0.562283
0.562343
0.562404
0.562465
0.562526
0.562526
0.562587
0.562648
0.562709
0.562769
0.562769
0.562831
0.562892
0.562953
0.563014
0.563014
0.563075
0.563136
0.563197
0.563259
0.563259
0.56332
0.563381
0.563443
0.563504
0.563504
0.563565
0.563627
0.563688
0.56375
0.56375
0.563811
0.563873
0.563935
0.563996
0.563996
0.564058
0.56412
0.564181
0.564243
0.564243
0.564305
0.564366
0.564428
0.56449
0.56449
0.564551
0.564612
0.564673
0.564734
0.564734
0.564794
0.564853
0.56491
0.564967
0.564967
0.565021
0.565074
0.565127
0.565177
0.565177
0.565228
0.565278
0.565328
0.565377
0.565377
0.565426
0.565476
0.565525
0.565575
0.565575
0.565624
0.565673
0.565723
0.565772
0.565772
0.565821
0.565871
0.56592
0.56597
0.56597
0.566019
0.566069
0.566118
0.566168
0.566168
0.566217
0.566267
0.566316
0.566366
0.566366
0.566416
0.566465
0.566515
0.566565
0.566565
0.566614
0.566664
0.566714
0.566764
0.566764
0.566813
0.566863
0.566913
0.566963
0.566963
0.567013
0.567063
0.567113
0.567163
0.567163
0.567213
0.567263
0.567313
0.567363
0.567363
0.567413
0.567463
0.567513
0.567563
0.567563
0.567613
0.567663
0.567714
0.567764
0.567764
0.567814
0.567864
0.567914
0.567965
0.567965
0.568015
0.568065
0.568116
0.568166
0.568166
0.568216
0.568267
0.568317
0.568367
0.568367
0.568417
0.568467
0.568517
0.568567
0.568567
0.568616
0.568665
0.568713
0.568761
0.568761
0.568808
0.568854
0.568899
0.568943
0.568943
0.568986
0.569028
0.569069
0.56911
0.56911
0.56915
0.56919
0.56923
0.569269
0.569269
0.569308
0.569348
0.569387
0.569426
0.569426
0.569465
0.569504
0.569544
0.569583
0.569583
0.569622
0.569661
0.5697
0.56974
0.56974
0.569779
0.569818
0.569857
0.569896
0.569896
0.569936
0.569975
0.570014
0.570053
0.570053
0.570093
0.570132
0.570171
0.570211
0.570211
0.57025
0.570289
0.570329
0.570368
0.570368
0.570408
0.570447
0.570486
0.570526
0.570526
0.570565
0.570605
0.570644
0.570684
0.570684
0.570723
0.570763
0.570802
0.570842
0.570842
0.570881
0.570921
0.57096
0.571
0.571
0.57104
0.571079
0.571119
0.571158
0.571158
0.571198
0.571238
0.571277
0.571317
0.571317
0.571356
0.571396
0.571435
0.571475
0.571475
0.571514
0.571553
0.571592
0.571631
0.571631
0.571669
0.571707
0.571745
0.571782
0.571782
0.571818
0.571854
0.571889
0.571923
0.571923
0.571957
0.57199
0.572023
0.572055
0.572055
0.572087
0.572119
0.57215
0.572181
0.572181
0.572212
0.572242
0.572273
0.572304
0.572304
0.572334
0.572365
0.572395
0.572426
0.572426
0.572456
0.572486
0.572517
0.572547
0.572547
0.572578
0.572608
0.572639
0.572669
0.572669
0.5727
0.57273
0.572761
0.572791
0.572791
0.572822
0.572852
0.572883
0.572913
0.572913
0.572944
0.572975
0.573005
0.573036
0.573036
0.573066
0.573097
0.573127
0.573158
0.573158
0.573189
0.573219
0.57325
0.57328
0.57328
0.573311
0.573342
0.573372
0.573403
0.573403
0.573434
0.573464
0.573495
0.573526
0.573526
0.573556
0.573587
0.573617
0.573648
0.573648
0.573679
0.573709
0.57374
0.57377
0.57377
0.573801
0.573831
0.573861
0.573891
0.573891
0.573921
0.57395
0.57398
0.574008
0.574008
0.574037
0.574065
0.574093
0.57412
0.57412
0.574147
0.574174
0.5742
0.574225
0.574225
0.574251
0.574276
0.5743
0.574325
0.574325
0.574349
0.574373
0.574397
0.574421
0.574421
0.574444
0.574468
0.574492
0.574515
0.574515
0.574539
0.574562
0.574586
0.574609
0.574609
0.574633
0.574656
0.57468
0.574703
0.574703
0.574727
0.57475
0.574774
0.574797
0.574797
0.574821
0.574844
0.574868
0.574891
0.574891
0.574915
0.574938
0.574962
0.574985
0.574985
0.575009
0.575032
0.575056
0.575079
0.575079
0.575103
0.575127
0.57515
0.575174
0.575174
0.575197
0.575221
0.575244
0.575268
0.575268
0.575292
0.575315
0.575339
0.575362
0.575362
0.575386
0.575409
0.575433
0.575456
0.575456
0.57548
0.575503
0.575527
0.57555
0.57555
0.575573
0.575596
0.575619
0.575642
0.575642
0.575664
0.575686
0.575708
0.57573
0.57573
0.575752
0.575773
0.575794
0.575815
0.575815
0.575835
0.575856
0.575876
0.575895
0.575895
0.575915
0.575934
0.575953
0.575972
0.575972
0.57599
0.576009
0.576028
0.576046
0.576046
0.576064
0.576082
0.576101
0.576119
0.576119
0.576137
0.576155
0.576173
0.576191
0.576191
0.576209
0.576227
0.576245
0.576264
0.576264
0.576282
0.5763
0.576318
0.576336
0.576336
0.576354
0.576372
0.57639
0.576408
0.576408
0.576426
0.576445
0.576463
0.576481
0.576481
0.576499
0.576517
0.576535
0.576553
0.576553
0.576571
0.57659
0.576608
0.576626
0.576626
0.576644
0.576662
0.57668
0.576698
0.576698
0.576716
0.576734
0.576753
0.576771
0.576771
0.576789
0.576807
0.576824
0.576842
0.576842
0.57686
0.576878
0.576895
0.576913
0.576913
0.57693
0.576948
0.576965
0.576982
0.576982
0.576998
0.577015
0.577031
0.577047
0.577047
0.577063
0.577079
0.577095
0.57711
0.57711
0.577126
0.577141
0.577156
0.57717
0.57717
0.577185
0.5772
0.577214
0.577228
0.577228
0.577243
0.577257
0.577271
0.577285
0.577285
0.577299
0.577313
0.577327
0.577341
0.577341
0.577355
0.577369
0.577383
0.577397
0.577397
0.577411
0.577425
0.577439
0.577453
0.577453
0.577467
0.577481
0.577495
0.577509
0.577509
0.577523
0.577537
0.577551
0.577565
0.577565
0.577579
0.577593
0.577607
0.577621
0.577621
0.577635
0.577649
0.577663
0.577677
0.577677
0.577691
0.577705
0.577719
0.577733
0.577733
0.577747
0.577761
0.577775
0.577789
0.577789
0.577803
0.577817
0.577831
0.577844
0.577844
0.577858
0.577871
0.577885
0.577898
0.577898
0.577912
0.577925
0.577938
0.577951
0.577951
0.577963
0.577976
0.577989
0.578001
0.578001
0.578013
0.578026
0.578038
0.57805
0.57805
0.578061
0.578073
0.578085
0.578096
0.578096
0.578108
0.578119
0.57813
0.578141
0.578141
0.578153
0.578164
0.578175
0.578186
0.578186
0.578197
0.578208
0.578219
0.57823
0.57823
0.578241
0.578252
0.578262
0.578273
0.578273
0.578284
0.578295
0.578306
0.578317
0.578317
0.578328
0.578339
0.57835
0.578361
0.578361
0.578372
0.578383
0.578394
0.578404
0.578404
0.578415
0.578426
0.578437
0.578448
0.578448
0.578459
0.57847
0.578481
0.578492
0.578492
0.578503
0.578514
0.578525
0.578535
0.578535
0.578546
0.578557
0.578568
0.578578
0.578578
0.578589
0.5786
0.57861
0.578621
0.578621
0.578631
0.578642
0.578652
0.578662
0.578662
0.578672
0.578682
0.578692
0.578702
0.578702
0.578712
0.578721
0.578731
0.578741
0.578741
0.57875
0.578759
0.578769
0.578778
0.578778
0.578787
0.578796
0.578805
0.578814
0.578814
0.578823
0.578832
0.578841
0.578849
0.578849
0.578858
0.578867
0.578876
0.578884
0.578884
0.578893
0.578902
0.57891
0.578919
0.578919
0.578928
0.578936
0.578945
0.578953
0.578953
0.578962
0.578971
0.578979
0.578988
0.578988
0.578997
0.579005
0.579014
0.579023
0.579023
0.579031
0.57904
0.579049
0.579057
0.579057
0.579066
0.579074
0.579083
0.579092
0.579092
0.5791
0.579109
0.579117
0.579126
0.579126
0.579135
0.579143
0.579152
0.57916
0.57916
0.579168
0.579177
0.579185
0.579193
0.579193
0.579202
0.57921
0.579218
0.579226
0.579226
0.579234
0.579242
0.57925
0.579258
0.579258
0.579265
0.579273
0.579281
0.579288
0.579288
0.579296
0.579303
0.579311
0.579318
0.579318
0.579325
0.579333
0.57934
0.579347
0.579347
0.579354
0.579361
0.579368
0.579376
0.579376
0.579383
0.57939
0.579397
0.579404
0.579404
0.579411
0.579418
0.579425
0.579432
0.579432
0.579438
0.579445
0.579452
0.579459
0.579459
0.579466
0.579473
0.57948
0.579487
0.579487
0.579494
0.579501
0.579508
0.579515
0.579515
0.579522
0.579529
0.579536
0.579543
0.579543
0.57955
0.579557
0.579564
0.579571
0.579571
0.579577
0.579584
0.579591
0.579598
0.579598
0.579605
0.579612
0.579618
0.579625
0.579625
0.579632
0.579639
0.579645
0.579652
0.579652
0.579658
0.579665
0.579671
0.579678
0.579678
0.579684
0.57969
0.579697
0.579703
0.579703
0.579709
0.579715
0.579722
0.579728
0.579728
0.579734
0.57974
0.579746
0.579752
0.579752
0.579758
0.579764
0.57977
0.579775
0.579775
0.579781
0.579787
0.579793
0.579799
0.579799
0.579804
0.57981
0.579816
0.579822
0.579822
0.579827
0.579833
0.579839
0.579845
0.579845
0.57985
0.579856
0.579862
0.579868
0.579868
0.579873
0.579879
0.579885
0.57989
0.57989
0.579896
0.579902
0.579908
0.579913
0.579913
0.579919
0.579925
0.57993
0.579936
0.579936
0.579942
0.579947
0.579953
0.579959
0.579959
0.579964
0.57997
0.579976
0.579981
0.579981
0.579987
0.579992
0.579998
0.580003
0.580003
0.580009
0.580014
0.580019
0.580025
0.580025
0.58003
0.580035
0.58004
0.580046
0.580046
0.580051
0.580056
0.580061
0.580066
0.580066
0.580072
0.580077
0.580082
0.580087
0.580087
0.580092
0.580097
0.580102
0.580107
0.580107
0.580111
0.580116
0.580121
0.580126
0.580126
0.580131
0.580136
0.580141
0.580146
0.580146
0.58015
0.580155
0.58016
0.580165
0.580165
0.58017
0.580175
0.580179
0.580184
0.580184
0.580189
0.580194
0.580199
0.580204
0.580204
0.580208
0.580213
0.580218
0.580223
0.580223
0.580228
0.580232
0.580237
0.580242
0.580242
0.580247
0.580252
0.580256
0.580261
0.580261
0.580266
0.58027
0.580275
0.58028
0.58028
0.580285
0.580289
0.580294
0.580298
0.580298
0.580303
0.580308
0.580312
0.580317
0.580317