<?xml version="1.0"?>
<VTKFile type="UnstructuredGrid" version="0.1" byte_order="LittleEndian">
<UnstructuredGrid>
<Piece NumberOfPoints="5000" NumberOfCells="4000">
<PointData Scalars="Reaction 0">
<DataArray type="Float32" Name="Reaction 0" format="ascii">
0.10148
0.10148
0.10148
0.10148
0.10148
0.10148
0.10148
0.10148
0.10148
0.10148
0.10148
0.10148
0.10148
0.10148
0.10148
0.10148
0.10148
0.10148
0.10148
0.10148
0.10148
0.10148
0.101481
0.101481
0.101481
0.101481
0.101481
0.101481
0.101481
0.101481
0.101481
0.101481
0.101481
0.101482
0.101482
0.101482
0.101482
0.101482
0.101482
0.101482
0.101482
0.101483
0.101483
0.101483
0.101483
0.101483
0.101483
0.101484
0.101484
0.101484
0.101484
0.101484
0.101484
0.101485
0.101485
0.101485
0.101485
0.101485
0.101486
0.101486
0.101486
0.101486
0.101487
0.101487
0.101487
0.101487
0.101487
0.101488
0.101488
0.101488
0.101488
0.101489
0.101489
0.101489
0.10149
0.10149
0.10149
0.10149
0.101491
0.101491
0.101491
0.101491
0.101492
0.101492
0.101492
0.101492
0.101493
0.101493
0.101494
0.101494
0.101494
0.101494
0.101495
0.101495
0.101496
0.101496
0.101496
0.101496
0.101497
0.101497
0.101497
0.101498
0.101498
0.101499
0.101499
0.101499
0.1015
0.1015
0.1015
0.101501
0.101501
0.101501
0.101502
0.101502
0.101503
0.101503
0.101503
0.101504
0.101505
0.101505
0.101505
0.101506
0.101506
0.101507
0.101507
0.101507
0.101508
0.101508
0.101509
0.101509
0.101509
0.10151
0.101511
0.101511
0.101512
0.101512
0.101512
0.101513
0.101514
0.101514
0.101514
0.101515
0.101515
0.101516
0.101517
0.101517
0.101517
0.101518
0.101519
0.101519
0.101519
0.10152
0.101521
0.101521
0.101522
0.101522
0.101523
0.101523
0.101524
0.101525
0.101525
0.101526
0.101526
0.101527
0.101528
0.101528
0.101528
0.101529
0.10153
0.101531
0.101531
0.101531
0.101532
0.101533
0.101534
0.101534
0.101535
0.101535
0.101536
0.101537
0.101537
0.101538
0.101539
0.101539
0.10154
0.10154
0.101541
0.101542
0.101543
0.101544
0.101544
0.101544
0.101545
0.101546
0.101547
0.101547
0.101548
0.101549
0.10155
0.10155
0.10155
0.101551
0.101552
0.101553
0.101554
0.101554
0.101555
0.101556
0.101557
0.101558
0.101558
0.101559
0.10156
0.101561
0.101562
0.101562
0.101563
0.101564
0.101564
0.101565
0.101565
0.101566
0.101567
0.101568
0.101569
0.101569
0.10157
0.101571
0.101572
0.101574
0.101574
0.101575
0.101576
0.101577
0.101578
0.101578
0.101579
0.10158
0.101581
0.101582
0.101582
0.101583
0.101584
0.101585
0.101586
0.101586
0.101587
0.101588
0.10159
0.101591
0.101591
0.101592
0.101593
0.101594
0.101595
0.101595
0.101596
0.101598
0.101599
0.1016
0.1016
0.101601
0.101602
0.101603
0.101605
0.101605
0.101606
0.101607
0.101608
0.101609
0.101609
0.101611
0.101612
0.101613
0.101614
0.101614
0.101616
0.101617
0.101618
0.101619
0.101619
0.101621
0.101622
0.101623
0.101624
0.101624
0.101626
0.101627
0.101628
0.10163
0.10163
0.101631
0.101632
0.101633
0.101635
0.101635
0.101636
0.101637
0.101639
0.10164
0.10164
0.101642
0.101643
0.101644
0.101646
0.101646
0.101647
0.101648
0.10165
0.101651
0.101651
0.101653
0.101654
0.101655
0.101657
0.101657
0.101658
0.10166
0.101661
0.101663
0.101663
0.101664
0.101666
0.101667
0.101668
0.101668
0.10167
0.101671
0.101673
0.101674
0.101674
0.101676
0.101677
0.101679
0.10168
0.10168
0.101682
0.101684
0.101685
0.101687
0.101687
0.101688
0.10169
0.101691
0.101693
0.101693
0.101694
0.101696
0.101698
0.101699
0.101699
0.101701
0.101702
0.101704
0.101706
0.101706
0.101707
0.101709
0.10171
0.101712
0.101712
0.101714
0.101715
0.101717
0.101719
0.101719
0.10172
0.101722
0.101724
0.101725
0.101725
0.101727
0.101729
0.101731
0.101732
0.101732
0.101734
0.101736
0.101737
0.101739
0.101739
0.101741
0.101743
0.101744
0.101746
0.101746
0.101748
0.10175
0.101752
0.101753
0.101753
0.101755
0.101757
0.101759
0.101761
0.101761
0.101762
0.101764
0.101766
0.101768
0.101768
0.10177
0.101772
0.101773
0.101775
0.101775
0.101777
0.101779
0.101781
0.101783
0.101783
0.101785
0.101787
0.101789
0.10179
0.10179
0.101792
0.101794
0.101796
0.101798
0.101798
0.1018
0.101802
0.101804
0.101806
0.101806
0.101808
0.10181
0.101812
0.101814
0.101814
0.101816
0.101818
0.10182
0.101822
0.101822
0.101824
0.101826
0.101828
0.10183
0.10183
0.101832
0.101834
0.101836
0.101838
0.101838
0.10184
0.101843
0.101845
0.101847
0.101847
0.101849
0.101851
0.101853
0.101855
0.101855
0.101857
0.101859
0.101862
0.101864
0.101864
0.101866
0.101868
0.10187
0.101872
0.101872
0.101875
0.101877
0.101879
0.101881
0.101881
0.101883
0.101885
0.101888
0.10189
0.10189
0.101892
0.101894
0.101897
0.101899
0.101899
0.101901
0.101903
0.101906
0.101908
0.101908
0.10191
0.101913
0.101915
0.101917
0.101917
0.101919
0.101922
0.101924
0.101926
0.101926
0.101929
0.101931
0.101933
0.101936
0.101936
0.101938
0.101941
0.101943
0.101945
0.101945
0.101948
0.10195
0.101953
0.101955
0.101955
0.101957
0.10196
0.101962
0.101965
0.101965
0.101967
0.10197
0.101972
0.101974
0.101974
0.101977
0.101979
0.101982
0.101984
0.101984
0.101987
0.101989
0.101992
0.101994
0.101994
0.101997
0.101999
0.102002
0.102005
0.102005
0.102007
0.10201
0.102012
0.102015
0.102015
0.102017
0.10202
0.102023
0.102025
0.102025
0.102028
0.10203
0.102033
0.102036
0.102036
0.102038
0.102041
0.102044
0.102046
0.102046
0.102049
0.102052
0.102054
0.102057
0.102057
0.10206
0.102062
0.102065
0.102068
0.102068
0.102071
0.102073
0.102076
0.102079
0.102079
0.102081
0.102084
0.102087
0.10209
0.10209
0.102093
0.102095
0.102098
0.102101
0.102101
0.102104
0.102107
0.102109
0.102112
0.102112
0.102115
0.102118
0.102121
0.102124
0.102124
0.102126
0.102129
0.102132
0.102135
0.102135
0.102138
0.102141
0.102144
0.102147
0.102147
0.10215
0.102153
0.102155
0.102158
0.102158
0.102161
0.102164
0.102167
0.10217
0.10217
0.102173
0.102176
0.102179
0.102182
0.102182
0.102185
0.102188
0.102191
0.102194
0.102194
0.102197
0.1022
0.102203
0.102207
0.102207
0.10221
0.102213
0.102216
0.102219
0.102219
0.102222
0.102225
0.102228
0.102231
0.102231
0.102234
0.102238
0.102241
0.102244
0.102244
0.102247
0.10225
0.102253
0.102257
0.102257
0.10226
0.102263
0.102266
0.102269
0.102269
0.102273
0.102276
0.102279
0.102282
0.102282
0.102285
0.102289
0.102292
0.102295
0.102295
0.102299
0.102302
0.102305
0.102308
0.102308
0.102312
0.102315
0.102318
0.102322
0.102322
0.102325
0.102328
0.102332
0.102335
0.102335
0.102338
0.102342
0.102345
0.102349
0.102349
0.102352
0.102355
0.102359
0.102362
0.102362
0.102366
0.102369
0.102373
0.102376
0.102376
0.10238
0.102383
0.102386
0.10239
0.10239
0.102393
0.102397
0.1024
0.102404
0.102404
0.102408
0.102411
0.102415
0.102418
0.102418
0.102422
0.102425
0.102429
0.102432
0.102432
0.102436
0.10244
0.102443
0.102447
0.102447
0.10245
0.102454
0.102458
0.102461
0.102461
0.102465
0.102469
0.102472
0.102476
0.102476
0.10248
0.102483
0.102487
0.102491
0.102491
0.102495
0.102498
0.102502
0.102506
0.102506
0.10251
0.102513
0.102517
0.102521
0.102521
0.102525
0.102528
0.102532
0.102536
0.102536
0.10254
0.102544
0.102547
0.102551
0.102551
0.102555
0.102559
0.102563
0.102567
0.102567
0.102571
0.102575
0.102578
0.102582
0.102582
0.102586
0.10259
0.102594
0.102598
0.102598
0.102602
0.102606
0.10261
0.102614
0.102614
0.102618
0.102622
0.102626
0.10263
0.10263
0.102634
0.102638
0.102642
0.102646
0.102646
0.10265
0.102654
0.102658
0.102662
0.102662
0.102666
0.10267
0.102675
0.102679
0.102679
0.102683
0.102687
0.102691
0.102695
0.102695
0.102699
0.102703
0.102708
0.102712
0.102712
0.102716
0.10272
0.102724
0.102729
0.102729
0.102733
0.102737
0.102741
0.102746
0.102746
0.10275
0.102754
0.102758
0.102763
0.102763
0.102767
0.102771
0.102776
0.10278
0.10278
0.102784
0.102789
0.102793
0.102797
0.102797
0.102802
0.102806
0.10281
0.102815
0.102815
0.102819
0.102824
0.102828
0.102832
0.102832
0.102837
0.102841
0.102846
0.10285
0.10285
0.102855
0.102859
0.102864
0.102868
0.102868
0.102873
0.102877
0.102882
0.102886
0.102886
0.102891
0.102895
0.1029
0.102904
0.102904
0.102909
0.102914
0.102918
0.102923
0.102923
0.102927
0.102932
0.102937
0.102941
0.102941
0.102946
0.102951
0.102955
0.10296
0.10296
0.102965
0.102969
0.102974
0.102979
0.102979
0.102983
0.102988
0.102993
0.102998
0.102998
0.103002
0.103007
0.103012
0.103017
0.103017
0.103022
0.103026
0.103031
0.103036
0.103036
0.103041
0.103046
0.103051
0.103055
0.103055
0.10306
0.103065
0.10307
0.103075
0.103075
0.10308
0.103085
0.10309
0.103095
0.103095
0.1031
0.103105
0.10311
0.103115
0.103115
0.10312
0.103125
0.10313
0.103135
0.103135
0.10314
0.103145
0.10315
0.103155
0.103155
0.10316
0.103165
0.10317
0.103175
0.103175
0.10318
0.103185
0.10319
0.103196
0.103196
0.103201
0.103206
0.103211
0.103216
0.103216
0.103221
0.103227
0.103232
0.103237
0.103237
0.103242
0.103248
0.103253
0.103258
0.103258
0.103263
0.103269
0.103274
0.103279
0.103279
0.103284
0.10329
0.103295
0.1033
0.1033
0.103306
0.103311
0.103316
0.103322
0.103322
0.103327
0.103333
0.103338
0.103343
0.103343
0.103349
0.103354
0.10336
0.103365
0.103365
0.103371
0.103376
0.103382
0.103387
0.103387
0.103393
0.103398
0.103404
0.103409
0.103409
0.103415
0.10342
0.103426
0.103431
0.103431
0.103437
0.103443
0.103448
0.103454
0.103454
0.10346
0.103465
0.103471
0.103476
0.103476
0.103482
0.103488
0.103494
0.103499
0.103499
0.103505
0.103511
0.103516
0.103522
0.103522
0.103528
0.103534
0.103539
0.103545
0.103545
0.103551
0.103557
0.103563
0.103568
0.103568
0.103574
0.10358
0.103586
0.103592
0.103592
0.103598
0.103604
0.10361
0.103615
0.103615
0.103621
0.103627
0.103633
0.103639
0.103639
0.103645
0.103651
0.103657
0.103663
0.103663
0.103669
0.103675
0.103681
0.103687
0.103687
0.103693
0.103699
0.103706
0.103712
0.103712
0.103718
0.103724
0.10373
0.103736
0.103736
0.103742
0.103748
0.103755
0.103761
0.103761
0.103767
0.103773
0.103779
0.103786
0.103786
0.103792
0.103798
0.103804
0.103811
0.103811
0.103817
0.103823
0.103829
0.103836
0.103836
0.103842
0.103848
0.103855
0.103861
0.103861
0.103867
0.103874
0.10388
0.103887
0.103887
0.103893
0.103899
0.103906
0.103912
0.103912
0.103919
0.103925
0.103932
0.103938
0.103938
0.103945
0.103951
0.103958
0.103964
0.103964
0.103971
0.103977
0.103984
0.103991
0.103991
0.103997
0.104004
0.10401
0.104017
0.104017
0.104024
0.10403
0.104037
0.104044
0.104044
0.10405
0.104057
0.104064
0.104071
0.104071
0.104077
0.104084
0.104091
0.104098
0.104098
0.104104
0.104111
0.104118
0.104125
0.104125
0.104132
0.104138
0.104145
0.104152
0.104152
0.104159
0.104166
0.104173
0.10418
0.10418
0.104187
0.104194
0.104201
0.104208
0.104208
0.104214
0.104221
0.104228
0.104235
0.104235
0.104243
0.10425
0.104257
0.104264
0.104264
0.104271
0.104278
0.104285
0.104292
0.104292
0.104299
0.104306
0.104313
0.104321
0.104321
0.104328
0.104335
0.104342
0.104349
0.104349
0.104357
0.104364
0.104371
0.104378
0.104378
0.104386
0.104393
0.1044
0.104407
0.104407
0.104415
0.104422
0.104429
0.104437
0.104437
0.104444
0.104452
0.104459
0.104466
0.104466
0.104474
0.104481
0.104489
0.104496
0.104496
0.104504
0.104511
0.104519
0.104526
0.104526
0.104534
0.104541
0.104549
0.104556
0.104556
0.104564
0.104571
0.104579
0.104587
0.104587
0.104594
0.104602
0.10461
0.104617
0.104617
0.104625
0.104633
0.10464
0.104648
0.104648
0.104656
0.104663
0.104671
0.104679
0.104679
0.104687
0.104695
0.104702
0.10471
0.10471
0.104718
0.104726
0.104734
0.104742
0.104742
0.104749
0.104757
0.104765
0.104773
0.104773
0.104781
0.104789
0.104797
0.104805
0.104805
0.104813
0.104821
0.104829
0.104837
0.104837
0.104845
0.104853
0.104861
0.104869
0.104869
0.104877
0.104886
0.104894
0.104902
0.104902
0.10491
0.104918
0.104926
0.104935
0.104935
0.104943
0.104951
0.104959
0.104967
0.104967
0.104976
0.104984
0.104992
0.105001
0.105001
0.105009
0.105017
0.105026
0.105034
0.105034
0.105042
0.105051
0.105059
0.105068
0.105068
0.105076
0.105084
0.105093
0.105101
0.105101
0.10511
0.105118
0.105127
0.105135
0.105135
0.105144
0.105152
0.105161
0.10517
0.10517
0.105178
0.105187
0.105195
0.105204
0.105204
0.105213
0.105221
0.10523
0.105239
0.105239
0.105248
0.105256
0.105265
0.105274
0.105274
0.105283
0.105291
0.1053
0.105309
0.105309
0.105318
0.105327
0.105335
0.105344
0.105344
0.105353
0.105362
0.105371
0.10538
0.10538
0.105389
0.105398
0.105407
0.105416
0.105416
0.105425
0.105434
0.105443
0.105452
0.105452
0.105461
0.10547
0.105479
0.105488
0.105488
0.105497
0.105506
0.105516
0.105525
0.105525
0.105534
0.105543
0.105552
0.105562
0.105562
0.105571
0.10558
0.105589
0.105599
0.105599
0.105608
0.105617
0.105626
0.105636
0.105636
0.105645
0.105655
0.105664
0.105673
0.105673
0.105683
0.105692
0.105702
0.105711
0.105711
0.105721
0.10573
0.10574
0.105749
0.105749
0.105759
0.105768
0.105778
0.105787
0.105787
0.105797
0.105807
0.105816
0.105826
0.105826
0.105836
0.105845
0.105855
0.105865
0.105865
0.105874
0.105884
0.105894
0.105904
0.105904
0.105913
0.105923
0.105933
0.105943
0.105943
0.105953
0.105963
0.105972
0.105982
0.105982
0.105992
0.106002
0.106012
0.106022
0.106022
0.106032
0.106042
0.106052
0.106062
0.106062
0.106072
0.106082
0.106092
0.106102
0.106102
0.106112
0.106122
0.106133
0.106143
0.106143
0.106153
0.106163
0.106173
0.106184
0.106184
0.106194
0.106204
0.106214
0.106225
0.106225
0.106235
0.106245
0.106255
0.106266
0.106266
0.106276
0.106287
0.106297
0.106307
0.106307
0.106318
0.106328
0.106339
0.106349
0.106349
0.10636
0.10637
0.106381
0.106391
0.106391
0.106402
0.106412
0.106423
0.106434
0.106434
0.106444
0.106455
0.106465
0.106476
0.106476
0.106487
0.106498
0.106508
0.106519
0.106519
0.10653
0.106541
0.106551
0.106562
0.106562
0.106573
0.106584
0.106595
0.106606
0.106606
0.106616
0.106627
0.106638
0.106649
0.106649
0.10666
0.106671
0.106682
0.106693
0.106693
0.106704
0.106715
0.106726
0.106737
0.106737
0.106748
0.10676
0.106771
0.106782
0.106782
0.106793
0.106804
0.106815
0.106827
0.106827
0.106838
0.106849
0.10686
0.106872
0.106872
0.106883
0.106894
0.106906
0.106917
0.106917
0.106928
0.10694
0.106951
0.106963
0.106963
0.106974
0.106986
0.106997
0.107009
0.107009
0.10702
0.107032
0.107043
0.107055
0.107055
0.107066
0.107078
0.10709
0.107101
0.107101
0.107113
0.107125
0.107136
0.107148
0.107148
0.10716
0.107171
0.107183
0.107195
0.107195
0.107207
0.107219
0.10723
0.107242
0.107242
0.107254
0.107266
0.107278
0.10729
0.10729
0.107302
0.107314
0.107326
0.107338
0.107338
0.10735
0.107362
0.107374
0.107386
0.107386
0.107398
0.10741
0.107422
0.107435
0.107435
0.107447
0.107459
0.107471
0.107483
0.107483
0.107496
0.107508
0.10752
0.107532
0.107532
0.107545
0.107557
0.107569
0.107582
0.107582
0.107594
0.107607
0.107619
0.107631
0.107631
0.107644
0.107656
0.107669
0.107681
0.107681
0.107694
0.107707
0.107719
0.107732
0.107732
0.107744
0.107757
0.10777
0.107782
0.107782
0.107795
0.107808
0.10782
0.107833
0.107833
0.107846
0.107859
0.107872
0.107884
0.107884
0.107897
0.10791
0.107923
0.107936
0.107936
0.107949
0.107962
0.107975
0.107988
0.107988
0.108001
0.108014
0.108027
0.10804
0.10804
0.108053
0.108066
0.108079
0.108092
0.108092
0.108106
0.108119
0.108132
0.108145
0.108145
0.108158
0.108172
0.108185
0.108198
0.108198
0.108212
0.108225
0.108238
0.108252
0.108252
0.108265
0.108278
0.108292
0.108305
0.108305
0.108319
0.108332
0.108346
0.108359
0.108359
0.108373
0.108387
0.1084
0.108414
0.108414
0.108427
0.108441
0.108455
0.108468
0.108468
0.108482
0.108496
0.10851
0.108524
0.108524
0.108537
0.108551
0.108565
0.108579
0.108579
0.108593
0.108607
0.108621
0.108635
0.108635
0.108649
0.108663
0.108677
0.108691
0.108691
0.108705
0.108719
0.108733
0.108747
0.108747
0.108761
0.108775
0.108789
0.108804
0.108804
0.108818
0.108832
0.108846
0.108861
0.108861
0.108875
0.108889
0.108904
0.108918
0.108918
0.108932
0.108947
0.108961
0.108976
0.108976
0.10899
0.109005
0.109019
0.109034
0.109034
0.109048
0.109063
0.109077
0.109092
0.109092
0.109107
0.109121
0.109136
0.109151
0.109151
0.109165
0.10918
0.109195
0.10921
0.10921
0.109225
0.109239
0.109254
0.109269
0.109269
0.109284
0.109299
0.109314
0.109329
0.109329
0.109344
0.109359
0.109374
0.109389
0.109389
0.109404
0.109419
0.109434
0.109449
0.109449
0.109465
0.10948
0.109495
0.10951
0.10951
0.109525
0.109541
0.109556
0.109571
0.109571
0.109587
0.109602
0.109617
0.109633
0.109633
0.109648
0.109664
0.109679
0.109695
0.109695
0.10971
0.109726
0.109741
0.109757
0.109757
0.109773
0.109788
0.109804
0.10982
0.10982
0.109835
0.109851
0.109867
0.109882
0.109882
0.109898
0.109914
0.10993
0.109946
0.109946
0.109962
0.109978
0.109994
0.110009
0.110009
0.110025
0.110041
0.110057
0.110074
0.110074
0.11009
0.110106
0.110122
0.110138
0.110138
0.110154
0.11017
0.110186
0.110203
0.110203
0.110219
0.110235
0.110252
0.110268
0.110268
0.110284
0.110301
0.110317
0.110333
0.110333
0.11035
0.110366
0.110383
0.110399
0.110399
0.110416
0.110432
0.110449
0.110466
0.110466
0.110482
0.110499
0.110516
0.110532
0.110532
0.110549
0.110566
0.110582
0.110599
0.110599
0.110616
0.110633
0.11065
0.110667
0.110667
0.110684
0.110701
0.110718
0.110735
0.110735
0.110752
0.110769
0.110786
0.110803
0.110803
0.11082
0.110837
0.110854
0.110871
0.110871
0.110889
0.110906
0.110923
0.11094
0.11094
0.110958
0.110975
0.110992
0.11101
0.11101
0.111027
0.111044
0.111062
0.111079
0.111079
0.111097
0.111114
0.111132
0.11115
0.11115
0.111167
0.111185
0.111202
0.11122
0.11122
0.111238
0.111256
0.111273
0.111291
0.111291
0.111309
0.111327
0.111345
0.111362
0.111362
0.11138
0.111398
0.111416
0.111434
0.111434
0.111452
0.11147
0.111488
0.111506
0.111506
0.111524
0.111543
0.111561
0.111579
0.111579
0.111597
0.111615
0.111634
0.111652
0.111652
0.11167
0.111688
0.111707
0.111725
0.111725
0.111744
0.111762
0.111781
0.111799
0.111799
0.111818
0.111836
0.111855
0.111873
0.111873
0.111892
0.11191
0.111929
0.111948
0.111948
0.111967
0.111985
0.112004
0.112023
0.112023
0.112042
0.112061
0.112079
0.112098
0.112098
0.112117
0.112136
0.112155
0.112174
0.112174
0.112193
0.112212
0.112231
0.11225
0.11225
0.11227
0.112289
0.112308
0.112327
0.112327
0.112346
0.112366
0.112385
0.112404
0.112404
0.112424
0.112443
0.112462
0.112482
0.112482
0.112501
0.112521
0.11254
0.11256
0.11256
0.112579
0.112599
0.112619
0.112638
0.112638
0.112658
0.112678
0.112697
0.112717
0.112717
0.112737
0.112757
0.112777
0.112796
0.112796
0.112816
0.112836
0.112856
0.112876
0.112876
0.112896
0.112916
0.112936
0.112956
0.112956
0.112976
0.112997
0.113017
0.113037
0.113037
0.113057
0.113077
0.113098
0.113118
0.113118
0.113138
0.113159
0.113179
0.113199
0.113199
0.11322
0.11324
0.113261
0.113281
0.113281
0.113302
0.113323
0.113343
0.113364
0.113364
0.113384
0.113405
0.113426
0.113447
0.113447
0.113467
0.113488
0.113509
0.11353
0.11353
0.113551
0.113572
0.113593
0.113614
0.113614
0.113635
0.113656
0.113677
0.113698
0.113698
0.113719
0.11374
0.113761
0.113783
0.113783
0.113804
0.113825
0.113846
0.113868
0.113868
0.113889
0.11391
0.113932
0.113953
0.113953
0.113975
0.113996
0.114018
0.114039
0.114039
0.114061
0.114082
0.114104
0.114126
0.114126
0.114147
0.114169
0.114191
0.114213
0.114213
0.114235
0.114256
0.114278
0.1143
0.1143
0.114322
0.114344
0.114366
0.114388
0.114388
0.11441
0.114432
0.114454
0.114476
0.114476
0.114499
0.114521
0.114543
0.114565
0.114565
0.114588
0.11461
0.114632
0.114655
0.114655
0.114677
0.114699
0.114722
0.114744
0.114744
0.114767
0.11479
0.114812
0.114835
0.114835
0.114857
0.11488
0.114903
0.114926
0.114926
0.114948
0.114971
0.114994
0.115017
0.115017
0.11504
0.115063
0.115086
0.115109
0.115109
0.115132
0.115155
0.115178
0.115201
0.115201
0.115224
0.115247
0.11527
0.115293
0.115293
0.115317
0.11534
0.115363
0.115387
0.115387
0.11541
0.115434
0.115457
0.11548
0.11548
0.115504
0.115527
0.115551
0.115575
0.115575
0.115598
0.115622
0.115646
0.115669
0.115669
0.115693
0.115717
0.115741
0.115765
0.115765
0.115788
0.115812
0.115836
0.11586
0.11586
0.115884
0.115908
0.115932
0.115956
0.115956
0.115981
0.116005
0.116029
0.116053
0.116053
0.116077
0.116102
0.116126
0.11615
0.11615
0.116175
0.116199
0.116224
0.116248
0.116248
0.116273
0.116297
0.116322
0.116346
0.116346
0.116371
0.116396
0.11642
0.116445
0.116445
0.11647
0.116495
0.11652
0.116545
0.116545
0.116569
0.116594
0.116619
0.116644
0.116644
0.116669
0.116694
0.11672
0.116745
0.116745
0.11677
0.116795
0.11682
0.116846
0.116846
0.116871
0.116896
0.116921
0.116947
0.116947
0.116972
0.116998
0.117023
0.117049
0.117049
0.117074
0.1171
0.117126
0.117151
0.117151
0.117177
0.117203
0.117228
0.117254
0.117254
0.11728
0.117306
0.117332
0.117358
0.117358
0.117384
0.11741
0.117436
0.117462
0.117462
0.117488
0.117514
0.11754
0.117566
0.117566
0.117593
0.117619
0.117645
0.117671
0.117671
0.117698
0.117724
0.117751
0.117777
0.117777
0.117804
0.11783
0.117857
0.117883
0.117883
0.11791
0.117937
0.117963
0.11799
0.11799
0.118017
0.118044
0.11807
0.118097
0.118097
0.118124
0.118151
0.118178
0.118205
0.118205
0.118232
0.118259
0.118286
0.118314
0.118314
0.118341
0.118368
0.118395
0.118423
0.118423
0.11845
0.118477
0.118505
0.118532
0.118532
0.118559
0.118587
0.118615
0.118642
0.118642
0.11867
0.118697
0.118725
0.118753
0.118753
0.11878
0.118808
0.118836
0.118864
0.118864
0.118892
0.11892
0.118948
0.118976
0.118976
0.119004
0.119032
0.11906
0.119088
0.119088
0.119116
0.119144
0.119173
0.119201
0.119201
0.119229
0.119258
0.119286
0.119314
0.119314
0.119343
0.119371
0.1194
0.119428
0.119428
0.119457
0.119486
0.119514
0.119543
0.119543
0.119572
0.119601
0.119629
0.119658
0.119658
0.119687
0.119716
0.119745
0.119774
0.119774
0.119803
0.119832
0.119861
0.11989
0.11989
0.11992
0.119949
0.119978
0.120007
0.120007
0.120037
0.120066
0.120095
0.120125
0.120125
0.120154
0.120184
0.120213
0.120243
0.120243
0.120273
0.120302
0.120332
0.120362
0.120362
0.120391
0.120421
0.120451
0.120481
0.120481
0.120511
0.120541
0.120571
0.120601
0.120601
0.120631
0.120661
0.120691
0.120721
0.120721
0.120752
0.120782
0.120812
0.120842
0.120842
0.120873
0.120903
0.120934
0.120964
0.120964
0.120995
0.121025
0.121056
0.121086
0.121086
0.121117
0.121148
0.121179
0.121209
0.121209
0.12124
0.121271
0.121302
0.121333
0.121333
0.121364
0.121395
0.121426
0.121457
0.121457
0.121488
0.121519
0.12155
0.121582
0.121582
0.121613
0.121644
0.121676
0.121707
0.121707
0.121739
0.12177
0.121801
0.121833
0.121833
0.121865
0.121896
0.121928
0.12196
0.12196
0.121991
0.122023
0.122055
0.122087
0.122087
0.122119
0.122151
0.122183
0.122215
0.122215
0.122247
0.122279
0.122311
0.122343
0.122343
0.122375
0.122408
0.12244
0.122472
0.122472
0.122505
0.122537
0.122569
0.122602
0.122602
0.122635
0.122667
0.1227
0.122732
0.122732
0.122765
0.122798
0.122831
0.122863
0.122863
0.122896
0.122929
0.122962
0.122995
0.122995
0.123028
0.123061
0.123094
0.123127
0.123127
0.12316
0.123194
0.123227
0.12326
0.12326
0.123294
0.123327
0.12336
0.123394
0.123394
0.123427
0.123461
0.123494
0.123528
0.123528
0.123562
0.123595
0.123629
0.123663
0.123663
0.123697
0.12373
0.123764
0.123798
0.123798
0.123832
0.123866
0.1239
0.123934
0.123934
0.123969
0.124003
0.124037
0.124071
0.124071
0.124106
0.12414
0.124174
0.124209
0.124209
0.124243
0.124278
0.124312
0.124347
0.124347
0.124382
0.124416
0.124451
0.124486
0.124486
0.124521
0.124555
0.12459
0.124625
0.124625
0.12466
0.124695
0.12473
0.124765
0.124765
0.1248
0.124836
0.124871
0.124906
0.124906
0.124941
0.124977
0.125012
0.125048
0.125048
0.125083
0.125119
0.125154
0.12519
0.12519
0.125225
0.125261
0.125297
0.125333
0.125333
0.125368
0.125404
0.12544
0.125476
0.125476
0.125512
0.125548
0.125584
0.12562
0.12562
0.125656
0.125693
0.125729
0.125765
0.125765
0.125801
0.125838
0.125874
0.125911
0.125911
0.125947
0.125984
0.12602
0.126057
0.126057
0.126094
0.12613
0.126167
0.126204
0.126204
0.126241
0.126278
0.126314
0.126351
0.126351
0.126388
0.126426
0.126463
0.1265
0.1265
0.126537
0.126574
0.126611
0.126649
0.126649
0.126686
0.126724
0.126761
0.126799
0.126799
0.126836
0.126874
0.126911
0.126949
0.126949
0.126987
0.127024
0.127062
0.1271
0.1271
0.127138
0.127176
0.127214
0.127252
0.127252
0.12729
0.127328
0.127366
0.127404
0.127404
0.127443
0.127481
0.127519
0.127558
0.127558
0.127596
0.127635
0.127673
0.127712
0.127712
0.12775
0.127789
0.127828
0.127866
0.127866
0.127905
0.127944
0.127983
0.128022
0.128022
0.128061
0.1281
0.128139
0.128178
0.128178
0.128217
0.128256
0.128295
0.128335
0.128335
0.128374
0.128413
0.128453
0.128492
0.128492
0.128532
0.128571
0.128611
0.12865
0.12865
0.12869
0.12873
0.12877
0.12881
0.12881
0.128849
0.128889
0.128929
0.128969
0.128969
0.129009
0.129049
0.12909
0.12913
0.12913
0.12917
0.12921
0.129251
0.129291
0.129291
0.129331
0.129372
0.129412
0.129453
0.129453
0.129494
0.129534
0.129575
0.129616
0.129616
0.129656
0.129697
0.129738
0.129779
0.129779
0.12982
0.129861
0.129902
0.129943
0.129943
0.129984
0.130026
0.130067
0.130108
0.130108
0.13015
0.130191
0.130232
0.130274
0.130274
0.130315
0.130357
0.130399
0.13044
0.13044
0.130482
0.130524
0.130566
0.130607
0.130607
0.130649
0.130691
0.130733
0.130775
0.130775
0.130818
0.13086
0.130902
0.130944
0.130944
0.130986
0.131029
0.131071
0.131114
0.131114
0.131156
0.131199
0.131241
0.131284
0.131284
0.131327
0.131369
0.131412
0.131455
0.131455
0.131498
0.131541
0.131584
0.131627
0.131627
0.13167
0.131713
0.131756
0.131799
0.131799
0.131842
0.131886
0.131929
0.131973
0.131973
0.132016
0.132059
0.132103
0.132147
0.132147
0.13219
0.132234
0.132278
0.132321
0.132321
0.132365
0.132409
0.132453
0.132497
0.132497
0.132541
0.132585
0.132629
0.132674
0.132674
0.132718
0.132762
0.132806
0.132851
0.132851
0.132895
0.13294
0.132984
0.133029
0.133029
0.133073
0.133118
0.133163
0.133208
0.133208
0.133252
0.133297
0.133342
0.133387
0.133387
0.133432
0.133477
0.133522
0.133568
0.133568
0.133613
0.133658
0.133703
0.133749
0.133749
0.133794
0.13384
0.133885
0.133931
0.133931
0.133976
0.134022
0.134068
0.134114
0.134114
0.134159
0.134205
0.134251
0.134297
0.134297
0.134343
0.134389
0.134435
0.134482
0.134482
0.134528
0.134574
0.13462
0.134667
0.134667
0.134713
0.13476
0.134806
0.134853
0.134853
0.134899
0.134946
0.134993
0.13504
0.13504
0.135086
0.135133
0.13518
0.135227
0.135227
0.135274
0.135321
0.135369
0.135416
0.135416
0.135463
0.13551
0.135558
0.135605
0.135605
0.135652
0.1357
0.135748
0.135795
0.135795
0.135843
0.13589
0.135938
0.135986
0.135986
0.136034
0.136082
0.13613
0.136178
0.136178
0.136226
0.136274
0.136322
0.13637
0.13637
0.136419
0.136467
0.136515
0.136564
0.136564
0.136612
0.136661
0.136709
0.136758
0.136758
0.136807
0.136856
0.136904
0.136953
0.136953
0.137002
0.137051
0.1371
0.137149
0.137149
0.137198
0.137247
0.137297
0.137346
0.137346
0.137395
0.137445
0.137494
0.137544
0.137544
0.137593
0.137643
0.137692
0.137742
0.137742
0.137792
0.137842
0.137891
0.137941
0.137941
0.137991
0.138041
0.138091
0.138141
0.138141
0.138192
0.138242
0.138292
0.138343
0.138343
0.138393
0.138443
0.138494
0.138544
0.138544
0.138595
0.138646
0.138696
0.138747
0.138747
0.138798
0.138849
0.1389
0.138951
0.138951
0.139002
0.139053
0.139104
0.139155
0.139155
0.139206
0.139258
0.139309
0.139361
0.139361
0.139412
0.139463
0.139515
0.139567
0.139567
0.139618
0.13967
0.139722
0.139774
0.139774
0.139826
0.139878
0.13993
0.139982
0.139982
0.140034
0.140086
0.140138
0.140191
0.140191
0.140243
0.140295
0.140348
0.1404
0.1404
0.140453
0.140505
0.140558
0.140611
0.140611
0.140664
0.140716
0.140769
0.140822
0.140822
0.140875
0.140928
0.140981
0.141035
0.141035
0.141088
0.141141
0.141194
0.141248
0.141248
0.141301
0.141355
0.141408
0.141462
0.141462
0.141515
0.141569
0.141623
0.141677
0.141677
0.141731
0.141785
0.141839
0.141893
0.141893
0.141947
0.142001
0.142055
0.142109
0.142109
0.142164
0.142218
0.142273
0.142327
0.142327
0.142382
0.142436
0.142491
0.142546
0.142546
0.142601
0.142655
0.14271
0.142765
0.142765
0.14282
0.142875
0.14293
0.142986
0.142986
0.143041
0.143096
0.143151
0.143207
0.143207
0.143262
0.143318
0.143373
0.143429
0.143429
0.143485
0.143541
0.143596
0.143652
0.143652
0.143708
0.143764
0.14382
0.143876
0.143876
0.143932
0.143989
0.144045
0.144101
0.144101
0.144158
0.144214
0.14427
0.144327
0.144327
0.144384
0.14444
0.144497
0.144554
0.144554
0.144611
0.144668
0.144725
0.144782
0.144782
0.144839
0.144896
0.144953
0.14501
0.14501
0.145067
0.145125
0.145182
0.14524
0.14524
0.145297
0.145355
0.145412
0.14547
0.14547
0.145528
0.145586
0.145644
0.145702
0.145702
0.14576
0.145818
0.145876
0.145934
0.145934
0.145992
0.14605
0.146109
0.146167
0.146167
0.146226
0.146284
0.146343
0.146401
0.146401
0.14646
0.146519
0.146578
0.146637
0.146637
0.146696
0.146755
0.146814
0.146873
0.146873
0.146932
0.146991
0.14705
0.14711
0.14711
0.147169
0.147229
0.147288
0.147348
0.147348
0.147407
0.147467
0.147527
0.147587
0.147587
0.147647
0.147707
0.147767
0.147827
0.147827
0.147887
0.147947
0.148007
0.148067
0.148067
0.148128
0.148188
0.148249
0.148309
0.148309
0.14837
0.148431
0.148491
0.148552
0.148552
0.148613
0.148674
0.148735
0.148796
0.148796
0.148857
0.148918
0.148979
0.149041
0.149041
0.149102
0.149163
0.149225
0.149286
0.149286
0.149348
0.149409
0.149471
0.149533
0.149533
0.149595
0.149656
0.149718
0.14978
0.14978
0.149842
0.149905
0.149967
0.150029
0.150029
0.150091
0.150154
0.150216
0.150279
0.150279
0.150341
0.150404
0.150466
0.150529
0.150529
0.150592
0.150655
0.150718
0.150781
0.150781
0.150844
0.150907
0.15097
0.151033
0.151033
0.151096
0.15116
0.151223
0.151287
0.151287
0.15135
0.151414
0.151477
0.151541
0.151541
0.151605
0.151669
0.151732
0.151796
0.151796
0.15186
0.151924
0.151989
0.152053
0.152053
0.152117
0.152181
0.152246
0.15231
0.15231
0.152375
0.152439
0.152504
0.152569
0.152569
0.152633
0.152698
0.152763
0.152828
0.152828
0.152893
0.152958
0.153023
0.153089
0.153089
0.153154
0.153219
0.153284
0.15335
0.15335
0.153415
0.153481
0.153547
0.153612
0.153612
0.153678
0.153744
0.15381
0.153876
0.153876
0.153942
0.154008
0.154074
0.15414
0.15414
0.154206
0.154273
0.154339
0.154406
0.154406
0.154472
0.154539
0.154605
0.154672
0.154672
0.154739
0.154806
0.154873
0.15494
0.15494
0.155007
0.155074
0.155141
0.155208
0.155208
0.155275
0.155343
0.15541
0.155478
0.155478
0.155545
0.155613
0.15568
0.155748
0.155748
0.155816
0.155884
0.155952
0.15602
0.15602
0.156088
0.156156
0.156224
0.156292
0.156292
0.15636
0.156429
0.156497
0.156566
0.156566
0.156634
0.156703
0.156772
0.15684
0.15684
0.156909
0.156978
0.157047
0.157116
0.157116
0.157185
0.157254
0.157323