<?xml version="1.0"?>
<VTKFile type="UnstructuredGrid" version="0.1" byte_order="LittleEndian">
<UnstructuredGrid>
<Piece NumberOfPoints="5000" NumberOfCells="4000">
<PointData Scalars="Reaction 0">
<DataArray type="Float32" Name="Reaction 0" format="ascii">
0.537186
0.537186
0.537186
0.537186
0.537186
0.537186
0.537186
0.537187
0.537187
0.537187
0.537187
0.537188
0.537188
0.537188
0.537189
0.537189
0.537189
0.53719
0.537191
0.537191
0.537191
0.537192
0.537193
0.537194
0.537195
0.537195
0.537195
0.537196
0.537197
0.537198
0.537198
0.5372
0.537201
0.537202
0.537203
0.537203
0.537204
0.537206
0.537207
0.537208
0.537208
0.53721
0.537211
0.537213
0.537214
0.537214
0.537216
0.537218
0.537219
0.537221
0.537221
0.537223
0.537225
0.537226
0.537228
0.537228
0.53723
0.537232
0.537234
0.537236
0.537236
0.537239
0.537241
0.537243
0.537245
0.537245
0.537248
0.53725
0.537252
0.537255
0.537255
0.537257
0.53726
0.537262
0.537265
0.537265
0.537268
0.53727
0.537273
0.537276
0.537276
0.537279
0.537282
0.537285
0.537287
0.537287
0.537291
0.537294
0.537297
0.5373
0.5373
0.537303
0.537306
0.53731
0.537313
0.537313
0.537316
0.53732
0.537323
0.537327
0.537327
0.53733
0.537334
0.537337
0.537341
0.537341
0.537345
0.537348
0.537352
0.537356
0.537356
0.53736
0.537364
0.537368
0.537372
0.537372
0.537376
0.53738
0.537384
0.537389
0.537389
0.537393
0.537397
0.537401
0.537406
0.537406
0.53741
0.537415
0.537419
0.537424
0.537424
0.537428
0.537433
0.537438
0.537442
0.537442
0.537447
0.537452
0.537457
0.537462
0.537462
0.537467
0.537472
0.537477
0.537482
0.537482
0.537487
0.537492
0.537497
0.537503
0.537503
0.537508
0.537513
0.537519
0.537524
0.537524
0.53753
0.537535
0.537541
0.537546
0.537546
0.537552
0.537558
0.537563
0.537569
0.537569
0.537575
0.537581
0.537587
0.537593
0.537593
0.537599
0.537605
0.537611
0.537617
0.537617
0.537623
0.53763
0.537636
0.537642
0.537642
0.537648
0.537655
0.537661
0.537668
0.537668
0.537674
0.537681
0.537688
0.537694
0.537694
0.537701
0.537708
0.537715
0.537721
0.537721
0.537728
0.537735
0.537742
0.537749
0.537749
0.537756
0.537763
0.537771
0.537778
0.537778
0.537785
0.537792
0.5378
0.537807
0.537807
0.537814
0.537822
0.537829
0.537837
0.537837
0.537845
0.537852
0.53786
0.537868
0.537868
0.537875
0.537883
0.537891
0.537899
0.537899
0.537907
0.537915
0.537923
0.537931
0.537931
0.537939
0.537947
0.537956
0.537964
0.537964
0.537972
0.537981
0.537989
0.537997
0.537997
0.538006
0.538014
0.538023
0.538032
0.538032
0.53804
0.538049
0.538058
0.538067
0.538067
0.538075
0.538084
0.538093
0.538102
0.538102
0.538111
0.53812
0.538129
0.538139
0.538139
0.538148
0.538157
0.538166
0.538176
0.538176
0.538185
0.538194
0.538204
0.538213
0.538213
0.538223
0.538232
0.538242
0.538252
0.538252
0.538262
0.538271
0.538281
0.538291
0.538291
0.538301
0.538311
0.538321
0.538331
0.538331
0.538341
0.538351
0.538361
0.538371
0.538371
0.538382
0.538392
0.538402
0.538413
0.538413
0.538423
0.538434
0.538444
0.538455
0.538455
0.538465
0.538476
0.538487
0.538497
0.538497
0.538508
0.538519
0.53853
0.538541
0.538541
0.538552
0.538563
0.538574
0.538585
0.538585
0.538596
0.538607
0.538619
0.53863
0.53863
0.538641
0.538653
0.538664
0.538675
0.538675
0.538687
0.538699
0.53871
0.538722
0.538722
0.538733
0.538745
0.538757
0.538769
0.538769
0.538781
0.538793
0.538804
0.538816
0.538816
0.538829
0.538841
0.538853
0.538865
0.538865
0.538877
0.538889
0.538902
0.538914
0.538914
0.538926
0.538939
0.538951
0.538964
0.538964
0.538976
0.538989
0.539002
0.539014
0.539014
0.539027
0.53904
0.539053
0.539066
0.539066
0.539079
0.539092
0.539105
0.539118
0.539118
0.539131
0.539144
0.539157
0.53917
0.53917
0.539184
0.539197
0.53921
0.539224
0.539224
0.539237
0.539251
0.539264
0.539278
0.539278
0.539292
0.539305
0.539319
0.539333
0.539333
0.539347
0.539361
0.539374
0.539388
0.539388
0.539402
0.539416
0.539431
0.539445
0.539445
0.539459
0.539473
0.539487
0.539502
0.539502
0.539516
0.53953
0.539545
0.539559
0.539559
0.539574
0.539589
0.539603
0.539618
0.539618
0.539633
0.539647
0.539662
0.539677
0.539677
0.539692
0.539707
0.539722
0.539737
0.539737
0.539752
0.539767
0.539782
0.539798
0.539798
0.539813
0.539828
0.539843
0.539859
0.539859
0.539874
0.53989
0.539905
0.539921
0.539921
0.539936
0.539952
0.539968
0.539984
0.539984
0.539999
0.540015
0.540031
0.540047
0.540047
0.540063
0.540079
0.540095
0.540111
0.540111
0.540127
0.540144
0.54016
0.540176
0.540176
0.540193
0.540209
0.540225
0.540242
0.540242
0.540258
0.540275
0.540291
0.540308
0.540308
0.540325
0.540342
0.540358
0.540375
0.540375
0.540392
0.540409
0.540426
0.540443
0.540443
0.54046
0.540477
0.540494
0.540512
0.540512
0.540529
0.540546
0.540563
0.540581
0.540581
0.540598
0.540616
0.540633
0.540651
0.540651
0.540668
0.540686
0.540704
0.540721
0.540721
0.540739
0.540757
0.540775
0.540793
0.540793
0.540811
0.540829
0.540847
0.540865
0.540865
0.540883
0.540901
0.54092
0.540938
0.540938
0.540956
0.540975
0.540993
0.541011
0.541011
0.54103
0.541048
0.541067
0.541086
0.541086
0.541104
0.541123
0.541142
0.541161
0.541161
0.54118
0.541199
0.541218
0.541237
0.541237
0.541256
0.541275
0.541294
0.541313
0.541313
0.541332
0.541352
0.541371
0.54139
0.54139
0.54141
0.541429
0.541449
0.541468
0.541468
0.541488
0.541507
0.541527
0.541547
0.541547
0.541567
0.541586
0.541606
0.541626
0.541626
0.541646
0.541666
0.541686
0.541706
0.541706
0.541727
0.541747
0.541767
0.541787
0.541787
0.541808
0.541828
0.541848
0.541869
0.541869
0.541889
0.54191
0.541931
0.541951
0.541951
0.541972
0.541993
0.542013
0.542034
0.542034
0.542055
0.542076
0.542097
0.542118
0.542118
0.542139
0.54216
0.542181
0.542203
0.542203
0.542224
0.542245
0.542266
0.542288
0.542288
0.542309
0.542331
0.542352
0.542374
0.542374
0.542395
0.542417
0.542439
0.542461
0.542461
0.542482
0.542504
0.542526
0.542548
0.542548
0.54257
0.542592
0.542614
0.542636
0.542636
0.542658
0.542681
0.542703
0.542725
0.542725
0.542747
0.54277
0.542792
0.542815
0.542815
0.542837
0.54286
0.542883
0.542905
0.542905
0.542928
0.542951
0.542973
0.542996
0.542996
0.543019
0.543042
0.543065
0.543088
0.543088
0.543111
0.543134
0.543158
0.543181
0.543181
0.543204
0.543227
0.543251
0.543274
0.543274
0.543298
0.543321
0.543345
0.543368
0.543368
0.543392
0.543416
0.543439
0.543463
0.543463
0.543487
0.543511
0.543535
0.543559
0.543559
0.543583
0.543607
0.543631
0.543655
0.543655
0.543679
0.543703
0.543728
0.543752
0.543752
0.543776
0.543801
0.543825
0.54385
0.54385
0.543874
0.543899
0.543924
0.543948
0.543948
0.543973
0.543998
0.544023
0.544048
0.544048
0.544073
0.544098
0.544123
0.544148
0.544148
0.544173
0.544198
0.544223
0.544248
0.544248
0.544274
0.544299
0.544324
0.54435
0.54435
0.544375
0.544401
0.544427
0.544452
0.544452
0.544478
0.544504
0.544529
0.544555
0.544555
0.544581
0.544607
0.544633
0.544659
0.544659
0.544685
0.544711
0.544737
0.544763
0.544763
0.54479
0.544816
0.544842
0.544869
0.544869
0.544895
0.544922
0.544948
0.544975
0.544975
0.545001
0.545028
0.545055
0.545081
0.545081
0.545108
0.545135
0.545162
0.545189
0.545189
0.545216
0.545243
0.54527
0.545297
0.545297
0.545324
0.545352
0.545379
0.545406
0.545406
0.545434
0.545461
0.545488
0.545516
0.545516
0.545543
0.545571
0.545599
0.545626
0.545626
0.545654
0.545682
0.54571
0.545738
0.545738
0.545766
0.545794
0.545822
0.54585
0.54585
0.545878
0.545906
0.545934
0.545962
0.545962
0.545991
0.546019
0.546048
0.546076
0.546076
0.546104
0.546133
0.546162
0.54619
0.54619
0.546219
0.546248
0.546276
0.546305
0.546305
0.546334
0.546363
0.546392
0.546421
0.546421
0.54645
0.546479
0.546508
0.546538
0.546538
0.546567
0.546596
0.546626
0.546655
0.546655
0.546684
0.546714
0.546743
0.546773
0.546773
0.546803
0.546832
0.546862
0.546892
0.546892
0.546922
0.546952
0.546981
0.547011
0.547011
0.547041
0.547071
0.547102
0.547132
0.547132
0.547162
0.547192
0.547223
0.547253
0.547253
0.547283
0.547314
0.547344
0.547375
0.547375
0.547405
0.547436
0.547467
0.547497
0.547497
0.547528
0.547559
0.54759
0.547621
0.547621
0.547652
0.547683
0.547714
0.547745
0.547745
0.547776
0.547807
0.547839
0.54787
0.54787
0.547901
0.547933
0.547964
0.547996
0.547996
0.548027
0.548059
0.54809
0.548122
0.548122
0.548154
0.548186
0.548217
0.548249
0.548249
0.548281
0.548313
0.548345
0.548377
0.548377
0.548409
0.548442
0.548474
0.548506
0.548506
0.548538
0.548571
0.548603
0.548636
0.548636
0.548668
0.548701
0.548733
0.548766
0.548766
0.548799
0.548831
0.548864
0.548897
0.548897
0.54893
0.548963
0.548996
0.549029
0.549029
0.549062
0.549095
0.549128
0.549162
0.549162
0.549195
0.549228
0.549262
0.549295
0.549295
0.549329
0.549362
0.549396
0.549429
0.549429
0.549463
0.549497
0.54953
0.549564
0.549564
0.549598
0.549632
0.549666
0.5497
0.5497
0.549734
0.549768
0.549802
0.549836
0.549836
0.549871
0.549905
0.549939
0.549974
0.549974
0.550008
0.550043
0.550077
0.550112
0.550112
0.550147
0.550181
0.550216
0.550251
0.550251
0.550286
0.550321
0.550355
0.55039
0.55039
0.550425
0.550461
0.550496
0.550531
0.550531
0.550566
0.550601
0.550637
0.550672
0.550672
0.550708
0.550743
0.550779
0.550814
0.550814
0.55085
0.550885
0.550921
0.550957
0.550957
0.550993
0.551029
0.551065
0.5511
0.5511
0.551136
0.551173
0.551209
0.551245
0.551245
0.551281
0.551317
0.551354
0.55139
0.55139
0.551426
0.551463
0.551499
0.551536
0.551536
0.551573
0.551609
0.551646
0.551683
0.551683
0.551719
0.551756
0.551793
0.55183
0.55183
0.551867
0.551904
0.551941
0.551979
0.551979
0.552016
0.552053
0.55209
0.552128
0.552128
0.552165
0.552202
0.55224
0.552278
0.552278
0.552315
0.552353
0.55239
0.552428
0.552428
0.552466
0.552504
0.552542
0.55258
0.55258
0.552618
0.552656
0.552694
0.552732
0.552732
0.55277
0.552808
0.552847
0.552885
0.552885
0.552924
0.552962
0.553
0.553039
0.553039
0.553078
0.553116
0.553155
0.553194
0.553194
0.553233
0.553271
0.55331
0.553349
0.553349
0.553388
0.553427
0.553466
0.553506
0.553506
0.553545
0.553584
0.553623
0.553663
0.553663
0.553702
0.553741
0.553781
0.553821
0.553821
0.55386
0.5539
0.553939
0.553979
0.553979
0.554019
0.554059
0.554099
0.554139
0.554139
0.554179
0.554219
0.554259
0.554299
0.554299
0.554339
0.55438
0.55442
0.55446
0.55446
0.554501
0.554541
0.554582
0.554622
0.554622
0.554663
0.554703
0.554744
0.554785
0.554785
0.554826
0.554867
0.554907
0.554948
0.554948
0.554989
0.555031
0.555072
0.555113
0.555113
0.555154
0.555195
0.555237
0.555278
0.555278
0.555319
0.555361
0.555402
0.555444
0.555444
0.555486
0.555527
0.555569
0.555611
0.555611
0.555653
0.555695
0.555736
0.555778
0.555778
0.555821
0.555863
0.555905
0.555947
0.555947
0.555989
0.556031
0.556074
0.556116
0.556116
0.556159
0.556201
0.556244
0.556286
0.556286
0.556329
0.556372
0.556414
0.556457
0.556457
0.5565
0.556543
0.556586
0.556629
0.556629
0.556672
0.556715
0.556758
0.556802
0.556802
0.556845
0.556888
0.556931
0.556975
0.556975
0.557018
0.557062
0.557105
0.557149
0.557149
0.557193
0.557237
0.55728
0.557324
0.557324
0.557368
0.557412
0.557456
0.5575
0.5575
0.557544
0.557588
0.557632
0.557677
0.557677
0.557721
0.557765
0.55781
0.557854
0.557854
0.557899
0.557943
0.557988
0.558033
0.558033
0.558077
0.558122
0.558167
0.558212
0.558212
0.558257
0.558302
0.558347
0.558392
0.558392
0.558437
0.558482
0.558527
0.558573
0.558573
0.558618
0.558663
0.558709
0.558754
0.558754
0.5588
0.558846
0.558891
0.558937
0.558937
0.558983
0.559029
0.559074
0.55912
0.55912
0.559166
0.559212
0.559258
0.559305
0.559305
0.559351
0.559397
0.559443
0.55949
0.55949
0.559536
0.559582
0.559629
0.559675
0.559675
0.559722
0.559768
0.559814
0.55986
0.55986
0.559906
0.559951
0.559995
0.560038
0.560038
0.560079
0.560119
0.56016
0.560199
0.560199
0.560239
0.560279
0.560319
0.560359
0.560359
0.560398
0.560438
0.560478
0.560518
0.560518
0.560558
0.560598
0.560638
0.560678
0.560678
0.560718
0.560759
0.560799
0.560839
0.560839
0.560879
0.56092
0.56096
0.561001
0.561001
0.561041
0.561082
0.561122
0.561163
0.561163
0.561204
0.561244
0.561285
0.561326
0.561326
0.561367
0.561408
0.561448
0.561489
0.561489
0.56153
0.561571
0.561613
0.561654
0.561654
0.561695
0.561736
0.561777
0.561819
0.561819
0.56186
0.561901
0.561943
0.561984
0.561984
0.562026
0.562067
0.562109
0.562151
0.562151
0.562192
0.562234
0.562276
0.562317
0.562317
0.562359
0.562401
0.562443
0.562485
0.562485
0.562527
0.562569
0.562611
0.562653
0.562653
0.562696
0.562738
0.56278
0.562822
0.562822
0.562865
0.562907
0.562949
0.562992
0.562992
0.563034
0.563077
0.563119
0.563162
0.563162
0.563205
0.563247
0.56329
0.563333
0.563333
0.563376
0.563419
0.563462
0.563504
0.563504
0.563547
0.56359
0.563634
0.563677
0.563677
0.56372
0.563763
0.563806
0.563849
0.563849
0.563893
0.563936
0.563979
0.564023
0.564023
0.564066
0.56411
0.564153
0.564197
0.564197
0.56424
0.564284
0.564328
0.564372
0.564372
0.564415
0.564459
0.564503
0.564547
0.564547
0.564591
0.564635
0.564679
0.564723
0.564723
0.564767
0.564811
0.564855
0.564899
0.564899
0.564944
0.564988
0.565032
0.565076
0.565076
0.565121
0.565165
0.56521
0.565254
0.565254
0.565299
0.565343
0.565387
0.565432
0.565432
0.565476
0.56552
0.565564
0.565608
0.565608
0.565652
0.565694
0.565736
0.565776
0.565776
0.565816
0.565854
0.565892
0.565929
0.565929
0.565966
0.566002
0.566038
0.566074
0.566074
0.56611
0.566146
0.566182
0.566218
0.566218
0.566254
0.56629
0.566326
0.566362
0.566362
0.566398
0.566434
0.566471
0.566507
0.566507
0.566543
0.566579
0.566615
0.566652
0.566652
0.566688
0.566724
0.566761
0.566797
0.566797
0.566833
0.56687
0.566906
0.566943
0.566943
0.566979
0.567016
0.567052
0.567089
0.567089
0.567125
0.567162
0.567199
0.567235
0.567235
0.567272
0.567309
0.567346
0.567382
0.567382
0.567419
0.567456
0.567493
0.56753
0.56753
0.567567
0.567604
0.567641
0.567678
0.567678
0.567715
0.567752
0.567789
0.567826
0.567826
0.567863
0.5679
0.567937
0.567974
0.567974
0.568012
0.568049
0.568086
0.568124
0.568124
0.568161
0.568198
0.568236
0.568273
0.568273
0.56831
0.568348
0.568385
0.568423
0.568423
0.56846
0.568498
0.568536
0.568573
0.568573
0.568611
0.568649
0.568686
0.568724
0.568724
0.568762
0.568799
0.568837
0.568875
0.568875
0.568913
0.568951
0.568989
0.569026
0.569026
0.569064
0.569102
0.56914
0.569178
0.569178
0.569216
0.569254
0.569292
0.569331
0.569331
0.569369
0.569407
0.569445
0.569483
0.569483
0.569521
0.56956
0.569598
0.569636
0.569636
0.569675
0.569713
0.569751
0.56979
0.56979
0.569828
0.569866
0.569905
0.569943
0.569943
0.569981
0.57002
0.570058
0.570096
0.570096
0.570134
0.570172
0.570209
0.570246
0.570246
0.570282
0.570318
0.570353
0.570387
0.570387
0.57042
0.570453
0.570485
0.570517
0.570517
0.570548
0.570579
0.57061
0.57064
0.57064
0.570671
0.570701
0.570731
0.570762
0.570762
0.570792
0.570822
0.570852
0.570883
0.570883
0.570913
0.570943
0.570974
0.571004
0.571004
0.571034
0.571065
0.571095
0.571126
0.571126
0.571156
0.571186
0.571217
0.571247
0.571247
0.571278
0.571308
0.571339
0.571369
0.571369
0.5714
0.57143
0.571461
0.571491
0.571491
0.571522
0.571553
0.571583
0.571614
0.571614
0.571645
0.571675
0.571706
0.571737
0.571737
0.571767
0.571798
0.571829
0.57186
0.57186
0.57189
0.571921
0.571952
0.571983
0.571983
0.572014
0.572044
0.572075
0.572106
0.572106
0.572137
0.572168
0.572199
0.57223
0.57223
0.572261
0.572292
0.572323
0.572354
0.572354
0.572385
0.572416
0.572447
0.572478
0.572478
0.572509
0.57254
0.572571
0.572602
0.572602
0.572633
0.572664
0.572695
0.572727
0.572727
0.572758
0.572789
0.57282
0.572851
0.572851
0.572883
0.572914
0.572945
0.572976
0.572976
0.573008
0.573039
0.57307
0.573102
0.573102
0.573133
0.573164
0.573196
0.573227
0.573227
0.573258
0.57329
0.573321
0.573353
0.573353
0.573384
0.573415
0.573447
0.573478
0.573478
0.57351
0.573541
0.573572
0.573603
0.573603
0.573634
0.573665
0.573695
0.573726
0.573726
0.573755
0.573785
0.573814
0.573843
0.573843
0.573871
0.573898
0.573925
0.573952
0.573952
0.573978
0.574004
0.574029
0.574055
0.574055
0.57408
0.574105
0.574129
0.574154
0.574154
0.574179
0.574203
0.574228
0.574252
0.574252
0.574277
0.574301
0.574326
0.57435
0.57435
0.574374
0.574399
0.574423
0.574448
0.574448
0.574472
0.574497
0.574521
0.574546
0.574546
0.574571
0.574595
0.57462
0.574644
0.574644
0.574669
0.574693
0.574718
0.574742
0.574742
0.574767
0.574792
0.574816
0.574841
0.574841
0.574866
0.57489
0.574915
0.574939
0.574939
0.574964
0.574989
0.575013
0.575038
0.575038
0.575063
0.575088
0.575112
0.575137
0.575137
0.575162
0.575186
0.575211
0.575236
0.575236
0.575261
0.575285
0.57531
0.575335
0.575335
0.57536
0.575384
0.575409
0.575434
0.575434
0.575459
0.575484
0.575508
0.575533
0.575533
0.575558
0.575583
0.575608
0.575633
0.575633
0.575658
0.575682
0.575707
0.575732
0.575732
0.575757
0.575782
0.575807
0.575832
0.575832
0.575857
0.575882
0.575907
0.575932
0.575932
0.575957
0.575982
0.576007
0.576031
0.576031
0.576056
0.576081
0.576106
0.576131
0.576131
0.576156
0.576181
0.576206
0.57623
0.57623
0.576255
0.576279
0.576304
0.576328
0.576328
0.576352
0.576375
0.576399
0.576422
0.576422
0.576445
0.576467
0.576489
0.576511
0.576511
0.576532
0.576553
0.576574
0.576595
0.576595
0.576615
0.576635
0.576655
0.576675
0.576675
0.576695
0.576714
0.576734
0.576753
0.576753
0.576773
0.576792
0.576811
0.576831
0.576831
0.57685
0.576869
0.576889
0.576908
0.576908
0.576927
0.576947
0.576966
0.576985
0.576985
0.577005
0.577024
0.577043
0.577063
0.577063
0.577082
0.577101
0.577121
0.57714
0.57714
0.577159
0.577179
0.577198
0.577217
0.577217
0.577237
0.577256
0.577276
0.577295
0.577295
0.577314
0.577334
0.577353
0.577372
0.577372
0.577392
0.577411
0.577431
0.57745
0.57745
0.57747
0.577489
0.577508
0.577528
0.577528
0.577547
0.577567
0.577586
0.577606
0.577606
0.577625
0.577645
0.577664
0.577683
0.577683
0.577703
0.577722
0.577742
0.577761
0.577761
0.577781
0.5778
0.57782
0.577839
0.577839
0.577859
0.577878
0.577898
0.577917
0.577917
0.577937
0.577956
0.577976
0.577995
0.577995
0.578015
0.578034
0.578054
0.578073
0.578073
0.578093
0.578112
0.578132
0.578151
0.578151
0.57817
0.57819
0.578209
0.578228
0.578228
0.578247
0.578266
0.578285
0.578303
0.578303
0.578322
0.57834
0.578358
0.578375
0.578375
0.578393
0.57841
0.578427
0.578444
0.578444
0.578461
0.578477
0.578494
0.57851
0.57851
0.578525
0.578541
0.578557
0.578572
0.578572
0.578588
0.578603
0.578618
0.578633
0.578633
0.578649
0.578664
0.578679
0.578694
0.578694
0.578709
0.578724
0.578739
0.578754
0.578754
0.578769
0.578784
0.578799
0.578814
0.578814
0.57883
0.578845
0.57886
0.578875
0.578875
0.57889
0.578905
0.57892
0.578935
0.578935
0.57895
0.578965
0.57898
0.578995
0.578995
0.57901
0.579026
0.579041
0.579056
0.579056
0.579071
0.579086
0.579101
0.579116
0.579116
0.579131
0.579146
0.579161
0.579176
0.579176
0.579192
0.579207
0.579222
0.579237
0.579237
0.579252
0.579267
0.579282
0.579297
0.579297
0.579312
0.579328
0.579343
0.579358
0.579358
0.579373
0.579388
0.579403
0.579418
0.579418
0.579434
0.579449
0.579464
0.579479
0.579479
0.579494
0.579509
0.579524
0.579539
0.579539
0.579555
0.57957
0.579585
0.5796
0.5796
0.579615
0.57963
0.579645
0.57966
0.57966
0.579674
0.579689
0.579704
0.579718
0.579718
0.579733
0.579747
0.579761
0.579775
0.579775
0.579789
0.579803
0.579816
0.57983
0.57983
0.579843
0.579856
0.579869
0.579882
0.579882
0.579895
0.579907
0.579919
0.579932
0.579932
0.579944
0.579956
0.579968
0.57998
0.57998
0.579992
0.580004
0.580016
0.580027
0.580027
0.580039
0.580051
0.580063
0.580074
0.580074
0.580086
0.580098
0.580109
0.580121
0.580121
0.580133
0.580144
0.580156
0.580168
0.580168
0.58018
0.580191
0.580203
0.580215
0.580215
0.580226
0.580238
0.58025
0.580261
0.580261
0.580273
0.580285
0.580297
0.580308
0.580308
0.58032
0.580332
0.580343
0.580355
0.580355
0.580367
0.580378
0.58039
0.580402
0.580402
0.580414
0.580425
0.580437
0.580449
0.580449
0.58046
0.580472
0.580484
0.580496
0.580496
0.580507
0.580519
0.580531
0.580543
0.580543
0.580554
0.580566
0.580578
0.580589
0.580589
0.580601
0.580613
0.580625
0.580636
0.580636
0.580648
0.58066
0.580671
0.580683
0.580683
0.580695
0.580706
0.580718
0.580729
0.580729
0.580741
0.580752
0.580764
0.580775
0.580775
0.580786
0.580797
0.580808
0.580819
0.580819
0.58083
0.580841
0.580852
0.580862
0.580862
0.580873
0.580883
0.580893
0.580903
0.580903
0.580913
0.580923
0.580933
0.580943
0.580943
0.580952
0.580962
0.580971
0.580981
0.580981
0.58099
0.581
0.581009
0.581018
0.581018
0.581027
0.581036
0.581046
0.581055
0.581055
0.581064
0.581073
0.581082
0.581091
0.581091
0.5811
0.581109
0.581118
0.581128
0.581128
0.581137
0.581146
0.581155
0.581164
0.581164
0.581173
0.581182
0.581191
0.5812
0.5812
0.581209
0.581219
0.581228
0.581237
0.581237
0.581246
0.581255
0.581264
0.581273
0.581273
0.581282
0.581291
0.5813
0.58131
0.58131
0.581319
0.581328
0.581337
0.581346
0.581346
0.581355
0.581364
0.581373
0.581382
0.581382
0.581392
0.581401
0.58141
0.581419
0.581419
0.581428
0.581437
0.581446
0.581455
0.581455
0.581464
0.581474
0.581483
0.581492
0.581492
0.581501
0.58151
0.581519
0.581528
0.581528
0.581537
0.581546
0.581554
0.581563
0.581563
0.581572
0.581581
0.581589
0.581598
0.581598
0.581607
0.581615
0.581623
0.581632
0.581632
0.58164
0.581648
0.581656
0.581664
0.581664
0.581672
0.58168
0.581688
0.581696
0.581696
0.581703
0.581711
0.581718
0.581726
0.581726
0.581733
0.581741
0.581748
0.581755
0.581755
0.581763
0.58177
0.581777
0.581784
0.581784
0.581792
0.581799
0.581806
0.581813
0.581813
0.58182
0.581827
0.581834
0.581842
0.581842
0.581849
0.581856
0.581863
0.58187
0.58187
0.581877
0.581884
0.581891
0.581899
0.581899
0.581906
0.581913
0.58192
0.581927
0.581927
0.581934
0.581941
0.581949
0.581956
0.581956
0.581963
0.58197
0.581977
0.581984
0.581984
0.581991
0.581999
0.582006
0.582013
0.582013
0.58202
0.582027
0.582034
0.582041
0.582041
0.582049
0.582056
0.582063
0.58207
0.58207
0.582077
0.582084
0.582091
0.582099
0.582099
0.582106
0.582113
0.58212
0.582127
0.582127
0.582134
0.582141
0.582148
0.582155
0.582155
0.582162
0.582169
0.582176
0.582182
0.582182
0.582189
0.582196
0.582203
0.582209
0.582209
0.582216
0.582222
0.582229
0.582235
0.582235
0.582242
0.582248
0.582254
0.58226
0.58226
0.582267
0.582273
0.582279
0.582285
0.582285
0.582291
0.582297
0.582303
0.582309
0.582309
0.582314
0.58232
0.582326
0.582332
0.582332
0.582338
0.582343
0.582349
0.582355
0.582355
0.58236
0.582366
0.582372
0.582377
0.582377
0.582383
0.582389
0.582394
0.5824
0.5824
0.582406
0.582411
0.582417
0.582423
0.582423
0.582428
0.582434
0.58244
0.582445
0.582445
0.582451
0.582457
0.582462
0.582468
0.582468
0.582474
0.582479
0.582485
0.582491
0.582491
0.582496
0.582502
0.582508
0.582514
0.582514
0.582519
0.582525
0.582531
0.582536
0.582536
0.582542
0.582548
0.582553
0.582559
0.582559
0.582565
0.58257
0.582576
0.582582
0.582582
0.582587
0.582593
0.582598
0.582604
0.582604
0.58261
0.582615
0.582621
0.582626
0.582626
0.582632
0.582637
0.582643
0.582648
0.582648
0.582653
0.582659
0.582664
0.582669
0.582669
0.582674
0.582679
0.582685
0.58269
0.58269
0.582695
0.5827
0.582705
0.58271
0.58271
0.582715
0.58272
0.582724
0.582729
0.582729
0.582734
0.582739
0.582744
0.582748
0.582748
0.582753
0.582758
0.582762
0.582767
0.582767
0.582772
0.582776
0.582781
0.582786
0.582786
0.58279
0.582795
0.582799
0.582804
0.582804
0.582809
0.582813
0.582818
0.582822
0.582822
0.582827
0.582831
0.582836
0.582841
0.582841
0.582845
0.58285
0.582854
0.582859
0.582859
0.582864
0.582868
0.582873
0.582877
0.582877
0.582882
0.582887
0.582891
0.582896
0.582896
0.5829
0.582905
0.58291
0.582914
0.582914
0.582919
0.582923
0.582928
0.582933
0.582933
0.582937
0.582942
0.582946
0.582951
0.582951
0.582955
0.58296
0.582964
0.582969
0.582969
0.582974
0.582978
0.582983
0.582987
0.582987
0.582991
0.582996
0.583
0.583005
0.583005
0.583009
0.583013
0.583018
0.583022
0.583022
0.583026
0.58303
0.583034
0.583039
0.583039
0.583043
0.583047
0.583051
0.583055
0.583055
0.583059
0.583063
0.583067
0.583071
0.583071
0.583075
0.583079
0.583083
0.583087
0.583087
0.583091
0.583095
0.583099
0.583103
0.583103
0.583106
0.58311
0.583114
0.583118
0.583118
0.583122
0.583125
0.583129
0.583133
0.583133
0.583137
0.583141
0.583144
0.583148
0.583148
0.583152
0.583156
0.58316
0.583163
0.583163
0.583167
0.583171
0.583175
0.583179
0.583179
0.583183
0.583186
0.58319
0.583194
0.583194
0.583198
0.583202
0.583205
0.583209
0.583209
0.583213
0.583217
0.583221
0.583224
0.583224
0.583228
0.583232
0.583236
0.58324
0.58324
0.583243
0.583247
0.583251
0.583255
0.583255
0.583258
0.583262
0.583266
0.58327
0.58327
0.583273
0.583277
0.583281
0.583284
0.583284
0.583288
0.583292
0.583295
0.583299
0.583299
0.583303
0.583306
0.58331
0.583313
0.583313
0.583317
0.58332
0.583324
0.583327
0.583327
0.583331
0.583334
0.583337
0.583341
0.583341
0.583344
0.583348
0.583351
0.583354
0.583354
0.583358
0.583361
0.583364
0.583368
0.583368
0.583371
0.583374
0.583377
0.583381
0.583381
0.583384
0.583387
0.58339
0.583394
0.583394
0.583397
0.5834
0.583403
0.583407
0.583407
0.58341
0.583413
0.583416
0.58342
0.58342
0.583423
0.583426
0.583429
0.583433
0.583433
0.583436
0.583439
0.583442
0.583445
0.583445
0.583449
0.583452
0.583455
0.583458
0.583458
0.583462
0.583465
0.583468
0.583471
0.583471
0.583475
0.583478
0.583481
0.583484
0.583484
0.583488
0.583491
0.583494
0.583497
0.583497
0.5835
0.583504
0.583507
0.58351
0.58351
0.583513
0.583516
0.583519
0.583523
0.583523
0.583526
0.583529
0.583532
0.583535
0.583535
0.583538
0.583541
0.583544
0.583547
0.583547
0.58355
0.583553
0.583556
0.583559
0.583559
0.583562
0.583565
0.583568
0.583571
0.583571
0.583574
0.583577
0.58358
0.583583
0.583583
0.583586
0.583589
0.583592
0.583594
0.583594
0.583597
0.5836
0.583603
0.583606
0.583606
0.583609
0.583612
0.583614
0.583617
0.583617
0.58362
0.583623
0.583626
0.583629
0.583629
0.583631
0.583634
0.583637
0.58364
0.58364
0.583643
0.583646
0.583649
0.583651
0.583651
0.583654
0.583657
0.58366
0.583663
0.583663
0.583666
0.583668
0.583671
0.583674
0.583674
0.583677
0.58368
0.583683
0.583686
0.583686
0.583688
0.583691
0.583694
0.583697
0.583697
0.5837
0.583702
0.583705
0.583708
0.583708
0.583711
0.583714
0.583716
0.583719
0.583719
0.583722
0.583725
0.583727
0.58373
0.58373
0.583733
0.583736
0.583738
0.583741
0.583741
0.583744
0.583747
0.583749
0.583752
0.583752
0.583755
0.583757
0.58376
0.583763
0.583763
0.583765
0.583768
0.583771
0.583773
0.583773
0.583776
0.583778
0.583781
0.583784
0.583784
0.583786
0.583789
0.583791
0.583794
0.583794
0.583797
0.583799
0.583802
0.583804
0.583804
0.583807
0.583809
0.583812
0.583815
0.583815
0.583817
0.58382
0.583822
0.583825
0.583825
0.583827
0.58383
0.583833
0.583835
0.583835
0.583838
0.58384
0.583843
0.583845
0.583845
0.583848
0.583851
0.583853
0.583856
0.583856
0.583858
0.583861
0.583863
0.583866
0.583866
0.583869
0.583871
0.583874
0.583876
0.583876
0.583879
0.583881
0.583884
0.583886
0.583886
0.583889
0.583892
0.583894
0.583897
0.583897
0.583899
0.583902
0.583904
0.583907
0.583907
0.583909
0.583912
0.583914
0.583916
0.583916
0.583919
0.583921
0.583924
0.583926
0.583926
0.583929
0.583931
0.583934
0.583936
0.583936
0.583939
0.583941
0.583944
0.583946
0.583946
0.583948
0.583951
0.583953
0.583956
0.583956
0.583958
0.58396
0.583963
0.583965
0.583965
0.583968
0.58397
0.583972
0.583975
0.583975
0.583977
0.58398
0.583982
0.583984
0.583984
0.583987
0.583989
0.583992
0.583994
0.583994
0.583996
0.583999
0.584001
0.584004
0.584004
0.584006
0.584008
0.584011
0.584013
0.584013
0.584016
0.584018
0.58402
0.584023
0.584023
0.584025
0.584028
0.58403
0.584032
0.584032
0.584035
0.584037
0.58404
0.584042
0.584042
0.584044
0.584047
0.584049
0.584051
0.584051
0.584054
0.584056
0.584058
0.584061
0.584061
0.584063
0.584065
0.584068
0.58407
0.58407
0.584072
0.584075
0.584077
0.58408
0.58408
0.584082
0.584084
0.584087
0.584089
0.584089
0.584091
0.584094
0.584096
0.584098
0.584098
0.5841
0.584103
0.584105
0.584107
0.584107
0.58411
0.584112
0.584114
0.584117
0.584117
0.584119
0.584121
0.584123
0.584126
0.584126
0.584128
0.58413
0.584133
0.584135
0.584135
0.584137
0.584139
0.584142
0.584144
0.584144
0.584146
0.584149
0.584151
0.584153
0.584153
0.584155
0.584158
0.58416
0.584162
0.584162
0.584165
0.584167
0.584169
0.584171
0.584171
0.584174
0.584176
0.584178
0.584181
0.584181
0.584183
0.584185
0.584187
0.58419
0.58419
0.584192
0.584194
0.584197
0.584199
0.584199
0.584201
0.584203
0.584206
0.584208
0.584208
0.58421
0.584212
0.584215
0.584217
0.584217
0.584219
0.584221
0.584224
0.584226
0.584226
0.584228
0.584231
0.584233
0.584235
0.584235
0.584237
0.58424
0.584242
0.584244
0.584244
0.584246
0.584249
0.584251
0.584253
0.584253
0.584255
0.584257
0.58426
0.584262
0.584262
0.584264
0.584266
0.584269
0.584271
0.584271
0.584273
0.584275
0.584278
0.58428
0.58428
0.584282
0.584284
0.584286
0.584289
0.584289
0.584291
0.584293
0.584295
0.584298
0.584298
0.5843
0.584302
0.584304
0.584307
0.584307
0.584309
0.584311
0.584313
0.584316
0.584316
0.584318
0.58432
0.584322
0.584325
0.584325
0.584327
0.584329
0.584331
0.584333
0.584333
0.584336
0.584338
0.58434
0.584342
0.584342
0.584345
0.584347
0.584349
0.584351
0.584351
0.584353
0.584356
0.584358
0.58436
0.58436
0.584362
0.584365
0.584367
0.584369
0.584369
0.584371
0.584374
0.584376
0.584378
0.584378
0.58438
0.584382
0.584385
0.584387
0.584387
0.584389
0.584391
0.584394
0.584396
0.584396
0.584398
0.5844
0.584402
0.584405
0.584405
0.584407
0.584409
0.584411
0.584413
0.584413
0.584416
0.584418
0.58442
0.584422
0.584422
0.584425
0.584427
0.584429
0.584431
0.584431
0.584433
0.584436
0.584438
0.58444
0.58444
0.584442
0.584445
0.584447
0.584449
0.584449
0.584451
0.584453
0.584456
0.584458
0.584458
0.58446
0.584462
0.584465
0.584467
0.584467
0.584469
0.584471
0.584473
0.584476
0.584476
0.584478
0.58448
0.584482
0.584484
0.584484
0.584487
0.584489
0.584491
0.584493
0.584493
0.584496
0.584498
0.5845
0.584502
0.584502
0.584505
0.584507
0.584509
0.584511
0.584511
0.584514
0.584516
0.584518
0.58452
0.58452
0.584522
0.584525
0.584527
0.584529
0.584529
0.584531
0.584534
0.584536
0.584538
0.584538
0.58454
0.584543
0.584545
0.584547
0.584547
0.584549
0.584551
0.584554
0.584556
0.584556
0.584558
0.58456
0.584563
0.584565
0.584565
0.584567
0.584569
0.584572
0.584574
0.584574
0.584576
0.584578
0.584581
0.584583
0.584583
0.584585
0.584587
0.58459
0.584592
0.584592
0.584594
0.584596
0.584598
0.584601
0.584601
0.584603
0.584605
0.584607
0.58461
0.58461
0.584612