<?xml version="1.0"?>
<VTKFile type="UnstructuredGrid" version="0.1" byte_order="LittleEndian">
<UnstructuredGrid>
<Piece NumberOfPoints="5000" NumberOfCells="4000">
<PointData Scalars="Reaction 0">
<DataArray type="Float32" Name="Reaction 0" format="ascii">
0.620323
0.620323
0.620323
0.620323
0.620323
0.620323
0.620323
0.620323
0.620323
0.620323
0.620323
0.620323
0.620323
0.620323
0.620323
0.620323
0.620323
0.620323
0.620323
0.620323
0.620323
0.620323
0.620323
0.620323
0.620323
0.620323
0.620323
0.620323
0.620324
0.620324
0.620324
0.620324
0.620324
0.620324
0.620324
0.620324
0.620324
0.620324
0.620324
0.620324
0.620324
0.620324
0.620324
0.620324
0.620325
0.620325
0.620325
0.620325
0.620325
0.620325
0.620325
0.620325
0.620325
0.620325
0.620325
0.620325
0.620326
0.620326
0.620326
0.620326
0.620326
0.620326
0.620326
0.620326
0.620327
0.620327
0.620327
0.620327
0.620327
0.620327
0.620327
0.620327
0.620328
0.620328
0.620328
0.620328
0.620328
0.620328
0.620328
0.620329
0.620329
0.620329
0.620329
0.620329
0.620329
0.620329
0.620329
0.62033
0.62033
0.62033
0.62033
0.62033
0.62033
0.620331
0.620331
0.620331
0.620331
0.620331
0.620332
0.620332
0.620332
0.620332
0.620332
0.620332
0.620333
0.620333
0.620333
0.620333
0.620333
0.620334
0.620334
0.620334
0.620334
0.620334
0.620335
0.620335
0.620335
0.620335
0.620335
0.620336
0.620336
0.620336
0.620336
0.620337
0.620337
0.620337
0.620337
0.620337
0.620338
0.620338
0.620338
0.620338
0.620339
0.620339
0.620339
0.620339
0.620339
0.62034
0.62034
0.62034
0.62034
0.620341
0.620341
0.620341
0.620342
0.620342
0.620342
0.620342
0.620343
0.620343
0.620343
0.620343
0.620344
0.620344
0.620344
0.620344
0.620345
0.620345
0.620345
0.620346
0.620346
0.620346
0.620347
0.620347
0.620347
0.620347
0.620348
0.620348
0.620348
0.620349
0.620349
0.620349
0.62035
0.62035
0.62035
0.62035
0.620351
0.620351
0.620352
0.620352
0.620352
0.620352
0.620353
0.620353
0.620354
0.620354
0.620354
0.620354
0.620355
0.620355
0.620355
0.620356
0.620356
0.620357
0.620357
0.620357
0.620357
0.620358
0.620358
0.620359
0.620359
0.620359
0.62036
0.62036
0.620361
0.620361
0.620361
0.620361
0.620362
0.620362
0.620362
0.620363
0.620363
0.620364
0.620364
0.620364
0.620365
0.620365
0.620366
0.620366
0.620366
0.620367
0.620367
0.620368
0.620368
0.620368
0.620369
0.620369
0.62037
0.62037
0.62037
0.620371
0.620371
0.620372
0.620372
0.620372
0.620373
0.620374
0.620374
0.620375
0.620375
0.620375
0.620376
0.620376
0.620377
0.620377
0.620377
0.620378
0.620378
0.620379
0.620379
0.62038
0.62038
0.620381
0.620381
0.620381
0.620382
0.620382
0.620383
0.620384
0.620384
0.620384
0.620385
0.620385
0.620386
0.620386
0.620387
0.620387
0.620388
0.620388
0.620388
0.620389
0.62039
0.62039
0.620391
0.620391
0.620391
0.620392
0.620393
0.620393
0.620393
0.620394
0.620395
0.620395
0.620396
0.620396
0.620396
0.620397
0.620398
0.620398
0.620398
0.620399
0.6204
0.6204
0.620401
0.620401
0.620402
0.620402
0.620403
0.620404
0.620404
0.620404
0.620405
0.620406
0.620406
0.620406
0.620407
0.620408
0.620409
0.620409
0.620409
0.62041
0.620411
0.620411
0.620412
0.620412
0.620413
0.620413
0.620414
0.620415
0.620415
0.620416
0.620416
0.620417
0.620418
0.620418
0.620418
0.620419
0.62042
0.620421
0.620421
0.620421
0.620422
0.620423
0.620424
0.620424
0.620424
0.620425
0.620426
0.620427
0.620427
0.620427
0.620428
0.620429
0.62043
0.62043
0.620431
0.620431
0.620432
0.620433
0.620433
0.620434
0.620435
0.620435
0.620436
0.620436
0.620437
0.620438
0.620439
0.620439
0.620439
0.62044
0.620441
0.620442
0.620443
0.620443
0.620443
0.620444
0.620445
0.620446
0.620446
0.620447
0.620448
0.620448
0.620449
0.620449
0.62045
0.620451
0.620452
0.620453
0.620453
0.620453
0.620454
0.620455
0.620456
0.620456
0.620457
0.620458
0.620459
0.62046
0.62046
0.62046
0.620461
0.620462
0.620463
0.620463
0.620464
0.620465
0.620466
0.620467
0.620467
0.620468
0.620468
0.620469
0.62047
0.62047
0.620471
0.620472
0.620473
0.620474
0.620474
0.620475
0.620476
0.620477
0.620478
0.620478
0.620479
0.62048
0.62048
0.620481
0.620481
0.620482
0.620483
0.620484
0.620485
0.620485
0.620486
0.620487
0.620488
0.620489
0.620489
0.62049
0.620491
0.620492
0.620493
0.620493
0.620494
0.620495
0.620496
0.620497
0.620497
0.620498
0.620499
0.6205
0.620501
0.620501
0.620502
0.620503
0.620504
0.620505
0.620505
0.620506
0.620507
0.620508
0.620509
0.620509
0.62051
0.620511
0.620512
0.620513
0.620513
0.620514
0.620515
0.620516
0.620517
0.620517
0.620518
0.620519
0.62052
0.620521
0.620521
0.620522
0.620523
0.620525
0.620526
0.620526
0.620527
0.620528
0.620529
0.62053
0.62053
0.620531
0.620532
0.620533
0.620534
0.620534
0.620535
0.620536
0.620537
0.620539
0.620539
0.62054
0.620541
0.620542
0.620543
0.620543
0.620544
0.620545
0.620546
0.620547
0.620547
0.620549
0.62055
0.620551
0.620552
0.620552
0.620553
0.620554
0.620555
0.620557
0.620557
0.620558
0.620559
0.62056
0.620561
0.620561
0.620562
0.620564
0.620565
0.620566
0.620566
0.620567
0.620568
0.620569
0.620571
0.620571
0.620572
0.620573
0.620574
0.620575
0.620575
0.620576
0.620578
0.620579
0.62058
0.62058
0.620581
0.620582
0.620584
0.620585
0.620585
0.620586
0.620587
0.620589
0.62059
0.62059
0.620591
0.620592
0.620593
0.620595
0.620595
0.620596
0.620597
0.620598
0.6206
0.6206
0.620601
0.620602
0.620603
0.620605
0.620605
0.620606
0.620607
0.620608
0.62061
0.62061
0.620611
0.620612
0.620614
0.620615
0.620615
0.620616
0.620617
0.620619
0.62062
0.62062
0.620621
0.620623
0.620624
0.620625
0.620625
0.620626
0.620628
0.620629
0.62063
0.62063
0.620632
0.620633
0.620634
0.620636
0.620636
0.620637
0.620638
0.62064
0.620641
0.620641
0.620642
0.620644
0.620645
0.620646
0.620646
0.620648
0.620649
0.62065
0.620652
0.620652
0.620653
0.620654
0.620656
0.620657
0.620657
0.620659
0.62066
0.620661
0.620663
0.620663
0.620664
0.620665
0.620667
0.620668
0.620668
0.62067
0.620671
0.620672
0.620674
0.620674
0.620675
0.620677
0.620678
0.620679
0.620679
0.620681
0.620682
0.620684
0.620685
0.620685
0.620687
0.620688
0.620689
0.620691
0.620691
0.620692
0.620694
0.620695
0.620697
0.620697
0.620698
0.6207
0.620701
0.620702
0.620702
0.620704
0.620705
0.620707
0.620708
0.620708
0.62071
0.620711
0.620713
0.620714
0.620714
0.620716
0.620717
0.620719
0.62072
0.62072
0.620722
0.620723
0.620725
0.620726
0.620726
0.620728
0.620729
0.620731
0.620732
0.620732
0.620734
0.620735
0.620737
0.620738
0.620738
0.62074
0.620741
0.620743
0.620744
0.620744
0.620746
0.620747
0.620749
0.620751
0.620751
0.620752
0.620754
0.620755
0.620757
0.620757
0.620758
0.62076
0.620761
0.620763
0.620763
0.620765
0.620766
0.620768
0.620769
0.620769
0.620771
0.620772
0.620774
0.620776
0.620776
0.620777
0.620779
0.62078
0.620782
0.620782
0.620784
0.620785
0.620787
0.620788
0.620788
0.62079
0.620792
0.620793
0.620795
0.620795
0.620797
0.620798
0.6208
0.620802
0.620802
0.620803
0.620805
0.620806
0.620808
0.620808
0.62081
0.620811
0.620813
0.620815
0.620815
0.620816
0.620818
0.62082
0.620821
0.620821
0.620823
0.620825
0.620826
0.620828
0.620828
0.62083
0.620831
0.620833
0.620835
0.620835
0.620837
0.620838
0.62084
0.620842
0.620842
0.620843
0.620845
0.620847
0.620848
0.620848
0.62085
0.620852
0.620854
0.620855
0.620855
0.620857
0.620859
0.620861
0.620862
0.620862
0.620864
0.620866
0.620867
0.620869
0.620869
0.620871
0.620873
0.620875
0.620876
0.620876
0.620878
0.62088
0.620882
0.620883
0.620883
0.620885
0.620887
0.620889
0.62089
0.62089
0.620892
0.620894
0.620896
0.620898
0.620898
0.620899
0.620901
0.620903
0.620905
0.620905
0.620907
0.620908
0.62091
0.620912
0.620912
0.620914
0.620916
0.620917
0.620919
0.620919
0.620921
0.620923
0.620925
0.620926
0.620926
0.620928
0.62093
0.620932
0.620934
0.620934
0.620936
0.620938
0.620939
0.620941
0.620941
0.620943
0.620945
0.620947
0.620949
0.620949
0.620951
0.620953
0.620954
0.620956
0.620956
0.620958
0.62096
0.620962
0.620964
0.620964
0.620966
0.620968
0.62097
0.620972
0.620972
0.620973
0.620975
0.620977
0.620979
0.620979
0.620981
0.620983
0.620985
0.620987
0.620987
0.620989
0.620991
0.620993
0.620995
0.620995
0.620997
0.620999
0.621
0.621002
0.621002
0.621004
0.621006
0.621008
0.62101
0.62101
0.621012
0.621014
0.621016
0.621018
0.621018
0.62102
0.621022
0.621024
0.621026
0.621026
0.621028
0.62103
0.621032
0.621034
0.621034
0.621036
0.621038
0.62104
0.621042
0.621042
0.621044
0.621046
0.621048
0.62105
0.62105
0.621052
0.621054
0.621056
0.621058
0.621058
0.62106
0.621062
0.621064
0.621066
0.621066
0.621068
0.62107
0.621072
0.621074
0.621074
0.621076
0.621078
0.621081
0.621083
0.621083
0.621085
0.621087
0.621089
0.621091
0.621091
0.621093
0.621095
0.621097
0.621099
0.621099
0.621101
0.621103
0.621105
0.621108
0.621108
0.62111
0.621112
0.621114
0.621116
0.621116
0.621118
0.62112
0.621122
0.621124
0.621124
0.621126
0.621129
0.621131
0.621133
0.621133
0.621135
0.621137
0.621139
0.621141
0.621141
0.621144
0.621146
0.621148
0.62115
0.62115
0.621152
0.621154
0.621156
0.621159
0.621159
0.621161
0.621163
0.621165
0.621167
0.621167
0.621169
0.621172
0.621174
0.621176
0.621176
0.621178
0.62118
0.621183
0.621185
0.621185
0.621187
0.621189
0.621191
0.621194
0.621194
0.621196
0.621198
0.6212
0.621202
0.621202
0.621205
0.621207
0.621209
0.621211
0.621211
0.621213
0.621216
0.621218
0.62122
0.62122
0.621222
0.621225
0.621227
0.621229
0.621229
0.621231
0.621234
0.621236
0.621238
0.621238
0.62124
0.621243
0.621245
0.621247
0.621247
0.62125
0.621252
0.621254
0.621256
0.621256
0.621259
0.621261
0.621263
0.621266
0.621266
0.621268
0.62127
0.621272
0.621275
0.621275
0.621277
0.621279
0.621282
0.621284
0.621284
0.621286
0.621289
0.621291
0.621293
0.621293
0.621296
0.621298
0.6213
0.621302
0.621302
0.621305
0.621307
0.621309
0.621312
0.621312
0.621314
0.621316
0.621319
0.621321
0.621321
0.621323
0.621326
0.621328
0.621331
0.621331
0.621333
0.621335
0.621338
0.62134
0.62134
0.621343
0.621345
0.621347
0.62135
0.62135
0.621352
0.621355
0.621357
0.621359
0.621359
0.621362
0.621364
0.621367
0.621369
0.621369
0.621372
0.621374
0.621376
0.621379
0.621379
0.621381
0.621384
0.621386
0.621389
0.621389
0.621391
0.621393
0.621396
0.621398
0.621398
0.621401
0.621403
0.621406
0.621408
0.621408
0.621411
0.621413
0.621416
0.621418
0.621418
0.62142
0.621423
0.621425
0.621428
0.621428
0.62143
0.621433
0.621435
0.621438
0.621438
0.62144
0.621443
0.621445
0.621448
0.621448
0.62145
0.621453
0.621455
0.621458
0.621458
0.62146
0.621463
0.621465
0.621468
0.621468
0.621471
0.621473
0.621476
0.621478
0.621478
0.621481
0.621483
0.621486
0.621488
0.621488
0.621491
0.621493
0.621496
0.621499
0.621499
0.621501
0.621504
0.621506
0.621509
0.621509
0.621511
0.621514
0.621517
0.621519
0.621519
0.621522
0.621524
0.621527
0.621529
0.621529
0.621532
0.621535
0.621537
0.62154
0.62154
0.621542
0.621545
0.621548
0.62155
0.62155
0.621553
0.621556
0.621558
0.621561
0.621561
0.621563
0.621566
0.621569
0.621571
0.621571
0.621574
0.621577
0.621579
0.621582
0.621582
0.621585
0.621587
0.62159
0.621592
0.621592
0.621595
0.621598
0.6216
0.621603
0.621603
0.621606
0.621608
0.621611
0.621614
0.621614
0.621617
0.621619
0.621622
0.621625
0.621625
0.621627
0.62163
0.621633
0.621635
0.621635
0.621638
0.621641
0.621643
0.621646
0.621646
0.621649
0.621652
0.621654
0.621657
0.621657
0.62166
0.621663
0.621665
0.621668
0.621668
0.621671
0.621673
0.621676
0.621679
0.621679
0.621682
0.621684
0.621687
0.62169
0.62169
0.621693
0.621695
0.621698
0.621701
0.621701
0.621704
0.621706
0.621709
0.621712
0.621712
0.621715
0.621717
0.62172
0.621723
0.621723
0.621726
0.621729
0.621731
0.621734
0.621734
0.621737
0.62174
0.621743
0.621745
0.621745
0.621748
0.621751
0.621754
0.621757
0.621757
0.62176
0.621763
0.621765
0.621768
0.621768
0.621771
0.621774
0.621777
0.62178
0.62178
0.621782
0.621785
0.621788
0.621791
0.621791
0.621794
0.621797
0.6218
0.621803
0.621803
0.621805
0.621808
0.621811
0.621814
0.621814
0.621817
0.62182
0.621823
0.621826
0.621826
0.621828
0.621831
0.621834
0.621837
0.621837
0.62184
0.621843
0.621846
0.621849
0.621849
0.621852
0.621855
0.621858
0.62186
0.62186
0.621863
0.621866
0.621869
0.621872
0.621872
0.621875
0.621878
0.621881
0.621884
0.621884
0.621887
0.62189
0.621893
0.621896
0.621896
0.621899
0.621902
0.621905
0.621908
0.621908
0.621911
0.621914
0.621917
0.62192
0.62192
0.621923
0.621925
0.621928
0.621931
0.621931
0.621934
0.621937
0.62194
0.621943
0.621943
0.621946
0.621949
0.621952
0.621955
0.621955
0.621958
0.621962
0.621965
0.621968
0.621968
0.621971
0.621974
0.621977
0.62198
0.62198
0.621983
0.621986
0.621989
0.621992
0.621992
0.621995
0.621998
0.622001
0.622004
0.622004
0.622007
0.62201
0.622013
0.622016
0.622016
0.622019
0.622022
0.622025
0.622029
0.622029
0.622032
0.622035
0.622038
0.622041
0.622041
0.622044
0.622047
0.62205
0.622053
0.622053
0.622056
0.622059
0.622063
0.622066
0.622066
0.622069
0.622072
0.622075
0.622078
0.622078
0.622081
0.622084
0.622087
0.622091
0.622091
0.622094
0.622097
0.6221
0.622103
0.622103
0.622106
0.622109
0.622112
0.622116
0.622116
0.622119
0.622122
0.622125
0.622128
0.622128
0.622131
0.622134
0.622138
0.622141
0.622141
0.622144
0.622147
0.62215
0.622154
0.622154
0.622157
0.62216
0.622163
0.622166
0.622166
0.62217
0.622173
0.622176
0.622179
0.622179
0.622183
0.622186
0.622189
0.622192
0.622192
0.622195
0.622199
0.622202
0.622205
0.622205
0.622208
0.622212
0.622215
0.622218
0.622218
0.622221
0.622225
0.622228
0.622231
0.622231
0.622234
0.622238
0.622241
0.622244
0.622244
0.622247
0.622251
0.622254
0.622257
0.622257
0.622261
0.622264
0.622267
0.62227
0.62227
0.622274
0.622277
0.62228
0.622284
0.622284
0.622287
0.62229
0.622294
0.622297
0.622297
0.6223
0.622303
0.622307
0.62231
0.62231
0.622313
0.622317
0.62232
0.622323
0.622323
0.622327
0.62233
0.622333
0.622337
0.622337
0.62234
0.622343
0.622347
0.62235
0.62235
0.622353
0.622357
0.62236
0.622364
0.622364
0.622367
0.62237
0.622374
0.622377
0.622377
0.62238
0.622384
0.622387
0.622391
0.622391
0.622394
0.622397
0.622401
0.622404
0.622404
0.622408
0.622411
0.622414
0.622418
0.622418
0.622421
0.622425
0.622428
0.622431
0.622431
0.622435
0.622438
0.622442
0.622445
0.622445
0.622448
0.622452
0.622455
0.622459
0.622459
0.622462
0.622466
0.622469
0.622473
0.622473
0.622476
0.622479
0.622483
0.622486
0.622486
0.62249
0.622493
0.622497
0.6225
0.6225
0.622504
0.622507
0.622511
0.622514
0.622514
0.622518
0.622521
0.622524
0.622528
0.622528
0.622531
0.622535
0.622538
0.622542
0.622542
0.622545
0.622549
0.622552
0.622556
0.622556
0.622559
0.622563
0.622566
0.62257
0.62257
0.622574
0.622577
0.622581
0.622584
0.622584
0.622588
0.622591
0.622595
0.622598
0.622598
0.622602
0.622606
0.622609
0.622613
0.622613
0.622616
0.62262
0.622623
0.622627
0.622627
0.622631
0.622634
0.622638
0.622641
0.622641
0.622645
0.622649
0.622652
0.622656
0.622656
0.622659
0.622663
0.622667
0.62267
0.62267
0.622674
0.622677
0.622681
0.622685
0.622685
0.622688
0.622692
0.622695
0.622699
0.622699
0.622703
0.622706
0.62271
0.622714
0.622714
0.622717
0.622721
0.622725
0.622728
0.622728
0.622732
0.622735
0.622739
0.622743
0.622743
0.622746
0.62275
0.622754
0.622757
0.622757
0.622761
0.622765
0.622768
0.622772
0.622772
0.622776
0.622779
0.622783
0.622787
0.622787
0.622791
0.622794
0.622798
0.622802
0.622802
0.622805
0.622809
0.622813
0.622816
0.622816
0.62282
0.622824
0.622828
0.622831
0.622831
0.622835
0.622839
0.622843
0.622846
0.622846
0.62285
0.622854
0.622858
0.622861
0.622861
0.622865
0.622869
0.622872
0.622876
0.622876
0.62288
0.622884
0.622888
0.622891
0.622891
0.622895
0.622899
0.622903
0.622906
0.622906
0.62291
0.622914
0.622918
0.622921
0.622921
0.622925
0.622929
0.622933
0.622937
0.622937
0.62294
0.622944
0.622948
0.622952
0.622952
0.622955
0.622959
0.622963
0.622967
0.622967
0.622971
0.622974
0.622978
0.622982
0.622982
0.622986
0.62299
0.622994
0.622998
0.622998
0.623002
0.623005
0.623009
0.623013
0.623013
0.623017
0.623021
0.623025
0.623029
0.623029
0.623033
0.623036
0.62304
0.623044
0.623044
0.623048
0.623052
0.623056
0.62306
0.62306
0.623064
0.623068
0.623071
0.623075
0.623075
0.623079
0.623083
0.623087
0.623091
0.623091
0.623095
0.623099
0.623103
0.623107
0.623107
0.623111
0.623114
0.623118
0.623122
0.623122
0.623126
0.62313
0.623134
0.623138
0.623138
0.623142
0.623146
0.62315
0.623154
0.623154
0.623158
0.623162
0.623166
0.62317
0.62317
0.623174
0.623178
0.623182
0.623186
0.623186
0.62319
0.623194
0.623197
0.623201
0.623201
0.623205
0.623209
0.623213
0.623217
0.623217
0.623221
0.623225
0.623229
0.623233
0.623233
0.623237
0.623241
0.623245
0.62325
0.62325
0.623254
0.623258
0.623262
0.623266
0.623266
0.62327
0.623274
0.623278
0.623282
0.623282
0.623286
0.62329
0.623294
0.623298
0.623298
0.623302
0.623306
0.62331
0.623314
0.623314
0.623318
0.623322
0.623326
0.62333
0.62333
0.623334
0.623338
0.623342
0.623347
0.623347
0.623351
0.623355
0.623359
0.623363
0.623363
0.623367
0.623371
0.623375
0.623379
0.623379
0.623383
0.623387
0.623391
0.623396
0.623396
0.6234
0.623404
0.623408
0.623412
0.623412
0.623416
0.62342
0.623425
0.623429
0.623429
0.623433
0.623437
0.623441
0.623445
0.623445
0.62345
0.623454
0.623458
0.623462
0.623462
0.623466
0.62347
0.623475
0.623479
0.623479
0.623483
0.623487
0.623491
0.623495
0.623495
0.6235
0.623504
0.623508
0.623512
0.623512
0.623516
0.623521
0.623525
0.623529
0.623529
0.623533
0.623537
0.623542
0.623546
0.623546
0.62355
0.623554
0.623559
0.623563
0.623563
0.623567
0.623571
0.623575
0.62358
0.62358
0.623584
0.623588
0.623592
0.623597
0.623597
0.623601
0.623605
0.623609
0.623614
0.623614
0.623618
0.623622
0.623626
0.623631
0.623631
0.623635
0.623639
0.623644
0.623648
0.623648
0.623652
0.623656
0.623661
0.623665
0.623665
0.623669
0.623674
0.623678
0.623682
0.623682
0.623686
0.623691
0.623695
0.623699
0.623699
0.623704
0.623708
0.623712
0.623717
0.623717
0.623721
0.623725
0.62373
0.623734
0.623734
0.623738
0.623743
0.623747
0.623751
0.623751
0.623756
0.62376
0.623764
0.623768
0.623768
0.623773
0.623777
0.623781
0.623786
0.623786
0.62379
0.623795
0.623799
0.623803
0.623803
0.623808
0.623812
0.623816
0.623821
0.623821
0.623825
0.62383
0.623834
0.623838
0.623838
0.623843
0.623847
0.623852
0.623856
0.623856
0.623861
0.623865
0.623869
0.623874
0.623874
0.623878
0.623883
0.623887
0.623892
0.623892
0.623896
0.623901
0.623905
0.623909
0.623909
0.623914
0.623918
0.623923
0.623927
0.623927
0.623932
0.623936
0.623941
0.623945
0.623945
0.62395
0.623954
0.623958
0.623963
0.623963
0.623967
0.623972
0.623976
0.623981
0.623981
0.623985
0.62399
0.623994
0.623999
0.623999
0.624003
0.624008
0.624012
0.624017
0.624017
0.624021
0.624026
0.62403
0.624035
0.624035
0.624039
0.624044
0.624048
0.624053
0.624053
0.624058
0.624062
0.624067
0.624071
0.624071
0.624076
0.62408
0.624085
0.624089
0.624089
0.624094
0.624098
0.624103
0.624108
0.624108
0.624112
0.624117
0.624121
0.624126
0.624126
0.62413
0.624135
0.62414
0.624144
0.624144
0.624149
0.624153
0.624158
0.624162
0.624162
0.624167
0.624172
0.624176
0.624181
0.624181
0.624185
0.62419
0.624194
0.624199
0.624199
0.624204
0.624208
0.624213
0.624217
0.624217
0.624222
0.624227
0.624231
0.624236
0.624236
0.624241
0.624245
0.62425
0.624255
0.624255
0.624259
0.624264
0.624269
0.624273
0.624273
0.624278
0.624283
0.624287
0.624292
0.624292
0.624297
0.624301
0.624306
0.624311
0.624311
0.624315
0.62432
0.624325
0.62433
0.62433
0.624334
0.624339
0.624344
0.624348
0.624348
0.624353
0.624358
0.624363
0.624367
0.624367
0.624372
0.624377
0.624381
0.624386
0.624386
0.624391
0.624396
0.6244
0.624405
0.624405
0.62441
0.624415
0.624419
0.624424
0.624424
0.624429
0.624433
0.624438
0.624443
0.624443
0.624448
0.624453
0.624457
0.624462
0.624462
0.624467
0.624472
0.624476
0.624481
0.624481
0.624486
0.624491
0.624495
0.6245
0.6245
0.624505
0.62451
0.624515
0.624519
0.624519
0.624524
0.624529
0.624534
0.624539
0.624539
0.624543
0.624548
0.624553
0.624558
0.624558
0.624563
0.624568
0.624572
0.624577
0.624577
0.624582
0.624587
0.624592
0.624596
0.624596
0.624601
0.624606
0.624611
0.624616
0.624616
0.624621
0.624625
0.62463
0.624635
0.624635
0.62464
0.624645
0.62465
0.624654
0.624654
0.624659
0.624664
0.624669
0.624674
0.624674
0.624679
0.624684
0.624689
0.624694
0.624694
0.624699
0.624704
0.624708
0.624713
0.624713
0.624718
0.624723
0.624728
0.624733
0.624733
0.624738
0.624743
0.624748
0.624753
0.624753
0.624758
0.624763
0.624768
0.624773
0.624773
0.624778
0.624783
0.624788
0.624792
0.624792
0.624797
0.624802
0.624807
0.624812
0.624812
0.624817
0.624822
0.624827
0.624832
0.624832
0.624837
0.624842
0.624847
0.624852
0.624852
0.624857
0.624862
0.624867
0.624872
0.624872
0.624877
0.624882
0.624887
0.624892
0.624892
0.624897
0.624902
0.624907
0.624912
0.624912
0.624917
0.624922
0.624927
0.624932
0.624932
0.624937
0.624942
0.624947
0.624952
0.624952
0.624957
0.624962
0.624967
0.624972
0.624972
0.624978
0.624983
0.624988
0.624993
0.624993
0.624998
0.625003
0.625008
0.625013
0.625013
0.625018
0.625023
0.625028
0.625033
0.625033
0.625038
0.625043
0.625048
0.625053
0.625053
0.625058
0.625063
0.625068
0.625074
0.625074
0.625079
0.625084
0.625089
0.625094
0.625094
0.625099
0.625104
0.625109
0.625115
0.625115
0.62512
0.625125
0.62513
0.625135
0.625135
0.62514
0.625146
0.625151
0.625156
0.625156
0.625161
0.625166
0.625171
0.625177
0.625177
0.625182
0.625187
0.625192
0.625197
0.625197
0.625202
0.625208
0.625213
0.625218
0.625218
0.625223
0.625228
0.625234
0.625239
0.625239
0.625244
0.625249
0.625254
0.625259
0.625259
0.625265
0.62527
0.625275
0.62528
0.62528
0.625286
0.625291
0.625296
0.625301
0.625301
0.625306
0.625312
0.625317
0.625322
0.625322
0.625327
0.625333
0.625338
0.625343
0.625343
0.625348
0.625354
0.625359
0.625364
0.625364
0.625369
0.625375
0.62538
0.625385
0.625385
0.62539
0.625396
0.625401
0.625406
0.625406
0.625411
0.625417
0.625422
0.625427
0.625427
0.625432
0.625438
0.625443
0.625448
0.625448
0.625454
0.625459
0.625464
0.625469
0.625469
0.625475
0.62548
0.625485
0.625491
0.625491
0.625496
0.625501
0.625506
0.625512
0.625512
0.625517
0.625522
0.625528
0.625533
0.625533
0.625539
0.625544
0.625549
0.625555
0.625555
0.62556
0.625565
0.625571
0.625576
0.625576
0.625582
0.625587
0.625592
0.625598
0.625598
0.625603
0.625609
0.625614
0.625619
0.625619
0.625625
0.62563
0.625636
0.625641
0.625641
0.625646
0.625652
0.625657
0.625663
0.625663
0.625668
0.625673
0.625679
0.625684
0.625684
0.62569
0.625695
0.625701
0.625706
0.625706
0.625711
0.625717
0.625722
0.625728
0.625728
0.625733
0.625739
0.625744
0.625749
0.625749
0.625755
0.62576
0.625766
0.625771
0.625771
0.625777
0.625782
0.625788
0.625793
0.625793
0.625799
0.625804
0.62581
0.625815
0.625815
0.62582
0.625826
0.625831
0.625837
0.625837
0.625842
0.625848
0.625853
0.625859
0.625859
0.625864
0.62587
0.625875
0.625881
0.625881
0.625886
0.625892
0.625897
0.625903
0.625903
0.625908
0.625914
0.625919
0.625925
0.625925
0.62593
0.625936
0.625941
0.625947
0.625947
0.625952
0.625958
0.625964
0.625969
0.625969
0.625975
0.62598
0.625986
0.625992
0.625992
0.625997
0.626003
0.626008
0.626014
0.626014
0.62602
0.626025
0.626031
0.626036
0.626036
0.626042
0.626048
0.626053
0.626059
0.626059
0.626065
0.62607
0.626076
0.626081
0.626081
0.626087
0.626093
0.626098
0.626104
0.626104
0.626109
0.626115
0.626121
0.626126
0.626126
0.626132
0.626138
0.626143
0.626149
0.626149
0.626155
0.62616
0.626166
0.626172
0.626172
0.626177
0.626183
0.626189
0.626194
0.626194
0.6262
0.626206
0.626211
0.626217
0.626217
0.626223
0.626228
0.626234
0.62624
0.62624
0.626245
0.626251
0.626257
0.626262
0.626262
0.626268
0.626274
0.626279
0.626285
0.626285
0.626291
0.626296
0.626302
0.626308
0.626308
0.626314
0.626319
0.626325
0.626331
0.626331
0.626336
0.626342
0.626348
0.626353
0.626353
0.626359
0.626365
0.626371
0.626376
0.626376
0.626382
0.626388
0.626394
0.6264
0.6264
0.626405
0.626411
0.626417
0.626423
0.626423
0.626429
0.626434
0.62644
0.626446
0.626446
0.626452
0.626458
0.626464
0.626469
0.626469
0.626475
0.626481
0.626487
0.626493
0.626493
0.626498
0.626504
0.62651
0.626516
0.626516
0.626522
0.626528
0.626533
0.626539
0.626539
0.626545
0.626551
0.626557
0.626563
0.626563
0.626568
0.626574
0.62658
0.626586
0.626586
0.626592
0.626598
0.626604
0.626609
0.626609
0.626615
0.626621
0.626627
0.626633
0.626633
0.626639
0.626645
0.62665
0.626656
0.626656
0.626662
0.626668
0.626674
0.62668
0.62668
0.626686
0.626692
0.626698
0.626703
0.626703
0.626709
0.626715
0.626721
0.626727
0.626727
0.626733
0.626739
0.626745
0.626751
0.626751
0.626757
0.626762
0.626768
0.626774
0.626774
0.62678
0.626786
0.626792
0.626798
0.626798
0.626804
0.62681
0.626816
0.626822
0.626822
0.626828
0.626834
0.62684
0.626846
0.626846
0.626852
0.626858
0.626864
0.62687
0.62687
0.626876
0.626882
0.626888
0.626894
0.626894
0.6269
0.626906
0.626912
0.626918
0.626918
0.626924
0.62693
0.626936
0.626942
0.626942
0.626948
0.626954
0.62696
0.626966
0.626966
0.626972
0.626978
0.626984
0.62699
0.62699
0.626996
0.627002
0.627009
0.627015
0.627015
0.627021
0.627027
0.627033
0.627039
0.627039
0.627045
0.627051
0.627057
0.627063
0.627063
0.627069
0.627075
0.627081
0.627087
0.627087
0.627093
0.6271
0.627106
0.627112
0.627112
0.627118
0.627124
0.62713
0.627136
0.627136
0.627142
0.627148
0.627154
0.62716
0.62716
0.627166
0.627173
0.627179
0.627185
0.627185
0.627191
0.627197
0.627203
0.627209
0.627209
0.627215
0.627221
0.627228
0.627234
0.627234
0.62724
0.627246
0.627252
0.627258
0.627258
0.627265
0.627271
0.627277
0.627283
0.627283
0.627289
0.627296
0.627302
0.627308
0.627308
0.627314
0.62732
0.627327
0.627333
0.627333
0.627339
0.627345
0.627352
0.627358
0.627358
0.627364
0.62737
0.627376
0.627383
0.627383
0.627389
0.627395
0.627401
0.627408
0.627408
0.627414
0.62742
0.627426
0.627432
0.627432
0.627439
0.627445
0.627451
0.627457
0.627457
0.627464
0.62747
0.627476
0.627482
0.627482
0.627489
0.627495
0.627501
0.627508
0.627508
0.627514
0.62752
0.627526
0.627533
0.627533
0.627539
0.627545
0.627551
0.627558
0.627558
0.627564
0.62757
0.627577
0.627583
0.627583
0.627589
0.627595
0.627602
0.627608
0.627608
0.627614
0.62762
0.627627
0.627633
0.627633
0.627639
0.627646
0.627652
0.627658
0.627658
0.627665
0.627671
0.627677
0.627684
0.627684
0.62769
0.627697
0.627703
0.627709
0.627709
0.627716
0.627722
0.627729
0.627735
0.627735
0.627741
0.627748
0.627754
0.627761
0.627761
0.627767
0.627773
0.62778
0.627786
0.627786
0.627793
0.627799
0.627805
0.627812
0.627812
0.627818
0.627825
0.627831
0.627837
0.627837
0.627844
0.62785
0.627857
0.627863
0.627863
0.62787
0.627876
0.627882
0.627889
0.627889
0.627895
0.627902
0.627908
0.627915
0.627915
0.627921
0.627928
0.627934
0.62794
0.62794
0.627947
0.627953
0.62796
0.627966
0.627966
0.627973
0.627979
0.627986
0.627992
0.627992
0.627999
0.628005
0.628012
0.628018
0.628018
0.628024
0.628031
0.628037
0.628044
0.628044
0.62805
0.628057
0.628063
0.62807
0.62807
0.628076
0.628083
0.628089
0.628096
0.628096
0.628102
0.628109
0.628116
0.628122
0.628122
0.628129
0.628135
0.628142
0.628148
0.628148
0.628155
0.628162
0.628168
0.628175
0.628175
0.628181
0.628188
0.628195
0.628201
0.628201
0.628208
0.628214
0.628221
0.628228
0.628228
0.628234
0.628241
0.628247
0.628254
0.628254
0.628261
0.628267
0.628274
0.62828
0.62828
0.628287
0.628294
0.6283
0.628307
0.628307
0.628313
0.62832
0.628327
0.628333
0.628333
0.62834
0.628347
0.628353
0.62836
0.62836
0.628366
0.628373
0.62838
0.628386
0.628386
0.628393
0.6284
0.628406
0.628413
0.628413
0.62842
0.628426
0.628433
0.62844
0.62844
0.628446
0.628453
0.628459
0.628466
0.628466
0.628473
0.628479
0.628486
0.628493
0.628493
0.628499
0.628506
0.628513
0.628519
0.628519
0.628526
0.628533
0.62854
0.628546
0.628546
0.628553
0.62856
0.628567
0.628573
0.628573
0.62858
0.628587
0.628594
0.628601
0.628601
0.628607
0.628614
0.628621
0.628628
0.628628
0.628634
0.628641
0.628648
0.628655
0.628655
0.628662
0.628668
0.628675
0.628682
0.628682
0.628689
0.628695
0.628702
0.628709
0.628709
0.628716
0.628723
0.628729
0.628736
0.628736
0.628743
0.62875
0.628757
0.628763
0.628763
0.62877
0.628777
0.628784
0.628791
0.628791
0.628797
0.628804
0.628811
0.628818
0.628818
0.628825
0.628832
0.628838
0.628845
0.628845
0.628852
0.628859
0.628866
0.628873
0.628873
0.628879
0.628886
0.628893
0.6289
0.6289
0.628907
0.628914
0.62892
0.628927
0.628927
0.628934
0.628941
0.628948
0.628955
0.628955
0.628962
0.628969
0.628975
0.628982
0.628982
0.628989
0.628996
0.629003
0.62901
0.62901
0.629017
0.629024
0.629031
0.629038
0.629038
0.629045
0.629052
0.629059
0.629066
0.629066
0.629073
0.62908
0.629087
0.629094
0.629094
0.629101
0.629108
0.629115
0.629122
0.629122
0.629128
0.629135
0.629142
0.629149
0.629149
0.629156
0.629163
0.62917
0.629177
0.629177
0.629184
0.629191
0.629198
0.629205
0.629205
0.629212
0.629219
0.629226
0.629233
0.629233
0.62924
0.629247
0.629254
0.629261
0.629261
0.629268
0.629275
0.629282
0.629289
0.629289
0.629296
0.629303
0.62931
0.629317
0.629317
0.629324
0.629331
0.629338
0.629345
0.629345
0.629352
0.629359
0.629366
0.629373
0.629373
0.62938
0.629388
0.629395
0.629402
0.629402
0.629409
0.629416
0.629423
0.62943
0.62943
0.629437
0.629444
0.629452
0.629459
0.629459
0.629466
0.629473
0.62948
0.629487
0.629487
0.629494
0.629502
0.629509
0.629516
0.629516
0.629523
0.62953
0.629537
0.629544
0.629544
0.629551
0.629559
0.629566
0.629573
0.629573
0.62958
0.629587
0.629594
0.629602
0.629602
0.629609
0.629616
0.629623
0.62963
0.62963
0.629637
0.629645
0.629652
0.629659
0.629659
0.629666
0.629673
0.62968
0.629688
0.629688
0.629695
0.629702
0.629709
0.629716
0.629716
0.629723
0.629731
0.629738
0.629745
0.629745
0.629752
0.629759
0.629767
0.629774
0.629774
0.629781
0.629788
0.629795
0.629803
0.629803
0.62981
0.629817
0.629824
0.629832
0.629832
0.629839
0.629846
0.629853
0.629861
0.629861
0.629868
0.629875
0.629883
0.62989
0.62989
0.629897
0.629905
0.629912
0.629919
0.629919
0.629926
0.629934
0.629941
0.629948
0.629948
0.629956
0.629963
0.62997
0.629978
0.629978
0.629985
0.629992
0.63
0.630007
0.630007
0.630014
0.630022
0.630029
0.630036
0.630036
0.630044
0.630051
0.630058
0.630066
0.630066
0.630073
0.63008
0.630088
0.630095
0.630095
0.630102
0.63011
0.630117
0.630124
0.630124
0.630132
0.630139
0.630146
0.630154
0.630154
0.630161
0.630168
0.630176
0.630183
0.630183
0.630191
0.630198
0.630205
0.630213
0.630213
0.63022
0.630227
0.630235
0.630242