<?xml version="1.0"?>
<VTKFile type="UnstructuredGrid" version="0.1" byte_order="LittleEndian">
<UnstructuredGrid>
<Piece NumberOfPoints="5000" NumberOfCells="4000">
<PointData Scalars="Reaction 0">
<DataArray type="Float32" Name="Reaction 0" format="ascii">
0.452535
0.452535
0.452535
0.452535
0.452535
0.452535
0.452535
0.452536
0.452536
0.452536
0.452536
0.452536
0.452536
0.452537
0.452537
0.452537
0.452538
0.452538
0.452538
0.452539
0.452539
0.452539
0.45254
0.45254
0.452541
0.452541
0.452542
0.452542
0.452543
0.452544
0.452544
0.452544
0.452545
0.452546
0.452547
0.452547
0.452548
0.452549
0.452549
0.45255
0.45255
0.452551
0.452552
0.452553
0.452554
0.452554
0.452556
0.452557
0.452558
0.452559
0.452559
0.45256
0.452561
0.452563
0.452564
0.452564
0.452565
0.452567
0.452568
0.45257
0.45257
0.452571
0.452573
0.452574
0.452576
0.452576
0.452577
0.452579
0.45258
0.452582
0.452582
0.452584
0.452585
0.452587
0.452589
0.452589
0.452591
0.452593
0.452595
0.452596
0.452596
0.452598
0.4526
0.452602
0.452604
0.452604
0.452606
0.452609
0.452611
0.452613
0.452613
0.452615
0.452617
0.452619
0.452622
0.452622
0.452624
0.452626
0.452629
0.452631
0.452631
0.452633
0.452636
0.452638
0.452641
0.452641
0.452643
0.452646
0.452649
0.452651
0.452651
0.452654
0.452657
0.452659
0.452662
0.452662
0.452665
0.452668
0.45267
0.452673
0.452673
0.452676
0.452679
0.452682
0.452685
0.452685
0.452688
0.452691
0.452694
0.452697
0.452697
0.452701
0.452704
0.452707
0.45271
0.45271
0.452713
0.452717
0.45272
0.452723
0.452723
0.452727
0.45273
0.452734
0.452737
0.452737
0.452741
0.452744
0.452748
0.452751
0.452751
0.452755
0.452758
0.452762
0.452766
0.452766
0.45277
0.452773
0.452777
0.452781
0.452781
0.452785
0.452789
0.452793
0.452797
0.452797
0.452801
0.452805
0.452809
0.452813
0.452813
0.452817
0.452821
0.452825
0.452829
0.452829
0.452834
0.452838
0.452842
0.452846
0.452846
0.452851
0.452855
0.452859
0.452864
0.452864
0.452868
0.452873
0.452877
0.452882
0.452882
0.452886
0.452891
0.452896
0.4529
0.4529
0.452905
0.45291
0.452915
0.452919
0.452919
0.452924
0.452929
0.452934
0.452939
0.452939
0.452944
0.452949
0.452954
0.452959
0.452959
0.452964
0.452969
0.452974
0.452979
0.452979
0.452984
0.45299
0.452995
0.453
0.453
0.453005
0.453011
0.453016
0.453022
0.453022
0.453027
0.453032
0.453038
0.453043
0.453043
0.453049
0.453054
0.45306
0.453066
0.453066
0.453071
0.453077
0.453083
0.453089
0.453089
0.453094
0.4531
0.453106
0.453112
0.453112
0.453118
0.453124
0.45313
0.453136
0.453136
0.453142
0.453148
0.453154
0.45316
0.45316
0.453166
0.453172
0.453178
0.453185
0.453185
0.453191
0.453197
0.453204
0.45321
0.45321
0.453216
0.453223
0.453229
0.453236
0.453236
0.453242
0.453249
0.453255
0.453262
0.453262
0.453268
0.453275
0.453282
0.453289
0.453289
0.453295
0.453302
0.453309
0.453316
0.453316
0.453323
0.453329
0.453336
0.453343
0.453343
0.45335
0.453357
0.453364
0.453371
0.453371
0.453379
0.453386
0.453393
0.4534
0.4534
0.453407
0.453415
0.453422
0.453429
0.453429
0.453436
0.453444
0.453451
0.453459
0.453459
0.453466
0.453474
0.453481
0.453489
0.453489
0.453496
0.453504
0.453512
0.453519
0.453519
0.453527
0.453535
0.453542
0.45355
0.45355
0.453558
0.453566
0.453574
0.453582
0.453582
0.45359
0.453598
0.453606
0.453614
0.453614
0.453622
0.45363
0.453638
0.453646
0.453646
0.453654
0.453663
0.453671
0.453679
0.453679
0.453687
0.453696
0.453704
0.453713
0.453713
0.453721
0.453729
0.453738
0.453746
0.453746
0.453755
0.453764
0.453772
0.453781
0.453781
0.45379
0.453798
0.453807
0.453816
0.453816
0.453824
0.453833
0.453842
0.453851
0.453851
0.45386
0.453869
0.453878
0.453887
0.453887
0.453896
0.453905
0.453914
0.453923
0.453923
0.453932
0.453942
0.453951
0.45396
0.45396
0.453969
0.453979
0.453988
0.453997
0.453997
0.454007
0.454016
0.454026
0.454035
0.454035
0.454045
0.454054
0.454064
0.454073
0.454073
0.454083
0.454093
0.454102
0.454112
0.454112
0.454122
0.454131
0.454141
0.454151
0.454151
0.454161
0.454171
0.454181
0.454191
0.454191
0.454201
0.454211
0.454221
0.454231
0.454231
0.454241
0.454251
0.454261
0.454272
0.454272
0.454282
0.454292
0.454302
0.454313
0.454313
0.454323
0.454334
0.454344
0.454354
0.454354
0.454365
0.454375
0.454386
0.454396
0.454396
0.454407
0.454418
0.454428
0.454439
0.454439
0.45445
0.454461
0.454471
0.454482
0.454482
0.454493
0.454504
0.454515
0.454526
0.454526
0.454537
0.454548
0.454559
0.45457
0.45457
0.454581
0.454592
0.454603
0.454614
0.454614
0.454625
0.454637
0.454648
0.454659
0.454659
0.454671
0.454682
0.454693
0.454705
0.454705
0.454716
0.454728
0.454739
0.454751
0.454751
0.454762
0.454774
0.454785
0.454797
0.454797
0.454809
0.45482
0.454832
0.454844
0.454844
0.454856
0.454868
0.454879
0.454891
0.454891
0.454903
0.454915
0.454927
0.454939
0.454939
0.454951
0.454963
0.454975
0.454988
0.454988
0.455
0.455012
0.455024
0.455036
0.455036
0.455049
0.455061
0.455073
0.455086
0.455086
0.455098
0.455111
0.455123
0.455136
0.455136
0.455148
0.455161
0.455173
0.455186
0.455186
0.455199
0.455211
0.455224
0.455237
0.455237
0.45525
0.455262
0.455275
0.455288
0.455288
0.455301
0.455314
0.455327
0.45534
0.45534
0.455353
0.455366
0.455379
0.455392
0.455392
0.455405
0.455418
0.455431
0.455445
0.455445
0.455458
0.455471
0.455485
0.455498
0.455498
0.455511
0.455525
0.455538
0.455552
0.455552
0.455565
0.455579
0.455592
0.455606
0.455606
0.455619
0.455633
0.455647
0.45566
0.45566
0.455674
0.455688
0.455702
0.455716
0.455716
0.455729
0.455743
0.455757
0.455771
0.455771
0.455785
0.455799
0.455813
0.455827
0.455827
0.455841
0.455856
0.45587
0.455884
0.455884
0.455898
0.455912
0.455927
0.455941
0.455941
0.455955
0.45597
0.455984
0.455999
0.455999
0.456013
0.456027
0.456042
0.456057
0.456057
0.456071
0.456086
0.4561
0.456115
0.456115
0.45613
0.456145
0.456159
0.456174
0.456174
0.456189
0.456204
0.456219
0.456234
0.456234
0.456249
0.456264
0.456279
0.456294
0.456294
0.456309
0.456324
0.456339
0.456354
0.456354
0.456369
0.456384
0.4564
0.456415
0.456415
0.45643
0.456446
0.456461
0.456476
0.456476
0.456492
0.456507
0.456523
0.456538
0.456538
0.456554
0.456569
0.456585
0.456601
0.456601
0.456616
0.456632
0.456648
0.456664
0.456664
0.456679
0.456695
0.456711
0.456727
0.456727
0.456743
0.456759
0.456775
0.456791
0.456791
0.456807
0.456823
0.456839
0.456855
0.456855
0.456871
0.456888
0.456904
0.45692
0.45692
0.456936
0.456953
0.456969
0.456985
0.456985
0.457002
0.457018
0.457035
0.457051
0.457051
0.457068
0.457084
0.457101
0.457117
0.457117
0.457134
0.457151
0.457167
0.457184
0.457184
0.457201
0.457218
0.457235
0.457251
0.457251
0.457268
0.457285
0.457302
0.457319
0.457319
0.457336
0.457353
0.45737
0.457387
0.457387
0.457404
0.457422
0.457439
0.457456
0.457456
0.457473
0.457491
0.457508
0.457525
0.457525
0.457543
0.45756
0.457577
0.457595
0.457595
0.457612
0.45763
0.457648
0.457665
0.457665
0.457683
0.4577
0.457718
0.457736
0.457736
0.457754
0.457771
0.457789
0.457807
0.457807
0.457825
0.457843
0.457861
0.457879
0.457879
0.457897
0.457915
0.457933
0.457951
0.457951
0.457969
0.457987
0.458005
0.458023
0.458023
0.458041
0.45806
0.458078
0.458096
0.458096
0.458115
0.458133
0.458151
0.45817
0.45817
0.458188
0.458207
0.458225
0.458244
0.458244
0.458263
0.458281
0.4583
0.458318
0.458318
0.458337
0.458356
0.458375
0.458394
0.458394
0.458412
0.458431
0.45845
0.458469
0.458469
0.458488
0.458507
0.458526
0.458545
0.458545
0.458564
0.458583
0.458602
0.458622
0.458622
0.458641
0.45866
0.458679
0.458699
0.458699
0.458718
0.458737
0.458757
0.458776
0.458776
0.458795
0.458815
0.458834
0.458854
0.458854
0.458873
0.458893
0.458913
0.458932
0.458932
0.458952
0.458972
0.458992
0.459011
0.459011
0.459031
0.459051
0.459071
0.459091
0.459091
0.459111
0.459131
0.459151
0.459171
0.459171
0.459191
0.459211
0.459231
0.459251
0.459251
0.459271
0.459291
0.459312
0.459332
0.459332
0.459352
0.459372
0.459393
0.459413
0.459413
0.459434
0.459454
0.459475
0.459495
0.459495
0.459516
0.459536
0.459557
0.459577
0.459577
0.459598
0.459619
0.459639
0.45966
0.45966
0.459681
0.459702
0.459723
0.459744
0.459744
0.459764
0.459785
0.459806
0.459827
0.459827
0.459848
0.459869
0.459891
0.459912
0.459912
0.459933
0.459954
0.459975
0.459996
0.459996
0.460018
0.460039
0.46006
0.460082
0.460082
0.460103
0.460125
0.460146
0.460167
0.460167
0.460189
0.460211
0.460232
0.460254
0.460254
0.460275
0.460297
0.460319
0.46034
0.46034
0.460362
0.460384
0.460406
0.460428
0.460428
0.46045
0.460471
0.460493
0.460515
0.460515
0.460537
0.460559
0.460581
0.460604
0.460604
0.460626
0.460648
0.46067
0.460692
0.460692
0.460715
0.460737
0.460759
0.460781
0.460781
0.460804
0.460826
0.460849
0.460871
0.460871
0.460894
0.460916
0.460939
0.460961
0.460961
0.460984
0.461007
0.461029
0.461052
0.461052
0.461075
0.461097
0.46112
0.461143
0.461143
0.461166
0.461189
0.461212
0.461235
0.461235
0.461258
0.461281
0.461304
0.461327
0.461327
0.46135
0.461373
0.461396
0.461419
0.461419
0.461443
0.461466
0.461489
0.461513
0.461513
0.461536
0.461559
0.461583
0.461606
0.461606
0.46163
0.461653
0.461677
0.4617
0.4617
0.461724
0.461747
0.461771
0.461795
0.461795
0.461819
0.461842
0.461866
0.46189
0.46189
0.461914
0.461938
0.461961
0.461985
0.461985
0.462009
0.462033
0.462057
0.462081
0.462081
0.462106
0.46213
0.462154
0.462178
0.462178
0.462202
0.462226
0.462251
0.462275
0.462275
0.462299
0.462324
0.462348
0.462373
0.462373
0.462397
0.462421
0.462446
0.462471
0.462471
0.462495
0.46252
0.462544
0.462569
0.462569
0.462594
0.462618
0.462643
0.462668
0.462668
0.462693
0.462718
0.462743
0.462767
0.462767
0.462792
0.462817
0.462842
0.462867
0.462867
0.462893
0.462918
0.462943
0.462968
0.462968
0.462993
0.463018
0.463044
0.463069
0.463069
0.463094
0.46312
0.463145
0.46317
0.46317
0.463196
0.463221
0.463247
0.463272
0.463272
0.463298
0.463323
0.463349
0.463375
0.463375
0.4634
0.463426
0.463452
0.463478
0.463478
0.463503
0.463529
0.463555
0.463581
0.463581
0.463607
0.463633
0.463659
0.463685
0.463685
0.463711
0.463737
0.463763
0.463789
0.463789
0.463816
0.463842
0.463868
0.463894
0.463894
0.463921
0.463947
0.463973
0.464
0.464
0.464026
0.464053
0.464079
0.464106
0.464106
0.464132
0.464159
0.464185
0.464212
0.464212
0.464239
0.464265
0.464292
0.464319
0.464319
0.464346
0.464372
0.464399
0.464426
0.464426
0.464453
0.46448
0.464507
0.464534
0.464534
0.464561
0.464588
0.464615
0.464642
0.464642
0.46467
0.464697
0.464724
0.464751
0.464751
0.464778
0.464806
0.464833
0.464861
0.464861
0.464888
0.464915
0.464943
0.46497
0.46497
0.464998
0.465025
0.465053
0.465081
0.465081
0.465108
0.465136
0.465164
0.465191
0.465191
0.465219
0.465247
0.465275
0.465303
0.465303
0.465331
0.465359
0.465387
0.465415
0.465415
0.465443
0.465471
0.465499
0.465527
0.465527
0.465555
0.465583
0.465611
0.46564
0.46564
0.465668
0.465696
0.465725
0.465753
0.465753
0.465781
0.46581
0.465838
0.465867
0.465867
0.465895
0.465924
0.465952
0.465981
0.465981
0.46601
0.466038
0.466067
0.466096
0.466096
0.466125
0.466153
0.466182
0.466211
0.466211
0.46624
0.466269
0.466298
0.466327
0.466327
0.466356
0.466385
0.466414
0.466443
0.466443
0.466472
0.466501
0.466531
0.46656
0.46656
0.466589
0.466618
0.466648
0.466677
0.466677
0.466707
0.466736
0.466765
0.466795
0.466795
0.466824
0.466854
0.466884
0.466913
0.466913
0.466943
0.466972
0.467002
0.467032
0.467032
0.467062
0.467091
0.467121
0.467151
0.467151
0.467181
0.467211
0.467241
0.467271
0.467271
0.467301
0.467331
0.467361
0.467391
0.467391
0.467421
0.467451
0.467482
0.467512
0.467512
0.467542
0.467572
0.467603
0.467633
0.467633
0.467663
0.467694
0.467724
0.467755
0.467755
0.467785
0.467816
0.467846
0.467877
0.467877
0.467908
0.467938
0.467969
0.468
0.468
0.468031
0.468061
0.468092
0.468123
0.468123
0.468154
0.468185
0.468216
0.468247
0.468247
0.468278
0.468309
0.46834
0.468371
0.468371
0.468402
0.468433
0.468464
0.468496
0.468496
0.468527
0.468558
0.46859
0.468621
0.468621
0.468652
0.468684
0.468715
0.468747
0.468747
0.468778
0.46881
0.468841
0.468873
0.468873
0.468904
0.468936
0.468968
0.469
0.469
0.469031
0.469063
0.469095
0.469127
0.469127
0.469159
0.46919
0.469222
0.469254
0.469254
0.469286
0.469318
0.469351
0.469383
0.469383
0.469415
0.469447
0.469479
0.469511
0.469511
0.469544
0.469576
0.469608
0.469641
0.469641
0.469673
0.469705
0.469738
0.46977
0.46977
0.469803
0.469835
0.469868
0.4699
0.4699
0.469933
0.469966
0.469998
0.470031
0.470031
0.470064
0.470097
0.470129
0.470162
0.470162
0.470195
0.470228
0.470261
0.470294
0.470294
0.470327
0.47036
0.470393
0.470426
0.470426
0.470459
0.470493
0.470526
0.470559
0.470559
0.470592
0.470626
0.470659
0.470692
0.470692
0.470726
0.470759
0.470792
0.470826
0.470826
0.470859
0.470893
0.470926
0.47096
0.47096
0.470994
0.471027
0.471061
0.471095
0.471095
0.471129
0.471162
0.471196
0.47123
0.47123
0.471264
0.471298
0.471332
0.471366
0.471366
0.4714
0.471434
0.471468
0.471502
0.471502
0.471536
0.47157
0.471604
0.471639
0.471639
0.471673
0.471707
0.471742
0.471776
0.471776
0.47181
0.471845
0.471879
0.471914
0.471914
0.471948
0.471983
0.472017
0.472052
0.472052
0.472086
0.472121
0.472156
0.472191
0.472191
0.472225
0.47226
0.472295
0.47233
0.47233
0.472365
0.4724
0.472435
0.472469
0.472469
0.472505
0.47254
0.472575
0.47261
0.47261
0.472645
0.47268
0.472715
0.47275
0.47275
0.472786
0.472821
0.472856
0.472892
0.472892
0.472927
0.472963
0.472998
0.473033
0.473033
0.473069
0.473105
0.47314
0.473176
0.473176
0.473211
0.473247
0.473283
0.473318
0.473318
0.473354
0.47339
0.473426
0.473462
0.473462
0.473498
0.473534
0.473569
0.473605
0.473605
0.473641
0.473678
0.473714
0.47375
0.47375
0.473786
0.473822
0.473858
0.473895
0.473895
0.473931
0.473967
0.474003
0.47404
0.47404
0.474076
0.474113
0.474149
0.474186
0.474186
0.474222
0.474259
0.474295
0.474332
0.474332
0.474368
0.474405
0.474442
0.474479
0.474479
0.474515
0.474552
0.474589
0.474626
0.474626
0.474663
0.4747
0.474737
0.474774
0.474774
0.474811
0.474848
0.474885
0.474922
0.474922
0.474959
0.474996
0.475034
0.475071
0.475071
0.475108
0.475145
0.475183
0.47522
0.47522
0.475258
0.475295
0.475332
0.47537
0.47537
0.475408
0.475445
0.475483
0.47552
0.47552
0.475558
0.475596
0.475633
0.475671
0.475671
0.475709
0.475747
0.475785
0.475823
0.475823
0.47586
0.475898
0.475936
0.475974
0.475974
0.476012
0.47605
0.476089
0.476127
0.476127
0.476165
0.476203
0.476241
0.47628
0.47628
0.476318
0.476356
0.476395
0.476433
0.476433
0.476471
0.47651
0.476548
0.476587
0.476587
0.476625
0.476664
0.476703
0.476741
0.476741
0.47678
0.476819
0.476857
0.476896
0.476896
0.476935
0.476974
0.477013
0.477052
0.477052
0.47709
0.477129
0.477168
0.477207
0.477207
0.477247
0.477286
0.477325
0.477364
0.477364
0.477403
0.477442
0.477482
0.477521
0.477521
0.47756
0.477599
0.477639
0.477678
0.477678
0.477718
0.477757
0.477797
0.477836
0.477836
0.477876
0.477915
0.477955
0.477995
0.477995
0.478034
0.478074
0.478114
0.478154
0.478154
0.478194
0.478233
0.478273
0.478313
0.478313
0.478353
0.478393
0.478433
0.478473
0.478473
0.478513
0.478553
0.478593
0.478634
0.478634
0.478674
0.478714
0.478754
0.478795
0.478795
0.478835
0.478875
0.478916
0.478956
0.478956
0.478997
0.479037
0.479078
0.479118
0.479118
0.479159
0.479199
0.47924
0.479281
0.479281
0.479322
0.479362
0.479403
0.479444
0.479444
0.479485
0.479526
0.479566
0.479607
0.479607
0.479648
0.479689
0.47973
0.479772
0.479772
0.479813
0.479854
0.479895
0.479936
0.479936
0.479977
0.480019
0.48006
0.480101
0.480101
0.480143
0.480184
0.480225
0.480267
0.480267
0.480308
0.48035
0.480391
0.480433
0.480433
0.480475
0.480516
0.480558
0.4806
0.4806
0.480641
0.480683
0.480725
0.480767
0.480767
0.480809
0.480851
0.480892
0.480934
0.480934
0.480976
0.481018
0.481061
0.481103
0.481103
0.481145
0.481187
0.481229
0.481271
0.481271
0.481314
0.481356
0.481398
0.481441
0.481441
0.481483
0.481525
0.481568
0.48161
0.48161
0.481653
0.481695
0.481738
0.481781
0.481781
0.481823
0.481866
0.481909
0.481951
0.481951
0.481994
0.482037
0.48208
0.482123
0.482123
0.482165
0.482208
0.482251
0.482294
0.482294
0.482337
0.48238
0.482424
0.482467
0.482467
0.48251
0.482553
0.482596
0.48264
0.48264
0.482683
0.482726
0.482769
0.482813
0.482813
0.482856
0.4829
0.482943
0.482987
0.482987
0.48303
0.483074
0.483117
0.483161
0.483161
0.483205
0.483248
0.483292
0.483336
0.483336
0.48338
0.483424
0.483467
0.483511
0.483511
0.483555
0.483599
0.483643
0.483687
0.483687
0.483731
0.483775
0.48382
0.483864
0.483864
0.483908
0.483952
0.483996
0.484041
0.484041
0.484085
0.484129
0.484174
0.484218
0.484218
0.484263
0.484307
0.484352
0.484396
0.484396
0.484441
0.484485
0.48453
0.484575
0.484575
0.484619
0.484664
0.484709
0.484754
0.484754
0.484798
0.484843
0.484888
0.484933
0.484933
0.484978
0.485023
0.485068
0.485113
0.485113
0.485158
0.485203
0.485249
0.485294
0.485294
0.485339
0.485384
0.48543
0.485475
0.485475
0.48552
0.485566
0.485611
0.485657
0.485657
0.485702
0.485748
0.485793
0.485839
0.485839
0.485884
0.48593
0.485976
0.486021
0.486021
0.486067
0.486113
0.486159
0.486205
0.486205
0.48625
0.486296
0.486342
0.486388
0.486388
0.486434
0.48648
0.486526
0.486572
0.486572
0.486619
0.486665
0.486711
0.486757
0.486757
0.486804
0.48685
0.486896
0.486943
0.486943
0.486989
0.487035
0.487082
0.487128
0.487128
0.487175
0.487221
0.487268
0.487315
0.487315
0.487361
0.487408
0.487455
0.487501
0.487501
0.487548
0.487595
0.487642
0.487689
0.487689
0.487736
0.487783
0.48783
0.487877
0.487877
0.487924
0.487971
0.488018
0.488065
0.488065
0.488112
0.488159
0.488207
0.488254
0.488254
0.488301
0.488349
0.488396
0.488443
0.488443
0.488491
0.488538
0.488586
0.488633
0.488633
0.488681
0.488729
0.488776
0.488824
0.488824
0.488872
0.488919
0.488967
0.489015
0.489015
0.489063
0.489111
0.489159
0.489206
0.489206
0.489254
0.489302
0.48935
0.489399
0.489399
0.489447
0.489495
0.489543
0.489591
0.489591
0.489639
0.489688
0.489736
0.489784
0.489784
0.489833
0.489881
0.489929
0.489978
0.489978
0.490026
0.490075
0.490123
0.490172
0.490172
0.490221
0.490269
0.490318
0.490367
0.490367
0.490415
0.490464
0.490513
0.490562
0.490562
0.490611
0.49066
0.490709
0.490758
0.490758
0.490807
0.490856
0.490905
0.490954
0.490954
0.491003
0.491052
0.491102
0.491151
0.491151
0.4912
0.491249
0.491299
0.491348
0.491348
0.491397
0.491447
0.491496
0.491546
0.491546
0.491595
0.491645
0.491695
0.491744
0.491744
0.491794
0.491844
0.491893
0.491943
0.491943
0.491993
0.492043
0.492093
0.492143
0.492143
0.492193
0.492243
0.492293
0.492343
0.492343
0.492393
0.492443
0.492493
0.492543
0.492543
0.492593
0.492644
0.492694
0.492744
0.492744
0.492794
0.492845
0.492895
0.492946
0.492946
0.492996
0.493047
0.493097
0.493148
0.493148
0.493198
0.493249
0.4933
0.49335
0.49335
0.493401
0.493452
0.493503
0.493554
0.493554
0.493604
0.493655
0.493706
0.493757
0.493757
0.493808
0.493859
0.49391
0.493961
0.493961
0.494013
0.494064
0.494115
0.494166
0.494166
0.494217
0.494269
0.49432
0.494371
0.494371
0.494423
0.494474
0.494526
0.494577
0.494577
0.494629
0.49468
0.494732
0.494784
0.494784
0.494835
0.494887
0.494939
0.49499
0.49499
0.495042
0.495094
0.495146
0.495198
0.495198
0.49525
0.495302
0.495354
0.495406
0.495406
0.495458
0.49551
0.495562
0.495614
0.495614
0.495666
0.495719
0.495771
0.495823
0.495823
0.495876
0.495928
0.49598
0.496033
0.496033
0.496085
0.496138
0.49619
0.496243
0.496243
0.496295
0.496348
0.496401
0.496453
0.496453
0.496506
0.496559
0.496612
0.496665
0.496665
0.496717
0.49677
0.496823
0.496876
0.496876
0.496929
0.496982
0.497035
0.497088
0.497088
0.497142
0.497195
0.497248
0.497301
0.497301
0.497354
0.497408
0.497461
0.497514
0.497514
0.497568
0.497621
0.497675
0.497728
0.497728
0.497782
0.497835
0.497889
0.497943
0.497943
0.497996
0.49805
0.498104
0.498157
0.498157
0.498211
0.498265
0.498319
0.498373
0.498373
0.498427
0.498481
0.498535
0.498589
0.498589
0.498643
0.498697
0.498751
0.498805
0.498805
0.49886
0.498914
0.498968
0.499022
0.499022
0.499077
0.499131
0.499185
0.49924
0.49924
0.499294
0.499349
0.499403
0.499458
0.499458
0.499513
0.499567
0.499622
0.499677
0.499677
0.499731
0.499786
0.499841
0.499896
0.499896
0.499951
0.500006
0.500061
0.500116
0.500116
0.500171
0.500226
0.500281
0.500336
0.500336
0.500391
0.500446
0.500501
0.500557
0.500557
0.500612
0.500667
0.500723
0.500778
0.500778
0.500833
0.500889
0.500944
0.501
0.501
0.501055
0.501111
0.501167
0.501222
0.501222
0.501278
0.501334
0.501389
0.501445
0.501445
0.501501
0.501557
0.501613
0.501669
0.501669
0.501725
0.501781
0.501837
0.501893
0.501893
0.501949
0.502005
0.502061
0.502117
0.502117
0.502174
0.50223
0.502286
0.502343
0.502343
0.502399
0.502455
0.502512
0.502568
0.502568
0.502625
0.502681
0.502738
0.502794
0.502794
0.502851
0.502908
0.502964
0.503021
0.503021
0.503078
0.503135
0.503192
0.503249
0.503249
0.503305
0.503362
0.503419
0.503476
0.503476
0.503533
0.503591
0.503648
0.503705
0.503705
0.503762
0.503819
0.503876
0.503934
0.503934
0.503991
0.504048
0.504106
0.504163
0.504163
0.504221
0.504278
0.504336
0.504393
0.504393
0.504451
0.504509
0.504566
0.504624
0.504624
0.504682
0.504739
0.504797
0.504855
0.504855
0.504913
0.504971
0.505029
0.505087
0.505087
0.505145
0.505203
0.505261
0.505319
0.505319
0.505377
0.505435
0.505493
0.505552
0.505552
0.50561
0.505668
0.505727
0.505785
0.505785
0.505843
0.505902
0.50596
0.506019
0.506019
0.506077
0.506136
0.506195
0.506253
0.506253
0.506312
0.506371
0.506429
0.506488
0.506488
0.506547
0.506606
0.506665
0.506724
0.506724
0.506783
0.506842
0.506901
0.50696
0.50696
0.507019
0.507078
0.507137
0.507196
0.507196
0.507256
0.507315
0.507374
0.507434
0.507434
0.507493
0.507552
0.507612
0.507671
0.507671
0.507731
0.50779
0.50785
0.50791
0.50791
0.507969
0.508029
0.508089
0.508148
0.508148
0.508208
0.508268
0.508328
0.508388
0.508388
0.508448
0.508508
0.508568
0.508628
0.508628
0.508688
0.508748
0.508808
0.508868
0.508868
0.508928
0.508989
0.509049
0.509109
0.509109
0.50917
0.50923
0.50929
0.509351
0.509351
0.509411
0.509472
0.509532
0.509593
0.509593
0.509654
0.509714
0.509775
0.509836
0.509836
0.509896
0.509957
0.510018
0.510079
0.510079
0.51014
0.510201
0.510262
0.510323
0.510323
0.510384
0.510445
0.510506
0.510567
0.510567
0.510628
0.510689
0.510751
0.510812
0.510812
0.510873
0.510935
0.510996
0.511057
0.511057
0.511119
0.51118
0.511242
0.511303
0.511303
0.511365
0.511427
0.511488
0.51155
0.51155
0.511612
0.511673
0.511735
0.511797
0.511797
0.511859
0.511921
0.511983
0.512045
0.512045
0.512107
0.512169
0.512231
0.512293
0.512293
0.512355
0.512417
0.51248
0.512542
0.512542
0.512604
0.512666
0.512729
0.512791
0.512791
0.512854
0.512916
0.512979
0.513041
0.513041
0.513104
0.513166
0.513229
0.513292
0.513292
0.513354
0.513417
0.51348
0.513543
0.513543
0.513605
0.513668
0.513731
0.513794
0.513794
0.513857
0.51392
0.513983
0.514046
0.514046
0.514109
0.514173
0.514236
0.514299
0.514299
0.514362
0.514426
0.514489
0.514552
0.514552
0.514616
0.514679
0.514743
0.514806
0.514806
0.51487
0.514933
0.514997
0.515061
0.515061
0.515124
0.515188
0.515252
0.515316
0.515316
0.515379
0.515443
0.515507
0.515571
0.515571
0.515635
0.515699
0.515763
0.515827
0.515827
0.515891
0.515955
0.51602
0.516084
0.516084
0.516148
0.516212
0.516277
0.516341
0.516341
0.516405
0.51647
0.516534
0.516599
0.516599
0.516663
0.516728
0.516793
0.516857
0.516857
0.516922
0.516987
0.517051
0.517116
0.517116
0.517181
0.517246
0.517311
0.517376
0.517376
0.51744
0.517505
0.517571
0.517636
0.517636
0.517701
0.517766
0.517831
0.517896
0.517896
0.517961
0.518027
0.518092
0.518157
0.518157
0.518223
0.518288
0.518354
0.518419
0.518419
0.518485
0.51855
0.518616
0.518681
0.518681
0.518747
0.518813
0.518879
0.518944
0.518944
0.51901
0.519076
0.519142
0.519208
0.519208
0.519274
0.51934
0.519406
0.519472
0.519472
0.519538
0.519604
0.51967
0.519736
0.519736
0.519803
0.519869
0.519935
0.520002
0.520002
0.520068
0.520134
0.520201
0.520267
0.520267
0.520334
0.5204
0.520467
0.520534
0.520534
0.5206
0.520667
0.520734
0.5208
0.5208
0.520867
0.520934
0.521001
0.521068
0.521068
0.521135
0.521202
0.521269
0.521336
0.521336
0.521403
0.52147
0.521537
0.521604
0.521604
0.521672
0.521739
0.521806
0.521874
0.521874
0.521941
0.522008
0.522076
0.522143
0.522143
0.522211
0.522278
0.522346
0.522414
0.522414
0.522481
0.522549
0.522617
0.522684
0.522684
0.522752
0.52282
0.522888
0.522956
0.522956
0.523024
0.523092
0.52316
0.523228
0.523228
0.523296
0.523364
0.523432
0.523501
0.523501
0.523569
0.523637
0.523705
0.523774
0.523774
0.523842
0.523911
0.523979
0.524047
0.524047
0.524116
0.524185
0.524253
0.524322
0.524322
0.52439
0.524459
0.524528
0.524597
0.524597
0.524666
0.524734
0.524803
0.524872
0.524872
0.524941
0.52501
0.525079
0.525148
0.525148
0.525217
0.525287
0.525356
0.525425
0.525425
0.525494
0.525563
0.525633
0.525702
0.525702
0.525772
0.525841
0.52591
0.52598
0.52598
0.526049
0.526119
0.526189
0.526258
0.526258
0.526328
0.526398
0.526467
0.526537
0.526537
0.526607
0.526677
0.526747
0.526817
0.526817
0.526887
0.526957
0.527027
0.527097
0.527097
0.527167
0.527237
0.527307
0.527378
0.527378
0.527448
0.527518
0.527589
0.527659
0.527659
0.527729
0.5278
0.52787
0.527941
0.527941
0.528011
0.528082
0.528153
0.528223
0.528223
0.528294
0.528365
0.528435
0.528506
0.528506
0.528577
0.528648
0.528719
0.52879
0.52879
0.528861
0.528932
0.529003
0.529074
0.529074
0.529145
0.529216
0.529288
0.529359
0.529359
0.52943
0.529501
0.529573
0.529644
0.529644
0.529716
0.529787
0.529859
0.52993
0.52993
0.530002
0.530073
0.530145
0.530217
0.530217
0.530288
0.53036
0.530432
0.530504
0.530504
0.530576
0.530648
0.53072
0.530792
0.530792
0.530864
0.530936
0.531008
0.53108
0.53108
0.531152
0.531224
0.531296
0.531369
0.531369
0.531441
0.531513
0.531586
0.531658
0.531658
0.531731
0.531803
0.531876
0.531948
0.531948
0.532021
0.532094
0.532166
0.532239
0.532239
0.532312
0.532385
0.532457
0.53253
0.53253
0.532603
0.532676
0.532749
0.532822
0.532822
0.532895
0.532968
0.533041
0.533115
0.533115
0.533188
0.533261
0.533334
0.533408
0.533408
0.533481
0.533554
0.533628
0.533701
0.533701
0.533775
0.533848
0.533922
0.533995
0.533995
0.534069
0.534143
0.534216
0.53429
0.53429
0.534364
0.534438
0.534512
0.534586
0.534586
0.53466
0.534733
0.534807
0.534882
0.534882
0.534956
0.53503
0.535104
0.535178
0.535178
0.535252
0.535327
0.535401
0.535475
0.535475
0.53555
0.535624
0.535699
0.535773
0.535773
0.535848
0.535922
0.535997
0.536071
0.536071
0.536146
0.536221
0.536296
0.53637
0.53637
0.536445
0.53652
0.536595
0.53667
0.53667
0.536745
0.53682
0.536895
0.53697
0.53697
0.537045
0.53712
0.537196
0.537271
0.537271
0.537346
0.537422
0.537497
0.537572
0.537572
0.537648
0.537723
0.537799
0.537874
0.537874
0.53795
0.538025
0.538101
0.538177
0.538177
0.538253
0.538328
0.538404
0.53848
0.53848
0.538556
0.538632
0.538708
0.538784
0.538784
0.53886
0.538936
0.539012
0.539088
0.539088
0.539164
0.539241
0.539317
0.539393
0.539393
0.539469
0.539546
0.539622
0.539699
0.539699
0.539775
0.539852
0.539928
0.540005
0.540005
0.540081
0.540158
0.540235
0.540312
0.540312
0.540388
0.540465
0.540542
0.540619
0.540619
0.540696
0.540773
0.54085
0.540927
0.540927
0.541004
0.541081
0.541158
0.541236
0.541236
0.541313
0.54139
0.541467
0.541545
0.541545
0.541622
0.5417
0.541777
0.541855
0.541855
0.541932
0.54201
0.542087
0.542165
0.542165
0.542243
0.54232
0.542398
0.542476
0.542476
0.542554
0.542632
0.54271
0.542788
0.542788
0.542866
0.542944
0.543022
0.5431
0.5431
0.543178
0.543256
0.543334
0.543413
0.543413
0.543491
0.543569
0.543648
0.543726
0.543726
0.543805
0.543883
0.543962
0.54404
0.54404
0.544119
0.544198
0.544276
0.544355
0.544355
0.544434
0.544513
0.544591
0.54467
0.54467
0.544749
0.544828
0.544907
0.544986
0.544986
0.545065
0.545144
0.545223
0.545303
0.545303
0.545382
0.545461
0.54554
0.54562
0.54562
0.545699
0.545779
0.545858
0.545938
0.545938
0.546017
0.546097
0.546176
0.546256
0.546256
0.546336
0.546415
0.546495
0.546575
0.546575
0.546655
0.546735
0.546814
0.546894
0.546894
0.546974
0.547054
0.547135
0.547215
0.547215
0.547295
0.547375
0.547455
0.547535
0.547535
0.547616
0.547696
0.547776
0.547857
0.547857
0.547937
0.548018
0.548098
0.548179
0.548179
0.54826
0.54834
0.548421
0.548502
0.548502
0.548582
0.548663
0.548744
0.548825
0.548825
0.548906
0.548987
0.549068
0.549149
0.549149
0.54923
0.549311
0.549392
0.549473
0.549473
0.549555
0.549636
0.549717
0.549799
0.549799
0.54988
0.549961
0.550043
0.550124
0.550124
0.550206
0.550287
0.550369
0.550451
0.550451
0.550532
0.550614
0.550696
0.550778
0.550778
0.55086
0.550941
0.551023
0.551105
0.551105
0.551187
0.551269
0.551351
0.551434
0.551434
0.551516
0.551598
0.55168
0.551763
0.551763
0.551845
0.551927
0.55201
0.552092
0.552092
0.552174
0.552257
0.55234
0.552422
0.552422
0.552505
0.552587
0.55267
0.552753
0.552753
0.552836
0.552919
0.553001
0.553084
0.553084
0.553167
0.55325
0.553333
0.553416
0.553416
0.553499
0.553583
0.553666
0.553749
0.553749
0.553832
0.553916
0.553999
0.554082
0.554082
0.554166
0.554249
0.554333
0.554416
0.554416
0.5545
0.554583
0.554667
0.554751
0.554751
0.554834
0.554918
0.555002
0.555086
0.555086
0.55517
0.555254
0.555338
0.555422
0.555422
0.555506
0.55559
0.555674
0.555758
0.555758
0.555842
0.555927
0.556011
0.556095
0.556095
0.55618
0.556264
0.556348
0.556433
0.556433
0.556517
0.556602
0.556687
0.556771
0.556771
0.556856
0.556941
0.557025
0.55711
0.55711
0.557195
0.55728
0.557365
0.55745
0.55745
0.557535
0.55762
0.557705
0.55779
0.55779
0.557875
0.55796
0.558046
0.558131
0.558131
0.558216
0.558302
0.558387
0.558472
0.558472
0.558558
0.558643
0.558729
0.558815
0.558815
0.5589
0.558986
0.559072
0.559157
0.559157
0.559243
0.559329
0.559414
0.5595
0.5595
0.559586
0.559671
0.559755
0.559839
0.559839
0.559922
0.560002
0.56008
0.560155
0.560155
0.560229
0.560302
0.560375
0.560448
0.560448
0.560521
0.560593
0.560666
0.560739
0.560739
0.560811
0.560884
0.560957
0.561029
0.561029
0.561102
0.561175
0.561248
0.561321
0.561321
0.561394
0.561466
0.561539
0.561612
0.561612
0.561685
0.561758
0.561831
0.561904
0.561904
0.561978
0.562051
0.562124
0.562197
0.562197
0.56227
0.562344
0.562417
0.56249
0.56249
0.562563
0.562637
0.56271
0.562784
0.562784
0.562857
0.562931
0.563004
0.563078
0.563078
0.563151
0.563225
0.563298
0.563372
0.563372
0.563446
0.563519
0.563593
0.563666
0.563666
0.56374
0.563813
0.563886
0.563958
0.563958
0.56403
0.564101
0.564171
0.564239
0.564239