<?xml version="1.0"?>
<VTKFile type="UnstructuredGrid" version="0.1" byte_order="LittleEndian">
<UnstructuredGrid>
<Piece NumberOfPoints="5000" NumberOfCells="4000">
<PointData Scalars="Reaction 0">
<DataArray type="Float32" Name="Reaction 0" format="ascii">
0.637845
0.637845
0.637845
0.637845
0.637845
0.637845
0.637845
0.637845
0.637845
0.637845
0.637845
0.637845
0.637845
0.637845
0.637845
0.637845
0.637845
0.637845
0.637845
0.637845
0.637845
0.637845
0.637846
0.637846
0.637846
0.637846
0.637846
0.637846
0.637846
0.637846
0.637846
0.637846
0.637846
0.637846
0.637846
0.637846
0.637846
0.637847
0.637847
0.637847
0.637847
0.637847
0.637847
0.637847
0.637847
0.637847
0.637847
0.637848
0.637848
0.637848
0.637848
0.637848
0.637848
0.637848
0.637849
0.637849
0.637849
0.637849
0.637849
0.637849
0.637849
0.637849
0.63785
0.63785
0.63785
0.63785
0.63785
0.63785
0.637851
0.637851
0.637851
0.637851
0.637851
0.637851
0.637852
0.637852
0.637852
0.637852
0.637852
0.637853
0.637853
0.637853
0.637853
0.637853
0.637853
0.637853
0.637854
0.637854
0.637854
0.637855
0.637855
0.637855
0.637855
0.637855
0.637856
0.637856
0.637856
0.637856
0.637856
0.637857
0.637857
0.637857
0.637857
0.637858
0.637858
0.637858
0.637858
0.637859
0.637859
0.637859
0.637859
0.63786
0.63786
0.63786
0.637861
0.637861
0.637861
0.637861
0.637862
0.637862
0.637862
0.637862
0.637863
0.637863
0.637863
0.637863
0.637864
0.637864
0.637865
0.637865
0.637865
0.637865
0.637866
0.637866
0.637867
0.637867
0.637867
0.637867
0.637868
0.637868
0.637868
0.637869
0.637869
0.637869
0.63787
0.63787
0.63787
0.637871
0.637871
0.637872
0.637872
0.637872
0.637872
0.637873
0.637873
0.637873
0.637874
0.637874
0.637875
0.637875
0.637875
0.637876
0.637876
0.637877
0.637877
0.637877
0.637878
0.637878
0.637879
0.637879
0.637879
0.63788
0.63788
0.637881
0.637881
0.637881
0.637882
0.637882
0.637883
0.637883
0.637883
0.637884
0.637884
0.637885
0.637885
0.637885
0.637886
0.637887
0.637887
0.637888
0.637888
0.637888
0.637889
0.637889
0.63789
0.63789
0.637891
0.637891
0.637892
0.637892
0.637892
0.637893
0.637893
0.637894
0.637895
0.637895
0.637895
0.637896
0.637897
0.637897
0.637897
0.637898
0.637898
0.637899
0.6379
0.6379
0.6379
0.637901
0.637902
0.637902
0.637902
0.637903
0.637904
0.637904
0.637905
0.637905
0.637906
0.637906
0.637907
0.637908
0.637908
0.637908
0.637909
0.63791
0.63791
0.63791
0.637911
0.637912
0.637912
0.637913
0.637913
0.637914
0.637915
0.637915
0.637916
0.637916
0.637917
0.637917
0.637918
0.637919
0.637919
0.63792
0.63792
0.637921
0.637922
0.637922
0.637923
0.637923
0.637924
0.637925
0.637925
0.637926
0.637927
0.637927
0.637928
0.637928
0.637929
0.63793
0.63793
0.637931
0.637931
0.637932
0.637933
0.637934
0.637935
0.637935
0.637935
0.637936
0.637937
0.637938
0.637938
0.637939
0.637939
0.63794
0.637941
0.637941
0.637942
0.637943
0.637944
0.637945
0.637945
0.637945
0.637946
0.637947
0.637948
0.637948
0.637949
0.63795
0.637951
0.637952
0.637952
0.637952
0.637953
0.637954
0.637955
0.637955
0.637956
0.637957
0.637958
0.637959
0.637959
0.63796
0.637961
0.637962
0.637962
0.637962
0.637963
0.637964
0.637965
0.637966
0.637966
0.637967
0.637968
0.637969
0.63797
0.63797
0.637971
0.637972
0.637973
0.637974
0.637974
0.637975
0.637976
0.637977
0.637978
0.637978
0.637979
0.63798
0.637981
0.637982
0.637982
0.637983
0.637984
0.637985
0.637986
0.637986
0.637987
0.637988
0.637989
0.63799
0.63799
0.637991
0.637992
0.637993
0.637994
0.637994
0.637995
0.637996
0.637997
0.637999
0.637999
0.638
0.638001
0.638002
0.638003
0.638003
0.638004
0.638005
0.638006
0.638007
0.638007
0.638008
0.638009
0.63801
0.638012
0.638012
0.638013
0.638014
0.638015
0.638016
0.638016
0.638017
0.638018
0.638019
0.638021
0.638021
0.638022
0.638023
0.638024
0.638025
0.638025
0.638026
0.638028
0.638029
0.63803
0.63803
0.638031
0.638032
0.638033
0.638035
0.638035
0.638036
0.638037
0.638038
0.638039
0.638039
0.638041
0.638042
0.638043
0.638044
0.638044
0.638045
0.638047
0.638048
0.638049
0.638049
0.63805
0.638052
0.638053
0.638054
0.638054
0.638055
0.638057
0.638058
0.638059
0.638059
0.63806
0.638062
0.638063
0.638064
0.638064
0.638065
0.638067
0.638068
0.638069
0.638069
0.638071
0.638072
0.638073
0.638075
0.638075
0.638076
0.638077
0.638078
0.63808
0.63808
0.638081
0.638082
0.638084
0.638085
0.638085
0.638086
0.638088
0.638089
0.63809
0.63809
0.638092
0.638093
0.638095
0.638096
0.638096
0.638097
0.638099
0.6381
0.638101
0.638101
0.638103
0.638104
0.638106
0.638107
0.638107
0.638108
0.63811
0.638111
0.638113
0.638113
0.638114
0.638115
0.638117
0.638118
0.638118
0.63812
0.638121
0.638122
0.638124
0.638124
0.638125
0.638127
0.638128
0.63813
0.63813
0.638131
0.638133
0.638134
0.638135
0.638135
0.638137
0.638138
0.63814
0.638141
0.638141
0.638143
0.638144
0.638146
0.638147
0.638147
0.638149
0.63815
0.638152
0.638153
0.638153
0.638155
0.638157
0.638158
0.63816
0.63816
0.638161
0.638163
0.638164
0.638166
0.638166
0.638167
0.638169
0.63817
0.638172
0.638172
0.638174
0.638175
0.638177
0.638178
0.638178
0.63818
0.638181
0.638183
0.638185
0.638185
0.638186
0.638188
0.638189
0.638191
0.638191
0.638193
0.638194
0.638196
0.638197
0.638197
0.638199
0.638201
0.638202
0.638204
0.638204
0.638206
0.638207
0.638209
0.638211
0.638211
0.638212
0.638214
0.638216
0.638217
0.638217
0.638219
0.638221
0.638222
0.638224
0.638224
0.638226
0.638227
0.638229
0.638231
0.638231
0.638232
0.638234
0.638236
0.638237
0.638237
0.638239
0.638241
0.638243
0.638244
0.638244
0.638246
0.638248
0.63825
0.638251
0.638251
0.638253
0.638255
0.638257
0.638258
0.638258
0.63826
0.638262
0.638264
0.638265
0.638265
0.638267
0.638269
0.638271
0.638272
0.638272
0.638274
0.638276
0.638278
0.63828
0.63828
0.638281
0.638283
0.638285
0.638287
0.638287
0.638289
0.638291
0.638292
0.638294
0.638294
0.638296
0.638298
0.6383
0.638302
0.638302
0.638303
0.638305
0.638307
0.638309
0.638309
0.638311
0.638313
0.638315
0.638316
0.638316
0.638318
0.63832
0.638322
0.638324
0.638324
0.638326
0.638328
0.63833
0.638332
0.638332
0.638334
0.638335
0.638337
0.638339
0.638339
0.638341
0.638343
0.638345
0.638347
0.638347
0.638349
0.638351
0.638353
0.638355
0.638355
0.638357
0.638359
0.638361
0.638363
0.638363
0.638365
0.638367
0.638369
0.638371
0.638371
0.638373
0.638375
0.638377
0.638379
0.638379
0.638381
0.638383
0.638385
0.638387
0.638387
0.638389
0.638391
0.638393
0.638395
0.638395
0.638397
0.638399
0.638401
0.638403
0.638403
0.638405
0.638407
0.638409
0.638411
0.638411
0.638413
0.638415
0.638417
0.638419
0.638419
0.638421
0.638423
0.638426
0.638428
0.638428
0.63843
0.638432
0.638434
0.638436
0.638436
0.638438
0.63844
0.638442
0.638444
0.638444
0.638447
0.638449
0.638451
0.638453
0.638453
0.638455
0.638457
0.638459
0.638462
0.638462
0.638464
0.638466
0.638468
0.63847
0.63847
0.638472
0.638475
0.638477
0.638479
0.638479
0.638481
0.638483
0.638485
0.638488
0.638488
0.63849
0.638492
0.638494
0.638496
0.638496
0.638499
0.638501
0.638503
0.638505
0.638505
0.638508
0.63851
0.638512
0.638514
0.638514
0.638517
0.638519
0.638521
0.638523
0.638523
0.638526
0.638528
0.63853
0.638532
0.638532
0.638535
0.638537
0.638539
0.638541
0.638541
0.638544
0.638546
0.638548
0.638551
0.638551
0.638553
0.638555
0.638558
0.63856
0.63856
0.638562
0.638565
0.638567
0.638569
0.638569
0.638572
0.638574
0.638576
0.638579
0.638579
0.638581
0.638583
0.638586
0.638588
0.638588
0.63859
0.638593
0.638595
0.638597
0.638597
0.6386
0.638602
0.638605
0.638607
0.638607
0.638609
0.638612
0.638614
0.638617
0.638617
0.638619
0.638621
0.638624
0.638626
0.638626
0.638629
0.638631
0.638633
0.638636
0.638636
0.638638
0.638641
0.638643
0.638646
0.638646
0.638648
0.638651
0.638653
0.638655
0.638655
0.638658
0.63866
0.638663
0.638665
0.638665
0.638668
0.63867
0.638673
0.638675
0.638675
0.638678
0.638681
0.638683
0.638686
0.638686
0.638688
0.638691
0.638693
0.638696
0.638696
0.638698
0.638701
0.638703
0.638706
0.638706
0.638708
0.638711
0.638714
0.638716
0.638716
0.638719
0.638721
0.638724
0.638726
0.638726
0.638729
0.638732
0.638734
0.638737
0.638737
0.638739
0.638742
0.638745
0.638747
0.638747
0.63875
0.638752
0.638755
0.638758
0.638758
0.63876
0.638763
0.638766
0.638768
0.638768
0.638771
0.638774
0.638776
0.638779
0.638779
0.638782
0.638784
0.638787
0.63879
0.63879
0.638792
0.638795
0.638798
0.6388
0.6388
0.638803
0.638806
0.638808
0.638811
0.638811
0.638814
0.638816
0.638819
0.638822
0.638822
0.638825
0.638827
0.63883
0.638833
0.638833
0.638836
0.638838
0.638841
0.638844
0.638844
0.638846
0.638849
0.638852
0.638855
0.638855
0.638858
0.63886
0.638863
0.638866
0.638866
0.638869
0.638871
0.638874
0.638877
0.638877
0.63888
0.638883
0.638885
0.638888
0.638888
0.638891
0.638894
0.638897
0.6389
0.6389
0.638902
0.638905
0.638908
0.638911
0.638911
0.638914
0.638917
0.638919
0.638922
0.638922
0.638925
0.638928
0.638931
0.638934
0.638934
0.638937
0.63894
0.638942
0.638945
0.638945
0.638948
0.638951
0.638954
0.638957
0.638957
0.63896
0.638963
0.638966
0.638969
0.638969
0.638971
0.638974
0.638977
0.63898
0.63898
0.638983
0.638986
0.638989
0.638992
0.638992
0.638995
0.638998
0.639001
0.639004
0.639004
0.639007
0.63901
0.639013
0.639016
0.639016
0.639019
0.639022
0.639025
0.639028
0.639028
0.639031
0.639034
0.639037
0.63904
0.63904
0.639043
0.639046
0.639049
0.639052
0.639052
0.639055
0.639058
0.639061
0.639064
0.639064
0.639067
0.63907
0.639073
0.639076
0.639076
0.639079
0.639082
0.639085
0.639088
0.639088
0.639092
0.639095
0.639098
0.639101
0.639101
0.639104
0.639107
0.63911
0.639113
0.639113
0.639116
0.639119
0.639123
0.639126
0.639126
0.639129
0.639132
0.639135
0.639138
0.639138
0.639141
0.639144
0.639148
0.639151
0.639151
0.639154
0.639157
0.63916
0.639163
0.639163
0.639166
0.63917
0.639173
0.639176
0.639176
0.639179
0.639182
0.639185
0.639189
0.639189
0.639192
0.639195
0.639198
0.639202
0.639202
0.639205
0.639208
0.639211
0.639215
0.639215
0.639218
0.639221
0.639224
0.639228
0.639228
0.639231
0.639234
0.639237
0.639241
0.639241
0.639244
0.639247
0.639251
0.639254
0.639254
0.639257
0.63926
0.639264
0.639267
0.639267
0.63927
0.639274
0.639277
0.63928
0.63928
0.639284
0.639287
0.63929
0.639294
0.639294
0.639297
0.6393
0.639304
0.639307
0.639307
0.63931
0.639314
0.639317
0.63932
0.63932
0.639324
0.639327
0.63933
0.639334
0.639334
0.639337
0.639341
0.639344
0.639347
0.639347
0.639351
0.639354
0.639357
0.639361
0.639361
0.639364
0.639368
0.639371
0.639375
0.639375
0.639378
0.639381
0.639385
0.639388
0.639388
0.639392
0.639395
0.639399
0.639402
0.639402
0.639406
0.639409
0.639412
0.639416
0.639416
0.639419
0.639423
0.639426
0.63943
0.63943
0.639433
0.639437
0.63944
0.639444
0.639444
0.639447
0.639451
0.639454
0.639458
0.639458
0.639461
0.639465
0.639468
0.639472
0.639472
0.639476
0.639479
0.639483
0.639486
0.639486
0.63949
0.639493
0.639497
0.6395
0.6395
0.639504
0.639508
0.639511
0.639515
0.639515
0.639518
0.639522
0.639526
0.639529
0.639529
0.639533
0.639536
0.63954
0.639544
0.639544
0.639547
0.639551
0.639554
0.639558
0.639558
0.639562
0.639565
0.639569
0.639573
0.639573
0.639576
0.63958
0.639584
0.639587
0.639587
0.639591
0.639595
0.639598
0.639602
0.639602
0.639606
0.639609
0.639613
0.639617
0.639617
0.63962
0.639624
0.639628
0.639631
0.639631
0.639635
0.639639
0.639643
0.639646
0.639646
0.63965
0.639654
0.639657
0.639661
0.639661
0.639665
0.639669
0.639672
0.639676
0.639676
0.63968
0.639684
0.639687
0.639691
0.639691
0.639695
0.639699
0.639702
0.639706
0.639706
0.63971
0.639714
0.639718
0.639721
0.639721
0.639725
0.639729
0.639733
0.639737
0.639737
0.63974
0.639744
0.639748
0.639752
0.639752
0.639756
0.63976
0.639764
0.639767
0.639767
0.639771
0.639775
0.639779
0.639783
0.639783
0.639787
0.639791
0.639795
0.639799
0.639799
0.639802
0.639806
0.63981
0.639814
0.639814
0.639818
0.639822
0.639826
0.63983
0.63983
0.639834
0.639838
0.639842
0.639846
0.639846
0.63985
0.639854
0.639857
0.639861
0.639861
0.639865
0.639869
0.639873
0.639877
0.639877
0.639881
0.639885
0.639889
0.639893
0.639893
0.639897
0.639901
0.639905
0.639909
0.639909
0.639913
0.639917
0.639921
0.639925
0.639925
0.639929
0.639933
0.639937
0.639941
0.639941
0.639945
0.639949
0.639953
0.639957
0.639957
0.639962
0.639966
0.63997
0.639974
0.639974
0.639978
0.639982
0.639986
0.63999
0.63999
0.639994
0.639998
0.640002
0.640006
0.640006
0.640011
0.640015
0.640019
0.640023
0.640023
0.640027
0.640031
0.640035
0.640039
0.640039
0.640043
0.640048
0.640052
0.640056
0.640056
0.64006
0.640064
0.640068
0.640073
0.640073
0.640077
0.640081
0.640085
0.640089
0.640089
0.640093
0.640098
0.640102
0.640106
0.640106
0.64011
0.640114
0.640119
0.640123
0.640123
0.640127
0.640131
0.640135
0.64014
0.64014
0.640144
0.640148
0.640152
0.640157
0.640157
0.640161
0.640165
0.640169
0.640174
0.640174
0.640178
0.640182
0.640186
0.640191
0.640191
0.640195
0.640199
0.640204
0.640208
0.640208
0.640212
0.640216
0.640221
0.640225
0.640225
0.640229
0.640234
0.640238
0.640242
0.640242
0.640247
0.640251
0.640255
0.64026
0.64026
0.640264
0.640268
0.640273
0.640277
0.640277
0.640281
0.640286
0.64029
0.640294
0.640294
0.640299
0.640303
0.640307
0.640312
0.640312
0.640316
0.640321
0.640325
0.64033
0.64033
0.640334
0.640338
0.640343
0.640347
0.640347
0.640352
0.640356
0.640361
0.640365
0.640365
0.64037
0.640374
0.640379
0.640383
0.640383
0.640387
0.640392
0.640396
0.640401
0.640401
0.640405
0.64041
0.640414
0.640419
0.640419
0.640423
0.640428
0.640432
0.640437
0.640437
0.640441
0.640446
0.64045
0.640455
0.640455
0.64046
0.640464
0.640469
0.640473
0.640473
0.640478
0.640482
0.640487
0.640491
0.640491
0.640496
0.640501
0.640505
0.64051
0.64051
0.640514
0.640519
0.640523
0.640528
0.640528
0.640533
0.640537
0.640542
0.640546
0.640546
0.640551
0.640556
0.64056
0.640565
0.640565
0.64057
0.640574
0.640579
0.640583
0.640583
0.640588
0.640593
0.640597
0.640602
0.640602
0.640607
0.640611
0.640616
0.640621
0.640621
0.640625
0.64063
0.640635
0.640639
0.640639
0.640644
0.640649
0.640654
0.640658
0.640658
0.640663
0.640668
0.640672
0.640677
0.640677
0.640682
0.640687
0.640691
0.640696
0.640696
0.640701
0.640706
0.64071
0.640715
0.640715
0.64072
0.640725
0.640729
0.640734
0.640734
0.640739
0.640744
0.640749
0.640753
0.640753
0.640758
0.640763
0.640768
0.640773
0.640773
0.640777
0.640782
0.640787
0.640792
0.640792
0.640797
0.640801
0.640806
0.640811
0.640811
0.640816
0.640821
0.640826
0.64083
0.64083
0.640835
0.64084
0.640845
0.64085
0.64085
0.640855
0.64086
0.640864
0.640869
0.640869
0.640874
0.640879
0.640884
0.640889
0.640889
0.640894
0.640899
0.640904
0.640909
0.640909
0.640914
0.640919
0.640924
0.640929
0.640929
0.640934
0.640939
0.640944
0.640948
0.640948
0.640953
0.640958
0.640963
0.640968
0.640968
0.640973
0.640978
0.640983
0.640988
0.640988
0.640993
0.640998
0.641003
0.641008
0.641008
0.641013
0.641019
0.641024
0.641029
0.641029
0.641034
0.641039
0.641044
0.641049
0.641049
0.641054
0.641059
0.641064
0.641069
0.641069
0.641074
0.641079
0.641084
0.641089
0.641089
0.641094
0.641099
0.641105
0.64111
0.64111
0.641115
0.64112
0.641125
0.64113
0.64113
0.641135
0.64114
0.641145
0.641151
0.641151
0.641156
0.641161
0.641166
0.641171
0.641171
0.641176
0.641182
0.641187
0.641192
0.641192
0.641197
0.641202
0.641207
0.641213
0.641213
0.641218
0.641223
0.641228
0.641233
0.641233
0.641239
0.641244
0.641249
0.641254
0.641254
0.641259
0.641265
0.64127
0.641275
0.641275
0.64128
0.641286
0.641291
0.641296
0.641296
0.641301
0.641307
0.641312
0.641317
0.641317
0.641322
0.641328
0.641333
0.641338
0.641338
0.641343
0.641349
0.641354
0.641359
0.641359
0.641365
0.64137
0.641375
0.641381
0.641381
0.641386
0.641391
0.641396
0.641402
0.641402
0.641407
0.641412
0.641418
0.641423
0.641423
0.641428
0.641434
0.641439
0.641444
0.641444
0.64145
0.641455
0.641461
0.641466
0.641466
0.641471
0.641477
0.641482
0.641488
0.641488
0.641493
0.641499
0.641504
0.64151
0.64151
0.641515
0.64152
0.641526
0.641531
0.641531
0.641537
0.641542
0.641548
0.641553
0.641553
0.641559
0.641564
0.64157
0.641575
0.641575
0.641581
0.641586
0.641592
0.641597
0.641597
0.641603
0.641608
0.641614
0.641619
0.641619
0.641625
0.64163
0.641636
0.641641
0.641641
0.641647
0.641652
0.641658
0.641663
0.641663
0.641669
0.641675
0.64168
0.641686
0.641686
0.641691
0.641697
0.641702
0.641708
0.641708
0.641714
0.641719
0.641725
0.64173
0.64173
0.641736
0.641742
0.641747
0.641753
0.641753
0.641758
0.641764
0.64177
0.641775
0.641775
0.641781
0.641787
0.641792
0.641798
0.641798
0.641804
0.641809
0.641815
0.641821
0.641821
0.641826
0.641832
0.641838
0.641843
0.641843
0.641849
0.641855
0.64186
0.641866
0.641866
0.641872
0.641878
0.641883
0.641889
0.641889
0.641895
0.6419
0.641906
0.641912
0.641912
0.641918
0.641923
0.641929
0.641935
0.641935
0.641941
0.641946
0.641952
0.641958
0.641958
0.641964
0.641969
0.641975
0.641981
0.641981
0.641987
0.641992
0.641998
0.642004
0.642004
0.64201
0.642016
0.642021
0.642027
0.642027
0.642033
0.642039
0.642045
0.642051
0.642051
0.642056
0.642062
0.642068
0.642074
0.642074
0.64208
0.642086
0.642092
0.642098
0.642098
0.642104
0.64211
0.642115
0.642121
0.642121
0.642127
0.642133
0.642139
0.642145
0.642145
0.642151
0.642157
0.642163
0.642169
0.642169
0.642175
0.642181
0.642187
0.642193
0.642193
0.642199
0.642205
0.642211
0.642217
0.642217
0.642223
0.642229
0.642234
0.64224
0.64224
0.642246
0.642252
0.642258
0.642265
0.642265
0.642271
0.642277
0.642283
0.642289
0.642289
0.642295
0.642301
0.642307
0.642313
0.642313
0.642319
0.642325
0.642331
0.642337
0.642337
0.642343
0.642349
0.642355
0.642361
0.642361
0.642367
0.642373
0.64238
0.642386
0.642386
0.642392
0.642398
0.642404
0.64241
0.64241
0.642416
0.642422
0.642428
0.642435
0.642435
0.642441
0.642447
0.642453
0.642459
0.642459
0.642465
0.642471
0.642478
0.642484
0.642484
0.64249
0.642496
0.642502
0.642508
0.642508
0.642515
0.642521
0.642527
0.642533
0.642533
0.642539
0.642546
0.642552
0.642558
0.642558
0.642564
0.64257
0.642577
0.642583
0.642583
0.642589
0.642595
0.642601
0.642608
0.642608
0.642614
0.64262
0.642626
0.642633
0.642633
0.642639
0.642645
0.642652
0.642658
0.642658
0.642664
0.642671
0.642677
0.642683
0.642683
0.64269
0.642696
0.642702
0.642709
0.642709
0.642715
0.642721
0.642728
0.642734
0.642734
0.64274
0.642747
0.642753
0.64276
0.64276
0.642766
0.642772
0.642779
0.642785
0.642785
0.642792
0.642798
0.642804
0.642811
0.642811
0.642817
0.642824
0.64283
0.642836
0.642836
0.642843
0.642849
0.642856
0.642862
0.642862
0.642869
0.642875
0.642882
0.642888
0.642888
0.642894
0.642901
0.642907
0.642914
0.642914
0.64292
0.642927
0.642933
0.64294
0.64294
0.642946
0.642953
0.642959
0.642966
0.642966
0.642972
0.642979
0.642985
0.642992
0.642992
0.642999
0.643005
0.643012
0.643018
0.643018
0.643025
0.643031
0.643038
0.643044
0.643044
0.643051
0.643058
0.643064
0.643071
0.643071
0.643077
0.643084
0.64309
0.643097
0.643097
0.643104
0.64311
0.643117
0.643124
0.643124
0.64313
0.643137
0.643143
0.64315
0.64315
0.643157
0.643163
0.64317
0.643177
0.643177
0.643183
0.64319
0.643196
0.643203
0.643203
0.64321
0.643216
0.643223
0.64323
0.64323
0.643236
0.643243
0.64325
0.643257
0.643257
0.643263
0.64327
0.643277
0.643284
0.643284
0.64329
0.643297
0.643304
0.643311
0.643311
0.643317
0.643324
0.643331
0.643338
0.643338
0.643345
0.643351
0.643358
0.643365
0.643365
0.643372
0.643379
0.643386
0.643392
0.643392
0.643399
0.643406
0.643413
0.64342
0.64342
0.643426
0.643433
0.64344
0.643447
0.643447
0.643454
0.643461
0.643468
0.643474
0.643474
0.643481
0.643488
0.643495
0.643502
0.643502
0.643509
0.643516
0.643523
0.64353
0.64353
0.643537
0.643543
0.64355
0.643557
0.643557
0.643564
0.643571
0.643578
0.643585
0.643585
0.643592
0.643599
0.643606
0.643613
0.643613
0.64362
0.643627
0.643634
0.643641
0.643641
0.643648
0.643655
0.643662
0.643669
0.643669
0.643676
0.643683
0.64369
0.643697
0.643697
0.643704
0.643711
0.643718
0.643725
0.643725
0.643732
0.643739
0.643746
0.643753
0.643753
0.64376
0.643767
0.643774
0.643781
0.643781
0.643788
0.643795
0.643802
0.643809
0.643809
0.643816
0.643823
0.643831
0.643838
0.643838
0.643845
0.643852
0.643859
0.643866
0.643866
0.643873
0.64388
0.643887
0.643895
0.643895
0.643902
0.643909
0.643916
0.643923
0.643923
0.643931
0.643938
0.643945
0.643952
0.643952
0.643959
0.643967
0.643974
0.643981
0.643981
0.643988
0.643996
0.644003
0.64401
0.64401
0.644017
0.644025
0.644032
0.644039
0.644039
0.644046
0.644054
0.644061
0.644068
0.644068
0.644075
0.644083
0.64409
0.644097
0.644097
0.644105
0.644112
0.644119
0.644126
0.644126
0.644134
0.644141
0.644148
0.644156
0.644156
0.644163
0.64417
0.644178
0.644185
0.644185
0.644192
0.6442
0.644207
0.644214
0.644214
0.644222
0.644229
0.644237
0.644244
0.644244
0.644251
0.644259
0.644266
0.644273
0.644273
0.644281
0.644288
0.644296
0.644303
0.644303
0.64431
0.644318
0.644325
0.644333
0.644333
0.64434
0.644348
0.644355
0.644362
0.644362
0.64437
0.644377
0.644385
0.644392
0.644392
0.6444
0.644407
0.644415
0.644422
0.644422
0.64443
0.644437
0.644445
0.644452
0.644452
0.64446
0.644467
0.644475
0.644482
0.644482
0.64449
0.644497
0.644505
0.644512
0.644512
0.64452
0.644527
0.644535
0.644543
0.644543
0.64455
0.644558
0.644565
0.644573
0.644573
0.644581
0.644588
0.644596
0.644604
0.644604
0.644611
0.644619
0.644626
0.644634
0.644634
0.644642
0.644649
0.644657
0.644665
0.644665
0.644672
0.64468
0.644688
0.644695
0.644695
0.644703
0.644711
0.644719
0.644726
0.644726
0.644734
0.644742
0.644749
0.644757
0.644757
0.644765
0.644772
0.64478
0.644788
0.644788
0.644796
0.644803
0.644811
0.644819
0.644819
0.644827
0.644834
0.644842
0.64485
0.64485
0.644858
0.644865
0.644873
0.644881
0.644881
0.644889
0.644897
0.644904
0.644912
0.644912
0.64492
0.644928
0.644936
0.644943
0.644943
0.644951
0.644959
0.644967
0.644975
0.644975
0.644983
0.64499
0.644998
0.645006
0.645006
0.645014
0.645022
0.64503
0.645038
0.645038
0.645045
0.645053
0.645061
0.645069
0.645069
0.645077
0.645085
0.645093
0.645101
0.645101
0.645108
0.645116
0.645124
0.645132
0.645132
0.64514
0.645148
0.645156
0.645164
0.645164
0.645172
0.64518
0.645188
0.645196
0.645196
0.645204
0.645212
0.64522
0.645228
0.645228
0.645236
0.645244
0.645252
0.64526
0.64526
0.645269
0.645277
0.645285
0.645293
0.645293
0.645301
0.645309
0.645317
0.645325
0.645325
0.645333
0.645341
0.645349
0.645357
0.645357
0.645365
0.645373
0.645382
0.64539
0.64539
0.645398
0.645406
0.645414
0.645422
0.645422
0.64543
0.645438
0.645447
0.645455
0.645455
0.645463
0.645471
0.645479
0.645487
0.645487
0.645496
0.645504
0.645512
0.64552
0.64552
0.645528
0.645536
0.645545
0.645553
0.645553
0.645561
0.645569
0.645577
0.645586
0.645586
0.645594
0.645602
0.64561
0.645619
0.645619
0.645627
0.645635
0.645643
0.645651
0.645651
0.64566
0.645668
0.645676
0.645685
0.645685
0.645693
0.645701
0.645709
0.645718
0.645718
0.645726
0.645734
0.645742
0.645751
0.645751
0.645759
0.645767
0.645776
0.645784
0.645784
0.645792
0.645801
0.645809
0.645818
0.645818
0.645826
0.645834
0.645843
0.645851
0.645851
0.64586
0.645868
0.645877
0.645885
0.645885
0.645893
0.645902
0.64591
0.645919
0.645919
0.645927
0.645936
0.645944
0.645953
0.645953
0.645961
0.645969
0.645978
0.645986
0.645986
0.645995
0.646003
0.646012
0.64602
0.64602
0.646029
0.646037
0.646046
0.646054
0.646054
0.646063
0.646071
0.64608
0.646088
0.646088
0.646097
0.646106
0.646114
0.646123
0.646123
0.646131
0.64614
0.646148
0.646157
0.646157
0.646165
0.646174
0.646183
0.646191
0.646191
0.6462
0.646208
0.646217
0.646226
0.646226
0.646234
0.646243
0.646251
0.64626
0.64626
0.646269
0.646277
0.646286
0.646295
0.646295
0.646303
0.646312
0.64632
0.646329
0.646329
0.646338
0.646346
0.646355
0.646364
0.646364
0.646372
0.646381
0.64639
0.646398
0.646398
0.646407
0.646416
0.646425
0.646433
0.646433
0.646442
0.646451
0.64646
0.646468
0.646468
0.646477
0.646486
0.646495
0.646504
0.646504
0.646512
0.646521
0.64653
0.646539
0.646539
0.646548
0.646557
0.646565
0.646574
0.646574
0.646583
0.646592
0.646601
0.64661
0.64661
0.646618
0.646627
0.646636
0.646645
0.646645
0.646654
0.646663
0.646672
0.646681
0.646681
0.646689
0.646698
0.646707
0.646716
0.646716
0.646725
0.646734
0.646743
0.646752
0.646752
0.646761
0.64677
0.646779
0.646788
0.646788
0.646797
0.646805
0.646814
0.646823
0.646823
0.646832
0.646841
0.64685
0.646859
0.646859
0.646868
0.646877
0.646886
0.646895
0.646895
0.646904
0.646913
0.646922
0.646931
0.646931
0.64694
0.646949
0.646958
0.646967
0.646967
0.646976
0.646985
0.646994
0.647003
0.647003
0.647012
0.647021
0.647031
0.64704
0.64704
0.647049
0.647058
0.647067
0.647076
0.647076
0.647085
0.647094
0.647103
0.647113
0.647113
0.647122
0.647131
0.64714
0.647149
0.647149
0.647158
0.647168
0.647177
0.647186
0.647186
0.647195
0.647204
0.647214
0.647223
0.647223
0.647232
0.647241
0.647251
0.64726
0.64726
0.647269
0.647278
0.647288
0.647297
0.647297
0.647306
0.647315
0.647325
0.647334
0.647334
0.647343
0.647352
0.647362
0.647371
0.647371
0.64738
0.647389
0.647399
0.647408
0.647408
0.647417
0.647427
0.647436
0.647445
0.647445
0.647455
0.647464
0.647473
0.647483
0.647483
0.647492
0.647501
0.647511
0.64752
0.64752
0.647529
0.647539
0.647548
0.647558
0.647558
0.647567
0.647576
0.647586
0.647595
0.647595
0.647604
0.647614
0.647623
0.647633
0.647633
0.647642
0.647652
0.647661
0.64767
0.64767
0.64768
0.647689
0.647699
0.647708
0.647708
0.647718
0.647727
0.647736
0.647746
0.647746
0.647756
0.647765
0.647775
0.647784
0.647784
0.647794
0.647803
0.647813
0.647822
0.647822
0.647832
0.647842
0.647851
0.647861
0.647861
0.64787
0.64788
0.64789
0.647899
0.647899
0.647909
0.647918
0.647928
0.647938
0.647938
0.647947
0.647957
0.647966
0.647976
0.647976
0.647986
0.647995
0.648005
0.648015
0.648015
0.648024
0.648034
0.648044
0.648053
0.648053
0.648063
0.648073
0.648082
0.648092
0.648092
0.648102
0.648111
0.648121
0.648131
0.648131
0.648141
0.64815
0.64816
0.64817
0.64817
0.648179
0.648189
0.648199
0.648209
0.648209
0.648218
0.648228
0.648238
0.648248
0.648248
0.648257
0.648267
0.648277
0.648287
0.648287
0.648297
0.648306
0.648316
0.648326
0.648326
0.648336
0.648346
0.648355
0.648365
0.648365
0.648375
0.648385
0.648395
0.648404
0.648404
0.648414
0.648424
0.648434
0.648444
0.648444
0.648454
0.648464
0.648474
0.648484
0.648484
0.648494
0.648504
0.648514
0.648524
0.648524
0.648534
0.648544
0.648554
0.648564
0.648564
0.648574
0.648584
0.648594
0.648604
0.648604
0.648614
0.648624
0.648634
0.648644
0.648644
0.648654
0.648664
0.648674
0.648684
0.648684
0.648694
0.648704
0.648714
0.648724
0.648724
0.648734
0.648744
0.648754
0.648764
0.648764
0.648774
0.648784
0.648794
0.648804
0.648804
0.648814
0.648824
0.648835
0.648845
0.648845
0.648855
0.648865
0.648875
0.648885
0.648885
0.648895
0.648905
0.648915
0.648926
0.648926
0.648936
0.648946
0.648956
0.648966
0.648966
0.648976
0.648987
0.648997
0.649007
0.649007
0.649017
0.649027
0.649037
0.649048
0.649048
0.649058
0.649068
0.649078
0.649088
0.649088
0.649099
0.649109
0.649119
0.64913
0.64913
0.64914
0.64915
0.649161
0.649171
0.649171
0.649181
0.649192
0.649202
0.649212
0.649212
0.649223
0.649233
0.649243
0.649254
0.649254
0.649264
0.649274
0.649285
0.649295
0.649295
0.649305
0.649316
0.649326
0.649337
0.649337
0.649347
0.649357
0.649368
0.649378
0.649378
0.649389
0.649399
0.649409
0.64942
0.64942
0.64943
0.649441
0.649451
0.649462
0.649462
0.649472
0.649483
0.649493
0.649503
0.649503
0.649514
0.649524
0.649535
0.649545
0.649545
0.649556
0.649566
0.649577
0.649587
0.649587
0.649598
0.649608
0.649619
0.649629
0.649629
0.64964
0.64965
0.649661
0.649671
0.649671
0.649682
0.649692
0.649703
0.649714
0.649714
0.649724
0.649735
0.649745
0.649756
0.649756
0.649767
0.649777
0.649788
0.649798
0.649798
0.649809
0.64982
0.64983
0.649841
0.649841
0.649852
0.649863
0.649873
0.649884
0.649884
0.649895
0.649905
0.649916
0.649927
0.649927
0.649938
0.649948
0.649959
0.64997
0.64997
0.649981
0.649991
0.650002
0.650013
0.650013
0.650024
0.650034
0.650045
0.650056
0.650056
0.650067
0.650077
0.650088
0.650099
0.650099
0.65011
0.650121
0.650131
0.650142
0.650142
0.650153
0.650164
0.650175
0.650186
0.650186
0.650196
0.650207
0.650218
0.650229
0.650229
0.65024
0.650251
0.650261
0.650272
0.650272
0.650283
0.650294
0.650305
0.650316
0.650316
0.650327
0.650338
0.650348
0.650359
0.650359
0.65037
0.650381
0.650392
0.650403
0.650403
0.650414
0.650425
0.650436
0.650447
0.650447
0.650458
0.650469
0.65048
0.650491
0.650491
0.650502
0.650513
0.650524
0.650535
0.650535
0.650546
0.650557
0.650568
0.650579
0.650579
0.65059
0.650602
0.650613
0.650624
0.650624
0.650635
0.650646
0.650657
0.650668
0.650668
0.650679
0.65069
0.650702
0.650713
0.650713
0.650724
0.650735
0.650746
0.650757
0.650757
0.650768
0.65078
0.650791
0.650802
0.650802
0.650813
0.650824
0.650835
0.650847
0.650847
0.650858
0.650869
0.65088
0.650891
0.650891
0.650903
0.650914
0.650925
0.650936
0.650936
0.650947
0.650959
0.65097
0.650981
0.650981
0.650992
0.651004
0.651015
0.651026
0.651026
0.651037
0.651049
0.65106
0.651071
0.651071
0.651082
0.651094
0.651105
0.651116
0.651116
0.651128
0.651139
0.65115
0.651162
0.651162
0.651173
0.651184
0.651196
0.651207
0.651207
0.651219
0.65123
0.651242
0.651253
0.651253
0.651264
0.651276
0.651287
0.651299
0.651299
0.65131
0.651322
0.651333
0.651345
0.651345
0.651356
0.651368
0.651379
0.651391
0.651391
0.651402
0.651414
0.651425
0.651437
0.651437
0.651448
0.65146
0.651471
0.651483
0.651483
0.651494
0.651506
0.651517
0.651529
0.651529
0.65154
0.651552
0.651563
0.651575
0.651575
0.651587
0.651598
0.65161
0.651621
0.651621
0.651633
0.651644
0.651656
0.651668
0.651668
0.651679
0.651691
0.651702
0.651714
0.651714
0.651726
0.651737
0.651749
0.651761
0.651761
0.651772
0.651784
0.651796
0.651807
0.651807
0.651819
0.651831
0.651842
0.651854
0.651854
0.651866
0.651878
0.651889
0.651901
0.651901
0.651913
0.651925
0.651936
0.651948
0.651948
0.65196
0.651972
0.651984
0.651995
0.651995
0.652007
0.652019
0.652031
0.652043
0.652043
0.652055
0.652066
0.652078
0.65209
0.65209
0.652102
0.652114
0.652126
0.652138
0.652138
0.652149
0.652161
0.652173
0.652185
0.652185
0.652197
0.652209
0.652221
0.652233
0.652233
0.652245
0.652257
0.652268
0.65228
0.65228
0.652292
0.652304
0.652316
0.652328
0.652328
0.65234
0.652352
0.652364
0.652376
0.652376
0.652388
0.6524
0.652412
0.652424
0.652424
0.652436
0.652448
0.65246
0.652472
0.652472
0.652484