<?xml version="1.0"?>
<VTKFile type="UnstructuredGrid" version="0.1" byte_order="LittleEndian">
<UnstructuredGrid>
<Piece NumberOfPoints="5000" NumberOfCells="4000">
<PointData Scalars="Reaction 0">
<DataArray type="Float32" Name="Reaction 0" format="ascii">
0.549112
0.549112
0.549112
0.549112
0.549112
0.549112
0.549112
0.549112
0.549113
0.549113
0.549113
0.549114
0.549114
0.549115
0.549115
0.549115
0.549116
0.549116
0.549117
0.549118
0.549118
0.549119
0.54912
0.54912
0.549121
0.549121
0.549122
0.549124
0.549125
0.549126
0.549126
0.549127
0.549128
0.54913
0.549131
0.549131
0.549132
0.549134
0.549135
0.549137
0.549137
0.549138
0.54914
0.549142
0.549144
0.549144
0.549145
0.549147
0.549149
0.549151
0.549151
0.549153
0.549155
0.549157
0.549159
0.549159
0.549161
0.549164
0.549166
0.549168
0.549168
0.549171
0.549173
0.549176
0.549178
0.549178
0.549181
0.549183
0.549186
0.549189
0.549189
0.549192
0.549195
0.549197
0.5492
0.5492
0.549203
0.549206
0.549209
0.549213
0.549213
0.549216
0.549219
0.549222
0.549226
0.549226
0.549229
0.549232
0.549236
0.549239
0.549239
0.549243
0.549247
0.54925
0.549254
0.549254
0.549258
0.549262
0.549265
0.549269
0.549269
0.549273
0.549277
0.549281
0.549286
0.549286
0.54929
0.549294
0.549298
0.549303
0.549303
0.549307
0.549311
0.549316
0.54932
0.54932
0.549325
0.549329
0.549334
0.549339
0.549339
0.549344
0.549348
0.549353
0.549358
0.549358
0.549363
0.549368
0.549373
0.549378
0.549378
0.549383
0.549389
0.549394
0.549399
0.549399
0.549405
0.54941
0.549415
0.549421
0.549421
0.549427
0.549432
0.549438
0.549443
0.549443
0.549449
0.549455
0.549461
0.549467
0.549467
0.549473
0.549479
0.549485
0.549491
0.549491
0.549497
0.549503
0.549509
0.549516
0.549516
0.549522
0.549528
0.549535
0.549541
0.549541
0.549548
0.549555
0.549561
0.549568
0.549568
0.549575
0.549581
0.549588
0.549595
0.549595
0.549602
0.549609
0.549616
0.549623
0.549623
0.54963
0.549638
0.549645
0.549652
0.549652
0.549659
0.549667
0.549674
0.549682
0.549682
0.549689
0.549697
0.549704
0.549712
0.549712
0.54972
0.549728
0.549735
0.549743
0.549743
0.549751
0.549759
0.549767
0.549775
0.549775
0.549783
0.549792
0.5498
0.549808
0.549808
0.549816
0.549825
0.549833
0.549842
0.549842
0.54985
0.549859
0.549868
0.549876
0.549876
0.549885
0.549894
0.549903
0.549911
0.549911
0.54992
0.549929
0.549938
0.549947
0.549947
0.549956
0.549966
0.549975
0.549984
0.549984
0.549993
0.550003
0.550012
0.550022
0.550022
0.550031
0.550041
0.55005
0.55006
0.55006
0.55007
0.55008
0.550089
0.550099
0.550099
0.550109
0.550119
0.550129
0.550139
0.550139
0.550149
0.55016
0.55017
0.55018
0.55018
0.55019
0.550201
0.550211
0.550222
0.550222
0.550232
0.550243
0.550253
0.550264
0.550264
0.550275
0.550286
0.550296
0.550307
0.550307
0.550318
0.550329
0.55034
0.550351
0.550351
0.550362
0.550373
0.550385
0.550396
0.550396
0.550407
0.550419
0.55043
0.550442
0.550442
0.550453
0.550465
0.550476
0.550488
0.550488
0.5505
0.550511
0.550523
0.550535
0.550535
0.550547
0.550559
0.550571
0.550583
0.550583
0.550595
0.550607
0.55062
0.550632
0.550632
0.550644
0.550656
0.550669
0.550681
0.550681
0.550694
0.550706
0.550719
0.550732
0.550732
0.550744
0.550757
0.55077
0.550783
0.550783
0.550796
0.550809
0.550822
0.550835
0.550835
0.550848
0.550861
0.550874
0.550888
0.550888
0.550901
0.550914
0.550928
0.550941
0.550941
0.550955
0.550968
0.550982
0.550996
0.550996
0.551009
0.551023
0.551037
0.551051
0.551051
0.551065
0.551079
0.551093
0.551107
0.551107
0.551121
0.551135
0.551149
0.551164
0.551164
0.551178
0.551192
0.551207
0.551221
0.551221
0.551236
0.55125
0.551265
0.55128
0.55128
0.551295
0.551309
0.551324
0.551339
0.551339
0.551354
0.551369
0.551384
0.551399
0.551399
0.551414
0.551429
0.551445
0.55146
0.55146
0.551475
0.551491
0.551506
0.551522
0.551522
0.551537
0.551553
0.551568
0.551584
0.551584
0.5516
0.551616
0.551631
0.551647
0.551647
0.551663
0.551679
0.551695
0.551711
0.551711
0.551728
0.551744
0.55176
0.551776
0.551776
0.551793
0.551809
0.551826
0.551842
0.551842
0.551859
0.551875
0.551892
0.551909
0.551909
0.551925
0.551942
0.551959
0.551976
0.551976
0.551993
0.55201
0.552027
0.552044
0.552044
0.552061
0.552078
0.552096
0.552113
0.552113
0.55213
0.552148
0.552165
0.552183
0.552183
0.5522
0.552218
0.552236
0.552253
0.552253
0.552271
0.552289
0.552307
0.552325
0.552325
0.552343
0.552361
0.552379
0.552397
0.552397
0.552415
0.552434
0.552452
0.55247
0.55247
0.552489
0.552507
0.552525
0.552544
0.552544
0.552563
0.552581
0.5526
0.552619
0.552619
0.552638
0.552656
0.552675
0.552694
0.552694
0.552713
0.552732
0.552751
0.552771
0.552771
0.55279
0.552809
0.552828
0.552848
0.552848
0.552867
0.552887
0.552906
0.552926
0.552926
0.552945
0.552965
0.552985
0.553004
0.553004
0.553024
0.553044
0.553064
0.553084
0.553084
0.553104
0.553124
0.553144
0.553165
0.553165
0.553185
0.553205
0.553225
0.553246
0.553246
0.553266
0.553287
0.553307
0.553328
0.553328
0.553349
0.553369
0.55339
0.553411
0.553411
0.553432
0.553453
0.553474
0.553495
0.553495
0.553516
0.553537
0.553558
0.553579
0.553579
0.5536
0.553622
0.553643
0.553665
0.553665
0.553686
0.553708
0.553729
0.553751
0.553751
0.553772
0.553794
0.553816
0.553838
0.553838
0.55386
0.553882
0.553904
0.553926
0.553926
0.553948
0.55397
0.553992
0.554014
0.554014
0.554037
0.554059
0.554082
0.554104
0.554104
0.554127
0.554149
0.554172
0.554194
0.554194
0.554217
0.55424
0.554263
0.554286
0.554286
0.554309
0.554332
0.554355
0.554378
0.554378
0.554401
0.554424
0.554447
0.554471
0.554471
0.554494
0.554517
0.554541
0.554564
0.554564
0.554588
0.554611
0.554635
0.554659
0.554659
0.554683
0.554706
0.55473
0.554754
0.554754
0.554778
0.554802
0.554826
0.554851
0.554851
0.554875
0.554899
0.554923
0.554948
0.554948
0.554972
0.554996
0.555021
0.555046
0.555046
0.55507
0.555095
0.55512
0.555144
0.555144
0.555169
0.555194
0.555219
0.555244
0.555244
0.555269
0.555294
0.555319
0.555344
0.555344
0.55537
0.555395
0.55542
0.555446
0.555446
0.555471
0.555497
0.555522
0.555548
0.555548
0.555573
0.555599
0.555625
0.555651
0.555651
0.555677
0.555703
0.555729
0.555755
0.555755
0.555781
0.555807
0.555833
0.555859
0.555859
0.555886
0.555912
0.555938
0.555965
0.555965
0.555991
0.556018
0.556045
0.556071
0.556071
0.556098
0.556125
0.556152
0.556178
0.556178
0.556205
0.556232
0.556259
0.556287
0.556287
0.556314
0.556341
0.556368
0.556396
0.556396
0.556423
0.55645
0.556478
0.556505
0.556505
0.556533
0.556561
0.556588
0.556616
0.556616
0.556644
0.556672
0.5567
0.556727
0.556727
0.556755
0.556784
0.556812
0.55684
0.55684
0.556868
0.556896
0.556925
0.556953
0.556953
0.556982
0.55701
0.557039
0.557067
0.557067
0.557096
0.557125
0.557153
0.557182
0.557182
0.557211
0.55724
0.557269
0.557298
0.557298
0.557327
0.557356
0.557385
0.557415
0.557415
0.557444
0.557473
0.557503
0.557532
0.557532
0.557562
0.557591
0.557621
0.557651
0.557651
0.55768
0.55771
0.55774
0.55777
0.55777
0.5578
0.55783
0.55786
0.55789
0.55789
0.55792
0.55795
0.557981
0.558011
0.558011
0.558041
0.558072
0.558102
0.558133
0.558133
0.558163
0.558194
0.558225
0.558256
0.558256
0.558286
0.558317
0.558348
0.558379
0.558379
0.55841
0.558441
0.558472
0.558504
0.558504
0.558535
0.558566
0.558598
0.558629
0.558629
0.55866
0.558692
0.558724
0.558755
0.558755
0.558787
0.558819
0.55885
0.558882
0.558882
0.558914
0.558946
0.558978
0.55901
0.55901
0.559042
0.559075
0.559107
0.559139
0.559139
0.559172
0.559204
0.559236
0.559269
0.559269
0.559302
0.559334
0.559367
0.5594
0.5594
0.559432
0.559465
0.559498
0.559531
0.559531
0.559564
0.559597
0.55963
0.559664
0.559664
0.559697
0.55973
0.559763
0.559797
0.559797
0.55983
0.559863
0.559896
0.559929
0.559929
0.559962
0.559993
0.560024
0.560054
0.560054
0.560083
0.560112
0.560141
0.560169
0.560169
0.560198
0.560227
0.560255
0.560284
0.560284
0.560313
0.560342
0.560371
0.5604
0.5604
0.560429
0.560458
0.560487
0.560516
0.560516
0.560545
0.560574
0.560604
0.560633
0.560633
0.560662
0.560692
0.560721
0.560751
0.560751
0.56078
0.56081
0.560839
0.560869
0.560869
0.560899
0.560929
0.560958
0.560988
0.560988
0.561018
0.561048
0.561078
0.561108
0.561108
0.561138
0.561168
0.561199
0.561229
0.561229
0.561259
0.561289
0.56132
0.56135
0.56135
0.561381
0.561411
0.561442
0.561472
0.561472
0.561503
0.561534
0.561564
0.561595
0.561595
0.561626
0.561657
0.561688
0.561719
0.561719
0.56175
0.561781
0.561812
0.561843
0.561843
0.561874
0.561905
0.561937
0.561968
0.561968
0.561999
0.562031
0.562062
0.562093
0.562093
0.562125
0.562157
0.562188
0.56222
0.56222
0.562252
0.562283
0.562315
0.562347
0.562347
0.562379
0.562411
0.562443
0.562475
0.562475
0.562507
0.562539
0.562571
0.562603
0.562603
0.562635
0.562668
0.5627
0.562732
0.562732
0.562765
0.562797
0.56283
0.562862
0.562862
0.562895
0.562928
0.56296
0.562993
0.562993
0.563026
0.563058
0.563091
0.563124
0.563124
0.563157
0.56319
0.563223
0.563256
0.563256
0.563289
0.563322
0.563356
0.563389
0.563389
0.563422
0.563455
0.563489
0.563522
0.563522
0.563556
0.563589
0.563623
0.563656
0.563656
0.56369
0.563724
0.563757
0.563791
0.563791
0.563825
0.563859
0.563892
0.563926
0.563926
0.56396
0.563994
0.564028
0.564062
0.564062
0.564097
0.564131
0.564165
0.564199
0.564199
0.564234
0.564268
0.564302
0.564337
0.564337
0.564371
0.564406
0.56444
0.564475
0.564475
0.564509
0.564544
0.564579
0.564614
0.564614
0.564648
0.564683
0.564718
0.564753
0.564753
0.564788
0.564823
0.564858
0.564893
0.564893
0.564928
0.564963
0.564999
0.565034
0.565034
0.565069
0.565105
0.56514
0.565175
0.565175
0.565211
0.565246
0.565282
0.565318
0.565318
0.565353
0.565389
0.565425
0.56546
0.56546
0.565496
0.565532
0.565568
0.565604
0.565604
0.56564
0.565676
0.565712
0.565748
0.565748
0.565784
0.56582
0.565856
0.565892
0.565892
0.565928
0.565963
0.565999
0.566034
0.566034
0.566068
0.566102
0.566135
0.566167
0.566167
0.566198
0.566229
0.566259
0.566289
0.566289
0.566318
0.566348
0.566377
0.566407
0.566407
0.566436
0.566466
0.566495
0.566524
0.566524
0.566554
0.566583
0.566613
0.566642
0.566642
0.566672
0.566702
0.566731
0.566761
0.566761
0.566791
0.56682
0.56685
0.56688
0.56688
0.56691
0.566939
0.566969
0.566999
0.566999
0.567029
0.567059
0.567089
0.567119
0.567119
0.567149
0.567179
0.567209
0.567239
0.567239
0.567269
0.5673
0.56733
0.56736
0.56736
0.56739
0.567421
0.567451
0.567481
0.567481
0.567512
0.567542
0.567572
0.567603
0.567603
0.567633
0.567664
0.567695
0.567725
0.567725
0.567756
0.567786
0.567817
0.567848
0.567848
0.567878
0.567909
0.56794
0.567971
0.567971
0.568002
0.568033
0.568063
0.568094
0.568094
0.568125
0.568156
0.568187
0.568218
0.568218
0.568249
0.56828
0.568312
0.568343
0.568343
0.568374
0.568405
0.568436
0.568468
0.568468
0.568499
0.56853
0.568562
0.568593
0.568593
0.568624
0.568656
0.568687
0.568719
0.568719
0.56875
0.568782
0.568813
0.568845
0.568845
0.568877
0.568908
0.56894
0.568972
0.568972
0.569003
0.569035
0.569067
0.569099
0.569099
0.569131
0.569162
0.569194
0.569226
0.569226
0.569258
0.56929
0.569322
0.569354
0.569354
0.569386
0.569418
0.569451
0.569483
0.569483
0.569515
0.569547
0.569579
0.569612
0.569612
0.569644
0.569676
0.569708
0.569741
0.569741
0.569773
0.569806
0.569838
0.569871
0.569871
0.569903
0.569936
0.569968
0.570001
0.570001
0.570033
0.570066
0.570099
0.570131
0.570131
0.570164
0.570197
0.570229
0.570262
0.570262
0.570295
0.570328
0.570361
0.570394
0.570394
0.570426
0.570459
0.570492
0.570525
0.570525
0.570558
0.570591
0.570624
0.570657
0.570657
0.57069
0.570723
0.570756
0.570789
0.570789
0.570821
0.570854
0.570885
0.570917
0.570917
0.570948
0.570979
0.571009
0.571038
0.571038
0.571067
0.571095
0.571123
0.57115
0.57115
0.571177
0.571204
0.57123
0.571256
0.571256
0.571283
0.571309
0.571335
0.571362
0.571362
0.571388
0.571414
0.57144
0.571467
0.571467
0.571493
0.571519
0.571546
0.571572
0.571572
0.571598
0.571625
0.571651
0.571677
0.571677
0.571704
0.57173
0.571757
0.571783
0.571783
0.571809
0.571836
0.571862
0.571889
0.571889
0.571916
0.571942
0.571969
0.571995
0.571995
0.572022
0.572048
0.572075
0.572102
0.572102
0.572128
0.572155
0.572182
0.572209
0.572209
0.572235
0.572262
0.572289
0.572316
0.572316
0.572342
0.572369
0.572396
0.572423
0.572423
0.57245
0.572477
0.572504
0.572531
0.572531
0.572557
0.572584
0.572611
0.572638
0.572638
0.572665
0.572692
0.572719
0.572746
0.572746
0.572774
0.572801
0.572828
0.572855
0.572855
0.572882
0.572909
0.572936
0.572963
0.572963
0.572991
0.573018
0.573045
0.573072
0.573072
0.5731
0.573127
0.573154
0.573181
0.573181
0.573209
0.573236
0.573263
0.573291
0.573291
0.573318
0.573346
0.573373
0.5734
0.5734
0.573428
0.573455
0.573483
0.57351
0.57351
0.573538
0.573565
0.573593
0.57362
0.57362
0.573648
0.573676
0.573703
0.573731
0.573731
0.573758
0.573786
0.573814
0.573841
0.573841
0.573869
0.573897
0.573925
0.573952
0.573952
0.57398
0.574008
0.574036
0.574063
0.574063
0.574091
0.574119
0.574147
0.574175
0.574175
0.574203
0.57423
0.574258
0.574286
0.574286
0.574314
0.574342
0.57437
0.574398
0.574398
0.574425
0.574453
0.574481
0.574508
0.574508
0.574536
0.574563
0.57459
0.574617
0.574617
0.574643
0.574669
0.574694
0.574719
0.574719
0.574744
0.574768
0.574792
0.574815
0.574815
0.574838
0.574861
0.574884
0.574906
0.574906
0.574928
0.57495
0.574972
0.574994
0.574994
0.575016
0.575038
0.57506
0.575082
0.575082
0.575104
0.575126
0.575148
0.575169
0.575169
0.575191
0.575213
0.575235
0.575257
0.575257
0.575279
0.575301
0.575323
0.575345
0.575345
0.575367
0.575389
0.575411
0.575433
0.575433
0.575455
0.575477
0.575499
0.575521
0.575521
0.575543
0.575565
0.575587
0.575609
0.575609
0.575631
0.575653
0.575675
0.575697
0.575697
0.575719
0.575741
0.575763
0.575786
0.575786
0.575808
0.57583
0.575852
0.575874
0.575874
0.575896
0.575918
0.575941
0.575963
0.575963
0.575985
0.576007
0.576029
0.576052
0.576052
0.576074
0.576096
0.576118
0.576141
0.576141
0.576163
0.576185
0.576207
0.57623
0.57623
0.576252
0.576274
0.576297
0.576319
0.576319
0.576341
0.576364
0.576386
0.576408
0.576408
0.576431
0.576453
0.576475
0.576498
0.576498
0.57652
0.576543
0.576565
0.576587
0.576587
0.57661
0.576632
0.576655
0.576677
0.576677
0.5767
0.576722
0.576745
0.576767
0.576767
0.57679
0.576812
0.576835
0.576857
0.576857
0.57688
0.576902
0.576925
0.576947
0.576947
0.57697
0.576992
0.577015
0.577038
0.577038
0.57706
0.577083
0.577105
0.577128
0.577128
0.57715
0.577173
0.577195
0.577218
0.577218
0.57724
0.577262
0.577285
0.577307
0.577307
0.577328
0.57735
0.577371
0.577393
0.577393
0.577413
0.577434
0.577454
0.577474
0.577474
0.577494
0.577514
0.577533
0.577552
0.577552
0.57757
0.577589
0.577607
0.577625
0.577625
0.577643
0.577661
0.577679
0.577696
0.577696
0.577714
0.577732
0.577749
0.577767
0.577767
0.577784
0.577802
0.577819
0.577837
0.577837
0.577854
0.577872
0.57789
0.577907
0.577907
0.577925
0.577942
0.57796
0.577977
0.577977
0.577995
0.578013
0.57803
0.578048
0.578048
0.578065
0.578083
0.578101
0.578118
0.578118
0.578136
0.578153
0.578171
0.578189
0.578189
0.578206
0.578224
0.578242
0.578259
0.578259
0.578277
0.578294
0.578312
0.57833
0.57833
0.578347
0.578365
0.578383
0.5784
0.5784
0.578418
0.578436
0.578453
0.578471
0.578471
0.578489
0.578507
0.578524
0.578542
0.578542
0.57856
0.578577
0.578595
0.578613
0.578613
0.57863
0.578648
0.578666
0.578684
0.578684
0.578701
0.578719
0.578737
0.578755
0.578755
0.578772
0.57879
0.578808
0.578826
0.578826
0.578844
0.578861
0.578879
0.578897
0.578897
0.578915
0.578932
0.57895
0.578968
0.578968
0.578986
0.579004
0.579022
0.579039
0.579039
0.579057
0.579075
0.579093
0.579111
0.579111
0.579128
0.579146
0.579164
0.579182
0.579182
0.5792
0.579217
0.579235
0.579253
0.579253
0.579271
0.579288
0.579306
0.579323
0.579323
0.57934
0.579357
0.579374
0.579391
0.579391
0.579408
0.579424
0.579441
0.579457
0.579457
0.579473
0.579488
0.579504
0.579519
0.579519
0.579534
0.579549
0.579564
0.579578
0.579578
0.579593
0.579607
0.579621
0.579635
0.579635
0.579649
0.579663
0.579677
0.579691
0.579691
0.579705
0.579719
0.579732
0.579746
0.579746
0.57976
0.579774
0.579788
0.579801
0.579801
0.579815
0.579829
0.579843
0.579856
0.579856
0.57987
0.579884
0.579898
0.579912
0.579912
0.579925
0.579939
0.579953
0.579967
0.579967
0.579981
0.579994
0.580008
0.580022
0.580022
0.580036
0.58005
0.580063
0.580077
0.580077
0.580091
0.580105
0.580119
0.580132
0.580132
0.580146
0.58016
0.580174
0.580188
0.580188
0.580202
0.580215
0.580229
0.580243
0.580243
0.580257
0.580271
0.580285
0.580298
0.580298
0.580312
0.580326
0.58034
0.580354
0.580354
0.580368
0.580382
0.580395
0.580409
0.580409
0.580423
0.580437
0.580451
0.580465
0.580465
0.580479
0.580493
0.580506
0.58052
0.58052
0.580534
0.580548
0.580562
0.580576
0.580576
0.58059
0.580604
0.580617
0.580631
0.580631
0.580645
0.580659
0.580673
0.580687
0.580687
0.580701
0.580715
0.580728
0.580742
0.580742
0.580756
0.58077
0.580783
0.580797
0.580797
0.58081
0.580824
0.580837
0.58085
0.58085
0.580863
0.580876
0.580889
0.580902
0.580902
0.580914
0.580927
0.580939
0.580951
0.580951
0.580963
0.580975
0.580987
0.580998
0.580998
0.58101
0.581021
0.581033
0.581044
0.581044
0.581055
0.581066
0.581077
0.581088
0.581088
0.581098
0.581109
0.58112
0.581131
0.581131
0.581142
0.581152
0.581163
0.581174
0.581174
0.581185
0.581195
0.581206
0.581217
0.581217
0.581227
0.581238
0.581249
0.581259
0.581259
0.58127
0.581281
0.581292
0.581302
0.581302
0.581313
0.581324
0.581334
0.581345
0.581345
0.581356
0.581367
0.581377
0.581388
0.581388
0.581399
0.581409
0.58142
0.581431
0.581431
0.581442
0.581452
0.581463
0.581474
0.581474
0.581485
0.581495
0.581506
0.581517
0.581517
0.581527
0.581538
0.581549
0.58156
0.58156
0.58157
0.581581
0.581592
0.581603
0.581603
0.581613
0.581624
0.581635
0.581646
0.581646
0.581656
0.581667
0.581678
0.581689
0.581689
0.581699
0.58171
0.581721
0.581732
0.581732
0.581742
0.581753
0.581764
0.581775
0.581775
0.581785
0.581796
0.581807
0.581817
0.581817
0.581828
0.581839
0.581849
0.58186
0.58186
0.581871
0.581881
0.581892
0.581902
0.581902
0.581912
0.581923
0.581933
0.581943
0.581943
0.581953
0.581963
0.581973
0.581982
0.581982
0.581992
0.582002
0.582011
0.58202
0.58202
0.58203
0.582039
0.582048
0.582057
0.582057
0.582066
0.582074
0.582083
0.582092
0.582092
0.5821
0.582109
0.582117
0.582126
0.582126
0.582134
0.582143
0.582151
0.582159
0.582159
0.582168
0.582176
0.582184
0.582193
0.582193
0.582201
0.582209
0.582218
0.582226
0.582226
0.582234
0.582242
0.582251
0.582259
0.582259
0.582267
0.582276
0.582284
0.582292
0.582292
0.582301
0.582309
0.582317
0.582325
0.582325
0.582334
0.582342
0.58235
0.582359
0.582359
0.582367
0.582375
0.582384
0.582392
0.582392
0.5824
0.582408
0.582417
0.582425
0.582425
0.582433
0.582442
0.58245
0.582458
0.582458
0.582467
0.582475
0.582483
0.582492
0.582492
0.5825
0.582508
0.582517
0.582525
0.582525
0.582533
0.582542
0.58255
0.582558
0.582558
0.582566
0.582575
0.582583
0.582591
0.582591
0.5826
0.582608
0.582616
0.582625
0.582625
0.582633
0.582641
0.582649
0.582658
0.582658
0.582666
0.582674
0.582682
0.58269
0.58269
0.582698
0.582706
0.582714
0.582722
0.582722
0.58273
0.582738
0.582746
0.582753
0.582753
0.582761
0.582768
0.582776
0.582783
0.582783
0.582791
0.582798
0.582805
0.582812
0.582812
0.582819
0.582826
0.582833
0.58284
0.58284
0.582847
0.582853
0.58286
0.582867
0.582867
0.582873
0.58288
0.582887
0.582893
0.582893
0.5829
0.582906
0.582913
0.582919
0.582919
0.582926
0.582932
0.582939
0.582945
0.582945
0.582952
0.582958
0.582964
0.582971
0.582971
0.582977
0.582984
0.58299
0.582997
0.582997
0.583003
0.58301
0.583016
0.583022
0.583022
0.583029
0.583035
0.583042
0.583048
0.583048
0.583055
0.583061
0.583068
0.583074
0.583074
0.583081
0.583087
0.583094
0.5831
0.5831
0.583106
0.583113
0.583119
0.583126
0.583126
0.583132
0.583139
0.583145
0.583152
0.583152
0.583158
0.583165
0.583171
0.583178
0.583178
0.583184
0.583191
0.583197
0.583204
0.583204
0.58321
0.583217
0.583223
0.583229
0.583229
0.583236
0.583242
0.583249
0.583255
0.583255
0.583262
0.583268
0.583274
0.583281
0.583281
0.583287
0.583293
0.583299
0.583306
0.583306
0.583312
0.583318
0.583324
0.58333
0.58333
0.583336
0.583342
0.583348
0.583354
0.583354
0.583359
0.583365
0.583371
0.583376
0.583376
0.583382
0.583388
0.583393
0.583399
0.583399
0.583404
0.583409
0.583415
0.58342
0.58342
0.583425
0.58343
0.583436
0.583441
0.583441
0.583446
0.583451
0.583456
0.583461
0.583461
0.583466
0.583472
0.583477
0.583482
0.583482
0.583487
0.583492
0.583497
0.583502
0.583502
0.583507
0.583512
0.583517
0.583522
0.583522
0.583527
0.583533
0.583538
0.583543
0.583543
0.583548
0.583553
0.583558
0.583563
0.583563
0.583568
0.583573
0.583578
0.583583
0.583583
0.583588
0.583593
0.583599
0.583604
0.583604
0.583609
0.583614
0.583619
0.583624
0.583624
0.583629
0.583634
0.583639
0.583644
0.583644
0.583649
0.583655
0.58366
0.583665
0.583665
0.58367
0.583675
0.58368
0.583685
0.583685
0.58369
0.583695
0.5837
0.583705
0.583705
0.58371
0.583715
0.58372
0.583725
0.583725
0.58373
0.583735
0.58374
0.583745
0.583745
0.58375
0.583755
0.58376
0.583765
0.583765
0.583769
0.583774
0.583779
0.583783
0.583783
0.583788
0.583793
0.583797
0.583802
0.583802
0.583806
0.583811
0.583815
0.583819
0.583819
0.583824
0.583828
0.583832
0.583837
0.583837
0.583841
0.583845
0.583849
0.583854
0.583854
0.583858
0.583862
0.583866
0.58387
0.58387
0.583874
0.583878
0.583882
0.583886
0.583886
0.58389
0.583894
0.583899
0.583903
0.583903
0.583907
0.583911
0.583915
0.583919
0.583919
0.583923
0.583927
0.583931
0.583935
0.583935
0.583939
0.583943
0.583947
0.583951
0.583951
0.583955
0.583959
0.583963
0.583967
0.583967
0.583972
0.583976
0.58398
0.583984
0.583984
0.583988
0.583992
0.583996
0.584
0.584
0.584004
0.584008
0.584012
0.584016
0.584016
0.58402
0.584024
0.584029
0.584033
0.584033
0.584037
0.584041
0.584045
0.584049
0.584049
0.584053
0.584057
0.584061
0.584065
0.584065
0.584069
0.584073
0.584077
0.584081
0.584081
0.584085
0.584089
0.584093
0.584097
0.584097
0.5841
0.584104
0.584108
0.584112
0.584112
0.584116
0.584119
0.584123
0.584127
0.584127
0.584131
0.584134
0.584138
0.584141
0.584141
0.584145
0.584149
0.584152
0.584156
0.584156
0.584159
0.584163
0.584166
0.58417
0.58417
0.584173
0.584176
0.58418
0.584183
0.584183
0.584187
0.58419
0.584193
0.584197
0.584197
0.5842
0.584203
0.584207
0.58421
0.58421
0.584213
0.584216
0.58422
0.584223
0.584223
0.584226
0.58423
0.584233
0.584236
0.584236
0.58424
0.584243
0.584246
0.58425
0.58425
0.584253
0.584256
0.58426
0.584263
0.584263
0.584266
0.58427
0.584273
0.584276
0.584276
0.58428
0.584283
0.584286
0.58429
0.58429
0.584293
0.584296
0.5843
0.584303
0.584303
0.584306
0.58431
0.584313
0.584316
0.584316
0.584319
0.584323
0.584326
0.584329
0.584329
0.584333
0.584336
0.584339
0.584343
0.584343
0.584346
0.584349
0.584352
0.584356
0.584356
0.584359
0.584362
0.584365
0.584368
0.584368
0.584372
0.584375
0.584378
0.584381
0.584381
0.584384
0.584387
0.58439
0.584393
0.584393
0.584396
0.584399
0.584402
0.584405
0.584405
0.584408
0.584411
0.584414
0.584417
0.584417
0.58442
0.584423
0.584426
0.584429
0.584429
0.584431
0.584434
0.584437
0.58444
0.58444
0.584443
0.584446
0.584448
0.584451
0.584451
0.584454
0.584457
0.58446
0.584462
0.584462
0.584465
0.584468
0.584471
0.584473
0.584473
0.584476
0.584479
0.584482
0.584485
0.584485
0.584487
0.58449
0.584493
0.584496
0.584496
0.584499
0.584501
0.584504
0.584507
0.584507
0.58451
0.584513
0.584515
0.584518
0.584518
0.584521
0.584524
0.584527
0.584529
0.584529
0.584532
0.584535
0.584538
0.584541
0.584541
0.584543
0.584546
0.584549
0.584552
0.584552
0.584555
0.584557
0.58456
0.584563
0.584563
0.584566
0.584568
0.584571
0.584574
0.584574
0.584577
0.584579
0.584582
0.584585
0.584585
0.584587
0.58459
0.584593
0.584595
0.584595
0.584598
0.584601
0.584603
0.584606
0.584606
0.584608
0.584611
0.584613
0.584616
0.584616
0.584619
0.584621
0.584624
0.584626
0.584626
0.584629
0.584631
0.584634
0.584636
0.584636
0.584639
0.584641
0.584644
0.584646
0.584646
0.584648
0.584651
0.584653
0.584656
0.584656
0.584658
0.584661
0.584663
0.584665
0.584665
0.584668
0.58467
0.584673
0.584675
0.584675
0.584678
0.58468
0.584682
0.584685
0.584685
0.584687
0.58469
0.584692
0.584694
0.584694
0.584697
0.584699
0.584702
0.584704
0.584704
0.584707
0.584709
0.584712
0.584714
0.584714
0.584716
0.584719
0.584721
0.584724
0.584724
0.584726
0.584729
0.584731
0.584733
0.584733
0.584736
0.584738
0.584741
0.584743
0.584743
0.584746
0.584748
0.58475
0.584753
0.584753
0.584755
0.584757
0.58476
0.584762
0.584762
0.584765
0.584767
0.584769
0.584772
0.584772
0.584774
0.584776
0.584779
0.584781
0.584781
0.584783
0.584785
0.584788
0.58479
0.58479
0.584792
0.584795
0.584797
0.584799
0.584799
0.584801
0.584804
0.584806
0.584808
0.584808
0.58481
0.584812
0.584815
0.584817
0.584817
0.584819
0.584821
0.584823
0.584826
0.584826
0.584828
0.58483
0.584832
0.584834
0.584834
0.584837
0.584839
0.584841
0.584843
0.584843
0.584845
0.584847
0.58485
0.584852
0.584852
0.584854
0.584856
0.584858
0.58486
0.58486
0.584863
0.584865
0.584867
0.584869
0.584869
0.584871
0.584874
0.584876
0.584878
0.584878
0.58488
0.584882
0.584885
0.584887
0.584887
0.584889
0.584891
0.584893
0.584895
0.584895
0.584898
0.5849
0.584902
0.584904
0.584904
0.584906
0.584908
0.584911
0.584913
0.584913
0.584915
0.584917
0.584919
0.584921
0.584921
0.584923
0.584926
0.584928
0.58493
0.58493
0.584932
0.584934
0.584936
0.584938
0.584938
0.58494
0.584942
0.584945
0.584947
0.584947
0.584949
0.584951
0.584953
0.584955
0.584955
0.584957
0.584959
0.584961
0.584963
0.584963
0.584965
0.584967
0.584969
0.584971
0.584971
0.584973
0.584975
0.584977
0.584979
0.584979
0.584981
0.584984
0.584986
0.584988
0.584988
0.58499
0.584992
0.584994
0.584996
0.584996
0.584998
0.585
0.585002
0.585004
0.585004
0.585006
0.585008
0.58501
0.585012
0.585012
0.585014
0.585016
0.585018
0.58502
0.58502
0.585022
0.585024
0.585026
0.585028
0.585028
0.58503
0.585032
0.585034
0.585036
0.585036
0.585038
0.58504
0.585042
0.585044
0.585044
0.585046
0.585048
0.58505
0.585052
0.585052
0.585054
0.585056
0.585058
0.58506
0.58506
0.585062
0.585064
0.585066
0.585068
0.585068
0.58507
0.585072
0.585074
0.585076
0.585076
0.585078
0.58508
0.585082
0.585084
0.585084
0.585086
0.585088
0.58509
0.585092
0.585092
0.585094
0.585096
0.585098
0.5851
0.5851
0.585102
0.585104
0.585106
0.585108
0.585108
0.58511
0.585112
0.585114
0.585115
0.585115
0.585117
0.585119
0.585121
0.585123
0.585123
0.585125
0.585127
0.585129
0.585131
0.585131
0.585133
0.585135
0.585137
0.585139
0.585139
0.585141
0.585143
0.585144
0.585146
0.585146
0.585148
0.58515
0.585152
0.585154
0.585154
0.585156
0.585158
0.58516
0.585162
0.585162
0.585164
0.585166
0.585168
0.58517
0.58517
0.585172
0.585174
0.585176
0.585178
0.585178
0.585179
0.585181
0.585183
0.585185
0.585185
0.585187
0.585189
0.585191
0.585193
0.585193
0.585195
0.585197
0.585199
0.585201
0.585201
0.585203
0.585204
0.585206
0.585208
0.585208
0.58521
0.585212
0.585214
0.585216
0.585216
0.585218
0.58522
0.585222
0.585224
0.585224
0.585226
0.585227
0.585229
0.585231
0.585231
0.585233
0.585235
0.585237
0.585239
0.585239
0.585241
0.585243
0.585245
0.585246
0.585246
0.585248
0.58525
0.585252
0.585254
0.585254
0.585256
0.585258
0.58526
0.585262
0.585262
0.585264
0.585265
0.585267
0.585269
0.585269
0.585271
0.585273
0.585275
0.585277
0.585277
0.585279
0.585281
0.585283
0.585284
0.585284
0.585286
0.585288
0.58529
0.585292
0.585292
0.585294
0.585296
0.585298
0.5853
0.5853
0.585302
0.585304
0.585305
0.585307
0.585307
0.585309
0.585311
0.585313
0.585315
0.585315
0.585317
0.585319
0.585321
0.585323
0.585323
0.585324
0.585326
0.585328
0.58533
0.58533
0.585332
0.585334
0.585336
0.585338
0.585338
0.58534
0.585342
0.585343
0.585345
0.585345
0.585347
0.585349
0.585351
0.585353
0.585353
0.585355
0.585357
0.585359
0.585361
0.585361
0.585362
0.585364
0.585366
0.585368
0.585368
0.58537
0.585372
0.585374
0.585376
0.585376
0.585378
0.58538
0.585381
0.585383
0.585383
0.585385
0.585387
0.585389
0.585391
0.585391
0.585393
0.585395
0.585397
0.585399
0.585399
0.5854
0.585402
0.585404
0.585406
0.585406
0.585408
0.58541
0.585412
0.585414
0.585414
0.585416
0.585418
0.58542
0.585421
0.585421
0.585423
0.585425
0.585427
0.585429
0.585429
0.585431
0.585433
0.585435
0.585437
0.585437
0.585439
0.585441
0.585442
0.585444
0.585444
0.585446
0.585448
0.58545
0.585452
0.585452
0.585454
0.585456
0.585458
0.58546
0.58546
0.585462
0.585464
0.585465
0.585467
0.585467
0.585469
0.585471
0.585473
0.585475
0.585475
0.585477
0.585479
0.585481
0.585483
0.585483
0.585485
0.585487
0.585489
0.58549
0.58549
0.585492
0.585494
0.585496
0.585498
0.585498
0.5855
0.585502
0.585504
0.585506
0.585506
0.585508
0.58551
0.585512
0.585514
0.585514
0.585516
0.585517
0.585519
0.585521
0.585521
0.585523
0.585525
0.585527
0.585529
0.585529
0.585531
0.585533
0.585535
0.585537
0.585537
0.585539
0.585541
0.585543
0.585545
0.585545
0.585547
0.585548
0.58555
0.585552
0.585552
0.585554
0.585556
0.585558
0.58556
0.58556
0.585562
0.585564
0.585566
0.585568
0.585568
0.58557
0.585572
0.585574
0.585576
0.585576
0.585578
0.58558
0.585582
0.585584
0.585584
0.585586
0.585588
0.58559
0.585591
0.585591
0.585593
0.585595
0.585597
0.585599
0.585599
0.585601
0.585603
0.585605
0.585607
0.585607
0.585609
0.585611
0.585613
0.585615
0.585615
0.585617
0.585619
0.585621
0.585623
0.585623
0.585625
0.585627
0.585629
0.585631
0.585631
0.585633
0.585635
0.585637
0.585639
0.585639
0.585641
0.585643
0.585645
0.585647
0.585647
0.585649
0.585651
0.585653
0.585655
0.585655
0.585657
0.585659
0.585661
0.585663
0.585663
0.585665
0.585667
0.585669
0.585671
0.585671
0.585673
0.585675
0.585677
0.585679
0.585679
0.585681
0.585683
0.585685
0.585687
0.585687
0.585689
0.585691
0.585693
0.585695
0.585695
0.585697
0.585699
0.585701
0.585703
0.585703
0.585705
0.585707
0.585709
0.585711
0.585711
0.585713
0.585715
0.585717
0.585719
0.585719
0.585721
0.585723
0.585725
0.585727
0.585727
0.585729
0.585731
0.585733
0.585735
0.585735
0.585738
0.58574
0.585742
0.585744
0.585744
0.585746
0.585748
0.58575
0.585752
0.585752
0.585754
0.585756
0.585758
0.58576
0.58576
0.585762
0.585764
0.585766
0.585768
0.585768
0.58577
0.585772
0.585774
0.585776
0.585776
0.585779
0.585781
0.585783
0.585785
0.585785
0.585787
0.585789
0.585791
0.585793
0.585793
0.585795
0.585797
0.585799
0.585801
0.585801
0.585803
0.585805
0.585807
0.585809
0.585809
0.585812