<?xml version="1.0"?>
<VTKFile type="UnstructuredGrid" version="0.1" byte_order="LittleEndian">
<UnstructuredGrid>
<Piece NumberOfPoints="5000" NumberOfCells="4000">
<PointData Scalars="Reaction 0">
<DataArray type="Float32" Name="Reaction 0" format="ascii">
0.957634
0.957634
0.957634
0.957634
0.957634
0.957634
0.957634
0.957634
0.957634
0.957634
0.957634
0.957634
0.957634
0.957634
0.957634
0.957634
0.957634
0.957634
0.957634
0.957634
0.957634
0.957634
0.957634
0.957634
0.957634
0.957634
0.957634
0.957634
0.957634
0.957634
0.957634
0.957634
0.957634
0.957634
0.957634
0.957634
0.957634
0.957634
0.957634
0.957634
0.957634
0.957634
0.957634
0.957634
0.957634
0.957634
0.957634
0.957634
0.957634
0.957634
0.957634
0.957634
0.957634
0.957634
0.957634
0.957634
0.957634
0.957634
0.957634
0.957634
0.957634
0.957634
0.957634
0.957634
0.957635
0.957635
0.957635
0.957635
0.957635
0.957635
0.957635
0.957635
0.957635
0.957635
0.957635
0.957635
0.957635
0.957635
0.957635
0.957635
0.957635
0.957635
0.957635
0.957635
0.957635
0.957635
0.957635
0.957635
0.957635
0.957635
0.957635
0.957635
0.957635
0.957635
0.957635
0.957635
0.957635
0.957635
0.957635
0.957635
0.957635
0.957635
0.957635
0.957635
0.957635
0.957635
0.957635
0.957636
0.957636
0.957636
0.957636
0.957636
0.957636
0.957636
0.957636
0.957636
0.957636
0.957636
0.957636
0.957636
0.957636
0.957636
0.957636
0.957636
0.957636
0.957636
0.957636
0.957636
0.957636
0.957636
0.957636
0.957636
0.957636
0.957636
0.957636
0.957636
0.957636
0.957637
0.957637
0.957637
0.957637
0.957637
0.957637
0.957637
0.957637
0.957637
0.957637
0.957637
0.957637
0.957637
0.957637
0.957637
0.957637
0.957637
0.957637
0.957637
0.957637
0.957637
0.957637
0.957637
0.957637
0.957637
0.957638
0.957638
0.957638
0.957638
0.957638
0.957638
0.957638
0.957638
0.957638
0.957638
0.957638
0.957638
0.957638
0.957638
0.957638
0.957638
0.957638
0.957638
0.957638
0.957638
0.957638
0.957639
0.957639
0.957639
0.957639
0.957639
0.957639
0.957639
0.957639
0.957639
0.957639
0.957639
0.957639
0.957639
0.957639
0.957639
0.957639
0.957639
0.957639
0.957639
0.95764
0.95764
0.95764
0.95764
0.95764
0.95764
0.95764
0.95764
0.95764
0.95764
0.95764
0.95764
0.95764
0.95764
0.95764
0.95764
0.95764
0.957641
0.957641
0.957641
0.957641
0.957641
0.957641
0.957641
0.957641
0.957641
0.957641
0.957641
0.957641
0.957641
0.957641
0.957641
0.957641
0.957641
0.957642
0.957642
0.957642
0.957642
0.957642
0.957642
0.957642
0.957642
0.957642
0.957642
0.957642
0.957642
0.957642
0.957642
0.957642
0.957643
0.957643
0.957643
0.957643
0.957643
0.957643
0.957643
0.957643
0.957643
0.957643
0.957643
0.957643
0.957643
0.957643
0.957643
0.957644
0.957644
0.957644
0.957644
0.957644
0.957644
0.957644
0.957644
0.957644
0.957644
0.957644
0.957644
0.957644
0.957645
0.957645
0.957645
0.957645
0.957645
0.957645
0.957645
0.957645
0.957645
0.957645
0.957645
0.957645
0.957645
0.957646
0.957646
0.957646
0.957646
0.957646
0.957646
0.957646
0.957646
0.957646
0.957646
0.957646
0.957646
0.957647
0.957647
0.957647
0.957647
0.957647
0.957647
0.957647
0.957647
0.957647
0.957647
0.957647
0.957647
0.957648
0.957648
0.957648
0.957648
0.957648
0.957648
0.957648
0.957648
0.957648
0.957648
0.957648
0.957648
0.957649
0.957649
0.957649
0.957649
0.957649
0.957649
0.957649
0.957649
0.957649
0.957649
0.95765
0.95765
0.95765
0.95765
0.95765
0.95765
0.95765
0.95765
0.95765
0.95765
0.95765
0.957651
0.957651
0.957651
0.957651
0.957651
0.957651
0.957651
0.957651
0.957651
0.957651
0.957652
0.957652
0.957652
0.957652
0.957652
0.957652
0.957652
0.957652
0.957652
0.957652
0.957653
0.957653
0.957653
0.957653
0.957653
0.957653
0.957653
0.957653
0.957653
0.957653
0.957654
0.957654
0.957654
0.957654
0.957654
0.957654
0.957654
0.957654
0.957654
0.957654
0.957655
0.957655
0.957655
0.957655
0.957655
0.957655
0.957655
0.957655
0.957655
0.957656
0.957656
0.957656
0.957656
0.957656
0.957656
0.957656
0.957656
0.957656
0.957656
0.957657
0.957657
0.957657
0.957657
0.957657
0.957657
0.957657
0.957657
0.957657
0.957658
0.957658
0.957658
0.957658
0.957658
0.957658
0.957658
0.957658
0.957658
0.957659
0.957659
0.957659
0.957659
0.957659
0.957659
0.957659
0.957659
0.95766
0.95766
0.95766
0.95766
0.95766
0.95766
0.95766
0.95766
0.95766
0.957661
0.957661
0.957661
0.957661
0.957661
0.957661
0.957661
0.957661
0.957662
0.957662
0.957662
0.957662
0.957662
0.957662
0.957662
0.957662
0.957663
0.957663
0.957663
0.957663
0.957663
0.957663
0.957663
0.957663
0.957663
0.957664
0.957664
0.957664
0.957664
0.957664
0.957664
0.957664
0.957664
0.957665
0.957665
0.957665
0.957665
0.957665
0.957665
0.957665
0.957665
0.957666
0.957666
0.957666
0.957666
0.957666
0.957666
0.957666
0.957666
0.957667
0.957667
0.957667
0.957667
0.957667
0.957667
0.957667
0.957668
0.957668
0.957668
0.957668
0.957668
0.957668
0.957668
0.957668
0.957669
0.957669
0.957669
0.957669
0.957669
0.957669
0.95767
0.95767
0.95767
0.95767
0.95767
0.95767
0.95767
0.95767
0.957671
0.957671
0.957671
0.957671
0.957671
0.957671
0.957672
0.957672
0.957672
0.957672
0.957672
0.957672
0.957673
0.957673
0.957673
0.957673
0.957673
0.957673
0.957674
0.957674
0.957674
0.957674
0.957674
0.957674
0.957674
0.957674
0.957675
0.957675
0.957675
0.957675
0.957675
0.957675
0.957676
0.957676
0.957676
0.957676
0.957676
0.957676
0.957677
0.957677
0.957677
0.957677
0.957677
0.957677
0.957677
0.957678
0.957678
0.957678
0.957678
0.957678
0.957678
0.957679
0.957679
0.957679
0.957679
0.957679
0.957679
0.95768
0.95768
0.95768
0.95768
0.95768
0.95768
0.957681
0.957681
0.957681
0.957681
0.957681
0.957681
0.957681
0.957682
0.957682
0.957682
0.957682
0.957682
0.957682
0.957683
0.957683
0.957683
0.957683
0.957683
0.957683
0.957684
0.957684
0.957684
0.957684
0.957684
0.957684
0.957685
0.957685
0.957685
0.957685
0.957685
0.957685
0.957685
0.957686
0.957686
0.957686
0.957686
0.957686
0.957687
0.957687
0.957687
0.957687
0.957687
0.957687
0.957688
0.957688
0.957688
0.957688
0.957688
0.957688
0.957689
0.957689
0.957689
0.957689
0.957689
0.95769
0.95769
0.95769
0.95769
0.95769
0.95769
0.957691
0.957691
0.957691
0.957691
0.957691
0.957692
0.957692
0.957692
0.957692
0.957692
0.957692
0.957692
0.957693
0.957693
0.957693
0.957693
0.957693
0.957694
0.957694
0.957694
0.957694
0.957694
0.957695
0.957695
0.957695
0.957695
0.957695
0.957695
0.957696
0.957696
0.957696
0.957696
0.957696
0.957697
0.957697
0.957697
0.957697
0.957697
0.957698
0.957698
0.957698
0.957698
0.957698
0.957698
0.957699
0.957699
0.957699
0.957699
0.957699
0.9577
0.9577
0.9577
0.9577
0.9577
0.957701
0.957701
0.957701
0.957701
0.957701
0.957702
0.957702
0.957702
0.957702
0.957702
0.957703
0.957703
0.957703
0.957703
0.957703
0.957704
0.957704
0.957704
0.957704
0.957704
0.957705
0.957705
0.957705
0.957705
0.957705
0.957706
0.957706
0.957706
0.957706
0.957706
0.957707
0.957707
0.957707
0.957707
0.957707
0.957708
0.957708
0.957708
0.957708
0.957708
0.957709
0.957709
0.957709
0.957709
0.957709
0.95771
0.95771
0.95771
0.95771
0.95771
0.957711
0.957711
0.957711
0.957711
0.957711
0.957712
0.957712
0.957712
0.957712
0.957712
0.957713
0.957713
0.957713
0.957713
0.957713
0.957714
0.957714
0.957714
0.957714
0.957714
0.957715
0.957715
0.957715
0.957715
0.957716
0.957716
0.957716
0.957716
0.957716
0.957717
0.957717
0.957717
0.957717
0.957717
0.957718
0.957718
0.957718
0.957718
0.957718
0.957719
0.957719
0.957719
0.957719
0.957719
0.95772
0.95772
0.95772
0.95772
0.95772
0.957721
0.957721
0.957721
0.957721
0.957722
0.957722
0.957722
0.957722
0.957722
0.957723
0.957723
0.957723
0.957723
0.957723
0.957724
0.957724
0.957724
0.957724
0.957724
0.957725
0.957725
0.957725
0.957726
0.957726
0.957726
0.957726
0.957726
0.957727
0.957727
0.957727
0.957727
0.957728
0.957728
0.957728
0.957728
0.957729
0.957729
0.957729
0.957729
0.957729
0.95773
0.95773
0.95773
0.95773
0.957731
0.957731
0.957731
0.957732
0.957732
0.957732
0.957732
0.957732
0.957733
0.957733
0.957733
0.957733
0.957734
0.957734
0.957734
0.957734
0.957735
0.957735
0.957735
0.957735
0.957736
0.957736
0.957736
0.957737
0.957737
0.957737
0.957737
0.957737
0.957738
0.957738
0.957738
0.957738
0.957739
0.957739
0.957739
0.957739
0.95774
0.95774
0.95774
0.95774
0.957741
0.957741
0.957741
0.957742
0.957742
0.957742
0.957742
0.957742
0.957743
0.957743
0.957743
0.957743
0.957744
0.957744
0.957744
0.957744
0.957745
0.957745
0.957745
0.957745
0.957746
0.957746
0.957746
0.957747
0.957747
0.957747
0.957747
0.957748
0.957748
0.957748
0.957748
0.957748
0.957749
0.957749
0.957749
0.957749
0.95775
0.95775
0.95775
0.95775
0.957751
0.957751
0.957751
0.957752
0.957752
0.957752
0.957752
0.957753
0.957753
0.957753
0.957753
0.957754
0.957754
0.957754
0.957754
0.957755
0.957755
0.957755
0.957756
0.957756
0.957756
0.957756
0.957757
0.957757
0.957757
0.957757
0.957758
0.957758
0.957758
0.957758
0.957759
0.957759
0.957759
0.95776
0.95776
0.95776
0.95776
0.957761
0.957761
0.957761
0.957761
0.957762
0.957762
0.957762
0.957762
0.957763
0.957763
0.957763
0.957764
0.957764
0.957764
0.957764
0.957765
0.957765
0.957765
0.957765
0.957766
0.957766
0.957766
0.957766
0.957767
0.957767
0.957767
0.957768
0.957768
0.957768
0.957768
0.957769
0.957769
0.957769
0.957769
0.95777
0.95777
0.957771
0.957771
0.957771
0.957771
0.957772
0.957772
0.957772
0.957772
0.957773
0.957773
0.957773
0.957773
0.957774
0.957774
0.957774
0.957775
0.957775
0.957775
0.957775
0.957776
0.957776
0.957776
0.957776
0.957777
0.957777
0.957777
0.957777
0.957778
0.957778
0.957778
0.957779
0.957779
0.957779
0.95778
0.95778
0.95778
0.95778
0.957781
0.957781
0.957781
0.957782
0.957782
0.957782
0.957782
0.957783
0.957783
0.957783
0.957783
0.957784
0.957784
0.957784
0.957784
0.957785
0.957785
0.957785
0.957786
0.957786
0.957786
0.957787
0.957787
0.957787
0.957787
0.957788
0.957788
0.957788
0.957789
0.957789
0.957789
0.95779
0.95779
0.95779
0.95779
0.957791
0.957791
0.957791
0.957792
0.957792
0.957792
0.957793
0.957793
0.957793
0.957793
0.957794
0.957794
0.957795
0.957795
0.957795
0.957795
0.957796
0.957796
0.957797
0.957797
0.957797
0.957797
0.957798
0.957798
0.957798
0.957799
0.957799
0.957799
0.9578
0.9578
0.9578
0.957801
0.957801
0.957801
0.957801
0.957802
0.957802
0.957803
0.957803
0.957803
0.957803
0.957804
0.957804
0.957805
0.957805
0.957805
0.957806
0.957806
0.957806
0.957806
0.957807
0.957807
0.957808
0.957808
0.957808
0.957808
0.957809
0.957809
0.95781
0.95781
0.95781
0.95781
0.957811
0.957811
0.957811
0.957812
0.957812
0.957812
0.957813
0.957813
0.957813
0.957814
0.957814
0.957814
0.957814
0.957815
0.957815
0.957816
0.957816
0.957816
0.957816
0.957817
0.957817
0.957818
0.957818
0.957818
0.957819
0.957819
0.957819
0.957819
0.95782
0.95782
0.957821
0.957821
0.957821
0.957821
0.957822
0.957822
0.957823
0.957823
0.957823
0.957824
0.957824
0.957824
0.957824
0.957825
0.957825
0.957826
0.957826
0.957826
0.957826
0.957827
0.957827
0.957828
0.957828
0.957828
0.957829
0.957829
0.957829
0.957829
0.95783
0.95783
0.957831
0.957831
0.957831
0.957831
0.957832
0.957832
0.957833
0.957833
0.957833
0.957834
0.957834
0.957834
0.957834
0.957835
0.957835
0.957836
0.957836
0.957836
0.957837
0.957837
0.957837
0.957838
0.957838
0.957838
0.957839
0.957839
0.957839
0.957839
0.95784
0.95784
0.957841
0.957841
0.957841
0.957842
0.957842
0.957842
0.957843
0.957843
0.957843
0.957844
0.957844
0.957845
0.957845
0.957845
0.957845
0.957846
0.957846
0.957846
0.957847
0.957847
0.957847
0.957848
0.957848
0.957848
0.957849
0.957849
0.95785
0.95785
0.95785
0.957851
0.957851
0.957851
0.957851
0.957852
0.957852
0.957853
0.957853
0.957853
0.957854
0.957854
0.957855
0.957855
0.957855
0.957855
0.957856
0.957856
0.957857
0.957857
0.957857
0.957858
0.957858
0.957859
0.957859
0.957859
0.95786
0.95786
0.957861
0.957861
0.957861
0.957862
0.957862
0.957863
0.957863
0.957863
0.957864
0.957864
0.957865
0.957865
0.957865
0.957866
0.957866
0.957866
0.957866
0.957867
0.957867
0.957868
0.957868
0.957868
0.957869
0.957869
0.95787
0.95787
0.95787
0.957871
0.957871
0.957872
0.957872
0.957872
0.957873
0.957873
0.957874
0.957874
0.957874
0.957875
0.957875
0.957876
0.957876
0.957876
0.957877
0.957877
0.957878
0.957878
0.957878
0.957879
0.957879
0.95788
0.95788
0.95788
0.95788
0.957881
0.957881
0.957882
0.957882
0.957882
0.957883
0.957883
0.957884
0.957884
0.957884
0.957885
0.957885
0.957886
0.957886
0.957886
0.957887
0.957887
0.957888
0.957888
0.957888
0.957889
0.957889
0.95789
0.95789
0.95789
0.957891
0.957891
0.957892
0.957892
0.957892
0.957893
0.957893
0.957894
0.957894
0.957894
0.957895
0.957895
0.957896
0.957896
0.957896
0.957897
0.957897
0.957898
0.957898
0.957898
0.957899
0.957899
0.9579
0.9579
0.9579
0.957901
0.957901
0.957902
0.957902
0.957902
0.957902
0.957903
0.957903
0.957903
0.957904
0.957904
0.957905
0.957905
0.957905
0.957906
0.957906
0.957907
0.957907
0.957907
0.957908
0.957908
0.957909
0.957909
0.957909
0.95791
0.95791
0.957911
0.957911
0.957911
0.957912
0.957912
0.957913
0.957913
0.957913
0.957914
0.957914
0.957915
0.957915
0.957915
0.957916
0.957916
0.957917
0.957917
0.957917
0.957918
0.957918
0.957919
0.957919
0.957919
0.95792
0.95792
0.957921
0.957921
0.957921
0.957922
0.957923
0.957923
0.957924
0.957924
0.957924
0.957925
0.957925
0.957926
0.957926
0.957926
0.957927
0.957927
0.957928
0.957928
0.957929
0.957929
0.95793
0.95793
0.95793
0.957931
0.957931
0.957932
0.957932
0.957932
0.957933
0.957934
0.957934
0.957935
0.957935
0.957935
0.957936
0.957936
0.957937
0.957937
0.957937
0.957938
0.957939
0.957939
0.957939
0.95794
0.95794
0.957941
0.957941
0.957941
0.957942
0.957942
0.957943
0.957944
0.957944
0.957944
0.957945
0.957945
0.957946
0.957946
0.957946
0.957947
0.957947
0.957948
0.957948
0.957949
0.957949
0.95795
0.95795
0.95795
0.957951
0.957951
0.957952
0.957952
0.957952
0.957953
0.957954
0.957954
0.957955
0.957955
0.957955
0.957956
0.957956
0.957957
0.957957
0.957957
0.957958
0.957959
0.957959
0.957959
0.95796
0.95796
0.957961
0.957961
0.957961
0.957962
0.957962
0.957963
0.957964
0.957964
0.957964
0.957965
0.957965
0.957966
0.957966
0.957966
0.957967
0.957967
0.957968
0.957968
0.957969
0.957969
0.95797
0.95797
0.95797
0.957971
0.957971
0.957972
0.957972
0.957972
0.957973
0.957974
0.957974
0.957975
0.957975
0.957975
0.957976
0.957976
0.957977
0.957977
0.957977
0.957978
0.957979
0.957979
0.957979
0.95798
0.95798
0.957981
0.957981
0.957981
0.957982
0.957983
0.957983
0.957984
0.957984
0.957984
0.957985
0.957985
0.957986
0.957986
0.957987
0.957987
0.957988
0.957988
0.957988
0.957989
0.957989
0.95799
0.957991
0.957991
0.957991
0.957992
0.957993
0.957993
0.957993
0.957994
0.957994
0.957995
0.957996
0.957996
0.957996
0.957997
0.957997
0.957998
0.957998
0.957999
0.957999
0.958
0.958001
0.958001
0.958001
0.958002
0.958002
0.958003
0.958003
0.958004
0.958004
0.958005
0.958006
0.958006
0.958006
0.958007
0.958007
0.958008
0.958008
0.958009
0.958009
0.95801
0.958011
0.958011
0.958011
0.958012
0.958012
0.958013
0.958013
0.958014
0.958014
0.958015
0.958016
0.958016
0.958016
0.958017
0.958017
0.958018
0.958018
0.958019
0.958019
0.95802
0.95802
0.95802
0.958021
0.958022
0.958022
0.958023
0.958023
0.958024
0.958024
0.958025
0.958025
0.958025
0.958026
0.958027
0.958027
0.958028
0.958028
0.958029
0.958029
0.95803
0.95803
0.95803
0.958031
0.958032
0.958032
0.958033
0.958033
0.958034
0.958034
0.958035
0.958035
0.958035
0.958036
0.958037
0.958037
0.958038
0.958038
0.958038
0.958039
0.95804
0.95804
0.95804
0.958041
0.958042
0.958042
0.958043
0.958043
0.958043
0.958044
0.958045
0.958045
0.958045
0.958046
0.958047
0.958047
0.958048
0.958048
0.958048
0.958049
0.95805
0.95805
0.95805
0.958051
0.958052
0.958052
0.958053
0.958053
0.958053
0.958054
0.958055
0.958055
0.958055
0.958056
0.958057
0.958057
0.958058
0.958058
0.958059
0.958059
0.95806
0.958061
0.958061
0.958061
0.958062
0.958063
0.958063
0.958063
0.958064
0.958065
0.958065
0.958066
0.958066
0.958067
0.958067
0.958068
0.958069
0.958069
0.958069
0.95807
0.958071
0.958071
0.958071
0.958072
0.958073
0.958073
0.958074
0.958074
0.958075
0.958076
0.958076
0.958077
0.958077
0.958078
0.958078
0.958079
0.95808
0.95808
0.95808
0.958081
0.958082
0.958082
0.958082
0.958083
0.958084
0.958085
0.958085
0.958085
0.958086
0.958087
0.958087
0.958088
0.958088
0.958089
0.958089
0.95809
0.958091
0.958091
0.958091
0.958092
0.958093
0.958093
0.958093
0.958094
0.958095
0.958095
0.958096
0.958096
0.958097
0.958098
0.958098
0.958099
0.958099
0.9581
0.9581
0.958101
0.958102
0.958102
0.958102
0.958103
0.958104
0.958104
0.958104
0.958105
0.958106
0.958106
0.958107
0.958107
0.958108
0.958108
0.958109
0.95811
0.95811
0.958111
0.958111
0.958112
0.958113
0.958113
0.958113
0.958114
0.958115
0.958115
0.958115
0.958116
0.958117
0.958117
0.958118
0.958118
0.958119
0.958119
0.95812
0.958121
0.958121
0.958121
0.958122
0.958123
0.958123
0.958123
0.958124
0.958125
0.958126
0.958126
0.958126
0.958127
0.958128
0.958128
0.958129
0.958129
0.95813
0.95813
0.958131
0.958132
0.958132
0.958133
0.958133
0.958134
0.958135
0.958135
0.958136
0.958136
0.958137
0.958138
0.958138
0.958139
0.958139
0.95814
0.958141
0.958141
0.958142
0.958142
0.958143
0.958144
0.958144
0.958145
0.958145
0.958146
0.958147
0.958147
0.958148
0.958148
0.958149
0.95815
0.95815
0.958151
0.958151
0.958152
0.958153
0.958153
0.958154
0.958154
0.958155
0.958156
0.958156
0.958157
0.958157
0.958158
0.958159
0.958159
0.95816
0.95816
0.958161
0.958162
0.958162
0.958163
0.958163
0.958164
0.958165
0.958165
0.958166
0.958166
0.958167
0.958168
0.958168
0.958169
0.958169
0.95817
0.958171
0.958171
0.958172
0.958172
0.958173
0.958174
0.958174
0.958175
0.958175
0.958176
0.958177
0.958177
0.958178
0.958178
0.958179
0.95818
0.95818
0.95818
0.958181
0.958182
0.958183
0.958183
0.958183
0.958184
0.958185
0.958186
0.958186
0.958186
0.958187
0.958188
0.958189
0.958189
0.958189
0.95819
0.958191
0.958192
0.958192
0.958192
0.958193
0.958194
0.958195
0.958195
0.958195
0.958196
0.958197
0.958198
0.958198
0.958198
0.958199
0.9582
0.958201
0.958201
0.958201
0.958202
0.958203
0.958204
0.958204
0.958204
0.958205
0.958206
0.958207
0.958207
0.958208
0.958208
0.958209
0.95821
0.95821
0.958211
0.958212
0.958212
0.958213
0.958213
0.958214
0.958215
0.958216
0.958216
0.958216
0.958217
0.958218
0.958219
0.95822
0.95822
0.95822
0.958221
0.958222
0.958223
0.958223
0.958224
0.958225
0.958225
0.958226
0.958226
0.958227
0.958228
0.958229
0.958229
0.958229
0.95823
0.958231
0.958232
0.958233
0.958233
0.958233
0.958234
0.958235
0.958236
0.958236
0.958237
0.958238
0.958238
0.958239
0.958239
0.95824
0.958241
0.958242
0.958242
0.958242
0.958243
0.958244
0.958245
0.958246
0.958246
0.958246
0.958247
0.958248
0.958249
0.958249
0.95825
0.95825
0.958251
0.958252
0.958252
0.958253
0.958254
0.958254
0.958255
0.958255
0.958256
0.958257
0.958258
0.958259
0.958259
0.958259
0.95826
0.958261
0.958262
0.958262
0.958263
0.958263
0.958264
0.958265
0.958265
0.958266
0.958267
0.958267
0.958268
0.958268
0.958269
0.95827
0.958271
0.958271
0.958271
0.958272
0.958273
0.958274
0.958275
0.958275
0.958275
0.958276
0.958277
0.958278
0.958278
0.958279
0.95828
0.95828
0.958281
0.958281
0.958282
0.958283
0.958284
0.958285
0.958285
0.958285
0.958286
0.958287
0.958288
0.958288
0.958289
0.95829
0.958291
0.958292
0.958292
0.958292
0.958293
0.958294
0.958295
0.958295
0.958296
0.958297
0.958298
0.958299
0.958299
0.958299
0.9583
0.958301
0.958302
0.958302
0.958303
0.958304
0.958305
0.958306
0.958306
0.958306
0.958307
0.958308
0.958309
0.958309
0.95831
0.958311
0.958312
0.958313
0.958313
0.958313
0.958314
0.958315
0.958316
0.958316
0.958317
0.958318
0.958319
0.958319
0.958319
0.95832
0.958321
0.958322
0.958323
0.958323
0.958324
0.958325
0.958326
0.958326
0.958326
0.958327
0.958328
0.958329
0.95833
0.95833
0.958331
0.958332
0.958332
0.958333
0.958333
0.958334
0.958335
0.958336
0.958337
0.958337
0.958338
0.958338
0.958339
0.95834
0.95834
0.958341
0.958342
0.958343
0.958344
0.958344
0.958345
0.958345
0.958346
0.958347
0.958347
0.958348
0.958349
0.95835
0.958351
0.958351
0.958351
0.958352
0.958353
0.958354
0.958354
0.958355
0.958356
0.958357
0.958358
0.958358
0.958359
0.958359
0.95836
0.958361
0.958361
0.958362
0.958363
0.958364
0.958365
0.958365
0.958366
0.958367
0.958368
0.958369
0.958369
0.95837
0.958371
0.958371
0.958372
0.958372
0.958373
0.958374
0.958375
0.958376
0.958376
0.958377
0.958378
0.958379
0.95838
0.95838
0.958381
0.958382
0.958383
0.958384
0.958384
0.958385
0.958385
0.958386
0.958387
0.958387
0.958388
0.958389
0.95839
0.958391
0.958391
0.958392
0.958393
0.958394
0.958395
0.958395
0.958396
0.958397
0.958398
0.958398
0.958398
0.958399
0.9584
0.958401
0.958402
0.958402
0.958403
0.958404
0.958405
0.958406
0.958406
0.958407
0.958408
0.958409
0.95841
0.95841
0.958411
0.958411
0.958412
0.958413
0.958413
0.958414
0.958415
0.958416
0.958417
0.958417
0.958418
0.958419
0.95842
0.958421
0.958421
0.958422
0.958423
0.958423
0.958424
0.958424
0.958425
0.958426
0.958427
0.958428
0.958428
0.958429
0.95843
0.958431
0.958432
0.958432
0.958433
0.958434
0.958435
0.958436
0.958436
0.958436
0.958437
0.958438
0.958439
0.958439
0.95844
0.958441
0.958442
0.958443
0.958443
0.958444
0.958445
0.958446
0.958447
0.958447
0.958448
0.958449
0.95845
0.958451
0.958451
0.958452
0.958453
0.958454
0.958455
0.958455
0.958456
0.958457
0.958458
0.958459
0.958459
0.95846
0.958461
0.958462
0.958463
0.958463
0.958464
0.958465
0.958466
0.958467
0.958467
0.958468
0.958469
0.95847
0.958471
0.958471
0.958472
0.958473
0.958474
0.958475
0.958475
0.958476
0.958477
0.958478
0.958479
0.958479
0.95848
0.958481
0.958482
0.958483
0.958483
0.958484
0.958485
0.958486
0.958487
0.958487
0.958488
0.958489
0.95849
0.958491
0.958491
0.958492
0.958493
0.958494
0.958495
0.958495
0.958496
0.958497
0.958498
0.958499
0.958499
0.9585
0.958501
0.958502
0.958503
0.958503
0.958504
0.958505
0.958506
0.958506
0.958506
0.958507
0.958508
0.958509
0.95851
0.95851
0.958511
0.958512
0.958513
0.958514
0.958514
0.958515
0.958516
0.958517
0.958518
0.958518
0.958519
0.958521
0.958522
0.958523
0.958523
0.958524
0.958525
0.958526
0.958527
0.958527
0.958528
0.958529
0.95853
0.958531
0.958531
0.958532
0.958533
0.958534
0.958535
0.958535
0.958536
0.958537
0.958538
0.958539
0.958539
0.95854
0.958541
0.958543
0.958544
0.958544
0.958545
0.958546
0.958547
0.958548
0.958548
0.958549
0.95855
0.958551
0.958552
0.958552
0.958553
0.958554
0.958555
0.958556
0.958556
0.958557
0.958558
0.958559
0.95856
0.95856
0.958561
0.958562
0.958564
0.958565
0.958565
0.958566
0.958567
0.958568
0.958569
0.958569
0.95857
0.958571
0.958572
0.958573
0.958573
0.958574
0.958575
0.958576
0.958577
0.958577
0.958578
0.958579
0.95858
0.958581
0.958581
0.958582
0.958583
0.958584
0.958585
0.958585
0.958586
0.958587
0.958589
0.95859
0.95859
0.958591
0.958592
0.958593
0.958594
0.958594
0.958595
0.958596
0.958597
0.958598
0.958598
0.958599
0.9586
0.958601
0.958602
0.958602
0.958603
0.958604
0.958606
0.958607
0.958607
0.958608
0.958609
0.95861
0.958611
0.958611
0.958612
0.958613
0.958614
0.958615
0.958615
0.958617
0.958618
0.958619
0.95862
0.95862
0.958621
0.958622
0.958623
0.958624
0.958624
0.958625
0.958627
0.958628
0.958629
0.958629
0.95863
0.958631
0.958632
0.958633
0.958633
0.958634
0.958635
0.958637
0.958638
0.958638
0.958639
0.95864
0.958641
0.958642
0.958642
0.958643
0.958644
0.958645
0.958647
0.958647
0.958648
0.958649
0.95865
0.958651
0.958651
0.958652
0.958653
0.958654
0.958655
0.958655
0.958656
0.958658
0.958659
0.95866
0.95866
0.958661
0.958662
0.958663
0.958664
0.958664
0.958665
0.958666
0.958667
0.958669
0.958669
0.95867
0.958671
0.958672
0.958673
0.958673
0.958674
0.958675
0.958676
0.958677
0.958677
0.958679
0.95868
0.958681
0.958682
0.958682
0.958683
0.958684
0.958685
0.958686
0.958686
0.958688
0.958689
0.95869
0.958691
0.958691
0.958692
0.958693
0.958695
0.958696
0.958696
0.958697
0.958698
0.958699
0.9587
0.9587
0.958702
0.958703
0.958704
0.958705
0.958705
0.958706
0.958707
0.958709
0.95871
0.95871
0.958711
0.958712
0.958713
0.958714
0.958714
0.958716
0.958717
0.958718
0.958719
0.958719
0.95872
0.958721
0.958723
0.958724
0.958724
0.958725
0.958726
0.958727
0.958728
0.958728
0.95873
0.958731
0.958732
0.958733
0.958733
0.958734
0.958735
0.958737
0.958738
0.958738
0.958739
0.95874
0.958741
0.958742
0.958742
0.958744
0.958745
0.958746
0.958747
0.958747
0.958748
0.958749
0.95875
0.958752
0.958752
0.958753
0.958754
0.958755
0.958756
0.958756
0.958757
0.958759
0.95876
0.958761
0.958761
0.958762
0.958763
0.958764
0.958766
0.958766
0.958767
0.958768
0.958769
0.95877
0.95877
0.958772
0.958773
0.958774
0.958775
0.958775
0.958776
0.958778
0.958779
0.95878
0.95878
0.958781
0.958782
0.958784
0.958785
0.958785
0.958786
0.958787
0.958789
0.95879
0.95879
0.958791
0.958792
0.958794
0.958795
0.958795
0.958796
0.958797
0.958798
0.9588
0.9588
0.958801
0.958802
0.958803
0.958805
0.958805
0.958806
0.958807
0.958808
0.95881
0.95881
0.958811
0.958812
0.958813
0.958814
0.958814
0.958816
0.958817
0.958818
0.958819
0.958819
0.958821
0.958822
0.958823
0.958824
0.958824
0.958825
0.958827
0.958828
0.958829
0.958829
0.95883
0.958832
0.958833
0.958834
0.958834
0.958835
0.958836
0.958838
0.958839
0.958839
0.95884
0.958841
0.958842
0.958844
0.958844
0.958845
0.958846
0.958847
0.958849
0.958849
0.95885
0.958851
0.958852
0.958854
0.958854
0.958855
0.958856
0.958857
0.958859
0.958859
0.95886
0.958861
0.958862
0.958864
0.958864
0.958865
0.958866
0.958867
0.958869
0.958869
0.95887
0.958871
0.958873
0.958874
0.958874
0.958875
0.958876
0.958878
0.958879
0.958879
0.95888
0.958882
0.958883
0.958884
0.958884
0.958885
0.958887
0.958888
0.958889
0.958889
0.958891
0.958892
0.958893
0.958894
0.958894
0.958896
0.958897
0.958898
0.9589
0.9589
0.958901
0.958902
0.958903
0.958905
0.958905
0.958906
0.958907
0.958909
0.95891
0.95891
0.958911
0.958912
0.958914
0.958915
0.958915
0.958916
0.958918
0.958919
0.95892
0.95892
0.958921
0.958923
0.958924
0.958925
0.958925
0.958926
0.958928
0.958929
0.95893
0.95893
0.958932
0.958933
0.958934
0.958935
0.958935
0.958937
0.958938
0.958939
0.958941
0.958941
0.958942
0.958943
0.958945
0.958946
0.958946
0.958947
0.958948
0.95895
0.958951
0.958951
0.958952
0.958954
0.958955
0.958956
0.958956
0.958958
0.958959
0.95896
0.958962
0.958962
0.958963
0.958965
0.958966
0.958967
0.958967
0.958969
0.95897
0.958971
0.958973
0.958973
0.958974
0.958975
0.958977
0.958978
0.958978
0.958979
0.958981
0.958982
0.958983
0.958983
0.958985
0.958986
0.958987
0.958989
0.958989
0.95899
0.958991
0.958993
0.958994
0.958994
0.958995
0.958997
0.958998
0.958999
0.958999
0.959001
0.959002
0.959003
0.959005
0.959005
0.959006
0.959008
0.959009
0.95901
0.95901
0.959012
0.959013
0.959014
0.959016
0.959016
0.959017
0.959018
0.95902
0.959021
0.959021
0.959022
0.959024
0.959025
0.959026
0.959026
0.959028
0.959029
0.95903
0.959032
0.959032
0.959033
0.959034
0.959036
0.959037
0.959037
0.959039
0.95904
0.959041
0.959043
0.959043
0.959044
0.959045
0.959047
0.959048
0.959048
0.95905
0.959051
0.959052
0.959054
0.959054
0.959055
0.959057
0.959058
0.959059
0.959059
0.959061
0.959062
0.959064
0.959065
0.959065
0.959067
0.959068
0.959069
0.959071
0.959071
0.959072
0.959074
0.959075
0.959076
0.959076
0.959078
0.959079
0.959081
0.959082
0.959082
0.959083
0.959085
0.959086
0.959088
0.959088
0.959089
0.95909
0.959092
0.959093
0.959093
0.959095
0.959096
0.959097
0.959099
0.959099
0.9591
0.959102
0.959103
0.959104
0.959104
0.959106
0.959107
0.959109
0.95911
0.95911
0.959111
0.959113
0.959114
0.959116
0.959116
0.959117
0.959118
0.95912
0.959121
0.959121
0.959123
0.959124
0.959125
0.959127
0.959127
0.959128
0.95913
0.959131
0.959133
0.959133
0.959134
0.959136
0.959137
0.959138
0.959138
0.95914
0.959141
0.959143
0.959144
0.959144
0.959146
0.959147
0.959149
0.95915
0.95915
0.959152
0.959153
0.959155
0.959156
0.959156
0.959157
0.959159
0.95916
0.959162
0.959162
0.959163
0.959165
0.959166
0.959168
0.959168
0.959169
0.959171
0.959172
0.959174
0.959174
0.959175
0.959176
0.959178
0.959179
0.959179
0.959181
0.959182
0.959184
0.959185
0.959185
0.959187
0.959188
0.95919
0.959191
0.959191
0.959193
0.959194
0.959195
0.959197
0.959197
0.959198
0.9592
0.959201
0.959203
0.959203
0.959204
0.959206
0.959207
0.959209
0.959209
0.95921
0.959212
0.959213
0.959214
0.959214
0.959216
0.959217
0.959219
0.95922
0.95922
0.959222
0.959223
0.959225
0.959226
0.959226
0.959228
0.959229
0.959231
0.959232
0.959232
0.959234
0.959235
0.959237
0.959239
0.959239
0.95924
0.959242
0.959243
0.959245
0.959245
0.959246
0.959248
0.959249
0.959251
0.959251
0.959252
0.959254
0.959255
0.959257
0.959257
0.959258
0.95926
0.959261
0.959263
0.959263
0.959264
0.959266
0.959267
0.959269
0.959269
0.959271
0.959272
0.959274
0.959275
0.959275
0.959277
0.959278
0.95928
0.959281
0.959281
0.959283
0.959284
0.959286
0.959287
0.959287
0.959289
0.95929
0.959292
0.959293
0.959293
0.959295
0.959296
0.959298
0.959299
0.959299
0.959301
0.959302
0.959304
0.959305
0.959305
0.959307
0.959309
0.95931
0.959312
0.959312
0.959313
0.959315
0.959316
0.959318
0.959318
0.959319
0.959321
0.959323
0.959324
0.959324
0.959326
0.959327
0.959329
0.95933
0.95933
0.959332
0.959334
0.959335
0.959337
0.959337
0.959338
0.95934
0.959341
0.959343
0.959343
0.959345
0.959346
0.959348
0.959349
0.959349
0.959351
0.959353
0.959354
0.959356
0.959356
0.959357
0.959359
0.95936
0.959362
0.959362
0.959364
0.959365
0.959367
0.959368
0.959368
0.95937
0.959372
0.959373
0.959375
0.959375
0.959376
0.959378
0.959379
0.959381
0.959381
0.959383
0.959384
0.959386
0.959387
0.959387
0.959389
0.95939
0.959392
0.959394
0.959394
0.959395
0.959397
0.959398
0.9594
0.9594
0.959402
0.959403
0.959405
0.959406
0.959406
0.959408
0.95941
0.959411
0.959413
0.959413
0.959414
0.959416
0.959418
0.959419
0.959419
0.959421
0.959423
0.959424
0.959426
0.959426
0.959427
0.959429
0.959431
0.959432
0.959432
0.959434
0.959436
0.959437
0.959439
0.959439
0.959441
0.959442
0.959444
0.959446
0.959446
0.959447
0.959449
0.95945
0.959452
0.959452
0.959454
0.959455
0.959457
0.959459
0.959459
0.95946
0.959462
0.959464
0.959465
0.959465
0.959467
0.959468
0.95947
0.959472
0.959472
0.959473
0.959475
0.959477
0.959478
0.959478
0.95948
0.959482
0.959483
0.959485
0.959485
0.959486
0.959488
0.95949
0.959491
0.959491
0.959493
0.959495
0.959496
0.959498
0.959498
0.9595
0.959501
0.959503