<?xml version="1.0"?>
<VTKFile type="UnstructuredGrid" version="0.1" byte_order="LittleEndian">
<UnstructuredGrid>
<Piece NumberOfPoints="5000" NumberOfCells="4000">
<PointData Scalars="Reaction 0">
<DataArray type="Float32" Name="Reaction 0" format="ascii">
0.245824
0.245824
0.245824
0.245824
0.245824
0.245824
0.245824
0.245824
0.245825
0.245825
0.245825
0.245825
0.245825
0.245826
0.245826
0.245826
0.245827
0.245827
0.245828
0.245828
0.245828
0.245829
0.245829
0.24583
0.24583
0.24583
0.245831
0.245832
0.245833
0.245833
0.245833
0.245834
0.245835
0.245836
0.245837
0.245837
0.245838
0.245839
0.24584
0.245841
0.245841
0.245842
0.245843
0.245844
0.245846
0.245846
0.245847
0.245848
0.245849
0.245851
0.245851
0.245852
0.245854
0.245855
0.245857
0.245857
0.245858
0.24586
0.245861
0.245863
0.245863
0.245864
0.245866
0.245868
0.24587
0.24587
0.245871
0.245873
0.245875
0.245877
0.245877
0.245879
0.245881
0.245883
0.245885
0.245885
0.245887
0.245889
0.245891
0.245893
0.245893
0.245895
0.245898
0.2459
0.245902
0.245902
0.245904
0.245907
0.245909
0.245912
0.245912
0.245914
0.245917
0.245919
0.245922
0.245922
0.245924
0.245927
0.24593
0.245932
0.245932
0.245935
0.245938
0.24594
0.245943
0.245943
0.245946
0.245949
0.245952
0.245955
0.245955
0.245958
0.245961
0.245964
0.245967
0.245967
0.24597
0.245974
0.245977
0.24598
0.24598
0.245983
0.245987
0.24599
0.245993
0.245993
0.245997
0.246
0.246004
0.246007
0.246007
0.246011
0.246014
0.246018
0.246021
0.246021
0.246025
0.246029
0.246033
0.246036
0.246036
0.24604
0.246044
0.246048
0.246052
0.246052
0.246056
0.24606
0.246064
0.246068
0.246068
0.246072
0.246076
0.24608
0.246084
0.246084
0.246089
0.246093
0.246097
0.246101
0.246101
0.246106
0.24611
0.246115
0.246119
0.246119
0.246124
0.246128
0.246133
0.246137
0.246137
0.246142
0.246147
0.246151
0.246156
0.246156
0.246161
0.246166
0.24617
0.246175
0.246175
0.24618
0.246185
0.24619
0.246195
0.246195
0.2462
0.246205
0.24621
0.246215
0.246215
0.246221
0.246226
0.246231
0.246236
0.246236
0.246242
0.246247
0.246252
0.246258
0.246258
0.246263
0.246269
0.246274
0.24628
0.24628
0.246285
0.246291
0.246297
0.246302
0.246302
0.246308
0.246314
0.246319
0.246325
0.246325
0.246331
0.246337
0.246343
0.246349
0.246349
0.246355
0.246361
0.246367
0.246373
0.246373
0.246379
0.246385
0.246392
0.246398
0.246398
0.246404
0.24641
0.246417
0.246423
0.246423
0.246429
0.246436
0.246442
0.246449
0.246449
0.246455
0.246462
0.246468
0.246475
0.246475
0.246482
0.246488
0.246495
0.246502
0.246502
0.246509
0.246516
0.246522
0.246529
0.246529
0.246536
0.246543
0.24655
0.246557
0.246557
0.246564
0.246571
0.246579
0.246586
0.246586
0.246593
0.2466
0.246607
0.246615
0.246615
0.246622
0.246629
0.246637
0.246644
0.246644
0.246652
0.246659
0.246667
0.246674
0.246674
0.246682
0.24669
0.246697
0.246705
0.246705
0.246713
0.246721
0.246728
0.246736
0.246736
0.246744
0.246752
0.24676
0.246768
0.246768
0.246776
0.246784
0.246792
0.2468
0.2468
0.246808
0.246817
0.246825
0.246833
0.246833
0.246841
0.24685
0.246858
0.246866
0.246866
0.246875
0.246883
0.246892
0.2469
0.2469
0.246909
0.246918
0.246926
0.246935
0.246935
0.246943
0.246952
0.246961
0.24697
0.24697
0.246979
0.246987
0.246996
0.247005
0.247005
0.247014
0.247023
0.247032
0.247041
0.247041
0.24705
0.24706
0.247069
0.247078
0.247078
0.247087
0.247097
0.247106
0.247115
0.247115
0.247125
0.247134
0.247143
0.247153
0.247153
0.247162
0.247172
0.247181
0.247191
0.247191
0.247201
0.24721
0.24722
0.24723
0.24723
0.24724
0.247249
0.247259
0.247269
0.247269
0.247279
0.247289
0.247299
0.247309
0.247309
0.247319
0.247329
0.247339
0.247349
0.247349
0.24736
0.24737
0.24738
0.24739
0.24739
0.247401
0.247411
0.247422
0.247432
0.247432
0.247442
0.247453
0.247463
0.247474
0.247474
0.247485
0.247495
0.247506
0.247517
0.247517
0.247527
0.247538
0.247549
0.24756
0.24756
0.247571
0.247581
0.247592
0.247603
0.247603
0.247614
0.247625
0.247636
0.247648
0.247648
0.247659
0.24767
0.247681
0.247692
0.247692
0.247704
0.247715
0.247726
0.247738
0.247738
0.247749
0.24776
0.247772
0.247783
0.247783
0.247795
0.247806
0.247818
0.24783
0.24783
0.247841
0.247853
0.247865
0.247877
0.247877
0.247888
0.2479
0.247912
0.247924
0.247924
0.247936
0.247948
0.24796
0.247972
0.247972
0.247984
0.247996
0.248008
0.248021
0.248021
0.248033
0.248045
0.248057
0.24807
0.24807
0.248082
0.248094
0.248107
0.248119
0.248119
0.248132
0.248144
0.248157
0.24817
0.24817
0.248182
0.248195
0.248207
0.24822
0.24822
0.248233
0.248246
0.248259
0.248271
0.248271
0.248284
0.248297
0.24831
0.248323
0.248323
0.248336
0.248349
0.248362
0.248376
0.248376
0.248389
0.248402
0.248415
0.248428
0.248428
0.248442
0.248455
0.248468
0.248482
0.248482
0.248495
0.248509
0.248522
0.248536
0.248536
0.248549
0.248563
0.248577
0.24859
0.24859
0.248604
0.248618
0.248632
0.248645
0.248645
0.248659
0.248673
0.248687
0.248701
0.248701
0.248715
0.248729
0.248743
0.248757
0.248757
0.248771
0.248785
0.248799
0.248814
0.248814
0.248828
0.248842
0.248857
0.248871
0.248871
0.248885
0.2489
0.248914
0.248929
0.248929
0.248943
0.248958
0.248972
0.248987
0.248987
0.249002
0.249016
0.249031
0.249046
0.249046
0.249061
0.249075
0.24909
0.249105
0.249105
0.24912
0.249135
0.24915
0.249165
0.249165
0.24918
0.249195
0.24921
0.249225
0.249225
0.249241
0.249256
0.249271
0.249286
0.249286
0.249302
0.249317
0.249333
0.249348
0.249348
0.249363
0.249379
0.249395
0.24941
0.24941
0.249426
0.249441
0.249457
0.249473
0.249473
0.249488
0.249504
0.24952
0.249536
0.249536
0.249552
0.249568
0.249584
0.2496
0.2496
0.249616
0.249632
0.249648
0.249664
0.249664
0.24968
0.249696
0.249712
0.249729
0.249729
0.249745
0.249761
0.249778
0.249794
0.249794
0.24981
0.249827
0.249843
0.24986
0.24986
0.249876
0.249893
0.249909
0.249926
0.249926
0.249943
0.24996
0.249976
0.249993
0.249993
0.25001
0.250027
0.250044
0.250061
0.250061
0.250078
0.250095
0.250112
0.250129
0.250129
0.250146
0.250163
0.25018
0.250197
0.250197
0.250214
0.250232
0.250249
0.250266
0.250266
0.250284
0.250301
0.250318
0.250336
0.250336
0.250353
0.250371
0.250389
0.250406
0.250406
0.250424
0.250441
0.250459
0.250477
0.250477
0.250495
0.250512
0.25053
0.250548
0.250548
0.250566
0.250584
0.250602
0.25062
0.25062
0.250638
0.250656
0.250674
0.250692
0.250692
0.25071
0.250729
0.250747
0.250765
0.250765
0.250783
0.250802
0.25082
0.250839
0.250839
0.250857
0.250876
0.250894
0.250913
0.250913
0.250931
0.25095
0.250968
0.250987
0.250987
0.251006
0.251025
0.251043
0.251062
0.251062
0.251081
0.2511
0.251119
0.251138
0.251138
0.251157
0.251176
0.251195
0.251214
0.251214
0.251233
0.251252
0.251271
0.251291
0.251291
0.25131
0.251329
0.251348
0.251368
0.251368
0.251387
0.251407
0.251426
0.251446
0.251446
0.251465
0.251485
0.251504
0.251524
0.251524
0.251543
0.251563
0.251583
0.251603
0.251603
0.251622
0.251642
0.251662
0.251682
0.251682
0.251702
0.251722
0.251742
0.251762
0.251762
0.251782
0.251802
0.251822
0.251842
0.251842
0.251863
0.251883
0.251903
0.251923
0.251923
0.251944
0.251964
0.251984
0.252005
0.252005
0.252025
0.252046
0.252066
0.252087
0.252087
0.252108
0.252128
0.252149
0.25217
0.25217
0.25219
0.252211
0.252232
0.252253
0.252253
0.252274
0.252295
0.252315
0.252336
0.252336
0.252357
0.252379
0.2524
0.252421
0.252421
0.252442
0.252463
0.252484
0.252505
0.252505
0.252527
0.252548
0.252569
0.252591
0.252591
0.252612
0.252634
0.252655
0.252677
0.252677
0.252698
0.25272
0.252741
0.252763
0.252763
0.252785
0.252806
0.252828
0.25285
0.25285
0.252872
0.252894
0.252916
0.252937
0.252937
0.252959
0.252981
0.253003
0.253025
0.253025
0.253048
0.25307
0.253092
0.253114
0.253114
0.253136
0.253159
0.253181
0.253203
0.253203
0.253225
0.253248
0.25327
0.253293
0.253293
0.253315
0.253338
0.25336
0.253383
0.253383
0.253406
0.253428
0.253451
0.253474
0.253474
0.253496
0.253519
0.253542
0.253565
0.253565
0.253588
0.253611
0.253634
0.253657
0.253657
0.25368
0.253703
0.253726
0.253749
0.253749
0.253772
0.253795
0.253819
0.253842
0.253842
0.253865
0.253889
0.253912
0.253935
0.253935
0.253959
0.253982
0.254006
0.254029
0.254029
0.254053
0.254076
0.2541
0.254124
0.254124
0.254147
0.254171
0.254195
0.254219
0.254219
0.254243
0.254266
0.25429
0.254314
0.254314
0.254338
0.254362
0.254386
0.25441
0.25441
0.254435
0.254459
0.254483
0.254507
0.254507
0.254531
0.254556
0.25458
0.254604
0.254604
0.254629
0.254653
0.254678
0.254702
0.254702
0.254727
0.254751
0.254776
0.2548
0.2548
0.254825
0.25485
0.254874
0.254899
0.254899
0.254924
0.254949
0.254974
0.254998
0.254998
0.255023
0.255048
0.255073
0.255098
0.255098
0.255123
0.255148
0.255174
0.255199
0.255199
0.255224
0.255249
0.255274
0.2553
0.2553
0.255325
0.25535
0.255376
0.255401
0.255401
0.255427
0.255452
0.255478
0.255503
0.255503
0.255529
0.255554
0.25558
0.255606
0.255606
0.255631
0.255657
0.255683
0.255709
0.255709
0.255735
0.255761
0.255787
0.255813
0.255813
0.255839
0.255865
0.255891
0.255917
0.255917
0.255943
0.255969
0.255995
0.256021
0.256021
0.256048
0.256074
0.2561
0.256127
0.256127
0.256153
0.25618
0.256206
0.256233
0.256233
0.256259
0.256286
0.256312
0.256339
0.256339
0.256366
0.256392
0.256419
0.256446
0.256446
0.256473
0.256499
0.256526
0.256553
0.256553
0.25658
0.256607
0.256634
0.256661
0.256661
0.256688
0.256715
0.256742
0.25677
0.25677
0.256797
0.256824
0.256851
0.256879
0.256879
0.256906
0.256933
0.256961
0.256988
0.256988
0.257016
0.257043
0.257071
0.257098
0.257098
0.257126
0.257154
0.257181
0.257209
0.257209
0.257237
0.257264
0.257292
0.25732
0.25732
0.257348
0.257376
0.257404
0.257432
0.257432
0.25746
0.257488
0.257516
0.257544
0.257544
0.257572
0.2576
0.257629
0.257657
0.257657
0.257685
0.257714
0.257742
0.25777
0.25777
0.257799
0.257827
0.257856
0.257884
0.257884
0.257913
0.257941
0.25797
0.257999
0.257999
0.258027
0.258056
0.258085
0.258113
0.258113
0.258142
0.258171
0.2582
0.258229
0.258229
0.258258
0.258287
0.258316
0.258345
0.258345
0.258374
0.258403
0.258432
0.258462
0.258462
0.258491
0.25852
0.258549
0.258579
0.258579
0.258608
0.258637
0.258667
0.258696
0.258696
0.258726
0.258755
0.258785
0.258814
0.258814
0.258844
0.258874
0.258903
0.258933
0.258933
0.258963
0.258993
0.259023
0.259052
0.259052
0.259082
0.259112
0.259142
0.259172
0.259172
0.259202
0.259232
0.259262
0.259293
0.259293
0.259323
0.259353
0.259383
0.259413
0.259413
0.259444
0.259474
0.259504
0.259535
0.259535
0.259565
0.259596
0.259626
0.259657
0.259657
0.259687
0.259718
0.259749
0.259779
0.259779
0.25981
0.259841
0.259871
0.259902
0.259902
0.259933
0.259964
0.259995
0.260026
0.260026
0.260057
0.260088
0.260119
0.26015
0.26015
0.260181
0.260212
0.260243
0.260274
0.260274
0.260306
0.260337
0.260368
0.2604
0.2604
0.260431
0.260462
0.260494
0.260525
0.260525
0.260557
0.260588
0.26062
0.260651
0.260651
0.260683
0.260715
0.260746
0.260778
0.260778
0.26081
0.260842
0.260874
0.260906
0.260906
0.260937
0.260969
0.261001
0.261033
0.261033
0.261065
0.261097
0.26113
0.261162
0.261162
0.261194
0.261226
0.261258
0.261291
0.261291
0.261323
0.261355
0.261388
0.26142
0.26142
0.261453
0.261485
0.261518
0.26155
0.26155
0.261583
0.261615
0.261648
0.261681
0.261681
0.261713
0.261746
0.261779
0.261812
0.261812
0.261844
0.261877
0.26191
0.261943
0.261943
0.261976
0.262009
0.262042
0.262075
0.262075
0.262108
0.262142
0.262175
0.262208
0.262208
0.262241
0.262275
0.262308
0.262341
0.262341
0.262375
0.262408
0.262441
0.262475
0.262475
0.262508
0.262542
0.262576
0.262609
0.262609
0.262643
0.262677
0.26271
0.262744
0.262744
0.262778
0.262812
0.262845
0.262879
0.262879
0.262913
0.262947
0.262981
0.263015
0.263015
0.263049
0.263083
0.263117
0.263152
0.263152
0.263186
0.26322
0.263254
0.263289
0.263289
0.263323
0.263357
0.263392
0.263426
0.263426
0.26346
0.263495
0.263529
0.263564
0.263564
0.263599
0.263633
0.263668
0.263703
0.263703
0.263737
0.263772
0.263807
0.263842
0.263842
0.263876
0.263911
0.263946
0.263981
0.263981
0.264016
0.264051
0.264086
0.264121
0.264121
0.264157
0.264192
0.264227
0.264262
0.264262
0.264297
0.264333
0.264368
0.264403
0.264403
0.264439
0.264474
0.26451
0.264545
0.264545
0.264581
0.264616
0.264652
0.264687
0.264687
0.264723
0.264759
0.264794
0.26483
0.26483
0.264866
0.264902
0.264938
0.264974
0.264974
0.265009
0.265045
0.265081
0.265117
0.265117
0.265153
0.26519
0.265226
0.265262
0.265262
0.265298
0.265334
0.265371
0.265407
0.265407
0.265443
0.26548
0.265516
0.265552
0.265552
0.265589
0.265625
0.265662
0.265698
0.265698
0.265735
0.265772
0.265808
0.265845
0.265845
0.265882
0.265918
0.265955
0.265992
0.265992
0.266029
0.266066
0.266103
0.26614
0.26614
0.266177
0.266214
0.266251
0.266288
0.266288
0.266325
0.266362
0.266399
0.266437
0.266437
0.266474
0.266511
0.266548
0.266586
0.266586
0.266623
0.266661
0.266698
0.266736
0.266736
0.266773
0.266811
0.266848
0.266886
0.266886
0.266923
0.266961
0.266999
0.267037
0.267037
0.267074
0.267112
0.26715
0.267188
0.267188
0.267226
0.267264
0.267302
0.26734
0.26734
0.267378
0.267416
0.267454
0.267492
0.267492
0.267531
0.267569
0.267607
0.267645
0.267645
0.267684
0.267722
0.26776
0.267799
0.267799
0.267837
0.267876
0.267914
0.267953
0.267953
0.267991
0.26803
0.268069
0.268107
0.268107
0.268146
0.268185
0.268224
0.268263
0.268263
0.268301
0.26834
0.268379
0.268418
0.268418
0.268457
0.268496
0.268535
0.268574
0.268574
0.268613
0.268653
0.268692
0.268731
0.268731
0.26877
0.26881
0.268849
0.268888
0.268888
0.268928
0.268967
0.269007
0.269046
0.269046
0.269086
0.269125
0.269165
0.269204
0.269204
0.269244
0.269284
0.269323
0.269363
0.269363
0.269403
0.269443
0.269483
0.269523
0.269523
0.269562
0.269602
0.269642
0.269682
0.269682
0.269723
0.269763
0.269803
0.269843
0.269843
0.269883
0.269923
0.269964
0.270004
0.270004
0.270044
0.270085
0.270125
0.270165
0.270165
0.270206
0.270246
0.270287
0.270327
0.270327
0.270368
0.270409
0.270449
0.27049
0.27049
0.270531
0.270571
0.270612
0.270653
0.270653
0.270694
0.270735
0.270776
0.270817
0.270817
0.270858
0.270899
0.27094
0.270981
0.270981
0.271022
0.271063
0.271104
0.271145
0.271145
0.271187
0.271228
0.271269
0.271311
0.271311
0.271352
0.271394
0.271435
0.271476
0.271476
0.271518
0.27156
0.271601
0.271643
0.271643
0.271684
0.271726
0.271768
0.27181
0.27181
0.271851
0.271893
0.271935
0.271977
0.271977
0.272019
0.272061
0.272103
0.272145
0.272145
0.272187
0.272229
0.272271
0.272313
0.272313
0.272355
0.272398
0.27244
0.272482
0.272482
0.272524
0.272567
0.272609
0.272652
0.272652
0.272694
0.272737
0.272779
0.272822
0.272822
0.272864
0.272907
0.272949
0.272992
0.272992
0.273035
0.273078
0.27312
0.273163
0.273163
0.273206
0.273249
0.273292
0.273335
0.273335
0.273378
0.273421
0.273464
0.273507
0.273507
0.27355
0.273593
0.273636
0.27368
0.27368
0.273723
0.273766
0.273809
0.273853
0.273853
0.273896
0.27394
0.273983
0.274026
0.274026
0.27407
0.274113
0.274157
0.274201
0.274201
0.274244
0.274288
0.274332
0.274375
0.274375
0.274419
0.274463
0.274507
0.274551
0.274551
0.274595
0.274639
0.274683
0.274727
0.274727
0.274771
0.274815
0.274859
0.274903
0.274903
0.274947
0.274991
0.275036
0.27508
0.27508
0.275124
0.275169
0.275213
0.275257
0.275257
0.275302
0.275346
0.275391
0.275435
0.275435
0.27548
0.275524
0.275569
0.275614
0.275614
0.275658
0.275703
0.275748
0.275793
0.275793
0.275838
0.275882
0.275927
0.275972
0.275972
0.276017
0.276062
0.276107
0.276152
0.276152
0.276197
0.276243
0.276288
0.276333
0.276333
0.276378
0.276423
0.276469
0.276514
0.276514
0.276559
0.276605
0.27665
0.276696
0.276696
0.276741
0.276787
0.276832
0.276878
0.276878
0.276924
0.276969
0.277015
0.277061
0.277061
0.277106
0.277152
0.277198
0.277244
0.277244
0.27729
0.277336
0.277382
0.277428
0.277428
0.277474
0.27752
0.277566
0.277612
0.277612
0.277658
0.277704
0.277751
0.277797
0.277797
0.277843
0.277889
0.277936
0.277982
0.277982
0.278029
0.278075
0.278122
0.278168
0.278168
0.278215
0.278261
0.278308
0.278354
0.278354
0.278401
0.278448
0.278495
0.278541
0.278541
0.278588
0.278635
0.278682
0.278729
0.278729
0.278776
0.278823
0.27887
0.278917
0.278917
0.278964
0.279011
0.279058
0.279105
0.279105
0.279153
0.2792
0.279247
0.279295
0.279295
0.279342
0.279389
0.279437
0.279484
0.279484
0.279532
0.279579
0.279627
0.279674
0.279674
0.279722
0.279769
0.279817
0.279865
0.279865
0.279913
0.27996
0.280008
0.280056
0.280056
0.280104
0.280152
0.2802
0.280248
0.280248
0.280296
0.280344
0.280392
0.28044
0.28044
0.280488
0.280536
0.280584
0.280633
0.280633
0.280681
0.280729
0.280778
0.280826
0.280826
0.280874
0.280923
0.280971
0.28102
0.28102
0.281068
0.281117
0.281166
0.281214
0.281214
0.281263
0.281312
0.28136
0.281409
0.281409
0.281458
0.281507
0.281555
0.281604
0.281604
0.281653
0.281702
0.281751
0.2818
0.2818
0.281849
0.281898
0.281948
0.281997
0.281997
0.282046
0.282095
0.282144
0.282194
0.282194
0.282243
0.282292
0.282342
0.282391
0.282391
0.282441
0.28249
0.28254
0.282589
0.282589
0.282639
0.282688
0.282738
0.282788
0.282788
0.282837
0.282887
0.282937
0.282987
0.282987
0.283037
0.283087
0.283137
0.283186
0.283186
0.283236
0.283286
0.283336
0.283387
0.283387
0.283437
0.283487
0.283537
0.283587
0.283587
0.283637
0.283688
0.283738
0.283788
0.283788
0.283839
0.283889
0.28394
0.28399
0.28399
0.284041
0.284091
0.284142
0.284192
0.284192
0.284243
0.284294
0.284344
0.284395
0.284395
0.284446
0.284497
0.284548
0.284598
0.284598
0.284649
0.2847
0.284751
0.284802
0.284802
0.284853
0.284904
0.284955
0.285007
0.285007
0.285058
0.285109
0.28516
0.285211
0.285211
0.285263
0.285314
0.285365
0.285417
0.285417
0.285468
0.28552
0.285571
0.285623
0.285623
0.285674
0.285726
0.285777
0.285829
0.285829
0.285881
0.285932
0.285984
0.286036
0.286036
0.286088
0.28614
0.286192
0.286244
0.286244
0.286295
0.286347
0.286399
0.286452
0.286452
0.286504
0.286556
0.286608
0.28666
0.28666
0.286712
0.286765
0.286817
0.286869
0.286869
0.286921
0.286974
0.287026
0.287079
0.287079
0.287131
0.287184
0.287236
0.287289
0.287289
0.287341
0.287394
0.287447
0.287499
0.287499
0.287552
0.287605
0.287658
0.287711
0.287711
0.287763
0.287816
0.287869
0.287922
0.287922
0.287975
0.288028
0.288081
0.288134
0.288134
0.288188
0.288241
0.288294
0.288347
0.288347
0.2884
0.288454
0.288507
0.28856
0.28856
0.288614
0.288667
0.288721
0.288774
0.288774
0.288828
0.288881
0.288935
0.288988
0.288988
0.289042
0.289096
0.28915
0.289203
0.289203
0.289257
0.289311
0.289365
0.289419
0.289419
0.289473
0.289526
0.28958
0.289634
0.289634
0.289689
0.289743
0.289797
0.289851
0.289851
0.289905
0.289959
0.290013
0.290068
0.290068
0.290122
0.290176
0.290231
0.290285
0.290285
0.29034
0.290394
0.290449
0.290503
0.290503
0.290558
0.290612
0.290667
0.290722
0.290722
0.290776
0.290831
0.290886
0.290941
0.290941
0.290995
0.29105
0.291105
0.29116
0.29116
0.291215
0.29127
0.291325
0.29138
0.29138
0.291435
0.29149
0.291546
0.291601
0.291601
0.291656
0.291711
0.291766
0.291822
0.291822
0.291877
0.291933
0.291988
0.292043
0.292043
0.292099
0.292154
0.29221
0.292266
0.292266
0.292321
0.292377
0.292432
0.292488
0.292488
0.292544
0.2926
0.292656
0.292711
0.292711
0.292767
0.292823
0.292879
0.292935
0.292935
0.292991
0.293047
0.293103
0.293159
0.293159
0.293215
0.293272
0.293328
0.293384
0.293384
0.29344
0.293497
0.293553
0.293609
0.293609
0.293666
0.293722
0.293779
0.293835
0.293835
0.293892
0.293948
0.294005
0.294061
0.294061
0.294118
0.294175
0.294231
0.294288
0.294288
0.294345
0.294402
0.294459
0.294515
0.294515
0.294572
0.294629
0.294686
0.294743
0.294743
0.2948
0.294857
0.294915
0.294972
0.294972
0.295029
0.295086
0.295143
0.295201
0.295201
0.295258
0.295315
0.295373
0.29543
0.29543
0.295487
0.295545
0.295602
0.29566
0.29566
0.295718
0.295775
0.295833
0.29589
0.29589
0.295948
0.296006
0.296064
0.296121
0.296121
0.296179
0.296237
0.296295
0.296353
0.296353
0.296411
0.296469
0.296527
0.296585
0.296585
0.296643
0.296701
0.296759
0.296817
0.296817
0.296876
0.296934
0.296992
0.29705
0.29705
0.297109
0.297167
0.297226
0.297284
0.297284
0.297343
0.297401
0.29746
0.297518
0.297518
0.297577
0.297635
0.297694
0.297753
0.297753
0.297812
0.29787
0.297929
0.297988
0.297988
0.298047
0.298106
0.298165
0.298224
0.298224
0.298283
0.298342
0.298401
0.29846
0.29846
0.298519
0.298578
0.298637
0.298696
0.298696
0.298756
0.298815
0.298874
0.298934
0.298934
0.298993
0.299052
0.299112
0.299171
0.299171
0.299231
0.29929
0.29935
0.29941
0.29941
0.299469
0.299529
0.299589
0.299648
0.299648
0.299708
0.299768
0.299828
0.299888
0.299888
0.299947
0.300007
0.300067
0.300127
0.300127
0.300187
0.300247
0.300308
0.300368
0.300368
0.300428
0.300488
0.300548
0.300609
0.300609
0.300669
0.300729
0.300789
0.30085
0.30085
0.30091
0.300971
0.301031
0.301092
0.301092
0.301152
0.301213
0.301273
0.301334
0.301334
0.301395
0.301456
0.301516
0.301577
0.301577
0.301638
0.301699
0.30176
0.30182
0.30182
0.301881
0.301942
0.302003
0.302064
0.302064
0.302125
0.302187
0.302248
0.302309
0.302309
0.30237
0.302431
0.302492
0.302554
0.302554
0.302615
0.302676
0.302738
0.302799
0.302799
0.302861
0.302922
0.302984
0.303045
0.303045
0.303107
0.303168
0.30323
0.303292
0.303292
0.303353
0.303415
0.303477
0.303539
0.303539
0.303601
0.303662
0.303724
0.303786
0.303786
0.303848
0.30391
0.303972
0.304034
0.304034
0.304096
0.304159
0.304221
0.304283
0.304283
0.304345
0.304407
0.30447
0.304532
0.304532
0.304594
0.304657
0.304719
0.304782
0.304782
0.304844
0.304907
0.304969
0.305032
0.305032
0.305094
0.305157
0.30522
0.305282
0.305282
0.305345
0.305408
0.305471
0.305534
0.305534
0.305596
0.305659
0.305722
0.305785
0.305785
0.305848
0.305911
0.305974
0.306037
0.306037
0.306101
0.306164
0.306227
0.30629
0.30629
0.306353
0.306417
0.30648
0.306543
0.306543
0.306607
0.30667
0.306734
0.306797
0.306797
0.306861
0.306924
0.306988
0.307051
0.307051
0.307115
0.307179
0.307242
0.307306
0.307306
0.30737
0.307434
0.307497
0.307561
0.307561
0.307625
0.307689
0.307753
0.307817
0.307817
0.307881
0.307945
0.308009
0.308073
0.308073
0.308137
0.308202
0.308266
0.30833
0.30833
0.308394
0.308459
0.308523
0.308587
0.308587
0.308652
0.308716
0.308781
0.308845
0.308845
0.30891
0.308974
0.309039
0.309104
0.309104
0.309168
0.309233
0.309298
0.309362
0.309362
0.309427
0.309492
0.309557
0.309622
0.309622
0.309687
0.309752
0.309817
0.309882
0.309882
0.309947
0.310012
0.310077
0.310142
0.310142
0.310207
0.310273
0.310338
0.310403
0.310403
0.310468
0.310534
0.310599
0.310664
0.310664
0.31073
0.310795
0.310861
0.310926
0.310926
0.310992
0.311058
0.311123
0.311189
0.311189
0.311255
0.31132
0.311386
0.311452
0.311452
0.311518
0.311583
0.311649
0.311715
0.311715
0.311781
0.311847
0.311913
0.311979
0.311979
0.312045
0.312111
0.312178
0.312244
0.312244
0.31231
0.312376
0.312442
0.312509
0.312509
0.312575
0.312641
0.312708
0.312774
0.312774
0.312841
0.312907
0.312974
0.31304
0.31304
0.313107
0.313173
0.31324
0.313307
0.313307
0.313373
0.31344
0.313507
0.313574
0.313574
0.313641
0.313708
0.313774
0.313841
0.313841
0.313908
0.313975
0.314042
0.314109
0.314109
0.314177
0.314244
0.314311
0.314378
0.314378
0.314445
0.314512
0.31458
0.314647
0.314647
0.314714
0.314782
0.314849
0.314917
0.314917
0.314984
0.315052
0.315119
0.315187
0.315187
0.315254
0.315322
0.31539
0.315457
0.315457
0.315525
0.315593
0.315661
0.315729
0.315729
0.315796
0.315864
0.315932
0.316
0.316
0.316068
0.316136
0.316204
0.316272
0.316272
0.31634
0.316409
0.316477
0.316545
0.316545
0.316613
0.316681
0.31675
0.316818
0.316818
0.316886
0.316955
0.317023
0.317092
0.317092
0.31716
0.317229
0.317297
0.317366
0.317366
0.317435
0.317503
0.317572
0.317641
0.317641
0.317709
0.317778
0.317847
0.317916
0.317916
0.317985
0.318054
0.318123
0.318191
0.318191
0.31826
0.31833
0.318399
0.318468
0.318468
0.318537
0.318606
0.318675
0.318744
0.318744
0.318814
0.318883
0.318952
0.319022
0.319022
0.319091
0.31916
0.31923
0.319299
0.319299
0.319369
0.319438
0.319508
0.319578
0.319578
0.319647
0.319717
0.319787
0.319856
0.319856
0.319926
0.319996
0.320066
0.320136
0.320136
0.320205
0.320275
0.320345
0.320415
0.320415
0.320485
0.320555
0.320625
0.320696
0.320696
0.320766
0.320836
0.320906
0.320976
0.320976
0.321047
0.321117
0.321187
0.321258
0.321258
0.321328
0.321398
0.321469
0.321539
0.321539
0.32161
0.321681
0.321751
0.321822
0.321822
0.321892
0.321963
0.322034
0.322105
0.322105
0.322175
0.322246
0.322317
0.322388
0.322388
0.322459
0.32253
0.322601
0.322672
0.322672
0.322743
0.322814
0.322885
0.322956
0.322956
0.323027
0.323098
0.323169
0.323241
0.323241
0.323312
0.323383
0.323455
0.323526
0.323526
0.323597
0.323669
0.32374
0.323812
0.323812
0.323883
0.323955
0.324027
0.324098
0.324098
0.32417
0.324242
0.324313
0.324385
0.324385
0.324457
0.324529
0.324601
0.324672
0.324672
0.324744
0.324816
0.324888
0.32496
0.32496
0.325032
0.325104
0.325176
0.325249
0.325249
0.325321
0.325393
0.325465
0.325537
0.325537
0.32561
0.325682
0.325754
0.325827
0.325827
0.325899
0.325972
0.326044
0.326117
0.326117
0.326189
0.326262
0.326334
0.326407
0.326407
0.32648
0.326552
0.326625
0.326698
0.326698
0.326771
0.326844
0.326916
0.326989
0.326989
0.327062
0.327135
0.327208
0.327281
0.327281
0.327354
0.327427
0.3275
0.327574
0.327574
0.327647
0.32772
0.327793
0.327866
0.327866
0.32794
0.328013
0.328086
0.32816
0.32816
0.328233
0.328307
0.32838
0.328454
0.328454
0.328527
0.328601
0.328674
0.328748
0.328748
0.328822
0.328895
0.328969
0.329043
0.329043
0.329117
0.329191
0.329264
0.329338
0.329338
0.329412
0.329486
0.32956
0.329634
0.329634
0.329708
0.329782
0.329856
0.329931
0.329931
0.330005
0.330079
0.330153
0.330227
0.330227
0.330302
0.330376
0.33045
0.330525
0.330525
0.330599
0.330674
0.330748
0.330823
0.330823
0.330897
0.330972
0.331047
0.331121
0.331121
0.331196
0.331271
0.331345
0.33142
0.33142
0.331495
0.33157
0.331645
0.331719
0.331719
0.331794
0.331869
0.331944
0.332019
0.332019
0.332094
0.332169
0.332245
0.33232
0.33232
0.332395
0.33247
0.332545
0.332621
0.332621
0.332696
0.332771
0.332847
0.332922
0.332922
0.332997
0.333073
0.333148
0.333224
0.333224
0.333299
0.333375
0.333451
0.333526
0.333526
0.333602
0.333678
0.333753
0.333829
0.333829
0.333905
0.333981
0.334057
0.334133
0.334133
0.334209
0.334284
0.33436
0.334437
0.334437
0.334513
0.334589
0.334665
0.334741
0.334741
0.334817
0.334893
0.33497
0.335046
0.335046
0.335122
0.335198
0.335275
0.335351
0.335351
0.335428
0.335504
0.335581
0.335657
0.335657
0.335734
0.33581
0.335887
0.335963
0.335963
0.33604
0.336117
0.336194
0.33627
0.33627
0.336347
0.336424
0.336501
0.336578
0.336578
0.336655
0.336732
0.336809
0.336886
0.336886
0.336963
0.33704
0.337117
0.337194
0.337194
0.337271
0.337348
0.337426
0.337503
0.337503
0.33758
0.337657
0.337735
0.337812
0.337812
0.33789
0.337967
0.338045
0.338122
0.338122
0.3382
0.338277
0.338355
0.338432
0.338432
0.33851
0.338588
0.338666
0.338743
0.338743
0.338821
0.338899
0.338977
0.339055
0.339055
0.339133
0.339211
0.339288
0.339366
0.339366
0.339445
0.339523
0.339601
0.339679
0.339679
0.339757
0.339835
0.339913
0.339992
0.339992
0.34007
0.340148
0.340227
0.340305
0.340305
0.340383
0.340462
0.34054
0.340619
0.340619
0.340697
0.340776
0.340855
0.340933
0.340933
0.341012
0.341091
0.341169
0.341248
0.341248
0.341327
0.341406
0.341484
0.341563
0.341563
0.341642
0.341721
0.3418
0.341879
0.341879
0.341958
0.342037
0.342116
0.342195
0.342195
0.342275
0.342354
0.342433
0.342512
0.342512
0.342592
0.342671
0.34275
0.34283
0.34283
0.342909
0.342988
0.343068
0.343147
0.343147
0.343227
0.343306
0.343386
0.343466
0.343466
0.343545
0.343625
0.343705
0.343784
0.343784
0.343864
0.343944
0.344024
0.344104
0.344104
0.344184
0.344263
0.344343
0.344423
0.344423
0.344503
0.344583
0.344664
0.344744
0.344744
0.344824
0.344904
0.344984
0.345064
0.345064
0.345145
0.345225
0.345305
0.345386
0.345386
0.345466
0.345546
0.345627
0.345707
0.345707
0.345788
0.345868
0.345949
0.34603
0.34603
0.34611
0.346191
0.346272
0.346352
0.346352
0.346433
0.346514
0.346595
0.346676
0.346676
0.346756
0.346837
0.346918
0.346999
0.346999
0.34708
0.347161
0.347242
0.347323
0.347323
0.347405
0.347486
0.347567
0.347648
0.347648
0.347729
0.347811
0.347892
0.347973
0.347973
0.348055
0.348136
0.348217
0.348299
0.348299
0.34838
0.348462
0.348543
0.348625
0.348625
0.348707
0.348788
0.34887
0.348952
0.348952
0.349033
0.349115
0.349197
0.349279
0.349279
0.349361
0.349443
0.349525
0.349606
0.349606
0.349688
0.34977
0.349853
0.349935
0.349935
0.350017
0.350099
0.350181
0.350263
0.350263
0.350345
0.350428
0.35051
0.350592
0.350592
0.350675
0.350757
0.350839
0.350922
0.350922
0.351004
0.351087
0.351169
0.351252
0.351252
0.351335
0.351417
0.3515
0.351582
0.351582
0.351665
0.351748
0.351831
0.351914
0.351914
0.351996
0.352079
0.352162
0.352245
0.352245
0.352328
0.352411
0.352494
0.352577
0.352577
0.35266
0.352743
0.352826
0.35291
0.35291
0.352993
0.353076
0.353159
0.353243
0.353243
0.353326
0.353409
0.353493
0.353576
0.353576
0.35366
0.353743
0.353827
0.35391
0.35391
0.353994
0.354077
0.354161
0.354245
0.354245
0.354328
0.354412
0.354496
0.354579
0.354579
0.354663
0.354747
0.354831
0.354915
0.354915
0.354999
0.355083
0.355167
0.355251
0.355251
0.355335
0.355419
0.355503
0.355587
0.355587
0.355671
0.355756
0.35584
0.355924
0.355924
0.356008
0.356093
0.356177
0.356262
0.356262
0.356346
0.35643
0.356515
0.356599
0.356599
0.356684
0.356769
0.356853
0.356938
0.356938
0.357022
0.357107
0.357192
0.357277
0.357277
0.357361
0.357446
0.357531
0.357616
0.357616
0.357701
0.357786
0.357871
0.357956
0.357956
0.358041
0.358126
0.358211
0.358296
0.358296
0.358381
0.358466
0.358552
0.358637
0.358637
0.358722
0.358807
0.358893
0.358978
0.358978
0.359063
0.359149
0.359234
0.35932
0.35932
0.359405
0.359491
0.359576
0.359662
0.359662
0.359748
0.359833
0.359919
0.360005
0.360005
0.36009
0.360176
0.360262
0.360348
0.360348
0.360434
0.36052
0.360606
0.360692
0.360692
0.360778
0.360864
0.36095
0.361036
0.361036
0.361122
0.361208
0.361294
0.36138
0.36138
0.361467
0.361553
0.361639
0.361726
0.361726
0.361812
0.361898
0.361985
0.362071
0.362071
0.362158
0.362244
0.362331
0.362417
0.362417
0.362504
0.36259
0.362677
0.362764
0.362764
0.362851
0.362937
0.363024
0.363111
0.363111
0.363198
0.363285
0.363371
0.363458
0.363458
0.363545
0.363632
0.363719
0.363806
0.363806
0.363893
0.363981
0.364068
0.364155
0.364155
0.364242
0.364329
0.364417
0.364504
0.364504
0.364591
0.364679
0.364766
0.364853
0.364853
0.364941
0.365028
0.365116
0.365203
0.365203