<?xml version="1.0"?>
<VTKFile type="UnstructuredGrid" version="0.1" byte_order="LittleEndian">
<UnstructuredGrid>
<Piece NumberOfPoints="5000" NumberOfCells="4000">
<PointData Scalars="Reaction 0">
<DataArray type="Float32" Name="Reaction 0" format="ascii">
0.918836
0.918836
0.918836
0.918836
0.918836
0.918836
0.918836
0.918836
0.918836
0.918836
0.918836
0.918836
0.918836
0.918836
0.918836
0.918836
0.918836
0.918836
0.918836
0.918836
0.918836
0.918836
0.918836
0.918836
0.918836
0.918836
0.918836
0.918836
0.918836
0.918836
0.918836
0.918836
0.918836
0.918836
0.918837
0.918837
0.918837
0.918837
0.918837
0.918837
0.918837
0.918837
0.918837
0.918837
0.918837
0.918837
0.918837
0.918837
0.918837
0.918837
0.918837
0.918837
0.918837
0.918838
0.918838
0.918838
0.918838
0.918838
0.918838
0.918838
0.918838
0.918838
0.918838
0.918838
0.918838
0.918838
0.918838
0.918839
0.918839
0.918839
0.918839
0.918839
0.918839
0.918839
0.918839
0.918839
0.918839
0.918839
0.91884
0.91884
0.91884
0.91884
0.91884
0.91884
0.91884
0.91884
0.91884
0.91884
0.918841
0.918841
0.918841
0.918841
0.918841
0.918841
0.918841
0.918841
0.918841
0.918842
0.918842
0.918842
0.918842
0.918842
0.918842
0.918842
0.918843
0.918843
0.918843
0.918843
0.918843
0.918843
0.918843
0.918843
0.918844
0.918844
0.918844
0.918844
0.918844
0.918844
0.918844
0.918845
0.918845
0.918845
0.918845
0.918845
0.918845
0.918845
0.918846
0.918846
0.918846
0.918846
0.918846
0.918846
0.918847
0.918847
0.918847
0.918847
0.918847
0.918847
0.918848
0.918848
0.918848
0.918848
0.918848
0.918849
0.918849
0.918849
0.918849
0.918849
0.918849
0.91885
0.91885
0.91885
0.91885
0.91885
0.918851
0.918851
0.918851
0.918851
0.918851
0.918852
0.918852
0.918852
0.918852
0.918852
0.918853
0.918853
0.918853
0.918853
0.918853
0.918854
0.918854
0.918854
0.918854
0.918854
0.918855
0.918855
0.918855
0.918855
0.918856
0.918856
0.918856
0.918856
0.918856
0.918857
0.918857
0.918857
0.918857
0.918858
0.918858
0.918858
0.918858
0.918858
0.918859
0.918859
0.918859
0.918859
0.91886
0.91886
0.91886
0.918861
0.918861
0.918861
0.918861
0.918861
0.918862
0.918862
0.918862
0.918862
0.918863
0.918863
0.918863
0.918863
0.918864
0.918864
0.918864
0.918864
0.918865
0.918865
0.918865
0.918866
0.918866
0.918866
0.918866
0.918867
0.918867
0.918867
0.918867
0.918868
0.918868
0.918869
0.918869
0.918869
0.918869
0.91887
0.91887
0.91887
0.91887
0.918871
0.918871
0.918871
0.918871
0.918872
0.918872
0.918873
0.918873
0.918873
0.918873
0.918874
0.918874
0.918874
0.918874
0.918875
0.918875
0.918876
0.918876
0.918876
0.918876
0.918877
0.918877
0.918878
0.918878
0.918878
0.918878
0.918879
0.918879
0.918879
0.91888
0.91888
0.91888
0.918881
0.918881
0.918881
0.918882
0.918882
0.918883
0.918883
0.918883
0.918883
0.918884
0.918884
0.918884
0.918885
0.918885
0.918886
0.918886
0.918886
0.918887
0.918887
0.918887
0.918888
0.918888
0.918888
0.918889
0.918889
0.91889
0.91889
0.91889
0.918891
0.918891
0.918891
0.918891
0.918892
0.918892
0.918893
0.918893
0.918893
0.918894
0.918894
0.918895
0.918895
0.918895
0.918896
0.918896
0.918897
0.918897
0.918897
0.918898
0.918898
0.918899
0.918899
0.918899
0.9189
0.9189
0.918901
0.918901
0.918901
0.918902
0.918902
0.918903
0.918903
0.918903
0.918904
0.918904
0.918905
0.918905
0.918905
0.918906
0.918906
0.918907
0.918907
0.918907
0.918908
0.918908
0.918909
0.918909
0.918909
0.91891
0.918911
0.918911
0.918912
0.918912
0.918912
0.918913
0.918913
0.918914
0.918914
0.918914
0.918915
0.918915
0.918916
0.918916
0.918917
0.918917
0.918918
0.918918
0.918918
0.918919
0.918919
0.91892
0.918921
0.918921
0.918921
0.918922
0.918922
0.918923
0.918923
0.918923
0.918924
0.918925
0.918925
0.918925
0.918926
0.918926
0.918927
0.918928
0.918928
0.918928
0.918929
0.918929
0.91893
0.91893
0.918931
0.918931
0.918932
0.918932
0.918932
0.918933
0.918934
0.918934
0.918935
0.918935
0.918935
0.918936
0.918937
0.918937
0.918937
0.918938
0.918939
0.918939
0.91894
0.91894
0.918941
0.918941
0.918942
0.918942
0.918942
0.918943
0.918944
0.918944
0.918945
0.918945
0.918946
0.918946
0.918947
0.918948
0.918948
0.918948
0.918949
0.91895
0.91895
0.91895
0.918951
0.918952
0.918952
0.918953
0.918953
0.918954
0.918954
0.918955
0.918956
0.918956
0.918956
0.918957
0.918958
0.918958
0.918958
0.918959
0.91896
0.91896
0.918961
0.918961
0.918962
0.918962
0.918963
0.918964
0.918964
0.918965
0.918965
0.918966
0.918967
0.918967
0.918967
0.918968
0.918969
0.91897
0.91897
0.91897
0.918971
0.918972
0.918972
0.918972
0.918973
0.918974
0.918975
0.918975
0.918975
0.918976
0.918977
0.918977
0.918978
0.918978
0.918979
0.91898
0.91898
0.918981
0.918981
0.918982
0.918983
0.918983
0.918984
0.918984
0.918985
0.918986
0.918986
0.918987
0.918987
0.918988
0.918989
0.918989
0.91899
0.91899
0.918991
0.918992
0.918993
0.918993
0.918993
0.918994
0.918995
0.918996
0.918997
0.918997
0.918997
0.918998
0.918999
0.919
0.919
0.919001
0.919001
0.919002
0.919003
0.919003
0.919004
0.919005
0.919005
0.919006
0.919006
0.919007
0.919008
0.919009
0.91901
0.91901
0.91901
0.919011
0.919012
0.919013
0.919013
0.919014
0.919015
0.919015
0.919016
0.919016
0.919017
0.919018
0.919019
0.91902
0.91902
0.919021
0.919021
0.919022
0.919023
0.919023
0.919024
0.919025
0.919026
0.919026
0.919026
0.919027
0.919028
0.919029
0.91903
0.91903
0.919031
0.919032
0.919033
0.919033
0.919033
0.919034
0.919035
0.919036
0.919037
0.919037
0.919038
0.919039
0.91904
0.919041
0.919041
0.919041
0.919042
0.919043
0.919044
0.919044
0.919045
0.919046
0.919047
0.919048
0.919048
0.919049
0.91905
0.91905
0.919051
0.919051
0.919052
0.919053
0.919054
0.919055
0.919055
0.919056
0.919057
0.919058
0.919059
0.919059
0.91906
0.919061
0.919062
0.919062
0.919062
0.919063
0.919064
0.919065
0.919066
0.919066
0.919067
0.919068
0.919069
0.91907
0.91907
0.919071
0.919072
0.919073
0.919074
0.919074
0.919075
0.919076
0.919077
0.919078
0.919078
0.919079
0.91908
0.919081
0.919082
0.919082
0.919083
0.919084
0.919085
0.919086
0.919086
0.919087
0.919088
0.919089
0.91909
0.91909
0.91909
0.919091
0.919092
0.919093
0.919093
0.919094
0.919095
0.919096
0.919098
0.919098
0.919099
0.9191
0.919101
0.919102
0.919102
0.919103
0.919104
0.919105
0.919106
0.919106
0.919107
0.919108
0.919109
0.91911
0.91911
0.919111
0.919112
0.919113
0.919114
0.919114
0.919115
0.919116
0.919117
0.919118
0.919118
0.919119
0.91912
0.919121
0.919122
0.919122
0.919123
0.919124
0.919125
0.919126
0.919126
0.919128
0.919129
0.91913
0.919131
0.919131
0.919132
0.919133
0.919134
0.919135
0.919135
0.919136
0.919137
0.919138
0.919139
0.919139
0.91914
0.919142
0.919143
0.919144
0.919144
0.919145
0.919146
0.919147
0.919148
0.919148
0.919149
0.91915
0.919151
0.919153
0.919153
0.919154
0.919155
0.919156
0.919157
0.919157
0.919158
0.919159
0.91916
0.919161
0.919161
0.919163
0.919164
0.919165
0.919166
0.919166
0.919167
0.919168
0.919169
0.91917
0.91917
0.919172
0.919173
0.919174
0.919175
0.919175
0.919176
0.919177
0.919179
0.91918
0.91918
0.919181
0.919182
0.919183
0.919184
0.919184
0.919185
0.919187
0.919188
0.919189
0.919189
0.91919
0.919191
0.919192
0.919194
0.919194
0.919195
0.919196
0.919197
0.919198
0.919198
0.9192
0.919201
0.919202
0.919203
0.919203
0.919204
0.919205
0.919207
0.919208
0.919208
0.919209
0.91921
0.919211
0.919213
0.919213
0.919214
0.919215
0.919216
0.919217
0.919217
0.919219
0.91922
0.919221
0.919222
0.919222
0.919223
0.919225
0.919226
0.919227
0.919227
0.919228
0.91923
0.919231
0.919232
0.919232
0.919233
0.919234
0.919236
0.919237
0.919237
0.919238
0.919239
0.919241
0.919242
0.919242
0.919243
0.919244
0.919246
0.919247
0.919247
0.919248
0.919249
0.919251
0.919252
0.919252
0.919253
0.919254
0.919256
0.919257
0.919257
0.919258
0.91926
0.919261
0.919262
0.919262
0.919263
0.919265
0.919266
0.919267
0.919267
0.919269
0.91927
0.919271
0.919273
0.919273
0.919274
0.919275
0.919277
0.919278
0.919278
0.919279
0.919281
0.919282
0.919283
0.919283
0.919285
0.919286
0.919287
0.919289
0.919289
0.91929
0.919291
0.919293
0.919294
0.919294
0.919295
0.919297
0.919298
0.919299
0.919299
0.919301
0.919302
0.919303
0.919305
0.919305
0.919306
0.919307
0.919309
0.91931
0.91931
0.919312
0.919313
0.919314
0.919316
0.919316
0.919317
0.919318
0.91932
0.919321
0.919321
0.919323
0.919324
0.919325
0.919327
0.919327
0.919328
0.919329
0.919331
0.919332
0.919332
0.919334
0.919335
0.919336
0.919338
0.919338
0.919339
0.919341
0.919342
0.919343
0.919343
0.919345
0.919346
0.919348
0.919349
0.919349
0.91935
0.919352
0.919353
0.919355
0.919355
0.919356
0.919358
0.919359
0.91936
0.91936
0.919362
0.919363
0.919365
0.919366
0.919366
0.919368
0.919369
0.91937
0.919372
0.919372
0.919373
0.919375
0.919376
0.919378
0.919378
0.919379
0.919381
0.919382
0.919384
0.919384
0.919385
0.919386
0.919388
0.919389
0.919389
0.919391
0.919392
0.919394
0.919395
0.919395
0.919397
0.919398
0.9194
0.919401
0.919401
0.919403
0.919404
0.919406
0.919407
0.919407
0.919409
0.91941
0.919412
0.919413
0.919413
0.919415
0.919416
0.919418
0.919419
0.919419
0.919421
0.919422
0.919424
0.919425
0.919425
0.919427
0.919428
0.91943
0.919431
0.919431
0.919433
0.919434
0.919436
0.919437
0.919437
0.919439
0.91944
0.919442
0.919443
0.919443
0.919445
0.919446
0.919448
0.91945
0.91945
0.919451
0.919453
0.919454
0.919456
0.919456
0.919457
0.919459
0.91946
0.919462
0.919462
0.919463
0.919465
0.919467
0.919468
0.919468
0.91947
0.919471
0.919473
0.919474
0.919474
0.919476
0.919478
0.919479
0.919481
0.919481
0.919482
0.919484
0.919485
0.919487
0.919487
0.919489
0.91949
0.919492
0.919493
0.919493
0.919495
0.919496
0.919498
0.9195
0.9195
0.919501
0.919503
0.919504
0.919506
0.919506
0.919508
0.919509
0.919511
0.919512
0.919512
0.919514
0.919516
0.919517
0.919519
0.919519
0.91952
0.919522
0.919524
0.919525
0.919525
0.919527
0.919529
0.91953
0.919532
0.919532
0.919534
0.919535
0.919537
0.919539
0.919539
0.91954
0.919542
0.919544
0.919545
0.919545
0.919547
0.919549
0.91955
0.919552
0.919552
0.919554
0.919555
0.919557
0.919559
0.919559
0.91956
0.919562
0.919564
0.919565
0.919565
0.919567
0.919569
0.919571
0.919572
0.919572
0.919574
0.919576
0.919577
0.919579
0.919579
0.919581
0.919583
0.919584
0.919586
0.919586
0.919588
0.919589
0.919591
0.919593
0.919593
0.919595
0.919596
0.919598
0.9196
0.9196
0.919602
0.919603
0.919605
0.919607
0.919607
0.919608
0.91961
0.919612
0.919614
0.919614
0.919615
0.919617
0.919619
0.919621
0.919621
0.919622
0.919624
0.919626
0.919628
0.919628
0.919629
0.919631
0.919633
0.919635
0.919635
0.919637
0.919638
0.91964
0.919642
0.919642
0.919644
0.919645
0.919647
0.919649
0.919649
0.919651
0.919653
0.919654
0.919656
0.919656
0.919658
0.91966
0.919661
0.919663
0.919663
0.919665
0.919667
0.919669
0.91967
0.91967
0.919672
0.919674
0.919676
0.919678
0.919678
0.919679
0.919681
0.919683
0.919685
0.919685
0.919687
0.919689
0.91969
0.919692
0.919692
0.919694
0.919696
0.919698
0.9197
0.9197
0.919701
0.919703
0.919705
0.919707
0.919707
0.919709
0.919711
0.919712
0.919714
0.919714
0.919716
0.919718
0.91972
0.919722
0.919722
0.919723
0.919725
0.919727
0.919729
0.919729
0.919731
0.919733
0.919735
0.919736
0.919736
0.919738
0.91974
0.919742
0.919744
0.919744
0.919746
0.919748
0.91975
0.919751
0.919751
0.919753
0.919755
0.919757
0.919759
0.919759
0.919761
0.919763
0.919765
0.919766
0.919766
0.919768
0.91977
0.919772
0.919774
0.919774
0.919776
0.919778
0.91978
0.919782
0.919782
0.919784
0.919785
0.919787
0.919789
0.919789
0.919791
0.919793
0.919795
0.919797
0.919797
0.919799
0.919801
0.919803
0.919805
0.919805
0.919807
0.919808
0.91981
0.919812
0.919812
0.919814
0.919816
0.919818
0.91982
0.91982
0.919822
0.919824
0.919826
0.919828
0.919828
0.91983
0.919832
0.919834
0.919836
0.919836
0.919838
0.91984
0.919842
0.919844
0.919844
0.919846
0.919848
0.91985
0.919852
0.919852
0.919854
0.919856
0.919858
0.91986
0.91986
0.919862
0.919864
0.919866
0.919868
0.919868
0.91987
0.919872
0.919874
0.919876
0.919876
0.919878
0.91988
0.919882
0.919884
0.919884
0.919886
0.919889
0.919891
0.919893
0.919893
0.919895
0.919897
0.919899
0.919901
0.919901
0.919903
0.919905
0.919907
0.919909
0.919909
0.919911
0.919913
0.919915
0.919917
0.919917
0.919919
0.919921
0.919923
0.919925
0.919925
0.919927
0.91993
0.919932
0.919934
0.919934
0.919936
0.919938
0.91994
0.919942
0.919942
0.919944
0.919946
0.919948
0.91995
0.91995
0.919952
0.919954
0.919957
0.919959
0.919959
0.919961
0.919963
0.919965
0.919967
0.919967
0.919969
0.919971
0.919973
0.919975
0.919975
0.919978
0.91998
0.919982
0.919984
0.919984
0.919986
0.919988
0.91999
0.919992
0.919992
0.919994
0.919997
0.919999
0.920001
0.920001
0.920003
0.920005
0.920007
0.920009
0.920009
0.920011
0.920014
0.920016
0.920018
0.920018
0.92002
0.920022
0.920024
0.920026
0.920026
0.920029
0.920031
0.920033
0.920035
0.920035
0.920037
0.920039
0.920041
0.920044
0.920044
0.920046
0.920048
0.92005
0.920052
0.920052
0.920054
0.920057
0.920059
0.920061
0.920061
0.920063
0.920065
0.920067
0.92007
0.92007
0.920072
0.920074
0.920076
0.920078
0.920078
0.92008
0.920083
0.920085
0.920087
0.920087
0.920089
0.920091
0.920094
0.920096
0.920096
0.920098
0.9201
0.920103
0.920105
0.920105
0.920107
0.920109
0.920111
0.920114
0.920114
0.920116
0.920118
0.920121
0.920123
0.920123
0.920125
0.920127
0.92013
0.920132
0.920132
0.920134
0.920136
0.920139
0.920141
0.920141
0.920143
0.920146
0.920148
0.92015
0.92015
0.920152
0.920155
0.920157
0.920159
0.920159
0.920162
0.920164
0.920166
0.920168
0.920168
0.920171
0.920173
0.920175
0.920178
0.920178
0.92018
0.920182
0.920185
0.920187
0.920187
0.920189
0.920191
0.920194
0.920196
0.920196
0.920198
0.920201
0.920203
0.920205
0.920205
0.920208
0.92021
0.920212
0.920215
0.920215
0.920217
0.920219
0.920222
0.920224
0.920224
0.920226
0.920229
0.920231
0.920233
0.920233
0.920236
0.920238
0.92024
0.920243
0.920243
0.920245
0.920247
0.92025
0.920252
0.920252
0.920254
0.920257
0.920259
0.920261
0.920261
0.920264
0.920266
0.920269
0.920271
0.920271
0.920273
0.920276
0.920278
0.92028
0.92028
0.920283
0.920285
0.920287
0.92029
0.92029
0.920292
0.920295
0.920297
0.920299
0.920299
0.920302
0.920304
0.920306
0.920309
0.920309
0.920311
0.920314
0.920316
0.920318
0.920318
0.920321
0.920323
0.920326
0.920328
0.920328
0.92033
0.920333
0.920335
0.920338
0.920338
0.92034
0.920342
0.920345
0.920347
0.920347
0.92035
0.920352
0.920354
0.920357
0.920357
0.920359
0.920362
0.920364
0.920367
0.920367
0.920369
0.920371
0.920374
0.920376
0.920376
0.920379
0.920381
0.920384
0.920386
0.920386
0.920389
0.920391
0.920394
0.920396
0.920396
0.920398
0.920401
0.920403
0.920406
0.920406
0.920408
0.920411
0.920413
0.920416
0.920416
0.920418
0.920421
0.920424
0.920426
0.920426
0.920429
0.920431
0.920434
0.920436
0.920436
0.920439
0.920441
0.920444
0.920446
0.920446
0.920449
0.920451
0.920454
0.920456
0.920456
0.920459
0.920461
0.920464
0.920467
0.920467
0.920469
0.920472
0.920474
0.920477
0.920477
0.920479
0.920482
0.920484
0.920487
0.920487
0.920489
0.920492
0.920495
0.920497
0.920497
0.9205
0.920502
0.920505
0.920507
0.920507
0.92051
0.920512
0.920515
0.920518
0.920518
0.92052
0.920523
0.920525
0.920528
0.920528
0.92053
0.920533
0.920536
0.920538
0.920538
0.920541
0.920543
0.920546
0.920549
0.920549
0.920551
0.920554
0.920556
0.920559
0.920559
0.920562
0.920564
0.920567
0.920569
0.920569
0.920572
0.920574
0.920577
0.92058
0.92058
0.920582
0.920585
0.920587
0.92059
0.92059
0.920593
0.920595
0.920598
0.920601
0.920601
0.920603
0.920606
0.920608
0.920611
0.920611
0.920614
0.920616
0.920619
0.920621
0.920621
0.920624
0.920627
0.920629
0.920632
0.920632
0.920635
0.920637
0.92064
0.920643
0.920643
0.920645
0.920648
0.92065
0.920653
0.920653
0.920656
0.920658
0.920661
0.920664
0.920664
0.920666
0.920669
0.920672
0.920674
0.920674
0.920677
0.92068
0.920682
0.920685
0.920685
0.920688
0.920691
0.920693
0.920696
0.920696
0.920699
0.920701
0.920704
0.920707
0.920707
0.92071
0.920712
0.920715
0.920718
0.920718
0.920721
0.920723
0.920726
0.920729
0.920729
0.920732
0.920734
0.920737
0.92074
0.92074
0.920743
0.920745
0.920748
0.920751
0.920751
0.920754
0.920756
0.920759
0.920762
0.920762
0.920765
0.920767
0.92077
0.920773
0.920773
0.920776
0.920779
0.920781
0.920784
0.920784
0.920787
0.92079
0.920792
0.920795
0.920795
0.920798
0.920801
0.920804
0.920806
0.920806
0.920809
0.920812
0.920815
0.920818
0.920818
0.92082
0.920823
0.920826
0.920829
0.920829
0.920831
0.920834
0.920837
0.92084
0.92084
0.920843
0.920845
0.920848
0.920851
0.920851
0.920854
0.920857
0.92086
0.920862
0.920862
0.920865
0.920868
0.920871
0.920874
0.920874
0.920876
0.920879
0.920882
0.920885
0.920885
0.920888
0.920891
0.920893
0.920896
0.920896
0.920899
0.920902
0.920905
0.920907
0.920907
0.92091
0.920913
0.920916
0.920919
0.920919
0.920922
0.920924
0.920927
0.92093
0.92093
0.920933
0.920936
0.920939
0.920942
0.920942
0.920944
0.920947
0.92095
0.920953
0.920953
0.920956
0.920959
0.920962
0.920964
0.920964
0.920967
0.92097
0.920973
0.920976
0.920976
0.920979
0.920982
0.920985
0.920988
0.920988
0.920991
0.920994
0.920997
0.920999
0.920999
0.921002
0.921005
0.921008
0.921011
0.921011
0.921014
0.921017
0.92102
0.921023
0.921023
0.921026
0.921029
0.921032
0.921035
0.921035
0.921038
0.921041
0.921044
0.921047
0.921047
0.92105
0.921053
0.921056
0.921059
0.921059
0.921062
0.921065
0.921068
0.921071
0.921071
0.921074
0.921077
0.92108
0.921083
0.921083
0.921085
0.921088
0.921091
0.921094
0.921094
0.921097
0.9211
0.921103
0.921106
0.921106
0.921109
0.921112
0.921115
0.921118
0.921118
0.921121
0.921124
0.921127
0.92113
0.92113
0.921133
0.921136
0.921139
0.921142
0.921142
0.921145
0.921148
0.921151
0.921154
0.921154
0.921157
0.92116
0.921163
0.921166
0.921166
0.92117
0.921173
0.921176
0.921179
0.921179
0.921182
0.921185
0.921188
0.921191
0.921191
0.921194
0.921197
0.9212
0.921203
0.921203
0.921206
0.921209
0.921212
0.921215
0.921215
0.921218
0.921221
0.921224
0.921227
0.921227
0.92123
0.921233
0.921236
0.921239
0.921239
0.921242
0.921245
0.921248
0.921251
0.921251
0.921255
0.921258
0.921261
0.921264
0.921264
0.921267
0.92127
0.921273
0.921276
0.921276
0.921279
0.921282
0.921286
0.921289
0.921289
0.921292
0.921295
0.921298
0.921301
0.921301
0.921304
0.921308
0.921311
0.921314
0.921314
0.921317
0.92132
0.921323
0.921326
0.921326
0.92133
0.921333
0.921336
0.921339
0.921339
0.921342
0.921345
0.921349
0.921352
0.921352
0.921355
0.921358
0.921361
0.921364
0.921364
0.921368
0.921371
0.921374
0.921377
0.921377
0.92138
0.921383
0.921387
0.92139
0.92139
0.921393
0.921396
0.921399
0.921403
0.921403
0.921406
0.921409
0.921412
0.921415
0.921415
0.921419
0.921422
0.921425
0.921428
0.921428
0.921431
0.921435
0.921438
0.921441
0.921441
0.921444
0.921447
0.921451
0.921454
0.921454
0.921457
0.92146
0.921463
0.921467
0.921467
0.92147
0.921473
0.921476
0.921479
0.921479
0.921483
0.921486
0.921489
0.921492
0.921492
0.921495
0.921499
0.921502
0.921505
0.921505
0.921508
0.921512
0.921515
0.921518
0.921518
0.921521
0.921524
0.921528
0.921531
0.921531
0.921534
0.921537
0.921541
0.921544
0.921544
0.921547
0.92155
0.921554
0.921557
0.921557
0.92156
0.921563
0.921567
0.92157
0.92157
0.921573
0.921577
0.92158
0.921583
0.921583
0.921587
0.92159
0.921593
0.921597
0.921597
0.9216
0.921603
0.921607
0.92161
0.92161
0.921613
0.921617
0.92162
0.921623
0.921623
0.921627
0.92163
0.921633
0.921637
0.921637
0.92164
0.921643
0.921647
0.92165
0.92165
0.921653
0.921657
0.92166
0.921663
0.921663
0.921667
0.92167
0.921674
0.921677
0.921677
0.92168
0.921684
0.921687
0.92169
0.92169
0.921694
0.921697
0.9217
0.921704
0.921704
0.921707
0.921711
0.921714
0.921717
0.921717
0.921721
0.921724
0.921727
0.921731
0.921731
0.921734
0.921738
0.921741
0.921744
0.921744
0.921748
0.921751
0.921755
0.921758
0.921758
0.921761
0.921765
0.921768
0.921772
0.921772
0.921775
0.921778
0.921782
0.921785
0.921785
0.921788
0.921792
0.921795
0.921799
0.921799
0.921802
0.921805
0.921809
0.921812
0.921812
0.921816
0.921819
0.921823
0.921826
0.921826
0.921829
0.921833
0.921836
0.92184
0.92184
0.921843
0.921846
0.92185
0.921853
0.921853
0.921857
0.92186
0.921864
0.921867
0.921867
0.921871
0.921874
0.921878
0.921881
0.921881
0.921885
0.921888
0.921892
0.921895
0.921895
0.921899
0.921902
0.921906
0.921909
0.921909
0.921913
0.921916
0.92192
0.921923
0.921923
0.921927
0.92193
0.921934
0.921937
0.921937
0.921941
0.921944
0.921948
0.921951
0.921951
0.921955
0.921958
0.921962
0.921966
0.921966
0.921969
0.921973
0.921976
0.92198
0.92198
0.921983
0.921987
0.92199
0.921994
0.921994
0.921997
0.922001
0.922005
0.922008
0.922008
0.922012
0.922015
0.922019
0.922022
0.922022
0.922026
0.922029
0.922033
0.922037
0.922037
0.92204
0.922044
0.922047
0.922051
0.922051
0.922054
0.922058
0.922061
0.922065
0.922065
0.922069
0.922072
0.922076
0.922079
0.922079
0.922083
0.922086
0.92209
0.922094
0.922094
0.922097
0.922101
0.922104
0.922108
0.922108
0.922111
0.922115
0.922119
0.922122
0.922122
0.922126
0.922129
0.922133
0.922137
0.922137
0.92214
0.922144
0.922147
0.922151
0.922151
0.922155
0.922158
0.922162
0.922165
0.922165
0.922169
0.922173
0.922176
0.92218
0.92218
0.922184
0.922187
0.922191
0.922195
0.922195
0.922198
0.922202
0.922206
0.922209
0.922209
0.922213
0.922217
0.92222
0.922224
0.922224
0.922228
0.922232
0.922235
0.922239
0.922239
0.922243
0.922246
0.92225
0.922254
0.922254
0.922257
0.922261
0.922265
0.922269
0.922269
0.922272
0.922276
0.92228
0.922283
0.922283
0.922287
0.922291
0.922295
0.922298
0.922298
0.922302
0.922306
0.922309
0.922313
0.922313
0.922317
0.922321
0.922324
0.922328
0.922328
0.922332
0.922336
0.922339
0.922343
0.922343
0.922347
0.92235
0.922354
0.922358
0.922358
0.922362
0.922365
0.922369
0.922373
0.922373
0.922377
0.92238
0.922384
0.922388
0.922388
0.922392
0.922395
0.922399
0.922403
0.922403
0.922407
0.92241
0.922414
0.922418
0.922418
0.922422
0.922425
0.922429
0.922433
0.922433
0.922437
0.92244
0.922444
0.922448
0.922448
0.922452
0.922455
0.922459
0.922463
0.922463
0.922467
0.922471
0.922474
0.922478
0.922478
0.922482
0.922486
0.92249
0.922493
0.922493
0.922497
0.922501
0.922505
0.922509
0.922509
0.922513
0.922516
0.92252
0.922524
0.922524
0.922528
0.922532
0.922536
0.92254
0.92254
0.922544
0.922547
0.922551
0.922555
0.922555
0.922559
0.922563
0.922567
0.922571
0.922571
0.922575
0.922578
0.922582
0.922586
0.922586
0.92259
0.922594
0.922598
0.922602
0.922602
0.922606
0.922609
0.922613
0.922617
0.922617
0.922621
0.922625
0.922629
0.922633
0.922633
0.922637
0.922641
0.922644
0.922648
0.922648
0.922652
0.922656
0.92266
0.922664
0.922664
0.922668
0.922672
0.922676
0.92268
0.92268
0.922683
0.922687
0.922691
0.922695
0.922695
0.922699
0.922703
0.922707
0.922711
0.922711
0.922715
0.922719
0.922722
0.922726
0.922726
0.92273
0.922734
0.922738
0.922742
0.922742
0.922746
0.92275
0.922754
0.922758
0.922758
0.922762
0.922766
0.92277
0.922774
0.922774
0.922778
0.922782
0.922785
0.922789
0.922789
0.922793
0.922797
0.922801
0.922805
0.922805
0.922809
0.922813
0.922817
0.922821
0.922821
0.922825
0.922829
0.922834
0.922838
0.922838
0.922842
0.922846
0.92285
0.922854
0.922854
0.922858
0.922862
0.922866
0.92287
0.92287
0.922874
0.922878
0.922882
0.922886
0.922886
0.92289
0.922894
0.922898
0.922902
0.922902
0.922906
0.92291
0.922914
0.922918
0.922918
0.922922
0.922926
0.92293
0.922934
0.922934
0.922939
0.922943
0.922947
0.922951
0.922951
0.922955
0.922959
0.922963
0.922967
0.922967
0.922971
0.922975
0.922979
0.922983
0.922983
0.922987
0.922991
0.922995
0.922999
0.922999
0.923003
0.923007
0.923012
0.923016
0.923016
0.92302
0.923024
0.923028
0.923032
0.923032
0.923036
0.92304
0.923044
0.923048
0.923048
0.923052
0.923056
0.92306
0.923065
0.923065
0.923069
0.923073
0.923077
0.923081
0.923081
0.923085
0.923089
0.923093
0.923097
0.923097
0.923102
0.923106
0.92311
0.923114
0.923114
0.923118
0.923122
0.923127
0.923131
0.923131
0.923135
0.923139
0.923143
0.923147
0.923147
0.923152
0.923156
0.92316
0.923164
0.923164
0.923168
0.923173
0.923177
0.923181
0.923181
0.923185
0.923189
0.923194
0.923198
0.923198
0.923202
0.923206
0.92321
0.923215
0.923215
0.923219
0.923223
0.923227
0.923231
0.923231
0.923236
0.92324
0.923244
0.923248
0.923248
0.923252
0.923257
0.923261
0.923265
0.923265
0.923269
0.923273
0.923278
0.923282
0.923282
0.923286
0.92329
0.923294
0.923299
0.923299
0.923303
0.923307
0.923311
0.923316
0.923316
0.92332
0.923324
0.923328
0.923332
0.923332
0.923337
0.923341
0.923345
0.923349
0.923349
0.923354
0.923358
0.923362
0.923366
0.923366
0.923371
0.923375
0.923379
0.923383
0.923383
0.923388
0.923392
0.923396
0.9234
0.9234
0.923405
0.923409
0.923413
0.923418
0.923418
0.923422
0.923426
0.92343
0.923435
0.923435
0.923439
0.923443
0.923448
0.923452
0.923452
0.923456
0.923461
0.923465
0.923469
0.923469
0.923474
0.923478
0.923482
0.923487
0.923487
0.923491
0.923496
0.9235
0.923504
0.923504
0.923509
0.923513
0.923517
0.923522
0.923522
0.923526
0.92353
0.923535
0.923539
0.923539
0.923543
0.923548
0.923552
0.923556
0.923556
0.923561
0.923565
0.92357
0.923574
0.923574
0.923578
0.923583
0.923587
0.923591
0.923591
0.923596
0.9236
0.923604
0.923609
0.923609
0.923613
0.923618
0.923622
0.923626
0.923626
0.923631
0.923635
0.923639
0.923644
0.923644
0.923648
0.923653
0.923657
0.923661
0.923661
0.923666
0.92367
0.923674
0.923679
0.923679
0.923683
0.923688
0.923692
0.923696
0.923696
0.923701
0.923705
0.92371
0.923714
0.923714
0.923719
0.923723
0.923727
0.923732
0.923732
0.923736
0.923741
0.923745
0.92375
0.92375
0.923754
0.923759
0.923763
0.923768
0.923768
0.923772
0.923777
0.923781
0.923786
0.923786
0.92379
0.923795
0.923799
0.923804
0.923804
0.923808
0.923813
0.923817
0.923822
0.923822
0.923826
0.923831
0.923835
0.92384
0.92384
0.923844
0.923849
0.923853
0.923858
0.923858
0.923862
0.923867
0.923871
0.923876
0.923876
0.92388
0.923885
0.923889
0.923894
0.923894
0.923898
0.923903
0.923907
0.923912
0.923912
0.923916
0.923921
0.923925
0.92393
0.92393
0.923934
0.923939
0.923943
0.923948
0.923948
0.923952
0.923957
0.923961
0.923966
0.923966
0.92397
0.923975
0.92398
0.923984
0.923984
0.923989
0.923993
0.923998
0.924002
0.924002
0.924007
0.924011
0.924016
0.924021
0.924021
0.924025
0.92403
0.924034
0.924039
0.924039
0.924043
0.924048
0.924053
0.924057
0.924057
0.924062
0.924067
0.924071
0.924076
0.924076
0.92408
0.924085
0.92409
0.924094
0.924094
0.924099
0.924104
0.924108
0.924113
0.924113
0.924117
0.924122
0.924127
0.924131
0.924131
0.924136
0.924141
0.924145
0.92415
0.92415
0.924155
0.924159
0.924164
0.924169
0.924169
0.924173
0.924178
0.924183
0.924187
0.924187
0.924192
0.924196
0.924201
0.924206
0.924206
0.92421
0.924215
0.92422
0.924224
0.924224
0.924229
0.924234
0.924238
0.924243
0.924243
0.924248
0.924252
0.924257
0.924262
0.924262
0.924266
0.924271
0.924276
0.92428
0.92428
0.924285
0.92429
0.924294
0.924299
0.924299
0.924304
0.924308
0.924313
0.924318
0.924318
0.924323
0.924327
0.924332
0.924337
0.924337
0.924341
0.924346
0.924351
0.924356
0.924356
0.92436
0.924365
0.92437
0.924375
0.924375
0.924379
0.924384
0.924389
0.924394
0.924394
0.924399
0.924403
0.924408
0.924413
0.924413
0.924418
0.924422
0.924427
0.924432
0.924432
0.924437
0.924442
0.924446
0.924451
0.924451
0.924456
0.924461
0.924465
0.92447
0.92447
0.924475
0.92448
0.924485
0.924489
0.924489
0.924494
0.924499
0.924504
0.924509
0.924509
0.924513
0.924518
0.924523
0.924528
0.924528
0.924533
0.924537
0.924542
0.924547
0.924547
0.924552
0.924557
0.924561
0.924566
0.924566
0.924571
0.924576
0.924581
0.924585
0.924585
0.92459
0.924595
0.9246
0.924605
0.924605
0.924609
0.924614
0.924619
0.924624
0.924624
0.924629
0.924634
0.924638
0.924643
0.924643
0.924648
0.924653
0.924658
0.924663
0.924663
0.924668
0.924673
0.924677
0.924682
0.924682
0.924687
0.924692
0.924697
0.924702
0.924702
0.924707
0.924712
0.924717
0.924722
0.924722
0.924727
0.924731
0.924736
0.924741
0.924741
0.924746
0.924751
0.924756
0.924761
0.924761
0.924766
0.924771
0.924776
0.924781
0.924781
0.924786
0.924791
0.924795
0.9248
0.9248
0.924805
0.92481
0.924815
0.92482
0.92482
0.924825
0.92483
0.924835
0.92484
0.92484
0.924845
0.92485
0.924855
0.92486
0.92486
0.924865
0.924869
0.924874
0.924879
0.924879
0.924884
0.924889
0.924894
0.924899
0.924899
0.924904
0.924909
0.924914
0.924919
0.924919
0.924924
0.924929
0.924934
0.924939
0.924939
0.924944
0.924949
0.924954
0.924959
0.924959
0.924964
0.924969
0.924974
0.924979
0.924979
0.924984
0.924989
0.924994
0.924999
0.924999
0.925004
0.925009
0.925014
0.925019
0.925019
0.925024
0.925029
0.925034
0.925039
0.925039
0.925044
0.925049
0.925054
0.925059
0.925059
0.925065
0.92507
0.925075
0.92508
0.92508
0.925085
0.92509
0.925095
0.9251
0.9251
0.925105
0.92511
0.925115
0.92512
0.92512
0.925125
0.92513
0.925135
0.92514
0.92514
0.925146
0.925151
0.925156
0.925161
0.925161
0.925166
0.925171
0.925176
0.925181
0.925181
0.925186
0.925191
0.925196
0.925201
0.925201
0.925206
0.925212
0.925217
0.925222
0.925222
0.925227
0.925232
0.925237
0.925242
0.925242
0.925247
0.925252
0.925257
0.925263
0.925263
0.925268
0.925273
0.925278
0.925283
0.925283
0.925288
0.925293
0.925299
0.925304
0.925304
0.925309
0.925314
0.925319
0.925324
0.925324
0.92533
0.925335
0.92534
0.925345
0.925345
0.92535
0.925355
0.925361
0.925366
0.925366
0.925371
0.925376
0.925381
0.925387
0.925387
0.925392
0.925397
0.925402
0.925407
0.925407
0.925413
0.925418
0.925423
0.925428
0.925428
0.925433
0.925439
0.925444
0.925449
0.925449
0.925454
0.925459
0.925465
0.92547
0.92547
0.925475
0.92548
0.925485
0.925491
0.925491
0.925496
0.925501
0.925506
0.925511
0.925511
0.925517
0.925522
0.925527
0.925532
0.925532
0.925537
0.925543
0.925548
0.925553
0.925553
0.925558
0.925564
0.925569
0.925574
0.925574
0.925579
0.925585
0.92559
0.925595
0.925595
0.9256
0.925606
0.925611
0.925616
0.925616
0.925622
0.925627
0.925632
0.925638
0.925638
0.925643
0.925648
0.925653
0.925659
0.925659
0.925664
0.925669
0.925675
0.92568
0.92568
0.925685
0.925691
0.925696
0.925701
0.925701
0.925707
0.925712
0.925717
0.925723
0.925723
0.925728
0.925733
0.925739
0.925744
0.925744
0.925749
0.925755
0.92576
0.925765
0.925765
0.925771
0.925776
0.925781
0.925787
0.925787
0.925792
0.925797
0.925803
0.925808
0.925808
0.925813
0.925819
0.925824
0.925829
0.925829
0.925835
0.92584
0.925845
0.925851
0.925851
0.925856
0.925861
0.925867
0.925872
0.925872
0.925877
0.925883
0.925888
0.925894
0.925894