<?xml version="1.0"?>
<VTKFile type="UnstructuredGrid" version="0.1" byte_order="LittleEndian">
<UnstructuredGrid>
<Piece NumberOfPoints="5000" NumberOfCells="4000">
<PointData Scalars="Reaction 0">
<DataArray type="Float32" Name="Reaction 0" format="ascii">
0.613864
0.613864
0.613864
0.613864
0.613864
0.613864
0.613864
0.613864
0.613864
0.613864
0.613864
0.613864
0.613864
0.613864
0.613864
0.613864
0.613864
0.613864
0.613864
0.613864
0.613864
0.613864
0.613864
0.613864
0.613864
0.613864
0.613864
0.613864
0.613864
0.613864
0.613864
0.613864
0.613864
0.613864
0.613864
0.613864
0.613864
0.613864
0.613864
0.613864
0.613864
0.613864
0.613864
0.613864
0.613864
0.613864
0.613864
0.613864
0.613864
0.613864
0.613864
0.613864
0.613864
0.613864
0.613863
0.613863
0.613863
0.613863
0.613863
0.613863
0.613863
0.613863
0.613863
0.613863
0.613863
0.613863
0.613863
0.613863
0.613863
0.613863
0.613863
0.613863
0.613863
0.613863
0.613863
0.613863
0.613863
0.613863
0.613863
0.613863
0.613863
0.613863
0.613863
0.613863
0.613862
0.613862
0.613862
0.613862
0.613862
0.613862
0.613862
0.613862
0.613862
0.613862
0.613862
0.613862
0.613862
0.613862
0.613862
0.613862
0.613862
0.613862
0.613862
0.613862
0.613862
0.613862
0.613861
0.613861
0.613861
0.613861
0.613861
0.613861
0.613861
0.613861
0.613861
0.613861
0.613861
0.613861
0.613861
0.613861
0.613861
0.613861
0.613861
0.613861
0.61386
0.61386
0.61386
0.61386
0.61386
0.61386
0.61386
0.61386
0.61386
0.61386
0.61386
0.61386
0.61386
0.61386
0.61386
0.613859
0.613859
0.613859
0.613859
0.613859
0.613859
0.613859
0.613859
0.613859
0.613859
0.613859
0.613859
0.613859
0.613859
0.613858
0.613858
0.613858
0.613858
0.613858
0.613858
0.613858
0.613858
0.613858
0.613858
0.613858
0.613858
0.613858
0.613858
0.613857
0.613857
0.613857
0.613857
0.613857
0.613857
0.613857
0.613857
0.613857
0.613857
0.613857
0.613856
0.613856
0.613856
0.613856
0.613856
0.613856
0.613856
0.613856
0.613856
0.613856
0.613856
0.613855
0.613855
0.613855
0.613855
0.613855
0.613855
0.613855
0.613855
0.613855
0.613855
0.613855
0.613855
0.613854
0.613854
0.613854
0.613854
0.613854
0.613854
0.613854
0.613854
0.613854
0.613854
0.613853
0.613853
0.613853
0.613853
0.613853
0.613853
0.613853
0.613853
0.613852
0.613852
0.613852
0.613852
0.613852
0.613852
0.613852
0.613852
0.613852
0.613852
0.613851
0.613851
0.613851
0.613851
0.613851
0.613851
0.613851
0.613851
0.613851
0.61385
0.61385
0.61385
0.61385
0.61385
0.61385
0.61385
0.61385
0.61385
0.613849
0.613849
0.613849
0.613849
0.613849
0.613849
0.613849
0.613848
0.613848
0.613848
0.613848
0.613848
0.613848
0.613848
0.613848
0.613848
0.613847
0.613847
0.613847
0.613847
0.613847
0.613847
0.613847
0.613847
0.613846
0.613846
0.613846
0.613846
0.613846
0.613846
0.613846
0.613845
0.613845
0.613845
0.613845
0.613845
0.613845
0.613845
0.613845
0.613844
0.613844
0.613844
0.613844
0.613844
0.613844
0.613844
0.613843
0.613843
0.613843
0.613843
0.613843
0.613843
0.613842
0.613842
0.613842
0.613842
0.613842
0.613842
0.613842
0.613842
0.613841
0.613841
0.613841
0.613841
0.613841
0.613841
0.61384
0.61384
0.61384
0.61384
0.61384
0.61384
0.61384
0.61384
0.613839
0.613839
0.613839
0.613839
0.613839
0.613839
0.613838
0.613838
0.613838
0.613838
0.613838
0.613838
0.613837
0.613837
0.613837
0.613837
0.613837
0.613837
0.613836
0.613836
0.613836
0.613836
0.613836
0.613836
0.613836
0.613835
0.613835
0.613835
0.613835
0.613835
0.613834
0.613834
0.613834
0.613834
0.613834
0.613834
0.613833
0.613833
0.613833
0.613833
0.613833
0.613833
0.613832
0.613832
0.613832
0.613832
0.613832
0.613831
0.613831
0.613831
0.613831
0.613831
0.613831
0.61383
0.61383
0.61383
0.61383
0.61383
0.613829
0.613829
0.613829
0.613829
0.613829
0.613829
0.613829
0.613828
0.613828
0.613828
0.613828
0.613828
0.613827
0.613827
0.613827
0.613827
0.613827
0.613826
0.613826
0.613826
0.613826
0.613826
0.613826
0.613825
0.613825
0.613825
0.613825
0.613825
0.613824
0.613824
0.613824
0.613824
0.613824
0.613823
0.613823
0.613823
0.613823
0.613823
0.613822
0.613822
0.613822
0.613822
0.613822
0.613821
0.613821
0.613821
0.613821
0.613821
0.61382
0.61382
0.61382
0.61382
0.61382
0.613819
0.613819
0.613819
0.613819
0.613819
0.613818
0.613818
0.613818
0.613818
0.613818
0.613817
0.613817
0.613817
0.613817
0.613816
0.613816
0.613816
0.613816
0.613816
0.613815
0.613815
0.613815
0.613815
0.613815
0.613814
0.613814
0.613814
0.613814
0.613814
0.613813
0.613813
0.613813
0.613812
0.613812
0.613812
0.613812
0.613812
0.613811
0.613811
0.613811
0.613811
0.61381
0.61381
0.61381
0.61381
0.61381
0.613809
0.613809
0.613809
0.613809
0.613808
0.613808
0.613808
0.613808
0.613808
0.613807
0.613807
0.613807
0.613807
0.613806
0.613806
0.613806
0.613805
0.613805
0.613805
0.613805
0.613804
0.613804
0.613804
0.613804
0.613804
0.613803
0.613803
0.613803
0.613803
0.613802
0.613802
0.613802
0.613802
0.613801
0.613801
0.613801
0.6138
0.6138
0.6138
0.6138
0.6138
0.613799
0.613799
0.613799
0.613799
0.613798
0.613798
0.613798
0.613798
0.613797
0.613797
0.613797
0.613797
0.613796
0.613796
0.613796
0.613795
0.613795
0.613795
0.613795
0.613794
0.613794
0.613794
0.613794
0.613793
0.613793
0.613793
0.613793
0.613792
0.613792
0.613791
0.613791
0.613791
0.613791
0.61379
0.61379
0.61379
0.61379
0.613789
0.613789
0.613789
0.613788
0.613788
0.613788
0.613788
0.613787
0.613787
0.613787
0.613787
0.613786
0.613786
0.613786
0.613786
0.613785
0.613785
0.613784
0.613784
0.613784
0.613784
0.613783
0.613783
0.613783
0.613783
0.613782
0.613782
0.613782
0.613781
0.613781
0.613781
0.61378
0.61378
0.61378
0.61378
0.613779
0.613779
0.613779
0.613778
0.613778
0.613778
0.613777
0.613777
0.613777
0.613777
0.613776
0.613776
0.613776
0.613775
0.613775
0.613775
0.613774
0.613774
0.613774
0.613774
0.613773
0.613773
0.613773
0.613772
0.613772
0.613772
0.613771
0.613771
0.613771
0.613771
0.61377
0.61377
0.613769
0.613769
0.613769
0.613769
0.613768
0.613768
0.613768
0.613768
0.613767
0.613767
0.613766
0.613766
0.613766
0.613766
0.613765
0.613765
0.613764
0.613764
0.613764
0.613764
0.613763
0.613763
0.613763
0.613762
0.613762
0.613762
0.613761
0.613761
0.613761
0.61376
0.61376
0.61376
0.61376
0.613759
0.613759
0.613758
0.613758
0.613758
0.613758
0.613757
0.613757
0.613756
0.613756
0.613756
0.613755
0.613755
0.613755
0.613755
0.613754
0.613754
0.613753
0.613753
0.613753
0.613753
0.613752
0.613752
0.613751
0.613751
0.613751
0.61375
0.61375
0.61375
0.61375
0.613749
0.613749
0.613748
0.613748
0.613748
0.613748
0.613747
0.613747
0.613746
0.613746
0.613746
0.613745
0.613745
0.613745
0.613745
0.613744
0.613744
0.613743
0.613743
0.613743
0.613742
0.613742
0.613741
0.613741
0.613741
0.613741
0.61374
0.61374
0.613739
0.613739
0.613739
0.613738
0.613738
0.613738
0.613738
0.613737
0.613737
0.613736
0.613736
0.613736
0.613735
0.613735
0.613734
0.613734
0.613734
0.613734
0.613733
0.613733
0.613732
0.613732
0.613732
0.613731
0.613731
0.61373
0.61373
0.61373
0.613729
0.613729
0.613729
0.613729
0.613728
0.613728
0.613727
0.613727
0.613727
0.613726
0.613726
0.613725
0.613725
0.613725
0.613724
0.613724
0.613724
0.613723
0.613723
0.613723
0.613722
0.613722
0.613721
0.613721
0.613721
0.61372
0.61372
0.613719
0.613719
0.613719
0.613718
0.613718
0.613717
0.613717
0.613717
0.613717
0.613716
0.613716
0.613716
0.613715
0.613715
0.613714
0.613714
0.613714
0.613713
0.613713
0.613712
0.613712
0.613712
0.613711
0.613711
0.61371
0.61371
0.61371
0.613709
0.613709
0.613708
0.613708
0.613708
0.613707
0.613707
0.613706
0.613706
0.613706
0.613705
0.613705
0.613704
0.613704
0.613704
0.613703
0.613703
0.613702
0.613702
0.613702
0.613701
0.613701
0.6137
0.6137
0.6137
0.613699
0.613699
0.613698
0.613698
0.613698
0.613697
0.613697
0.613696
0.613696
0.613696
0.613695
0.613695
0.613694
0.613694
0.613694
0.613693
0.613693
0.613692
0.613692
0.613692
0.613691
0.613691
0.61369
0.613689
0.613689
0.613689
0.613688
0.613688
0.613687
0.613687
0.613687
0.613686
0.613686
0.613685
0.613685
0.613685
0.613684
0.613684
0.613683
0.613683
0.613683
0.613682
0.613681
0.613681
0.613681
0.61368
0.61368
0.613679
0.613679
0.613679
0.613678
0.613678
0.613677
0.613677
0.613677
0.613676
0.613675
0.613675
0.613674
0.613674
0.613674
0.613673
0.613673
0.613672
0.613672
0.613672
0.613671
0.61367
0.61367
0.61367
0.613669
0.613669
0.613668
0.613668
0.613668
0.613667
0.613666
0.613666
0.613665
0.613665
0.613665
0.613664
0.613664
0.613663
0.613663
0.613663
0.613662
0.613661
0.613661
0.613661
0.61366
0.61366
0.613659
0.613659
0.613659
0.613658
0.613657
0.613657
0.613656
0.613656
0.613656
0.613655
0.613655
0.613654
0.613654
0.613653
0.613653
0.613652
0.613652
0.613652
0.613651
0.61365
0.61365
0.613649
0.613649
0.613649
0.613648
0.613648
0.613647
0.613647
0.613646
0.613646
0.613645
0.613645
0.613645
0.613644
0.613643
0.613643
0.613642
0.613642
0.613642
0.613641
0.61364
0.61364
0.61364
0.613639
0.613639
0.613638
0.613638
0.613638
0.613637
0.613636
0.613636
0.613635
0.613635
0.613635
0.613634
0.613633
0.613633
0.613633
0.613632
0.613632
0.613631
0.61363
0.61363
0.61363
0.613629
0.613629
0.613628
0.613628
0.613627
0.613627
0.613626
0.613625
0.613625
0.613625
0.613624
0.613624
0.613623
0.613623
0.613622
0.613622
0.613621
0.613621
0.613621
0.61362
0.613619
0.613619
0.613618
0.613618
0.613618
0.613617
0.613616
0.613616
0.613616
0.613615
0.613614
0.613614
0.613613
0.613613
0.613613
0.613612
0.613611
0.613611
0.613611
0.61361
0.613609
0.613609
0.613608
0.613608
0.613608
0.613607
0.613606
0.613606
0.613606
0.613605
0.613604
0.613604
0.613603
0.613603
0.613603
0.613602
0.613601
0.613601
0.613601
0.6136
0.613599
0.613599
0.613598
0.613598
0.613597
0.613597
0.613596
0.613595
0.613595
0.613595
0.613594
0.613593
0.613593
0.613593
0.613592
0.613591
0.613591
0.61359
0.61359
0.613589
0.613589
0.613588
0.613587
0.613587
0.613587
0.613586
0.613585
0.613585
0.613585
0.613584
0.613584
0.613583
0.613582
0.613582
0.613582
0.613581
0.61358
0.61358
0.61358
0.613579
0.613578
0.613578
0.613577
0.613577
0.613576
0.613576
0.613575
0.613574
0.613574
0.613574
0.613573
0.613572
0.613572
0.613572
0.613571
0.61357
0.613569
0.613569
0.613569
0.613568
0.613567
0.613567
0.613566
0.613566
0.613565
0.613565
0.613564
0.613563
0.613563
0.613563
0.613562
0.613561
0.613561
0.613561
0.61356
0.613559
0.613558
0.613558
0.613558
0.613557
0.613556
0.613556
0.613555
0.613555
0.613554
0.613554
0.613553
0.613552
0.613552
0.613551
0.613551
0.61355
0.613549
0.613549
0.613549
0.613548
0.613547
0.613547
0.613547
0.613546
0.613545
0.613544
0.613544
0.613544
0.613543
0.613542
0.613542
0.613541
0.613541
0.61354
0.613539
0.613539
0.613538
0.613538
0.613537
0.613537
0.613536
0.613535
0.613535
0.613534
0.613534
0.613533
0.613532
0.613532
0.613532
0.613531
0.61353
0.613529
0.613529
0.613529
0.613528
0.613527
0.613526
0.613526
0.613526
0.613525
0.613524
0.613524
0.613524
0.613523
0.613522
0.613521
0.613521
0.613521
0.61352
0.613519
0.613518
0.613518
0.613518
0.613517
0.613516
0.613516
0.613515
0.613515
0.613514
0.613513
0.613513
0.613512
0.613512
0.613511
0.61351
0.61351
0.613509
0.613509
0.613508
0.613507
0.613507
0.613506
0.613506
0.613505
0.613505
0.613504
0.613503
0.613503
0.613502
0.613502
0.613501
0.6135
0.6135
0.613499
0.613499
0.613498
0.613497
0.613497
0.613496
0.613496
0.613495
0.613494
0.613494
0.613493
0.613493
0.613492
0.613491
0.613491
0.61349
0.61349
0.613489
0.613488
0.613488
0.613487
0.613486
0.613486
0.613485
0.613485
0.613484
0.613483
0.613483
0.613482
0.613482
0.613481
0.61348
0.613479
0.613479
0.613479
0.613478
0.613477
0.613476
0.613476
0.613476
0.613475
0.613474
0.613473
0.613472
0.613472
0.613472
0.613471
0.61347
0.613469
0.613469
0.613469
0.613468
0.613467
0.613466
0.613466
0.613466
0.613465
0.613464
0.613463
0.613463
0.613462
0.613462
0.613461
0.61346
0.61346
0.613459
0.613459
0.613458
0.613457
0.613457
0.613456
0.613455
0.613455
0.613454
0.613454
0.613453
0.613452
0.613451
0.613451
0.613451
0.61345
0.613449
0.613448
0.613447
0.613447
0.613447
0.613446
0.613445
0.613444
0.613444
0.613443
0.613443
0.613442
0.613441
0.613441
0.61344
0.613439
0.613438
0.613438
0.613438
0.613437
0.613436
0.613435
0.613434
0.613434
0.613434
0.613433
0.613432
0.613431
0.613431
0.61343
0.61343
0.613429
0.613428
0.613428
0.613427
0.613426
0.613425
0.613425
0.613425
0.613424
0.613423
0.613422
0.613421
0.613421
0.613421
0.61342
0.613419
0.613418
0.613418
0.613417
0.613416
0.613416
0.613415
0.613415
0.613414
0.613413
0.613412
0.613411
0.613411
0.613411
0.61341
0.613409
0.613408
0.613408
0.613407
0.613407
0.613406
0.613405
0.613405
0.613404
0.613403
0.613402
0.613402
0.613402
0.613401
0.6134
0.613399
0.613398
0.613398
0.613397
0.613397
0.613396
0.613395
0.613395
0.613394
0.613393
0.613392
0.613391
0.613391
0.613391
0.61339
0.613389
0.613388
0.613388
0.613387
0.613386
0.613386
0.613385
0.613385
0.613384
0.613383
0.613382
0.613381
0.613381
0.61338
0.61338
0.613379
0.613378
0.613378
0.613377
0.613376
0.613375
0.613374
0.613374
0.613374
0.613373
0.613372
0.613371
0.613371
0.61337
0.613369
0.613368
0.613367
0.613367
0.613367
0.613366
0.613365
0.613364
0.613364
0.613363
0.613362
0.613361
0.613361
0.613361
0.61336
0.613359
0.613358
0.613357
0.613357
0.613356
0.613355
0.613355
0.613354
0.613354
0.613353
0.613352
0.613351
0.61335
0.61335
0.613349
0.613349
0.613348
0.613347
0.613347
0.613346
0.613345
0.613344
0.613343
0.613343
0.613342
0.613341
0.613341
0.61334
0.61334
0.613339
0.613338
0.613337
0.613336
0.613336
0.613335
0.613334
0.613334
0.613333
0.613333
0.613332
0.613331
0.61333
0.613329
0.613329
0.613328
0.613327
0.613326
0.613325
0.613325
0.613325
0.613324
0.613323
0.613322
0.613322
0.613321
0.61332
0.613319
0.613318
0.613318
0.613317
0.613317
0.613316
0.613315
0.613315
0.613314
0.613313
0.613312
0.613311
0.613311
0.61331
0.613309
0.613308
0.613307
0.613307
0.613307
0.613306
0.613305
0.613304
0.613304
0.613303
0.613302
0.613301
0.6133
0.6133
0.613299
0.613298
0.613298
0.613297
0.613297
0.613296
0.613295
0.613294
0.613293
0.613293
0.613292
0.613291
0.61329
0.613289
0.613289
0.613288
0.613288
0.613287
0.613286
0.613286
0.613285
0.613284
0.613283
0.613282
0.613282
0.613281
0.61328
0.613279
0.613278
0.613278
0.613277
0.613277
0.613276
0.613275
0.613275
0.613274
0.613273
0.613272
0.613271
0.613271
0.61327
0.613269
0.613268
0.613267
0.613267
0.613266
0.613265
0.613264
0.613263
0.613263
0.613263
0.613262
0.613261
0.61326
0.61326
0.613259
0.613258
0.613257
0.613256
0.613256
0.613255
0.613254
0.613253
0.613252
0.613252
0.613251
0.61325
0.613249
0.613248
0.613248
0.613247
0.613247
0.613246
0.613245
0.613245
0.613244
0.613243
0.613242
0.613241
0.613241
0.61324
0.613239
0.613238
0.613237
0.613237
0.613236
0.613235
0.613234
0.613234
0.613234
0.613233
0.613232
0.613231
0.61323
0.61323
0.613229
0.613228
0.613227
0.613226
0.613226
0.613225
0.613224
0.613223
0.613222
0.613222
0.613221
0.61322
0.613219
0.613218
0.613218
0.613217
0.613216
0.613215
0.613214
0.613214
0.613214
0.613213
0.613212
0.613211
0.613211
0.61321
0.613209
0.613208
0.613207
0.613207
0.613206
0.613205
0.613204
0.613203
0.613203
0.613202
0.613201
0.6132
0.613199
0.613199
0.613198
0.613197
0.613196
0.613195
0.613195
0.613194
0.613193
0.613192
0.613191
0.613191
0.61319
0.613189
0.613188
0.613187
0.613187
0.613186
0.613186
0.613185
0.613184
0.613184
0.613183
0.613182
0.613181
0.61318
0.61318
0.613179
0.613178
0.613177
0.613176
0.613176
0.613175
0.613174
0.613173
0.613172
0.613172
0.613171
0.61317
0.613169
0.613168
0.613168
0.613167
0.613166
0.613165
0.613164
0.613164
0.613163
0.613162
0.613161
0.61316
0.61316
0.613159
0.613158
0.613157
0.613156
0.613156
0.613155
0.613154
0.613153
0.613152
0.613152
0.613151
0.61315
0.613149
0.613148
0.613148
0.613147
0.613146
0.613145
0.613144
0.613144
0.613143
0.613142
0.613141
0.61314
0.61314
0.613139
0.613138
0.613137
0.613136
0.613136
0.613135
0.613134
0.613133
0.613132
0.613132
0.613131
0.61313
0.613129
0.613128
0.613128
0.613127
0.613126
0.613125
0.613124
0.613124
0.613123
0.613123
0.613122
0.613121
0.613121
0.61312
0.613119
0.613118
0.613117
0.613117
0.613116
0.613115
0.613114
0.613112
0.613112
0.613111
0.61311
0.613109
0.613108
0.613108
0.613107
0.613106
0.613105
0.613104
0.613104
0.613103
0.613102
0.613101
0.6131
0.6131
0.613099
0.613098
0.613097
0.613096
0.613096
0.613095
0.613094
0.613093
0.613092
0.613092
0.613091
0.61309
0.613089
0.613088
0.613088
0.613087
0.613086
0.613085
0.613084
0.613084
0.613083
0.613082
0.613081
0.61308
0.61308
0.613079
0.613078
0.613077
0.613076
0.613076
0.613075
0.613074
0.613073
0.613072
0.613072
0.613071
0.61307
0.613069
0.613068
0.613068
0.613067
0.613066
0.613065
0.613064
0.613064
0.613063
0.613062
0.613061
0.61306
0.61306
0.613059
0.613058
0.613057
0.613056
0.613056
0.613055
0.613054
0.613053
0.613052
0.613052
0.613051
0.61305
0.613049
0.613048
0.613048
0.613046
0.613045
0.613044
0.613043
0.613043
0.613042
0.613041
0.61304
0.613039
0.613039
0.613038
0.613037
0.613036
0.613035
0.613035
0.613034
0.613033
0.613032
0.613031
0.613031
0.61303
0.613029
0.613028
0.613027
0.613027
0.613026
0.613025
0.613024
0.613023
0.613023
0.613022
0.613021
0.61302
0.613019
0.613019
0.613018
0.613017
0.613016
0.613015
0.613015
0.613014
0.613013
0.613012
0.613011
0.613011
0.61301
0.613009
0.613007
0.613006
0.613006
0.613005
0.613004
0.613003
0.613002
0.613002
0.613001
0.613
0.612999
0.612998
0.612998
0.612997
0.612996
0.612995
0.612994
0.612994
0.612993
0.612992
0.612991
0.61299
0.61299
0.612989
0.612988
0.612987
0.612986
0.612986
0.612985
0.612984
0.612983
0.612982
0.612982
0.61298
0.612979
0.612978
0.612977
0.612977
0.612976
0.612975
0.612974
0.612973
0.612973
0.612972
0.612971
0.61297
0.612969
0.612969
0.612968
0.612967
0.612966
0.612965
0.612965
0.612964
0.612963
0.612962
0.612961
0.612961
0.61296
0.612959
0.612958
0.612957
0.612957
0.612955
0.612954
0.612953
0.612952
0.612952
0.612951
0.61295
0.612949
0.612948
0.612948
0.612947
0.612946
0.612945
0.612944
0.612944
0.612943
0.612942
0.612941
0.61294
0.61294
0.612938
0.612937
0.612936
0.612935
0.612935
0.612934
0.612933
0.612932
0.612931
0.612931
0.61293
0.612929
0.612928
0.612927
0.612927
0.612926
0.612925
0.612924
0.612923
0.612923
0.612922
0.612921
0.61292
0.612919
0.612919
0.612918
0.612917
0.612916
0.612915
0.612915
0.612914
0.612912
0.612911
0.61291
0.61291
0.612909
0.612908
0.612907
0.612906
0.612906
0.612905
0.612904
0.612903
0.612902
0.612902
0.612901
0.6129
0.612899
0.612898
0.612898
0.612897
0.612896
0.612895
0.612894
0.612894
0.612893
0.612891
0.61289
0.612889
0.612889
0.612888
0.612887
0.612886
0.612885
0.612885
0.612884
0.612883
0.612882
0.612881
0.612881
0.61288
0.612879
0.612878
0.612877
0.612877
0.612876
0.612875
0.612874
0.612873
0.612873
0.612871
0.61287
0.612869
0.612868
0.612868
0.612867
0.612866
0.612865
0.612864
0.612864
0.612863
0.612862
0.612861
0.61286
0.61286
0.612859
0.612858
0.612857
0.612856
0.612856
0.612855
0.612853
0.612852
0.612851
0.612851
0.61285
0.612849
0.612848
0.612847
0.612847
0.612846
0.612845
0.612844
0.612843
0.612843
0.612842
0.612841
0.61284
0.612838
0.612838
0.612837
0.612836
0.612835
0.612834
0.612834
0.612833
0.612832
0.612831
0.61283
0.61283
0.612829
0.612828
0.612827
0.612826
0.612826
0.612825
0.612824
0.612823
0.612822
0.612822
0.612821
0.61282
0.612819
0.612818
0.612818
0.612817
0.612816
0.612814
0.612813
0.612813
0.612812
0.612811
0.61281
0.612809
0.612809
0.612808
0.612807
0.612806
0.612805
0.612805
0.612804
0.612803
0.612802
0.612801
0.612801
0.6128
0.612799
0.612798
0.612797
0.612797
0.612796
0.612795
0.612793
0.612792
0.612792
0.612791
0.61279
0.612789
0.612788
0.612788
0.612787
0.612786
0.612785
0.612784
0.612784
0.612783
0.612782
0.612781
0.61278
0.61278
0.612779
0.612778
0.612777
0.612776
0.612776
0.612775
0.612773
0.612772
0.612771
0.612771
0.61277
0.612769
0.612768
0.612767
0.612767
0.612766
0.612765
0.612764
0.612763
0.612763
0.612762
0.612761
0.61276
0.612759
0.612759
0.612758
0.612757
0.612756
0.612754
0.612754
0.612753
0.612752
0.612751
0.61275
0.61275
0.612749
0.612748
0.612747
0.612746
0.612746
0.612745
0.612744
0.612743
0.612742
0.612742
0.612741
0.61274
0.612739
0.612738
0.612738
0.612736
0.612735
0.612734
0.612733
0.612733
0.612732
0.612731
0.61273
0.612729
0.612729
0.612728
0.612727
0.612726
0.612725
0.612725
0.612724
0.612723
0.612722
0.612721
0.612721
0.61272
0.612719
0.612718
0.612717
0.612717
0.612716
0.612715
0.612714
0.612713
0.612713
0.612712
0.612711
0.61271
0.612709
0.612709
0.612708
0.612707
0.612706
0.612704
0.612704
0.612703
0.612702
0.612701
0.6127
0.6127
0.612699
0.612698
0.612697
0.612696
0.612696
0.612695
0.612694
0.612693
0.612692
0.612692
0.612691
0.61269
0.612689
0.612688
0.612688
0.612687
0.612686
0.612685
0.612684
0.612684
0.612683
0.612682
0.612681
0.61268
0.61268
0.612679
0.612678
0.612677
0.612675
0.612675
0.612674
0.612673
0.612672
0.612671
0.612671
0.61267
0.612669
0.612668
0.612667
0.612667
0.612666
0.612665
0.612664
0.612663
0.612663
0.612662
0.612661
0.61266
0.612659
0.612659
0.612658
0.612657
0.612656
0.612655
0.612655
0.612654
0.612653
0.612651
0.61265
0.61265
0.612649
0.612648
0.612648
0.612647
0.612647
0.612646
0.612645
0.612644
0.612643
0.612643
0.612642
0.612641
0.61264
0.612639
0.612639
0.612638
0.612637
0.612636
0.612635
0.612635
0.612633
0.612632
0.612631
0.61263
0.61263
0.612629
0.612628
0.612627
0.612626
0.612626
0.612625
0.612624
0.612623
0.612622
0.612622
0.612621
0.61262
0.612619
0.612618
0.612618
0.612617
0.612616
0.612615
0.612614
0.612614
0.612613
0.612612
0.612611
0.61261
0.61261
0.612609
0.612608
0.612607
0.612606
0.612606
0.612605
0.612604
0.612603
0.612602
0.612602
0.612601
0.6126
0.612599
0.612598
0.612598
0.612597
0.612596
0.612595
0.612594
0.612594
0.612593
0.612592
0.612591
0.61259
0.61259
0.612589
0.612588
0.612587
0.612586
0.612586
0.612585
0.612584
0.612583
0.612582
0.612582
0.612581
0.61258
0.612579
0.612578
0.612578
0.612577
0.612576
0.612575
0.612574
0.612574
0.612573
0.612572
0.612571
0.61257
0.61257
0.612569
0.612568
0.612567
0.612566
0.612566
0.612565
0.612564
0.612563
0.612562
0.612562
0.612561
0.61256
0.612559
0.612558
0.612558
0.612557
0.612557
0.612556
0.612555
0.612555
0.612554
0.612553
0.612552
0.612551
0.612551
0.61255
0.612549
0.612548
0.612547
0.612547
0.612546
0.612545
0.612544
0.612543
0.612543
0.612542
0.612541
0.61254
0.612539
0.612539
0.612538
0.612537
0.612536
0.612535
0.612535
0.612534
0.612533
0.612532
0.612531
0.612531
0.61253
0.612529
0.612528
0.612528
0.612528
0.612527
0.612526
0.612525
0.612524
0.612524
0.612523
0.612522
0.612521
0.61252
0.61252
0.612519
0.612518
0.612517
0.612516
0.612516
0.612515
0.612514
0.612513
0.612512
0.612512
0.612511
0.61251
0.612509
0.612508
0.612508
0.612507
0.612506
0.612505
0.612504
0.612504
0.612504
0.612503
0.612502
0.612501
0.612501
0.6125
0.612499
0.612498
0.612497
0.612497
0.612496
0.612495
0.612494
0.612493
0.612493
0.612492
0.612491
0.61249
0.612489
0.612489
0.612488
0.612488
0.612487
0.612486
0.612486
0.612485
0.612484
0.612483
0.612482
0.612482
0.612481
0.61248
0.612479
0.612478
0.612478
0.612477
0.612477
0.612476
0.612475
0.612475
0.612474
0.612473
0.612472
0.612471
0.612471
0.61247
0.612469
0.612468
0.612467
0.612467
0.612467
0.612466
0.612465
0.612464
0.612464
0.612463
0.612462
0.612461
0.61246
0.61246
0.612459
0.612458
0.612457
0.612457
0.612457
0.612456
0.612455
0.612454
0.612453
0.612453
0.612452
0.612451
0.61245
0.612449
0.612449
0.612448
0.612447
0.612447
0.612446
0.612446
0.612445
0.612444
0.612443
0.612442
0.612442
0.612441
0.61244
0.612439
0.612438
0.612438
0.612438
0.612437
0.612436
0.612435
0.612435
0.612434
0.612433
0.612432
0.612431
0.612431
0.61243
0.612429
0.612429
0.612428
0.612428
0.612427
0.612426
0.612425
0.612424
0.612424
0.612423
0.612422
0.612422
0.612421
0.612421
0.61242
0.612419
0.612418
0.612417
0.612417
0.612417
0.612416
0.612415
0.612414
0.612414
0.612413
0.612412
0.612411
0.612411
0.612411
0.61241
0.612409
0.612408
0.612407
0.612407
0.612406
0.612405
0.612405
0.612404
0.612404
0.612403
0.612402
0.612401
0.6124
0.6124
0.6124
0.612399
0.612398
0.612397
0.612397
0.612396
0.612395
0.612395
0.612394
0.612394
0.612393
0.612392
0.612391
0.61239
0.61239
0.612389
0.612389
0.612388
0.612387
0.612387
0.612386
0.612385
0.612385
0.612384
0.612384
0.612383
0.612382
0.612381
0.61238
0.61238
0.61238
0.612379
0.612378
0.612377
0.612377
0.612376
0.612375
0.612375
0.612374
0.612374
0.612373
0.612372
0.612371
0.61237
0.61237
0.61237
0.612369
0.612368
0.612367
0.612367
0.612366
0.612365
0.612365
0.612364
0.612364
0.612363
0.612362
0.612361
0.612361
0.612361
0.61236
0.612359
0.612358
0.612358
0.612358
0.612357
0.612356
0.612355
0.612355
0.612355
0.612354
0.612353
0.612352
0.612351
0.612351
0.612351
0.61235
0.612349
0.612348
0.612348
0.612348
0.612347
0.612346
0.612345
0.612345
0.612345
0.612344
0.612343
0.612342
0.612342
0.612341
0.612341
0.61234
0.612339
0.612339
0.612338
0.612338
0.612337
0.612336
0.612336
0.612335
0.612335
0.612334
0.612333
0.612333
0.612332
0.612332
0.612331
0.61233
0.61233
0.612329
0.612329
0.612328
0.612327
0.612327
0.612326
0.612326
0.612325
0.612324
0.612324
0.612323
0.612323
0.612322
0.612321
0.612321
0.61232
0.61232
0.612319
0.612318
0.612318
0.612317
0.612317
0.612316
0.612315
0.612315
0.612314
0.612314
0.612313
0.612312
0.612312
0.612311
0.612311
0.61231
0.612309
0.612309
0.612309
0.612308
0.612307
0.612307
0.612307
0.612306
0.612305
0.612305
0.612304
0.612304
0.612303
0.612303
0.612302
0.612301
0.612301
0.612301
0.6123
0.612299
0.612298
0.612298
0.612298
0.612297
0.612296
0.612296
0.612296
0.612295
0.612294
0.612294
0.612293
0.612293
0.612292
0.612292
0.612291
0.61229
0.61229
0.61229
0.612289
0.612288
0.612288
0.612288
0.612287
0.612286
0.612286
0.612285
0.612285
0.612284
0.612284
0.612283
0.612282
0.612282
0.612282
0.612281
0.61228
0.61228
0.61228
0.612279
0.612278
0.612278
0.612277
0.612277
0.612277
0.612276
0.612275
0.612275
0.612275
0.612274
0.612273
0.612273
0.612272
0.612272
0.612271
0.612271
0.61227
0.612269
0.612269
0.612269
0.612268
0.612267
0.612267
0.612267
0.612266
0.612265
0.612265
0.612264
0.612264
0.612264
0.612263
0.612262
0.612262
0.612262
0.612261
0.612261
0.61226
0.61226
0.61226
0.612259
0.612258
0.612258
0.612257
0.612257
0.612257
0.612256
0.612256
0.612255
0.612255
0.612254
0.612254
0.612253
0.612253
0.612253
0.612252
0.612252
0.612251
0.61225
0.61225
0.61225
0.612249
0.612249
0.612248
0.612248
0.612248
0.612247
0.612246
0.612246
0.612246
0.612245
0.612245
0.612244
0.612244
0.612244
0.612243
0.612243
0.612242
0.612241
0.612241
0.612241
0.61224
0.61224
0.612239
0.612239
0.612239
0.612238
0.612238
0.612237
0.612237
0.612237
0.612236
0.612235
0.612235
0.612235
0.612234
0.612234
0.612233
0.612233
0.612233
0.612232
0.612232
0.612231
0.612231
0.612231
0.61223
0.612229
0.612229
0.612228
0.612228
0.612228
0.612227
0.612227
0.612226
0.612226
0.612226
0.612225
0.612225
0.612224
0.612224
0.612224
0.612223
0.612223
0.612223
0.612223
0.612222
0.612222
0.612221
0.612221
0.612221
0.61222
0.61222
0.612219
0.612219
0.612219
0.612218
0.612218
0.612217
0.612217
0.612217
0.612217
0.612216
0.612216
0.612215
0.612215
0.612215
0.612214
0.612214
0.612213
0.612213
0.612213
0.612213
0.612212
0.612212
0.612212
0.612211
0.612211
0.61221
0.61221
0.61221
0.612209
0.612209
0.612209
0.612208
0.612208
0.612208
0.612207
0.612207
0.612206
0.612206
0.612206
0.612206
0.612205
0.612205
0.612205
0.612204
0.612204
0.612203
0.612203
0.612203
0.612203
0.612202
0.612202
0.612201
0.612201
0.612201
0.6122
0.6122
0.6122
0.6122
0.612199
0.612199
0.612198
0.612198
0.612198
0.612198
0.612197
0.612197
0.612197
0.612197
0.612196
0.612196
0.612196
0.612195
0.612195
0.612195
0.612195
0.612194
0.612194
0.612194
0.612194
0.612193
0.612193
0.612193
0.612193
0.612192
0.612192
0.612191
0.612191
0.612191
0.612191
0.61219
0.61219
0.61219
0.61219
0.61219
0.612189
0.612189
0.612189
0.612189
0.612188
0.612188
0.612188
0.612187
0.612187
0.612187
0.612187
0.612186
0.612186
0.612186
0.612186
0.612185
0.612185
0.612185
0.612185
0.612184
0.612184
0.612184
0.612184
0.612184
0.612183
0.612183
0.612183
0.612182
0.612182
0.612182
0.612182
0.612181
0.612181
0.612181
0.612181
0.612181
0.61218
0.61218
0.61218
0.61218
0.612179
0.612179
0.612179
0.612179
0.612179
0.612178
0.612178
0.612178
0.612178
0.612178
0.612177
0.612177
0.612177
0.612177
0.612177
0.612176
0.612176
0.612176
0.612176
0.612176
0.612176
0.612175
0.612175
0.612175
0.612175
0.612175
0.612175
0.612174
0.612174
0.612174
0.612174
0.612174
0.612174
0.612174
0.612173
0.612173
0.612173
0.612173
0.612173
0.612173
0.612172
0.612172
0.612172
0.612172
0.612172
0.612172
0.612172
0.612171
0.612171
0.612171
0.612171
0.612171
0.612171
0.612171
0.612171
0.61217
0.61217
0.61217
0.61217
0.61217
0.61217
0.61217
0.612169
0.612169
0.612169
0.612169
0.612169
0.612169
0.612169
0.612169
0.612168
0.612168
0.612168
0.612168
0.612168
0.612168
0.612168
0.612167
0.612167
0.612167
0.612167
0.612167
0.612167
0.612167
0.612167
0.612167
0.612167
0.612167
0.612167
0.612166
0.612166
0.612166
0.612166
0.612166
0.612166
0.612166
0.612166
0.612166
0.612166
0.612166
0.612166
0.612166
0.612166
0.612166
0.612166
0.612166
0.612166
0.612166
0.612166
0.612166
0.612165
0.612165
0.612165
0.612165
0.612165
0.612165
0.612165
0.612165
0.612165
0.612165
0.612165
0.612165
0.612165
0.612165
0.612165
0.612165
0.612165
0.612165
0.612165
0.612165
0.612165
0.612165
0.612165
0.612165
0.612165
0.612165
0.612165
0.612165
0.612165
0.612165
0.612165
0.612165
0.612165
0.612165
0.612165
0.612165
0.612165
0.612165
0.612165
0.612165
0.612165
0.612165
0.612165
0.612165
0.612165
0.612165
0.612165
0.612165
0.612165
0.612165
0.612165
0.612165
0.612165
0.612165
0.612165
0.612165
0.612165
0.612165
0.612165
0.612165
0.612165
0.612166
0.612166
0.612166
0.612166
0.612166
0.612166
0.612166
0.612166
0.612166
0.612166
0.612166
0.612166
0.612166
0.612167
0.612167
0.612167
0.612167
0.612167
0.612167
0.612167
0.612167
0.612167
0.612167
0.612167
0.612168
0.612168
0.612168
0.612168
0.612168
0.612168
0.612168
0.612168
0.612168
0.612168
0.612169
0.612169
0.612169
0.612169
0.612169
0.612169
0.612169
0.612169
0.612169
0.61217
0.61217
0.61217
0.61217
0.61217
0.61217
0.61217
0.61217
0.612171
0.612171
0.612171
0.612171
0.612171
0.612171
0.612171
0.612171
0.612172
0.612172