<?xml version="1.0"?>
<VTKFile type="UnstructuredGrid" version="0.1" byte_order="LittleEndian">
<UnstructuredGrid>
<Piece NumberOfPoints="5000" NumberOfCells="4000">
<PointData Scalars="Reaction 0">
<DataArray type="Float32" Name="Reaction 0" format="ascii">
0.81533
0.81533
0.81533
0.81533
0.81533
0.81533
0.81533
0.81533
0.81533
0.81533
0.81533
0.81533
0.81533
0.81533
0.81533
0.81533
0.81533
0.815331
0.815331
0.815331
0.815331
0.815331
0.815331
0.815331
0.815331
0.815331
0.815331
0.815331
0.815331
0.815332
0.815332
0.815332
0.815332
0.815332
0.815332
0.815332
0.815332
0.815332
0.815333
0.815333
0.815333
0.815333
0.815333
0.815333
0.815333
0.815333
0.815334
0.815334
0.815334
0.815334
0.815334
0.815335
0.815335
0.815335
0.815335
0.815335
0.815335
0.815336
0.815336
0.815336
0.815336
0.815336
0.815337
0.815337
0.815337
0.815337
0.815338
0.815338
0.815338
0.815338
0.815338
0.815339
0.815339
0.815339
0.81534
0.81534
0.81534
0.81534
0.815341
0.815341
0.815341
0.815341
0.815342
0.815342
0.815342
0.815342
0.815343
0.815343
0.815344
0.815344
0.815344
0.815344
0.815345
0.815345
0.815346
0.815346
0.815346
0.815346
0.815347
0.815347
0.815347
0.815348
0.815348
0.815349
0.815349
0.815349
0.81535
0.81535
0.81535
0.815351
0.815351
0.815351
0.815352
0.815352
0.815353
0.815353
0.815353
0.815354
0.815354
0.815355
0.815355
0.815355
0.815356
0.815356
0.815357
0.815357
0.815358
0.815358
0.815359
0.815359
0.815359
0.81536
0.81536
0.815361
0.815361
0.815361
0.815362
0.815363
0.815363
0.815364
0.815364
0.815364
0.815365
0.815366
0.815366
0.815366
0.815367
0.815368
0.815368
0.815369
0.815369
0.81537
0.81537
0.815371
0.815372
0.815372
0.815372
0.815373
0.815374
0.815374
0.815374
0.815375
0.815376
0.815376
0.815377
0.815377
0.815378
0.815378
0.815379
0.81538
0.81538
0.815381
0.815381
0.815382
0.815383
0.815383
0.815384
0.815384
0.815385
0.815386
0.815386
0.815387
0.815388
0.815388
0.815389
0.815389
0.81539
0.815391
0.815392
0.815392
0.815392
0.815393
0.815394
0.815395
0.815396
0.815396
0.815397
0.815397
0.815398
0.815399
0.815399
0.8154
0.815401
0.815402
0.815403
0.815403
0.815404
0.815404
0.815405
0.815406
0.815406
0.815407
0.815408
0.815409
0.81541
0.81541
0.815411
0.815412
0.815413
0.815414
0.815414
0.815415
0.815416
0.815417
0.815418
0.815418
0.815418
0.815419
0.81542
0.815421
0.815421
0.815422
0.815423
0.815424
0.815425
0.815425
0.815426
0.815428
0.815429
0.81543
0.81543
0.815431
0.815432
0.815433
0.815434
0.815434
0.815435
0.815436
0.815437
0.815438
0.815438
0.815439
0.81544
0.815441
0.815442
0.815442
0.815444
0.815445
0.815446
0.815447
0.815447
0.815448
0.815449
0.81545
0.815451
0.815451
0.815453
0.815454
0.815455
0.815456
0.815456
0.815457
0.815458
0.81546
0.815461
0.815461
0.815462
0.815463
0.815464
0.815466
0.815466
0.815467
0.815468
0.815469
0.81547
0.81547
0.815472
0.815473
0.815474
0.815475
0.815475
0.815477
0.815478
0.815479
0.81548
0.81548
0.815482
0.815483
0.815484
0.815486
0.815486
0.815487
0.815488
0.815489
0.815491
0.815491
0.815492
0.815493
0.815495
0.815496
0.815496
0.815497
0.815499
0.8155
0.815502
0.815502
0.815503
0.815504
0.815506
0.815507
0.815507
0.815508
0.81551
0.815511
0.815513
0.815513
0.815514
0.815515
0.815517
0.815518
0.815518
0.81552
0.815521
0.815523
0.815524
0.815524
0.815525
0.815527
0.815528
0.81553
0.81553
0.815531
0.815533
0.815534
0.815536
0.815536
0.815537
0.815539
0.81554
0.815542
0.815542
0.815543
0.815545
0.815546
0.815548
0.815548
0.815549
0.815551
0.815552
0.815554
0.815554
0.815556
0.815557
0.815559
0.81556
0.81556
0.815562
0.815563
0.815565
0.815567
0.815567
0.815568
0.81557
0.815571
0.815573
0.815573
0.815575
0.815576
0.815578
0.81558
0.81558
0.815581
0.815583
0.815585
0.815586
0.815586
0.815588
0.81559
0.815591
0.815593
0.815593
0.815595
0.815596
0.815598
0.8156
0.8156
0.815601
0.815603
0.815605
0.815607
0.815607
0.815608
0.81561
0.815612
0.815614
0.815614
0.815615
0.815617
0.815619
0.815621
0.815621
0.815622
0.815624
0.815626
0.815628
0.815628
0.815629
0.815631
0.815633
0.815635
0.815635
0.815637
0.815639
0.81564
0.815642
0.815642
0.815644
0.815646
0.815648
0.81565
0.81565
0.815651
0.815653
0.815655
0.815657
0.815657
0.815659
0.815661
0.815663
0.815665
0.815665
0.815667
0.815668
0.81567
0.815672
0.815672
0.815674
0.815676
0.815678
0.81568
0.81568
0.815682
0.815684
0.815686
0.815688
0.815688
0.81569
0.815692
0.815694
0.815696
0.815696
0.815698
0.8157
0.815702
0.815704
0.815704
0.815706
0.815708
0.81571
0.815712
0.815712
0.815714
0.815716
0.815718
0.81572
0.81572
0.815722
0.815724
0.815726
0.815728
0.815728
0.81573
0.815732
0.815734
0.815736
0.815736
0.815738
0.815741
0.815743
0.815745
0.815745
0.815747
0.815749
0.815751
0.815753
0.815753
0.815755
0.815758
0.81576
0.815762
0.815762
0.815764
0.815766
0.815768
0.815771
0.815771
0.815773
0.815775
0.815777
0.815779
0.815779
0.815782
0.815784
0.815786
0.815788
0.815788
0.81579
0.815793
0.815795
0.815797
0.815797
0.815799
0.815802
0.815804
0.815806
0.815806
0.815809
0.815811
0.815813
0.815815
0.815815
0.815818
0.81582
0.815822
0.815825
0.815825
0.815827
0.815829
0.815832
0.815834
0.815834
0.815836
0.815839
0.815841
0.815843
0.815843
0.815846
0.815848
0.81585
0.815853
0.815853
0.815855
0.815858
0.81586
0.815862
0.815862
0.815865
0.815867
0.81587
0.815872
0.815872
0.815874
0.815877
0.815879
0.815882
0.815882
0.815884
0.815887
0.815889
0.815892
0.815892
0.815894
0.815896
0.815899
0.815901
0.815901
0.815904
0.815906
0.815909
0.815911
0.815911
0.815914
0.815916
0.815919
0.815921
0.815921
0.815924
0.815927
0.815929
0.815932
0.815932
0.815934
0.815937
0.815939
0.815942
0.815942
0.815944
0.815947
0.81595
0.815952
0.815952
0.815955
0.815957
0.81596
0.815963
0.815963
0.815965
0.815968
0.81597
0.815973
0.815973
0.815976
0.815978
0.815981
0.815984
0.815984
0.815986
0.815989
0.815992
0.815994
0.815994
0.815997
0.816
0.816002
0.816005
0.816005
0.816008
0.816011
0.816013
0.816016
0.816016
0.816019
0.816021
0.816024
0.816027
0.816027
0.81603
0.816032
0.816035
0.816038
0.816038
0.816041
0.816043
0.816046
0.816049
0.816049
0.816052
0.816055
0.816057
0.81606
0.81606
0.816063
0.816066
0.816069
0.816072
0.816072
0.816074
0.816077
0.81608
0.816083
0.816083
0.816086
0.816089
0.816091
0.816094
0.816094
0.816097
0.8161
0.816103
0.816106
0.816106
0.816109
0.816112
0.816115
0.816117
0.816117
0.81612
0.816123
0.816126
0.816129
0.816129
0.816132
0.816135
0.816138
0.816141
0.816141
0.816144
0.816147
0.81615
0.816153
0.816153
0.816156
0.816159
0.816162
0.816165
0.816165
0.816168
0.816171
0.816174
0.816177
0.816177
0.81618
0.816183
0.816186
0.816189
0.816189
0.816192
0.816195
0.816198
0.816201
0.816201
0.816204
0.816207
0.81621
0.816214
0.816214
0.816217
0.81622
0.816223
0.816226
0.816226
0.816229
0.816232
0.816235
0.816238
0.816238
0.816242
0.816245
0.816248
0.816251
0.816251
0.816254
0.816257
0.81626
0.816264
0.816264
0.816267
0.81627
0.816273
0.816276
0.816276
0.81628
0.816283
0.816286
0.816289
0.816289
0.816292
0.816296
0.816299
0.816302
0.816302
0.816305
0.816309
0.816312
0.816315
0.816315
0.816318
0.816322
0.816325
0.816328
0.816328
0.816331
0.816335
0.816338
0.816341
0.816341
0.816345
0.816348
0.816351
0.816355
0.816355
0.816358
0.816361
0.816365
0.816368
0.816368
0.816371
0.816375
0.816378
0.816381
0.816381
0.816385
0.816388
0.816391
0.816395
0.816395
0.816398
0.816402
0.816405
0.816408
0.816408
0.816412
0.816415
0.816419
0.816422
0.816422
0.816425
0.816429
0.816432
0.816436
0.816436
0.816439
0.816443
0.816446
0.81645
0.81645
0.816453
0.816457
0.81646
0.816463
0.816463
0.816467
0.81647
0.816474
0.816477
0.816477
0.816481
0.816484
0.816488
0.816492
0.816492
0.816495
0.816499
0.816502
0.816506
0.816506
0.816509
0.816513
0.816516
0.81652
0.81652
0.816524
0.816527
0.816531
0.816535
0.816535
0.816538
0.816542
0.816545
0.816549
0.816549
0.816553
0.816556
0.81656
0.816564
0.816564
0.816567
0.816571
0.816575
0.816578
0.816578
0.816582
0.816586
0.816589
0.816593
0.816593
0.816597
0.816601
0.816604
0.816608
0.816608
0.816612
0.816615
0.816619
0.816623
0.816623
0.816627
0.81663
0.816634
0.816638
0.816638
0.816642
0.816645
0.816649
0.816653
0.816653
0.816657
0.816661
0.816664
0.816668
0.816668
0.816672
0.816676
0.81668
0.816683
0.816683
0.816687
0.816691
0.816695
0.816699
0.816699
0.816703
0.816706
0.81671
0.816714
0.816714
0.816718
0.816722
0.816726
0.81673
0.81673
0.816734
0.816737
0.816741
0.816745
0.816745
0.816749
0.816753
0.816757
0.816761
0.816761
0.816765
0.816769
0.816773
0.816777
0.816777
0.816781
0.816785
0.816789
0.816793
0.816793
0.816797
0.816801
0.816805
0.816809
0.816809
0.816813
0.816817
0.816821
0.816825
0.816825
0.816829
0.816833
0.816837
0.816841
0.816841
0.816845
0.816849
0.816853
0.816857
0.816857
0.816861
0.816865
0.816869
0.816873
0.816873
0.816877
0.816881
0.816885
0.81689
0.81689
0.816894
0.816898
0.816902
0.816906
0.816906
0.81691
0.816914
0.816918
0.816922
0.816922
0.816927
0.816931
0.816935
0.816939
0.816939
0.816943
0.816947
0.816952
0.816956
0.816956
0.81696
0.816964
0.816968
0.816973
0.816973
0.816977
0.816981
0.816985
0.81699
0.81699
0.816994
0.816998
0.817002
0.817006
0.817006
0.817011
0.817015
0.817019
0.817024
0.817024
0.817028
0.817032
0.817036
0.817041
0.817041
0.817045
0.817049
0.817054
0.817058
0.817058
0.817062
0.817066
0.817071
0.817075
0.817075
0.817079
0.817084
0.817088
0.817093
0.817093
0.817097
0.817101
0.817106
0.81711
0.81711
0.817114
0.817119
0.817123
0.817128
0.817128
0.817132
0.817136
0.817141
0.817145
0.817145
0.81715
0.817154
0.817158
0.817163
0.817163
0.817167
0.817172
0.817176
0.817181
0.817181
0.817185
0.81719
0.817194
0.817198
0.817198
0.817203
0.817207
0.817212
0.817216
0.817216
0.817221
0.817225
0.81723
0.817234
0.817234
0.817239
0.817243
0.817248
0.817253
0.817253
0.817257
0.817262
0.817266
0.817271
0.817271
0.817275
0.81728
0.817285
0.817289
0.817289
0.817294
0.817298
0.817303
0.817308
0.817308
0.817312
0.817317
0.817322
0.817326
0.817326
0.817331
0.817336
0.81734
0.817345
0.817345
0.81735
0.817354
0.817359
0.817364
0.817364
0.817368
0.817373
0.817378
0.817383
0.817383
0.817387
0.817392
0.817397
0.817401
0.817401
0.817406
0.817411
0.817416
0.81742
0.81742
0.817425
0.81743
0.817435
0.81744
0.81744
0.817444
0.817449
0.817454
0.817459
0.817459
0.817463
0.817468
0.817473
0.817478
0.817478
0.817483
0.817488
0.817492
0.817497
0.817497
0.817502
0.817507
0.817512
0.817517
0.817517
0.817521
0.817526
0.817531
0.817536
0.817536
0.817541
0.817546
0.817551
0.817556
0.817556
0.817561
0.817565
0.81757
0.817575
0.817575
0.81758
0.817585
0.81759
0.817595
0.817595
0.8176
0.817605
0.81761
0.817615
0.817615
0.81762
0.817625
0.81763
0.817635
0.817635
0.81764
0.817645
0.81765
0.817655
0.817655
0.81766
0.817665
0.81767
0.817675
0.817675
0.81768
0.817685
0.81769
0.817695
0.817695
0.8177
0.817705
0.81771
0.817715
0.817715
0.81772
0.817725
0.81773
0.817736
0.817736
0.817741
0.817746
0.817751
0.817756
0.817756
0.817761
0.817766
0.817771
0.817776
0.817776
0.817782
0.817787
0.817792
0.817797
0.817797
0.817802
0.817807
0.817812
0.817818
0.817818
0.817823
0.817828
0.817833
0.817838
0.817838
0.817844
0.817849
0.817854
0.817859
0.817859
0.817864
0.81787
0.817875
0.81788
0.81788
0.817885
0.817891
0.817896
0.817901
0.817901
0.817906
0.817912
0.817917
0.817922
0.817922
0.817927
0.817933
0.817938
0.817943
0.817943
0.817949
0.817954
0.817959
0.817964
0.817964
0.81797
0.817975
0.81798
0.817986
0.817986
0.817991
0.817996
0.818002
0.818007
0.818007
0.818012
0.818018
0.818023
0.818029
0.818029
0.818034
0.818039
0.818045
0.81805
0.81805
0.818056
0.818061
0.818066
0.818072
0.818072
0.818077
0.818083
0.818088
0.818094
0.818094
0.818099
0.818105
0.81811
0.818116
0.818116
0.818121
0.818127
0.818132
0.818138
0.818138
0.818143
0.818149
0.818154
0.81816
0.81816
0.818165
0.818171
0.818177
0.818182
0.818182
0.818188
0.818193
0.818199
0.818204
0.818204
0.81821
0.818216
0.818221
0.818227
0.818227
0.818232
0.818238
0.818244
0.818249
0.818249
0.818255
0.81826
0.818266
0.818272
0.818272
0.818277
0.818283
0.818289
0.818294
0.818294
0.8183
0.818306
0.818311
0.818317
0.818317
0.818323
0.818328
0.818334
0.81834
0.81834
0.818345
0.818351
0.818357
0.818363
0.818363
0.818368
0.818374
0.81838
0.818385
0.818385
0.818391
0.818397
0.818403
0.818408
0.818408
0.818414
0.81842
0.818426
0.818432
0.818432
0.818437
0.818443
0.818449
0.818455
0.818455
0.818461
0.818466
0.818472
0.818478
0.818478
0.818484
0.81849
0.818495
0.818501
0.818501
0.818507
0.818513
0.818519
0.818525
0.818525
0.818531
0.818536
0.818542
0.818548
0.818548
0.818554
0.81856
0.818566
0.818572
0.818572
0.818578
0.818584
0.81859
0.818595
0.818595
0.818601
0.818607
0.818613
0.818619
0.818619
0.818625
0.818631
0.818637
0.818643
0.818643
0.818649
0.818655
0.818661
0.818667
0.818667
0.818673
0.818679
0.818685
0.818691
0.818691
0.818697
0.818703
0.818709
0.818715
0.818715
0.818721
0.818727
0.818733
0.818739
0.818739
0.818745
0.818751
0.818757
0.818763
0.818763
0.818769
0.818775
0.818782
0.818788
0.818788
0.818794
0.8188
0.818806
0.818812
0.818812
0.818818
0.818824
0.81883
0.818837
0.818837
0.818843
0.818849
0.818855
0.818861
0.818861
0.818867
0.818874
0.81888
0.818886
0.818886
0.818892
0.818898
0.818905
0.818911
0.818911
0.818917
0.818923
0.81893
0.818936
0.818936
0.818942
0.818948
0.818955
0.818961
0.818961
0.818967
0.818973
0.81898
0.818986
0.818986
0.818992
0.818999
0.819005
0.819011
0.819011
0.819018
0.819024
0.81903
0.819037
0.819037
0.819043
0.819049
0.819056
0.819062
0.819062
0.819068
0.819075
0.819081
0.819087
0.819087
0.819094
0.8191
0.819106
0.819113
0.819113
0.819119
0.819126
0.819132
0.819138
0.819138
0.819145
0.819151
0.819158
0.819164
0.819164
0.819171
0.819177
0.819183
0.81919
0.81919
0.819196
0.819203
0.819209
0.819216
0.819216
0.819222
0.819229
0.819235
0.819242
0.819242
0.819248
0.819255
0.819261
0.819268
0.819268
0.819274
0.819281
0.819287
0.819294
0.819294
0.8193
0.819307
0.819313
0.81932
0.81932
0.819326
0.819333
0.81934
0.819346
0.819346
0.819353
0.819359
0.819366
0.819372
0.819372
0.819379
0.819386
0.819392
0.819399
0.819399
0.819405
0.819412
0.819419
0.819425
0.819425
0.819432
0.819439
0.819445
0.819452
0.819452
0.819459
0.819465
0.819472
0.819479
0.819479
0.819485
0.819492
0.819499
0.819505
0.819505
0.819512
0.819519
0.819525
0.819532
0.819532
0.819539
0.819545
0.819552
0.819559
0.819559
0.819566
0.819572
0.819579
0.819586
0.819586
0.819593
0.819599
0.819606
0.819613
0.819613
0.81962
0.819626
0.819633
0.81964
0.81964
0.819647
0.819654
0.819661
0.819667
0.819667
0.819674
0.819681
0.819688
0.819695
0.819695
0.819702
0.819709
0.819716
0.819722
0.819722
0.819729
0.819736
0.819743
0.81975
0.81975
0.819757
0.819764
0.819771
0.819778
0.819778
0.819785
0.819792
0.819799
0.819806
0.819806
0.819813
0.81982
0.819827
0.819834
0.819834
0.81984
0.819847
0.819854
0.819861
0.819861
0.819868
0.819875
0.819882
0.819889
0.819889
0.819897
0.819904
0.819911
0.819918
0.819918
0.819925
0.819932
0.819939
0.819946
0.819946
0.819953
0.81996
0.819967
0.819974
0.819974
0.819981
0.819988
0.819995
0.820002
0.820002
0.820009
0.820017
0.820024
0.820031
0.820031
0.820038
0.820045
0.820052
0.820059
0.820059
0.820066
0.820074
0.820081
0.820088
0.820088
0.820095
0.820102
0.820109
0.820117
0.820117
0.820124
0.820131
0.820138
0.820145
0.820145
0.820152
0.82016
0.820167
0.820174
0.820174
0.820181
0.820189
0.820196
0.820203
0.820203
0.82021
0.820217
0.820225
0.820232
0.820232
0.820239
0.820246
0.820254
0.820261
0.820261
0.820268
0.820276
0.820283
0.82029
0.82029
0.820297
0.820305
0.820312
0.820319
0.820319
0.820327
0.820334
0.820341
0.820349
0.820349
0.820356
0.820363
0.820371
0.820378
0.820378
0.820385
0.820393
0.8204
0.820407
0.820407
0.820415
0.820422
0.82043
0.820437
0.820437
0.820444
0.820452
0.820459
0.820467
0.820467
0.820474
0.820482
0.820489
0.820497
0.820497
0.820504
0.820511
0.820519
0.820526
0.820526
0.820534
0.820542
0.820549
0.820557
0.820557
0.820564
0.820572
0.820579
0.820587
0.820587
0.820594
0.820602
0.820609
0.820617
0.820617
0.820624
0.820632
0.82064
0.820647
0.820647
0.820655
0.820662
0.82067
0.820678
0.820678
0.820685
0.820693
0.8207
0.820708
0.820708
0.820716
0.820723
0.820731
0.820738
0.820738
0.820746
0.820754
0.820761
0.820769
0.820769
0.820777
0.820784
0.820792
0.8208
0.8208
0.820807
0.820815
0.820823
0.82083
0.82083
0.820838
0.820846
0.820854
0.820861
0.820861
0.820869
0.820877
0.820884
0.820892
0.820892
0.8209
0.820908
0.820915
0.820923
0.820923
0.820931
0.820939
0.820946
0.820954
0.820954
0.820962
0.82097
0.820978
0.820985
0.820985
0.820993
0.821001
0.821009
0.821017
0.821017
0.821024
0.821032
0.82104
0.821048
0.821048
0.821056
0.821063
0.821071
0.821079
0.821079
0.821087
0.821095
0.821103
0.821111
0.821111
0.821118
0.821126
0.821134
0.821142
0.821142
0.82115
0.821158
0.821166
0.821174
0.821174
0.821182
0.82119
0.821197
0.821205
0.821205
0.821213
0.821221
0.821229
0.821237
0.821237
0.821245
0.821253
0.821261
0.821269
0.821269
0.821277
0.821285
0.821293
0.821301
0.821301
0.821309
0.821317
0.821325
0.821333
0.821333
0.821341
0.821349
0.821358
0.821366
0.821366
0.821374
0.821382
0.82139
0.821398
0.821398
0.821406
0.821414
0.821422
0.82143
0.82143
0.821439
0.821447
0.821455
0.821463
0.821463
0.821471
0.821479
0.821487
0.821496
0.821496
0.821504
0.821512
0.82152
0.821528
0.821528
0.821536
0.821545
0.821553
0.821561
0.821561
0.821569
0.821577
0.821586
0.821594
0.821594
0.821602
0.82161
0.821619
0.821627
0.821627
0.821635
0.821643
0.821651
0.82166
0.82166
0.821668
0.821676
0.821684
0.821693
0.821693
0.821701
0.821709
0.821718
0.821726
0.821726
0.821734
0.821742
0.821751
0.821759
0.821759
0.821767
0.821776
0.821784
0.821792
0.821792
0.821801
0.821809
0.821817
0.821826
0.821826
0.821834
0.821842
0.821851
0.821859
0.821859
0.821867
0.821876
0.821884
0.821893
0.821893
0.821901
0.821909
0.821918
0.821926
0.821926
0.821935
0.821943
0.821951
0.82196
0.82196
0.821968
0.821977
0.821985
0.821993
0.821993
0.822002
0.82201
0.822019
0.822027
0.822027
0.822036
0.822044
0.822053
0.822061
0.822061
0.82207
0.822078
0.822087
0.822095
0.822095
0.822104
0.822112
0.822121
0.82213
0.82213
0.822138
0.822147
0.822155
0.822164
0.822164
0.822173
0.822181
0.82219
0.822198
0.822198
0.822207
0.822216
0.822224
0.822233
0.822233
0.822242
0.82225
0.822259
0.822267
0.822267
0.822276
0.822285
0.822293
0.822302
0.822302
0.822311
0.82232
0.822328
0.822337
0.822337
0.822346
0.822354
0.822363
0.822372
0.822372
0.82238
0.822389
0.822398
0.822407
0.822407
0.822415
0.822424
0.822433
0.822442
0.822442
0.82245
0.822459
0.822468
0.822477
0.822477
0.822485
0.822494
0.822503
0.822512
0.822512
0.82252
0.822529
0.822538
0.822547
0.822547
0.822556
0.822564
0.822573
0.822582
0.822582
0.822591
0.8226
0.822609
0.822617
0.822617
0.822626
0.822635
0.822644
0.822653
0.822653
0.822662
0.822671
0.822679
0.822688
0.822688
0.822697
0.822706
0.822715
0.822724
0.822724
0.822733
0.822742
0.822751
0.822759
0.822759
0.822768
0.822777
0.822786
0.822795
0.822795
0.822804
0.822813
0.822822
0.822831
0.822831
0.82284
0.822849
0.822858
0.822867
0.822867
0.822876
0.822885
0.822894
0.822903
0.822903
0.822912
0.822921
0.82293
0.822939
0.822939
0.822948
0.822957
0.822966
0.822975
0.822975
0.822984
0.822994
0.823003
0.823012
0.823012
0.823021
0.82303
0.823039
0.823048
0.823048
0.823057
0.823067
0.823076
0.823085
0.823085
0.823094
0.823103
0.823112
0.823121
0.823121
0.823131
0.82314
0.823149
0.823158
0.823158
0.823167
0.823177
0.823186
0.823195
0.823195
0.823204
0.823213
0.823223
0.823232
0.823232
0.823241
0.82325
0.82326
0.823269
0.823269
0.823278
0.823287
0.823297
0.823306
0.823306
0.823315
0.823324
0.823334
0.823343
0.823343
0.823352
0.823361
0.823371
0.82338
0.82338
0.823389
0.823399
0.823408
0.823417
0.823417
0.823427
0.823436
0.823445
0.823454
0.823454
0.823464
0.823473
0.823482
0.823492
0.823492
0.823501
0.823511
0.82352
0.823529
0.823529
0.823539
0.823548
0.823557
0.823567
0.823567
0.823576
0.823586
0.823595
0.823604
0.823604
0.823614
0.823623
0.823633
0.823642
0.823642
0.823651
0.823661
0.82367
0.82368
0.82368
0.823689
0.823699
0.823708
0.823718
0.823718
0.823727
0.823737
0.823746
0.823756
0.823756
0.823765
0.823775
0.823784
0.823794
0.823794
0.823803
0.823813
0.823823
0.823832
0.823832
0.823842
0.823851
0.823861
0.823871
0.823871
0.82388
0.82389
0.823899
0.823909
0.823909
0.823919
0.823928
0.823938
0.823948
0.823948
0.823957
0.823967
0.823977
0.823986
0.823986
0.823996
0.824006
0.824015
0.824025
0.824025
0.824035
0.824044
0.824054
0.824064
0.824064
0.824073
0.824083
0.824093
0.824102
0.824102
0.824112
0.824122
0.824132
0.824141
0.824141
0.824151
0.824161
0.824171
0.82418
0.82418
0.82419
0.8242
0.82421
0.824219
0.824219
0.824229
0.824239
0.824249
0.824258
0.824258
0.824268
0.824278
0.824288
0.824298
0.824298
0.824307
0.824317
0.824327
0.824337
0.824337
0.824347
0.824356
0.824366
0.824376
0.824376
0.824386
0.824396
0.824406
0.824415
0.824415
0.824425
0.824435
0.824445
0.824455
0.824455
0.824465
0.824475
0.824485
0.824494
0.824494
0.824504
0.824514
0.824524
0.824534
0.824534
0.824544
0.824554
0.824564
0.824574
0.824574
0.824584
0.824594
0.824604
0.824614
0.824614
0.824624
0.824634
0.824644
0.824654
0.824654
0.824664
0.824674
0.824684
0.824694
0.824694
0.824704
0.824714
0.824724
0.824734
0.824734
0.824745
0.824755
0.824765
0.824775
0.824775
0.824785
0.824795
0.824805
0.824815
0.824815
0.824825
0.824835
0.824846
0.824856
0.824856
0.824866
0.824876
0.824886
0.824896
0.824896
0.824906
0.824917
0.824927
0.824937
0.824937
0.824947
0.824957
0.824967
0.824978
0.824978
0.824988
0.824998
0.825008
0.825018
0.825018
0.825028
0.825039
0.825049
0.825059
0.825059
0.825069
0.82508
0.82509
0.8251
0.8251
0.82511
0.82512
0.825131
0.825141
0.825141
0.825151
0.825161
0.825172
0.825182
0.825182
0.825192
0.825202
0.825213
0.825223
0.825223
0.825233
0.825244
0.825254
0.825264
0.825264
0.825275
0.825285
0.825295
0.825305
0.825305
0.825316
0.825326
0.825336
0.825347
0.825347
0.825357
0.825368
0.825378
0.825388
0.825388
0.825399
0.825409
0.82542
0.82543
0.82543
0.82544
0.825451
0.825461
0.825472
0.825472
0.825482
0.825493
0.825503
0.825514
0.825514
0.825524
0.825535
0.825545
0.825556
0.825556
0.825566
0.825577
0.825587
0.825598
0.825598
0.825608
0.825619
0.825629
0.82564
0.82564
0.82565
0.825661
0.825671
0.825682
0.825682
0.825693
0.825703
0.825714
0.825724
0.825724
0.825735
0.825745
0.825756
0.825767
0.825767
0.825777
0.825788
0.825798
0.825809
0.825809
0.82582
0.82583
0.825841
0.825851
0.825851
0.825862
0.825873
0.825883
0.825894
0.825894
0.825905
0.825915
0.825926
0.825937
0.825937
0.825947
0.825958
0.825969
0.825979
0.825979
0.82599
0.826001
0.826011
0.826022
0.826022
0.826033
0.826043
0.826054
0.826065
0.826065
0.826075
0.826086
0.826097
0.826108
0.826108
0.826118
0.826129
0.82614
0.826151
0.826151
0.826161
0.826172
0.826183
0.826194
0.826194
0.826205
0.826215
0.826226
0.826237
0.826237
0.826248
0.826259
0.826269
0.82628
0.82628
0.826291
0.826302
0.826313
0.826324
0.826324
0.826335
0.826346
0.826357
0.826367
0.826367
0.826378
0.826389
0.8264
0.826411
0.826411
0.826422
0.826433
0.826444
0.826455
0.826455
0.826466
0.826477
0.826488
0.826499
0.826499
0.82651
0.826521
0.826532
0.826543
0.826543
0.826554
0.826565
0.826576
0.826587
0.826587
0.826598
0.826609
0.82662
0.826631
0.826631
0.826642
0.826653
0.826664
0.826675
0.826675
0.826686
0.826697
0.826708
0.826719
0.826719
0.82673
0.826741
0.826752
0.826763
0.826763
0.826774
0.826785
0.826796
0.826807
0.826807
0.826818
0.82683
0.826841
0.826852
0.826852
0.826863
0.826874
0.826885
0.826896
0.826896
0.826907
0.826918
0.82693
0.826941
0.826941
0.826952
0.826963
0.826974
0.826985
0.826985
0.826996
0.827008
0.827019
0.82703
0.82703
0.827041
0.827052
0.827064
0.827075
0.827075
0.827086
0.827097
0.827109
0.82712
0.82712
0.827131
0.827142
0.827154
0.827165
0.827165
0.827176
0.827188
0.827199
0.82721
0.82721
0.827222
0.827233
0.827244
0.827256
0.827256
0.827267
0.827278
0.82729
0.827301
0.827301
0.827312
0.827324
0.827335
0.827346
0.827346
0.827358
0.827369
0.827381
0.827392
0.827392
0.827403
0.827415
0.827426
0.827438
0.827438
0.827449
0.82746
0.827472
0.827483
0.827483
0.827495
0.827506
0.827517
0.827529
0.827529
0.82754
0.827552
0.827563
0.827575
0.827575
0.827586
0.827598
0.827609
0.82762
0.82762
0.827632
0.827643
0.827655
0.827666
0.827666
0.827678
0.827689
0.827701
0.827712
0.827712
0.827724
0.827735
0.827747
0.827758
0.827758
0.82777
0.827781
0.827793
0.827805
0.827805
0.827816
0.827828
0.827839
0.827851
0.827851
0.827862
0.827874
0.827886
0.827897
0.827897
0.827909
0.82792
0.827932
0.827944
0.827944
0.827955
0.827967
0.827979
0.82799
0.82799
0.828002
0.828014
0.828025
0.828037
0.828037
0.828049
0.828061
0.828072
0.828084
0.828084
0.828096
0.828107
0.828119
0.828131
0.828131
0.828143
0.828154
0.828166
0.828178
0.828178
0.82819
0.828201
0.828213
0.828225
0.828225
0.828237
0.828249
0.82826
0.828272
0.828272
0.828284
0.828296
0.828307
0.828319
0.828319
0.828331
0.828343
0.828355
0.828367
0.828367
0.828378
0.82839
0.828402
0.828414
0.828414
0.828426
0.828438
0.828449
0.828461
0.828461
0.828473
0.828485
0.828497
0.828509
0.828509
0.828521
0.828532
0.828544
0.828556
0.828556
0.828568
0.82858
0.828592
0.828604
0.828604
0.828616
0.828628
0.82864
0.828651
0.828651
0.828663
0.828675
0.828687
0.828699
0.828699
0.828711
0.828723
0.828735
0.828747
0.828747
0.828759
0.828771
0.828783
0.828795
0.828795
0.828807
0.828819
0.828831
0.828843
0.828843
0.828856
0.828868
0.82888
0.828892
0.828892
0.828904
0.828916
0.828928
0.82894
0.82894
0.828952
0.828964
0.828976
0.828989
0.828989
0.829001
0.829013
0.829025
0.829037
0.829037
0.829049
0.829061
0.829074
0.829086
0.829086
0.829098
0.82911
0.829122
0.829134
0.829134
0.829147
0.829159
0.829171
0.829183
0.829183
0.829195
0.829208
0.82922
0.829232
0.829232
0.829244
0.829256
0.829269
0.829281
0.829281
0.829293
0.829305
0.829317
0.82933
0.82933
0.829342
0.829354
0.829366
0.829379
0.829379
0.829391
0.829403
0.829415
0.829428
0.829428
0.82944
0.829452
0.829464
0.829477
0.829477
0.829489
0.829501
0.829514
0.829526
0.829526
0.829538
0.829551
0.829563
0.829575
0.829575
0.829588
0.8296
0.829613
0.829625
0.829625
0.829637
0.82965
0.829662
0.829675
0.829675
0.829687
0.829699
0.829712
0.829724
0.829724
0.829737
0.829749
0.829762
0.829774
0.829774
0.829787
0.829799
0.829812
0.829824
0.829824
0.829837
0.829849
0.829862
0.829874
0.829874
0.829887
0.829899
0.829912
0.829924
0.829924
0.829937
0.829949
0.829962
0.829974
0.829974
0.829987
0.829999
0.830012
0.830024
0.830024
0.830037
0.83005
0.830062
0.830075
0.830075
0.830087
0.8301
0.830112
0.830125
0.830125
0.830138
0.83015
0.830163
0.830175
0.830175
0.830188
0.830201
0.830213
0.830226
0.830226
0.830238
0.830251
0.830264
0.830276
0.830276
0.830289
0.830302
0.830314
0.830327
0.830327
0.830339
0.830352
0.830365
0.830377
0.830377
0.83039
0.830403
0.830416
0.830428
0.830428
0.830441
0.830454
0.830467
0.830479
0.830479
0.830492
0.830505
0.830518
0.83053
0.83053
0.830543
0.830556
0.830569
0.830582
0.830582
0.830594
0.830607
0.83062
0.830633
0.830633
0.830646
0.830659
0.830671
0.830684
0.830684
0.830697
0.83071
0.830723
0.830736
0.830736
0.830749
0.830762
0.830774
0.830787
0.830787
0.8308
0.830813
0.830826
0.830839
0.830839
0.830852
0.830865
0.830878
0.83089
0.83089
0.830903
0.830916
0.830929
0.830942
0.830942
0.830955
0.830968
0.830981
0.830994
0.830994
0.831007
0.83102
0.831033
0.831046
0.831046
0.831059
0.831072
0.831085
0.831098
0.831098
0.83111
0.831123
0.831136
0.831149
0.831149
0.831162
0.831175
0.831188
0.831202
0.831202
0.831215
0.831228
0.831241
0.831254
0.831254
0.831267
0.83128
0.831293
0.831306
0.831306
0.831319
0.831332
0.831345
0.831359
0.831359
0.831372
0.831385
0.831398
0.831411
0.831411
0.831424
0.831437
0.831451
0.831464
0.831464
0.831477
0.83149
0.831503
0.831517
0.831517
0.83153
0.831543
0.831556
0.831569
0.831569
0.831583
0.831596
0.831609
0.831622
0.831622
0.831635
0.831649
0.831662
0.831675
0.831675
0.831688
0.831702
0.831715
0.831728
0.831728
0.831741
0.831755
0.831768
0.831781
0.831781
0.831794
0.831808
0.831821
0.831834
0.831834
0.831848
0.831861
0.831874
0.831887
0.831887
0.831901
0.831914
0.831927
0.831941
0.831941
0.831954
0.831967
0.831981
0.831994
0.831994
0.832007
0.832021
0.832034
0.832047
0.832047
0.832061
0.832074
0.832088
0.832101
0.832101
0.832114
0.832128
0.832141
0.832155
0.832155
0.832168
0.832182
0.832195
0.832209
0.832209
0.832222
0.832236
0.832249
0.832263
0.832263
0.832276
0.83229
0.832303
0.832317
0.832317
0.83233
0.832344
0.832357
0.832371
0.832371
0.832384
0.832398
0.832411
0.832425
0.832425
0.832438
0.832452
0.832465
0.832479
0.832479
0.832493
0.832506
0.83252
0.832533
0.832533
0.832547
0.83256
0.832574
0.832588
0.832588
0.832601
0.832615
0.832628
0.832642
0.832642
0.832656
0.832669
0.832683
0.832697
0.832697
0.83271
0.832724
0.832737
0.832751
0.832751
0.832765
0.832778
0.832792
0.832806
0.832806
0.832819
0.832833
0.832847
0.83286
0.83286
0.832874
0.832888
0.832901
0.832915
0.832915
0.832929
0.832943
0.832956
0.83297
0.83297
0.832984
0.832998
0.833012
0.833025
0.833025
0.833039
0.833053
0.833067
0.833081
0.833081
0.833094
0.833108
0.833122
0.833136
0.833136
0.83315
0.833164
0.833177
0.833191
0.833191
0.833205
0.833219
0.833233
0.833247
0.833247
0.833261
0.833274
0.833288
0.833302
0.833302
0.833316
0.83333
0.833344
0.833358
0.833358
0.833372
0.833386
0.8334
0.833413
0.833413
0.833427
0.833441
0.833455
0.833469
0.833469
0.833483
0.833497
0.833511
0.833525
0.833525
0.833539
0.833553
0.833567
0.833581
0.833581
0.833595
0.833609
0.833623
0.833637
0.833637
0.833651
0.833665
0.833679
0.833693
0.833693
0.833707
0.833721
0.833735
0.833749
0.833749
0.833763
0.833777
0.833791
0.833805
0.833805
0.833819
0.833833
0.833847
0.833861
0.833861
0.833875
0.83389
0.833904
0.833918
0.833918
0.833932
0.833946
0.83396
0.833974
0.833974
0.833989
0.834003
0.834017
0.834031
0.834031
0.834045
0.83406
0.834074
0.834088
0.834088
0.834102
0.834116
0.83413
0.834145
0.834145
0.834159
0.834173
0.834187
0.834202
0.834202
0.834216
0.83423
0.834244
0.834258
0.834258
0.834273
0.834287
0.834301
0.834315
0.834315
0.83433
0.834344
0.834358
0.834372
0.834372
0.834387
0.834401
0.834415
0.83443
0.83443
0.834444
0.834458
0.834472
0.834487
0.834487
0.834501
0.834515
0.83453
0.834544
0.834544
0.834558
0.834573
0.834587