<?xml version="1.0"?>
<VTKFile type="UnstructuredGrid" version="0.1" byte_order="LittleEndian">
<UnstructuredGrid>
<Piece NumberOfPoints="5000" NumberOfCells="4000">
<PointData Scalars="Reaction 0">
<DataArray type="Float32" Name="Reaction 0" format="ascii">
0.284226
0.284226
0.284226
0.284226
0.284226
0.284226
0.284226
0.284227
0.284227
0.284227
0.284227
0.284227
0.284228
0.284228
0.284228
0.284228
0.284229
0.284229
0.28423
0.28423
0.28423
0.284231
0.284231
0.284232
0.284233
0.284233
0.284233
0.284234
0.284235
0.284235
0.284235
0.284236
0.284237
0.284238
0.284239
0.284239
0.28424
0.284241
0.284242
0.284243
0.284243
0.284244
0.284245
0.284246
0.284247
0.284247
0.284248
0.28425
0.284251
0.284252
0.284252
0.284254
0.284255
0.284256
0.284258
0.284258
0.284259
0.284261
0.284262
0.284264
0.284264
0.284265
0.284267
0.284269
0.28427
0.28427
0.284272
0.284274
0.284275
0.284277
0.284277
0.284279
0.284281
0.284283
0.284285
0.284285
0.284287
0.284289
0.284291
0.284293
0.284293
0.284295
0.284297
0.284299
0.284302
0.284302
0.284304
0.284306
0.284308
0.284311
0.284311
0.284313
0.284316
0.284318
0.28432
0.28432
0.284323
0.284325
0.284328
0.284331
0.284331
0.284333
0.284336
0.284339
0.284341
0.284341
0.284344
0.284347
0.28435
0.284353
0.284353
0.284356
0.284358
0.284361
0.284364
0.284364
0.284367
0.28437
0.284374
0.284377
0.284377
0.28438
0.284383
0.284386
0.28439
0.28439
0.284393
0.284396
0.284399
0.284403
0.284403
0.284406
0.28441
0.284413
0.284417
0.284417
0.28442
0.284424
0.284427
0.284431
0.284431
0.284435
0.284438
0.284442
0.284446
0.284446
0.28445
0.284454
0.284458
0.284461
0.284461
0.284465
0.284469
0.284473
0.284477
0.284477
0.284481
0.284486
0.28449
0.284494
0.284494
0.284498
0.284502
0.284507
0.284511
0.284511
0.284515
0.28452
0.284524
0.284528
0.284528
0.284533
0.284537
0.284542
0.284546
0.284546
0.284551
0.284556
0.28456
0.284565
0.284565
0.28457
0.284574
0.284579
0.284584
0.284584
0.284589
0.284594
0.284599
0.284604
0.284604
0.284609
0.284614
0.284619
0.284624
0.284624
0.284629
0.284634
0.284639
0.284644
0.284644
0.28465
0.284655
0.28466
0.284666
0.284666
0.284671
0.284676
0.284682
0.284687
0.284687
0.284693
0.284698
0.284704
0.28471
0.28471
0.284715
0.284721
0.284727
0.284732
0.284732
0.284738
0.284744
0.28475
0.284756
0.284756
0.284762
0.284767
0.284773
0.284779
0.284779
0.284785
0.284792
0.284798
0.284804
0.284804
0.28481
0.284816
0.284822
0.284829
0.284829
0.284835
0.284841
0.284848
0.284854
0.284854
0.28486
0.284867
0.284873
0.28488
0.28488
0.284886
0.284893
0.2849
0.284906
0.284906
0.284913
0.28492
0.284926
0.284933
0.284933
0.28494
0.284947
0.284954
0.284961
0.284961
0.284968
0.284975
0.284982
0.284989
0.284989
0.284996
0.285003
0.28501
0.285017
0.285017
0.285024
0.285032
0.285039
0.285046
0.285046
0.285053
0.285061
0.285068
0.285076
0.285076
0.285083
0.285091
0.285098
0.285106
0.285106
0.285113
0.285121
0.285129
0.285136
0.285136
0.285144
0.285152
0.28516
0.285167
0.285167
0.285175
0.285183
0.285191
0.285199
0.285199
0.285207
0.285215
0.285223
0.285231
0.285231
0.285239
0.285248
0.285256
0.285264
0.285264
0.285272
0.28528
0.285289
0.285297
0.285297
0.285306
0.285314
0.285322
0.285331
0.285331
0.285339
0.285348
0.285357
0.285365
0.285365
0.285374
0.285382
0.285391
0.2854
0.2854
0.285409
0.285417
0.285426
0.285435
0.285435
0.285444
0.285453
0.285462
0.285471
0.285471
0.28548
0.285489
0.285498
0.285507
0.285507
0.285517
0.285526
0.285535
0.285544
0.285544
0.285553
0.285563
0.285572
0.285582
0.285582
0.285591
0.2856
0.28561
0.285619
0.285619
0.285629
0.285639
0.285648
0.285658
0.285658
0.285668
0.285677
0.285687
0.285697
0.285697
0.285707
0.285717
0.285726
0.285736
0.285736
0.285746
0.285756
0.285766
0.285776
0.285776
0.285786
0.285797
0.285807
0.285817
0.285817
0.285827
0.285837
0.285848
0.285858
0.285858
0.285868
0.285879
0.285889
0.285899
0.285899
0.28591
0.28592
0.285931
0.285942
0.285942
0.285952
0.285963
0.285973
0.285984
0.285984
0.285995
0.286006
0.286016
0.286027
0.286027
0.286038
0.286049
0.28606
0.286071
0.286071
0.286082
0.286093
0.286104
0.286115
0.286115
0.286126
0.286137
0.286149
0.28616
0.28616
0.286171
0.286182
0.286194
0.286205
0.286205
0.286216
0.286228
0.286239
0.286251
0.286251
0.286262
0.286274
0.286285
0.286297
0.286297
0.286309
0.28632
0.286332
0.286344
0.286344
0.286356
0.286367
0.286379
0.286391
0.286391
0.286403
0.286415
0.286427
0.286439
0.286439
0.286451
0.286463
0.286475
0.286487
0.286487
0.286499
0.286512
0.286524
0.286536
0.286536
0.286548
0.286561
0.286573
0.286586
0.286586
0.286598
0.28661
0.286623
0.286635
0.286635
0.286648
0.286661
0.286673
0.286686
0.286686
0.286699
0.286711
0.286724
0.286737
0.286737
0.28675
0.286762
0.286775
0.286788
0.286788
0.286801
0.286814
0.286827
0.28684
0.28684
0.286853
0.286866
0.28688
0.286893
0.286893
0.286906
0.286919
0.286933
0.286946
0.286946
0.286959
0.286973
0.286986
0.286999
0.286999
0.287013
0.287026
0.28704
0.287053
0.287053
0.287067
0.287081
0.287094
0.287108
0.287108
0.287122
0.287136
0.287149
0.287163
0.287163
0.287177
0.287191
0.287205
0.287219
0.287219
0.287233
0.287247
0.287261
0.287275
0.287275
0.287289
0.287303
0.287318
0.287332
0.287332
0.287346
0.28736
0.287375
0.287389
0.287389
0.287403
0.287418
0.287432
0.287447
0.287447
0.287461
0.287476
0.28749
0.287505
0.287505
0.28752
0.287534
0.287549
0.287564
0.287564
0.287578
0.287593
0.287608
0.287623
0.287623
0.287638
0.287653
0.287668
0.287683
0.287683
0.287698
0.287713
0.287728
0.287743
0.287743
0.287758
0.287774
0.287789
0.287804
0.287804
0.287819
0.287835
0.28785
0.287865
0.287865
0.287881
0.287896
0.287912
0.287927
0.287927
0.287943
0.287958
0.287974
0.28799
0.28799
0.288005
0.288021
0.288037
0.288053
0.288053
0.288068
0.288084
0.2881
0.288116
0.288116
0.288132
0.288148
0.288164
0.28818
0.28818
0.288196
0.288212
0.288228
0.288245
0.288245
0.288261
0.288277
0.288293
0.28831
0.28831
0.288326
0.288342
0.288359
0.288375
0.288375
0.288392
0.288408
0.288425
0.288441
0.288441
0.288458
0.288475
0.288491
0.288508
0.288508
0.288525
0.288541
0.288558
0.288575
0.288575
0.288592
0.288609
0.288626
0.288643
0.288643
0.28866
0.288677
0.288694
0.288711
0.288711
0.288728
0.288745
0.288762
0.288779
0.288779
0.288797
0.288814
0.288831
0.288849
0.288849
0.288866
0.288883
0.288901
0.288918
0.288918
0.288936
0.288953
0.288971
0.288989
0.288989
0.289006
0.289024
0.289042
0.289059
0.289059
0.289077
0.289095
0.289113
0.289131
0.289131
0.289148
0.289166
0.289184
0.289202
0.289202
0.28922
0.289238
0.289257
0.289275
0.289275
0.289293
0.289311
0.289329
0.289348
0.289348
0.289366
0.289384
0.289403
0.289421
0.289421
0.289439
0.289458
0.289476
0.289495
0.289495
0.289513
0.289532
0.289551
0.289569
0.289569
0.289588
0.289607
0.289625
0.289644
0.289644
0.289663
0.289682
0.289701
0.28972
0.28972
0.289738
0.289757
0.289776
0.289795
0.289795
0.289815
0.289834
0.289853
0.289872
0.289872
0.289891
0.28991
0.28993
0.289949
0.289949
0.289968
0.289988
0.290007
0.290026
0.290026
0.290046
0.290065
0.290085
0.290104
0.290104
0.290124
0.290144
0.290163
0.290183
0.290183
0.290203
0.290222
0.290242
0.290262
0.290262
0.290282
0.290302
0.290322
0.290342
0.290342
0.290362
0.290382
0.290402
0.290422
0.290422
0.290442
0.290462
0.290482
0.290502
0.290502
0.290523
0.290543
0.290563
0.290584
0.290584
0.290604
0.290624
0.290645
0.290665
0.290665
0.290686
0.290706
0.290727
0.290747
0.290747
0.290768
0.290789
0.290809
0.29083
0.29083
0.290851
0.290872
0.290893
0.290913
0.290913
0.290934
0.290955
0.290976
0.290997
0.290997
0.291018
0.291039
0.29106
0.291081
0.291081
0.291103
0.291124
0.291145
0.291166
0.291166
0.291187
0.291209
0.29123
0.291251
0.291251
0.291273
0.291294
0.291316
0.291337
0.291337
0.291359
0.29138
0.291402
0.291424
0.291424
0.291445
0.291467
0.291489
0.29151
0.29151
0.291532
0.291554
0.291576
0.291598
0.291598
0.29162
0.291642
0.291664
0.291686
0.291686
0.291708
0.29173
0.291752
0.291774
0.291774
0.291796
0.291819
0.291841
0.291863
0.291863
0.291885
0.291908
0.29193
0.291953
0.291953
0.291975
0.291997
0.29202
0.292043
0.292043
0.292065
0.292088
0.29211
0.292133
0.292133
0.292156
0.292178
0.292201
0.292224
0.292224
0.292247
0.29227
0.292293
0.292316
0.292316
0.292339
0.292362
0.292385
0.292408
0.292408
0.292431
0.292454
0.292477
0.2925
0.2925
0.292523
0.292547
0.29257
0.292593
0.292593
0.292617
0.29264
0.292663
0.292687
0.292687
0.29271
0.292734
0.292757
0.292781
0.292781
0.292805
0.292828
0.292852
0.292876
0.292876
0.292899
0.292923
0.292947
0.292971
0.292971
0.292995
0.293019
0.293042
0.293066
0.293066
0.29309
0.293114
0.293139
0.293163
0.293163
0.293187
0.293211
0.293235
0.293259
0.293259
0.293284
0.293308
0.293332
0.293357
0.293357
0.293381
0.293405
0.29343
0.293454
0.293454
0.293479
0.293503
0.293528
0.293553
0.293553
0.293577
0.293602
0.293627
0.293651
0.293651
0.293676
0.293701
0.293726
0.293751
0.293751
0.293776
0.2938
0.293825
0.29385
0.29385
0.293875
0.293901
0.293926
0.293951
0.293951
0.293976
0.294001
0.294026
0.294052
0.294052
0.294077
0.294102
0.294128
0.294153
0.294153
0.294178
0.294204
0.294229
0.294255
0.294255
0.29428
0.294306
0.294332
0.294357
0.294357
0.294383
0.294409
0.294434
0.29446
0.29446
0.294486
0.294512
0.294538
0.294564
0.294564
0.29459
0.294615
0.294642
0.294668
0.294668
0.294694
0.29472
0.294746
0.294772
0.294772
0.294798
0.294824
0.294851
0.294877
0.294877
0.294903
0.29493
0.294956
0.294982
0.294982
0.295009
0.295035
0.295062
0.295089
0.295089
0.295115
0.295142
0.295168
0.295195
0.295195
0.295222
0.295248
0.295275
0.295302
0.295302
0.295329
0.295356
0.295383
0.29541
0.29541
0.295437
0.295464
0.295491
0.295518
0.295518
0.295545
0.295572
0.295599
0.295626
0.295626
0.295654
0.295681
0.295708
0.295735
0.295735
0.295763
0.29579
0.295818
0.295845
0.295845
0.295873
0.2959
0.295928
0.295955
0.295955
0.295983
0.29601
0.296038
0.296066
0.296066
0.296094
0.296121
0.296149
0.296177
0.296177
0.296205
0.296233
0.296261
0.296289
0.296289
0.296317
0.296345
0.296373
0.296401
0.296401
0.296429
0.296457
0.296485
0.296514
0.296514
0.296542
0.29657
0.296599
0.296627
0.296627
0.296655
0.296684
0.296712
0.296741
0.296741
0.296769
0.296798
0.296826
0.296855
0.296855
0.296884
0.296912
0.296941
0.29697
0.29697
0.296999
0.297027
0.297056
0.297085
0.297085
0.297114
0.297143
0.297172
0.297201
0.297201
0.29723
0.297259
0.297288
0.297317
0.297317
0.297346
0.297376
0.297405
0.297434
0.297434
0.297463
0.297493
0.297522
0.297551
0.297551
0.297581
0.29761
0.29764
0.297669
0.297669
0.297699
0.297728
0.297758
0.297788
0.297788
0.297817
0.297847
0.297877
0.297907
0.297907
0.297936
0.297966
0.297996
0.298026
0.298026
0.298056
0.298086
0.298116
0.298146
0.298146
0.298176
0.298206
0.298236
0.298266
0.298266
0.298297
0.298327
0.298357
0.298387
0.298387
0.298418
0.298448
0.298479
0.298509
0.298509
0.298539
0.29857
0.2986
0.298631
0.298631
0.298662
0.298692
0.298723
0.298753
0.298753
0.298784
0.298815
0.298846
0.298876
0.298876
0.298907
0.298938
0.298969
0.299
0.299
0.299031
0.299062
0.299093
0.299124
0.299124
0.299155
0.299186
0.299217
0.299249
0.299249
0.29928
0.299311
0.299342
0.299374
0.299374
0.299405
0.299436
0.299468
0.299499
0.299499
0.299531
0.299562
0.299594
0.299625
0.299625
0.299657
0.299689
0.29972
0.299752
0.299752
0.299784
0.299816
0.299847
0.299879
0.299879
0.299911
0.299943
0.299975
0.300007
0.300007
0.300039
0.300071
0.300103
0.300135
0.300135
0.300167
0.300199
0.300232
0.300264
0.300264
0.300296
0.300328
0.300361
0.300393
0.300393
0.300425
0.300458
0.30049
0.300523
0.300523
0.300555
0.300588
0.30062
0.300653
0.300653
0.300686
0.300718
0.300751
0.300784
0.300784
0.300816
0.300849
0.300882
0.300915
0.300915
0.300948
0.300981
0.301014
0.301047
0.301047
0.30108
0.301113
0.301146
0.301179
0.301179
0.301212
0.301245
0.301278
0.301312
0.301312
0.301345
0.301378
0.301412
0.301445
0.301445
0.301478
0.301512
0.301545
0.301579
0.301579
0.301612
0.301646
0.30168
0.301713
0.301713
0.301747
0.301781
0.301814
0.301848
0.301848
0.301882
0.301916
0.301949
0.301983
0.301983
0.302017
0.302051
0.302085
0.302119
0.302119
0.302153
0.302187
0.302221
0.302256
0.302256
0.30229
0.302324
0.302358
0.302392
0.302392
0.302427
0.302461
0.302495
0.30253
0.30253
0.302564
0.302599
0.302633
0.302668
0.302668
0.302702
0.302737
0.302772
0.302806
0.302806
0.302841
0.302876
0.30291
0.302945
0.302945
0.30298
0.303015
0.30305
0.303085
0.303085
0.30312
0.303155
0.30319
0.303225
0.303225
0.30326
0.303295
0.30333
0.303365
0.303365
0.3034
0.303435
0.303471
0.303506
0.303506
0.303541
0.303577
0.303612
0.303648
0.303648
0.303683
0.303718
0.303754
0.30379
0.30379
0.303825
0.303861
0.303896
0.303932
0.303932
0.303968
0.304004
0.304039
0.304075
0.304075
0.304111
0.304147
0.304183
0.304219
0.304219
0.304255
0.304291
0.304327
0.304363
0.304363
0.304399
0.304435
0.304471
0.304507
0.304507
0.304543
0.30458
0.304616
0.304652
0.304652
0.304689
0.304725
0.304761
0.304798
0.304798
0.304834
0.304871
0.304907
0.304944
0.304944
0.304981
0.305017
0.305054
0.305091
0.305091
0.305127
0.305164
0.305201
0.305238
0.305238
0.305275
0.305311
0.305348
0.305385
0.305385
0.305422
0.305459
0.305496
0.305534
0.305534
0.305571
0.305608
0.305645
0.305682
0.305682
0.305719
0.305757
0.305794
0.305831
0.305831
0.305869
0.305906
0.305944
0.305981
0.305981
0.306018
0.306056
0.306094
0.306131
0.306131
0.306169
0.306206
0.306244
0.306282
0.306282
0.30632
0.306357
0.306395
0.306433
0.306433
0.306471
0.306509
0.306547
0.306585
0.306585
0.306623
0.306661
0.306699
0.306737
0.306737
0.306775
0.306813
0.306851
0.30689
0.30689
0.306928
0.306966
0.307005
0.307043
0.307043
0.307081
0.30712
0.307158
0.307197
0.307197
0.307235
0.307274
0.307312
0.307351
0.307351
0.30739
0.307428
0.307467
0.307506
0.307506
0.307544
0.307583
0.307622
0.307661
0.307661
0.3077
0.307739
0.307778
0.307817
0.307817
0.307856
0.307895
0.307934
0.307973
0.307973
0.308012
0.308051
0.308091
0.30813
0.30813
0.308169
0.308208
0.308248
0.308287
0.308287
0.308327
0.308366
0.308405
0.308445
0.308445
0.308485
0.308524
0.308564
0.308603
0.308603
0.308643
0.308683
0.308722
0.308762
0.308762
0.308802
0.308842
0.308882
0.308922
0.308922
0.308961
0.309001
0.309041
0.309081
0.309081
0.309121
0.309161
0.309202
0.309242
0.309242
0.309282
0.309322
0.309362
0.309403
0.309403
0.309443
0.309483
0.309524
0.309564
0.309564
0.309604
0.309645
0.309685
0.309726
0.309726
0.309766
0.309807
0.309848
0.309888
0.309888
0.309929
0.30997
0.31001
0.310051
0.310051
0.310092
0.310133
0.310174
0.310215
0.310215
0.310255
0.310296
0.310337
0.310378
0.310378
0.31042
0.310461
0.310502
0.310543
0.310543
0.310584
0.310625
0.310667
0.310708
0.310708
0.310749
0.31079
0.310832
0.310873
0.310873
0.310915
0.310956
0.310998
0.311039
0.311039
0.311081
0.311122
0.311164
0.311206
0.311206
0.311247
0.311289
0.311331
0.311373
0.311373
0.311414
0.311456
0.311498
0.31154
0.31154
0.311582
0.311624
0.311666
0.311708
0.311708
0.31175
0.311792
0.311834
0.311877
0.311877
0.311919
0.311961
0.312003
0.312045
0.312045
0.312088
0.31213
0.312173
0.312215
0.312215
0.312257
0.3123
0.312342
0.312385
0.312385
0.312428
0.31247
0.312513
0.312555
0.312555
0.312598
0.312641
0.312684
0.312726
0.312726
0.312769
0.312812
0.312855
0.312898
0.312898
0.312941
0.312984
0.313027
0.31307
0.31307
0.313113
0.313156
0.313199
0.313243
0.313243
0.313286
0.313329
0.313372
0.313416
0.313416
0.313459
0.313502
0.313546
0.313589
0.313589
0.313633
0.313676
0.31372
0.313763
0.313763
0.313807
0.31385
0.313894
0.313938
0.313938
0.313981
0.314025
0.314069
0.314113
0.314113
0.314157
0.3142
0.314244
0.314288
0.314288
0.314332
0.314376
0.31442
0.314464
0.314464
0.314508
0.314553
0.314597
0.314641
0.314641
0.314685
0.314729
0.314774
0.314818
0.314818
0.314862
0.314907
0.314951
0.314996
0.314996
0.31504
0.315085
0.315129
0.315174
0.315174
0.315218
0.315263
0.315308
0.315352
0.315352
0.315397
0.315442
0.315487
0.315531
0.315531
0.315576
0.315621
0.315666
0.315711
0.315711
0.315756
0.315801
0.315846
0.315891
0.315891
0.315936
0.315981
0.316026
0.316072
0.316072
0.316117
0.316162
0.316207
0.316253
0.316253
0.316298
0.316343
0.316389
0.316434
0.316434
0.31648
0.316525
0.316571
0.316616
0.316616
0.316662
0.316708
0.316753
0.316799
0.316799
0.316845
0.316891
0.316936
0.316982
0.316982
0.317028
0.317074
0.31712
0.317166
0.317166
0.317212
0.317258
0.317304
0.31735
0.31735
0.317396
0.317442
0.317488
0.317535
0.317535
0.317581
0.317627
0.317673
0.31772
0.31772
0.317766
0.317812
0.317859
0.317905
0.317905
0.317952
0.317998
0.318045
0.318091
0.318091
0.318138
0.318185
0.318231
0.318278
0.318278
0.318325
0.318372
0.318418
0.318465
0.318465
0.318512
0.318559
0.318606
0.318653
0.318653
0.3187
0.318747
0.318794
0.318841
0.318841
0.318888
0.318935
0.318982
0.31903
0.31903
0.319077
0.319124
0.319171
0.319219
0.319219
0.319266
0.319314
0.319361
0.319408
0.319408
0.319456
0.319503
0.319551
0.319599
0.319599
0.319646
0.319694
0.319742
0.319789
0.319789
0.319837
0.319885
0.319933
0.31998
0.31998
0.320028
0.320076
0.320124
0.320172
0.320172
0.32022
0.320268
0.320316
0.320364
0.320364
0.320412
0.320461
0.320509
0.320557
0.320557
0.320605
0.320653
0.320702
0.32075
0.32075
0.320798
0.320847
0.320895
0.320944
0.320944
0.320992
0.321041
0.321089
0.321138
0.321138
0.321187
0.321235
0.321284
0.321333
0.321333
0.321381
0.32143
0.321479
0.321528
0.321528
0.321577
0.321626
0.321674
0.321723
0.321723
0.321772
0.321821
0.32187
0.32192
0.32192
0.321969
0.322018
0.322067
0.322116
0.322116
0.322165
0.322215
0.322264
0.322313
0.322313
0.322363
0.322412
0.322462
0.322511
0.322511
0.322561
0.32261
0.32266
0.322709
0.322709
0.322759
0.322808
0.322858
0.322908
0.322908
0.322958
0.323007
0.323057
0.323107
0.323107
0.323157
0.323207
0.323257
0.323307
0.323307
0.323357
0.323407
0.323457
0.323507
0.323507
0.323557
0.323607
0.323657
0.323708
0.323708
0.323758
0.323808
0.323858
0.323909
0.323909
0.323959
0.324009
0.32406
0.32411
0.32411
0.324161
0.324211
0.324262
0.324313
0.324313
0.324363
0.324414
0.324464
0.324515
0.324515
0.324566
0.324617
0.324667
0.324718
0.324718
0.324769
0.32482
0.324871
0.324922
0.324922
0.324973
0.325024
0.325075
0.325126
0.325126
0.325177
0.325228
0.32528
0.325331
0.325331
0.325382
0.325433
0.325485
0.325536
0.325536
0.325587
0.325639
0.32569
0.325742
0.325742
0.325793
0.325845
0.325896
0.325948
0.325948
0.325999
0.326051
0.326103
0.326154
0.326154
0.326206
0.326258
0.32631
0.326361
0.326361
0.326413
0.326465
0.326517
0.326569
0.326569
0.326621
0.326673
0.326725
0.326777
0.326777
0.326829
0.326882
0.326934
0.326986
0.326986
0.327038
0.32709
0.327143
0.327195
0.327195
0.327247
0.3273
0.327352
0.327405
0.327405
0.327457
0.32751
0.327562
0.327615
0.327615
0.327667
0.32772
0.327773
0.327825
0.327825
0.327878
0.327931
0.327984
0.328036
0.328036
0.328089
0.328142
0.328195
0.328248
0.328248
0.328301
0.328354
0.328407
0.32846
0.32846
0.328513
0.328566
0.32862
0.328673
0.328673
0.328726
0.328779
0.328833
0.328886
0.328886
0.328939
0.328993
0.329046
0.3291
0.3291
0.329153
0.329206
0.32926
0.329314
0.329314
0.329367
0.329421
0.329474
0.329528
0.329528
0.329582
0.329636
0.329689
0.329743
0.329743
0.329797
0.329851
0.329905
0.329959
0.329959
0.330013
0.330067
0.330121
0.330175
0.330175
0.330229
0.330283
0.330337
0.330391
0.330391
0.330446
0.3305
0.330554
0.330609
0.330609
0.330663
0.330717
0.330772
0.330826
0.330826
0.330881
0.330935
0.33099
0.331044
0.331044
0.331099
0.331153
0.331208
0.331263
0.331263
0.331317
0.331372
0.331427
0.331482
0.331482
0.331537
0.331591
0.331646
0.331701
0.331701
0.331756
0.331811
0.331866
0.331921
0.331921
0.331976
0.332031
0.332087
0.332142
0.332142
0.332197
0.332252
0.332308
0.332363
0.332363
0.332418
0.332473
0.332529
0.332584
0.332584
0.33264
0.332695
0.332751
0.332806
0.332806
0.332862
0.332917
0.332973
0.333029
0.333029
0.333085
0.33314
0.333196
0.333252
0.333252
0.333308
0.333363
0.333419
0.333475
0.333475
0.333531
0.333587
0.333643
0.333699
0.333699
0.333755
0.333811
0.333868
0.333924
0.333924
0.33398
0.334036
0.334092
0.334149
0.334149
0.334205
0.334261
0.334318
0.334374
0.334374
0.334431
0.334487
0.334544
0.3346
0.3346
0.334657
0.334713
0.33477
0.334826
0.334826
0.334883
0.33494
0.334997
0.335053
0.335053
0.33511
0.335167
0.335224
0.335281
0.335281
0.335338
0.335395
0.335452
0.335509
0.335509
0.335566
0.335623
0.33568
0.335737
0.335737
0.335794
0.335852
0.335909
0.335966
0.335966
0.336023
0.336081
0.336138
0.336195
0.336195
0.336253
0.33631
0.336368
0.336425
0.336425
0.336483
0.33654
0.336598
0.336656
0.336656
0.336713
0.336771
0.336829
0.336887
0.336887
0.336944
0.337002
0.33706
0.337118
0.337118
0.337176
0.337234
0.337292
0.33735
0.33735
0.337408
0.337466
0.337524
0.337582
0.337582
0.33764
0.337698
0.337757
0.337815
0.337815
0.337873
0.337931
0.33799
0.338048
0.338048
0.338107
0.338165
0.338223
0.338282
0.338282
0.33834
0.338399
0.338458
0.338516
0.338516
0.338575
0.338634
0.338692
0.338751
0.338751
0.33881
0.338869
0.338927
0.338986
0.338986
0.339045
0.339104
0.339163
0.339222
0.339222
0.339281
0.33934
0.339399
0.339458
0.339458
0.339517
0.339577
0.339636
0.339695
0.339695
0.339754
0.339814
0.339873
0.339932
0.339932
0.339992
0.340051
0.34011
0.34017
0.34017
0.340229
0.340289
0.340349
0.340408
0.340408
0.340468
0.340527
0.340587
0.340647
0.340647
0.340707
0.340766
0.340826
0.340886
0.340886
0.340946
0.341006
0.341066
0.341126
0.341126
0.341186
0.341246
0.341306
0.341366
0.341366
0.341426
0.341486
0.341546
0.341606
0.341606
0.341667
0.341727
0.341787
0.341848
0.341848
0.341908
0.341968
0.342029
0.342089
0.342089
0.34215
0.34221
0.342271
0.342331
0.342331
0.342392
0.342453
0.342513
0.342574
0.342574
0.342635
0.342695
0.342756
0.342817
0.342817
0.342878
0.342939
0.343
0.343061
0.343061
0.343122
0.343183
0.343244
0.343305
0.343305
0.343366
0.343427
0.343488
0.343549
0.343549
0.34361
0.343672
0.343733
0.343794
0.343794
0.343856
0.343917
0.343978
0.34404
0.34404
0.344101
0.344163
0.344224
0.344286
0.344286
0.344347
0.344409
0.344471
0.344532
0.344532
0.344594
0.344656
0.344717
0.344779
0.344779
0.344841
0.344903
0.344965
0.345027
0.345027
0.345089
0.345151
0.345213
0.345275
0.345275
0.345337
0.345399
0.345461
0.345523
0.345523
0.345585
0.345647
0.34571
0.345772
0.345772
0.345834
0.345897
0.345959
0.346021
0.346021
0.346084
0.346146
0.346209
0.346271
0.346271
0.346334
0.346396
0.346459
0.346522
0.346522
0.346584
0.346647
0.34671
0.346772
0.346772
0.346835
0.346898
0.346961
0.347024
0.347024
0.347087
0.34715
0.347213
0.347276
0.347276
0.347339
0.347402
0.347465
0.347528
0.347528
0.347591
0.347654
0.347717
0.347781
0.347781
0.347844
0.347907
0.34797
0.348034
0.348034
0.348097
0.348161
0.348224
0.348288
0.348288
0.348351
0.348415
0.348478
0.348542
0.348542
0.348605
0.348669
0.348733
0.348797
0.348797
0.34886
0.348924
0.348988
0.349052
0.349052
0.349116
0.34918
0.349243
0.349307
0.349307
0.349371
0.349435
0.3495
0.349564
0.349564
0.349628
0.349692
0.349756
0.34982
0.34982
0.349884
0.349949
0.350013
0.350077
0.350077
0.350142
0.350206
0.350271
0.350335
0.350335
0.350399
0.350464
0.350529
0.350593
0.350593
0.350658
0.350722
0.350787
0.350852
0.350852
0.350916
0.350981
0.351046
0.351111
0.351111
0.351176
0.35124
0.351305
0.35137
0.35137
0.351435
0.3515
0.351565
0.35163
0.35163
0.351695
0.35176
0.351826
0.351891
0.351891
0.351956
0.352021
0.352086
0.352152
0.352152
0.352217
0.352282
0.352348
0.352413
0.352413
0.352479
0.352544
0.35261
0.352675
0.352675
0.352741
0.352806
0.352872
0.352938
0.352938
0.353003
0.353069
0.353135
0.353201
0.353201
0.353266
0.353332
0.353398
0.353464
0.353464
0.35353
0.353596
0.353662
0.353728
0.353728
0.353794
0.35386
0.353926
0.353992
0.353992
0.354058
0.354124
0.354191
0.354257
0.354257
0.354323
0.35439
0.354456
0.354522
0.354522
0.354589
0.354655
0.354722
0.354788
0.354788
0.354855
0.354921
0.354988
0.355054
0.355054
0.355121
0.355188
0.355254
0.355321
0.355321
0.355388
0.355455
0.355521
0.355588
0.355588
0.355655
0.355722
0.355789
0.355856
0.355856
0.355923
0.35599
0.356057
0.356124
0.356124
0.356191
0.356258
0.356326
0.356393
0.356393
0.35646
0.356527
0.356595
0.356662
0.356662
0.356729
0.356797
0.356864
0.356931
0.356931
0.356999
0.357066
0.357134
0.357202
0.357202
0.357269
0.357337
0.357404
0.357472
0.357472
0.35754
0.357608
0.357675
0.357743
0.357743
0.357811
0.357879
0.357947
0.358015
0.358015
0.358083
0.358151
0.358219
0.358287
0.358287
0.358355
0.358423
0.358491
0.358559
0.358559
0.358627
0.358696
0.358764
0.358832
0.358832
0.3589
0.358969
0.359037
0.359106
0.359106
0.359174
0.359242
0.359311
0.359379
0.359379
0.359448
0.359517
0.359585
0.359654
0.359654
0.359723
0.359791
0.35986
0.359929
0.359929
0.359997
0.360066
0.360135
0.360204
0.360204
0.360273
0.360342
0.360411
0.36048
0.36048
0.360549
0.360618
0.360687
0.360756
0.360756
0.360825
0.360894
0.360964
0.361033
0.361033
0.361102
0.361171
0.361241
0.36131
0.36131
0.361379
0.361449
0.361518
0.361588
0.361588
0.361657
0.361727
0.361796
0.361866
0.361866
0.361936
0.362005
0.362075
0.362145
0.362145
0.362214
0.362284
0.362354
0.362424
0.362424
0.362494
0.362563
0.362633
0.362703
0.362703
0.362773
0.362843
0.362913
0.362983
0.362983
0.363054
0.363124
0.363194
0.363264
0.363264
0.363334
0.363404
0.363475
0.363545
0.363545
0.363615
0.363686
0.363756
0.363827
0.363827
0.363897
0.363967
0.364038
0.364108
0.364108
0.364179
0.36425
0.36432
0.364391
0.364391
0.364462
0.364532
0.364603
0.364674
0.364674
0.364745
0.364815
0.364886
0.364957
0.364957
0.365028
0.365099
0.36517
0.365241
0.365241
0.365312
0.365383
0.365454
0.365525
0.365525
0.365597
0.365668
0.365739
0.36581
0.36581
0.365881
0.365953
0.366024
0.366095
0.366095
0.366167
0.366238
0.36631
0.366381
0.366381
0.366453
0.366524
0.366596
0.366667
0.366667
0.366739
0.366811
0.366882
0.366954
0.366954
0.367026
0.367098
0.367169
0.367241
0.367241
0.367313
0.367385
0.367457
0.367529
0.367529
0.367601
0.367673
0.367745
0.367817
0.367817
0.367889
0.367961
0.368033
0.368106
0.368106
0.368178
0.36825
0.368322
0.368395
0.368395
0.368467
0.368539
0.368612
0.368684
0.368684
0.368757
0.368829
0.368902
0.368974
0.368974
0.369047
0.369119
0.369192
0.369265
0.369265
0.369337
0.36941
0.369483
0.369556
0.369556
0.369628
0.369701
0.369774
0.369847
0.369847
0.36992
0.369993
0.370066
0.370139
0.370139
0.370212
0.370285
0.370358
0.370431
0.370431
0.370504
0.370577
0.370651
0.370724
0.370724
0.370797
0.37087
0.370944
0.371017
0.371017
0.371091
0.371164
0.371237
0.371311
0.371311
0.371384
0.371458
0.371532
0.371605
0.371605
0.371679
0.371752
0.371826
0.3719
0.3719
0.371974
0.372047
0.372121
0.372195
0.372195
0.372269
0.372343
0.372417
0.372491
0.372491
0.372564
0.372638
0.372713
0.372787
0.372787
0.372861
0.372935
0.373009
0.373083
0.373083
0.373157
0.373232
0.373306
0.37338
0.37338
0.373454
0.373529
0.373603
0.373678
0.373678
0.373752
0.373827
0.373901
0.373976
0.373976
0.37405
0.374125
0.374199
0.374274
0.374274
0.374349
0.374423
0.374498
0.374573
0.374573
0.374648
0.374722
0.374797
0.374872
0.374872
0.374947
0.375022
0.375097
0.375172
0.375172
0.375247
0.375322
0.375397
0.375472
0.375472
0.375547
0.375623
0.375698
0.375773
0.375773
0.375848
0.375924
0.375999
0.376074
0.376074
0.37615
0.376225
0.3763
0.376376
0.376376
0.376451
0.376527
0.376602
0.376678
0.376678
0.376754
0.376829
0.376905
0.376981
0.376981
0.377056
0.377132
0.377208
0.377284
0.377284
0.377359
0.377435
0.377511
0.377587
0.377587
0.377663
0.377739
0.377815
0.377891
0.377891
0.377967
0.378043
0.378119
0.378196
0.378196
0.378272
0.378348
0.378424
0.3785
0.3785
0.378577
0.378653
0.378729
0.378806
0.378806
0.378882
0.378959
0.379035
0.379112
0.379112
0.379188
0.379265
0.379341
0.379418
0.379418
0.379495
0.379571
0.379648
0.379725
0.379725
0.379802
0.379878
0.379955
0.380032
0.380032
0.380109
0.380186
0.380263
0.38034
0.38034
0.380417
0.380494
0.380571
0.380648
0.380648
0.380725
0.380802
0.380879
0.380956
0.380956
0.381034
0.381111
0.381188
0.381266
0.381266
0.381343
0.38142
0.381498
0.381575
0.381575
0.381653
0.38173
0.381808
0.381885
0.381885
0.381963
0.38204
0.382118
0.382196
0.382196
0.382273
0.382351
0.382429
0.382506
0.382506
0.382584
0.382662
0.38274
0.382818
0.382818
0.382896
0.382974
0.383052
0.38313
0.38313
0.383208
0.383286
0.383364
0.383442
0.383442
0.38352
0.383598
0.383676
0.383755
0.383755
0.383833
0.383911
0.38399
0.384068
0.384068
0.384146
0.384225
0.384303
0.384382
0.384382
0.38446
0.384539
0.384617
0.384696
0.384696
0.384774
0.384853
0.384932
0.38501
0.38501
0.385089
0.385168
0.385247
0.385325
0.385325
0.385404
0.385483
0.385562
0.385641
0.385641
0.38572
0.385799
0.385878
0.385957
0.385957
0.386036
0.386115
0.386194
0.386273
0.386273
0.386353
0.386432
0.386511
0.38659
0.38659
0.38667
0.386749
0.386828
0.386908
0.386908
0.386987
0.387066
0.387146
0.387225
0.387225
0.387305
0.387384
0.387464
0.387544
0.387544
0.387623
0.387703
0.387783
0.387862
0.387862
0.387942
0.388022
0.388102
0.388182
0.388182
0.388261
0.388341
0.388421
0.388501
0.388501
0.388581
0.388661
0.388741
0.388821
0.388821
0.388901
0.388981
0.389062
0.389142
0.389142
0.389222
0.389302
0.389383
0.389463
0.389463
0.389543
0.389623
0.389704
0.389784
0.389784
0.389865
0.389945
0.390026
0.390106
0.390106
0.390187
0.390267
0.390348
0.390429
0.390429
0.390509
0.39059
0.390671
0.390751
0.390751
0.390832
0.390913
0.390994
0.391075
0.391075
0.391156
0.391236
0.391317
0.391398
0.391398
0.391479
0.39156
0.391641
0.391723
0.391723
0.391804
0.391885
0.391966
0.392047
0.392047
0.392128
0.39221
0.392291
0.392372
0.392372
0.392454
0.392535
0.392616
0.392698
0.392698
0.392779
0.392861
0.392942
0.393024
0.393024
0.393105
0.393187
0.393269
0.39335
0.39335
0.393432
0.393514
0.393595
0.393677
0.393677
0.393759
0.393841
0.393923
0.394005
0.394005
0.394086
0.394168
0.39425
0.394332
0.394332
0.394414
0.394496
0.394579
0.394661
0.394661
0.394743
0.394825
0.394907
0.394989
0.394989
0.395072
0.395154
0.395236
0.395319
0.395319
0.395401
0.395483
0.395566
0.395648
0.395648
0.395731
0.395813
0.395896
0.395978
0.395978
0.396061
0.396143
0.396226
0.396309
0.396309
0.396391
0.396474
0.396557
0.39664
0.39664
0.396723
0.396805
0.396888
0.396971
0.396971
0.397054
0.397137
0.39722
0.397303
0.397303
0.397386
0.397469
0.397552
0.397635
0.397635
0.397719
0.397802
0.397885
0.397968
0.397968
0.398051
0.398135
0.398218
0.398301
0.398301