<?xml version="1.0"?>
<VTKFile type="UnstructuredGrid" version="0.1" byte_order="LittleEndian">
<UnstructuredGrid>
<Piece NumberOfPoints="5000" NumberOfCells="4000">
<PointData Scalars="Reaction 0">
<DataArray type="Float32" Name="Reaction 0" format="ascii">
0.652333
0.652333
0.652333
0.652333
0.652333
0.652333
0.652333
0.652333
0.652333
0.652333
0.652333
0.652333
0.652333
0.652333
0.652333
0.652333
0.652333
0.652333
0.652333
0.652333
0.652333
0.652333
0.652333
0.652334
0.652334
0.652334
0.652334
0.652334
0.652334
0.652334
0.652334
0.652334
0.652334
0.652334
0.652335
0.652335
0.652335
0.652335
0.652335
0.652335
0.652335
0.652335
0.652335
0.652336
0.652336
0.652336
0.652336
0.652336
0.652336
0.652336
0.652336
0.652337
0.652337
0.652337
0.652337
0.652337
0.652337
0.652338
0.652338
0.652338
0.652338
0.652338
0.652339
0.652339
0.652339
0.652339
0.652339
0.652339
0.65234
0.65234
0.65234
0.65234
0.652341
0.652341
0.652341
0.652341
0.652341
0.652342
0.652342
0.652342
0.652342
0.652343
0.652343
0.652343
0.652343
0.652343
0.652344
0.652344
0.652344
0.652345
0.652345
0.652345
0.652345
0.652346
0.652346
0.652346
0.652346
0.652347
0.652347
0.652348
0.652348
0.652348
0.652348
0.652349
0.652349
0.652349
0.652349
0.65235
0.65235
0.652351
0.652351
0.652351
0.652351
0.652352
0.652352
0.652352
0.652353
0.652353
0.652354
0.652354
0.652354
0.652355
0.652355
0.652355
0.652356
0.652356
0.652356
0.652357
0.652357
0.652358
0.652358
0.652358
0.652359
0.652359
0.65236
0.65236
0.65236
0.652361
0.652361
0.652362
0.652362
0.652362
0.652363
0.652363
0.652364
0.652364
0.652364
0.652365
0.652366
0.652366
0.652366
0.652367
0.652367
0.652368
0.652368
0.652368
0.652369
0.65237
0.65237
0.652371
0.652371
0.652371
0.652372
0.652373
0.652373
0.652373
0.652374
0.652374
0.652375
0.652376
0.652376
0.652376
0.652377
0.652378
0.652378
0.652378
0.652379
0.652379
0.65238
0.652381
0.652381
0.652381
0.652382
0.652383
0.652384
0.652384
0.652384
0.652385
0.652386
0.652386
0.652386
0.652387
0.652388
0.652388
0.652389
0.652389
0.65239
0.652391
0.652391
0.652392
0.652392
0.652393
0.652394
0.652394
0.652395
0.652395
0.652396
0.652397
0.652397
0.652398
0.652398
0.652399
0.6524
0.652401
0.652401
0.652401
0.652402
0.652403
0.652404
0.652405
0.652405
0.652405
0.652406
0.652407
0.652408
0.652408
0.652409
0.65241
0.65241
0.652411
0.652411
0.652412
0.652413
0.652414
0.652415
0.652415
0.652416
0.652416
0.652417
0.652418
0.652418
0.652419
0.65242
0.652421
0.652422
0.652422
0.652423
0.652424
0.652425
0.652425
0.652425
0.652426
0.652427
0.652428
0.652429
0.652429
0.65243
0.652431
0.652432
0.652433
0.652433
0.652434
0.652435
0.652436
0.652437
0.652437
0.652438
0.652439
0.65244
0.652441
0.652441
0.652442
0.652443
0.652444
0.652445
0.652445
0.652446
0.652447
0.652448
0.652449
0.652449
0.65245
0.652451
0.652452
0.652453
0.652453
0.652454
0.652455
0.652457
0.652458
0.652458
0.652459
0.65246
0.652461
0.652462
0.652462
0.652463
0.652464
0.652465
0.652466
0.652466
0.652467
0.652469
0.65247
0.652471
0.652471
0.652472
0.652473
0.652474
0.652475
0.652475
0.652477
0.652478
0.652479
0.65248
0.65248
0.652481
0.652482
0.652484
0.652485
0.652485
0.652486
0.652487
0.652488
0.65249
0.65249
0.652491
0.652492
0.652493
0.652494
0.652494
0.652496
0.652497
0.652498
0.652499
0.652499
0.652501
0.652502
0.652503
0.652504
0.652504
0.652506
0.652507
0.652508
0.652509
0.652509
0.652511
0.652512
0.652513
0.652515
0.652515
0.652516
0.652517
0.652519
0.65252
0.65252
0.652521
0.652523
0.652524
0.652525
0.652525
0.652527
0.652528
0.652529
0.652531
0.652531
0.652532
0.652533
0.652535
0.652536
0.652536
0.652537
0.652539
0.65254
0.652542
0.652542
0.652543
0.652544
0.652546
0.652547
0.652547
0.652549
0.65255
0.652551
0.652553
0.652553
0.652554
0.652556
0.652557
0.652559
0.652559
0.65256
0.652562
0.652563
0.652565
0.652565
0.652566
0.652567
0.652569
0.65257
0.65257
0.652572
0.652573
0.652575
0.652576
0.652576
0.652578
0.652579
0.652581
0.652582
0.652582
0.652584
0.652586
0.652587
0.652589
0.652589
0.65259
0.652592
0.652593
0.652595
0.652595
0.652596
0.652598
0.6526
0.652601
0.652601
0.652603
0.652604
0.652606
0.652607
0.652607
0.652609
0.652611
0.652612
0.652614
0.652614
0.652616
0.652617
0.652619
0.65262
0.65262
0.652622
0.652624
0.652625
0.652627
0.652627
0.652629
0.65263
0.652632
0.652634
0.652634
0.652635
0.652637
0.652639
0.65264
0.65264
0.652642
0.652644
0.652645
0.652647
0.652647
0.652649
0.652651
0.652652
0.652654
0.652654
0.652656
0.652658
0.652659
0.652661
0.652661
0.652663
0.652665
0.652666
0.652668
0.652668
0.65267
0.652672
0.652673
0.652675
0.652675
0.652677
0.652679
0.65268
0.652682
0.652682
0.652684
0.652686
0.652688
0.65269
0.65269
0.652691
0.652693
0.652695
0.652697
0.652697
0.652699
0.652701
0.652702
0.652704
0.652704
0.652706
0.652708
0.65271
0.652712
0.652712
0.652714
0.652716
0.652717
0.652719
0.652719
0.652721
0.652723
0.652725
0.652727
0.652727
0.652729
0.652731
0.652733
0.652735
0.652735
0.652737
0.652739
0.652741
0.652743
0.652743
0.652745
0.652746
0.652748
0.65275
0.65275
0.652752
0.652754
0.652756
0.652758
0.652758
0.65276
0.652762
0.652764
0.652766
0.652766
0.652768
0.65277
0.652772
0.652774
0.652774
0.652777
0.652779
0.652781
0.652783
0.652783
0.652785
0.652787
0.652789
0.652791
0.652791
0.652793
0.652795
0.652797
0.652799
0.652799
0.652801
0.652803
0.652806
0.652808
0.652808
0.65281
0.652812
0.652814
0.652816
0.652816
0.652818
0.65282
0.652822
0.652825
0.652825
0.652827
0.652829
0.652831
0.652833
0.652833
0.652835
0.652838
0.65284
0.652842
0.652842
0.652844
0.652846
0.652848
0.652851
0.652851
0.652853
0.652855
0.652857
0.65286
0.65286
0.652862
0.652864
0.652866
0.652868
0.652868
0.652871
0.652873
0.652875
0.652877
0.652877
0.65288
0.652882
0.652884
0.652887
0.652887
0.652889
0.652891
0.652893
0.652896
0.652896
0.652898
0.6529
0.652903
0.652905
0.652905
0.652907
0.65291
0.652912
0.652914
0.652914
0.652917
0.652919
0.652921
0.652924
0.652924
0.652926
0.652928
0.652931
0.652933
0.652933
0.652935
0.652938
0.65294
0.652943
0.652943
0.652945
0.652947
0.65295
0.652952
0.652952
0.652955
0.652957
0.652959
0.652962
0.652962
0.652964
0.652967
0.652969
0.652972
0.652972
0.652974
0.652976
0.652979
0.652981
0.652981
0.652984
0.652986
0.652989
0.652991
0.652991
0.652994
0.652996
0.652999
0.653001
0.653001
0.653004
0.653006
0.653009
0.653011
0.653011
0.653014
0.653016
0.653019
0.653021
0.653021
0.653024
0.653027
0.653029
0.653032
0.653032
0.653034
0.653037
0.653039
0.653042
0.653042
0.653044
0.653047
0.65305
0.653052
0.653052
0.653055
0.653057
0.65306
0.653063
0.653063
0.653065
0.653068
0.653071
0.653073
0.653073
0.653076
0.653078
0.653081
0.653084
0.653084
0.653086
0.653089
0.653092
0.653094
0.653094
0.653097
0.6531
0.653102
0.653105
0.653105
0.653108
0.653111
0.653113
0.653116
0.653116
0.653119
0.653121
0.653124
0.653127
0.653127
0.65313
0.653132
0.653135
0.653138
0.653138
0.653141
0.653143
0.653146
0.653149
0.653149
0.653152
0.653154
0.653157
0.65316
0.65316
0.653163
0.653166
0.653168
0.653171
0.653171
0.653174
0.653177
0.65318
0.653182
0.653182
0.653185
0.653188
0.653191
0.653194
0.653194
0.653197
0.6532
0.653202
0.653205
0.653205
0.653208
0.653211
0.653214
0.653217
0.653217
0.65322
0.653223
0.653225
0.653228
0.653228
0.653231
0.653234
0.653237
0.65324
0.65324
0.653243
0.653246
0.653249
0.653252
0.653252
0.653255
0.653258
0.653261
0.653263
0.653263
0.653266
0.653269
0.653272
0.653275
0.653275
0.653278
0.653281
0.653284
0.653287
0.653287
0.65329
0.653293
0.653296
0.653299
0.653299
0.653302
0.653305
0.653308
0.653311
0.653311
0.653314
0.653317
0.65332
0.653323
0.653323
0.653326
0.65333
0.653333
0.653336
0.653336
0.653339
0.653342
0.653345
0.653348
0.653348
0.653351
0.653354
0.653357
0.65336
0.65336
0.653364
0.653367
0.65337
0.653373
0.653373
0.653376
0.653379
0.653382
0.653386
0.653386
0.653389
0.653392
0.653395
0.653398
0.653398
0.653401
0.653405
0.653408
0.653411
0.653411
0.653414
0.653417
0.653421
0.653424
0.653424
0.653427
0.65343
0.653434
0.653437
0.653437
0.65344
0.653443
0.653446
0.65345
0.65345
0.653453
0.653456
0.65346
0.653463
0.653463
0.653466
0.653469
0.653473
0.653476
0.653476
0.653479
0.653482
0.653486
0.653489
0.653489
0.653492
0.653496
0.653499
0.653502
0.653502
0.653506
0.653509
0.653512
0.653516
0.653516
0.653519
0.653522
0.653526
0.653529
0.653529
0.653532
0.653536
0.653539
0.653543
0.653543
0.653546
0.653549
0.653553
0.653556
0.653556
0.65356
0.653563
0.653566
0.65357
0.65357
0.653573
0.653577
0.65358
0.653584
0.653584
0.653587
0.65359
0.653594
0.653597
0.653597
0.653601
0.653604
0.653608
0.653611
0.653611
0.653615
0.653618
0.653622
0.653625
0.653625
0.653629
0.653632
0.653636
0.653639
0.653639
0.653643
0.653646
0.65365
0.653653
0.653653
0.653657
0.65366
0.653664
0.653668
0.653668
0.653671
0.653675
0.653678
0.653682
0.653682
0.653685
0.653689
0.653693
0.653696
0.653696
0.6537
0.653703
0.653707
0.653711
0.653711
0.653714
0.653718
0.653721
0.653725
0.653725
0.653729
0.653732
0.653736
0.65374
0.65374
0.653743
0.653747
0.653751
0.653754
0.653754
0.653758
0.653762
0.653765
0.653769
0.653769
0.653773
0.653776
0.65378
0.653784
0.653784
0.653788
0.653791
0.653795
0.653799
0.653799
0.653802
0.653806
0.65381
0.653814
0.653814
0.653817
0.653821
0.653825
0.653829
0.653829
0.653833
0.653836
0.65384
0.653844
0.653844
0.653848
0.653851
0.653855
0.653859
0.653859
0.653863
0.653867
0.653871
0.653874
0.653874
0.653878
0.653882
0.653886
0.65389
0.65389
0.653894
0.653897
0.653901
0.653905
0.653905
0.653909
0.653913
0.653917
0.653921
0.653921
0.653924
0.653928
0.653932
0.653936
0.653936
0.65394
0.653944
0.653948
0.653952
0.653952
0.653956
0.65396
0.653964
0.653967
0.653967
0.653971
0.653975
0.653979
0.653983
0.653983
0.653987
0.653991
0.653995
0.653999
0.653999
0.654003
0.654007
0.654011
0.654015
0.654015
0.654019
0.654023
0.654027
0.654031
0.654031
0.654035
0.654039
0.654043
0.654047
0.654047
0.654051
0.654055
0.65406
0.654064
0.654064
0.654068
0.654072
0.654076
0.65408
0.65408
0.654084
0.654088
0.654092
0.654096
0.654096
0.6541
0.654105
0.654109
0.654113
0.654113
0.654117
0.654121
0.654125
0.654129
0.654129
0.654134
0.654138
0.654142
0.654146
0.654146
0.65415
0.654154
0.654159
0.654163
0.654163
0.654167
0.654171
0.654175
0.654179
0.654179
0.654184
0.654188
0.654192
0.654196
0.654196
0.654201
0.654205
0.654209
0.654213
0.654213
0.654217
0.654222
0.654226
0.65423
0.65423
0.654235
0.654239
0.654243
0.654247
0.654247
0.654252
0.654256
0.65426
0.654265
0.654265
0.654269
0.654273
0.654277
0.654282
0.654282
0.654286
0.65429
0.654295
0.654299
0.654299
0.654303
0.654308
0.654312
0.654316
0.654316
0.654321
0.654325
0.65433
0.654334
0.654334
0.654338
0.654343
0.654347
0.654351
0.654351
0.654356
0.65436
0.654365
0.654369
0.654369
0.654374
0.654378
0.654382
0.654387
0.654387
0.654391
0.654396
0.6544
0.654405
0.654405
0.654409
0.654414
0.654418
0.654423
0.654423
0.654427
0.654431
0.654436
0.65444
0.65444
0.654445
0.654449
0.654454
0.654458
0.654458
0.654463
0.654468
0.654472
0.654477
0.654477
0.654481
0.654486
0.65449
0.654495
0.654495
0.654499
0.654504
0.654508
0.654513
0.654513
0.654518
0.654522
0.654527
0.654531
0.654531
0.654536
0.654541
0.654545
0.65455
0.65455
0.654554
0.654559
0.654564
0.654568
0.654568
0.654573
0.654578
0.654582
0.654587
0.654587
0.654592
0.654596
0.654601
0.654605
0.654605
0.65461
0.654615
0.65462
0.654624
0.654624
0.654629
0.654634
0.654638
0.654643
0.654643
0.654648
0.654652
0.654657
0.654662
0.654662
0.654667
0.654671
0.654676
0.654681
0.654681
0.654685
0.65469
0.654695
0.6547
0.6547
0.654705
0.654709
0.654714
0.654719
0.654719
0.654724
0.654729
0.654733
0.654738
0.654738
0.654743
0.654748
0.654753
0.654758
0.654758
0.654762
0.654767
0.654772
0.654777
0.654777
0.654782
0.654787
0.654792
0.654797
0.654797
0.654801
0.654806
0.654811
0.654816
0.654816
0.654821
0.654826
0.654831
0.654836
0.654836
0.654841
0.654846
0.654851
0.654856
0.654856
0.65486
0.654865
0.65487
0.654875
0.654875
0.65488
0.654885
0.65489
0.654895
0.654895
0.6549
0.654905
0.65491
0.654915
0.654915
0.65492
0.654925
0.65493
0.654935
0.654935
0.65494
0.654945
0.65495
0.654955
0.654955
0.65496
0.654965
0.65497
0.654976
0.654976
0.654981
0.654986
0.654991
0.654996
0.654996
0.655001
0.655006
0.655011
0.655016
0.655016
0.655021
0.655026
0.655031
0.655037
0.655037
0.655042
0.655047
0.655052
0.655057
0.655057
0.655062
0.655067
0.655073
0.655078
0.655078
0.655083
0.655088
0.655093
0.655098
0.655098
0.655104
0.655109
0.655114
0.655119
0.655119
0.655124
0.65513
0.655135
0.65514
0.65514
0.655145
0.65515
0.655156
0.655161
0.655161
0.655166
0.655171
0.655177
0.655182
0.655182
0.655187
0.655192
0.655198
0.655203
0.655203
0.655208
0.655214
0.655219
0.655224
0.655224
0.655229
0.655235
0.65524
0.655245
0.655245
0.655251
0.655256
0.655261
0.655267
0.655267
0.655272
0.655277
0.655283
0.655288
0.655288
0.655293
0.655299
0.655304
0.655309
0.655309
0.655315
0.65532
0.655326
0.655331
0.655331
0.655336
0.655342
0.655347
0.655353
0.655353
0.655358
0.655363
0.655369
0.655374
0.655374
0.65538
0.655385
0.65539
0.655396
0.655396
0.655401
0.655407
0.655412
0.655418
0.655418
0.655423
0.655429
0.655434
0.65544
0.65544
0.655445
0.655451
0.655457
0.655462
0.655462
0.655468
0.655473
0.655479
0.655484
0.655484
0.65549
0.655495
0.655501
0.655507
0.655507
0.655512
0.655518
0.655523
0.655529
0.655529
0.655535
0.65554
0.655546
0.655551
0.655551
0.655557
0.655563
0.655568
0.655574
0.655574
0.655579
0.655585
0.655591
0.655596
0.655596
0.655602
0.655608
0.655613
0.655619
0.655619
0.655625
0.65563
0.655636
0.655642
0.655642
0.655647
0.655653
0.655659
0.655665
0.655665
0.65567
0.655676
0.655682
0.655687
0.655687
0.655693
0.655699
0.655705
0.65571
0.65571
0.655716
0.655722
0.655728
0.655733
0.655733
0.655739
0.655745
0.655751
0.655757
0.655757
0.655762
0.655768
0.655774
0.65578
0.65578
0.655786
0.655791
0.655797
0.655803
0.655803
0.655809
0.655815
0.655821
0.655826
0.655826
0.655832
0.655838
0.655844
0.65585
0.65585
0.655856
0.655862
0.655868
0.655873
0.655873
0.655879
0.655885
0.655891
0.655897
0.655897
0.655903
0.655909
0.655915
0.655921
0.655921
0.655927
0.655933
0.655939
0.655945
0.655945
0.655951
0.655956
0.655962
0.655968
0.655968
0.655974
0.65598
0.655986
0.655992
0.655992
0.655998
0.656004
0.65601
0.656016
0.656016
0.656022
0.656028
0.656034
0.65604
0.65604
0.656046
0.656052
0.656058
0.656064
0.656064
0.656071
0.656077
0.656083
0.656089
0.656089
0.656095
0.656101
0.656107
0.656113
0.656113
0.656119
0.656125
0.656131
0.656138
0.656138
0.656144
0.65615
0.656156
0.656162
0.656162
0.656168
0.656175
0.656181
0.656187
0.656187
0.656193
0.656199
0.656205
0.656212
0.656212
0.656218
0.656224
0.65623
0.656237
0.656237
0.656243
0.656249
0.656255
0.656261
0.656261
0.656268
0.656274
0.65628
0.656286
0.656286
0.656293
0.656299
0.656305
0.656312
0.656312
0.656318
0.656324
0.65633
0.656337
0.656337
0.656343
0.656349
0.656356
0.656362
0.656362
0.656368
0.656375
0.656381
0.656387
0.656387
0.656394
0.6564
0.656406
0.656413
0.656413
0.656419
0.656425
0.656432
0.656438
0.656438
0.656444
0.656451
0.656457
0.656464
0.656464
0.65647
0.656476
0.656483
0.656489
0.656489
0.656496
0.656502
0.656508
0.656515
0.656515
0.656521
0.656528
0.656534
0.656541
0.656541
0.656547
0.656554
0.65656
0.656567
0.656567
0.656573
0.65658
0.656586
0.656593
0.656593
0.656599
0.656606
0.656612
0.656619
0.656619
0.656625
0.656632
0.656638
0.656645
0.656645
0.656651
0.656658
0.656664
0.656671
0.656671
0.656678
0.656684
0.656691
0.656697
0.656697
0.656704
0.65671
0.656717
0.656724
0.656724
0.65673
0.656737
0.656743
0.65675
0.65675
0.656757
0.656763
0.65677
0.656776
0.656776
0.656783
0.65679
0.656796
0.656803
0.656803
0.65681
0.656816
0.656823
0.65683
0.65683
0.656836
0.656843
0.65685
0.656857
0.656857
0.656863
0.65687
0.656877
0.656884
0.656884
0.65689
0.656897
0.656904
0.656911
0.656911
0.656917
0.656924
0.656931
0.656938
0.656938
0.656945
0.656951
0.656958
0.656965
0.656965
0.656972
0.656979
0.656985
0.656992
0.656992
0.656999
0.657006
0.657013
0.65702
0.65702
0.657027
0.657033
0.65704
0.657047
0.657047
0.657054
0.657061
0.657068
0.657075
0.657075
0.657082
0.657088
0.657095
0.657102
0.657102
0.657109
0.657116
0.657123
0.65713
0.65713
0.657137
0.657144
0.657151
0.657158
0.657158
0.657165
0.657172
0.657179
0.657186
0.657186
0.657193
0.6572
0.657206
0.657213
0.657213
0.65722
0.657227
0.657234
0.657242
0.657242
0.657249
0.657256
0.657263
0.65727
0.65727
0.657277
0.657284
0.657291
0.657298
0.657298
0.657305
0.657312
0.657319
0.657326
0.657326
0.657333
0.65734
0.657347
0.657354
0.657354
0.657362
0.657369
0.657376
0.657383
0.657383
0.65739
0.657397
0.657404
0.657411
0.657411
0.657418
0.657426
0.657433
0.65744
0.65744
0.657447
0.657454
0.657461
0.657469
0.657469
0.657476
0.657483
0.65749
0.657497
0.657497
0.657504
0.657512
0.657519
0.657526
0.657526
0.657533
0.657541
0.657548
0.657555
0.657555
0.657562
0.657569
0.657577
0.657584
0.657584
0.657591
0.657599
0.657606
0.657613
0.657613
0.657621
0.657628
0.657635
0.657643
0.657643
0.65765
0.657657
0.657665
0.657672
0.657672
0.657679
0.657687
0.657694
0.657701
0.657701
0.657709
0.657716
0.657724
0.657731
0.657731
0.657738
0.657746
0.657753
0.657761
0.657761
0.657768
0.657776
0.657783
0.65779
0.65779
0.657798
0.657805
0.657813
0.65782
0.65782
0.657828
0.657835
0.657843
0.65785
0.65785
0.657857
0.657865
0.657872
0.65788
0.65788
0.657887
0.657895
0.657902
0.65791
0.65791
0.657918
0.657925
0.657933
0.65794
0.65794
0.657948
0.657955
0.657963
0.65797
0.65797
0.657978
0.657985
0.657993
0.658001
0.658001
0.658008
0.658016
0.658023
0.658031
0.658031
0.658039
0.658046
0.658054
0.658061
0.658061
0.658069
0.658077
0.658084
0.658092
0.658092
0.6581
0.658107
0.658115
0.658123
0.658123
0.65813
0.658138
0.658146
0.658153
0.658153
0.658161
0.658169
0.658176
0.658184
0.658184
0.658192
0.658199
0.658207
0.658215
0.658215
0.658223
0.65823
0.658238
0.658246
0.658246
0.658253
0.658261
0.658269
0.658277
0.658277
0.658284
0.658292
0.6583
0.658308
0.658308
0.658316
0.658323
0.658331
0.658339
0.658339
0.658347
0.658355
0.658363
0.658371
0.658371
0.658378
0.658386
0.658394
0.658402
0.658402
0.65841
0.658418
0.658426
0.658434
0.658434
0.658442
0.65845
0.658457
0.658465
0.658465
0.658473
0.658481
0.658489
0.658497
0.658497
0.658505
0.658513
0.658521
0.658529
0.658529
0.658537
0.658545
0.658553
0.658561
0.658561
0.658569
0.658577
0.658585
0.658593
0.658593
0.658601
0.658609
0.658617
0.658625
0.658625
0.658633
0.658641
0.658649
0.658657
0.658657
0.658665
0.658673
0.658681
0.658689
0.658689
0.658697
0.658706
0.658714
0.658722
0.658722
0.65873
0.658738
0.658746
0.658754
0.658754
0.658762
0.65877
0.658778
0.658787
0.658787
0.658795
0.658803
0.658811
0.658819
0.658819
0.658827
0.658836
0.658844
0.658852
0.658852
0.65886
0.658868
0.658876
0.658885
0.658885
0.658893
0.658901
0.658909
0.658917
0.658917
0.658926
0.658934
0.658942
0.65895
0.65895
0.658959
0.658967
0.658975
0.658983
0.658983
0.658992
0.659
0.659008
0.659016
0.659016
0.659025
0.659033
0.659041
0.659049
0.659049
0.659058
0.659066
0.659074
0.659083
0.659083
0.659091
0.6591
0.659108
0.659116
0.659116
0.659125
0.659133
0.659141
0.65915
0.65915
0.659158
0.659167
0.659175
0.659184
0.659184
0.659192
0.6592
0.659209
0.659217
0.659217
0.659226
0.659234
0.659243
0.659251
0.659251
0.65926
0.659268
0.659277
0.659285
0.659285
0.659294
0.659302
0.659311
0.659319
0.659319
0.659328
0.659336
0.659345
0.659353
0.659353
0.659362
0.65937
0.659379
0.659387
0.659387
0.659396
0.659404
0.659413
0.659422
0.659422
0.65943
0.659439
0.659447
0.659456
0.659456
0.659465
0.659473
0.659482
0.65949
0.65949
0.659499
0.659508
0.659516
0.659525
0.659525
0.659534
0.659542
0.659551
0.659559
0.659559
0.659568
0.659577
0.659585
0.659594
0.659594
0.659603
0.659612
0.65962
0.659629
0.659629
0.659638
0.659646
0.659655
0.659664
0.659664
0.659672
0.659681
0.65969
0.659699
0.659699
0.659707
0.659716
0.659725
0.659734
0.659734
0.659742
0.659751
0.65976
0.659769
0.659769
0.659777
0.659786
0.659795
0.659804
0.659804
0.659813
0.659821
0.65983
0.659839
0.659839
0.659848
0.659857
0.659866
0.659875
0.659875
0.659883
0.659892
0.659901
0.65991
0.65991
0.659919
0.659928
0.659937
0.659946
0.659946
0.659955
0.659964
0.659973
0.659982
0.659982
0.659991
0.66
0.660009
0.660018
0.660018
0.660027
0.660036
0.660045
0.660054
0.660054
0.660063
0.660072
0.660081
0.66009
0.66009
0.660099
0.660108
0.660117
0.660126
0.660126
0.660135
0.660144
0.660153
0.660162
0.660162
0.660171
0.66018
0.660189
0.660198
0.660198
0.660207
0.660216
0.660225
0.660235
0.660235
0.660244
0.660253
0.660262
0.660271
0.660271
0.66028
0.660289
0.660298
0.660308
0.660308
0.660317
0.660326
0.660335
0.660344
0.660344
0.660353
0.660363
0.660372
0.660381
0.660381
0.66039
0.660399
0.660408
0.660418
0.660418
0.660427
0.660436
0.660445
0.660455
0.660455
0.660464
0.660473
0.660482
0.660491
0.660491
0.660501
0.66051
0.660519
0.660528
0.660528
0.660538
0.660547
0.660556
0.660566
0.660566
0.660575
0.660584
0.660593
0.660603
0.660603
0.660612
0.660621
0.660631
0.66064
0.66064
0.66065
0.660659
0.660668
0.660678
0.660678
0.660687
0.660697
0.660706
0.660715
0.660715
0.660725
0.660734
0.660744
0.660753
0.660753
0.660763
0.660772
0.660782
0.660791
0.660791
0.660801
0.66081
0.66082
0.660829
0.660829
0.660839
0.660848
0.660858
0.660867
0.660867
0.660877
0.660886
0.660896
0.660905
0.660905
0.660915
0.660924
0.660934
0.660943
0.660943
0.660953
0.660962
0.660972
0.660982
0.660982
0.660991
0.661001
0.66101
0.66102
0.66102
0.66103
0.661039
0.661049
0.661058
0.661058
0.661068
0.661078
0.661087
0.661097
0.661097
0.661107
0.661116
0.661126
0.661136
0.661136
0.661145
0.661155
0.661165
0.661174
0.661174
0.661184
0.661194
0.661203
0.661213
0.661213
0.661223
0.661232
0.661242
0.661252
0.661252
0.661262
0.661271
0.661281
0.661291
0.661291
0.661301
0.66131
0.66132
0.66133
0.66133
0.66134
0.661349
0.661359
0.661369
0.661369
0.661379
0.661389
0.661398
0.661408
0.661408
0.661418
0.661428
0.661438
0.661448
0.661448
0.661458
0.661467
0.661477
0.661487
0.661487
0.661497
0.661507
0.661517
0.661527
0.661527
0.661537
0.661547
0.661557
0.661567
0.661567
0.661577
0.661587
0.661597
0.661607
0.661607
0.661617
0.661627
0.661637
0.661647
0.661647
0.661657
0.661667
0.661677
0.661687
0.661687
0.661697
0.661707
0.661717
0.661727
0.661727
0.661737
0.661747
0.661757
0.661767
0.661767
0.661777
0.661787
0.661797
0.661807
0.661807
0.661817
0.661827
0.661837
0.661848
0.661848
0.661858
0.661868
0.661878
0.661888
0.661888
0.661898
0.661908
0.661918
0.661929
0.661929
0.661939
0.661949
0.661959
0.661969
0.661969
0.661979
0.661989
0.662
0.66201
0.66201
0.66202
0.66203
0.66204
0.662051
0.662051
0.662061
0.662071
0.662081
0.662091
0.662091
0.662102
0.662112
0.662122
0.662132
0.662132
0.662143
0.662153
0.662163
0.662173
0.662173
0.662184
0.662194
0.662204
0.662215
0.662215
0.662225
0.662235
0.662246
0.662256
0.662256
0.662266
0.662277
0.662287
0.662298
0.662298
0.662308
0.662318
0.662329
0.662339
0.662339
0.66235
0.66236
0.662371
0.662381
0.662381
0.662392
0.662402
0.662412
0.662423
0.662423
0.662433
0.662444
0.662454
0.662465
0.662465
0.662475
0.662486
0.662496
0.662507
0.662507
0.662517
0.662528
0.662538
0.662549
0.662549
0.662559
0.66257
0.66258
0.662591
0.662591
0.662602
0.662612
0.662623
0.662633
0.662633
0.662644
0.662654
0.662665
0.662676
0.662676
0.662686
0.662697
0.662707
0.662718
0.662718
0.662729
0.662739
0.66275
0.66276
0.66276
0.662771
0.662782
0.662792
0.662803
0.662803
0.662814
0.662824
0.662835
0.662846
0.662846
0.662856
0.662867
0.662878
0.662888
0.662888
0.662899
0.66291
0.662921
0.662931
0.662931
0.662942
0.662953
0.662963
0.662974
0.662974
0.662985
0.662996
0.663006
0.663017
0.663017
0.663028
0.663039
0.66305
0.663061
0.663061
0.663071
0.663082
0.663093
0.663104
0.663104
0.663115
0.663126
0.663137
0.663148
0.663148
0.663159
0.663169
0.66318
0.663191
0.663191
0.663202
0.663213
0.663224
0.663235
0.663235
0.663246
0.663257
0.663268
0.663279
0.663279
0.66329
0.663301
0.663312
0.663323
0.663323
0.663334
0.663345
0.663356
0.663367
0.663367
0.663378
0.663389
0.6634
0.663411
0.663411
0.663422
0.663433
0.663444
0.663455
0.663455
0.663466
0.663477
0.663488
0.663499
0.663499
0.66351
0.663521
0.663532
0.663543
0.663543
0.663554
0.663565
0.663577
0.663588
0.663588
0.663599
0.66361
0.663621
0.663632
0.663632
0.663643
0.663654
0.663666
0.663677
0.663677
0.663688
0.663699
0.66371
0.663721
0.663721
0.663733
0.663744
0.663755
0.663766
0.663766
0.663777
0.663789
0.6638
0.663811
0.663811
0.663822
0.663834
0.663845
0.663856
0.663856
0.663867
0.663879
0.66389
0.663901
0.663901
0.663913
0.663924
0.663935
0.663947
0.663947
0.663958
0.663969
0.663981
0.663992
0.663992
0.664004
0.664015
0.664026
0.664038
0.664038
0.664049
0.664061
0.664072
0.664083
0.664083
0.664095
0.664106
0.664118
0.664129
0.664129
0.664141
0.664152
0.664163
0.664175
0.664175
0.664186
0.664198
0.664209
0.664221
0.664221
0.664232
0.664244
0.664255
0.664267
0.664267
0.664278
0.66429
0.664301
0.664313
0.664313
0.664324
0.664336
0.664347
0.664359
0.664359
0.664371
0.664382
0.664394
0.664405
0.664405
0.664417
0.664428
0.66444
0.664452
0.664452
0.664463
0.664475
0.664486
0.664498
0.664498
0.66451
0.664521
0.664533
0.664544
0.664544
0.664556
0.664568
0.664579
0.664591
0.664591
0.664603
0.664614
0.664626
0.664638
0.664638
0.66465
0.664661
0.664673
0.664685
0.664685
0.664697
0.664708
0.66472
0.664732
0.664732
0.664744
0.664756
0.664767
0.664779
0.664779
0.664791
0.664803
0.664815
0.664827
0.664827
0.664838
0.66485
0.664862
0.664874
0.664874
0.664886
0.664898
0.66491
0.664921
0.664921
0.664933
0.664945
0.664957
0.664969
0.664969
0.664981
0.664993
0.665005
0.665017
0.665017
0.665029
0.665041
0.665052
0.665064
0.665064
0.665076
0.665088
0.6651
0.665112
0.665112
0.665124
0.665136
0.665148
0.66516
0.66516
0.665172
0.665184
0.665196
0.665208
0.665208
0.66522
0.665232
0.665244
0.665256
0.665256
0.665268
0.66528
0.665292
0.665304
0.665304
0.665317
0.665329
0.665341
0.665353
0.665353
0.665365
0.665377
0.665389
0.665401
0.665401
0.665413
0.665425
0.665437
0.66545
0.66545
0.665462
0.665474
0.665486
0.665498
0.665498
0.665511
0.665523
0.665535
0.665547
0.665547
0.66556
0.665572
0.665584
0.665596
0.665596
0.665609
0.665621
0.665633
0.665645
0.665645
0.665658
0.66567
0.665682
0.665695
0.665695
0.665707
0.665719
0.665732
0.665744
0.665744
0.665756
0.665769
0.665781
0.665793
0.665793
0.665806
0.665818
0.66583
0.665843
0.665843
0.665855
0.665868
0.66588
0.665892
0.665892
0.665905
0.665917
0.66593
0.665942
0.665942
0.665954
0.665967
0.665979
0.665992
0.665992
0.666004
0.666017
0.666029
0.666042
0.666042
0.666054
0.666067
0.666079
0.666091
0.666091
0.666104
0.666116
0.666129
0.666141
0.666141
0.666154
0.666166
0.666179
0.666192
0.666192
0.666204
0.666217
0.666229
0.666242
0.666242
0.666254
0.666267
0.666279
0.666292
0.666292
0.666305
0.666317
0.66633
0.666343
0.666343
0.666355
0.666368
0.666381
0.666393
0.666393
0.666406
0.666419
0.666432
0.666444
0.666444
0.666457
0.66647
0.666483
0.666495
0.666495
0.666508
0.666521
0.666534
0.666546
0.666546
0.666559
0.666572
0.666585
0.666597
0.666597
0.66661
0.666623
0.666636
0.666649
0.666649
0.666661
0.666674
0.666687
0.6667
0.6667
0.666713
0.666726
0.666738
0.666751
0.666751
0.666764
0.666777
0.66679
0.666803
0.666803
0.666816
0.666829
0.666841
0.666854
0.666854
0.666867
0.66688
0.666893
0.666906
0.666906
0.666919
0.666932
0.666945
0.666958
0.666958
0.666971
0.666984
0.666997
0.667009
0.667009
0.667022
0.667035
0.667048
0.667061
0.667061
0.667074
0.667087
0.6671
0.667113
0.667113
0.667127
0.66714
0.667153
0.667166
0.667166
0.667179
0.667192
0.667205
0.667218
0.667218
0.667231
0.667245
0.667258
0.667271
0.667271
0.667284
0.667297
0.66731
0.667324
0.667324
0.667337
0.66735
0.667363
0.667376
0.667376
0.66739
0.667403
0.667416
0.667429
0.667429
0.667443
0.667456
0.667469
0.667482
0.667482
0.667496
0.667509
0.667522
0.667535
0.667535
0.667549
0.667562
0.667575
0.667588
0.667588
0.667602
0.667615
0.667628
0.667642
0.667642
0.667655
0.667668
0.667682
0.667695
0.667695
0.667708
0.667722
0.667735
0.667748
0.667748
0.667762
0.667775
0.667788
0.667802
0.667802
0.667815
0.667829
0.667842
0.667855
0.667855
0.667869
0.667882
0.667896
0.667909
0.667909
0.667923
0.667936
0.66795
0.667963
0.667963
0.667977
0.66799
0.668004
0.668017
0.668017
0.668031
0.668044
0.668058
0.668071
0.668071
0.668085
0.668099
0.668112
0.668126
0.668126
0.668139
0.668153
0.668167
0.66818
0.66818
0.668194
0.668208
0.668221
0.668235
0.668235
0.668249
0.668262
0.668276
0.66829
0.66829
0.668303
0.668317
0.668331
0.668344
0.668344
0.668358
0.668372
0.668385
0.668399
0.668399
0.668413
0.668427
0.66844
0.668454
0.668454
0.668468
0.668482
0.668495
0.668509
0.668509
0.668523
0.668537
0.66855
0.668564
0.668564
0.668578
0.668592
0.668605
0.668619
0.668619
0.668633
0.668647
0.668661
0.668675
0.668675
0.668688
0.668702
0.668716
0.66873
0.66873
0.668744
0.668758
0.668772
0.668785
0.668785
0.668799
0.668813
0.668827
0.668841
0.668841
0.668855
0.668869
0.668883
0.668897
0.668897
0.668911
0.668925
0.668939
0.668953
0.668953
0.668967
0.668981
0.668995
0.669009
0.669009
0.669024
0.669038
0.669052
0.669066
0.669066
0.66908
0.669094
0.669108
0.669122
0.669122
0.669136
0.66915
0.669164
0.669179
0.669179
0.669193
0.669207
0.669221
0.669235
0.669235
0.669249
0.669263
0.669278
0.669292
0.669292
0.669306
0.66932
0.669334
0.669348
0.669348
0.669363
0.669377
0.669391
0.669405
0.669405
0.669419
0.669434
0.669448
0.669462
0.669462
0.669476
0.669491
0.669505
0.669519
0.669519
0.669533
0.669548
0.669562
0.669576
0.669576
0.669591
0.669605
0.669619
0.669633
0.669633
0.669648
0.669662
0.669677
0.669691
0.669691
0.669705
0.66972
0.669734
0.669749
0.669749
0.669763
0.669778
0.669792
0.669806
0.669806
0.669821
0.669835
0.66985
0.669864
0.669864
0.669879
0.669893
0.669908
0.669922
0.669922
0.669937
0.669951
0.669966
0.669981
0.669981
0.669995
0.67001
0.670024
0.670039
0.670039
0.670053
0.670068
0.670082
0.670097
0.670097
0.670112
0.670126
0.670141
0.670155
0.670155
0.67017
0.670185
0.670199
0.670214
0.670214
0.670228
0.670243
0.670258
0.670272
0.670272
0.670287
0.670302
0.670316
0.670331
0.670331
0.670346
0.67036
0.670375
0.67039
0.67039
0.670404
0.670419
0.670434
0.670449
0.670449
0.670463
0.670478
0.670493