<?xml version="1.0"?>
<VTKFile type="UnstructuredGrid" version="0.1" byte_order="LittleEndian">
<UnstructuredGrid>
<Piece NumberOfPoints="5000" NumberOfCells="4000">
<PointData Scalars="Reaction 0">
<DataArray type="Float32" Name="Reaction 0" format="ascii">
0.619322
0.619322
0.619322
0.619322
0.619322
0.619322
0.619322
0.619322
0.619322
0.619322
0.619322
0.619322
0.619322
0.619322
0.619322
0.619322
0.619322
0.619322
0.619322
0.619322
0.619322
0.619322
0.619322
0.619322
0.619322
0.619322
0.619322
0.619322
0.619322
0.619322
0.619322
0.619322
0.619322
0.619323
0.619323
0.619323
0.619323
0.619323
0.619323
0.619323
0.619323
0.619323
0.619323
0.619323
0.619323
0.619323
0.619323
0.619323
0.619324
0.619324
0.619324
0.619324
0.619324
0.619324
0.619324
0.619324
0.619324
0.619324
0.619325
0.619325
0.619325
0.619325
0.619325
0.619325
0.619325
0.619325
0.619325
0.619325
0.619326
0.619326
0.619326
0.619326
0.619326
0.619326
0.619326
0.619326
0.619327
0.619327
0.619327
0.619327
0.619327
0.619327
0.619327
0.619328
0.619328
0.619328
0.619328
0.619328
0.619328
0.619328
0.619328
0.619329
0.619329
0.619329
0.619329
0.619329
0.619329
0.61933
0.61933
0.61933
0.61933
0.61933
0.619331
0.619331
0.619331
0.619331
0.619331
0.619331
0.619332
0.619332
0.619332
0.619332
0.619332
0.619333
0.619333
0.619333
0.619333
0.619333
0.619334
0.619334
0.619334
0.619334
0.619334
0.619335
0.619335
0.619335
0.619335
0.619335
0.619336
0.619336
0.619336
0.619336
0.619336
0.619337
0.619337
0.619337
0.619337
0.619338
0.619338
0.619338
0.619338
0.619339
0.619339
0.619339
0.619339
0.619339
0.61934
0.61934
0.61934
0.619341
0.619341
0.619341
0.619341
0.619342
0.619342
0.619342
0.619342
0.619343
0.619343
0.619343
0.619343
0.619344
0.619344
0.619344
0.619345
0.619345
0.619345
0.619345
0.619346
0.619346
0.619346
0.619346
0.619347
0.619347
0.619348
0.619348
0.619348
0.619348
0.619349
0.619349
0.619349
0.619349
0.61935
0.61935
0.619351
0.619351
0.619351
0.619351
0.619352
0.619352
0.619352
0.619353
0.619353
0.619353
0.619354
0.619354
0.619354
0.619355
0.619355
0.619356
0.619356
0.619356
0.619356
0.619357
0.619357
0.619357
0.619358
0.619358
0.619359
0.619359
0.619359
0.619359
0.61936
0.61936
0.619361
0.619361
0.619361
0.619362
0.619362
0.619363
0.619363
0.619363
0.619364
0.619364
0.619365
0.619365
0.619365
0.619366
0.619366
0.619367
0.619367
0.619367
0.619367
0.619368
0.619368
0.619368
0.619369
0.619369
0.61937
0.619371
0.619371
0.619371
0.619372
0.619372
0.619373
0.619373
0.619373
0.619374
0.619374
0.619375
0.619375
0.619375
0.619376
0.619376
0.619377
0.619377
0.619377
0.619378
0.619378
0.619379
0.619379
0.61938
0.61938
0.619381
0.619381
0.619381
0.619382
0.619382
0.619383
0.619384
0.619384
0.619384
0.619385
0.619385
0.619386
0.619386
0.619386
0.619387
0.619388
0.619388
0.619388
0.619389
0.619389
0.61939
0.619391
0.619391
0.619391
0.619392
0.619392
0.619393
0.619393
0.619394
0.619394
0.619395
0.619395
0.619395
0.619396
0.619397
0.619397
0.619398
0.619398
0.619399
0.619399
0.6194
0.619401
0.619401
0.619401
0.619402
0.619403
0.619403
0.619403
0.619404
0.619405
0.619405
0.619406
0.619406
0.619407
0.619407
0.619408
0.619409
0.619409
0.619409
0.61941
0.619411
0.619411
0.619411
0.619412
0.619413
0.619413
0.619414
0.619414
0.619415
0.619415
0.619416
0.619417
0.619417
0.619418
0.619418
0.619419
0.61942
0.61942
0.61942
0.619421
0.619422
0.619423
0.619423
0.619423
0.619424
0.619425
0.619426
0.619426
0.619426
0.619427
0.619428
0.619429
0.619429
0.619429
0.61943
0.619431
0.619432
0.619432
0.619432
0.619433
0.619434
0.619435
0.619435
0.619436
0.619436
0.619437
0.619438
0.619438
0.619439
0.619439
0.61944
0.619441
0.619441
0.619442
0.619443
0.619443
0.619444
0.619444
0.619445
0.619446
0.619447
0.619447
0.619447
0.619448
0.619449
0.61945
0.619451
0.619451
0.619452
0.619452
0.619453
0.619454
0.619454
0.619455
0.619456
0.619457
0.619457
0.619457
0.619458
0.619459
0.61946
0.619461
0.619461
0.619462
0.619463
0.619463
0.619464
0.619464
0.619465
0.619466
0.619467
0.619468
0.619468
0.619469
0.61947
0.61947
0.619471
0.619471
0.619472
0.619473
0.619474
0.619475
0.619475
0.619476
0.619477
0.619478
0.619479
0.619479
0.61948
0.61948
0.619481
0.619482
0.619482
0.619483
0.619484
0.619485
0.619486
0.619486
0.619487
0.619488
0.619489
0.61949
0.61949
0.619491
0.619492
0.619493
0.619494
0.619494
0.619494
0.619495
0.619496
0.619497
0.619497
0.619498
0.619499
0.6195
0.619501
0.619501
0.619502
0.619503
0.619504
0.619505
0.619505
0.619506
0.619507
0.619508
0.619509
0.619509
0.61951
0.619511
0.619512
0.619513
0.619513
0.619514
0.619515
0.619516
0.619517
0.619517
0.619518
0.619519
0.61952
0.619521
0.619521
0.619522
0.619523
0.619524
0.619525
0.619525
0.619526
0.619527
0.619528
0.619529
0.619529
0.619531
0.619532
0.619533
0.619534
0.619534
0.619535
0.619536
0.619537
0.619538
0.619538
0.619539
0.61954
0.619541
0.619542
0.619542
0.619543
0.619545
0.619546
0.619547
0.619547
0.619548
0.619549
0.61955
0.619551
0.619551
0.619552
0.619553
0.619554
0.619556
0.619556
0.619557
0.619558
0.619559
0.61956
0.61956
0.619561
0.619562
0.619563
0.619565
0.619565
0.619566
0.619567
0.619568
0.619569
0.619569
0.61957
0.619571
0.619573
0.619574
0.619574
0.619575
0.619576
0.619577
0.619578
0.619578
0.619579
0.619581
0.619582
0.619583
0.619583
0.619584
0.619585
0.619587
0.619588
0.619588
0.619589
0.61959
0.619591
0.619592
0.619592
0.619594
0.619595
0.619596
0.619597
0.619597
0.619598
0.6196
0.619601
0.619602
0.619602
0.619603
0.619605
0.619606
0.619607
0.619607
0.619608
0.619609
0.619611
0.619612
0.619612
0.619613
0.619614
0.619616
0.619617
0.619617
0.619618
0.619619
0.619621
0.619622
0.619622
0.619623
0.619624
0.619626
0.619627
0.619627
0.619628
0.61963
0.619631
0.619632
0.619632
0.619633
0.619635
0.619636
0.619637
0.619637
0.619639
0.61964
0.619641
0.619642
0.619642
0.619644
0.619645
0.619646
0.619648
0.619648
0.619649
0.61965
0.619652
0.619653
0.619653
0.619654
0.619656
0.619657
0.619658
0.619658
0.61966
0.619661
0.619662
0.619664
0.619664
0.619665
0.619666
0.619668
0.619669
0.619669
0.61967
0.619672
0.619673
0.619674
0.619674
0.619676
0.619677
0.619679
0.61968
0.61968
0.619681
0.619683
0.619684
0.619685
0.619685
0.619687
0.619688
0.61969
0.619691
0.619691
0.619692
0.619694
0.619695
0.619697
0.619697
0.619698
0.619699
0.619701
0.619702
0.619702
0.619704
0.619705
0.619707
0.619708
0.619708
0.619709
0.619711
0.619712
0.619714
0.619714
0.619715
0.619717
0.619718
0.619719
0.619719
0.619721
0.619722
0.619724
0.619725
0.619725
0.619727
0.619728
0.61973
0.619731
0.619731
0.619733
0.619734
0.619736
0.619737
0.619737
0.619739
0.61974
0.619741
0.619743
0.619743
0.619744
0.619746
0.619747
0.619749
0.619749
0.61975
0.619752
0.619753
0.619755
0.619755
0.619757
0.619758
0.61976
0.619761
0.619761
0.619763
0.619764
0.619766
0.619767
0.619767
0.619769
0.61977
0.619772
0.619773
0.619773
0.619775
0.619776
0.619778
0.61978
0.61978
0.619781
0.619783
0.619784
0.619786
0.619786
0.619787
0.619789
0.61979
0.619792
0.619792
0.619794
0.619795
0.619797
0.619798
0.619798
0.6198
0.619802
0.619803
0.619805
0.619805
0.619806
0.619808
0.61981
0.619811
0.619811
0.619813
0.619814
0.619816
0.619818
0.619818
0.619819
0.619821
0.619822
0.619824
0.619824
0.619826
0.619827
0.619829
0.619831
0.619831
0.619832
0.619834
0.619836
0.619837
0.619837
0.619839
0.61984
0.619842
0.619844
0.619844
0.619845
0.619847
0.619849
0.61985
0.61985
0.619852
0.619854
0.619855
0.619857
0.619857
0.619859
0.61986
0.619862
0.619864
0.619864
0.619866
0.619867
0.619869
0.619871
0.619871
0.619872
0.619874
0.619876
0.619877
0.619877
0.619879
0.619881
0.619883
0.619884
0.619884
0.619886
0.619888
0.619889
0.619891
0.619891
0.619893
0.619895
0.619896
0.619898
0.619898
0.6199
0.619902
0.619903
0.619905
0.619905
0.619907
0.619909
0.61991
0.619912
0.619912
0.619914
0.619916
0.619917
0.619919
0.619919
0.619921
0.619923
0.619925
0.619926
0.619926
0.619928
0.61993
0.619932
0.619934
0.619934
0.619935
0.619937
0.619939
0.619941
0.619941
0.619943
0.619944
0.619946
0.619948
0.619948
0.61995
0.619952
0.619953
0.619955
0.619955
0.619957
0.619959
0.619961
0.619963
0.619963
0.619964
0.619966
0.619968
0.61997
0.61997
0.619972
0.619974
0.619976
0.619977
0.619977
0.619979
0.619981
0.619983
0.619985
0.619985
0.619987
0.619989
0.61999
0.619992
0.619992
0.619994
0.619996
0.619998
0.62
0.62
0.620002
0.620004
0.620006
0.620007
0.620007
0.620009
0.620011
0.620013
0.620015
0.620015
0.620017
0.620019
0.620021
0.620023
0.620023
0.620025
0.620027
0.620028
0.62003
0.62003
0.620032
0.620034
0.620036
0.620038
0.620038
0.62004
0.620042
0.620044
0.620046
0.620046
0.620048
0.62005
0.620052
0.620054
0.620054
0.620056
0.620058
0.62006
0.620062
0.620062
0.620064
0.620066
0.620068
0.62007
0.62007
0.620071
0.620073
0.620075
0.620077
0.620077
0.620079
0.620081
0.620083
0.620085
0.620085
0.620087
0.620089
0.620091
0.620093
0.620093
0.620095
0.620098
0.6201
0.620102
0.620102
0.620104
0.620106
0.620108
0.62011
0.62011
0.620112
0.620114
0.620116
0.620118
0.620118
0.62012
0.620122
0.620124
0.620126
0.620126
0.620128
0.62013
0.620132
0.620134
0.620134
0.620136
0.620138
0.62014
0.620143
0.620143
0.620145
0.620147
0.620149
0.620151
0.620151
0.620153
0.620155
0.620157
0.620159
0.620159
0.620161
0.620163
0.620166
0.620168
0.620168
0.62017
0.620172
0.620174
0.620176
0.620176
0.620178
0.62018
0.620182
0.620185
0.620185
0.620187
0.620189
0.620191
0.620193
0.620193
0.620195
0.620197
0.6202
0.620202
0.620202
0.620204
0.620206
0.620208
0.62021
0.62021
0.620212
0.620215
0.620217
0.620219
0.620219
0.620221
0.620223
0.620225
0.620228
0.620228
0.62023
0.620232
0.620234
0.620236
0.620236
0.620238
0.620241
0.620243
0.620245
0.620245
0.620247
0.620249
0.620252
0.620254
0.620254
0.620256
0.620258
0.62026
0.620263
0.620263
0.620265
0.620267
0.620269
0.620271
0.620271
0.620274
0.620276
0.620278
0.62028
0.62028
0.620283
0.620285
0.620287
0.62029
0.62029
0.620292
0.620294
0.620296
0.620299
0.620299
0.620301
0.620303
0.620305
0.620308
0.620308
0.62031
0.620312
0.620315
0.620317
0.620317
0.620319
0.620321
0.620324
0.620326
0.620326
0.620328
0.620331
0.620333
0.620335
0.620335
0.620337
0.62034
0.620342
0.620344
0.620344
0.620347
0.620349
0.620351
0.620354
0.620354
0.620356
0.620358
0.620361
0.620363
0.620363
0.620365
0.620368
0.62037
0.620372
0.620372
0.620375
0.620377
0.620379
0.620382
0.620382
0.620384
0.620386
0.620389
0.620391
0.620391
0.620394
0.620396
0.620398
0.620401
0.620401
0.620403
0.620405
0.620408
0.62041
0.62041
0.620413
0.620415
0.620417
0.62042
0.62042
0.620422
0.620425
0.620427
0.620429
0.620429
0.620432
0.620434
0.620437
0.620439
0.620439
0.620441
0.620444
0.620446
0.620449
0.620449
0.620451
0.620454
0.620456
0.620458
0.620458
0.620461
0.620463
0.620466
0.620468
0.620468
0.620471
0.620473
0.620476
0.620478
0.620478
0.62048
0.620483
0.620485
0.620488
0.620488
0.62049
0.620493
0.620495
0.620498
0.620498
0.6205
0.620503
0.620505
0.620508
0.620508
0.62051
0.620513
0.620515
0.620518
0.620518
0.62052
0.620523
0.620525
0.620528
0.620528
0.62053
0.620533
0.620535
0.620538
0.620538
0.62054
0.620543
0.620545
0.620548
0.620548
0.62055
0.620553
0.620555
0.620558
0.620558
0.62056
0.620563
0.620566
0.620568
0.620568
0.620571
0.620573
0.620576
0.620578
0.620578
0.620581
0.620583
0.620586
0.620589
0.620589
0.620591
0.620594
0.620596
0.620599
0.620599
0.620601
0.620604
0.620607
0.620609
0.620609
0.620612
0.620614
0.620617
0.620619
0.620619
0.620622
0.620625
0.620627
0.62063
0.62063
0.620632
0.620635
0.620638
0.62064
0.62064
0.620643
0.620645
0.620648
0.620651
0.620651
0.620653
0.620656
0.620659
0.620661
0.620661
0.620664
0.620667
0.620669
0.620672
0.620672
0.620675
0.620677
0.62068
0.620683
0.620683
0.620685
0.620688
0.620691
0.620693
0.620693
0.620696
0.620699
0.620701
0.620704
0.620704
0.620707
0.62071
0.620712
0.620715
0.620715
0.620718
0.62072
0.620723
0.620726
0.620726
0.620728
0.620731
0.620734
0.620737
0.620737
0.620739
0.620742
0.620745
0.620747
0.620747
0.62075
0.620753
0.620756
0.620758
0.620758
0.620761
0.620764
0.620767
0.620769
0.620769
0.620772
0.620775
0.620778
0.62078
0.62078
0.620783
0.620786
0.620789
0.620791
0.620791
0.620794
0.620797
0.6208
0.620802
0.620802
0.620805
0.620808
0.620811
0.620814
0.620814
0.620816
0.620819
0.620822
0.620825
0.620825
0.620827
0.62083
0.620833
0.620836
0.620836
0.620839
0.620841
0.620844
0.620847
0.620847
0.62085
0.620853
0.620856
0.620858
0.620858
0.620861
0.620864
0.620867
0.62087
0.62087
0.620873
0.620875
0.620878
0.620881
0.620881
0.620884
0.620887
0.62089
0.620892
0.620892
0.620895
0.620898
0.620901
0.620904
0.620904
0.620907
0.62091
0.620913
0.620915
0.620915
0.620918
0.620921
0.620924
0.620927
0.620927
0.62093
0.620933
0.620936
0.620939
0.620939
0.620941
0.620944
0.620947
0.62095
0.62095
0.620953
0.620956
0.620959
0.620962
0.620962
0.620965
0.620968
0.62097
0.620973
0.620973
0.620976
0.620979
0.620982
0.620985
0.620985
0.620988
0.620991
0.620994
0.620997
0.620997
0.621
0.621003
0.621006
0.621009
0.621009
0.621012
0.621014
0.621017
0.62102
0.62102
0.621023
0.621026
0.621029
0.621032
0.621032
0.621035
0.621038
0.621041
0.621044
0.621044
0.621047
0.62105
0.621053
0.621056
0.621056
0.621059
0.621062
0.621065
0.621068
0.621068
0.621071
0.621074
0.621077
0.62108
0.62108
0.621083
0.621086
0.62109
0.621093
0.621093
0.621096
0.621099
0.621102
0.621105
0.621105
0.621108
0.621111
0.621114
0.621117
0.621117
0.62112
0.621123
0.621126
0.621129
0.621129
0.621132
0.621135
0.621138
0.621141
0.621141
0.621144
0.621148
0.621151
0.621154
0.621154
0.621157
0.62116
0.621163
0.621166
0.621166
0.621169
0.621172
0.621175
0.621178
0.621178
0.621181
0.621185
0.621188
0.621191
0.621191
0.621194
0.621197
0.6212
0.621203
0.621203
0.621206
0.621209
0.621213
0.621216
0.621216
0.621219
0.621222
0.621225
0.621228
0.621228
0.621231
0.621235
0.621238
0.621241
0.621241
0.621244
0.621247
0.62125
0.621253
0.621253
0.621257
0.62126
0.621263
0.621266
0.621266
0.621269
0.621273
0.621276
0.621279
0.621279
0.621282
0.621285
0.621288
0.621292
0.621292
0.621295
0.621298
0.621301
0.621304
0.621304
0.621308
0.621311
0.621314
0.621317
0.621317
0.62132
0.621324
0.621327
0.62133
0.62133
0.621333
0.621336
0.62134
0.621343
0.621343
0.621346
0.621349
0.621353
0.621356
0.621356
0.621359
0.621362
0.621366
0.621369
0.621369
0.621372
0.621375
0.621379
0.621382
0.621382
0.621385
0.621388
0.621392
0.621395
0.621395
0.621398
0.621401
0.621405
0.621408
0.621408
0.621411
0.621414
0.621418
0.621421
0.621421
0.621424
0.621427
0.621431
0.621434
0.621434
0.621437
0.621441
0.621444
0.621447
0.621447
0.621451
0.621454
0.621457
0.621461
0.621461
0.621464
0.621467
0.621471
0.621474
0.621474
0.621477
0.621481
0.621484
0.621488
0.621488
0.621491
0.621494
0.621498
0.621501
0.621501
0.621504
0.621508
0.621511
0.621514
0.621514
0.621518
0.621521
0.621524
0.621528
0.621528
0.621531
0.621535
0.621538
0.621541
0.621541
0.621545
0.621548
0.621552
0.621555
0.621555
0.621558
0.621562
0.621565
0.621568
0.621568
0.621572
0.621575
0.621579
0.621582
0.621582
0.621586
0.621589
0.621592
0.621596
0.621596
0.621599
0.621603
0.621606
0.621609
0.621609
0.621613
0.621616
0.62162
0.621623
0.621623
0.621627
0.62163
0.621634
0.621637
0.621637
0.62164
0.621644
0.621647
0.621651
0.621651
0.621654
0.621658
0.621661
0.621665
0.621665
0.621668
0.621672
0.621675
0.621679
0.621679
0.621682
0.621686
0.621689
0.621693
0.621693
0.621696
0.6217
0.621703
0.621707
0.621707
0.62171
0.621714
0.621717
0.621721
0.621721
0.621724
0.621728
0.621731
0.621735
0.621735
0.621738
0.621742
0.621745
0.621749
0.621749
0.621752
0.621756
0.621759
0.621763
0.621763
0.621766
0.62177
0.621773
0.621777
0.621777
0.62178
0.621784
0.621787
0.621791
0.621791
0.621795
0.621798
0.621802
0.621805
0.621805
0.621809
0.621812
0.621816
0.62182
0.62182
0.621823
0.621827
0.62183
0.621834
0.621834
0.621838
0.621841
0.621845
0.621848
0.621848
0.621852
0.621856
0.621859
0.621863
0.621863
0.621867
0.62187
0.621874
0.621877
0.621877
0.621881
0.621885
0.621888
0.621892
0.621892
0.621896
0.621899
0.621903
0.621907
0.621907
0.62191
0.621914
0.621918
0.621921
0.621921
0.621925
0.621928
0.621932
0.621936
0.621936
0.621939
0.621943
0.621947
0.62195
0.62195
0.621954
0.621958
0.621961
0.621965
0.621965
0.621969
0.621973
0.621976
0.62198
0.62198
0.621984
0.621987
0.621991
0.621995
0.621995
0.621998
0.622002
0.622006
0.62201
0.62201
0.622013
0.622017
0.622021
0.622024
0.622024
0.622028
0.622032
0.622036
0.622039
0.622039
0.622043
0.622047
0.622051
0.622054
0.622054
0.622058
0.622062
0.622065
0.622069
0.622069
0.622073
0.622077
0.62208
0.622084
0.622084
0.622088
0.622092
0.622096
0.622099
0.622099
0.622103
0.622107
0.622111
0.622114
0.622114
0.622118
0.622122
0.622126
0.62213
0.62213
0.622133
0.622137
0.622141
0.622145
0.622145
0.622148
0.622152
0.622156
0.62216
0.62216
0.622164
0.622167
0.622171
0.622175
0.622175
0.622179
0.622183
0.622186
0.62219
0.62219
0.622194
0.622198
0.622202
0.622205
0.622205
0.622209
0.622213
0.622217
0.622221
0.622221
0.622225
0.622229
0.622233
0.622236
0.622236
0.62224
0.622244
0.622248
0.622252
0.622252
0.622256
0.62226
0.622264
0.622268
0.622268
0.622271
0.622275
0.622279
0.622283
0.622283
0.622287
0.622291
0.622295
0.622299
0.622299
0.622303
0.622307
0.62231
0.622314
0.622314
0.622318
0.622322
0.622326
0.62233
0.62233
0.622334
0.622338
0.622342
0.622346
0.622346
0.62235
0.622354
0.622358
0.622362
0.622362
0.622365
0.622369
0.622373
0.622377
0.622377
0.622381
0.622385
0.622389
0.622393
0.622393
0.622397
0.622401
0.622405
0.622409
0.622409
0.622413
0.622417
0.622421
0.622425
0.622425
0.622429
0.622433
0.622437
0.622441
0.622441
0.622445
0.622449
0.622453
0.622457
0.622457
0.622461
0.622465
0.622469
0.622473
0.622473
0.622477
0.622481
0.622485
0.622489
0.622489
0.622493
0.622497
0.622501
0.622505
0.622505
0.622509
0.622513
0.622517
0.622521
0.622521
0.622525
0.622529
0.622533
0.622537
0.622537
0.622541
0.622545
0.622549
0.622553
0.622553
0.622557
0.622561
0.622565
0.622569
0.622569
0.622573
0.622577
0.622582
0.622586
0.622586
0.62259
0.622594
0.622598
0.622602
0.622602
0.622606
0.62261
0.622614
0.622618
0.622618
0.622623
0.622627
0.622631
0.622635
0.622635
0.622639
0.622643
0.622647
0.622651
0.622651
0.622656
0.62266
0.622664
0.622668
0.622668
0.622672
0.622676
0.62268
0.622685
0.622685
0.622689
0.622693
0.622697
0.622701
0.622701
0.622705
0.622709
0.622714
0.622718
0.622718
0.622722
0.622726
0.62273
0.622734
0.622734
0.622739
0.622743
0.622747
0.622751
0.622751
0.622755
0.622759
0.622764
0.622768
0.622768
0.622772
0.622776
0.62278
0.622785
0.622785
0.622789
0.622793
0.622797
0.622801
0.622801
0.622806
0.62281
0.622814
0.622818
0.622818
0.622822
0.622827
0.622831
0.622835
0.622835
0.622839
0.622844
0.622848
0.622852
0.622852
0.622856
0.622861
0.622865
0.622869
0.622869
0.622873
0.622878
0.622882
0.622886
0.622886
0.62289
0.622895
0.622899
0.622903
0.622903
0.622907
0.622912
0.622916
0.62292
0.62292
0.622924
0.622929
0.622933
0.622937
0.622937
0.622941
0.622946
0.62295
0.622954
0.622954
0.622958
0.622963
0.622967
0.622971
0.622971
0.622976
0.62298
0.622984
0.622988
0.622988
0.622993
0.622997
0.623001
0.623006
0.623006
0.62301
0.623015
0.623019
0.623023
0.623023
0.623028
0.623032
0.623036
0.623041
0.623041
0.623045
0.623049
0.623054
0.623058
0.623058
0.623063
0.623067
0.623071
0.623076
0.623076
0.62308
0.623084
0.623089
0.623093
0.623093
0.623097
0.623102
0.623106
0.623111
0.623111
0.623115
0.623119
0.623124
0.623128
0.623128
0.623133
0.623137
0.623141
0.623146
0.623146
0.62315
0.623155
0.623159
0.623163
0.623163
0.623168
0.623172
0.623177
0.623181
0.623181
0.623186
0.62319
0.623194
0.623199
0.623199
0.623203
0.623208
0.623212
0.623217
0.623217
0.623221
0.623225
0.62323
0.623234
0.623234
0.623239
0.623243
0.623248
0.623252
0.623252
0.623257
0.623261
0.623266
0.62327
0.62327
0.623274
0.623279
0.623283
0.623288
0.623288
0.623292
0.623297
0.623301
0.623306
0.623306
0.62331
0.623315
0.623319
0.623324
0.623324
0.623328
0.623333
0.623337
0.623342
0.623342
0.623346
0.623351
0.623355
0.62336
0.62336
0.623364
0.623369
0.623373
0.623378
0.623378
0.623382
0.623387
0.623391
0.623396
0.623396
0.6234
0.623405
0.62341
0.623414
0.623414
0.623419
0.623423
0.623428
0.623432
0.623432
0.623437
0.623442
0.623446
0.623451
0.623451
0.623455
0.62346
0.623465
0.623469
0.623469
0.623474
0.623478
0.623483
0.623487
0.623487
0.623492
0.623497
0.623501
0.623506
0.623506
0.62351
0.623515
0.62352
0.623524
0.623524
0.623529
0.623534
0.623538
0.623543
0.623543
0.623547
0.623552
0.623557
0.623561
0.623561
0.623566
0.623571
0.623575
0.62358
0.62358
0.623584
0.623589
0.623594
0.623598
0.623598
0.623603
0.623608
0.623612
0.623617
0.623617
0.623622
0.623626
0.623631
0.623636
0.623636
0.62364
0.623645
0.62365
0.623654
0.623654
0.623659
0.623664
0.623668
0.623673
0.623673
0.623678
0.623682
0.623687
0.623692
0.623692
0.623696
0.623701
0.623706
0.62371
0.62371
0.623715
0.62372
0.623725
0.623729
0.623729
0.623734
0.623739
0.623743
0.623748
0.623748
0.623753
0.623757
0.623762
0.623767
0.623767
0.623772
0.623776
0.623781
0.623786
0.623786
0.623791
0.623795
0.6238
0.623805
0.623805
0.62381
0.623814
0.623819
0.623824
0.623824
0.623829
0.623834
0.623838
0.623843
0.623843
0.623848
0.623853
0.623858
0.623862
0.623862
0.623867
0.623872
0.623877
0.623882
0.623882
0.623886
0.623891
0.623896
0.623901
0.623901
0.623906
0.62391
0.623915
0.62392
0.62392
0.623925
0.62393
0.623935
0.623939
0.623939
0.623944
0.623949
0.623954
0.623959
0.623959
0.623964
0.623968
0.623973
0.623978
0.623978
0.623983
0.623988
0.623993
0.623997
0.623997
0.624002
0.624007
0.624012
0.624017
0.624017
0.624022
0.624027
0.624031
0.624036
0.624036
0.624041
0.624046
0.624051
0.624056
0.624056
0.624061
0.624066
0.62407
0.624075
0.624075
0.62408
0.624085
0.62409
0.624095
0.624095
0.6241
0.624105
0.62411
0.624114
0.624114
0.624119
0.624124
0.624129
0.624134
0.624134
0.624139
0.624144
0.624149
0.624154
0.624154
0.624158
0.624163
0.624168
0.624173
0.624173
0.624178
0.624183
0.624188
0.624193
0.624193
0.624198
0.624203
0.624208
0.624213
0.624213
0.624218
0.624223
0.624228
0.624233
0.624233
0.624238
0.624243
0.624248
0.624253
0.624253
0.624258
0.624263
0.624268
0.624273
0.624273
0.624278
0.624283
0.624288
0.624293
0.624293
0.624298
0.624303
0.624308
0.624313
0.624313
0.624318
0.624323
0.624328
0.624333
0.624333
0.624338
0.624343
0.624348
0.624353
0.624353
0.624358
0.624363
0.624368
0.624373
0.624373
0.624378
0.624383
0.624389
0.624394
0.624394
0.624399
0.624404
0.624409
0.624414
0.624414
0.624419
0.624424
0.624429
0.624434
0.624434
0.624439
0.624444
0.624449
0.624454
0.624454
0.624459
0.624464
0.62447
0.624475
0.624475
0.62448
0.624485
0.62449
0.624495
0.624495
0.6245
0.624505
0.62451
0.624515
0.624515
0.62452
0.624525
0.62453
0.624536
0.624536
0.624541
0.624546
0.624551
0.624556
0.624556
0.624561
0.624566
0.624571
0.624576
0.624576
0.624582
0.624587
0.624592
0.624597
0.624597
0.624602
0.624607
0.624613
0.624618
0.624618
0.624623
0.624628
0.624633
0.624639
0.624639
0.624644
0.624649
0.624654
0.624659
0.624659
0.624665
0.62467
0.624675
0.62468
0.62468
0.624685
0.624691
0.624696
0.624701
0.624701
0.624706
0.624711
0.624717
0.624722
0.624722
0.624727
0.624732
0.624737
0.624743
0.624743
0.624748
0.624753
0.624758
0.624763
0.624763
0.624769
0.624774
0.624779
0.624784
0.624784
0.62479
0.624795
0.6248
0.624805
0.624805
0.624811
0.624816
0.624821
0.624826
0.624826
0.624832
0.624837
0.624842
0.624847
0.624847
0.624853
0.624858
0.624863
0.624868
0.624868
0.624874
0.624879
0.624884
0.624889
0.624889
0.624895
0.6249
0.624905
0.624911
0.624911
0.624916
0.624921
0.624926
0.624932
0.624932
0.624937
0.624942
0.624947
0.624953
0.624953
0.624958
0.624963
0.624969
0.624974
0.624974
0.624979
0.624985
0.62499
0.624995
0.624995
0.625001
0.625006
0.625012
0.625017
0.625017
0.625022
0.625028
0.625033
0.625038
0.625038
0.625044
0.625049
0.625055
0.62506
0.62506
0.625065
0.625071
0.625076
0.625081
0.625081
0.625087
0.625092
0.625098
0.625103
0.625103
0.625108
0.625114
0.625119
0.625125
0.625125
0.62513
0.625135
0.625141
0.625146
0.625146
0.625152
0.625157
0.625162
0.625168
0.625168
0.625173
0.625179
0.625184
0.625189
0.625189
0.625195
0.6252
0.625206
0.625211
0.625211
0.625217
0.625222
0.625227
0.625233
0.625233
0.625238
0.625244
0.625249
0.625255
0.625255
0.62526
0.625266
0.625271
0.625276
0.625276
0.625282
0.625287
0.625293
0.625298
0.625298
0.625304
0.625309
0.625315
0.62532
0.62532
0.625325
0.625331
0.625336
0.625342
0.625342
0.625347
0.625353
0.625358
0.625364
0.625364
0.625369
0.625375
0.62538
0.625386
0.625386
0.625391
0.625397
0.625402
0.625408
0.625408
0.625414
0.625419
0.625425
0.62543
0.62543
0.625436
0.625441
0.625447
0.625452
0.625452
0.625458
0.625464
0.625469
0.625475
0.625475
0.62548
0.625486
0.625491
0.625497
0.625497
0.625503
0.625508
0.625514
0.625519
0.625519
0.625525
0.62553
0.625536
0.625542
0.625542
0.625547
0.625553
0.625558
0.625564
0.625564
0.625569
0.625575
0.625581
0.625586
0.625586
0.625592
0.625597
0.625603
0.625609
0.625609
0.625614
0.62562
0.625626
0.625631
0.625631
0.625637
0.625642
0.625648
0.625654
0.625654
0.625659
0.625665
0.62567
0.625676
0.625676
0.625682
0.625687
0.625693
0.625699
0.625699
0.625704
0.62571
0.625715
0.625721
0.625721
0.625727
0.625732
0.625738
0.625744
0.625744
0.625749
0.625755
0.625761
0.625766
0.625766
0.625772
0.625778
0.625783
0.625789
0.625789
0.625795
0.625801
0.625806
0.625812
0.625812
0.625818
0.625823
0.625829
0.625835
0.625835
0.625841
0.625846
0.625852
0.625858
0.625858
0.625864
0.625869
0.625875
0.625881
0.625881
0.625887
0.625892
0.625898
0.625904
0.625904
0.62591
0.625915
0.625921
0.625927
0.625927
0.625933
0.625938
0.625944
0.62595
0.62595
0.625956
0.625961
0.625967
0.625973
0.625973
0.625979
0.625984
0.62599
0.625996
0.625996
0.626002
0.626008
0.626013
0.626019
0.626019
0.626025
0.626031
0.626036
0.626042
0.626042
0.626048
0.626054
0.62606
0.626065
0.626065
0.626071
0.626077
0.626083
0.626089
0.626089
0.626094
0.6261
0.626106
0.626112
0.626112
0.626118
0.626123
0.626129
0.626135
0.626135
0.626141
0.626147
0.626152
0.626158
0.626158
0.626164
0.62617
0.626176
0.626182
0.626182
0.626188
0.626194
0.626199
0.626205
0.626205
0.626211
0.626217
0.626223
0.626229
0.626229
0.626235
0.626241
0.626247
0.626253
0.626253
0.626259
0.626264
0.62627
0.626276
0.626276
0.626282
0.626288
0.626294
0.6263
0.6263
0.626306
0.626312
0.626318
0.626324
0.626324
0.626329
0.626335
0.626341
0.626347
0.626347
0.626353
0.626359
0.626365
0.626371
0.626371
0.626377
0.626383
0.626389
0.626395
0.626395
0.626401
0.626407
0.626413
0.626419
0.626419
0.626425
0.626431
0.626436
0.626442
0.626442
0.626448
0.626454
0.62646
0.626466
0.626466
0.626472
0.626478
0.626484
0.62649
0.62649
0.626496
0.626502
0.626508
0.626514
0.626514
0.62652
0.626526
0.626532
0.626538
0.626538
0.626544
0.62655
0.626556
0.626562
0.626562
0.626568
0.626574
0.62658
0.626586
0.626586
0.626592
0.626598
0.626604
0.62661
0.62661
0.626616
0.626623
0.626629
0.626635
0.626635
0.626641
0.626647
0.626653
0.626659
0.626659
0.626665
0.626671
0.626677
0.626683
0.626683
0.626689
0.626695
0.626702
0.626708
0.626708
0.626714
0.62672
0.626726
0.626732
0.626732
0.626738
0.626744
0.62675
0.626756
0.626756
0.626762
0.626769
0.626775
0.626781
0.626781
0.626787
0.626793
0.626799
0.626805
0.626805
0.626811
0.626818
0.626824
0.62683
0.62683
0.626836
0.626842
0.626848
0.626854
0.626854
0.62686
0.626866
0.626873
0.626879
0.626879
0.626885
0.626891
0.626897
0.626903
0.626903
0.626909
0.626916
0.626922
0.626928
0.626928
0.626934
0.62694
0.626946
0.626952
0.626952
0.626959
0.626965
0.626971
0.626977
0.626977
0.626983
0.62699
0.626996
0.627002
0.627002
0.627008
0.627015
0.627021
0.627027
0.627027
0.627033
0.62704
0.627046
0.627052
0.627052
0.627058
0.627065
0.627071
0.627077
0.627077
0.627083
0.62709
0.627096
0.627102
0.627102
0.627108
0.627115
0.627121
0.627127
0.627127
0.627133
0.62714
0.627146
0.627152
0.627152
0.627158
0.627165
0.627171
0.627177
0.627177
0.627184
0.62719
0.627196
0.627202
0.627202
0.627209
0.627215
0.627221
0.627227
0.627227
0.627234
0.62724
0.627246
0.627253
0.627253
0.627259
0.627265
0.627272
0.627278
0.627278
0.627284
0.62729
0.627297
0.627303
0.627303
0.627309
0.627316
0.627322
0.627328
0.627328
0.627334
0.627341
0.627347
0.627353
0.627353
0.62736
0.627366
0.627373
0.627379
0.627379
0.627385
0.627392
0.627398
0.627405
0.627405
0.627411
0.627417
0.627424
0.62743
0.62743
0.627437
0.627443
0.627449
0.627456
0.627456
0.627462
0.627469
0.627475
0.627481
0.627481
0.627488
0.627494
0.627501
0.627507
0.627507
0.627514
0.62752
0.627526
0.627533
0.627533
0.627539
0.627546
0.627552
0.627558
0.627558
0.627565
0.627571
0.627578
0.627584
0.627584
0.627591
0.627597
0.627604
0.62761
0.62761
0.627616
0.627623
0.627629
0.627636
0.627636
0.627642
0.627649
0.627655
0.627662
0.627662
0.627668
0.627674
0.627681
0.627687
0.627687
0.627694
0.6277
0.627707
0.627713
0.627713
0.62772
0.627726
0.627733
0.627739
0.627739
0.627746
0.627752
0.627759
0.627765
0.627765
0.627772
0.627778
0.627785
0.627791
0.627791
0.627798
0.627804
0.627811
0.627818
0.627818
0.627824
0.627831
0.627837
0.627844
0.627844
0.62785
0.627857
0.627864
0.62787
0.62787
0.627877
0.627883
0.62789
0.627896
0.627896
0.627903
0.62791
0.627916
0.627923
0.627923
0.627929
0.627936
0.627943
0.627949
0.627949
0.627956
0.627962
0.627969
0.627975
0.627975
0.627982
0.627989
0.627995
0.628002
0.628002
0.628008
0.628015
0.628022
0.628028
0.628028
0.628035
0.628042
0.628048
0.628055
0.628055
0.628061
0.628068
0.628075
0.628081
0.628081
0.628088
0.628094
0.628101
0.628108
0.628108
0.628114
0.628121
0.628127
0.628134
0.628134
0.628141
0.628147
0.628154
0.628161
0.628161
0.628168
0.628174
0.628181
0.628188
0.628188
0.628194
0.628201
0.628208
0.628215
0.628215
0.628221
0.628228
0.628235
0.628242
0.628242
0.628248
0.628255
0.628262
0.628268
0.628268
0.628275
0.628282
0.628289
0.628295
0.628295
0.628302
0.628309
0.628316
0.628322
0.628322
0.628329
0.628336
0.628343
0.628349
0.628349
0.628356
0.628363
0.62837
0.628376
0.628376
0.628383
0.62839
0.628397
0.628403
0.628403
0.62841
0.628417
0.628424
0.62843
0.62843
0.628437
0.628444
0.628451
0.628457
0.628457
0.628464
0.628471
0.628478
0.628485
0.628485
0.628491
0.628498
0.628505
0.628512
0.628512