<?xml version="1.0"?>
<VTKFile type="UnstructuredGrid" version="0.1" byte_order="LittleEndian">
<UnstructuredGrid>
<Piece NumberOfPoints="5000" NumberOfCells="4000">
<PointData Scalars="Reaction 0">
<DataArray type="Float32" Name="Reaction 0" format="ascii">
0.947152
0.947152
0.947152
0.947152
0.947152
0.947152
0.947152
0.947152
0.947152
0.947152
0.947152
0.947152
0.947152
0.947152
0.947152
0.947152
0.947152
0.947152
0.947152
0.947152
0.947152
0.947152
0.947152
0.947152
0.947152
0.947152
0.947152
0.947152
0.947152
0.947152
0.947152
0.947152
0.947152
0.947152
0.947152
0.947152
0.947152
0.947152
0.947152
0.947152
0.947152
0.947152
0.947152
0.947152
0.947152
0.947152
0.947153
0.947153
0.947153
0.947153
0.947153
0.947153
0.947153
0.947153
0.947153
0.947153
0.947153
0.947153
0.947153
0.947153
0.947153
0.947153
0.947153
0.947153
0.947153
0.947153
0.947153
0.947153
0.947153
0.947153
0.947153
0.947153
0.947153
0.947153
0.947153
0.947153
0.947153
0.947154
0.947154
0.947154
0.947154
0.947154
0.947154
0.947154
0.947154
0.947154
0.947154
0.947154
0.947154
0.947154
0.947154
0.947154
0.947154
0.947154
0.947154
0.947154
0.947154
0.947154
0.947155
0.947155
0.947155
0.947155
0.947155
0.947155
0.947155
0.947155
0.947155
0.947155
0.947155
0.947155
0.947155
0.947155
0.947155
0.947155
0.947155
0.947155
0.947156
0.947156
0.947156
0.947156
0.947156
0.947156
0.947156
0.947156
0.947156
0.947156
0.947156
0.947156
0.947156
0.947156
0.947156
0.947157
0.947157
0.947157
0.947157
0.947157
0.947157
0.947157
0.947157
0.947157
0.947157
0.947157
0.947157
0.947157
0.947158
0.947158
0.947158
0.947158
0.947158
0.947158
0.947158
0.947158
0.947158
0.947158
0.947158
0.947158
0.947158
0.947159
0.947159
0.947159
0.947159
0.947159
0.947159
0.947159
0.947159
0.947159
0.947159
0.947159
0.94716
0.94716
0.94716
0.94716
0.94716
0.94716
0.94716
0.94716
0.94716
0.94716
0.94716
0.947161
0.947161
0.947161
0.947161
0.947161
0.947161
0.947161
0.947161
0.947161
0.947161
0.947162
0.947162
0.947162
0.947162
0.947162
0.947162
0.947162
0.947162
0.947162
0.947162
0.947163
0.947163
0.947163
0.947163
0.947163
0.947163
0.947163
0.947163
0.947163
0.947164
0.947164
0.947164
0.947164
0.947164
0.947164
0.947164
0.947164
0.947164
0.947165
0.947165
0.947165
0.947165
0.947165
0.947165
0.947165
0.947165
0.947165
0.947166
0.947166
0.947166
0.947166
0.947166
0.947166
0.947166
0.947167
0.947167
0.947167
0.947167
0.947167
0.947167
0.947167
0.947167
0.947167
0.947168
0.947168
0.947168
0.947168
0.947168
0.947168
0.947168
0.947169
0.947169
0.947169
0.947169
0.947169
0.947169
0.947169
0.947169
0.94717
0.94717
0.94717
0.94717
0.94717
0.94717
0.94717
0.947171
0.947171
0.947171
0.947171
0.947171
0.947171
0.947171
0.947172
0.947172
0.947172
0.947172
0.947172
0.947172
0.947172
0.947173
0.947173
0.947173
0.947173
0.947173
0.947173
0.947174
0.947174
0.947174
0.947174
0.947174
0.947174
0.947174
0.947175
0.947175
0.947175
0.947175
0.947175
0.947175
0.947176
0.947176
0.947176
0.947176
0.947176
0.947176
0.947177
0.947177
0.947177
0.947177
0.947177
0.947177
0.947178
0.947178
0.947178
0.947178
0.947178
0.947178
0.947178
0.947179
0.947179
0.947179
0.947179
0.947179
0.947179
0.94718
0.94718
0.94718
0.94718
0.94718
0.947181
0.947181
0.947181
0.947181
0.947181
0.947181
0.947182
0.947182
0.947182
0.947182
0.947182
0.947183
0.947183
0.947183
0.947183
0.947183
0.947183
0.947184
0.947184
0.947184
0.947184
0.947184
0.947185
0.947185
0.947185
0.947185
0.947185
0.947186
0.947186
0.947186
0.947186
0.947186
0.947187
0.947187
0.947187
0.947187
0.947187
0.947188
0.947188
0.947188
0.947188
0.947188
0.947188
0.947188
0.947189
0.947189
0.947189
0.947189
0.947189
0.94719
0.94719
0.94719
0.94719
0.94719
0.947191
0.947191
0.947191
0.947192
0.947192
0.947192
0.947192
0.947192
0.947193
0.947193
0.947193
0.947193
0.947193
0.947194
0.947194
0.947194
0.947194
0.947194
0.947195
0.947195
0.947195
0.947195
0.947195
0.947196
0.947196
0.947196
0.947196
0.947197
0.947197
0.947197
0.947197
0.947197
0.947198
0.947198
0.947198
0.947198
0.947198
0.947199
0.947199
0.947199
0.947199
0.9472
0.9472
0.9472
0.9472
0.9472
0.947201
0.947201
0.947201
0.947201
0.947202
0.947202
0.947202
0.947202
0.947202
0.947203
0.947203
0.947203
0.947204
0.947204
0.947204
0.947204
0.947204
0.947205
0.947205
0.947205
0.947205
0.947206
0.947206
0.947206
0.947206
0.947207
0.947207
0.947207
0.947207
0.947207
0.947208
0.947208
0.947208
0.947208
0.947209
0.947209
0.947209
0.94721
0.94721
0.94721
0.94721
0.94721
0.947211
0.947211
0.947211
0.947211
0.947212
0.947212
0.947212
0.947212
0.947213
0.947213
0.947213
0.947213
0.947213
0.947214
0.947214
0.947214
0.947214
0.947215
0.947215
0.947215
0.947216
0.947216
0.947216
0.947216
0.947217
0.947217
0.947217
0.947217
0.947218
0.947218
0.947218
0.947218
0.947219
0.947219
0.947219
0.94722
0.94722
0.94722
0.94722
0.947221
0.947221
0.947221
0.947221
0.947222
0.947222
0.947223
0.947223
0.947223
0.947223
0.947224
0.947224
0.947224
0.947224
0.947225
0.947225
0.947225
0.947225
0.947226
0.947226
0.947226
0.947227
0.947227
0.947227
0.947228
0.947228
0.947228
0.947228
0.947229
0.947229
0.947229
0.94723
0.94723
0.94723
0.94723
0.947231
0.947231
0.947231
0.947232
0.947232
0.947232
0.947233
0.947233
0.947233
0.947233
0.947234
0.947234
0.947234
0.947235
0.947235
0.947235
0.947236
0.947236
0.947236
0.947236
0.947237
0.947237
0.947237
0.947238
0.947238
0.947238
0.947239
0.947239
0.947239
0.94724
0.94724
0.94724
0.94724
0.947241
0.947241
0.947241
0.947242
0.947242
0.947242
0.947243
0.947243
0.947243
0.947243
0.947244
0.947244
0.947245
0.947245
0.947245
0.947245
0.947246
0.947246
0.947247
0.947247
0.947247
0.947247
0.947248
0.947248
0.947248
0.947249
0.947249
0.947249
0.94725
0.94725
0.94725
0.947251
0.947251
0.947251
0.947251
0.947252
0.947252
0.947253
0.947253
0.947253
0.947253
0.947254
0.947254
0.947255
0.947255
0.947255
0.947256
0.947256
0.947256
0.947256
0.947257
0.947257
0.947258
0.947258
0.947258
0.947259
0.947259
0.947259
0.94726
0.94726
0.94726
0.947261
0.947261
0.947261
0.947261
0.947262
0.947262
0.947263
0.947263
0.947263
0.947264
0.947264
0.947265
0.947265
0.947265
0.947265
0.947266
0.947266
0.947267
0.947267
0.947267
0.947268
0.947268
0.947268
0.947268
0.947269
0.947269
0.94727
0.94727
0.94727
0.947271
0.947271
0.947272
0.947272
0.947272
0.947272
0.947273
0.947273
0.947274
0.947274
0.947274
0.947275
0.947275
0.947276
0.947276
0.947276
0.947277
0.947277
0.947278
0.947278
0.947278
0.947278
0.947279
0.947279
0.947279
0.94728
0.94728
0.947281
0.947281
0.947281
0.947282
0.947282
0.947283
0.947283
0.947283
0.947284
0.947284
0.947285
0.947285
0.947285
0.947285
0.947286
0.947286
0.947287
0.947287
0.947287
0.947288
0.947288
0.947289
0.947289
0.947289
0.94729
0.94729
0.947291
0.947291
0.947291
0.947292
0.947292
0.947293
0.947293
0.947293
0.947294
0.947294
0.947295
0.947295
0.947295
0.947296
0.947296
0.947297
0.947297
0.947297
0.947298
0.947298
0.947299
0.947299
0.947299
0.9473
0.9473
0.947301
0.947301
0.947301
0.947302
0.947302
0.947303
0.947303
0.947303
0.947304
0.947304
0.947305
0.947305
0.947305
0.947306
0.947306
0.947307
0.947307
0.947307
0.947308
0.947308
0.947309
0.947309
0.947309
0.94731
0.94731
0.947311
0.947311
0.947311
0.947312
0.947312
0.947313
0.947313
0.947313
0.947314
0.947314
0.947315
0.947315
0.947315
0.947316
0.947316
0.947317
0.947317
0.947317
0.947318
0.947318
0.947319
0.947319
0.947319
0.94732
0.94732
0.947321
0.947321
0.947322
0.947322
0.947323
0.947323
0.947323
0.947324
0.947324
0.947325
0.947325
0.947325
0.947326
0.947326
0.947327
0.947327
0.947327
0.947328
0.947328
0.947329
0.947329
0.947329
0.94733
0.947331
0.947331
0.947332
0.947332
0.947332
0.947333
0.947333
0.947334
0.947334
0.947334
0.947335
0.947336
0.947336
0.947336
0.947337
0.947337
0.947338
0.947338
0.947338
0.947339
0.94734
0.94734
0.947341
0.947341
0.947341
0.947342
0.947342
0.947343
0.947343
0.947344
0.947344
0.947345
0.947345
0.947345
0.947346
0.947347
0.947347
0.947348
0.947348
0.947348
0.947349
0.947349
0.94735
0.94735
0.947351
0.947351
0.947352
0.947352
0.947352
0.947353
0.947354
0.947354
0.947355
0.947355
0.947355
0.947356
0.947357
0.947357
0.947357
0.947358
0.947358
0.947359
0.94736
0.94736
0.94736
0.947361
0.947361
0.947362
0.947362
0.947363
0.947363
0.947364
0.947364
0.947364
0.947365
0.947366
0.947366
0.947367
0.947367
0.947367
0.947368
0.947369
0.947369
0.947369
0.94737
0.947371
0.947371
0.947372
0.947372
0.947372
0.947373
0.947374
0.947374
0.947374
0.947375
0.947375
0.947376
0.947377
0.947377
0.947377
0.947378
0.947379
0.947379
0.947379
0.94738
0.94738
0.947381
0.947382
0.947382
0.947382
0.947383
0.947384
0.947384
0.947384
0.947385
0.947385
0.947386
0.947387
0.947387
0.947387
0.947388
0.947389
0.947389
0.947389
0.94739
0.947391
0.947391
0.947392
0.947392
0.947392
0.947393
0.947394
0.947394
0.947394
0.947395
0.947396
0.947396
0.947397
0.947397
0.947398
0.947398
0.947399
0.9474
0.9474
0.9474
0.947401
0.947401
0.947402
0.947402
0.947403
0.947403
0.947404
0.947405
0.947405
0.947405
0.947406
0.947407
0.947407
0.947407
0.947408
0.947409
0.947409
0.94741
0.94741
0.947411
0.947411
0.947412
0.947413
0.947413
0.947413
0.947414
0.947415
0.947415
0.947415
0.947416
0.947417
0.947417
0.947418
0.947418
0.947419
0.947419
0.94742
0.947421
0.947421
0.947421
0.947422
0.947423
0.947423
0.947423
0.947424
0.947425
0.947425
0.947426
0.947426
0.947427
0.947427
0.947428
0.947429
0.947429
0.947429
0.94743
0.947431
0.947431
0.947431
0.947432
0.947433
0.947434
0.947434
0.947434
0.947435
0.947436
0.947436
0.947437
0.947437
0.947438
0.947438
0.947439
0.94744
0.94744
0.94744
0.947441
0.947442
0.947442
0.947442
0.947443
0.947444
0.947444
0.947445
0.947445
0.947446
0.947447
0.947447
0.947448
0.947448
0.947449
0.947449
0.94745
0.947451
0.947451
0.947451
0.947452
0.947453
0.947454
0.947454
0.947454
0.947455
0.947456
0.947457
0.947457
0.947457
0.947458
0.947459
0.947459
0.947459
0.94746
0.947461
0.947462
0.947462
0.947462
0.947463
0.947464
0.947465
0.947465
0.947465
0.947466
0.947467
0.947468
0.947468
0.947468
0.947469
0.94747
0.947471
0.947471
0.947471
0.947472
0.947473
0.947474
0.947475
0.947475
0.947475
0.947476
0.947477
0.947478
0.947478
0.947478
0.947479
0.94748
0.947481
0.947481
0.947481
0.947482
0.947483
0.947484
0.947484
0.947484
0.947485
0.947486
0.947487
0.947487
0.947487
0.947488
0.947489
0.94749
0.94749
0.947491
0.947491
0.947492
0.947493
0.947493
0.947494
0.947494
0.947495
0.947496
0.947496
0.947497
0.947497
0.947498
0.947499
0.947499
0.9475
0.947501
0.947501
0.947502
0.947502
0.947503
0.947504
0.947504
0.947505
0.947505
0.947506
0.947507
0.947508
0.947508
0.947508
0.947509
0.94751
0.947511
0.947512
0.947512
0.947512
0.947513
0.947514
0.947515
0.947515
0.947515
0.947516
0.947517
0.947518
0.947518
0.947519
0.947519
0.94752
0.947521
0.947521
0.947522
0.947523
0.947523
0.947524
0.947524
0.947525
0.947526
0.947527
0.947527
0.947527
0.947528
0.947529
0.94753
0.947531
0.947531
0.947531
0.947532
0.947533
0.947534
0.947534
0.947535
0.947535
0.947536
0.947537
0.947537
0.947538
0.947539
0.94754
0.94754
0.94754
0.947541
0.947542
0.947543
0.947544
0.947544
0.947544
0.947545
0.947546
0.947547
0.947547
0.947548
0.947548
0.947549
0.94755
0.94755
0.947551
0.947552
0.947553
0.947553
0.947553
0.947554
0.947555
0.947556
0.947557
0.947557
0.947557
0.947558
0.947559
0.94756
0.94756
0.947561
0.947562
0.947562
0.947563
0.947563
0.947564
0.947565
0.947566
0.947567
0.947567
0.947567
0.947568
0.947569
0.94757
0.94757
0.947571
0.947572
0.947572
0.947573
0.947573
0.947574
0.947575
0.947576
0.947577
0.947577
0.947578
0.947578
0.947579
0.94758
0.94758
0.947581
0.947582
0.947583
0.947584
0.947584
0.947585
0.947585
0.947586
0.947587
0.947587
0.947588
0.947589
0.94759
0.947591
0.947591
0.947592
0.947593
0.947593
0.947594
0.947594
0.947595
0.947596
0.947597
0.947598
0.947598
0.947599
0.9476
0.947601
0.947601
0.947601
0.947602
0.947603
0.947604
0.947605
0.947605
0.947606
0.947607
0.947608
0.947609
0.947609
0.94761
0.947611
0.947611
0.947612
0.947612
0.947613
0.947614
0.947615
0.947616
0.947616
0.947617
0.947618
0.947619
0.94762
0.94762
0.94762
0.947621
0.947622
0.947623
0.947623
0.947624
0.947625
0.947626
0.947627
0.947627
0.947628
0.947629
0.94763
0.947631
0.947631
0.947631
0.947632
0.947633
0.947634
0.947634
0.947635
0.947636
0.947637
0.947638
0.947638
0.947639
0.94764
0.947641
0.947642
0.947642
0.947642
0.947643
0.947644
0.947645
0.947645
0.947646
0.947647
0.947648
0.947649
0.947649
0.94765
0.947651
0.947652
0.947653
0.947653
0.947654
0.947655
0.947655
0.947656
0.947656
0.947657
0.947658
0.947659
0.94766
0.94766
0.947661
0.947662
0.947663
0.947664
0.947664
0.947665
0.947666
0.947667
0.947668
0.947668
0.947669
0.947669
0.94767
0.947671
0.947671
0.947672
0.947673
0.947674
0.947675
0.947675
0.947676
0.947677
0.947678
0.947679
0.947679
0.94768
0.947681
0.947682
0.947683
0.947683
0.947684
0.947685
0.947685
0.947686
0.947686
0.947687
0.947688
0.947689
0.94769
0.94769
0.947691
0.947692
0.947693
0.947694
0.947694
0.947695
0.947696
0.947697
0.947698
0.947698
0.947699
0.9477
0.947701
0.947702
0.947702
0.947703
0.947704
0.947705
0.947706
0.947706
0.947707
0.947708
0.947709
0.94771
0.94771
0.947711
0.947712
0.947713
0.947714
0.947714
0.947715
0.947716
0.947717
0.947718
0.947718
0.947719
0.94772
0.947721
0.947722
0.947722
0.947723
0.947724
0.947725
0.947726
0.947726
0.947727
0.947728
0.947729
0.94773
0.94773
0.947731
0.947732
0.947733
0.947734
0.947734
0.947735
0.947736
0.947737
0.947738
0.947738
0.947739
0.94774
0.947741
0.947742
0.947742
0.947743
0.947745
0.947746
0.947747
0.947747
0.947748
0.947749
0.94775
0.947751
0.947751
0.947752
0.947753
0.947754
0.947755
0.947755
0.947756
0.947757
0.947758
0.947759
0.947759
0.94776
0.947761
0.947762
0.947763
0.947763
0.947764
0.947765
0.947766
0.947767
0.947767
0.947768
0.947769
0.94777
0.947771
0.947771
0.947773
0.947774
0.947775
0.947776
0.947776
0.947777
0.947778
0.947779
0.94778
0.94778
0.947781
0.947782
0.947783
0.947784
0.947784
0.947785
0.947786
0.947787
0.947788
0.947788
0.947789
0.94779
0.947791
0.947792
0.947792
0.947793
0.947795
0.947796
0.947797
0.947797
0.947798
0.947799
0.9478
0.947801
0.947801
0.947802
0.947803
0.947804
0.947805
0.947805
0.947806
0.947807
0.947808
0.947809
0.947809
0.94781
0.947811
0.947812
0.947814
0.947814
0.947815
0.947816
0.947817
0.947818
0.947818
0.947819
0.94782
0.947821
0.947822
0.947822
0.947823
0.947824
0.947825
0.947826
0.947826
0.947827
0.947829
0.94783
0.947831
0.947831
0.947832
0.947833
0.947834
0.947835
0.947835
0.947836
0.947837
0.947839
0.94784
0.94784
0.947841
0.947842
0.947843
0.947844
0.947844
0.947845
0.947846
0.947848
0.947849
0.947849
0.94785
0.947851
0.947852
0.947853
0.947853
0.947854
0.947855
0.947857
0.947858
0.947858
0.947859
0.94786
0.947861
0.947862
0.947862
0.947863
0.947865
0.947866
0.947867
0.947867
0.947868
0.947869
0.94787
0.947871
0.947871
0.947873
0.947874
0.947875
0.947876
0.947876
0.947877
0.947878
0.94788
0.947881
0.947881
0.947882
0.947883
0.947884
0.947885
0.947885
0.947886
0.947888
0.947889
0.94789
0.94789
0.947891
0.947892
0.947893
0.947894
0.947894
0.947896
0.947897
0.947898
0.947899
0.947899
0.9479
0.947901
0.947903
0.947904
0.947904
0.947905
0.947906
0.947907
0.947908
0.947908
0.947909
0.947911
0.947912
0.947913
0.947913
0.947914
0.947915
0.947916
0.947918
0.947918
0.947919
0.94792
0.947921
0.947922
0.947922
0.947923
0.947924
0.947926
0.947927
0.947927
0.947928
0.947929
0.94793
0.947931
0.947931
0.947933
0.947934
0.947935
0.947936
0.947936
0.947937
0.947938
0.94794
0.947941
0.947941
0.947942
0.947943
0.947944
0.947945
0.947945
0.947947
0.947948
0.947949
0.94795
0.94795
0.947951
0.947952
0.947954
0.947955
0.947955
0.947956
0.947957
0.947958
0.94796
0.94796
0.947961
0.947962
0.947963
0.947964
0.947964
0.947966
0.947967
0.947968
0.947969
0.947969
0.947971
0.947972
0.947973
0.947974
0.947974
0.947976
0.947977
0.947978
0.947979
0.947979
0.947981
0.947982
0.947983
0.947984
0.947984
0.947985
0.947987
0.947988
0.947989
0.947989
0.94799
0.947992
0.947993
0.947994
0.947994
0.947995
0.947997
0.947998
0.947999
0.947999
0.948
0.948002
0.948003
0.948004
0.948004
0.948006
0.948007
0.948008
0.948009
0.948009
0.948011
0.948012
0.948013
0.948014
0.948014
0.948016
0.948017
0.948018
0.948019
0.948019
0.948021
0.948022
0.948023
0.948024
0.948024
0.948026
0.948027
0.948028
0.948029
0.948029
0.948031
0.948032
0.948033
0.948034
0.948034
0.948036
0.948037
0.948038
0.948039
0.948039
0.948041
0.948042
0.948043
0.948044
0.948044
0.948046
0.948047
0.948048
0.948049
0.948049
0.948051
0.948052
0.948053
0.948055
0.948055
0.948056
0.948057
0.948058
0.94806
0.94806
0.948061
0.948062
0.948063
0.948065
0.948065
0.948066
0.948067
0.948068
0.94807
0.94807
0.948071
0.948072
0.948073
0.948075
0.948075
0.948076
0.948077
0.948079
0.94808
0.94808
0.948081
0.948082
0.948084
0.948085
0.948085
0.948086
0.948088
0.948089
0.94809
0.94809
0.948091
0.948093
0.948094
0.948095
0.948095
0.948097
0.948098
0.948099
0.948101
0.948101
0.948102
0.948103
0.948105
0.948106
0.948106
0.948107
0.948109
0.94811
0.948111
0.948111
0.948113
0.948114
0.948115
0.948117
0.948117
0.948118
0.948119
0.948121
0.948122
0.948122
0.948124
0.948125
0.948126
0.948128
0.948128
0.948129
0.94813
0.948132
0.948133
0.948133
0.948134
0.948136
0.948137
0.948138
0.948138
0.94814
0.948141
0.948142
0.948144
0.948144
0.948145
0.948147
0.948148
0.948149
0.948149
0.948151
0.948152
0.948153
0.948155
0.948155
0.948156
0.948157
0.948159
0.94816
0.94816
0.948161
0.948163
0.948164
0.948166
0.948166
0.948167
0.948168
0.94817
0.948171
0.948171
0.948172
0.948174
0.948175
0.948176
0.948176
0.948178
0.948179
0.94818
0.948182
0.948182
0.948183
0.948185
0.948186
0.948187
0.948187
0.948189
0.94819
0.948191
0.948193
0.948193
0.948194
0.948195
0.948197
0.948198
0.948198
0.9482
0.948201
0.948202
0.948204
0.948204
0.948205
0.948206
0.948208
0.948209
0.948209
0.94821
0.948212
0.948213
0.948215
0.948215
0.948216
0.948217
0.948219
0.94822
0.94822
0.948221
0.948223
0.948224
0.948226
0.948226
0.948227
0.948228
0.94823
0.948231
0.948231
0.948233
0.948234
0.948236
0.948237
0.948237
0.948238
0.94824
0.948241
0.948243
0.948243
0.948244
0.948246
0.948247
0.948248
0.948248
0.94825
0.948251
0.948253
0.948254
0.948254
0.948256
0.948257
0.948259
0.94826
0.94826
0.948262
0.948263
0.948264
0.948266
0.948266
0.948267
0.948269
0.94827
0.948272
0.948272
0.948273
0.948275
0.948276
0.948278
0.948278
0.948279
0.94828
0.948282
0.948283
0.948283
0.948285
0.948286
0.948288
0.948289
0.948289
0.948291
0.948292
0.948294
0.948295
0.948295
0.948296
0.948298
0.948299
0.948301
0.948301
0.948302
0.948304
0.948305
0.948307
0.948307
0.948308
0.94831
0.948311
0.948312
0.948312
0.948314
0.948315
0.948317
0.948318
0.948318
0.94832
0.948321
0.948323
0.948324
0.948324
0.948326
0.948327
0.948328
0.94833
0.94833
0.948331
0.948333
0.948334
0.948336
0.948336
0.948337
0.948339
0.94834
0.948342
0.948342
0.948343
0.948344
0.948346
0.948347
0.948347
0.948349
0.94835
0.948352
0.948353
0.948353
0.948355
0.948356
0.948358
0.948359
0.948359
0.948361
0.948362
0.948364
0.948365
0.948365
0.948367
0.948368
0.94837
0.948371
0.948371
0.948373
0.948374
0.948376
0.948377
0.948377
0.948379
0.94838
0.948382
0.948384
0.948384
0.948385
0.948387
0.948388
0.94839
0.94839
0.948391
0.948393
0.948394
0.948396
0.948396
0.948397
0.948399
0.9484
0.948402
0.948402
0.948404
0.948405
0.948407
0.948408
0.948408
0.94841
0.948411
0.948413
0.948414
0.948414
0.948416
0.948418
0.948419
0.948421
0.948421
0.948422
0.948424
0.948425
0.948427
0.948427
0.948428
0.94843
0.948431
0.948433
0.948433
0.948435
0.948436
0.948438
0.948439
0.948439
0.948441
0.948442
0.948444
0.948445
0.948445
0.948447
0.948448
0.94845
0.948452
0.948452
0.948453
0.948455
0.948456
0.948458
0.948458
0.948459
0.948461
0.948462
0.948464
0.948464
0.948466
0.948467
0.948469
0.94847
0.94847
0.948472
0.948473
0.948475
0.948476
0.948476
0.948478
0.948479
0.948481
0.948483
0.948483
0.948484
0.948486
0.948487
0.948489
0.948489
0.94849
0.948492
0.948494
0.948495
0.948495
0.948497
0.948498
0.9485
0.948501
0.948501
0.948503
0.948505
0.948506
0.948508
0.948508
0.948509
0.948511
0.948513
0.948514
0.948514
0.948516
0.948518
0.948519
0.948521
0.948521
0.948522
0.948524
0.948526
0.948527
0.948527
0.948529
0.948531
0.948532
0.948534
0.948534
0.948536
0.948537
0.948539
0.94854
0.94854
0.948542
0.948544
0.948545
0.948547
0.948547
0.948549
0.94855
0.948552
0.948554
0.948554
0.948555
0.948557
0.948559
0.94856
0.94856
0.948562
0.948563
0.948565
0.948567
0.948567
0.948568
0.94857
0.948572
0.948573
0.948573
0.948575
0.948577
0.948578
0.94858
0.94858
0.948581
0.948583
0.948585
0.948586
0.948586
0.948588
0.94859
0.948591
0.948593
0.948593
0.948595
0.948596
0.948598
0.948599
0.948599
0.948601
0.948603
0.948604
0.948606
0.948606
0.948608
0.948609
0.948611
0.948613
0.948613
0.948614
0.948616
0.948618
0.948619
0.948619
0.948621
0.948622
0.948624
0.948626
0.948626
0.948627
0.948629
0.948631
0.948632
0.948632
0.948634
0.948636
0.948637
0.948639
0.948639
0.948641
0.948642
0.948644
0.948646
0.948646
0.948648
0.948649
0.948651
0.948653
0.948653
0.948654
0.948656
0.948658
0.948659
0.948659
0.948661
0.948663
0.948665
0.948666
0.948666
0.948668
0.94867
0.948672
0.948673
0.948673
0.948675
0.948677
0.948678
0.94868
0.94868
0.948682
0.948684
0.948685
0.948687
0.948687
0.948689
0.948691
0.948692
0.948694
0.948694
0.948696
0.948698
0.948699
0.948701
0.948701
0.948703
0.948704
0.948706
0.948708
0.948708
0.94871
0.948711
0.948713
0.948715
0.948715
0.948717
0.948718
0.94872
0.948722
0.948722
0.948723
0.948725
0.948727
0.948729
0.948729
0.94873
0.948732
0.948734
0.948736
0.948736
0.948737
0.948739
0.948741
0.948742
0.948742
0.948744
0.948746
0.948748
0.948749
0.948749
0.948751
0.948753
0.948755
0.948756
0.948756
0.948758
0.94876
0.948761
0.948763
0.948763
0.948765
0.948767
0.948768
0.94877
0.94877
0.948772
0.948774
0.948775
0.948777
0.948777
0.948779
0.948781
0.948782
0.948784
0.948784
0.948786
0.948788
0.94879
0.948791
0.948791
0.948793
0.948795
0.948797
0.948799
0.948799
0.9488
0.948802
0.948804
0.948806
0.948806
0.948808
0.948809
0.948811
0.948813
0.948813
0.948815
0.948817
0.948819
0.94882
0.94882
0.948822
0.948824
0.948826
0.948828
0.948828
0.948829
0.948831
0.948833
0.948835
0.948835
0.948837
0.948839
0.94884
0.948842
0.948842
0.948844
0.948846
0.948848
0.948849
0.948849
0.948851
0.948853
0.948855
0.948857
0.948857
0.948859
0.94886
0.948862
0.948864
0.948864
0.948866
0.948868
0.948869
0.948871
0.948871
0.948873
0.948875
0.948877
0.948878
0.948878
0.94888
0.948882
0.948884
0.948886
0.948886
0.948888
0.948889
0.948891
0.948893
0.948893
0.948895
0.948897
0.948898
0.9489
0.9489
0.948902
0.948904
0.948906
0.948908
0.948908
0.948909
0.948911
0.948913
0.948915
0.948915
0.948917
0.948919
0.94892
0.948922
0.948922
0.948924
0.948926
0.948928
0.94893
0.94893
0.948932
0.948933
0.948935
0.948937
0.948937
0.948939
0.948941
0.948943
0.948945
0.948945
0.948947
0.948949
0.94895
0.948952
0.948952
0.948954
0.948956
0.948958
0.94896
0.94896
0.948962
0.948964
0.948966
0.948968
0.948968
0.948969
0.948971
0.948973
0.948975
0.948975
0.948977
0.948979
0.948981
0.948983
0.948983
0.948985
0.948987
0.948989
0.94899
0.94899
0.948992
0.948994
0.948996
0.948998
0.948998
0.949
0.949002
0.949004
0.949006
0.949006
0.949008
0.949009
0.949011
0.949013
0.949013
0.949015
0.949017
0.949019
0.949021
0.949021
0.949023
0.949025
0.949027
0.949029
0.949029
0.94903
0.949032
0.949034
0.949036
0.949036
0.949038
0.94904
0.949042
0.949044
0.949044
0.949046
0.949048
0.949049
0.949051
0.949051
0.949053
0.949055
0.949057
0.949059
0.949059
0.949061
0.949063
0.949065
0.949067
0.949067
0.949069
0.949071
0.949073
0.949074
0.949074
0.949076
0.949078
0.94908
0.949082
0.949082
0.949084
0.949086
0.949088
0.94909
0.94909
0.949092
0.949094
0.949096
0.949098
0.949098
0.9491
0.949102
0.949104
0.949106
0.949106
0.949108
0.94911
0.949112
0.949114
0.949114
0.949116
0.949118
0.94912
0.949122
0.949122
0.949124
0.949126
0.949128
0.94913
0.94913
0.949132
0.949134
0.949136
0.949138
0.949138
0.94914
0.949142
0.949144
0.949146
0.949146
0.949148
0.94915
0.949152
0.949154
0.949154
0.949156
0.949158
0.94916
0.949162
0.949162
0.949164
0.949166
0.949168
0.94917
0.94917
0.949172
0.949174
0.949176
0.949178
0.949178
0.94918
0.949182
0.949184
0.949186
0.949186
0.949188
0.94919
0.949192
0.949194
0.949194
0.949196
0.949198
0.9492
0.949202
0.949202
0.949204
0.949206
0.949208
0.94921
0.94921
0.949212
0.949214
0.949216
0.949218
0.949218
0.94922
0.949222
0.949224
0.949226
0.949226
0.949228
0.94923
0.949232
0.949234
0.949234
0.949236
0.949238
0.94924
0.949242
0.949242
0.949244
0.949247
0.949249
0.949251
0.949251
0.949253
0.949255
0.949257
0.949259
0.949259
0.949261
0.949263
0.949265
0.949267
0.949267
0.949269
0.949271
0.949273
0.949276
0.949276
0.949278
0.94928
0.949282
0.949284
0.949284
0.949286
0.949288
0.94929
0.949292
0.949292
0.949294
0.949296
0.949298
0.9493
0.9493
0.949303
0.949305
0.949307
0.949309
0.949309
0.949311
0.949313
0.949315
0.949317
0.949317
0.949319
0.949321
0.949323
0.949325
0.949325
0.949327
0.949329
0.949332
0.949334
0.949334
0.949336
0.949338
0.94934
0.949342
0.949342
0.949344
0.949346
0.949348
0.94935
0.94935
0.949352
0.949354
0.949356
0.949359
0.949359
0.949361
0.949363
0.949365
0.949367
0.949367
0.949369
0.949371
0.949373
0.949376
0.949376
0.949378
0.94938
0.949382
0.949384
0.949384
0.949386
0.949388
0.949391
0.949393
0.949393
0.949395
0.949397
0.949399
0.949401
0.949401
0.949403
0.949406
0.949408
0.94941
0.94941
0.949412
0.949414
0.949416
0.949419
0.949419
0.949421
0.949423
0.949425
0.949427
0.949427
0.949429
0.949432
0.949434
0.949436
0.949436
0.949438
0.94944
0.949442
0.949444
0.949444
0.949447
0.949449
0.949451
0.949453
0.949453
0.949455
0.949457
0.94946
0.949462
0.949462
0.949464
0.949466
0.949468
0.94947
0.94947
0.949472
0.949475
0.949477
0.949479
0.949479
0.949481
0.949483
0.949485
0.949488
0.949488
0.94949
0.949492
0.949494
0.949496
0.949496
0.949498
0.949501
0.949503
0.949505
0.949505
0.949507
0.949509
0.949511
0.949514
0.949514
0.949516
0.949518
0.94952
0.949522
0.949522
0.949525
0.949527
0.949529
0.949531
0.949531
0.949534
0.949536
0.949538
0.94954
0.94954
0.949543
0.949545
0.949547
0.949549
0.949549
0.949551
0.949554
0.949556
0.949558
0.949558
0.94956
0.949563
0.949565
0.949567
0.949567
0.949569
0.949572
0.949574
0.949576
0.949576
0.949578
0.949581
0.949583
0.949585
0.949585
0.949587
0.94959
0.949592
0.949594
0.949594
0.949596
0.949598
0.949601
0.949603
0.949603
0.949605
0.949607
0.94961
0.949612
0.949612
0.949614
0.949616
0.949619
0.949621
0.949621
0.949623
0.949625
0.949628
0.94963
0.94963
0.949632
0.949634
0.949637
0.949639
0.949639
0.949641
0.949643
0.949646
0.949648
0.949648
0.94965
0.949652
0.949655
0.949657
0.949657
0.949659
0.949661
0.949664
0.949666
0.949666
0.949668
0.94967
0.949673
0.949675
0.949675
0.949677
0.94968
0.949682
0.949684
0.949684
0.949687
0.949689
0.949691
0.949694
0.949694
0.949696
0.949698
0.9497
0.949703
0.949703
0.949705
0.949707
0.94971
0.949712
0.949712
0.949714
0.949717
0.949719
0.949721
0.949721
0.949724
0.949726
0.949728
0.949731
0.949731
0.949733
0.949735
0.949738
0.94974
0.94974
0.949742
0.949745
0.949747
0.949749
0.949749
0.949752
0.949754
0.949756
0.949758
0.949758
0.949761
0.949763
0.949765
0.949768
0.949768
0.94977
0.949772
0.949775
0.949777
0.949777
0.949779
0.949782
0.949784
0.949786
0.949786
0.949789
0.949791
0.949793
0.949796
0.949796
0.949798
0.9498
0.949803
0.949805
0.949805
0.949807
0.94981
0.949812
0.949814
0.949814
0.949817
0.949819
0.949821
0.949824
0.949824
0.949826
0.949829
0.949831
0.949833
0.949833
0.949836
0.949838
0.949841
0.949843
0.949843
0.949845
0.949848
0.94985
0.949853
0.949853
0.949855
0.949857
0.94986
0.949862
0.949862
0.949865
0.949867
0.949869
0.949872
0.949872
0.949874
0.949877
0.949879
0.949881
0.949881
0.949884
0.949886
0.949889
0.949891
0.949891
0.949893
0.949896
0.949898
0.949901
0.949901
0.949903
0.949905
0.949908
0.94991
0.94991
0.949913
0.949915
0.949917
0.94992
0.94992
0.949922
0.949925
0.949927
0.949929
0.949929
0.949932
0.949934
0.949937
0.949939
0.949939
0.949941
0.949944
0.949946
0.949949
0.949949
0.949951
0.949953
0.949956
0.949958
0.949958
0.949961
0.949963
0.949966
0.949968
0.949968
0.94997
0.949973
0.949975
0.949978
0.949978
0.94998
0.949983
0.949985
0.949988
0.949988
0.94999
0.949993
0.949995
0.949998
0.949998
0.95
0.950002
0.950005
0.950007
0.950007
0.95001
0.950012
0.950015
0.950017
0.950017
0.95002
0.950022
0.950025
0.950027
0.950027
0.95003
0.950032
0.950035
0.950037
0.950037
0.95004
0.950042
0.950045
0.950047
0.950047
0.95005
0.950052
0.950055
0.950057
0.950057
0.95006
0.950062
0.950064
0.950067
0.950067
0.950069
0.950072
0.950074
0.950077
0.950077
0.950079
0.950082
0.950084
0.950087
0.950087
0.950089
0.950092
0.950094
0.950097
0.950097
0.950099
0.950102
0.950104
0.950107
0.950107
0.950109
0.950112
0.950114
0.950117
0.950117
0.950119
0.950122
0.950124
0.950127
0.950127
0.950129
0.950132
0.950134
0.950137
0.950137
0.95014
0.950142
0.950145
0.950147
0.950147
0.95015
0.950152
0.950155
0.950157
0.950157
0.95016
0.950162
0.950165
0.950168
0.950168
0.95017
0.950173
0.950175
0.950178
0.950178
0.95018
0.950183
0.950186
0.950188
0.950188
0.950191
0.950193
0.950196
0.950198
0.950198
0.950201
0.950203
0.950206
0.950209
0.950209
0.950211
0.950214
0.950216
0.950219
0.950219
0.950221
0.950224
0.950226
0.950229
0.950229
0.950232
0.950234
0.950237
0.950239
0.950239
0.950242
0.950244
0.950247
0.95025
0.95025
0.950252
0.950255
0.950257
0.95026
0.95026
0.950262
0.950265
0.950268
0.95027
0.95027
0.950273
0.950275
0.950278
0.950281
0.950281
0.950283
0.950286
0.950288
0.950291
0.950291
0.950294
0.950296
0.950299
0.950302
0.950302
0.950304
0.950307
0.950309
0.950312
0.950312
0.950315
0.950317
0.95032
0.950323
0.950323
0.950325
0.950328
0.950331
0.950333
0.950333
0.950336
0.950338
0.950341
0.950344
0.950344
0.950346
0.950349
0.950352
0.950354
0.950354
0.950357
0.95036
0.950362
0.950365
0.950365
0.950367
0.95037
0.950373
0.950375
0.950375
0.950378
0.950381
0.950383
0.950386
0.950386
0.950389
0.950391
0.950394
0.950397
0.950397
0.950399
0.950402
0.950404
0.950407
0.950407
0.95041
0.950412
0.950415
0.950418
0.950418
0.95042
0.950423
0.950426
0.950428