<?xml version="1.0"?>
<VTKFile type="UnstructuredGrid" version="0.1" byte_order="LittleEndian">
<UnstructuredGrid>
<Piece NumberOfPoints="5000" NumberOfCells="4000">
<PointData Scalars="Reaction 0">
<DataArray type="Float32" Name="Reaction 0" format="ascii">
0.488899
0.488899
0.488899
0.4889
0.4889
0.4889
0.4889
0.4889
0.4889
0.4889
0.4889
0.488901
0.488901
0.488901
0.488902
0.488902
0.488902
0.488903
0.488903
0.488904
0.488904
0.488904
0.488905
0.488905
0.488906
0.488906
0.488907
0.488907
0.488908
0.488909
0.488909
0.48891
0.488911
0.488912
0.488913
0.488913
0.488913
0.488914
0.488915
0.488917
0.488917
0.488918
0.488919
0.48892
0.488921
0.488921
0.488922
0.488924
0.488925
0.488926
0.488926
0.488928
0.488929
0.48893
0.488932
0.488932
0.488933
0.488935
0.488936
0.488938
0.488938
0.48894
0.488941
0.488943
0.488945
0.488945
0.488946
0.488948
0.48895
0.488952
0.488952
0.488954
0.488956
0.488958
0.48896
0.48896
0.488962
0.488964
0.488966
0.488968
0.488968
0.48897
0.488972
0.488975
0.488977
0.488977
0.488979
0.488982
0.488984
0.488986
0.488986
0.488989
0.488991
0.488994
0.488996
0.488996
0.488999
0.489001
0.489004
0.489007
0.489007
0.489009
0.489012
0.489015
0.489018
0.489018
0.489021
0.489023
0.489026
0.489029
0.489029
0.489032
0.489035
0.489038
0.489041
0.489041
0.489044
0.489048
0.489051
0.489054
0.489054
0.489057
0.48906
0.489064
0.489067
0.489067
0.48907
0.489074
0.489077
0.489081
0.489081
0.489084
0.489088
0.489091
0.489095
0.489095
0.489099
0.489102
0.489106
0.48911
0.48911
0.489114
0.489117
0.489121
0.489125
0.489125
0.489129
0.489133
0.489137
0.489141
0.489141
0.489145
0.489149
0.489153
0.489157
0.489157
0.489161
0.489166
0.48917
0.489174
0.489174
0.489178
0.489183
0.489187
0.489192
0.489192
0.489196
0.489201
0.489205
0.48921
0.48921
0.489214
0.489219
0.489223
0.489228
0.489228
0.489233
0.489238
0.489242
0.489247
0.489247
0.489252
0.489257
0.489262
0.489267
0.489267
0.489272
0.489277
0.489282
0.489287
0.489287
0.489292
0.489297
0.489302
0.489308
0.489308
0.489313
0.489318
0.489323
0.489329
0.489329
0.489334
0.48934
0.489345
0.489351
0.489351
0.489356
0.489362
0.489367
0.489373
0.489373
0.489378
0.489384
0.48939
0.489396
0.489396
0.489401
0.489407
0.489413
0.489419
0.489419
0.489425
0.489431
0.489437
0.489443
0.489443
0.489449
0.489455
0.489461
0.489467
0.489467
0.489474
0.48948
0.489486
0.489492
0.489492
0.489499
0.489505
0.489511
0.489518
0.489518
0.489524
0.489531
0.489537
0.489544
0.489544
0.48955
0.489557
0.489564
0.48957
0.48957
0.489577
0.489584
0.489591
0.489598
0.489598
0.489604
0.489611
0.489618
0.489625
0.489625
0.489632
0.489639
0.489646
0.489653
0.489653
0.489661
0.489668
0.489675
0.489682
0.489682
0.489689
0.489697
0.489704
0.489711
0.489711
0.489719
0.489726
0.489734
0.489741
0.489741
0.489749
0.489756
0.489764
0.489772
0.489772
0.489779
0.489787
0.489795
0.489803
0.489803
0.48981
0.489818
0.489826
0.489834
0.489834
0.489842
0.48985
0.489858
0.489866
0.489866
0.489874
0.489882
0.48989
0.489898
0.489898
0.489907
0.489915
0.489923
0.489932
0.489932
0.48994
0.489948
0.489957
0.489965
0.489965
0.489974
0.489982
0.489991
0.489999
0.489999
0.490008
0.490017
0.490025
0.490034
0.490034
0.490043
0.490051
0.49006
0.490069
0.490069
0.490078
0.490087
0.490096
0.490105
0.490105
0.490114
0.490123
0.490132
0.490141
0.490141
0.49015
0.490159
0.490169
0.490178
0.490178
0.490187
0.490197
0.490206
0.490215
0.490215
0.490225
0.490234
0.490244
0.490253
0.490253
0.490263
0.490272
0.490282
0.490292
0.490292
0.490301
0.490311
0.490321
0.490331
0.490331
0.49034
0.49035
0.49036
0.49037
0.49037
0.49038
0.49039
0.4904
0.49041
0.49041
0.49042
0.49043
0.490441
0.490451
0.490451
0.490461
0.490471
0.490482
0.490492
0.490492
0.490502
0.490513
0.490523
0.490534
0.490534
0.490544
0.490555
0.490565
0.490576
0.490576
0.490586
0.490597
0.490608
0.490619
0.490619
0.490629
0.49064
0.490651
0.490662
0.490662
0.490673
0.490684
0.490695
0.490706
0.490706
0.490717
0.490728
0.490739
0.49075
0.49075
0.490761
0.490773
0.490784
0.490795
0.490795
0.490806
0.490818
0.490829
0.490841
0.490841
0.490852
0.490863
0.490875
0.490887
0.490887
0.490898
0.49091
0.490921
0.490933
0.490933
0.490945
0.490957
0.490968
0.49098
0.49098
0.490992
0.491004
0.491016
0.491028
0.491028
0.49104
0.491052
0.491064
0.491076
0.491076
0.491088
0.4911
0.491112
0.491125
0.491125
0.491137
0.491149
0.491162
0.491174
0.491174
0.491186
0.491199
0.491211
0.491224
0.491224
0.491236
0.491249
0.491261
0.491274
0.491274
0.491287
0.491299
0.491312
0.491325
0.491325
0.491338
0.491351
0.491363
0.491376
0.491376
0.491389
0.491402
0.491415
0.491428
0.491428
0.491441
0.491454
0.491468
0.491481
0.491481
0.491494
0.491507
0.491521
0.491534
0.491534
0.491547
0.491561
0.491574
0.491587
0.491587
0.491601
0.491614
0.491628
0.491642
0.491642
0.491655
0.491669
0.491682
0.491696
0.491696
0.49171
0.491724
0.491738
0.491751
0.491751
0.491765
0.491779
0.491793
0.491807
0.491807
0.491821
0.491835
0.491849
0.491863
0.491863
0.491878
0.491892
0.491906
0.49192
0.49192
0.491935
0.491949
0.491963
0.491978
0.491978
0.491992
0.492007
0.492021
0.492036
0.492036
0.49205
0.492065
0.492079
0.492094
0.492094
0.492109
0.492124
0.492138
0.492153
0.492153
0.492168
0.492183
0.492198
0.492213
0.492213
0.492228
0.492243
0.492258
0.492273
0.492273
0.492288
0.492303
0.492318
0.492333
0.492333
0.492349
0.492364
0.492379
0.492395
0.492395
0.49241
0.492425
0.492441
0.492456
0.492456
0.492472
0.492487
0.492503
0.492519
0.492519
0.492534
0.49255
0.492566
0.492581
0.492581
0.492597
0.492613
0.492629
0.492645
0.492645
0.492661
0.492677
0.492693
0.492709
0.492709
0.492725
0.492741
0.492757
0.492773
0.492773
0.492789
0.492806
0.492822
0.492838
0.492838
0.492854
0.492871
0.492887
0.492904
0.492904
0.49292
0.492937
0.492953
0.49297
0.49297
0.492986
0.493003
0.49302
0.493036
0.493036
0.493053
0.49307
0.493087
0.493104
0.493104
0.49312
0.493137
0.493154
0.493171
0.493171
0.493188
0.493205
0.493222
0.49324
0.49324
0.493257
0.493274
0.493291
0.493308
0.493308
0.493326
0.493343
0.49336
0.493378
0.493378
0.493395
0.493413
0.49343
0.493448
0.493448
0.493465
0.493483
0.4935
0.493518
0.493518
0.493536
0.493554
0.493571
0.493589
0.493589
0.493607
0.493625
0.493643
0.493661
0.493661
0.493679
0.493697
0.493715
0.493733
0.493733
0.493751
0.493769
0.493787
0.493805
0.493805
0.493824
0.493842
0.49386
0.493879
0.493879
0.493897
0.493915
0.493934
0.493952
0.493952
0.493971
0.493989
0.494008
0.494027
0.494027
0.494045
0.494064
0.494083
0.494101
0.494101
0.49412
0.494139
0.494158
0.494177
0.494177
0.494196
0.494215
0.494234
0.494253
0.494253
0.494272
0.494291
0.49431
0.494329
0.494329
0.494348
0.494368
0.494387
0.494406
0.494406
0.494426
0.494445
0.494464
0.494484
0.494484
0.494503
0.494523
0.494542
0.494562
0.494562
0.494582
0.494601
0.494621
0.494641
0.494641
0.49466
0.49468
0.4947
0.49472
0.49472
0.49474
0.49476
0.49478
0.4948
0.4948
0.49482
0.49484
0.49486
0.49488
0.49488
0.4949
0.49492
0.494941
0.494961
0.494961
0.494981
0.495001
0.495022
0.495042
0.495042
0.495063
0.495083
0.495104
0.495124
0.495124
0.495145
0.495165
0.495186
0.495207
0.495207
0.495227
0.495248
0.495269
0.49529
0.49529
0.495311
0.495332
0.495352
0.495373
0.495373
0.495394
0.495415
0.495436
0.495458
0.495458
0.495479
0.4955
0.495521
0.495542
0.495542
0.495564
0.495585
0.495606
0.495628
0.495628
0.495649
0.49567
0.495692
0.495713
0.495713
0.495735
0.495757
0.495778
0.4958
0.4958
0.495821
0.495843
0.495865
0.495887
0.495887
0.495909
0.49593
0.495952
0.495974
0.495974
0.495996
0.496018
0.49604
0.496062
0.496062
0.496084
0.496106
0.496129
0.496151
0.496151
0.496173
0.496195
0.496218
0.49624
0.49624
0.496262
0.496285
0.496307
0.49633
0.49633
0.496352
0.496375
0.496397
0.49642
0.49642
0.496442
0.496465
0.496488
0.496511
0.496511
0.496533
0.496556
0.496579
0.496602
0.496602
0.496625
0.496648
0.496671
0.496694
0.496694
0.496717
0.49674
0.496763
0.496786
0.496786
0.49681
0.496833
0.496856
0.496879
0.496879
0.496903
0.496926
0.496949
0.496973
0.496973
0.496996
0.49702
0.497043
0.497067
0.497067
0.497091
0.497114
0.497138
0.497162
0.497162
0.497185
0.497209
0.497233
0.497257
0.497257
0.497281
0.497305
0.497329
0.497353
0.497353
0.497377
0.497401
0.497425
0.497449
0.497449
0.497473
0.497497
0.497522
0.497546
0.497546
0.49757
0.497594
0.497619
0.497643
0.497643
0.497668
0.497692
0.497717
0.497741
0.497741
0.497766
0.49779
0.497815
0.49784
0.49784
0.497865
0.497889
0.497914
0.497939
0.497939
0.497964
0.497989
0.498014
0.498039
0.498039
0.498064
0.498089
0.498114
0.498139
0.498139
0.498164
0.498189
0.498214
0.49824
0.49824
0.498265
0.49829
0.498316
0.498341
0.498341
0.498366
0.498392
0.498417
0.498443
0.498443
0.498468
0.498494
0.49852
0.498545
0.498545
0.498571
0.498597
0.498622
0.498648
0.498648
0.498674
0.4987
0.498726
0.498752
0.498752
0.498778
0.498804
0.49883
0.498856
0.498856
0.498882
0.498908
0.498934
0.498961
0.498961
0.498987
0.499013
0.499039
0.499066
0.499066
0.499092
0.499119
0.499145
0.499172
0.499172
0.499198
0.499225
0.499251
0.499278
0.499278
0.499305
0.499331
0.499358
0.499385
0.499385
0.499412
0.499439
0.499465
0.499492
0.499492
0.499519
0.499546
0.499573
0.4996
0.4996
0.499627
0.499655
0.499682
0.499709
0.499709
0.499736
0.499763
0.499791
0.499818
0.499818
0.499846
0.499873
0.4999
0.499928
0.499928
0.499955
0.499983
0.500011
0.500038
0.500038
0.500066
0.500093
0.500121
0.500149
0.500149
0.500177
0.500205
0.500232
0.50026
0.50026
0.500288
0.500316
0.500344
0.500372
0.500372
0.5004
0.500428
0.500457
0.500485
0.500485
0.500513
0.500541
0.50057
0.500598
0.500598
0.500626
0.500655
0.500683
0.500712
0.500712
0.50074
0.500769
0.500797
0.500826
0.500826
0.500854
0.500883
0.500912
0.500941
0.500941
0.500969
0.500998
0.501027
0.501056
0.501056
0.501085
0.501114
0.501143
0.501172
0.501172
0.501201
0.50123
0.501259
0.501288
0.501288
0.501317
0.501347
0.501376
0.501405
0.501405
0.501435
0.501464
0.501493
0.501523
0.501523
0.501552
0.501582
0.501611
0.501641
0.501641
0.501671
0.5017
0.50173
0.50176
0.50176
0.501789
0.501819
0.501849
0.501879
0.501879
0.501909
0.501939
0.501969
0.501999
0.501999
0.502029
0.502059
0.502089
0.502119
0.502119
0.502149
0.50218
0.50221
0.50224
0.50224
0.50227
0.502301
0.502331
0.502362
0.502362
0.502392
0.502423
0.502453
0.502484
0.502484
0.502514
0.502545
0.502576
0.502606
0.502606
0.502637
0.502668
0.502699
0.50273
0.50273
0.502761
0.502792
0.502822
0.502853
0.502853
0.502885
0.502916
0.502947
0.502978
0.502978
0.503009
0.50304
0.503072
0.503103
0.503103
0.503134
0.503165
0.503197
0.503228
0.503228
0.50326
0.503291
0.503323
0.503354
0.503354
0.503386
0.503418
0.503449
0.503481
0.503481
0.503513
0.503545
0.503576
0.503608
0.503608
0.50364
0.503672
0.503704
0.503736
0.503736
0.503768
0.5038
0.503832
0.503864
0.503864
0.503897
0.503929
0.503961
0.503993
0.503993
0.504026
0.504058
0.50409
0.504123
0.504123
0.504155
0.504188
0.50422
0.504253
0.504253
0.504285
0.504318
0.504351
0.504383
0.504383
0.504416
0.504449
0.504482
0.504515
0.504515
0.504548
0.50458
0.504613
0.504646
0.504646
0.504679
0.504713
0.504746
0.504779
0.504779
0.504812
0.504845
0.504878
0.504912
0.504912
0.504945
0.504978
0.505012
0.505045
0.505045
0.505079
0.505112
0.505146
0.505179
0.505179
0.505213
0.505246
0.50528
0.505314
0.505314
0.505348
0.505381
0.505415
0.505449
0.505449
0.505483
0.505517
0.505551
0.505585
0.505585
0.505619
0.505653
0.505687
0.505721
0.505721
0.505755
0.50579
0.505824
0.505858
0.505858
0.505892
0.505927
0.505961
0.505996
0.505996
0.50603
0.506065
0.506099
0.506134
0.506134
0.506168
0.506203
0.506238
0.506272
0.506272
0.506307
0.506342
0.506377
0.506412
0.506412
0.506446
0.506481
0.506516
0.506551
0.506551
0.506586
0.506621
0.506657
0.506692
0.506692
0.506727
0.506762
0.506797
0.506833
0.506833
0.506868
0.506903
0.506939
0.506974
0.506974
0.50701
0.507045
0.507081
0.507116
0.507116
0.507152
0.507188
0.507223
0.507259
0.507259
0.507295
0.50733
0.507366
0.507402
0.507402
0.507438
0.507474
0.50751
0.507546
0.507546
0.507582
0.507618
0.507654
0.50769
0.50769
0.507727
0.507763
0.507799
0.507835
0.507835
0.507872
0.507908
0.507945
0.507981
0.507981
0.508017
0.508054
0.508091
0.508127
0.508127
0.508164
0.5082
0.508237
0.508274
0.508274
0.508311
0.508347
0.508384
0.508421
0.508421
0.508458
0.508495
0.508532
0.508569
0.508569
0.508606
0.508643
0.50868
0.508717
0.508717
0.508755
0.508792
0.508829
0.508867
0.508867
0.508904
0.508941
0.508979
0.509016
0.509016
0.509054
0.509091
0.509129
0.509166
0.509166
0.509204
0.509242
0.509279
0.509317
0.509317
0.509355
0.509393
0.509431
0.509469
0.509469
0.509506
0.509544
0.509582
0.50962
0.50962
0.509659
0.509697
0.509735
0.509773
0.509773
0.509811
0.509849
0.509888
0.509926
0.509926
0.509965
0.510003
0.510041
0.51008
0.51008
0.510118
0.510157
0.510195
0.510234
0.510234
0.510273
0.510311
0.51035
0.510389
0.510389
0.510428
0.510467
0.510506
0.510544
0.510544
0.510583
0.510622
0.510661
0.5107
0.5107
0.51074
0.510779
0.510818
0.510857
0.510857
0.510896
0.510936
0.510975
0.511014
0.511014
0.511054
0.511093
0.511133
0.511172
0.511172
0.511212
0.511251
0.511291
0.511331
0.511331
0.51137
0.51141
0.51145
0.511489
0.511489
0.511529
0.511569
0.511609
0.511649
0.511649
0.511689
0.511729
0.511769
0.511809
0.511809
0.511849
0.511889
0.51193
0.51197
0.51197
0.51201
0.512051
0.512091
0.512131
0.512131
0.512172
0.512212
0.512253
0.512293
0.512293
0.512334
0.512374
0.512415
0.512456
0.512456
0.512496
0.512537
0.512578
0.512619
0.512619
0.51266
0.512701
0.512741
0.512782
0.512782
0.512823
0.512864
0.512906
0.512947
0.512947
0.512988
0.513029
0.51307
0.513112
0.513112
0.513153
0.513194
0.513236
0.513277
0.513277
0.513318
0.51336
0.513401
0.513443
0.513443
0.513485
0.513526
0.513568
0.51361
0.51361
0.513651
0.513693
0.513735
0.513777
0.513777
0.513819
0.513861
0.513903
0.513945
0.513945
0.513987
0.514029
0.514071
0.514113
0.514113
0.514155
0.514198
0.51424
0.514282
0.514282
0.514324
0.514367
0.514409
0.514452
0.514452
0.514494
0.514537
0.514579
0.514622
0.514622
0.514665
0.514707
0.51475
0.514793
0.514793
0.514836
0.514878
0.514921
0.514964
0.514964
0.515007
0.51505
0.515093
0.515136
0.515136
0.515179
0.515222
0.515265
0.515309
0.515309
0.515352
0.515395
0.515438
0.515482
0.515482
0.515525
0.515569
0.515612
0.515656
0.515656
0.515699
0.515743
0.515786
0.51583
0.51583
0.515874
0.515917
0.515961
0.516005
0.516005
0.516049
0.516093
0.516137
0.516181
0.516181
0.516224
0.516269
0.516313
0.516357
0.516357
0.516401
0.516445
0.516489
0.516533
0.516533
0.516578
0.516622
0.516666
0.516711
0.516711
0.516755
0.5168
0.516844
0.516889
0.516889
0.516933
0.516978
0.517023
0.517067
0.517067
0.517112
0.517157
0.517202
0.517246
0.517246
0.517291
0.517336
0.517381
0.517426
0.517426
0.517471
0.517516
0.517561
0.517607
0.517607
0.517652
0.517697
0.517742
0.517788
0.517788
0.517833
0.517878
0.517924
0.517969
0.517969
0.518015
0.51806
0.518106
0.518151
0.518151
0.518197
0.518243
0.518288
0.518334
0.518334
0.51838
0.518426
0.518472
0.518517
0.518517
0.518563
0.518609
0.518655
0.518701
0.518701
0.518748
0.518794
0.51884
0.518886
0.518886
0.518932
0.518979
0.519025
0.519071
0.519071
0.519118
0.519164
0.51921
0.519257
0.519257
0.519304
0.51935
0.519397
0.519443
0.519443
0.51949
0.519537
0.519584
0.51963
0.51963
0.519677
0.519724
0.519771
0.519818
0.519818
0.519865
0.519912
0.519959
0.520006
0.520006
0.520053
0.520101
0.520148
0.520195
0.520195
0.520242
0.52029
0.520337
0.520385
0.520385
0.520432
0.520479
0.520527
0.520575
0.520575
0.520622
0.52067
0.520717
0.520765
0.520765
0.520813
0.520861
0.520909
0.520956
0.520956
0.521004
0.521052
0.5211
0.521148
0.521148
0.521196
0.521245
0.521293
0.521341
0.521341
0.521389
0.521437
0.521486
0.521534
0.521534
0.521582
0.521631
0.521679
0.521728
0.521728
0.521776
0.521825
0.521873
0.521922
0.521922
0.521971
0.522019
0.522068
0.522117
0.522117
0.522166
0.522215
0.522264
0.522312
0.522312
0.522361
0.52241
0.52246
0.522509
0.522509
0.522558
0.522607
0.522656
0.522705
0.522705
0.522755
0.522804
0.522853
0.522903
0.522903
0.522952
0.523002
0.523051
0.523101
0.523101
0.52315
0.5232
0.52325
0.523299
0.523299
0.523349
0.523399
0.523449
0.523499
0.523499
0.523549
0.523599
0.523649
0.523699
0.523699
0.523749
0.523799
0.523849
0.523899
0.523899
0.523949
0.523999
0.52405
0.5241
0.5241
0.52415
0.524201
0.524251
0.524302
0.524302
0.524352
0.524403
0.524453
0.524504
0.524504
0.524555
0.524606
0.524656
0.524707
0.524707
0.524758
0.524809
0.52486
0.524911
0.524911
0.524962
0.525013
0.525064
0.525115
0.525115
0.525166
0.525217
0.525268
0.52532
0.52532
0.525371
0.525422
0.525474
0.525525
0.525525
0.525577
0.525628
0.52568
0.525731
0.525731
0.525783
0.525834
0.525886
0.525938
0.525938
0.52599
0.526041
0.526093
0.526145
0.526145
0.526197
0.526249
0.526301
0.526353
0.526353
0.526405
0.526457
0.526509
0.526562
0.526562
0.526614
0.526666
0.526718
0.526771
0.526771
0.526823
0.526876
0.526928
0.526981
0.526981
0.527033
0.527086
0.527138
0.527191
0.527191
0.527244
0.527296
0.527349
0.527402
0.527402
0.527455
0.527508
0.527561
0.527614
0.527614
0.527667
0.52772
0.527773
0.527826
0.527826
0.527879
0.527932
0.527986
0.528039
0.528039
0.528092
0.528146
0.528199
0.528252
0.528252
0.528306
0.528359
0.528413
0.528467
0.528467
0.52852
0.528574
0.528628
0.528681
0.528681
0.528735
0.528789
0.528843
0.528897
0.528897
0.528951
0.529005
0.529059
0.529113
0.529113
0.529167
0.529221
0.529275
0.52933
0.52933
0.529384
0.529438
0.529493
0.529547
0.529547
0.529601
0.529656
0.52971
0.529765
0.529765
0.52982
0.529874
0.529929
0.529984
0.529984
0.530038
0.530093
0.530148
0.530203
0.530203
0.530258
0.530313
0.530368
0.530423
0.530423
0.530478
0.530533
0.530588
0.530643
0.530643
0.530698
0.530754
0.530809
0.530864
0.530864
0.53092
0.530975
0.531031
0.531086
0.531086
0.531142
0.531197
0.531253
0.531308
0.531308
0.531364
0.53142
0.531476
0.531531
0.531531
0.531587
0.531643
0.531699
0.531755
0.531755
0.531811
0.531867
0.531923
0.531979
0.531979
0.532036
0.532092
0.532148
0.532204
0.532204
0.532261
0.532317
0.532374
0.53243
0.53243
0.532487
0.532543
0.5326
0.532656
0.532656
0.532713
0.53277
0.532826
0.532883
0.532883
0.53294
0.532997
0.533054
0.533111
0.533111
0.533168
0.533225
0.533282
0.533339
0.533339
0.533396
0.533453
0.53351
0.533568
0.533568
0.533625
0.533682
0.53374
0.533797
0.533797
0.533855
0.533912
0.53397
0.534027
0.534027
0.534085
0.534142
0.5342
0.534258
0.534258
0.534316
0.534374
0.534431
0.534489
0.534489
0.534547
0.534605
0.534663
0.534721
0.534721
0.534779
0.534838
0.534896
0.534954
0.534954
0.535012
0.535071
0.535129
0.535187
0.535187
0.535246
0.535304
0.535363
0.535421
0.535421
0.53548
0.535538
0.535597
0.535656
0.535656
0.535715
0.535773
0.535832
0.535891
0.535891
0.53595
0.536009
0.536068
0.536127
0.536127
0.536186
0.536245
0.536304
0.536364
0.536364
0.536423
0.536482
0.536541
0.536601
0.536601
0.53666
0.53672
0.536779
0.536839
0.536839
0.536898
0.536958
0.537017
0.537077
0.537077
0.537137
0.537197
0.537256
0.537316
0.537316
0.537376
0.537436
0.537496
0.537556
0.537556
0.537616
0.537676
0.537736
0.537797
0.537797
0.537857
0.537917
0.537977
0.538038
0.538038
0.538098
0.538159
0.538219
0.538279
0.538279
0.53834
0.538401
0.538461
0.538522
0.538522
0.538583
0.538643
0.538704
0.538765
0.538765
0.538826
0.538887
0.538948
0.539009
0.539009
0.53907
0.539131
0.539192
0.539253
0.539253
0.539314
0.539376
0.539437
0.539498
0.539498
0.53956
0.539621
0.539682
0.539744
0.539744
0.539805
0.539867
0.539929
0.53999
0.53999
0.540052
0.540114
0.540176
0.540237
0.540237
0.540299
0.540361
0.540423
0.540485
0.540485
0.540547
0.540609
0.540671
0.540733
0.540733
0.540796
0.540858
0.54092
0.540982
0.540982
0.541045
0.541107
0.54117
0.541232
0.541232
0.541295
0.541357
0.54142
0.541482
0.541482
0.541545
0.541608
0.541671
0.541733
0.541733
0.541796
0.541859
0.541922
0.541985
0.541985
0.542048
0.542111
0.542174
0.542237
0.542237
0.542301
0.542364
0.542427
0.54249
0.54249
0.542554
0.542617
0.542681
0.542744
0.542744
0.542808
0.542871
0.542935
0.542999
0.542999
0.543062
0.543126
0.54319
0.543254
0.543254
0.543317
0.543381
0.543445
0.543509
0.543509
0.543573
0.543637
0.543701
0.543766
0.543766
0.54383
0.543894
0.543958
0.544023
0.544023
0.544087
0.544151
0.544216
0.54428
0.54428
0.544345
0.544409
0.544474
0.544539
0.544539
0.544603
0.544668
0.544733
0.544798
0.544798
0.544863
0.544927
0.544992
0.545057
0.545057
0.545122
0.545187
0.545253
0.545318
0.545318
0.545383
0.545448
0.545513
0.545579
0.545579
0.545644
0.54571
0.545775
0.545841
0.545841
0.545906
0.545972
0.546037
0.546103
0.546103
0.546169
0.546234
0.5463
0.546366
0.546366
0.546432
0.546498
0.546564
0.54663
0.54663
0.546696
0.546762
0.546828
0.546894
0.546894
0.54696
0.547027
0.547093
0.547159
0.547159
0.547226
0.547292
0.547359
0.547425
0.547425
0.547492
0.547558
0.547625
0.547692
0.547692
0.547758
0.547825
0.547892
0.547959
0.547959
0.548026
0.548093
0.54816
0.548227
0.548227
0.548294
0.548361
0.548428
0.548495
0.548495
0.548562
0.54863
0.548697
0.548764
0.548764
0.548832
0.548899
0.548967
0.549034
0.549034
0.549102
0.54917
0.549237
0.549305
0.549305
0.549373
0.54944
0.549508
0.549576
0.549576
0.549644
0.549712
0.54978
0.549848
0.549848
0.549916
0.549984
0.550053
0.550121
0.550121
0.550189
0.550257
0.550326
0.550394
0.550394
0.550463
0.550531
0.5506
0.550668
0.550668
0.550737
0.550805
0.550874
0.550943
0.550943
0.551012
0.55108
0.551149
0.551218
0.551218
0.551287
0.551356
0.551425
0.551494
0.551494
0.551563
0.551633
0.551702
0.551771
0.551771
0.55184
0.55191
0.551979
0.552049
0.552049
0.552118
0.552188
0.552257
0.552327
0.552327
0.552396
0.552466
0.552536
0.552606
0.552606
0.552675
0.552745
0.552815
0.552885
0.552885
0.552955
0.553025
0.553095
0.553165
0.553165
0.553236
0.553306
0.553376
0.553446
0.553446
0.553517
0.553587
0.553658
0.553728
0.553728
0.553799
0.553869
0.55394
0.55401
0.55401
0.554081
0.554152
0.554223
0.554294
0.554294
0.554364
0.554435
0.554506
0.554577
0.554577
0.554648
0.554719
0.554791
0.554862
0.554862
0.554933
0.555004
0.555076
0.555147
0.555147
0.555218
0.55529
0.555361
0.555433
0.555433
0.555504
0.555576
0.555648
0.555719
0.555719
0.555791
0.555863
0.555935
0.556007
0.556007
0.556079
0.55615
0.556222
0.556295
0.556295
0.556367
0.556439
0.556511
0.556583
0.556583
0.556656
0.556728
0.5568
0.556873
0.556873
0.556945
0.557018
0.55709
0.557163
0.557163
0.557235
0.557308
0.557381
0.557454
0.557454
0.557526
0.557599
0.557672
0.557745
0.557745
0.557818
0.557891
0.557964
0.558037
0.558037
0.55811
0.558184
0.558257
0.55833
0.55833
0.558404
0.558477
0.55855
0.558624
0.558624
0.558697
0.558771
0.558845
0.558918
0.558918
0.558992
0.559066
0.559139
0.559213
0.559213
0.559287
0.559361
0.559435
0.559509
0.559509
0.559582
0.559656
0.559729
0.559802
0.559802
0.559875
0.559945
0.560014
0.56008
0.56008
0.560145
0.560209
0.560273
0.560335
0.560335
0.560398
0.560461
0.560524
0.560587
0.560587
0.560649
0.560712
0.560775
0.560838
0.560838
0.560901
0.560963
0.561026
0.561089
0.561089
0.561152
0.561215
0.561278
0.561342
0.561342
0.561405
0.561468
0.561531
0.561594
0.561594
0.561658
0.561721
0.561784
0.561848
0.561848
0.561911
0.561974
0.562038
0.562101
0.562101
0.562165
0.562229
0.562292
0.562356
0.562356
0.56242
0.562483
0.562547
0.562611
0.562611
0.562675
0.562738
0.562802
0.562866
0.562866
0.56293
0.562994
0.563058
0.563122
0.563122
0.563186
0.56325
0.563315
0.563379
0.563379
0.563443
0.563507
0.563571
0.563636
0.563636
0.5637
0.563764
0.563829
0.563893
0.563893
0.563958
0.564022
0.564087
0.564151
0.564151
0.564215
0.56428
0.564344
0.564408
0.564408
0.564472
0.564536
0.564599
0.564661
0.564661
0.564722
0.564782
0.56484
0.564897
0.564897
0.564952
0.565006
0.565059
0.565111
0.565111
0.565163
0.565215
0.565267
0.565318
0.565318
0.56537
0.565421
0.565473
0.565524
0.565524
0.565576
0.565627
0.565678
0.56573
0.56573
0.565781
0.565833
0.565885
0.565936
0.565936
0.565988
0.566039
0.566091
0.566143
0.566143
0.566194
0.566246
0.566298
0.566349
0.566349
0.566401
0.566453
0.566505
0.566557
0.566557
0.566608
0.56666
0.566712
0.566764
0.566764
0.566816
0.566868
0.56692
0.566972
0.566972
0.567024
0.567076
0.567128
0.56718
0.56718
0.567232
0.567284
0.567336
0.567388
0.567388
0.567441
0.567493
0.567545
0.567597
0.567597
0.567649
0.567702
0.567754
0.567806
0.567806
0.567858
0.567911
0.567963
0.568015
0.568015
0.568068
0.56812
0.568172
0.568224
0.568224
0.568275
0.568327
0.568378
0.568428
0.568428
0.568478
0.568527
0.568575
0.568622
0.568622
0.568668
0.568713
0.568757
0.568801
0.568801
0.568843
0.568885
0.568926
0.568968
0.568968
0.569009
0.56905
0.56909
0.569131
0.569131
0.569172
0.569212
0.569253
0.569293
0.569293
0.569334
0.569375
0.569415
0.569456
0.569456
0.569497
0.569537
0.569578
0.569619
0.569619
0.569659
0.5697
0.569741
0.569781
0.569781
0.569822
0.569863
0.569904
0.569944
0.569944
0.569985
0.570026
0.570067
0.570108
0.570108
0.570148
0.570189
0.57023
0.570271
0.570271
0.570312
0.570353
0.570393
0.570434
0.570434
0.570475
0.570516
0.570557
0.570598
0.570598
0.570639
0.57068
0.570721
0.570762
0.570762
0.570803
0.570844
0.570885
0.570926
0.570926
0.570967
0.571008
0.571049
0.571089
0.571089
0.57113
0.571171
0.571211
0.571251
0.571251
0.571291
0.571331
0.57137
0.571408
0.571408
0.571446
0.571484
0.57152
0.571557
0.571557
0.571592
0.571627
0.571661
0.571694
0.571694
0.571727
0.57176
0.571793
0.571825
0.571825
0.571857
0.571888
0.57192
0.571952
0.571952
0.571983
0.572015
0.572046
0.572078
0.572078
0.572109
0.572141
0.572172
0.572204
0.572204
0.572235
0.572266
0.572298
0.572329
0.572329
0.572361
0.572392
0.572424
0.572455
0.572455
0.572487
0.572518
0.57255
0.572582
0.572582
0.572613
0.572645
0.572676
0.572708
0.572708
0.572739
0.572771
0.572802
0.572834
0.572834
0.572866
0.572897
0.572929
0.57296
0.57296
0.572992
0.573024
0.573055
0.573087
0.573087
0.573119
0.57315
0.573182
0.573213
0.573213
0.573245
0.573277
0.573308
0.573339
0.573339
0.573371
0.573402
0.573433
0.573464
0.573464
0.573495
0.573525
0.573555
0.573585
0.573585
0.573615
0.573644
0.573672
0.573701
0.573701
0.573728
0.573756
0.573783
0.573809
0.573809
0.573835
0.573861
0.573887
0.573912
0.573912
0.573937
0.573962
0.573986
0.574011
0.574011
0.574035
0.574059
0.574084
0.574108
0.574108
0.574132
0.574157
0.574181
0.574205
0.574205
0.574229
0.574253
0.574278
0.574302
0.574302
0.574326
0.57435
0.574374
0.574399
0.574399
0.574423
0.574447
0.574471
0.574495
0.574495
0.57452
0.574544
0.574568
0.574592
0.574592
0.574617
0.574641
0.574665
0.574689
0.574689
0.574714
0.574738
0.574762
0.574786
0.574786
0.574811
0.574835
0.574859
0.574883
0.574883
0.574908
0.574932
0.574956
0.57498
0.57498
0.575004
0.575028
0.575052
0.575076
0.575076
0.5751
0.575124
0.575148
0.575171
0.575171
0.575194
0.575217
0.57524
0.575262
0.575262
0.575284
0.575306
0.575328
0.575349
0.575349
0.57537
0.575391
0.575412
0.575432
0.575432
0.575452
0.575472
0.575491
0.575511
0.575511
0.57553
0.575549
0.575568
0.575587
0.575587
0.575606
0.575624
0.575643
0.575662
0.575662
0.57568
0.575699
0.575718
0.575736
0.575736
0.575755
0.575773
0.575792
0.575811
0.575811
0.575829
0.575848
0.575866
0.575885
0.575885
0.575904
0.575922
0.575941
0.575959
0.575959
0.575978
0.575997
0.576015
0.576034
0.576034
0.576053
0.576071
0.57609
0.576108
0.576108
0.576127
0.576146
0.576164
0.576183
0.576183
0.576202
0.57622
0.576239
0.576257
0.576257
0.576276
0.576294
0.576313
0.576331
0.576331
0.576349
0.576368
0.576386
0.576404
0.576404
0.576422
0.576439
0.576457
0.576474
0.576474
0.576492
0.576509
0.576525
0.576542
0.576542
0.576559
0.576575
0.576591
0.576607
0.576607
0.576623
0.576638
0.576654
0.576669
0.576669
0.576684
0.576699
0.576714
0.576728
0.576728
0.576743
0.576758
0.576772
0.576787
0.576787
0.576801
0.576816
0.57683
0.576845
0.576845
0.576859
0.576873
0.576888
0.576902
0.576902
0.576916
0.576931
0.576945
0.57696
0.57696
0.576974
0.576988
0.577003
0.577017
0.577017
0.577031
0.577046
0.57706
0.577075
0.577075
0.577089
0.577103
0.577118
0.577132
0.577132
0.577147
0.577161
0.577175
0.57719
0.57719
0.577204
0.577218
0.577233
0.577247
0.577247
0.577261
0.577275
0.57729
0.577304
0.577304
0.577318
0.577332
0.577346
0.577359
0.577359
0.577373
0.577387
0.5774
0.577413
0.577413
0.577427
0.57744
0.577453
0.577465
0.577465
0.577478
0.577491
0.577503
0.577516
0.577516
0.577528
0.57754
0.577552
0.577564
0.577564
0.577575
0.577587
0.577599
0.57761
0.57761
0.577622
0.577633
0.577645
0.577656
0.577656
0.577667
0.577679
0.57769
0.577701
0.577701
0.577712
0.577723
0.577735
0.577746
0.577746
0.577757
0.577768
0.57778
0.577791
0.577791
0.577802
0.577813
0.577824
0.577836
0.577836
0.577847
0.577858
0.577869
0.577881
0.577881
0.577892
0.577903
0.577914
0.577925
0.577925
0.577937
0.577948
0.577959
0.57797
0.57797
0.577981
0.577992
0.578004
0.578015
0.578015
0.578026
0.578037
0.578047
0.578058
0.578058
0.578069
0.57808
0.57809
0.578101
0.578101
0.578112
0.578122
0.578132
0.578142
0.578142
0.578153
0.578163
0.578173
0.578183
0.578183
0.578192
0.578202
0.578212
0.578221
0.578221
0.578231
0.57824
0.578249
0.578259
0.578259
0.578268
0.578277
0.578286
0.578295
0.578295
0.578304
0.578313
0.578322
0.578331
0.578331
0.57834
0.578349
0.578358
0.578367
0.578367
0.578376
0.578385
0.578393
0.578402
0.578402
0.578411
0.57842
0.578429
0.578438
0.578438
0.578447
0.578456
0.578464
0.578473
0.578473
0.578482
0.578491
0.5785
0.578509
0.578509
0.578518
0.578527
0.578535
0.578544
0.578544
0.578553
0.578562
0.578571
0.578579
0.578579
0.578588
0.578597
0.578605
0.578614
0.578614
0.578622
0.578631
0.578639
0.578648
0.578648
0.578656
0.578664
0.578673
0.578681
0.578681
0.578689
0.578697
0.578705
0.578713
0.578713
0.578721
0.578728
0.578736
0.578744
0.578744
0.578752
0.578759
0.578767
0.578774
0.578774
0.578782
0.578789
0.578796
0.578804
0.578804
0.578811
0.578818
0.578825
0.578833
0.578833
0.57884
0.578847
0.578854
0.578861
0.578861
0.578869
0.578876
0.578883
0.57889
0.57889
0.578897
0.578904
0.578912
0.578919
0.578919
0.578926
0.578933
0.57894
0.578947
0.578947
0.578954
0.578962
0.578969
0.578976
0.578976
0.578983
0.57899
0.578997
0.579004
0.579004
0.579011
0.579018
0.579025
0.579032
0.579032
0.579039
0.579046
0.579053
0.57906
0.57906
0.579067
0.579074
0.579081
0.579087
0.579087
0.579094
0.579101
0.579107
0.579114
0.579114