<?xml version="1.0"?>
<VTKFile type="UnstructuredGrid" version="0.1" byte_order="LittleEndian">
<UnstructuredGrid>
<Piece NumberOfPoints="5000" NumberOfCells="4000">
<PointData Scalars="Reaction 0">
<DataArray type="Float32" Name="Reaction 0" format="ascii">
0.210765
0.210765
0.210765
0.210765
0.210765
0.210765
0.210765
0.210766
0.210766
0.210766
0.210766
0.210766
0.210767
0.210767
0.210767
0.210767
0.210768
0.210768
0.210769
0.210769
0.210769
0.21077
0.21077
0.210771
0.210772
0.210772
0.210773
0.210773
0.210774
0.210775
0.210775
0.210776
0.210777
0.210777
0.210778
0.210778
0.210779
0.21078
0.210781
0.210783
0.210783
0.210784
0.210785
0.210786
0.210787
0.210787
0.210788
0.21079
0.210791
0.210792
0.210792
0.210794
0.210795
0.210797
0.210798
0.210798
0.2108
0.210801
0.210803
0.210805
0.210805
0.210806
0.210808
0.21081
0.210811
0.210811
0.210813
0.210815
0.210817
0.210819
0.210819
0.210821
0.210823
0.210825
0.210827
0.210827
0.210829
0.210831
0.210833
0.210835
0.210835
0.210838
0.21084
0.210842
0.210845
0.210845
0.210847
0.210849
0.210852
0.210854
0.210854
0.210857
0.210859
0.210862
0.210864
0.210864
0.210867
0.21087
0.210872
0.210875
0.210875
0.210878
0.210881
0.210884
0.210886
0.210886
0.210889
0.210892
0.210895
0.210898
0.210898
0.210901
0.210904
0.210908
0.210911
0.210911
0.210914
0.210917
0.21092
0.210924
0.210924
0.210927
0.21093
0.210934
0.210937
0.210937
0.210941
0.210944
0.210948
0.210951
0.210951
0.210955
0.210958
0.210962
0.210966
0.210966
0.210969
0.210973
0.210977
0.210981
0.210981
0.210985
0.210989
0.210993
0.210997
0.210997
0.211001
0.211005
0.211009
0.211013
0.211013
0.211017
0.211021
0.211025
0.21103
0.21103
0.211034
0.211038
0.211043
0.211047
0.211047
0.211051
0.211056
0.21106
0.211065
0.211065
0.211069
0.211074
0.211079
0.211083
0.211083
0.211088
0.211093
0.211098
0.211102
0.211102
0.211107
0.211112
0.211117
0.211122
0.211122
0.211127
0.211132
0.211137
0.211142
0.211142
0.211147
0.211152
0.211158
0.211163
0.211163
0.211168
0.211173
0.211179
0.211184
0.211184
0.211189
0.211195
0.2112
0.211206
0.211206
0.211211
0.211217
0.211222
0.211228
0.211228
0.211234
0.211239
0.211245
0.211251
0.211251
0.211257
0.211263
0.211268
0.211274
0.211274
0.21128
0.211286
0.211292
0.211298
0.211298
0.211304
0.21131
0.211317
0.211323
0.211323
0.211329
0.211335
0.211342
0.211348
0.211348
0.211354
0.211361
0.211367
0.211373
0.211373
0.21138
0.211387
0.211393
0.2114
0.2114
0.211406
0.211413
0.21142
0.211426
0.211426
0.211433
0.21144
0.211447
0.211454
0.211454
0.211461
0.211468
0.211474
0.211481
0.211481
0.211489
0.211496
0.211503
0.21151
0.21151
0.211517
0.211524
0.211532
0.211539
0.211539
0.211546
0.211553
0.211561
0.211568
0.211568
0.211576
0.211583
0.211591
0.211598
0.211598
0.211606
0.211614
0.211621
0.211629
0.211629
0.211637
0.211644
0.211652
0.21166
0.21166
0.211668
0.211676
0.211684
0.211692
0.211692
0.2117
0.211708
0.211716
0.211724
0.211724
0.211732
0.21174
0.211748
0.211757
0.211757
0.211765
0.211773
0.211782
0.21179
0.21179
0.211798
0.211807
0.211815
0.211824
0.211824
0.211832
0.211841
0.21185
0.211858
0.211858
0.211867
0.211876
0.211885
0.211893
0.211893
0.211902
0.211911
0.21192
0.211929
0.211929
0.211938
0.211947
0.211956
0.211965
0.211965
0.211974
0.211983
0.211992
0.212002
0.212002
0.212011
0.21202
0.212029
0.212039
0.212039
0.212048
0.212058
0.212067
0.212077
0.212077
0.212086
0.212096
0.212105
0.212115
0.212115
0.212125
0.212134
0.212144
0.212154
0.212154
0.212163
0.212173
0.212183
0.212193
0.212193
0.212203
0.212213
0.212223
0.212233
0.212233
0.212243
0.212253
0.212263
0.212274
0.212274
0.212284
0.212294
0.212304
0.212315
0.212315
0.212325
0.212335
0.212346
0.212356
0.212356
0.212367
0.212377
0.212388
0.212398
0.212398
0.212409
0.21242
0.21243
0.212441
0.212441
0.212452
0.212463
0.212473
0.212484
0.212484
0.212495
0.212506
0.212517
0.212528
0.212528
0.212539
0.21255
0.212561
0.212572
0.212572
0.212584
0.212595
0.212606
0.212617
0.212617
0.212629
0.21264
0.212651
0.212663
0.212663
0.212674
0.212686
0.212697
0.212709
0.212709
0.21272
0.212732
0.212744
0.212755
0.212755
0.212767
0.212779
0.212791
0.212802
0.212802
0.212814
0.212826
0.212838
0.21285
0.21285
0.212862
0.212874
0.212886
0.212898
0.212898
0.21291
0.212923
0.212935
0.212947
0.212947
0.212959
0.212972
0.212984
0.212996
0.212996
0.213009
0.213021
0.213034
0.213046
0.213046
0.213059
0.213071
0.213084
0.213097
0.213097
0.213109
0.213122
0.213135
0.213148
0.213148
0.21316
0.213173
0.213186
0.213199
0.213199
0.213212
0.213225
0.213238
0.213251
0.213251
0.213264
0.213277
0.213291
0.213304
0.213304
0.213317
0.21333
0.213344
0.213357
0.213357
0.21337
0.213384
0.213397
0.213411
0.213411
0.213424
0.213438
0.213451
0.213465
0.213465
0.213479
0.213492
0.213506
0.21352
0.21352
0.213534
0.213547
0.213561
0.213575
0.213575
0.213589
0.213603
0.213617
0.213631
0.213631
0.213645
0.213659
0.213673
0.213688
0.213688
0.213702
0.213716
0.21373
0.213745
0.213745
0.213759
0.213773
0.213788
0.213802
0.213802
0.213817
0.213831
0.213846
0.21386
0.21386
0.213875
0.21389
0.213904
0.213919
0.213919
0.213934
0.213949
0.213963
0.213978
0.213978
0.213993
0.214008
0.214023
0.214038
0.214038
0.214053
0.214068
0.214083
0.214098
0.214098
0.214114
0.214129
0.214144
0.214159
0.214159
0.214175
0.21419
0.214205
0.214221
0.214221
0.214236
0.214252
0.214267
0.214283
0.214283
0.214298
0.214314
0.21433
0.214345
0.214345
0.214361
0.214377
0.214392
0.214408
0.214408
0.214424
0.21444
0.214456
0.214472
0.214472
0.214488
0.214504
0.21452
0.214536
0.214536
0.214552
0.214568
0.214585
0.214601
0.214601
0.214617
0.214633
0.21465
0.214666
0.214666
0.214683
0.214699
0.214715
0.214732
0.214732
0.214749
0.214765
0.214782
0.214798
0.214798
0.214815
0.214832
0.214849
0.214865
0.214865
0.214882
0.214899
0.214916
0.214933
0.214933
0.21495
0.214967
0.214984
0.215001
0.215001
0.215018
0.215035
0.215052
0.215069
0.215069
0.215087
0.215104
0.215121
0.215139
0.215139
0.215156
0.215173
0.215191
0.215208
0.215208
0.215226
0.215243
0.215261
0.215279
0.215279
0.215296
0.215314
0.215332
0.215349
0.215349
0.215367
0.215385
0.215403
0.215421
0.215421
0.215439
0.215457
0.215475
0.215493
0.215493
0.215511
0.215529
0.215547
0.215565
0.215565
0.215583
0.215601
0.21562
0.215638
0.215638
0.215656
0.215675
0.215693
0.215712
0.215712
0.21573
0.215749
0.215767
0.215786
0.215786
0.215804
0.215823
0.215842
0.21586
0.21586
0.215879
0.215898
0.215917
0.215936
0.215936
0.215954
0.215973
0.215992
0.216011
0.216011
0.21603
0.216049
0.216068
0.216088
0.216088
0.216107
0.216126
0.216145
0.216164
0.216164
0.216184
0.216203
0.216222
0.216242
0.216242
0.216261
0.216281
0.2163
0.21632
0.21632
0.216339
0.216359
0.216379
0.216398
0.216398
0.216418
0.216438
0.216458
0.216477
0.216477
0.216497
0.216517
0.216537
0.216557
0.216557
0.216577
0.216597
0.216617
0.216637
0.216637
0.216657
0.216677
0.216698
0.216718
0.216718
0.216738
0.216758
0.216779
0.216799
0.216799
0.216819
0.21684
0.21686
0.216881
0.216881
0.216901
0.216922
0.216943
0.216963
0.216963
0.216984
0.217005
0.217025
0.217046
0.217046
0.217067
0.217088
0.217109
0.21713
0.21713
0.217151
0.217172
0.217193
0.217214
0.217214
0.217235
0.217256
0.217277
0.217298
0.217298
0.217319
0.217341
0.217362
0.217383
0.217383
0.217405
0.217426
0.217448
0.217469
0.217469
0.21749
0.217512
0.217534
0.217555
0.217555
0.217577
0.217599
0.21762
0.217642
0.217642
0.217664
0.217686
0.217707
0.217729
0.217729
0.217751
0.217773
0.217795
0.217817
0.217817
0.217839
0.217861
0.217883
0.217906
0.217906
0.217928
0.21795
0.217972
0.217995
0.217995
0.218017
0.218039
0.218062
0.218084
0.218084
0.218107
0.218129
0.218152
0.218174
0.218174
0.218197
0.218219
0.218242
0.218265
0.218265
0.218288
0.21831
0.218333
0.218356
0.218356
0.218379
0.218402
0.218425
0.218448
0.218448
0.218471
0.218494
0.218517
0.21854
0.21854
0.218563
0.218586
0.21861
0.218633
0.218633
0.218656
0.218679
0.218703
0.218726
0.218726
0.21875
0.218773
0.218797
0.21882
0.21882
0.218844
0.218867
0.218891
0.218915
0.218915
0.218938
0.218962
0.218986
0.21901
0.21901
0.219033
0.219057
0.219081
0.219105
0.219105
0.219129
0.219153
0.219177
0.219201
0.219201
0.219225
0.21925
0.219274
0.219298
0.219298
0.219322
0.219346
0.219371
0.219395
0.219395
0.21942
0.219444
0.219468
0.219493
0.219493
0.219517
0.219542
0.219567
0.219591
0.219591
0.219616
0.219641
0.219665
0.21969
0.21969
0.219715
0.21974
0.219765
0.21979
0.21979
0.219815
0.21984
0.219865
0.21989
0.21989
0.219915
0.21994
0.219965
0.21999
0.21999
0.220015
0.220041
0.220066
0.220091
0.220091
0.220117
0.220142
0.220167
0.220193
0.220193
0.220218
0.220244
0.220269
0.220295
0.220295
0.220321
0.220346
0.220372
0.220398
0.220398
0.220424
0.220449
0.220475
0.220501
0.220501
0.220527
0.220553
0.220579
0.220605
0.220605
0.220631
0.220657
0.220683
0.220709
0.220709
0.220735
0.220762
0.220788
0.220814
0.220814
0.22084
0.220867
0.220893
0.22092
0.22092
0.220946
0.220973
0.220999
0.221026
0.221026
0.221052
0.221079
0.221106
0.221132
0.221132
0.221159
0.221186
0.221213
0.221239
0.221239
0.221266
0.221293
0.22132
0.221347
0.221347
0.221374
0.221401
0.221428
0.221455
0.221455
0.221482
0.22151
0.221537
0.221564
0.221564
0.221591
0.221619
0.221646
0.221673
0.221673
0.221701
0.221728
0.221756
0.221783
0.221783
0.221811
0.221839
0.221866
0.221894
0.221894
0.221922
0.221949
0.221977
0.222005
0.222005
0.222033
0.22206
0.222088
0.222116
0.222116
0.222144
0.222172
0.2222
0.222228
0.222228
0.222257
0.222285
0.222313
0.222341
0.222341
0.222369
0.222398
0.222426
0.222454
0.222454
0.222483
0.222511
0.22254
0.222568
0.222568
0.222597
0.222625
0.222654
0.222682
0.222682
0.222711
0.22274
0.222768
0.222797
0.222797
0.222826
0.222855
0.222884
0.222913
0.222913
0.222941
0.22297
0.222999
0.223028
0.223028
0.223058
0.223087
0.223116
0.223145
0.223145
0.223174
0.223203
0.223233
0.223262
0.223262
0.223291
0.223321
0.22335
0.22338
0.22338
0.223409
0.223439
0.223468
0.223498
0.223498
0.223527
0.223557
0.223587
0.223616
0.223616
0.223646
0.223676
0.223706
0.223736
0.223736
0.223766
0.223795
0.223825
0.223855
0.223855
0.223885
0.223916
0.223946
0.223976
0.223976
0.224006
0.224036
0.224066
0.224097
0.224097
0.224127
0.224157
0.224188
0.224218
0.224218
0.224249
0.224279
0.22431
0.22434
0.22434
0.224371
0.224401
0.224432
0.224463
0.224463
0.224493
0.224524
0.224555
0.224586
0.224586
0.224617
0.224648
0.224678
0.224709
0.224709
0.22474
0.224771
0.224803
0.224834
0.224834
0.224865
0.224896
0.224927
0.224958
0.224958
0.22499
0.225021
0.225052
0.225084
0.225084
0.225115
0.225147
0.225178
0.225209
0.225209
0.225241
0.225273
0.225304
0.225336
0.225336
0.225368
0.225399
0.225431
0.225463
0.225463
0.225495
0.225527
0.225558
0.22559
0.22559
0.225622
0.225654
0.225686
0.225718
0.225718
0.22575
0.225783
0.225815
0.225847
0.225847
0.225879
0.225911
0.225944
0.225976
0.225976
0.226008
0.226041
0.226073
0.226106
0.226106
0.226138
0.226171
0.226203
0.226236
0.226236
0.226269
0.226301
0.226334
0.226367
0.226367
0.2264
0.226432
0.226465
0.226498
0.226498
0.226531
0.226564
0.226597
0.22663
0.22663
0.226663
0.226696
0.226729
0.226763
0.226763
0.226796
0.226829
0.226862
0.226896
0.226896
0.226929
0.226962
0.226996
0.227029
0.227029
0.227063
0.227096
0.22713
0.227163
0.227163
0.227197
0.22723
0.227264
0.227298
0.227298
0.227332
0.227365
0.227399
0.227433
0.227433
0.227467
0.227501
0.227535
0.227569
0.227569
0.227603
0.227637
0.227671
0.227705
0.227705
0.227739
0.227773
0.227808
0.227842
0.227842
0.227876
0.22791
0.227945
0.227979
0.227979
0.228014
0.228048
0.228083
0.228117
0.228117
0.228152
0.228186
0.228221
0.228256
0.228256
0.22829
0.228325
0.22836
0.228395
0.228395
0.22843
0.228464
0.228499
0.228534
0.228534
0.228569
0.228604
0.228639
0.228674
0.228674
0.22871
0.228745
0.22878
0.228815
0.228815
0.22885
0.228886
0.228921
0.228956
0.228956
0.228992
0.229027
0.229063
0.229098
0.229098
0.229134
0.229169
0.229205
0.229241
0.229241
0.229276
0.229312
0.229348
0.229383
0.229383
0.229419
0.229455
0.229491
0.229527
0.229527
0.229563
0.229599
0.229635
0.229671
0.229671
0.229707
0.229743
0.229779
0.229815
0.229815
0.229852
0.229888
0.229924
0.22996
0.22996
0.229997
0.230033
0.23007
0.230106
0.230106
0.230143
0.230179
0.230216
0.230252
0.230252
0.230289
0.230326
0.230362
0.230399
0.230399
0.230436
0.230473
0.230509
0.230546
0.230546
0.230583
0.23062
0.230657
0.230694
0.230694
0.230731
0.230768
0.230805
0.230842
0.230842
0.23088
0.230917
0.230954
0.230991
0.230991
0.231029
0.231066
0.231103
0.231141
0.231141
0.231178
0.231216
0.231253
0.231291
0.231291
0.231329
0.231366
0.231404
0.231442
0.231442
0.231479
0.231517
0.231555
0.231593
0.231593
0.231631
0.231668
0.231706
0.231744
0.231744
0.231782
0.23182
0.231858
0.231897
0.231897
0.231935
0.231973
0.232011
0.232049
0.232049
0.232088
0.232126
0.232164
0.232203
0.232203
0.232241
0.23228
0.232318
0.232357
0.232357
0.232395
0.232434
0.232472
0.232511
0.232511
0.23255
0.232588
0.232627
0.232666
0.232666
0.232705
0.232744
0.232783
0.232821
0.232821
0.23286
0.232899
0.232938
0.232978
0.232978
0.233017
0.233056
0.233095
0.233134
0.233134
0.233173
0.233213
0.233252
0.233291
0.233291
0.233331
0.23337
0.23341
0.233449
0.233449
0.233489
0.233528
0.233568
0.233607
0.233607
0.233647
0.233687
0.233726
0.233766
0.233766
0.233806
0.233846
0.233886
0.233925
0.233925
0.233965
0.234005
0.234045
0.234085
0.234085
0.234125
0.234166
0.234206
0.234246
0.234246
0.234286
0.234326
0.234367
0.234407
0.234407
0.234447
0.234488
0.234528
0.234568
0.234568
0.234609
0.234649
0.23469
0.234731
0.234731
0.234771
0.234812
0.234852
0.234893
0.234893
0.234934
0.234975
0.235016
0.235056
0.235056
0.235097
0.235138
0.235179
0.23522
0.23522
0.235261
0.235302
0.235343
0.235384
0.235384
0.235426
0.235467
0.235508
0.235549
0.235549
0.235591
0.235632
0.235673
0.235715
0.235715
0.235756
0.235798
0.235839
0.235881
0.235881
0.235922
0.235964
0.236005
0.236047
0.236047
0.236089
0.236131
0.236172
0.236214
0.236214
0.236256
0.236298
0.23634
0.236382
0.236382
0.236424
0.236466
0.236508
0.23655
0.23655
0.236592
0.236634
0.236676
0.236719
0.236719
0.236761
0.236803
0.236846
0.236888
0.236888
0.23693
0.236973
0.237015
0.237058
0.237058
0.2371
0.237143
0.237185
0.237228
0.237228
0.237271
0.237313
0.237356
0.237399
0.237399
0.237442
0.237485
0.237527
0.23757
0.23757
0.237613
0.237656
0.237699
0.237742
0.237742
0.237785
0.237829
0.237872
0.237915
0.237915
0.237958
0.238001
0.238045
0.238088
0.238088
0.238131
0.238175
0.238218
0.238262
0.238262
0.238305
0.238349
0.238392
0.238436
0.238436
0.238479
0.238523
0.238567
0.23861
0.23861
0.238654
0.238698
0.238742
0.238786
0.238786
0.23883
0.238874
0.238918
0.238962
0.238962
0.239006
0.23905
0.239094
0.239138
0.239138
0.239182
0.239226
0.239271
0.239315
0.239315
0.239359
0.239404
0.239448
0.239492
0.239492
0.239537
0.239581
0.239626
0.23967
0.23967
0.239715
0.23976
0.239804
0.239849
0.239849
0.239894
0.239938
0.239983
0.240028
0.240028
0.240073
0.240118
0.240163
0.240208
0.240208
0.240253
0.240298
0.240343
0.240388
0.240388
0.240433
0.240478
0.240523
0.240569
0.240569
0.240614
0.240659
0.240705
0.24075
0.24075
0.240795
0.240841
0.240886
0.240932
0.240932
0.240977
0.241023
0.241069
0.241114
0.241114
0.24116
0.241206
0.241251
0.241297
0.241297
0.241343
0.241389
0.241435
0.241481
0.241481
0.241527
0.241573
0.241619
0.241665
0.241665
0.241711
0.241757
0.241803
0.241849
0.241849
0.241895
0.241942
0.241988
0.242034
0.242034
0.242081
0.242127
0.242174
0.24222
0.24222
0.242267
0.242313
0.24236
0.242406
0.242406
0.242453
0.2425
0.242546
0.242593
0.242593
0.24264
0.242687
0.242734
0.24278
0.24278
0.242827
0.242874
0.242921
0.242968
0.242968
0.243015
0.243062
0.24311
0.243157
0.243157
0.243204
0.243251
0.243298
0.243346
0.243346
0.243393
0.24344
0.243488
0.243535
0.243535
0.243583
0.24363
0.243678
0.243725
0.243725
0.243773
0.24382
0.243868
0.243916
0.243916
0.243964
0.244011
0.244059
0.244107
0.244107
0.244155
0.244203
0.244251
0.244299
0.244299
0.244347
0.244395
0.244443
0.244491
0.244491
0.244539
0.244587
0.244636
0.244684
0.244684
0.244732
0.24478
0.244829
0.244877
0.244877
0.244926
0.244974
0.245022
0.245071
0.245071
0.24512
0.245168
0.245217
0.245265
0.245265
0.245314
0.245363
0.245412
0.24546
0.24546
0.245509
0.245558
0.245607
0.245656
0.245656
0.245705
0.245754
0.245803
0.245852
0.245852
0.245901
0.24595
0.245999
0.246049
0.246049
0.246098
0.246147
0.246197
0.246246
0.246246
0.246295
0.246345
0.246394
0.246444
0.246444
0.246493
0.246543
0.246592
0.246642
0.246642
0.246692
0.246741
0.246791
0.246841
0.246841
0.24689
0.24694
0.24699
0.24704
0.24704
0.24709
0.24714
0.24719
0.24724
0.24724
0.24729
0.24734
0.24739
0.24744
0.24744
0.247491
0.247541
0.247591
0.247641
0.247641
0.247692
0.247742
0.247793
0.247843
0.247843
0.247893
0.247944
0.247994
0.248045
0.248045
0.248096
0.248146
0.248197
0.248248
0.248248
0.248298
0.248349
0.2484
0.248451
0.248451
0.248502
0.248553
0.248604
0.248655
0.248655
0.248706
0.248757
0.248808
0.248859
0.248859
0.24891
0.248961
0.249012
0.249064
0.249064
0.249115
0.249166
0.249218
0.249269
0.249269
0.249321
0.249372
0.249423
0.249475
0.249475
0.249527
0.249578
0.24963
0.249681
0.249681
0.249733
0.249785
0.249837
0.249888
0.249888
0.24994
0.249992
0.250044
0.250096
0.250096
0.250148
0.2502
0.250252
0.250304
0.250304
0.250356
0.250408
0.250461
0.250513
0.250513
0.250565
0.250617
0.25067
0.250722
0.250722
0.250774
0.250827
0.250879
0.250932
0.250932
0.250984
0.251037
0.251089
0.251142
0.251142
0.251195
0.251247
0.2513
0.251353
0.251353
0.251406
0.251458
0.251511
0.251564
0.251564
0.251617
0.25167
0.251723
0.251776
0.251776
0.251829
0.251882
0.251935
0.251989
0.251989
0.252042
0.252095
0.252148
0.252202
0.252202
0.252255
0.252308
0.252362
0.252415
0.252415
0.252469
0.252522
0.252576
0.252629
0.252629
0.252683
0.252737
0.25279
0.252844
0.252844
0.252898
0.252952
0.253005
0.253059
0.253059
0.253113
0.253167
0.253221
0.253275
0.253275
0.253329
0.253383
0.253437
0.253491
0.253491
0.253545
0.2536
0.253654
0.253708
0.253708
0.253762
0.253817
0.253871
0.253925
0.253925
0.25398
0.254034
0.254089
0.254143
0.254143
0.254198
0.254253
0.254307
0.254362
0.254362
0.254417
0.254471
0.254526
0.254581
0.254581
0.254636
0.254691
0.254745
0.2548
0.2548
0.254855
0.25491
0.254965
0.25502
0.25502
0.255076
0.255131
0.255186
0.255241
0.255241
0.255296
0.255352
0.255407
0.255462
0.255462
0.255518
0.255573
0.255629
0.255684
0.255684
0.25574
0.255795
0.255851
0.255906
0.255906
0.255962
0.256018
0.256073
0.256129
0.256129
0.256185
0.256241
0.256297
0.256353
0.256353
0.256408
0.256464
0.25652
0.256576
0.256576
0.256633
0.256689
0.256745
0.256801
0.256801
0.256857
0.256913
0.25697
0.257026
0.257026
0.257082
0.257139
0.257195
0.257252
0.257252
0.257308
0.257364
0.257421
0.257478
0.257478
0.257534
0.257591
0.257648
0.257704
0.257704
0.257761
0.257818
0.257875
0.257931
0.257931
0.257988
0.258045
0.258102
0.258159
0.258159
0.258216
0.258273
0.25833
0.258387
0.258387
0.258445
0.258502
0.258559
0.258616
0.258616
0.258674
0.258731
0.258788
0.258846
0.258846
0.258903
0.25896
0.259018
0.259076
0.259076
0.259133
0.259191
0.259248
0.259306
0.259306
0.259364
0.259421
0.259479
0.259537
0.259537
0.259595
0.259653
0.259711
0.259768
0.259768
0.259826
0.259884
0.259943
0.260001
0.260001
0.260059
0.260117
0.260175
0.260233
0.260233
0.260291
0.26035
0.260408
0.260466
0.260466
0.260525
0.260583
0.260642
0.2607
0.2607
0.260759
0.260817
0.260876
0.260934
0.260934
0.260993
0.261052
0.26111
0.261169
0.261169
0.261228
0.261287
0.261346
0.261404
0.261404
0.261463
0.261522
0.261581
0.26164
0.26164
0.261699
0.261759
0.261818
0.261877
0.261877
0.261936
0.261995
0.262054
0.262114
0.262114
0.262173
0.262232
0.262292
0.262351
0.262351
0.262411
0.26247
0.26253
0.262589
0.262589
0.262649
0.262709
0.262768
0.262828
0.262828
0.262888
0.262947
0.263007
0.263067
0.263067
0.263127
0.263187
0.263247
0.263307
0.263307
0.263367
0.263427
0.263487
0.263547
0.263547
0.263607
0.263667
0.263728
0.263788
0.263788
0.263848
0.263908
0.263969
0.264029
0.264029
0.264089
0.26415
0.26421
0.264271
0.264271
0.264331
0.264392
0.264453
0.264513
0.264513
0.264574
0.264635
0.264695
0.264756
0.264756
0.264817
0.264878
0.264939
0.265
0.265
0.265061
0.265122
0.265183
0.265244
0.265244
0.265305
0.265366
0.265427
0.265488
0.265488
0.26555
0.265611
0.265672
0.265733
0.265733
0.265795
0.265856
0.265918
0.265979
0.265979
0.266041
0.266102
0.266164
0.266225
0.266225
0.266287
0.266349
0.26641
0.266472
0.266472
0.266534
0.266596
0.266657
0.266719
0.266719
0.266781
0.266843
0.266905
0.266967
0.266967
0.267029
0.267091
0.267153
0.267216
0.267216
0.267278
0.26734
0.267402
0.267464
0.267464
0.267527
0.267589
0.267651
0.267714
0.267714
0.267776
0.267839
0.267901
0.267964
0.267964
0.268026
0.268089
0.268152
0.268214
0.268214
0.268277
0.26834
0.268403
0.268465
0.268465
0.268528
0.268591
0.268654
0.268717
0.268717
0.26878
0.268843
0.268906
0.268969
0.268969
0.269032
0.269096
0.269159
0.269222
0.269222
0.269285
0.269348
0.269412
0.269475
0.269475
0.269539
0.269602
0.269665
0.269729
0.269729
0.269792
0.269856
0.26992
0.269983
0.269983
0.270047
0.270111
0.270174
0.270238
0.270238
0.270302
0.270366
0.27043
0.270494
0.270494
0.270557
0.270621
0.270685
0.270749
0.270749
0.270814
0.270878
0.270942
0.271006
0.271006
0.27107
0.271134
0.271199
0.271263
0.271263
0.271327
0.271392
0.271456
0.271521
0.271521
0.271585
0.27165
0.271714
0.271779
0.271779
0.271843
0.271908
0.271973
0.272037
0.272037
0.272102
0.272167
0.272232
0.272296
0.272296
0.272361
0.272426
0.272491
0.272556
0.272556
0.272621
0.272686
0.272751
0.272816
0.272816
0.272882
0.272947
0.273012
0.273077
0.273077
0.273143
0.273208
0.273273
0.273339
0.273339
0.273404
0.273469
0.273535
0.273601
0.273601
0.273666
0.273732
0.273797
0.273863
0.273863
0.273929
0.273994
0.27406
0.274126
0.274126
0.274192
0.274258
0.274323
0.274389
0.274389
0.274455
0.274521
0.274587
0.274653
0.274653
0.27472
0.274786
0.274852
0.274918
0.274918
0.274984
0.275051
0.275117
0.275183
0.275183
0.27525
0.275316
0.275382
0.275449
0.275449
0.275515
0.275582
0.275648
0.275715
0.275715
0.275782
0.275848
0.275915
0.275982
0.275982
0.276049
0.276115
0.276182
0.276249
0.276249
0.276316
0.276383
0.27645
0.276517
0.276517
0.276584
0.276651
0.276718
0.276785
0.276785
0.276852
0.27692
0.276987
0.277054
0.277054
0.277121
0.277189
0.277256
0.277324
0.277324
0.277391
0.277458
0.277526
0.277594
0.277594
0.277661
0.277729
0.277796
0.277864
0.277864
0.277932
0.278
0.278067
0.278135
0.278135
0.278203
0.278271
0.278339
0.278407
0.278407
0.278475
0.278543
0.278611
0.278679
0.278679
0.278747
0.278815
0.278883
0.278951
0.278951
0.27902
0.279088
0.279156
0.279225
0.279225
0.279293
0.279361
0.27943
0.279498
0.279498
0.279567
0.279636
0.279704
0.279773
0.279773
0.279841
0.27991
0.279979
0.280048
0.280048
0.280116
0.280185
0.280254
0.280323
0.280323
0.280392
0.280461
0.28053
0.280599
0.280599
0.280668
0.280737
0.280806
0.280875
0.280875
0.280944
0.281014
0.281083
0.281152
0.281152
0.281222
0.281291
0.28136
0.28143
0.28143
0.281499
0.281569
0.281638
0.281708
0.281708
0.281777
0.281847
0.281917
0.281986
0.281986
0.282056
0.282126
0.282196
0.282265
0.282265
0.282335
0.282405
0.282475
0.282545
0.282545
0.282615
0.282685
0.282755
0.282825
0.282825
0.282895
0.282966
0.283036
0.283106
0.283106
0.283176
0.283247
0.283317
0.283387
0.283387
0.283458
0.283528
0.283599
0.283669
0.283669
0.28374
0.28381
0.283881
0.283951
0.283951
0.284022
0.284093
0.284164
0.284234
0.284234
0.284305
0.284376
0.284447
0.284518
0.284518
0.284589
0.28466
0.284731
0.284802
0.284802
0.284873
0.284944
0.285015
0.285086
0.285086
0.285157
0.285229
0.2853
0.285371
0.285371
0.285443
0.285514
0.285585
0.285657
0.285657
0.285728
0.2858
0.285871
0.285943
0.285943
0.286014
0.286086
0.286158
0.286229
0.286229
0.286301
0.286373
0.286445
0.286517
0.286517
0.286589
0.28666
0.286732
0.286804
0.286804
0.286876
0.286948
0.28702
0.287093
0.287093
0.287165
0.287237
0.287309
0.287381
0.287381
0.287454
0.287526
0.287598
0.287671
0.287671
0.287743
0.287815
0.287888
0.28796
0.28796
0.288033
0.288106
0.288178
0.288251
0.288251
0.288324
0.288396
0.288469
0.288542
0.288542
0.288615
0.288687
0.28876
0.288833
0.288833
0.288906
0.288979
0.289052
0.289125
0.289125
0.289198
0.289271
0.289345
0.289418
0.289418
0.289491
0.289564
0.289637
0.289711
0.289711
0.289784
0.289857
0.289931
0.290004
0.290004
0.290078
0.290151
0.290225
0.290298
0.290298
0.290372
0.290446
0.290519
0.290593
0.290593
0.290667
0.290741
0.290814
0.290888
0.290888
0.290962
0.291036
0.29111
0.291184
0.291184
0.291258
0.291332
0.291406
0.29148
0.29148
0.291554
0.291629
0.291703
0.291777
0.291777
0.291851
0.291926
0.292
0.292074
0.292074
0.292149
0.292223
0.292298
0.292372
0.292372
0.292447
0.292521
0.292596
0.292671
0.292671
0.292745
0.29282
0.292895
0.29297
0.29297
0.293044
0.293119
0.293194
0.293269
0.293269
0.293344
0.293419
0.293494
0.293569
0.293569
0.293644
0.293719
0.293794
0.29387
0.29387
0.293945
0.29402
0.294095
0.294171
0.294171
0.294246
0.294321
0.294397
0.294472
0.294472
0.294548
0.294623
0.294699
0.294774
0.294774
0.29485
0.294926
0.295001
0.295077
0.295077
0.295153
0.295228
0.295304
0.29538
0.29538
0.295456
0.295532
0.295608
0.295684
0.295684
0.29576
0.295836
0.295912
0.295988
0.295988
0.296064
0.29614
0.296217
0.296293
0.296293
0.296369
0.296445
0.296522
0.296598
0.296598
0.296675
0.296751
0.296828
0.296904
0.296904
0.296981
0.297057
0.297134
0.29721
0.29721
0.297287
0.297364
0.297441
0.297517
0.297517
0.297594
0.297671
0.297748
0.297825
0.297825
0.297902
0.297979
0.298056
0.298133
0.298133
0.29821
0.298287
0.298364
0.298441
0.298441
0.298518
0.298596
0.298673
0.29875
0.29875
0.298828
0.298905
0.298982
0.29906
0.29906
0.299137
0.299215
0.299292
0.29937
0.29937
0.299448
0.299525
0.299603
0.299681
0.299681
0.299758
0.299836
0.299914
0.299992
0.299992
0.30007
0.300148
0.300225
0.300303
0.300303
0.300381
0.300459
0.300538
0.300616
0.300616
0.300694
0.300772
0.30085
0.300928
0.300928
0.301007
0.301085
0.301163
0.301242
0.301242
0.30132
0.301399
0.301477
0.301555
0.301555
0.301634
0.301713
0.301791
0.30187
0.30187
0.301949
0.302027
0.302106
0.302185
0.302185
0.302264
0.302342
0.302421
0.3025
0.3025
0.302579
0.302658
0.302737
0.302816
0.302816
0.302895
0.302974
0.303053
0.303132
0.303132
0.303212
0.303291
0.30337
0.303449
0.303449
0.303529
0.303608
0.303688
0.303767
0.303767
0.303846
0.303926
0.304005
0.304085
0.304085
0.304165
0.304244
0.304324
0.304404
0.304404
0.304483
0.304563
0.304643
0.304723
0.304723
0.304803
0.304882
0.304962
0.305042
0.305042
0.305122
0.305202
0.305282
0.305362
0.305362
0.305443
0.305523
0.305603
0.305683
0.305683
0.305763
0.305844
0.305924
0.306004
0.306004
0.306085
0.306165
0.306246
0.306326
0.306326
0.306407
0.306487
0.306568
0.306648
0.306648
0.306729
0.30681
0.30689
0.306971
0.306971
0.307052
0.307133
0.307214
0.307295
0.307295
0.307375
0.307456
0.307537
0.307618
0.307618
0.307699
0.307781
0.307862
0.307943
0.307943
0.308024
0.308105
0.308186
0.308268
0.308268
0.308349
0.30843
0.308512
0.308593
0.308593
0.308675
0.308756
0.308838
0.308919
0.308919
0.309001
0.309082
0.309164
0.309246
0.309246
0.309327
0.309409
0.309491
0.309573
0.309573
0.309654
0.309736
0.309818
0.3099
0.3099
0.309982
0.310064
0.310146
0.310228
0.310228
0.31031
0.310392
0.310475
0.310557
0.310557
0.310639
0.310721
0.310804
0.310886
0.310886
0.310968
0.311051
0.311133
0.311216
0.311216
0.311298
0.311381
0.311463
0.311546
0.311546
0.311628
0.311711
0.311794
0.311876
0.311876
0.311959
0.312042
0.312125
0.312208
0.312208
0.312291
0.312373
0.312456
0.312539
0.312539
0.312622
0.312705
0.312789
0.312872
0.312872
0.312955
0.313038
0.313121
0.313204
0.313204
0.313288
0.313371
0.313454
0.313538
0.313538
0.313621
0.313705
0.313788
0.313872
0.313872
0.313955
0.314039
0.314122
0.314206
0.314206
0.31429
0.314373
0.314457
0.314541
0.314541
0.314625
0.314709
0.314792
0.314876
0.314876
0.31496
0.315044
0.315128
0.315212
0.315212
0.315296
0.31538
0.315465
0.315549
0.315549
0.315633
0.315717
0.315801
0.315886
0.315886
0.31597
0.316054
0.316139
0.316223
0.316223
0.316308
0.316392
0.316477
0.316561
0.316561
0.316646
0.316731
0.316815
0.3169
0.3169
0.316985
0.317069
0.317154
0.317239
0.317239
0.317324
0.317409
0.317494
0.317579
0.317579
0.317664
0.317749
0.317834
0.317919
0.317919
0.318004
0.318089
0.318174
0.318259
0.318259
0.318345
0.31843
0.318515
0.318601
0.318601
0.318686
0.318771
0.318857
0.318942
0.318942
0.319028
0.319113
0.319199
0.319284
0.319284
0.31937
0.319456
0.319541
0.319627
0.319627
0.319713
0.319799
0.319885
0.31997
0.31997
0.320056
0.320142
0.320228
0.320314
0.320314
0.3204
0.320486
0.320572
0.320659
0.320659
0.320745
0.320831
0.320917
0.321003
0.321003
0.32109
0.321176
0.321262
0.321349
0.321349
0.321435
0.321522
0.321608
0.321695
0.321695
0.321781
0.321868
0.321954
0.322041
0.322041
0.322128
0.322214
0.322301
0.322388
0.322388
0.322475
0.322562
0.322648
0.322735
0.322735
0.322822
0.322909
0.322996
0.323083
0.323083
0.32317
0.323258
0.323345
0.323432
0.323432
0.323519
0.323606
0.323694
0.323781
0.323781
0.323868
0.323956
0.324043
0.32413
0.32413
0.324218
0.324305
0.324393
0.32448
0.32448
0.324568
0.324656
0.324743
0.324831
0.324831
0.324919
0.325006
0.325094
0.325182
0.325182
0.32527
0.325358
0.325446
0.325534
0.325534
0.325622
0.32571
0.325798
0.325886
0.325886
0.325974
0.326062
0.32615
0.326238
0.326238
0.326327
0.326415
0.326503
0.326592
0.326592
0.32668
0.326768
0.326857
0.326945
0.326945
0.327034
0.327122
0.327211
0.327299
0.327299
0.327388
0.327477
0.327565
0.327654
0.327654
0.327743
0.327832
0.32792
0.328009
0.328009
0.328098
0.328187
0.328276
0.328365
0.328365
0.328454
0.328543
0.328632
0.328721
0.328721
0.32881
0.3289
0.328989
0.329078
0.329078
0.329167
0.329257
0.329346
0.329435
0.329435
0.329525
0.329614
0.329704
0.329793
0.329793
0.329883
0.329972
0.330062
0.330152
0.330152
0.330241
0.330331
0.330421
0.33051
0.33051
0.3306
0.33069
0.33078
0.33087
0.33087
0.33096
0.33105
0.33114
0.33123
0.33123
0.33132
0.33141
0.3315
0.33159
0.33159
0.33168
0.33177
0.331861
0.331951
0.331951
0.332041
0.332132
0.332222
0.332312
0.332312
0.332403
0.332493
0.332584
0.332674
0.332674
0.332765
0.332856
0.332946
0.333037
0.333037
0.333128
0.333218
0.333309
0.3334
0.3334