<?xml version="1.0"?>
<VTKFile type="UnstructuredGrid" version="0.1" byte_order="LittleEndian">
<UnstructuredGrid>
<Piece NumberOfPoints="5000" NumberOfCells="4000">
<PointData Scalars="Reaction 0">
<DataArray type="Float32" Name="Reaction 0" format="ascii">
0.82972
0.82972
0.82972
0.82972
0.82972
0.82972
0.82972
0.82972
0.82972
0.82972
0.82972
0.82972
0.82972
0.82972
0.82972
0.82972
0.82972
0.82972
0.82972
0.82972
0.82972
0.82972
0.82972
0.829721
0.829721
0.829721
0.829721
0.829721
0.829721
0.829721
0.829721
0.829721
0.829721
0.829721
0.829722
0.829722
0.829722
0.829722
0.829722
0.829722
0.829722
0.829722
0.829723
0.829723
0.829723
0.829723
0.829723
0.829723
0.829723
0.829724
0.829724
0.829724
0.829724
0.829724
0.829724
0.829724
0.829725
0.829725
0.829725
0.829725
0.829725
0.829726
0.829726
0.829726
0.829726
0.829726
0.829727
0.829727
0.829727
0.829727
0.829727
0.829728
0.829728
0.829728
0.829729
0.829729
0.829729
0.829729
0.82973
0.82973
0.82973
0.82973
0.829731
0.829731
0.829731
0.829731
0.829732
0.829732
0.829732
0.829733
0.829733
0.829733
0.829733
0.829734
0.829734
0.829734
0.829734
0.829735
0.829735
0.829736
0.829736
0.829736
0.829736
0.829737
0.829737
0.829737
0.829738
0.829738
0.829739
0.829739
0.829739
0.829739
0.82974
0.82974
0.829741
0.829741
0.829741
0.829742
0.829742
0.829743
0.829743
0.829743
0.829744
0.829744
0.829745
0.829745
0.829745
0.829746
0.829746
0.829747
0.829747
0.829747
0.829748
0.829748
0.829749
0.829749
0.829749
0.82975
0.82975
0.829751
0.829751
0.829752
0.829752
0.829753
0.829753
0.829753
0.829754
0.829755
0.829755
0.829756
0.829756
0.829756
0.829757
0.829758
0.829758
0.829758
0.829759
0.829759
0.82976
0.829761
0.829761
0.829761
0.829762
0.829763
0.829763
0.829763
0.829764
0.829765
0.829765
0.829766
0.829766
0.829767
0.829767
0.829768
0.829769
0.829769
0.829769
0.82977
0.829771
0.829772
0.829772
0.829772
0.829773
0.829774
0.829774
0.829774
0.829775
0.829776
0.829777
0.829777
0.829777
0.829778
0.829779
0.82978
0.829781
0.829781
0.829781
0.829782
0.829783
0.829784
0.829784
0.829785
0.829785
0.829786
0.829787
0.829787
0.829788
0.829789
0.829789
0.82979
0.82979
0.829791
0.829792
0.829793
0.829794
0.829794
0.829795
0.829795
0.829796
0.829797
0.829797
0.829798
0.829799
0.8298
0.829801
0.829801
0.829802
0.829803
0.829803
0.829804
0.829804
0.829805
0.829806
0.829807
0.829808
0.829808
0.829809
0.82981
0.829811
0.829812
0.829812
0.829813
0.829814
0.829815
0.829816
0.829816
0.829817
0.829818
0.829819
0.82982
0.82982
0.829821
0.829822
0.829823
0.829824
0.829824
0.829825
0.829826
0.829827
0.829828
0.829828
0.829829
0.82983
0.829831
0.829832
0.829832
0.829833
0.829834
0.829835
0.829836
0.829836
0.829838
0.829839
0.82984
0.829841
0.829841
0.829842
0.829843
0.829844
0.829845
0.829845
0.829846
0.829848
0.829849
0.82985
0.82985
0.829851
0.829852
0.829853
0.829854
0.829854
0.829856
0.829857
0.829858
0.829859
0.829859
0.82986
0.829861
0.829863
0.829864
0.829864
0.829865
0.829866
0.829867
0.829869
0.829869
0.82987
0.829871
0.829872
0.829874
0.829874
0.829875
0.829876
0.829877
0.829879
0.829879
0.82988
0.829881
0.829882
0.829884
0.829884
0.829885
0.829886
0.829888
0.829889
0.829889
0.82989
0.829891
0.829893
0.829894
0.829894
0.829895
0.829897
0.829898
0.829899
0.829899
0.829901
0.829902
0.829903
0.829905
0.829905
0.829906
0.829908
0.829909
0.82991
0.82991
0.829912
0.829913
0.829915
0.829916
0.829916
0.829917
0.829919
0.82992
0.829922
0.829922
0.829923
0.829924
0.829926
0.829927
0.829927
0.829929
0.82993
0.829932
0.829933
0.829933
0.829935
0.829936
0.829937
0.829939
0.829939
0.82994
0.829942
0.829943
0.829945
0.829945
0.829946
0.829948
0.829949
0.829951
0.829951
0.829953
0.829954
0.829956
0.829957
0.829957
0.829959
0.82996
0.829962
0.829963
0.829963
0.829965
0.829966
0.829968
0.82997
0.82997
0.829971
0.829973
0.829974
0.829976
0.829976
0.829978
0.829979
0.829981
0.829982
0.829982
0.829984
0.829986
0.829987
0.829989
0.829989
0.829991
0.829992
0.829994
0.829996
0.829996
0.829997
0.829999
0.830001
0.830002
0.830002
0.830004
0.830006
0.830007
0.830009
0.830009
0.830011
0.830012
0.830014
0.830016
0.830016
0.830018
0.830019
0.830021
0.830023
0.830023
0.830025
0.830026
0.830028
0.83003
0.83003
0.830032
0.830033
0.830035
0.830037
0.830037
0.830039
0.83004
0.830042
0.830044
0.830044
0.830046
0.830048
0.830049
0.830051
0.830051
0.830053
0.830055
0.830057
0.830059
0.830059
0.83006
0.830062
0.830064
0.830066
0.830066
0.830068
0.83007
0.830071
0.830073
0.830073
0.830075
0.830077
0.830079
0.830081
0.830081
0.830083
0.830085
0.830087
0.830089
0.830089
0.83009
0.830092
0.830094
0.830096
0.830096
0.830098
0.8301
0.830102
0.830104
0.830104
0.830106
0.830108
0.83011
0.830112
0.830112
0.830114
0.830116
0.830118
0.83012
0.83012
0.830122
0.830124
0.830126
0.830128
0.830128
0.83013
0.830132
0.830134
0.830136
0.830136
0.830138
0.83014
0.830142
0.830144
0.830144
0.830146
0.830148
0.830151
0.830153
0.830153
0.830155
0.830157
0.830159
0.830161
0.830161
0.830163
0.830165
0.830167
0.83017
0.83017
0.830172
0.830174
0.830176
0.830178
0.830178
0.83018
0.830182
0.830185
0.830187
0.830187
0.830189
0.830191
0.830193
0.830195
0.830195
0.830198
0.8302
0.830202
0.830204
0.830204
0.830206
0.830209
0.830211
0.830213
0.830213
0.830215
0.830217
0.83022
0.830222
0.830222
0.830224
0.830226
0.830229
0.830231
0.830231
0.830233
0.830236
0.830238
0.83024
0.83024
0.830242
0.830245
0.830247
0.830249
0.830249
0.830252
0.830254
0.830256
0.830258
0.830258
0.830261
0.830263
0.830265
0.830268
0.830268
0.83027
0.830273
0.830275
0.830277
0.830277
0.83028
0.830282
0.830284
0.830287
0.830287
0.830289
0.830291
0.830294
0.830296
0.830296
0.830299
0.830301
0.830304
0.830306
0.830306
0.830308
0.830311
0.830313
0.830316
0.830316
0.830318
0.830321
0.830323
0.830325
0.830325
0.830328
0.83033
0.830333
0.830335
0.830335
0.830338
0.83034
0.830343
0.830345
0.830345
0.830348
0.83035
0.830353
0.830355
0.830355
0.830358
0.83036
0.830363
0.830366
0.830366
0.830368
0.830371
0.830373
0.830376
0.830376
0.830378
0.830381
0.830383
0.830386
0.830386
0.830389
0.830391
0.830394
0.830396
0.830396
0.830399
0.830402
0.830404
0.830407
0.830407
0.830409
0.830412
0.830415
0.830417
0.830417
0.83042
0.830423
0.830425
0.830428
0.830428
0.830431
0.830433
0.830436
0.830439
0.830439
0.830441
0.830444
0.830447
0.830449
0.830449
0.830452
0.830455
0.830458
0.83046
0.83046
0.830463
0.830466
0.830468
0.830471
0.830471
0.830474
0.830477
0.830479
0.830482
0.830482
0.830485
0.830488
0.830491
0.830493
0.830493
0.830496
0.830499
0.830502
0.830504
0.830504
0.830507
0.83051
0.830513
0.830516
0.830516
0.830519
0.830521
0.830524
0.830527
0.830527
0.83053
0.830533
0.830536
0.830538
0.830538
0.830541
0.830544
0.830547
0.83055
0.83055
0.830553
0.830556
0.830559
0.830562
0.830562
0.830564
0.830567
0.83057
0.830573
0.830573
0.830576
0.830579
0.830582
0.830585
0.830585
0.830588
0.830591
0.830594
0.830597
0.830597
0.8306
0.830603
0.830606
0.830609
0.830609
0.830612
0.830615
0.830618
0.830621
0.830621
0.830624
0.830627
0.83063
0.830633
0.830633
0.830636
0.830639
0.830642
0.830645
0.830645
0.830648
0.830651
0.830654
0.830657
0.830657
0.83066
0.830663
0.830666
0.830669
0.830669
0.830672
0.830675
0.830678
0.830681
0.830681
0.830685
0.830688
0.830691
0.830694
0.830694
0.830697
0.8307
0.830703
0.830706
0.830706
0.83071
0.830713
0.830716
0.830719
0.830719
0.830722
0.830725
0.830728
0.830732
0.830732
0.830735
0.830738
0.830741
0.830744
0.830744
0.830748
0.830751
0.830754
0.830757
0.830757
0.83076
0.830764
0.830767
0.83077
0.83077
0.830773
0.830776
0.83078
0.830783
0.830783
0.830786
0.830789
0.830793
0.830796
0.830796
0.830799
0.830803
0.830806
0.830809
0.830809
0.830812
0.830816
0.830819
0.830822
0.830822
0.830826
0.830829
0.830832
0.830836
0.830836
0.830839
0.830843
0.830846
0.830849
0.830849
0.830853
0.830856
0.830859
0.830863
0.830863
0.830866
0.83087
0.830873
0.830876
0.830876
0.83088
0.830883
0.830887
0.83089
0.83089
0.830894
0.830897
0.8309
0.830904
0.830904
0.830907
0.830911
0.830914
0.830918
0.830918
0.830921
0.830925
0.830928
0.830932
0.830932
0.830935
0.830939
0.830942
0.830946
0.830946
0.830949
0.830953
0.830956
0.83096
0.83096
0.830963
0.830967
0.83097
0.830974
0.830974
0.830977
0.830981
0.830984
0.830988
0.830988
0.830992
0.830995
0.830999
0.831002
0.831002
0.831006
0.83101
0.831013
0.831017
0.831017
0.83102
0.831024
0.831028
0.831031
0.831031
0.831035
0.831038
0.831042
0.831046
0.831046
0.831049
0.831053
0.831057
0.83106
0.83106
0.831064
0.831068
0.831071
0.831075
0.831075
0.831079
0.831082
0.831086
0.83109
0.83109
0.831093
0.831097
0.831101
0.831105
0.831105
0.831108
0.831112
0.831116
0.83112
0.83112
0.831123
0.831127
0.831131
0.831135
0.831135
0.831138
0.831142
0.831146
0.83115
0.83115
0.831153
0.831157
0.831161
0.831165
0.831165
0.831169
0.831172
0.831176
0.83118
0.83118
0.831184
0.831188
0.831191
0.831195
0.831195
0.831199
0.831203
0.831207
0.831211
0.831211
0.831215
0.831218
0.831222
0.831226
0.831226
0.83123
0.831234
0.831238
0.831242
0.831242
0.831246
0.83125
0.831253
0.831257
0.831257
0.831261
0.831265
0.831269
0.831273
0.831273
0.831277
0.831281
0.831285
0.831289
0.831289
0.831293
0.831297
0.831301
0.831305
0.831305
0.831309
0.831313
0.831317
0.831321
0.831321
0.831325
0.831329
0.831333
0.831337
0.831337
0.831341
0.831345
0.831349
0.831353
0.831353
0.831357
0.831361
0.831365
0.831369
0.831369
0.831373
0.831377
0.831381
0.831385
0.831385
0.831389
0.831393
0.831397
0.831402
0.831402
0.831406
0.83141
0.831414
0.831418
0.831418
0.831422
0.831426
0.83143
0.831434
0.831434
0.831439
0.831443
0.831447
0.831451
0.831451
0.831455
0.831459
0.831463
0.831468
0.831468
0.831472
0.831476
0.83148
0.831484
0.831484
0.831488
0.831493
0.831497
0.831501
0.831501
0.831505
0.831509
0.831514
0.831518
0.831518
0.831522
0.831526
0.831531
0.831535
0.831535
0.831539
0.831544
0.831548
0.831552
0.831552
0.831556
0.831561
0.831565
0.831569
0.831569
0.831574
0.831578
0.831582
0.831587
0.831587
0.831591
0.831595
0.8316
0.831604
0.831604
0.831608
0.831613
0.831617
0.831621
0.831621
0.831626
0.83163
0.831635
0.831639
0.831639
0.831643
0.831648
0.831652
0.831657
0.831657
0.831661
0.831665
0.83167
0.831674
0.831674
0.831679
0.831683
0.831688
0.831692
0.831692
0.831696
0.831701
0.831705
0.83171
0.83171
0.831714
0.831719
0.831723
0.831728
0.831728
0.831732
0.831737
0.831741
0.831746
0.831746
0.83175
0.831755
0.831759
0.831764
0.831764
0.831768
0.831773
0.831777
0.831782
0.831782
0.831786
0.831791
0.831796
0.8318
0.8318
0.831805
0.831809
0.831814
0.831818
0.831818
0.831823
0.831828
0.831832
0.831837
0.831837
0.831841
0.831846
0.831851
0.831855
0.831855
0.83186
0.831864
0.831869
0.831874
0.831874
0.831878
0.831883
0.831888
0.831892
0.831892
0.831897
0.831902
0.831906
0.831911
0.831911
0.831916
0.83192
0.831925
0.83193
0.83193
0.831934
0.831939
0.831944
0.831948
0.831948
0.831953
0.831958
0.831963
0.831967
0.831967
0.831972
0.831977
0.831982
0.831986
0.831986
0.831991
0.831996
0.832001
0.832005
0.832005
0.83201
0.832015
0.83202
0.832025
0.832025
0.832029
0.832034
0.832039
0.832044
0.832044
0.832049
0.832053
0.832058
0.832063
0.832063
0.832068
0.832073
0.832078
0.832082
0.832082
0.832087
0.832092
0.832097
0.832102
0.832102
0.832107
0.832112
0.832116
0.832121
0.832121
0.832126
0.832131
0.832136
0.832141
0.832141
0.832146
0.832151
0.832156
0.83216
0.83216
0.832165
0.83217
0.832175
0.83218
0.83218
0.832185
0.83219
0.832195
0.8322
0.8322
0.832205
0.83221
0.832215
0.83222
0.83222
0.832225
0.83223
0.832235
0.83224
0.83224
0.832245
0.83225
0.832255
0.83226
0.83226
0.832265
0.83227
0.832275
0.83228
0.83228
0.832285
0.83229
0.832296
0.832301
0.832301
0.832306
0.832311
0.832316
0.832321
0.832321
0.832326
0.832331
0.832336
0.832342
0.832342
0.832347
0.832352
0.832357
0.832362
0.832362
0.832367
0.832372
0.832378
0.832383
0.832383
0.832388
0.832393
0.832398
0.832403
0.832403
0.832409
0.832414
0.832419
0.832424
0.832424
0.832429
0.832435
0.83244
0.832445
0.832445
0.83245
0.832456
0.832461
0.832466
0.832466
0.832471
0.832477
0.832482
0.832487
0.832487
0.832492
0.832498
0.832503
0.832508
0.832508
0.832513
0.832519
0.832524
0.832529
0.832529
0.832535
0.83254
0.832545
0.832551
0.832551
0.832556
0.832561
0.832566
0.832572
0.832572
0.832577
0.832582
0.832588
0.832593
0.832593
0.832599
0.832604
0.832609
0.832615
0.832615
0.83262
0.832625
0.832631
0.832636
0.832636
0.832642
0.832647
0.832652
0.832658
0.832658
0.832663
0.832669
0.832674
0.832679
0.832679
0.832685
0.83269
0.832696
0.832701
0.832701
0.832707
0.832712
0.832718
0.832723
0.832723
0.832729
0.832734
0.83274
0.832745
0.832745
0.83275
0.832756
0.832761
0.832767
0.832767
0.832772
0.832778
0.832784
0.832789
0.832789
0.832795
0.8328
0.832806
0.832811
0.832811
0.832817
0.832822
0.832828
0.832833
0.832833
0.832839
0.832844
0.83285
0.832856
0.832856
0.832861
0.832867
0.832872
0.832878
0.832878
0.832884
0.832889
0.832895
0.8329
0.8329
0.832906
0.832912
0.832917
0.832923
0.832923
0.832928
0.832934
0.83294
0.832945
0.832945
0.832951
0.832957
0.832962
0.832968
0.832968
0.832974
0.83298
0.832985
0.832991
0.832991
0.832997
0.833002
0.833008
0.833014
0.833014
0.83302
0.833025
0.833031
0.833037
0.833037
0.833043
0.833049
0.833054
0.83306
0.83306
0.833066
0.833072
0.833078
0.833083
0.833083
0.833089
0.833095
0.833101
0.833107
0.833107
0.833112
0.833118
0.833124
0.83313
0.83313
0.833136
0.833142
0.833148
0.833153
0.833153
0.833159
0.833165
0.833171
0.833177
0.833177
0.833183
0.833189
0.833195
0.8332
0.8332
0.833206
0.833212
0.833218
0.833224
0.833224
0.83323
0.833236
0.833242
0.833248
0.833248
0.833254
0.83326
0.833266
0.833272
0.833272
0.833278
0.833283
0.833289
0.833295
0.833295
0.833301
0.833307
0.833313
0.833319
0.833319
0.833325
0.833331
0.833337
0.833343
0.833343
0.833349
0.833355
0.833361
0.833367
0.833367
0.833373
0.83338
0.833386
0.833392
0.833392
0.833398
0.833404
0.83341
0.833416
0.833416
0.833422
0.833428
0.833434
0.83344
0.83344
0.833446
0.833452
0.833458
0.833465
0.833465
0.833471
0.833477
0.833483
0.833489
0.833489
0.833495
0.833501
0.833507
0.833513
0.833513
0.83352
0.833526
0.833532
0.833538
0.833538
0.833544
0.83355
0.833557
0.833563
0.833563
0.833569
0.833575
0.833581
0.833587
0.833587
0.833594
0.8336
0.833606
0.833612
0.833612
0.833618
0.833625
0.833631
0.833637
0.833637
0.833643
0.83365
0.833656
0.833662
0.833662
0.833668
0.833675
0.833681
0.833687
0.833687
0.833693
0.8337
0.833706
0.833712
0.833712
0.833719
0.833725
0.833731
0.833738
0.833738
0.833744
0.83375
0.833757
0.833763
0.833763
0.833769
0.833776
0.833782
0.833789
0.833789
0.833795
0.833801
0.833808
0.833814
0.833814
0.833821
0.833827
0.833833
0.83384
0.83384
0.833846
0.833853
0.833859
0.833866
0.833866
0.833872
0.833878
0.833885
0.833891
0.833891
0.833898
0.833904
0.833911
0.833917
0.833917
0.833924
0.83393
0.833937
0.833943
0.833943
0.83395
0.833956
0.833963
0.833969
0.833969
0.833976
0.833982
0.833989
0.833995
0.833995
0.834002
0.834008
0.834015
0.834022
0.834022
0.834028
0.834035
0.834041
0.834048
0.834048
0.834054
0.834061
0.834067
0.834074
0.834074
0.834081
0.834087
0.834094
0.8341
0.8341
0.834107
0.834114
0.83412
0.834127
0.834127
0.834134
0.83414
0.834147
0.834153
0.834153
0.83416
0.834167
0.834173
0.83418
0.83418
0.834187
0.834193
0.8342
0.834207
0.834207
0.834213
0.83422
0.834227
0.834233
0.834233
0.83424
0.834247
0.834254
0.83426
0.83426
0.834267
0.834274
0.83428
0.834287
0.834287
0.834294
0.834301
0.834307
0.834314
0.834314
0.834321
0.834328
0.834334
0.834341
0.834341
0.834348
0.834355
0.834361
0.834368
0.834368
0.834375
0.834382
0.834389
0.834395
0.834395
0.834402
0.834409
0.834416
0.834423
0.834423
0.834429
0.834436
0.834443
0.83445
0.83445
0.834457
0.834464
0.834471
0.834478
0.834478
0.834484
0.834491
0.834498
0.834505
0.834505
0.834512
0.834519
0.834526
0.834533
0.834533
0.83454
0.834547
0.834554
0.834561
0.834561
0.834568
0.834575
0.834582
0.834589
0.834589
0.834596
0.834603
0.83461
0.834617
0.834617
0.834624
0.834631
0.834638
0.834645
0.834645
0.834652
0.834659
0.834666
0.834673
0.834673
0.83468
0.834687
0.834694
0.834701
0.834701
0.834708
0.834715
0.834722
0.834729
0.834729
0.834736
0.834743
0.83475
0.834758
0.834758
0.834765
0.834772
0.834779
0.834786
0.834786
0.834793
0.8348
0.834807
0.834814
0.834814
0.834822
0.834829
0.834836
0.834843
0.834843
0.83485
0.834857
0.834864
0.834872
0.834872
0.834879
0.834886
0.834893
0.8349
0.8349
0.834907
0.834915
0.834922
0.834929
0.834929
0.834936
0.834943
0.834951
0.834958
0.834958
0.834965
0.834972
0.834979
0.834987
0.834987
0.834994
0.835001
0.835008
0.835016
0.835016
0.835023
0.83503
0.835037
0.835045
0.835045
0.835052
0.835059
0.835066
0.835074
0.835074
0.835081
0.835088
0.835095
0.835103
0.835103
0.83511
0.835117
0.835125
0.835132
0.835132
0.835139
0.835147
0.835154
0.835161
0.835161
0.835169
0.835176
0.835183
0.835191
0.835191
0.835198
0.835205
0.835213
0.83522
0.83522
0.835228
0.835235
0.835243
0.83525
0.83525
0.835257
0.835265
0.835272
0.83528
0.83528
0.835287
0.835295
0.835302
0.83531
0.83531
0.835317
0.835325
0.835332
0.83534
0.83534
0.835347
0.835355
0.835362
0.83537
0.83537
0.835377
0.835385
0.835392
0.8354
0.8354
0.835407
0.835415
0.835422
0.83543
0.83543
0.835438
0.835445
0.835453
0.83546
0.83546
0.835468
0.835475
0.835483
0.835491
0.835491
0.835498
0.835506
0.835513
0.835521
0.835521
0.835529
0.835536
0.835544
0.835551
0.835551
0.835559
0.835567
0.835574
0.835582
0.835582
0.83559
0.835597
0.835605
0.835612
0.835612
0.83562
0.835628
0.835635
0.835643
0.835643
0.835651
0.835658
0.835666
0.835674
0.835674
0.835682
0.835689
0.835697
0.835705
0.835705
0.835712
0.83572
0.835728
0.835735
0.835735
0.835743
0.835751
0.835759
0.835766
0.835766
0.835774
0.835782
0.83579
0.835797
0.835797
0.835805
0.835813
0.835821
0.835828
0.835828
0.835836
0.835844
0.835852
0.83586
0.83586
0.835867
0.835875
0.835883
0.835891
0.835891
0.835899
0.835906
0.835914
0.835922
0.835922
0.83593
0.835938
0.835946
0.835953
0.835953
0.835961
0.835969
0.835977
0.835985
0.835985
0.835993
0.836001
0.836009
0.836017
0.836017
0.836025
0.836033
0.836041
0.836048
0.836048
0.836056
0.836064
0.836072
0.83608
0.83608
0.836088
0.836096
0.836104
0.836112
0.836112
0.83612
0.836128
0.836136
0.836144
0.836144
0.836152
0.83616
0.836168
0.836176
0.836176
0.836184
0.836193
0.836201
0.836209
0.836209
0.836217
0.836225
0.836233
0.836241
0.836241
0.836249
0.836257
0.836265
0.836273
0.836273
0.836281
0.836289
0.836297
0.836305
0.836305
0.836314
0.836322
0.83633
0.836338
0.836338
0.836346
0.836354
0.836362
0.83637
0.83637
0.836379
0.836387
0.836395
0.836403
0.836403
0.836411
0.836419
0.836427
0.836436
0.836436
0.836444
0.836452
0.83646
0.836468
0.836468
0.836476
0.836485
0.836493
0.836501
0.836501
0.836509
0.836517
0.836526
0.836534
0.836534
0.836542
0.83655
0.836558
0.836567
0.836567
0.836575
0.836583
0.836591
0.8366
0.8366
0.836608
0.836616
0.836624
0.836633
0.836633
0.836641
0.836649
0.836657
0.836666
0.836666
0.836674
0.836682
0.836691
0.836699
0.836699
0.836707
0.836716
0.836724
0.836732
0.836732
0.836741
0.836749
0.836757
0.836766
0.836766
0.836774
0.836783
0.836791
0.836799
0.836799
0.836808
0.836816
0.836825
0.836833
0.836833
0.836841
0.83685
0.836858
0.836867
0.836867
0.836875
0.836884
0.836892
0.836901
0.836901
0.836909
0.836918
0.836926
0.836935
0.836935
0.836943
0.836952
0.83696
0.836969
0.836969
0.836977
0.836986
0.836994
0.837003
0.837003
0.837011
0.83702
0.837028
0.837037
0.837037
0.837045
0.837054
0.837062
0.837071
0.837071
0.837079
0.837088
0.837097
0.837105
0.837105
0.837114
0.837122
0.837131
0.837139
0.837139
0.837148
0.837157
0.837165
0.837174
0.837174
0.837182
0.837191
0.8372
0.837208
0.837208
0.837217
0.837225
0.837234
0.837243
0.837243
0.837251
0.83726
0.837269
0.837277
0.837277
0.837286
0.837295
0.837303
0.837312
0.837312
0.837321
0.837329
0.837338
0.837347
0.837347
0.837355
0.837364
0.837373
0.837381
0.837381
0.83739
0.837399
0.837407
0.837416
0.837416
0.837425
0.837434
0.837442
0.837451
0.837451
0.83746
0.837469
0.837477
0.837486
0.837486
0.837495
0.837504
0.837513
0.837521
0.837521
0.83753
0.837539
0.837548
0.837557
0.837557
0.837566
0.837574
0.837583
0.837592
0.837592
0.837601
0.83761
0.837619
0.837628
0.837628
0.837637
0.837645
0.837654
0.837663
0.837663
0.837672
0.837681
0.83769
0.837699
0.837699
0.837708
0.837717
0.837726
0.837735
0.837735
0.837744
0.837752
0.837761
0.83777
0.83777
0.837779
0.837788
0.837797
0.837806
0.837806
0.837815
0.837824
0.837833
0.837842
0.837842
0.837851
0.83786
0.837869
0.837878
0.837878
0.837887
0.837896
0.837905
0.837914
0.837914
0.837923
0.837932
0.837941
0.83795
0.83795
0.837959
0.837968
0.837977
0.837986
0.837986
0.837995
0.838005
0.838014
0.838023
0.838023
0.838032
0.838041
0.83805
0.838059
0.838059
0.838068
0.838077
0.838086
0.838095
0.838095
0.838104
0.838113
0.838123
0.838132
0.838132
0.838141
0.83815
0.838159
0.838168
0.838168
0.838177
0.838186
0.838196
0.838205
0.838205
0.838214
0.838223
0.838232
0.838241
0.838241
0.838251
0.83826
0.838269
0.838278
0.838278
0.838288
0.838297
0.838306
0.838315
0.838315
0.838325
0.838334
0.838343
0.838352
0.838352
0.838362
0.838371
0.83838
0.83839
0.83839
0.838399
0.838408
0.838417
0.838427
0.838427
0.838436
0.838445
0.838455
0.838464
0.838464
0.838473
0.838483
0.838492
0.838501
0.838501
0.838511
0.83852
0.83853
0.838539
0.838539
0.838548
0.838558
0.838567
0.838576
0.838576
0.838586
0.838595
0.838605
0.838614
0.838614
0.838623
0.838633
0.838642
0.838652
0.838652
0.838661
0.83867
0.83868
0.838689
0.838689
0.838699
0.838708
0.838718
0.838727
0.838727
0.838737
0.838746
0.838755
0.838765
0.838765
0.838774
0.838784
0.838793
0.838803
0.838803
0.838812
0.838822
0.838831
0.838841
0.838841
0.83885
0.83886
0.838869
0.838879
0.838879
0.838888
0.838898
0.838907
0.838917
0.838917
0.838926
0.838936
0.838945
0.838955
0.838955
0.838964
0.838974
0.838984
0.838993
0.838993
0.839003
0.839012
0.839022
0.839032
0.839032
0.839041
0.839051
0.83906
0.83907
0.83907
0.83908
0.839089
0.839099
0.839109
0.839109
0.839118
0.839128
0.839138
0.839147
0.839147
0.839157
0.839167
0.839177
0.839186
0.839186
0.839196
0.839206
0.839216
0.839225
0.839225
0.839235
0.839245
0.839254
0.839264
0.839264
0.839274
0.839284
0.839293
0.839303
0.839303
0.839313
0.839323
0.839333
0.839342
0.839342
0.839352
0.839362
0.839372
0.839381
0.839381
0.839391
0.839401
0.839411
0.839421
0.839421
0.83943
0.83944
0.83945
0.83946
0.83946
0.83947
0.83948
0.839489
0.839499
0.839499
0.839509
0.839519
0.839529
0.839539
0.839539
0.839549
0.839558
0.839568
0.839578
0.839578
0.839588
0.839598
0.839608
0.839618
0.839618
0.839628
0.839637
0.839647
0.839657
0.839657
0.839667
0.839677
0.839687
0.839697
0.839697
0.839707
0.839717
0.839727
0.839737
0.839737
0.839747
0.839756
0.839766
0.839776
0.839776
0.839786
0.839796
0.839806
0.839816
0.839816
0.839826
0.839836
0.839846
0.839857
0.839857
0.839867
0.839877
0.839887
0.839897
0.839897
0.839907
0.839917
0.839927
0.839937
0.839937
0.839947
0.839957
0.839967
0.839978
0.839978
0.839988
0.839998
0.840008
0.840018
0.840018
0.840028
0.840038
0.840048
0.840059
0.840059
0.840069
0.840079
0.840089
0.840099
0.840099
0.840109
0.840119
0.84013
0.84014
0.84014
0.84015
0.84016
0.84017
0.84018
0.84018
0.840191
0.840201
0.840211
0.840221
0.840221
0.840231
0.840242
0.840252
0.840262
0.840262
0.840272
0.840283
0.840293
0.840303
0.840303
0.840313
0.840323
0.840334
0.840344
0.840344
0.840354
0.840364
0.840375
0.840385
0.840385
0.840395
0.840405
0.840416
0.840426
0.840426
0.840436
0.840447
0.840457
0.840467
0.840467
0.840477
0.840488
0.840498
0.840508
0.840508
0.840519
0.840529
0.840539
0.84055
0.84055
0.84056
0.84057
0.840581
0.840591
0.840591
0.840602
0.840612
0.840622
0.840633
0.840633
0.840643
0.840654
0.840664
0.840675
0.840675
0.840685
0.840695
0.840706
0.840716
0.840716
0.840727
0.840737
0.840748
0.840758
0.840758
0.840769
0.840779
0.84079
0.8408
0.8408
0.840811
0.840821
0.840832
0.840842
0.840842
0.840853
0.840863
0.840874
0.840884
0.840884
0.840895
0.840905
0.840916
0.840927
0.840927
0.840937
0.840948
0.840958
0.840969
0.840969
0.840979
0.84099
0.841
0.841011
0.841011
0.841022
0.841032
0.841043
0.841053
0.841053
0.841064
0.841075
0.841085
0.841096
0.841096
0.841106
0.841117
0.841128
0.841138
0.841138
0.841149
0.841159
0.84117
0.841181
0.841181
0.841191
0.841202
0.841213
0.841223
0.841223
0.841234
0.841245
0.841255
0.841266
0.841266
0.841277
0.841287
0.841298
0.841309
0.841309
0.841319
0.84133
0.841341
0.841351
0.841351
0.841362
0.841373
0.841384
0.841394
0.841394
0.841405
0.841416
0.841427
0.841438
0.841438
0.841448
0.841459
0.84147
0.841481
0.841481
0.841492
0.841503
0.841513
0.841524
0.841524
0.841535
0.841546
0.841557
0.841568
0.841568
0.841578
0.841589
0.8416
0.841611
0.841611
0.841622
0.841633
0.841644
0.841655
0.841655
0.841665
0.841676
0.841687
0.841698
0.841698
0.841709
0.84172
0.841731
0.841742
0.841742
0.841753
0.841764
0.841775
0.841785
0.841785
0.841796
0.841807
0.841818
0.841829
0.841829
0.84184
0.841851
0.841862
0.841873
0.841873
0.841884
0.841895
0.841906
0.841917
0.841917
0.841928
0.841939
0.84195
0.841961
0.841961
0.841972
0.841983
0.841994
0.842005
0.842005
0.842016
0.842027
0.842038
0.842049
0.842049
0.84206
0.842071
0.842082
0.842093
0.842093
0.842104
0.842115
0.842126
0.842137
0.842137
0.842148
0.842159
0.842171
0.842182
0.842182
0.842193
0.842204
0.842215
0.842226
0.842226
0.842237
0.842249
0.84226
0.842271
0.842271
0.842282
0.842293
0.842304
0.842316
0.842316
0.842327
0.842338
0.842349
0.84236
0.84236
0.842372
0.842383
0.842394
0.842405
0.842405
0.842417
0.842428
0.842439
0.84245
0.84245
0.842461
0.842473
0.842484
0.842495
0.842495
0.842506
0.842518
0.842529
0.84254
0.84254
0.842552
0.842563
0.842574
0.842585
0.842585
0.842597
0.842608
0.842619
0.84263
0.84263
0.842642
0.842653
0.842664
0.842676
0.842676
0.842687
0.842698
0.84271
0.842721
0.842721
0.842732
0.842744
0.842755
0.842766
0.842766
0.842778
0.842789
0.8428
0.842812
0.842812
0.842823
0.842834
0.842846
0.842857
0.842857
0.842869
0.84288
0.842891
0.842903
0.842903
0.842914
0.842926
0.842937
0.842949
0.842949
0.84296
0.842971
0.842983
0.842994
0.842994
0.843006
0.843017
0.843029
0.84304
0.84304
0.843052
0.843063
0.843075
0.843087
0.843087
0.843098
0.84311
0.843121
0.843133
0.843133
0.843144
0.843156
0.843167
0.843179
0.843179
0.84319
0.843202
0.843214
0.843225
0.843225
0.843237
0.843248
0.84326
0.843271
0.843271
0.843283
0.843295
0.843306
0.843318
0.843318
0.843329
0.843341
0.843353
0.843364
0.843364
0.843376
0.843388
0.843399
0.843411
0.843411
0.843422
0.843434
0.843446
0.843457
0.843457
0.843469
0.843481
0.843492
0.843504
0.843504
0.843516
0.843527
0.843539
0.843551
0.843551
0.843562
0.843574
0.843586
0.843597
0.843597
0.843609
0.843621
0.843632
0.843644
0.843644
0.843656
0.843668
0.843679
0.843691
0.843691
0.843703
0.843715
0.843726
0.843738
0.843738
0.84375
0.843762
0.843774
0.843785
0.843785
0.843797
0.843809
0.843821
0.843833
0.843833
0.843845
0.843857
0.843868
0.84388
0.84388
0.843892
0.843904
0.843916
0.843928
0.843928
0.84394
0.843951
0.843963
0.843975
0.843975
0.843987
0.843999
0.844011
0.844023
0.844023
0.844035
0.844047
0.844059
0.84407
0.84407
0.844082
0.844094
0.844106
0.844118
0.844118
0.84413
0.844142
0.844154
0.844166
0.844166
0.844178
0.84419
0.844202
0.844214
0.844214
0.844226
0.844238
0.84425
0.844262
0.844262
0.844274
0.844286
0.844298
0.84431
0.84431
0.844321
0.844333
0.844345
0.844358
0.844358
0.84437
0.844382
0.844394
0.844406
0.844406
0.844418
0.84443
0.844442
0.844454
0.844454
0.844466
0.844478
0.84449
0.844502
0.844502
0.844514
0.844526
0.844539
0.844551
0.844551
0.844563
0.844575
0.844587
0.844599
0.844599
0.844611
0.844624
0.844636
0.844648
0.844648
0.84466
0.844672
0.844685
0.844697
0.844697
0.844709
0.844721
0.844733
0.844745
0.844745
0.844758
0.84477
0.844782
0.844794
0.844794
0.844807
0.844819
0.844831
0.844843
0.844843
0.844855
0.844868
0.84488
0.844892
0.844892
0.844904
0.844917
0.844929
0.844941
0.844941
0.844953
0.844966
0.844978
0.84499
0.84499
0.845003
0.845015
0.845027
0.845039
0.845039
0.845052
0.845064
0.845076
0.845089
0.845089
0.845101
0.845113
0.845126
0.845138
0.845138
0.84515
0.845163
0.845175
0.845187
0.845187
0.8452
0.845212
0.845224
0.845237
0.845237
0.845249
0.845261
0.845274
0.845286
0.845286
0.845299
0.845311
0.845324
0.845336
0.845336
0.845349
0.845361
0.845373
0.845386
0.845386
0.845398
0.845411
0.845423
0.845436
0.845436
0.845448
0.845461
0.845473
0.845486
0.845486
0.845498
0.845511
0.845523
0.845536
0.845536
0.845548
0.845561
0.845573
0.845586
0.845586
0.845599
0.845611
0.845624
0.845636
0.845636
0.845649
0.845661
0.845674
0.845686
0.845686
0.845699
0.845712
0.845724
0.845737
0.845737
0.845749
0.845762
0.845774
0.845787
0.845787
0.8458
0.845812
0.845825
0.845837
0.845837
0.84585
0.845863
0.845875
0.845888
0.845888
0.8459
0.845913
0.845926
0.845938
0.845938
0.845951
0.845964
0.845976
0.845989
0.845989
0.846002
0.846014
0.846027
0.84604
0.84604
0.846052
0.846065
0.846078
0.846091
0.846091
0.846103
0.846116
0.846129
0.846142
0.846142
0.846154
0.846167
0.84618
0.846193
0.846193
0.846206
0.846218
0.846231
0.846244
0.846244
0.846257
0.84627
0.846282
0.846295
0.846295
0.846308
0.846321
0.846334
0.846347
0.846347
0.846359
0.846372
0.846385
0.846398
0.846398
0.846411
0.846424
0.846436
0.846449
0.846449
0.846462
0.846475
0.846488
0.846501
0.846501
0.846514
0.846526
0.846539
0.846552
0.846552
0.846565
0.846578
0.846591
0.846604
0.846604
0.846617
0.84663
0.846642
0.846655
0.846655
0.846668
0.846681
0.846694
0.846707
0.846707
0.84672
0.846733
0.846746
0.846759
0.846759
0.846772
0.846785
0.846798
0.846811
0.846811
0.846824
0.846837
0.84685
0.846863
0.846863
0.846876
0.846889
0.846902
0.846915
0.846915
0.846928
0.846941
0.846954
0.846967
0.846967
0.846981
0.846994
0.847007
0.84702
0.84702
0.847033
0.847046
0.847059
0.847072
0.847072
0.847085
0.847098
0.847112
0.847125
0.847125
0.847138
0.847151
0.847164
0.847177
0.847177
0.84719
0.847204
0.847217
0.84723
0.84723
0.847243
0.847256
0.847269
0.847282
0.847282
0.847296
0.847309
0.847322
0.847335
0.847335
0.847348
0.847361
0.847375
0.847388
0.847388
0.847401
0.847414
0.847427
0.847441
0.847441
0.847454
0.847467
0.84748
0.847494
0.847494
0.847507
0.84752
0.847533
0.847547
0.847547
0.84756
0.847573
0.847586
0.8476