<?xml version="1.0"?>
<VTKFile type="UnstructuredGrid" version="0.1" byte_order="LittleEndian">
<UnstructuredGrid>
<Piece NumberOfPoints="5000" NumberOfCells="4000">
<PointData Scalars="Reaction 0">
<DataArray type="Float32" Name="Reaction 0" format="ascii">
1.00225
1.00225
1.00225
1.00225
1.00225
1.00225
1.00225
1.00225
1.00225
1.00225
1.00225
1.00225
1.00225
1.00225
1.00225
1.00225
1.00225
1.00225
1.00225
1.00225
1.00225
1.00225
1.00225
1.00225
1.00225
1.00225
1.00225
1.00225
1.00225
1.00225
1.00225
1.00225
1.00225
1.00225
1.00225
1.00225
1.00225
1.00225
1.00225
1.00225
1.00225
1.00225
1.00225
1.00225
1.00225
1.00225
1.00225
1.00225
1.00225
1.00225
1.00225
1.00225
1.00225
1.00225
1.00225
1.00225
1.00225
1.00225
1.00225
1.00225
1.00225
1.00225
1.00225
1.00225
1.00225
1.00225
1.00225
1.00225
1.00225
1.00225
1.00225
1.00225
1.00225
1.00225
1.00225
1.00225
1.00225
1.00225
1.00225
1.00225
1.00225
1.00225
1.00225
1.00225
1.00225
1.00225
1.00225
1.00225
1.00225
1.00225
1.00225
1.00225
1.00225
1.00225
1.00225
1.00225
1.00225
1.00225
1.00225
1.00225
1.00225
1.00225
1.00225
1.00225
1.00225
1.00225
1.00225
1.00225
1.00225
1.00225
1.00225
1.00225
1.00225
1.00225
1.00225
1.00225
1.00225
1.00225
1.00225
1.00225
1.00225
1.00225
1.00225
1.00225
1.00225
1.00225
1.00225
1.00225
1.00225
1.00225
1.00225
1.00225
1.00225
1.00225
1.00225
1.00225
1.00225
1.00225
1.00225
1.00225
1.00225
1.00225
1.00225
1.00225
1.00225
1.00225
1.00224
1.00224
1.00224
1.00224
1.00224
1.00224
1.00224
1.00224
1.00224
1.00224
1.00224
1.00224
1.00224
1.00224
1.00224
1.00224
1.00224
1.00224
1.00224
1.00224
1.00224
1.00224
1.00224
1.00224
1.00224
1.00224
1.00224
1.00224
1.00224
1.00224
1.00224
1.00224
1.00224
1.00224
1.00224
1.00224
1.00224
1.00224
1.00224
1.00224
1.00224
1.00224
1.00224
1.00224
1.00224
1.00224
1.00224
1.00224
1.00224
1.00224
1.00224
1.00224
1.00224
1.00224
1.00224
1.00224
1.00224
1.00224
1.00224
1.00224
1.00224
1.00224
1.00224
1.00224
1.00224
1.00224
1.00224
1.00224
1.00224
1.00224
1.00224
1.00224
1.00224
1.00224
1.00224
1.00224
1.00223
1.00223
1.00223
1.00223
1.00223
1.00223
1.00223
1.00223
1.00223
1.00223
1.00223
1.00223
1.00223
1.00223
1.00223
1.00223
1.00223
1.00223
1.00223
1.00223
1.00223
1.00223
1.00223
1.00223
1.00223
1.00223
1.00223
1.00223
1.00223
1.00223
1.00223
1.00223
1.00223
1.00223
1.00223
1.00223
1.00223
1.00223
1.00223
1.00223
1.00223
1.00223
1.00223
1.00223
1.00223
1.00223
1.00223
1.00223
1.00223
1.00223
1.00223
1.00223
1.00223
1.00223
1.00223
1.00223
1.00222
1.00222
1.00222
1.00222
1.00222
1.00222
1.00222
1.00222
1.00222
1.00222
1.00222
1.00222
1.00222
1.00222
1.00222
1.00222
1.00222
1.00222
1.00222
1.00222
1.00222
1.00222
1.00222
1.00222
1.00222
1.00222
1.00222
1.00222
1.00222
1.00222
1.00222
1.00222
1.00222
1.00222
1.00222
1.00222
1.00222
1.00222
1.00222
1.00222
1.00222
1.00222
1.00222
1.00222
1.00222
1.00222
1.00221
1.00221
1.00221
1.00221
1.00221
1.00221
1.00221
1.00221
1.00221
1.00221
1.00221
1.00221
1.00221
1.00221
1.00221
1.00221
1.00221
1.00221
1.00221
1.00221
1.00221
1.00221
1.00221
1.00221
1.00221
1.00221
1.00221
1.00221
1.00221
1.00221
1.00221
1.00221
1.00221
1.00221
1.00221
1.00221
1.00221
1.00221
1.00221
1.00221
1.00221
1.00221
1.0022
1.0022
1.0022
1.0022
1.0022
1.0022
1.0022
1.0022
1.0022
1.0022
1.0022
1.0022
1.0022
1.0022
1.0022
1.0022
1.0022
1.0022
1.0022
1.0022
1.0022
1.0022
1.0022
1.0022
1.0022
1.0022
1.0022
1.0022
1.0022
1.0022
1.0022
1.0022
1.0022
1.0022
1.0022
1.0022
1.00219
1.00219
1.00219
1.00219
1.00219
1.00219
1.00219
1.00219
1.00219
1.00219
1.00219
1.00219
1.00219
1.00219
1.00219
1.00219
1.00219
1.00219
1.00219
1.00219
1.00219
1.00219
1.00219
1.00219
1.00219
1.00219
1.00219
1.00219
1.00219
1.00219
1.00219
1.00219
1.00219
1.00219
1.00218
1.00218
1.00218
1.00218
1.00218
1.00218
1.00218
1.00218
1.00218
1.00218
1.00218
1.00218
1.00218
1.00218
1.00218
1.00218
1.00218
1.00218
1.00218
1.00218
1.00218
1.00218
1.00218
1.00218
1.00218
1.00218
1.00218
1.00218
1.00218
1.00218
1.00217
1.00217
1.00217
1.00217
1.00217
1.00217
1.00217
1.00217
1.00217
1.00217
1.00217
1.00217
1.00217
1.00217
1.00217
1.00217
1.00217
1.00217
1.00217
1.00217
1.00217
1.00217
1.00217
1.00217
1.00217
1.00217
1.00217
1.00217
1.00216
1.00216
1.00216
1.00216
1.00216
1.00216
1.00216
1.00216
1.00216
1.00216
1.00216
1.00216
1.00216
1.00216
1.00216
1.00216
1.00216
1.00216
1.00216
1.00216
1.00216
1.00216
1.00216
1.00216
1.00216
1.00216
1.00216
1.00216
1.00216
1.00215
1.00215
1.00215
1.00215
1.00215
1.00215
1.00215
1.00215
1.00215
1.00215
1.00215
1.00215
1.00215
1.00215
1.00215
1.00215
1.00215
1.00215
1.00215
1.00215
1.00215
1.00215
1.00215
1.00215
1.00215
1.00215
1.00214
1.00214
1.00214
1.00214
1.00214
1.00214
1.00214
1.00214
1.00214
1.00214
1.00214
1.00214
1.00214
1.00214
1.00214
1.00214
1.00214
1.00214
1.00214
1.00214
1.00214
1.00214
1.00214
1.00214
1.00214
1.00213
1.00213
1.00213
1.00213
1.00213
1.00213
1.00213
1.00213
1.00213
1.00213
1.00213
1.00213
1.00213
1.00213
1.00213
1.00213
1.00213
1.00213
1.00213
1.00213
1.00213
1.00213
1.00213
1.00213
1.00212
1.00212
1.00212
1.00212
1.00212
1.00212
1.00212
1.00212
1.00212
1.00212
1.00212
1.00212
1.00212
1.00212
1.00212
1.00212
1.00212
1.00212
1.00212
1.00212
1.00212
1.00212
1.00212
1.00212
1.00211
1.00211
1.00211
1.00211
1.00211
1.00211
1.00211
1.00211
1.00211
1.00211
1.00211
1.00211
1.00211
1.00211
1.00211
1.00211
1.00211
1.00211
1.00211
1.00211
1.00211
1.00211
1.0021
1.0021
1.0021
1.0021
1.0021
1.0021
1.0021
1.0021
1.0021
1.0021
1.0021
1.0021
1.0021
1.0021
1.0021
1.0021
1.0021
1.0021
1.0021
1.0021
1.0021
1.0021
1.00209
1.00209
1.00209
1.00209
1.00209
1.00209
1.00209
1.00209
1.00209
1.00209
1.00209
1.00209
1.00209
1.00209
1.00209
1.00209
1.00209
1.00209
1.00209
1.00209
1.00209
1.00208
1.00208
1.00208
1.00208
1.00208
1.00208
1.00208
1.00208
1.00208
1.00208
1.00208
1.00208
1.00208
1.00208
1.00208
1.00208
1.00208
1.00208
1.00208
1.00208
1.00207
1.00207
1.00207
1.00207
1.00207
1.00207
1.00207
1.00207
1.00207
1.00207
1.00207
1.00207
1.00207
1.00207
1.00207
1.00207
1.00207
1.00207
1.00207
1.00207
1.00206
1.00206
1.00206
1.00206
1.00206
1.00206
1.00206
1.00206
1.00206
1.00206
1.00206
1.00206
1.00206
1.00206
1.00206
1.00206
1.00206
1.00206
1.00206
1.00205
1.00205
1.00205
1.00205
1.00205
1.00205
1.00205
1.00205
1.00205
1.00205
1.00205
1.00205
1.00205
1.00205
1.00205
1.00205
1.00205
1.00205
1.00204
1.00204
1.00204
1.00204
1.00204
1.00204
1.00204
1.00204
1.00204
1.00204
1.00204
1.00204
1.00204
1.00204
1.00204
1.00204
1.00204
1.00204
1.00203
1.00203
1.00203
1.00203
1.00203
1.00203
1.00203
1.00203
1.00203
1.00203
1.00203
1.00203
1.00203
1.00203
1.00203
1.00203
1.00203
1.00202
1.00202
1.00202
1.00202
1.00202
1.00202
1.00202
1.00202
1.00202
1.00202
1.00202
1.00202
1.00202
1.00202
1.00202
1.00202
1.00202
1.00202
1.00201
1.00201
1.00201
1.00201
1.00201
1.00201
1.00201
1.00201
1.00201
1.00201
1.00201
1.00201
1.00201
1.00201
1.00201
1.00201
1.00201
1.002
1.002
1.002
1.002
1.002
1.002
1.002
1.002
1.002
1.002
1.002
1.002
1.002
1.002
1.002
1.002
1.002
1.002
1.00199
1.00199
1.00199
1.00199
1.00199
1.00199
1.00199
1.00199
1.00199
1.00199
1.00199
1.00199
1.00199
1.00199
1.00199
1.00199
1.00198
1.00198
1.00198
1.00198
1.00198
1.00198
1.00198
1.00198
1.00198
1.00198
1.00198
1.00198
1.00198
1.00198
1.00198
1.00198
1.00197
1.00197
1.00197
1.00197
1.00197
1.00197
1.00197
1.00197
1.00197
1.00197
1.00197
1.00197
1.00197
1.00197
1.00197
1.00197
1.00197
1.00196
1.00196
1.00196
1.00196
1.00196
1.00196
1.00196
1.00196
1.00196
1.00196
1.00196
1.00196
1.00196
1.00196
1.00196
1.00196
1.00195
1.00195
1.00195
1.00195
1.00195
1.00195
1.00195
1.00195
1.00195
1.00195
1.00195
1.00195
1.00195
1.00195
1.00195
1.00194
1.00194
1.00194
1.00194
1.00194
1.00194
1.00194
1.00194
1.00194
1.00194
1.00194
1.00194
1.00194
1.00194
1.00194
1.00193
1.00193
1.00193
1.00193
1.00193
1.00193
1.00193
1.00193
1.00193
1.00193
1.00193
1.00193
1.00193
1.00193
1.00193
1.00192
1.00192
1.00192
1.00192
1.00192
1.00192
1.00192
1.00192
1.00192
1.00192
1.00192
1.00192
1.00192
1.00192
1.00192
1.00191
1.00191
1.00191
1.00191
1.00191
1.00191
1.00191
1.00191
1.00191
1.00191
1.00191
1.00191
1.00191
1.00191
1.00191
1.0019
1.0019
1.0019
1.0019
1.0019
1.0019
1.0019
1.0019
1.0019
1.0019
1.0019
1.0019
1.0019
1.0019
1.00189
1.00189
1.00189
1.00189
1.00189
1.00189
1.00189
1.00189
1.00189
1.00189
1.00189
1.00189
1.00189
1.00188
1.00188
1.00188
1.00188
1.00188
1.00188
1.00188
1.00188
1.00188
1.00188
1.00188
1.00188
1.00188
1.00188
1.00187
1.00187
1.00187
1.00187
1.00187
1.00187
1.00187
1.00187
1.00187
1.00187
1.00187
1.00187
1.00187
1.00187
1.00186
1.00186
1.00186
1.00186
1.00186
1.00186
1.00186
1.00186
1.00186
1.00186
1.00186
1.00186
1.00186
1.00186
1.00185
1.00185
1.00185
1.00185
1.00185
1.00185
1.00185
1.00185
1.00185
1.00185
1.00185
1.00185
1.00185
1.00184
1.00184
1.00184
1.00184
1.00184
1.00184
1.00184
1.00184
1.00184
1.00184
1.00184
1.00184
1.00184
1.00183
1.00183
1.00183
1.00183
1.00183
1.00183
1.00183
1.00183
1.00183
1.00183
1.00183
1.00183
1.00183
1.00183
1.00182
1.00182
1.00182
1.00182
1.00182
1.00182
1.00182
1.00182
1.00182
1.00182
1.00182
1.00182
1.00182
1.00181
1.00181
1.00181
1.00181
1.00181
1.00181
1.00181
1.00181
1.00181
1.00181
1.00181
1.00181
1.00181
1.0018
1.0018
1.0018
1.0018
1.0018
1.0018
1.0018
1.0018
1.0018
1.0018
1.0018
1.0018
1.00179
1.00179
1.00179
1.00179
1.00179
1.00179
1.00179
1.00179
1.00179
1.00179
1.00179
1.00179
1.00179
1.00178
1.00178
1.00178
1.00178
1.00178
1.00178
1.00178
1.00178
1.00178
1.00178
1.00178
1.00178
1.00177
1.00177
1.00177
1.00177
1.00177
1.00177
1.00177
1.00177
1.00177
1.00177
1.00177
1.00177
1.00177
1.00176
1.00176
1.00176
1.00176
1.00176
1.00176
1.00176
1.00176
1.00176
1.00176
1.00176
1.00176
1.00175
1.00175
1.00175
1.00175
1.00175
1.00175
1.00175
1.00175
1.00175
1.00175
1.00175
1.00175
1.00174
1.00174
1.00174
1.00174
1.00174
1.00174
1.00174
1.00174
1.00174
1.00174
1.00174
1.00174
1.00173
1.00173
1.00173
1.00173
1.00173
1.00173
1.00173
1.00173
1.00173
1.00173
1.00173
1.00172
1.00172
1.00172
1.00172
1.00172
1.00172
1.00172
1.00172
1.00172
1.00172
1.00172
1.00172
1.00172
1.00171
1.00171
1.00171
1.00171
1.00171
1.00171
1.00171
1.00171
1.00171
1.00171
1.00171
1.0017
1.0017
1.0017
1.0017
1.0017
1.0017
1.0017
1.0017
1.0017
1.0017
1.0017
1.00169
1.00169
1.00169
1.00169
1.00169
1.00169
1.00169
1.00169
1.00169
1.00169
1.00169
1.00169
1.00168
1.00168
1.00168
1.00168
1.00168
1.00168
1.00168
1.00168
1.00168
1.00168
1.00168
1.00168
1.00167
1.00167
1.00167
1.00167
1.00167
1.00167
1.00167
1.00167
1.00167
1.00167
1.00167
1.00166
1.00166
1.00166
1.00166
1.00166
1.00166
1.00166
1.00166
1.00166
1.00166
1.00166
1.00166
1.00165
1.00165
1.00165
1.00165
1.00165
1.00165
1.00165
1.00165
1.00165
1.00165
1.00165
1.00164
1.00164
1.00164
1.00164
1.00164
1.00164
1.00164
1.00164
1.00164
1.00164
1.00164
1.00163
1.00163
1.00163
1.00163
1.00163
1.00163
1.00163
1.00163
1.00163
1.00163
1.00162
1.00162
1.00162
1.00162
1.00162
1.00162
1.00162
1.00162
1.00162
1.00162
1.00162
1.00161
1.00161
1.00161
1.00161
1.00161
1.00161
1.00161
1.00161
1.00161
1.00161
1.00161
1.00161
1.0016
1.0016
1.0016
1.0016
1.0016
1.0016
1.0016
1.0016
1.0016
1.0016
1.00159
1.00159
1.00159
1.00159
1.00159
1.00159
1.00159
1.00159
1.00159
1.00159
1.00159
1.00158
1.00158
1.00158
1.00158
1.00158
1.00158
1.00158
1.00158
1.00158
1.00158
1.00157
1.00157
1.00157
1.00157
1.00157
1.00157
1.00157
1.00157
1.00157
1.00157
1.00156
1.00156
1.00156
1.00156
1.00156
1.00156
1.00156
1.00156
1.00156
1.00156
1.00155
1.00155
1.00155
1.00155
1.00155
1.00155
1.00155
1.00155
1.00155
1.00155
1.00155
1.00154
1.00154
1.00154
1.00154
1.00154
1.00154
1.00154
1.00154
1.00154
1.00154
1.00153
1.00153
1.00153
1.00153
1.00153
1.00153
1.00153
1.00153
1.00153
1.00153
1.00152
1.00152
1.00152
1.00152
1.00152
1.00152
1.00152
1.00152
1.00152
1.00152
1.00151
1.00151
1.00151
1.00151
1.00151
1.00151
1.00151
1.00151
1.00151
1.00151
1.00151
1.0015
1.0015
1.0015
1.0015
1.0015
1.0015
1.0015
1.0015
1.0015
1.0015
1.00149
1.00149
1.00149
1.00149
1.00149
1.00149
1.00149
1.00149
1.00149
1.00149
1.00148
1.00148
1.00148
1.00148
1.00148
1.00148
1.00148
1.00148
1.00148
1.00148
1.00147
1.00147
1.00147
1.00147
1.00147
1.00147
1.00147
1.00147
1.00147
1.00147
1.00146
1.00146
1.00146
1.00146
1.00146
1.00146
1.00146
1.00146
1.00146
1.00145
1.00145
1.00145
1.00145
1.00145
1.00145
1.00145
1.00145
1.00145
1.00145
1.00144
1.00144
1.00144
1.00144
1.00144
1.00144
1.00144
1.00144
1.00144
1.00144
1.00143
1.00143
1.00143
1.00143
1.00143
1.00143
1.00143
1.00143
1.00143
1.00142
1.00142
1.00142
1.00142
1.00142
1.00142
1.00142
1.00142
1.00142
1.00142
1.00141
1.00141
1.00141
1.00141
1.00141
1.00141
1.00141
1.00141
1.00141
1.0014
1.0014
1.0014
1.0014
1.0014
1.0014
1.0014
1.0014
1.0014
1.0014
1.00139
1.00139
1.00139
1.00139
1.00139
1.00139
1.00139
1.00139
1.00138
1.00138
1.00138
1.00138
1.00138
1.00138
1.00138
1.00138
1.00138
1.00138
1.00137
1.00137
1.00137
1.00137
1.00137
1.00137
1.00137
1.00137
1.00137
1.00136
1.00136
1.00136
1.00136
1.00136
1.00136
1.00136
1.00136
1.00136
1.00136
1.00135
1.00135
1.00135
1.00135
1.00135
1.00135
1.00135
1.00135
1.00135
1.00135
1.00134
1.00134
1.00134
1.00134
1.00134
1.00134
1.00134
1.00134
1.00134
1.00133
1.00133
1.00133
1.00133
1.00133
1.00133
1.00133
1.00133
1.00133
1.00132
1.00132
1.00132
1.00132
1.00132
1.00132
1.00132
1.00132
1.00132
1.00132
1.00131
1.00131
1.00131
1.00131
1.00131
1.00131
1.00131
1.00131
1.0013
1.0013
1.0013
1.0013
1.0013
1.0013
1.0013
1.0013
1.0013
1.00129
1.00129
1.00129
1.00129
1.00129
1.00129
1.00129
1.00129
1.00129
1.00128
1.00128
1.00128
1.00128
1.00128
1.00128
1.00128
1.00128
1.00128
1.00127
1.00127
1.00127
1.00127
1.00127
1.00127
1.00127
1.00127
1.00126
1.00126
1.00126
1.00126
1.00126
1.00126
1.00126
1.00126
1.00126
1.00125
1.00125
1.00125
1.00125
1.00125
1.00125
1.00125
1.00125
1.00125
1.00124
1.00124
1.00124
1.00124
1.00124
1.00124
1.00124
1.00124
1.00124
1.00123
1.00123
1.00123
1.00123
1.00123
1.00123
1.00123
1.00123
1.00122
1.00122
1.00122
1.00122
1.00122
1.00122
1.00122
1.00122
1.00122
1.00121
1.00121
1.00121
1.00121
1.00121
1.00121
1.00121
1.00121
1.00121
1.0012
1.0012
1.0012
1.0012
1.0012
1.0012
1.0012
1.0012
1.0012
1.00119
1.00119
1.00119
1.00119
1.00119
1.00119
1.00119
1.00119
1.00118
1.00118
1.00118
1.00118
1.00118
1.00118
1.00118
1.00118
1.00118
1.00117
1.00117
1.00117
1.00117
1.00117
1.00117
1.00117
1.00117
1.00117
1.00116
1.00116
1.00116
1.00116
1.00116
1.00116
1.00116
1.00116
1.00116
1.00115
1.00115
1.00115
1.00115
1.00115
1.00115
1.00115
1.00114
1.00114
1.00114
1.00114
1.00114
1.00114
1.00114
1.00114
1.00114
1.00113
1.00113
1.00113
1.00113
1.00113
1.00113
1.00113
1.00113
1.00113
1.00112
1.00112
1.00112
1.00112
1.00112
1.00112
1.00112
1.00111
1.00111
1.00111
1.00111
1.00111
1.00111
1.00111
1.00111
1.00111
1.0011
1.0011
1.0011
1.0011
1.0011
1.0011
1.0011
1.00109
1.00109
1.00109
1.00109
1.00109
1.00109
1.00109
1.00109
1.00109
1.00108
1.00108
1.00108
1.00108
1.00108
1.00108
1.00108
1.00108
1.00107
1.00107
1.00107
1.00107
1.00107
1.00107
1.00107
1.00107
1.00106
1.00106
1.00106
1.00106
1.00106
1.00106
1.00106
1.00106
1.00106
1.00105
1.00105
1.00105
1.00105
1.00105
1.00105
1.00105
1.00105
1.00104
1.00104
1.00104
1.00104
1.00104
1.00104
1.00104
1.00104
1.00103
1.00103
1.00103
1.00103
1.00103
1.00103
1.00103
1.00103
1.00102
1.00102
1.00102
1.00102
1.00102
1.00102
1.00102
1.00102
1.00102
1.00101
1.00101
1.00101
1.00101
1.00101
1.00101
1.00101
1.001
1.001
1.001
1.001
1.001
1.001
1.001
1.001
1.001
1.00099
1.00099
1.00099
1.00099
1.00099
1.00099
1.00099
1.00098
1.00098
1.00098
1.00098
1.00098
1.00098
1.00098
1.00098
1.00097
1.00097
1.00097
1.00097
1.00097
1.00097
1.00097
1.00097
1.00097
1.00096
1.00096
1.00096
1.00096
1.00096
1.00096
1.00096
1.00095
1.00095
1.00095
1.00095
1.00095
1.00095
1.00095
1.00095
1.00094
1.00094
1.00094
1.00094
1.00094
1.00094
1.00094
1.00093
1.00093
1.00093
1.00093
1.00093
1.00093
1.00093
1.00093
1.00092
1.00092
1.00092
1.00092
1.00092
1.00092
1.00092
1.00092
1.00091
1.00091
1.00091
1.00091
1.00091
1.00091
1.00091
1.00091
1.0009
1.0009
1.0009
1.0009
1.0009
1.0009
1.0009
1.00089
1.00089
1.00089
1.00089
1.00089
1.00089
1.00089
1.00089
1.00088
1.00088
1.00088
1.00088
1.00088
1.00088
1.00088
1.00088
1.00088
1.00087
1.00087
1.00087
1.00087
1.00087
1.00087
1.00087
1.00086
1.00086
1.00086
1.00086
1.00086
1.00086
1.00086
1.00086
1.00085
1.00085
1.00085
1.00085
1.00085
1.00085
1.00085
1.00084
1.00084
1.00084
1.00084
1.00084
1.00084
1.00084
1.00084
1.00083
1.00083
1.00083
1.00083
1.00083
1.00083
1.00083
1.00082
1.00082
1.00082
1.00082
1.00082
1.00082
1.00082
1.00082
1.00081
1.00081
1.00081
1.00081
1.00081
1.00081
1.00081
1.0008
1.0008
1.0008
1.0008
1.0008
1.0008
1.0008
1.0008
1.00079
1.00079
1.00079
1.00079
1.00079
1.00079
1.00079
1.00078
1.00078
1.00078
1.00078
1.00078
1.00078
1.00078
1.00078
1.00077
1.00077
1.00077
1.00077
1.00077
1.00077
1.00077
1.00076
1.00076
1.00076
1.00076
1.00076
1.00076
1.00076
1.00076
1.00075
1.00075
1.00075
1.00075
1.00075
1.00075
1.00075
1.00074
1.00074
1.00074
1.00074
1.00074
1.00074
1.00074
1.00074
1.00073
1.00073
1.00073
1.00073
1.00073
1.00073
1.00073
1.00072
1.00072
1.00072
1.00072
1.00072
1.00072
1.00072
1.00072
1.00071
1.00071
1.00071
1.00071
1.00071
1.00071
1.00071
1.0007
1.0007
1.0007
1.0007
1.0007
1.0007
1.00069
1.00069
1.00069
1.00069
1.00069
1.00069
1.00069
1.00069
1.00068
1.00068
1.00068
1.00068
1.00068
1.00068
1.00068
1.00067
1.00067
1.00067
1.00067
1.00067
1.00067
1.00067
1.00067
1.00066
1.00066
1.00066
1.00066
1.00066
1.00066
1.00066
1.00065
1.00065
1.00065
1.00065
1.00065
1.00065
1.00065
1.00064
1.00064
1.00064
1.00064
1.00064
1.00064
1.00064
1.00063
1.00063
1.00063
1.00063
1.00063
1.00063
1.00063
1.00063
1.00062
1.00062
1.00062
1.00062
1.00062
1.00062
1.00061
1.00061
1.00061
1.00061
1.00061
1.00061
1.00061
1.0006
1.0006
1.0006
1.0006
1.0006
1.0006
1.0006
1.0006
1.00059
1.00059
1.00059
1.00059
1.00059
1.00059
1.00059
1.00058
1.00058
1.00058
1.00058
1.00058
1.00058
1.00058
1.00057
1.00057
1.00057
1.00057
1.00057
1.00057
1.00057
1.00056
1.00056
1.00056
1.00056
1.00056
1.00056
1.00056
1.00056
1.00055
1.00055
1.00055
1.00055
1.00055
1.00055
1.00054
1.00054
1.00054
1.00054
1.00054
1.00054
1.00054
1.00053
1.00053
1.00053
1.00053
1.00053
1.00053
1.00053
1.00053
1.00052
1.00052
1.00052
1.00052
1.00052
1.00052
1.00051
1.00051
1.00051
1.00051
1.00051
1.00051
1.00051
1.00051
1.0005
1.0005
1.0005
1.0005
1.0005
1.0005
1.00049
1.00049
1.00049
1.00049
1.00049
1.00049
1.00049
1.00048
1.00048
1.00048
1.00048
1.00048
1.00048
1.00048
1.00047
1.00047
1.00047
1.00047
1.00047
1.00047
1.00047
1.00046
1.00046
1.00046
1.00046
1.00046
1.00046
1.00045
1.00045
1.00045
1.00045
1.00045
1.00045
1.00045
1.00045
1.00044
1.00044
1.00044
1.00044
1.00044
1.00044
1.00043
1.00043
1.00043
1.00043
1.00043
1.00043
1.00043
1.00043
1.00042
1.00042
1.00042
1.00042
1.00042
1.00042
1.00041
1.00041
1.00041
1.00041
1.00041
1.00041
1.00041
1.0004
1.0004
1.0004
1.0004
1.0004
1.0004
1.0004
1.00039
1.00039
1.00039
1.00039
1.00039
1.00039
1.00039
1.00038
1.00038
1.00038
1.00038
1.00038
1.00038
1.00037
1.00037
1.00037
1.00037
1.00037
1.00037
1.00037
1.00037
1.00036
1.00036
1.00036
1.00036
1.00036
1.00036
1.00035
1.00035
1.00035
1.00035
1.00035
1.00035
1.00034
1.00034
1.00034
1.00034
1.00034
1.00034
1.00034
1.00034
1.00033
1.00033
1.00033
1.00033
1.00033
1.00033
1.00032
1.00032
1.00032
1.00032
1.00032
1.00032
1.00031
1.00031
1.00031
1.00031
1.00031
1.00031
1.00031
1.00031
1.0003
1.0003
1.0003
1.0003
1.0003
1.0003
1.00029
1.00029
1.00029
1.00029
1.00029
1.00029
1.00028
1.00028
1.00028
1.00028
1.00028
1.00028
1.00028
1.00028
1.00027
1.00027
1.00027
1.00027
1.00027
1.00027
1.00026
1.00026
1.00026
1.00026
1.00026
1.00026
1.00026
1.00026
1.00025
1.00025
1.00025
1.00025
1.00025
1.00025
1.00024
1.00024
1.00024
1.00024
1.00024
1.00024
1.00023
1.00023
1.00023
1.00023
1.00023
1.00023
1.00022
1.00022
1.00022
1.00022
1.00022
1.00022
1.00022
1.00022
1.00021
1.00021
1.00021
1.00021
1.00021
1.00021
1.0002
1.0002
1.0002
1.0002
1.0002
1.0002
1.00019
1.00019
1.00019
1.00019
1.00019
1.00019
1.00019
1.00018
1.00018
1.00018
1.00018
1.00018
1.00018
1.00017
1.00017
1.00017
1.00017
1.00017
1.00017
1.00017
1.00016
1.00016
1.00016
1.00016
1.00016
1.00016
1.00016
1.00015
1.00015
1.00015
1.00015
1.00015
1.00015
1.00014
1.00014
1.00014
1.00014
1.00014
1.00014
1.00013
1.00013
1.00013
1.00013
1.00013
1.00013
1.00013
1.00013
1.00012
1.00012
1.00012
1.00012
1.00012
1.00012
1.00011
1.00011
1.00011
1.00011
1.00011
1.00011
1.0001
1.0001
1.0001
1.0001
1.0001
1.0001
1.00009
1.00009
1.00009
1.00009
1.00009
1.00009
1.00009
1.00008
1.00008
1.00008
1.00008
1.00008
1.00008
1.00007
1.00007
1.00007
1.00007
1.00007
1.00007
1.00007
1.00006
1.00006
1.00006
1.00006
1.00006
1.00006
1.00006
1.00005
1.00005
1.00005
1.00005
1.00005
1.00005
1.00004
1.00004
1.00004
1.00004
1.00004
1.00004
1.00003
1.00003
1.00003
1.00003
1.00003
1.00003
1.00002
1.00002
1.00002
1.00002
1.00002
1.00002
1.00002
1.00001
1.00001
1.00001
1.00001
1.00001
1.00001
1
1
1
1
0.999998
0.999996
0.999994
0.999992
0.999992
0.99999
0.999988
0.999986
0.999984
0.999984
0.999982
0.99998
0.999979
0.999977
0.999977
0.999975
0.999973
0.999971
0.999969
0.999969
0.999967
0.999965
0.999963
0.999961
0.999961
0.999959
0.999957
0.999955
0.999953
0.999953
0.999951
0.999949
0.999947
0.999945
0.999945
0.999943
0.999941
0.999939
0.999937
0.999937
0.999935
0.999933
0.999931
0.999929
0.999929
0.999927
0.999925
0.999923
0.999921
0.999921
0.999919
0.999917
0.999915
0.999913
0.999913
0.999911
0.999909
0.999907
0.999905
0.999905
0.999903
0.999901
0.999899
0.999897
0.999897
0.999895
0.999893
0.999891
0.999889
0.999889
0.999887
0.999885
0.999883
0.999881
0.999881
0.999879
0.999877
0.999875
0.999873
0.999873
0.999871
0.999869
0.999867
0.999865
0.999865
0.999863
0.999861
0.999859
0.999857
0.999857
0.999855
0.999853
0.999851
0.999849
0.999849
0.999847
0.999845
0.999843
0.999841
0.999841
0.999839
0.999837
0.999835
0.999833
0.999833
0.999831
0.999829
0.999827
0.999825
0.999825
0.999823
0.999821
0.999819
0.999817
0.999817
0.999815
0.999813
0.999811
0.999809
0.999809
0.999807
0.999805
0.999803
0.9998
0.9998
0.999798
0.999796
0.999794
0.999792
0.999792
0.99979
0.999788
0.999786
0.999784
0.999784
0.999782
0.99978
0.999778
0.999776
0.999776
0.999774
0.999772
0.99977
0.999768
0.999768
0.999766
0.999764
0.999762
0.99976
0.99976
0.999758
0.999756
0.999754
0.999751
0.999751
0.999749
0.999747
0.999745
0.999743
0.999743
0.999741
0.999739
0.999737
0.999735
0.999735
0.999733
0.999731
0.999729
0.999727
0.999727
0.999725
0.999723
0.999721
0.999719
0.999719
0.999717
0.999714
0.999712
0.99971
0.99971
0.999708
0.999706
0.999704
0.999702
0.999702
0.9997
0.999698
0.999696
0.999694
0.999694
0.999692
0.99969
0.999688
0.999686
0.999686
0.999684
0.999682
0.99968
0.999678
0.999678
0.999676
0.999674
0.999672
0.99967
0.99967
0.999668
0.999665
0.999663
0.999661
0.999661
0.999659
0.999657
0.999655
0.999653
0.999653
0.999651
0.999649
0.999647
0.999645
0.999645
0.999643
0.999641
0.999639
0.999637
0.999637
0.999634
0.999632
0.99963
0.999628
0.999628
0.999626
0.999624
0.999622
0.99962
0.99962
0.999618
0.999616
0.999614
0.999612
0.999612
0.999609
0.999607
0.999605
0.999603
0.999603
0.999601
0.999599
0.999597
0.999595
0.999595
0.999593
0.999591
0.999588
0.999586
0.999586
0.999584
0.999582
0.99958
0.999578
0.999578
0.999576
0.999574
0.999572
0.99957
0.99957
0.999568
0.999566
0.999563
0.999561
0.999561
0.999559
0.999557
0.999555
0.999553
0.999553
0.999551
0.999549
0.999547
0.999545
0.999545
0.999543
0.999541
0.999539
0.999537
0.999537
0.999534
0.999532
0.99953
0.999528
0.999528
0.999526
0.999524
0.999522
0.99952
0.99952
0.999518
0.999516
0.999514
0.999511
0.999511
0.999509
0.999507
0.999505
0.999503
0.999503
0.999501
0.999499
0.999497
0.999495
0.999495
0.999493
0.99949
0.999488
0.999486
0.999486
0.999484
0.999482
0.99948
0.999478
0.999478
0.999476
0.999473
0.999471
0.999469
0.999469
0.999467
0.999465
0.999463
0.999461
0.999461
0.999459
0.999456
0.999454
0.999452
0.999452
0.99945
0.999448
0.999446
0.999444
0.999444
0.999442
0.999439
0.999437
0.999435
0.999435
0.999433
0.999431
0.999429
0.999427
0.999427
0.999425
0.999423
0.99942
0.999418
0.999418
0.999416
0.999414
0.999412
0.99941
0.99941
0.999408
0.999406
0.999404
0.999401
0.999401
0.999399
0.999397
0.999395
0.999393
0.999393
0.999391
0.999389
0.999387
0.999385
0.999385
0.999382
0.99938
0.999378
0.999376
0.999376
0.999374
0.999372
0.99937
0.999368
0.999368
0.999365
0.999363
0.999361
0.999359
0.999359
0.999357
0.999355
0.999353
0.99935
0.99935
0.999348
0.999346
0.999344
0.999342
0.999342
0.99934
0.999338
0.999335
0.999333
0.999333
0.999331
0.999329
0.999327
0.999325
0.999325
0.999322
0.99932
0.999318
0.999316
0.999316
0.999314
0.999312
0.99931
0.999307
0.999307
0.999305
0.999303
0.999301
0.999299
0.999299
0.999297
0.999295
0.999292
0.99929
0.99929
0.999288
0.999286
0.999284
0.999282
0.999282
0.99928
0.999277
0.999275
0.999273
0.999273
0.999271
0.999269
0.999267
0.999265
0.999265
0.999262
0.99926
0.999258
0.999256
0.999256
0.999254
0.999252
0.99925
0.999247
0.999247
0.999245
0.999243
0.999241
0.999239
0.999239
0.999237
0.999235
0.999232
0.99923
0.99923
0.999228
0.999226
0.999224
0.999222
0.999222
0.999219
0.999217
0.999215
0.999213
0.999213
0.999211
0.999209
0.999206
0.999204
0.999204
0.999202
0.9992
0.999198
0.999196
0.999196
0.999193
0.999191
0.999189
0.999187
0.999187
0.999185
0.999182
0.99918
0.999178
0.999178
0.999176
0.999174
0.999172
0.999169
0.999169
0.999167
0.999165
0.999163
0.999161
0.999161
0.999158
0.999156
0.999154
0.999152
0.999152
0.99915
0.999148
0.999145
0.999143
0.999143
0.999141
0.999139
0.999137
0.999135
0.999135
0.999133
0.99913
0.999128
0.999126
0.999126
0.999124
0.999122
0.99912
0.999117
0.999117
0.999115
0.999113
0.999111
0.999109
0.999109
0.999106
0.999104
0.999102
0.9991
0.9991
0.999098
0.999096
0.999093
0.999091
0.999091
0.999089
0.999087
0.999085
0.999082
0.999082
0.99908
0.999078
0.999076
0.999074
0.999074
0.999072
0.999069
0.999067
0.999065
0.999065
0.999063
0.99906
0.999058
0.999056
0.999056
0.999054
0.999052
0.999049
0.999047
0.999047
0.999045
0.999043
0.999041
0.999038
0.999038
0.999036
0.999034
0.999032
0.99903
0.99903
0.999027
0.999025
0.999023
0.999021
0.999021
0.999019
0.999016
0.999014
0.999012
0.999012
0.99901
0.999008
0.999006
0.999003
0.999003
0.999001
0.998999
0.998997
0.998995
0.998995
0.998992
0.99899
0.998988
0.998986
0.998986
0.998984
0.998981
0.998979
0.998977
0.998977
0.998975
0.998973
0.998971
0.998968
0.998968
0.998966
0.998964
0.998962
0.998959
0.998959
0.998957
0.998955
0.998953
0.998951
0.998951
0.998948
0.998946
0.998944
0.998942
0.998942
0.99894
0.998937
0.998935
0.998933
0.998933
0.998931
0.998928
0.998926
0.998924
0.998924
0.998922
0.99892
0.998917
0.998915
0.998915
0.998913
0.998911
0.998908
0.998906
0.998906
0.998904
0.998902
0.9989
0.998897
0.998897
0.998895
0.998893
0.998891
0.998888
0.998888
0.998886
0.998884
0.998882
0.99888
0.99888
0.998877
0.998875
0.998873
0.998871
0.998871
0.998869
0.998866
0.998864
0.998862
0.998862
0.99886
0.998858
0.998855
0.998853
0.998853
0.998851
0.998849
0.998846
0.998844
0.998844
0.998842
0.99884
0.998838
0.998835
0.998835
0.998833
0.998831
0.998829
0.998827
0.998827
0.998824
0.998822
0.99882
0.998818
0.998818
0.998815
0.998813
0.998811
0.998809
0.998809
0.998806
0.998804
0.998802
0.9988
0.9988
0.998797
0.998795
0.998793
0.998791
0.998791
0.998788
0.998786
0.998784
0.998782
0.998782
0.998779
0.998777
0.998775
0.998773
0.998773
0.998771
0.998768
0.998766
0.998764
0.998764
0.998762
0.998759
0.998757
0.998755
0.998755
0.998753
0.99875
0.998748
0.998746
0.998746
0.998744
0.998742
0.998739
0.998737
0.998737
0.998735
0.998733
0.99873
0.998728
0.998728
0.998726
0.998724
0.998721
0.998719
0.998719
0.998717
0.998715
0.998713
0.99871
0.99871
0.998708
0.998706
0.998704
0.998701
0.998701
0.998699
0.998697
0.998695
0.998692
0.998692
0.99869
0.998688
0.998686
0.998683
0.998683
0.998681
0.998679
0.998677
0.998674
0.998674
0.998672
0.99867
0.998668
0.998665
0.998665
0.998663
0.998661
0.998659
0.998656
0.998656
0.998654
0.998652
0.99865
0.998647
0.998647
0.998645
0.998643
0.99864
0.998638
0.998638
0.998636
0.998634
0.998631
0.998629
0.998629
0.998627
0.998625
0.998622
0.99862
0.99862
0.998618
0.998616
0.998614
0.998611
0.998611
0.998609
0.998607
0.998605
0.998602
0.998602
0.9986
0.998598
0.998596
0.998593
0.998593
0.998591
0.998589
0.998587
0.998584
0.998584
0.998582
0.99858
0.998578
0.998575
0.998575
0.998573
0.998571
0.998569
0.998566
0.998566
0.998564
0.998562
0.998559
0.998557
0.998557
0.998555
0.998553
0.99855
0.998548
0.998548
0.998546
0.998544
0.998541
0.998539
0.998539
0.998537
0.998535
0.998532
0.99853
0.99853
0.998528
0.998525
0.998523
0.998521
0.998521
0.998519
0.998516
0.998514
0.998512
0.998512
0.99851
0.998507
0.998505
0.998503
0.998503
0.9985
0.998498
0.998496
0.998494
0.998494
0.998491
0.998489
0.998487
0.998485
0.998485
0.998482
0.99848
0.998478
0.998476
0.998476
0.998473
0.998471
0.998469
0.998467
0.998467
0.998464
0.998462
0.99846
0.998458
0.998458
0.998455
0.998453
0.998451
0.998448
0.998448
0.998446
0.998444
0.998442
0.998439
0.998439
0.998437
0.998435
0.998433
0.99843
0.99843
0.998428
0.998426
0.998423
0.998421
0.998421
0.998419
0.998417
0.998414
0.998412
0.998412
0.99841
0.998407
0.998405
0.998403
0.998403
0.998401
0.998398
0.998396
0.998394
0.998394
0.998391
0.998389
0.998387
0.998385
0.998385
0.998382
0.99838
0.998378
0.998376
0.998376
0.998373
0.998371
0.998369
0.998366
0.998366
0.998364
0.998362
0.99836
0.998357
0.998357
0.998355
0.998353
0.998351
0.998348
0.998348
0.998346
0.998344
0.998341
0.998339
0.998339
0.998337
0.998335
0.998332
0.99833
0.99833
0.998328
0.998326
0.998323
0.998321
0.998321
0.998319
0.998316
0.998314
0.998312
0.998312
0.99831
0.998307
0.998305
0.998303
0.998303
0.9983
0.998298
0.998296
0.998293
0.998293
0.998291
0.998289
0.998287
0.998284
0.998284
0.998282
0.99828
0.998277
0.998275
0.998275
0.998273
0.998271
0.998268
0.998266
0.998266
0.998264
0.998261
0.998259
0.998257
0.998257
0.998254
0.998252
0.99825
0.998248
0.998248
0.998245
0.998243
0.998241
0.998239
0.998239
0.998236
0.998234
0.998232