<?xml version="1.0"?>
<VTKFile type="UnstructuredGrid" version="0.1" byte_order="LittleEndian">
<UnstructuredGrid>
<Piece NumberOfPoints="5000" NumberOfCells="4000">
<PointData Scalars="Reaction 0">
<DataArray type="Float32" Name="Reaction 0" format="ascii">
0.393345
0.393345
0.393345
0.393345
0.393345
0.393345
0.393345
0.393346
0.393346
0.393346
0.393346
0.393346
0.393346
0.393347
0.393347
0.393347
0.393347
0.393348
0.393348
0.393349
0.393349
0.393349
0.39335
0.39335
0.393351
0.393351
0.393351
0.393352
0.393353
0.393353
0.393353
0.393354
0.393355
0.393355
0.393356
0.393356
0.393357
0.393358
0.393359
0.39336
0.39336
0.393361
0.393362
0.393363
0.393364
0.393364
0.393365
0.393366
0.393367
0.393368
0.393368
0.393369
0.39337
0.393371
0.393373
0.393373
0.393374
0.393375
0.393377
0.393378
0.393378
0.393379
0.393381
0.393382
0.393384
0.393384
0.393385
0.393387
0.393388
0.39339
0.39339
0.393391
0.393393
0.393395
0.393396
0.393396
0.393398
0.3934
0.393402
0.393404
0.393404
0.393405
0.393407
0.393409
0.393411
0.393411
0.393413
0.393415
0.393417
0.393419
0.393419
0.393421
0.393423
0.393425
0.393427
0.393427
0.39343
0.393432
0.393434
0.393436
0.393436
0.393439
0.393441
0.393443
0.393446
0.393446
0.393448
0.393451
0.393453
0.393456
0.393456
0.393458
0.393461
0.393463
0.393466
0.393466
0.393469
0.393471
0.393474
0.393477
0.393477
0.393479
0.393482
0.393485
0.393488
0.393488
0.393491
0.393494
0.393497
0.393499
0.393499
0.393502
0.393505
0.393509
0.393512
0.393512
0.393515
0.393518
0.393521
0.393524
0.393524
0.393527
0.393531
0.393534
0.393537
0.393537
0.393541
0.393544
0.393547
0.393551
0.393551
0.393554
0.393558
0.393561
0.393565
0.393565
0.393568
0.393572
0.393575
0.393579
0.393579
0.393583
0.393586
0.39359
0.393594
0.393594
0.393598
0.393601
0.393605
0.393609
0.393609
0.393613
0.393617
0.393621
0.393625
0.393625
0.393629
0.393633
0.393637
0.393641
0.393641
0.393645
0.393649
0.393654
0.393658
0.393658
0.393662
0.393666
0.393671
0.393675
0.393675
0.393679
0.393684
0.393688
0.393693
0.393693
0.393697
0.393702
0.393706
0.393711
0.393711
0.393715
0.39372
0.393724
0.393729
0.393729
0.393734
0.393739
0.393743
0.393748
0.393748
0.393753
0.393758
0.393763
0.393768
0.393768
0.393772
0.393777
0.393782
0.393787
0.393787
0.393792
0.393798
0.393803
0.393808
0.393808
0.393813
0.393818
0.393823
0.393829
0.393829
0.393834
0.393839
0.393844
0.39385
0.39385
0.393855
0.393861
0.393866
0.393871
0.393871
0.393877
0.393883
0.393888
0.393894
0.393894
0.393899
0.393905
0.393911
0.393916
0.393916
0.393922
0.393928
0.393934
0.393939
0.393939
0.393945
0.393951
0.393957
0.393963
0.393963
0.393969
0.393975
0.393981
0.393987
0.393987
0.393993
0.393999
0.394005
0.394011
0.394011
0.394018
0.394024
0.39403
0.394036
0.394036
0.394043
0.394049
0.394055
0.394062
0.394062
0.394068
0.394074
0.394081
0.394087
0.394087
0.394094
0.3941
0.394107
0.394114
0.394114
0.39412
0.394127
0.394134
0.39414
0.39414
0.394147
0.394154
0.394161
0.394168
0.394168
0.394174
0.394181
0.394188
0.394195
0.394195
0.394202
0.394209
0.394216
0.394223
0.394223
0.39423
0.394238
0.394245
0.394252
0.394252
0.394259
0.394266
0.394274
0.394281
0.394281
0.394288
0.394296
0.394303
0.39431
0.39431
0.394318
0.394325
0.394333
0.39434
0.39434
0.394348
0.394355
0.394363
0.394371
0.394371
0.394378
0.394386
0.394394
0.394402
0.394402
0.394409
0.394417
0.394425
0.394433
0.394433
0.394441
0.394449
0.394457
0.394465
0.394465
0.394473
0.394481
0.394489
0.394497
0.394497
0.394505
0.394513
0.394521
0.39453
0.39453
0.394538
0.394546
0.394554
0.394563
0.394563
0.394571
0.394579
0.394588
0.394596
0.394596
0.394605
0.394613
0.394622
0.39463
0.39463
0.394639
0.394647
0.394656
0.394665
0.394665
0.394673
0.394682
0.394691
0.3947
0.3947
0.394709
0.394717
0.394726
0.394735
0.394735
0.394744
0.394753
0.394762
0.394771
0.394771
0.39478
0.394789
0.394798
0.394807
0.394807
0.394817
0.394826
0.394835
0.394844
0.394844
0.394853
0.394863
0.394872
0.394881
0.394881
0.394891
0.3949
0.39491
0.394919
0.394919
0.394929
0.394938
0.394948
0.394957
0.394957
0.394967
0.394976
0.394986
0.394996
0.394996
0.395006
0.395015
0.395025
0.395035
0.395035
0.395045
0.395055
0.395064
0.395074
0.395074
0.395084
0.395094
0.395104
0.395114
0.395114
0.395124
0.395135
0.395145
0.395155
0.395155
0.395165
0.395175
0.395185
0.395196
0.395196
0.395206
0.395216
0.395227
0.395237
0.395237
0.395247
0.395258
0.395268
0.395279
0.395279
0.395289
0.3953
0.395311
0.395321
0.395321
0.395332
0.395342
0.395353
0.395364
0.395364
0.395375
0.395385
0.395396
0.395407
0.395407
0.395418
0.395429
0.39544
0.395451
0.395451
0.395462
0.395473
0.395484
0.395495
0.395495
0.395506
0.395517
0.395528
0.395539
0.395539
0.395551
0.395562
0.395573
0.395584
0.395584
0.395596
0.395607
0.395618
0.39563
0.39563
0.395641
0.395653
0.395664
0.395676
0.395676
0.395687
0.395699
0.39571
0.395722
0.395722
0.395734
0.395745
0.395757
0.395769
0.395769
0.395781
0.395792
0.395804
0.395816
0.395816
0.395828
0.39584
0.395852
0.395864
0.395864
0.395876
0.395888
0.3959
0.395912
0.395912
0.395924
0.395936
0.395949
0.395961
0.395961
0.395973
0.395985
0.395998
0.39601
0.39601
0.396022
0.396035
0.396047
0.396059
0.396059
0.396072
0.396084
0.396097
0.396109
0.396109
0.396122
0.396135
0.396147
0.39616
0.39616
0.396173
0.396185
0.396198
0.396211
0.396211
0.396224
0.396237
0.396249
0.396262
0.396262
0.396275
0.396288
0.396301
0.396314
0.396314
0.396327
0.39634
0.396353
0.396366
0.396366
0.39638
0.396393
0.396406
0.396419
0.396419
0.396432
0.396446
0.396459
0.396472
0.396472
0.396486
0.396499
0.396513
0.396526
0.396526
0.39654
0.396553
0.396567
0.39658
0.39658
0.396594
0.396607
0.396621
0.396635
0.396635
0.396649
0.396662
0.396676
0.39669
0.39669
0.396704
0.396718
0.396731
0.396745
0.396745
0.396759
0.396773
0.396787
0.396801
0.396801
0.396815
0.396829
0.396844
0.396858
0.396858
0.396872
0.396886
0.3969
0.396915
0.396915
0.396929
0.396943
0.396958
0.396972
0.396972
0.396986
0.397001
0.397015
0.39703
0.39703
0.397044
0.397059
0.397073
0.397088
0.397088
0.397103
0.397117
0.397132
0.397147
0.397147
0.397161
0.397176
0.397191
0.397206
0.397206
0.397221
0.397236
0.39725
0.397265
0.397265
0.39728
0.397295
0.39731
0.397325
0.397325
0.397341
0.397356
0.397371
0.397386
0.397386
0.397401
0.397416
0.397432
0.397447
0.397447
0.397462
0.397478
0.397493
0.397508
0.397508
0.397524
0.397539
0.397555
0.39757
0.39757
0.397586
0.397601
0.397617
0.397633
0.397633
0.397648
0.397664
0.39768
0.397695
0.397695
0.397711
0.397727
0.397743
0.397759
0.397759
0.397775
0.39779
0.397806
0.397822
0.397822
0.397838
0.397854
0.39787
0.397887
0.397887
0.397903
0.397919
0.397935
0.397951
0.397951
0.397967
0.397984
0.398
0.398016
0.398016
0.398033
0.398049
0.398065
0.398082
0.398082
0.398098
0.398115
0.398131
0.398148
0.398148
0.398164
0.398181
0.398198
0.398214
0.398214
0.398231
0.398248
0.398264
0.398281
0.398281
0.398298
0.398315
0.398332
0.398349
0.398349
0.398365
0.398382
0.398399
0.398416
0.398416
0.398433
0.39845
0.398467
0.398485
0.398485
0.398502
0.398519
0.398536
0.398553
0.398553
0.398571
0.398588
0.398605
0.398623
0.398623
0.39864
0.398657
0.398675
0.398692
0.398692
0.39871
0.398727
0.398745
0.398762
0.398762
0.39878
0.398797
0.398815
0.398833
0.398833
0.398851
0.398868
0.398886
0.398904
0.398904
0.398922
0.398939
0.398957
0.398975
0.398975
0.398993
0.399011
0.399029
0.399047
0.399047
0.399065
0.399083
0.399101
0.39912
0.39912
0.399138
0.399156
0.399174
0.399192
0.399192
0.399211
0.399229
0.399247
0.399266
0.399266
0.399284
0.399303
0.399321
0.399339
0.399339
0.399358
0.399376
0.399395
0.399414
0.399414
0.399432
0.399451
0.39947
0.399488
0.399488
0.399507
0.399526
0.399545
0.399563
0.399563
0.399582
0.399601
0.39962
0.399639
0.399639
0.399658
0.399677
0.399696
0.399715
0.399715
0.399734
0.399753
0.399772
0.399791
0.399791
0.399811
0.39983
0.399849
0.399868
0.399868
0.399888
0.399907
0.399926
0.399946
0.399946
0.399965
0.399985
0.400004
0.400024
0.400024
0.400043
0.400063
0.400082
0.400102
0.400102
0.400122
0.400141
0.400161
0.400181
0.400181
0.4002
0.40022
0.40024
0.40026
0.40026
0.40028
0.4003
0.40032
0.40034
0.40034
0.40036
0.40038
0.4004
0.40042
0.40042
0.40044
0.40046
0.40048
0.4005
0.4005
0.40052
0.400541
0.400561
0.400581
0.400581
0.400602
0.400622
0.400642
0.400663
0.400663
0.400683
0.400704
0.400724
0.400745
0.400745
0.400765
0.400786
0.400807
0.400827
0.400827
0.400848
0.400869
0.400889
0.40091
0.40091
0.400931
0.400952
0.400972
0.400993
0.400993
0.401014
0.401035
0.401056
0.401077
0.401077
0.401098
0.401119
0.40114
0.401161
0.401161
0.401182
0.401204
0.401225
0.401246
0.401246
0.401267
0.401289
0.40131
0.401331
0.401331
0.401352
0.401374
0.401395
0.401417
0.401417
0.401438
0.40146
0.401481
0.401503
0.401503
0.401524
0.401546
0.401568
0.401589
0.401589
0.401611
0.401633
0.401654
0.401676
0.401676
0.401698
0.40172
0.401742
0.401764
0.401764
0.401786
0.401808
0.40183
0.401852
0.401852
0.401874
0.401896
0.401918
0.40194
0.40194
0.401962
0.401984
0.402006
0.402029
0.402029
0.402051
0.402073
0.402096
0.402118
0.402118
0.40214
0.402163
0.402185
0.402208
0.402208
0.40223
0.402253
0.402275
0.402298
0.402298
0.40232
0.402343
0.402366
0.402388
0.402388
0.402411
0.402434
0.402457
0.402479
0.402479
0.402502
0.402525
0.402548
0.402571
0.402571
0.402594
0.402617
0.40264
0.402663
0.402663
0.402686
0.402709
0.402732
0.402755
0.402755
0.402778
0.402802
0.402825
0.402848
0.402848
0.402871
0.402895
0.402918
0.402941
0.402941
0.402965
0.402988
0.403012
0.403035
0.403035
0.403059
0.403082
0.403106
0.403129
0.403129
0.403153
0.403177
0.4032
0.403224
0.403224
0.403248
0.403272
0.403295
0.403319
0.403319
0.403343
0.403367
0.403391
0.403415
0.403415
0.403439
0.403463
0.403487
0.403511
0.403511
0.403535
0.403559
0.403583
0.403608
0.403608
0.403632
0.403656
0.40368
0.403704
0.403704
0.403729
0.403753
0.403778
0.403802
0.403802
0.403826
0.403851
0.403875
0.4039
0.4039
0.403924
0.403949
0.403974
0.403998
0.403998
0.404023
0.404047
0.404072
0.404097
0.404097
0.404122
0.404147
0.404171
0.404196
0.404196
0.404221
0.404246
0.404271
0.404296
0.404296
0.404321
0.404346
0.404371
0.404396
0.404396
0.404421
0.404446
0.404471
0.404497
0.404497
0.404522
0.404547
0.404572
0.404598
0.404598
0.404623
0.404648
0.404674
0.404699
0.404699
0.404725
0.40475
0.404776
0.404801
0.404801
0.404827
0.404852
0.404878
0.404904
0.404904
0.404929
0.404955
0.404981
0.405007
0.405007
0.405032
0.405058
0.405084
0.40511
0.40511
0.405136
0.405162
0.405188
0.405214
0.405214
0.40524
0.405266
0.405292
0.405318
0.405318
0.405344
0.40537
0.405396
0.405423
0.405423
0.405449
0.405475
0.405501
0.405528
0.405528
0.405554
0.405581
0.405607
0.405633
0.405633
0.40566
0.405686
0.405713
0.405739
0.405739
0.405766
0.405793
0.405819
0.405846
0.405846
0.405873
0.405899
0.405926
0.405953
0.405953
0.40598
0.406007
0.406034
0.40606
0.40606
0.406087
0.406114
0.406141
0.406168
0.406168
0.406195
0.406222
0.40625
0.406277
0.406277
0.406304
0.406331
0.406358
0.406385
0.406385
0.406413
0.40644
0.406467
0.406495
0.406495
0.406522
0.40655
0.406577
0.406604
0.406604
0.406632
0.406659
0.406687
0.406715
0.406715
0.406742
0.40677
0.406798
0.406825
0.406825
0.406853
0.406881
0.406908
0.406936
0.406936
0.406964
0.406992
0.40702
0.407048
0.407048
0.407076
0.407104
0.407132
0.40716
0.40716
0.407188
0.407216
0.407244
0.407272
0.407272
0.4073
0.407329
0.407357
0.407385
0.407385
0.407413
0.407442
0.40747
0.407498
0.407498
0.407527
0.407555
0.407584
0.407612
0.407612
0.407641
0.407669
0.407698
0.407727
0.407727
0.407755
0.407784
0.407813
0.407841
0.407841
0.40787
0.407899
0.407928
0.407956
0.407956
0.407985
0.408014
0.408043
0.408072
0.408072
0.408101
0.40813
0.408159
0.408188
0.408188
0.408217
0.408246
0.408275
0.408305
0.408305
0.408334
0.408363
0.408392
0.408422
0.408422
0.408451
0.40848
0.40851
0.408539
0.408539
0.408568
0.408598
0.408627
0.408657
0.408657
0.408686
0.408716
0.408746
0.408775
0.408775
0.408805
0.408835
0.408864
0.408894
0.408894
0.408924
0.408954
0.408983
0.409013
0.409013
0.409043
0.409073
0.409103
0.409133
0.409133
0.409163
0.409193
0.409223
0.409253
0.409253
0.409283
0.409313
0.409344
0.409374
0.409374
0.409404
0.409434
0.409465
0.409495
0.409495
0.409525
0.409556
0.409586
0.409616
0.409616
0.409647
0.409677
0.409708
0.409738
0.409738
0.409769
0.4098
0.40983
0.409861
0.409861
0.409892
0.409922
0.409953
0.409984
0.409984
0.410015
0.410045
0.410076
0.410107
0.410107
0.410138
0.410169
0.4102
0.410231
0.410231
0.410262
0.410293
0.410324
0.410355
0.410355
0.410386
0.410417
0.410449
0.41048
0.41048
0.410511
0.410542
0.410574
0.410605
0.410605
0.410636
0.410668
0.410699
0.410731
0.410731
0.410762
0.410794
0.410825
0.410857
0.410857
0.410888
0.41092
0.410952
0.410983
0.410983
0.411015
0.411047
0.411078
0.41111
0.41111
0.411142
0.411174
0.411206
0.411238
0.411238
0.41127
0.411302
0.411333
0.411365
0.411365
0.411398
0.41143
0.411462
0.411494
0.411494
0.411526
0.411558
0.41159
0.411623
0.411623
0.411655
0.411687
0.41172
0.411752
0.411752
0.411784
0.411817
0.411849
0.411882
0.411882
0.411914
0.411947
0.411979
0.412012
0.412012
0.412044
0.412077
0.41211
0.412142
0.412142
0.412175
0.412208
0.412241
0.412273
0.412273
0.412306
0.412339
0.412372
0.412405
0.412405
0.412438
0.412471
0.412504
0.412537
0.412537
0.41257
0.412603
0.412636
0.412669
0.412669
0.412702
0.412736
0.412769
0.412802
0.412802
0.412835
0.412869
0.412902
0.412936
0.412936
0.412969
0.413002
0.413036
0.413069
0.413069
0.413103
0.413136
0.41317
0.413204
0.413204
0.413237
0.413271
0.413305
0.413338
0.413338
0.413372
0.413406
0.41344
0.413473
0.413473
0.413507
0.413541
0.413575
0.413609
0.413609
0.413643
0.413677
0.413711
0.413745
0.413745
0.413779
0.413813
0.413847
0.413882
0.413882
0.413916
0.41395
0.413984
0.414019
0.414019
0.414053
0.414087
0.414122
0.414156
0.414156
0.41419
0.414225
0.414259
0.414294
0.414294
0.414328
0.414363
0.414398
0.414432
0.414432
0.414467
0.414501
0.414536
0.414571
0.414571
0.414606
0.41464
0.414675
0.41471
0.41471
0.414745
0.41478
0.414815
0.41485
0.41485
0.414885
0.41492
0.414955
0.41499
0.41499
0.415025
0.41506
0.415095
0.415131
0.415131
0.415166
0.415201
0.415236
0.415272
0.415272
0.415307
0.415342
0.415378
0.415413
0.415413
0.415449
0.415484
0.41552
0.415555
0.415555
0.415591
0.415626
0.415662
0.415697
0.415697
0.415733
0.415769
0.415805
0.41584
0.41584
0.415876
0.415912
0.415948
0.415984
0.415984
0.41602
0.416056
0.416091
0.416127
0.416127
0.416163
0.4162
0.416236
0.416272
0.416272
0.416308
0.416344
0.41638
0.416416
0.416416
0.416453
0.416489
0.416525
0.416561
0.416561
0.416598
0.416634
0.416671
0.416707
0.416707
0.416744
0.41678
0.416817
0.416853
0.416853
0.41689
0.416926
0.416963
0.417
0.417
0.417036
0.417073
0.41711
0.417147
0.417147
0.417183
0.41722
0.417257
0.417294
0.417294
0.417331
0.417368
0.417405
0.417442
0.417442
0.417479
0.417516
0.417553
0.41759
0.41759
0.417627
0.417664
0.417702
0.417739
0.417739
0.417776
0.417813
0.417851
0.417888
0.417888
0.417925
0.417963
0.418
0.418038
0.418038
0.418075
0.418113
0.41815
0.418188
0.418188
0.418225
0.418263
0.418301
0.418338
0.418338
0.418376
0.418414
0.418452
0.418489
0.418489
0.418527
0.418565
0.418603
0.418641
0.418641
0.418679
0.418717
0.418755
0.418793
0.418793
0.418831
0.418869
0.418907
0.418945
0.418945
0.418983
0.419022
0.41906
0.419098
0.419098
0.419136
0.419175
0.419213
0.419251
0.419251
0.41929
0.419328
0.419367
0.419405
0.419405
0.419444
0.419482
0.419521
0.419559
0.419559
0.419598
0.419637
0.419675
0.419714
0.419714
0.419753
0.419792
0.41983
0.419869
0.419869
0.419908
0.419947
0.419986
0.420025
0.420025
0.420064
0.420103
0.420142
0.420181
0.420181
0.42022
0.420259
0.420298
0.420337
0.420337
0.420376
0.420416
0.420455
0.420494
0.420494
0.420533
0.420573
0.420612
0.420651
0.420651
0.420691
0.42073
0.42077
0.420809
0.420809
0.420849
0.420888
0.420928
0.420968
0.420968
0.421007
0.421047
0.421087
0.421126
0.421126
0.421166
0.421206
0.421246
0.421285
0.421285
0.421325
0.421365
0.421405
0.421445
0.421445
0.421485
0.421525
0.421565
0.421605
0.421605
0.421645
0.421685
0.421726
0.421766
0.421766
0.421806
0.421846
0.421886
0.421927
0.421927
0.421967
0.422007
0.422048
0.422088
0.422088
0.422129
0.422169
0.42221
0.42225
0.42225
0.422291
0.422331
0.422372
0.422413
0.422413
0.422453
0.422494
0.422535
0.422575
0.422575
0.422616
0.422657
0.422698
0.422739
0.422739
0.422779
0.42282
0.422861
0.422902
0.422902
0.422943
0.422984
0.423025
0.423066
0.423066
0.423108
0.423149
0.42319
0.423231
0.423231
0.423272
0.423314
0.423355
0.423396
0.423396
0.423438
0.423479
0.42352
0.423562
0.423562
0.423603
0.423645
0.423686
0.423728
0.423728
0.423769
0.423811
0.423853
0.423894
0.423894
0.423936
0.423978
0.424019
0.424061
0.424061
0.424103
0.424145
0.424187
0.424228
0.424228
0.42427
0.424312
0.424354
0.424396
0.424396
0.424438
0.42448
0.424522
0.424564
0.424564
0.424607
0.424649
0.424691
0.424733
0.424733
0.424775
0.424818
0.42486
0.424902
0.424902
0.424945
0.424987
0.42503
0.425072
0.425072
0.425114
0.425157
0.425199
0.425242
0.425242
0.425285
0.425327
0.42537
0.425413
0.425413
0.425455
0.425498
0.425541
0.425584
0.425584
0.425626
0.425669
0.425712
0.425755
0.425755
0.425798
0.425841
0.425884
0.425927
0.425927
0.42597
0.426013
0.426056
0.426099
0.426099
0.426142
0.426185
0.426229
0.426272
0.426272
0.426315
0.426359
0.426402
0.426445
0.426445
0.426489
0.426532
0.426575
0.426619
0.426619
0.426662
0.426706
0.426749
0.426793
0.426793
0.426837
0.42688
0.426924
0.426968
0.426968
0.427011
0.427055
0.427099
0.427143
0.427143
0.427187
0.42723
0.427274
0.427318
0.427318
0.427362
0.427406
0.42745
0.427494
0.427494
0.427538
0.427582
0.427626
0.427671
0.427671
0.427715
0.427759
0.427803
0.427847
0.427847
0.427892
0.427936
0.42798
0.428025
0.428025
0.428069
0.428114
0.428158
0.428203
0.428203
0.428247
0.428292
0.428336
0.428381
0.428381
0.428425
0.42847
0.428515
0.428559
0.428559
0.428604
0.428649
0.428694
0.428739
0.428739
0.428783
0.428828
0.428873
0.428918
0.428918
0.428963
0.429008
0.429053
0.429098
0.429098
0.429143
0.429188
0.429234
0.429279
0.429279
0.429324
0.429369
0.429414
0.42946
0.42946
0.429505
0.42955
0.429596
0.429641
0.429641
0.429686
0.429732
0.429777
0.429823
0.429823
0.429868
0.429914
0.42996
0.430005
0.430005
0.430051
0.430097
0.430142
0.430188
0.430188
0.430234
0.430279
0.430325
0.430371
0.430371
0.430417
0.430463
0.430509
0.430555
0.430555
0.430601
0.430647
0.430693
0.430739
0.430739
0.430785
0.430831
0.430877
0.430924
0.430924
0.43097
0.431016
0.431062
0.431109
0.431109
0.431155
0.431201
0.431248
0.431294
0.431294
0.43134
0.431387
0.431433
0.43148
0.43148
0.431526
0.431573
0.43162
0.431666
0.431666
0.431713
0.43176
0.431806
0.431853
0.431853
0.4319
0.431947
0.431994
0.43204
0.43204
0.432087
0.432134
0.432181
0.432228
0.432228
0.432275
0.432322
0.432369
0.432416
0.432416
0.432464
0.432511
0.432558
0.432605
0.432605
0.432652
0.4327
0.432747
0.432794
0.432794
0.432841
0.432889
0.432936
0.432984
0.432984
0.433031
0.433079
0.433126
0.433174
0.433174
0.433221
0.433269
0.433317
0.433364
0.433364
0.433412
0.43346
0.433507
0.433555
0.433555
0.433603
0.433651
0.433699
0.433746
0.433746
0.433794
0.433842
0.43389
0.433938
0.433938
0.433986
0.434034
0.434082
0.434131
0.434131
0.434179
0.434227
0.434275
0.434323
0.434323
0.434372
0.43442
0.434468
0.434516
0.434516
0.434565
0.434613
0.434662
0.43471
0.43471
0.434759
0.434807
0.434856
0.434904
0.434904
0.434953
0.435001
0.43505
0.435099
0.435099
0.435147
0.435196
0.435245
0.435294
0.435294
0.435343
0.435391
0.43544
0.435489
0.435489
0.435538
0.435587
0.435636
0.435685
0.435685
0.435734
0.435783
0.435832
0.435881
0.435881
0.435931
0.43598
0.436029
0.436078
0.436078
0.436128
0.436177
0.436226
0.436276
0.436276
0.436325
0.436374
0.436424
0.436473
0.436473
0.436523
0.436572
0.436622
0.436671
0.436671
0.436721
0.436771
0.43682
0.43687
0.43687
0.43692
0.43697
0.437019
0.437069
0.437069
0.437119
0.437169
0.437219
0.437269
0.437269
0.437319
0.437369
0.437419
0.437469
0.437469
0.437519
0.437569
0.437619
0.437669
0.437669
0.437719
0.437769
0.43782
0.43787
0.43787
0.43792
0.437971
0.438021
0.438071
0.438071
0.438122
0.438172
0.438223
0.438273
0.438273
0.438324
0.438374
0.438425
0.438475
0.438475
0.438526
0.438577
0.438627
0.438678
0.438678
0.438729
0.43878
0.43883
0.438881
0.438881
0.438932
0.438983
0.439034
0.439085
0.439085
0.439136
0.439187
0.439238
0.439289
0.439289
0.43934
0.439391
0.439442
0.439493
0.439493
0.439545
0.439596
0.439647
0.439698
0.439698
0.43975
0.439801
0.439852
0.439904
0.439904
0.439955
0.440007
0.440058
0.44011
0.44011
0.440161
0.440213
0.440264
0.440316
0.440316
0.440368
0.440419
0.440471
0.440523
0.440523
0.440575
0.440626
0.440678
0.44073
0.44073
0.440782
0.440834
0.440886
0.440938
0.440938
0.44099
0.441042
0.441094
0.441146
0.441146
0.441198
0.44125
0.441302
0.441355
0.441355
0.441407
0.441459
0.441511
0.441564
0.441564
0.441616
0.441668
0.441721
0.441773
0.441773
0.441826
0.441878
0.441931
0.441983
0.441983
0.442036
0.442088
0.442141
0.442194
0.442194
0.442246
0.442299
0.442352
0.442404
0.442404
0.442457
0.44251
0.442563
0.442616
0.442616
0.442669
0.442722
0.442775
0.442828
0.442828
0.442881
0.442934
0.442987
0.44304
0.44304
0.443093
0.443146
0.443199
0.443252
0.443252
0.443306
0.443359
0.443412
0.443466
0.443466
0.443519
0.443572
0.443626
0.443679
0.443679
0.443733
0.443786
0.44384
0.443893
0.443893
0.443947
0.444
0.444054
0.444108
0.444108
0.444161
0.444215
0.444269
0.444323
0.444323
0.444377
0.44443
0.444484
0.444538
0.444538
0.444592
0.444646
0.4447
0.444754
0.444754
0.444808
0.444862
0.444916
0.44497
0.44497
0.445025
0.445079
0.445133
0.445187
0.445187
0.445241
0.445296
0.44535
0.445404
0.445404
0.445459
0.445513
0.445568
0.445622
0.445622
0.445677
0.445731
0.445786
0.44584
0.44584
0.445895
0.445949
0.446004
0.446059
0.446059
0.446114
0.446168
0.446223
0.446278
0.446278
0.446333
0.446388
0.446442
0.446497
0.446497
0.446552
0.446607
0.446662
0.446717
0.446717
0.446772
0.446827
0.446883
0.446938
0.446938
0.446993
0.447048
0.447103
0.447159
0.447159
0.447214
0.447269
0.447325
0.44738
0.44738
0.447435
0.447491
0.447546
0.447602
0.447602
0.447657
0.447713
0.447768
0.447824
0.447824
0.44788
0.447935
0.447991
0.448047
0.448047
0.448102
0.448158
0.448214
0.44827
0.44827
0.448326
0.448381
0.448437
0.448493
0.448493
0.448549
0.448605
0.448661
0.448717
0.448717
0.448773
0.44883
0.448886
0.448942
0.448942
0.448998
0.449054
0.449111
0.449167
0.449167
0.449223
0.44928
0.449336
0.449392
0.449392
0.449449
0.449505
0.449562
0.449618
0.449618
0.449675
0.449731
0.449788
0.449844
0.449844
0.449901
0.449958
0.450015
0.450071
0.450071
0.450128
0.450185
0.450242
0.450298
0.450298
0.450355
0.450412
0.450469
0.450526
0.450526
0.450583
0.45064
0.450697
0.450754
0.450754
0.450811
0.450869
0.450926
0.450983
0.450983
0.45104
0.451097
0.451155
0.451212
0.451212
0.451269
0.451327
0.451384
0.451441
0.451441
0.451499
0.451556
0.451614
0.451671
0.451671
0.451729
0.451787
0.451844
0.451902
0.451902
0.45196
0.452017
0.452075
0.452133
0.452133
0.452191
0.452248
0.452306
0.452364
0.452364
0.452422
0.45248
0.452538
0.452596
0.452596
0.452654
0.452712
0.45277
0.452828
0.452828
0.452886
0.452944
0.453003
0.453061
0.453061
0.453119
0.453177
0.453236
0.453294
0.453294
0.453352
0.453411
0.453469
0.453528
0.453528
0.453586
0.453645
0.453703
0.453762
0.453762
0.45382
0.453879
0.453937
0.453996
0.453996
0.454055
0.454114
0.454172
0.454231
0.454231
0.45429
0.454349
0.454408
0.454467
0.454467
0.454525
0.454584
0.454643
0.454702
0.454702
0.454761
0.454821
0.45488
0.454939
0.454939
0.454998
0.455057
0.455116
0.455176
0.455176
0.455235
0.455294
0.455353
0.455413
0.455413
0.455472
0.455532
0.455591
0.455651
0.455651
0.45571
0.45577
0.455829
0.455889
0.455889
0.455948
0.456008
0.456068
0.456127
0.456127
0.456187
0.456247
0.456307
0.456366
0.456366
0.456426
0.456486
0.456546
0.456606
0.456606
0.456666
0.456726
0.456786
0.456846
0.456846
0.456906
0.456966
0.457026
0.457086
0.457086
0.457147
0.457207
0.457267
0.457327
0.457327
0.457388
0.457448
0.457508
0.457569
0.457569
0.457629
0.457689
0.45775
0.45781
0.45781
0.457871
0.457931
0.457992
0.458053
0.458053
0.458113
0.458174
0.458235
0.458295
0.458295
0.458356
0.458417
0.458478
0.458539
0.458539
0.458599
0.45866
0.458721
0.458782
0.458782
0.458843
0.458904
0.458965
0.459026
0.459026
0.459087
0.459149
0.45921
0.459271
0.459271
0.459332
0.459393
0.459455
0.459516
0.459516
0.459577
0.459639
0.4597
0.459761
0.459761
0.459823
0.459884
0.459946
0.460007
0.460007
0.460069
0.46013
0.460192
0.460254
0.460254
0.460315
0.460377
0.460439
0.4605
0.4605
0.460562
0.460624
0.460686
0.460748
0.460748
0.46081
0.460872
0.460934
0.460996
0.460996
0.461058
0.46112
0.461182
0.461244
0.461244
0.461306
0.461368
0.46143
0.461492
0.461492
0.461555
0.461617
0.461679
0.461741
0.461741
0.461804
0.461866
0.461929
0.461991
0.461991
0.462054
0.462116
0.462179
0.462241
0.462241
0.462304
0.462366
0.462429
0.462492
0.462492
0.462554
0.462617
0.46268
0.462743
0.462743
0.462805
0.462868
0.462931
0.462994
0.462994
0.463057
0.46312
0.463183
0.463246
0.463246
0.463309
0.463372
0.463435
0.463498
0.463498
0.463561
0.463624
0.463688
0.463751
0.463751
0.463814
0.463877
0.463941
0.464004
0.464004
0.464068
0.464131
0.464194
0.464258
0.464258
0.464321
0.464385
0.464448
0.464512
0.464512
0.464576
0.464639
0.464703
0.464767
0.464767
0.46483
0.464894
0.464958
0.465022
0.465022
0.465086
0.465149
0.465213
0.465277
0.465277
0.465341
0.465405
0.465469
0.465533
0.465533
0.465597
0.465661
0.465725
0.46579
0.46579
0.465854
0.465918
0.465982
0.466047
0.466047
0.466111
0.466175
0.466239
0.466304
0.466304
0.466368
0.466433
0.466497
0.466562
0.466562
0.466626
0.466691
0.466755
0.46682
0.46682
0.466885
0.466949
0.467014
0.467079
0.467079
0.467143
0.467208
0.467273
0.467338
0.467338
0.467403
0.467468
0.467533
0.467598
0.467598
0.467663
0.467728
0.467793
0.467858
0.467858
0.467923
0.467988
0.468053
0.468118
0.468118
0.468183
0.468249
0.468314
0.468379
0.468379
0.468445
0.46851
0.468575
0.468641
0.468641
0.468706
0.468772
0.468837
0.468903
0.468903
0.468968
0.469034
0.469099
0.469165
0.469165
0.469231
0.469296
0.469362
0.469428
0.469428
0.469494
0.46956
0.469625
0.469691
0.469691
0.469757
0.469823
0.469889
0.469955
0.469955
0.470021
0.470087
0.470153
0.470219
0.470219
0.470285
0.470352
0.470418
0.470484
0.470484
0.47055
0.470616
0.470683
0.470749
0.470749
0.470815
0.470882
0.470948
0.471015
0.471015
0.471081
0.471148
0.471214
0.471281
0.471281
0.471347
0.471414
0.471481
0.471547
0.471547
0.471614
0.471681
0.471748
0.471814
0.471814
0.471881
0.471948
0.472015
0.472082
0.472082
0.472149
0.472216
0.472283
0.47235
0.47235
0.472417
0.472484
0.472551
0.472618
0.472618
0.472685
0.472752
0.47282
0.472887
0.472887
0.472954
0.473022
0.473089
0.473156
0.473156
0.473224
0.473291
0.473359
0.473426
0.473426
0.473494
0.473561
0.473629
0.473696
0.473696
0.473764
0.473831
0.473899
0.473967
0.473967
0.474035
0.474102
0.47417
0.474238
0.474238
0.474306
0.474374
0.474442
0.47451
0.47451
0.474578
0.474646
0.474714
0.474782
0.474782
0.47485
0.474918
0.474986
0.475054
0.475054
0.475122
0.475191
0.475259
0.475327
0.475327
0.475395
0.475464
0.475532
0.475601
0.475601
0.475669
0.475738
0.475806
0.475875
0.475875
0.475943
0.476012
0.47608
0.476149
0.476149
0.476218
0.476286
0.476355
0.476424
0.476424
0.476492
0.476561
0.47663
0.476699
0.476699
0.476768
0.476837
0.476906
0.476975
0.476975
0.477044
0.477113
0.477182
0.477251
0.477251
0.47732
0.477389
0.477458
0.477528
0.477528
0.477597
0.477666
0.477735
0.477805
0.477805
0.477874
0.477944
0.478013
0.478082
0.478082
0.478152
0.478221
0.478291
0.47836
0.47836
0.47843
0.4785
0.478569
0.478639
0.478639
0.478709
0.478778
0.478848
0.478918
0.478918
0.478988
0.479058
0.479127
0.479197
0.479197
0.479267
0.479337
0.479407
0.479477
0.479477
0.479547
0.479617
0.479687
0.479758
0.479758
0.479828
0.479898
0.479968
0.480038
0.480038
0.480109
0.480179
0.480249
0.48032
0.48032
0.48039
0.480461
0.480531
0.480601
0.480601
0.480672
0.480743
0.480813
0.480884
0.480884
0.480954
0.481025
0.481096
0.481166
0.481166
0.481237
0.481308
0.481379
0.48145
0.48145
0.48152
0.481591
0.481662
0.481733
0.481733
0.481804
0.481875
0.481946
0.482017
0.482017
0.482088
0.482159
0.482231
0.482302
0.482302
0.482373
0.482444
0.482515
0.482587
0.482587
0.482658
0.482729
0.482801
0.482872
0.482872
0.482944
0.483015
0.483087
0.483158
0.483158
0.48323
0.483301
0.483373
0.483445
0.483445
0.483516
0.483588
0.48366
0.483731
0.483731
0.483803
0.483875
0.483947
0.484019
0.484019
0.484091
0.484163
0.484234
0.484306
0.484306
0.484378
0.484451
0.484523
0.484595
0.484595
0.484667
0.484739
0.484811
0.484883
0.484883
0.484956
0.485028
0.4851
0.485173
0.485173
0.485245
0.485317
0.48539
0.485462
0.485462
0.485535
0.485607
0.48568
0.485752
0.485752
0.485825
0.485898
0.48597
0.486043
0.486043
0.486116
0.486188
0.486261
0.486334
0.486334
0.486407
0.48648
0.486552
0.486625
0.486625
0.486698
0.486771
0.486844
0.486917
0.486917
0.48699
0.487064
0.487137
0.48721
0.48721
0.487283
0.487356
0.487429
0.487503
0.487503
0.487576
0.487649
0.487723
0.487796
0.487796
0.487869
0.487943
0.488016
0.48809
0.48809
0.488163
0.488237
0.488311
0.488384
0.488384
0.488458
0.488531
0.488605
0.488679
0.488679
0.488753
0.488826
0.4889
0.488974
0.488974
0.489048
0.489122
0.489196
0.48927
0.48927
0.489344
0.489418
0.489492
0.489566
0.489566
0.48964
0.489714
0.489788
0.489863
0.489863
0.489937
0.490011
0.490085
0.49016
0.49016
0.490234
0.490308
0.490383
0.490457
0.490457
0.490532
0.490606
0.490681
0.490755
0.490755
0.49083
0.490904
0.490979
0.491054
0.491054
0.491128
0.491203
0.491278
0.491353
0.491353
0.491427
0.491502
0.491577
0.491652
0.491652
0.491727
0.491802
0.491877
0.491952
0.491952
0.492027
0.492102
0.492177
0.492252
0.492252
0.492327
0.492403
0.492478
0.492553
0.492553
0.492628
0.492704
0.492779
0.492854
0.492854
0.49293
0.493005
0.493081
0.493156
0.493156
0.493232
0.493307
0.493383
0.493458
0.493458
0.493534
0.49361
0.493685
0.493761
0.493761
0.493837
0.493913
0.493988
0.494064
0.494064
0.49414
0.494216
0.494292
0.494368
0.494368
0.494444
0.49452
0.494596
0.494672
0.494672
0.494748
0.494824
0.4949
0.494976
0.494976
0.495053
0.495129
0.495205
0.495282
0.495282