<?xml version="1.0"?>
<VTKFile type="UnstructuredGrid" version="0.1" byte_order="LittleEndian">
<UnstructuredGrid>
<Piece NumberOfPoints="5000" NumberOfCells="4000">
<PointData Scalars="Reaction 0">
<DataArray type="Float32" Name="Reaction 0" format="ascii">
1.00101
1.00101
1.00101
1.00101
1.00101
1.00101
1.00101
1.00101
1.00101
1.00101
1.00101
1.00101
1.00101
1.00101
1.00101
1.00101
1.00101
1.00101
1.00101
1.00101
1.00101
1.00101
1.00101
1.00101
1.00101
1.00101
1.00101
1.00101
1.00101
1.00101
1.00101
1.00101
1.00101
1.00101
1.00101
1.00101
1.00101
1.00101
1.00101
1.00101
1.00101
1.00101
1.00101
1.00101
1.00101
1.00101
1.00101
1.00101
1.00101
1.00101
1.00101
1.00101
1.001
1.001
1.001
1.001
1.001
1.001
1.001
1.001
1.001
1.001
1.001
1.001
1.001
1.001
1.001
1.001
1.001
1.001
1.001
1.001
1.001
1.001
1.001
1.001
1.001
1.001
1.001
1.001
1.001
1.001
1.001
1.001
1.001
1.001
1.001
1.001
1.001
1.001
1.001
1.001
1.001
1.001
1.001
1.001
1.001
1.001
1.001
1.001
1.001
1.001
1.001
1.001
1.001
1.001
1.001
1.001
1.001
1.001
1.001
1.001
1.001
1.001
1.001
1.001
1.001
1.001
1.001
1.001
1.001
1.001
1.001
1.001
1.001
1.001
1.001
1.001
1.001
1.001
1.001
1.001
1.001
1.001
1.001
1.001
1.001
1.001
1.001
1.001
1.001
1.001
1.001
1.001
1.001
1.001
1.001
1.001
1.001
1.001
1.001
1.001
1.001
1.001
1.001
1.001
1.001
1.001
1.001
1.001
1.001
1.001
1.001
1.001
1.001
1.001
1.001
1.001
1.001
1.001
1.001
1.001
1.001
1.001
1.001
1.001
1.001
1.00099
1.00099
1.00099
1.00099
1.00099
1.00099
1.00099
1.00099
1.00099
1.00099
1.00099
1.00099
1.00099
1.00099
1.00099
1.00099
1.00099
1.00099
1.00099
1.00099
1.00099
1.00099
1.00099
1.00099
1.00099
1.00099
1.00099
1.00099
1.00099
1.00099
1.00099
1.00099
1.00099
1.00099
1.00099
1.00099
1.00099
1.00099
1.00099
1.00099
1.00099
1.00099
1.00099
1.00099
1.00099
1.00099
1.00099
1.00099
1.00099
1.00099
1.00099
1.00099
1.00099
1.00099
1.00099
1.00099
1.00099
1.00099
1.00099
1.00099
1.00099
1.00099
1.00099
1.00099
1.00099
1.00099
1.00099
1.00098
1.00098
1.00098
1.00098
1.00098
1.00098
1.00098
1.00098
1.00098
1.00098
1.00098
1.00098
1.00098
1.00098
1.00098
1.00098
1.00098
1.00098
1.00098
1.00098
1.00098
1.00098
1.00098
1.00098
1.00098
1.00098
1.00098
1.00098
1.00098
1.00098
1.00098
1.00098
1.00098
1.00098
1.00098
1.00098
1.00098
1.00098
1.00098
1.00098
1.00098
1.00098
1.00098
1.00098
1.00098
1.00098
1.00098
1.00098
1.00098
1.00098
1.00098
1.00098
1.00098
1.00097
1.00097
1.00097
1.00097
1.00097
1.00097
1.00097
1.00097
1.00097
1.00097
1.00097
1.00097
1.00097
1.00097
1.00097
1.00097
1.00097
1.00097
1.00097
1.00097
1.00097
1.00097
1.00097
1.00097
1.00097
1.00097
1.00097
1.00097
1.00097
1.00097
1.00097
1.00097
1.00097
1.00097
1.00097
1.00097
1.00097
1.00097
1.00097
1.00097
1.00097
1.00097
1.00097
1.00097
1.00097
1.00096
1.00096
1.00096
1.00096
1.00096
1.00096
1.00096
1.00096
1.00096
1.00096
1.00096
1.00096
1.00096
1.00096
1.00096
1.00096
1.00096
1.00096
1.00096
1.00096
1.00096
1.00096
1.00096
1.00096
1.00096
1.00096
1.00096
1.00096
1.00096
1.00096
1.00096
1.00096
1.00096
1.00096
1.00096
1.00096
1.00096
1.00096
1.00096
1.00095
1.00095
1.00095
1.00095
1.00095
1.00095
1.00095
1.00095
1.00095
1.00095
1.00095
1.00095
1.00095
1.00095
1.00095
1.00095
1.00095
1.00095
1.00095
1.00095
1.00095
1.00095
1.00095
1.00095
1.00095
1.00095
1.00095
1.00095
1.00095
1.00095
1.00095
1.00095
1.00095
1.00095
1.00095
1.00095
1.00094
1.00094
1.00094
1.00094
1.00094
1.00094
1.00094
1.00094
1.00094
1.00094
1.00094
1.00094
1.00094
1.00094
1.00094
1.00094
1.00094
1.00094
1.00094
1.00094
1.00094
1.00094
1.00094
1.00094
1.00094
1.00094
1.00094
1.00094
1.00094
1.00094
1.00094
1.00094
1.00093
1.00093
1.00093
1.00093
1.00093
1.00093
1.00093
1.00093
1.00093
1.00093
1.00093
1.00093
1.00093
1.00093
1.00093
1.00093
1.00093
1.00093
1.00093
1.00093
1.00093
1.00093
1.00093
1.00093
1.00093
1.00093
1.00093
1.00093
1.00093
1.00093
1.00092
1.00092
1.00092
1.00092
1.00092
1.00092
1.00092
1.00092
1.00092
1.00092
1.00092
1.00092
1.00092
1.00092
1.00092
1.00092
1.00092
1.00092
1.00092
1.00092
1.00092
1.00092
1.00092
1.00092
1.00092
1.00092
1.00092
1.00092
1.00092
1.00091
1.00091
1.00091
1.00091
1.00091
1.00091
1.00091
1.00091
1.00091
1.00091
1.00091
1.00091
1.00091
1.00091
1.00091
1.00091
1.00091
1.00091
1.00091
1.00091
1.00091
1.00091
1.00091
1.00091
1.00091
1.00091
1.00091
1.00091
1.0009
1.0009
1.0009
1.0009
1.0009
1.0009
1.0009
1.0009
1.0009
1.0009
1.0009
1.0009
1.0009
1.0009
1.0009
1.0009
1.0009
1.0009
1.0009
1.0009
1.0009
1.0009
1.0009
1.0009
1.0009
1.0009
1.00089
1.00089
1.00089
1.00089
1.00089
1.00089
1.00089
1.00089
1.00089
1.00089
1.00089
1.00089
1.00089
1.00089
1.00089
1.00089
1.00089
1.00089
1.00089
1.00089
1.00089
1.00089
1.00089
1.00089
1.00089
1.00088
1.00088
1.00088
1.00088
1.00088
1.00088
1.00088
1.00088
1.00088
1.00088
1.00088
1.00088
1.00088
1.00088
1.00088
1.00088
1.00088
1.00088
1.00088
1.00088
1.00088
1.00088
1.00088
1.00088
1.00087
1.00087
1.00087
1.00087
1.00087
1.00087
1.00087
1.00087
1.00087
1.00087
1.00087
1.00087
1.00087
1.00087
1.00087
1.00087
1.00087
1.00087
1.00087
1.00087
1.00087
1.00087
1.00087
1.00086
1.00086
1.00086
1.00086
1.00086
1.00086
1.00086
1.00086
1.00086
1.00086
1.00086
1.00086
1.00086
1.00086
1.00086
1.00086
1.00086
1.00086
1.00086
1.00086
1.00086
1.00086
1.00086
1.00085
1.00085
1.00085
1.00085
1.00085
1.00085
1.00085
1.00085
1.00085
1.00085
1.00085
1.00085
1.00085
1.00085
1.00085
1.00085
1.00085
1.00085
1.00085
1.00085
1.00085
1.00084
1.00084
1.00084
1.00084
1.00084
1.00084
1.00084
1.00084
1.00084
1.00084
1.00084
1.00084
1.00084
1.00084
1.00084
1.00084
1.00084
1.00084
1.00084
1.00084
1.00084
1.00083
1.00083
1.00083
1.00083
1.00083
1.00083
1.00083
1.00083
1.00083
1.00083
1.00083
1.00083
1.00083
1.00083
1.00083
1.00083
1.00083
1.00083
1.00083
1.00083
1.00082
1.00082
1.00082
1.00082
1.00082
1.00082
1.00082
1.00082
1.00082
1.00082
1.00082
1.00082
1.00082
1.00082
1.00082
1.00082
1.00082
1.00082
1.00082
1.00082
1.00081
1.00081
1.00081
1.00081
1.00081
1.00081
1.00081
1.00081
1.00081
1.00081
1.00081
1.00081
1.00081
1.00081
1.00081
1.00081
1.00081
1.00081
1.00081
1.0008
1.0008
1.0008
1.0008
1.0008
1.0008
1.0008
1.0008
1.0008
1.0008
1.0008
1.0008
1.0008
1.0008
1.0008
1.0008
1.0008
1.0008
1.0008
1.00079
1.00079
1.00079
1.00079
1.00079
1.00079
1.00079
1.00079
1.00079
1.00079
1.00079
1.00079
1.00079
1.00079
1.00079
1.00079
1.00079
1.00078
1.00078
1.00078
1.00078
1.00078
1.00078
1.00078
1.00078
1.00078
1.00078
1.00078
1.00078
1.00078
1.00078
1.00078
1.00078
1.00078
1.00078
1.00077
1.00077
1.00077
1.00077
1.00077
1.00077
1.00077
1.00077
1.00077
1.00077
1.00077
1.00077
1.00077
1.00077
1.00077
1.00077
1.00077
1.00076
1.00076
1.00076
1.00076
1.00076
1.00076
1.00076
1.00076
1.00076
1.00076
1.00076
1.00076
1.00076
1.00076
1.00076
1.00076
1.00076
1.00076
1.00075
1.00075
1.00075
1.00075
1.00075
1.00075
1.00075
1.00075
1.00075
1.00075
1.00075
1.00075
1.00075
1.00075
1.00075
1.00075
1.00075
1.00074
1.00074
1.00074
1.00074
1.00074
1.00074
1.00074
1.00074
1.00074
1.00074
1.00074
1.00074
1.00074
1.00074
1.00074
1.00074
1.00074
1.00073
1.00073
1.00073
1.00073
1.00073
1.00073
1.00073
1.00073
1.00073
1.00073
1.00073
1.00073
1.00073
1.00073
1.00073
1.00073
1.00073
1.00072
1.00072
1.00072
1.00072
1.00072
1.00072
1.00072
1.00072
1.00072
1.00072
1.00072
1.00072
1.00072
1.00072
1.00072
1.00071
1.00071
1.00071
1.00071
1.00071
1.00071
1.00071
1.00071
1.00071
1.00071
1.00071
1.00071
1.00071
1.00071
1.00071
1.00071
1.0007
1.0007
1.0007
1.0007
1.0007
1.0007
1.0007
1.0007
1.0007
1.0007
1.0007
1.0007
1.0007
1.0007
1.0007
1.00069
1.00069
1.00069
1.00069
1.00069
1.00069
1.00069
1.00069
1.00069
1.00069
1.00069
1.00069
1.00069
1.00069
1.00069
1.00069
1.00069
1.00068
1.00068
1.00068
1.00068
1.00068
1.00068
1.00068
1.00068
1.00068
1.00068
1.00068
1.00068
1.00068
1.00068
1.00068
1.00067
1.00067
1.00067
1.00067
1.00067
1.00067
1.00067
1.00067
1.00067
1.00067
1.00067
1.00067
1.00067
1.00066
1.00066
1.00066
1.00066
1.00066
1.00066
1.00066
1.00066
1.00066
1.00066
1.00066
1.00066
1.00066
1.00066
1.00066
1.00065
1.00065
1.00065
1.00065
1.00065
1.00065
1.00065
1.00065
1.00065
1.00065
1.00065
1.00065
1.00065
1.00065
1.00064
1.00064
1.00064
1.00064
1.00064
1.00064
1.00064
1.00064
1.00064
1.00064
1.00064
1.00064
1.00064
1.00064
1.00064
1.00063
1.00063
1.00063
1.00063
1.00063
1.00063
1.00063
1.00063
1.00063
1.00063
1.00063
1.00063
1.00063
1.00063
1.00062
1.00062
1.00062
1.00062
1.00062
1.00062
1.00062
1.00062
1.00062
1.00062
1.00062
1.00062
1.00062
1.00062
1.00061
1.00061
1.00061
1.00061
1.00061
1.00061
1.00061
1.00061
1.00061
1.00061
1.00061
1.00061
1.00061
1.0006
1.0006
1.0006
1.0006
1.0006
1.0006
1.0006
1.0006
1.0006
1.0006
1.0006
1.0006
1.0006
1.0006
1.00059
1.00059
1.00059
1.00059
1.00059
1.00059
1.00059
1.00059
1.00059
1.00059
1.00059
1.00059
1.00059
1.00059
1.00058
1.00058
1.00058
1.00058
1.00058
1.00058
1.00058
1.00058
1.00058
1.00058
1.00058
1.00058
1.00057
1.00057
1.00057
1.00057
1.00057
1.00057
1.00057
1.00057
1.00057
1.00057
1.00057
1.00057
1.00057
1.00057
1.00056
1.00056
1.00056
1.00056
1.00056
1.00056
1.00056
1.00056
1.00056
1.00056
1.00056
1.00056
1.00056
1.00055
1.00055
1.00055
1.00055
1.00055
1.00055
1.00055
1.00055
1.00055
1.00055
1.00055
1.00055
1.00054
1.00054
1.00054
1.00054
1.00054
1.00054
1.00054
1.00054
1.00054
1.00054
1.00054
1.00054
1.00054
1.00053
1.00053
1.00053
1.00053
1.00053
1.00053
1.00053
1.00053
1.00053
1.00053
1.00053
1.00053
1.00052
1.00052
1.00052
1.00052
1.00052
1.00052
1.00052
1.00052
1.00052
1.00052
1.00052
1.00052
1.00052
1.00051
1.00051
1.00051
1.00051
1.00051
1.00051
1.00051
1.00051
1.00051
1.00051
1.00051
1.00051
1.0005
1.0005
1.0005
1.0005
1.0005
1.0005
1.0005
1.0005
1.0005
1.0005
1.0005
1.0005
1.0005
1.00049
1.00049
1.00049
1.00049
1.00049
1.00049
1.00049
1.00049
1.00049
1.00049
1.00049
1.00048
1.00048
1.00048
1.00048
1.00048
1.00048
1.00048
1.00048
1.00048
1.00048
1.00048
1.00048
1.00047
1.00047
1.00047
1.00047
1.00047
1.00047
1.00047
1.00047
1.00047
1.00047
1.00047
1.00047
1.00046
1.00046
1.00046
1.00046
1.00046
1.00046
1.00046
1.00046
1.00046
1.00046
1.00046
1.00045
1.00045
1.00045
1.00045
1.00045
1.00045
1.00045
1.00045
1.00045
1.00045
1.00045
1.00045
1.00044
1.00044
1.00044
1.00044
1.00044
1.00044
1.00044
1.00044
1.00044
1.00044
1.00044
1.00044
1.00043
1.00043
1.00043
1.00043
1.00043
1.00043
1.00043
1.00043
1.00043
1.00043
1.00043
1.00043
1.00042
1.00042
1.00042
1.00042
1.00042
1.00042
1.00042
1.00042
1.00042
1.00042
1.00042
1.00041
1.00041
1.00041
1.00041
1.00041
1.00041
1.00041
1.00041
1.00041
1.00041
1.00041
1.00041
1.0004
1.0004
1.0004
1.0004
1.0004
1.0004
1.0004
1.0004
1.0004
1.0004
1.0004
1.00039
1.00039
1.00039
1.00039
1.00039
1.00039
1.00039
1.00039
1.00039
1.00039
1.00039
1.00038
1.00038
1.00038
1.00038
1.00038
1.00038
1.00038
1.00038
1.00038
1.00038
1.00038
1.00037
1.00037
1.00037
1.00037
1.00037
1.00037
1.00037
1.00037
1.00037
1.00037
1.00036
1.00036
1.00036
1.00036
1.00036
1.00036
1.00036
1.00036
1.00036
1.00036
1.00036
1.00036
1.00035
1.00035
1.00035
1.00035
1.00035
1.00035
1.00035
1.00035
1.00035
1.00035
1.00034
1.00034
1.00034
1.00034
1.00034
1.00034
1.00034
1.00034
1.00034
1.00034
1.00034
1.00033
1.00033
1.00033
1.00033
1.00033
1.00033
1.00033
1.00033
1.00033
1.00033
1.00032
1.00032
1.00032
1.00032
1.00032
1.00032
1.00032
1.00032
1.00032
1.00032
1.00032
1.00031
1.00031
1.00031
1.00031
1.00031
1.00031
1.00031
1.00031
1.00031
1.00031
1.0003
1.0003
1.0003
1.0003
1.0003
1.0003
1.0003
1.0003
1.0003
1.0003
1.00029
1.00029
1.00029
1.00029
1.00029
1.00029
1.00029
1.00029
1.00029
1.00029
1.00029
1.00028
1.00028
1.00028
1.00028
1.00028
1.00028
1.00028
1.00028
1.00028
1.00028
1.00027
1.00027
1.00027
1.00027
1.00027
1.00027
1.00027
1.00027
1.00027
1.00027
1.00026
1.00026
1.00026
1.00026
1.00026
1.00026
1.00026
1.00026
1.00026
1.00026
1.00026
1.00026
1.00025
1.00025
1.00025
1.00025
1.00025
1.00025
1.00025
1.00025
1.00025
1.00025
1.00024
1.00024
1.00024
1.00024
1.00024
1.00024
1.00024
1.00024
1.00024
1.00024
1.00023
1.00023
1.00023
1.00023
1.00023
1.00023
1.00023
1.00023
1.00023
1.00023
1.00022
1.00022
1.00022
1.00022
1.00022
1.00022
1.00022
1.00022
1.00022
1.00022
1.00021
1.00021
1.00021
1.00021
1.00021
1.00021
1.00021
1.00021
1.00021
1.00021
1.0002
1.0002
1.0002
1.0002
1.0002
1.0002
1.0002
1.0002
1.00019
1.00019
1.00019
1.00019
1.00019
1.00019
1.00019
1.00019
1.00019
1.00019
1.00018
1.00018
1.00018
1.00018
1.00018
1.00018
1.00018
1.00018
1.00018
1.00018
1.00017
1.00017
1.00017
1.00017
1.00017
1.00017
1.00017
1.00017
1.00017
1.00016
1.00016
1.00016
1.00016
1.00016
1.00016
1.00016
1.00016
1.00016
1.00016
1.00015
1.00015
1.00015
1.00015
1.00015
1.00015
1.00015
1.00015
1.00015
1.00015
1.00014
1.00014
1.00014
1.00014
1.00014
1.00014
1.00014
1.00014
1.00014
1.00013
1.00013
1.00013
1.00013
1.00013
1.00013
1.00013
1.00013
1.00013
1.00013
1.00012
1.00012
1.00012
1.00012
1.00012
1.00012
1.00012
1.00012
1.00012
1.00012
1.00011
1.00011
1.00011
1.00011
1.00011
1.00011
1.00011
1.00011
1.00011
1.0001
1.0001
1.0001
1.0001
1.0001
1.0001
1.0001
1.0001
1.0001
1.0001
1.00009
1.00009
1.00009
1.00009
1.00009
1.00009
1.00009
1.00009
1.00008
1.00008
1.00008
1.00008
1.00008
1.00008
1.00008
1.00008
1.00008
1.00007
1.00007
1.00007
1.00007
1.00007
1.00007
1.00007
1.00007
1.00007
1.00007
1.00006
1.00006
1.00006
1.00006
1.00006
1.00006
1.00006
1.00006
1.00006
1.00005
1.00005
1.00005
1.00005
1.00005
1.00005
1.00005
1.00005
1.00005
1.00004
1.00004
1.00004
1.00004
1.00004
1.00004
1.00004
1.00004
1.00003
1.00003
1.00003
1.00003
1.00003
1.00003
1.00003
1.00003
1.00003
1.00002
1.00002
1.00002
1.00002
1.00002
1.00002
1.00002
1.00002
1.00002
1.00002
1.00001
1.00001
1.00001
1.00001
1.00001
1.00001
1.00001
1.00001
1.00001
1
1
1
1
1
0.999998
0.999997
0.999995
0.999995
0.999994
0.999993
0.999991
0.99999
0.99999
0.999988
0.999987
0.999986
0.999984
0.999984
0.999983
0.999981
0.99998
0.999979
0.999979
0.999977
0.999976
0.999974
0.999973
0.999973
0.999972
0.99997
0.999969
0.999967
0.999967
0.999966
0.999965
0.999963
0.999962
0.999962
0.99996
0.999959
0.999957
0.999956
0.999956
0.999955
0.999953
0.999952
0.99995
0.99995
0.999949
0.999948
0.999946
0.999945
0.999945
0.999943
0.999942
0.99994
0.999939
0.999939
0.999938
0.999936
0.999935
0.999933
0.999933
0.999932
0.99993
0.999929
0.999927
0.999927
0.999926
0.999925
0.999923
0.999922
0.999922
0.99992
0.999919
0.999917
0.999916
0.999916
0.999914
0.999913
0.999911
0.99991
0.99991
0.999908
0.999907
0.999906
0.999904
0.999904
0.999903
0.999901
0.9999
0.999898
0.999898
0.999897
0.999895
0.999894
0.999892
0.999892
0.999891
0.999889
0.999888
0.999886
0.999886
0.999885
0.999883
0.999882
0.99988
0.99988
0.999879
0.999877
0.999876
0.999874
0.999874
0.999873
0.999871
0.99987
0.999868
0.999868
0.999867
0.999865
0.999864
0.999862
0.999862
0.999861
0.999859
0.999858
0.999856
0.999856
0.999855
0.999853
0.999852
0.99985
0.99985
0.999849
0.999847
0.999846
0.999844
0.999844
0.999843
0.999841
0.99984
0.999838
0.999838
0.999837
0.999835
0.999834
0.999832
0.999832
0.999831
0.999829
0.999828
0.999826
0.999826
0.999825
0.999823
0.999822
0.99982
0.99982
0.999819
0.999817
0.999816
0.999814
0.999814
0.999813
0.999811
0.99981
0.999808
0.999808
0.999807
0.999805
0.999804
0.999802
0.999802
0.999801
0.999799
0.999798
0.999796
0.999796
0.999795
0.999793
0.999792
0.99979
0.99979
0.999789
0.999787
0.999786
0.999784
0.999784
0.999783
0.999781
0.99978
0.999778
0.999778
0.999777
0.999775
0.999774
0.999772
0.999772
0.999771
0.999769
0.999767
0.999766
0.999766
0.999764
0.999763
0.999761
0.99976
0.99976
0.999758
0.999757
0.999755
0.999754
0.999754
0.999752
0.99975
0.999749
0.999747
0.999747
0.999746
0.999744
0.999743
0.999741
0.999741
0.999739
0.999738
0.999736
0.999735
0.999735
0.999733
0.999732
0.99973
0.999728
0.999728
0.999727
0.999725
0.999724
0.999722
0.999722
0.999721
0.999719
0.999717
0.999716
0.999716
0.999714
0.999713
0.999711
0.999709
0.999709
0.999708
0.999706
0.999705
0.999703
0.999703
0.999702
0.9997
0.999698
0.999697
0.999697
0.999695
0.999694
0.999692
0.99969
0.99969
0.999689
0.999687
0.999686
0.999684
0.999684
0.999683
0.999681
0.999679
0.999678
0.999678
0.999676
0.999675
0.999673
0.999672
0.999672
0.99967
0.999669
0.999667
0.999665
0.999665
0.999664
0.999662
0.999661
0.999659
0.999659
0.999658
0.999656
0.999654
0.999653
0.999653
0.999651
0.99965
0.999648
0.999646
0.999646
0.999645
0.999643
0.999642
0.99964
0.99964
0.999639
0.999637
0.999635
0.999634
0.999634
0.999632
0.999631
0.999629
0.999627
0.999627
0.999626
0.999624
0.999623
0.999621
0.999621
0.999619
0.999618
0.999616
0.999614
0.999614
0.999613
0.999611
0.99961
0.999608
0.999608
0.999606
0.999605
0.999603
0.999601
0.999601
0.9996
0.999598
0.999597
0.999595
0.999595
0.999593
0.999592
0.99959
0.999588
0.999588
0.999587
0.999585
0.999583
0.999582
0.999582
0.99958
0.999578
0.999577
0.999575
0.999575
0.999574
0.999572
0.99957
0.999569
0.999569
0.999567
0.999565
0.999564
0.999562
0.999562
0.99956
0.999559
0.999557
0.999555
0.999555
0.999554
0.999552
0.99955
0.999549
0.999549
0.999547
0.999545
0.999544
0.999542
0.999542
0.99954
0.999539
0.999537
0.999535
0.999535
0.999534
0.999532
0.999531
0.999529
0.999529
0.999527
0.999526
0.999524
0.999522
0.999522
0.999521
0.999519
0.999517
0.999516
0.999516
0.999514
0.999513
0.999511
0.999509
0.999509
0.999508
0.999506
0.999504
0.999503
0.999503
0.999501
0.999499
0.999498
0.999496
0.999496
0.999494
0.999493
0.999491
0.999489
0.999489
0.999488
0.999486
0.999484
0.999483
0.999483
0.999481
0.999479
0.999478
0.999476
0.999476
0.999474
0.999473
0.999471
0.999469
0.999469
0.999468
0.999466
0.999464
0.999463
0.999463
0.999461
0.999459
0.999458
0.999456
0.999456
0.999454
0.999452
0.999451
0.999449
0.999449
0.999447
0.999446
0.999444
0.999442
0.999442
0.999441
0.999439
0.999437
0.999435
0.999435
0.999434
0.999432
0.99943
0.999429
0.999429
0.999427
0.999425
0.999423
0.999422
0.999422
0.99942
0.999418
0.999416
0.999415
0.999415
0.999413
0.999411
0.99941
0.999408
0.999408
0.999406
0.999404
0.999403
0.999401
0.999401
0.999399
0.999398
0.999396
0.999394
0.999394
0.999392
0.999391
0.999389
0.999387
0.999387
0.999386
0.999384
0.999382
0.99938
0.99938
0.999379
0.999377
0.999375
0.999374
0.999374
0.999372
0.99937
0.999368
0.999367
0.999367
0.999365
0.999363
0.999362
0.99936
0.99936
0.999358
0.999357
0.999355
0.999353
0.999353
0.999351
0.99935
0.999348
0.999346
0.999346
0.999345
0.999343
0.999341
0.999339
0.999339
0.999338
0.999336
0.999334
0.999332
0.999332
0.999331
0.999329
0.999327
0.999326
0.999326
0.999324
0.999322
0.99932
0.999319
0.999319
0.999317
0.999315
0.999313
0.999312
0.999312
0.99931
0.999308
0.999306
0.999305
0.999305
0.999303
0.999301
0.999299
0.999297
0.999297
0.999296
0.999294
0.999292
0.99929
0.99929
0.999289
0.999287
0.999285
0.999283
0.999283
0.999282
0.99928
0.999278
0.999276
0.999276
0.999274
0.999273
0.999271
0.999269
0.999269
0.999267
0.999265
0.999264
0.999262
0.999262
0.99926
0.999258
0.999257
0.999255
0.999255
0.999253
0.999251
0.999249
0.999248
0.999248
0.999246
0.999244
0.999242
0.999241
0.999241
0.999239
0.999237
0.999235
0.999233
0.999233
0.999232
0.99923
0.999228
0.999226
0.999226
0.999225
0.999223
0.999221
0.999219
0.999219
0.999218
0.999216
0.999214
0.999212
0.999212
0.999211
0.999209
0.999207
0.999205
0.999205
0.999203
0.999202
0.9992
0.999198
0.999198
0.999196
0.999195
0.999193
0.999191
0.999191
0.999189
0.999187
0.999186
0.999184
0.999184
0.999182
0.99918
0.999179
0.999177
0.999177
0.999175
0.999173
0.999171
0.99917
0.99917
0.999168
0.999166
0.999164
0.999162
0.999162
0.999161
0.999159
0.999157
0.999155
0.999155
0.999153
0.999151
0.99915
0.999148
0.999148
0.999146
0.999144
0.999142
0.99914
0.99914
0.999139
0.999137
0.999135
0.999133
0.999133
0.999131
0.999129
0.999128
0.999126
0.999126
0.999124
0.999122
0.99912
0.999118
0.999118
0.999117
0.999115
0.999113
0.999111
0.999111
0.999109
0.999107
0.999106
0.999104
0.999104
0.999102
0.9991
0.999098
0.999096
0.999096
0.999095
0.999093
0.999091
0.999089
0.999089
0.999087
0.999085
0.999084
0.999082
0.999082
0.99908
0.999078
0.999076
0.999075
0.999075
0.999073
0.999071
0.999069
0.999067
0.999067
0.999065
0.999064
0.999062
0.99906
0.99906
0.999058
0.999056
0.999055
0.999053
0.999053
0.999051
0.999049
0.999047
0.999045
0.999045
0.999044
0.999042
0.99904
0.999038
0.999038
0.999036
0.999034
0.999033
0.999031
0.999031
0.999029
0.999027
0.999025
0.999023
0.999023
0.999021
0.99902
0.999018
0.999016
0.999016
0.999014
0.999012
0.99901
0.999008
0.999008
0.999007
0.999005
0.999003
0.999001
0.999001
0.998999
0.998997
0.998995
0.998993
0.998993
0.998992
0.99899
0.998988
0.998986
0.998986
0.998984
0.998982
0.99898
0.998978
0.998978
0.998976
0.998975
0.998973
0.998971
0.998971
0.998969
0.998967
0.998965
0.998963
0.998963
0.998961
0.998959
0.998958
0.998956
0.998956
0.998954
0.998952
0.99895
0.998948
0.998948
0.998946
0.998944
0.998943
0.998941
0.998941
0.998939
0.998937
0.998935
0.998933
0.998933
0.998931
0.998929
0.998928
0.998926
0.998926
0.998924
0.998922
0.99892
0.998918
0.998918
0.998916
0.998915
0.998913
0.998911
0.998911
0.998909
0.998907
0.998905
0.998903
0.998903
0.998901
0.9989
0.998898
0.998896
0.998896
0.998894
0.998892
0.99889
0.998888
0.998888
0.998886
0.998884
0.998882
0.998881
0.998881
0.998879
0.998877
0.998875
0.998873
0.998873
0.998871
0.998869
0.998867
0.998865
0.998865
0.998863
0.998862
0.99886
0.998858
0.998858
0.998856
0.998854
0.998852
0.99885
0.99885
0.998848
0.998846
0.998844
0.998842
0.998842
0.99884
0.998838
0.998836
0.998835
0.998835
0.998833
0.998831
0.998829
0.998827
0.998827
0.998825
0.998823
0.998821
0.998819
0.998819
0.998817
0.998815
0.998813
0.998811
0.998811
0.998809
0.998808
0.998806
0.998804
0.998804
0.998802
0.9988
0.998798
0.998796
0.998796
0.998794
0.998792
0.99879
0.998788
0.998788
0.998786
0.998785
0.998783
0.998781
0.998781
0.998779
0.998777
0.998775
0.998773
0.998773
0.998771
0.998769
0.998767
0.998765
0.998765
0.998763
0.998762
0.99876
0.998758
0.998758
0.998756
0.998754
0.998752
0.99875
0.99875
0.998748
0.998746
0.998744
0.998742
0.998742
0.99874
0.998738
0.998736
0.998735
0.998735
0.998733
0.998731
0.998729
0.998727
0.998727
0.998725
0.998723
0.998721
0.998719
0.998719
0.998717
0.998715
0.998713
0.998711
0.998711
0.998709
0.998707
0.998705
0.998703
0.998703
0.998701
0.998699
0.998697
0.998695
0.998695
0.998693
0.998691
0.998689
0.998687
0.998687
0.998685
0.998683
0.998681
0.998679
0.998679
0.998678
0.998676
0.998674
0.998672
0.998672
0.99867
0.998668
0.998666
0.998664
0.998664
0.998662
0.99866
0.998658
0.998656
0.998656
0.998654
0.998652
0.99865
0.998648
0.998648
0.998646
0.998644
0.998642
0.99864
0.99864
0.998638
0.998636
0.998634
0.998632
0.998632
0.998631
0.998629
0.998627
0.998625
0.998625
0.998623
0.998621
0.998619
0.998617
0.998617
0.998615
0.998613
0.998611
0.998609
0.998609
0.998607
0.998605
0.998603
0.998601
0.998601
0.998599
0.998597
0.998595
0.998593
0.998593
0.998591
0.998589
0.998587
0.998585
0.998585
0.998583
0.998581
0.998579
0.998577
0.998577
0.998575
0.998573
0.998571
0.998569
0.998569
0.998567
0.998565
0.998563
0.998561
0.998561
0.998559
0.998557
0.998555
0.998553
0.998553
0.998551
0.998549
0.998547
0.998545
0.998545
0.998543
0.998541
0.998539
0.998537
0.998537
0.998535
0.998533
0.998531
0.998529
0.998529
0.998527
0.998525
0.998523
0.998521
0.998521
0.998519
0.998517
0.998515
0.998513
0.998513
0.998511
0.998509
0.998507
0.998505
0.998505
0.998503
0.998501
0.998499
0.998497
0.998497
0.998495
0.998493
0.998491
0.998489
0.998489
0.998487
0.998485
0.998483
0.998481
0.998481
0.998479
0.998477
0.998475
0.998473
0.998473
0.998471
0.998469
0.998467
0.998465
0.998465
0.998463
0.998461
0.998459
0.998457
0.998457
0.998455
0.998453
0.998451
0.998449
0.998449
0.998447
0.998445
0.998443
0.998441
0.998441
0.998439
0.998437
0.998435
0.998433
0.998433
0.998431
0.998429
0.998427
0.998425
0.998425
0.998423
0.998421
0.998419
0.998417
0.998417
0.998414
0.998412
0.99841
0.998408
0.998408
0.998406
0.998404
0.998402
0.9984
0.9984
0.998398
0.998396
0.998394
0.998392
0.998392
0.99839
0.998388
0.998386
0.998384
0.998384
0.998382
0.99838
0.998378
0.998376
0.998376
0.998374
0.998372
0.99837
0.998368
0.998368
0.998366
0.998364
0.998362
0.99836
0.99836
0.998357
0.998355
0.998353
0.998351
0.998351
0.998349
0.998347
0.998345
0.998343
0.998343
0.998341
0.998339
0.998337
0.998335
0.998335
0.998333
0.998331
0.998329
0.998327
0.998327
0.998325
0.998323
0.998321
0.998319
0.998319
0.998317
0.998315
0.998313
0.998311
0.998311
0.998309
0.998307
0.998305
0.998302
0.998302
0.9983
0.998298
0.998296
0.998294
0.998294
0.998292
0.99829
0.998288
0.998286
0.998286
0.998284
0.998282
0.99828
0.998278
0.998278
0.998276
0.998273
0.998271
0.998269
0.998269
0.998267
0.998265
0.998263
0.998261
0.998261
0.998259
0.998257
0.998255
0.998253
0.998253
0.998251
0.998249
0.998247
0.998244
0.998244
0.998242
0.99824
0.998238
0.998236
0.998236
0.998234
0.998232
0.99823
0.998228
0.998228
0.998226
0.998224
0.998222
0.99822
0.99822
0.998218
0.998216
0.998214
0.998212
0.998212
0.99821
0.998207
0.998205
0.998203
0.998203
0.998201
0.998199
0.998197
0.998195
0.998195
0.998193
0.998191
0.998189
0.998187
0.998187
0.998185
0.998183
0.998181
0.998179
0.998179
0.998176
0.998174
0.998172
0.99817
0.99817
0.998168
0.998166
0.998164
0.998162
0.998162
0.99816
0.998158
0.998156
0.998153
0.998153
0.998151
0.998149
0.998147
0.998145
0.998145
0.998143
0.998141
0.998139
0.998137
0.998137
0.998135
0.998132
0.99813
0.998128
0.998128
0.998126
0.998124
0.998122
0.99812
0.99812
0.998118
0.998116
0.998114
0.998111
0.998111
0.998109
0.998107
0.998105
0.998103
0.998103
0.998101
0.998099
0.998097
0.998095
0.998095
0.998093
0.998091
0.998089
0.998086
0.998086
0.998084
0.998082
0.99808
0.998078
0.998078
0.998076
0.998074
0.998072
0.99807
0.99807
0.998068
0.998066
0.998064
0.998061
0.998061
0.998059
0.998057
0.998055
0.998053
0.998053
0.998051
0.998049
0.998047
0.998045
0.998045
0.998043
0.99804
0.998038
0.998036
0.998036
0.998034
0.998032
0.99803
0.998028
0.998028
0.998026
0.998024
0.998021
0.998019
0.998019
0.998017
0.998015
0.998013
0.998011
0.998011
0.998009
0.998007
0.998004
0.998002
0.998002
0.998
0.997998
0.997996
0.997994
0.997994
0.997992
0.99799
0.997987
0.997985
0.997985
0.997983
0.997981
0.997979
0.997977
0.997977
0.997975
0.997973
0.997971
0.997968
0.997968
0.997966
0.997964
0.997962
0.99796
0.99796
0.997958
0.997956
0.997954
0.997952
0.997952
0.997949
0.997947
0.997945
0.997943
0.997943
0.997941
0.997939
0.997937
0.997935
0.997935
0.997933
0.997931
0.997928
0.997926
0.997926
0.997924
0.997922
0.99792
0.997918
0.997918
0.997916
0.997914
0.997911
0.997909
0.997909
0.997907
0.997905
0.997903
0.997901
0.997901
0.997899
0.997897
0.997894
0.997892
0.997892
0.99789
0.997888
0.997886
0.997884
0.997884
0.997882
0.997879
0.997877
0.997875
0.997875
0.997873
0.997871
0.997869
0.997866
0.997866
0.997864
0.997862
0.99786
0.997858
0.997858
0.997856
0.997854
0.997851
0.997849
0.997849
0.997847
0.997845
0.997843
0.997841
0.997841
0.997839
0.997837
0.997834
0.997832
0.997832
0.99783
0.997828
0.997826
0.997824
0.997824
0.997822
0.997819
0.997817
0.997815
0.997815
0.997813
0.997811
0.997809
0.997807
0.997807
0.997805
0.997802
0.9978
0.997798
0.997798
0.997796
0.997794
0.997792
0.99779
0.99779
0.997787
0.997785
0.997783
0.997781
0.997781
0.997779
0.997777
0.997775
0.997772
0.997772
0.99777
0.997768
0.997766
0.997764
0.997764
0.997762
0.99776
0.997757
0.997755
0.997755
0.997753
0.997751
0.997749
0.997747
0.997747
0.997744
0.997742
0.99774
0.997738
0.997738
0.997736
0.997734
0.997731
0.997729
0.997729
0.997727
0.997725
0.997723
0.997721
0.997721
0.997718
0.997716
0.997714
0.997712
0.997712
0.99771
0.997708
0.997705
0.997703
0.997703
0.997701
0.997699
0.997697
0.997695
0.997695
0.997693
0.99769
0.997688
0.997686
0.997686
0.997684
0.997682
0.99768
0.997678
0.997678
0.997675
0.997673
0.997671
0.997669
0.997669
0.997667
0.997665
0.997663
0.99766
0.99766
0.997658
0.997656
0.997654
0.997652
0.997652
0.99765
0.997647
0.997645
0.997643
0.997643
0.997641
0.997639
0.997636
0.997634
0.997634
0.997632
0.99763
0.997628
0.997626
0.997626
0.997623
0.997621
0.997619
0.997617
0.997617
0.997615
0.997613
0.99761
0.997608
0.997608
0.997606
0.997604
0.997602
0.997599
0.997599
0.997597
0.997595
0.997593
0.997591
0.997591
0.997589
0.997586
0.997584
0.997582
0.997582
0.99758
0.997578
0.997576
0.997573
0.997573
0.997571
0.997569
0.997567
0.997565
0.997565
0.997563
0.99756
0.997558
0.997556
0.997556
0.997554
0.997552
0.99755
0.997547
0.997547
0.997545
0.997543
0.997541
0.997539
0.997539
0.997537
0.997534
0.997532
0.99753
0.99753
0.997528
0.997526
0.997523
0.997521
0.997521
0.997519
0.997517
0.997515
0.997513
0.997513
0.99751
0.997508
0.997506
0.997504
0.997504
0.997502
0.997499
0.997497
0.997495
0.997495
0.997493
0.997491
0.997488
0.997486
0.997486
0.997484
0.997482
0.99748
0.997477
0.997477
0.997475
0.997473
0.997471
0.997469
0.997469
0.997466
0.997464
0.997462
0.99746
0.99746
0.997458
0.997456
0.997453
0.997451
0.997451
0.997449
0.997447
0.997445
0.997442
0.997442
0.99744
0.997438
0.997436
0.997434
0.997434
0.997432
0.997429
0.997427
0.997425
0.997425
0.997423
0.997421
0.997419
0.997416
0.997416
0.997414
0.997412
0.99741
0.997408
0.997408
0.997405
0.997403
0.997401
0.997399
0.997399
0.997397
0.997394
0.997392
0.99739
0.99739
0.997388
0.997386
0.997383
0.997381
0.997381
0.997379
0.997377
0.997375
0.997372
0.997372
0.99737
0.997368
0.997366
0.997364
0.997364
0.997361
0.997359
0.997357
0.997355
0.997355
0.997352
0.99735
0.997348
0.997346
0.997346
0.997344
0.997341
0.997339
0.997337
0.997337
0.997335
0.997333
0.99733
0.997328
0.997328
0.997326
0.997324
0.997322
0.99732
0.99732
0.997317
0.997315
0.997313
0.997311
0.997311
0.997309
0.997306
0.997304
0.997302
0.997302
0.9973
0.997298
0.997295
0.997293
0.997293
0.997291
0.997289
0.997287
0.997284
0.997284
0.997282
0.99728
0.997278
0.997276
0.997276
0.997273
0.997271
0.997269
0.997267
0.997267
0.997265
0.997262
0.99726
0.997258
0.997258
0.997256
0.997253
0.997251
0.997249
0.997249
0.997247
0.997245
0.997242
0.99724
0.99724
0.997238
0.997236
0.997234
0.997231
0.997231
0.997229
0.997227
0.997225
0.997222
0.997222
0.99722
0.997218
0.997216
0.997214
0.997214