<?xml version="1.0"?>
<VTKFile type="UnstructuredGrid" version="0.1" byte_order="LittleEndian">
<UnstructuredGrid>
<Piece NumberOfPoints="5000" NumberOfCells="4000">
<PointData Scalars="Reaction 0">
<DataArray type="Float32" Name="Reaction 0" format="ascii">
0.468209
0.468209
0.468209
0.468209
0.468209
0.468209
0.468209
0.46821
0.46821
0.46821
0.46821
0.46821
0.468211
0.468211
0.468211
0.468211
0.468212
0.468212
0.468213
0.468213
0.468213
0.468214
0.468214
0.468215
0.468215
0.468215
0.468216
0.468217
0.468217
0.468218
0.468218
0.468219
0.46822
0.46822
0.468221
0.468221
0.468222
0.468223
0.468224
0.468225
0.468225
0.468226
0.468227
0.468228
0.468229
0.468229
0.46823
0.468232
0.468233
0.468234
0.468234
0.468235
0.468237
0.468238
0.468239
0.468239
0.468241
0.468242
0.468244
0.468245
0.468245
0.468247
0.468248
0.46825
0.468251
0.468251
0.468253
0.468255
0.468256
0.468258
0.468258
0.46826
0.468262
0.468264
0.468265
0.468265
0.468267
0.468269
0.468271
0.468273
0.468273
0.468275
0.468277
0.468279
0.468281
0.468281
0.468284
0.468286
0.468288
0.46829
0.46829
0.468292
0.468295
0.468297
0.468299
0.468299
0.468302
0.468304
0.468307
0.468309
0.468309
0.468312
0.468314
0.468317
0.468319
0.468319
0.468322
0.468325
0.468327
0.46833
0.46833
0.468333
0.468336
0.468339
0.468341
0.468341
0.468344
0.468347
0.46835
0.468353
0.468353
0.468356
0.468359
0.468362
0.468365
0.468365
0.468369
0.468372
0.468375
0.468378
0.468378
0.468381
0.468385
0.468388
0.468391
0.468391
0.468395
0.468398
0.468402
0.468405
0.468405
0.468409
0.468412
0.468416
0.468419
0.468419
0.468423
0.468427
0.46843
0.468434
0.468434
0.468438
0.468442
0.468446
0.468449
0.468449
0.468453
0.468457
0.468461
0.468465
0.468465
0.468469
0.468473
0.468477
0.468481
0.468481
0.468486
0.46849
0.468494
0.468498
0.468498
0.468502
0.468507
0.468511
0.468515
0.468515
0.46852
0.468524
0.468529
0.468533
0.468533
0.468538
0.468542
0.468547
0.468551
0.468551
0.468556
0.468561
0.468565
0.46857
0.46857
0.468575
0.46858
0.468585
0.468589
0.468589
0.468594
0.468599
0.468604
0.468609
0.468609
0.468614
0.468619
0.468624
0.46863
0.46863
0.468635
0.46864
0.468645
0.46865
0.46865
0.468656
0.468661
0.468666
0.468672
0.468672
0.468677
0.468682
0.468688
0.468693
0.468693
0.468699
0.468704
0.46871
0.468716
0.468716
0.468721
0.468727
0.468733
0.468738
0.468738
0.468744
0.46875
0.468756
0.468762
0.468762
0.468767
0.468773
0.468779
0.468785
0.468785
0.468791
0.468797
0.468804
0.46881
0.46881
0.468816
0.468822
0.468828
0.468834
0.468834
0.468841
0.468847
0.468853
0.46886
0.46886
0.468866
0.468872
0.468879
0.468885
0.468885
0.468892
0.468899
0.468905
0.468912
0.468912
0.468918
0.468925
0.468932
0.468938
0.468938
0.468945
0.468952
0.468959
0.468966
0.468966
0.468973
0.46898
0.468987
0.468994
0.468994
0.469001
0.469008
0.469015
0.469022
0.469022
0.469029
0.469036
0.469043
0.469051
0.469051
0.469058
0.469065
0.469073
0.46908
0.46908
0.469087
0.469095
0.469102
0.46911
0.46911
0.469117
0.469125
0.469132
0.46914
0.46914
0.469148
0.469155
0.469163
0.469171
0.469171
0.469178
0.469186
0.469194
0.469202
0.469202
0.46921
0.469218
0.469226
0.469234
0.469234
0.469242
0.46925
0.469258
0.469266
0.469266
0.469274
0.469282
0.469291
0.469299
0.469299
0.469307
0.469315
0.469324
0.469332
0.469332
0.469341
0.469349
0.469357
0.469366
0.469366
0.469374
0.469383
0.469392
0.4694
0.4694
0.469409
0.469418
0.469426
0.469435
0.469435
0.469444
0.469453
0.469461
0.46947
0.46947
0.469479
0.469488
0.469497
0.469506
0.469506
0.469515
0.469524
0.469533
0.469542
0.469542
0.469552
0.469561
0.46957
0.469579
0.469579
0.469589
0.469598
0.469607
0.469617
0.469617
0.469626
0.469635
0.469645
0.469654
0.469654
0.469664
0.469673
0.469683
0.469693
0.469693
0.469702
0.469712
0.469722
0.469731
0.469731
0.469741
0.469751
0.469761
0.469771
0.469771
0.469781
0.469791
0.469801
0.469811
0.469811
0.469821
0.469831
0.469841
0.469851
0.469851
0.469861
0.469871
0.469882
0.469892
0.469892
0.469902
0.469912
0.469923
0.469933
0.469933
0.469944
0.469954
0.469964
0.469975
0.469975
0.469985
0.469996
0.470007
0.470017
0.470017
0.470028
0.470039
0.470049
0.47006
0.47006
0.470071
0.470082
0.470093
0.470103
0.470103
0.470114
0.470125
0.470136
0.470147
0.470147
0.470158
0.470169
0.47018
0.470192
0.470192
0.470203
0.470214
0.470225
0.470236
0.470236
0.470248
0.470259
0.47027
0.470282
0.470282
0.470293
0.470305
0.470316
0.470328
0.470328
0.470339
0.470351
0.470362
0.470374
0.470374
0.470386
0.470397
0.470409
0.470421
0.470421
0.470433
0.470444
0.470456
0.470468
0.470468
0.47048
0.470492
0.470504
0.470516
0.470516
0.470528
0.47054
0.470552
0.470564
0.470564
0.470577
0.470589
0.470601
0.470613
0.470613
0.470626
0.470638
0.47065
0.470663
0.470663
0.470675
0.470688
0.4707
0.470713
0.470713
0.470725
0.470738
0.47075
0.470763
0.470763
0.470776
0.470788
0.470801
0.470814
0.470814
0.470827
0.470839
0.470852
0.470865
0.470865
0.470878
0.470891
0.470904
0.470917
0.470917
0.47093
0.470943
0.470956
0.47097
0.47097
0.470983
0.470996
0.471009
0.471022
0.471022
0.471036
0.471049
0.471062
0.471076
0.471076
0.471089
0.471103
0.471116
0.47113
0.47113
0.471143
0.471157
0.471171
0.471184
0.471184
0.471198
0.471212
0.471225
0.471239
0.471239
0.471253
0.471267
0.471281
0.471295
0.471295
0.471308
0.471322
0.471336
0.47135
0.47135
0.471365
0.471379
0.471393
0.471407
0.471407
0.471421
0.471435
0.47145
0.471464
0.471464
0.471478
0.471492
0.471507
0.471521
0.471521
0.471536
0.47155
0.471565
0.471579
0.471579
0.471594
0.471608
0.471623
0.471638
0.471638
0.471652
0.471667
0.471682
0.471697
0.471697
0.471711
0.471726
0.471741
0.471756
0.471756
0.471771
0.471786
0.471801
0.471816
0.471816
0.471831
0.471846
0.471861
0.471877
0.471877
0.471892
0.471907
0.471922
0.471938
0.471938
0.471953
0.471968
0.471984
0.471999
0.471999
0.472014
0.47203
0.472045
0.472061
0.472061
0.472077
0.472092
0.472108
0.472123
0.472123
0.472139
0.472155
0.472171
0.472186
0.472186
0.472202
0.472218
0.472234
0.47225
0.47225
0.472266
0.472282
0.472298
0.472314
0.472314
0.47233
0.472346
0.472362
0.472379
0.472379
0.472395
0.472411
0.472427
0.472444
0.472444
0.47246
0.472476
0.472493
0.472509
0.472509
0.472526
0.472542
0.472559
0.472575
0.472575
0.472592
0.472608
0.472625
0.472642
0.472642
0.472658
0.472675
0.472692
0.472709
0.472709
0.472726
0.472742
0.472759
0.472776
0.472776
0.472793
0.47281
0.472827
0.472844
0.472844
0.472861
0.472879
0.472896
0.472913
0.472913
0.47293
0.472947
0.472965
0.472982
0.472982
0.472999
0.473017
0.473034
0.473052
0.473052
0.473069
0.473087
0.473104
0.473122
0.473122
0.473139
0.473157
0.473175
0.473192
0.473192
0.47321
0.473228
0.473246
0.473263
0.473263
0.473281
0.473299
0.473317
0.473335
0.473335
0.473353
0.473371
0.473389
0.473407
0.473407
0.473425
0.473443
0.473462
0.47348
0.47348
0.473498
0.473516
0.473535
0.473553
0.473553
0.473571
0.47359
0.473608
0.473627
0.473627
0.473645
0.473664
0.473682
0.473701
0.473701
0.473719
0.473738
0.473757
0.473775
0.473775
0.473794
0.473813
0.473832
0.473851
0.473851
0.473869
0.473888
0.473907
0.473926
0.473926
0.473945
0.473964
0.473983
0.474002
0.474002
0.474022
0.474041
0.47406
0.474079
0.474079
0.474098
0.474118
0.474137
0.474156
0.474156
0.474176
0.474195
0.474215
0.474234
0.474234
0.474254
0.474273
0.474293
0.474312
0.474312
0.474332
0.474352
0.474371
0.474391
0.474391
0.474411
0.474431
0.47445
0.47447
0.47447
0.47449
0.47451
0.47453
0.47455
0.47455
0.47457
0.47459
0.47461
0.47463
0.47463
0.47465
0.474671
0.474691
0.474711
0.474711
0.474731
0.474752
0.474772
0.474792
0.474792
0.474813
0.474833
0.474854
0.474874
0.474874
0.474895
0.474915
0.474936
0.474956
0.474956
0.474977
0.474998
0.475019
0.475039
0.475039
0.47506
0.475081
0.475102
0.475123
0.475123
0.475144
0.475164
0.475185
0.475206
0.475206
0.475227
0.475249
0.47527
0.475291
0.475291
0.475312
0.475333
0.475354
0.475376
0.475376
0.475397
0.475418
0.47544
0.475461
0.475461
0.475482
0.475504
0.475525
0.475547
0.475547
0.475568
0.47559
0.475612
0.475633
0.475633
0.475655
0.475677
0.475698
0.47572
0.47572
0.475742
0.475764
0.475786
0.475808
0.475808
0.475829
0.475851
0.475873
0.475895
0.475895
0.475918
0.47594
0.475962
0.475984
0.475984
0.476006
0.476028
0.476051
0.476073
0.476073
0.476095
0.476118
0.47614
0.476162
0.476162
0.476185
0.476207
0.47623
0.476252
0.476252
0.476275
0.476297
0.47632
0.476343
0.476343
0.476365
0.476388
0.476411
0.476434
0.476434
0.476457
0.476479
0.476502
0.476525
0.476525
0.476548
0.476571
0.476594
0.476617
0.476617
0.47664
0.476663
0.476687
0.47671
0.47671
0.476733
0.476756
0.47678
0.476803
0.476803
0.476826
0.47685
0.476873
0.476896
0.476896
0.47692
0.476943
0.476967
0.47699
0.47699
0.477014
0.477038
0.477061
0.477085
0.477085
0.477109
0.477133
0.477156
0.47718
0.47718
0.477204
0.477228
0.477252
0.477276
0.477276
0.4773
0.477324
0.477348
0.477372
0.477372
0.477396
0.47742
0.477444
0.477469
0.477469
0.477493
0.477517
0.477541
0.477566
0.477566
0.47759
0.477614
0.477639
0.477663
0.477663
0.477688
0.477712
0.477737
0.477762
0.477762
0.477786
0.477811
0.477835
0.47786
0.47786
0.477885
0.47791
0.477935
0.477959
0.477959
0.477984
0.478009
0.478034
0.478059
0.478059
0.478084
0.478109
0.478134
0.478159
0.478159
0.478185
0.47821
0.478235
0.47826
0.47826
0.478285
0.478311
0.478336
0.478361
0.478361
0.478387
0.478412
0.478438
0.478463
0.478463
0.478489
0.478514
0.47854
0.478565
0.478565
0.478591
0.478617
0.478643
0.478668
0.478668
0.478694
0.47872
0.478746
0.478772
0.478772
0.478798
0.478823
0.478849
0.478875
0.478875
0.478902
0.478928
0.478954
0.47898
0.47898
0.479006
0.479032
0.479058
0.479085
0.479085
0.479111
0.479137
0.479164
0.47919
0.47919
0.479217
0.479243
0.47927
0.479296
0.479296
0.479323
0.479349
0.479376
0.479402
0.479402
0.479429
0.479456
0.479483
0.479509
0.479509
0.479536
0.479563
0.47959
0.479617
0.479617
0.479644
0.479671
0.479698
0.479725
0.479725
0.479752
0.479779
0.479806
0.479833
0.479833
0.479861
0.479888
0.479915
0.479942
0.479942
0.47997
0.479997
0.480024
0.480052
0.480052
0.480079
0.480107
0.480134
0.480162
0.480162
0.48019
0.480217
0.480245
0.480273
0.480273
0.4803
0.480328
0.480356
0.480384
0.480384
0.480411
0.480439
0.480467
0.480495
0.480495
0.480523
0.480551
0.480579
0.480607
0.480607
0.480635
0.480664
0.480692
0.48072
0.48072
0.480748
0.480776
0.480805
0.480833
0.480833
0.480862
0.48089
0.480918
0.480947
0.480947
0.480975
0.481004
0.481032
0.481061
0.481061
0.48109
0.481118
0.481147
0.481176
0.481176
0.481204
0.481233
0.481262
0.481291
0.481291
0.48132
0.481349
0.481378
0.481407
0.481407
0.481436
0.481465
0.481494
0.481523
0.481523
0.481552
0.481581
0.481611
0.48164
0.48164
0.481669
0.481698
0.481728
0.481757
0.481757
0.481787
0.481816
0.481845
0.481875
0.481875
0.481905
0.481934
0.481964
0.481993
0.481993
0.482023
0.482053
0.482082
0.482112
0.482112
0.482142
0.482172
0.482202
0.482232
0.482232
0.482262
0.482292
0.482322
0.482352
0.482352
0.482382
0.482412
0.482442
0.482472
0.482472
0.482502
0.482532
0.482563
0.482593
0.482593
0.482623
0.482654
0.482684
0.482714
0.482714
0.482745
0.482775
0.482806
0.482836
0.482836
0.482867
0.482898
0.482928
0.482959
0.482959
0.48299
0.48302
0.483051
0.483082
0.483082
0.483113
0.483144
0.483175
0.483206
0.483206
0.483237
0.483268
0.483299
0.48333
0.48333
0.483361
0.483392
0.483423
0.483454
0.483454
0.483486
0.483517
0.483548
0.48358
0.48358
0.483611
0.483642
0.483674
0.483705
0.483705
0.483737
0.483768
0.4838
0.483831
0.483831
0.483863
0.483895
0.483926
0.483958
0.483958
0.48399
0.484022
0.484054
0.484085
0.484085
0.484117
0.484149
0.484181
0.484213
0.484213
0.484245
0.484277
0.484309
0.484341
0.484341
0.484374
0.484406
0.484438
0.48447
0.48447
0.484503
0.484535
0.484567
0.4846
0.4846
0.484632
0.484664
0.484697
0.484729
0.484729
0.484762
0.484795
0.484827
0.48486
0.48486
0.484893
0.484925
0.484958
0.484991
0.484991
0.485024
0.485056
0.485089
0.485122
0.485122
0.485155
0.485188
0.485221
0.485254
0.485254
0.485287
0.48532
0.485354
0.485387
0.485387
0.48542
0.485453
0.485486
0.48552
0.48552
0.485553
0.485586
0.48562
0.485653
0.485653
0.485687
0.48572
0.485754
0.485787
0.485787
0.485821
0.485855
0.485888
0.485922
0.485922
0.485956
0.485989
0.486023
0.486057
0.486057
0.486091
0.486125
0.486159
0.486193
0.486193
0.486227
0.486261
0.486295
0.486329
0.486329
0.486363
0.486397
0.486431
0.486466
0.486466
0.4865
0.486534
0.486569
0.486603
0.486603
0.486637
0.486672
0.486706
0.486741
0.486741
0.486775
0.48681
0.486844
0.486879
0.486879
0.486914
0.486948
0.486983
0.487018
0.487018
0.487053
0.487087
0.487122
0.487157
0.487157
0.487192
0.487227
0.487262
0.487297
0.487297
0.487332
0.487367
0.487402
0.487438
0.487438
0.487473
0.487508
0.487543
0.487578
0.487578
0.487614
0.487649
0.487685
0.48772
0.48772
0.487755
0.487791
0.487826
0.487862
0.487862
0.487898
0.487933
0.487969
0.488005
0.488005
0.48804
0.488076
0.488112
0.488148
0.488148
0.488183
0.488219
0.488255
0.488291
0.488291
0.488327
0.488363
0.488399
0.488435
0.488435
0.488471
0.488508
0.488544
0.48858
0.48858
0.488616
0.488653
0.488689
0.488725
0.488725
0.488762
0.488798
0.488834
0.488871
0.488871
0.488907
0.488944
0.488981
0.489017
0.489017
0.489054
0.48909
0.489127
0.489164
0.489164
0.489201
0.489238
0.489274
0.489311
0.489311
0.489348
0.489385
0.489422
0.489459
0.489459
0.489496
0.489533
0.48957
0.489608
0.489608
0.489645
0.489682
0.489719
0.489756
0.489756
0.489794
0.489831
0.489868
0.489906
0.489906
0.489943
0.489981
0.490018
0.490056
0.490056
0.490093
0.490131
0.490169
0.490206
0.490206
0.490244
0.490282
0.49032
0.490357
0.490357
0.490395
0.490433
0.490471
0.490509
0.490509
0.490547
0.490585
0.490623
0.490661
0.490661
0.490699
0.490737
0.490776
0.490814
0.490814
0.490852
0.49089
0.490929
0.490967
0.490967
0.491005
0.491044
0.491082
0.491121
0.491121
0.491159
0.491198
0.491236
0.491275
0.491275
0.491314
0.491352
0.491391
0.49143
0.49143
0.491469
0.491507
0.491546
0.491585
0.491585
0.491624
0.491663
0.491702
0.491741
0.491741
0.49178
0.491819
0.491858
0.491898
0.491898
0.491937
0.491976
0.492015
0.492054
0.492054
0.492094
0.492133
0.492173
0.492212
0.492212
0.492251
0.492291
0.49233
0.49237
0.49237
0.49241
0.492449
0.492489
0.492529
0.492529
0.492568
0.492608
0.492648
0.492688
0.492688
0.492728
0.492767
0.492807
0.492847
0.492847
0.492887
0.492927
0.492967
0.493008
0.493008
0.493048
0.493088
0.493128
0.493168
0.493168
0.493209
0.493249
0.493289
0.49333
0.49333
0.49337
0.49341
0.493451
0.493491
0.493491
0.493532
0.493572
0.493613
0.493654
0.493654
0.493694
0.493735
0.493776
0.493817
0.493817
0.493857
0.493898
0.493939
0.49398
0.49398
0.494021
0.494062
0.494103
0.494144
0.494144
0.494185
0.494226
0.494267
0.494308
0.494308
0.49435
0.494391
0.494432
0.494473
0.494473
0.494515
0.494556
0.494598
0.494639
0.494639
0.494681
0.494722
0.494764
0.494805
0.494805
0.494847
0.494888
0.49493
0.494972
0.494972
0.495014
0.495055
0.495097
0.495139
0.495139
0.495181
0.495223
0.495265
0.495307
0.495307
0.495349
0.495391
0.495433
0.495475
0.495475
0.495517
0.495559
0.495602
0.495644
0.495644
0.495686
0.495729
0.495771
0.495813
0.495813
0.495856
0.495898
0.495941
0.495983
0.495983
0.496026
0.496068
0.496111
0.496154
0.496154
0.496196
0.496239
0.496282
0.496325
0.496325
0.496368
0.49641
0.496453
0.496496
0.496496
0.496539
0.496582
0.496625
0.496668
0.496668
0.496712
0.496755
0.496798
0.496841
0.496841
0.496884
0.496928
0.496971
0.497014
0.497014
0.497058
0.497101
0.497145
0.497188
0.497188
0.497232
0.497275
0.497319
0.497362
0.497362
0.497406
0.49745
0.497493
0.497537
0.497537
0.497581
0.497625
0.497669
0.497713
0.497713
0.497756
0.4978
0.497844
0.497888
0.497888
0.497933
0.497977
0.498021
0.498065
0.498065
0.498109
0.498153
0.498198
0.498242
0.498242
0.498286
0.498331
0.498375
0.49842
0.49842
0.498464
0.498509
0.498553
0.498598
0.498598
0.498642
0.498687
0.498732
0.498776
0.498776
0.498821
0.498866
0.498911
0.498956
0.498956
0.499
0.499045
0.49909
0.499135
0.499135
0.49918
0.499225
0.49927
0.499316
0.499316
0.499361
0.499406
0.499451
0.499496
0.499496
0.499542
0.499587
0.499633
0.499678
0.499678
0.499723
0.499769
0.499814
0.49986
0.49986
0.499905
0.499951
0.499997
0.500042
0.500042
0.500088
0.500134
0.50018
0.500225
0.500225
0.500271
0.500317
0.500363
0.500409
0.500409
0.500455
0.500501
0.500547
0.500593
0.500593
0.500639
0.500686
0.500732
0.500778
0.500778
0.500824
0.500871
0.500917
0.500963
0.500963
0.50101
0.501056
0.501103
0.501149
0.501149
0.501196
0.501242
0.501289
0.501335
0.501335
0.501382
0.501429
0.501476
0.501522
0.501522
0.501569
0.501616
0.501663
0.50171
0.50171
0.501757
0.501804
0.501851
0.501898
0.501898
0.501945
0.501992
0.502039
0.502087
0.502087
0.502134
0.502181
0.502228
0.502276
0.502276
0.502323
0.50237
0.502418
0.502465
0.502465
0.502513
0.50256
0.502608
0.502656
0.502656
0.502703
0.502751
0.502799
0.502846
0.502846
0.502894
0.502942
0.50299
0.503038
0.503038
0.503086
0.503134
0.503182
0.50323
0.50323
0.503278
0.503326
0.503374
0.503422
0.503422
0.50347
0.503519
0.503567
0.503615
0.503615
0.503664
0.503712
0.50376
0.503809
0.503809
0.503857
0.503906
0.503955
0.504003
0.504003
0.504052
0.5041
0.504149
0.504198
0.504198
0.504247
0.504295
0.504344
0.504393
0.504393
0.504442
0.504491
0.50454
0.504589
0.504589
0.504638
0.504687
0.504736
0.504785
0.504785
0.504835
0.504884
0.504933
0.504982
0.504982
0.505032
0.505081
0.50513
0.50518
0.50518
0.505229
0.505279
0.505328
0.505378
0.505378
0.505427
0.505477
0.505527
0.505577
0.505577
0.505626
0.505676
0.505726
0.505776
0.505776
0.505826
0.505876
0.505925
0.505975
0.505975
0.506025
0.506076
0.506126
0.506176
0.506176
0.506226
0.506276
0.506326
0.506377
0.506377
0.506427
0.506477
0.506528
0.506578
0.506578
0.506629
0.506679
0.50673
0.50678
0.50678
0.506831
0.506881
0.506932
0.506983
0.506983
0.507033
0.507084
0.507135
0.507186
0.507186
0.507237
0.507288
0.507339
0.50739
0.50739
0.507441
0.507492
0.507543
0.507594
0.507594
0.507645
0.507696
0.507747
0.507799
0.507799
0.50785
0.507901
0.507953
0.508004
0.508004
0.508055
0.508107
0.508158
0.50821
0.50821
0.508262
0.508313
0.508365
0.508416
0.508416
0.508468
0.50852
0.508572
0.508624
0.508624
0.508675
0.508727
0.508779
0.508831
0.508831
0.508883
0.508935
0.508987
0.509039
0.509039
0.509092
0.509144
0.509196
0.509248
0.509248
0.509301
0.509353
0.509405
0.509458
0.509458
0.50951
0.509562
0.509615
0.509668
0.509668
0.50972
0.509773
0.509825
0.509878
0.509878
0.509931
0.509983
0.510036
0.510089
0.510089
0.510142
0.510195
0.510248
0.510301
0.510301
0.510354
0.510407
0.51046
0.510513
0.510513
0.510566
0.510619
0.510672
0.510726
0.510726
0.510779
0.510832
0.510886
0.510939
0.510939
0.510992
0.511046
0.511099
0.511153
0.511153
0.511206
0.51126
0.511314
0.511367
0.511367
0.511421
0.511475
0.511529
0.511582
0.511582
0.511636
0.51169
0.511744
0.511798
0.511798
0.511852
0.511906
0.51196
0.512014
0.512014
0.512068
0.512123
0.512177
0.512231
0.512231
0.512285
0.51234
0.512394
0.512448
0.512448
0.512503
0.512557
0.512612
0.512666
0.512666
0.512721
0.512775
0.51283
0.512885
0.512885
0.51294
0.512994
0.513049
0.513104
0.513104
0.513159
0.513214
0.513269
0.513324
0.513324
0.513379
0.513434
0.513489
0.513544
0.513544
0.513599
0.513654
0.513709
0.513765
0.513765
0.51382
0.513875
0.51393
0.513986
0.513986
0.514041
0.514097
0.514152
0.514208
0.514208
0.514263
0.514319
0.514375
0.51443
0.51443
0.514486
0.514542
0.514598
0.514653
0.514653
0.514709
0.514765
0.514821
0.514877
0.514877
0.514933
0.514989
0.515045
0.515101
0.515101
0.515158
0.515214
0.51527
0.515326
0.515326
0.515383
0.515439
0.515495
0.515552
0.515552
0.515608
0.515665
0.515721
0.515778
0.515778
0.515834
0.515891
0.515947
0.516004
0.516004
0.516061
0.516118
0.516174
0.516231
0.516231
0.516288
0.516345
0.516402
0.516459
0.516459
0.516516
0.516573
0.51663
0.516687
0.516687
0.516745
0.516802
0.516859
0.516916
0.516916
0.516974
0.517031
0.517088
0.517146
0.517146
0.517203
0.517261
0.517318
0.517376
0.517376
0.517433
0.517491
0.517549
0.517606
0.517606
0.517664
0.517722
0.51778
0.517838
0.517838
0.517896
0.517954
0.518011
0.518069
0.518069
0.518128
0.518186
0.518244
0.518302
0.518302
0.51836
0.518418
0.518477
0.518535
0.518535
0.518593
0.518652
0.51871
0.518768
0.518768
0.518827
0.518885
0.518944
0.519003
0.519003
0.519061
0.51912
0.519179
0.519237
0.519237
0.519296
0.519355
0.519414
0.519473
0.519473
0.519532
0.51959
0.519649
0.519709
0.519709
0.519768
0.519827
0.519886
0.519945
0.519945
0.520004
0.520063
0.520123
0.520182
0.520182
0.520241
0.520301
0.52036
0.52042
0.52042
0.520479
0.520539
0.520598
0.520658
0.520658
0.520718
0.520777
0.520837
0.520897
0.520897
0.520957
0.521017
0.521076
0.521136
0.521136
0.521196
0.521256
0.521316
0.521376
0.521376
0.521436
0.521497
0.521557
0.521617
0.521617
0.521677
0.521737
0.521798
0.521858
0.521858
0.521919
0.521979
0.522039
0.5221
0.5221
0.522161
0.522221
0.522282
0.522342
0.522342
0.522403
0.522464
0.522525
0.522585
0.522585
0.522646
0.522707
0.522768
0.522829
0.522829
0.52289
0.522951
0.523012
0.523073
0.523073
0.523134
0.523195
0.523257
0.523318
0.523318
0.523379
0.52344
0.523502
0.523563
0.523563
0.523625
0.523686
0.523748
0.523809
0.523809
0.523871
0.523932
0.523994
0.524056
0.524056
0.524117
0.524179
0.524241
0.524303
0.524303
0.524365
0.524427
0.524489
0.524551
0.524551
0.524613
0.524675
0.524737
0.524799
0.524799
0.524861
0.524923
0.524986
0.525048
0.525048
0.52511
0.525173
0.525235
0.525297
0.525297
0.52536
0.525422
0.525485
0.525548
0.525548
0.52561
0.525673
0.525736
0.525798
0.525798
0.525861
0.525924
0.525987
0.52605
0.52605
0.526113
0.526176
0.526239
0.526302
0.526302
0.526365
0.526428
0.526491
0.526554
0.526554
0.526617
0.526681
0.526744
0.526807
0.526807
0.526871
0.526934
0.526997
0.527061
0.527061
0.527124
0.527188
0.527252
0.527315
0.527315
0.527379
0.527443
0.527506
0.52757
0.52757
0.527634
0.527698
0.527762
0.527826
0.527826
0.52789
0.527954
0.528018
0.528082
0.528082
0.528146
0.52821
0.528274
0.528339
0.528339
0.528403
0.528467
0.528532
0.528596
0.528596
0.52866
0.528725
0.528789
0.528854
0.528854
0.528919
0.528983
0.529048
0.529113
0.529113
0.529177
0.529242
0.529307
0.529372
0.529372
0.529437
0.529501
0.529566
0.529631
0.529631
0.529696
0.529762
0.529827
0.529892
0.529892
0.529957
0.530022
0.530088
0.530153
0.530153
0.530218
0.530284
0.530349
0.530414
0.530414
0.53048
0.530545
0.530611
0.530677
0.530677
0.530742
0.530808
0.530874
0.530939
0.530939
0.531005
0.531071
0.531137
0.531203
0.531203
0.531269
0.531335
0.531401
0.531467
0.531467
0.531533
0.531599
0.531665
0.531732
0.531732
0.531798
0.531864
0.53193
0.531997
0.531997
0.532063
0.53213
0.532196
0.532263
0.532263
0.532329
0.532396
0.532462
0.532529
0.532529
0.532596
0.532663
0.532729
0.532796
0.532796
0.532863
0.53293
0.532997
0.533064
0.533064
0.533131
0.533198
0.533265
0.533332
0.533332
0.533399
0.533467
0.533534
0.533601
0.533601
0.533669
0.533736
0.533803
0.533871
0.533871
0.533938
0.534006
0.534073
0.534141
0.534141
0.534209
0.534276
0.534344
0.534412
0.534412
0.534479
0.534547
0.534615
0.534683
0.534683
0.534751
0.534819
0.534887
0.534955
0.534955
0.535023
0.535091
0.53516
0.535228
0.535228
0.535296
0.535364
0.535433
0.535501
0.535501
0.535569
0.535638
0.535706
0.535775
0.535775
0.535843
0.535912
0.535981
0.536049
0.536049
0.536118
0.536187
0.536256
0.536324
0.536324
0.536393
0.536462
0.536531
0.5366
0.5366
0.536669
0.536738
0.536807
0.536877
0.536877
0.536946
0.537015
0.537084
0.537154
0.537154
0.537223
0.537292
0.537362
0.537431
0.537431
0.537501
0.53757
0.53764
0.537709
0.537709
0.537779
0.537849
0.537918
0.537988
0.537988
0.538058
0.538128
0.538198
0.538268
0.538268
0.538338
0.538408
0.538478
0.538548
0.538548
0.538618
0.538688
0.538758
0.538828
0.538828
0.538899
0.538969
0.539039
0.53911
0.53911
0.53918
0.539251
0.539321
0.539392
0.539392
0.539462
0.539533
0.539604
0.539674
0.539674
0.539745
0.539816
0.539887
0.539958
0.539958
0.540029
0.540099
0.54017
0.540241
0.540241
0.540313
0.540384
0.540455
0.540526
0.540526
0.540597
0.540668
0.54074
0.540811
0.540811
0.540882
0.540954
0.541025
0.541097
0.541097
0.541168
0.54124
0.541312
0.541383
0.541383
0.541455
0.541527
0.541598
0.54167
0.54167
0.541742
0.541814
0.541886
0.541958
0.541958
0.54203
0.542102
0.542174
0.542246
0.542246
0.542318
0.542391
0.542463
0.542535
0.542535
0.542607
0.54268
0.542752
0.542825
0.542825
0.542897
0.54297
0.543042
0.543115
0.543115
0.543187
0.54326
0.543333
0.543406
0.543406
0.543478
0.543551
0.543624
0.543697
0.543697
0.54377
0.543843
0.543916
0.543989
0.543989
0.544062
0.544135
0.544209
0.544282
0.544282
0.544355
0.544428
0.544502
0.544575
0.544575
0.544649
0.544722
0.544796
0.544869
0.544869
0.544943
0.545016
0.54509
0.545164
0.545164
0.545238
0.545311
0.545385
0.545459
0.545459
0.545533
0.545607
0.545681
0.545755
0.545755
0.545829
0.545903
0.545977
0.546052
0.546052
0.546126
0.5462
0.546274
0.546349
0.546349
0.546423
0.546498
0.546572
0.546647
0.546647
0.546721
0.546796
0.54687
0.546945
0.546945
0.54702
0.547095
0.547169
0.547244
0.547244
0.547319
0.547394
0.547469
0.547544
0.547544
0.547619
0.547694
0.547769
0.547844
0.547844
0.54792
0.547995
0.54807
0.548145
0.548145
0.548221
0.548296
0.548372
0.548447
0.548447
0.548523
0.548598
0.548674
0.548749
0.548749
0.548825
0.548901
0.548977
0.549052
0.549052
0.549128
0.549204
0.54928
0.549356
0.549356
0.549432
0.549508
0.549584
0.54966
0.54966
0.549737
0.549813
0.549889
0.549965
0.549965
0.550042
0.550118
0.550194
0.550271
0.550271
0.550347
0.550424
0.550501
0.550577
0.550577
0.550654
0.550731
0.550807
0.550884
0.550884
0.550961
0.551038
0.551115
0.551192
0.551192
0.551269
0.551346
0.551423
0.5515
0.5515
0.551577
0.551654
0.551731
0.551809
0.551809
0.551886
0.551963
0.552041
0.552118
0.552118
0.552196
0.552273
0.552351
0.552428
0.552428
0.552506
0.552584
0.552661
0.552739
0.552739
0.552817
0.552895
0.552973
0.553051
0.553051
0.553129
0.553207
0.553285
0.553363
0.553363
0.553441
0.553519
0.553597
0.553676
0.553676
0.553754
0.553832
0.553911
0.553989
0.553989
0.554068
0.554146
0.554225
0.554303
0.554303
0.554382
0.55446
0.554539
0.554618
0.554618
0.554697
0.554776
0.554854
0.554933
0.554933
0.555012
0.555091
0.55517
0.555249
0.555249
0.555329
0.555408
0.555487
0.555566
0.555566
0.555646
0.555725
0.555804
0.555884
0.555884
0.555963
0.556043
0.556122
0.556202
0.556202
0.556281
0.556361
0.556441
0.55652
0.55652
0.5566
0.55668
0.55676
0.55684
0.55684
0.55692
0.557
0.55708
0.55716
0.55716
0.55724
0.55732
0.5574
0.557481
0.557481
0.557561
0.557641
0.557722
0.557802
0.557802
0.557883
0.557963
0.558044
0.558124
0.558124
0.558205
0.558286
0.558366
0.558447
0.558447
0.558528
0.558609
0.558689
0.55877
0.55877
0.558851
0.558932
0.559013
0.559094
0.559094
0.559175
0.559257
0.559338
0.559419
0.559419
0.5595
0.559581
0.559661
0.559742
0.559742
0.559822
0.5599
0.559976
0.560051
0.560051
0.560123
0.560193
0.560263
0.560332
0.560332
0.560401
0.56047
0.560539
0.560608
0.560608
0.560677
0.560746
0.560814
0.560883
0.560883
0.560952
0.561021
0.56109
0.561159
0.561159
0.561228
0.561297
0.561366
0.561435
0.561435
0.561504
0.561573
0.561643
0.561712
0.561712
0.561781
0.56185
0.56192
0.561989
0.561989
0.562058
0.562128
0.562197
0.562267
0.562267
0.562336
0.562406
0.562475
0.562545
0.562545
0.562615
0.562684
0.562754
0.562824
0.562824
0.562894
0.562963
0.563033
0.563103
0.563103
0.563173
0.563243
0.563313
0.563383
0.563383
0.563453
0.563523
0.563593
0.563663
0.563663
0.563733
0.563803
0.563873
0.563943
0.563943
0.564013
0.564082
0.564151
0.56422
0.56422
0.564289
0.564356
0.564422
0.564486
0.564486
0.564549
0.56461
0.564669
0.564727
0.564727
0.564784
0.564841
0.564898
0.564954
0.564954
0.56501
0.565065
0.565121
0.565177
0.565177
0.565233
0.565288
0.565344
0.5654
0.5654
0.565456
0.565511
0.565567
0.565623
0.565623
0.565679
0.565735
0.565791
0.565847
0.565847
0.565902
0.565958
0.566014
0.56607
0.56607
0.566126
0.566182
0.566238
0.566294
0.566294
0.566351
0.566407
0.566463
0.566519
0.566519
0.566575
0.566631
0.566687
0.566743
0.566743
0.5668
0.566856
0.566912
0.566968
0.566968
0.567025
0.567081
0.567137
0.567194
0.567194
0.56725
0.567306
0.567363
0.567419
0.567419
0.567475
0.567531
0.567587
0.567643
0.567643
0.567699
0.567754
0.567809
0.567863
0.567863
0.567916
0.567969
0.56802
0.56807
0.56807
0.568119
0.568168
0.568215
0.568261
0.568261
0.568306
0.568351
0.568396
0.56844
0.56844
0.568484
0.568528
0.568571
0.568615
0.568615
0.568659
0.568702
0.568746
0.568789
0.568789
0.568833
0.568877
0.56892
0.568964
0.568964
0.569008
0.569051
0.569095
0.569138
0.569138
0.569182
0.569226
0.56927
0.569313
0.569313
0.569357
0.569401
0.569444
0.569488
0.569488
0.569532
0.569576
0.569619
0.569663
0.569663
0.569707
0.569751
0.569795
0.569838
0.569838
0.569882
0.569926
0.56997
0.570014
0.570014
0.570058
0.570101
0.570145
0.570189
0.570189
0.570233
0.570276
0.57032
0.570364
0.570364
0.570407
0.57045
0.570493
0.570535
0.570535
0.570577
0.570619
0.570659
0.5707
0.5707
0.570739
0.570778
0.570816
0.570853
0.570853
0.57089
0.570926
0.570961
0.570996
0.570996
0.571031
0.571065
0.5711
0.571133
0.571133
0.571167
0.571201
0.571235
0.571268
0.571268
0.571302
0.571335
0.571369
0.571403
0.571403
0.571436
0.57147
0.571503
0.571537
0.571537
0.57157
0.571604
0.571637
0.571671
0.571671
0.571705
0.571738
0.571772
0.571805
0.571805
0.571839
0.571873
0.571906
0.57194
0.57194
0.571973
0.572007
0.572041
0.572074
0.572074
0.572108
0.572142
0.572175
0.572209
0.572209
0.572243
0.572276
0.57231
0.572343
0.572343
0.572377
0.57241
0.572443
0.572477
0.572477
0.57251
0.572543
0.572575
0.572607
0.572607
0.572639
0.572671
0.572702
0.572733
0.572733
0.572763
0.572793
0.572822
0.572851
0.572851
0.57288
0.572908
0.572935
0.572962
0.572962
0.572989
0.573016
0.573042
0.573069
0.573069
0.573095
0.573121
0.573147
0.573172
0.573172
0.573198
0.573224
0.57325
0.573275
0.573275
0.573301
0.573327
0.573352
0.573378
0.573378
0.573404
0.573429
0.573455
0.573481
0.573481
0.573506
0.573532
0.573558
0.573583
0.573583
0.573609
0.573635
0.57366
0.573686
0.573686
0.573712
0.573737
0.573763
0.573789
0.573789
0.573814
0.57384
0.573866
0.573891
0.573891
0.573917
0.573943
0.573968
0.573994
0.573994
0.574019
0.574044
0.574069
0.574095
0.574095
0.574119
0.574144
0.574168
0.574193
0.574193
0.574216
0.57424
0.574263
0.574286
0.574286
0.574309