<?xml version="1.0"?>
<VTKFile type="UnstructuredGrid" version="0.1" byte_order="LittleEndian">
<UnstructuredGrid>
<Piece NumberOfPoints="5000" NumberOfCells="4000">
<PointData Scalars="Reaction 0">
<DataArray type="Float32" Name="Reaction 0" format="ascii">
0.188772
0.188772
0.188772
0.188772
0.188772
0.188772
0.188772
0.188772
0.188773
0.188773
0.188773
0.188773
0.188774
0.188774
0.188774
0.188774
0.188775
0.188775
0.188776
0.188776
0.188776
0.188777
0.188777
0.188778
0.188779
0.188779
0.188779
0.18878
0.188781
0.188782
0.188782
0.188783
0.188783
0.188784
0.188785
0.188785
0.188786
0.188787
0.188788
0.188789
0.188789
0.188791
0.188792
0.188793
0.188794
0.188794
0.188795
0.188797
0.188798
0.188799
0.188799
0.188801
0.188802
0.188804
0.188805
0.188805
0.188807
0.188808
0.18881
0.188811
0.188811
0.188813
0.188815
0.188816
0.188818
0.188818
0.18882
0.188822
0.188824
0.188826
0.188826
0.188827
0.188829
0.188831
0.188833
0.188833
0.188836
0.188838
0.18884
0.188842
0.188842
0.188844
0.188846
0.188849
0.188851
0.188851
0.188853
0.188856
0.188858
0.188861
0.188861
0.188863
0.188866
0.188868
0.188871
0.188871
0.188873
0.188876
0.188879
0.188881
0.188881
0.188884
0.188887
0.18889
0.188893
0.188893
0.188895
0.188898
0.188901
0.188904
0.188904
0.188907
0.18891
0.188914
0.188917
0.188917
0.18892
0.188923
0.188926
0.18893
0.18893
0.188933
0.188936
0.18894
0.188943
0.188943
0.188946
0.18895
0.188953
0.188957
0.188957
0.18896
0.188964
0.188968
0.188971
0.188971
0.188975
0.188979
0.188983
0.188986
0.188986
0.18899
0.188994
0.188998
0.189002
0.189002
0.189006
0.18901
0.189014
0.189018
0.189018
0.189022
0.189026
0.189031
0.189035
0.189035
0.189039
0.189043
0.189048
0.189052
0.189052
0.189057
0.189061
0.189065
0.18907
0.18907
0.189074
0.189079
0.189084
0.189088
0.189088
0.189093
0.189098
0.189102
0.189107
0.189107
0.189112
0.189117
0.189122
0.189127
0.189127
0.189132
0.189136
0.189142
0.189147
0.189147
0.189152
0.189157
0.189162
0.189167
0.189167
0.189172
0.189178
0.189183
0.189188
0.189188
0.189194
0.189199
0.189204
0.18921
0.18921
0.189215
0.189221
0.189226
0.189232
0.189232
0.189238
0.189243
0.189249
0.189255
0.189255
0.18926
0.189266
0.189272
0.189278
0.189278
0.189284
0.18929
0.189296
0.189302
0.189302
0.189308
0.189314
0.18932
0.189326
0.189326
0.189332
0.189338
0.189345
0.189351
0.189351
0.189357
0.189364
0.18937
0.189376
0.189376
0.189383
0.189389
0.189396
0.189402
0.189402
0.189409
0.189416
0.189422
0.189429
0.189429
0.189436
0.189442
0.189449
0.189456
0.189456
0.189463
0.18947
0.189477
0.189484
0.189484
0.189491
0.189498
0.189505
0.189512
0.189512
0.189519
0.189526
0.189533
0.189541
0.189541
0.189548
0.189555
0.189563
0.18957
0.18957
0.189577
0.189585
0.189592
0.1896
0.1896
0.189607
0.189615
0.189623
0.18963
0.18963
0.189638
0.189646
0.189653
0.189661
0.189661
0.189669
0.189677
0.189685
0.189693
0.189693
0.189701
0.189709
0.189717
0.189725
0.189725
0.189733
0.189741
0.189749
0.189757
0.189757
0.189765
0.189774
0.189782
0.18979
0.18979
0.189799
0.189807
0.189816
0.189824
0.189824
0.189833
0.189841
0.18985
0.189858
0.189858
0.189867
0.189876
0.189884
0.189893
0.189893
0.189902
0.189911
0.189919
0.189928
0.189928
0.189937
0.189946
0.189955
0.189964
0.189964
0.189973
0.189982
0.189991
0.190001
0.190001
0.19001
0.190019
0.190028
0.190038
0.190038
0.190047
0.190056
0.190066
0.190075
0.190075
0.190084
0.190094
0.190104
0.190113
0.190113
0.190123
0.190132
0.190142
0.190152
0.190152
0.190161
0.190171
0.190181
0.190191
0.190191
0.190201
0.190211
0.190221
0.190231
0.190231
0.190241
0.190251
0.190261
0.190271
0.190271
0.190281
0.190291
0.190301
0.190312
0.190312
0.190322
0.190332
0.190343
0.190353
0.190353
0.190363
0.190374
0.190384
0.190395
0.190395
0.190405
0.190416
0.190427
0.190437
0.190437
0.190448
0.190459
0.190469
0.19048
0.19048
0.190491
0.190502
0.190513
0.190524
0.190524
0.190535
0.190546
0.190557
0.190568
0.190568
0.190579
0.19059
0.190601
0.190612
0.190612
0.190624
0.190635
0.190646
0.190658
0.190658
0.190669
0.19068
0.190692
0.190703
0.190703
0.190715
0.190726
0.190738
0.19075
0.19075
0.190761
0.190773
0.190785
0.190796
0.190796
0.190808
0.19082
0.190832
0.190844
0.190844
0.190856
0.190868
0.19088
0.190892
0.190892
0.190904
0.190916
0.190928
0.19094
0.19094
0.190952
0.190965
0.190977
0.190989
0.190989
0.191002
0.191014
0.191026
0.191039
0.191039
0.191051
0.191064
0.191076
0.191089
0.191089
0.191101
0.191114
0.191127
0.19114
0.19114
0.191152
0.191165
0.191178
0.191191
0.191191
0.191204
0.191217
0.19123
0.191242
0.191242
0.191256
0.191269
0.191282
0.191295
0.191295
0.191308
0.191321
0.191334
0.191348
0.191348
0.191361
0.191374
0.191388
0.191401
0.191401
0.191414
0.191428
0.191441
0.191455
0.191455
0.191469
0.191482
0.191496
0.191509
0.191509
0.191523
0.191537
0.191551
0.191565
0.191565
0.191578
0.191592
0.191606
0.19162
0.19162
0.191634
0.191648
0.191662
0.191676
0.191676
0.19169
0.191705
0.191719
0.191733
0.191733
0.191747
0.191762
0.191776
0.19179
0.19179
0.191805
0.191819
0.191833
0.191848
0.191848
0.191863
0.191877
0.191892
0.191906
0.191906
0.191921
0.191936
0.19195
0.191965
0.191965
0.19198
0.191995
0.19201
0.192025
0.192025
0.19204
0.192055
0.19207
0.192085
0.192085
0.1921
0.192115
0.19213
0.192145
0.192145
0.19216
0.192176
0.192191
0.192206
0.192206
0.192222
0.192237
0.192252
0.192268
0.192268
0.192283
0.192299
0.192314
0.19233
0.19233
0.192346
0.192361
0.192377
0.192393
0.192393
0.192409
0.192424
0.19244
0.192456
0.192456
0.192472
0.192488
0.192504
0.19252
0.19252
0.192536
0.192552
0.192568
0.192584
0.192584
0.1926
0.192617
0.192633
0.192649
0.192649
0.192665
0.192682
0.192698
0.192715
0.192715
0.192731
0.192748
0.192764
0.192781
0.192781
0.192797
0.192814
0.19283
0.192847
0.192847
0.192864
0.192881
0.192897
0.192914
0.192914
0.192931
0.192948
0.192965
0.192982
0.192982
0.192999
0.193016
0.193033
0.19305
0.19305
0.193067
0.193084
0.193102
0.193119
0.193119
0.193136
0.193154
0.193171
0.193188
0.193188
0.193206
0.193223
0.193241
0.193258
0.193258
0.193276
0.193293
0.193311
0.193329
0.193329
0.193346
0.193364
0.193382
0.193399
0.193399
0.193417
0.193435
0.193453
0.193471
0.193471
0.193489
0.193507
0.193525
0.193543
0.193543
0.193561
0.193579
0.193597
0.193616
0.193616
0.193634
0.193652
0.19367
0.193689
0.193689
0.193707
0.193726
0.193744
0.193762
0.193762
0.193781
0.1938
0.193818
0.193837
0.193837
0.193855
0.193874
0.193893
0.193912
0.193912
0.19393
0.193949
0.193968
0.193987
0.193987
0.194006
0.194025
0.194044
0.194063
0.194063
0.194082
0.194101
0.19412
0.194139
0.194139
0.194158
0.194178
0.194197
0.194216
0.194216
0.194236
0.194255
0.194274
0.194294
0.194294
0.194313
0.194333
0.194352
0.194372
0.194372
0.194391
0.194411
0.194431
0.194451
0.194451
0.19447
0.19449
0.19451
0.19453
0.19453
0.19455
0.19457
0.194589
0.194609
0.194609
0.194629
0.19465
0.19467
0.19469
0.19469
0.19471
0.19473
0.19475
0.194771
0.194771
0.194791
0.194811
0.194832
0.194852
0.194852
0.194872
0.194893
0.194913
0.194934
0.194934
0.194955
0.194975
0.194996
0.195016
0.195016
0.195037
0.195058
0.195079
0.195099
0.195099
0.19512
0.195141
0.195162
0.195183
0.195183
0.195204
0.195225
0.195246
0.195267
0.195267
0.195288
0.19531
0.195331
0.195352
0.195352
0.195373
0.195394
0.195416
0.195437
0.195437
0.195459
0.19548
0.195501
0.195523
0.195523
0.195544
0.195566
0.195588
0.195609
0.195609
0.195631
0.195653
0.195674
0.195696
0.195696
0.195718
0.19574
0.195762
0.195784
0.195784
0.195806
0.195828
0.19585
0.195872
0.195872
0.195894
0.195916
0.195938
0.19596
0.19596
0.195982
0.196005
0.196027
0.196049
0.196049
0.196072
0.196094
0.196116
0.196139
0.196139
0.196161
0.196184
0.196206
0.196229
0.196229
0.196252
0.196274
0.196297
0.19632
0.19632
0.196343
0.196365
0.196388
0.196411
0.196411
0.196434
0.196457
0.19648
0.196503
0.196503
0.196526
0.196549
0.196572
0.196595
0.196595
0.196619
0.196642
0.196665
0.196688
0.196688
0.196712
0.196735
0.196758
0.196782
0.196782
0.196805
0.196829
0.196852
0.196876
0.196876
0.196899
0.196923
0.196947
0.19697
0.19697
0.196994
0.197018
0.197042
0.197066
0.197066
0.197089
0.197113
0.197137
0.197161
0.197161
0.197185
0.197209
0.197233
0.197258
0.197258
0.197282
0.197306
0.19733
0.197354
0.197354
0.197379
0.197403
0.197427
0.197452
0.197452
0.197476
0.197501
0.197525
0.19755
0.19755
0.197574
0.197599
0.197623
0.197648
0.197648
0.197673
0.197697
0.197722
0.197747
0.197747
0.197772
0.197797
0.197822
0.197847
0.197847
0.197872
0.197897
0.197922
0.197947
0.197947
0.197972
0.197997
0.198022
0.198047
0.198047
0.198073
0.198098
0.198123
0.198148
0.198148
0.198174
0.198199
0.198225
0.19825
0.19825
0.198276
0.198301
0.198327
0.198353
0.198353
0.198378
0.198404
0.19843
0.198455
0.198455
0.198481
0.198507
0.198533
0.198559
0.198559
0.198585
0.198611
0.198637
0.198663
0.198663
0.198689
0.198715
0.198741
0.198767
0.198767
0.198793
0.19882
0.198846
0.198872
0.198872
0.198899
0.198925
0.198951
0.198978
0.198978
0.199004
0.199031
0.199057
0.199084
0.199084
0.199111
0.199137
0.199164
0.199191
0.199191
0.199218
0.199244
0.199271
0.199298
0.199298
0.199325
0.199352
0.199379
0.199406
0.199406
0.199433
0.19946
0.199487
0.199514
0.199514
0.199541
0.199569
0.199596
0.199623
0.199623
0.19965
0.199678
0.199705
0.199733
0.199733
0.19976
0.199788
0.199815
0.199843
0.199843
0.19987
0.199898
0.199925
0.199953
0.199953
0.199981
0.200009
0.200036
0.200064
0.200064
0.200092
0.20012
0.200148
0.200176
0.200176
0.200204
0.200232
0.20026
0.200288
0.200288
0.200316
0.200344
0.200373
0.200401
0.200401
0.200429
0.200458
0.200486
0.200514
0.200514
0.200543
0.200571
0.2006
0.200628
0.200628
0.200657
0.200685
0.200714
0.200743
0.200743
0.200771
0.2008
0.200829
0.200858
0.200858
0.200886
0.200915
0.200944
0.200973
0.200973
0.201002
0.201031
0.20106
0.201089
0.201089
0.201118
0.201147
0.201177
0.201206
0.201206
0.201235
0.201264
0.201294
0.201323
0.201323
0.201352
0.201382
0.201411
0.201441
0.201441
0.20147
0.2015
0.201529
0.201559
0.201559
0.201589
0.201618
0.201648
0.201678
0.201678
0.201708
0.201737
0.201767
0.201797
0.201797
0.201827
0.201857
0.201887
0.201917
0.201917
0.201947
0.201977
0.202007
0.202038
0.202038
0.202068
0.202098
0.202128
0.202159
0.202159
0.202189
0.202219
0.20225
0.20228
0.20228
0.202311
0.202341
0.202372
0.202402
0.202402
0.202433
0.202464
0.202494
0.202525
0.202525
0.202556
0.202587
0.202618
0.202648
0.202648
0.202679
0.20271
0.202741
0.202772
0.202772
0.202803
0.202834
0.202865
0.202897
0.202897
0.202928
0.202959
0.20299
0.203021
0.203021
0.203053
0.203084
0.203116
0.203147
0.203147
0.203178
0.20321
0.203241
0.203273
0.203273
0.203305
0.203336
0.203368
0.2034
0.2034
0.203431
0.203463
0.203495
0.203527
0.203527
0.203559
0.20359
0.203622
0.203654
0.203654
0.203686
0.203718
0.20375
0.203783
0.203783
0.203815
0.203847
0.203879
0.203911
0.203911
0.203944
0.203976
0.204008
0.204041
0.204041
0.204073
0.204106
0.204138
0.204171
0.204171
0.204203
0.204236
0.204268
0.204301
0.204301
0.204334
0.204366
0.204399
0.204432
0.204432
0.204465
0.204498
0.204531
0.204563
0.204563
0.204596
0.204629
0.204663
0.204696
0.204696
0.204729
0.204762
0.204795
0.204828
0.204828
0.204861
0.204895
0.204928
0.204961
0.204961
0.204995
0.205028
0.205062
0.205095
0.205095
0.205129
0.205162
0.205196
0.205229
0.205229
0.205263
0.205297
0.205331
0.205364
0.205364
0.205398
0.205432
0.205466
0.2055
0.2055
0.205534
0.205568
0.205602
0.205636
0.205636
0.20567
0.205704
0.205738
0.205772
0.205772
0.205806
0.205841
0.205875
0.205909
0.205909
0.205944
0.205978
0.206012
0.206047
0.206047
0.206081
0.206116
0.20615
0.206185
0.206185
0.20622
0.206254
0.206289
0.206324
0.206324
0.206359
0.206393
0.206428
0.206463
0.206463
0.206498
0.206533
0.206568
0.206603
0.206603
0.206638
0.206673
0.206708
0.206743
0.206743
0.206778
0.206814
0.206849
0.206884
0.206884
0.20692
0.206955
0.20699
0.207026
0.207026
0.207061
0.207097
0.207132
0.207168
0.207168
0.207203
0.207239
0.207275
0.20731
0.20731
0.207346
0.207382
0.207418
0.207454
0.207454
0.207489
0.207525
0.207561
0.207597
0.207597
0.207633
0.207669
0.207705
0.207741
0.207741
0.207778
0.207814
0.20785
0.207886
0.207886
0.207923
0.207959
0.207995
0.208032
0.208032
0.208068
0.208105
0.208141
0.208178
0.208178
0.208214
0.208251
0.208287
0.208324
0.208324
0.208361
0.208398
0.208434
0.208471
0.208471
0.208508
0.208545
0.208582
0.208619
0.208619
0.208656
0.208693
0.20873
0.208767
0.208767
0.208804
0.208841
0.208878
0.208915
0.208915
0.208953
0.20899
0.209027
0.209065
0.209065
0.209102
0.20914
0.209177
0.209215
0.209215
0.209252
0.20929
0.209327
0.209365
0.209365
0.209403
0.20944
0.209478
0.209516
0.209516
0.209554
0.209591
0.209629
0.209667
0.209667
0.209705
0.209743
0.209781
0.209819
0.209819
0.209857
0.209895
0.209934
0.209972
0.209972
0.21001
0.210048
0.210087
0.210125
0.210125
0.210163
0.210202
0.21024
0.210279
0.210279
0.210317
0.210356
0.210394
0.210433
0.210433
0.210471
0.21051
0.210549
0.210588
0.210588
0.210626
0.210665
0.210704
0.210743
0.210743
0.210782
0.210821
0.21086
0.210899
0.210899
0.210938
0.210977
0.211016
0.211055
0.211055
0.211094
0.211134
0.211173
0.211212
0.211212
0.211252
0.211291
0.21133
0.21137
0.21137
0.211409
0.211449
0.211488
0.211528
0.211528
0.211568
0.211607
0.211647
0.211687
0.211687
0.211726
0.211766
0.211806
0.211846
0.211846
0.211886
0.211926
0.211966
0.212006
0.212006
0.212046
0.212086
0.212126
0.212166
0.212166
0.212206
0.212246
0.212286
0.212327
0.212327
0.212367
0.212407
0.212448
0.212488
0.212488
0.212529
0.212569
0.21261
0.21265
0.21265
0.212691
0.212731
0.212772
0.212813
0.212813
0.212853
0.212894
0.212935
0.212976
0.212976
0.213017
0.213058
0.213098
0.213139
0.213139
0.21318
0.213221
0.213263
0.213304
0.213304
0.213345
0.213386
0.213427
0.213468
0.213468
0.21351
0.213551
0.213592
0.213634
0.213634
0.213675
0.213717
0.213758
0.2138
0.2138
0.213841
0.213883
0.213924
0.213966
0.213966
0.214008
0.214049
0.214091
0.214133
0.214133
0.214175
0.214217
0.214259
0.214301
0.214301
0.214342
0.214384
0.214427
0.214469
0.214469
0.214511
0.214553
0.214595
0.214637
0.214637
0.214679
0.214722
0.214764
0.214806
0.214806
0.214849
0.214891
0.214934
0.214976
0.214976
0.215019
0.215061
0.215104
0.215146
0.215146
0.215189
0.215232
0.215275
0.215317
0.215317
0.21536
0.215403
0.215446
0.215489
0.215489
0.215532
0.215575
0.215618
0.215661
0.215661
0.215704
0.215747
0.21579
0.215833
0.215833
0.215876
0.21592
0.215963
0.216006
0.216006
0.21605
0.216093
0.216137
0.21618
0.21618
0.216223
0.216267
0.216311
0.216354
0.216354
0.216398
0.216441
0.216485
0.216529
0.216529
0.216573
0.216617
0.21666
0.216704
0.216704
0.216748
0.216792
0.216836
0.21688
0.21688
0.216924
0.216968
0.217012
0.217057
0.217057
0.217101
0.217145
0.217189
0.217233
0.217233
0.217278
0.217322
0.217367
0.217411
0.217411
0.217455
0.2175
0.217545
0.217589
0.217589
0.217634
0.217678
0.217723
0.217768
0.217768
0.217812
0.217857
0.217902
0.217947
0.217947
0.217992
0.218037
0.218082
0.218127
0.218127
0.218172
0.218217
0.218262
0.218307
0.218307
0.218352
0.218397
0.218443
0.218488
0.218488
0.218533
0.218578
0.218624
0.218669
0.218669
0.218715
0.21876
0.218806
0.218851
0.218851
0.218897
0.218942
0.218988
0.219034
0.219034
0.219079
0.219125
0.219171
0.219217
0.219217
0.219263
0.219309
0.219354
0.2194
0.2194
0.219446
0.219492
0.219539
0.219585
0.219585
0.219631
0.219677
0.219723
0.219769
0.219769
0.219816
0.219862
0.219908
0.219955
0.219955
0.220001
0.220048
0.220094
0.220141
0.220141
0.220187
0.220234
0.22028
0.220327
0.220327
0.220374
0.22042
0.220467
0.220514
0.220514
0.220561
0.220608
0.220655
0.220701
0.220701
0.220748
0.220795
0.220842
0.22089
0.22089
0.220937
0.220984
0.221031
0.221078
0.221078
0.221125
0.221173
0.22122
0.221267
0.221267
0.221315
0.221362
0.22141
0.221457
0.221457
0.221505
0.221552
0.2216
0.221647
0.221647
0.221695
0.221743
0.221791
0.221838
0.221838
0.221886
0.221934
0.221982
0.22203
0.22203
0.222078
0.222126
0.222174
0.222222
0.222222
0.22227
0.222318
0.222366
0.222414
0.222414
0.222462
0.222511
0.222559
0.222607
0.222607
0.222656
0.222704
0.222753
0.222801
0.222801
0.222849
0.222898
0.222947
0.222995
0.222995
0.223044
0.223093
0.223141
0.22319
0.22319
0.223239
0.223288
0.223336
0.223385
0.223385
0.223434
0.223483
0.223532
0.223581
0.223581
0.22363
0.223679
0.223728
0.223778
0.223778
0.223827
0.223876
0.223925
0.223975
0.223975
0.224024
0.224073
0.224123
0.224172
0.224172
0.224222
0.224271
0.224321
0.22437
0.22437
0.22442
0.224469
0.224519
0.224569
0.224569
0.224619
0.224668
0.224718
0.224768
0.224768
0.224818
0.224868
0.224918
0.224968
0.224968
0.225018
0.225068
0.225118
0.225168
0.225168
0.225218
0.225269
0.225319
0.225369
0.225369
0.225419
0.22547
0.22552
0.22557
0.22557
0.225621
0.225671
0.225722
0.225772
0.225772
0.225823
0.225874
0.225924
0.225975
0.225975
0.226026
0.226076
0.226127
0.226178
0.226178
0.226229
0.22628
0.226331
0.226382
0.226382
0.226433
0.226484
0.226535
0.226586
0.226586
0.226637
0.226688
0.22674
0.226791
0.226791
0.226842
0.226893
0.226945
0.226996
0.226996
0.227048
0.227099
0.22715
0.227202
0.227202
0.227254
0.227305
0.227357
0.227408
0.227408
0.22746
0.227512
0.227564
0.227615
0.227615
0.227667
0.227719
0.227771
0.227823
0.227823
0.227875
0.227927
0.227979
0.228031
0.228031
0.228083
0.228135
0.228188
0.22824
0.22824
0.228292
0.228344
0.228397
0.228449
0.228449
0.228501
0.228554
0.228606
0.228659
0.228659
0.228711
0.228764
0.228817
0.228869
0.228869
0.228922
0.228975
0.229027
0.22908
0.22908
0.229133
0.229186
0.229239
0.229292
0.229292
0.229344
0.229397
0.22945
0.229504
0.229504
0.229557
0.22961
0.229663
0.229716
0.229716
0.229769
0.229823
0.229876
0.229929
0.229929
0.229983
0.230036
0.230089
0.230143
0.230143
0.230196
0.23025
0.230304
0.230357
0.230357
0.230411
0.230464
0.230518
0.230572
0.230572
0.230626
0.23068
0.230733
0.230787
0.230787
0.230841
0.230895
0.230949
0.231003
0.231003
0.231057
0.231111
0.231166
0.23122
0.23122
0.231274
0.231328
0.231382
0.231437
0.231437
0.231491
0.231545
0.2316
0.231654
0.231654
0.231709
0.231763
0.231818
0.231872
0.231872
0.231927
0.231982
0.232036
0.232091
0.232091
0.232146
0.232201
0.232256
0.23231
0.23231
0.232365
0.23242
0.232475
0.23253
0.23253
0.232585
0.23264
0.232695
0.232751
0.232751
0.232806
0.232861
0.232916
0.232972
0.232972
0.233027
0.233082
0.233138
0.233193
0.233193
0.233249
0.233304
0.23336
0.233415
0.233415
0.233471
0.233526
0.233582
0.233638
0.233638
0.233693
0.233749
0.233805
0.233861
0.233861
0.233917
0.233973
0.234029
0.234085
0.234085
0.234141
0.234197
0.234253
0.234309
0.234309
0.234365
0.234421
0.234477
0.234534
0.234534
0.23459
0.234646
0.234703
0.234759
0.234759
0.234816
0.234872
0.234928
0.234985
0.234985
0.235042
0.235098
0.235155
0.235212
0.235212
0.235268
0.235325
0.235382
0.235439
0.235439
0.235495
0.235552
0.235609
0.235666
0.235666
0.235723
0.23578
0.235837
0.235894
0.235894
0.235952
0.236009
0.236066
0.236123
0.236123
0.23618
0.236238
0.236295
0.236352
0.236352
0.23641
0.236467
0.236525
0.236582
0.236582
0.23664
0.236697
0.236755
0.236813
0.236813
0.23687
0.236928
0.236986
0.237044
0.237044
0.237101
0.237159
0.237217
0.237275
0.237275
0.237333
0.237391
0.237449
0.237507
0.237507
0.237565
0.237623
0.237682
0.23774
0.23774
0.237798
0.237856
0.237915
0.237973
0.237973
0.238031
0.23809
0.238148
0.238207
0.238207
0.238265
0.238324
0.238383
0.238441
0.238441
0.2385
0.238559
0.238617
0.238676
0.238676
0.238735
0.238794
0.238853
0.238911
0.238911
0.23897
0.239029
0.239088
0.239147
0.239147
0.239207
0.239266
0.239325
0.239384
0.239384
0.239443
0.239502
0.239562
0.239621
0.239621
0.23968
0.23974
0.239799
0.239859
0.239859
0.239918
0.239978
0.240037
0.240097
0.240097
0.240157
0.240216
0.240276
0.240336
0.240336
0.240395
0.240455
0.240515
0.240575
0.240575
0.240635
0.240695
0.240755
0.240815
0.240815
0.240875
0.240935
0.240995
0.241055
0.241055
0.241116
0.241176
0.241236
0.241296
0.241296
0.241357
0.241417
0.241477
0.241538
0.241538
0.241598
0.241659
0.241719
0.24178
0.24178
0.241841
0.241901
0.241962
0.242023
0.242023
0.242083
0.242144
0.242205
0.242266
0.242266
0.242327
0.242388
0.242449
0.24251
0.24251
0.242571
0.242632
0.242693
0.242754
0.242754
0.242815
0.242876
0.242938
0.242999
0.242999
0.24306
0.243122
0.243183
0.243244
0.243244
0.243306
0.243367
0.243429
0.24349
0.24349
0.243552
0.243614
0.243675
0.243737
0.243737
0.243799
0.243861
0.243922
0.243984
0.243984
0.244046
0.244108
0.24417
0.244232
0.244232
0.244294
0.244356
0.244418
0.24448
0.24448
0.244542
0.244604
0.244667
0.244729
0.244729
0.244791
0.244854
0.244916
0.244978
0.244978
0.245041
0.245103
0.245166
0.245228
0.245228
0.245291
0.245353
0.245416
0.245479
0.245479
0.245541
0.245604
0.245667
0.24573
0.24573
0.245793
0.245855
0.245918
0.245981
0.245981
0.246044
0.246107
0.24617
0.246234
0.246234
0.246297
0.24636
0.246423
0.246486
0.246486
0.246549
0.246613
0.246676
0.246739
0.246739
0.246803
0.246866
0.24693
0.246993
0.246993
0.247057
0.24712
0.247184
0.247248
0.247248
0.247311
0.247375
0.247439
0.247503
0.247503
0.247566
0.24763
0.247694
0.247758
0.247758
0.247822
0.247886
0.24795
0.248014
0.248014
0.248078
0.248142
0.248207
0.248271
0.248271
0.248335
0.248399
0.248464
0.248528
0.248528
0.248592
0.248657
0.248721
0.248786
0.248786
0.24885
0.248915
0.248979
0.249044
0.249044
0.249109
0.249173
0.249238
0.249303
0.249303
0.249368
0.249432
0.249497
0.249562
0.249562
0.249627
0.249692
0.249757
0.249822
0.249822
0.249887
0.249952
0.250018
0.250083
0.250083
0.250148
0.250213
0.250278
0.250344
0.250344
0.250409
0.250475
0.25054
0.250605
0.250605
0.250671
0.250736
0.250802
0.250868
0.250868
0.250933
0.250999
0.251065
0.25113
0.25113
0.251196
0.251262
0.251328
0.251394
0.251394
0.25146
0.251526
0.251592
0.251658
0.251658
0.251724
0.25179
0.251856
0.251922
0.251922
0.251988
0.252054
0.252121
0.252187
0.252187
0.252253
0.25232
0.252386
0.252452
0.252452
0.252519
0.252585
0.252652
0.252719
0.252719
0.252785
0.252852
0.252919
0.252985
0.252985
0.253052
0.253119
0.253186
0.253252
0.253252
0.253319
0.253386
0.253453
0.25352
0.25352
0.253587
0.253654
0.253721
0.253789
0.253789
0.253856
0.253923
0.25399
0.254057
0.254057
0.254125
0.254192
0.254259
0.254327
0.254327
0.254394
0.254462
0.254529
0.254597
0.254597
0.254664
0.254732
0.2548
0.254867
0.254867
0.254935
0.255003
0.255071
0.255139
0.255139
0.255206
0.255274
0.255342
0.25541
0.25541
0.255478
0.255546
0.255614
0.255682
0.255682
0.255751
0.255819
0.255887
0.255955
0.255955
0.256023
0.256092
0.25616
0.256229
0.256229
0.256297
0.256365
0.256434
0.256502
0.256502
0.256571
0.25664
0.256708
0.256777
0.256777
0.256846
0.256914
0.256983
0.257052
0.257052
0.257121
0.25719
0.257258
0.257327
0.257327
0.257396
0.257465
0.257534
0.257604
0.257604
0.257673
0.257742
0.257811
0.25788
0.25788
0.257949
0.258019
0.258088
0.258157
0.258157
0.258227
0.258296
0.258366
0.258435
0.258435
0.258505
0.258574
0.258644
0.258714
0.258714
0.258783
0.258853
0.258923
0.258993
0.258993
0.259062
0.259132
0.259202
0.259272
0.259272
0.259342
0.259412
0.259482
0.259552
0.259552
0.259622
0.259692
0.259762
0.259833
0.259833
0.259903
0.259973
0.260043
0.260114
0.260114
0.260184
0.260255
0.260325
0.260395
0.260395
0.260466
0.260536
0.260607
0.260678
0.260678
0.260748
0.260819
0.26089
0.26096
0.26096
0.261031
0.261102
0.261173
0.261244
0.261244
0.261315
0.261386
0.261457
0.261528
0.261528
0.261599
0.26167
0.261741
0.261812
0.261812
0.261883
0.261955
0.262026
0.262097
0.262097
0.262169
0.26224
0.262311
0.262383
0.262383
0.262454
0.262526
0.262597
0.262669
0.262669
0.262741
0.262812
0.262884
0.262956
0.262956
0.263027
0.263099
0.263171
0.263243
0.263243
0.263315
0.263387
0.263459
0.263531
0.263531
0.263603
0.263675
0.263747
0.263819
0.263819
0.263891
0.263964
0.264036
0.264108
0.264108
0.26418
0.264253
0.264325
0.264398
0.264398
0.26447
0.264543
0.264615
0.264688
0.264688
0.26476
0.264833
0.264905
0.264978
0.264978
0.265051
0.265124
0.265197
0.265269
0.265269
0.265342
0.265415
0.265488
0.265561
0.265561
0.265634
0.265707
0.26578
0.265853
0.265853
0.265926
0.266
0.266073
0.266146
0.266146
0.266219
0.266293
0.266366
0.26644
0.26644
0.266513
0.266586
0.26666
0.266733
0.266733
0.266807
0.266881
0.266954
0.267028
0.267028
0.267102
0.267175
0.267249
0.267323
0.267323
0.267397
0.267471
0.267545
0.267619
0.267619
0.267693
0.267767
0.267841
0.267915
0.267915
0.267989
0.268063
0.268137
0.268211
0.268211
0.268286
0.26836
0.268434
0.268509
0.268509
0.268583
0.268658
0.268732
0.268807
0.268807
0.268881
0.268956
0.26903
0.269105
0.269105
0.26918
0.269254
0.269329
0.269404
0.269404
0.269479
0.269554
0.269628
0.269703
0.269703
0.269778
0.269853
0.269928
0.270003
0.270003
0.270078
0.270154
0.270229
0.270304
0.270304
0.270379
0.270454
0.27053
0.270605
0.270605
0.270681
0.270756
0.270831
0.270907
0.270907
0.270982
0.271058
0.271134
0.271209
0.271209
0.271285
0.27136
0.271436
0.271512
0.271512
0.271588
0.271664
0.271739
0.271815
0.271815
0.271891
0.271967
0.272043
0.272119
0.272119
0.272195
0.272271
0.272348
0.272424
0.272424
0.2725
0.272576
0.272652
0.272729
0.272729
0.272805
0.272882
0.272958
0.273034
0.273034
0.273111
0.273187
0.273264
0.273341
0.273341
0.273417
0.273494
0.273571
0.273647
0.273647
0.273724
0.273801
0.273878
0.273955
0.273955
0.274031
0.274108
0.274185
0.274262
0.274262
0.274339
0.274416
0.274494
0.274571
0.274571
0.274648
0.274725
0.274802
0.27488
0.27488
0.274957
0.275034
0.275112
0.275189
0.275189
0.275267
0.275344
0.275422
0.275499
0.275499
0.275577
0.275654
0.275732
0.27581
0.27581
0.275887
0.275965
0.276043
0.276121
0.276121
0.276199
0.276277
0.276355
0.276433
0.276433
0.276511
0.276589
0.276667
0.276745
0.276745
0.276823
0.276901
0.276979
0.277058
0.277058
0.277136
0.277214
0.277293
0.277371
0.277371
0.277449
0.277528
0.277606
0.277685
0.277685
0.277763
0.277842
0.277921
0.277999
0.277999
0.278078
0.278157
0.278236
0.278314
0.278314
0.278393
0.278472
0.278551
0.27863
0.27863
0.278709
0.278788
0.278867
0.278946
0.278946
0.279025
0.279104
0.279184
0.279263
0.279263
0.279342
0.279421
0.279501
0.27958
0.27958
0.279659
0.279739
0.279818
0.279898
0.279898
0.279977
0.280057
0.280137
0.280216
0.280216
0.280296
0.280376
0.280455
0.280535
0.280535
0.280615
0.280695
0.280775
0.280855
0.280855
0.280935
0.281014
0.281095
0.281175
0.281175
0.281255
0.281335
0.281415
0.281495
0.281495
0.281575
0.281656
0.281736
0.281816
0.281816
0.281897
0.281977
0.282057
0.282138
0.282138
0.282218
0.282299
0.28238
0.28246
0.28246
0.282541
0.282621
0.282702
0.282783
0.282783
0.282864
0.282944
0.283025
0.283106
0.283106
0.283187
0.283268
0.283349
0.28343
0.28343
0.283511
0.283592
0.283673
0.283755
0.283755
0.283836
0.283917
0.283998
0.28408
0.28408
0.284161
0.284242
0.284324
0.284405
0.284405
0.284487
0.284568
0.28465
0.284731
0.284731
0.284813
0.284894
0.284976
0.285058
0.285058
0.28514
0.285221
0.285303
0.285385
0.285385
0.285467
0.285549
0.285631
0.285713
0.285713
0.285795
0.285877
0.285959
0.286041
0.286041
0.286123
0.286205
0.286288
0.28637
0.28637
0.286452
0.286535
0.286617
0.286699
0.286699
0.286782
0.286864
0.286947
0.287029
0.287029
0.287112
0.287194
0.287277
0.28736
0.28736
0.287442
0.287525
0.287608
0.287691
0.287691
0.287774
0.287857
0.287939
0.288022
0.288022
0.288105
0.288188
0.288272
0.288355
0.288355
0.288438
0.288521
0.288604
0.288687
0.288687
0.288771
0.288854
0.288937
0.289021
0.289021
0.289104
0.289187
0.289271
0.289354
0.289354
0.289438
0.289522
0.289605
0.289689
0.289689
0.289772
0.289856
0.28994
0.290024
0.290024
0.290108
0.290191
0.290275
0.290359
0.290359
0.290443
0.290527
0.290611
0.290695
0.290695
0.290779
0.290863
0.290948
0.291032
0.291032
0.291116
0.2912
0.291285
0.291369
0.291369
0.291453
0.291538
0.291622
0.291707
0.291707
0.291791
0.291876
0.29196
0.292045
0.292045
0.292129
0.292214
0.292299
0.292384
0.292384
0.292468
0.292553
0.292638
0.292723
0.292723
0.292808
0.292893
0.292978
0.293063
0.293063
0.293148
0.293233
0.293318
0.293403
0.293403
0.293488
0.293574
0.293659
0.293744
0.293744
0.29383
0.293915
0.294
0.294086
0.294086
0.294171
0.294257
0.294342
0.294428
0.294428
0.294513
0.294599
0.294685
0.29477
0.29477
0.294856
0.294942
0.295028
0.295114
0.295114
0.295199
0.295285
0.295371
0.295457
0.295457
0.295543
0.295629
0.295715
0.295802
0.295802
0.295888
0.295974
0.29606
0.296146
0.296146
0.296233
0.296319
0.296405
0.296492
0.296492
0.296578
0.296665
0.296751
0.296838
0.296838
0.296924
0.297011
0.297098
0.297184
0.297184
0.297271
0.297358
0.297444
0.297531
0.297531
0.297618
0.297705
0.297792
0.297879
0.297879
0.297966
0.298053
0.29814
0.298227
0.298227
0.298314
0.298401
0.298488
0.298576
0.298576
0.298663
0.29875
0.298837
0.298925
0.298925
0.299012
0.2991
0.299187
0.299275
0.299275
0.299362
0.29945
0.299537
0.299625
0.299625
0.299713
0.2998
0.299888
0.299976
0.299976
0.300064
0.300151
0.300239
0.300327
0.300327
0.300415
0.300503
0.300591
0.300679
0.300679
0.300767
0.300855
0.300944
0.301032
0.301032
0.30112
0.301208
0.301296
0.301385
0.301385
0.301473
0.301561
0.30165
0.301738
0.301738
0.301827
0.301915
0.302004
0.302093
0.302093
0.302181
0.30227
0.302359
0.302447
0.302447
0.302536
0.302625
0.302714
0.302802
0.302802
0.302891
0.30298
0.303069
0.303158
0.303158
0.303247
0.303336
0.303425
0.303515
0.303515
0.303604
0.303693
0.303782
0.303872
0.303872
0.303961
0.30405
0.30414
0.304229
0.304229
0.304318
0.304408
0.304497
0.304587
0.304587
0.304677
0.304766
0.304856
0.304945
0.304945
0.305035
0.305125
0.305215
0.305305
0.305305
0.305394
0.305484
0.305574
0.305664
0.305664
0.305754
0.305844
0.305934
0.306024
0.306024
0.306114
0.306205
0.306295
0.306385
0.306385
0.306475
0.306566
0.306656
0.306746
0.306746
0.306837
0.306927
0.307018
0.307108
0.307108
0.307199
0.307289
0.30738
0.307471
0.307471
0.307561
0.307652
0.307743
0.307833
0.307833
0.307924
0.308015
0.308106
0.308197
0.308197
0.308288
0.308379
0.30847
0.308561
0.308561
0.308652
0.308743
0.308834
0.308925
0.308925
0.309017
0.309108
0.309199
0.30929
0.30929
0.309382
0.309473
0.309565
0.309656
0.309656
0.309748
0.309839
0.309931
0.310022
0.310022
0.310114
0.310206
0.310297
0.310389
0.310389
0.310481
0.310573
0.310664
0.310756
0.310756
0.310848
0.31094
0.311032
0.311124
0.311124
0.311216
0.311308
0.3114
0.311492
0.311492
0.311585
0.311677
0.311769
0.311861
0.311861
0.311954
0.312046