<?xml version="1.0"?>
<VTKFile type="UnstructuredGrid" version="0.1" byte_order="LittleEndian">
<UnstructuredGrid>
<Piece NumberOfPoints="5000" NumberOfCells="4000">
<PointData Scalars="Reaction 0">
<DataArray type="Float32" Name="Reaction 0" format="ascii">
0.793386
0.793386
0.793386
0.793386
0.793386
0.793386
0.793386
0.793386
0.793386
0.793386
0.793386
0.793386
0.793386
0.793386
0.793386
0.793386
0.793386
0.793386
0.793386
0.793386
0.793386
0.793386
0.793387
0.793387
0.793387
0.793387
0.793387
0.793387
0.793387
0.793387
0.793387
0.793387
0.793388
0.793388
0.793388
0.793388
0.793388
0.793388
0.793388
0.793389
0.793389
0.793389
0.793389
0.793389
0.793389
0.793389
0.79339
0.79339
0.79339
0.79339
0.79339
0.793391
0.793391
0.793391
0.793391
0.793391
0.793392
0.793392
0.793392
0.793392
0.793392
0.793393
0.793393
0.793393
0.793394
0.793394
0.793394
0.793394
0.793395
0.793395
0.793395
0.793395
0.793396
0.793396
0.793396
0.793396
0.793397
0.793397
0.793397
0.793398
0.793398
0.793398
0.793398
0.793399
0.793399
0.793399
0.7934
0.7934
0.793401
0.793401
0.793401
0.793401
0.793402
0.793402
0.793403
0.793403
0.793403
0.793404
0.793404
0.793405
0.793405
0.793405
0.793406
0.793406
0.793406
0.793406
0.793407
0.793407
0.793408
0.793409
0.793409
0.793409
0.79341
0.79341
0.793411
0.793411
0.793411
0.793412
0.793412
0.793413
0.793413
0.793413
0.793414
0.793415
0.793415
0.793415
0.793416
0.793416
0.793417
0.793418
0.793418
0.793418
0.793419
0.793419
0.79342
0.79342
0.793421
0.793421
0.793422
0.793423
0.793423
0.793423
0.793424
0.793425
0.793425
0.793425
0.793426
0.793427
0.793428
0.793428
0.793428
0.793429
0.79343
0.79343
0.793431
0.793431
0.793432
0.793433
0.793433
0.793434
0.793434
0.793435
0.793436
0.793436
0.793437
0.793437
0.793438
0.793439
0.79344
0.79344
0.79344
0.793441
0.793442
0.793443
0.793444
0.793444
0.793444
0.793445
0.793446
0.793447
0.793447
0.793448
0.793449
0.79345
0.79345
0.79345
0.793451
0.793452
0.793453
0.793454
0.793454
0.793455
0.793456
0.793457
0.793458
0.793458
0.793459
0.79346
0.79346
0.793461
0.793461
0.793462
0.793463
0.793464
0.793465
0.793465
0.793466
0.793467
0.793468
0.793469
0.793469
0.79347
0.793471
0.793472
0.793473
0.793473
0.793474
0.793475
0.793476
0.793477
0.793477
0.793478
0.793479
0.79348
0.793482
0.793482
0.793483
0.793484
0.793485
0.793486
0.793486
0.793487
0.793488
0.793489
0.79349
0.79349
0.793491
0.793493
0.793494
0.793495
0.793495
0.793496
0.793497
0.793498
0.793499
0.793499
0.793501
0.793502
0.793503
0.793504
0.793504
0.793505
0.793506
0.793508
0.793509
0.793509
0.79351
0.793511
0.793512
0.793514
0.793514
0.793515
0.793516
0.793517
0.793519
0.793519
0.79352
0.793521
0.793522
0.793524
0.793524
0.793525
0.793526
0.793528
0.793529
0.793529
0.79353
0.793532
0.793533
0.793534
0.793534
0.793536
0.793537
0.793538
0.79354
0.79354
0.793541
0.793542
0.793544
0.793545
0.793545
0.793546
0.793548
0.793549
0.793551
0.793551
0.793552
0.793553
0.793555
0.793556
0.793556
0.793558
0.793559
0.79356
0.793562
0.793562
0.793563
0.793565
0.793566
0.793568
0.793568
0.793569
0.793571
0.793572
0.793574
0.793574
0.793575
0.793577
0.793578
0.79358
0.79358
0.793581
0.793583
0.793584
0.793586
0.793586
0.793587
0.793589
0.79359
0.793592
0.793592
0.793594
0.793595
0.793597
0.793598
0.793598
0.7936
0.793602
0.793603
0.793605
0.793605
0.793606
0.793608
0.79361
0.793611
0.793611
0.793613
0.793614
0.793616
0.793618
0.793618
0.793619
0.793621
0.793623
0.793624
0.793624
0.793626
0.793628
0.79363
0.793631
0.793631
0.793633
0.793635
0.793636
0.793638
0.793638
0.79364
0.793642
0.793643
0.793645
0.793645
0.793647
0.793649
0.79365
0.793652
0.793652
0.793654
0.793656
0.793658
0.793659
0.793659
0.793661
0.793663
0.793665
0.793667
0.793667
0.793668
0.79367
0.793672
0.793674
0.793674
0.793676
0.793678
0.793679
0.793681
0.793681
0.793683
0.793685
0.793687
0.793689
0.793689
0.793691
0.793693
0.793695
0.793697
0.793697
0.793698
0.7937
0.793702
0.793704
0.793704
0.793706
0.793708
0.79371
0.793712
0.793712
0.793714
0.793716
0.793718
0.79372
0.79372
0.793722
0.793724
0.793726
0.793728
0.793728
0.79373
0.793732
0.793734
0.793736
0.793736
0.793738
0.79374
0.793742
0.793744
0.793744
0.793746
0.793748
0.79375
0.793753
0.793753
0.793755
0.793757
0.793759
0.793761
0.793761
0.793763
0.793765
0.793767
0.793769
0.793769
0.793772
0.793774
0.793776
0.793778
0.793778
0.79378
0.793782
0.793784
0.793787
0.793787
0.793789
0.793791
0.793793
0.793795
0.793795
0.793798
0.7938
0.793802
0.793804
0.793804
0.793806
0.793809
0.793811
0.793813
0.793813
0.793815
0.793818
0.79382
0.793822
0.793822
0.793824
0.793827
0.793829
0.793831
0.793831
0.793834
0.793836
0.793838
0.79384
0.79384
0.793843
0.793845
0.793847
0.79385
0.79385
0.793852
0.793854
0.793857
0.793859
0.793859
0.793862
0.793864
0.793866
0.793869
0.793869
0.793871
0.793874
0.793876
0.793878
0.793878
0.793881
0.793883
0.793886
0.793888
0.793888
0.793891
0.793893
0.793896
0.793898
0.793898
0.7939
0.793903
0.793905
0.793908
0.793908
0.79391
0.793913
0.793915
0.793918
0.793918
0.79392
0.793923
0.793926
0.793928
0.793928
0.793931
0.793933
0.793936
0.793938
0.793938
0.793941
0.793943
0.793946
0.793949
0.793949
0.793951
0.793954
0.793956
0.793959
0.793959
0.793962
0.793964
0.793967
0.793969
0.793969
0.793972
0.793975
0.793977
0.79398
0.79398
0.793983
0.793985
0.793988
0.793991
0.793991
0.793993
0.793996
0.793999
0.794001
0.794001
0.794004
0.794007
0.79401
0.794012
0.794012
0.794015
0.794018
0.79402
0.794023
0.794023
0.794026
0.794029
0.794032
0.794034
0.794034
0.794037
0.79404
0.794043
0.794045
0.794045
0.794048
0.794051
0.794054
0.794057
0.794057
0.794059
0.794062
0.794065
0.794068
0.794068
0.794071
0.794074
0.794077
0.794079
0.794079
0.794082
0.794085
0.794088
0.794091
0.794091
0.794094
0.794097
0.7941
0.794103
0.794103
0.794105
0.794108
0.794111
0.794114
0.794114
0.794117
0.79412
0.794123
0.794126
0.794126
0.794129
0.794132
0.794135
0.794138
0.794138
0.794141
0.794144
0.794147
0.79415
0.79415
0.794153
0.794156
0.794159
0.794162
0.794162
0.794165
0.794168
0.794171
0.794174
0.794174
0.794177
0.79418
0.794183
0.794186
0.794186
0.79419
0.794193
0.794196
0.794199
0.794199
0.794202
0.794205
0.794208
0.794211
0.794211
0.794214
0.794218
0.794221
0.794224
0.794224
0.794227
0.79423
0.794233
0.794237
0.794237
0.79424
0.794243
0.794246
0.794249
0.794249
0.794252
0.794256
0.794259
0.794262
0.794262
0.794265
0.794269
0.794272
0.794275
0.794275
0.794278
0.794282
0.794285
0.794288
0.794288
0.794291
0.794295
0.794298
0.794301
0.794301
0.794304
0.794308
0.794311
0.794314
0.794314
0.794318
0.794321
0.794324
0.794328
0.794328
0.794331
0.794334
0.794338
0.794341
0.794341
0.794345
0.794348
0.794351
0.794355
0.794355
0.794358
0.794361
0.794365
0.794368
0.794368
0.794372
0.794375
0.794379
0.794382
0.794382
0.794385
0.794389
0.794392
0.794396
0.794396
0.794399
0.794403
0.794406
0.79441
0.79441
0.794413
0.794417
0.79442
0.794424
0.794424
0.794427
0.794431
0.794434
0.794438
0.794438
0.794441
0.794445
0.794448
0.794452
0.794452
0.794455
0.794459
0.794463
0.794466
0.794466
0.79447
0.794473
0.794477
0.79448
0.79448
0.794484
0.794488
0.794491
0.794495
0.794495
0.794499
0.794502
0.794506
0.794509
0.794509
0.794513
0.794517
0.79452
0.794524
0.794524
0.794528
0.794531
0.794535
0.794539
0.794539
0.794542
0.794546
0.79455
0.794554
0.794554
0.794557
0.794561
0.794565
0.794568
0.794568
0.794572
0.794576
0.79458
0.794583
0.794583
0.794587
0.794591
0.794595
0.794599
0.794599
0.794602
0.794606
0.79461
0.794614
0.794614
0.794617
0.794621
0.794625
0.794629
0.794629
0.794633
0.794637
0.79464
0.794644
0.794644
0.794648
0.794652
0.794656
0.79466
0.79466
0.794664
0.794667
0.794671
0.794675
0.794675
0.794679
0.794683
0.794687
0.794691
0.794691
0.794695
0.794699
0.794703
0.794707
0.794707
0.794711
0.794715
0.794719
0.794723
0.794723
0.794727
0.794731
0.794735
0.794739
0.794739
0.794743
0.794747
0.794751
0.794755
0.794755
0.794759
0.794763
0.794767
0.794771
0.794771
0.794775
0.794779
0.794783
0.794787
0.794787
0.794791
0.794796
0.7948
0.794804
0.794804
0.794808
0.794812
0.794816
0.79482
0.79482
0.794824
0.794829
0.794833
0.794837
0.794837
0.794841
0.794845
0.794849
0.794853
0.794853
0.794858
0.794862
0.794866
0.79487
0.79487
0.794874
0.794879
0.794883
0.794887
0.794887
0.794891
0.794895
0.7949
0.794904
0.794904
0.794908
0.794912
0.794917
0.794921
0.794921
0.794925
0.79493
0.794934
0.794938
0.794938
0.794942
0.794947
0.794951
0.794955
0.794955
0.79496
0.794964
0.794968
0.794973
0.794973
0.794977
0.794981
0.794986
0.79499
0.79499
0.794994
0.794999
0.795003
0.795007
0.795007
0.795012
0.795016
0.795021
0.795025
0.795025
0.795029
0.795034
0.795038
0.795043
0.795043
0.795047
0.795052
0.795056
0.795061
0.795061
0.795065
0.795069
0.795074
0.795078
0.795078
0.795083
0.795087
0.795092
0.795096
0.795096
0.795101
0.795105
0.79511
0.795114
0.795114
0.795119
0.795123
0.795128
0.795133
0.795133
0.795137
0.795142
0.795146
0.795151
0.795151
0.795155
0.79516
0.795165
0.795169
0.795169
0.795174
0.795178
0.795183
0.795188
0.795188
0.795192
0.795197
0.795201
0.795206
0.795206
0.795211
0.795215
0.79522
0.795225
0.795225
0.795229
0.795234
0.795239
0.795243
0.795243
0.795248
0.795253
0.795258
0.795262
0.795262
0.795267
0.795272
0.795276
0.795281
0.795281
0.795286
0.795291
0.795295
0.7953
0.7953
0.795305
0.79531
0.795314
0.795319
0.795319
0.795324
0.795329
0.795334
0.795338
0.795338
0.795343
0.795348
0.795353
0.795358
0.795358
0.795362
0.795367
0.795372
0.795377
0.795377
0.795382
0.795387
0.795392
0.795396
0.795396
0.795401
0.795406
0.795411
0.795416
0.795416
0.795421
0.795426
0.795431
0.795435
0.795435
0.79544
0.795445
0.79545
0.795455
0.795455
0.79546
0.795465
0.79547
0.795475
0.795475
0.79548
0.795485
0.79549
0.795495
0.795495
0.7955
0.795505
0.79551
0.795515
0.795515
0.79552
0.795525
0.79553
0.795535
0.795535
0.79554
0.795545
0.79555
0.795555
0.795555
0.79556
0.795566
0.795571
0.795576
0.795576
0.795581
0.795586
0.795591
0.795596
0.795596
0.795601
0.795607
0.795612
0.795617
0.795617
0.795622
0.795627
0.795632
0.795638
0.795638
0.795643
0.795648
0.795653
0.795658
0.795658
0.795663
0.795669
0.795674
0.795679
0.795679
0.795684
0.79569
0.795695
0.7957
0.7957
0.795705
0.795711
0.795716
0.795721
0.795721
0.795726
0.795732
0.795737
0.795742
0.795742
0.795747
0.795753
0.795758
0.795763
0.795763
0.795769
0.795774
0.795779
0.795785
0.795785
0.79579
0.795795
0.795801
0.795806
0.795806
0.795811
0.795817
0.795822
0.795828
0.795828
0.795833
0.795838
0.795844
0.795849
0.795849
0.795854
0.79586
0.795865
0.795871
0.795871
0.795876
0.795882
0.795887
0.795893
0.795893
0.795898
0.795903
0.795909
0.795914
0.795914
0.79592
0.795925
0.795931
0.795936
0.795936
0.795942
0.795947
0.795953
0.795958
0.795958
0.795964
0.795969
0.795975
0.79598
0.79598
0.795986
0.795992
0.795997
0.796003
0.796003
0.796008
0.796014
0.796019
0.796025
0.796025
0.796031
0.796036
0.796042
0.796047
0.796047
0.796053
0.796059
0.796064
0.79607
0.79607
0.796076
0.796081
0.796087
0.796093
0.796093
0.796098
0.796104
0.79611
0.796115
0.796115
0.796121
0.796127
0.796132
0.796138
0.796138
0.796144
0.796149
0.796155
0.796161
0.796161
0.796167
0.796172
0.796178
0.796184
0.796184
0.79619
0.796195
0.796201
0.796207
0.796207
0.796213
0.796218
0.796224
0.79623
0.79623
0.796236
0.796242
0.796247
0.796253
0.796253
0.796259
0.796265
0.796271
0.796276
0.796276
0.796282
0.796288
0.796294
0.7963
0.7963
0.796306
0.796312
0.796317
0.796323
0.796323
0.796329
0.796335
0.796341
0.796347
0.796347
0.796353
0.796359
0.796365
0.796371
0.796371
0.796377
0.796383
0.796389
0.796394
0.796394
0.7964
0.796406
0.796412
0.796418
0.796418
0.796424
0.796431
0.796437
0.796443
0.796443
0.796449
0.796455
0.796461
0.796467
0.796467
0.796473
0.796479
0.796485
0.796491
0.796491
0.796497
0.796503
0.796509
0.796515
0.796515
0.796522
0.796528
0.796534
0.79654
0.79654
0.796546
0.796552
0.796558
0.796564
0.796564
0.796571
0.796577
0.796583
0.796589
0.796589
0.796595
0.796601
0.796608
0.796614
0.796614
0.79662
0.796626
0.796632
0.796639
0.796639
0.796645
0.796651
0.796657
0.796663
0.796663
0.79667
0.796676
0.796682
0.796688
0.796688
0.796695
0.796701
0.796707
0.796714
0.796714
0.79672
0.796726
0.796732
0.796739
0.796739
0.796745
0.796751
0.796758
0.796764
0.796764
0.79677
0.796777
0.796783
0.796789
0.796789
0.796796
0.796802
0.796808
0.796815
0.796815
0.796821
0.796828
0.796834
0.79684
0.79684
0.796847
0.796853
0.79686
0.796866
0.796866
0.796872
0.796879
0.796885
0.796892
0.796892
0.796898
0.796905
0.796911
0.796918
0.796918
0.796924
0.79693
0.796937
0.796943
0.796943
0.79695
0.796956
0.796963
0.796969
0.796969
0.796976
0.796982
0.796989
0.796996
0.796996
0.797002
0.797009
0.797015
0.797022
0.797022
0.797028
0.797035
0.797041
0.797048
0.797048
0.797055
0.797061
0.797068
0.797074
0.797074
0.797081
0.797087
0.797094
0.797101
0.797101
0.797107
0.797114
0.797121
0.797127
0.797127
0.797134
0.797141
0.797147
0.797154
0.797154
0.79716
0.797167
0.797174
0.797181
0.797181
0.797187
0.797194
0.797201
0.797207
0.797207
0.797214
0.797221
0.797228
0.797234
0.797234
0.797241
0.797248
0.797255
0.797261
0.797261
0.797268
0.797275
0.797282
0.797289
0.797289
0.797295
0.797302
0.797309
0.797316
0.797316
0.797323
0.79733
0.797336
0.797343
0.797343
0.79735
0.797357
0.797364
0.797371
0.797371
0.797378
0.797385
0.797392
0.797398
0.797398
0.797405
0.797412
0.797419
0.797426
0.797426
0.797433
0.79744
0.797447
0.797454
0.797454
0.797461
0.797468
0.797475
0.797482
0.797482
0.797489
0.797496
0.797503
0.79751
0.79751
0.797517
0.797524
0.797531
0.797538
0.797538
0.797545
0.797552
0.797559
0.797566
0.797566
0.797573
0.79758
0.797587
0.797594
0.797594
0.797601
0.797608
0.797615
0.797622
0.797622
0.797629
0.797637
0.797644
0.797651
0.797651
0.797658
0.797665
0.797672
0.797679
0.797679
0.797686
0.797694
0.797701
0.797708
0.797708
0.797715
0.797722
0.797729
0.797737
0.797737
0.797744
0.797751
0.797758
0.797765
0.797765
0.797772
0.79778
0.797787
0.797794
0.797794
0.797801
0.797809
0.797816
0.797823
0.797823
0.79783
0.797838
0.797845
0.797852
0.797852
0.797859
0.797867
0.797874
0.797881
0.797881
0.797888
0.797896
0.797903
0.79791
0.79791
0.797918
0.797925
0.797932
0.79794
0.79794
0.797947
0.797954
0.797962
0.797969
0.797969
0.797976
0.797984
0.797991
0.797998
0.797998
0.798006
0.798013
0.798021
0.798028
0.798028
0.798035
0.798043
0.79805
0.798058
0.798058
0.798065
0.798072
0.79808
0.798087
0.798087
0.798095
0.798102
0.79811
0.798117
0.798117
0.798125
0.798132
0.79814
0.798147
0.798147
0.798155
0.798162
0.79817
0.798177
0.798177
0.798185
0.798193
0.7982
0.798208
0.798208
0.798215
0.798223
0.798231
0.798238
0.798238
0.798246
0.798253
0.798261
0.798269
0.798269
0.798276
0.798284
0.798291
0.798299
0.798299
0.798307
0.798314
0.798322
0.79833
0.79833
0.798337
0.798345
0.798353
0.79836
0.79836
0.798368
0.798376
0.798384
0.798391
0.798391
0.798399
0.798407
0.798414
0.798422
0.798422
0.79843
0.798438
0.798445
0.798453
0.798453
0.798461
0.798469
0.798476
0.798484
0.798484
0.798492
0.7985
0.798508
0.798515
0.798515
0.798523
0.798531
0.798539
0.798547
0.798547
0.798554
0.798562
0.79857
0.798578
0.798578
0.798586
0.798594
0.798601
0.798609
0.798609
0.798617
0.798625
0.798633
0.798641
0.798641
0.798649
0.798657
0.798665
0.798672
0.798672
0.79868
0.798688
0.798696
0.798704
0.798704
0.798712
0.79872
0.798728
0.798736
0.798736
0.798744
0.798752
0.79876
0.798768
0.798768
0.798776
0.798784
0.798792
0.7988
0.7988
0.798808
0.798816
0.798824
0.798832
0.798832
0.79884
0.798848
0.798856
0.798864
0.798864
0.798872
0.79888
0.798888
0.798896
0.798896
0.798904
0.798912
0.79892
0.798928
0.798928
0.798936
0.798944
0.798953
0.798961
0.798961
0.798969
0.798977
0.798985
0.798993
0.798993
0.799001
0.799009
0.799018
0.799026
0.799026
0.799034
0.799042
0.79905
0.799059
0.799059
0.799067
0.799075
0.799083
0.799092
0.799092
0.7991
0.799108
0.799116
0.799125
0.799125
0.799133
0.799141
0.799149
0.799158
0.799158
0.799166
0.799174
0.799183
0.799191
0.799191
0.799199
0.799208
0.799216
0.799224
0.799224
0.799233
0.799241
0.799249
0.799258
0.799258
0.799266
0.799274
0.799283
0.799291
0.799291
0.799299
0.799308
0.799316
0.799325
0.799325
0.799333
0.799341
0.79935
0.799358
0.799358
0.799367
0.799375
0.799384
0.799392
0.799392
0.7994
0.799409
0.799417
0.799426
0.799426
0.799434
0.799443
0.799451
0.79946
0.79946
0.799468
0.799477
0.799485
0.799494
0.799494
0.799502
0.799511
0.799519
0.799528
0.799528
0.799536
0.799545
0.799553
0.799562
0.799562
0.79957
0.799579
0.799588
0.799596
0.799596
0.799605
0.799613
0.799622
0.79963
0.79963
0.799639
0.799648
0.799656
0.799665
0.799665
0.799673
0.799682
0.799691
0.799699
0.799699
0.799708
0.799717
0.799725
0.799734
0.799734
0.799743
0.799751
0.79976
0.799769
0.799769
0.799777
0.799786
0.799795
0.799803
0.799803
0.799812
0.799821
0.799829
0.799838
0.799838
0.799847
0.799856
0.799864
0.799873
0.799873
0.799882
0.799891
0.799899
0.799908
0.799908
0.799917
0.799926
0.799935
0.799944
0.799944
0.799952
0.799961
0.79997
0.799979
0.799979
0.799988
0.799997
0.800006
0.800014
0.800014
0.800023
0.800032
0.800041
0.80005
0.80005
0.800059
0.800068
0.800077
0.800086
0.800086
0.800095
0.800104
0.800113
0.800121
0.800121
0.80013
0.800139
0.800148
0.800157
0.800157
0.800166
0.800175
0.800184
0.800193
0.800193
0.800202
0.800211
0.80022
0.800229
0.800229
0.800238
0.800247
0.800256
0.800265
0.800265
0.800274
0.800283
0.800293
0.800302
0.800302
0.800311
0.80032
0.800329
0.800338
0.800338
0.800347
0.800356
0.800365
0.800374
0.800374
0.800383
0.800392
0.800402
0.800411
0.800411
0.80042
0.800429
0.800438
0.800447
0.800447
0.800456
0.800465
0.800475
0.800484
0.800484
0.800493
0.800502
0.800511
0.80052
0.80052
0.80053
0.800539
0.800548
0.800557
0.800557
0.800566
0.800576
0.800585
0.800594
0.800594
0.800603
0.800613
0.800622
0.800631
0.800631
0.80064
0.80065
0.800659
0.800668
0.800668
0.800677
0.800687
0.800696
0.800705
0.800705
0.800714
0.800724
0.800733
0.800742
0.800742
0.800752
0.800761
0.80077
0.80078
0.80078
0.800789
0.800798
0.800808
0.800817
0.800817
0.800827
0.800836
0.800845
0.800855
0.800855
0.800864
0.800874
0.800883
0.800893
0.800893
0.800902
0.800912
0.800921
0.800931
0.800931
0.80094
0.80095
0.800959
0.800969
0.800969
0.800978
0.800988
0.800997
0.801007
0.801007
0.801016
0.801026
0.801035
0.801045
0.801045
0.801054
0.801064
0.801073
0.801083
0.801083
0.801093
0.801102
0.801112
0.801121
0.801121
0.801131
0.80114
0.80115
0.80116
0.80116
0.801169
0.801179
0.801189
0.801198
0.801198
0.801208
0.801217
0.801227
0.801237
0.801237
0.801246
0.801256
0.801266
0.801275
0.801275
0.801285
0.801295
0.801304
0.801314
0.801314
0.801324
0.801333
0.801343
0.801353
0.801353
0.801363
0.801372
0.801382
0.801392
0.801392
0.801401
0.801411
0.801421
0.801431
0.801431
0.80144
0.80145
0.80146
0.80147
0.80147
0.80148
0.801489
0.801499
0.801509
0.801509
0.801519
0.801528
0.801538
0.801548
0.801548
0.801558
0.801568
0.801578
0.801587
0.801587
0.801597
0.801607
0.801617
0.801627
0.801627
0.801637
0.801647
0.801656
0.801666
0.801666
0.801676
0.801686
0.801696
0.801706
0.801706
0.801716
0.801726
0.801736
0.801746
0.801746
0.801756
0.801766
0.801776
0.801786
0.801786
0.801796
0.801806
0.801816
0.801826
0.801826
0.801836
0.801846
0.801856
0.801866
0.801866
0.801876
0.801886
0.801896
0.801906
0.801906
0.801916
0.801926
0.801936
0.801947
0.801947
0.801957
0.801967
0.801977
0.801987
0.801987
0.801997
0.802007
0.802017
0.802027
0.802027
0.802038
0.802048
0.802058
0.802068
0.802068
0.802078
0.802088
0.802099
0.802109
0.802109
0.802119
0.802129
0.802139
0.802149
0.802149
0.80216
0.80217
0.80218
0.80219
0.80219
0.8022
0.802211
0.802221
0.802231
0.802231
0.802241
0.802252
0.802262
0.802272
0.802272
0.802282
0.802293
0.802303
0.802313
0.802313
0.802323
0.802334
0.802344
0.802354
0.802354
0.802365
0.802375
0.802385
0.802396
0.802396
0.802406
0.802416
0.802427
0.802437
0.802437
0.802447
0.802458
0.802468
0.802478
0.802478
0.802489
0.802499
0.802509
0.80252
0.80252
0.80253
0.80254
0.802551
0.802561
0.802561
0.802572
0.802582
0.802593
0.802603
0.802603
0.802613
0.802624
0.802634
0.802645
0.802645
0.802655
0.802666
0.802676
0.802687
0.802687
0.802697
0.802708
0.802719
0.802729
0.802729
0.80274
0.80275
0.802761
0.802771
0.802771
0.802782
0.802793
0.802803
0.802814
0.802814
0.802824
0.802835
0.802846
0.802856
0.802856
0.802867
0.802877
0.802888
0.802899
0.802899
0.802909
0.80292
0.802931
0.802941
0.802941
0.802952
0.802963
0.802973
0.802984
0.802984
0.802995
0.803005
0.803016
0.803027
0.803027
0.803037
0.803048
0.803059
0.803069
0.803069
0.80308
0.803091
0.803102
0.803112
0.803112
0.803123
0.803134
0.803145
0.803155
0.803155
0.803166
0.803177
0.803188
0.803198
0.803198
0.803209
0.80322
0.803231
0.803242
0.803242
0.803252
0.803263
0.803274
0.803285
0.803285
0.803296
0.803306
0.803317
0.803328
0.803328
0.803339
0.80335
0.803361
0.803371
0.803371
0.803382
0.803393
0.803404
0.803415
0.803415
0.803426
0.803437
0.803448
0.803459
0.803459
0.803469
0.80348
0.803491
0.803502
0.803502
0.803513
0.803524
0.803535
0.803546
0.803546
0.803557
0.803568
0.803579
0.80359
0.80359
0.803601
0.803612
0.803623
0.803634
0.803634
0.803645
0.803656
0.803667
0.803679
0.803679
0.80369
0.803701
0.803712
0.803723
0.803723
0.803734
0.803745
0.803756
0.803767
0.803767
0.803778
0.80379
0.803801
0.803812
0.803812
0.803823
0.803834
0.803845
0.803856
0.803856
0.803868
0.803879
0.80389
0.803901
0.803901
0.803912
0.803923
0.803935
0.803946
0.803946
0.803957
0.803968
0.803979
0.803991
0.803991
0.804002
0.804013
0.804024
0.804036
0.804036
0.804047
0.804058
0.804069
0.804081
0.804081
0.804092
0.804103
0.804114
0.804126
0.804126
0.804137
0.804148
0.804159
0.804171
0.804171
0.804182
0.804193
0.804205
0.804216
0.804216
0.804227
0.804239
0.80425
0.804261
0.804261
0.804273
0.804284
0.804295
0.804307
0.804307
0.804318
0.804329
0.804341
0.804352
0.804352
0.804363
0.804375
0.804386
0.804398
0.804398
0.804409
0.804421
0.804432
0.804443
0.804443
0.804455
0.804466
0.804478
0.804489
0.804489
0.804501
0.804512
0.804524
0.804535
0.804535
0.804547
0.804558
0.80457
0.804582
0.804582
0.804593
0.804605
0.804616
0.804628
0.804628
0.804639
0.804651
0.804663
0.804674
0.804674
0.804686
0.804697
0.804709
0.804721
0.804721
0.804732
0.804744
0.804755
0.804767
0.804767
0.804779
0.80479
0.804802
0.804814
0.804814
0.804825
0.804837
0.804849
0.80486
0.80486
0.804872
0.804884
0.804895
0.804907
0.804907
0.804919
0.80493
0.804942
0.804954
0.804954
0.804966
0.804977
0.804989
0.805001
0.805001
0.805012
0.805024
0.805036
0.805048
0.805048
0.805059
0.805071
0.805083
0.805095
0.805095
0.805106
0.805118
0.80513
0.805142
0.805142
0.805154
0.805165
0.805177
0.805189
0.805189
0.805201
0.805213
0.805224
0.805236
0.805236
0.805248
0.80526
0.805272
0.805284
0.805284
0.805295
0.805307
0.805319
0.805331
0.805331
0.805343
0.805355
0.805367
0.805379
0.805379
0.805391
0.805403
0.805415
0.805427
0.805427
0.805439
0.805451
0.805463
0.805475
0.805475
0.805487
0.805499
0.805511
0.805523
0.805523
0.805535
0.805547
0.805559
0.805571
0.805571
0.805583
0.805595
0.805607
0.805619
0.805619
0.805631
0.805643
0.805655
0.805667
0.805667
0.805679
0.805692
0.805704
0.805716
0.805716
0.805728
0.80574
0.805752
0.805764
0.805764
0.805776
0.805788
0.805801
0.805813
0.805813
0.805825
0.805837
0.805849
0.805861
0.805861
0.805874
0.805886
0.805898
0.80591
0.80591
0.805922
0.805934
0.805947
0.805959
0.805959
0.805971
0.805983
0.805995
0.806008
0.806008
0.80602
0.806032
0.806044
0.806057
0.806057
0.806069
0.806081
0.806093
0.806106
0.806106
0.806118
0.80613
0.806142
0.806155
0.806155
0.806167
0.806179
0.806192
0.806204
0.806204
0.806216
0.806229
0.806241
0.806253
0.806253
0.806266
0.806278
0.80629
0.806303
0.806303
0.806315
0.806327
0.80634
0.806352
0.806352
0.806365
0.806377
0.80639
0.806402
0.806402
0.806415
0.806427
0.806439
0.806452
0.806452
0.806464
0.806477
0.806489
0.806502
0.806502
0.806514
0.806527
0.806539
0.806552
0.806552
0.806564
0.806577
0.80659
0.806602
0.806602
0.806615
0.806627
0.80664
0.806652
0.806652
0.806665
0.806677
0.80669
0.806703
0.806703
0.806715
0.806728
0.80674
0.806753
0.806753
0.806765
0.806778
0.806791
0.806803
0.806803
0.806816
0.806829
0.806841
0.806854
0.806854
0.806866
0.806879
0.806892
0.806904
0.806904
0.806917
0.80693
0.806942
0.806955
0.806955
0.806968
0.80698
0.806993
0.807006
0.807006
0.807018
0.807031
0.807044
0.807057
0.807057
0.807069
0.807082
0.807095
0.807107
0.807107
0.80712
0.807133
0.807146
0.807158
0.807158
0.807171
0.807184
0.807197
0.80721
0.80721
0.807222
0.807235
0.807248
0.807261
0.807261
0.807274
0.807287
0.8073
0.807312
0.807312
0.807325
0.807338
0.807351
0.807364
0.807364
0.807377
0.80739
0.807403
0.807416
0.807416
0.807429
0.807442
0.807455
0.807467
0.807467
0.80748
0.807493
0.807506
0.807519
0.807519
0.807532
0.807545
0.807558
0.807571
0.807571
0.807584
0.807597
0.80761
0.807623
0.807623
0.807636
0.807649
0.807662
0.807675
0.807675
0.807688
0.807701
0.807714
0.807727
0.807727
0.80774
0.807754
0.807767
0.80778
0.80778
0.807793
0.807806
0.807819
0.807832
0.807832
0.807845
0.807858
0.807871
0.807884
0.807884
0.807897
0.807911
0.807924
0.807937
0.807937
0.80795
0.807963
0.807976
0.807989
0.807989
0.808002
0.808016
0.808029
0.808042
0.808042
0.808055
0.808068
0.808081
0.808095
0.808095
0.808108
0.808121
0.808134
0.808147
0.808147
0.808161
0.808174
0.808187
0.808201
0.808201
0.808214
0.808227
0.80824
0.808254
0.808254
0.808267
0.80828
0.808294
0.808307
0.808307
0.80832
0.808334
0.808347
0.80836
0.80836
0.808374
0.808387
0.808401
0.808414
0.808414
0.808427
0.808441
0.808454
0.808468
0.808468
0.808481
0.808494
0.808508
0.808521
0.808521
0.808535
0.808548
0.808561
0.808575
0.808575
0.808588
0.808602
0.808615
0.808629
0.808629
0.808642
0.808656
0.808669
0.808682
0.808682
0.808696
0.808709
0.808723
0.808736
0.808736
0.80875
0.808763
0.808777
0.80879
0.80879
0.808804
0.808817
0.808831
0.808844
0.808844
0.808858
0.808871
0.808885
0.808899
0.808899
0.808912
0.808926
0.808939
0.808953
0.808953
0.808966
0.80898
0.808994
0.809007
0.809007
0.809021
0.809034
0.809048
0.809062
0.809062
0.809075
0.809089
0.809103
0.809116
0.809116
0.80913
0.809144
0.809157
0.809171
0.809171
0.809185
0.809199
0.809212
0.809226
0.809226
0.80924
0.809254
0.809267
0.809281
0.809281
0.809295
0.809309
0.809322
0.809336
0.809336
0.80935
0.809364
0.809378
0.809391
0.809391
0.809405
0.809419
0.809433
0.809447
0.809447
0.80946
0.809474
0.809488
0.809502
0.809502
0.809516
0.80953
0.809544
0.809557
0.809557
0.809571
0.809585
0.809599
0.809613
0.809613
0.809627
0.809641
0.809654
0.809668
0.809668
0.809682
0.809696
0.80971
0.809724
0.809724
0.809738
0.809752
0.809766
0.80978
0.80978
0.809794
0.809808
0.809821
0.809835
0.809835
0.809849
0.809863
0.809877
0.809891
0.809891
0.809905
0.809919
0.809933
0.809947
0.809947
0.809961
0.809975
0.809989
0.810003
0.810003
0.810017
0.810032
0.810046
0.81006
0.81006
0.810074
0.810088
0.810102
0.810116
0.810116
0.81013
0.810144
0.810159
0.810173
0.810173
0.810187
0.810201
0.810215
0.810229
0.810229
0.810244
0.810258
0.810272
0.810286
0.810286
0.8103
0.810315
0.810329
0.810343
0.810343
0.810357
0.810371
0.810386
0.8104
0.8104
0.810414
0.810428
0.810442
0.810457
0.810457
0.810471
0.810485
0.810499
0.810514
0.810514
0.810528
0.810542
0.810557
0.810571
0.810571
0.810585
0.810599
0.810614
0.810628
0.810628
0.810642
0.810657
0.810671
0.810685
0.810685
0.810699
0.810714
0.810728
0.810742
0.810742
0.810757
0.810771
0.810786
0.8108
0.8108
0.810814
0.810829
0.810843
0.810857
0.810857
0.810872
0.810886
0.810901
0.810915
0.810915
0.810929
0.810944
0.810958
0.810973
0.810973
0.810987
0.811002
0.811016
0.811031
0.811031
0.811045
0.81106
0.811074
0.811089
0.811089
0.811103
0.811118
0.811133
0.811147
0.811147
0.811162
0.811176
0.811191
0.811205
0.811205
0.81122
0.811234
0.811249
0.811264
0.811264
0.811278
0.811293
0.811307
0.811322
0.811322
0.811337
0.811351
0.811366
0.811381
0.811381
0.811395
0.81141
0.811424
0.811439
0.811439
0.811454
0.811468
0.811483
0.811498
0.811498
0.811512
0.811527
0.811542
0.811556
0.811556
0.811571
0.811586
0.8116
0.811615
0.811615
0.81163
0.811645
0.811659
0.811674
0.811674
0.811689
0.811703
0.811718
0.811733
0.811733
0.811748
0.811762
0.811777
0.811792
0.811792
0.811807
0.811822
0.811836
0.811851
0.811851
0.811866
0.811881
0.811896
0.81191
0.81191
0.811925
0.81194
0.811955
0.81197
0.81197
0.811985
0.812
0.812015
0.81203
0.81203
0.812045
0.812059
0.812074
0.812089
0.812089
0.812104
0.812119
0.812134
0.812149
0.812149
0.812164
0.812179
0.812194
0.812209
0.812209
0.812224
0.812239
0.812254
0.812269
0.812269
0.812284
0.812299
0.812314
0.812329
0.812329
0.812344
0.812359
0.812374
0.812389
0.812389
0.812404
0.812419
0.812434
0.812449
0.812449
0.812464
0.812479
0.812494
0.812509
0.812509
0.812524
0.812539
0.812554
0.81257
0.81257
0.812585
0.8126
0.812615
0.81263
0.81263
0.812645
0.81266
0.812675
0.81269
0.81269
0.812706
0.812721
0.812736
0.812751
0.812751
0.812766
0.812781
0.812797
0.812812
0.812812
0.812827
0.812842
0.812857
0.812873
0.812873
0.812888
0.812903
0.812918
0.812934
0.812934
0.812949
0.812964
0.81298
0.812995
0.812995
0.81301
0.813025
0.813041
0.813056
0.813056
0.813071
0.813087
0.813102
0.813117
0.813117
0.813133
0.813148
0.813163
0.813179
0.813179
0.813194
0.813209
0.813225
0.81324
0.81324
0.813256
0.813271
0.813286
0.813302
0.813302
0.813317
0.813333
0.813348
0.813363
0.813363
0.813379
0.813394
0.81341
0.813425
0.813425
0.81344
0.813456
0.813471
0.813487
0.813487
0.813502
0.813518
0.813533
0.813548
0.813548
0.813564
0.813579
0.813595
0.81361
0.81361
0.813626
0.813641
0.813657
0.813672
0.813672
0.813688
0.813703
0.813719
0.813735
0.813735
0.81375
0.813766
0.813781
0.813797
0.813797
0.813813
0.813828
0.813844
0.813859
0.813859
0.813875
0.813891
0.813906
0.813922
0.813922
0.813938
0.813953
0.813969
0.813985
0.813985
0.814
0.814016
0.814032
0.814047
0.814047
0.814063
0.814079
0.814095
0.81411
0.81411
0.814126
0.814142
0.814157
0.814173
0.814173
0.814189
0.814205
0.81422
0.814236
0.814236
0.814252
0.814268
0.814283
0.814299
0.814299
0.814315
0.814331
0.814346
0.814362
0.814362
0.814378
0.814394
0.81441
0.814425
0.814425
0.814441
0.814457
0.814473
0.814489
0.814489
0.814504
0.81452
0.814536
0.814552
0.814552
0.814568
0.814584
0.8146
0.814615