<?xml version="1.0"?>
<VTKFile type="UnstructuredGrid" version="0.1" byte_order="LittleEndian">
<UnstructuredGrid>
<Piece NumberOfPoints="5000" NumberOfCells="4000">
<PointData Scalars="Reaction 0">
<DataArray type="Float32" Name="Reaction 0" format="ascii">
0.639777
0.639777
0.639777
0.639777
0.639777
0.639777
0.639777
0.639777
0.639777
0.639777
0.639777
0.639777
0.639778
0.639778
0.639778
0.639778
0.639778
0.639778
0.639778
0.639778
0.639778
0.639778
0.639778
0.639778
0.639778
0.639778
0.639778
0.639778
0.639778
0.639778
0.639778
0.639779
0.639779
0.639779
0.639779
0.639779
0.639779
0.639779
0.639779
0.639779
0.639779
0.639779
0.63978
0.63978
0.63978
0.63978
0.63978
0.63978
0.63978
0.63978
0.63978
0.639781
0.639781
0.639781
0.639781
0.639781
0.639781
0.639781
0.639782
0.639782
0.639782
0.639782
0.639782
0.639782
0.639782
0.639782
0.639783
0.639783
0.639783
0.639783
0.639783
0.639784
0.639784
0.639784
0.639784
0.639784
0.639784
0.639785
0.639785
0.639785
0.639785
0.639785
0.639786
0.639786
0.639786
0.639786
0.639786
0.639787
0.639787
0.639787
0.639787
0.639788
0.639788
0.639788
0.639788
0.639788
0.639789
0.639789
0.639789
0.63979
0.63979
0.63979
0.63979
0.639791
0.639791
0.639791
0.639791
0.639791
0.639792
0.639792
0.639792
0.639792
0.639793
0.639793
0.639794
0.639794
0.639794
0.639794
0.639795
0.639795
0.639795
0.639795
0.639796
0.639796
0.639796
0.639796
0.639797
0.639797
0.639798
0.639798
0.639798
0.639798
0.639799
0.639799
0.6398
0.6398
0.6398
0.6398
0.639801
0.639801
0.639801
0.639802
0.639802
0.639803
0.639803
0.639803
0.639804
0.639804
0.639804
0.639805
0.639805
0.639805
0.639806
0.639806
0.639807
0.639807
0.639807
0.639808
0.639808
0.639809
0.639809
0.639809
0.63981
0.63981
0.639811
0.639811
0.639811
0.639812
0.639812
0.639813
0.639813
0.639813
0.639814
0.639814
0.639815
0.639815
0.639815
0.639816
0.639816
0.639817
0.639817
0.639818
0.639818
0.639819
0.639819
0.639819
0.63982
0.63982
0.639821
0.639822
0.639822
0.639822
0.639823
0.639823
0.639824
0.639824
0.639825
0.639825
0.639826
0.639826
0.639826
0.639827
0.639828
0.639828
0.639829
0.639829
0.639829
0.63983
0.639831
0.639831
0.639831
0.639832
0.639833
0.639833
0.639834
0.639834
0.639835
0.639835
0.639836
0.639837
0.639837
0.639837
0.639838
0.639839
0.639839
0.639839
0.63984
0.639841
0.639841
0.639842
0.639842
0.639843
0.639844
0.639844
0.639845
0.639845
0.639846
0.639846
0.639847
0.639848
0.639848
0.639849
0.639849
0.63985
0.639851
0.639851
0.639852
0.639852
0.639853
0.639854
0.639854
0.639855
0.639855
0.639856
0.639857
0.639857
0.639858
0.639859
0.639859
0.63986
0.63986
0.639861
0.639862
0.639863
0.639863
0.639863
0.639864
0.639865
0.639866
0.639867
0.639867
0.639867
0.639868
0.639869
0.63987
0.63987
0.639871
0.639872
0.639873
0.639873
0.639873
0.639874
0.639875
0.639876
0.639877
0.639877
0.639878
0.639879
0.63988
0.63988
0.63988
0.639881
0.639882
0.639883
0.639884
0.639884
0.639885
0.639886
0.639887
0.639888
0.639888
0.639889
0.639889
0.63989
0.639891
0.639891
0.639892
0.639893
0.639894
0.639895
0.639895
0.639896
0.639897
0.639898
0.639899
0.639899
0.6399
0.639901
0.639902
0.639903
0.639903
0.639904
0.639905
0.639906
0.639907
0.639907
0.639908
0.639909
0.63991
0.639911
0.639911
0.639912
0.639913
0.639914
0.639915
0.639915
0.639916
0.639917
0.639918
0.639919
0.639919
0.63992
0.639921
0.639922
0.639923
0.639923
0.639924
0.639925
0.639926
0.639928
0.639928
0.639929
0.63993
0.639931
0.639932
0.639932
0.639933
0.639934
0.639935
0.639936
0.639936
0.639937
0.639938
0.63994
0.639941
0.639941
0.639942
0.639943
0.639944
0.639945
0.639945
0.639946
0.639947
0.639949
0.63995
0.63995
0.639951
0.639952
0.639953
0.639954
0.639954
0.639956
0.639957
0.639958
0.639959
0.639959
0.63996
0.639961
0.639963
0.639964
0.639964
0.639965
0.639966
0.639967
0.639969
0.639969
0.63997
0.639971
0.639972
0.639974
0.639974
0.639975
0.639976
0.639977
0.639978
0.639978
0.63998
0.639981
0.639982
0.639983
0.639983
0.639985
0.639986
0.639987
0.639989
0.639989
0.63999
0.639991
0.639992
0.639994
0.639994
0.639995
0.639996
0.639998
0.639999
0.639999
0.64
0.640001
0.640003
0.640004
0.640004
0.640005
0.640007
0.640008
0.640009
0.640009
0.640011
0.640012
0.640013
0.640015
0.640015
0.640016
0.640018
0.640019
0.64002
0.64002
0.640022
0.640023
0.640024
0.640026
0.640026
0.640027
0.640029
0.64003
0.640031
0.640031
0.640033
0.640034
0.640036
0.640037
0.640037
0.640038
0.64004
0.640041
0.640043
0.640043
0.640044
0.640045
0.640047
0.640048
0.640048
0.64005
0.640051
0.640053
0.640054
0.640054
0.640056
0.640057
0.640059
0.64006
0.64006
0.640061
0.640063
0.640064
0.640066
0.640066
0.640067
0.640069
0.64007
0.640072
0.640072
0.640073
0.640075
0.640076
0.640078
0.640078
0.640079
0.640081
0.640082
0.640084
0.640084
0.640086
0.640087
0.640089
0.64009
0.64009
0.640092
0.640093
0.640095
0.640097
0.640097
0.640098
0.6401
0.640101
0.640103
0.640103
0.640104
0.640106
0.640108
0.640109
0.640109
0.640111
0.640112
0.640114
0.640116
0.640116
0.640117
0.640119
0.640121
0.640122
0.640122
0.640124
0.640125
0.640127
0.640129
0.640129
0.64013
0.640132
0.640134
0.640135
0.640135
0.640137
0.640139
0.64014
0.640142
0.640142
0.640144
0.640145
0.640147
0.640149
0.640149
0.64015
0.640152
0.640154
0.640156
0.640156
0.640157
0.640159
0.640161
0.640162
0.640162
0.640164
0.640166
0.640168
0.640169
0.640169
0.640171
0.640173
0.640175
0.640176
0.640176
0.640178
0.64018
0.640182
0.640183
0.640183
0.640185
0.640187
0.640189
0.640191
0.640191
0.640192
0.640194
0.640196
0.640198
0.640198
0.6402
0.640201
0.640203
0.640205
0.640205
0.640207
0.640209
0.64021
0.640212
0.640212
0.640214
0.640216
0.640218
0.64022
0.64022
0.640221
0.640223
0.640225
0.640227
0.640227
0.640229
0.640231
0.640233
0.640235
0.640235
0.640236
0.640238
0.64024
0.640242
0.640242
0.640244
0.640246
0.640248
0.64025
0.64025
0.640252
0.640254
0.640255
0.640257
0.640257
0.640259
0.640261
0.640263
0.640265
0.640265
0.640267
0.640269
0.640271
0.640273
0.640273
0.640275
0.640277
0.640279
0.640281
0.640281
0.640283
0.640285
0.640287
0.640289
0.640289
0.640291
0.640293
0.640295
0.640297
0.640297
0.640299
0.640301
0.640303
0.640305
0.640305
0.640307
0.640309
0.640311
0.640313
0.640313
0.640315
0.640317
0.640319
0.640321
0.640321
0.640323
0.640325
0.640327
0.640329
0.640329
0.640331
0.640333
0.640336
0.640338
0.640338
0.64034
0.640342
0.640344
0.640346
0.640346
0.640348
0.64035
0.640352
0.640354
0.640354
0.640357
0.640359
0.640361
0.640363
0.640363
0.640365
0.640367
0.640369
0.640371
0.640371
0.640374
0.640376
0.640378
0.64038
0.64038
0.640382
0.640384
0.640387
0.640389
0.640389
0.640391
0.640393
0.640395
0.640398
0.640398
0.6404
0.640402
0.640404
0.640406
0.640406
0.640409
0.640411
0.640413
0.640415
0.640415
0.640417
0.64042
0.640422
0.640424
0.640424
0.640426
0.640429
0.640431
0.640433
0.640433
0.640435
0.640438
0.64044
0.640442
0.640442
0.640444
0.640447
0.640449
0.640451
0.640451
0.640454
0.640456
0.640458
0.64046
0.64046
0.640463
0.640465
0.640467
0.64047
0.64047
0.640472
0.640474
0.640477
0.640479
0.640479
0.640481
0.640484
0.640486
0.640488
0.640488
0.640491
0.640493
0.640495
0.640498
0.640498
0.6405
0.640503
0.640505
0.640507
0.640507
0.64051
0.640512
0.640515
0.640517
0.640517
0.640519
0.640522
0.640524
0.640527
0.640527
0.640529
0.640531
0.640534
0.640536
0.640536
0.640539
0.640541
0.640544
0.640546
0.640546
0.640548
0.640551
0.640553
0.640556
0.640556
0.640558
0.640561
0.640563
0.640566
0.640566
0.640568
0.640571
0.640573
0.640576
0.640576
0.640578
0.640581
0.640583
0.640585
0.640585
0.640588
0.64059
0.640593
0.640596
0.640596
0.640598
0.640601
0.640603
0.640606
0.640606
0.640608
0.640611
0.640613
0.640616
0.640616
0.640618
0.640621
0.640624
0.640626
0.640626
0.640629
0.640631
0.640634
0.640636
0.640636
0.640639
0.640642
0.640644
0.640647
0.640647
0.64065
0.640652
0.640655
0.640657
0.640657
0.64066
0.640663
0.640665
0.640668
0.640668
0.640671
0.640673
0.640676
0.640679
0.640679
0.640681
0.640684
0.640687
0.640689
0.640689
0.640692
0.640695
0.640697
0.6407
0.6407
0.640703
0.640705
0.640708
0.640711
0.640711
0.640713
0.640716
0.640719
0.640722
0.640722
0.640724
0.640727
0.64073
0.640732
0.640732
0.640735
0.640738
0.640741
0.640743
0.640743
0.640746
0.640749
0.640752
0.640754
0.640754
0.640757
0.64076
0.640763
0.640766
0.640766
0.640768
0.640771
0.640774
0.640777
0.640777
0.640779
0.640782
0.640785
0.640788
0.640788
0.640791
0.640794
0.640796
0.640799
0.640799
0.640802
0.640805
0.640808
0.640811
0.640811
0.640813
0.640816
0.640819
0.640822
0.640822
0.640825
0.640828
0.640831
0.640833
0.640833
0.640836
0.640839
0.640842
0.640845
0.640845
0.640848
0.640851
0.640854
0.640857
0.640857
0.640859
0.640862
0.640865
0.640868
0.640868
0.640871
0.640874
0.640877
0.64088
0.64088
0.640883
0.640886
0.640889
0.640892
0.640892
0.640895
0.640898
0.640901
0.640904
0.640904
0.640907
0.64091
0.640913
0.640916
0.640916
0.640919
0.640922
0.640925
0.640928
0.640928
0.640931
0.640934
0.640937
0.64094
0.64094
0.640943
0.640946
0.640949
0.640952
0.640952
0.640955
0.640958
0.640961
0.640964
0.640964
0.640967
0.64097
0.640973
0.640976
0.640976
0.640979
0.640982
0.640985
0.640988
0.640988
0.640992
0.640995
0.640998
0.641001
0.641001
0.641004
0.641007
0.64101
0.641013
0.641013
0.641016
0.64102
0.641023
0.641026
0.641026
0.641029
0.641032
0.641035
0.641038
0.641038
0.641042
0.641045
0.641048
0.641051
0.641051
0.641054
0.641057
0.641061
0.641064
0.641064
0.641067
0.64107
0.641073
0.641076
0.641076
0.64108
0.641083
0.641086
0.641089
0.641089
0.641092
0.641096
0.641099
0.641102
0.641102
0.641105
0.641109
0.641112
0.641115
0.641115
0.641118
0.641122
0.641125
0.641128
0.641128
0.641131
0.641135
0.641138
0.641141
0.641141
0.641144
0.641148
0.641151
0.641154
0.641154
0.641157
0.641161
0.641164
0.641167
0.641167
0.641171
0.641174
0.641177
0.641181
0.641181
0.641184
0.641187
0.641191
0.641194
0.641194
0.641197
0.641201
0.641204
0.641208
0.641208
0.641211
0.641214
0.641218
0.641221
0.641221
0.641224
0.641228
0.641231
0.641235
0.641235
0.641238
0.641241
0.641245
0.641248
0.641248
0.641252
0.641255
0.641259
0.641262
0.641262
0.641265
0.641269
0.641272
0.641276
0.641276
0.641279
0.641283
0.641286
0.64129
0.64129
0.641293
0.641296
0.6413
0.641303
0.641303
0.641307
0.64131
0.641314
0.641317
0.641317
0.641321
0.641324
0.641328
0.641331
0.641331
0.641335
0.641338
0.641342
0.641345
0.641345
0.641349
0.641353
0.641356
0.64136
0.64136
0.641363
0.641367
0.64137
0.641374
0.641374
0.641377
0.641381
0.641384
0.641388
0.641388
0.641392
0.641395
0.641399
0.641402
0.641402
0.641406
0.64141
0.641413
0.641417
0.641417
0.64142
0.641424
0.641428
0.641431
0.641431
0.641435
0.641439
0.641442
0.641446
0.641446
0.641449
0.641453
0.641457
0.64146
0.64146
0.641464
0.641468
0.641471
0.641475
0.641475
0.641479
0.641482
0.641486
0.64149
0.64149
0.641493
0.641497
0.641501
0.641505
0.641505
0.641508
0.641512
0.641516
0.641519
0.641519
0.641523
0.641527
0.641531
0.641534
0.641534
0.641538
0.641542
0.641546
0.641549
0.641549
0.641553
0.641557
0.641561
0.641564
0.641564
0.641568
0.641572
0.641576
0.64158
0.64158
0.641583
0.641587
0.641591
0.641595
0.641595
0.641599
0.641602
0.641606
0.64161
0.64161
0.641614
0.641618
0.641621
0.641625
0.641625
0.641629
0.641633
0.641637
0.641641
0.641641
0.641644
0.641648
0.641652
0.641656
0.641656
0.64166
0.641664
0.641668
0.641672
0.641672
0.641675
0.641679
0.641683
0.641687
0.641687
0.641691
0.641695
0.641699
0.641703
0.641703
0.641707
0.64171
0.641714
0.641718
0.641718
0.641722
0.641726
0.64173
0.641734
0.641734
0.641738
0.641742
0.641746
0.64175
0.64175
0.641754
0.641758
0.641762
0.641766
0.641766
0.64177
0.641774
0.641778
0.641782
0.641782
0.641786
0.64179
0.641794
0.641798
0.641798
0.641802
0.641806
0.64181
0.641814
0.641814
0.641818
0.641822
0.641826
0.641831
0.641831
0.641835
0.641839
0.641843
0.641847
0.641847
0.641851
0.641855
0.641859
0.641863
0.641863
0.641867
0.641871
0.641875
0.64188
0.64188
0.641884
0.641888
0.641892
0.641896
0.641896
0.6419
0.641904
0.641908
0.641913
0.641913
0.641917
0.641921
0.641925
0.641929
0.641929
0.641933
0.641937
0.641942
0.641946
0.641946
0.64195
0.641954
0.641958
0.641962
0.641962
0.641967
0.641971
0.641975
0.641979
0.641979
0.641983
0.641988
0.641992
0.641996
0.641996
0.642
0.642005
0.642009
0.642013
0.642013
0.642017
0.642022
0.642026
0.64203
0.64203
0.642034
0.642039
0.642043
0.642047
0.642047
0.642051
0.642056
0.64206
0.642064
0.642064
0.642069
0.642073
0.642077
0.642081
0.642081
0.642086
0.64209
0.642094
0.642099
0.642099
0.642103
0.642107
0.642112
0.642116
0.642116
0.64212
0.642125
0.642129
0.642133
0.642133
0.642138
0.642142
0.642147
0.642151
0.642151
0.642155
0.64216
0.642164
0.642168
0.642168
0.642173
0.642177
0.642182
0.642186
0.642186
0.64219
0.642195
0.642199
0.642204
0.642204
0.642208
0.642213
0.642217
0.642221
0.642221
0.642226
0.64223
0.642235
0.642239
0.642239
0.642244
0.642248
0.642253
0.642257
0.642257
0.642261
0.642266
0.64227
0.642275
0.642275
0.642279
0.642284
0.642288
0.642293
0.642293
0.642297
0.642302
0.642306
0.642311
0.642311
0.642315
0.64232
0.642324
0.642329
0.642329
0.642334
0.642338
0.642343
0.642347
0.642347
0.642352
0.642357
0.642361
0.642366
0.642366
0.64237
0.642375
0.642379
0.642384
0.642384
0.642389
0.642393
0.642398
0.642403
0.642403
0.642407
0.642412
0.642416
0.642421
0.642421
0.642426
0.64243
0.642435
0.64244
0.64244
0.642444
0.642449
0.642454
0.642458
0.642458
0.642463
0.642468
0.642472
0.642477
0.642477
0.642482
0.642486
0.642491
0.642496
0.642496
0.642501
0.642505
0.64251
0.642515
0.642515
0.642519
0.642524
0.642529
0.642534
0.642534
0.642538
0.642543
0.642548
0.642553
0.642553
0.642557
0.642562
0.642567
0.642572
0.642572
0.642576
0.642581
0.642586
0.642591
0.642591
0.642595
0.6426
0.642605
0.64261
0.64261
0.642615
0.642619
0.642624
0.642629
0.642629
0.642634
0.642639
0.642644
0.642648
0.642648
0.642653
0.642658
0.642663
0.642668
0.642668
0.642673
0.642678
0.642682
0.642687
0.642687
0.642692
0.642697
0.642702
0.642707
0.642707
0.642712
0.642717
0.642721
0.642726
0.642726
0.642731
0.642736
0.642741
0.642746
0.642746
0.642751
0.642756
0.642761
0.642766
0.642766
0.642771
0.642776
0.642781
0.642786
0.642786
0.642791
0.642795
0.6428
0.642805
0.642805
0.64281
0.642815
0.64282
0.642825
0.642825
0.64283
0.642835
0.64284
0.642845
0.642845
0.64285
0.642855
0.64286
0.642865
0.642865
0.64287
0.642875
0.64288
0.642885
0.642885
0.64289
0.642895
0.6429
0.642905
0.642905
0.642911
0.642916
0.642921
0.642926
0.642926
0.642931
0.642936
0.642941
0.642946
0.642946
0.642951
0.642957
0.642962
0.642967
0.642967
0.642972
0.642977
0.642982
0.642987
0.642987
0.642993
0.642998
0.643003
0.643008
0.643008
0.643013
0.643018
0.643023
0.643029
0.643029
0.643034
0.643039
0.643044
0.643049
0.643049
0.643055
0.64306
0.643065
0.64307
0.64307
0.643075
0.643081
0.643086
0.643091
0.643091
0.643096
0.643102
0.643107
0.643112
0.643112
0.643117
0.643122
0.643128
0.643133
0.643133
0.643138
0.643144
0.643149
0.643154
0.643154
0.643159
0.643165
0.64317
0.643175
0.643175
0.64318
0.643186
0.643191
0.643196
0.643196
0.643202
0.643207
0.643212
0.643218
0.643218
0.643223
0.643228
0.643234
0.643239
0.643239
0.643244
0.64325
0.643255
0.64326
0.64326
0.643266
0.643271
0.643277
0.643282
0.643282
0.643287
0.643293
0.643298
0.643303
0.643303
0.643309
0.643314
0.64332
0.643325
0.643325
0.643331
0.643336
0.643341
0.643347
0.643347
0.643352
0.643358
0.643363
0.643369
0.643369
0.643374
0.643379
0.643385
0.64339
0.64339
0.643396
0.643401
0.643407
0.643412
0.643412
0.643418
0.643423
0.643429
0.643434
0.643434
0.64344
0.643445
0.643451
0.643456
0.643456
0.643462
0.643467
0.643473
0.643478
0.643478
0.643484
0.643489
0.643495
0.6435
0.6435
0.643506
0.643511
0.643517
0.643523
0.643523
0.643528
0.643534
0.643539
0.643545
0.643545
0.643551
0.643556
0.643562
0.643568
0.643568
0.643573
0.643579
0.643584
0.64359
0.64359
0.643596
0.643601
0.643607
0.643613
0.643613
0.643618
0.643624
0.64363
0.643635
0.643635
0.643641
0.643647
0.643652
0.643658
0.643658
0.643664
0.64367
0.643675
0.643681
0.643681
0.643687
0.643692
0.643698
0.643704
0.643704
0.64371
0.643715
0.643721
0.643727
0.643727
0.643732
0.643738
0.643744
0.64375
0.64375
0.643756
0.643761
0.643767
0.643773
0.643773
0.643779
0.643784
0.64379
0.643796
0.643796
0.643802
0.643808
0.643813
0.643819
0.643819
0.643825
0.643831
0.643837
0.643842
0.643842
0.643848
0.643854
0.64386
0.643866
0.643866
0.643872
0.643878
0.643883
0.643889
0.643889
0.643895
0.643901
0.643907
0.643913
0.643913
0.643919
0.643924
0.64393
0.643936
0.643936
0.643942
0.643948
0.643954
0.64396
0.64396
0.643966
0.643972
0.643978
0.643984
0.643984
0.64399
0.643995
0.644001
0.644007
0.644007
0.644013
0.644019
0.644025
0.644031
0.644031
0.644037
0.644043
0.644049
0.644055
0.644055
0.644061
0.644067
0.644073
0.644079
0.644079
0.644085
0.644091
0.644097
0.644103
0.644103
0.644109
0.644115
0.644121
0.644127
0.644127
0.644133
0.644139
0.644145
0.644151
0.644151
0.644157
0.644164
0.64417
0.644176
0.644176
0.644182
0.644188
0.644194
0.6442
0.6442
0.644206
0.644212
0.644219
0.644225
0.644225
0.644231
0.644237
0.644243
0.644249
0.644249
0.644255
0.644262
0.644268
0.644274
0.644274
0.64428
0.644286
0.644292
0.644299
0.644299
0.644305
0.644311
0.644317
0.644323
0.644323
0.64433
0.644336
0.644342
0.644348
0.644348
0.644354
0.644361
0.644367
0.644373
0.644373
0.644379
0.644386
0.644392
0.644398
0.644398
0.644404
0.644411
0.644417
0.644423
0.644423
0.644429
0.644436
0.644442
0.644448
0.644448
0.644455
0.644461
0.644467
0.644473
0.644473
0.64448
0.644486
0.644492
0.644499
0.644499
0.644505
0.644511
0.644518
0.644524
0.644524
0.64453
0.644537
0.644543
0.644549
0.644549
0.644556
0.644562
0.644569
0.644575
0.644575
0.644581
0.644588
0.644594
0.6446
0.6446
0.644607
0.644613
0.64462
0.644626
0.644626
0.644632
0.644639
0.644645
0.644652
0.644652
0.644658
0.644665
0.644671
0.644677
0.644677
0.644684
0.64469
0.644697
0.644703
0.644703
0.64471
0.644716
0.644722
0.644729
0.644729
0.644735
0.644742
0.644748
0.644755
0.644755
0.644762
0.644768
0.644775
0.644781
0.644781
0.644788
0.644794
0.644801
0.644807
0.644807
0.644814
0.644821
0.644827
0.644834
0.644834
0.64484
0.644847
0.644854
0.64486
0.64486
0.644867
0.644873
0.64488
0.644887
0.644887
0.644893
0.6449
0.644906
0.644913
0.644913
0.64492
0.644926
0.644933
0.64494
0.64494
0.644946
0.644953
0.64496
0.644966
0.644966
0.644973
0.64498
0.644986
0.644993
0.644993
0.645
0.645006
0.645013
0.64502
0.64502
0.645026
0.645033
0.64504
0.645047
0.645047
0.645053
0.64506
0.645067
0.645073
0.645073
0.64508
0.645087
0.645094
0.6451
0.6451
0.645107
0.645114
0.645121
0.645128
0.645128
0.645134
0.645141
0.645148
0.645155
0.645155
0.645161
0.645168
0.645175
0.645182
0.645182
0.645189
0.645195
0.645202
0.645209
0.645209
0.645216
0.645223
0.64523
0.645236
0.645236
0.645243
0.64525
0.645257
0.645264
0.645264
0.645271
0.645278
0.645284
0.645291
0.645291
0.645298
0.645305
0.645312
0.645319
0.645319
0.645326
0.645333
0.645339
0.645346
0.645346
0.645353
0.64536
0.645367
0.645374
0.645374
0.645381
0.645388
0.645395
0.645402
0.645402
0.645409
0.645416
0.645423
0.64543
0.64543
0.645437
0.645444
0.645451
0.645458
0.645458
0.645465
0.645472
0.645479
0.645486
0.645486
0.645493
0.6455
0.645507
0.645514
0.645514
0.645521
0.645529
0.645536
0.645543
0.645543
0.64555
0.645557
0.645564
0.645571
0.645571
0.645578
0.645585
0.645592
0.645599
0.645599
0.645606
0.645614
0.645621
0.645628
0.645628
0.645635
0.645642
0.645649
0.645656
0.645656
0.645664
0.645671
0.645678
0.645685
0.645685
0.645692
0.645699
0.645706
0.645714
0.645714
0.645721
0.645728
0.645735
0.645742
0.645742
0.64575
0.645757
0.645764
0.645771
0.645771
0.645778
0.645786
0.645793
0.6458
0.6458
0.645807
0.645815
0.645822
0.645829
0.645829
0.645836
0.645844
0.645851
0.645858
0.645858
0.645865
0.645873
0.64588
0.645887
0.645887
0.645894
0.645902
0.645909
0.645916
0.645916
0.645924
0.645931
0.645938
0.645946
0.645946
0.645953
0.64596
0.645967
0.645975
0.645975
0.645982
0.645989
0.645997
0.646004
0.646004
0.646012
0.646019
0.646026
0.646034
0.646034
0.646041
0.646049
0.646056
0.646064
0.646064
0.646071
0.646078
0.646086
0.646093
0.646093
0.646101
0.646108
0.646116
0.646123
0.646123
0.646131
0.646138
0.646146
0.646153
0.646153
0.646161
0.646168
0.646176
0.646183
0.646183
0.646191
0.646198
0.646206
0.646213
0.646213
0.646221
0.646228
0.646236
0.646243
0.646243
0.646251
0.646258
0.646266
0.646273
0.646273
0.646281
0.646289
0.646296
0.646304
0.646304
0.646311
0.646319
0.646326
0.646334
0.646334
0.646342
0.646349
0.646357
0.646364
0.646364
0.646372
0.64638
0.646387
0.646395
0.646395
0.646403
0.64641
0.646418
0.646425
0.646425
0.646433
0.646441
0.646448
0.646456
0.646456
0.646464
0.646471
0.646479
0.646487
0.646487
0.646494
0.646502
0.64651
0.646517
0.646517
0.646525
0.646533
0.646541
0.646548
0.646548
0.646556
0.646564
0.646571
0.646579
0.646579
0.646587
0.646595
0.646602
0.64661
0.64661
0.646618
0.646626
0.646633
0.646641
0.646641
0.646649
0.646657
0.646664
0.646672
0.646672
0.64668
0.646688
0.646696
0.646704
0.646704
0.646712
0.646719
0.646727
0.646735
0.646735
0.646743
0.646751
0.646759
0.646767
0.646767
0.646775
0.646783
0.64679
0.646798
0.646798
0.646806
0.646814
0.646822
0.64683
0.64683
0.646838
0.646846
0.646854
0.646862
0.646862
0.64687
0.646878
0.646886
0.646894
0.646894
0.646901
0.646909
0.646917
0.646925
0.646925
0.646933
0.646941
0.646949
0.646957
0.646957
0.646965
0.646973
0.646981
0.646989
0.646989
0.646997
0.647005
0.647013
0.647021
0.647021
0.647029
0.647038
0.647046
0.647054
0.647054
0.647062
0.64707
0.647078
0.647086
0.647086
0.647094
0.647102
0.64711
0.647118
0.647118
0.647126
0.647134
0.647142
0.647151
0.647151
0.647159
0.647167
0.647175
0.647183
0.647183
0.647191
0.647199
0.647207
0.647215
0.647215
0.647224
0.647232
0.64724
0.647248
0.647248
0.647256
0.647264
0.647272
0.647281
0.647281
0.647289
0.647297
0.647305
0.647313
0.647313
0.647322
0.64733
0.647338
0.647346
0.647346
0.647355
0.647363
0.647371
0.647379
0.647379
0.647388
0.647396
0.647404
0.647413
0.647413
0.647421
0.647429
0.647438
0.647446
0.647446
0.647454
0.647463
0.647471
0.647479
0.647479
0.647488
0.647496
0.647504
0.647513
0.647513
0.647521
0.647529
0.647538
0.647546
0.647546
0.647554
0.647563
0.647571
0.647579
0.647579
0.647588
0.647596
0.647605
0.647613
0.647613
0.647621
0.64763
0.647638
0.647647
0.647647
0.647655
0.647664
0.647672
0.64768
0.64768
0.647689
0.647697
0.647706
0.647714
0.647714
0.647723
0.647731
0.64774
0.647748
0.647748
0.647757
0.647765
0.647774
0.647782
0.647782
0.647791
0.647799
0.647808
0.647816
0.647816
0.647825
0.647833
0.647842
0.64785
0.64785
0.647859
0.647867
0.647876
0.647884
0.647884
0.647893
0.647901
0.64791
0.647918
0.647918
0.647927
0.647936
0.647944
0.647953
0.647953
0.647961
0.64797
0.647979
0.647987
0.647987
0.647996
0.648005
0.648013
0.648022
0.648022
0.648031
0.648039
0.648048
0.648057
0.648057
0.648065
0.648074
0.648083
0.648092
0.648092
0.6481
0.648109
0.648118
0.648126
0.648126
0.648135
0.648144
0.648153
0.648161
0.648161
0.64817
0.648179
0.648188
0.648196
0.648196
0.648205
0.648214
0.648223
0.648232
0.648232
0.64824
0.648249
0.648258
0.648267
0.648267
0.648275
0.648284
0.648293
0.648302
0.648302
0.648311
0.64832
0.648328
0.648337
0.648337
0.648346
0.648355
0.648364
0.648373
0.648373
0.648382
0.64839
0.648399
0.648408
0.648408
0.648417
0.648426
0.648435
0.648444
0.648444
0.648453
0.648461
0.64847
0.648479
0.648479
0.648488
0.648497
0.648506
0.648515
0.648515
0.648524
0.648533
0.648542
0.648551
0.648551
0.64856
0.648569
0.648578
0.648586
0.648586
0.648595
0.648604
0.648613
0.648622
0.648622
0.648631
0.64864
0.648649
0.648658
0.648658
0.648667
0.648677
0.648686
0.648695
0.648695
0.648704
0.648713
0.648722
0.648731
0.648731
0.64874
0.648749
0.648758
0.648768
0.648768
0.648777
0.648786
0.648795
0.648804
0.648804
0.648813
0.648822
0.648832
0.648841
0.648841
0.64885
0.648859
0.648868
0.648877
0.648877
0.648886
0.648896
0.648905
0.648914
0.648914
0.648923
0.648932
0.648942
0.648951
0.648951
0.64896
0.648969
0.648978
0.648988
0.648988
0.648997
0.649006
0.649015
0.649025
0.649025
0.649034
0.649043
0.649052
0.649062
0.649062
0.649071
0.64908
0.649089
0.649099
0.649099
0.649108
0.649117
0.649127
0.649136
0.649136
0.649145
0.649155
0.649164
0.649173
0.649173
0.649182
0.649192
0.649201
0.64921
0.64921
0.64922
0.649229
0.649238
0.649248
0.649248
0.649257
0.649266
0.649276
0.649285
0.649285
0.649295
0.649304
0.649313
0.649323
0.649323
0.649332
0.649342
0.649351
0.649361
0.649361
0.64937
0.64938
0.649389
0.649399
0.649399
0.649408
0.649418
0.649427
0.649437
0.649437
0.649446
0.649456
0.649465
0.649475
0.649475
0.649484
0.649494
0.649503
0.649513
0.649513
0.649522
0.649532
0.649541
0.649551
0.649551
0.649561
0.64957
0.64958
0.649589
0.649589
0.649599
0.649609
0.649618
0.649628
0.649628
0.649637
0.649647
0.649657
0.649666
0.649666
0.649676
0.649685
0.649695
0.649705
0.649705
0.649714
0.649724
0.649734
0.649743
0.649743
0.649753
0.649763
0.649772
0.649782
0.649782
0.649792
0.649801
0.649811
0.649821
0.649821
0.64983
0.64984
0.64985
0.649859
0.649859
0.649869
0.649879
0.649889
0.649898
0.649898
0.649908
0.649918
0.649928
0.649937
0.649937
0.649947
0.649957
0.649967
0.649976
0.649976
0.649986
0.649996
0.650006
0.650015
0.650015
0.650025
0.650035
0.650045
0.650055
0.650055
0.650065
0.650075
0.650085
0.650094
0.650094
0.650104
0.650114
0.650124
0.650134
0.650134
0.650144
0.650154
0.650164
0.650174
0.650174
0.650184
0.650194
0.650204
0.650213
0.650213
0.650223
0.650233
0.650243
0.650253
0.650253
0.650263
0.650273
0.650283
0.650293
0.650293
0.650303
0.650313
0.650323
0.650333
0.650333
0.650343
0.650353
0.650363
0.650373
0.650373
0.650383
0.650393
0.650403
0.650413
0.650413
0.650423
0.650433
0.650443
0.650454
0.650454
0.650464
0.650474
0.650484
0.650494
0.650494
0.650504
0.650514
0.650524
0.650534
0.650534
0.650544
0.650554
0.650564
0.650574
0.650574
0.650585
0.650595
0.650605
0.650615
0.650615
0.650625
0.650635
0.650645
0.650655
0.650655
0.650666
0.650676
0.650686
0.650696
0.650696
0.650706
0.650717
0.650727
0.650737
0.650737
0.650747
0.650758
0.650768
0.650778
0.650778
0.650788
0.650799
0.650809
0.650819
0.650819
0.65083
0.65084
0.65085
0.650861
0.650861
0.650871
0.650881
0.650892
0.650902
0.650902
0.650912
0.650923
0.650933
0.650943
0.650943
0.650954
0.650964
0.650974
0.650985
0.650985
0.650995
0.651005
0.651016
0.651026
0.651026
0.651037
0.651047
0.651057
0.651068
0.651068
0.651078
0.651089
0.651099
0.651109
0.651109
0.65112
0.65113
0.651141
0.651151
0.651151
0.651162
0.651172
0.651183
0.651193
0.651193
0.651203
0.651214
0.651224
0.651235
0.651235
0.651245
0.651256
0.651266
0.651277
0.651277
0.651287
0.651298
0.651308
0.651319
0.651319
0.651329
0.65134
0.65135
0.651361
0.651361
0.651371
0.651382
0.651393
0.651403
0.651403
0.651414
0.651424
0.651435
0.651446
0.651446
0.651456
0.651467
0.651478
0.651488
0.651488
0.651499
0.65151
0.65152
0.651531
0.651531
0.651542
0.651553
0.651563
0.651574
0.651574
0.651585
0.651595
0.651606
0.651617
0.651617
0.651628
0.651638
0.651649
0.65166
0.65166
0.65167
0.651681
0.651692
0.651703
0.651703
0.651714
0.651724
0.651735
0.651746
0.651746
0.651757
0.651767
0.651778
0.651789
0.651789
0.6518
0.651811
0.651821
0.651832
0.651832
0.651843
0.651854
0.651865
0.651876
0.651876
0.651886
0.651897
0.651908
0.651919
0.651919
0.65193
0.651941
0.651951
0.651962
0.651962
0.651973
0.651984
0.651995
0.652006
0.652006
0.652017
0.652028
0.652039
0.652049
0.652049
0.65206
0.652071
0.652082
0.652093
0.652093
0.652104
0.652115
0.652126
0.652137
0.652137
0.652148
0.652159
0.65217
0.652181
0.652181
0.652192
0.652203
0.652214
0.652226
0.652226
0.652237
0.652248
0.652259
0.65227
0.65227
0.652281
0.652292
0.652303
0.652314
0.652314
0.652325
0.652336
0.652348
0.652359
0.652359
0.65237
0.652381
0.652392
0.652403
0.652403
0.652414
0.652426
0.652437
0.652448
0.652448
0.652459
0.65247
0.652481
0.652493
0.652493
0.652504
0.652515
0.652526
0.652537
0.652537
0.652548
0.65256
0.652571
0.652582
0.652582
0.652593
0.652605
0.652616
0.652627
0.652627
0.652638
0.652649
0.652661
0.652672
0.652672
0.652683
0.652694
0.652706
0.652717
0.652717
0.652728
0.65274
0.652751
0.652762
0.652762
0.652773
0.652785
0.652796
0.652807
0.652807
0.652819
0.65283
0.652842
0.652853
0.652853
0.652864
0.652876
0.652887
0.652899
0.652899
0.65291
0.652921
0.652933
0.652944
0.652944
0.652956
0.652967
0.652979
0.65299
0.65299
0.653002
0.653013
0.653025
0.653036
0.653036
0.653048
0.653059
0.653071
0.653082
0.653082
0.653094
0.653105
0.653117
0.653128
0.653128
0.65314
0.653151
0.653163
0.653174
0.653174
0.653186
0.653197
0.653209
0.653221
0.653221
0.653232
0.653244
0.653255
0.653267
0.653267
0.653278
0.65329
0.653302
0.653313
0.653313
0.653325
0.653336
0.653348
0.65336
0.65336
0.653371
0.653383
0.653394
0.653406
0.653406
0.653418
0.653429
0.653441
0.653453
0.653453
0.653464
0.653476
0.653488
0.653499
0.653499
0.653511
0.653523
0.653535
0.653546
0.653546
0.653558
0.65357
0.653582
0.653593
0.653593
0.653605
0.653617
0.653629
0.653641
0.653641
0.653653
0.653664
0.653676
0.653688
0.653688
0.6537
0.653712
0.653724
0.653735
0.653735
0.653747
0.653759
0.653771
0.653783
0.653783
0.653795
0.653807
0.653819
0.65383
0.65383
0.653842
0.653854
0.653866
0.653878
0.653878
0.65389
0.653902
0.653914
0.653926
0.653926
0.653938
0.65395
0.653962
0.653974
0.653974
0.653986
0.653997
0.654009
0.654021
0.654021
0.654033
0.654045
0.654057
0.654069
0.654069
0.654081
0.654093
0.654105
0.654117
0.654117
0.654129
0.654141
0.654153
0.654165
0.654165
0.654177
0.654189
0.654201
0.654214
0.654214
0.654226
0.654238
0.65425
0.654262
0.654262
0.654274
0.654286
0.654298
0.654311
0.654311
0.654323
0.654335
0.654347
0.654359
0.654359
0.654372
0.654384
0.654396
0.654408
0.654408
0.65442
0.654433
0.654445
0.654457
0.654457
0.654469
0.654482
0.654494
0.654506
0.654506
0.654518
0.654531
0.654543
0.654555
0.654555
0.654567
0.65458
0.654592
0.654604
0.654604
0.654617
0.654629
0.654641
0.654653
0.654653
0.654666
0.654678
0.65469
0.654703
0.654703
0.654715
0.654727
0.65474
0.654752
0.654752
0.654764
0.654777
0.654789
0.654801
0.654801
0.654814
0.654826
0.654839
0.654851
0.654851
0.654863
0.654876
0.654888
0.6549
0.6549
0.654913
0.654925