<?xml version="1.0"?>
<VTKFile type="UnstructuredGrid" version="0.1" byte_order="LittleEndian">
<UnstructuredGrid>
<Piece NumberOfPoints="5000" NumberOfCells="4000">
<PointData Scalars="Reaction 0">
<DataArray type="Float32" Name="Reaction 0" format="ascii">
0.694682
0.694682
0.694682
0.694682
0.694682
0.694682
0.694682
0.694682
0.694682
0.694682
0.694682
0.694682
0.694682
0.694682
0.694682
0.694682
0.694682
0.694682
0.694683
0.694683
0.694683
0.694683
0.694683
0.694683
0.694683
0.694683
0.694683
0.694683
0.694684
0.694684
0.694684
0.694684
0.694684
0.694684
0.694684
0.694684
0.694685
0.694685
0.694685
0.694685
0.694685
0.694685
0.694685
0.694686
0.694686
0.694686
0.694686
0.694686
0.694687
0.694687
0.694687
0.694687
0.694687
0.694688
0.694688
0.694688
0.694688
0.694689
0.694689
0.694689
0.694689
0.694689
0.69469
0.69469
0.69469
0.69469
0.694691
0.694691
0.694691
0.694692
0.694692
0.694692
0.694692
0.694693
0.694693
0.694693
0.694694
0.694694
0.694694
0.694695
0.694695
0.694695
0.694696
0.694696
0.694696
0.694696
0.694697
0.694697
0.694698
0.694698
0.694698
0.694699
0.694699
0.6947
0.6947
0.6947
0.6947
0.694701
0.694701
0.694702
0.694702
0.694702
0.694703
0.694703
0.694704
0.694704
0.694705
0.694705
0.694706
0.694706
0.694706
0.694707
0.694707
0.694708
0.694708
0.694708
0.694709
0.69471
0.69471
0.694711
0.694711
0.694711
0.694712
0.694713
0.694713
0.694713
0.694714
0.694715
0.694715
0.694716
0.694716
0.694716
0.694717
0.694718
0.694718
0.694718
0.694719
0.69472
0.694721
0.694721
0.694721
0.694722
0.694723
0.694723
0.694724
0.694724
0.694725
0.694726
0.694726
0.694727
0.694727
0.694728
0.694729
0.694729
0.69473
0.69473
0.694731
0.694732
0.694733
0.694733
0.694733
0.694734
0.694735
0.694736
0.694737
0.694737
0.694737
0.694738
0.694739
0.69474
0.69474
0.694741
0.694742
0.694743
0.694743
0.694743
0.694744
0.694745
0.694746
0.694747
0.694747
0.694748
0.694749
0.69475
0.694751
0.694751
0.694752
0.694753
0.694753
0.694754
0.694754
0.694755
0.694756
0.694757
0.694758
0.694758
0.694759
0.69476
0.694761
0.694762
0.694762
0.694763
0.694764
0.694765
0.694766
0.694766
0.694767
0.694768
0.694769
0.69477
0.69477
0.694772
0.694773
0.694774
0.694775
0.694775
0.694776
0.694777
0.694778
0.694779
0.694779
0.69478
0.694781
0.694782
0.694784
0.694784
0.694785
0.694786
0.694787
0.694788
0.694788
0.694789
0.694791
0.694792
0.694793
0.694793
0.694794
0.694795
0.694796
0.694798
0.694798
0.694799
0.6948
0.694801
0.694803
0.694803
0.694804
0.694805
0.694806
0.694807
0.694807
0.694809
0.69481
0.694811
0.694813
0.694813
0.694814
0.694815
0.694816
0.694818
0.694818
0.694819
0.69482
0.694822
0.694823
0.694823
0.694824
0.694826
0.694827
0.694828
0.694828
0.69483
0.694831
0.694832
0.694834
0.694834
0.694835
0.694837
0.694838
0.694839
0.694839
0.694841
0.694842
0.694844
0.694845
0.694845
0.694847
0.694848
0.694849
0.694851
0.694851
0.694852
0.694854
0.694855
0.694857
0.694857
0.694858
0.69486
0.694861
0.694863
0.694863
0.694864
0.694866
0.694867
0.694869
0.694869
0.69487
0.694872
0.694873
0.694875
0.694875
0.694877
0.694878
0.69488
0.694881
0.694881
0.694883
0.694885
0.694886
0.694888
0.694888
0.694889
0.694891
0.694893
0.694894
0.694894
0.694896
0.694897
0.694899
0.694901
0.694901
0.694902
0.694904
0.694906
0.694907
0.694907
0.694909
0.694911
0.694913
0.694914
0.694914
0.694916
0.694918
0.694919
0.694921
0.694921
0.694923
0.694925
0.694926
0.694928
0.694928
0.69493
0.694932
0.694933
0.694935
0.694935
0.694937
0.694939
0.694941
0.694942
0.694942
0.694944
0.694946
0.694948
0.69495
0.69495
0.694952
0.694953
0.694955
0.694957
0.694957
0.694959
0.694961
0.694963
0.694965
0.694965
0.694966
0.694968
0.69497
0.694972
0.694972
0.694974
0.694976
0.694978
0.69498
0.69498
0.694982
0.694984
0.694986
0.694988
0.694988
0.69499
0.694992
0.694994
0.694996
0.694996
0.694998
0.695
0.695002
0.695004
0.695004
0.695006
0.695008
0.69501
0.695012
0.695012
0.695014
0.695016
0.695018
0.69502
0.69502
0.695022
0.695024
0.695026
0.695028
0.695028
0.69503
0.695032
0.695034
0.695037
0.695037
0.695039
0.695041
0.695043
0.695045
0.695045
0.695047
0.695049
0.695052
0.695054
0.695054
0.695056
0.695058
0.69506
0.695062
0.695062
0.695065
0.695067
0.695069
0.695071
0.695071
0.695073
0.695076
0.695078
0.69508
0.69508
0.695082
0.695085
0.695087
0.695089
0.695089
0.695091
0.695094
0.695096
0.695098
0.695098
0.6951
0.695103
0.695105
0.695107
0.695107
0.69511
0.695112
0.695114
0.695117
0.695117
0.695119
0.695121
0.695124
0.695126
0.695126
0.695128
0.695131
0.695133
0.695136
0.695136
0.695138
0.69514
0.695143
0.695145
0.695145
0.695148
0.69515
0.695152
0.695155
0.695155
0.695157
0.69516
0.695162
0.695165
0.695165
0.695167
0.69517
0.695172
0.695175
0.695175
0.695177
0.69518
0.695182
0.695185
0.695185
0.695187
0.69519
0.695192
0.695195
0.695195
0.695197
0.6952
0.695202
0.695205
0.695205
0.695208
0.69521
0.695213
0.695215
0.695215
0.695218
0.695221
0.695223
0.695226
0.695226
0.695228
0.695231
0.695234
0.695236
0.695236
0.695239
0.695242
0.695244
0.695247
0.695247
0.69525
0.695252
0.695255
0.695258
0.695258
0.69526
0.695263
0.695266
0.695269
0.695269
0.695271
0.695274
0.695277
0.695279
0.695279
0.695282
0.695285
0.695288
0.695291
0.695291
0.695293
0.695296
0.695299
0.695302
0.695302
0.695304
0.695307
0.69531
0.695313
0.695313
0.695316
0.695319
0.695321
0.695324
0.695324
0.695327
0.69533
0.695333
0.695336
0.695336
0.695339
0.695341
0.695344
0.695347
0.695347
0.69535
0.695353
0.695356
0.695359
0.695359
0.695362
0.695365
0.695368
0.695371
0.695371
0.695374
0.695376
0.695379
0.695382
0.695382
0.695385
0.695388
0.695391
0.695394
0.695394
0.695397
0.6954
0.695403
0.695406
0.695406
0.695409
0.695412
0.695416
0.695419
0.695419
0.695422
0.695425
0.695428
0.695431
0.695431
0.695434
0.695437
0.69544
0.695443
0.695443
0.695446
0.695449
0.695452
0.695456
0.695456
0.695459
0.695462
0.695465
0.695468
0.695468
0.695471
0.695474
0.695478
0.695481
0.695481
0.695484
0.695487
0.69549
0.695494
0.695494
0.695497
0.6955
0.695503
0.695506
0.695506
0.69551
0.695513
0.695516
0.695519
0.695519
0.695523
0.695526
0.695529
0.695532
0.695532
0.695536
0.695539
0.695542
0.695546
0.695546
0.695549
0.695552
0.695556
0.695559
0.695559
0.695562
0.695566
0.695569
0.695572
0.695572
0.695576
0.695579
0.695582
0.695586
0.695586
0.695589
0.695592
0.695596
0.695599
0.695599
0.695603
0.695606
0.69561
0.695613
0.695613
0.695616
0.69562
0.695623
0.695627
0.695627
0.69563
0.695634
0.695637
0.695641
0.695641
0.695644
0.695648
0.695651
0.695655
0.695655
0.695658
0.695662
0.695665
0.695669
0.695669
0.695672
0.695676
0.695679
0.695683
0.695683
0.695686
0.69569
0.695694
0.695697
0.695697
0.695701
0.695704
0.695708
0.695712
0.695712
0.695715
0.695719
0.695722
0.695726
0.695726
0.69573
0.695733
0.695737
0.695741
0.695741
0.695744
0.695748
0.695752
0.695755
0.695755
0.695759
0.695763
0.695766
0.69577
0.69577
0.695774
0.695778
0.695781
0.695785
0.695785
0.695789
0.695792
0.695796
0.6958
0.6958
0.695804
0.695808
0.695811
0.695815
0.695815
0.695819
0.695823
0.695826
0.69583
0.69583
0.695834
0.695838
0.695842
0.695846
0.695846
0.695849
0.695853
0.695857
0.695861
0.695861
0.695865
0.695869
0.695873
0.695876
0.695876
0.69588
0.695884
0.695888
0.695892
0.695892
0.695896
0.6959
0.695904
0.695908
0.695908
0.695912
0.695916
0.69592
0.695924
0.695924
0.695928
0.695931
0.695935
0.695939
0.695939
0.695943
0.695947
0.695951
0.695955
0.695955
0.695959
0.695963
0.695967
0.695972
0.695972
0.695976
0.69598
0.695984
0.695988
0.695988
0.695992
0.695996
0.696
0.696004
0.696004
0.696008
0.696012
0.696016
0.69602
0.69602
0.696024
0.696029
0.696033
0.696037
0.696037
0.696041
0.696045
0.696049
0.696053
0.696053
0.696058
0.696062
0.696066
0.69607
0.69607
0.696074
0.696079
0.696083
0.696087
0.696087
0.696091
0.696096
0.6961
0.696104
0.696104
0.696108
0.696113
0.696117
0.696121
0.696121
0.696125
0.69613
0.696134
0.696138
0.696138
0.696143
0.696147
0.696151
0.696156
0.696156
0.69616
0.696164
0.696169
0.696173
0.696173
0.696177
0.696182
0.696186
0.69619
0.69619
0.696195
0.696199
0.696204
0.696208
0.696208
0.696212
0.696217
0.696221
0.696226
0.696226
0.69623
0.696235
0.696239
0.696243
0.696243
0.696248
0.696252
0.696257
0.696261
0.696261
0.696266
0.69627
0.696275
0.696279
0.696279
0.696284
0.696288
0.696293
0.696297
0.696297
0.696302
0.696306
0.696311
0.696316
0.696316
0.69632
0.696325
0.696329
0.696334
0.696334
0.696338
0.696343
0.696348
0.696352
0.696352
0.696357
0.696361
0.696366
0.696371
0.696371
0.696375
0.69638
0.696385
0.696389
0.696389
0.696394
0.696399
0.696403
0.696408
0.696408
0.696413
0.696417
0.696422
0.696427
0.696427
0.696431
0.696436
0.696441
0.696446
0.696446
0.69645
0.696455
0.69646
0.696465
0.696465
0.696469
0.696474
0.696479
0.696484
0.696484
0.696489
0.696493
0.696498
0.696503
0.696503
0.696508
0.696513
0.696517
0.696522
0.696522
0.696527
0.696532
0.696537
0.696542
0.696542
0.696547
0.696551
0.696556
0.696561
0.696561
0.696566
0.696571
0.696576
0.696581
0.696581
0.696586
0.696591
0.696596
0.6966
0.6966
0.696605
0.69661
0.696615
0.69662
0.69662
0.696625
0.69663
0.696635
0.69664
0.69664
0.696645
0.69665
0.696655
0.69666
0.69666
0.696665
0.69667
0.696675
0.69668
0.69668
0.696685
0.69669
0.696696
0.696701
0.696701
0.696706
0.696711
0.696716
0.696721
0.696721
0.696726
0.696731
0.696736
0.696741
0.696741
0.696746
0.696752
0.696757
0.696762
0.696762
0.696767
0.696772
0.696777
0.696783
0.696783
0.696788
0.696793
0.696798
0.696803
0.696803
0.696808
0.696814
0.696819
0.696824
0.696824
0.696829
0.696834
0.69684
0.696845
0.696845
0.69685
0.696855
0.696861
0.696866
0.696866
0.696871
0.696876
0.696882
0.696887
0.696887
0.696892
0.696898
0.696903
0.696908
0.696908
0.696914
0.696919
0.696924
0.69693
0.69693
0.696935
0.69694
0.696946
0.696951
0.696951
0.696956
0.696962
0.696967
0.696973
0.696973
0.696978
0.696984
0.696989
0.696994
0.696994
0.697
0.697005
0.697011
0.697016
0.697016
0.697022
0.697027
0.697033
0.697038
0.697038
0.697044
0.697049
0.697055
0.69706
0.69706
0.697066
0.697071
0.697077
0.697082
0.697082
0.697088
0.697093
0.697099
0.697105
0.697105
0.69711
0.697116
0.697121
0.697127
0.697127
0.697132
0.697138
0.697144
0.697149
0.697149
0.697155
0.697161
0.697166
0.697172
0.697172
0.697177
0.697183
0.697189
0.697194
0.697194
0.6972
0.697206
0.697212
0.697217
0.697217
0.697223
0.697229
0.697234
0.69724
0.69724
0.697246
0.697251
0.697257
0.697263
0.697263
0.697269
0.697274
0.69728
0.697286
0.697286
0.697292
0.697298
0.697303
0.697309
0.697309
0.697315
0.697321
0.697327
0.697332
0.697332
0.697338
0.697344
0.69735
0.697356
0.697356
0.697362
0.697367
0.697373
0.697379
0.697379
0.697385
0.697391
0.697397
0.697403
0.697403
0.697409
0.697415
0.69742
0.697426
0.697426
0.697432
0.697438
0.697444
0.69745
0.69745
0.697456
0.697462
0.697468
0.697474
0.697474
0.69748
0.697486
0.697492
0.697498
0.697498
0.697504
0.69751
0.697516
0.697522
0.697522
0.697528
0.697534
0.69754
0.697546
0.697546
0.697552
0.697558
0.697564
0.69757
0.69757
0.697577
0.697583
0.697589
0.697595
0.697595
0.697601
0.697607
0.697613
0.697619
0.697619
0.697625
0.697632
0.697638
0.697644
0.697644
0.69765
0.697656
0.697662
0.697669
0.697669
0.697675
0.697681
0.697687
0.697693
0.697693
0.6977
0.697706
0.697712
0.697718
0.697718
0.697724
0.697731
0.697737
0.697743
0.697743
0.697749
0.697756
0.697762
0.697768
0.697768
0.697775
0.697781
0.697787
0.697793
0.697793
0.6978
0.697806
0.697812
0.697819
0.697819
0.697825
0.697831
0.697838
0.697844
0.697844
0.69785
0.697857
0.697863
0.69787
0.69787
0.697876
0.697882
0.697889
0.697895
0.697895
0.697902
0.697908
0.697915
0.697921
0.697921
0.697928
0.697934
0.697941
0.697947
0.697947
0.697953
0.69796
0.697967
0.697973
0.697973
0.69798
0.697986
0.697993
0.697999
0.697999
0.698006
0.698012
0.698019
0.698025
0.698025
0.698032
0.698038
0.698045
0.698052
0.698052
0.698058
0.698065
0.698071
0.698078
0.698078
0.698085
0.698091
0.698098
0.698105
0.698105
0.698111
0.698118
0.698125
0.698131
0.698131
0.698138
0.698145
0.698151
0.698158
0.698158
0.698165
0.698171
0.698178
0.698185
0.698185
0.698191
0.698198
0.698205
0.698212
0.698212
0.698218
0.698225
0.698232
0.698239
0.698239
0.698245
0.698252
0.698259
0.698266
0.698266
0.698273
0.698279
0.698286
0.698293
0.698293
0.6983
0.698307
0.698313
0.69832
0.69832
0.698327
0.698334
0.698341
0.698348
0.698348
0.698355
0.698361
0.698368
0.698375
0.698375
0.698382
0.698389
0.698396
0.698403
0.698403
0.69841
0.698417
0.698424
0.698431
0.698431
0.698438
0.698445
0.698452
0.698459
0.698459
0.698465
0.698472
0.698479
0.698486
0.698486
0.698493
0.6985
0.698507
0.698515
0.698515
0.698522
0.698529
0.698536
0.698543
0.698543
0.69855
0.698557
0.698564
0.698571
0.698571
0.698578
0.698585
0.698592
0.698599
0.698599
0.698606
0.698613
0.698621
0.698628
0.698628
0.698635
0.698642
0.698649
0.698656
0.698656
0.698663
0.698671
0.698678
0.698685
0.698685
0.698692
0.698699
0.698706
0.698714
0.698714
0.698721
0.698728
0.698735
0.698742
0.698742
0.69875
0.698757
0.698764
0.698771
0.698771
0.698779
0.698786
0.698793
0.698801
0.698801
0.698808
0.698815
0.698822
0.69883
0.69883
0.698837
0.698844
0.698852
0.698859
0.698859
0.698867
0.698874
0.698881
0.698889
0.698889
0.698896
0.698904
0.698911
0.698918
0.698918
0.698926
0.698933
0.698941
0.698948
0.698948
0.698956
0.698963
0.69897
0.698978
0.698978
0.698985
0.698993
0.699
0.699008
0.699008
0.699015
0.699023
0.69903
0.699038
0.699038
0.699045
0.699053
0.69906
0.699068
0.699068
0.699075
0.699083
0.699091
0.699098
0.699098
0.699106
0.699113
0.699121
0.699128
0.699128
0.699136
0.699144
0.699151
0.699159
0.699159
0.699166
0.699174
0.699182
0.699189
0.699189
0.699197
0.699205
0.699212
0.69922
0.69922
0.699228
0.699235
0.699243
0.699251
0.699251
0.699258
0.699266
0.699274
0.699282
0.699282
0.699289
0.699297
0.699305
0.699313
0.699313
0.69932
0.699328
0.699336
0.699344
0.699344
0.699351
0.699359
0.699367
0.699375
0.699375
0.699382
0.69939
0.699398
0.699406
0.699406
0.699414
0.699422
0.699429
0.699437
0.699437
0.699445
0.699453
0.699461
0.699469
0.699469
0.699477
0.699485
0.699492
0.6995
0.6995
0.699508
0.699516
0.699524
0.699532
0.699532
0.69954
0.699548
0.699556
0.699564
0.699564
0.699572
0.69958
0.699588
0.699596
0.699596
0.699604
0.699612
0.69962
0.699627
0.699627
0.699635
0.699644
0.699652
0.69966
0.69966
0.699668
0.699676
0.699684
0.699692
0.699692
0.6997
0.699708
0.699716
0.699724
0.699724
0.699732
0.69974
0.699748
0.699756
0.699756
0.699764
0.699773
0.699781
0.699789
0.699789
0.699797
0.699805
0.699813
0.699822
0.699822
0.69983
0.699838
0.699846
0.699855
0.699855
0.699863
0.699871
0.699879
0.699887
0.699887
0.699896
0.699904
0.699912
0.699921
0.699921
0.699929
0.699937
0.699945
0.699954
0.699954
0.699962
0.69997
0.699979
0.699987
0.699987
0.699995
0.700004
0.700012
0.70002
0.70002
0.700029
0.700037
0.700045
0.700054
0.700054
0.700062
0.70007
0.700079
0.700087
0.700087
0.700096
0.700104
0.700112
0.700121
0.700121
0.700129
0.700138
0.700146
0.700155
0.700155
0.700163
0.700171
0.70018
0.700188
0.700188
0.700197
0.700205
0.700214
0.700222
0.700222
0.700231
0.700239
0.700248
0.700256
0.700256
0.700265
0.700273
0.700282
0.700291
0.700291
0.700299
0.700308
0.700316
0.700325
0.700325
0.700333
0.700342
0.700351
0.700359
0.700359
0.700368
0.700376
0.700385
0.700394
0.700394
0.700402
0.700411
0.70042
0.700428
0.700428
0.700437
0.700446
0.700454
0.700463
0.700463
0.700472
0.70048
0.700489
0.700498
0.700498
0.700506
0.700515
0.700524
0.700533
0.700533
0.700541
0.70055
0.700559
0.700568
0.700568
0.700576
0.700585
0.700594
0.700603
0.700603
0.700611
0.70062
0.700629
0.700638
0.700638
0.700647
0.700655
0.700664
0.700673
0.700673
0.700682
0.700691
0.7007
0.700708
0.700708
0.700717
0.700726
0.700735
0.700744
0.700744
0.700753
0.700762
0.700771
0.70078
0.70078
0.700789
0.700798
0.700807
0.700816
0.700816
0.700825
0.700834
0.700843
0.700852
0.700852
0.700861
0.70087
0.700879
0.700888
0.700888
0.700897
0.700906
0.700915
0.700924
0.700924
0.700933
0.700942
0.700951
0.70096
0.70096
0.700969
0.700978
0.700988
0.700997
0.700997
0.701006
0.701015
0.701024
0.701033
0.701033
0.701042
0.701051
0.701061
0.70107
0.70107
0.701079
0.701088
0.701097
0.701106
0.701106
0.701116
0.701125
0.701134
0.701143
0.701143
0.701152
0.701162
0.701171
0.70118
0.70118
0.701189
0.701199
0.701208
0.701217
0.701217
0.701226
0.701236
0.701245
0.701254
0.701254
0.701263
0.701273
0.701282
0.701291
0.701291
0.701301
0.70131
0.701319
0.701329
0.701329
0.701338
0.701347
0.701357
0.701366
0.701366
0.701375
0.701385
0.701394
0.701404
0.701404
0.701413
0.701422
0.701432
0.701441
0.701441
0.701451
0.70146
0.701469
0.701479
0.701479
0.701488
0.701498
0.701507
0.701517
0.701517
0.701526
0.701536
0.701545
0.701555
0.701555
0.701564
0.701574
0.701583
0.701593
0.701593
0.701602
0.701612
0.701621
0.701631
0.701631
0.70164
0.70165
0.701659
0.701669
0.701669
0.701679
0.701688
0.701698
0.701707
0.701707
0.701717
0.701727
0.701736
0.701746
0.701746
0.701756
0.701765
0.701775
0.701785
0.701785
0.701794
0.701804
0.701814
0.701824
0.701824
0.701833
0.701843
0.701853
0.701863
0.701863
0.701872
0.701882
0.701892
0.701902
0.701902
0.701911
0.701921
0.701931
0.701941
0.701941
0.701951
0.70196
0.70197
0.70198
0.70198
0.70199
0.702
0.702009
0.702019
0.702019
0.702029
0.702039
0.702049
0.702059
0.702059
0.702069
0.702078
0.702088
0.702098
0.702098
0.702108
0.702118
0.702128
0.702138
0.702138
0.702148
0.702158
0.702168
0.702178
0.702178
0.702188
0.702198
0.702208
0.702218
0.702218
0.702228
0.702238
0.702248
0.702258
0.702258
0.702268
0.702278
0.702288
0.702298
0.702298
0.702308
0.702318
0.702328
0.702338
0.702338
0.702348
0.702358
0.702368
0.702378
0.702378
0.702388
0.702398
0.702408
0.702418
0.702418
0.702428
0.702439
0.702449
0.702459
0.702459
0.702469
0.702479
0.702489
0.702499
0.702499
0.70251
0.70252
0.70253
0.70254
0.70254
0.70255
0.70256
0.702571
0.702581
0.702581
0.702591
0.702601
0.702611
0.702622
0.702622
0.702632
0.702642
0.702652
0.702663
0.702663
0.702673
0.702683
0.702694
0.702704
0.702704
0.702714
0.702725
0.702735
0.702745
0.702745
0.702756
0.702766
0.702776
0.702787
0.702787
0.702797
0.702808
0.702818
0.702828
0.702828
0.702839
0.702849
0.70286
0.70287
0.70287
0.702881
0.702891
0.702902
0.702912
0.702912
0.702922
0.702933
0.702943
0.702954
0.702954
0.702964
0.702975
0.702985
0.702996
0.702996
0.703006
0.703017
0.703028
0.703038
0.703038
0.703049
0.703059
0.70307
0.70308
0.70308
0.703091
0.703101
0.703112
0.703123
0.703123
0.703133
0.703144
0.703154
0.703165
0.703165
0.703176
0.703186
0.703197
0.703208
0.703208
0.703218
0.703229
0.70324
0.70325
0.70325
0.703261
0.703272
0.703282
0.703293
0.703293
0.703304
0.703314
0.703325
0.703336
0.703336
0.703347
0.703357
0.703368
0.703379
0.703379
0.703389
0.7034
0.703411
0.703422
0.703422
0.703433
0.703443
0.703454
0.703465
0.703465
0.703476
0.703487
0.703497
0.703508
0.703508
0.703519
0.70353
0.703541
0.703552
0.703552
0.703562
0.703573
0.703584
0.703595
0.703595
0.703606
0.703617
0.703628
0.703639
0.703639
0.703649
0.70366
0.703671
0.703682
0.703682
0.703693
0.703704
0.703715
0.703726
0.703726
0.703737
0.703748
0.703759
0.70377
0.70377
0.703781
0.703792
0.703803
0.703815
0.703815
0.703826
0.703837
0.703848
0.703859
0.703859
0.70387
0.703881
0.703892
0.703903
0.703903
0.703914
0.703925
0.703937
0.703948
0.703948
0.703959
0.70397
0.703981
0.703992
0.703992
0.704004
0.704015
0.704026
0.704037
0.704037
0.704048
0.704059
0.704071
0.704082
0.704082
0.704093
0.704104
0.704116
0.704127
0.704127
0.704138
0.704149
0.704161
0.704172
0.704172
0.704183
0.704194
0.704206
0.704217
0.704217
0.704228
0.70424
0.704251
0.704262
0.704262
0.704274
0.704285
0.704296
0.704308
0.704308
0.704319
0.70433
0.704342
0.704353
0.704353
0.704364
0.704376
0.704387
0.704399
0.704399
0.70441
0.704421
0.704433
0.704444
0.704444
0.704456
0.704467
0.704478
0.70449
0.70449
0.704501
0.704513
0.704524
0.704536
0.704536
0.704547
0.704559
0.70457
0.704582
0.704582
0.704593
0.704605
0.704616
0.704628
0.704628
0.704639
0.704651
0.704662
0.704674
0.704674
0.704685
0.704697
0.704709
0.70472
0.70472
0.704732
0.704744
0.704755
0.704767
0.704767
0.704779
0.70479
0.704802
0.704814
0.704814
0.704825
0.704837
0.704849
0.70486
0.70486
0.704872
0.704884
0.704896
0.704907
0.704907
0.704919
0.704931
0.704943
0.704954
0.704954
0.704966
0.704978
0.70499
0.705002
0.705002
0.705013
0.705025
0.705037
0.705049
0.705049
0.705061
0.705072
0.705084
0.705096
0.705096
0.705108
0.70512
0.705132
0.705144
0.705144
0.705155
0.705167
0.705179
0.705191
0.705191
0.705203
0.705215
0.705227
0.705239
0.705239
0.705251
0.705263
0.705274
0.705286
0.705286
0.705298
0.70531
0.705322
0.705334
0.705334
0.705346
0.705358
0.70537
0.705382
0.705382
0.705394
0.705406
0.705418
0.70543
0.70543
0.705442
0.705454
0.705466
0.705478
0.705478
0.70549
0.705502
0.705515
0.705527
0.705527
0.705539
0.705551
0.705563
0.705575
0.705575
0.705587
0.705599
0.705611
0.705623
0.705623
0.705636
0.705648
0.70566
0.705672
0.705672
0.705684
0.705696
0.705709
0.705721
0.705721
0.705733
0.705745
0.705758
0.70577
0.70577
0.705782
0.705794
0.705807
0.705819
0.705819
0.705831
0.705844
0.705856
0.705868
0.705868
0.705881
0.705893
0.705905
0.705918
0.705918
0.70593
0.705942
0.705955
0.705967
0.705967
0.705979
0.705992
0.706004
0.706017
0.706017
0.706029
0.706041
0.706054
0.706066
0.706066
0.706079
0.706091
0.706103
0.706116
0.706116
0.706128
0.706141
0.706153
0.706166
0.706166
0.706178
0.706191
0.706203
0.706216
0.706216
0.706228
0.706241
0.706253
0.706266
0.706266
0.706278
0.706291
0.706303
0.706316
0.706316
0.706329
0.706341
0.706354
0.706366
0.706366
0.706379
0.706391
0.706404
0.706417
0.706417
0.706429
0.706442
0.706454
0.706467
0.706467
0.70648
0.706492
0.706505
0.706518
0.706518
0.70653
0.706543
0.706556
0.706568
0.706568
0.706581
0.706594
0.706606
0.706619
0.706619
0.706632
0.706644
0.706657
0.70667
0.70667
0.706683
0.706695
0.706708
0.706721
0.706721
0.706734
0.706747
0.706759
0.706772
0.706772
0.706785
0.706798
0.706811
0.706824
0.706824
0.706837
0.70685
0.706862
0.706875
0.706875
0.706888
0.706901
0.706914
0.706927
0.706927
0.70694
0.706953
0.706966
0.706979
0.706979
0.706992
0.707005
0.707018
0.707031
0.707031
0.707044
0.707057
0.70707
0.707083
0.707083
0.707096
0.707109
0.707122
0.707135
0.707135
0.707148
0.707161
0.707174
0.707187
0.707187
0.7072
0.707213
0.707226
0.707239
0.707239
0.707252
0.707265
0.707279
0.707292
0.707292
0.707305
0.707318
0.707331
0.707344
0.707344
0.707357
0.70737
0.707384
0.707397
0.707397
0.70741
0.707423
0.707436
0.707449
0.707449
0.707463
0.707476
0.707489
0.707502
0.707502
0.707515
0.707529
0.707542
0.707555
0.707555
0.707568
0.707582
0.707595
0.707608
0.707608
0.707621
0.707635
0.707648
0.707661
0.707661
0.707675
0.707688
0.707701
0.707714
0.707714
0.707728
0.707741
0.707755
0.707768
0.707768
0.707781
0.707795
0.707808
0.707822
0.707822
0.707835
0.707848
0.707862
0.707875
0.707875
0.707889
0.707902
0.707916
0.707929
0.707929
0.707943
0.707956
0.70797
0.707983
0.707983
0.707997
0.70801
0.708024
0.708037
0.708037
0.708051
0.708065
0.708078
0.708092
0.708092
0.708105
0.708119
0.708132
0.708146
0.708146
0.70816
0.708173
0.708187
0.7082
0.7082
0.708214
0.708228
0.708241
0.708255
0.708255
0.708269
0.708282
0.708296
0.70831
0.70831
0.708323
0.708337
0.708351
0.708364
0.708364
0.708378
0.708392
0.708406
0.708419
0.708419
0.708433
0.708447
0.70846
0.708474
0.708474
0.708488
0.708502
0.708515
0.708529
0.708529
0.708543
0.708557
0.708571
0.708584
0.708584
0.708598
0.708612
0.708626
0.70864
0.70864
0.708653
0.708667
0.708681
0.708695
0.708695
0.708709
0.708723
0.708737
0.708751
0.708751
0.708764
0.708778
0.708792
0.708806
0.708806
0.70882
0.708834
0.708848
0.708862
0.708862
0.708876
0.70889
0.708904
0.708918
0.708918
0.708932
0.708946
0.70896
0.708974
0.708974
0.708988
0.709003
0.709017
0.709031
0.709031
0.709045
0.709059
0.709073
0.709087
0.709087
0.709101
0.709115
0.709129
0.709144
0.709144
0.709158
0.709172
0.709186
0.7092
0.7092
0.709214
0.709229
0.709243
0.709257
0.709257
0.709271
0.709285
0.7093
0.709314
0.709314
0.709328
0.709342
0.709356
0.709371
0.709371
0.709385
0.709399
0.709413
0.709428
0.709428
0.709442
0.709456
0.70947
0.709485
0.709485
0.709499
0.709513
0.709528
0.709542
0.709542
0.709556
0.709571
0.709585
0.709599
0.709599
0.709614
0.709628
0.709642
0.709657
0.709657
0.709671
0.709685
0.7097
0.709714
0.709714
0.709729
0.709743
0.709757
0.709772
0.709772
0.709786
0.709801
0.709815
0.70983
0.70983
0.709844
0.709859
0.709873
0.709888
0.709888
0.709902
0.709917
0.709931
0.709946
0.709946
0.709961
0.709975
0.70999
0.710004
0.710004
0.710019
0.710034
0.710048
0.710063
0.710063
0.710077
0.710092
0.710107
0.710121
0.710121
0.710136
0.710151
0.710165
0.71018
0.71018
0.710195
0.710209
0.710224
0.710239
0.710239
0.710254
0.710268
0.710283
0.710298
0.710298
0.710312
0.710327
0.710342
0.710357
0.710357
0.710371
0.710386
0.710401
0.710416
0.710416
0.710431
0.710445
0.71046
0.710475
0.710475
0.71049
0.710505
0.710519
0.710534
0.710534
0.710549
0.710564
0.710579
0.710594
0.710594
0.710608
0.710623
0.710638
0.710653
0.710653
0.710668
0.710683
0.710698
0.710713
0.710713
0.710728
0.710742
0.710757
0.710772
0.710772
0.710787
0.710802
0.710817
0.710832
0.710832
0.710847
0.710862
0.710877
0.710892
0.710892
0.710907
0.710922
0.710937
0.710952
0.710952
0.710968
0.710983
0.710998
0.711013
0.711013
0.711028
0.711043
0.711058
0.711073
0.711073
0.711089
0.711104
0.711119
0.711134
0.711134
0.711149
0.711164
0.71118
0.711195
0.711195
0.71121
0.711225
0.71124
0.711256
0.711256
0.711271
0.711286
0.711301
0.711317
0.711317
0.711332
0.711347
0.711362
0.711378
0.711378
0.711393
0.711408
0.711424
0.711439
0.711439
0.711454
0.71147
0.711485
0.7115
0.7115
0.711516
0.711531
0.711546
0.711562
0.711562
0.711577
0.711592
0.711608
0.711623
0.711623
0.711638
0.711654
0.711669
0.711685
0.711685
0.7117
0.711715
0.711731
0.711746
0.711746
0.711762
0.711777
0.711793
0.711808
0.711808
0.711823
0.711839
0.711854
0.71187
0.71187
0.711885
0.711901
0.711916
0.711932
0.711932
0.711948
0.711963
0.711979
0.711994
0.711994
0.71201
0.712026
0.712041
0.712057
0.712057
0.712073
0.712088
0.712104
0.712119
0.712119
0.712135
0.712151
0.712167
0.712182
0.712182
0.712198
0.712214
0.712229
0.712245
0.712245
0.712261
0.712277
0.712292
0.712308
0.712308
0.712324
0.71234
0.712355
0.712371
0.712371
0.712387
0.712403
0.712418
0.712434
0.712434
0.71245
0.712466
0.712482
0.712498
0.712498
0.712513
0.712529
0.712545
0.712561
0.712561
0.712577
0.712593
0.712608
0.712624
0.712624
0.71264
0.712656
0.712672
0.712688
0.712688
0.712704
0.71272
0.712736
0.712752
0.712752
0.712768
0.712783
0.712799
0.712815
0.712815
0.712831
0.712847
0.712863
0.712879
0.712879
0.712895
0.712911
0.712927
0.712943
0.712943
0.712959
0.712975
0.712991
0.713007
0.713007
0.713024
0.71304
0.713056
0.713072
0.713072
0.713088
0.713104
0.71312
0.713137
0.713137
0.713153
0.713169
0.713185
0.713201
0.713201
0.713218
0.713234
0.71325
0.713266
0.713266
0.713282
0.713299
0.713315
0.713331
0.713331
0.713347
0.713364
0.71338
0.713396
0.713396
0.713412
0.713429
0.713445
0.713461
0.713461
0.713478
0.713494
0.71351
0.713527
0.713527
0.713543
0.713559
0.713576
0.713592
0.713592
0.713608
0.713625
0.713641
0.713657
0.713657
0.713674
0.71369
0.713707
0.713723
0.713723
0.713739
0.713756
0.713772
0.713789
0.713789
0.713805
0.713822
0.713838
0.713854
0.713854
0.713871
0.713887
0.713904
0.71392
0.71392
0.713937
0.713953
0.71397
0.713986
0.713986
0.714003
0.714019
0.714036
0.714053
0.714053
0.714069
0.714086
0.714102
0.714119
0.714119
0.714136
0.714152
0.714169
0.714186
0.714186
0.714202
0.714219
0.714236
0.714252
0.714252
0.714269
0.714286
0.714303
0.714319
0.714319
0.714336
0.714353
0.714369
0.714386
0.714386
0.714403
0.71442
0.714437
0.714453
0.714453
0.71447
0.714487
0.714504
0.71452
0.71452
0.714537
0.714554
0.714571
0.714588
0.714588
0.714605
0.714621
0.714638
0.714655
0.714655
0.714672
0.714689
0.714706
0.714723
0.714723
0.71474
0.714756
0.714773
0.71479
0.71479
0.714807
0.714824
0.714841
0.714858
0.714858
0.714875
0.714892
0.714909
0.714926
0.714926
0.714943
0.71496
0.714977
0.714994
0.714994
0.715011
0.715028
0.715045
0.715062
0.715062
0.715079
0.715096
0.715113
0.71513
0.71513
0.715147
0.715164
0.715181
0.715198
0.715198
0.715216
0.715233
0.71525
0.715267
0.715267
0.715284
0.715301
0.715319
0.715336
0.715336
0.715353
0.71537
0.715387
0.715405
0.715405
0.715422
0.715439
0.715456
0.715474
0.715474
0.715491
0.715508
0.715526
0.715543
0.715543
0.71556
0.715577
0.715595
0.715612
0.715612
0.715629
0.715647
0.715664
0.715681
0.715681
0.715699
0.715716
0.715733
0.715751
0.715751
0.715768
0.715785
0.715803
0.71582
0.71582
0.715838
0.715855
0.715872
0.71589
0.71589
0.715907
0.715925
0.715942
0.71596
0.71596
0.715977
0.715994
0.716012
0.716029
0.716029
0.716047
0.716064
0.716082
0.716099
0.716099
0.716117
0.716134
0.716152
0.716169
0.716169
0.716187
0.716205
0.716222
0.71624
0.71624
0.716257
0.716275
0.716293
0.71631
0.71631
0.716328
0.716346
0.716363
0.716381
0.716381
0.716399
0.716416
0.716434
0.716452
0.716452
0.71647
0.716487
0.716505
0.716523
0.716523
0.716541
0.716558
0.716576
0.716594
0.716594
0.716612
0.716629
0.716647
0.716665
0.716665
0.716683
0.716701
0.716718
0.716736
0.716736
0.716754
0.716772
0.71679
0.716808
0.716808
0.716825
0.716843
0.716861
0.716879
0.716879
0.716897
0.716915
0.716933
0.716951
0.716951
0.716968
0.716986
0.717004
0.717022
0.717022
0.71704
0.717058
0.717076
0.717094
0.717094
0.717112
0.71713
0.717148
0.717166
0.717166
0.717184
0.717202
0.71722
0.717238
0.717238
0.717256
0.717274
0.717292
0.71731
0.71731
0.717328
0.717346
0.717364
0.717383
0.717383
0.717401
0.717419
0.717437
0.717455
0.717455
0.717473
0.717492
0.71751
0.717528
0.717528
0.717546
0.717564
0.717583
0.717601
0.717601
0.717619
0.717637
0.717656
0.717674
0.717674
0.717692
0.71771
0.717729
0.717747
0.717747
0.717765
0.717784
0.717802
0.71782
0.71782
0.717838
0.717857
0.717875
0.717893
0.717893
0.717912
0.71793
0.717948
0.717967
0.717967
0.717985
0.718004
0.718022
0.71804
0.71804
0.718059
0.718077
0.718095
0.718114
0.718114
0.718132
0.718151
0.718169
0.718188
0.718188
0.718206
0.718225
0.718243
0.718261
0.718261
0.71828
0.718298
0.718317
0.718335
0.718335