<?xml version="1.0"?>
<VTKFile type="UnstructuredGrid" version="0.1" byte_order="LittleEndian">
<UnstructuredGrid>
<Piece NumberOfPoints="5000" NumberOfCells="4000">
<PointData Scalars="Reaction 0">
<DataArray type="Float32" Name="Reaction 0" format="ascii">
0.924652
0.924652
0.924652
0.924652
0.924652
0.924652
0.924652
0.924652
0.924652
0.924652
0.924652
0.924652
0.924652
0.924652
0.924652
0.924652
0.924652
0.924652
0.924652
0.924652
0.924652
0.924652
0.924652
0.924652
0.924652
0.924652
0.924652
0.924653
0.924653
0.924653
0.924653
0.924653
0.924653
0.924653
0.924653
0.924653
0.924653
0.924653
0.924653
0.924653
0.924653
0.924653
0.924653
0.924653
0.924653
0.924653
0.924653
0.924653
0.924653
0.924653
0.924653
0.924654
0.924654
0.924654
0.924654
0.924654
0.924654
0.924654
0.924654
0.924654
0.924654
0.924654
0.924654
0.924654
0.924654
0.924654
0.924654
0.924655
0.924655
0.924655
0.924655
0.924655
0.924655
0.924655
0.924655
0.924655
0.924655
0.924655
0.924655
0.924656
0.924656
0.924656
0.924656
0.924656
0.924656
0.924656
0.924656
0.924656
0.924656
0.924657
0.924657
0.924657
0.924657
0.924657
0.924657
0.924657
0.924657
0.924657
0.924657
0.924658
0.924658
0.924658
0.924658
0.924658
0.924658
0.924658
0.924658
0.924658
0.924659
0.924659
0.924659
0.924659
0.924659
0.924659
0.924659
0.924659
0.924659
0.92466
0.92466
0.92466
0.92466
0.92466
0.92466
0.92466
0.924661
0.924661
0.924661
0.924661
0.924661
0.924661
0.924661
0.924662
0.924662
0.924662
0.924662
0.924662
0.924662
0.924662
0.924663
0.924663
0.924663
0.924663
0.924663
0.924663
0.924664
0.924664
0.924664
0.924664
0.924664
0.924664
0.924664
0.924665
0.924665
0.924665
0.924665
0.924665
0.924665
0.924666
0.924666
0.924666
0.924666
0.924666
0.924667
0.924667
0.924667
0.924667
0.924667
0.924667
0.924668
0.924668
0.924668
0.924668
0.924668
0.924669
0.924669
0.924669
0.924669
0.924669
0.92467
0.92467
0.92467
0.92467
0.92467
0.924671
0.924671
0.924671
0.924671
0.924671
0.924672
0.924672
0.924672
0.924672
0.924672
0.924673
0.924673
0.924673
0.924673
0.924673
0.924674
0.924674
0.924674
0.924674
0.924675
0.924675
0.924675
0.924675
0.924675
0.924676
0.924676
0.924676
0.924676
0.924677
0.924677
0.924677
0.924677
0.924677
0.924678
0.924678
0.924678
0.924679
0.924679
0.924679
0.924679
0.92468
0.92468
0.92468
0.92468
0.92468
0.924681
0.924681
0.924681
0.924681
0.924682
0.924682
0.924682
0.924682
0.924683
0.924683
0.924683
0.924684
0.924684
0.924684
0.924684
0.924685
0.924685
0.924685
0.924685
0.924686
0.924686
0.924686
0.924686
0.924687
0.924687
0.924687
0.924688
0.924688
0.924688
0.924688
0.924689
0.924689
0.924689
0.924689
0.92469
0.92469
0.924691
0.924691
0.924691
0.924691
0.924692
0.924692
0.924692
0.924692
0.924693
0.924693
0.924694
0.924694
0.924694
0.924694
0.924695
0.924695
0.924695
0.924695
0.924696
0.924696
0.924697
0.924697
0.924697
0.924697
0.924698
0.924698
0.924698
0.924699
0.924699
0.924699
0.9247
0.9247
0.9247
0.924701
0.924701
0.924701
0.924701
0.924702
0.924702
0.924703
0.924703
0.924703
0.924703
0.924704
0.924704
0.924705
0.924705
0.924705
0.924706
0.924706
0.924706
0.924706
0.924707
0.924707
0.924708
0.924708
0.924708
0.924709
0.924709
0.92471
0.92471
0.92471
0.92471
0.924711
0.924711
0.924712
0.924712
0.924712
0.924713
0.924713
0.924714
0.924714
0.924714
0.924714
0.924715
0.924715
0.924715
0.924716
0.924716
0.924717
0.924717
0.924717
0.924718
0.924718
0.924719
0.924719
0.924719
0.92472
0.92472
0.924721
0.924721
0.924721
0.924722
0.924722
0.924723
0.924723
0.924723
0.924724
0.924724
0.924725
0.924725
0.924725
0.924726
0.924726
0.924727
0.924727
0.924727
0.924728
0.924728
0.924729
0.924729
0.924729
0.92473
0.92473
0.924731
0.924731
0.924731
0.924732
0.924732
0.924733
0.924733
0.924733
0.924734
0.924734
0.924735
0.924735
0.924735
0.924736
0.924736
0.924737
0.924738
0.924738
0.924738
0.924739
0.924739
0.92474
0.92474
0.92474
0.924741
0.924741
0.924742
0.924742
0.924742
0.924743
0.924744
0.924744
0.924744
0.924745
0.924745
0.924746
0.924746
0.924746
0.924747
0.924748
0.924748
0.924749
0.924749
0.924749
0.92475
0.92475
0.924751
0.924751
0.924752
0.924752
0.924753
0.924753
0.924753
0.924754
0.924755
0.924755
0.924756
0.924756
0.924756
0.924757
0.924757
0.924758
0.924758
0.924759
0.924759
0.92476
0.92476
0.92476
0.924761
0.924762
0.924762
0.924763
0.924763
0.924764
0.924764
0.924765
0.924765
0.924765
0.924766
0.924767
0.924767
0.924768
0.924768
0.924768
0.924769
0.92477
0.92477
0.92477
0.924771
0.924772
0.924772
0.924773
0.924773
0.924774
0.924774
0.924775
0.924775
0.924775
0.924776
0.924777
0.924777
0.924778
0.924778
0.924779
0.924779
0.92478
0.924781
0.924781
0.924781
0.924782
0.924783
0.924783
0.924783
0.924784
0.924785
0.924785
0.924786
0.924786
0.924787
0.924787
0.924788
0.924789
0.924789
0.924789
0.92479
0.924791
0.924791
0.924791
0.924792
0.924793
0.924794
0.924794
0.924794
0.924795
0.924796
0.924796
0.924797
0.924797
0.924798
0.924799
0.924799
0.9248
0.9248
0.924801
0.924801
0.924802
0.924803
0.924803
0.924804
0.924804
0.924805
0.924806
0.924806
0.924807
0.924807
0.924808
0.924809
0.924809
0.924809
0.92481
0.924811
0.924812
0.924812
0.924812
0.924813
0.924814
0.924815
0.924815
0.924815
0.924816
0.924817
0.924818
0.924818
0.924818
0.924819
0.92482
0.924821
0.924821
0.924822
0.924822
0.924823
0.924824
0.924824
0.924825
0.924825
0.924826
0.924827
0.924827
0.924828
0.924828
0.924829
0.92483
0.92483
0.924831
0.924832
0.924832
0.924833
0.924833
0.924834
0.924835
0.924836
0.924836
0.924836
0.924837
0.924838
0.924839
0.92484
0.92484
0.92484
0.924841
0.924842
0.924843
0.924843
0.924844
0.924844
0.924845
0.924846
0.924846
0.924847
0.924848
0.924848
0.924849
0.924849
0.92485
0.924851
0.924852
0.924853
0.924853
0.924853
0.924854
0.924855
0.924856
0.924856
0.924857
0.924858
0.924858
0.924859
0.924859
0.92486
0.924861
0.924862
0.924863
0.924863
0.924864
0.924864
0.924865
0.924866
0.924866
0.924867
0.924868
0.924869
0.92487
0.92487
0.92487
0.924871
0.924872
0.924873
0.924873
0.924874
0.924875
0.924876
0.924877
0.924877
0.924877
0.924878
0.924879
0.92488
0.92488
0.924881
0.924882
0.924883
0.924884
0.924884
0.924884
0.924885
0.924886
0.924887
0.924887
0.924888
0.924889
0.92489
0.924891
0.924891
0.924892
0.924893
0.924893
0.924894
0.924894
0.924895
0.924896
0.924897
0.924898
0.924898
0.924899
0.9249
0.924901
0.924902
0.924902
0.924903
0.924904
0.924905
0.924905
0.924905
0.924906
0.924907
0.924908
0.924909
0.924909
0.92491
0.924911
0.924912
0.924913
0.924913
0.924914
0.924915
0.924916
0.924917
0.924917
0.924918
0.924919
0.92492
0.924921
0.924921
0.924922
0.924923
0.924924
0.924924
0.924924
0.924925
0.924926
0.924927
0.924928
0.924928
0.924929
0.92493
0.924931
0.924932
0.924932
0.924933
0.924934
0.924935
0.924936
0.924936
0.924937
0.924938
0.924939
0.92494
0.92494
0.924941
0.924942
0.924943
0.924944
0.924944
0.924945
0.924946
0.924947
0.924948
0.924948
0.924949
0.92495
0.924951
0.924952
0.924952
0.924953
0.924954
0.924955
0.924956
0.924956
0.924957
0.924958
0.924959
0.92496
0.92496
0.924961
0.924962
0.924963
0.924964
0.924964
0.924966
0.924967
0.924968
0.924969
0.924969
0.92497
0.924971
0.924972
0.924973
0.924973
0.924974
0.924975
0.924976
0.924977
0.924977
0.924978
0.924979
0.92498
0.924981
0.924981
0.924982
0.924983
0.924984
0.924985
0.924985
0.924986
0.924988
0.924989
0.92499
0.92499
0.924991
0.924992
0.924993
0.924994
0.924994
0.924995
0.924996
0.924997
0.924998
0.924998
0.924999
0.925
0.925001
0.925003
0.925003
0.925004
0.925005
0.925006
0.925007
0.925007
0.925008
0.925009
0.92501
0.925011
0.925011
0.925012
0.925013
0.925015
0.925016
0.925016
0.925017
0.925018
0.925019
0.92502
0.92502
0.925021
0.925022
0.925024
0.925025
0.925025
0.925026
0.925027
0.925028
0.925029
0.925029
0.92503
0.925032
0.925033
0.925034
0.925034
0.925035
0.925036
0.925037
0.925039
0.925039
0.92504
0.925041
0.925042
0.925043
0.925043
0.925044
0.925046
0.925047
0.925048
0.925048
0.925049
0.92505
0.925051
0.925053
0.925053
0.925054
0.925055
0.925056
0.925057
0.925057
0.925059
0.92506
0.925061
0.925062
0.925062
0.925063
0.925065
0.925066
0.925067
0.925067
0.925068
0.925069
0.925071
0.925072
0.925072
0.925073
0.925074
0.925075
0.925077
0.925077
0.925078
0.925079
0.92508
0.925081
0.925081
0.925083
0.925084
0.925085
0.925086
0.925086
0.925088
0.925089
0.92509
0.925091
0.925091
0.925093
0.925094
0.925095
0.925096
0.925096
0.925097
0.925099
0.9251
0.925101
0.925101
0.925102
0.925104
0.925105
0.925106
0.925106
0.925107
0.925109
0.92511
0.925111
0.925111
0.925112
0.925114
0.925115
0.925116
0.925116
0.925118
0.925119
0.92512
0.925121
0.925121
0.925123
0.925124
0.925125
0.925126
0.925126
0.925128
0.925129
0.92513
0.925132
0.925132
0.925133
0.925134
0.925135
0.925137
0.925137
0.925138
0.925139
0.925141
0.925142
0.925142
0.925143
0.925144
0.925146
0.925147
0.925147
0.925148
0.92515
0.925151
0.925152
0.925152
0.925154
0.925155
0.925156
0.925158
0.925158
0.925159
0.92516
0.925162
0.925163
0.925163
0.925164
0.925166
0.925167
0.925168
0.925168
0.925169
0.925171
0.925172
0.925174
0.925174
0.925175
0.925176
0.925178
0.925179
0.925179
0.92518
0.925182
0.925183
0.925184
0.925184
0.925186
0.925187
0.925188
0.92519
0.92519
0.925191
0.925192
0.925194
0.925195
0.925195
0.925196
0.925198
0.925199
0.925201
0.925201
0.925202
0.925203
0.925205
0.925206
0.925206
0.925207
0.925209
0.92521
0.925212
0.925212
0.925213
0.925214
0.925216
0.925217
0.925217
0.925218
0.92522
0.925221
0.925223
0.925223
0.925224
0.925225
0.925227
0.925228
0.925228
0.92523
0.925231
0.925232
0.925234
0.925234
0.925235
0.925237
0.925238
0.925239
0.925239
0.925241
0.925242
0.925244
0.925245
0.925245
0.925246
0.925248
0.925249
0.925251
0.925251
0.925252
0.925254
0.925255
0.925256
0.925256
0.925258
0.925259
0.925261
0.925262
0.925262
0.925264
0.925265
0.925266
0.925268
0.925268
0.925269
0.925271
0.925272
0.925274
0.925274
0.925275
0.925277
0.925278
0.92528
0.92528
0.925281
0.925283
0.925284
0.925286
0.925286
0.925287
0.925289
0.92529
0.925292
0.925292
0.925293
0.925295
0.925296
0.925298
0.925298
0.925299
0.925301
0.925302
0.925304
0.925304
0.925305
0.925307
0.925308
0.92531
0.92531
0.925311
0.925313
0.925314
0.925316
0.925316
0.925317
0.925319
0.925321
0.925322
0.925322
0.925324
0.925325
0.925327
0.925328
0.925328
0.92533
0.925331
0.925333
0.925334
0.925334
0.925336
0.925337
0.925339
0.92534
0.92534
0.925342
0.925344
0.925345
0.925347
0.925347
0.925348
0.92535
0.925351
0.925353
0.925353
0.925354
0.925356
0.925358
0.925359
0.925359
0.925361
0.925362
0.925364
0.925365
0.925365
0.925367
0.925369
0.92537
0.925372
0.925372
0.925373
0.925375
0.925376
0.925378
0.925378
0.92538
0.925381
0.925383
0.925384
0.925384
0.925386
0.925388
0.925389
0.925391
0.925391
0.925392
0.925394
0.925396
0.925397
0.925397
0.925399
0.9254
0.925402
0.925404
0.925404
0.925405
0.925407
0.925408
0.92541
0.92541
0.925412
0.925413
0.925415
0.925417
0.925417
0.925418
0.92542
0.925421
0.925423
0.925423
0.925425
0.925426
0.925428
0.92543
0.92543
0.925431
0.925433
0.925434
0.925436
0.925436
0.925438
0.925439
0.925441
0.925443
0.925443
0.925444
0.925446
0.925448
0.925449
0.925449
0.925451
0.925453
0.925454
0.925456
0.925456
0.925457
0.925459
0.925461
0.925462
0.925462
0.925464
0.925466
0.925467
0.925469
0.925469
0.925471
0.925472
0.925474
0.925476
0.925476
0.925477
0.925479
0.925481
0.925482
0.925482
0.925484
0.925486
0.925487
0.925489
0.925489
0.925491
0.925493
0.925494
0.925496
0.925496
0.925498
0.925499
0.925501
0.925503
0.925503
0.925504
0.925506
0.925508
0.92551
0.92551
0.925511
0.925513
0.925515
0.925516
0.925516
0.925518
0.92552
0.925522
0.925523
0.925523
0.925525
0.925527
0.925529
0.92553
0.92553
0.925532
0.925534
0.925536
0.925537
0.925537
0.925539
0.925541
0.925543
0.925545
0.925545
0.925546
0.925548
0.92555
0.925552
0.925552
0.925553
0.925555
0.925557
0.925559
0.925559
0.925561
0.925562
0.925564
0.925566
0.925566
0.925568
0.92557
0.925571
0.925573
0.925573
0.925575
0.925577
0.925579
0.92558
0.92558
0.925582
0.925584
0.925586
0.925588
0.925588
0.925589
0.925591
0.925593
0.925595
0.925595
0.925597
0.925598
0.9256
0.925602
0.925602
0.925604
0.925606
0.925608
0.925609
0.925609
0.925611
0.925613
0.925615
0.925617
0.925617
0.925618
0.92562
0.925622
0.925624
0.925624
0.925626
0.925628
0.925629
0.925631
0.925631
0.925633
0.925635
0.925637
0.925639
0.925639
0.925641
0.925642
0.925644
0.925646
0.925646
0.925648
0.92565
0.925652
0.925654
0.925654
0.925655
0.925657
0.925659
0.925661
0.925661
0.925663
0.925665
0.925667
0.925668
0.925668
0.92567
0.925672
0.925674
0.925676
0.925676
0.925678
0.92568
0.925682
0.925683
0.925683
0.925685
0.925687
0.925689
0.925691
0.925691
0.925693
0.925695
0.925697
0.925699
0.925699
0.9257
0.925702
0.925704
0.925706
0.925706
0.925708
0.92571
0.925712
0.925714
0.925714
0.925716
0.925718
0.925719
0.925721
0.925721
0.925723
0.925725
0.925727
0.925729
0.925729
0.925731
0.925733
0.925735
0.925737
0.925737
0.925739
0.92574
0.925742
0.925744
0.925744
0.925746
0.925748
0.92575
0.925752
0.925752
0.925754
0.925756
0.925758
0.92576
0.92576
0.925762
0.925764
0.925766
0.925768
0.925768
0.92577
0.925772
0.925774
0.925776
0.925776
0.925778
0.92578
0.925782
0.925784
0.925784
0.925786
0.925788
0.92579
0.925792
0.925792
0.925794
0.925796
0.925798
0.9258
0.9258
0.925802
0.925804
0.925806
0.925808
0.925808
0.92581
0.925812
0.925814
0.925816
0.925816
0.925818
0.92582
0.925822
0.925824
0.925824
0.925826
0.925828
0.92583
0.925832
0.925832
0.925834
0.925836
0.925838
0.92584
0.92584
0.925842
0.925844
0.925846
0.925848
0.925848
0.92585
0.925852
0.925855
0.925857
0.925857
0.925859
0.925861
0.925863
0.925865
0.925865
0.925867
0.925869
0.925871
0.925873
0.925873
0.925875
0.925877
0.925879
0.925881
0.925881
0.925883
0.925885
0.925887
0.92589
0.92589
0.925892
0.925894
0.925896
0.925898
0.925898
0.9259
0.925902
0.925904
0.925906
0.925906
0.925908
0.92591
0.925912
0.925915
0.925915
0.925917
0.925919
0.925921
0.925923
0.925923
0.925925
0.925927
0.925929
0.925931
0.925931
0.925933
0.925935
0.925938
0.92594
0.92594
0.925942
0.925944
0.925946
0.925948
0.925948
0.92595
0.925952
0.925954
0.925957
0.925957
0.925959
0.925961
0.925963
0.925965
0.925965
0.925967
0.925969
0.925971
0.925974
0.925974
0.925976
0.925978
0.92598
0.925982
0.925982
0.925984
0.925986
0.925988
0.925991
0.925991
0.925993
0.925995
0.925997
0.925999
0.925999
0.926001
0.926003
0.926006
0.926008
0.926008
0.92601
0.926012
0.926014
0.926016
0.926016
0.926018
0.926021
0.926023
0.926025
0.926025
0.926027
0.926029
0.926032
0.926034
0.926034
0.926036
0.926038
0.92604
0.926043
0.926043
0.926045
0.926047
0.926049
0.926052
0.926052
0.926054
0.926056
0.926058
0.926061
0.926061
0.926063
0.926065
0.926067
0.926069
0.926069
0.926072
0.926074
0.926076
0.926078
0.926078
0.926081
0.926083
0.926085
0.926087
0.926087
0.92609
0.926092
0.926094
0.926096
0.926096
0.926099
0.926101
0.926103
0.926105
0.926105
0.926108
0.92611
0.926112
0.926115
0.926115
0.926117
0.926119
0.926121
0.926124
0.926124
0.926126
0.926128
0.92613
0.926133
0.926133
0.926135
0.926137
0.92614
0.926142
0.926142
0.926144
0.926146
0.926149
0.926151
0.926151
0.926153
0.926156
0.926158
0.92616
0.92616
0.926162
0.926165
0.926167
0.926169
0.926169
0.926172
0.926174
0.926176
0.926178
0.926178
0.926181
0.926183
0.926185
0.926188
0.926188
0.92619
0.926192
0.926195
0.926197
0.926197
0.926199
0.926202
0.926204
0.926206
0.926206
0.926208
0.926211
0.926213
0.926215
0.926215
0.926218
0.92622
0.926222
0.926225
0.926225
0.926227
0.926229
0.926232
0.926234
0.926234
0.926236
0.926239
0.926241
0.926243
0.926243
0.926246
0.926248
0.92625
0.926253
0.926253
0.926255
0.926257
0.92626
0.926262
0.926262
0.926264
0.926267
0.926269
0.926271
0.926271
0.926274
0.926276
0.926279
0.926281
0.926281
0.926283
0.926286
0.926288
0.92629
0.92629
0.926293
0.926295
0.926298
0.9263
0.9263
0.926303
0.926305
0.926307
0.92631
0.92631
0.926312
0.926315
0.926317
0.92632
0.92632
0.926322
0.926324
0.926327
0.926329
0.926329
0.926332
0.926334
0.926337
0.926339
0.926339
0.926342
0.926344
0.926346
0.926349
0.926349
0.926351
0.926354
0.926356
0.926359
0.926359
0.926361
0.926364
0.926366
0.926369
0.926369
0.926371
0.926373
0.926376
0.926378
0.926378
0.926381
0.926383
0.926386
0.926388
0.926388
0.926391
0.926393
0.926396
0.926398
0.926398
0.926401
0.926403
0.926406
0.926408
0.926408
0.926411
0.926413
0.926415
0.926418
0.926418
0.92642
0.926423
0.926425
0.926428
0.926428
0.92643
0.926433
0.926435
0.926438
0.926438
0.92644
0.926443
0.926445
0.926448
0.926448
0.92645
0.926453
0.926455
0.926458
0.926458
0.92646
0.926463
0.926465
0.926468
0.926468
0.92647
0.926473
0.926475
0.926478
0.926478
0.92648
0.926483
0.926485
0.926488
0.926488
0.92649
0.926493
0.926495
0.926498
0.926498
0.9265
0.926503
0.926505
0.926508
0.926508
0.926511
0.926513
0.926516
0.926518
0.926518
0.926521
0.926523
0.926526
0.926528
0.926528
0.926531
0.926533
0.926536
0.926538
0.926538
0.926541
0.926544
0.926546
0.926549
0.926549
0.926551
0.926554
0.926557
0.926559
0.926559
0.926562
0.926564
0.926567
0.92657
0.92657
0.926572
0.926575
0.926577
0.92658
0.92658
0.926583
0.926585
0.926588
0.926591
0.926591
0.926593
0.926596
0.926598
0.926601
0.926601
0.926604
0.926606
0.926609
0.926612
0.926612
0.926614
0.926617
0.92662
0.926622
0.926622
0.926625
0.926627
0.92663
0.926633
0.926633
0.926635
0.926638
0.926641
0.926643
0.926643
0.926646
0.926649
0.926651
0.926654
0.926654
0.926657
0.926659
0.926662
0.926665
0.926665
0.926667
0.92667
0.926673
0.926675
0.926675
0.926678
0.926681
0.926683
0.926686
0.926686
0.926689
0.926691
0.926694
0.926697
0.926697
0.926699
0.926702
0.926705
0.926707
0.926707
0.92671
0.926713
0.926715
0.926718
0.926718
0.926721
0.926723
0.926726
0.926729
0.926729
0.926731
0.926734
0.926737
0.926739
0.926739
0.926742
0.926745
0.926748
0.92675
0.92675
0.926753
0.926756
0.926758
0.926761
0.926761
0.926764
0.926766
0.926769
0.926772
0.926772
0.926774
0.926777
0.92678
0.926783
0.926783
0.926785
0.926788
0.926791
0.926793
0.926793
0.926796
0.926799
0.926802
0.926804
0.926804
0.926807
0.92681
0.926813
0.926815
0.926815
0.926818
0.926821
0.926824
0.926827
0.926827
0.926829
0.926832
0.926835
0.926838
0.926838
0.92684
0.926843
0.926846
0.926849
0.926849
0.926852
0.926854
0.926857
0.92686
0.92686
0.926863
0.926866
0.926869
0.926871
0.926871
0.926874
0.926877
0.92688
0.926883
0.926883
0.926885
0.926888
0.926891
0.926894
0.926894
0.926897
0.9269
0.926902
0.926905
0.926905
0.926908
0.926911
0.926914
0.926917
0.926917
0.926919
0.926922
0.926925
0.926928
0.926928
0.926931
0.926934
0.926936
0.926939
0.926939
0.926942
0.926945
0.926948
0.926951
0.926951
0.926953
0.926956
0.926959
0.926962
0.926962
0.926965
0.926968
0.92697
0.926973
0.926973
0.926976
0.926979
0.926982
0.926985
0.926985
0.926988
0.92699
0.926993
0.926996
0.926996
0.926999
0.927002
0.927005
0.927008
0.927008
0.92701
0.927013
0.927016
0.927019
0.927019
0.927022
0.927025
0.927028
0.92703
0.92703
0.927033
0.927036
0.927039
0.927042
0.927042
0.927045
0.927048
0.927051
0.927053
0.927053
0.927056
0.927059
0.927062
0.927065
0.927065
0.927068
0.927071
0.927074
0.927077
0.927077
0.92708
0.927083
0.927085
0.927088
0.927088
0.927091
0.927094
0.927097
0.9271
0.9271
0.927103
0.927106
0.927109
0.927112
0.927112
0.927115
0.927118
0.927121
0.927124
0.927124
0.927127
0.92713
0.927133
0.927136
0.927136
0.927139
0.927142
0.927145
0.927148
0.927148
0.927151
0.927154
0.927157
0.92716
0.92716
0.927163
0.927166
0.927169
0.927172
0.927172
0.927175
0.927178
0.927181
0.927184
0.927184
0.927187
0.92719
0.927193
0.927196
0.927196
0.927199
0.927202
0.927205
0.927208
0.927208
0.927211
0.927214
0.927217
0.92722
0.92722
0.927223
0.927226
0.927229
0.927232
0.927232
0.927235
0.927238
0.927241
0.927244
0.927244
0.927247
0.92725
0.927253
0.927256
0.927256
0.927259
0.927262
0.927265
0.927268
0.927268
0.927271
0.927274
0.927277
0.92728
0.92728
0.927283
0.927286
0.927289
0.927292
0.927292
0.927295
0.927298
0.927301
0.927304
0.927304
0.927307
0.92731
0.927313
0.927317
0.927317
0.92732
0.927323
0.927326
0.927329
0.927329
0.927332
0.927335
0.927338
0.927341
0.927341
0.927344
0.927347
0.92735
0.927353
0.927353
0.927356
0.92736
0.927363
0.927366
0.927366
0.927369
0.927372
0.927375
0.927378
0.927378
0.927381
0.927385
0.927388
0.927391
0.927391
0.927394
0.927397
0.9274
0.927403
0.927403
0.927407
0.92741
0.927413
0.927416
0.927416
0.927419
0.927422
0.927425
0.927429
0.927429
0.927432
0.927435
0.927438
0.927441
0.927441
0.927444
0.927448
0.927451
0.927454
0.927454
0.927457
0.92746
0.927463
0.927467
0.927467
0.92747
0.927473
0.927476
0.927479
0.927479
0.927482
0.927486
0.927489
0.927492
0.927492
0.927495
0.927498
0.927501
0.927505
0.927505
0.927508
0.927511
0.927514
0.927517
0.927517
0.92752
0.927524
0.927527
0.92753
0.92753
0.927533
0.927536
0.927539
0.927543
0.927543
0.927546
0.927549
0.927552
0.927555
0.927555
0.927559
0.927562
0.927565
0.927568
0.927568
0.927571
0.927574
0.927578
0.927581
0.927581
0.927584
0.927587
0.92759
0.927594
0.927594
0.927597
0.9276
0.927603
0.927607
0.927607
0.92761
0.927613
0.927616
0.92762
0.92762
0.927623
0.927626
0.927629
0.927633
0.927633
0.927636
0.927639
0.927642
0.927646
0.927646
0.927649
0.927652
0.927656
0.927659
0.927659
0.927662
0.927665
0.927669
0.927672
0.927672
0.927675
0.927679
0.927682
0.927685
0.927685
0.927689
0.927692
0.927695
0.927698
0.927698
0.927702
0.927705
0.927708
0.927712
0.927712
0.927715
0.927718
0.927722
0.927725
0.927725
0.927728
0.927732
0.927735
0.927738
0.927738
0.927742
0.927745
0.927748
0.927751
0.927751
0.927755
0.927758
0.927761
0.927765
0.927765
0.927768
0.927771
0.927775
0.927778
0.927778
0.927781
0.927785
0.927788
0.927791
0.927791
0.927795
0.927798
0.927801
0.927805
0.927805
0.927808
0.927811
0.927815
0.927818
0.927818
0.927821
0.927825
0.927828
0.927831
0.927831
0.927835
0.927838
0.927841
0.927845
0.927845
0.927848
0.927851
0.927855
0.927858
0.927858
0.927861
0.927865
0.927868
0.927872
0.927872
0.927875
0.927878
0.927882
0.927885
0.927885
0.927889
0.927892
0.927895
0.927899
0.927899
0.927902
0.927906
0.927909
0.927912
0.927912
0.927916
0.927919
0.927923
0.927926
0.927926
0.92793
0.927933
0.927937
0.92794
0.92794
0.927943
0.927947
0.92795
0.927954
0.927954
0.927957
0.927961
0.927964
0.927968
0.927968
0.927971
0.927975
0.927978
0.927981
0.927981
0.927985
0.927988
0.927992
0.927995
0.927995
0.927999
0.928002
0.928006
0.928009
0.928009
0.928013
0.928016
0.92802
0.928023
0.928023
0.928026
0.92803
0.928033
0.928037
0.928037
0.92804
0.928044
0.928047
0.928051
0.928051
0.928054
0.928058
0.928061
0.928065
0.928065
0.928068
0.928072
0.928075
0.928079
0.928079
0.928082
0.928086
0.928089
0.928092
0.928092
0.928096
0.928099
0.928103
0.928106
0.928106
0.92811
0.928113
0.928117
0.92812
0.92812
0.928124
0.928127
0.928131
0.928134
0.928134
0.928138
0.928141
0.928145
0.928148
0.928148
0.928152
0.928156
0.928159
0.928163
0.928163
0.928166
0.92817
0.928173
0.928177
0.928177
0.92818
0.928184
0.928188
0.928191
0.928191
0.928195
0.928198
0.928202
0.928205
0.928205
0.928209
0.928213
0.928216
0.92822
0.92822
0.928223
0.928227
0.928231
0.928234
0.928234
0.928238
0.928241
0.928245
0.928249
0.928249
0.928252
0.928256
0.92826
0.928263
0.928263
0.928267
0.92827
0.928274
0.928278
0.928278
0.928281
0.928285
0.928288
0.928292
0.928292
0.928296
0.928299
0.928303
0.928306
0.928306
0.92831
0.928314
0.928317
0.928321
0.928321
0.928325
0.928328
0.928332
0.928335
0.928335
0.928339
0.928343
0.928346
0.92835
0.92835
0.928353
0.928357
0.928361
0.928364
0.928364
0.928368
0.928372
0.928375
0.928379
0.928379
0.928382
0.928386
0.92839
0.928393
0.928393
0.928397
0.928401
0.928404
0.928408
0.928408
0.928412
0.928415
0.928419
0.928423
0.928423
0.928426
0.92843
0.928434
0.928437
0.928437
0.928441
0.928445
0.928448
0.928452
0.928452
0.928456
0.92846
0.928463
0.928467
0.928467
0.928471
0.928474
0.928478
0.928482
0.928482
0.928486
0.928489
0.928493
0.928497
0.928497
0.928501
0.928504
0.928508
0.928512
0.928512
0.928516
0.928519
0.928523
0.928527
0.928527
0.928531
0.928534
0.928538
0.928542
0.928542
0.928546
0.928549
0.928553
0.928557
0.928557
0.928561
0.928564
0.928568
0.928572
0.928572
0.928576
0.928579
0.928583
0.928587
0.928587
0.928591
0.928594
0.928598
0.928602
0.928602
0.928606
0.928609
0.928613
0.928617
0.928617
0.928621
0.928624
0.928628
0.928632
0.928632
0.928636
0.92864
0.928643
0.928647
0.928647
0.928651
0.928655
0.928658
0.928662
0.928662
0.928666
0.92867
0.928673
0.928677
0.928677
0.928681
0.928685
0.928689
0.928692
0.928692
0.928696
0.9287
0.928704
0.928708
0.928708
0.928711
0.928715
0.928719
0.928723
0.928723
0.928727
0.928731
0.928735
0.928738
0.928738
0.928742
0.928746
0.92875
0.928754
0.928754
0.928758
0.928762
0.928766
0.928769
0.928769
0.928773
0.928777
0.928781
0.928785
0.928785
0.928789
0.928793
0.928797
0.9288
0.9288
0.928804
0.928808
0.928812
0.928816
0.928816
0.92882
0.928824
0.928828
0.928832
0.928832
0.928835
0.928839
0.928843
0.928847
0.928847
0.928851
0.928855
0.928859
0.928863
0.928863
0.928867
0.92887
0.928874
0.928878
0.928878
0.928882
0.928886
0.92889
0.928894
0.928894
0.928898
0.928902
0.928906
0.928909
0.928909
0.928913
0.928917
0.928921
0.928925
0.928925
0.928929
0.928933
0.928937
0.928941
0.928941
0.928945
0.928949
0.928952
0.928956
0.928956
0.92896
0.928964
0.928968
0.928972
0.928972
0.928976
0.92898
0.928984
0.928988
0.928988
0.928992
0.928996
0.929
0.929004
0.929004
0.929008
0.929012
0.929016
0.92902
0.92902
0.929024
0.929028
0.929032
0.929036
0.929036
0.92904
0.929044
0.929048
0.929052
0.929052
0.929056
0.92906
0.929064
0.929068
0.929068
0.929072
0.929076
0.92908
0.929084
0.929084
0.929088
0.929092
0.929096
0.9291
0.9291
0.929104
0.929108
0.929112
0.929116
0.929116
0.92912
0.929124
0.929128
0.929132
0.929132
0.929136
0.92914
0.929144
0.929148
0.929148
0.929152
0.929156
0.92916
0.929164
0.929164
0.929168
0.929173
0.929177
0.929181
0.929181
0.929185
0.929189
0.929193
0.929197
0.929197
0.929201
0.929205
0.929209
0.929213
0.929213
0.929217
0.929221
0.929225
0.929229
0.929229
0.929233
0.929237
0.929241
0.929245
0.929245
0.929249
0.929253
0.929258
0.929262
0.929262
0.929266
0.92927
0.929274
0.929278
0.929278
0.929282
0.929286
0.92929
0.929295
0.929295
0.929299
0.929303
0.929307
0.929311
0.929311
0.929315
0.929319
0.929324
0.929328
0.929328
0.929332
0.929336
0.92934
0.929344
0.929344
0.929348
0.929353
0.929357
0.929361
0.929361
0.929365
0.929369
0.929373
0.929377
0.929377
0.929382
0.929386
0.92939
0.929394
0.929394
0.929398
0.929402
0.929407
0.929411
0.929411
0.929415
0.929419
0.929423
0.929427
0.929427
0.929432
0.929436
0.92944
0.929444
0.929444
0.929448
0.929452
0.929456
0.929461
0.929461
0.929465
0.929469
0.929473
0.929477
0.929477
0.929482
0.929486
0.92949
0.929494
0.929494
0.929498
0.929502
0.929507
0.929511
0.929511
0.929515
0.929519
0.929523
0.929528
0.929528
0.929532
0.929536
0.92954
0.929544
0.929544
0.929549
0.929553
0.929557
0.929561
0.929561
0.929566
0.92957
0.929574
0.929578
0.929578
0.929583
0.929587
0.929591
0.929595
0.929595
0.9296
0.929604
0.929608
0.929613
0.929613
0.929617
0.929621
0.929625
0.92963
0.92963
0.929634
0.929638
0.929642
0.929647
0.929647
0.929651
0.929655
0.92966
0.929664
0.929664
0.929668
0.929672
0.929677
0.929681
0.929681
0.929685
0.92969
0.929694
0.929698
0.929698
0.929702
0.929707
0.929711
0.929715
0.929715
0.92972
0.929724
0.929728
0.929733
0.929733
0.929737
0.929741
0.929745
0.92975
0.92975
0.929754
0.929758
0.929763
0.929767
0.929767
0.929771
0.929775
0.92978
0.929784
0.929784
0.929788
0.929793
0.929797
0.929801
0.929801
0.929806
0.92981
0.929814
0.929819
0.929819
0.929823
0.929827
0.929832
0.929836
0.929836
0.929841
0.929845
0.929849
0.929854
0.929854
0.929858
0.929862
0.929867
0.929871
0.929871
0.929876
0.92988
0.929884
0.929889
0.929889
0.929893
0.929898
0.929902
0.929906
0.929906
0.929911
0.929915
0.92992
0.929924
0.929924
0.929929
0.929933
0.929937
0.929942
0.929942
0.929946
0.929951
0.929955
0.929959
0.929959
0.929964
0.929968
0.929973
0.929977
0.929977
0.929981
0.929986
0.92999
0.929995
0.929995
0.929999
0.930004
0.930008
0.930012
0.930012
0.930017
0.930021
0.930026
0.93003
0.93003
0.930034
0.930039
0.930043
0.930048
0.930048
0.930052
0.930057
0.930061
0.930065
0.930065
0.93007
0.930074
0.930079
0.930083
0.930083
0.930088
0.930092
0.930097
0.930101
0.930101
0.930106
0.93011
0.930115
0.930119
0.930119
0.930124
0.930128
0.930133
0.930137
0.930137
0.930142
0.930146
0.930151
0.930155
0.930155
0.93016
0.930164
0.930169
0.930173
0.930173
0.930178
0.930182
0.930187
0.930191
0.930191
0.930196
0.9302
0.930205
0.93021
0.93021
0.930214
0.930219
0.930223
0.930228
0.930228
0.930232
0.930237
0.930241
0.930246
0.930246
0.93025
0.930255
0.930259
0.930264
0.930264
0.930269
0.930273
0.930278
0.930282
0.930282
0.930287
0.930291
0.930296
0.9303
0.9303
0.930305
0.930309
0.930314
0.930318
0.930318
0.930323
0.930328
0.930332
0.930337
0.930337
0.930341
0.930346
0.93035
0.930355
0.930355
0.93036
0.930364
0.930369
0.930373
0.930373
0.930378
0.930382
0.930387
0.930392
0.930392
0.930396
0.930401
0.930406
0.93041
0.93041
0.930415
0.930419
0.930424
0.930429
0.930429
0.930433
0.930438
0.930443
0.930447
0.930447
0.930452
0.930457
0.930461
0.930466
0.930466
0.930471
0.930475
0.93048
0.930484
0.930484
0.930489
0.930494
0.930498
0.930503
0.930503
0.930508
0.930512
0.930517
0.930522
0.930522
0.930526
0.930531
0.930536
0.93054
0.93054
0.930545
0.93055
0.930554
0.930559
0.930559
0.930564
0.930568
0.930573
0.930578
0.930578
0.930582
0.930587
0.930592
0.930596
0.930596
0.930601
0.930606
0.93061
0.930615
0.930615
0.93062
0.930624
0.930629
0.930634
0.930634
0.930638
0.930643
0.930648
0.930653
0.930653
0.930657
0.930662
0.930667
0.930671
0.930671
0.930676
0.930681
0.930686
0.93069
0.93069
0.930695
0.9307
0.930705
0.930709
0.930709
0.930714
0.930719
0.930724
0.930729
0.930729
0.930733
0.930738
0.930743
0.930748
0.930748
0.930752
0.930757
0.930762
0.930767
0.930767
0.930771
0.930776
0.930781
0.930786
0.930786
0.930791
0.930795
0.9308
0.930805
0.930805
0.93081
0.930814
0.930819
0.930824
0.930824
0.930829
0.930834
0.930838
0.930843
0.930843
0.930848
0.930853
0.930858
0.930862
0.930862
0.930867
0.930872
0.930877
0.930881
0.930881
0.930886
0.930891
0.930896
0.930901
0.930901
0.930905
0.93091
0.930915
0.93092
0.93092
0.930925
0.93093
0.930934