<?xml version="1.0"?>
<VTKFile type="UnstructuredGrid" version="0.1" byte_order="LittleEndian">
<UnstructuredGrid>
<Piece NumberOfPoints="5000" NumberOfCells="4000">
<PointData Scalars="Reaction 0">
<DataArray type="Float32" Name="Reaction 0" format="ascii">
0.658615
0.658615
0.658615
0.658615
0.658615
0.658615
0.658615
0.658615
0.658615
0.658615
0.658615
0.658615
0.658615
0.658615
0.658616
0.658616
0.658616
0.658616
0.658616
0.658616
0.658616
0.658616
0.658616
0.658616
0.658616
0.658616
0.658616
0.658616
0.658616
0.658617
0.658617
0.658617
0.658617
0.658617
0.658617
0.658617
0.658617
0.658617
0.658618
0.658618
0.658618
0.658618
0.658618
0.658618
0.658618
0.658618
0.658619
0.658619
0.658619
0.658619
0.658619
0.658619
0.65862
0.65862
0.65862
0.65862
0.65862
0.65862
0.658621
0.658621
0.658621
0.658621
0.658621
0.658622
0.658622
0.658622
0.658622
0.658622
0.658623
0.658623
0.658623
0.658623
0.658624
0.658624
0.658624
0.658624
0.658624
0.658625
0.658625
0.658625
0.658625
0.658626
0.658626
0.658626
0.658627
0.658627
0.658627
0.658627
0.658628
0.658628
0.658628
0.658628
0.658629
0.658629
0.65863
0.65863
0.65863
0.65863
0.658631
0.658631
0.658631
0.658632
0.658632
0.658632
0.658633
0.658633
0.658633
0.658634
0.658634
0.658634
0.658634
0.658635
0.658635
0.658636
0.658636
0.658636
0.658637
0.658637
0.658638
0.658638
0.658638
0.658639
0.658639
0.65864
0.65864
0.65864
0.658641
0.658641
0.658642
0.658642
0.658642
0.658643
0.658643
0.658644
0.658644
0.658644
0.658645
0.658645
0.658646
0.658646
0.658646
0.658647
0.658648
0.658648
0.658649
0.658649
0.658649
0.65865
0.65865
0.658651
0.658651
0.658652
0.658652
0.658653
0.658654
0.658654
0.658654
0.658655
0.658655
0.658656
0.658656
0.658657
0.658657
0.658658
0.658659
0.658659
0.658659
0.65866
0.658661
0.658661
0.658661
0.658662
0.658663
0.658663
0.658664
0.658664
0.658665
0.658665
0.658666
0.658667
0.658667
0.658668
0.658668
0.658669
0.65867
0.65867
0.658671
0.658671
0.658672
0.658673
0.658673
0.658674
0.658674
0.658675
0.658676
0.658676
0.658677
0.658677
0.658678
0.658679
0.658679
0.65868
0.658681
0.658681
0.658682
0.658682
0.658683
0.658684
0.658685
0.658686
0.658686
0.658686
0.658687
0.658688
0.658689
0.658689
0.65869
0.658691
0.658692
0.658692
0.658692
0.658693
0.658694
0.658695
0.658696
0.658696
0.658697
0.658698
0.658699
0.6587
0.6587
0.658701
0.658701
0.658702
0.658703
0.658703
0.658704
0.658705
0.658706
0.658707
0.658707
0.658708
0.658709
0.65871
0.658711
0.658711
0.658712
0.658713
0.658714
0.658715
0.658715
0.658716
0.658717
0.658718
0.658719
0.658719
0.65872
0.658721
0.658722
0.658723
0.658723
0.658724
0.658725
0.658726
0.658727
0.658727
0.658728
0.658729
0.658731
0.658732
0.658732
0.658733
0.658734
0.658735
0.658736
0.658736
0.658737
0.658738
0.658739
0.65874
0.65874
0.658741
0.658743
0.658744
0.658745
0.658745
0.658746
0.658747
0.658748
0.658749
0.658749
0.658751
0.658752
0.658753
0.658754
0.658754
0.658755
0.658757
0.658758
0.658759
0.658759
0.65876
0.658761
0.658763
0.658764
0.658764
0.658765
0.658766
0.658767
0.658769
0.658769
0.65877
0.658771
0.658772
0.658774
0.658774
0.658775
0.658776
0.658777
0.658779
0.658779
0.65878
0.658781
0.658783
0.658784
0.658784
0.658785
0.658786
0.658788
0.658789
0.658789
0.65879
0.658792
0.658793
0.658794
0.658794
0.658796
0.658797
0.658798
0.6588
0.6588
0.658801
0.658803
0.658804
0.658805
0.658805
0.658807
0.658808
0.658809
0.658811
0.658811
0.658812
0.658814
0.658815
0.658817
0.658817
0.658818
0.658819
0.658821
0.658822
0.658822
0.658824
0.658825
0.658827
0.658828
0.658828
0.658829
0.658831
0.658832
0.658834
0.658834
0.658835
0.658837
0.658838
0.65884
0.65884
0.658841
0.658843
0.658844
0.658846
0.658846
0.658847
0.658849
0.65885
0.658852
0.658852
0.658854
0.658855
0.658857
0.658858
0.658858
0.65886
0.658861
0.658863
0.658864
0.658864
0.658866
0.658868
0.658869
0.658871
0.658871
0.658872
0.658874
0.658876
0.658877
0.658877
0.658879
0.658881
0.658882
0.658884
0.658884
0.658885
0.658887
0.658889
0.65889
0.65889
0.658892
0.658894
0.658895
0.658897
0.658897
0.658899
0.6589
0.658902
0.658904
0.658904
0.658906
0.658907
0.658909
0.658911
0.658911
0.658912
0.658914
0.658916
0.658918
0.658918
0.658919
0.658921
0.658923
0.658925
0.658925
0.658926
0.658928
0.65893
0.658932
0.658932
0.658933
0.658935
0.658937
0.658939
0.658939
0.658941
0.658942
0.658944
0.658946
0.658946
0.658948
0.65895
0.658952
0.658953
0.658953
0.658955
0.658957
0.658959
0.658961
0.658961
0.658963
0.658965
0.658966
0.658968
0.658968
0.65897
0.658972
0.658974
0.658976
0.658976
0.658978
0.65898
0.658982
0.658983
0.658983
0.658985
0.658987
0.658989
0.658991
0.658991
0.658993
0.658995
0.658997
0.658999
0.658999
0.659001
0.659003
0.659005
0.659007
0.659007
0.659009
0.659011
0.659013
0.659015
0.659015
0.659017
0.659019
0.659021
0.659023
0.659023
0.659025
0.659027
0.659029
0.659031
0.659031
0.659033
0.659035
0.659037
0.659039
0.659039
0.659041
0.659043
0.659045
0.659048
0.659048
0.65905
0.659052
0.659054
0.659056
0.659056
0.659058
0.65906
0.659062
0.659064
0.659064
0.659067
0.659069
0.659071
0.659073
0.659073
0.659075
0.659077
0.659079
0.659082
0.659082
0.659084
0.659086
0.659088
0.65909
0.65909
0.659092
0.659095
0.659097
0.659099
0.659099
0.659101
0.659103
0.659106
0.659108
0.659108
0.65911
0.659112
0.659115
0.659117
0.659117
0.659119
0.659121
0.659124
0.659126
0.659126
0.659128
0.65913
0.659133
0.659135
0.659135
0.659137
0.65914
0.659142
0.659144
0.659144
0.659146
0.659149
0.659151
0.659153
0.659153
0.659156
0.659158
0.65916
0.659163
0.659163
0.659165
0.659167
0.65917
0.659172
0.659172
0.659175
0.659177
0.659179
0.659182
0.659182
0.659184
0.659186
0.659189
0.659191
0.659191
0.659194
0.659196
0.659199
0.659201
0.659201
0.659203
0.659206
0.659208
0.659211
0.659211
0.659213
0.659216
0.659218
0.659221
0.659221
0.659223
0.659225
0.659228
0.65923
0.65923
0.659233
0.659235
0.659238
0.65924
0.65924
0.659243
0.659245
0.659248
0.659251
0.659251
0.659253
0.659256
0.659258
0.659261
0.659261
0.659263
0.659266
0.659268
0.659271
0.659271
0.659274
0.659276
0.659279
0.659281
0.659281
0.659284
0.659286
0.659289
0.659292
0.659292
0.659294
0.659297
0.6593
0.659302
0.659302
0.659305
0.659307
0.65931
0.659313
0.659313
0.659315
0.659318
0.659321
0.659323
0.659323
0.659326
0.659329
0.659331
0.659334
0.659334
0.659337
0.659339
0.659342
0.659345
0.659345
0.659348
0.65935
0.659353
0.659356
0.659356
0.659358
0.659361
0.659364
0.659367
0.659367
0.659369
0.659372
0.659375
0.659378
0.659378
0.659381
0.659383
0.659386
0.659389
0.659389
0.659392
0.659395
0.659397
0.6594
0.6594
0.659403
0.659406
0.659409
0.659411
0.659411
0.659414
0.659417
0.65942
0.659423
0.659423
0.659426
0.659429
0.659431
0.659434
0.659434
0.659437
0.65944
0.659443
0.659446
0.659446
0.659449
0.659452
0.659455
0.659457
0.659457
0.65946
0.659463
0.659466
0.659469
0.659469
0.659472
0.659475
0.659478
0.659481
0.659481
0.659484
0.659487
0.65949
0.659493
0.659493
0.659496
0.659499
0.659502
0.659505
0.659505
0.659508
0.659511
0.659514
0.659517
0.659517
0.65952
0.659523
0.659526
0.659529
0.659529
0.659532
0.659535
0.659538
0.659541
0.659541
0.659544
0.659547
0.65955
0.659553
0.659553
0.659556
0.65956
0.659563
0.659566
0.659566
0.659569
0.659572
0.659575
0.659578
0.659578
0.659581
0.659584
0.659588
0.659591
0.659591
0.659594
0.659597
0.6596
0.659603
0.659603
0.659606
0.65961
0.659613
0.659616
0.659616
0.659619
0.659622
0.659625
0.659629
0.659629
0.659632
0.659635
0.659638
0.659642
0.659642
0.659645
0.659648
0.659651
0.659654
0.659654
0.659658
0.659661
0.659664
0.659667
0.659667
0.659671
0.659674
0.659677
0.65968
0.65968
0.659684
0.659687
0.65969
0.659694
0.659694
0.659697
0.6597
0.659703
0.659707
0.659707
0.65971
0.659713
0.659717
0.65972
0.65972
0.659724
0.659727
0.65973
0.659734
0.659734
0.659737
0.65974
0.659744
0.659747
0.659747
0.659751
0.659754
0.659757
0.659761
0.659761
0.659764
0.659768
0.659771
0.659775
0.659775
0.659778
0.659781
0.659785
0.659788
0.659788
0.659792
0.659795
0.659799
0.659802
0.659802
0.659806
0.659809
0.659813
0.659816
0.659816
0.65982
0.659823
0.659827
0.65983
0.65983
0.659834
0.659837
0.659841
0.659844
0.659844
0.659848
0.659851
0.659855
0.659858
0.659858
0.659862
0.659866
0.659869
0.659873
0.659873
0.659876
0.65988
0.659883
0.659887
0.659887
0.659891
0.659894
0.659898
0.659901
0.659901
0.659905
0.659909
0.659912
0.659916
0.659916
0.65992
0.659923
0.659927
0.659931
0.659931
0.659934
0.659938
0.659942
0.659945
0.659945
0.659949
0.659953
0.659956
0.65996
0.65996
0.659964
0.659967
0.659971
0.659975
0.659975
0.659978
0.659982
0.659986
0.65999
0.65999
0.659993
0.659997
0.660001
0.660005
0.660005
0.660008
0.660012
0.660016
0.66002
0.66002
0.660024
0.660027
0.660031
0.660035
0.660035
0.660039
0.660043
0.660046
0.66005
0.66005
0.660054
0.660058
0.660062
0.660066
0.660066
0.660069
0.660073
0.660077
0.660081
0.660081
0.660085
0.660089
0.660093
0.660096
0.660096
0.6601
0.660104
0.660108
0.660112
0.660112
0.660116
0.66012
0.660124
0.660128
0.660128
0.660132
0.660136
0.660139
0.660143
0.660143
0.660147
0.660151
0.660155
0.660159
0.660159
0.660163
0.660167
0.660171
0.660175
0.660175
0.660179
0.660183
0.660187
0.660191
0.660191
0.660195
0.660199
0.660203
0.660207
0.660207
0.660211
0.660215
0.660219
0.660223
0.660223
0.660227
0.660231
0.660236
0.66024
0.66024
0.660244
0.660248
0.660252
0.660256
0.660256
0.66026
0.660264
0.660268
0.660272
0.660272
0.660276
0.660281
0.660285
0.660289
0.660289
0.660293
0.660297
0.660301
0.660305
0.660305
0.66031
0.660314
0.660318
0.660322
0.660322
0.660326
0.66033
0.660335
0.660339
0.660339
0.660343
0.660347
0.660351
0.660356
0.660356
0.66036
0.660364
0.660368
0.660372
0.660372
0.660377
0.660381
0.660385
0.660389
0.660389
0.660394
0.660398
0.660402
0.660406
0.660406
0.660411
0.660415
0.660419
0.660424
0.660424
0.660428
0.660432
0.660436
0.660441
0.660441
0.660445
0.660449
0.660454
0.660458
0.660458
0.660463
0.660467
0.660471
0.660476
0.660476
0.66048
0.660484
0.660489
0.660493
0.660493
0.660498
0.660502
0.660506
0.660511
0.660511
0.660515
0.66052
0.660524
0.660529
0.660529
0.660533
0.660537
0.660542
0.660546
0.660546
0.660551
0.660555
0.66056
0.660564
0.660564
0.660569
0.660573
0.660578
0.660582
0.660582
0.660587
0.660591
0.660596
0.6606
0.6606
0.660605
0.660609
0.660614
0.660618
0.660618
0.660623
0.660627
0.660632
0.660636
0.660636
0.660641
0.660646
0.66065
0.660655
0.660655
0.660659
0.660664
0.660668
0.660673
0.660673
0.660678
0.660682
0.660687
0.660691
0.660691
0.660696
0.660701
0.660705
0.66071
0.66071
0.660715
0.660719
0.660724
0.660729
0.660729
0.660733
0.660738
0.660743
0.660747
0.660747
0.660752
0.660757
0.660761
0.660766
0.660766
0.660771
0.660775
0.66078
0.660785
0.660785
0.66079
0.660794
0.660799
0.660804
0.660804
0.660809
0.660813
0.660818
0.660823
0.660823
0.660828
0.660832
0.660837
0.660842
0.660842
0.660847
0.660852
0.660856
0.660861
0.660861
0.660866
0.660871
0.660876
0.66088
0.66088
0.660885
0.66089
0.660895
0.6609
0.6609
0.660905
0.66091
0.660914
0.660919
0.660919
0.660924
0.660929
0.660934
0.660939
0.660939
0.660944
0.660949
0.660953
0.660958
0.660958
0.660963
0.660968
0.660973
0.660978
0.660978
0.660983
0.660988
0.660993
0.660998
0.660998
0.661003
0.661008
0.661013
0.661018
0.661018
0.661023
0.661028
0.661033
0.661038
0.661038
0.661043
0.661048
0.661053
0.661058
0.661058
0.661063
0.661068
0.661073
0.661078
0.661078
0.661083
0.661088
0.661093
0.661098
0.661098
0.661103
0.661108
0.661113
0.661118
0.661118
0.661123
0.661128
0.661133
0.661138
0.661138
0.661144
0.661149
0.661154
0.661159
0.661159
0.661164
0.661169
0.661174
0.661179
0.661179
0.661185
0.66119
0.661195
0.6612
0.6612
0.661205
0.661211
0.661216
0.661221
0.661221
0.661226
0.661231
0.661237
0.661242
0.661242
0.661247
0.661252
0.661258
0.661263
0.661263
0.661268
0.661273
0.661279
0.661284
0.661284
0.661289
0.661294
0.6613
0.661305
0.661305
0.66131
0.661316
0.661321
0.661326
0.661326
0.661331
0.661337
0.661342
0.661347
0.661347
0.661353
0.661358
0.661363
0.661369
0.661369
0.661374
0.661379
0.661385
0.66139
0.66139
0.661396
0.661401
0.661406
0.661412
0.661412
0.661417
0.661422
0.661428
0.661433
0.661433
0.661439
0.661444
0.66145
0.661455
0.661455
0.66146
0.661466
0.661471
0.661477
0.661477
0.661482
0.661488
0.661493
0.661499
0.661499
0.661504
0.66151
0.661515
0.66152
0.66152
0.661526
0.661531
0.661537
0.661543
0.661543
0.661548
0.661554
0.661559
0.661565
0.661565
0.66157
0.661576
0.661581
0.661587
0.661587
0.661592
0.661598
0.661604
0.661609
0.661609
0.661615
0.66162
0.661626
0.661631
0.661631
0.661637
0.661643
0.661648
0.661654
0.661654
0.66166
0.661665
0.661671
0.661676
0.661676
0.661682
0.661688
0.661693
0.661699
0.661699
0.661705
0.66171
0.661716
0.661722
0.661722
0.661727
0.661733
0.661739
0.661745
0.661745
0.66175
0.661756
0.661762
0.661767
0.661767
0.661773
0.661779
0.661785
0.66179
0.66179
0.661796
0.661802
0.661808
0.661813
0.661813
0.661819
0.661825
0.661831
0.661836
0.661836
0.661842
0.661848
0.661854
0.66186
0.66186
0.661865
0.661871
0.661877
0.661883
0.661883
0.661889
0.661894
0.6619
0.661906
0.661906
0.661912
0.661918
0.661924
0.66193
0.66193
0.661936
0.661942
0.661947
0.661953
0.661953
0.661959
0.661965
0.661971
0.661977
0.661977
0.661983
0.661989
0.661995
0.662001
0.662001
0.662007
0.662013
0.662019
0.662025
0.662025
0.662031
0.662037
0.662043
0.662049
0.662049
0.662055
0.662061
0.662067
0.662073
0.662073
0.662079
0.662085
0.662091
0.662097
0.662097
0.662103
0.662109
0.662115
0.662121
0.662121
0.662127
0.662133
0.662139
0.662146
0.662146
0.662152
0.662158
0.662164
0.66217
0.66217
0.662176
0.662182
0.662188
0.662194
0.662194
0.662201
0.662207
0.662213
0.662219
0.662219
0.662225
0.662231
0.662237
0.662244
0.662244
0.66225
0.662256
0.662262
0.662268
0.662268
0.662275
0.662281
0.662287
0.662293
0.662293
0.662299
0.662306
0.662312
0.662318
0.662318
0.662324
0.662331
0.662337
0.662343
0.662343
0.662349
0.662356
0.662362
0.662368
0.662368
0.662374
0.662381
0.662387
0.662393
0.662393
0.6624
0.662406
0.662412
0.662419
0.662419
0.662425
0.662431
0.662438
0.662444
0.662444
0.66245
0.662457
0.662463
0.662469
0.662469
0.662476
0.662482
0.662488
0.662495
0.662495
0.662501
0.662508
0.662514
0.66252
0.66252
0.662527
0.662533
0.66254
0.662546
0.662546
0.662552
0.662559
0.662565
0.662572
0.662572
0.662578
0.662585
0.662591
0.662598
0.662598
0.662604
0.66261
0.662617
0.662623
0.662623
0.66263
0.662636
0.662643
0.662649
0.662649
0.662656
0.662662
0.662669
0.662676
0.662676
0.662682
0.662689
0.662695
0.662702
0.662702
0.662708
0.662715
0.662722
0.662728
0.662728
0.662735
0.662741
0.662748
0.662755
0.662755
0.662761
0.662768
0.662775
0.662781
0.662781
0.662788
0.662795
0.662801
0.662808
0.662808
0.662815
0.662821
0.662828
0.662835
0.662835
0.662841
0.662848
0.662855
0.662861
0.662861
0.662868
0.662875
0.662882
0.662888
0.662888
0.662895
0.662902
0.662909
0.662915
0.662915
0.662922
0.662929
0.662936
0.662942
0.662942
0.662949
0.662956
0.662963
0.662969
0.662969
0.662976
0.662983
0.66299
0.662997
0.662997
0.663004
0.66301
0.663017
0.663024
0.663024
0.663031
0.663038
0.663045
0.663051
0.663051
0.663058
0.663065
0.663072
0.663079
0.663079
0.663086
0.663093
0.6631
0.663106
0.663106
0.663113
0.66312
0.663127
0.663134
0.663134
0.663141
0.663148
0.663155
0.663162
0.663162
0.663169
0.663176
0.663183
0.66319
0.66319
0.663197
0.663204
0.663211
0.663218
0.663218
0.663225
0.663232
0.663239
0.663246
0.663246
0.663253
0.66326
0.663267
0.663274
0.663274
0.663281
0.663288
0.663295
0.663302
0.663302
0.663309
0.663316
0.663323
0.66333
0.66333
0.663337
0.663344
0.663351
0.663358
0.663358
0.663366
0.663373
0.66338
0.663387
0.663387
0.663394
0.663401
0.663408
0.663415
0.663415
0.663422
0.66343
0.663437
0.663444
0.663444
0.663451
0.663458
0.663466
0.663473
0.663473
0.66348
0.663487
0.663494
0.663502
0.663502
0.663509
0.663516
0.663523
0.663531
0.663531
0.663538
0.663545
0.663553
0.66356
0.66356
0.663567
0.663574
0.663582
0.663589
0.663589
0.663596
0.663604
0.663611
0.663618
0.663618
0.663626
0.663633
0.66364
0.663648
0.663648
0.663655
0.663662
0.66367
0.663677
0.663677
0.663684
0.663692
0.663699
0.663707
0.663707
0.663714
0.663721
0.663729
0.663736
0.663736
0.663744
0.663751
0.663758
0.663766
0.663766
0.663773
0.663781
0.663788
0.663796
0.663796
0.663803
0.66381
0.663818
0.663825
0.663825
0.663833
0.66384
0.663848
0.663855
0.663855
0.663863
0.66387
0.663878
0.663885
0.663885
0.663893
0.6639
0.663908
0.663915
0.663915
0.663923
0.663931
0.663938
0.663946
0.663946
0.663953
0.663961
0.663968
0.663976
0.663976
0.663984
0.663991
0.663999
0.664006
0.664006
0.664014
0.664022
0.664029
0.664037
0.664037
0.664044
0.664052
0.66406
0.664067
0.664067
0.664075
0.664083
0.66409
0.664098
0.664098
0.664106
0.664113
0.664121
0.664129
0.664129
0.664136
0.664144
0.664152
0.664159
0.664159
0.664167
0.664175
0.664183
0.66419
0.66419
0.664198
0.664206
0.664214
0.664221
0.664221
0.664229
0.664237
0.664245
0.664252
0.664252
0.66426
0.664268
0.664276
0.664284
0.664284
0.664292
0.664299
0.664307
0.664315
0.664315
0.664323
0.664331
0.664339
0.664347
0.664347
0.664355
0.664362
0.66437
0.664378
0.664378
0.664386
0.664394
0.664402
0.66441
0.66441
0.664418
0.664426
0.664434
0.664442
0.664442
0.66445
0.664458
0.664465
0.664473
0.664473
0.664481
0.664489
0.664497
0.664505
0.664505
0.664513
0.664521
0.664529
0.664537
0.664537
0.664545
0.664553
0.664561
0.664569
0.664569
0.664577
0.664585
0.664594
0.664602
0.664602
0.66461
0.664618
0.664626
0.664634
0.664634
0.664642
0.66465
0.664658
0.664666
0.664666
0.664674
0.664682
0.664691
0.664699
0.664699
0.664707
0.664715
0.664723
0.664731
0.664731
0.664739
0.664747
0.664756
0.664764
0.664764
0.664772
0.66478
0.664788
0.664796
0.664796
0.664805
0.664813
0.664821
0.664829
0.664829
0.664837
0.664846
0.664854
0.664862
0.664862
0.66487
0.664879
0.664887
0.664895
0.664895
0.664903
0.664912
0.66492
0.664928
0.664928
0.664936
0.664945
0.664953
0.664961
0.664961
0.664969
0.664978
0.664986
0.664994
0.664994
0.665003
0.665011
0.665019
0.665028
0.665028
0.665036
0.665044
0.665053
0.665061
0.665061
0.66507
0.665078
0.665086
0.665095
0.665095
0.665103
0.665112
0.66512
0.665129
0.665129
0.665137
0.665146
0.665154
0.665162
0.665162
0.665171
0.665179
0.665188
0.665196
0.665196
0.665205
0.665213
0.665222
0.66523
0.66523
0.665239
0.665247
0.665256
0.665264
0.665264
0.665273
0.665282
0.66529
0.665299
0.665299
0.665307
0.665316
0.665324
0.665333
0.665333
0.665341
0.66535
0.665359
0.665367
0.665367
0.665376
0.665384
0.665393
0.665402
0.665402
0.66541
0.665419
0.665428
0.665436
0.665436
0.665445
0.665454
0.665462
0.665471
0.665471
0.665479
0.665488
0.665497
0.665506
0.665506
0.665514
0.665523
0.665532
0.66554
0.66554
0.665549
0.665558
0.665566
0.665575
0.665575
0.665584
0.665593
0.665601
0.66561
0.66561
0.665619
0.665628
0.665636
0.665645
0.665645
0.665654
0.665663
0.665672
0.66568
0.66568
0.665689
0.665698
0.665707
0.665716
0.665716
0.665724
0.665733
0.665742
0.665751
0.665751
0.66576
0.665769
0.665777
0.665786
0.665786
0.665795
0.665804
0.665813
0.665822
0.665822
0.665831
0.66584
0.665848
0.665857
0.665857
0.665866
0.665875
0.665884
0.665893
0.665893
0.665902
0.665911
0.66592
0.665929
0.665929
0.665938
0.665947
0.665956
0.665965
0.665965
0.665974
0.665983
0.665992
0.666001
0.666001
0.66601
0.666019
0.666029
0.666038
0.666038
0.666047
0.666056
0.666065
0.666074
0.666074
0.666083
0.666092
0.666101
0.66611
0.66611
0.666119
0.666128
0.666138
0.666147
0.666147
0.666156
0.666165
0.666174
0.666183
0.666183
0.666192
0.666202
0.666211
0.66622
0.66622
0.666229
0.666238
0.666247
0.666257
0.666257
0.666266
0.666275
0.666284
0.666293
0.666293
0.666303
0.666312
0.666321
0.66633
0.66633
0.66634
0.666349
0.666358
0.666367
0.666367
0.666377
0.666386
0.666395
0.666405
0.666405
0.666414
0.666423
0.666432
0.666442
0.666442
0.666451
0.66646
0.66647
0.666479
0.666479
0.666488
0.666498
0.666507
0.666516
0.666516
0.666526
0.666535
0.666544
0.666554
0.666554
0.666563
0.666572
0.666582
0.666591
0.666591
0.666601
0.66661
0.666619
0.666629
0.666629
0.666638
0.666648
0.666657
0.666667
0.666667
0.666676
0.666686
0.666695
0.666705
0.666705
0.666714
0.666724
0.666733
0.666743
0.666743
0.666752
0.666762
0.666771
0.666781
0.666781
0.66679
0.6668
0.66681
0.666819
0.666819
0.666829
0.666838
0.666848
0.666858
0.666858
0.666867
0.666877
0.666886
0.666896
0.666896
0.666906
0.666915
0.666925
0.666935
0.666935
0.666944
0.666954
0.666963
0.666973
0.666973
0.666983
0.666992
0.667002
0.667012
0.667012
0.667022
0.667031
0.667041
0.667051
0.667051
0.66706
0.66707
0.66708
0.66709
0.66709
0.667099
0.667109
0.667119
0.667129
0.667129
0.667138
0.667148
0.667158
0.667168
0.667168
0.667177
0.667187
0.667197
0.667207
0.667207
0.667217
0.667226
0.667236
0.667246
0.667246
0.667256
0.667266
0.667276
0.667285
0.667285
0.667295
0.667305
0.667315
0.667325
0.667325
0.667335
0.667345
0.667354
0.667364
0.667364
0.667374
0.667384
0.667394
0.667404
0.667404
0.667414
0.667424
0.667434
0.667444
0.667444
0.667453
0.667463
0.667473
0.667483
0.667483
0.667493
0.667503
0.667513
0.667523
0.667523
0.667533
0.667543
0.667553
0.667563
0.667563
0.667574
0.667584
0.667594
0.667604
0.667604
0.667614
0.667624
0.667634
0.667644
0.667644
0.667654
0.667664
0.667675
0.667685
0.667685
0.667695
0.667705
0.667715
0.667725
0.667725
0.667735
0.667746
0.667756
0.667766
0.667766
0.667776
0.667786
0.667796
0.667807
0.667807
0.667817
0.667827
0.667837
0.667847
0.667847
0.667858
0.667868
0.667878
0.667888
0.667888
0.667899
0.667909
0.667919
0.667929
0.667929
0.66794
0.66795
0.66796
0.66797
0.66797
0.667981
0.667991
0.668001
0.668012
0.668012
0.668022
0.668032
0.668042
0.668053
0.668053
0.668063
0.668073
0.668084
0.668094
0.668094
0.668104
0.668115
0.668125
0.668136
0.668136
0.668146
0.668156
0.668167
0.668177
0.668177
0.668187
0.668198
0.668208
0.668219
0.668219
0.668229
0.66824
0.66825
0.66826
0.66826
0.668271
0.668281
0.668292
0.668302
0.668302
0.668313
0.668323
0.668334
0.668344
0.668344
0.668355
0.668365
0.668376
0.668386
0.668386
0.668397
0.668407
0.668418
0.668429
0.668429
0.668439
0.66845
0.66846
0.668471
0.668471
0.668482
0.668492
0.668503
0.668514
0.668514
0.668524
0.668535
0.668545
0.668556
0.668556
0.668567
0.668577
0.668588
0.668599
0.668599
0.668609
0.66862
0.668631
0.668642
0.668642
0.668652
0.668663
0.668674
0.668684
0.668684
0.668695
0.668706
0.668717
0.668727
0.668727
0.668738
0.668749
0.66876
0.66877
0.66877
0.668781
0.668792
0.668803
0.668813
0.668813
0.668824
0.668835
0.668846
0.668857
0.668857
0.668868
0.668878
0.668889
0.6689
0.6689
0.668911
0.668922
0.668933
0.668943
0.668943
0.668954
0.668965
0.668976
0.668987
0.668987
0.668998
0.669009
0.66902
0.66903
0.66903
0.669041
0.669052
0.669063
0.669074
0.669074
0.669085
0.669096
0.669107
0.669118
0.669118
0.669129
0.66914
0.669151
0.669162
0.669162
0.669173
0.669184
0.669195
0.669206
0.669206
0.669217
0.669228
0.669239
0.66925
0.66925
0.669261
0.669272
0.669283
0.669294
0.669294
0.669305
0.669317
0.669328
0.669339
0.669339
0.66935
0.669361
0.669372
0.669383
0.669383
0.669395
0.669406
0.669417
0.669428
0.669428
0.669439
0.66945
0.669462
0.669473
0.669473
0.669484
0.669495
0.669506
0.669518
0.669518
0.669529
0.66954
0.669551
0.669562
0.669562
0.669574
0.669585
0.669596
0.669607
0.669607
0.669619
0.66963
0.669641
0.669653
0.669653
0.669664
0.669675
0.669686
0.669698
0.669698
0.669709
0.66972
0.669732
0.669743
0.669743
0.669754
0.669766
0.669777
0.669788
0.669788
0.6698
0.669811
0.669822
0.669834
0.669834
0.669845
0.669857
0.669868
0.669879
0.669879
0.669891
0.669902
0.669914
0.669925
0.669925
0.669936
0.669948
0.669959
0.669971
0.669971
0.669982
0.669994
0.670005
0.670017
0.670017
0.670028
0.67004
0.670051
0.670063
0.670063
0.670074
0.670086
0.670097
0.670109
0.670109
0.67012
0.670132
0.670144
0.670155
0.670155
0.670167
0.670178
0.67019
0.670202
0.670202
0.670213
0.670225
0.670237
0.670248
0.670248
0.67026
0.670272
0.670283
0.670295
0.670295
0.670307
0.670318
0.67033
0.670342
0.670342
0.670353
0.670365
0.670377
0.670388
0.670388
0.6704
0.670412
0.670424
0.670435
0.670435
0.670447
0.670459
0.670471
0.670482
0.670482
0.670494
0.670506
0.670518
0.670529
0.670529
0.670541
0.670553
0.670565
0.670577
0.670577
0.670588
0.6706
0.670612
0.670624
0.670624
0.670636
0.670648
0.670659
0.670671
0.670671
0.670683
0.670695
0.670707
0.670719
0.670719
0.670731
0.670743
0.670754
0.670766
0.670766
0.670778
0.67079
0.670802
0.670814
0.670814
0.670826
0.670838
0.67085
0.670862
0.670862
0.670874
0.670886
0.670898
0.67091
0.67091
0.670922
0.670934
0.670946
0.670958
0.670958
0.67097
0.670982
0.670994
0.671006
0.671006
0.671018
0.67103
0.671042
0.671054
0.671054
0.671067
0.671079
0.671091
0.671103
0.671103
0.671115
0.671127
0.671139
0.671151
0.671151
0.671164
0.671176
0.671188
0.6712
0.6712
0.671212
0.671225
0.671237
0.671249
0.671249
0.671261
0.671273
0.671286
0.671298
0.671298
0.67131
0.671322
0.671334
0.671347
0.671347
0.671359
0.671371
0.671383
0.671396
0.671396
0.671408
0.67142
0.671433
0.671445
0.671445
0.671457
0.671469
0.671482
0.671494
0.671494
0.671506
0.671519
0.671531
0.671543
0.671543
0.671556
0.671568
0.67158
0.671593
0.671593
0.671605
0.671617
0.67163
0.671642
0.671642
0.671655
0.671667
0.671679
0.671692
0.671692
0.671704
0.671717
0.671729
0.671741
0.671741
0.671754
0.671766
0.671779
0.671791
0.671791
0.671804
0.671816
0.671829
0.671841
0.671841
0.671854
0.671867
0.671879
0.671892
0.671892
0.671904
0.671917
0.671929
0.671942
0.671942
0.671955
0.671967
0.67198
0.671993
0.671993
0.672005
0.672018
0.67203
0.672043
0.672043
0.672056
0.672068
0.672081
0.672094
0.672094
0.672106
0.672119
0.672132
0.672144
0.672144
0.672157
0.67217
0.672183
0.672195
0.672195
0.672208
0.672221
0.672233
0.672246
0.672246
0.672259
0.672272
0.672284
0.672297
0.672297
0.67231
0.672323
0.672335
0.672348
0.672348
0.672361
0.672374
0.672387
0.672399
0.672399
0.672412
0.672425
0.672438
0.672451
0.672451
0.672463
0.672476
0.672489
0.672502
0.672502
0.672515
0.672528
0.672541
0.672553
0.672553
0.672566
0.672579
0.672592
0.672605
0.672605
0.672618
0.672631
0.672644
0.672657
0.672657
0.67267
0.672683
0.672696
0.672709
0.672709
0.672722
0.672735
0.672748
0.672761
0.672761
0.672774
0.672787
0.6728
0.672813
0.672813
0.672826
0.672839
0.672852
0.672865
0.672865
0.672878
0.672892
0.672905
0.672918
0.672918
0.672931
0.672944
0.672957
0.67297
0.67297
0.672983
0.672997
0.67301
0.673023
0.673023
0.673036
0.673049
0.673062
0.673076
0.673076
0.673089
0.673102
0.673115
0.673128
0.673128
0.673142
0.673155
0.673168
0.673181
0.673181
0.673195
0.673208
0.673221
0.673234
0.673234
0.673248
0.673261
0.673274
0.673287
0.673287
0.673301
0.673314
0.673327
0.673341
0.673341
0.673354
0.673367
0.67338
0.673394
0.673394
0.673407
0.67342
0.673434
0.673447
0.673447
0.67346
0.673474
0.673487
0.673501
0.673501
0.673514
0.673527
0.673541
0.673554
0.673554
0.673568
0.673581
0.673595
0.673608
0.673608
0.673622
0.673635
0.673649
0.673662
0.673662
0.673676
0.673689
0.673703
0.673716
0.673716
0.67373
0.673743
0.673757
0.673771
0.673771
0.673784
0.673798
0.673811
0.673825
0.673825
0.673839
0.673852
0.673866
0.673879
0.673879
0.673893
0.673907
0.67392
0.673934
0.673934
0.673948
0.673961
0.673975
0.673988
0.673988
0.674002
0.674016
0.67403
0.674043
0.674043
0.674057
0.674071
0.674084
0.674098
0.674098
0.674112
0.674125
0.674139
0.674153
0.674153
0.674167
0.67418
0.674194
0.674208
0.674208
0.674222
0.674235
0.674249
0.674263
0.674263
0.674277
0.67429
0.674304
0.674318
0.674318
0.674332
0.674346
0.67436
0.674373
0.674373
0.674387
0.674401
0.674415
0.674429
0.674429
0.674443
0.674457
0.674471
0.674485
0.674485
0.674498
0.674512
0.674526
0.67454
0.67454
0.674554
0.674568
0.674582
0.674596
0.674596
0.67461
0.674624
0.674638
0.674652
0.674652
0.674667
0.674681
0.674695
0.674709
0.674709
0.674723
0.674737
0.674751
0.674765
0.674765
0.674779
0.674793
0.674807
0.674821
0.674821
0.674835
0.67485
0.674864
0.674878
0.674878
0.674892
0.674906
0.67492
0.674934
0.674934
0.674948
0.674963
0.674977
0.674991
0.674991
0.675005
0.675019
0.675033
0.675048
0.675048
0.675062
0.675076
0.67509
0.675105
0.675105
0.675119
0.675133
0.675147
0.675161
0.675161
0.675176
0.67519
0.675204
0.675218
0.675218
0.675233
0.675247
0.675261
0.675276
0.675276
0.67529
0.675304
0.675319
0.675333
0.675333
0.675347
0.675362
0.675376
0.67539
0.67539
0.675405
0.675419
0.675434
0.675448
0.675448
0.675463
0.675477
0.675492
0.675506
0.675506
0.675521
0.675535
0.67555
0.675564
0.675564
0.675579
0.675593
0.675608
0.675622
0.675622
0.675637
0.675651
0.675666
0.67568
0.67568
0.675695
0.675709
0.675724
0.675738
0.675738
0.675753
0.675768
0.675782
0.675797
0.675797
0.675811
0.675826
0.675841
0.675855
0.675855
0.67587
0.675884
0.675899
0.675914
0.675914
0.675928
0.675943
0.675958
0.675972
0.675972
0.675987
0.676002
0.676016
0.676031
0.676031
0.676046
0.67606
0.676075
0.67609
0.67609
0.676104
0.676119
0.676134
0.676149
0.676149
0.676163
0.676178
0.676193
0.676208
0.676208
0.676222
0.676237
0.676252
0.676267
0.676267
0.676282
0.676297
0.676312
0.676326
0.676326
0.676341
0.676356
0.676371
0.676386
0.676386
0.676401
0.676416
0.676431
0.676446
0.676446
0.676461
0.676476
0.676491
0.676506
0.676506
0.676521
0.676536
0.676551
0.676566
0.676566
0.676581
0.676596
0.676611
0.676626
0.676626
0.676641
0.676656
0.676671
0.676686
0.676686
0.676701
0.676716
0.676731
0.676746
0.676746
0.676761
0.676776
0.676791
0.676806
0.676806
0.676821
0.676836
0.676851
0.676867
0.676867
0.676882
0.676897
0.676912
0.676927
0.676927
0.676942
0.676957
0.676972
0.676988
0.676988
0.677003
0.677018
0.677033
0.677048
0.677048
0.677064
0.677079
0.677094
0.677109
0.677109
0.677124
0.67714
0.677155
0.67717
0.67717
0.677186
0.677201
0.677216
0.677232
0.677232
0.677247
0.677262
0.677278
0.677293
0.677293
0.677308
0.677324
0.677339
0.677355
0.677355
0.67737
0.677385
0.677401
0.677416
0.677416
0.677432
0.677447
0.677462
0.677478
0.677478
0.677493
0.677509
0.677524
0.67754
0.67754
0.677555
0.677571
0.677586
0.677602
0.677602
0.677617
0.677633
0.677648
0.677664
0.677664
0.677679
0.677695
0.67771
0.677726
0.677726
0.677741
0.677757
0.677772
0.677788
0.677788
0.677804
0.677819
0.677835
0.67785
0.67785
0.677866
0.677881
0.677897
0.677913
0.677913
0.677928
0.677944
0.67796
0.677975
0.677975
0.677991