<?xml version="1.0"?>
<VTKFile type="UnstructuredGrid" version="0.1" byte_order="LittleEndian">
<UnstructuredGrid>
<Piece NumberOfPoints="5000" NumberOfCells="4000">
<PointData Scalars="Reaction 0">
<DataArray type="Float32" Name="Reaction 0" format="ascii">
0.688111
0.688111
0.688111
0.688111
0.688111
0.688111
0.688111
0.688111
0.688111
0.688111
0.688111
0.688111
0.688111
0.688111
0.688111
0.688111
0.688111
0.688111
0.688111
0.688112
0.688112
0.688112
0.688112
0.688112
0.688112
0.688112
0.688112
0.688112
0.688112
0.688113
0.688113
0.688113
0.688113
0.688113
0.688113
0.688113
0.688113
0.688114
0.688114
0.688114
0.688114
0.688114
0.688114
0.688115
0.688115
0.688115
0.688115
0.688115
0.688115
0.688116
0.688116
0.688116
0.688116
0.688116
0.688117
0.688117
0.688117
0.688117
0.688118
0.688118
0.688118
0.688118
0.688118
0.688119
0.688119
0.688119
0.688119
0.68812
0.68812
0.68812
0.68812
0.688121
0.688121
0.688121
0.688122
0.688122
0.688122
0.688123
0.688123
0.688123
0.688123
0.688124
0.688124
0.688125
0.688125
0.688125
0.688125
0.688126
0.688126
0.688127
0.688127
0.688127
0.688128
0.688128
0.688128
0.688128
0.688129
0.688129
0.68813
0.68813
0.68813
0.688131
0.688131
0.688132
0.688132
0.688132
0.688133
0.688133
0.688134
0.688135
0.688135
0.688135
0.688136
0.688136
0.688137
0.688137
0.688137
0.688138
0.688138
0.688139
0.688139
0.68814
0.68814
0.688141
0.688141
0.688141
0.688142
0.688143
0.688143
0.688144
0.688144
0.688145
0.688145
0.688146
0.688147
0.688147
0.688147
0.688148
0.688149
0.688149
0.688149
0.68815
0.688151
0.688151
0.688152
0.688152
0.688153
0.688153
0.688154
0.688155
0.688155
0.688156
0.688156
0.688157
0.688158
0.688158
0.688159
0.688159
0.68816
0.688161
0.688161
0.688162
0.688163
0.688163
0.688164
0.688164
0.688165
0.688166
0.688167
0.688167
0.688167
0.688168
0.688169
0.68817
0.688171
0.688171
0.688172
0.688173
0.688173
0.688174
0.688174
0.688175
0.688176
0.688177
0.688178
0.688178
0.688179
0.68818
0.688181
0.688182
0.688182
0.688182
0.688183
0.688184
0.688185
0.688185
0.688186
0.688187
0.688188
0.688189
0.688189
0.68819
0.688191
0.688192
0.688193
0.688193
0.688194
0.688195
0.688196
0.688197
0.688197
0.688198
0.688199
0.6882
0.688201
0.688201
0.688202
0.688204
0.688205
0.688206
0.688206
0.688207
0.688208
0.688209
0.68821
0.68821
0.688211
0.688212
0.688213
0.688214
0.688214
0.688216
0.688217
0.688218
0.688219
0.688219
0.68822
0.688221
0.688223
0.688224
0.688224
0.688225
0.688226
0.688227
0.688228
0.688228
0.68823
0.688231
0.688232
0.688233
0.688233
0.688235
0.688236
0.688237
0.688238
0.688238
0.68824
0.688241
0.688242
0.688243
0.688243
0.688245
0.688246
0.688247
0.688248
0.688248
0.68825
0.688251
0.688252
0.688254
0.688254
0.688255
0.688256
0.688258
0.688259
0.688259
0.68826
0.688262
0.688263
0.688264
0.688264
0.688266
0.688267
0.688269
0.68827
0.68827
0.688271
0.688273
0.688274
0.688276
0.688276
0.688277
0.688279
0.68828
0.688281
0.688281
0.688283
0.688284
0.688286
0.688287
0.688287
0.688289
0.68829
0.688292
0.688293
0.688293
0.688295
0.688296
0.688298
0.688299
0.688299
0.688301
0.688302
0.688304
0.688305
0.688305
0.688307
0.688308
0.68831
0.688312
0.688312
0.688313
0.688315
0.688316
0.688318
0.688318
0.688319
0.688321
0.688323
0.688324
0.688324
0.688326
0.688328
0.688329
0.688331
0.688331
0.688332
0.688334
0.688336
0.688337
0.688337
0.688339
0.688341
0.688342
0.688344
0.688344
0.688346
0.688348
0.688349
0.688351
0.688351
0.688353
0.688354
0.688356
0.688358
0.688358
0.68836
0.688361
0.688363
0.688365
0.688365
0.688367
0.688368
0.68837
0.688372
0.688372
0.688374
0.688376
0.688377
0.688379
0.688379
0.688381
0.688383
0.688385
0.688387
0.688387
0.688388
0.68839
0.688392
0.688394
0.688394
0.688396
0.688398
0.6884
0.688401
0.688401
0.688403
0.688405
0.688407
0.688409
0.688409
0.688411
0.688413
0.688415
0.688417
0.688417
0.688419
0.688421
0.688423
0.688425
0.688425
0.688427
0.688429
0.688431
0.688432
0.688432
0.688434
0.688436
0.688438
0.68844
0.68844
0.688443
0.688445
0.688447
0.688449
0.688449
0.688451
0.688453
0.688455
0.688457
0.688457
0.688459
0.688461
0.688463
0.688465
0.688465
0.688467
0.688469
0.688471
0.688473
0.688473
0.688476
0.688478
0.68848
0.688482
0.688482
0.688484
0.688486
0.688488
0.688491
0.688491
0.688493
0.688495
0.688497
0.688499
0.688499
0.688501
0.688504
0.688506
0.688508
0.688508
0.68851
0.688512
0.688515
0.688517
0.688517
0.688519
0.688521
0.688524
0.688526
0.688526
0.688528
0.68853
0.688533
0.688535
0.688535
0.688537
0.688539
0.688542
0.688544
0.688544
0.688546
0.688549
0.688551
0.688553
0.688553
0.688556
0.688558
0.68856
0.688563
0.688563
0.688565
0.688567
0.68857
0.688572
0.688572
0.688575
0.688577
0.688579
0.688582
0.688582
0.688584
0.688586
0.688589
0.688591
0.688591
0.688594
0.688596
0.688599
0.688601
0.688601
0.688604
0.688606
0.688609
0.688611
0.688611
0.688614
0.688616
0.688619
0.688621
0.688621
0.688624
0.688626
0.688629
0.688631
0.688631
0.688634
0.688636
0.688639
0.688641
0.688641
0.688644
0.688646
0.688649
0.688652
0.688652
0.688654
0.688657
0.688659
0.688662
0.688662
0.688665
0.688667
0.68867
0.688672
0.688672
0.688675
0.688678
0.68868
0.688683
0.688683
0.688686
0.688688
0.688691
0.688694
0.688694
0.688696
0.688699
0.688702
0.688704
0.688704
0.688707
0.68871
0.688713
0.688715
0.688715
0.688718
0.688721
0.688724
0.688726
0.688726
0.688729
0.688732
0.688735
0.688737
0.688737
0.68874
0.688743
0.688746
0.688749
0.688749
0.688751
0.688754
0.688757
0.68876
0.68876
0.688763
0.688765
0.688768
0.688771
0.688771
0.688774
0.688777
0.68878
0.688783
0.688783
0.688785
0.688788
0.688791
0.688794
0.688794
0.688797
0.6888
0.688803
0.688806
0.688806
0.688809
0.688812
0.688815
0.688818
0.688818
0.688821
0.688823
0.688826
0.688829
0.688829
0.688832
0.688835
0.688838
0.688841
0.688841
0.688844
0.688847
0.68885
0.688853
0.688853
0.688856
0.688859
0.688863
0.688866
0.688866
0.688869
0.688872
0.688875
0.688878
0.688878
0.688881
0.688884
0.688887
0.68889
0.68889
0.688893
0.688896
0.688899
0.688903
0.688903
0.688906
0.688909
0.688912
0.688915
0.688915
0.688918
0.688921
0.688925
0.688928
0.688928
0.688931
0.688934
0.688937
0.688941
0.688941
0.688944
0.688947
0.68895
0.688953
0.688953
0.688957
0.68896
0.688963
0.688966
0.688966
0.68897
0.688973
0.688976
0.688979
0.688979
0.688983
0.688986
0.688989
0.688992
0.688992
0.688996
0.688999
0.689002
0.689006
0.689006
0.689009
0.689012
0.689016
0.689019
0.689019
0.689022
0.689026
0.689029
0.689033
0.689033
0.689036
0.689039
0.689043
0.689046
0.689046
0.689049
0.689053
0.689056
0.68906
0.68906
0.689063
0.689067
0.68907
0.689073
0.689073
0.689077
0.68908
0.689084
0.689087
0.689087
0.689091
0.689094
0.689098
0.689101
0.689101
0.689105
0.689108
0.689112
0.689115
0.689115
0.689119
0.689122
0.689126
0.689129
0.689129
0.689133
0.689136
0.68914
0.689144
0.689144
0.689147
0.689151
0.689154
0.689158
0.689158
0.689162
0.689165
0.689169
0.689172
0.689172
0.689176
0.68918
0.689183
0.689187
0.689187
0.689191
0.689194
0.689198
0.689202
0.689202
0.689205
0.689209
0.689213
0.689216
0.689216
0.68922
0.689224
0.689227
0.689231
0.689231
0.689235
0.689239
0.689242
0.689246
0.689246
0.68925
0.689254
0.689257
0.689261
0.689261
0.689265
0.689269
0.689272
0.689276
0.689276
0.68928
0.689284
0.689288
0.689291
0.689291
0.689295
0.689299
0.689303
0.689307
0.689307
0.689311
0.689314
0.689318
0.689322
0.689322
0.689326
0.68933
0.689334
0.689338
0.689338
0.689342
0.689345
0.689349
0.689353
0.689353
0.689357
0.689361
0.689365
0.689369
0.689369
0.689373
0.689377
0.689381
0.689385
0.689385
0.689389
0.689393
0.689397
0.689401
0.689401
0.689405
0.689409
0.689413
0.689417
0.689417
0.689421
0.689425
0.689429
0.689433
0.689433
0.689437
0.689441
0.689445
0.689449
0.689449
0.689453
0.689457
0.689461
0.689465
0.689465
0.689469
0.689474
0.689478
0.689482
0.689482
0.689486
0.68949
0.689494
0.689498
0.689498
0.689503
0.689507
0.689511
0.689515
0.689515
0.689519
0.689523
0.689528
0.689532
0.689532
0.689536
0.68954
0.689544
0.689549
0.689549
0.689553
0.689557
0.689561
0.689566
0.689566
0.68957
0.689574
0.689578
0.689583
0.689583
0.689587
0.689591
0.689596
0.6896
0.6896
0.689604
0.689608
0.689613
0.689617
0.689617
0.689621
0.689626
0.68963
0.689634
0.689634
0.689639
0.689643
0.689647
0.689652
0.689652
0.689656
0.689661
0.689665
0.689669
0.689669
0.689674
0.689678
0.689683
0.689687
0.689687
0.689691
0.689696
0.6897
0.689705
0.689705
0.689709
0.689714
0.689718
0.689723
0.689723
0.689727
0.689732
0.689736
0.689741
0.689741
0.689745
0.68975
0.689754
0.689759
0.689759
0.689763
0.689768
0.689772
0.689777
0.689777
0.689781
0.689786
0.68979
0.689795
0.689795
0.689799
0.689804
0.689809
0.689813
0.689813
0.689818
0.689822
0.689827
0.689832
0.689832
0.689836
0.689841
0.689846
0.68985
0.68985
0.689855
0.68986
0.689864
0.689869
0.689869
0.689874
0.689878
0.689883
0.689888
0.689888
0.689892
0.689897
0.689902
0.689906
0.689906
0.689911
0.689916
0.689921
0.689925
0.689925
0.68993
0.689935
0.68994
0.689944
0.689944
0.689949
0.689954
0.689959
0.689964
0.689964
0.689968
0.689973
0.689978
0.689983
0.689983
0.689988
0.689992
0.689997
0.690002
0.690002
0.690007
0.690012
0.690017
0.690022
0.690022
0.690027
0.690031
0.690036
0.690041
0.690041
0.690046
0.690051
0.690056
0.690061
0.690061
0.690066
0.690071
0.690076
0.690081
0.690081
0.690086
0.69009
0.690095
0.6901
0.6901
0.690105
0.69011
0.690115
0.69012
0.69012
0.690125
0.69013
0.690135
0.69014
0.69014
0.690145
0.69015
0.690155
0.690161
0.690161
0.690166
0.690171
0.690176
0.690181
0.690181
0.690186
0.690191
0.690196
0.690201
0.690201
0.690206
0.690211
0.690216
0.690221
0.690221
0.690227
0.690232
0.690237
0.690242
0.690242
0.690247
0.690252
0.690257
0.690263
0.690263
0.690268
0.690273
0.690278
0.690283
0.690283
0.690288
0.690294
0.690299
0.690304
0.690304
0.690309
0.690315
0.69032
0.690325
0.690325
0.69033
0.690336
0.690341
0.690346
0.690346
0.690351
0.690357
0.690362
0.690367
0.690367
0.690373
0.690378
0.690383
0.690389
0.690389
0.690394
0.690399
0.690405
0.69041
0.69041
0.690416
0.690421
0.690426
0.690432
0.690432
0.690437
0.690442
0.690448
0.690453
0.690453
0.690459
0.690464
0.69047
0.690475
0.690475
0.69048
0.690486
0.690491
0.690497
0.690497
0.690502
0.690508
0.690513
0.690519
0.690519
0.690524
0.69053
0.690535
0.690541
0.690541
0.690546
0.690552
0.690557
0.690563
0.690563
0.690568
0.690574
0.690579
0.690585
0.690585
0.69059
0.690596
0.690602
0.690607
0.690607
0.690613
0.690618
0.690624
0.69063
0.69063
0.690635
0.690641
0.690646
0.690652
0.690652
0.690658
0.690663
0.690669
0.690675
0.690675
0.69068
0.690686
0.690692
0.690697
0.690697
0.690703
0.690709
0.690714
0.69072
0.69072
0.690726
0.690732
0.690737
0.690743
0.690743
0.690749
0.690755
0.69076
0.690766
0.690766
0.690772
0.690778
0.690783
0.690789
0.690789
0.690795
0.690801
0.690807
0.690812
0.690812
0.690818
0.690824
0.69083
0.690836
0.690836
0.690842
0.690847
0.690853
0.690859
0.690859
0.690865
0.690871
0.690877
0.690883
0.690883
0.690888
0.690894
0.6909
0.690906
0.690906
0.690912
0.690918
0.690924
0.69093
0.69093
0.690936
0.690942
0.690948
0.690954
0.690954
0.69096
0.690966
0.690972
0.690978
0.690978
0.690984
0.69099
0.690996
0.691002
0.691002
0.691008
0.691014
0.69102
0.691026
0.691026
0.691032
0.691038
0.691044
0.69105
0.69105
0.691056
0.691062
0.691068
0.691074
0.691074
0.69108
0.691086
0.691093
0.691099
0.691099
0.691105
0.691111
0.691117
0.691123
0.691123
0.691129
0.691135
0.691142
0.691148
0.691148
0.691154
0.69116
0.691166
0.691172
0.691172
0.691179
0.691185
0.691191
0.691197
0.691197
0.691203
0.69121
0.691216
0.691222
0.691222
0.691228
0.691235
0.691241
0.691247
0.691247
0.691253
0.69126
0.691266
0.691272
0.691272
0.691279
0.691285
0.691291
0.691298
0.691298
0.691304
0.69131
0.691317
0.691323
0.691323
0.691329
0.691336
0.691342
0.691349
0.691349
0.691355
0.691361
0.691368
0.691374
0.691374
0.691381
0.691387
0.691393
0.6914
0.6914
0.691406
0.691413
0.691419
0.691426
0.691426
0.691432
0.691439
0.691445
0.691452
0.691452
0.691458
0.691465
0.691471
0.691478
0.691478
0.691484
0.691491
0.691497
0.691504
0.691504
0.69151
0.691517
0.691523
0.69153
0.69153
0.691536
0.691543
0.69155
0.691556
0.691556
0.691563
0.691569
0.691576
0.691583
0.691583
0.691589
0.691596
0.691602
0.691609
0.691609
0.691616
0.691622
0.691629
0.691636
0.691636
0.691642
0.691649
0.691656
0.691662
0.691662
0.691669
0.691676
0.691682
0.691689
0.691689
0.691696
0.691703
0.691709
0.691716
0.691716
0.691723
0.69173
0.691736
0.691743
0.691743
0.69175
0.691757
0.691763
0.69177
0.69177
0.691777
0.691784
0.691791
0.691797
0.691797
0.691804
0.691811
0.691818
0.691825
0.691825
0.691832
0.691838
0.691845
0.691852
0.691852
0.691859
0.691866
0.691873
0.69188
0.69188
0.691886
0.691893
0.6919
0.691907
0.691907
0.691914
0.691921
0.691928
0.691935
0.691935
0.691942
0.691949
0.691956
0.691963
0.691963
0.69197
0.691977
0.691984
0.691991
0.691991
0.691998
0.692005
0.692012
0.692019
0.692019
0.692026
0.692033
0.69204
0.692047
0.692047
0.692054
0.692061
0.692068
0.692075
0.692075
0.692082
0.692089
0.692096
0.692103
0.692103
0.69211
0.692117
0.692124
0.692132
0.692132
0.692139
0.692146
0.692153
0.69216
0.69216
0.692167
0.692175
0.692182
0.692189
0.692189
0.692196
0.692203
0.692211
0.692218
0.692218
0.692225
0.692232
0.692239
0.692247
0.692247
0.692254
0.692261
0.692268
0.692276
0.692276
0.692283
0.69229
0.692298
0.692305
0.692305
0.692312
0.69232
0.692327
0.692334
0.692334
0.692341
0.692349
0.692356
0.692363
0.692363
0.692371
0.692378
0.692386
0.692393
0.692393
0.6924
0.692408
0.692415
0.692422
0.692422
0.69243
0.692437
0.692445
0.692452
0.692452
0.692459
0.692467
0.692474
0.692482
0.692482
0.692489
0.692497
0.692504
0.692512
0.692512
0.692519
0.692527
0.692534
0.692542
0.692542
0.692549
0.692557
0.692564
0.692572
0.692572
0.692579
0.692587
0.692594
0.692602
0.692602
0.692609
0.692617
0.692624
0.692632
0.692632
0.692639
0.692647
0.692655
0.692662
0.692662
0.69267
0.692677
0.692685
0.692693
0.692693
0.6927
0.692708
0.692716
0.692723
0.692723
0.692731
0.692739
0.692746
0.692754
0.692754
0.692762
0.692769
0.692777
0.692785
0.692785
0.692792
0.6928
0.692808
0.692815
0.692815
0.692823
0.692831
0.692839
0.692846
0.692846
0.692854
0.692862
0.69287
0.692877
0.692877
0.692885
0.692893
0.692901
0.692909
0.692909
0.692916
0.692924
0.692932
0.69294
0.69294
0.692948
0.692955
0.692963
0.692971
0.692971
0.692979
0.692987
0.692995
0.693003
0.693003
0.69301
0.693018
0.693026
0.693034
0.693034
0.693042
0.69305
0.693058
0.693066
0.693066
0.693074
0.693082
0.69309
0.693098
0.693098
0.693106
0.693114
0.693122
0.69313
0.69313
0.693138
0.693146
0.693154
0.693162
0.693162
0.69317
0.693178
0.693186
0.693194
0.693194
0.693202
0.69321
0.693218
0.693226
0.693226
0.693234
0.693242
0.693251
0.693259
0.693259
0.693267
0.693275
0.693283
0.693291
0.693291
0.693299
0.693307
0.693316
0.693324
0.693324
0.693332
0.69334
0.693348
0.693356
0.693356
0.693365
0.693373
0.693381
0.693389
0.693389
0.693397
0.693406
0.693414
0.693422
0.693422
0.69343
0.693439
0.693447
0.693455
0.693455
0.693463
0.693472
0.69348
0.693488
0.693488
0.693497
0.693505
0.693513
0.693521
0.693521
0.69353
0.693538
0.693546
0.693555
0.693555
0.693563
0.693571
0.69358
0.693588
0.693588
0.693597
0.693605
0.693613
0.693622
0.693622
0.69363
0.693638
0.693647
0.693655
0.693655
0.693664
0.693672
0.693681
0.693689
0.693689
0.693697
0.693706
0.693714
0.693723
0.693723
0.693731
0.69374
0.693748
0.693757
0.693757
0.693765
0.693774
0.693782
0.693791
0.693791
0.693799
0.693808
0.693816
0.693825
0.693825
0.693833
0.693842
0.69385
0.693859
0.693859
0.693868
0.693876
0.693885
0.693893
0.693893
0.693902
0.69391
0.693919
0.693928
0.693928
0.693936
0.693945
0.693954
0.693962
0.693962
0.693971
0.693979
0.693988
0.693997
0.693997
0.694005
0.694014
0.694023
0.694032
0.694032
0.69404
0.694049
0.694058
0.694067
0.694067
0.694075
0.694084
0.694093
0.694102
0.694102
0.694111
0.694119
0.694128
0.694137
0.694137
0.694146
0.694155
0.694163
0.694172
0.694172
0.694181
0.69419
0.694199
0.694208
0.694208
0.694216
0.694225
0.694234
0.694243
0.694243
0.694252
0.694261
0.69427
0.694279
0.694279
0.694288
0.694297
0.694305
0.694314
0.694314
0.694323
0.694332
0.694341
0.69435
0.69435
0.694359
0.694368
0.694377
0.694386
0.694386
0.694395
0.694404
0.694413
0.694422
0.694422
0.694431
0.69444
0.694449
0.694458
0.694458
0.694467
0.694476
0.694485
0.694494
0.694494
0.694503
0.694512
0.694522
0.694531
0.694531
0.69454
0.694549
0.694558
0.694567
0.694567
0.694576
0.694585
0.694594
0.694603
0.694603
0.694613
0.694622
0.694631
0.69464
0.69464
0.694649
0.694658
0.694668
0.694677
0.694677
0.694686
0.694695
0.694704
0.694714
0.694714
0.694723
0.694732
0.694741
0.694751
0.694751
0.69476
0.694769
0.694778
0.694787
0.694787
0.694797
0.694806
0.694815
0.694825
0.694825
0.694834
0.694843
0.694852
0.694862
0.694862
0.694871
0.69488
0.69489
0.694899
0.694899
0.694908
0.694918
0.694927
0.694936
0.694936
0.694946
0.694955
0.694965
0.694974
0.694974
0.694983
0.694993
0.695002
0.695012
0.695012
0.695021
0.695031
0.69504
0.69505
0.69505
0.695059
0.695069
0.695078
0.695088
0.695088
0.695097
0.695107
0.695116
0.695126
0.695126
0.695135
0.695145
0.695155
0.695164
0.695164
0.695174
0.695183
0.695193
0.695202
0.695202
0.695212
0.695222
0.695231
0.695241
0.695241
0.69525
0.69526
0.69527
0.695279
0.695279
0.695289
0.695299
0.695308
0.695318
0.695318
0.695328
0.695337
0.695347
0.695357
0.695357
0.695366
0.695376
0.695386
0.695395
0.695395
0.695405
0.695415
0.695425
0.695434
0.695434
0.695444
0.695454
0.695464
0.695473
0.695473
0.695483
0.695493
0.695503
0.695512
0.695512
0.695522
0.695532
0.695542
0.695552
0.695552
0.695561
0.695571
0.695581
0.695591
0.695591
0.695601
0.695611
0.695621
0.69563
0.69563
0.69564
0.69565
0.69566
0.69567
0.69567
0.69568
0.69569
0.6957
0.695709
0.695709
0.695719
0.695729
0.695739
0.695749
0.695749
0.695759
0.695769
0.695779
0.695789
0.695789
0.695799
0.695809
0.695819
0.695829
0.695829
0.695839
0.695849
0.695859
0.695869
0.695869
0.695879
0.695889
0.695899
0.695909
0.695909
0.695919
0.695929
0.695939
0.695949
0.695949
0.69596
0.69597
0.69598
0.69599
0.69599
0.696
0.69601
0.69602
0.696031
0.696031
0.696041
0.696051
0.696061
0.696071
0.696071
0.696082
0.696092
0.696102
0.696112
0.696112
0.696122
0.696133
0.696143
0.696153
0.696153
0.696163
0.696174
0.696184
0.696194
0.696194
0.696204
0.696215
0.696225
0.696235
0.696235
0.696246
0.696256
0.696266
0.696277
0.696277
0.696287
0.696297
0.696308
0.696318
0.696318
0.696328
0.696339
0.696349
0.696359
0.696359
0.69637
0.69638
0.69639
0.696401
0.696401
0.696411
0.696422
0.696432
0.696443
0.696443
0.696453
0.696463
0.696474
0.696484
0.696484
0.696495
0.696505
0.696516
0.696526
0.696526
0.696537
0.696547
0.696558
0.696568
0.696568
0.696579
0.696589
0.6966
0.69661
0.69661
0.696621
0.696631
0.696642
0.696652
0.696652
0.696663
0.696673
0.696684
0.696695
0.696695
0.696705
0.696716
0.696726
0.696737
0.696737
0.696747
0.696758
0.696769
0.696779
0.696779
0.69679
0.696801
0.696811
0.696822
0.696822
0.696833
0.696843
0.696854
0.696865
0.696865
0.696875
0.696886
0.696897
0.696907
0.696907
0.696918
0.696929
0.69694
0.69695
0.69695
0.696961
0.696972
0.696983
0.696994
0.696994
0.697004
0.697015
0.697026
0.697037
0.697037
0.697048
0.697059
0.697069
0.69708
0.69708
0.697091
0.697102
0.697113
0.697124
0.697124
0.697135
0.697146
0.697157
0.697167
0.697167
0.697178
0.697189
0.6972
0.697211
0.697211
0.697222
0.697233
0.697244
0.697255
0.697255
0.697266
0.697277
0.697288
0.697299
0.697299
0.69731
0.697321
0.697332
0.697343
0.697343
0.697354
0.697365
0.697376
0.697387
0.697387
0.697398
0.697409
0.69742
0.697431
0.697431
0.697442
0.697453
0.697464
0.697475
0.697475
0.697487
0.697498
0.697509
0.69752
0.69752
0.697531
0.697542
0.697553
0.697564
0.697564
0.697576
0.697587
0.697598
0.697609
0.697609
0.69762
0.697631
0.697643
0.697654
0.697654
0.697665
0.697676
0.697687
0.697699
0.697699
0.69771
0.697721
0.697732
0.697743
0.697743
0.697755
0.697766
0.697777
0.697788
0.697788
0.6978
0.697811
0.697822
0.697834
0.697834
0.697845
0.697856
0.697867
0.697879
0.697879
0.69789
0.697902
0.697913
0.697924
0.697924
0.697936
0.697947
0.697959
0.69797
0.69797
0.697981
0.697993
0.698004
0.698016
0.698016
0.698027
0.698039
0.69805
0.698062
0.698062
0.698073
0.698085
0.698096
0.698108
0.698108
0.698119
0.698131
0.698142
0.698154
0.698154
0.698165
0.698177
0.698188
0.6982
0.6982
0.698211
0.698223
0.698235
0.698246
0.698246
0.698258
0.698269
0.698281
0.698293
0.698293
0.698304
0.698316
0.698327
0.698339
0.698339
0.698351
0.698362
0.698374
0.698386
0.698386
0.698397
0.698409
0.698421
0.698432
0.698432
0.698444
0.698456
0.698467
0.698479
0.698479
0.698491
0.698502
0.698514
0.698526
0.698526
0.698538
0.698549
0.698561
0.698573
0.698573
0.698585
0.698596
0.698608
0.69862
0.69862
0.698632
0.698644
0.698655
0.698667
0.698667
0.698679
0.698691
0.698703
0.698715
0.698715
0.698726
0.698738
0.69875
0.698762
0.698762
0.698774
0.698786
0.698797
0.698809
0.698809
0.698821
0.698833
0.698845
0.698857
0.698857
0.698869
0.698881
0.698893
0.698905
0.698905
0.698917
0.698929
0.698941
0.698953
0.698953
0.698965
0.698977
0.698989
0.699001
0.699001
0.699013
0.699025
0.699037
0.699049
0.699049
0.699061
0.699074
0.699086
0.699098
0.699098
0.69911
0.699122
0.699134
0.699146
0.699146
0.699158
0.69917
0.699183
0.699195
0.699195
0.699207
0.699219
0.699231
0.699243
0.699243
0.699256
0.699268
0.69928
0.699292
0.699292
0.699304
0.699317
0.699329
0.699341
0.699341
0.699353
0.699366
0.699378
0.69939
0.69939
0.699402
0.699415
0.699427
0.699439
0.699439
0.699451
0.699464
0.699476
0.699488
0.699488
0.699501
0.699513
0.699525
0.699538
0.699538
0.69955
0.699562
0.699575
0.699587
0.699587
0.699599
0.699612
0.699624
0.699637
0.699637
0.699649
0.699661
0.699674
0.699686
0.699686
0.699698
0.699711
0.699723
0.699736
0.699736
0.699748
0.699761
0.699773
0.699786
0.699786
0.699798
0.69981
0.699823
0.699835
0.699835
0.699848
0.69986
0.699873
0.699886
0.699886
0.699898
0.699911
0.699923
0.699936
0.699936
0.699948
0.699961
0.699974
0.699986
0.699986
0.699999
0.700012
0.700024
0.700037
0.700037
0.70005
0.700062
0.700075
0.700088
0.700088
0.7001
0.700113
0.700126
0.700138
0.700138
0.700151
0.700164
0.700177
0.700189
0.700189
0.700202
0.700215
0.700228
0.70024
0.70024
0.700253
0.700266
0.700279
0.700291
0.700291
0.700304
0.700317
0.70033
0.700343
0.700343
0.700355
0.700368
0.700381
0.700394
0.700394
0.700407
0.70042
0.700432
0.700445
0.700445
0.700458
0.700471
0.700484
0.700497
0.700497
0.70051
0.700523
0.700535
0.700548
0.700548
0.700561
0.700574
0.700587
0.7006
0.7006
0.700613
0.700626
0.700639
0.700652
0.700652
0.700665
0.700678
0.700691
0.700704
0.700704
0.700717
0.70073
0.700743
0.700756
0.700756
0.700769
0.700782
0.700795
0.700808
0.700808
0.700821
0.700834
0.700847
0.70086
0.70086
0.700873
0.700886
0.700899
0.700913
0.700913
0.700926
0.700939
0.700952
0.700965
0.700965
0.700978
0.700992
0.701005
0.701018
0.701018
0.701031
0.701044
0.701058
0.701071
0.701071
0.701084
0.701097
0.701111
0.701124
0.701124
0.701137
0.70115
0.701164
0.701177
0.701177
0.70119
0.701204
0.701217
0.70123
0.70123
0.701244
0.701257
0.70127
0.701284
0.701284
0.701297
0.70131
0.701324
0.701337
0.701337
0.70135
0.701364
0.701377
0.701391
0.701391
0.701404
0.701417
0.701431
0.701444
0.701444
0.701458
0.701471
0.701484
0.701498
0.701498
0.701511
0.701525
0.701538
0.701552
0.701552
0.701565
0.701579
0.701592
0.701606
0.701606
0.701619
0.701633
0.701646
0.70166
0.70166
0.701673
0.701687
0.7017
0.701714
0.701714
0.701727
0.701741
0.701754
0.701768
0.701768
0.701782
0.701795
0.701809
0.701822
0.701822
0.701836
0.70185
0.701863
0.701877
0.701877
0.701891
0.701904
0.701918
0.701932
0.701932
0.701945
0.701959
0.701973
0.701986
0.701986
0.702
0.702014
0.702028
0.702042
0.702042
0.702055
0.702069
0.702083
0.702097
0.702097
0.70211
0.702124
0.702138
0.702152
0.702152
0.702166
0.70218
0.702193
0.702207
0.702207
0.702221
0.702235
0.702249
0.702263
0.702263
0.702277
0.702291
0.702304
0.702318
0.702318
0.702332
0.702346
0.70236
0.702374
0.702374
0.702388
0.702402
0.702416
0.70243
0.70243
0.702444
0.702458
0.702472
0.702486
0.702486
0.7025
0.702514
0.702528
0.702542
0.702542
0.702556
0.70257
0.702584
0.702598
0.702598
0.702612
0.702626
0.70264
0.702654
0.702654
0.702668
0.702682
0.702696
0.70271
0.70271
0.702724
0.702738
0.702752
0.702767
0.702767
0.702781
0.702795
0.702809
0.702823
0.702823
0.702837
0.702851
0.702865
0.70288
0.70288
0.702894
0.702908
0.702922
0.702936
0.702936
0.702951
0.702965
0.702979
0.702993
0.702993
0.703008
0.703022
0.703036
0.703051
0.703051
0.703065
0.703079
0.703094
0.703108
0.703108
0.703122
0.703137
0.703151
0.703165
0.703165
0.70318
0.703194
0.703209
0.703223
0.703223
0.703237
0.703252
0.703266
0.703281
0.703281
0.703295
0.703309
0.703324
0.703338
0.703338
0.703353
0.703367
0.703382
0.703396
0.703396
0.703411
0.703425
0.70344
0.703454
0.703454
0.703469
0.703483
0.703498
0.703512
0.703512
0.703527
0.703541
0.703556
0.70357
0.70357
0.703585
0.703599
0.703614
0.703628
0.703628
0.703643
0.703658
0.703672
0.703687
0.703687
0.703701
0.703716
0.703731
0.703745
0.703745
0.70376
0.703774
0.703789
0.703804
0.703804
0.703818
0.703833
0.703848
0.703862
0.703862
0.703877
0.703892
0.703906
0.703921
0.703921
0.703936
0.703951
0.703965
0.70398
0.70398
0.703995
0.70401
0.704025
0.704039
0.704039
0.704054
0.704069
0.704084
0.704099
0.704099
0.704114
0.704128
0.704143
0.704158
0.704158
0.704173
0.704188
0.704203
0.704218
0.704218
0.704233
0.704248
0.704263
0.704278
0.704278
0.704293
0.704307
0.704322
0.704337
0.704337
0.704352
0.704367
0.704382
0.704397
0.704397
0.704412
0.704427
0.704442
0.704457
0.704457
0.704472
0.704487
0.704502
0.704517
0.704517
0.704532
0.704547
0.704563
0.704578
0.704578
0.704593
0.704608
0.704623
0.704638
0.704638
0.704653
0.704668
0.704683
0.704698
0.704698
0.704713
0.704729
0.704744
0.704759
0.704759
0.704774
0.704789
0.704804
0.704819
0.704819
0.704835
0.70485
0.704865
0.70488
0.70488
0.704895
0.704911
0.704926
0.704941
0.704941
0.704956
0.704972
0.704987
0.705002
0.705002
0.705017
0.705033
0.705048
0.705063
0.705063
0.705079
0.705094
0.705109
0.705125
0.705125
0.70514
0.705156
0.705171
0.705186
0.705186
0.705202
0.705217
0.705233
0.705248
0.705248
0.705263
0.705279
0.705294
0.70531
0.70531
0.705325
0.705341
0.705356
0.705372
0.705372
0.705387
0.705403
0.705418
0.705434
0.705434
0.705449
0.705465
0.70548
0.705496
0.705496
0.705511
0.705527
0.705542
0.705558
0.705558
0.705574
0.705589
0.705605
0.70562
0.70562
0.705636
0.705651
0.705667
0.705683
0.705683
0.705698
0.705714
0.70573
0.705745
0.705745
0.705761
0.705776
0.705792
0.705808
0.705808
0.705823
0.705839
0.705855
0.70587
0.70587
0.705886
0.705902
0.705918
0.705933
0.705933
0.705949
0.705965
0.705981
0.705996
0.705996
0.706012
0.706028
0.706044
0.706059
0.706059
0.706075
0.706091
0.706107
0.706123
0.706123
0.706139
0.706155
0.70617
0.706186
0.706186
0.706202
0.706218
0.706234
0.70625
0.70625
0.706266
0.706282
0.706298
0.706314
0.706314
0.70633
0.706346
0.706362
0.706378
0.706378
0.706394
0.70641
0.706426
0.706442
0.706442
0.706458
0.706474
0.70649
0.706506
0.706506
0.706522
0.706538
0.706554
0.70657
0.70657
0.706586
0.706602
0.706618
0.706634
0.706634
0.70665
0.706666
0.706683
0.706699
0.706699
0.706715
0.706731
0.706747
0.706763
0.706763
0.706779
0.706795
0.706812
0.706828
0.706828
0.706844
0.70686
0.706876
0.706893
0.706893
0.706909
0.706925
0.706941
0.706957
0.706957
0.706974
0.70699
0.707006
0.707022
0.707022
0.707039
0.707055
0.707071
0.707087
0.707087
0.707104
0.70712
0.707136
0.707153
0.707153
0.707169
0.707186
0.707202
0.707218
0.707218
0.707235
0.707251
0.707268
0.707284
0.707284
0.7073
0.707317
0.707333
0.70735
0.70735
0.707366
0.707383
0.707399
0.707416
0.707416
0.707432
0.707449
0.707465
0.707482
0.707482
0.707498
0.707515
0.707531
0.707548
0.707548
0.707564
0.707581
0.707597
0.707614
0.707614
0.707631
0.707647
0.707664
0.70768
0.70768
0.707697
0.707714
0.70773
0.707747
0.707747
0.707763
0.70778
0.707797
0.707813
0.707813
0.70783
0.707847
0.707863
0.70788
0.70788
0.707897
0.707913
0.70793
0.707947
0.707947
0.707963
0.70798
0.707997
0.708013
0.708013
0.70803
0.708047
0.708064
0.70808
0.70808
0.708097
0.708114
0.708131
0.708148
0.708148
0.708164
0.708181
0.708198
0.708215
0.708215
0.708232
0.708249
0.708266
0.708283
0.708283
0.708299
0.708316
0.708333
0.70835
0.70835
0.708367
0.708384
0.708401
0.708418
0.708418
0.708435
0.708452
0.708469
0.708486
0.708486
0.708503
0.70852
0.708537
0.708554
0.708554
0.708571
0.708588
0.708605
0.708622
0.708622
0.708639
0.708656
0.708673
0.70869
0.70869
0.708707
0.708725
0.708742
0.708759
0.708759
0.708776
0.708793
0.70881
0.708827
0.708827
0.708844
0.708861
0.708879
0.708896
0.708896
0.708913
0.70893
0.708947
0.708964
0.708964
0.708981
0.708999
0.709016
0.709033
0.709033
0.70905
0.709067
0.709085
0.709102
0.709102
0.709119
0.709136
0.709154
0.709171
0.709171
0.709188
0.709206
0.709223
0.70924
0.70924
0.709258
0.709275
0.709292
0.70931
0.70931
0.709327
0.709345
0.709362
0.709379
0.709379
0.709397
0.709414
0.709432
0.709449
0.709449
0.709467
0.709484
0.709501
0.709519
0.709519
0.709536
0.709554
0.709571
0.709589
0.709589
0.709606
0.709624
0.709641
0.709659
0.709659
0.709677
0.709694
0.709712
0.709729
0.709729
0.709747
0.709764
0.709782
0.709799
0.709799
0.709817
0.709835
0.709852
0.70987
0.70987
0.709887
0.709905
0.709923
0.70994
0.70994
0.709958
0.709976
0.709993
0.710011
0.710011
0.710028
0.710046
0.710064
0.710081
0.710081
0.710099
0.710117
0.710135
0.710152
0.710152
0.71017
0.710188
0.710206
0.710223
0.710223
0.710241
0.710259
0.710277
0.710294
0.710294
0.710312
0.71033
0.710348
0.710366
0.710366
0.710384
0.710402
0.71042
0.710437
0.710437
0.710455
0.710473
0.710491
0.710509
0.710509
0.710527
0.710545
0.710563
0.710581
0.710581
0.710599
0.710617
0.710635
0.710653
0.710653
0.710671
0.710689
0.710707
0.710725
0.710725
0.710743
0.710761
0.710779
0.710797
0.710797
0.710815
0.710833
0.710851
0.710869
0.710869
0.710887
0.710905
0.710923
0.710942
0.710942
0.71096
0.710978
0.710996
0.711014
0.711014
0.711032
0.71105
0.711068
0.711086
0.711086
0.711105
0.711123
0.711141
0.711159
0.711159
0.711177
0.711195
0.711214
0.711232
0.711232
0.71125
0.711268
0.711287
0.711305