<?xml version="1.0"?>
<VTKFile type="UnstructuredGrid" version="0.1" byte_order="LittleEndian">
<UnstructuredGrid>
<Piece NumberOfPoints="5000" NumberOfCells="4000">
<PointData Scalars="Reaction 0">
<DataArray type="Float32" Name="Reaction 0" format="ascii">
0.718496
0.718496
0.718496
0.718496
0.718496
0.718496
0.718497
0.718497
0.718497
0.718497
0.718497
0.718497
0.718497
0.718497
0.718497
0.718497
0.718497
0.718497
0.718497
0.718497
0.718497
0.718497
0.718497
0.718498
0.718498
0.718498
0.718498
0.718498
0.718498
0.718498
0.718498
0.718498
0.718499
0.718499
0.718499
0.718499
0.718499
0.718499
0.7185
0.7185
0.7185
0.7185
0.7185
0.7185
0.718501
0.718501
0.718501
0.718501
0.718501
0.718502
0.718502
0.718502
0.718502
0.718503
0.718503
0.718503
0.718503
0.718503
0.718504
0.718504
0.718504
0.718504
0.718505
0.718505
0.718505
0.718505
0.718506
0.718506
0.718506
0.718507
0.718507
0.718507
0.718508
0.718508
0.718508
0.718508
0.718509
0.718509
0.71851
0.71851
0.71851
0.71851
0.718511
0.718511
0.718512
0.718512
0.718512
0.718513
0.718513
0.718514
0.718514
0.718514
0.718515
0.718515
0.718515
0.718515
0.718516
0.718517
0.718517
0.718518
0.718518
0.718518
0.718519
0.718519
0.71852
0.71852
0.71852
0.718521
0.718521
0.718522
0.718522
0.718523
0.718523
0.718524
0.718524
0.718524
0.718525
0.718526
0.718526
0.718527
0.718527
0.718527
0.718528
0.718529
0.718529
0.718529
0.71853
0.718531
0.718531
0.718532
0.718532
0.718533
0.718534
0.718534
0.718535
0.718535
0.718536
0.718536
0.718537
0.718538
0.718538
0.718539
0.718539
0.71854
0.718541
0.718541
0.718542
0.718542
0.718543
0.718544
0.718544
0.718545
0.718546
0.718546
0.718547
0.718547
0.718548
0.718549
0.71855
0.718551
0.718551
0.718551
0.718552
0.718553
0.718554
0.718554
0.718555
0.718556
0.718557
0.718557
0.718557
0.718558
0.718559
0.71856
0.718561
0.718561
0.718562
0.718563
0.718564
0.718565
0.718565
0.718566
0.718567
0.718568
0.718569
0.718569
0.71857
0.718571
0.718572
0.718573
0.718573
0.718574
0.718575
0.718576
0.718577
0.718577
0.718578
0.718579
0.71858
0.718581
0.718581
0.718582
0.718583
0.718584
0.718585
0.718585
0.718586
0.718587
0.718589
0.71859
0.71859
0.718591
0.718592
0.718593
0.718594
0.718594
0.718595
0.718596
0.718598
0.718599
0.718599
0.7186
0.718601
0.718602
0.718603
0.718603
0.718605
0.718606
0.718607
0.718608
0.718608
0.718609
0.718611
0.718612
0.718613
0.718613
0.718614
0.718616
0.718617
0.718618
0.718618
0.718619
0.718621
0.718622
0.718623
0.718623
0.718625
0.718626
0.718627
0.718629
0.718629
0.71863
0.718631
0.718633
0.718634
0.718634
0.718635
0.718637
0.718638
0.718639
0.718639
0.718641
0.718642
0.718643
0.718645
0.718645
0.718646
0.718648
0.718649
0.718651
0.718651
0.718652
0.718653
0.718655
0.718656
0.718656
0.718658
0.718659
0.718661
0.718662
0.718662
0.718664
0.718665
0.718667
0.718668
0.718668
0.71867
0.718671
0.718673
0.718674
0.718674
0.718676
0.718677
0.718679
0.71868
0.71868
0.718682
0.718684
0.718685
0.718687
0.718687
0.718688
0.71869
0.718691
0.718693
0.718693
0.718695
0.718696
0.718698
0.7187
0.7187
0.718701
0.718703
0.718705
0.718706
0.718706
0.718708
0.71871
0.718711
0.718713
0.718713
0.718715
0.718716
0.718718
0.71872
0.71872
0.718721
0.718723
0.718725
0.718727
0.718727
0.718728
0.71873
0.718732
0.718734
0.718734
0.718735
0.718737
0.718739
0.718741
0.718741
0.718743
0.718744
0.718746
0.718748
0.718748
0.71875
0.718752
0.718754
0.718755
0.718755
0.718757
0.718759
0.718761
0.718763
0.718763
0.718765
0.718767
0.718769
0.71877
0.71877
0.718772
0.718774
0.718776
0.718778
0.718778
0.71878
0.718782
0.718784
0.718786
0.718786
0.718788
0.71879
0.718792
0.718794
0.718794
0.718796
0.718798
0.7188
0.718802
0.718802
0.718804
0.718806
0.718808
0.71881
0.71881
0.718812
0.718814
0.718816
0.718818
0.718818
0.71882
0.718822
0.718824
0.718826
0.718826
0.718828
0.71883
0.718833
0.718835
0.718835
0.718837
0.718839
0.718841
0.718843
0.718843
0.718845
0.718848
0.71885
0.718852
0.718852
0.718854
0.718856
0.718858
0.718861
0.718861
0.718863
0.718865
0.718867
0.718869
0.718869
0.718872
0.718874
0.718876
0.718878
0.718878
0.718881
0.718883
0.718885
0.718887
0.718887
0.71889
0.718892
0.718894
0.718897
0.718897
0.718899
0.718901
0.718903
0.718906
0.718906
0.718908
0.71891
0.718913
0.718915
0.718915
0.718917
0.71892
0.718922
0.718925
0.718925
0.718927
0.718929
0.718932
0.718934
0.718934
0.718937
0.718939
0.718941
0.718944
0.718944
0.718946
0.718949
0.718951
0.718954
0.718954
0.718956
0.718959
0.718961
0.718963
0.718963
0.718966
0.718968
0.718971
0.718973
0.718973
0.718976
0.718978
0.718981
0.718983
0.718983
0.718986
0.718989
0.718991
0.718994
0.718994
0.718996
0.718999
0.719001
0.719004
0.719004
0.719007
0.719009
0.719012
0.719014
0.719014
0.719017
0.71902
0.719022
0.719025
0.719025
0.719028
0.71903
0.719033
0.719036
0.719036
0.719038
0.719041
0.719044
0.719046
0.719046
0.719049
0.719052
0.719055
0.719057
0.719057
0.71906
0.719063
0.719065
0.719068
0.719068
0.719071
0.719074
0.719077
0.719079
0.719079
0.719082
0.719085
0.719088
0.71909
0.71909
0.719093
0.719096
0.719099
0.719102
0.719102
0.719105
0.719107
0.71911
0.719113
0.719113
0.719116
0.719119
0.719122
0.719125
0.719125
0.719128
0.71913
0.719133
0.719136
0.719136
0.719139
0.719142
0.719145
0.719148
0.719148
0.719151
0.719154
0.719157
0.71916
0.71916
0.719163
0.719166
0.719169
0.719172
0.719172
0.719175
0.719178
0.719181
0.719184
0.719184
0.719187
0.71919
0.719193
0.719196
0.719196
0.719199
0.719202
0.719205
0.719208
0.719208
0.719211
0.719214
0.719217
0.71922
0.71922
0.719223
0.719227
0.71923
0.719233
0.719233
0.719236
0.719239
0.719242
0.719245
0.719245
0.719249
0.719252
0.719255
0.719258
0.719258
0.719261
0.719264
0.719268
0.719271
0.719271
0.719274
0.719277
0.71928
0.719284
0.719284
0.719287
0.71929
0.719293
0.719297
0.719297
0.7193
0.719303
0.719306
0.71931
0.71931
0.719313
0.719316
0.71932
0.719323
0.719323
0.719326
0.71933
0.719333
0.719336
0.719336
0.71934
0.719343
0.719346
0.71935
0.71935
0.719353
0.719356
0.71936
0.719363
0.719363
0.719366
0.71937
0.719373
0.719377
0.719377
0.71938
0.719384
0.719387
0.71939
0.71939
0.719394
0.719397
0.719401
0.719404
0.719404
0.719408
0.719411
0.719415
0.719418
0.719418
0.719422
0.719425
0.719429
0.719432
0.719432
0.719436
0.719439
0.719443
0.719446
0.719446
0.71945
0.719453
0.719457
0.719461
0.719461
0.719464
0.719468
0.719471
0.719475
0.719475
0.719479
0.719482
0.719486
0.719489
0.719489
0.719493
0.719497
0.7195
0.719504
0.719504
0.719508
0.719511
0.719515
0.719519
0.719519
0.719522
0.719526
0.71953
0.719533
0.719533
0.719537
0.719541
0.719545
0.719548
0.719548
0.719552
0.719556
0.71956
0.719563
0.719563
0.719567
0.719571
0.719575
0.719578
0.719578
0.719582
0.719586
0.71959
0.719594
0.719594
0.719598
0.719601
0.719605
0.719609
0.719609
0.719613
0.719617
0.719621
0.719624
0.719624
0.719628
0.719632
0.719636
0.71964
0.71964
0.719644
0.719648
0.719652
0.719656
0.719656
0.71966
0.719663
0.719667
0.719671
0.719671
0.719675
0.719679
0.719683
0.719687
0.719687
0.719691
0.719695
0.719699
0.719703
0.719703
0.719707
0.719711
0.719715
0.719719
0.719719
0.719723
0.719727
0.719731
0.719735
0.719735
0.719739
0.719744
0.719748
0.719752
0.719752
0.719756
0.71976
0.719764
0.719768
0.719768
0.719772
0.719776
0.71978
0.719785
0.719785
0.719789
0.719793
0.719797
0.719801
0.719801
0.719805
0.719809
0.719814
0.719818
0.719818
0.719822
0.719826
0.71983
0.719835
0.719835
0.719839
0.719843
0.719847
0.719851
0.719851
0.719856
0.71986
0.719864
0.719868
0.719868
0.719873
0.719877
0.719881
0.719885
0.719885
0.71989
0.719894
0.719898
0.719903
0.719903
0.719907
0.719911
0.719916
0.71992
0.71992
0.719924
0.719929
0.719933
0.719937
0.719937
0.719942
0.719946
0.719951
0.719955
0.719955
0.719959
0.719964
0.719968
0.719973
0.719973
0.719977
0.719982
0.719986
0.719991
0.719991
0.719995
0.72
0.720004
0.720009
0.720009
0.720013
0.720018
0.720022
0.720027
0.720027
0.720031
0.720036
0.72004
0.720045
0.720045
0.720049
0.720054
0.720058
0.720063
0.720063
0.720067
0.720072
0.720077
0.720081
0.720081
0.720086
0.72009
0.720095
0.7201
0.7201
0.720104
0.720109
0.720114
0.720118
0.720118
0.720123
0.720128
0.720132
0.720137
0.720137
0.720142
0.720146
0.720151
0.720156
0.720156
0.72016
0.720165
0.72017
0.720174
0.720174
0.720179
0.720184
0.720189
0.720193
0.720193
0.720198
0.720203
0.720208
0.720212
0.720212
0.720217
0.720222
0.720227
0.720232
0.720232
0.720236
0.720241
0.720246
0.720251
0.720251
0.720256
0.720261
0.720265
0.72027
0.72027
0.720275
0.72028
0.720285
0.72029
0.72029
0.720295
0.7203
0.720304
0.720309
0.720309
0.720314
0.720319
0.720324
0.720329
0.720329
0.720334
0.720339
0.720344
0.720349
0.720349
0.720354
0.720359
0.720364
0.720369
0.720369
0.720374
0.720379
0.720384
0.720389
0.720389
0.720394
0.720399
0.720404
0.720409
0.720409
0.720414
0.720419
0.720424
0.720429
0.720429
0.720434
0.720439
0.720445
0.72045
0.72045
0.720455
0.72046
0.720465
0.72047
0.72047
0.720475
0.72048
0.720485
0.720491
0.720491
0.720496
0.720501
0.720506
0.720511
0.720511
0.720516
0.720522
0.720527
0.720532
0.720532
0.720537
0.720543
0.720548
0.720553
0.720553
0.720558
0.720563
0.720569
0.720574
0.720574
0.720579
0.720585
0.72059
0.720595
0.720595
0.7206
0.720606
0.720611
0.720616
0.720616
0.720622
0.720627
0.720632
0.720638
0.720638
0.720643
0.720648
0.720654
0.720659
0.720659
0.720664
0.72067
0.720675
0.720681
0.720681
0.720686
0.720691
0.720697
0.720702
0.720702
0.720708
0.720713
0.720718
0.720724
0.720724
0.720729
0.720735
0.72074
0.720746
0.720746
0.720751
0.720757
0.720762
0.720768
0.720768
0.720773
0.720779
0.720784
0.72079
0.72079
0.720795
0.720801
0.720806
0.720812
0.720812
0.720817
0.720823
0.720828
0.720834
0.720834
0.72084
0.720845
0.720851
0.720856
0.720856
0.720862
0.720868
0.720873
0.720879
0.720879
0.720884
0.72089
0.720896
0.720901
0.720901
0.720907
0.720913
0.720918
0.720924
0.720924
0.72093
0.720936
0.720941
0.720947
0.720947
0.720953
0.720959
0.720964
0.72097
0.72097
0.720976
0.720982
0.720987
0.720993
0.720993
0.720999
0.721005
0.721011
0.721016
0.721016
0.721022
0.721028
0.721034
0.72104
0.72104
0.721046
0.721051
0.721057
0.721063
0.721063
0.721069
0.721075
0.721081
0.721087
0.721087
0.721092
0.721098
0.721104
0.72111
0.72111
0.721116
0.721122
0.721128
0.721134
0.721134
0.72114
0.721146
0.721152
0.721158
0.721158
0.721164
0.72117
0.721176
0.721182
0.721182
0.721188
0.721194
0.7212
0.721206
0.721206
0.721212
0.721218
0.721224
0.72123
0.72123
0.721236
0.721242
0.721248
0.721254
0.721254
0.72126
0.721266
0.721272
0.721278
0.721278
0.721284
0.721291
0.721297
0.721303
0.721303
0.721309
0.721315
0.721321
0.721327
0.721327
0.721333
0.72134
0.721346
0.721352
0.721352
0.721358
0.721364
0.721371
0.721377
0.721377
0.721383
0.721389
0.721395
0.721402
0.721402
0.721408
0.721414
0.72142
0.721427
0.721427
0.721433
0.721439
0.721445
0.721452
0.721452
0.721458
0.721464
0.721471
0.721477
0.721477
0.721483
0.72149
0.721496
0.721502
0.721502
0.721509
0.721515
0.721521
0.721528
0.721528
0.721534
0.72154
0.721547
0.721553
0.721553
0.72156
0.721566
0.721572
0.721579
0.721579
0.721585
0.721592
0.721598
0.721605
0.721605
0.721611
0.721617
0.721624
0.72163
0.72163
0.721637
0.721643
0.72165
0.721656
0.721656
0.721663
0.721669
0.721676
0.721682
0.721682
0.721689
0.721695
0.721702
0.721708
0.721708
0.721715
0.721722
0.721728
0.721735
0.721735
0.721741
0.721748
0.721754
0.721761
0.721761
0.721768
0.721774
0.721781
0.721787
0.721787
0.721794
0.721801
0.721807
0.721814
0.721814
0.721821
0.721827
0.721834
0.721841
0.721841
0.721847
0.721854
0.721861
0.721868
0.721868
0.721874
0.721881
0.721888
0.721895
0.721895
0.721901
0.721908
0.721915
0.721922
0.721922
0.721929
0.721935
0.721942
0.721949
0.721949
0.721956
0.721963
0.721969
0.721976
0.721976
0.721983
0.72199
0.721997
0.722004
0.722004
0.722011
0.722018
0.722024
0.722031
0.722031
0.722038
0.722045
0.722052
0.722059
0.722059
0.722066
0.722073
0.72208
0.722087
0.722087
0.722094
0.722101
0.722108
0.722115
0.722115
0.722121
0.722128
0.722135
0.722142
0.722142
0.722149
0.722156
0.722163
0.72217
0.72217
0.722178
0.722185
0.722192
0.722199
0.722199
0.722206
0.722213
0.72222
0.722227
0.722227
0.722234
0.722241
0.722248
0.722255
0.722255
0.722262
0.722269
0.722277
0.722284
0.722284
0.722291
0.722298
0.722305
0.722312
0.722312
0.722319
0.722327
0.722334
0.722341
0.722341
0.722348
0.722355
0.722363
0.72237
0.72237
0.722377
0.722384
0.722391
0.722399
0.722399
0.722406
0.722413
0.72242
0.722428
0.722428
0.722435
0.722442
0.72245
0.722457
0.722457
0.722464
0.722471
0.722479
0.722486
0.722486
0.722493
0.722501
0.722508
0.722515
0.722515
0.722523
0.72253
0.722537
0.722545
0.722545
0.722552
0.72256
0.722567
0.722574
0.722574
0.722582
0.722589
0.722597
0.722604
0.722604
0.722611
0.722619
0.722626
0.722634
0.722634
0.722641
0.722649
0.722656
0.722664
0.722664
0.722671
0.722679
0.722686
0.722694
0.722694
0.722701
0.722709
0.722716
0.722724
0.722724
0.722731
0.722739
0.722746
0.722754
0.722754
0.722761
0.722769
0.722776
0.722784
0.722784
0.722792
0.722799
0.722807
0.722814
0.722814
0.722822
0.72283
0.722837
0.722845
0.722845
0.722853
0.72286
0.722868
0.722876
0.722876
0.722883
0.722891
0.722899
0.722907
0.722907
0.722914
0.722922
0.72293
0.722938
0.722938
0.722945
0.722953
0.722961
0.722969
0.722969
0.722976
0.722984
0.722992
0.723
0.723
0.723008
0.723015
0.723023
0.723031
0.723031
0.723039
0.723047
0.723054
0.723062
0.723062
0.72307
0.723078
0.723086
0.723094
0.723094
0.723102
0.72311
0.723117
0.723125
0.723125
0.723133
0.723141
0.723149
0.723157
0.723157
0.723165
0.723173
0.723181
0.723189
0.723189
0.723197
0.723205
0.723213
0.723221
0.723221
0.723229
0.723237
0.723245
0.723253
0.723253
0.723261
0.723269
0.723277
0.723285
0.723285
0.723293
0.723301
0.723309
0.723317
0.723317
0.723325
0.723333
0.723341
0.723349
0.723349
0.723357
0.723365
0.723374
0.723382
0.723382
0.72339
0.723398
0.723406
0.723414
0.723414
0.723422
0.72343
0.723439
0.723447
0.723447
0.723455
0.723463
0.723471
0.72348
0.72348
0.723488
0.723496
0.723504
0.723512
0.723512
0.723521
0.723529
0.723537
0.723545
0.723545
0.723554
0.723562
0.72357
0.723578
0.723578
0.723587
0.723595
0.723603
0.723612
0.723612
0.72362
0.723628
0.723636
0.723645
0.723645
0.723653
0.723661
0.72367
0.723678
0.723678
0.723686
0.723695
0.723703
0.723712
0.723712
0.72372
0.723728
0.723737
0.723745
0.723745
0.723753
0.723762
0.72377
0.723779
0.723779
0.723787
0.723796
0.723804
0.723813
0.723813
0.723821
0.72383
0.723838
0.723847
0.723847
0.723855
0.723864
0.723872
0.723881
0.723881
0.723889
0.723898
0.723906
0.723915
0.723915
0.723924
0.723932
0.723941
0.723949
0.723949
0.723958
0.723967
0.723975
0.723984
0.723984
0.723993
0.724001
0.72401
0.724018
0.724018
0.724027
0.724036
0.724044
0.724053
0.724053
0.724062
0.724071
0.724079
0.724088
0.724088
0.724097
0.724105
0.724114
0.724123
0.724123
0.724132
0.72414
0.724149
0.724158
0.724158
0.724167
0.724175
0.724184
0.724193
0.724193
0.724202
0.72421
0.724219
0.724228
0.724228
0.724237
0.724246
0.724255
0.724263
0.724263
0.724272
0.724281
0.72429
0.724299
0.724299
0.724308
0.724317
0.724325
0.724334
0.724334
0.724343
0.724352
0.724361
0.72437
0.72437
0.724379
0.724388
0.724397
0.724406
0.724406
0.724415
0.724424
0.724432
0.724441
0.724441
0.72445
0.724459
0.724468
0.724477
0.724477
0.724486
0.724495
0.724504
0.724513
0.724513
0.724522
0.724532
0.724541
0.72455
0.72455
0.724559
0.724568
0.724577
0.724586
0.724586
0.724595
0.724604
0.724613
0.724622
0.724622
0.724631
0.72464
0.724649
0.724659
0.724659
0.724668
0.724677
0.724686
0.724695
0.724695
0.724704
0.724713
0.724723
0.724732
0.724732
0.724741
0.72475
0.724759
0.724769
0.724769
0.724778
0.724787
0.724796
0.724805
0.724805
0.724815
0.724824
0.724833
0.724843
0.724843
0.724852
0.724861
0.724871
0.72488
0.72488
0.724889
0.724899
0.724908
0.724917
0.724917
0.724927
0.724936
0.724945
0.724955
0.724955
0.724964
0.724974
0.724983
0.724992
0.724992
0.725002
0.725011
0.725021
0.72503
0.72503
0.725039
0.725049
0.725058
0.725068
0.725068
0.725077
0.725087
0.725096
0.725106
0.725106
0.725115
0.725125
0.725134
0.725144
0.725144
0.725153
0.725163
0.725172
0.725182
0.725182
0.725191
0.725201
0.72521
0.72522
0.72522
0.72523
0.725239
0.725249
0.725258
0.725258
0.725268
0.725278
0.725287
0.725297
0.725297
0.725306
0.725316
0.725326
0.725335
0.725335
0.725345
0.725355
0.725364
0.725374
0.725374
0.725384
0.725393
0.725403
0.725413
0.725413
0.725422
0.725432
0.725442
0.725452
0.725452
0.725461
0.725471
0.725481
0.72549
0.72549
0.7255
0.72551
0.72552
0.72553
0.72553
0.725539
0.725549
0.725559
0.725569
0.725569
0.725578
0.725588
0.725598
0.725608
0.725608
0.725618
0.725628
0.725637
0.725647
0.725647
0.725657
0.725667
0.725677
0.725687
0.725687
0.725697
0.725706
0.725716
0.725726
0.725726
0.725736
0.725746
0.725756
0.725766
0.725766
0.725776
0.725786
0.725796
0.725806
0.725806
0.725816
0.725826
0.725836
0.725846
0.725846
0.725856
0.725866
0.725876
0.725886
0.725886
0.725896
0.725906
0.725916
0.725926
0.725926
0.725936
0.725946
0.725956
0.725967
0.725967
0.725977
0.725987
0.725997
0.726007
0.726007
0.726017
0.726027
0.726038
0.726048
0.726048
0.726058
0.726068
0.726078
0.726088
0.726088
0.726099
0.726109
0.726119
0.726129
0.726129
0.72614
0.72615
0.72616
0.72617
0.72617
0.72618
0.726191
0.726201
0.726211
0.726211
0.726222
0.726232
0.726242
0.726252
0.726252
0.726263
0.726273
0.726283
0.726294
0.726294
0.726304
0.726314
0.726325
0.726335
0.726335
0.726345
0.726356
0.726366
0.726376
0.726376
0.726387
0.726397
0.726408
0.726418
0.726418
0.726428
0.726439
0.726449
0.72646
0.72646
0.72647
0.72648
0.726491
0.726501
0.726501
0.726512
0.726522
0.726533
0.726543
0.726543
0.726554
0.726564
0.726575
0.726585
0.726585
0.726596
0.726606
0.726617
0.726627
0.726627
0.726638
0.726648
0.726659
0.726669
0.726669
0.72668
0.726691
0.726701
0.726712
0.726712
0.726722
0.726733
0.726743
0.726754
0.726754
0.726765
0.726775
0.726786
0.726796
0.726796
0.726807
0.726818
0.726828
0.726839
0.726839
0.72685
0.726861
0.726871
0.726882
0.726882
0.726893
0.726903
0.726914
0.726925
0.726925
0.726936
0.726946
0.726957
0.726968
0.726968
0.726979
0.72699
0.727
0.727011
0.727011
0.727022
0.727033
0.727044
0.727055
0.727055
0.727066
0.727076
0.727087
0.727098
0.727098
0.727109
0.72712
0.727131
0.727142
0.727142
0.727153
0.727163
0.727174
0.727185
0.727185
0.727196
0.727207
0.727218
0.727229
0.727229
0.72724
0.727251
0.727262
0.727273
0.727273
0.727284
0.727295
0.727306
0.727317
0.727317
0.727328
0.727339
0.72735
0.727361
0.727361
0.727372
0.727383
0.727394
0.727405
0.727405
0.727416
0.727427
0.727438
0.727449
0.727449
0.72746
0.727472
0.727483
0.727494
0.727494
0.727505
0.727516
0.727527
0.727538
0.727538
0.727549
0.72756
0.727572
0.727583
0.727583
0.727594
0.727605
0.727616
0.727627
0.727627
0.727639
0.72765
0.727661
0.727672
0.727672
0.727683
0.727695
0.727706
0.727717
0.727717
0.727728
0.72774
0.727751
0.727762
0.727762
0.727773
0.727785
0.727796
0.727807
0.727807
0.727818
0.72783
0.727841
0.727852
0.727852
0.727864
0.727875
0.727886
0.727898
0.727898
0.727909
0.727921
0.727932
0.727943
0.727943
0.727955
0.727966
0.727978
0.727989
0.727989
0.728001
0.728012
0.728023
0.728035
0.728035
0.728046
0.728058
0.728069
0.728081
0.728081
0.728092
0.728104
0.728115
0.728127
0.728127
0.728139
0.72815
0.728162
0.728173
0.728173
0.728185
0.728196
0.728208
0.728219
0.728219
0.728231
0.728243
0.728254
0.728266
0.728266
0.728277
0.728289
0.728301
0.728312
0.728312
0.728324
0.728336
0.728347
0.728359
0.728359
0.728371
0.728382
0.728394
0.728406
0.728406
0.728417
0.728429
0.728441
0.728452
0.728452
0.728464
0.728476
0.728488
0.728499
0.728499
0.728511
0.728523
0.728535
0.728546
0.728546
0.728558
0.72857
0.728582
0.728593
0.728593
0.728605
0.728617
0.728629
0.728641
0.728641
0.728652
0.728664
0.728676
0.728688
0.728688
0.7287
0.728712
0.728723
0.728735
0.728735
0.728747
0.728759
0.728771
0.728783
0.728783
0.728795
0.728807
0.728818
0.72883
0.72883
0.728842
0.728854
0.728866
0.728878
0.728878
0.72889
0.728902
0.728914
0.728926
0.728926
0.728938
0.72895
0.728962
0.728974
0.728974
0.728986
0.728998
0.72901
0.729022
0.729022
0.729034
0.729047
0.729059
0.729071
0.729071
0.729083
0.729095
0.729107
0.729119
0.729119
0.729131
0.729144
0.729156
0.729168
0.729168
0.72918
0.729192
0.729204
0.729217
0.729217
0.729229
0.729241
0.729253
0.729265
0.729265
0.729278
0.72929
0.729302
0.729314
0.729314
0.729326
0.729339
0.729351
0.729363
0.729363
0.729376
0.729388
0.7294
0.729412
0.729412
0.729425
0.729437
0.729449
0.729462
0.729462
0.729474
0.729486
0.729499
0.729511
0.729511
0.729523
0.729536
0.729548
0.72956
0.72956
0.729573
0.729585
0.729597
0.72961
0.72961
0.729622
0.729635
0.729647
0.729659
0.729659
0.729672
0.729684
0.729697
0.729709
0.729709
0.729722
0.729734
0.729747
0.729759
0.729759
0.729771
0.729784
0.729796
0.729809
0.729809
0.729821
0.729834
0.729846
0.729859
0.729859
0.729871
0.729884
0.729897
0.729909
0.729909
0.729922
0.729934
0.729947
0.729959
0.729959
0.729972
0.729985
0.729997
0.73001
0.73001
0.730023
0.730035
0.730048
0.730061
0.730061
0.730073
0.730086
0.730099
0.730111
0.730111
0.730124
0.730137
0.73015
0.730162
0.730162
0.730175
0.730188
0.730201
0.730213
0.730213
0.730226
0.730239
0.730252
0.730265
0.730265
0.730277
0.73029
0.730303
0.730316
0.730316
0.730329
0.730341
0.730354
0.730367
0.730367
0.73038
0.730393
0.730406
0.730419
0.730419
0.730431
0.730444
0.730457
0.73047
0.73047
0.730483
0.730496
0.730509
0.730522
0.730522
0.730535
0.730548
0.730561
0.730573
0.730573
0.730586
0.730599
0.730612
0.730625
0.730625
0.730638
0.730651
0.730664
0.730677
0.730677
0.73069
0.730703
0.730716
0.730729
0.730729
0.730742
0.730755
0.730768
0.730782
0.730782
0.730795
0.730808
0.730821
0.730834
0.730834
0.730847
0.73086
0.730873
0.730886
0.730886
0.730899
0.730912
0.730925
0.730939
0.730939
0.730952
0.730965
0.730978
0.730991
0.730991
0.731004
0.731018
0.731031
0.731044
0.731044
0.731057
0.73107
0.731084
0.731097
0.731097
0.73111
0.731123
0.731137
0.73115
0.73115
0.731163
0.731177
0.73119
0.731203
0.731203
0.731217
0.73123
0.731243
0.731257
0.731257
0.73127
0.731283
0.731297
0.73131
0.73131
0.731324
0.731337
0.73135
0.731364
0.731364
0.731377
0.731391
0.731404
0.731417
0.731417
0.731431
0.731444
0.731458
0.731471
0.731471
0.731485
0.731498
0.731512
0.731525
0.731525
0.731539
0.731552
0.731566
0.731579
0.731579
0.731593
0.731606
0.73162
0.731633
0.731633
0.731647
0.73166
0.731674
0.731687
0.731687
0.731701
0.731715
0.731728
0.731742
0.731742
0.731755
0.731769
0.731782
0.731796
0.731796
0.73181
0.731823
0.731837
0.731851
0.731851
0.731864
0.731878
0.731892
0.731905
0.731905
0.731919
0.731933
0.731946
0.73196
0.73196
0.731974
0.731987
0.732001
0.732015
0.732015
0.732028
0.732042
0.732056
0.73207
0.73207
0.732083
0.732097
0.732111
0.732125
0.732125
0.732139
0.732152
0.732166
0.73218
0.73218
0.732194
0.732208
0.732222
0.732236
0.732236
0.73225
0.732263
0.732277
0.732291
0.732291
0.732305
0.732319
0.732333
0.732347
0.732347
0.732361
0.732375
0.732389
0.732403
0.732403
0.732417
0.732431
0.732445
0.732459
0.732459
0.732473
0.732487
0.732501
0.732515
0.732515
0.732529
0.732543
0.732557
0.732571
0.732571
0.732585
0.732599
0.732613
0.732627
0.732627
0.732641
0.732655
0.732669
0.732683
0.732683
0.732698
0.732712
0.732726
0.73274
0.73274
0.732754
0.732768
0.732782
0.732796
0.732796
0.732811
0.732825
0.732839
0.732853
0.732853
0.732867
0.732881
0.732896
0.73291
0.73291
0.732924
0.732938
0.732952
0.732967
0.732967
0.732981
0.732995
0.733009
0.733024
0.733024
0.733038
0.733052
0.733066
0.733081
0.733081
0.733095
0.733109
0.733123
0.733138
0.733138
0.733152
0.733166
0.733181
0.733195
0.733195
0.73321
0.733224
0.733238
0.733253
0.733253
0.733267
0.733282
0.733296
0.733311
0.733311
0.733325
0.733339
0.733354
0.733368
0.733368
0.733383
0.733397
0.733412
0.733426
0.733426
0.733441
0.733455
0.73347
0.733484
0.733484
0.733499
0.733514
0.733528
0.733543
0.733543
0.733557
0.733572
0.733586
0.733601
0.733601
0.733616
0.73363
0.733645
0.733659
0.733659
0.733674
0.733689
0.733703
0.733718
0.733718
0.733732
0.733747
0.733762
0.733776
0.733776
0.733791
0.733806
0.73382
0.733835
0.733835
0.73385
0.733864
0.733879
0.733894
0.733894
0.733909
0.733923
0.733938
0.733953
0.733953
0.733967
0.733982
0.733997
0.734012
0.734012
0.734026
0.734041
0.734056
0.734071
0.734071
0.734086
0.7341
0.734115
0.73413
0.73413
0.734145
0.73416
0.734174
0.734189
0.734189
0.734204
0.734219
0.734234
0.734249
0.734249
0.734264
0.734279
0.734294
0.734308
0.734308
0.734323
0.734338
0.734353
0.734368
0.734368
0.734383
0.734398
0.734413
0.734428
0.734428
0.734443
0.734458
0.734473
0.734489
0.734489
0.734504
0.734519
0.734534
0.734549
0.734549
0.734564
0.734579
0.734594
0.734609
0.734609
0.734624
0.734639
0.734654
0.73467
0.73467
0.734685
0.7347
0.734715
0.73473
0.73473
0.734745
0.73476
0.734776
0.734791
0.734791
0.734806
0.734821
0.734836
0.734851
0.734851
0.734867
0.734882
0.734897
0.734912
0.734912
0.734927
0.734943
0.734958
0.734973
0.734973
0.734988
0.735004
0.735019
0.735034
0.735034
0.735049
0.735065
0.73508
0.735095
0.735095
0.735111
0.735126
0.735141
0.735157
0.735157
0.735172
0.735187
0.735203
0.735218
0.735218
0.735233
0.735249
0.735264
0.735279
0.735279
0.735295
0.73531
0.735326
0.735341
0.735341
0.735357
0.735372
0.735387
0.735403
0.735403
0.735418
0.735434
0.735449
0.735465
0.735465
0.735481
0.735496
0.735512
0.735527
0.735527
0.735543
0.735558
0.735574
0.735589
0.735589
0.735605
0.735621
0.735636
0.735652
0.735652
0.735667
0.735683
0.735699
0.735714
0.735714
0.73573
0.735746
0.735761
0.735777
0.735777
0.735793
0.735808
0.735824
0.73584
0.73584
0.735855
0.735871
0.735887
0.735902
0.735902
0.735918
0.735934
0.73595
0.735965
0.735965
0.735981
0.735997
0.736013
0.736028
0.736028
0.736044
0.73606
0.736076
0.736091
0.736091
0.736107
0.736123
0.736139
0.736155
0.736155
0.73617
0.736186
0.736202
0.736218
0.736218
0.736234
0.73625
0.736265
0.736281
0.736281
0.736297
0.736313
0.736329
0.736345
0.736345
0.736361
0.736377
0.736393
0.736409
0.736409
0.736424
0.73644
0.736456
0.736472
0.736472
0.736488
0.736504
0.73652
0.736537
0.736537
0.736553
0.736569
0.736585
0.736601
0.736601
0.736617
0.736633
0.736649
0.736665
0.736665
0.736681
0.736697
0.736713
0.73673
0.73673
0.736746
0.736762
0.736778
0.736794
0.736794
0.73681
0.736826
0.736843
0.736859
0.736859
0.736875
0.736891
0.736907
0.736924
0.736924
0.73694
0.736956
0.736972
0.736988
0.736988
0.737005
0.737021
0.737037
0.737053
0.737053
0.73707
0.737086
0.737102
0.737118
0.737118
0.737135
0.737151
0.737167
0.737184
0.737184
0.7372
0.737216
0.737232
0.737249
0.737249
0.737265
0.737281
0.737298
0.737314
0.737314
0.73733
0.737347
0.737363
0.73738
0.73738
0.737396
0.737412
0.737429
0.737445
0.737445
0.737462
0.737478
0.737495
0.737511
0.737511
0.737527
0.737544
0.73756
0.737577
0.737577
0.737594
0.73761
0.737627
0.737643
0.737643
0.73766
0.737676
0.737693
0.737709
0.737709
0.737726
0.737743
0.737759
0.737776
0.737776
0.737793
0.737809
0.737826
0.737842
0.737842
0.737859
0.737876
0.737892
0.737909
0.737909
0.737926
0.737942
0.737959
0.737976
0.737976
0.737992
0.738009
0.738026
0.738043
0.738043
0.738059
0.738076
0.738093
0.738109
0.738109
0.738126
0.738143
0.73816
0.738177
0.738177
0.738193
0.73821
0.738227
0.738244
0.738244
0.73826
0.738277
0.738294
0.738311
0.738311
0.738328
0.738344
0.738361
0.738378
0.738378
0.738395
0.738412
0.738429
0.738446
0.738446
0.738462
0.738479
0.738496
0.738513
0.738513
0.73853
0.738547
0.738564
0.738581
0.738581
0.738598
0.738615
0.738632
0.738649
0.738649
0.738666
0.738683
0.7387
0.738717
0.738717
0.738734
0.738751
0.738768
0.738785
0.738785
0.738802
0.738819
0.738836
0.738854
0.738854
0.738871
0.738888
0.738905
0.738922
0.738922
0.738939
0.738956
0.738974
0.738991
0.738991
0.739008
0.739025
0.739042
0.739059
0.739059
0.739077
0.739094
0.739111
0.739128
0.739128
0.739145
0.739163
0.73918
0.739197
0.739197
0.739214
0.739232
0.739249
0.739266
0.739266
0.739283
0.739301
0.739318
0.739335
0.739335
0.739352
0.73937
0.739387
0.739404
0.739404
0.739422
0.739439
0.739456
0.739474
0.739474
0.739491
0.739508
0.739526
0.739543
0.739543
0.73956
0.739578
0.739595
0.739612
0.739612
0.73963
0.739647
0.739665
0.739682
0.739682
0.7397
0.739717
0.739735
0.739752
0.739752
0.73977
0.739787
0.739805
0.739822
0.739822
0.73984
0.739857
0.739875
0.739892
0.739892
0.73991
0.739928
0.739945
0.739963
0.739963
0.73998
0.739998
0.740016
0.740033
0.740033
0.740051
0.740069
0.740086
0.740104
0.740104
0.740122
0.740139
0.740157
0.740175
0.740175
0.740192
0.74021
0.740228
0.740245
0.740245
0.740263
0.740281
0.740298
0.740316
0.740316
0.740334
0.740352
0.740369
0.740387
0.740387
0.740405
0.740423
0.74044
0.740458
0.740458
0.740476
0.740494
0.740511
0.740529
0.740529
0.740547
0.740565
0.740583
0.740601
0.740601
0.740618
0.740636
0.740654
0.740672
0.740672
0.74069
0.740708
0.740726
0.740743
0.740743
0.740761
0.740779
0.740797
0.740815
0.740815
0.740833
0.740851
0.740869
0.740887
0.740887
0.740905
0.740923
0.740941
0.740959
0.740959
0.740977
0.740995
0.741013
0.741032
0.741032
0.74105
0.741068
0.741086
0.741104
0.741104
0.741122
0.74114
0.741158
0.741176
0.741176
0.741194
0.741213
0.741231
0.741249
0.741249
0.741267
0.741285
0.741303
0.741321
0.741321
0.74134
0.741358
0.741376
0.741394
0.741394
0.741412
0.741431
0.741449
0.741467
0.741467
0.741485
0.741504
0.741522
0.74154
0.74154
0.741558
0.741576
0.741595
0.741613
0.741613
0.741631
0.74165
0.741668
0.741686
0.741686
0.741704
0.741723
0.741741
0.741759
0.741759
0.741778
0.741796
0.741814
0.741833
0.741833
0.741851
0.74187
0.741888
0.741906
0.741906
0.741925
0.741943
0.741962
0.74198
0.74198
0.741999
0.742017
0.742036
0.742054
0.742054
0.742073
0.742091
0.74211
0.742128
0.742128
0.742147
0.742165
0.742184
0.742203
0.742203
0.742221
0.74224
0.742258
0.742277
0.742277
0.742296
0.742314
0.742333
0.742351
0.742351
0.74237
0.742389
0.742407
0.742426
0.742426
0.742444
0.742463
0.742482
0.7425
0.7425
0.742519
0.742538
0.742556
0.742575
0.742575
0.742594
0.742613
0.742631
0.74265
0.74265
0.742669
0.742687
0.742706
0.742725
0.742725
0.742744
0.742762
0.742781
0.7428
0.7428
0.742819
0.742837
0.742856
0.742875
0.742875
0.742894
0.742913
0.742931
0.74295
0.74295