<?xml version="1.0"?>
<VTKFile type="UnstructuredGrid" version="0.1" byte_order="LittleEndian">
<UnstructuredGrid>
<Piece NumberOfPoints="5000" NumberOfCells="4000">
<PointData Scalars="Reaction 0">
<DataArray type="Float32" Name="Reaction 0" format="ascii">
0.513889
0.513889
0.513889
0.513889
0.513889
0.513889
0.513889
0.513889
0.51389
0.51389
0.51389
0.51389
0.51389
0.51389
0.513891
0.513891
0.513891
0.513891
0.513892
0.513892
0.513892
0.513893
0.513893
0.513894
0.513894
0.513894
0.513895
0.513895
0.513896
0.513896
0.513896
0.513897
0.513898
0.513898
0.513899
0.513899
0.5139
0.513901
0.513901
0.513902
0.513902
0.513903
0.513904
0.513905
0.513906
0.513906
0.513907
0.513908
0.513909
0.51391
0.51391
0.513911
0.513912
0.513913
0.513914
0.513914
0.513915
0.513916
0.513917
0.513919
0.513919
0.51392
0.513921
0.513923
0.513924
0.513924
0.513925
0.513927
0.513928
0.513929
0.513929
0.513931
0.513932
0.513934
0.513935
0.513935
0.513937
0.513939
0.51394
0.513942
0.513942
0.513944
0.513945
0.513947
0.513949
0.513949
0.51395
0.513952
0.513954
0.513956
0.513956
0.513958
0.51396
0.513962
0.513964
0.513964
0.513966
0.513968
0.51397
0.513972
0.513972
0.513974
0.513976
0.513978
0.51398
0.51398
0.513982
0.513984
0.513987
0.513989
0.513989
0.513991
0.513994
0.513996
0.513998
0.513998
0.514001
0.514003
0.514006
0.514008
0.514008
0.51401
0.514013
0.514016
0.514018
0.514018
0.514021
0.514023
0.514026
0.514029
0.514029
0.514031
0.514034
0.514037
0.51404
0.51404
0.514042
0.514045
0.514048
0.514051
0.514051
0.514054
0.514057
0.51406
0.514063
0.514063
0.514066
0.514069
0.514072
0.514075
0.514075
0.514078
0.514081
0.514084
0.514088
0.514088
0.514091
0.514094
0.514097
0.514101
0.514101
0.514104
0.514107
0.514111
0.514114
0.514114
0.514117
0.514121
0.514124
0.514128
0.514128
0.514131
0.514135
0.514139
0.514142
0.514142
0.514146
0.514149
0.514153
0.514157
0.514157
0.514161
0.514164
0.514168
0.514172
0.514172
0.514176
0.51418
0.514184
0.514187
0.514187
0.514191
0.514195
0.514199
0.514203
0.514203
0.514207
0.514211
0.514216
0.51422
0.51422
0.514224
0.514228
0.514232
0.514236
0.514236
0.514241
0.514245
0.514249
0.514254
0.514254
0.514258
0.514262
0.514267
0.514271
0.514271
0.514276
0.51428
0.514285
0.514289
0.514289
0.514294
0.514298
0.514303
0.514308
0.514308
0.514312
0.514317
0.514322
0.514326
0.514326
0.514331
0.514336
0.514341
0.514346
0.514346
0.51435
0.514355
0.51436
0.514365
0.514365
0.51437
0.514375
0.51438
0.514385
0.514385
0.51439
0.514395
0.514401
0.514406
0.514406
0.514411
0.514416
0.514421
0.514427
0.514427
0.514432
0.514437
0.514443
0.514448
0.514448
0.514453
0.514459
0.514464
0.51447
0.51447
0.514475
0.514481
0.514486
0.514492
0.514492
0.514497
0.514503
0.514509
0.514514
0.514514
0.51452
0.514526
0.514531
0.514537
0.514537
0.514543
0.514549
0.514555
0.514561
0.514561
0.514566
0.514572
0.514578
0.514584
0.514584
0.51459
0.514596
0.514602
0.514609
0.514609
0.514615
0.514621
0.514627
0.514633
0.514633
0.514639
0.514646
0.514652
0.514658
0.514658
0.514664
0.514671
0.514677
0.514684
0.514684
0.51469
0.514696
0.514703
0.514709
0.514709
0.514716
0.514723
0.514729
0.514736
0.514736
0.514742
0.514749
0.514756
0.514762
0.514762
0.514769
0.514776
0.514783
0.514789
0.514789
0.514796
0.514803
0.51481
0.514817
0.514817
0.514824
0.514831
0.514838
0.514845
0.514845
0.514852
0.514859
0.514866
0.514873
0.514873
0.51488
0.514888
0.514895
0.514902
0.514902
0.514909
0.514916
0.514924
0.514931
0.514931
0.514938
0.514946
0.514953
0.514961
0.514961
0.514968
0.514976
0.514983
0.514991
0.514991
0.514998
0.515006
0.515013
0.515021
0.515021
0.515029
0.515036
0.515044
0.515052
0.515052
0.51506
0.515067
0.515075
0.515083
0.515083
0.515091
0.515099
0.515107
0.515115
0.515115
0.515123
0.515131
0.515139
0.515147
0.515147
0.515155
0.515163
0.515171
0.515179
0.515179
0.515187
0.515196
0.515204
0.515212
0.515212
0.51522
0.515229
0.515237
0.515245
0.515245
0.515254
0.515262
0.515271
0.515279
0.515279
0.515288
0.515296
0.515305
0.515313
0.515313
0.515322
0.51533
0.515339
0.515348
0.515348
0.515356
0.515365
0.515374
0.515383
0.515383
0.515391
0.5154
0.515409
0.515418
0.515418
0.515427
0.515436
0.515445
0.515454
0.515454
0.515463
0.515472
0.515481
0.51549
0.51549
0.515499
0.515508
0.515517
0.515527
0.515527
0.515536
0.515545
0.515554
0.515564
0.515564
0.515573
0.515582
0.515592
0.515601
0.515601
0.51561
0.51562
0.515629
0.515639
0.515639
0.515648
0.515658
0.515668
0.515677
0.515677
0.515687
0.515696
0.515706
0.515716
0.515716
0.515726
0.515735
0.515745
0.515755
0.515755
0.515765
0.515775
0.515784
0.515794
0.515794
0.515804
0.515814
0.515824
0.515834
0.515834
0.515844
0.515854
0.515864
0.515875
0.515875
0.515885
0.515895
0.515905
0.515915
0.515915
0.515926
0.515936
0.515946
0.515956
0.515956
0.515967
0.515977
0.515988
0.515998
0.515998
0.516008
0.516019
0.516029
0.51604
0.51604
0.516051
0.516061
0.516072
0.516082
0.516082
0.516093
0.516104
0.516114
0.516125
0.516125
0.516136
0.516147
0.516158
0.516168
0.516168
0.516179
0.51619
0.516201
0.516212
0.516212
0.516223
0.516234
0.516245
0.516256
0.516256
0.516267
0.516278
0.516289
0.516301
0.516301
0.516312
0.516323
0.516334
0.516345
0.516345
0.516357
0.516368
0.516379
0.516391
0.516391
0.516402
0.516414
0.516425
0.516436
0.516436
0.516448
0.516459
0.516471
0.516483
0.516483
0.516494
0.516506
0.516517
0.516529
0.516529
0.516541
0.516553
0.516564
0.516576
0.516576
0.516588
0.5166
0.516612
0.516623
0.516623
0.516635
0.516647
0.516659
0.516671
0.516671
0.516683
0.516695
0.516707
0.516719
0.516719
0.516732
0.516744
0.516756
0.516768
0.516768
0.51678
0.516792
0.516805
0.516817
0.516817
0.516829
0.516842
0.516854
0.516866
0.516866
0.516879
0.516891
0.516904
0.516916
0.516916
0.516929
0.516941
0.516954
0.516967
0.516967
0.516979
0.516992
0.517005
0.517017
0.517017
0.51703
0.517043
0.517056
0.517068
0.517068
0.517081
0.517094
0.517107
0.51712
0.51712
0.517133
0.517146
0.517159
0.517172
0.517172
0.517185
0.517198
0.517211
0.517224
0.517224
0.517237
0.51725
0.517264
0.517277
0.517277
0.51729
0.517303
0.517317
0.51733
0.51733
0.517343
0.517357
0.51737
0.517384
0.517384
0.517397
0.517411
0.517424
0.517438
0.517438
0.517451
0.517465
0.517478
0.517492
0.517492
0.517506
0.517519
0.517533
0.517547
0.517547
0.517561
0.517574
0.517588
0.517602
0.517602
0.517616
0.51763
0.517644
0.517658
0.517658
0.517672
0.517686
0.5177
0.517714
0.517714
0.517728
0.517742
0.517756
0.51777
0.51777
0.517784
0.517799
0.517813
0.517827
0.517827
0.517841
0.517856
0.51787
0.517884
0.517884
0.517899
0.517913
0.517928
0.517942
0.517942
0.517957
0.517971
0.517986
0.518
0.518
0.518015
0.518029
0.518044
0.518059
0.518059
0.518073
0.518088
0.518103
0.518118
0.518118
0.518133
0.518147
0.518162
0.518177
0.518177
0.518192
0.518207
0.518222
0.518237
0.518237
0.518252
0.518267
0.518282
0.518297
0.518297
0.518312
0.518327
0.518343
0.518358
0.518358
0.518373
0.518388
0.518403
0.518419
0.518419
0.518434
0.518449
0.518465
0.51848
0.51848
0.518496
0.518511
0.518527
0.518542
0.518542
0.518558
0.518573
0.518589
0.518604
0.518604
0.51862
0.518636
0.518651
0.518667
0.518667
0.518683
0.518699
0.518714
0.51873
0.51873
0.518746
0.518762
0.518778
0.518794
0.518794
0.51881
0.518826
0.518842
0.518858
0.518858
0.518874
0.51889
0.518906
0.518922
0.518922
0.518938
0.518954
0.51897
0.518987
0.518987
0.519003
0.519019
0.519036
0.519052
0.519052
0.519068
0.519085
0.519101
0.519117
0.519117
0.519134
0.51915
0.519167
0.519183
0.519183
0.5192
0.519217
0.519233
0.51925
0.51925
0.519267
0.519283
0.5193
0.519317
0.519317
0.519334
0.51935
0.519367
0.519384
0.519384
0.519401
0.519418
0.519435
0.519452
0.519452
0.519469
0.519486
0.519503
0.51952
0.51952
0.519537
0.519554
0.519571
0.519588
0.519588
0.519605
0.519623
0.51964
0.519657
0.519657
0.519674
0.519692
0.519709
0.519726
0.519726
0.519744
0.519761
0.519779
0.519796
0.519796
0.519814
0.519831
0.519849
0.519866
0.519866
0.519884
0.519902
0.519919
0.519937
0.519937
0.519955
0.519972
0.51999
0.520008
0.520008
0.520026
0.520044
0.520061
0.520079
0.520079
0.520097
0.520115
0.520133
0.520151
0.520151
0.520169
0.520187
0.520205
0.520223
0.520223
0.520242
0.52026
0.520278
0.520296
0.520296
0.520314
0.520333
0.520351
0.520369
0.520369
0.520387
0.520406
0.520424
0.520443
0.520443
0.520461
0.520479
0.520498
0.520516
0.520516
0.520535
0.520554
0.520572
0.520591
0.520591
0.520609
0.520628
0.520647
0.520666
0.520666
0.520684
0.520703
0.520722
0.520741
0.520741
0.520759
0.520778
0.520797
0.520816
0.520816
0.520835
0.520854
0.520873
0.520892
0.520892
0.520911
0.52093
0.520949
0.520969
0.520969
0.520988
0.521007
0.521026
0.521045
0.521045
0.521065
0.521084
0.521103
0.521123
0.521123
0.521142
0.521161
0.521181
0.5212
0.5212
0.52122
0.521239
0.521259
0.521278
0.521278
0.521298
0.521317
0.521337
0.521357
0.521357
0.521376
0.521396
0.521416
0.521436
0.521436
0.521455
0.521475
0.521495
0.521515
0.521515
0.521535
0.521555
0.521575
0.521595
0.521595
0.521615
0.521635
0.521655
0.521675
0.521675
0.521695
0.521715
0.521735
0.521755
0.521755
0.521775
0.521796
0.521816
0.521836
0.521836
0.521856
0.521877
0.521897
0.521918
0.521918
0.521938
0.521958
0.521979
0.521999
0.521999
0.52202
0.52204
0.522061
0.522081
0.522081
0.522102
0.522123
0.522143
0.522164
0.522164
0.522185
0.522206
0.522226
0.522247
0.522247
0.522268
0.522289
0.52231
0.522331
0.522331
0.522352
0.522372
0.522393
0.522414
0.522414
0.522435
0.522457
0.522478
0.522499
0.522499
0.52252
0.522541
0.522562
0.522583
0.522583
0.522605
0.522626
0.522647
0.522669
0.522669
0.52269
0.522711
0.522733
0.522754
0.522754
0.522775
0.522797
0.522818
0.52284
0.52284
0.522862
0.522883
0.522905
0.522926
0.522926
0.522948
0.52297
0.522991
0.523013
0.523013
0.523035
0.523057
0.523078
0.5231
0.5231
0.523122
0.523144
0.523166
0.523188
0.523188
0.52321
0.523232
0.523254
0.523276
0.523276
0.523298
0.52332
0.523342
0.523364
0.523364
0.523386
0.523409
0.523431
0.523453
0.523453
0.523475
0.523498
0.52352
0.523542
0.523542
0.523565
0.523587
0.52361
0.523632
0.523632
0.523655
0.523677
0.5237
0.523722
0.523722
0.523745
0.523767
0.52379
0.523813
0.523813
0.523835
0.523858
0.523881
0.523904
0.523904
0.523926
0.523949
0.523972
0.523995
0.523995
0.524018
0.524041
0.524064
0.524087
0.524087
0.52411
0.524133
0.524156
0.524179
0.524179
0.524202
0.524225
0.524248
0.524272
0.524272
0.524295
0.524318
0.524341
0.524365
0.524365
0.524388
0.524411
0.524435
0.524458
0.524458
0.524481
0.524505
0.524528
0.524552
0.524552
0.524575
0.524599
0.524622
0.524646
0.524646
0.52467
0.524693
0.524717
0.524741
0.524741
0.524764
0.524788
0.524812
0.524836
0.524836
0.52486
0.524883
0.524907
0.524931
0.524931
0.524955
0.524979
0.525003
0.525027
0.525027
0.525051
0.525075
0.525099
0.525124
0.525124
0.525148
0.525172
0.525196
0.52522
0.52522
0.525245
0.525269
0.525293
0.525317
0.525317
0.525342
0.525366
0.525391
0.525415
0.525415
0.52544
0.525464
0.525489
0.525513
0.525513
0.525538
0.525562
0.525587
0.525611
0.525611
0.525636
0.525661
0.525686
0.52571
0.52571
0.525735
0.52576
0.525785
0.52581
0.52581
0.525834
0.525859
0.525884
0.525909
0.525909
0.525934
0.525959
0.525984
0.526009
0.526009
0.526034
0.52606
0.526085
0.52611
0.52611
0.526135
0.52616
0.526185
0.526211
0.526211
0.526236
0.526261
0.526287
0.526312
0.526312
0.526337
0.526363
0.526388
0.526414
0.526414
0.526439
0.526465
0.52649
0.526516
0.526516
0.526542
0.526567
0.526593
0.526619
0.526619
0.526644
0.52667
0.526696
0.526722
0.526722
0.526747
0.526773
0.526799
0.526825
0.526825
0.526851
0.526877
0.526903
0.526929
0.526929
0.526955
0.526981
0.527007
0.527033
0.527033
0.527059
0.527085
0.527112
0.527138
0.527138
0.527164
0.52719
0.527217
0.527243
0.527243
0.527269
0.527296
0.527322
0.527348
0.527348
0.527375
0.527401
0.527428
0.527454
0.527454
0.527481
0.527507
0.527534
0.527561
0.527561
0.527587
0.527614
0.527641
0.527667
0.527667
0.527694
0.527721
0.527748
0.527774
0.527774
0.527801
0.527828
0.527855
0.527882
0.527882
0.527909
0.527936
0.527963
0.52799
0.52799
0.528017
0.528044
0.528071
0.528099
0.528099
0.528126
0.528153
0.52818
0.528207
0.528207
0.528235
0.528262
0.528289
0.528317
0.528317
0.528344
0.528371
0.528399
0.528426
0.528426
0.528454
0.528481
0.528509
0.528536
0.528536
0.528564
0.528592
0.528619
0.528647
0.528647
0.528675
0.528702
0.52873
0.528758
0.528758
0.528786
0.528813
0.528841
0.528869
0.528869
0.528897
0.528925
0.528953
0.528981
0.528981
0.529009
0.529037
0.529065
0.529093
0.529093
0.529121
0.529149
0.529177
0.529206
0.529206
0.529234
0.529262
0.52929
0.529319
0.529319
0.529347
0.529375
0.529404
0.529432
0.529432
0.529461
0.529489
0.529517
0.529546
0.529546
0.529574
0.529603
0.529632
0.52966
0.52966
0.529689
0.529718
0.529746
0.529775
0.529775
0.529804
0.529832
0.529861
0.52989
0.52989
0.529919
0.529948
0.529977
0.530006
0.530006
0.530034
0.530063
0.530092
0.530121
0.530121
0.530151
0.53018
0.530209
0.530238
0.530238
0.530267
0.530296
0.530325
0.530355
0.530355
0.530384
0.530413
0.530442
0.530472
0.530472
0.530501
0.530531
0.53056
0.530589
0.530589
0.530619
0.530648
0.530678
0.530707
0.530707
0.530737
0.530767
0.530796
0.530826
0.530826
0.530856
0.530885
0.530915
0.530945
0.530945
0.530974
0.531004
0.531034
0.531064
0.531064
0.531094
0.531124
0.531154
0.531184
0.531184
0.531214
0.531244
0.531274
0.531304
0.531304
0.531334
0.531364
0.531394
0.531424
0.531424
0.531455
0.531485
0.531515
0.531545
0.531545
0.531576
0.531606
0.531636
0.531667
0.531667
0.531697
0.531727
0.531758
0.531788
0.531788
0.531819
0.531849
0.53188
0.531911
0.531911
0.531941
0.531972
0.532003
0.532033
0.532033
0.532064
0.532095
0.532126
0.532156
0.532156
0.532187
0.532218
0.532249
0.53228
0.53228
0.532311
0.532342
0.532373
0.532404
0.532404
0.532435
0.532466
0.532497
0.532528
0.532528
0.532559
0.53259
0.532621
0.532653
0.532653
0.532684
0.532715
0.532746
0.532778
0.532778
0.532809
0.532841
0.532872
0.532903
0.532903
0.532935
0.532966
0.532998
0.533029
0.533029
0.533061
0.533092
0.533124
0.533156
0.533156
0.533187
0.533219
0.533251
0.533283
0.533283
0.533314
0.533346
0.533378
0.53341
0.53341
0.533442
0.533474
0.533505
0.533537
0.533537
0.533569
0.533601
0.533633
0.533665
0.533665
0.533698
0.53373
0.533762
0.533794
0.533794
0.533826
0.533858
0.533891
0.533923
0.533923
0.533955
0.533987
0.53402
0.534052
0.534052
0.534085
0.534117
0.534149
0.534182
0.534182
0.534214
0.534247
0.53428
0.534312
0.534312
0.534345
0.534377
0.53441
0.534443
0.534443
0.534475
0.534508
0.534541
0.534574
0.534574
0.534606
0.534639
0.534672
0.534705
0.534705
0.534738
0.534771
0.534804
0.534837
0.534837
0.53487
0.534903
0.534936
0.534969
0.534969
0.535002
0.535035
0.535069
0.535102
0.535102
0.535135
0.535168
0.535202
0.535235
0.535235
0.535268
0.535302
0.535335
0.535368
0.535368
0.535402
0.535435
0.535469
0.535502
0.535502
0.535536
0.53557
0.535603
0.535637
0.535637
0.53567
0.535704
0.535738
0.535772
0.535772
0.535805
0.535839
0.535873
0.535907
0.535907
0.535941
0.535974
0.536008
0.536042
0.536042
0.536076
0.53611
0.536144
0.536178
0.536178
0.536212
0.536247
0.536281
0.536315
0.536315
0.536349
0.536383
0.536417
0.536452
0.536452
0.536486
0.53652
0.536555
0.536589
0.536589
0.536623
0.536658
0.536692
0.536727
0.536727
0.536761
0.536796
0.53683
0.536865
0.536865
0.536899
0.536934
0.536969
0.537003
0.537003
0.537038
0.537073
0.537108
0.537142
0.537142
0.537177
0.537212
0.537247
0.537282
0.537282
0.537317
0.537352
0.537387
0.537422
0.537422
0.537457
0.537492
0.537527
0.537562
0.537562
0.537597
0.537632
0.537667
0.537702
0.537702
0.537738
0.537773
0.537808
0.537844
0.537844
0.537879
0.537914
0.53795
0.537985
0.537985
0.53802
0.538056
0.538091
0.538127
0.538127
0.538162
0.538198
0.538234
0.538269
0.538269
0.538305
0.538341
0.538376
0.538412
0.538412
0.538448
0.538484
0.538519
0.538555
0.538555
0.538591
0.538627
0.538663
0.538699
0.538699
0.538735
0.538771
0.538807
0.538843
0.538843
0.538879
0.538915
0.538951
0.538987
0.538987
0.539023
0.53906
0.539096
0.539132
0.539132
0.539168
0.539205
0.539241
0.539277
0.539277
0.539314
0.53935
0.539387
0.539423
0.539423
0.53946
0.539496
0.539533
0.539569
0.539569
0.539606
0.539642
0.539679
0.539716
0.539716
0.539752
0.539789
0.539826
0.539863
0.539863
0.539899
0.539936
0.539973
0.54001
0.54001
0.540047
0.540084
0.540121
0.540158
0.540158
0.540195
0.540232
0.540269
0.540306
0.540306
0.540343
0.54038
0.540418
0.540455
0.540455
0.540492
0.540529
0.540566
0.540604
0.540604
0.540641
0.540678
0.540716
0.540753
0.540753
0.540791
0.540828
0.540866
0.540903
0.540903
0.540941
0.540978
0.541016
0.541054
0.541054
0.541091
0.541129
0.541167
0.541204
0.541204
0.541242
0.54128
0.541318
0.541355
0.541355
0.541393
0.541431
0.541469
0.541507
0.541507
0.541545
0.541583
0.541621
0.541659
0.541659
0.541697
0.541735
0.541773
0.541811
0.541811
0.54185
0.541888
0.541926
0.541964
0.541964
0.542003
0.542041
0.542079
0.542118
0.542118
0.542156
0.542194
0.542233
0.542271
0.542271
0.54231
0.542348
0.542387
0.542425
0.542425
0.542464
0.542503
0.542541
0.54258
0.54258
0.542619
0.542657
0.542696
0.542735
0.542735
0.542774
0.542813
0.542851
0.54289
0.54289
0.542929
0.542968
0.543007
0.543046
0.543046
0.543085
0.543124
0.543163
0.543202
0.543202
0.543242
0.543281
0.54332
0.543359
0.543359
0.543398
0.543438
0.543477
0.543516
0.543516
0.543555
0.543595
0.543634
0.543674
0.543674
0.543713
0.543753
0.543792
0.543832
0.543832
0.543871
0.543911
0.54395
0.54399
0.54399
0.54403
0.544069
0.544109
0.544149
0.544149
0.544188
0.544228
0.544268
0.544308
0.544308
0.544348
0.544388
0.544428
0.544468
0.544468
0.544507
0.544547
0.544587
0.544628
0.544628
0.544668
0.544708
0.544748
0.544788
0.544788
0.544828
0.544868
0.544909
0.544949
0.544949
0.544989
0.545029
0.54507
0.54511
0.54511
0.545151
0.545191
0.545231
0.545272
0.545272
0.545312
0.545353
0.545393
0.545434
0.545434
0.545475
0.545515
0.545556
0.545597
0.545597
0.545637
0.545678
0.545719
0.54576
0.54576
0.5458
0.545841
0.545882
0.545923
0.545923
0.545964
0.546005
0.546046
0.546087
0.546087
0.546128
0.546169
0.54621
0.546251
0.546251
0.546292
0.546333
0.546375
0.546416
0.546416
0.546457
0.546498
0.54654
0.546581
0.546581
0.546622
0.546664
0.546705
0.546747
0.546747
0.546788
0.546829
0.546871
0.546912
0.546912
0.546954
0.546996
0.547037
0.547079
0.547079
0.547121
0.547162
0.547204
0.547246
0.547246
0.547287
0.547329
0.547371
0.547413
0.547413
0.547455
0.547497
0.547539
0.547581
0.547581
0.547623
0.547665
0.547707
0.547749
0.547749
0.547791
0.547833
0.547875
0.547917
0.547917
0.547959
0.548002
0.548044
0.548086
0.548086
0.548128
0.548171
0.548213
0.548255
0.548255
0.548298
0.54834
0.548383
0.548425
0.548425
0.548468
0.54851
0.548553
0.548595
0.548595
0.548638
0.548681
0.548723
0.548766
0.548766
0.548809
0.548851
0.548894
0.548937
0.548937
0.54898
0.549023
0.549066
0.549109
0.549109
0.549151
0.549194
0.549237
0.54928
0.54928
0.549323
0.549367
0.54941
0.549453
0.549453
0.549496
0.549539
0.549582
0.549625
0.549625
0.549669
0.549712
0.549755
0.549799
0.549799
0.549842
0.549885
0.549929
0.549972
0.549972
0.550016
0.550059
0.550103
0.550146
0.550146
0.55019
0.550233
0.550277
0.550321
0.550321
0.550364
0.550408
0.550452
0.550496
0.550496
0.550539
0.550583
0.550627
0.550671
0.550671
0.550715
0.550759
0.550803
0.550847
0.550847
0.550891
0.550935
0.550979
0.551023
0.551023
0.551067
0.551111
0.551155
0.551199
0.551199
0.551244
0.551288
0.551332
0.551376
0.551376
0.551421
0.551465
0.551509
0.551554
0.551554
0.551598
0.551643
0.551687
0.551732
0.551732
0.551776
0.551821
0.551865
0.55191
0.55191
0.551955
0.551999
0.552044
0.552089
0.552089
0.552133
0.552178
0.552223
0.552268
0.552268
0.552313
0.552357
0.552402
0.552447
0.552447
0.552492
0.552537
0.552582
0.552627
0.552627
0.552672
0.552717
0.552762
0.552808
0.552808
0.552853
0.552898
0.552943
0.552988
0.552988
0.553034
0.553079
0.553124
0.55317
0.55317
0.553215
0.55326
0.553306
0.553351
0.553351
0.553397
0.553442
0.553488
0.553533
0.553533
0.553579
0.553625
0.55367
0.553716
0.553716
0.553762
0.553807
0.553853
0.553899
0.553899
0.553945
0.553991
0.554036
0.554082
0.554082
0.554128
0.554174
0.55422
0.554266
0.554266
0.554312
0.554358
0.554404
0.55445
0.55445
0.554497
0.554543
0.554589
0.554635
0.554635
0.554681
0.554728
0.554774
0.55482
0.55482
0.554866
0.554913
0.554959
0.555006
0.555006
0.555052
0.555099
0.555145
0.555192
0.555192
0.555238
0.555285
0.555331
0.555378
0.555378
0.555425
0.555471
0.555518
0.555565
0.555565
0.555612
0.555658
0.555705
0.555752
0.555752
0.555799
0.555846
0.555893
0.55594
0.55594
0.555987
0.556034
0.556081
0.556128
0.556128
0.556175
0.556222
0.556269
0.556316
0.556316
0.556363
0.556411
0.556458
0.556505
0.556505
0.556552
0.5566
0.556647
0.556695
0.556695
0.556742
0.556789
0.556837
0.556884
0.556884
0.556932
0.556979
0.557027
0.557075
0.557075
0.557122
0.55717
0.557217
0.557265
0.557265
0.557313
0.557361
0.557408
0.557456
0.557456
0.557504
0.557552
0.5576
0.557648
0.557648
0.557696
0.557744
0.557792
0.55784
0.55784
0.557888
0.557936
0.557984
0.558032
0.558032
0.55808
0.558128
0.558177
0.558225
0.558225
0.558273
0.558321
0.55837
0.558418
0.558418
0.558466
0.558515
0.558563
0.558612
0.558612
0.55866
0.558709
0.558757
0.558806
0.558806
0.558854
0.558903
0.558952
0.559
0.559
0.559049
0.559098
0.559146
0.559195
0.559195
0.559244
0.559293
0.559342
0.559391
0.559391
0.559439
0.559488
0.559537
0.559586
0.559586
0.559635
0.559684
0.559733
0.559782
0.559782
0.559831
0.55988
0.559929
0.559977
0.559977
0.560025
0.560072
0.56012
0.560167
0.560167
0.560214
0.56026
0.560307
0.560354
0.560354
0.560401
0.560448
0.560495
0.560542
0.560542
0.560589
0.560636
0.560683
0.56073
0.56073
0.560777
0.560824
0.560871
0.560918
0.560918
0.560966
0.561013
0.56106
0.561107
0.561107
0.561154
0.561202
0.561249
0.561296
0.561296
0.561344
0.561391
0.561439
0.561486
0.561486
0.561534
0.561581
0.561629
0.561676
0.561676
0.561724
0.561771
0.561819
0.561867
0.561867
0.561914
0.561962
0.56201
0.562057
0.562057
0.562105
0.562153
0.562201
0.562249
0.562249
0.562296
0.562344
0.562392
0.56244
0.56244
0.562488
0.562536
0.562584
0.562632
0.562632
0.56268
0.562728
0.562777
0.562825
0.562825
0.562873
0.562921
0.562969
0.563017
0.563017
0.563066
0.563114
0.563162
0.563211
0.563211
0.563259
0.563307
0.563356
0.563404
0.563404
0.563453
0.563501
0.56355
0.563598
0.563598
0.563647
0.563696
0.563744
0.563793
0.563793
0.563841
0.56389
0.563939
0.563988
0.563988
0.564036
0.564085
0.564134
0.564183
0.564183
0.564232
0.564281
0.564329
0.564378
0.564378
0.564427
0.564476
0.564525
0.564574
0.564574
0.564623
0.564673
0.564722
0.564771
0.564771
0.56482
0.564869
0.564918
0.564968
0.564968
0.565017
0.565066
0.565115
0.565165
0.565165
0.565214
0.565263
0.565313
0.565362
0.565362
0.565412
0.565461
0.565511
0.56556
0.56556
0.56561
0.565659
0.565709
0.565759
0.565759
0.565808
0.565858
0.565908
0.565957
0.565957
0.566007
0.566057
0.566107
0.566157
0.566157
0.566206
0.566256
0.566306
0.566356
0.566356
0.566406
0.566456
0.566506
0.566556
0.566556
0.566606
0.566656
0.566706
0.566756
0.566756
0.566806
0.566857
0.566907
0.566957
0.566957
0.567007
0.567058
0.567108
0.567158
0.567158
0.567208
0.567259
0.567309
0.56736
0.56736
0.56741
0.56746
0.567511
0.567561
0.567561
0.567612
0.567663
0.567713
0.567764
0.567764
0.567814
0.567865
0.567916
0.567966
0.567966
0.568017
0.568068
0.568119
0.568169
0.568169
0.56822
0.568271
0.568322
0.568373
0.568373
0.568424
0.568475
0.568526
0.568577
0.568577
0.568628
0.568679
0.56873
0.568781
0.568781
0.568832
0.568883
0.568934
0.568985
0.568985
0.569037
0.569088
0.569139
0.56919
0.56919
0.569242
0.569293
0.569344
0.569396
0.569396
0.569447
0.569499
0.56955
0.569602
0.569602
0.569653
0.569705
0.569756
0.569808
0.569808
0.569859
0.569911
0.569963
0.570014
0.570014
0.570066
0.570118
0.570169
0.570221
0.570221
0.570273
0.570325
0.570376
0.570428
0.570428
0.57048
0.570532
0.570584
0.570636
0.570636
0.570688
0.57074
0.570792
0.570844
0.570844
0.570896
0.570948
0.571
0.571052
0.571052
0.571104
0.571156
0.571207
0.571259
0.571259
0.57131
0.571361
0.571411
0.571461
0.571461
0.571511
0.57156
0.57161
0.571659
0.571659
0.571708
0.571757
0.571806
0.571855
0.571855
0.571903
0.571952
0.572001
0.57205
0.57205
0.572099
0.572148
0.572197
0.572246
0.572246
0.572295
0.572344
0.572393
0.572442
0.572442
0.572492
0.572541
0.57259
0.572639
0.572639
0.572688
0.572737
0.572787
0.572836
0.572836
0.572885
0.572935
0.572984
0.573033
0.573033
0.573083
0.573132
0.573181
0.573231
0.573231
0.57328
0.57333
0.573379
0.573429
0.573429
0.573478
0.573528
0.573578
0.573627
0.573627
0.573677
0.573727
0.573776
0.573826
0.573826
0.573876
0.573925
0.573975
0.574025
0.574025
0.574075
0.574125
0.574174
0.574224
0.574224
0.574274
0.574324
0.574374
0.574424
0.574424
0.574474
0.574524
0.574574
0.574624
0.574624
0.574674
0.574724
0.574774
0.574824
0.574824
0.574875
0.574925
0.574975
0.575025
0.575025
0.575075
0.575126
0.575176
0.575226
0.575226
0.575277
0.575327
0.575377
0.575428
0.575428
0.575478
0.575528
0.575579
0.575629
0.575629
0.57568
0.57573
0.575781
0.575831
0.575831
0.575882
0.575933
0.575983
0.576034
0.576034
0.576085
0.576135
0.576186
0.576237
0.576237
0.576287
0.576338
0.576389
0.57644
0.57644
0.576491
0.576541
0.576592
0.576643
0.576643
0.576694
0.576745
0.576796
0.576847
0.576847
0.576898
0.576949
0.577
0.577051
0.577051
0.577102
0.577153
0.577204
0.577256
0.577256
0.577307
0.577358
0.577409
0.57746
0.57746
0.577512
0.577563
0.577614
0.577666
0.577666
0.577717
0.577768
0.57782
0.577871
0.577871
0.577922
0.577974
0.578025
0.578077
0.578077
0.578128
0.57818
0.578231
0.578283
0.578283
0.578334
0.578386
0.578438
0.578489
0.578489
0.578541
0.578593
0.578644
0.578696
0.578696
0.578748
0.5788
0.578851
0.578903
0.578903
0.578955
0.579007
0.579059
0.579111
0.579111
0.579163
0.579215
0.579267
0.579319
0.579319
0.579371
0.579423
0.579475
0.579527
0.579527
0.579579
0.579631
0.579683
0.579735
0.579735
0.579787
0.57984
0.579892
0.579944
0.579944
0.579996
0.580048
0.580101
0.580153
0.580153
0.580205
0.580258
0.58031
0.580362
0.580362
0.580415
0.580467
0.58052
0.580572
0.580572
0.580625
0.580677
0.58073
0.580782
0.580782
0.580835
0.580888
0.58094
0.580993
0.580993
0.581045
0.581098
0.581151
0.581203
0.581203
0.581256
0.581309
0.581361
0.581414
0.581414
0.581467
0.581519
0.581571
0.581624
0.581624
0.581676
0.581727
0.581779
0.58183
0.58183
0.581881
0.581931
0.581982
0.582032
0.582032
0.582081
0.582131
0.58218
0.582229
0.582229
0.582279
0.582328
0.582377
0.582426
0.582426
0.582475
0.582525
0.582574
0.582623
0.582623
0.582672
0.582721
0.58277
0.58282
0.58282
0.582869
0.582918
0.582967
0.583017
0.583017
0.583066
0.583115
0.583165
0.583214
0.583214
0.583263
0.583313
0.583362
0.583412
0.583412
0.583461
0.583511
0.58356
0.58361
0.58361
0.583659
0.583709
0.583758
0.583808
0.583808
0.583857
0.583907
0.583957
0.584006
0.584006
0.584056
0.584106
0.584155
0.584205
0.584205
0.584255
0.584305
0.584355
0.584404
0.584404
0.584454
0.584504
0.584554
0.584604
0.584604
0.584654
0.584704
0.584753
0.584803
0.584803
0.584853
0.584903
0.584953
0.585003
0.585003
0.585053
0.585103
0.585154
0.585204
0.585204
0.585254
0.585304
0.585354
0.585404
0.585404
0.585454
0.585505
0.585555
0.585605
0.585605
0.585655
0.585706
0.585756
0.585806
0.585806
0.585856
0.585907
0.585957
0.586007
0.586007
0.586058
0.586108
0.586159
0.586209
0.586209
0.58626
0.58631
0.586361
0.586411
0.586411
0.586462
0.586512
0.586563
0.586613
0.586613
0.586664
0.586715
0.586765
0.586816
0.586816
0.586867
0.586917
0.586968
0.587019
0.587019
0.58707
0.58712
0.587171
0.587222
0.587222
0.587273
0.587324
0.587374
0.587425
0.587425
0.587476
0.587527
0.587578
0.587629
0.587629
0.58768
0.587731
0.587782
0.587833
0.587833
0.587884
0.587935
0.587986
0.588037
0.588037
0.588088
0.588139
0.58819
0.588242
0.588242
0.588293
0.588344
0.588395
0.588446
0.588446
0.588498
0.588549
0.5886
0.588651
0.588651
0.588703
0.588754
0.588805
0.588857
0.588857
0.588908
0.58896
0.589011
0.589062
0.589062
0.589114
0.589165
0.589217
0.589268
0.589268
0.58932
0.589371
0.589423
0.589474
0.589474
0.589526
0.589578
0.589629
0.589681
0.589681
0.589733
0.589784
0.589836
0.589888
0.589888
0.589939
0.589991
0.590043
0.590095
0.590095
0.590146
0.590198
0.59025
0.590302
0.590302
0.590354
0.590406
0.590458
0.590509
0.590509
0.590561
0.590613
0.590665
0.590717
0.590717
0.590769
0.590821
0.590872
0.590924
0.590924
0.590975
0.591027
0.591078
0.591129
0.591129
0.59118
0.59123
0.591281
0.591331
0.591331
0.591381
0.59143
0.591479
0.591528
0.591528
0.591577
0.591626
0.591674
0.591723
0.591723
0.591771
0.591819
0.591868
0.591916
0.591916
0.591964
0.592012
0.592061
0.592109
0.592109
0.592157
0.592205
0.592253
0.592302
0.592302
0.59235
0.592398
0.592447
0.592495
0.592495
0.592543
0.592591
0.59264
0.592688
0.592688
0.592737
0.592785
0.592833
0.592882
0.592882
0.59293
0.592979
0.593027
0.593076
0.593076
0.593124
0.593173
0.593221
0.59327
0.59327
0.593318
0.593367
0.593415
0.593464
0.593464
0.593513
0.593561
0.59361
0.593659
0.593659
0.593707
0.593756
0.593805
0.593853
0.593853
0.593902
0.593951
0.594
0.594048
0.594048
0.594097
0.594146
0.594195
0.594244
0.594244
0.594293
0.594342
0.59439
0.594439
0.594439
0.594488
0.594537
0.594586
0.594635
0.594635
0.594684
0.594733
0.594782
0.594831
0.594831
0.59488
0.594929
0.594978
0.595027
0.595027
0.595076
0.595126
0.595175
0.595224
0.595224
0.595273
0.595322
0.595371
0.595421
0.595421
0.59547
0.595519
0.595568
0.595617
0.595617
0.595667
0.595716
0.595765
0.595815
0.595815
0.595864
0.595913
0.595963
0.596012
0.596012
0.596061
0.596111
0.59616
0.59621
0.59621
0.596259
0.596309
0.596358
0.596408
0.596408
0.596457
0.596507
0.596556
0.596606
0.596606
0.596655
0.596705
0.596755
0.596804
0.596804
0.596854
0.596903
0.596953
0.597003
0.597003
0.597052
0.597102
0.597152
0.597202
0.597202
0.597251
0.597301
0.597351
0.597401
0.597401
0.59745
0.5975
0.59755
0.5976
0.5976
0.59765
0.5977
0.597749
0.597799
0.597799
0.597849
0.597899
0.597949
0.597999
0.597999
0.598049
0.598099
0.598149
0.598199
0.598199
0.598249
0.598299
0.598349
0.598399
0.598399
0.598449
0.5985
0.59855
0.5986
0.5986
0.59865
0.5987
0.59875
0.5988
0.5988
0.598851
0.598901
0.598951
0.599001
0.599001
0.599051
0.599101
0.599152
0.599202
0.599202
0.599252
0.599302
0.599352
0.599401
0.599401
0.599451
0.599501