<?xml version="1.0"?>
<VTKFile type="UnstructuredGrid" version="0.1" byte_order="LittleEndian">
<UnstructuredGrid>
<Piece NumberOfPoints="5000" NumberOfCells="4000">
<PointData Scalars="Reaction 0">
<DataArray type="Float32" Name="Reaction 0" format="ascii">
0.727988
0.727988
0.727988
0.727988
0.727988
0.727988
0.727988
0.727988
0.727988
0.727988
0.727988
0.727988
0.727988
0.727988
0.727988
0.727988
0.727988
0.727988
0.727988
0.727988
0.727988
0.727988
0.727988
0.727988
0.727989
0.727989
0.727989
0.727989
0.727989
0.727989
0.727989
0.727989
0.727989
0.727989
0.727989
0.727989
0.727989
0.727989
0.727989
0.727989
0.727989
0.727989
0.727989
0.727989
0.727989
0.727989
0.727989
0.727989
0.727989
0.727989
0.727989
0.727989
0.727989
0.72799
0.72799
0.72799
0.72799
0.72799
0.72799
0.72799
0.72799
0.72799
0.72799
0.72799
0.72799
0.72799
0.72799
0.72799
0.72799
0.72799
0.72799
0.727991
0.727991
0.727991
0.727991
0.727991
0.727991
0.727991
0.727991
0.727991
0.727991
0.727991
0.727991
0.727991
0.727992
0.727992
0.727992
0.727992
0.727992
0.727992
0.727992
0.727992
0.727992
0.727992
0.727992
0.727992
0.727992
0.727993
0.727993
0.727993
0.727993
0.727993
0.727993
0.727993
0.727993
0.727993
0.727993
0.727994
0.727994
0.727994
0.727994
0.727994
0.727994
0.727994
0.727994
0.727994
0.727994
0.727995
0.727995
0.727995
0.727995
0.727995
0.727995
0.727995
0.727995
0.727995
0.727996
0.727996
0.727996
0.727996
0.727996
0.727996
0.727996
0.727996
0.727997
0.727997
0.727997
0.727997
0.727997
0.727997
0.727997
0.727997
0.727998
0.727998
0.727998
0.727998
0.727998
0.727998
0.727998
0.727999
0.727999
0.727999
0.727999
0.727999
0.727999
0.727999
0.727999
0.728
0.728
0.728
0.728
0.728
0.728
0.728001
0.728001
0.728001
0.728001
0.728001
0.728001
0.728001
0.728001
0.728002
0.728002
0.728002
0.728002
0.728002
0.728002
0.728003
0.728003
0.728003
0.728003
0.728003
0.728003
0.728004
0.728004
0.728004
0.728004
0.728004
0.728005
0.728005
0.728005
0.728005
0.728005
0.728005
0.728006
0.728006
0.728006
0.728006
0.728006
0.728007
0.728007
0.728007
0.728007
0.728007
0.728008
0.728008
0.728008
0.728008
0.728008
0.728008
0.728008
0.728009
0.728009
0.728009
0.728009
0.728009
0.72801
0.72801
0.72801
0.72801
0.72801
0.728011
0.728011
0.728011
0.728011
0.728011
0.728012
0.728012
0.728012
0.728013
0.728013
0.728013
0.728013
0.728013
0.728014
0.728014
0.728014
0.728014
0.728014
0.728015
0.728015
0.728015
0.728015
0.728016
0.728016
0.728016
0.728016
0.728016
0.728017
0.728017
0.728017
0.728017
0.728018
0.728018
0.728018
0.728018
0.728018
0.728019
0.728019
0.728019
0.728019
0.72802
0.72802
0.72802
0.728021
0.728021
0.728021
0.728021
0.728021
0.728022
0.728022
0.728022
0.728022
0.728023
0.728023
0.728023
0.728023
0.728024
0.728024
0.728024
0.728024
0.728025
0.728025
0.728025
0.728026
0.728026
0.728026
0.728026
0.728027
0.728027
0.728027
0.728027
0.728028
0.728028
0.728028
0.728028
0.728029
0.728029
0.728029
0.72803
0.72803
0.72803
0.72803
0.728031
0.728031
0.728031
0.728031
0.728032
0.728032
0.728032
0.728032
0.728033
0.728033
0.728034
0.728034
0.728034
0.728034
0.728035
0.728035
0.728035
0.728035
0.728036
0.728036
0.728037
0.728037
0.728037
0.728037
0.728038
0.728038
0.728038
0.728038
0.728039
0.728039
0.72804
0.72804
0.72804
0.72804
0.728041
0.728041
0.728042
0.728042
0.728042
0.728042
0.728043
0.728043
0.728043
0.728044
0.728044
0.728044
0.728045
0.728045
0.728045
0.728046
0.728046
0.728046
0.728046
0.728047
0.728047
0.728048
0.728048
0.728048
0.728048
0.728049
0.728049
0.72805
0.72805
0.72805
0.728051
0.728051
0.728051
0.728051
0.728052
0.728052
0.728053
0.728053
0.728053
0.728054
0.728054
0.728054
0.728055
0.728055
0.728055
0.728056
0.728056
0.728057
0.728057
0.728057
0.728058
0.728058
0.728059
0.728059
0.728059
0.728059
0.72806
0.72806
0.72806
0.728061
0.728061
0.728062
0.728062
0.728062
0.728063
0.728063
0.728064
0.728064
0.728064
0.728065
0.728065
0.728066
0.728066
0.728066
0.728066
0.728067
0.728067
0.728068
0.728068
0.728068
0.728069
0.728069
0.72807
0.72807
0.72807
0.728071
0.728071
0.728072
0.728072
0.728072
0.728073
0.728073
0.728074
0.728074
0.728074
0.728075
0.728075
0.728076
0.728076
0.728076
0.728077
0.728077
0.728078
0.728078
0.728078
0.728079
0.72808
0.72808
0.72808
0.728081
0.728081
0.728082
0.728082
0.728082
0.728083
0.728083
0.728084
0.728084
0.728084
0.728085
0.728085
0.728086
0.728086
0.728086
0.728087
0.728088
0.728088
0.728089
0.728089
0.728089
0.72809
0.72809
0.728091
0.728091
0.728091
0.728092
0.728092
0.728093
0.728093
0.728094
0.728094
0.728095
0.728095
0.728095
0.728096
0.728096
0.728097
0.728098
0.728098
0.728098
0.728099
0.728099
0.7281
0.7281
0.7281
0.728101
0.728102
0.728102
0.728102
0.728103
0.728103
0.728104
0.728105
0.728105
0.728105
0.728106
0.728106
0.728107
0.728107
0.728108
0.728108
0.728109
0.728109
0.728109
0.72811
0.728111
0.728111
0.728112
0.728112
0.728112
0.728113
0.728114
0.728114
0.728114
0.728115
0.728115
0.728116
0.728117
0.728117
0.728117
0.728118
0.728119
0.728119
0.728119
0.72812
0.72812
0.728121
0.728122
0.728122
0.728122
0.728123
0.728124
0.728124
0.728124
0.728125
0.728126
0.728126
0.728127
0.728127
0.728128
0.728128
0.728129
0.72813
0.72813
0.72813
0.728131
0.728131
0.728132
0.728132
0.728133
0.728133
0.728134
0.728135
0.728135
0.728135
0.728136
0.728137
0.728137
0.728137
0.728138
0.728139
0.72814
0.72814
0.72814
0.728141
0.728142
0.728142
0.728143
0.728143
0.728144
0.728144
0.728145
0.728146
0.728146
0.728146
0.728147
0.728148
0.728148
0.728148
0.728149
0.72815
0.728151
0.728151
0.728151
0.728152
0.728153
0.728153
0.728154
0.728154
0.728155
0.728156
0.728156
0.728157
0.728157
0.728158
0.728158
0.728159
0.72816
0.72816
0.728161
0.728161
0.728162
0.728163
0.728163
0.728164
0.728164
0.728165
0.728166
0.728166
0.728167
0.728167
0.728168
0.728169
0.728169
0.728169
0.72817
0.728171
0.728172
0.728172
0.728173
0.728173
0.728174
0.728175
0.728175
0.728176
0.728176
0.728177
0.728178
0.728178
0.728179
0.728179
0.72818
0.728181
0.728181
0.728182
0.728182
0.728183
0.728184
0.728184
0.728185
0.728186
0.728186
0.728187
0.728187
0.728188
0.728189
0.72819
0.72819
0.72819
0.728191
0.728192
0.728193
0.728193
0.728193
0.728194
0.728195
0.728196
0.728197
0.728197
0.728198
0.728198
0.728199
0.7282
0.7282
0.728201
0.728202
0.728202
0.728203
0.728203
0.728204
0.728205
0.728206
0.728207
0.728207
0.728207
0.728208
0.728209
0.72821
0.72821
0.728211
0.728212
0.728212
0.728213
0.728213
0.728214
0.728215
0.728216
0.728217
0.728217
0.728217
0.728218
0.728219
0.72822
0.72822
0.728221
0.728222
0.728223
0.728223
0.728223
0.728224
0.728225
0.728226
0.728227
0.728227
0.728228
0.728229
0.728229
0.72823
0.72823
0.728231
0.728232
0.728233
0.728234
0.728234
0.728235
0.728236
0.728237
0.728237
0.728237
0.728238
0.728239
0.72824
0.728241
0.728241
0.728242
0.728243
0.728244
0.728245
0.728245
0.728245
0.728246
0.728247
0.728248
0.728248
0.728249
0.72825
0.728251
0.728252
0.728252
0.728253
0.728254
0.728255
0.728256
0.728256
0.728256
0.728257
0.728258
0.728259
0.728259
0.72826
0.728261
0.728262
0.728263
0.728263
0.728264
0.728265
0.728266
0.728267
0.728267
0.728268
0.728269
0.72827
0.728271
0.728271
0.728272
0.728272
0.728273
0.728274
0.728274
0.728275
0.728276
0.728277
0.728278
0.728278
0.728279
0.72828
0.728281
0.728282
0.728282
0.728283
0.728284
0.728285
0.728286
0.728286
0.728287
0.728288
0.728289
0.72829
0.72829
0.728291
0.728292
0.728293
0.728294
0.728294
0.728295
0.728296
0.728297
0.728298
0.728298
0.728299
0.7283
0.728301
0.728302
0.728302
0.728303
0.728304
0.728305
0.728306
0.728306
0.728307
0.728308
0.728309
0.72831
0.72831
0.728311
0.728312
0.728313
0.728314
0.728314
0.728315
0.728316
0.728317
0.728318
0.728318
0.728319
0.72832
0.728321
0.728323
0.728323
0.728324
0.728325
0.728326
0.728327
0.728327
0.728328
0.728329
0.72833
0.728331
0.728331
0.728332
0.728333
0.728334
0.728335
0.728335
0.728336
0.728337
0.728338
0.72834
0.72834
0.728341
0.728342
0.728343
0.728344
0.728344
0.728345
0.728346
0.728347
0.728348
0.728348
0.728349
0.72835
0.728351
0.728353
0.728353
0.728354
0.728355
0.728356
0.728357
0.728357
0.728358
0.728359
0.72836
0.728361
0.728361
0.728363
0.728364
0.728365
0.728366
0.728366
0.728367
0.728368
0.728369
0.72837
0.72837
0.728372
0.728373
0.728374
0.728375
0.728375
0.728376
0.728377
0.728378
0.728379
0.728379
0.728381
0.728382
0.728383
0.728384
0.728384
0.728385
0.728386
0.728388
0.728389
0.728389
0.72839
0.728391
0.728392
0.728393
0.728393
0.728394
0.728396
0.728397
0.728398
0.728398
0.728399
0.7284
0.728402
0.728403
0.728403
0.728404
0.728405
0.728406
0.728407
0.728407
0.728409
0.72841
0.728411
0.728412
0.728412
0.728413
0.728415
0.728416
0.728417
0.728417
0.728418
0.728419
0.728421
0.728422
0.728422
0.728423
0.728424
0.728426
0.728427
0.728427
0.728428
0.728429
0.72843
0.728432
0.728432
0.728433
0.728434
0.728435
0.728437
0.728437
0.728438
0.728439
0.72844
0.728442
0.728442
0.728443
0.728444
0.728445
0.728447
0.728447
0.728448
0.728449
0.72845
0.728452
0.728452
0.728453
0.728454
0.728455
0.728457
0.728457
0.728458
0.728459
0.72846
0.728462
0.728462
0.728463
0.728464
0.728466
0.728467
0.728467
0.728468
0.728469
0.728471
0.728472
0.728472
0.728473
0.728475
0.728476
0.728477
0.728477
0.728478
0.72848
0.728481
0.728482
0.728482
0.728484
0.728485
0.728486
0.728488
0.728488
0.728489
0.72849
0.728492
0.728493
0.728493
0.728494
0.728496
0.728497
0.728498
0.728498
0.7285
0.728501
0.728502
0.728504
0.728504
0.728505
0.728506
0.728508
0.728509
0.728509
0.72851
0.728512
0.728513
0.728514
0.728514
0.728516
0.728517
0.728518
0.72852
0.72852
0.728521
0.728523
0.728524
0.728525
0.728525
0.728527
0.728528
0.728529
0.728531
0.728531
0.728532
0.728534
0.728535
0.728536
0.728536
0.728538
0.728539
0.728541
0.728542
0.728542
0.728543
0.728545
0.728546
0.728548
0.728548
0.728549
0.72855
0.728552
0.728553
0.728553
0.728555
0.728556
0.728557
0.728559
0.728559
0.72856
0.728561
0.728563
0.728564
0.728564
0.728566
0.728567
0.728568
0.72857
0.72857
0.728571
0.728573
0.728574
0.728575
0.728575
0.728577
0.728578
0.728579
0.728581
0.728581
0.728582
0.728583
0.728584
0.728586
0.728586
0.728587
0.728588
0.728589
0.728591
0.728591
0.728592
0.728593
0.728594
0.728596
0.728596
0.728597
0.728598
0.728599
0.7286
0.7286
0.728601
0.728603
0.728604
0.728605
0.728605
0.728606
0.728607
0.728608
0.728609
0.728609
0.72861
0.728612
0.728613
0.728614
0.728614
0.728615
0.728616
0.728617
0.728618
0.728618
0.728619
0.72862
0.728621
0.728622
0.728622
0.728623
0.728625
0.728626
0.728627
0.728627
0.728628
0.728629
0.72863
0.728631
0.728631
0.728632
0.728633
0.728634
0.728635
0.728635
0.728636
0.728638
0.728639
0.72864
0.72864
0.728641
0.728642
0.728643
0.728644
0.728644
0.728645
0.728646
0.728647
0.728648
0.728648
0.72865
0.728651
0.728652
0.728653
0.728653
0.728654
0.728655
0.728656
0.728657
0.728657
0.728658
0.72866
0.728661
0.728662
0.728662
0.728663
0.728664
0.728665
0.728666
0.728666
0.728667
0.728669
0.72867
0.728671
0.728671
0.728672
0.728673
0.728674
0.728675
0.728675
0.728677
0.728678
0.728679
0.72868
0.72868
0.728681
0.728682
0.728683
0.728685
0.728685
0.728686
0.728687
0.728688
0.728689
0.728689
0.72869
0.728692
0.728693
0.728694
0.728694
0.728695
0.728696
0.728697
0.728699
0.728699
0.7287
0.728701
0.728702
0.728703
0.728703
0.728704
0.728706
0.728707
0.728708
0.728708
0.728709
0.72871
0.728712
0.728713
0.728713
0.728714
0.728715
0.728716
0.728718
0.728718
0.728719
0.72872
0.728721
0.728723
0.728723
0.728724
0.728725
0.728726
0.728727
0.728727
0.728729
0.72873
0.728731
0.728732
0.728732
0.728733
0.728735
0.728736
0.728737
0.728737
0.728738
0.72874
0.728741
0.728742
0.728742
0.728743
0.728745
0.728746
0.728747
0.728747
0.728748
0.72875
0.728751
0.728752
0.728752
0.728753
0.728755
0.728756
0.728757
0.728757
0.728758
0.72876
0.728761
0.728762
0.728762
0.728764
0.728765
0.728766
0.728767
0.728767
0.728769
0.72877
0.728771
0.728773
0.728773
0.728774
0.728775
0.728776
0.728778
0.728778
0.728779
0.72878
0.728782
0.728783
0.728783
0.728784
0.728785
0.728787
0.728788
0.728788
0.728789
0.728791
0.728792
0.728793
0.728793
0.728795
0.728796
0.728797
0.728799
0.728799
0.7288
0.728801
0.728803
0.728804
0.728804
0.728805
0.728807
0.728808
0.728809
0.728809
0.728811
0.728812
0.728813
0.728815
0.728815
0.728816
0.728817
0.728819
0.72882
0.72882
0.728821
0.728823
0.728824
0.728826
0.728826
0.728827
0.728828
0.72883
0.728831
0.728831
0.728832
0.728834
0.728835
0.728837
0.728837
0.728838
0.728839
0.728841
0.728842
0.728842
0.728843
0.728845
0.728846
0.728848
0.728848
0.728849
0.72885
0.728852
0.728853
0.728853
0.728855
0.728856
0.728857
0.728859
0.728859
0.72886
0.728862
0.728863
0.728865
0.728865
0.728866
0.728867
0.728869
0.72887
0.72887
0.728872
0.728873
0.728875
0.728876
0.728876
0.728877
0.728879
0.72888
0.728882
0.728882
0.728883
0.728885
0.728886
0.728888
0.728888
0.728889
0.72889
0.728892
0.728893
0.728893
0.728895
0.728896
0.728898
0.728899
0.728899
0.728901
0.728902
0.728904
0.728905
0.728905
0.728907
0.728908
0.72891
0.728911
0.728911
0.728912
0.728914
0.728915
0.728917
0.728917
0.728918
0.72892
0.728921
0.728923
0.728923
0.728924
0.728926
0.728927
0.728929
0.728929
0.72893
0.728932
0.728934
0.728935
0.728935
0.728937
0.728938
0.72894
0.728941
0.728941
0.728943
0.728944
0.728946
0.728947
0.728947
0.728949
0.72895
0.728952
0.728953
0.728953
0.728955
0.728957
0.728958
0.72896
0.72896
0.728961
0.728963
0.728964
0.728966
0.728966
0.728967
0.728969
0.728971
0.728972
0.728972
0.728974
0.728975
0.728977
0.728978
0.728978
0.72898
0.728982
0.728983
0.728985
0.728985
0.728986
0.728988
0.72899
0.728991
0.728991
0.728993
0.728994
0.728996
0.728997
0.728997
0.728999
0.729001
0.729002
0.729004
0.729004
0.729006
0.729007
0.729009
0.72901
0.72901
0.729012
0.729014
0.729015
0.729017
0.729017
0.729019
0.72902
0.729022
0.729023
0.729023
0.729025
0.729027
0.729028
0.72903
0.72903
0.729032
0.729033
0.729035
0.729037
0.729037
0.729038
0.72904
0.729042
0.729043
0.729043
0.729045
0.729047
0.729048
0.72905
0.72905
0.729052
0.729053
0.729055
0.729057
0.729057
0.729058
0.72906
0.729062
0.729063
0.729063
0.729065
0.729067
0.729069
0.72907
0.72907
0.729072
0.729074
0.729075
0.729077
0.729077
0.729079
0.729081
0.729082
0.729084
0.729084
0.729086
0.729087
0.729089
0.729091
0.729091
0.729093
0.729094
0.729096
0.729098
0.729098
0.7291
0.729101
0.729103
0.729105
0.729105
0.729107
0.729108
0.72911
0.729112
0.729112
0.729114
0.729115
0.729117
0.729119
0.729119
0.729121
0.729122
0.729124
0.729126
0.729126
0.729128
0.729129
0.729131
0.729133
0.729133
0.729135
0.729136
0.729138
0.72914
0.72914
0.729142
0.729144
0.729145
0.729147
0.729147
0.729149
0.72915
0.729152
0.729154
0.729154
0.729156
0.729157
0.729159
0.729161
0.729161
0.729162
0.729164
0.729166
0.729167
0.729167
0.729169
0.729171
0.729172
0.729174
0.729174
0.729176
0.729177
0.729179
0.72918
0.72918
0.729182
0.729183
0.729185
0.729186
0.729186
0.729188
0.729189
0.729191
0.729192
0.729192
0.729194
0.729195
0.729197
0.729198
0.729198
0.7292
0.729201
0.729202
0.729204
0.729204
0.729205
0.729207
0.729208
0.729209
0.729209
0.729211
0.729212
0.729213
0.729215
0.729215
0.729216
0.729217
0.729219
0.72922
0.72922
0.729221
0.729223
0.729224
0.729225
0.729225
0.729227
0.729228
0.729229
0.729231
0.729231
0.729232
0.729233
0.729235
0.729236
0.729236
0.729237
0.729239
0.72924
0.729241
0.729241
0.729243
0.729244
0.729245
0.729247
0.729247
0.729248
0.729249
0.729251
0.729252
0.729252
0.729253
0.729255
0.729256
0.729257
0.729257
0.729259
0.72926
0.729262
0.729263
0.729263
0.729264
0.729266
0.729267
0.729268
0.729268
0.72927
0.729271
0.729273
0.729274
0.729274
0.729275
0.729277
0.729278
0.729279
0.729279
0.729281
0.729282
0.729284
0.729285
0.729285
0.729286
0.729288
0.729289
0.729291
0.729291
0.729292
0.729294
0.729295
0.729296
0.729296
0.729298
0.729299
0.729301
0.729302
0.729302
0.729304
0.729305
0.729306
0.729308
0.729308
0.729309
0.729311
0.729312
0.729314
0.729314
0.729315
0.729316
0.729318
0.729319
0.729319
0.729321
0.729322
0.729324
0.729325
0.729325
0.729327
0.729328
0.72933
0.729331
0.729331
0.729333
0.729334
0.729336
0.729337
0.729337
0.729338
0.72934
0.729341
0.729343
0.729343
0.729344
0.729346
0.729347
0.729349
0.729349
0.72935
0.729352
0.729353
0.729355
0.729355
0.729356
0.729358
0.729359
0.729361
0.729361
0.729363
0.729364
0.729366
0.729367
0.729367
0.729369
0.72937
0.729372
0.729373
0.729373
0.729375
0.729376
0.729378
0.729379
0.729379
0.729381
0.729382
0.729384
0.729386
0.729386
0.729387
0.729389
0.72939
0.729392
0.729392
0.729393
0.729395
0.729396
0.729398
0.729398
0.7294
0.729401
0.729403
0.729404
0.729404
0.729406
0.729408
0.729409
0.729411
0.729411
0.729412
0.729414
0.729415
0.729417
0.729417
0.729419
0.72942
0.729422
0.729424
0.729424
0.729425
0.729427
0.729428
0.72943
0.72943
0.729432
0.729433
0.729435
0.729436
0.729436
0.729438
0.72944
0.729441
0.729443
0.729443
0.729445
0.729446
0.729448
0.72945
0.72945
0.729451
0.729453
0.729455
0.729456
0.729456
0.729458
0.729459
0.729461
0.729463
0.729463
0.729464
0.729466
0.729468
0.729469
0.729469
0.729471
0.729473
0.729475
0.729476
0.729476
0.729478
0.72948
0.729481
0.729483
0.729483
0.729485
0.729486
0.729488
0.72949
0.72949
0.729491
0.729493
0.729495
0.729497
0.729497
0.729498
0.7295
0.729502
0.729503
0.729503
0.729505
0.729507
0.729509
0.72951
0.72951
0.729512
0.729514
0.729516
0.729517
0.729517
0.729519
0.729521
0.729523
0.729524
0.729524
0.729526
0.729528
0.72953
0.729531
0.729531
0.729533
0.729535
0.729537
0.729538
0.729538
0.72954
0.729542
0.729544
0.729546
0.729546
0.729547
0.729549
0.729551
0.729553
0.729553
0.729555
0.729556
0.729558
0.72956
0.72956
0.729562
0.729564
0.729565
0.729567
0.729567
0.729569
0.729571
0.729573
0.729574
0.729574
0.729576
0.729578
0.72958
0.729582
0.729582
0.729584
0.729585
0.729587
0.729589
0.729589
0.729591
0.729593
0.729595
0.729597
0.729597
0.729598
0.7296
0.729602
0.729604
0.729604
0.729606
0.729608
0.72961
0.729611
0.729611
0.729613
0.729615
0.729617
0.729619
0.729619
0.729621
0.729623
0.729625
0.729626
0.729626
0.729628
0.72963
0.729632
0.729634
0.729634
0.729636
0.729638
0.72964
0.729642
0.729642
0.729643
0.729645
0.729647
0.729649
0.729649
0.729651
0.729653
0.729655
0.729656
0.729656
0.729658
0.72966
0.729662
0.729664
0.729664
0.729665
0.729667
0.729669
0.729671
0.729671
0.729673
0.729674
0.729676
0.729678
0.729678
0.729679
0.729681
0.729683
0.729684
0.729684
0.729686
0.729688
0.729689
0.729691
0.729691
0.729693
0.729694
0.729696
0.729697
0.729697
0.729699
0.7297
0.729702
0.729703
0.729703
0.729705
0.729706
0.729708
0.729709
0.729709
0.729711
0.729712
0.729714
0.729715
0.729715
0.729717
0.729718
0.729719
0.729721
0.729721
0.729722
0.729724
0.729725
0.729727
0.729727
0.729728
0.729729
0.729731
0.729732
0.729732
0.729734
0.729735
0.729736
0.729738
0.729738
0.729739
0.729741
0.729742
0.729743
0.729743
0.729745
0.729746
0.729748
0.729749
0.729749
0.72975
0.729752
0.729753
0.729755
0.729755
0.729756
0.729758
0.729759
0.72976
0.72976
0.729762
0.729763
0.729765
0.729766
0.729766
0.729768
0.729769
0.729771
0.729772
0.729772
0.729773
0.729775
0.729776
0.729778
0.729778
0.729779
0.729781
0.729782
0.729784
0.729784
0.729785
0.729787
0.729788
0.72979
0.72979
0.729791
0.729793
0.729794
0.729796
0.729796
0.729797
0.729798
0.7298
0.729801
0.729801
0.729803
0.729804
0.729806
0.729808
0.729808
0.729809
0.729811
0.729812
0.729814
0.729814
0.729815
0.729817
0.729818
0.72982
0.72982
0.729821
0.729823
0.729824
0.729826
0.729826
0.729827
0.729829
0.72983
0.729832
0.729832
0.729834
0.729835
0.729837
0.729838
0.729838
0.72984
0.729841
0.729843
0.729845
0.729845
0.729846
0.729848
0.729849
0.729851
0.729851
0.729852
0.729854
0.729856
0.729857
0.729857
0.729859
0.72986
0.729862
0.729864
0.729864
0.729865
0.729867
0.729868
0.72987
0.72987
0.729872
0.729873
0.729875
0.729877
0.729877
0.729878
0.72988
0.729881
0.729883
0.729883
0.729885
0.729886
0.729888
0.72989
0.72989
0.729891
0.729893
0.729895
0.729896
0.729896
0.729898
0.7299
0.729901
0.729903
0.729903
0.729905
0.729906
0.729908
0.72991
0.72991
0.729911
0.729913
0.729915
0.729916
0.729916
0.729918
0.72992
0.729921
0.729923
0.729923
0.729925
0.729926
0.729928
0.72993
0.72993
0.729932
0.729933
0.729935
0.729937
0.729937
0.729938
0.72994
0.729942
0.729944
0.729944
0.729945
0.729947
0.729949
0.729951
0.729951
0.729952
0.729954
0.729956
0.729958
0.729958
0.729959
0.729961
0.729963
0.729965
0.729965
0.729966
0.729968
0.72997
0.729972
0.729972
0.729974
0.729975
0.729977
0.729979
0.729979
0.729981
0.729982
0.729984
0.729986
0.729986
0.729988
0.72999
0.729991
0.729993
0.729993
0.729995
0.729997
0.729999
0.730001
0.730001
0.730002
0.730004
0.730006
0.730008
0.730008
0.73001
0.730012
0.730013
0.730015
0.730015
0.730017
0.730019
0.730021
0.730023
0.730023
0.730024
0.730026
0.730028
0.73003
0.73003
0.730032
0.730034
0.730036
0.730038
0.730038
0.730039
0.730041
0.730043
0.730045
0.730045
0.730047
0.730049
0.730051
0.730053
0.730053
0.730055
0.730056
0.730058
0.73006
0.73006
0.730062
0.730064
0.730066
0.730068
0.730068
0.73007
0.730072
0.730074
0.730075
0.730075
0.730077
0.730079
0.730081
0.730083
0.730083
0.730085
0.730087
0.730089
0.73009
0.73009
0.730092
0.730094
0.730096
0.730098
0.730098
0.7301
0.730101
0.730103
0.730105
0.730105
0.730107
0.730108
0.73011
0.730112
0.730112
0.730113
0.730115
0.730117
0.730118
0.730118
0.73012
0.730122
0.730123
0.730125
0.730125
0.730127
0.730128
0.73013
0.730131
0.730131
0.730133
0.730135
0.730136
0.730138
0.730138
0.730139
0.730141
0.730142
0.730144
0.730144
0.730145
0.730146
0.730148
0.730149
0.730149
0.730151
0.730152
0.730154
0.730155
0.730155
0.730157
0.730158
0.730159
0.730161
0.730161
0.730162
0.730164
0.730165
0.730166
0.730166
0.730168
0.730169
0.730171
0.730172
0.730172
0.730173
0.730175
0.730176
0.730178
0.730178
0.730179
0.730181
0.730182
0.730183
0.730183
0.730185
0.730186
0.730188
0.730189
0.730189
0.730191
0.730192
0.730193
0.730195
0.730195
0.730196
0.730198
0.730199
0.730201
0.730201
0.730202
0.730204
0.730205
0.730207
0.730207
0.730208
0.730209
0.730211
0.730212
0.730212
0.730214
0.730215
0.730217
0.730218
0.730218
0.73022
0.730221
0.730223
0.730224
0.730224
0.730226
0.730227
0.730229
0.73023
0.73023
0.730232
0.730233
0.730235
0.730236
0.730236
0.730238
0.73024
0.730241
0.730243
0.730243
0.730244
0.730246
0.730247
0.730249
0.730249
0.73025
0.730252
0.730253
0.730255
0.730255
0.730257
0.730258
0.73026
0.730261
0.730261
0.730263
0.730264
0.730266
0.730268
0.730268
0.730269
0.730271
0.730272
0.730274
0.730274
0.730275
0.730277
0.730279
0.73028
0.73028
0.730282
0.730284
0.730285
0.730287
0.730287
0.730288
0.73029
0.730292
0.730293
0.730293
0.730295
0.730297
0.730298
0.7303
0.7303
0.730301
0.730303
0.730305
0.730306
0.730306
0.730308
0.73031
0.730311
0.730313
0.730313
0.730315
0.730316
0.730318
0.73032
0.73032
0.730321
0.730323
0.730325
0.730326
0.730326
0.730328
0.73033
0.730332
0.730333
0.730333
0.730335
0.730337
0.730338
0.73034
0.73034
0.730342
0.730344
0.730345
0.730347
0.730347
0.730349
0.73035
0.730352
0.730354
0.730354
0.730356
0.730357
0.730359
0.730361
0.730361
0.730363
0.730364
0.730366
0.730368
0.730368
0.73037
0.730371
0.730373
0.730375
0.730375
0.730377
0.730379
0.73038
0.730382
0.730382
0.730384
0.730386
0.730388
0.730389
0.730389
0.730391
0.730393
0.730395
0.730397
0.730397
0.730398
0.7304
0.730402
0.730404
0.730404
0.730406
0.730408
0.730409
0.730411
0.730411
0.730413
0.730415
0.730417
0.730419
0.730419
0.73042
0.730422
0.730424
0.730426
0.730426
0.730428
0.73043
0.730432
0.730433
0.730433
0.730435
0.730437
0.730439
0.730441
0.730441
0.730443
0.730445
0.730447
0.730448
0.730448
0.73045
0.730452
0.730454
0.730456
0.730456
0.730458
0.730459
0.730461
0.730463
0.730463
0.730465
0.730467
0.730469
0.73047
0.73047
0.730472
0.730474
0.730476
0.730477
0.730477
0.730479
0.730481
0.730483
0.730484
0.730484
0.730486
0.730488
0.730489
0.730491
0.730491
0.730493
0.730494
0.730496
0.730498
0.730498
0.730499
0.730501
0.730502
0.730504
0.730504
0.730506
0.730507
0.730509
0.73051
0.73051
0.730512
0.730513
0.730515
0.730516
0.730516
0.730518
0.730519
0.730521
0.730522
0.730522
0.730523
0.730525
0.730526
0.730528
0.730528
0.730529
0.730531
0.730532
0.730533
0.730533
0.730535
0.730536
0.730538
0.730539
0.730539
0.73054
0.730542
0.730543
0.730544
0.730544
0.730546
0.730547
0.730549
0.73055
0.73055
0.730551
0.730553
0.730554
0.730556
0.730556
0.730557
0.730558
0.73056
0.730561
0.730561
0.730563
0.730564
0.730566
0.730567
0.730567
0.730568
0.73057
0.730571
0.730573
0.730573
0.730574
0.730576
0.730577
0.730578
0.730578
0.73058
0.730581
0.730583
0.730584
0.730584
0.730586
0.730587
0.730589
0.73059
0.73059
0.730592
0.730593
0.730595
0.730596
0.730596
0.730598
0.730599
0.730601
0.730602
0.730602
0.730604
0.730605
0.730607
0.730608
0.730608
0.73061
0.730611
0.730613
0.730614
0.730614
0.730616
0.730617
0.730619
0.73062
0.73062
0.730622
0.730623
0.730625
0.730627
0.730627
0.730628
0.73063
0.730631
0.730633
0.730633
0.730634
0.730636
0.730638
0.730639
0.730639
0.730641
0.730642
0.730644
0.730645
0.730645
0.730647
0.730649
0.73065
0.730652
0.730652
0.730653
0.730655
0.730657
0.730658
0.730658
0.73066
0.730662
0.730663
0.730665
0.730665
0.730666
0.730668
0.73067
0.730671
0.730671
0.730673
0.730675
0.730676
0.730678
0.730678
0.73068
0.730681
0.730683
0.730685
0.730685
0.730686
0.730688
0.73069
0.730691
0.730691
0.730693
0.730695
0.730696
0.730698
0.730698
0.7307
0.730702
0.730703
0.730705
0.730705
0.730707
0.730708
0.73071
0.730712
0.730712
0.730714
0.730715
0.730717
0.730719
0.730719
0.730721
0.730722
0.730724
0.730726
0.730726
0.730728
0.730729
0.730731
0.730733
0.730733
0.730735
0.730736
0.730738
0.73074
0.73074
0.730742
0.730744
0.730745
0.730747
0.730747
0.730749
0.730751
0.730752
0.730754
0.730754
0.730756
0.730758
0.73076
0.730762
0.730762
0.730763
0.730765
0.730767
0.730769
0.730769
0.730771
0.730772
0.730774
0.730776
0.730776
0.730778
0.73078
0.730781
0.730783
0.730783
0.730785
0.730787
0.730789
0.73079
0.73079
0.730792
0.730794
0.730796
0.730798
0.730798
0.730799
0.730801
0.730803
0.730805
0.730805
0.730806
0.730808
0.73081
0.730811
0.730811
0.730813
0.730815
0.730816
0.730818
0.730818
0.73082
0.730821
0.730823
0.730824
0.730824
0.730826
0.730828
0.730829
0.730831
0.730831
0.730832
0.730834
0.730835
0.730837
0.730837
0.730838
0.73084
0.730841
0.730843
0.730843
0.730844
0.730846
0.730847
0.730849
0.730849
0.73085
0.730852
0.730853
0.730854
0.730854
0.730856
0.730857
0.730859
0.73086
0.73086
0.730861
0.730863
0.730864
0.730865
0.730865
0.730867
0.730868
0.730869
0.730871
0.730871
0.730872
0.730874
0.730875
0.730876
0.730876
0.730878
0.730879
0.73088
0.730882
0.730882
0.730883
0.730885
0.730886
0.730887
0.730887
0.730889
0.73089
0.730892
0.730893
0.730893
0.730894
0.730896
0.730897
0.730899
0.730899
0.7309
0.730901
0.730903
0.730904
0.730904
0.730906
0.730907
0.730909
0.73091
0.73091
0.730911
0.730913
0.730914
0.730916
0.730916
0.730917
0.730919
0.73092
0.730922
0.730922
0.730923
0.730925
0.730926
0.730928
0.730928
0.730929
0.730931
0.730932
0.730934
0.730934
0.730935
0.730937
0.730938
0.73094
0.73094
0.730941
0.730943
0.730944
0.730946
0.730946
0.730947
0.730949
0.73095
0.730952
0.730952
0.730953
0.730955
0.730956
0.730958
0.730958
0.73096
0.730961
0.730963
0.730964
0.730964
0.730966
0.730967
0.730969
0.730971
0.730971
0.730972
0.730974
0.730975
0.730977
0.730977
0.730979
0.73098
0.730982
0.730983
0.730983
0.730985
0.730987
0.730988
0.73099
0.73099
0.730991
0.730993
0.730995
0.730996
0.730996
0.730998
0.731
0.731001
0.731003
0.731003
0.731005
0.731006
0.731008
0.73101
0.73101
0.731011
0.731013
0.731015
0.731016
0.731016
0.731018
0.73102
0.731021
0.731023
0.731023
0.731025
0.731027
0.731028
0.73103
0.73103
0.731032
0.731033
0.731035
0.731037
0.731037
0.731039
0.73104
0.731042
0.731044
0.731044
0.731046
0.731047
0.731049
0.731051
0.731051
0.731053
0.731054
0.731056
0.731058
0.731058
0.73106
0.731061
0.731063
0.731065
0.731065
0.731067
0.731068
0.73107
0.731072
0.731072
0.731074
0.731075
0.731077
0.731079
0.731079
0.731081
0.731082
0.731084
0.731086
0.731086
0.731088
0.731089
0.731091
0.731093
0.731093
0.731095
0.731096
0.731098
0.7311
0.7311
0.731101
0.731103
0.731105
0.731106
0.731106
0.731108
0.731109
0.731111
0.731113
0.731113
0.731114
0.731116
0.731117
0.731119
0.731119
0.73112
0.731122
0.731123
0.731125
0.731125
0.731126
0.731128
0.731129
0.731131
0.731131
0.731132
0.731134
0.731135
0.731137
0.731137
0.731138
0.73114
0.731141
0.731142
0.731142
0.731144
0.731145
0.731147
0.731148
0.731148
0.731149
0.731151
0.731152
0.731153
0.731153
0.731155
0.731156
0.731158
0.731159
0.731159
0.73116
0.731162
0.731163
0.731164
0.731164
0.731166
0.731167
0.731168
0.73117
0.73117
0.731171
0.731172
0.731174
0.731175
0.731175
0.731177
0.731178
0.731179
0.731181
0.731181
0.731182
0.731183
0.731185
0.731186
0.731186
0.731188
0.731189
0.73119
0.731192
0.731192
0.731193
0.731195
0.731196
0.731197
0.731197
0.731199
0.7312
0.731202
0.731203
0.731203
0.731205
0.731206
0.731207
0.731209
0.731209
0.73121
0.731212
0.731213
0.731215
0.731215
0.731216
0.731218
0.731219
0.731221
0.731221
0.731222
0.731224
0.731225
0.731227
0.731227
0.731228
0.73123
0.731231
0.731233
0.731233
0.731234
0.731236
0.731237
0.731239
0.731239
0.73124
0.731242
0.731243
0.731245
0.731245
0.731246
0.731248
0.731249
0.731251
0.731251
0.731252
0.731254
0.731256
0.731257
0.731257
0.731259
0.73126
0.731262
0.731264
0.731264
0.731265
0.731267
0.731268
0.73127
0.73127
0.731271
0.731273
0.731275
0.731276
0.731276
0.731278
0.73128
0.731281
0.731283
0.731283
0.731284
0.731286
0.731288
0.731289
0.731289
0.731291
0.731293
0.731294
0.731296
0.731296
0.731298
0.731299
0.731301
0.731303
0.731303
0.731304
0.731306
0.731308
0.731309
0.731309
0.731311
0.731313
0.731315
0.731316
0.731316
0.731318
0.73132
0.731321
0.731323
0.731323
0.731325
0.731327
0.731328
0.73133
0.73133
0.731332
0.731333
0.731335
0.731337
0.731337
0.731339
0.73134
0.731342
0.731344
0.731344
0.731345
0.731347
0.731349
0.731351
0.731351
0.731352
0.731354
0.731356
0.731357
0.731357
0.731359
0.731361
0.731362
0.731364
0.731364
0.731365
0.731367
0.731369
0.73137
0.73137
0.731372
0.731373
0.731375
0.731377
0.731377
0.731378
0.73138