<?xml version="1.0"?>
<VTKFile type="UnstructuredGrid" version="0.1" byte_order="LittleEndian">
<UnstructuredGrid>
<Piece NumberOfPoints="5000" NumberOfCells="4000">
<PointData Scalars="Reaction 0">
<DataArray type="Float32" Name="Reaction 0" format="ascii">
0.562142
0.562142
0.562142
0.562142
0.562142
0.562142
0.562142
0.562142
0.562142
0.562142
0.562142
0.562142
0.562142
0.562142
0.562142
0.562142
0.562142
0.562142
0.562142
0.562142
0.562142
0.562142
0.562142
0.562142
0.562142
0.562142
0.562142
0.562142
0.562142
0.562142
0.562142
0.562142
0.562142
0.562142
0.562142
0.562142
0.562142
0.562142
0.562142
0.562142
0.562142
0.562142
0.562142
0.562142
0.562142
0.562142
0.562142
0.562142
0.562142
0.562142
0.562142
0.562142
0.562142
0.562142
0.562142
0.562142
0.562142
0.562142
0.562143
0.562143
0.562143
0.562143
0.562143
0.562143
0.562143
0.562143
0.562143
0.562143
0.562143
0.562143
0.562143
0.562143
0.562143
0.562143
0.562143
0.562143
0.562143
0.562143
0.562143
0.562143
0.562143
0.562143
0.562143
0.562143
0.562143
0.562143
0.562143
0.562143
0.562143
0.562143
0.562143
0.562143
0.562143
0.562143
0.562144
0.562144
0.562144
0.562144
0.562144
0.562144
0.562144
0.562144
0.562144
0.562144
0.562144
0.562144
0.562144
0.562144
0.562144
0.562144
0.562144
0.562144
0.562144
0.562144
0.562144
0.562144
0.562144
0.562144
0.562144
0.562144
0.562144
0.562145
0.562145
0.562145
0.562145
0.562145
0.562145
0.562145
0.562145
0.562145
0.562145
0.562145
0.562145
0.562145
0.562145
0.562145
0.562145
0.562145
0.562145
0.562145
0.562145
0.562145
0.562146
0.562146
0.562146
0.562146
0.562146
0.562146
0.562146
0.562146
0.562146
0.562146
0.562146
0.562146
0.562146
0.562146
0.562146
0.562146
0.562146
0.562146
0.562146
0.562147
0.562147
0.562147
0.562147
0.562147
0.562147
0.562147
0.562147
0.562147
0.562147
0.562147
0.562147
0.562147
0.562147
0.562147
0.562147
0.562148
0.562148
0.562148
0.562148
0.562148
0.562148
0.562148
0.562148
0.562148
0.562148
0.562148
0.562148
0.562148
0.562148
0.562148
0.562149
0.562149
0.562149
0.562149
0.562149
0.562149
0.562149
0.562149
0.562149
0.562149
0.562149
0.562149
0.562149
0.562149
0.562149
0.56215
0.56215
0.56215
0.56215
0.56215
0.56215
0.56215
0.56215
0.56215
0.56215
0.56215
0.56215
0.562151
0.562151
0.562151
0.562151
0.562151
0.562151
0.562151
0.562151
0.562151
0.562151
0.562151
0.562151
0.562151
0.562152
0.562152
0.562152
0.562152
0.562152
0.562152
0.562152
0.562152
0.562152
0.562152
0.562152
0.562152
0.562153
0.562153
0.562153
0.562153
0.562153
0.562153
0.562153
0.562153
0.562153
0.562153
0.562154
0.562154
0.562154
0.562154
0.562154
0.562154
0.562154
0.562154
0.562154
0.562154
0.562154
0.562154
0.562155
0.562155
0.562155
0.562155
0.562155
0.562155
0.562155
0.562155
0.562155
0.562155
0.562156
0.562156
0.562156
0.562156
0.562156
0.562156
0.562156
0.562156
0.562156
0.562156
0.562157
0.562157
0.562157
0.562157
0.562157
0.562157
0.562157
0.562157
0.562157
0.562157
0.562158
0.562158
0.562158
0.562158
0.562158
0.562158
0.562158
0.562158
0.562159
0.562159
0.562159
0.562159
0.562159
0.562159
0.562159
0.562159
0.562159
0.56216
0.56216
0.56216
0.56216
0.56216
0.56216
0.56216
0.56216
0.56216
0.562161
0.562161
0.562161
0.562161
0.562161
0.562161
0.562161
0.562161
0.562161
0.562162
0.562162
0.562162
0.562162
0.562162
0.562162
0.562162
0.562162
0.562163
0.562163
0.562163
0.562163
0.562163
0.562163
0.562163
0.562163
0.562164
0.562164
0.562164
0.562164
0.562164
0.562164
0.562164
0.562164
0.562164
0.562165
0.562165
0.562165
0.562165
0.562165
0.562165
0.562165
0.562166
0.562166
0.562166
0.562166
0.562166
0.562166
0.562166
0.562166
0.562167
0.562167
0.562167
0.562167
0.562167
0.562167
0.562167
0.562168
0.562168
0.562168
0.562168
0.562168
0.562168
0.562168
0.562168
0.562169
0.562169
0.562169
0.562169
0.562169
0.562169
0.56217
0.56217
0.56217
0.56217
0.56217
0.56217
0.56217
0.562171
0.562171
0.562171
0.562171
0.562171
0.562171
0.562171
0.562172
0.562172
0.562172
0.562172
0.562172
0.562172
0.562172
0.562173
0.562173
0.562173
0.562173
0.562173
0.562173
0.562174
0.562174
0.562174
0.562174
0.562174
0.562174
0.562174
0.562175
0.562175
0.562175
0.562175
0.562175
0.562175
0.562176
0.562176
0.562176
0.562176
0.562176
0.562176
0.562177
0.562177
0.562177
0.562177
0.562177
0.562177
0.562178
0.562178
0.562178
0.562178
0.562178
0.562178
0.562178
0.562179
0.562179
0.562179
0.562179
0.562179
0.562179
0.56218
0.56218
0.56218
0.56218
0.56218
0.56218
0.562181
0.562181
0.562181
0.562181
0.562181
0.562182
0.562182
0.562182
0.562182
0.562182
0.562182
0.562183
0.562183
0.562183
0.562183
0.562183
0.562183
0.562183
0.562184
0.562184
0.562184
0.562184
0.562184
0.562185
0.562185
0.562185
0.562185
0.562185
0.562185
0.562186
0.562186
0.562186
0.562186
0.562186
0.562187
0.562187
0.562187
0.562187
0.562187
0.562188
0.562188
0.562188
0.562188
0.562188
0.562188
0.562189
0.562189
0.562189
0.562189
0.562189
0.56219
0.56219
0.56219
0.56219
0.56219
0.562191
0.562191
0.562191
0.562191
0.562191
0.562192
0.562192
0.562192
0.562192
0.562192
0.562193
0.562193
0.562193
0.562193
0.562193
0.562194
0.562194
0.562194
0.562194
0.562194
0.562195
0.562195
0.562195
0.562195
0.562195
0.562196
0.562196
0.562196
0.562196
0.562196
0.562197
0.562197
0.562197
0.562197
0.562197
0.562198
0.562198
0.562198
0.562198
0.562198
0.562199
0.562199
0.562199
0.562199
0.562199
0.5622
0.5622
0.5622
0.5622
0.5622
0.562201
0.562201
0.562201
0.562201
0.562201
0.562202
0.562202
0.562202
0.562202
0.562203
0.562203
0.562203
0.562203
0.562203
0.562204
0.562204
0.562204
0.562204
0.562204
0.562205
0.562205
0.562205
0.562205
0.562206
0.562206
0.562206
0.562206
0.562206
0.562207
0.562207
0.562207
0.562207
0.562207
0.562208
0.562208
0.562208
0.562209
0.562209
0.562209
0.562209
0.562209
0.56221
0.56221
0.56221
0.56221
0.562211
0.562211
0.562211
0.562211
0.562211
0.562212
0.562212
0.562212
0.562212
0.562213
0.562213
0.562213
0.562213
0.562213
0.562214
0.562214
0.562214
0.562214
0.562215
0.562215
0.562215
0.562216
0.562216
0.562216
0.562216
0.562216
0.562217
0.562217
0.562217
0.562217
0.562218
0.562218
0.562218
0.562218
0.562219
0.562219
0.562219
0.562219
0.56222
0.56222
0.56222
0.56222
0.56222
0.562221
0.562221
0.562221
0.562222
0.562222
0.562222
0.562222
0.562223
0.562223
0.562223
0.562223
0.562224
0.562224
0.562224
0.562224
0.562225
0.562225
0.562225
0.562225
0.562225
0.562226
0.562226
0.562226
0.562227
0.562227
0.562227
0.562227
0.562228
0.562228
0.562228
0.562228
0.562229
0.562229
0.562229
0.562229
0.56223
0.56223
0.56223
0.562231
0.562231
0.562231
0.562231
0.562232
0.562232
0.562232
0.562232
0.562233
0.562233
0.562233
0.562233
0.562234
0.562234
0.562234
0.562235
0.562235
0.562235
0.562235
0.562236
0.562236
0.562236
0.562236
0.562237
0.562237
0.562237
0.562237
0.562238
0.562238
0.562238
0.562239
0.562239
0.562239
0.562239
0.56224
0.56224
0.56224
0.562241
0.562241
0.562241
0.562242
0.562242
0.562242
0.562242
0.562243
0.562243
0.562243
0.562243
0.562244
0.562244
0.562244
0.562244
0.562245
0.562245
0.562246
0.562246
0.562246
0.562246
0.562247
0.562247
0.562247
0.562247
0.562248
0.562248
0.562248
0.562249
0.562249
0.562249
0.56225
0.56225
0.56225
0.56225
0.562251
0.562251
0.562251
0.562252
0.562252
0.562252
0.562252
0.562253
0.562253
0.562253
0.562254
0.562254
0.562254
0.562255
0.562255
0.562255
0.562255
0.562256
0.562256
0.562256
0.562257
0.562257
0.562257
0.562258
0.562258
0.562258
0.562259
0.562259
0.562259
0.562259
0.56226
0.56226
0.56226
0.562261
0.562261
0.562261
0.562262
0.562262
0.562262
0.562262
0.562263
0.562263
0.562264
0.562264
0.562264
0.562264
0.562265
0.562265
0.562266
0.562266
0.562266
0.562266
0.562267
0.562267
0.562267
0.562268
0.562268
0.562268
0.562269
0.562269
0.562269
0.56227
0.56227
0.56227
0.56227
0.562271
0.562271
0.562272
0.562272
0.562272
0.562272
0.562273
0.562273
0.562274
0.562274
0.562274
0.562275
0.562275
0.562275
0.562275
0.562276
0.562276
0.562277
0.562277
0.562277
0.562277
0.562278
0.562278
0.562279
0.562279
0.562279
0.56228
0.56228
0.56228
0.56228
0.562281
0.562281
0.562282
0.562282
0.562282
0.562283
0.562283
0.562283
0.562284
0.562284
0.562284
0.562285
0.562285
0.562286
0.562286
0.562286
0.562286
0.562287
0.562287
0.562287
0.562288
0.562288
0.562289
0.562289
0.562289
0.562289
0.56229
0.56229
0.562291
0.562291
0.562291
0.562292
0.562292
0.562293
0.562293
0.562293
0.562293
0.562294
0.562294
0.562294
0.562295
0.562295
0.562296
0.562296
0.562296
0.562297
0.562297
0.562298
0.562298
0.562298
0.562298
0.562299
0.562299
0.5623
0.5623
0.5623
0.562301
0.562301
0.562302
0.562302
0.562302
0.562303
0.562303
0.562303
0.562303
0.562304
0.562304
0.562305
0.562305
0.562305
0.562306
0.562306
0.562307
0.562307
0.562307
0.562308
0.562308
0.562309
0.562309
0.562309
0.56231
0.56231
0.562311
0.562311
0.562311
0.562311
0.562312
0.562312
0.562313
0.562313
0.562313
0.562314
0.562314
0.562315
0.562315
0.562315
0.562316
0.562316
0.562317
0.562317
0.562317
0.562318
0.562318
0.562319
0.562319
0.562319
0.56232
0.56232
0.562321
0.562321
0.562321
0.562322
0.562322
0.562323
0.562323
0.562323
0.562324
0.562324
0.562325
0.562325
0.562325
0.562326
0.562326
0.562327
0.562327
0.562327
0.562328
0.562328
0.562329
0.562329
0.562329
0.56233
0.56233
0.562331
0.562331
0.562331
0.562332
0.562332
0.562333
0.562333
0.562333
0.562334
0.562334
0.562335
0.562335
0.562335
0.562336
0.562336
0.562337
0.562337
0.562337
0.562338
0.562338
0.562339
0.562339
0.562339
0.56234
0.562341
0.562341
0.562341
0.562342
0.562342
0.562343
0.562343
0.562343
0.562344
0.562344
0.562345
0.562345
0.562345
0.562346
0.562346
0.562347
0.562347
0.562347
0.562348
0.562349
0.562349
0.56235
0.56235
0.56235
0.562351
0.562351
0.562352
0.562352
0.562352
0.562353
0.562353
0.562354
0.562354
0.562355
0.562355
0.562356
0.562356
0.562356
0.562357
0.562357
0.562358
0.562358
0.562358
0.562359
0.562359
0.56236
0.562361
0.562361
0.562361
0.562362
0.562362
0.562363
0.562363
0.562363
0.562364
0.562364
0.562365
0.562365
0.562366
0.562366
0.562367
0.562367
0.562367
0.562368
0.562368
0.562369
0.56237
0.56237
0.56237
0.562371
0.562371
0.562372
0.562372
0.562372
0.562373
0.562374
0.562374
0.562374
0.562375
0.562375
0.562376
0.562377
0.562377
0.562377
0.562378
0.562378
0.562379
0.562379
0.562379
0.56238
0.562381
0.562381
0.562381
0.562382
0.562382
0.562383
0.562384
0.562384
0.562384
0.562385
0.562385
0.562386
0.562386
0.562387
0.562387
0.562388
0.562388
0.562388
0.562389
0.56239
0.56239
0.562391
0.562391
0.562391
0.562392
0.562393
0.562393
0.562393
0.562394
0.562394
0.562395
0.562396
0.562396
0.562396
0.562397
0.562397
0.562398
0.562398
0.562399
0.562399
0.5624
0.5624
0.5624
0.562401
0.562402
0.562402
0.562403
0.562403
0.562404
0.562404
0.562405
0.562405
0.562405
0.562406
0.562407
0.562407
0.562408
0.562408
0.562409
0.562409
0.56241
0.562411
0.562411
0.562411
0.562412
0.562412
0.562413
0.562413
0.562414
0.562414
0.562415
0.562416
0.562416
0.562416
0.562417
0.562418
0.562418
0.562418
0.562419
0.562419
0.56242
0.562421
0.562421
0.562421
0.562422
0.562423
0.562423
0.562423
0.562424
0.562425
0.562425
0.562426
0.562426
0.562427
0.562427
0.562428
0.562429
0.562429
0.562429
0.56243
0.562431
0.562431
0.562431
0.562432
0.562433
0.562433
0.562434
0.562434
0.562435
0.562435
0.562436
0.562437
0.562437
0.562437
0.562438
0.562439
0.562439
0.562439
0.56244
0.562441
0.562441
0.562442
0.562442
0.562443
0.562443
0.562444
0.562445
0.562445
0.562445
0.562446
0.562447
0.562448
0.562448
0.562448
0.562449
0.56245
0.56245
0.56245
0.562451
0.562452
0.562452
0.562453
0.562453
0.562454
0.562454
0.562455
0.562456
0.562456
0.562457
0.562457
0.562458
0.562459
0.562459
0.562459
0.56246
0.562461
0.562462
0.562462
0.562462
0.562463
0.562464
0.562464
0.562464
0.562465
0.562466
0.562467
0.562467
0.562467
0.562468
0.562469
0.562469
0.56247
0.56247
0.562471
0.562472
0.562472
0.562473
0.562473
0.562474
0.562474
0.562475
0.562476
0.562476
0.562477
0.562477
0.562478
0.562479
0.562479
0.56248
0.56248
0.562481
0.562482
0.562482
0.562482
0.562483
0.562484
0.562485
0.562485
0.562485
0.562486
0.562487
0.562488
0.562488
0.562488
0.562489
0.56249
0.562491
0.562491
0.562491
0.562492
0.562493
0.562494
0.562494
0.562494
0.562495
0.562496
0.562497
0.562497
0.562498
0.562498
0.562499
0.5625
0.5625
0.562501
0.562501
0.562502
0.562503
0.562503
0.562504
0.562504
0.562505
0.562506
0.562506
0.562507
0.562507
0.562508
0.562509
0.562509
0.56251
0.562511
0.562511
0.562512
0.562512
0.562513
0.562514
0.562515
0.562515
0.562515
0.562516
0.562517
0.562518
0.562518
0.562518
0.562519
0.56252
0.562521
0.562522
0.562522
0.562522
0.562523
0.562524
0.562525
0.562525
0.562526
0.562526
0.562527
0.562528
0.562528
0.562529
0.56253
0.562531
0.562531
0.562531
0.562532
0.562533
0.562534
0.562535
0.562535
0.562535
0.562536
0.562537
0.562538
0.562538
0.562539
0.562539
0.56254
0.562541
0.562541
0.562542
0.562543
0.562544
0.562544
0.562544
0.562545
0.562546
0.562547
0.562548
0.562548
0.562549
0.562549
0.56255
0.562551
0.562551
0.562552
0.562553
0.562554
0.562554
0.562554
0.562555
0.562556
0.562557
0.562558
0.562558
0.562559
0.56256
0.56256
0.562561
0.562561
0.562562
0.562563
0.562564
0.562565
0.562565
0.562566
0.562566
0.562567
0.562568
0.562568
0.562569
0.56257
0.562571
0.562572
0.562572
0.562572
0.562573
0.562574
0.562575
0.562575
0.562576
0.562577
0.562578
0.562579
0.562579
0.562579
0.56258
0.562581
0.562582
0.562582
0.562583
0.562584
0.562585
0.562586
0.562586
0.562587
0.562587
0.562588
0.562589
0.562589
0.56259
0.562591
0.562592
0.562593
0.562593
0.562594
0.562595
0.562595
0.562596
0.562596
0.562597
0.562598
0.562599
0.5626
0.5626
0.562601
0.562602
0.562603
0.562604
0.562604
0.562604
0.562605
0.562606
0.562607
0.562607
0.562608
0.562609
0.56261
0.562611
0.562611
0.562612
0.562613
0.562614
0.562615
0.562615
0.562616
0.562617
0.562617
0.562618
0.562618
0.562619
0.56262
0.562621
0.562622
0.562622
0.562623
0.562624
0.562625
0.562626
0.562626
0.562627
0.562628
0.562629
0.56263
0.56263
0.562631
0.562632
0.562633
0.562633
0.562633
0.562634
0.562635
0.562636
0.562637
0.562637
0.562638
0.562639
0.56264
0.562641
0.562641
0.562642
0.562643
0.562644
0.562645
0.562645
0.562646
0.562647
0.562648
0.562649
0.562649
0.56265
0.562651
0.562652
0.562653
0.562653
0.562654
0.562655
0.562656
0.562657
0.562657
0.562658
0.562659
0.56266
0.562661
0.562661
0.562662
0.562663
0.562664
0.562665
0.562665
0.562666
0.562667
0.562668
0.562669
0.562669
0.56267
0.562671
0.562672
0.562673
0.562673
0.562674
0.562675
0.562676
0.562677
0.562677
0.562678
0.562679
0.56268
0.562681
0.562681
0.562682
0.562683
0.562684
0.562685
0.562685
0.562686
0.562687
0.562688
0.562689
0.562689
0.56269
0.562691
0.562692
0.562693
0.562693
0.562694
0.562695
0.562696
0.562698
0.562698
0.562699
0.5627
0.562701
0.562702
0.562702
0.562703
0.562704
0.562705
0.562706
0.562706
0.562707
0.562708
0.562709
0.56271
0.56271
0.562711
0.562712
0.562713
0.562714
0.562714
0.562716
0.562717
0.562718
0.562719
0.562719
0.56272
0.562721
0.562722
0.562723
0.562723
0.562724
0.562725
0.562726
0.562727
0.562727
0.562729
0.56273
0.562731
0.562732
0.562732
0.562733
0.562734
0.562735
0.562736
0.562736
0.562737
0.562738
0.562739
0.562741
0.562741
0.562742
0.562743
0.562744
0.562745
0.562745
0.562746
0.562747
0.562748
0.56275
0.56275
0.562751
0.562752
0.562753
0.562754
0.562754
0.562755
0.562756
0.562757
0.562759
0.562759
0.56276
0.562761
0.562762
0.562763
0.562763
0.562764
0.562765
0.562766
0.562768
0.562768
0.562769
0.56277
0.562771
0.562772
0.562772
0.562773
0.562774
0.562776
0.562777
0.562777
0.562778
0.562779
0.56278
0.562781
0.562781
0.562783
0.562784
0.562785
0.562786
0.562786
0.562787
0.562789
0.56279
0.562791
0.562791
0.562792
0.562793
0.562794
0.562796
0.562796
0.562797
0.562798
0.562799
0.5628
0.5628
0.562802
0.562803
0.562804
0.562805
0.562805
0.562806
0.562807
0.562809
0.56281
0.56281
0.562811
0.562812
0.562813
0.562815
0.562815
0.562816
0.562817
0.562818
0.56282
0.56282
0.562821
0.562822
0.562823
0.562825
0.562825
0.562826
0.562827
0.562828
0.562829
0.562829
0.562831
0.562832
0.562833
0.562834
0.562834
0.562836
0.562837
0.562838
0.562839
0.562839
0.562841
0.562842
0.562843
0.562844
0.562844
0.562846
0.562847
0.562848
0.562849
0.562849
0.562851
0.562852
0.562853
0.562854
0.562854
0.562856
0.562857
0.562858
0.56286
0.56286
0.562861
0.562862
0.562863
0.562865
0.562865
0.562866
0.562867
0.562869
0.56287
0.56287
0.562871
0.562872
0.562874
0.562875
0.562875
0.562876
0.562878
0.562879
0.56288
0.56288
0.562881
0.562883
0.562884
0.562885
0.562885
0.562887
0.562888
0.562889
0.562891
0.562891
0.562892
0.562893
0.562895
0.562896
0.562896
0.562897
0.562899
0.5629
0.562901
0.562901
0.562903
0.562904
0.562905
0.562907
0.562907
0.562908
0.562909
0.562911
0.562912
0.562912
0.562913
0.562915
0.562916
0.562917
0.562917
0.562919
0.56292
0.562922
0.562923
0.562923
0.562924
0.562926
0.562927
0.562928
0.562928
0.56293
0.562931
0.562933
0.562934
0.562934
0.562935
0.562937
0.562938
0.562939
0.562939
0.562941
0.562942
0.562944
0.562945
0.562945
0.562946
0.562948
0.562949
0.562951
0.562951
0.562952
0.562953
0.562955
0.562956
0.562956
0.562958
0.562959
0.56296
0.562962
0.562962
0.562963
0.562965
0.562966
0.562968
0.562968
0.562969
0.56297
0.562972
0.562973
0.562973
0.562975
0.562976
0.562978
0.562979
0.562979
0.562981
0.562982
0.562984
0.562985
0.562985
0.562986
0.562988
0.562989
0.562991
0.562991
0.562992
0.562994
0.562995
0.562997
0.562997
0.562998
0.563
0.563001
0.563003
0.563003
0.563004
0.563006
0.563007
0.563008
0.563008
0.56301
0.563012
0.563013
0.563015
0.563015
0.563016
0.563018
0.563019
0.563021
0.563021
0.563022
0.563024
0.563025
0.563027
0.563027
0.563028
0.56303
0.563031
0.563033
0.563033
0.563034
0.563036
0.563037
0.563039
0.563039
0.56304
0.563042
0.563043
0.563045
0.563045
0.563046
0.563048
0.56305
0.563051
0.563051
0.563053
0.563054
0.563056
0.563057
0.563057
0.563059
0.56306
0.563062
0.563064
0.563064
0.563065
0.563067
0.563068
0.56307
0.56307
0.563072
0.563073
0.563075
0.563076
0.563076
0.563078
0.563079
0.563081
0.563083
0.563083
0.563084
0.563086
0.563087
0.563089
0.563089
0.563091
0.563092
0.563094
0.563095
0.563095
0.563097
0.563099
0.5631
0.563102
0.563102
0.563104
0.563105
0.563107
0.563109
0.563109
0.56311
0.563112
0.563113
0.563115
0.563115
0.563117
0.563118
0.56312
0.563122
0.563122
0.563123
0.563125
0.563127
0.563128
0.563128
0.56313
0.563132
0.563133
0.563135
0.563135
0.563137
0.563138
0.56314
0.563142
0.563142
0.563143
0.563145
0.563147
0.563148
0.563148
0.56315
0.563152
0.563154
0.563155
0.563155
0.563157
0.563159
0.56316
0.563162
0.563162
0.563164
0.563166
0.563167
0.563169
0.563169
0.563171
0.563172
0.563174
0.563176
0.563176
0.563178
0.563179
0.563181
0.563183
0.563183
0.563185
0.563186
0.563188
0.56319
0.56319
0.563192
0.563193
0.563195
0.563197
0.563197
0.563199
0.5632
0.563202
0.563204
0.563204
0.563206
0.563208
0.563209
0.563211
0.563211
0.563213
0.563215
0.563216
0.563218
0.563218
0.56322
0.563222
0.563224
0.563225
0.563225
0.563227
0.563229
0.563231
0.563233
0.563233
0.563235
0.563236
0.563238
0.56324
0.56324
0.563242
0.563244
0.563246
0.563247
0.563247
0.563249
0.563251
0.563253
0.563255
0.563255
0.563257
0.563258
0.56326
0.563262
0.563262
0.563264
0.563266
0.563268
0.56327
0.56327
0.563272
0.563273
0.563275
0.563277
0.563277
0.563279
0.563281
0.563283
0.563285
0.563285
0.563287
0.563289
0.563291
0.563292
0.563292
0.563294
0.563296
0.563298
0.5633
0.5633
0.563302
0.563304
0.563306
0.563308
0.563308
0.56331
0.563312
0.563314
0.563315
0.563315
0.563317
0.563319
0.563321
0.563323
0.563323
0.563325
0.563327
0.563329
0.563331
0.563331
0.563333
0.563335
0.563337
0.563339
0.563339
0.563341
0.563343
0.563345
0.563347
0.563347
0.563349
0.563351
0.563353
0.563355
0.563355
0.563357
0.563359
0.563361
0.563363
0.563363
0.563365
0.563367
0.563369
0.563371
0.563371
0.563373
0.563375
0.563377
0.563379
0.563379
0.563381
0.563383
0.563385
0.563388
0.563388
0.56339
0.563392
0.563394
0.563396
0.563396
0.563398
0.5634
0.563402
0.563404
0.563404
0.563406
0.563408
0.56341
0.563412
0.563412
0.563414
0.563417
0.563419
0.563421
0.563421
0.563423
0.563425
0.563427
0.563429
0.563429
0.563431
0.563433
0.563436
0.563438
0.563438
0.56344
0.563442
0.563444
0.563446
0.563446
0.563448
0.563451
0.563453
0.563455
0.563455
0.563457
0.563459
0.563461
0.563463
0.563463
0.563466
0.563468
0.56347
0.563472
0.563472
0.563474
0.563477
0.563479
0.563481
0.563481
0.563483
0.563485
0.563488
0.56349
0.56349
0.563492
0.563494
0.563496
0.563499
0.563499
0.563501
0.563503
0.563505
0.563508
0.563508
0.56351
0.563512
0.563514
0.563517
0.563517
0.563519
0.563521
0.563523
0.563526
0.563526
0.563528
0.56353
0.563532
0.563535
0.563535
0.563537
0.563539
0.563542
0.563544
0.563544
0.563546
0.563549
0.563551
0.563553
0.563553
0.563555
0.563558
0.56356
0.563562
0.563562
0.563565
0.563567
0.563569
0.563572
0.563572
0.563574
0.563576
0.563579
0.563581
0.563581
0.563583
0.563586
0.563588
0.563591
0.563591
0.563593
0.563595
0.563598
0.5636
0.5636
0.563603
0.563605
0.563607
0.56361
0.56361
0.563612
0.563614
0.563617
0.563619
0.563619
0.563622
0.563624
0.563627
0.563629
0.563629
0.563631
0.563634
0.563636
0.563639
0.563639
0.563641
0.563644
0.563646
0.563649
0.563649
0.563651
0.563654
0.563656
0.563658
0.563658
0.563661
0.563663
0.563666
0.563668
0.563668
0.563671
0.563673
0.563676
0.563678
0.563678
0.563681
0.563683
0.563686
0.563688
0.563688
0.563691
0.563694
0.563696
0.563699
0.563699
0.563701
0.563704
0.563706
0.563709
0.563709
0.563711
0.563714
0.563717
0.563719
0.563719
0.563722
0.563724
0.563727
0.563729
0.563729
0.563732
0.563735
0.563737
0.56374
0.56374
0.563742
0.563745
0.563748
0.56375
0.56375
0.563753
0.563756
0.563758
0.563761
0.563761
0.563763
0.563766
0.563769
0.563771
0.563771
0.563774
0.563777
0.563779
0.563782
0.563782
0.563785
0.563787
0.56379
0.563793
0.563793
0.563795
0.563798
0.563801
0.563804
0.563804
0.563806
0.563809
0.563812
0.563815
0.563815
0.563817
0.56382
0.563823
0.563825
0.563825
0.563828
0.563831
0.563834
0.563837
0.563837
0.563839
0.563842
0.563845
0.563848
0.563848
0.56385
0.563853
0.563856
0.563859
0.563859
0.563862
0.563864
0.563867
0.56387
0.56387
0.563873
0.563876
0.563879
0.563881
0.563881
0.563884
0.563887
0.56389
0.563893
0.563893
0.563896
0.563898
0.563901
0.563904
0.563904
0.563907
0.56391
0.563913
0.563916
0.563916
0.563919
0.563921
0.563924
0.563927
0.563927
0.56393
0.563933
0.563936
0.563939
0.563939
0.563942
0.563945
0.563948
0.563951
0.563951
0.563954
0.563957
0.56396
0.563963
0.563963
0.563966
0.563969
0.563972
0.563975
0.563975
0.563978
0.563981
0.563984
0.563987
0.563987
0.56399
0.563993
0.563996
0.563999
0.563999
0.564002
0.564005
0.564008
0.564011
0.564011
0.564014
0.564017
0.56402
0.564023
0.564023
0.564026
0.564029
0.564032
0.564036
0.564036
0.564039
0.564042
0.564045
0.564048
0.564048
0.564051
0.564054
0.564057
0.56406
0.56406
0.564064
0.564067
0.56407
0.564073
0.564073
0.564076
0.564079
0.564083
0.564086
0.564086
0.564089
0.564092
0.564095
0.564099
0.564099
0.564102
0.564105
0.564108
0.564111
0.564111
0.564115
0.564118
0.564121
0.564124
0.564124
0.564128
0.564131
0.564134
0.564137
0.564137
0.564141
0.564144
0.564147
0.56415
0.56415
0.564154
0.564157
0.56416
0.564164
0.564164
0.564167
0.56417
0.564174
0.564177
0.564177
0.56418
0.564184
0.564187
0.56419
0.56419
0.564194
0.564197
0.5642
0.564204
0.564204
0.564207
0.564211
0.564214
0.564217
0.564217
0.564221
0.564224
0.564228
0.564231
0.564231
0.564235
0.564238
0.564241
0.564245
0.564245
0.564248
0.564252
0.564255
0.564259
0.564259
0.564262
0.564266
0.564269
0.564273
0.564273
0.564276
0.56428
0.564283
0.564287
0.564287
0.56429
0.564294
0.564297
0.564301
0.564301
0.564304
0.564308
0.564312
0.564315
0.564315
0.564319
0.564322
0.564326
0.564329
0.564329
0.564333
0.564337
0.56434
0.564344
0.564344
0.564348
0.564351
0.564355
0.564359
0.564359
0.564362
0.564366
0.56437
0.564373
0.564373
0.564377
0.564381
0.564384
0.564388
0.564388
0.564392
0.564395
0.564399
0.564403
0.564403
0.564406
0.56441
0.564414
0.564418
0.564418
0.564422
0.564425
0.564429
0.564433
0.564433
0.564437
0.56444
0.564444
0.564448
0.564448
0.564452
0.564456
0.56446
0.564463
0.564463
0.564467
0.564471
0.564475
0.564479
0.564479
0.564483
0.564486
0.56449
0.564494
0.564494
0.564498
0.564502
0.564506
0.56451
0.56451
0.564514
0.564518
0.564522
0.564526
0.564526
0.56453
0.564534
0.564537
0.564541
0.564541
0.564545
0.564549
0.564553
0.564557
0.564557
0.564561
0.564565
0.564569
0.564573
0.564573
0.564578
0.564582
0.564586
0.56459
0.56459
0.564594
0.564598
0.564602
0.564606
0.564606
0.56461
0.564614
0.564618
0.564622
0.564622
0.564627
0.564631
0.564635
0.564639
0.564639
0.564643
0.564647
0.564651
0.564656
0.564656
0.56466
0.564664
0.564668
0.564673
0.564673
0.564677
0.564681
0.564685
0.564689
0.564689
0.564694
0.564698
0.564702
0.564706
0.564706
0.564711
0.564715
0.564719
0.564724
0.564724
0.564728
0.564732
0.564737
0.564741
0.564741
0.564745
0.56475
0.564754
0.564758
0.564758
0.564763
0.564767
0.564771
0.564776
0.564776
0.56478
0.564785
0.564789
0.564794
0.564794
0.564798
0.564802
0.564807
0.564811
0.564811
0.564816
0.56482
0.564825
0.564829
0.564829
0.564834
0.564838
0.564843
0.564847
0.564847
0.564852
0.564856
0.564861
0.564866
0.564866
0.56487
0.564875
0.564879
0.564884
0.564884
0.564889
0.564893
0.564898
0.564902
0.564902
0.564907
0.564912
0.564916
0.564921
0.564921
0.564926
0.56493
0.564935
0.56494
0.56494
0.564945
0.564949
0.564954
0.564959
0.564959
0.564963
0.564968
0.564973
0.564978
0.564978
0.564983
0.564987
0.564992
0.564997
0.564997
0.565002
0.565007
0.565011
0.565016
0.565016
0.565021
0.565026
0.565031
0.565036
0.565036
0.565041
0.565046
0.565051
0.565055
0.565055
0.56506
0.565065
0.56507
0.565075
0.565075
0.56508
0.565085
0.56509
0.565095
0.565095
0.5651
0.565105
0.56511
0.565115
0.565115
0.56512
0.565125
0.56513
0.565136
0.565136
0.565141
0.565146
0.565151
0.565156
0.565156
0.565161
0.565166
0.565171
0.565176
0.565176
0.565182
0.565187
0.565192
0.565197
0.565197
0.565202
0.565208
0.565213
0.565218
0.565218
0.565223
0.565229
0.565234
0.565239
0.565239
0.565244
0.56525
0.565255
0.56526
0.56526
0.565266
0.565271
0.565276
0.565282
0.565282
0.565287
0.565292
0.565298
0.565303
0.565303
0.565309
0.565314
0.565319
0.565325
0.565325
0.56533
0.565336
0.565341
0.565347
0.565347
0.565352
0.565358
0.565363
0.565369
0.565369
0.565374
0.56538
0.565385
0.565391
0.565391
0.565397
0.565402
0.565408
0.565413
0.565413
0.565419
0.565425
0.56543
0.565436
0.565436
0.565442
0.565447
0.565453
0.565459
0.565459
0.565464
0.56547
0.565476
0.565482
0.565482
0.565487
0.565493
0.565499
0.565505
0.565505
0.565511
0.565516
0.565522
0.565528
0.565528
0.565534
0.56554
0.565546
0.565552
0.565552
0.565557
0.565563
0.565569
0.565575
0.565575
0.565581
0.565587
0.565593
0.565599
0.565599
0.565605
0.565611
0.565617
0.565623
0.565623
0.565629
0.565635
0.565641
0.565647
0.565647
0.565653
0.56566
0.565666
0.565672
0.565672
0.565678
0.565684
0.56569
0.565696
0.565696
0.565703
0.565709
0.565715
0.565721
0.565721
0.565727
0.565734
0.56574
0.565746
0.565746
0.565753
0.565759
0.565765
0.565771
0.565771
0.565778
0.565784
0.565791
0.565797
0.565797
0.565803
0.56581
0.565816
0.565823
0.565823
0.565829
0.565836
0.565842
0.565848
0.565848
0.565855
0.565861
0.565868
0.565875
0.565875
0.565881
0.565888
0.565894
0.565901
0.565901
0.565907
0.565914
0.565921
0.565927
0.565927
0.565934
0.565941
0.565947
0.565954
0.565954
0.565961
0.565968
0.565974
0.565981
0.565981
0.565988
0.565995
0.566001
0.566008
0.566008
0.566015
0.566022
0.566029
0.566036
0.566036
0.566042
0.566049
0.566056
0.566063
0.566063
0.56607
0.566077
0.566084
0.566091
0.566091
0.566098
0.566105
0.566112
0.566119
0.566119
0.566126
0.566133
0.56614
0.566147
0.566147
0.566155
0.566162
0.566169
0.566176
0.566176
0.566183
0.56619
0.566198
0.566205
0.566205
0.566212
0.566219
0.566227
0.566234
0.566234
0.566241
0.566248
0.566256
0.566263
0.566263
0.56627
0.566278
0.566285
0.566293
0.566293
0.5663
0.566308
0.566315
0.566322
0.566322
0.56633
0.566337
0.566345
0.566353
0.566353
0.56636
0.566368
0.566375
0.566383
0.566383
0.56639
0.566398
0.566406
0.566413
0.566413
0.566421
0.566429
0.566436
0.566444
0.566444
0.566452
0.56646
0.566467
0.566475
0.566475
0.566483
0.566491
0.566499
0.566507
0.566507
0.566514
0.566522
0.56653
0.566538
0.566538
0.566546
0.566554
0.566562
0.56657
0.56657
0.566578
0.566586
0.566594
0.566602
0.566602
0.56661
0.566618
0.566627
0.566635
0.566635
0.566643
0.566651
0.566659
0.566667
0.566667
0.566676
0.566684
0.566692
0.5667
0.5667
0.566709
0.566717
0.566725
0.566734
0.566734
0.566742
0.56675
0.566759
0.566767
0.566767
0.566776
0.566784
0.566793
0.566801
0.566801
0.56681
0.566818
0.566827
0.566835
0.566835
0.566844
0.566853
0.566861
0.56687
0.56687
0.566879
0.566887
0.566896
0.566905
0.566905
0.566913
0.566922
0.566931
0.56694
0.56694
0.566948
0.566957
0.566966
0.566975
0.566975
0.566984
0.566993
0.567002
0.567011
0.567011
0.56702
0.567029
0.567038
0.567047
0.567047
0.567056
0.567065
0.567074
0.567083
0.567083
0.567092
0.567101
0.567111
0.56712
0.56712
0.567129
0.567138
0.567148
0.567157
0.567157
0.567166
0.567175
0.567185
0.567194
0.567194
0.567204
0.567213
0.567222
0.567232
0.567232
0.567241
0.567251
0.56726
0.56727
0.56727
0.567279
0.567289
0.567299
0.567308
0.567308
0.567318
0.567328
0.567337
0.567347
0.567347
0.567357
0.567366
0.567376
0.567386
0.567386
0.567396
0.567406
0.567415
0.567425
0.567425
0.567435
0.567445
0.567455
0.567465
0.567465
0.567475
0.567485
0.567495
0.567505
0.567505
0.567515
0.567525
0.567536
0.567546
0.567546
0.567556
0.567566
0.567576
0.567587
0.567587
0.567597
0.567607
0.567617
0.567628
0.567628
0.567638
0.567649
0.567659
0.567669
0.567669
0.56768
0.56769
0.567701
0.567711
0.567711
0.567722
0.567732
0.567743
0.567754
0.567754
0.567764
0.567775
0.567786
0.567796
0.567796
0.567807
0.567818
0.567829
0.56784
0.56784
0.567851
0.567861
0.567872
0.567883
0.567883
0.567894
0.567905
0.567916
0.567927
0.567927
0.567938
0.567949
0.56796
0.567972
0.567972
0.567983
0.567994
0.568005
0.568016
0.568016
0.568028
0.568039
0.56805
0.568062
0.568062
0.568073
0.568084
0.568096
0.568107
0.568107
0.568119
0.56813
0.568142
0.568153
0.568153
0.568165
0.568176
0.568188
0.5682
0.5682
0.568211