<?xml version="1.0"?>
<VTKFile type="UnstructuredGrid" version="0.1" byte_order="LittleEndian">
<UnstructuredGrid>
<Piece NumberOfPoints="5000" NumberOfCells="4000">
<PointData Scalars="Reaction 0">
<DataArray type="Float32" Name="Reaction 0" format="ascii">
0.562681
0.562681
0.562681
0.562681
0.562681
0.562681
0.562681
0.562681
0.562681
0.562681
0.562681
0.562681
0.562681
0.562681
0.562681
0.562681
0.562681
0.562681
0.562681
0.562681
0.562681
0.562681
0.562681
0.562681
0.562681
0.562681
0.562681
0.562681
0.562681
0.562681
0.562681
0.562681
0.562681
0.562681
0.562681
0.562681
0.562682
0.562682
0.562682
0.562682
0.562682
0.562682
0.562682
0.562682
0.562682
0.562682
0.562682
0.562682
0.562682
0.562682
0.562682
0.562682
0.562682
0.562682
0.562682
0.562682
0.562682
0.562682
0.562682
0.562682
0.562682
0.562682
0.562682
0.562682
0.562682
0.562682
0.562682
0.562682
0.562683
0.562683
0.562683
0.562683
0.562683
0.562683
0.562683
0.562683
0.562683
0.562683
0.562683
0.562683
0.562683
0.562683
0.562683
0.562683
0.562683
0.562683
0.562683
0.562683
0.562683
0.562684
0.562684
0.562684
0.562684
0.562684
0.562684
0.562684
0.562684
0.562684
0.562684
0.562684
0.562684
0.562684
0.562684
0.562684
0.562684
0.562684
0.562684
0.562685
0.562685
0.562685
0.562685
0.562685
0.562685
0.562685
0.562685
0.562685
0.562685
0.562685
0.562685
0.562685
0.562685
0.562685
0.562686
0.562686
0.562686
0.562686
0.562686
0.562686
0.562686
0.562686
0.562686
0.562686
0.562686
0.562686
0.562687
0.562687
0.562687
0.562687
0.562687
0.562687
0.562687
0.562687
0.562687
0.562687
0.562687
0.562687
0.562687
0.562688
0.562688
0.562688
0.562688
0.562688
0.562688
0.562688
0.562688
0.562688
0.562688
0.562688
0.562689
0.562689
0.562689
0.562689
0.562689
0.562689
0.562689
0.562689
0.562689
0.562689
0.56269
0.56269
0.56269
0.56269
0.56269
0.56269
0.56269
0.56269
0.56269
0.56269
0.562691
0.562691
0.562691
0.562691
0.562691
0.562691
0.562691
0.562691
0.562691
0.562692
0.562692
0.562692
0.562692
0.562692
0.562692
0.562692
0.562692
0.562692
0.562693
0.562693
0.562693
0.562693
0.562693
0.562693
0.562693
0.562693
0.562694
0.562694
0.562694
0.562694
0.562694
0.562694
0.562694
0.562694
0.562695
0.562695
0.562695
0.562695
0.562695
0.562695
0.562695
0.562696
0.562696
0.562696
0.562696
0.562696
0.562696
0.562696
0.562696
0.562697
0.562697
0.562697
0.562697
0.562697
0.562697
0.562697
0.562698
0.562698
0.562698
0.562698
0.562698
0.562698
0.562698
0.562698
0.562699
0.562699
0.562699
0.562699
0.562699
0.562699
0.5627
0.5627
0.5627
0.5627
0.5627
0.5627
0.562701
0.562701
0.562701
0.562701
0.562701
0.562701
0.562701
0.562701
0.562702
0.562702
0.562702
0.562702
0.562702
0.562702
0.562703
0.562703
0.562703
0.562703
0.562703
0.562703
0.562704
0.562704
0.562704
0.562704
0.562704
0.562705
0.562705
0.562705
0.562705
0.562705
0.562705
0.562705
0.562706
0.562706
0.562706
0.562706
0.562706
0.562706
0.562707
0.562707
0.562707
0.562707
0.562707
0.562708
0.562708
0.562708
0.562708
0.562708
0.562708
0.562709
0.562709
0.562709
0.562709
0.562709
0.56271
0.56271
0.56271
0.56271
0.56271
0.562711
0.562711
0.562711
0.562711
0.562711
0.562712
0.562712
0.562712
0.562712
0.562712
0.562713
0.562713
0.562713
0.562713
0.562713
0.562713
0.562714
0.562714
0.562714
0.562714
0.562714
0.562715
0.562715
0.562715
0.562715
0.562716
0.562716
0.562716
0.562716
0.562716
0.562717
0.562717
0.562717
0.562717
0.562717
0.562718
0.562718
0.562718
0.562718
0.562718
0.562719
0.562719
0.562719
0.562719
0.562719
0.56272
0.56272
0.56272
0.56272
0.562721
0.562721
0.562721
0.562721
0.562721
0.562722
0.562722
0.562722
0.562722
0.562722
0.562723
0.562723
0.562723
0.562723
0.562724
0.562724
0.562724
0.562724
0.562724
0.562725
0.562725
0.562725
0.562726
0.562726
0.562726
0.562726
0.562727
0.562727
0.562727
0.562727
0.562727
0.562728
0.562728
0.562728
0.562728
0.562729
0.562729
0.562729
0.562729
0.56273
0.56273
0.56273
0.56273
0.56273
0.562731
0.562731
0.562731
0.562732
0.562732
0.562732
0.562732
0.562733
0.562733
0.562733
0.562733
0.562734
0.562734
0.562734
0.562734
0.562735
0.562735
0.562735
0.562736
0.562736
0.562736
0.562736
0.562737
0.562737
0.562737
0.562737
0.562738
0.562738
0.562738
0.562738
0.562739
0.562739
0.562739
0.56274
0.56274
0.56274
0.56274
0.562741
0.562741
0.562741
0.562741
0.562742
0.562742
0.562742
0.562742
0.562743
0.562743
0.562743
0.562744
0.562744
0.562744
0.562744
0.562745
0.562745
0.562745
0.562745
0.562746
0.562746
0.562746
0.562746
0.562747
0.562747
0.562748
0.562748
0.562748
0.562748
0.562749
0.562749
0.562749
0.562749
0.56275
0.56275
0.56275
0.562751
0.562751
0.562751
0.562752
0.562752
0.562752
0.562752
0.562753
0.562753
0.562753
0.562754
0.562754
0.562754
0.562755
0.562755
0.562755
0.562755
0.562756
0.562756
0.562757
0.562757
0.562757
0.562757
0.562758
0.562758
0.562758
0.562758
0.562759
0.562759
0.56276
0.56276
0.56276
0.56276
0.562761
0.562761
0.562762
0.562762
0.562762
0.562762
0.562763
0.562763
0.562763
0.562764
0.562764
0.562764
0.562765
0.562765
0.562765
0.562766
0.562766
0.562767
0.562767
0.562767
0.562767
0.562768
0.562768
0.562768
0.562769
0.562769
0.562769
0.56277
0.56277
0.56277
0.562771
0.562771
0.562772
0.562772
0.562772
0.562772
0.562773
0.562773
0.562773
0.562774
0.562774
0.562775
0.562775
0.562775
0.562775
0.562776
0.562776
0.562777
0.562777
0.562777
0.562778
0.562778
0.562779
0.562779
0.562779
0.562779
0.56278
0.56278
0.56278
0.562781
0.562781
0.562782
0.562782
0.562782
0.562783
0.562783
0.562783
0.562784
0.562784
0.562784
0.562785
0.562785
0.562786
0.562786
0.562786
0.562787
0.562787
0.562788
0.562788
0.562788
0.562789
0.562789
0.562789
0.562789
0.56279
0.56279
0.562791
0.562791
0.562791
0.562792
0.562792
0.562793
0.562793
0.562793
0.562794
0.562794
0.562795
0.562795
0.562795
0.562796
0.562796
0.562797
0.562797
0.562797
0.562798
0.562798
0.562799
0.562799
0.562799
0.5628
0.5628
0.562801
0.562801
0.562801
0.562802
0.562802
0.562802
0.562803
0.562803
0.562803
0.562804
0.562804
0.562805
0.562805
0.562806
0.562806
0.562807
0.562807
0.562807
0.562808
0.562808
0.562809
0.562809
0.562809
0.56281
0.56281
0.562811
0.562811
0.562811
0.562812
0.562812
0.562813
0.562813
0.562813
0.562814
0.562814
0.562815
0.562815
0.562815
0.562816
0.562816
0.562817
0.562818
0.562818
0.562818
0.562819
0.562819
0.56282
0.56282
0.56282
0.562821
0.562821
0.562822
0.562822
0.562822
0.562823
0.562823
0.562824
0.562824
0.562825
0.562825
0.562826
0.562826
0.562826
0.562827
0.562827
0.562828
0.562828
0.562828
0.562829
0.56283
0.56283
0.562831
0.562831
0.562831
0.562832
0.562832
0.562833
0.562833
0.562833
0.562834
0.562835
0.562835
0.562835
0.562836
0.562836
0.562837
0.562837
0.562837
0.562838
0.562839
0.562839
0.56284
0.56284
0.56284
0.562841
0.562841
0.562842
0.562842
0.562843
0.562843
0.562844
0.562844
0.562844
0.562845
0.562846
0.562846
0.562847
0.562847
0.562847
0.562848
0.562849
0.562849
0.562849
0.56285
0.56285
0.562851
0.562852
0.562852
0.562852
0.562853
0.562853
0.562854
0.562854
0.562855
0.562855
0.562856
0.562856
0.562856
0.562857
0.562858
0.562858
0.562859
0.562859
0.56286
0.56286
0.562861
0.562861
0.562861
0.562862
0.562863
0.562863
0.562864
0.562864
0.562865
0.562865
0.562866
0.562866
0.562866
0.562867
0.562868
0.562868
0.562869
0.562869
0.56287
0.56287
0.562871
0.562872
0.562872
0.562872
0.562873
0.562873
0.562874
0.562874
0.562875
0.562875
0.562876
0.562877
0.562877
0.562877
0.562878
0.562879
0.562879
0.562879
0.56288
0.562881
0.562881
0.562882
0.562882
0.562883
0.562883
0.562884
0.562885
0.562885
0.562885
0.562886
0.562887
0.562887
0.562887
0.562888
0.562889
0.562889
0.56289
0.56289
0.562891
0.562891
0.562892
0.562893
0.562893
0.562893
0.562894
0.562895
0.562896
0.562896
0.562896
0.562897
0.562898
0.562898
0.562898
0.562899
0.5629
0.5629
0.562901
0.562901
0.562902
0.562903
0.562903
0.562904
0.562904
0.562905
0.562905
0.562906
0.562907
0.562907
0.562907
0.562908
0.562909
0.56291
0.56291
0.56291
0.562911
0.562912
0.562912
0.562912
0.562913
0.562914
0.562915
0.562915
0.562915
0.562916
0.562917
0.562918
0.562918
0.562918
0.562919
0.56292
0.56292
0.562921
0.562921
0.562922
0.562923
0.562923
0.562924
0.562924
0.562925
0.562926
0.562926
0.562927
0.562927
0.562928
0.562929
0.562929
0.56293
0.56293
0.562931
0.562932
0.562932
0.562933
0.562933
0.562934
0.562935
0.562935
0.562936
0.562936
0.562937
0.562938
0.562939
0.562939
0.562939
0.56294
0.562941
0.562942
0.562942
0.562942
0.562943
0.562944
0.562945
0.562945
0.562945
0.562946
0.562947
0.562948
0.562949
0.562949
0.562949
0.56295
0.562951
0.562952
0.562952
0.562953
0.562953
0.562954
0.562955
0.562955
0.562956
0.562957
0.562957
0.562958
0.562958
0.562959
0.56296
0.562961
0.562961
0.562961
0.562962
0.562963
0.562964
0.562965
0.562965
0.562965
0.562966
0.562967
0.562968
0.562968
0.562969
0.56297
0.56297
0.562971
0.562971
0.562972
0.562973
0.562974
0.562974
0.562974
0.562975
0.562976
0.562977
0.562978
0.562978
0.562979
0.562979
0.56298
0.562981
0.562981
0.562982
0.562983
0.562984
0.562985
0.562985
0.562985
0.562986
0.562987
0.562988
0.562988
0.562989
0.56299
0.562991
0.562991
0.562991
0.562992
0.562993
0.562994
0.562995
0.562995
0.562996
0.562997
0.562998
0.562998
0.562998
0.562999
0.563
0.563001
0.563002
0.563002
0.563003
0.563004
0.563005
0.563005
0.563005
0.563006
0.563007
0.563008
0.563009
0.563009
0.56301
0.563011
0.563012
0.563013
0.563013
0.563013
0.563014
0.563015
0.563016
0.563016
0.563017
0.563018
0.563019
0.56302
0.56302
0.563021
0.563022
0.563022
0.563023
0.563023
0.563024
0.563025
0.563026
0.563027
0.563027
0.563028
0.563029
0.56303
0.563031
0.563031
0.563032
0.563033
0.563034
0.563035
0.563035
0.563035
0.563036
0.563037
0.563038
0.563038
0.563039
0.56304
0.563041
0.563042
0.563042
0.563043
0.563044
0.563045
0.563046
0.563046
0.563047
0.563048
0.563049
0.56305
0.56305
0.563051
0.563052
0.563053
0.563053
0.563053
0.563054
0.563055
0.563056
0.563057
0.563057
0.563058
0.563059
0.56306
0.563061
0.563061
0.563062
0.563063
0.563064
0.563065
0.563065
0.563066
0.563067
0.563068
0.563069
0.563069
0.56307
0.563071
0.563072
0.563073
0.563073
0.563074
0.563075
0.563076
0.563077
0.563077
0.563078
0.563079
0.56308
0.563081
0.563081
0.563082
0.563083
0.563084
0.563085
0.563085
0.563086
0.563087
0.563088
0.563089
0.563089
0.56309
0.563091
0.563092
0.563093
0.563093
0.563094
0.563095
0.563097
0.563098
0.563098
0.563099
0.5631
0.563101
0.563102
0.563102
0.563103
0.563104
0.563105
0.563106
0.563106
0.563107
0.563108
0.563109
0.56311
0.56311
0.563111
0.563112
0.563113
0.563114
0.563114
0.563115
0.563116
0.563118
0.563119
0.563119
0.56312
0.563121
0.563122
0.563123
0.563123
0.563124
0.563125
0.563126
0.563127
0.563127
0.563128
0.563129
0.563131
0.563132
0.563132
0.563133
0.563134
0.563135
0.563136
0.563136
0.563137
0.563138
0.563139
0.56314
0.56314
0.563142
0.563143
0.563144
0.563145
0.563145
0.563146
0.563147
0.563148
0.563149
0.563149
0.56315
0.563152
0.563153
0.563154
0.563154
0.563155
0.563156
0.563157
0.563158
0.563158
0.563159
0.563161
0.563162
0.563163
0.563163
0.563164
0.563165
0.563166
0.563167
0.563167
0.563169
0.56317
0.563171
0.563172
0.563172
0.563173
0.563174
0.563176
0.563177
0.563177
0.563178
0.563179
0.56318
0.563181
0.563181
0.563183
0.563184
0.563185
0.563186
0.563186
0.563187
0.563189
0.56319
0.563191
0.563191
0.563192
0.563193
0.563194
0.563196
0.563196
0.563197
0.563198
0.563199
0.5632
0.5632
0.563202
0.563203
0.563204
0.563205
0.563205
0.563206
0.563208
0.563209
0.56321
0.56321
0.563211
0.563213
0.563214
0.563215
0.563215
0.563216
0.563217
0.563219
0.56322
0.56322
0.563221
0.563222
0.563224
0.563225
0.563225
0.563226
0.563227
0.563229
0.56323
0.56323
0.563231
0.563232
0.563234
0.563235
0.563235
0.563236
0.563237
0.563239
0.56324
0.56324
0.563241
0.563243
0.563244
0.563245
0.563245
0.563246
0.563248
0.563249
0.56325
0.56325
0.563251
0.563253
0.563254
0.563255
0.563255
0.563257
0.563258
0.563259
0.56326
0.56326
0.563262
0.563263
0.563264
0.563266
0.563266
0.563267
0.563268
0.56327
0.563271
0.563271
0.563272
0.563273
0.563275
0.563276
0.563276
0.563277
0.563279
0.56328
0.563281
0.563281
0.563283
0.563284
0.563285
0.563287
0.563287
0.563288
0.56329
0.563291
0.563292
0.563292
0.563294
0.563295
0.563296
0.563298
0.563298
0.563299
0.5633
0.563302
0.563303
0.563303
0.563304
0.563306
0.563307
0.563308
0.563308
0.56331
0.563311
0.563313
0.563314
0.563314
0.563315
0.563317
0.563318
0.563319
0.563319
0.563321
0.563322
0.563324
0.563325
0.563325
0.563326
0.563328
0.563329
0.563331
0.563331
0.563332
0.563334
0.563335
0.563336
0.563336
0.563338
0.563339
0.563341
0.563342
0.563342
0.563343
0.563345
0.563346
0.563348
0.563348
0.563349
0.563351
0.563352
0.563354
0.563354
0.563355
0.563356
0.563358
0.563359
0.563359
0.563361
0.563362
0.563364
0.563365
0.563365
0.563367
0.563368
0.563369
0.563371
0.563371
0.563372
0.563374
0.563375
0.563377
0.563377
0.563378
0.56338
0.563381
0.563383
0.563383
0.563384
0.563386
0.563387
0.563389
0.563389
0.56339
0.563392
0.563393
0.563395
0.563395
0.563396
0.563398
0.563399
0.563401
0.563401
0.563402
0.563404
0.563405
0.563407
0.563407
0.563408
0.56341
0.563412
0.563413
0.563413
0.563415
0.563416
0.563418
0.563419
0.563419
0.563421
0.563422
0.563424
0.563425
0.563425
0.563427
0.563428
0.56343
0.563432
0.563432
0.563433
0.563435
0.563436
0.563438
0.563438
0.563439
0.563441
0.563443
0.563444
0.563444
0.563446
0.563447
0.563449
0.563451
0.563451
0.563452
0.563454
0.563455
0.563457
0.563457
0.563459
0.56346
0.563462
0.563463
0.563463
0.563465
0.563467
0.563468
0.56347
0.56347
0.563471
0.563473
0.563475
0.563476
0.563476
0.563478
0.56348
0.563481
0.563483
0.563483
0.563485
0.563486
0.563488
0.563489
0.563489
0.563491
0.563493
0.563494
0.563496
0.563496
0.563498
0.563499
0.563501
0.563503
0.563503
0.563505
0.563506
0.563508
0.56351
0.56351
0.563511
0.563513
0.563515
0.563516
0.563516
0.563518
0.56352
0.563521
0.563523
0.563523
0.563525
0.563527
0.563528
0.56353
0.56353
0.563532
0.563533
0.563535
0.563537
0.563537
0.563539
0.56354
0.563542
0.563544
0.563544
0.563545
0.563547
0.563549
0.563551
0.563551
0.563552
0.563554
0.563556
0.563558
0.563558
0.56356
0.563561
0.563563
0.563565
0.563565
0.563567
0.563568
0.56357
0.563572
0.563572
0.563574
0.563576
0.563577
0.563579
0.563579
0.563581
0.563583
0.563584
0.563586
0.563586
0.563588
0.56359
0.563592
0.563593
0.563593
0.563595
0.563597
0.563599
0.563601
0.563601
0.563603
0.563604
0.563606
0.563608
0.563608
0.56361
0.563612
0.563614
0.563615
0.563615
0.563617
0.563619
0.563621
0.563623
0.563623
0.563625
0.563627
0.563629
0.56363
0.56363
0.563632
0.563634
0.563636
0.563638
0.563638
0.56364
0.563642
0.563644
0.563645
0.563645
0.563647
0.563649
0.563651
0.563653
0.563653
0.563655
0.563657
0.563659
0.563661
0.563661
0.563663
0.563664
0.563666
0.563668
0.563668
0.56367
0.563672
0.563674
0.563676
0.563676
0.563678
0.56368
0.563682
0.563684
0.563684
0.563686
0.563688
0.56369
0.563692
0.563692
0.563694
0.563696
0.563698
0.5637
0.5637
0.563702
0.563704
0.563706
0.563708
0.563708
0.56371
0.563712
0.563714
0.563716
0.563716
0.563718
0.56372
0.563722
0.563724
0.563724
0.563726
0.563728
0.56373
0.563732
0.563732
0.563734
0.563736
0.563738
0.56374
0.56374
0.563742
0.563744
0.563746
0.563748
0.563748
0.56375
0.563752
0.563754
0.563756
0.563756
0.563758
0.563761
0.563763
0.563765
0.563765
0.563767
0.563769
0.563771
0.563773
0.563773
0.563775
0.563777
0.563779
0.563781
0.563781
0.563784
0.563786
0.563788
0.56379
0.56379
0.563792
0.563794
0.563796
0.563798
0.563798
0.5638
0.563803
0.563805
0.563807
0.563807
0.563809
0.563811
0.563813
0.563816
0.563816
0.563818
0.56382
0.563822
0.563824
0.563824
0.563826
0.563829
0.563831
0.563833
0.563833
0.563835
0.563837
0.56384
0.563842
0.563842
0.563844
0.563846
0.563848
0.563851
0.563851
0.563853
0.563855
0.563857
0.563859
0.563859
0.563862
0.563864
0.563866
0.563868
0.563868
0.563871
0.563873
0.563875
0.563877
0.563877
0.56388
0.563882
0.563884
0.563887
0.563887
0.563889
0.563891
0.563893
0.563896
0.563896
0.563898
0.5639
0.563903
0.563905
0.563905
0.563907
0.563909
0.563912
0.563914
0.563914
0.563916
0.563919
0.563921
0.563923
0.563923
0.563926
0.563928
0.56393
0.563933
0.563933
0.563935
0.563937
0.56394
0.563942
0.563942
0.563945
0.563947
0.563949
0.563952
0.563952
0.563954
0.563956
0.563959
0.563961
0.563961
0.563964
0.563966
0.563968
0.563971
0.563971
0.563973
0.563976
0.563978
0.56398
0.56398
0.563983
0.563985
0.563988
0.56399
0.56399
0.563993
0.563995
0.563997
0.564
0.564
0.564002
0.564005
0.564007
0.56401
0.56401
0.564012
0.564015
0.564017
0.56402
0.56402
0.564022
0.564025
0.564027
0.56403
0.56403
0.564032
0.564035
0.564037
0.56404
0.56404
0.564042
0.564045
0.564047
0.56405
0.56405
0.564052
0.564055
0.564057
0.56406
0.56406
0.564063
0.564065
0.564068
0.56407
0.56407
0.564073
0.564075
0.564078
0.564081
0.564081
0.564083
0.564086
0.564088
0.564091
0.564091
0.564094
0.564096
0.564099
0.564101
0.564101
0.564104
0.564107
0.564109
0.564112
0.564112
0.564115
0.564117
0.56412
0.564122
0.564122
0.564125
0.564128
0.56413
0.564133
0.564133
0.564136
0.564138
0.564141
0.564144
0.564144
0.564146
0.564149
0.564152
0.564154
0.564154
0.564157
0.56416
0.564163
0.564165
0.564165
0.564168
0.564171
0.564174
0.564176
0.564176
0.564179
0.564182
0.564185
0.564187
0.564187
0.56419
0.564193
0.564196
0.564198
0.564198
0.564201
0.564204
0.564207
0.564209
0.564209
0.564212
0.564215
0.564218
0.564221
0.564221
0.564223
0.564226
0.564229
0.564232
0.564232
0.564235
0.564238
0.56424
0.564243
0.564243
0.564246
0.564249
0.564252
0.564255
0.564255
0.564258
0.564261
0.564263
0.564266
0.564266
0.564269
0.564272
0.564275
0.564278
0.564278
0.564281
0.564284
0.564287
0.564289
0.564289
0.564292
0.564295
0.564298
0.564301
0.564301
0.564304
0.564307
0.56431
0.564313
0.564313
0.564316
0.564319
0.564322
0.564325
0.564325
0.564328
0.564331
0.564334
0.564337
0.564337
0.56434
0.564343
0.564346
0.564349
0.564349
0.564352
0.564355
0.564358
0.564361
0.564361
0.564364
0.564367
0.56437
0.564373
0.564373
0.564376
0.564379
0.564382
0.564385
0.564385
0.564389
0.564392
0.564395
0.564398
0.564398
0.564401
0.564404
0.564407
0.56441
0.56441
0.564413
0.564417
0.56442
0.564423
0.564423
0.564426
0.564429
0.564432
0.564436
0.564436
0.564439
0.564442
0.564445
0.564448
0.564448
0.564451
0.564455
0.564458
0.564461
0.564461
0.564464
0.564467
0.564471
0.564474
0.564474
0.564477
0.56448
0.564484
0.564487
0.564487
0.56449
0.564493
0.564497
0.5645
0.5645
0.564503
0.564506
0.56451
0.564513
0.564513
0.564516
0.56452
0.564523
0.564526
0.564526
0.56453
0.564533
0.564536
0.564539
0.564539
0.564543
0.564546
0.564549
0.564553
0.564553
0.564556
0.56456
0.564563
0.564566
0.564566
0.56457
0.564573
0.564577
0.56458
0.56458
0.564583
0.564587
0.56459
0.564594
0.564594
0.564597
0.564601
0.564604
0.564607
0.564607
0.564611
0.564614
0.564618
0.564621
0.564621
0.564625
0.564628
0.564632
0.564635
0.564635
0.564639
0.564642
0.564646
0.564649
0.564649
0.564653
0.564656
0.56466
0.564663
0.564663
0.564667
0.564671
0.564674
0.564678
0.564678
0.564681
0.564685
0.564688
0.564692
0.564692
0.564696
0.564699
0.564703
0.564706
0.564706
0.56471
0.564714
0.564717
0.564721
0.564721
0.564725
0.564728
0.564732
0.564736
0.564736
0.564739
0.564743
0.564747
0.56475
0.56475
0.564754
0.564758
0.564761
0.564765
0.564765
0.564769
0.564773
0.564776
0.56478
0.56478
0.564784
0.564788
0.564791
0.564795
0.564795
0.564799
0.564803
0.564806
0.56481
0.56481
0.564814
0.564818
0.564822
0.564825
0.564825
0.564829
0.564833
0.564837
0.564841
0.564841
0.564845
0.564849
0.564852
0.564856
0.564856
0.56486
0.564864
0.564868
0.564872
0.564872
0.564876
0.56488
0.564884
0.564888
0.564888
0.564892
0.564895
0.564899
0.564903
0.564903
0.564907
0.564911
0.564915
0.564919
0.564919
0.564923
0.564927
0.564931
0.564935
0.564935
0.564939
0.564943
0.564947
0.564951
0.564951
0.564955
0.564959
0.564964
0.564968
0.564968
0.564972
0.564976
0.56498
0.564984
0.564984
0.564988
0.564992
0.564996
0.565
0.565
0.565005
0.565009
0.565013
0.565017
0.565017
0.565021
0.565025
0.565029
0.565034
0.565034
0.565038
0.565042
0.565046
0.56505
0.56505
0.565055
0.565059
0.565063
0.565067
0.565067
0.565072
0.565076
0.56508
0.565084
0.565084
0.565089
0.565093
0.565097
0.565102
0.565102
0.565106
0.56511
0.565115
0.565119
0.565119
0.565123
0.565128
0.565132
0.565136
0.565136
0.565141
0.565145
0.565149
0.565154
0.565154
0.565158
0.565163
0.565167
0.565172
0.565172
0.565176
0.56518
0.565185
0.565189
0.565189
0.565194
0.565198
0.565203
0.565207
0.565207
0.565212
0.565216
0.565221
0.565225
0.565225
0.56523
0.565234
0.565239
0.565243
0.565243
0.565248
0.565253
0.565257
0.565262
0.565262
0.565266
0.565271
0.565276
0.56528
0.56528
0.565285
0.56529
0.565294
0.565299
0.565299
0.565303
0.565308
0.565313
0.565317
0.565317
0.565322
0.565327
0.565332
0.565336
0.565336
0.565341
0.565346
0.565351
0.565355
0.565355
0.56536
0.565365
0.56537
0.565374
0.565374
0.565379
0.565384
0.565389
0.565394
0.565394
0.565399
0.565403
0.565408
0.565413
0.565413
0.565418
0.565423
0.565428
0.565433
0.565433
0.565437
0.565442
0.565447
0.565452
0.565452
0.565457
0.565462
0.565467
0.565472
0.565472
0.565477
0.565482
0.565487
0.565492
0.565492
0.565497
0.565502
0.565507
0.565512
0.565512
0.565517
0.565522
0.565527
0.565532
0.565532
0.565538
0.565543
0.565548
0.565553
0.565553
0.565558
0.565563
0.565568
0.565573
0.565573
0.565579
0.565584
0.565589
0.565594
0.565594
0.565599
0.565605
0.56561
0.565615
0.565615
0.56562
0.565626
0.565631
0.565636
0.565636
0.565641
0.565647
0.565652
0.565657
0.565657
0.565662
0.565668
0.565673
0.565678
0.565678
0.565684
0.565689
0.565695
0.5657
0.5657
0.565705
0.565711
0.565716
0.565722
0.565722
0.565727
0.565733
0.565738
0.565744
0.565744
0.565749
0.565754
0.56576
0.565765
0.565765
0.565771
0.565776
0.565782
0.565788
0.565788
0.565793
0.565799
0.565804
0.56581
0.56581
0.565815
0.565821
0.565827
0.565832
0.565832
0.565838
0.565844
0.565849
0.565855
0.565855
0.565861
0.565866
0.565872
0.565878
0.565878
0.565884
0.565889
0.565895
0.565901
0.565901
0.565907
0.565912
0.565918
0.565924
0.565924
0.56593
0.565936
0.565941
0.565947
0.565947
0.565953
0.565959
0.565965
0.565971
0.565971
0.565977
0.565983
0.565989
0.565995
0.565995
0.566001
0.566006
0.566012
0.566018
0.566018
0.566024
0.56603
0.566036
0.566042
0.566042
0.566048
0.566055
0.566061
0.566067
0.566067
0.566073
0.566079
0.566085
0.566091
0.566091
0.566097
0.566103
0.56611
0.566116
0.566116
0.566122
0.566128
0.566134
0.566141
0.566141
0.566147
0.566153
0.566159
0.566166
0.566166
0.566172
0.566178
0.566184
0.566191
0.566191
0.566197
0.566203
0.56621
0.566216
0.566216
0.566223
0.566229
0.566235
0.566242
0.566242
0.566248
0.566255
0.566261
0.566268
0.566268
0.566274
0.56628
0.566287
0.566293
0.566293
0.5663
0.566306
0.566313
0.56632
0.56632
0.566326
0.566333
0.566339
0.566346
0.566346
0.566353
0.566359
0.566366
0.566373
0.566373
0.566379
0.566386
0.566393
0.566399
0.566399
0.566406
0.566413
0.56642
0.566426
0.566426
0.566433
0.56644
0.566447
0.566454
0.566454
0.56646
0.566467
0.566474
0.566481
0.566481
0.566488
0.566495
0.566502
0.566509
0.566509
0.566516
0.566523
0.56653
0.566537
0.566537
0.566544
0.566551
0.566558
0.566565
0.566565
0.566572
0.566579
0.566586
0.566593
0.566593
0.5666
0.566607
0.566614
0.566621
0.566621
0.566629
0.566636
0.566643
0.56665
0.56665
0.566658
0.566665
0.566672
0.566679
0.566679
0.566687
0.566694
0.566701
0.566708
0.566708
0.566716
0.566723
0.566731
0.566738
0.566738
0.566745
0.566753
0.56676
0.566768
0.566768
0.566775
0.566783
0.56679
0.566798
0.566798
0.566805
0.566813
0.56682
0.566828
0.566828
0.566835
0.566843
0.566851
0.566858
0.566858
0.566866
0.566873
0.566881
0.566889
0.566889
0.566896
0.566904
0.566912
0.56692
0.56692
0.566927
0.566935
0.566943
0.566951
0.566951
0.566959
0.566966
0.566974
0.566982
0.566982
0.56699
0.566998
0.567006
0.567014
0.567014
0.567022
0.56703
0.567038
0.567046
0.567046
0.567054
0.567062
0.56707
0.567078
0.567078
0.567086
0.567094
0.567102
0.56711
0.56711
0.567119
0.567127
0.567135
0.567143
0.567143
0.567151
0.56716
0.567168
0.567176
0.567176
0.567184
0.567193
0.567201
0.567209
0.567209
0.567218
0.567226
0.567234
0.567243
0.567243
0.567251
0.56726
0.567268
0.567277
0.567277
0.567285
0.567294
0.567302
0.567311
0.567311
0.567319
0.567328
0.567336
0.567345
0.567345
0.567354
0.567362
0.567371
0.56738
0.56738
0.567388
0.567397
0.567406
0.567414
0.567414
0.567423
0.567432
0.567441
0.56745
0.56745
0.567459
0.567467
0.567476
0.567485
0.567485
0.567494
0.567503
0.567512
0.567521
0.567521
0.56753
0.567539
0.567548
0.567557
0.567557
0.567566
0.567575
0.567584
0.567593
0.567593
0.567603
0.567612
0.567621
0.56763
0.56763
0.567639
0.567649
0.567658
0.567667
0.567667
0.567677
0.567686
0.567695
0.567705
0.567705
0.567714
0.567723
0.567733
0.567742
0.567742
0.567752
0.567761
0.567771
0.56778
0.56778
0.56779
0.567799
0.567809
0.567818
0.567818
0.567828
0.567838
0.567847
0.567857
0.567857
0.567867
0.567876
0.567886
0.567896
0.567896
0.567906
0.567915
0.567925
0.567935
0.567935
0.567945
0.567955
0.567965
0.567975
0.567975
0.567985
0.567995
0.568005
0.568015
0.568015
0.568025
0.568035
0.568045
0.568055
0.568055
0.568065
0.568075
0.568085
0.568095
0.568095
0.568106
0.568116
0.568126
0.568136
0.568136
0.568147
0.568157
0.568167
0.568178
0.568178
0.568188
0.568198
0.568209
0.568219
0.568219
0.56823
0.56824
0.568251
0.568261
0.568261
0.568272
0.568282
0.568293
0.568304
0.568304
0.568314
0.568325
0.568336
0.568346
0.568346
0.568357
0.568368
0.568379
0.568389
0.568389
0.5684
0.568411
0.568422
0.568433
0.568433
0.568444
0.568455
0.568466
0.568477
0.568477
0.568488
0.568499
0.56851
0.568521
0.568521
0.568532
0.568543
0.568554
0.568566
0.568566
0.568577
0.568588
0.568599
0.568611
0.568611
0.568622
0.568633
0.568645
0.568656
0.568656
0.568667
0.568679
0.56869
0.568702
0.568702
0.568713
0.568725
0.568736
0.568748
0.568748
0.56876
0.568771
0.568783
0.568794
0.568794
0.568806
0.568818
0.56883
0.568842
0.568842
0.568853
0.568865
0.568877
0.568889
0.568889
0.568901
0.568913
0.568925
0.568937
0.568937
0.568949
0.568961
0.568973
0.568985
0.568985
0.568997
0.569009
0.569021
0.569034
0.569034
0.569046
0.569058
0.56907
0.569083
0.569083
0.569095
0.569108
0.56912
0.569132
0.569132
0.569145
0.569157
0.56917
0.569182
0.569182
0.569195
0.569207
0.56922
0.569233
0.569233
0.569245
0.569258
0.569271
0.569284
0.569284
0.569296
0.569309
0.569322
0.569335
0.569335
0.569348
0.569361
0.569374
0.569387
0.569387
0.5694
0.569413
0.569426
0.569439
0.569439
0.569452
0.569465
0.569478
0.569492
0.569492
0.569505
0.569518
0.569531
0.569545
0.569545
0.569558
0.569572
0.569585
0.569598
0.569598
0.569612
0.569625
0.569639
0.569653
0.569653
0.569666
0.56968
0.569693
0.569707
0.569707
0.569721
0.569735
0.569748
0.569762
0.569762
0.569776
0.56979
0.569804
0.569818
0.569818
0.569832
0.569846
0.56986
0.569874
0.569874
0.569888
0.569902
0.569916
0.569931
0.569931
0.569945
0.569959
0.569973
0.569988
0.569988
0.570002
0.570016
0.570031
0.570045
0.570045
0.57006
0.570074
0.570089
0.570103
0.570103
0.570118
0.570133
0.570147
0.570162
0.570162
0.570177
0.570192
0.570206
0.570221
0.570221
0.570236
0.570251
0.570266
0.570281
0.570281
0.570296
0.570311
0.570326
0.570341
0.570341
0.570357
0.570372
0.570387
0.570402
0.570402
0.570418
0.570433
0.570448
0.570464
0.570464
0.570479
0.570495
0.57051
0.570526
0.570526
0.570541
0.570557
0.570573
0.570588
0.570588
0.570604
0.57062
0.570636
0.570651
0.570651
0.570667
0.570683
0.570699
0.570715
0.570715
0.570731
0.570747
0.570763
0.570779
0.570779
0.570795
0.570812
0.570828
0.570844
0.570844
0.57086
0.570877
0.570893
0.57091
0.57091
0.570926
0.570943
0.570959
0.570976
0.570976
0.570992
0.571009
0.571026
0.571042
0.571042
0.571059
0.571076
0.571093
0.57111
0.57111
0.571127
0.571144
0.571161
0.571178
0.571178
0.571195
0.571212
0.571229
0.571246
0.571246
0.571263
0.571281
0.571298
0.571315
0.571315
0.571333
0.57135
0.571368
0.571385
0.571385
0.571403
0.57142
0.571438
0.571456
0.571456
0.571473
0.571491
0.571509
0.571527
0.571527
0.571545
0.571562
0.57158
0.571598
0.571598
0.571616
0.571635
0.571653
0.571671
0.571671
0.571689
0.571707
0.571726
0.571744
0.571744
0.571762
0.571781
0.571799
0.571818
0.571818
0.571836
0.571855
0.571874
0.571892
0.571892
0.571911
0.57193
0.571949
0.571967
0.571967
0.571986
0.572005
0.572024
0.572043
0.572043
0.572062
0.572082
0.572101
0.57212
0.57212
0.572139
0.572159
0.572178
0.572197
0.572197
0.572217
0.572236
0.572256
0.572275
0.572275
0.572295
0.572315
0.572334
0.572354
0.572354
0.572374
0.572394
0.572414
0.572434
0.572434
0.572454
0.572474
0.572494
0.572514
0.572514
0.572534
0.572554
0.572574
0.572595
0.572595
0.572615
0.572636
0.572656
0.572677
0.572677
0.572697
0.572718
0.572738
0.572759
0.572759
0.57278
0.572801
0.572822
0.572842
0.572842
0.572863
0.572884
0.572905
0.572927
0.572927
0.572948
0.572969
0.57299
0.573011
0.573011
0.573033
0.573054
0.573076
0.573097
0.573097
0.573119
0.57314
0.573162
0.573184
0.573184
0.573205
0.573227
0.573249
0.573271
0.573271
0.573293
0.573315
0.573337
0.573359
0.573359
0.573381
0.573403
0.573426
0.573448
0.573448
0.57347
0.573493
0.573515
0.573538
0.573538
0.57356
0.573583
0.573606
0.573628
0.573628
0.573651
0.573674
0.573697
0.57372
0.57372
0.573743
0.573766
0.573789
0.573812
0.573812
0.573835
0.573859
0.573882
0.573905
0.573905
0.573929
0.573952
0.573976
0.574
0.574
0.574023
0.574047
0.574071
0.574094
0.574094
0.574118
0.574142
0.574166
0.57419
0.57419
0.574214
0.574239
0.574263
0.574287
0.574287
0.574312
0.574336
0.57436
0.574385
0.574385
0.574409
0.574434
0.574459
0.574483
0.574483
0.574508
0.574533
0.574558
0.574583
0.574583
0.574608
0.574633
0.574658
0.574684
0.574684
0.574709
0.574734
0.57476
0.574785
0.574785
0.57481
0.574836
0.574862
0.574887
0.574887
0.574913
0.574939
0.574965
0.574991
0.574991
0.575017
0.575043
0.575069
0.575095
0.575095
0.575121
0.575148
0.575174
0.5752
0.5752
0.575227
0.575253
0.57528
0.575307
0.575307
0.575333
0.57536
0.575387
0.575414
0.575414
0.575441
0.575468
0.575495
0.575522
0.575522
0.575549
0.575577
0.575604
0.575632
0.575632
0.575659
0.575687
0.575714
0.575742
0.575742
0.57577
0.575797
0.575825
0.575853
0.575853
0.575881
0.575909
0.575937
0.575966
0.575966
0.575994
0.576022
0.576051
0.576079