<?xml version="1.0"?>
<VTKFile type="UnstructuredGrid" version="0.1" byte_order="LittleEndian">
<UnstructuredGrid>
<Piece NumberOfPoints="5000" NumberOfCells="4000">
<PointData Scalars="Reaction 0">
<DataArray type="Float32" Name="Reaction 0" format="ascii">
0.561816
0.561816
0.561816
0.561816
0.561816
0.561816
0.561816
0.561816
0.561816
0.561816
0.561816
0.561816
0.561816
0.561816
0.561816
0.561816
0.561816
0.561816
0.561816
0.561816
0.561816
0.561816
0.561816
0.561816
0.561816
0.561816
0.561816
0.561816
0.561816
0.561816
0.561816
0.561816
0.561816
0.561816
0.561816
0.561816
0.561816
0.561816
0.561816
0.561816
0.561816
0.561816
0.561816
0.561816
0.561816
0.561816
0.561816
0.561816
0.561816
0.561816
0.561816
0.561816
0.561816
0.561816
0.561816
0.561816
0.561816
0.561816
0.561816
0.561816
0.561816
0.561816
0.561816
0.561816
0.561816
0.561816
0.561816
0.561816
0.561816
0.561816
0.561816
0.561816
0.561816
0.561816
0.561816
0.561816
0.561817
0.561817
0.561817
0.561817
0.561817
0.561817
0.561817
0.561817
0.561817
0.561817
0.561817
0.561817
0.561817
0.561817
0.561817
0.561817
0.561817
0.561817
0.561817
0.561817
0.561817
0.561817
0.561817
0.561817
0.561817
0.561817
0.561817
0.561817
0.561817
0.561817
0.561817
0.561817
0.561817
0.561817
0.561817
0.561817
0.561817
0.561817
0.561817
0.561817
0.561817
0.561817
0.561817
0.561818
0.561818
0.561818
0.561818
0.561818
0.561818
0.561818
0.561818
0.561818
0.561818
0.561818
0.561818
0.561818
0.561818
0.561818
0.561818
0.561818
0.561818
0.561818
0.561818
0.561818
0.561818
0.561818
0.561818
0.561818
0.561818
0.561818
0.561818
0.561818
0.561818
0.561818
0.561818
0.561819
0.561819
0.561819
0.561819
0.561819
0.561819
0.561819
0.561819
0.561819
0.561819
0.561819
0.561819
0.561819
0.561819
0.561819
0.561819
0.561819
0.561819
0.561819
0.561819
0.561819
0.561819
0.561819
0.561819
0.561819
0.561819
0.56182
0.56182
0.56182
0.56182
0.56182
0.56182
0.56182
0.56182
0.56182
0.56182
0.56182
0.56182
0.56182
0.56182
0.56182
0.56182
0.56182
0.56182
0.56182
0.56182
0.56182
0.56182
0.561821
0.561821
0.561821
0.561821
0.561821
0.561821
0.561821
0.561821
0.561821
0.561821
0.561821
0.561821
0.561821
0.561821
0.561821
0.561821
0.561821
0.561821
0.561821
0.561821
0.561822
0.561822
0.561822
0.561822
0.561822
0.561822
0.561822
0.561822
0.561822
0.561822
0.561822
0.561822
0.561822
0.561822
0.561822
0.561822
0.561822
0.561822
0.561822
0.561823
0.561823
0.561823
0.561823
0.561823
0.561823
0.561823
0.561823
0.561823
0.561823
0.561823
0.561823
0.561823
0.561823
0.561823
0.561823
0.561823
0.561823
0.561824
0.561824
0.561824
0.561824
0.561824
0.561824
0.561824
0.561824
0.561824
0.561824
0.561824
0.561824
0.561824
0.561824
0.561824
0.561824
0.561825
0.561825
0.561825
0.561825
0.561825
0.561825
0.561825
0.561825
0.561825
0.561825
0.561825
0.561825
0.561825
0.561825
0.561825
0.561826
0.561826
0.561826
0.561826
0.561826
0.561826
0.561826
0.561826
0.561826
0.561826
0.561826
0.561826
0.561826
0.561826
0.561827
0.561827
0.561827
0.561827
0.561827
0.561827
0.561827
0.561827
0.561827
0.561827
0.561827
0.561827
0.561827
0.561828
0.561828
0.561828
0.561828
0.561828
0.561828
0.561828
0.561828
0.561828
0.561828
0.561828
0.561828
0.561828
0.561828
0.561829
0.561829
0.561829
0.561829
0.561829
0.561829
0.561829
0.561829
0.561829
0.561829
0.561829
0.561829
0.561829
0.56183
0.56183
0.56183
0.56183
0.56183
0.56183
0.56183
0.56183
0.56183
0.56183
0.56183
0.56183
0.561831
0.561831
0.561831
0.561831
0.561831
0.561831
0.561831
0.561831
0.561831
0.561831
0.561831
0.561832
0.561832
0.561832
0.561832
0.561832
0.561832
0.561832
0.561832
0.561832
0.561832
0.561832
0.561832
0.561833
0.561833
0.561833
0.561833
0.561833
0.561833
0.561833
0.561833
0.561833
0.561833
0.561833
0.561834
0.561834
0.561834
0.561834
0.561834
0.561834
0.561834
0.561834
0.561834
0.561834
0.561835
0.561835
0.561835
0.561835
0.561835
0.561835
0.561835
0.561835
0.561835
0.561835
0.561835
0.561836
0.561836
0.561836
0.561836
0.561836
0.561836
0.561836
0.561836
0.561836
0.561836
0.561837
0.561837
0.561837
0.561837
0.561837
0.561837
0.561837
0.561837
0.561837
0.561837
0.561838
0.561838
0.561838
0.561838
0.561838
0.561838
0.561838
0.561838
0.561838
0.561839
0.561839
0.561839
0.561839
0.561839
0.561839
0.561839
0.561839
0.561839
0.561839
0.56184
0.56184
0.56184
0.56184
0.56184
0.56184
0.56184
0.56184
0.56184
0.561841
0.561841
0.561841
0.561841
0.561841
0.561841
0.561841
0.561841
0.561841
0.561841
0.561842
0.561842
0.561842
0.561842
0.561842
0.561842
0.561842
0.561842
0.561843
0.561843
0.561843
0.561843
0.561843
0.561843
0.561843
0.561843
0.561843
0.561844
0.561844
0.561844
0.561844
0.561844
0.561844
0.561844
0.561844
0.561845
0.561845
0.561845
0.561845
0.561845
0.561845
0.561845
0.561845
0.561846
0.561846
0.561846
0.561846
0.561846
0.561846
0.561846
0.561846
0.561846
0.561847
0.561847
0.561847
0.561847
0.561847
0.561847
0.561847
0.561847
0.561848
0.561848
0.561848
0.561848
0.561848
0.561848
0.561848
0.561848
0.561849
0.561849
0.561849
0.561849
0.561849
0.561849
0.561849
0.561849
0.56185
0.56185
0.56185
0.56185
0.56185
0.56185
0.56185
0.561851
0.561851
0.561851
0.561851
0.561851
0.561851
0.561851
0.561851
0.561852
0.561852
0.561852
0.561852
0.561852
0.561852
0.561852
0.561853
0.561853
0.561853
0.561853
0.561853
0.561853
0.561853
0.561853
0.561854
0.561854
0.561854
0.561854
0.561854
0.561854
0.561854
0.561855
0.561855
0.561855
0.561855
0.561855
0.561855
0.561855
0.561855
0.561856
0.561856
0.561856
0.561856
0.561856
0.561856
0.561857
0.561857
0.561857
0.561857
0.561857
0.561857
0.561857
0.561857
0.561858
0.561858
0.561858
0.561858
0.561858
0.561858
0.561859
0.561859
0.561859
0.561859
0.561859
0.561859
0.561859
0.56186
0.56186
0.56186
0.56186
0.56186
0.56186
0.56186
0.561861
0.561861
0.561861
0.561861
0.561861
0.561861
0.561862
0.561862
0.561862
0.561862
0.561862
0.561862
0.561862
0.561863
0.561863
0.561863
0.561863
0.561863
0.561863
0.561863
0.561864
0.561864
0.561864
0.561864
0.561864
0.561864
0.561865
0.561865
0.561865
0.561865
0.561865
0.561865
0.561866
0.561866
0.561866
0.561866
0.561866
0.561866
0.561867
0.561867
0.561867
0.561867
0.561867
0.561867
0.561867
0.561868
0.561868
0.561868
0.561868
0.561868
0.561868
0.561869
0.561869
0.561869
0.561869
0.561869
0.561869
0.56187
0.56187
0.56187
0.56187
0.56187
0.56187
0.561871
0.561871
0.561871
0.561871
0.561871
0.561871
0.561871
0.561872
0.561872
0.561872
0.561872
0.561872
0.561873
0.561873
0.561873
0.561873
0.561873
0.561873
0.561874
0.561874
0.561874
0.561874
0.561874
0.561874
0.561875
0.561875
0.561875
0.561875
0.561875
0.561876
0.561876
0.561876
0.561876
0.561876
0.561876
0.561877
0.561877
0.561877
0.561877
0.561877
0.561878
0.561878
0.561878
0.561878
0.561878
0.561878
0.561878
0.561879
0.561879
0.561879
0.561879
0.561879
0.56188
0.56188
0.56188
0.56188
0.56188
0.56188
0.561881
0.561881
0.561881
0.561881
0.561881
0.561882
0.561882
0.561882
0.561882
0.561882
0.561883
0.561883
0.561883
0.561883
0.561883
0.561883
0.561884
0.561884
0.561884
0.561884
0.561884
0.561885
0.561885
0.561885
0.561885
0.561885
0.561886
0.561886
0.561886
0.561886
0.561886
0.561887
0.561887
0.561887
0.561887
0.561887
0.561888
0.561888
0.561888
0.561888
0.561888
0.561888
0.561889
0.561889
0.561889
0.561889
0.561889
0.56189
0.56189
0.56189
0.56189
0.56189
0.561891
0.561891
0.561891
0.561891
0.561891
0.561892
0.561892
0.561892
0.561892
0.561892
0.561893
0.561893
0.561893
0.561893
0.561893
0.561894
0.561894
0.561894
0.561894
0.561894
0.561895
0.561895
0.561895
0.561895
0.561895
0.561896
0.561896
0.561896
0.561896
0.561896
0.561897
0.561897
0.561897
0.561897
0.561898
0.561898
0.561898
0.561898
0.561898
0.561899
0.561899
0.561899
0.561899
0.561899
0.5619
0.5619
0.5619
0.5619
0.5619
0.561901
0.561901
0.561901
0.561901
0.561901
0.561902
0.561902
0.561902
0.561902
0.561903
0.561903
0.561903
0.561903
0.561903
0.561904
0.561904
0.561904
0.561904
0.561904
0.561905
0.561905
0.561905
0.561905
0.561906
0.561906
0.561906
0.561906
0.561906
0.561907
0.561907
0.561907
0.561907
0.561907
0.561908
0.561908
0.561908
0.561909
0.561909
0.561909
0.561909
0.561909
0.56191
0.56191
0.56191
0.56191
0.56191
0.561911
0.561911
0.561911
0.561911
0.561912
0.561912
0.561912
0.561912
0.561912
0.561913
0.561913
0.561913
0.561913
0.561914
0.561914
0.561914
0.561914
0.561915
0.561915
0.561915
0.561915
0.561915
0.561916
0.561916
0.561916
0.561917
0.561917
0.561917
0.561917
0.561917
0.561918
0.561918
0.561918
0.561918
0.561919
0.561919
0.561919
0.561919
0.561919
0.56192
0.56192
0.56192
0.56192
0.561921
0.561921
0.561921
0.561921
0.561922
0.561922
0.561922
0.561922
0.561922
0.561923
0.561923
0.561923
0.561924
0.561924
0.561924
0.561924
0.561925
0.561925
0.561925
0.561925
0.561926
0.561926
0.561926
0.561926
0.561926
0.561927
0.561927
0.561927
0.561927
0.561928
0.561928
0.561928
0.561929
0.561929
0.561929
0.561929
0.56193
0.56193
0.56193
0.56193
0.56193
0.561931
0.561931
0.561931
0.561931
0.561932
0.561932
0.561932
0.561932
0.561933
0.561933
0.561933
0.561934
0.561934
0.561934
0.561934
0.561935
0.561935
0.561935
0.561935
0.561936
0.561936
0.561936
0.561936
0.561937
0.561937
0.561937
0.561938
0.561938
0.561938
0.561938
0.561939
0.561939
0.561939
0.561939
0.56194
0.56194
0.56194
0.56194
0.56194
0.561941
0.561941
0.561941
0.561941
0.561942
0.561942
0.561942
0.561943
0.561943
0.561943
0.561943
0.561944
0.561944
0.561944
0.561944
0.561945
0.561945
0.561945
0.561945
0.561946
0.561946
0.561946
0.561947
0.561947
0.561947
0.561948
0.561948
0.561948
0.561948
0.561949
0.561949
0.561949
0.56195
0.56195
0.56195
0.56195
0.561951
0.561951
0.561951
0.561951
0.561952
0.561952
0.561952
0.561952
0.561953
0.561953
0.561953
0.561954
0.561954
0.561954
0.561954
0.561955
0.561955
0.561955
0.561956
0.561956
0.561956
0.561957
0.561957
0.561957
0.561957
0.561958
0.561958
0.561958
0.561958
0.561959
0.561959
0.561959
0.561959
0.56196
0.56196
0.561961
0.561961
0.561961
0.561961
0.561962
0.561962
0.561962
0.561962
0.561963
0.561963
0.561963
0.561964
0.561964
0.561964
0.561965
0.561965
0.561965
0.561965
0.561966
0.561966
0.561966
0.561967
0.561967
0.561967
0.561967
0.561968
0.561968
0.561968
0.561969
0.561969
0.561969
0.56197
0.56197
0.56197
0.56197
0.561971
0.561971
0.561971
0.561972
0.561972
0.561972
0.561973
0.561973
0.561973
0.561974
0.561974
0.561974
0.561974
0.561975
0.561975
0.561975
0.561976
0.561976
0.561976
0.561977
0.561977
0.561977
0.561977
0.561978
0.561978
0.561978
0.561979
0.561979
0.561979
0.56198
0.56198
0.56198
0.56198
0.561981
0.561981
0.561982
0.561982
0.561982
0.561982
0.561983
0.561983
0.561984
0.561984
0.561984
0.561984
0.561985
0.561985
0.561985
0.561986
0.561986
0.561986
0.561987
0.561987
0.561987
0.561988
0.561988
0.561988
0.561988
0.561989
0.561989
0.56199
0.56199
0.56199
0.56199
0.561991
0.561991
0.561992
0.561992
0.561992
0.561992
0.561993
0.561993
0.561993
0.561994
0.561994
0.561994
0.561995
0.561995
0.561995
0.561996
0.561996
0.561996
0.561996
0.561997
0.561997
0.561998
0.561998
0.561998
0.561999
0.561999
0.561999
0.562
0.562
0.562
0.562001
0.562001
0.562001
0.562001
0.562002
0.562002
0.562003
0.562003
0.562003
0.562004
0.562004
0.562004
0.562005
0.562005
0.562005
0.562006
0.562006
0.562007
0.562007
0.562007
0.562007
0.562008
0.562008
0.562008
0.562009
0.562009
0.56201
0.56201
0.56201
0.56201
0.562011
0.562011
0.562012
0.562012
0.562012
0.562013
0.562013
0.562013
0.562013
0.562014
0.562014
0.562015
0.562015
0.562015
0.562016
0.562016
0.562017
0.562017
0.562017
0.562017
0.562018
0.562018
0.562019
0.562019
0.562019
0.56202
0.56202
0.562021
0.562021
0.562021
0.562021
0.562022
0.562022
0.562022
0.562023
0.562023
0.562024
0.562024
0.562024
0.562025
0.562025
0.562026
0.562026
0.562026
0.562026
0.562027
0.562027
0.562028
0.562028
0.562028
0.562029
0.562029
0.56203
0.56203
0.56203
0.562031
0.562031
0.562031
0.562031
0.562032
0.562032
0.562033
0.562033
0.562033
0.562034
0.562034
0.562035
0.562035
0.562035
0.562036
0.562036
0.562037
0.562037
0.562037
0.562038
0.562038
0.562038
0.562039
0.562039
0.562039
0.56204
0.56204
0.562041
0.562041
0.562041
0.562042
0.562042
0.562043
0.562043
0.562043
0.562044
0.562044
0.562045
0.562045
0.562045
0.562046
0.562046
0.562047
0.562047
0.562047
0.562048
0.562048
0.562049
0.562049
0.562049
0.562049
0.56205
0.56205
0.56205
0.562051
0.562051
0.562052
0.562052
0.562052
0.562053
0.562053
0.562054
0.562054
0.562054
0.562055
0.562055
0.562056
0.562056
0.562056
0.562057
0.562057
0.562058
0.562058
0.562058
0.562059
0.562059
0.56206
0.56206
0.56206
0.562061
0.562061
0.562062
0.562062
0.562062
0.562063
0.562063
0.562064
0.562064
0.562064
0.562065
0.562065
0.562066
0.562066
0.562066
0.562067
0.562067
0.562068
0.562068
0.562068
0.562069
0.562069
0.56207
0.56207
0.56207
0.562071
0.562072
0.562072
0.562073
0.562073
0.562073
0.562074
0.562074
0.562075
0.562075
0.562075
0.562076
0.562076
0.562077
0.562077
0.562077
0.562078
0.562078
0.562079
0.562079
0.562079
0.56208
0.56208
0.562081
0.562081
0.562081
0.562082
0.562083
0.562083
0.562083
0.562084
0.562084
0.562085
0.562085
0.562085
0.562086
0.562086
0.562087
0.562087
0.562087
0.562088
0.562088
0.562089
0.562089
0.562089
0.56209
0.562091
0.562091
0.562092
0.562092
0.562092
0.562093
0.562093
0.562094
0.562094
0.562094
0.562095
0.562095
0.562096
0.562096
0.562097
0.562097
0.562098
0.562098
0.562098
0.562099
0.562099
0.5621
0.5621
0.5621
0.562101
0.562102
0.562102
0.562103
0.562103
0.562103
0.562104
0.562104
0.562105
0.562105
0.562105
0.562106
0.562107
0.562107
0.562107
0.562108
0.562108
0.562109
0.562109
0.562109
0.56211
0.562111
0.562111
0.562112
0.562112
0.562112
0.562113
0.562113
0.562114
0.562114
0.562115
0.562115
0.562116
0.562116
0.562116
0.562117
0.562117
0.562118
0.562119
0.562119
0.562119
0.56212
0.56212
0.562121
0.562121
0.562121
0.562122
0.562123
0.562123
0.562123
0.562124
0.562124
0.562125
0.562126
0.562126
0.562126
0.562127
0.562127
0.562128
0.562128
0.562129
0.562129
0.56213
0.56213
0.56213
0.562131
0.562131
0.562132
0.562133
0.562133
0.562133
0.562134
0.562134
0.562135
0.562135
0.562136
0.562136
0.562137
0.562137
0.562137
0.562138
0.562139
0.562139
0.56214
0.56214
0.562141
0.562141
0.562142
0.562142
0.562142
0.562143
0.562144
0.562144
0.562145
0.562145
0.562145
0.562146
0.562147
0.562147
0.562147
0.562148
0.562148
0.562149
0.56215
0.56215
0.56215
0.562151
0.562152
0.562152
0.562152
0.562153
0.562153
0.562154
0.562155
0.562155
0.562155
0.562156
0.562157
0.562157
0.562157
0.562158
0.562158
0.562159
0.56216
0.56216
0.56216
0.562161
0.562162
0.562162
0.562162
0.562163
0.562164
0.562164
0.562165
0.562165
0.562165
0.562166
0.562167
0.562167
0.562167
0.562168
0.562169
0.562169
0.56217
0.56217
0.562171
0.562171
0.562172
0.562173
0.562173
0.562173
0.562174
0.562174
0.562175
0.562175
0.562176
0.562176
0.562177
0.562178
0.562178
0.562178
0.562179
0.56218
0.56218
0.56218
0.562181
0.562182
0.562182
0.562183
0.562183
0.562184
0.562184
0.562185
0.562186
0.562186
0.562186
0.562187
0.562188
0.562188
0.562188
0.562189
0.56219
0.56219
0.562191
0.562191
0.562192
0.562192
0.562193
0.562194
0.562194
0.562194
0.562195
0.562196
0.562196
0.562196
0.562197
0.562198
0.562198
0.562199
0.562199
0.5622
0.562201
0.562201
0.562202
0.562202
0.562203
0.562203
0.562204
0.562205
0.562205
0.562205
0.562206
0.562207
0.562207
0.562207
0.562208
0.562209
0.56221
0.56221
0.56221
0.562211
0.562212
0.562212
0.562213
0.562213
0.562214
0.562214
0.562215
0.562216
0.562216
0.562217
0.562217
0.562218
0.562219
0.562219
0.562219
0.56222
0.562221
0.562222
0.562222
0.562222
0.562223
0.562224
0.562224
0.562224
0.562225
0.562226
0.562227
0.562227
0.562227
0.562228
0.562229
0.562229
0.56223
0.56223
0.562231
0.562232
0.562232
0.562233
0.562233
0.562234
0.562235
0.562235
0.562236
0.562236
0.562237
0.562237
0.562238
0.562239
0.562239
0.56224
0.56224
0.562241
0.562242
0.562242
0.562243
0.562243
0.562244
0.562245
0.562245
0.562246
0.562246
0.562247
0.562248
0.562248
0.562249
0.562249
0.56225
0.562251
0.562251
0.562252
0.562252
0.562253
0.562254
0.562254
0.562255
0.562255
0.562256
0.562257
0.562257
0.562258
0.562258
0.562259
0.56226
0.56226
0.562261
0.562261
0.562262
0.562263
0.562263
0.562264
0.562264
0.562265
0.562266
0.562266
0.562267
0.562268
0.562268
0.562269
0.562269
0.56227
0.562271
0.562271
0.562272
0.562272
0.562273
0.562274
0.562275
0.562275
0.562275
0.562276
0.562277
0.562278
0.562279
0.562279
0.562279
0.56228
0.562281
0.562282
0.562282
0.562282
0.562283
0.562284
0.562285
0.562285
0.562286
0.562286
0.562287
0.562288
0.562288
0.562289
0.56229
0.56229
0.562291
0.562291
0.562292
0.562293
0.562294
0.562294
0.562294
0.562295
0.562296
0.562297
0.562298
0.562298
0.562299
0.562299
0.5623
0.562301
0.562301
0.562302
0.562303
0.562303
0.562304
0.562304
0.562305
0.562306
0.562307
0.562307
0.562307
0.562308
0.562309
0.56231
0.562311
0.562311
0.562312
0.562312
0.562313
0.562314
0.562314
0.562315
0.562316
0.562317
0.562317
0.562317
0.562318
0.562319
0.56232
0.562321
0.562321
0.562322
0.562323
0.562323
0.562324
0.562324
0.562325
0.562326
0.562327
0.562328
0.562328
0.562328
0.562329
0.56233
0.562331
0.562331
0.562332
0.562333
0.562334
0.562334
0.562334
0.562335
0.562336
0.562337
0.562338
0.562338
0.562339
0.56234
0.56234
0.562341
0.562341
0.562342
0.562343
0.562344
0.562345
0.562345
0.562346
0.562347
0.562347
0.562348
0.562348
0.562349
0.56235
0.562351
0.562352
0.562352
0.562353
0.562354
0.562354
0.562355
0.562355
0.562356
0.562357
0.562358
0.562359
0.562359
0.56236
0.562361
0.562362
0.562363
0.562363
0.562363
0.562364
0.562365
0.562366
0.562366
0.562367
0.562368
0.562369
0.56237
0.56237
0.562371
0.562372
0.562372
0.562373
0.562373
0.562374
0.562375
0.562376
0.562377
0.562377
0.562378
0.562379
0.56238
0.562381
0.562381
0.562382
0.562382
0.562383
0.562384
0.562384
0.562385
0.562386
0.562387
0.562388
0.562388
0.562389
0.56239
0.562391
0.562392
0.562392
0.562393
0.562394
0.562395
0.562396
0.562396
0.562397
0.562397
0.562398
0.562399
0.562399
0.5624
0.562401
0.562402
0.562403
0.562403
0.562404
0.562405
0.562406
0.562407
0.562407
0.562408
0.562409
0.56241
0.562411
0.562411
0.562412
0.562413
0.562414
0.562415
0.562415
0.562416
0.562417
0.562418
0.562418
0.562418
0.562419
0.56242
0.562421
0.562422
0.562422
0.562423
0.562424
0.562425
0.562426
0.562426
0.562427
0.562428
0.562429
0.56243
0.56243
0.562431
0.562432
0.562433
0.562434
0.562434
0.562435
0.562436
0.562437
0.562438
0.562438
0.562439
0.56244
0.562441
0.562442
0.562442
0.562443
0.562444
0.562445
0.562446
0.562446
0.562447
0.562448
0.562449
0.56245
0.56245
0.562451
0.562452
0.562453
0.562454
0.562454
0.562455
0.562456
0.562457
0.562458
0.562458
0.562459
0.56246
0.562461
0.562462
0.562462
0.562463
0.562464
0.562466
0.562467
0.562467
0.562468
0.562469
0.56247
0.562471
0.562471
0.562472
0.562473
0.562474
0.562475
0.562475
0.562476
0.562477
0.562478
0.562479
0.562479
0.56248
0.562481
0.562482
0.562483
0.562483
0.562484
0.562485
0.562486
0.562487
0.562487
0.562489
0.56249
0.562491
0.562492
0.562492
0.562493
0.562494
0.562495
0.562496
0.562496
0.562497
0.562498
0.562499
0.5625
0.5625
0.562501
0.562503
0.562504
0.562505
0.562505
0.562506
0.562507
0.562508
0.562509
0.562509
0.56251
0.562511
0.562512
0.562513
0.562513
0.562514
0.562516
0.562517
0.562518
0.562518
0.562519
0.56252
0.562521
0.562522
0.562522
0.562523
0.562524
0.562526
0.562527
0.562527
0.562528
0.562529
0.56253
0.562531
0.562531
0.562532
0.562533
0.562534
0.562536
0.562536
0.562537
0.562538
0.562539
0.56254
0.56254
0.562541
0.562542
0.562543
0.562545
0.562545
0.562546
0.562547
0.562548
0.562549
0.562549
0.56255
0.562552
0.562553
0.562554
0.562554
0.562555
0.562556
0.562557
0.562558
0.562558
0.56256
0.562561
0.562562
0.562563
0.562563
0.562564
0.562565
0.562567
0.562568
0.562568
0.562569
0.56257
0.562571
0.562572
0.562572
0.562574
0.562575
0.562576
0.562577
0.562577
0.562578
0.56258
0.562581
0.562582
0.562582
0.562583
0.562584
0.562585
0.562587
0.562587
0.562588
0.562589
0.56259
0.562591
0.562591
0.562593
0.562594
0.562595
0.562596
0.562596
0.562597
0.562599
0.5626
0.562601
0.562601
0.562602
0.562604
0.562605
0.562606
0.562606
0.562607
0.562608
0.56261
0.562611
0.562611
0.562612
0.562613
0.562615
0.562616
0.562616
0.562617
0.562618
0.56262
0.562621
0.562621
0.562622
0.562623
0.562624
0.562626
0.562626
0.562627
0.562628
0.562629
0.562631
0.562631
0.562632
0.562633
0.562635
0.562636
0.562636
0.562637
0.562638
0.56264
0.562641
0.562641
0.562642
0.562643
0.562645
0.562646
0.562646
0.562647
0.562648
0.56265
0.562651
0.562651
0.562652
0.562654
0.562655
0.562656
0.562656
0.562657
0.562659
0.56266
0.562661
0.562661
0.562663
0.562664
0.562665
0.562667
0.562667
0.562668
0.562669
0.562671
0.562672
0.562672
0.562673
0.562674
0.562676
0.562677
0.562677
0.562678
0.56268
0.562681
0.562682
0.562682
0.562684
0.562685
0.562686
0.562688
0.562688
0.562689
0.56269
0.562692
0.562693
0.562693
0.562694
0.562696
0.562697
0.562698
0.562698
0.5627
0.562701
0.562702
0.562704
0.562704
0.562705
0.562707
0.562708
0.562709
0.562709
0.562711
0.562712
0.562713
0.562715
0.562715
0.562716
0.562717
0.562719
0.56272
0.56272
0.562722
0.562723
0.562724
0.562726
0.562726
0.562727
0.562729
0.56273
0.562731
0.562731
0.562733
0.562734
0.562736
0.562737
0.562737
0.562738
0.56274
0.562741
0.562743
0.562743
0.562744
0.562745
0.562747
0.562748
0.562748
0.56275
0.562751
0.562752
0.562754
0.562754
0.562755
0.562757
0.562758
0.56276
0.56276
0.562761
0.562763
0.562764
0.562765
0.562765
0.562767
0.562768
0.56277
0.562771
0.562771
0.562773
0.562774
0.562776
0.562777
0.562777
0.562778
0.56278
0.562781
0.562783
0.562783
0.562784
0.562786
0.562787
0.562789
0.562789
0.56279
0.562792
0.562793
0.562795
0.562795
0.562796
0.562798
0.562799
0.562801
0.562801
0.562802
0.562804
0.562805
0.562807
0.562807
0.562808
0.56281
0.562811
0.562813
0.562813
0.562814
0.562816
0.562817
0.562819
0.562819
0.56282
0.562822
0.562823
0.562825
0.562825
0.562826
0.562828
0.562829
0.562831
0.562831
0.562832
0.562834
0.562836
0.562837
0.562837
0.562839
0.56284
0.562842
0.562843
0.562843
0.562845
0.562846
0.562848
0.562849
0.562849
0.562851
0.562853
0.562854
0.562856
0.562856
0.562857
0.562859
0.56286
0.562862
0.562862
0.562864
0.562865
0.562867
0.562868
0.562868
0.56287
0.562872
0.562873
0.562875
0.562875
0.562876
0.562878
0.56288
0.562881
0.562881
0.562883
0.562884
0.562886
0.562888
0.562888
0.562889
0.562891
0.562893
0.562894
0.562894
0.562896
0.562897
0.562899
0.562901
0.562901
0.562902
0.562904
0.562906
0.562907
0.562907
0.562909
0.562911
0.562912
0.562914
0.562914
0.562915
0.562917
0.562919
0.56292
0.56292
0.562922
0.562924
0.562925
0.562927
0.562927
0.562929
0.562931
0.562932
0.562934
0.562934
0.562936
0.562937
0.562939
0.562941
0.562941
0.562942
0.562944
0.562946
0.562947
0.562947
0.562949
0.562951
0.562953
0.562954
0.562954
0.562956
0.562958
0.562959
0.562961
0.562961
0.562963
0.562965
0.562966
0.562968
0.562968
0.56297
0.562972
0.562973
0.562975
0.562975
0.562977
0.562979
0.56298
0.562982
0.562982
0.562984
0.562986
0.562987
0.562989
0.562989
0.562991
0.562993
0.562994
0.562996
0.562996
0.562998
0.563
0.563002
0.563003
0.563003
0.563005
0.563007
0.563009
0.563011
0.563011
0.563012
0.563014
0.563016
0.563018
0.563018
0.56302
0.563021
0.563023
0.563025
0.563025
0.563027
0.563029
0.56303
0.563032
0.563032
0.563034
0.563036
0.563038
0.56304
0.56304
0.563041
0.563043
0.563045
0.563047
0.563047
0.563049
0.563051
0.563053
0.563054
0.563054
0.563056
0.563058
0.56306
0.563062
0.563062
0.563064
0.563066
0.563068
0.563069
0.563069
0.563071
0.563073
0.563075
0.563077
0.563077
0.563079
0.563081
0.563083
0.563085
0.563085
0.563087
0.563089
0.56309
0.563092
0.563092
0.563094
0.563096
0.563098
0.5631
0.5631
0.563102
0.563104
0.563106
0.563108
0.563108
0.56311
0.563112
0.563114
0.563116
0.563116
0.563118
0.56312
0.563121
0.563123
0.563123
0.563125
0.563127
0.563129
0.563131
0.563131
0.563133
0.563135
0.563137
0.563139
0.563139
0.563141
0.563143
0.563145
0.563147
0.563147
0.563149
0.563151
0.563153
0.563155
0.563155
0.563157
0.563159
0.563161
0.563163
0.563163
0.563165
0.563168
0.56317
0.563172
0.563172
0.563174
0.563176
0.563178
0.56318
0.56318
0.563182
0.563184
0.563186
0.563188
0.563188
0.56319
0.563192
0.563194
0.563196
0.563196
0.563198
0.5632
0.563203
0.563205
0.563205
0.563207
0.563209
0.563211
0.563213
0.563213
0.563215
0.563217
0.563219
0.563221
0.563221
0.563224
0.563226
0.563228
0.56323
0.56323
0.563232
0.563234
0.563236
0.563239
0.563239
0.563241
0.563243
0.563245
0.563247
0.563247
0.563249
0.563252
0.563254
0.563256
0.563256
0.563258
0.56326
0.563262
0.563265
0.563265
0.563267
0.563269
0.563271
0.563273
0.563273
0.563276
0.563278
0.56328
0.563282
0.563282
0.563284
0.563287
0.563289
0.563291
0.563291
0.563293
0.563296
0.563298
0.5633
0.5633
0.563302
0.563305
0.563307
0.563309
0.563309
0.563311
0.563313
0.563316
0.563318
0.563318
0.56332
0.563323
0.563325
0.563327
0.563327
0.563329
0.563332
0.563334
0.563336
0.563336
0.563339
0.563341
0.563343
0.563346
0.563346
0.563348
0.56335
0.563353
0.563355
0.563355
0.563357
0.563359
0.563362
0.563364
0.563364
0.563367
0.563369
0.563371
0.563374
0.563374
0.563376
0.563378
0.563381
0.563383
0.563383
0.563385
0.563388
0.56339
0.563393
0.563393
0.563395
0.563397
0.5634
0.563402
0.563402
0.563405
0.563407
0.563409
0.563412
0.563412
0.563414
0.563417
0.563419
0.563422
0.563422
0.563424
0.563426
0.563429
0.563431
0.563431
0.563434
0.563436
0.563439
0.563441
0.563441
0.563444
0.563446
0.563449
0.563451
0.563451
0.563454
0.563456
0.563459
0.563461
0.563461
0.563464
0.563466
0.563469
0.563471
0.563471
0.563474
0.563476
0.563479
0.563481
0.563481
0.563484
0.563486
0.563489
0.563491
0.563491
0.563494
0.563496
0.563499
0.563502
0.563502
0.563504
0.563507
0.563509
0.563512
0.563512
0.563515
0.563517
0.56352
0.563522
0.563522
0.563525
0.563528
0.56353
0.563533
0.563533
0.563535
0.563538
0.563541
0.563543
0.563543
0.563546
0.563549
0.563551
0.563554
0.563554
0.563556
0.563559
0.563562
0.563564
0.563564
0.563567
0.56357
0.563573
0.563575
0.563575
0.563578
0.563581
0.563583
0.563586
0.563586
0.563589
0.563591
0.563594
0.563597
0.563597
0.5636
0.563602
0.563605
0.563608
0.563608
0.563611
0.563613
0.563616
0.563619
0.563619
0.563622
0.563624
0.563627
0.56363
0.56363
0.563633
0.563635
0.563638
0.563641
0.563641
0.563644
0.563647
0.563649
0.563652
0.563652
0.563655
0.563658
0.563661
0.563664
0.563664
0.563666
0.563669
0.563672
0.563675
0.563675
0.563678
0.563681
0.563684
0.563686
0.563686
0.563689
0.563692
0.563695
0.563698
0.563698
0.563701
0.563704
0.563707
0.56371
0.56371
0.563713
0.563715
0.563718
0.563721
0.563721
0.563724
0.563727
0.56373
0.563733
0.563733
0.563736
0.563739
0.563742
0.563745
0.563745
0.563748
0.563751
0.563754
0.563757
0.563757
0.56376
0.563763
0.563766
0.563769
0.563769
0.563772
0.563775
0.563778
0.563781
0.563781
0.563784
0.563787
0.56379
0.563793
0.563793
0.563796
0.563799
0.563802
0.563805
0.563805
0.563809
0.563812
0.563815
0.563818
0.563818
0.563821
0.563824
0.563827
0.56383
0.56383
0.563833
0.563837
0.56384
0.563843
0.563843
0.563846
0.563849
0.563852
0.563855
0.563855
0.563859
0.563862
0.563865
0.563868
0.563868
0.563871
0.563875
0.563878
0.563881
0.563881
0.563884
0.563887
0.563891
0.563894
0.563894
0.563897
0.5639
0.563904
0.563907
0.563907
0.56391
0.563913
0.563917
0.56392
0.56392
0.563923
0.563926
0.56393
0.563933
0.563933
0.563936
0.56394
0.563943
0.563946
0.563946
0.56395
0.563953
0.563956
0.56396
0.56396
0.563963
0.563966
0.56397
0.563973
0.563973
0.563976
0.56398
0.563983
0.563987
0.563987
0.56399
0.563993
0.563997
0.564
0.564
0.564004
0.564007
0.564011
0.564014
0.564014
0.564018
0.564021
0.564024
0.564028
0.564028
0.564031
0.564035
0.564038
0.564042
0.564042
0.564045
0.564049
0.564052
0.564056
0.564056
0.564059
0.564063
0.564066
0.56407
0.56407
0.564074
0.564077
0.564081
0.564084
0.564084
0.564088
0.564091
0.564095
0.564099
0.564099
0.564102
0.564106
0.564109
0.564113
0.564113
0.564117
0.56412
0.564124
0.564128
0.564128
0.564131
0.564135
0.564139
0.564142
0.564142
0.564146
0.56415
0.564153
0.564157
0.564157
0.564161
0.564164
0.564168
0.564172
0.564172
0.564176
0.564179
0.564183
0.564187
0.564187
0.564191
0.564194
0.564198
0.564202
0.564202
0.564206
0.56421
0.564213
0.564217
0.564217
0.564221
0.564225
0.564229
0.564232
0.564232
0.564236
0.56424
0.564244
0.564248
0.564248
0.564252
0.564256
0.56426
0.564263
0.564263
0.564267
0.564271
0.564275
0.564279
0.564279
0.564283
0.564287
0.564291
0.564295
0.564295
0.564299
0.564303
0.564307
0.564311
0.564311
0.564315
0.564319
0.564323
0.564327
0.564327
0.564331
0.564335
0.564339
0.564343
0.564343
0.564347
0.564351
0.564355
0.564359
0.564359
0.564363
0.564367
0.564371
0.564375
0.564375
0.56438
0.564384
0.564388
0.564392
0.564392
0.564396
0.5644
0.564404
0.564409
0.564409
0.564413
0.564417
0.564421
0.564425
0.564425
0.56443
0.564434
0.564438
0.564442
0.564442
0.564446
0.564451
0.564455
0.564459
0.564459
0.564464
0.564468
0.564472
0.564476
0.564476
0.564481
0.564485
0.564489
0.564494
0.564494
0.564498
0.564502
0.564507
0.564511
0.564511
0.564515
0.56452
0.564524
0.564529
0.564529
0.564533
0.564537
0.564542
0.564546
0.564546
0.564551
0.564555
0.56456
0.564564
0.564564
0.564569
0.564573
0.564578
0.564582
0.564582
0.564587
0.564591
0.564596
0.5646
0.5646
0.564605
0.564609
0.564614
0.564618
0.564618
0.564623
0.564628
0.564632
0.564637
0.564637
0.564641
0.564646
0.564651
0.564655
0.564655
0.56466
0.564665
0.564669
0.564674
0.564674
0.564679
0.564683
0.564688
0.564693
0.564693
0.564697
0.564702
0.564707
0.564712
0.564712
0.564716
0.564721
0.564726
0.564731
0.564731
0.564736
0.56474
0.564745
0.56475
0.56475
0.564755
0.56476
0.564765
0.564769
0.564769
0.564774
0.564779
0.564784
0.564789
0.564789
0.564794
0.564799
0.564804
0.564809
0.564809
0.564814
0.564819
0.564824
0.564829
0.564829
0.564834
0.564839
0.564844
0.564849
0.564849
0.564854
0.564859
0.564864
0.564869
0.564869
0.564874
0.564879
0.564884
0.564889
0.564889
0.564894
0.564899
0.564904
0.56491
0.56491
0.564915
0.56492
0.564925
0.56493
0.56493
0.564936
0.564941
0.564946
0.564951
0.564951
0.564956
0.564962
0.564967
0.564972
0.564972
0.564977
0.564983
0.564988
0.564993
0.564993
0.564999
0.565004
0.565009
0.565015
0.565015
0.56502
0.565026
0.565031
0.565036