<?xml version="1.0"?>
<VTKFile type="UnstructuredGrid" version="0.1" byte_order="LittleEndian">
<UnstructuredGrid>
<Piece NumberOfPoints="5000" NumberOfCells="4000">
<PointData Scalars="Reaction 0">
<DataArray type="Float32" Name="Reaction 0" format="ascii">
0.56569
0.56569
0.56569
0.56569
0.56569
0.56569
0.56569
0.56569
0.56569
0.56569
0.56569
0.56569
0.56569
0.56569
0.56569
0.56569
0.565691
0.565691
0.565691
0.565691
0.565691
0.565691
0.565691
0.565691
0.565691
0.565691
0.565691
0.565691
0.565691
0.565691
0.565691
0.565691
0.565691
0.565692
0.565692
0.565692
0.565692
0.565692
0.565692
0.565692
0.565692
0.565692
0.565692
0.565693
0.565693
0.565693
0.565693
0.565693
0.565693
0.565693
0.565693
0.565693
0.565694
0.565694
0.565694
0.565694
0.565694
0.565694
0.565695
0.565695
0.565695
0.565695
0.565695
0.565695
0.565695
0.565695
0.565696
0.565696
0.565696
0.565696
0.565696
0.565697
0.565697
0.565697
0.565697
0.565697
0.565697
0.565698
0.565698
0.565698
0.565698
0.565698
0.565699
0.565699
0.565699
0.565699
0.5657
0.5657
0.5657
0.5657
0.5657
0.565701
0.565701
0.565701
0.565702
0.565702
0.565702
0.565702
0.565702
0.565703
0.565703
0.565703
0.565703
0.565704
0.565704
0.565704
0.565704
0.565705
0.565705
0.565705
0.565705
0.565706
0.565706
0.565706
0.565707
0.565707
0.565707
0.565708
0.565708
0.565708
0.565708
0.565709
0.565709
0.565709
0.56571
0.56571
0.56571
0.565711
0.565711
0.565711
0.565711
0.565712
0.565712
0.565713
0.565713
0.565713
0.565714
0.565714
0.565714
0.565715
0.565715
0.565715
0.565716
0.565716
0.565717
0.565717
0.565717
0.565718
0.565718
0.565718
0.565718
0.565719
0.565719
0.56572
0.56572
0.56572
0.565721
0.565721
0.565722
0.565722
0.565722
0.565723
0.565723
0.565724
0.565724
0.565724
0.565725
0.565726
0.565726
0.565727
0.565727
0.565727
0.565728
0.565728
0.565729
0.565729
0.565729
0.56573
0.56573
0.565731
0.565731
0.565732
0.565732
0.565733
0.565733
0.565733
0.565734
0.565735
0.565735
0.565736
0.565736
0.565736
0.565737
0.565738
0.565738
0.565738
0.565739
0.565739
0.56574
0.565741
0.565741
0.565741
0.565742
0.565743
0.565743
0.565743
0.565744
0.565745
0.565745
0.565746
0.565746
0.565747
0.565747
0.565748
0.565749
0.565749
0.565749
0.56575
0.565751
0.565751
0.565751
0.565752
0.565753
0.565753
0.565754
0.565754
0.565755
0.565756
0.565756
0.565757
0.565757
0.565758
0.565759
0.565759
0.56576
0.56576
0.565761
0.565762
0.565762
0.565763
0.565763
0.565764
0.565765
0.565765
0.565766
0.565766
0.565767
0.565768
0.565769
0.565769
0.565769
0.56577
0.565771
0.565772
0.565773
0.565773
0.565773
0.565774
0.565775
0.565776
0.565776
0.565777
0.565778
0.565778
0.565779
0.565779
0.56578
0.565781
0.565782
0.565783
0.565783
0.565784
0.565784
0.565785
0.565786
0.565786
0.565787
0.565788
0.565789
0.56579
0.56579
0.565791
0.565792
0.565792
0.565793
0.565793
0.565794
0.565795
0.565796
0.565797
0.565797
0.565798
0.565799
0.5658
0.565801
0.565801
0.565802
0.565803
0.565804
0.565805
0.565805
0.565806
0.565807
0.565808
0.565808
0.565808
0.565809
0.56581
0.565811
0.565812
0.565812
0.565813
0.565814
0.565815
0.565816
0.565816
0.565817
0.565819
0.56582
0.565821
0.565821
0.565822
0.565823
0.565824
0.565825
0.565825
0.565826
0.565827
0.565828
0.565829
0.565829
0.56583
0.565831
0.565832
0.565833
0.565833
0.565834
0.565835
0.565837
0.565838
0.565838
0.565839
0.56584
0.565841
0.565842
0.565842
0.565843
0.565844
0.565845
0.565847
0.565847
0.565848
0.565849
0.56585
0.565851
0.565851
0.565852
0.565853
0.565855
0.565856
0.565856
0.565857
0.565858
0.565859
0.56586
0.56586
0.565862
0.565863
0.565864
0.565865
0.565865
0.565866
0.565868
0.565869
0.56587
0.56587
0.565871
0.565873
0.565874
0.565875
0.565875
0.565876
0.565877
0.565879
0.56588
0.56588
0.565881
0.565883
0.565884
0.565885
0.565885
0.565886
0.565888
0.565889
0.56589
0.56589
0.565892
0.565893
0.565894
0.565895
0.565895
0.565897
0.565898
0.565899
0.565901
0.565901
0.565902
0.565903
0.565905
0.565906
0.565906
0.565907
0.565909
0.56591
0.565912
0.565912
0.565913
0.565914
0.565916
0.565917
0.565917
0.565918
0.56592
0.565921
0.565923
0.565923
0.565924
0.565925
0.565927
0.565928
0.565928
0.56593
0.565931
0.565932
0.565934
0.565934
0.565935
0.565937
0.565938
0.56594
0.56594
0.565941
0.565943
0.565944
0.565946
0.565946
0.565947
0.565948
0.56595
0.565951
0.565951
0.565953
0.565954
0.565956
0.565957
0.565957
0.565959
0.56596
0.565962
0.565964
0.565964
0.565965
0.565967
0.565968
0.56597
0.56597
0.565971
0.565973
0.565974
0.565976
0.565976
0.565977
0.565979
0.565981
0.565982
0.565982
0.565984
0.565985
0.565987
0.565989
0.565989
0.56599
0.565992
0.565993
0.565995
0.565995
0.565997
0.565998
0.566
0.566002
0.566002
0.566003
0.566005
0.566006
0.566008
0.566008
0.56601
0.566011
0.566013
0.566015
0.566015
0.566016
0.566018
0.56602
0.566021
0.566021
0.566023
0.566025
0.566027
0.566028
0.566028
0.56603
0.566032
0.566033
0.566035
0.566035
0.566037
0.566039
0.56604
0.566042
0.566042
0.566044
0.566046
0.566047
0.566049
0.566049
0.566051
0.566053
0.566055
0.566056
0.566056
0.566058
0.56606
0.566062
0.566064
0.566064
0.566065
0.566067
0.566069
0.566071
0.566071
0.566073
0.566075
0.566076
0.566078
0.566078
0.56608
0.566082
0.566084
0.566086
0.566086
0.566088
0.566089
0.566091
0.566093
0.566093
0.566095
0.566097
0.566099
0.566101
0.566101
0.566103
0.566105
0.566107
0.566108
0.566108
0.56611
0.566112
0.566114
0.566116
0.566116
0.566118
0.56612
0.566122
0.566124
0.566124
0.566126
0.566128
0.56613
0.566132
0.566132
0.566134
0.566136
0.566138
0.56614
0.56614
0.566142
0.566144
0.566146
0.566148
0.566148
0.56615
0.566152
0.566154
0.566156
0.566156
0.566158
0.56616
0.566162
0.566164
0.566164
0.566167
0.566169
0.566171
0.566173
0.566173
0.566175
0.566177
0.566179
0.566181
0.566181
0.566183
0.566185
0.566188
0.56619
0.56619
0.566192
0.566194
0.566196
0.566198
0.566198
0.5662
0.566202
0.566205
0.566207
0.566207
0.566209
0.566211
0.566213
0.566216
0.566216
0.566218
0.56622
0.566222
0.566224
0.566224
0.566227
0.566229
0.566231
0.566233
0.566233
0.566236
0.566238
0.56624
0.566242
0.566242
0.566245
0.566247
0.566249
0.566251
0.566251
0.566254
0.566256
0.566258
0.566261
0.566261
0.566263
0.566265
0.566268
0.56627
0.56627
0.566272
0.566275
0.566277
0.566279
0.566279
0.566282
0.566284
0.566286
0.566289
0.566289
0.566291
0.566293
0.566296
0.566298
0.566298
0.566301
0.566303
0.566305
0.566308
0.566308
0.56631
0.566313
0.566315
0.566317
0.566317
0.56632
0.566322
0.566325
0.566327
0.566327
0.56633
0.566332
0.566335
0.566337
0.566337
0.56634
0.566342
0.566345
0.566347
0.566347
0.56635
0.566352
0.566355
0.566357
0.566357
0.56636
0.566362
0.566365
0.566367
0.566367
0.56637
0.566372
0.566375
0.566377
0.566377
0.56638
0.566382
0.566385
0.566388
0.566388
0.56639
0.566393
0.566395
0.566398
0.566398
0.566401
0.566403
0.566406
0.566408
0.566408
0.566411
0.566414
0.566416
0.566419
0.566419
0.566422
0.566424
0.566427
0.56643
0.56643
0.566433
0.566435
0.566438
0.566441
0.566441
0.566443
0.566446
0.566449
0.566452
0.566452
0.566454
0.566457
0.56646
0.566463
0.566463
0.566465
0.566468
0.566471
0.566474
0.566474
0.566476
0.566479
0.566482
0.566485
0.566485
0.566488
0.56649
0.566493
0.566496
0.566496
0.566499
0.566502
0.566504
0.566507
0.566507
0.56651
0.566513
0.566516
0.566519
0.566519
0.566522
0.566525
0.566527
0.56653
0.56653
0.566533
0.566536
0.566539
0.566542
0.566542
0.566545
0.566548
0.566551
0.566554
0.566554
0.566557
0.56656
0.566562
0.566565
0.566565
0.566568
0.566571
0.566574
0.566577
0.566577
0.56658
0.566583
0.566586
0.566589
0.566589
0.566592
0.566595
0.566598
0.566602
0.566602
0.566605
0.566608
0.566611
0.566614
0.566614
0.566617
0.56662
0.566623
0.566626
0.566626
0.566629
0.566632
0.566636
0.566639
0.566639
0.566642
0.566645
0.566648
0.566651
0.566651
0.566654
0.566658
0.566661
0.566664
0.566664
0.566667
0.56667
0.566673
0.566677
0.566677
0.56668
0.566683
0.566686
0.566689
0.566689
0.566693
0.566696
0.566699
0.566702
0.566702
0.566706
0.566709
0.566712
0.566715
0.566715
0.566719
0.566722
0.566725
0.566729
0.566729
0.566732
0.566735
0.566739
0.566742
0.566742
0.566745
0.566749
0.566752
0.566755
0.566755
0.566759
0.566762
0.566765
0.566769
0.566769
0.566772
0.566775
0.566779
0.566782
0.566782
0.566786
0.566789
0.566793
0.566796
0.566796
0.566799
0.566803
0.566806
0.56681
0.56681
0.566813
0.566817
0.56682
0.566824
0.566824
0.566827
0.566831
0.566834
0.566838
0.566838
0.566841
0.566845
0.566848
0.566852
0.566852
0.566856
0.566859
0.566863
0.566866
0.566866
0.56687
0.566873
0.566877
0.566881
0.566881
0.566884
0.566888
0.566892
0.566895
0.566895
0.566899
0.566902
0.566906
0.56691
0.56691
0.566913
0.566917
0.566921
0.566924
0.566924
0.566928
0.566932
0.566936
0.566939
0.566939
0.566943
0.566947
0.56695
0.566954
0.566954
0.566958
0.566962
0.566965
0.566969
0.566969
0.566973
0.566977
0.566981
0.566984
0.566984
0.566988
0.566992
0.566996
0.567
0.567
0.567004
0.567007
0.567011
0.567015
0.567015
0.567019
0.567023
0.567027
0.567031
0.567031
0.567035
0.567039
0.567042
0.567046
0.567046
0.56705
0.567054
0.567058
0.567062
0.567062
0.567066
0.56707
0.567074
0.567078
0.567078
0.567082
0.567086
0.56709
0.567094
0.567094
0.567098
0.567102
0.567106
0.56711
0.56711
0.567114
0.567118
0.567122
0.567127
0.567127
0.567131
0.567135
0.567139
0.567143
0.567143
0.567147
0.567151
0.567155
0.567159
0.567159
0.567164
0.567168
0.567172
0.567176
0.567176
0.56718
0.567184
0.567189
0.567193
0.567193
0.567197
0.567201
0.567205
0.56721
0.56721
0.567214
0.567218
0.567222
0.567227
0.567227
0.567231
0.567235
0.56724
0.567244
0.567244
0.567248
0.567253
0.567257
0.567261
0.567261
0.567266
0.56727
0.567274
0.567279
0.567279
0.567283
0.567288
0.567292
0.567296
0.567296
0.567301
0.567305
0.56731
0.567314
0.567314
0.567318
0.567323
0.567327
0.567332
0.567332
0.567336
0.567341
0.567345
0.56735
0.56735
0.567354
0.567359
0.567363
0.567368
0.567368
0.567372
0.567377
0.567381
0.567386
0.567386
0.567391
0.567395
0.5674
0.567404
0.567404
0.567409
0.567414
0.567418
0.567423
0.567423
0.567427
0.567432
0.567437
0.567442
0.567442
0.567446
0.567451
0.567456
0.56746
0.56746
0.567465
0.56747
0.567475
0.567479
0.567479
0.567484
0.567489
0.567494
0.567498
0.567498
0.567503
0.567508
0.567513
0.567518
0.567518
0.567522
0.567527
0.567532
0.567537
0.567537
0.567542
0.567547
0.567552
0.567556
0.567556
0.567561
0.567566
0.567571
0.567576
0.567576
0.567581
0.567586
0.567591
0.567596
0.567596
0.567601
0.567606
0.567611
0.567616
0.567616
0.567621
0.567626
0.567631
0.567636
0.567636
0.567641
0.567646
0.567651
0.567656
0.567656
0.567661
0.567666
0.567671
0.567676
0.567676
0.567682
0.567687
0.567692
0.567697
0.567697
0.567702
0.567707
0.567713
0.567718
0.567718
0.567723
0.567728
0.567733
0.567739
0.567739
0.567744
0.567749
0.567754
0.56776
0.56776
0.567765
0.56777
0.567775
0.567781
0.567781
0.567786
0.567791
0.567797
0.567802
0.567802
0.567807
0.567813
0.567818
0.567823
0.567823
0.567829
0.567834
0.56784
0.567845
0.567845
0.56785
0.567856
0.567861
0.567867
0.567867
0.567872
0.567878
0.567883
0.567889
0.567889
0.567894
0.5679
0.567905
0.567911
0.567911
0.567916
0.567922
0.567928
0.567933
0.567933
0.567939
0.567944
0.56795
0.567956
0.567956
0.567961
0.567967
0.567973
0.567978
0.567978
0.567984
0.56799
0.567995
0.568001
0.568001
0.568007
0.568012
0.568018
0.568024
0.568024
0.56803
0.568035
0.568041
0.568047
0.568047
0.568053
0.568059
0.568064
0.56807
0.56807
0.568076
0.568082
0.568088
0.568094
0.568094
0.5681
0.568105
0.568111
0.568117
0.568117
0.568123
0.568129
0.568135
0.568141
0.568141
0.568147
0.568153
0.568159
0.568165
0.568165
0.568171
0.568177
0.568183
0.568189
0.568189
0.568195
0.568201
0.568207
0.568214
0.568214
0.56822
0.568226
0.568232
0.568238
0.568238
0.568244
0.56825
0.568257
0.568263
0.568263
0.568269
0.568275
0.568281
0.568288
0.568288
0.568294
0.5683
0.568306
0.568313
0.568313
0.568319
0.568325
0.568331
0.568338
0.568338
0.568344
0.56835
0.568357
0.568363
0.568363
0.568369
0.568376
0.568382
0.568389
0.568389
0.568395
0.568402
0.568408
0.568415
0.568415
0.568421
0.568428
0.568434
0.568441
0.568441
0.568447
0.568454
0.56846
0.568467
0.568467
0.568473
0.56848
0.568487
0.568493
0.568493
0.5685
0.568506
0.568513
0.56852
0.56852
0.568526
0.568533
0.56854
0.568546
0.568546
0.568553
0.56856
0.568566
0.568573
0.568573
0.56858
0.568587
0.568593
0.5686
0.5686
0.568607
0.568614
0.568621
0.568628
0.568628
0.568634
0.568641
0.568648
0.568655
0.568655
0.568662
0.568669
0.568676
0.568683
0.568683
0.56869
0.568697
0.568704
0.568711
0.568711
0.568718
0.568725
0.568732
0.568739
0.568739
0.568746
0.568753
0.56876
0.568767
0.568767
0.568775
0.568782
0.568789
0.568796
0.568796
0.568803
0.56881
0.568817
0.568825
0.568825
0.568832
0.568839
0.568846
0.568854
0.568854
0.568861
0.568868
0.568875
0.568883
0.568883
0.56889
0.568897
0.568905
0.568912
0.568912
0.568919
0.568927
0.568934
0.568942
0.568942
0.568949
0.568957
0.568964
0.568972
0.568972
0.568979
0.568987
0.568994
0.569002
0.569002
0.569009
0.569017
0.569024
0.569032
0.569032
0.56904
0.569047
0.569055
0.569062
0.569062
0.56907
0.569078
0.569085
0.569093
0.569093
0.569101
0.569108
0.569116
0.569124
0.569124
0.569132
0.569139
0.569147
0.569155
0.569155
0.569163
0.569171
0.569178
0.569186
0.569186
0.569194
0.569202
0.56921
0.569218
0.569218
0.569226
0.569234
0.569242
0.56925
0.56925
0.569258
0.569266
0.569274
0.569282
0.569282
0.56929
0.569298
0.569306
0.569314
0.569314
0.569322
0.569331
0.569339
0.569347
0.569347
0.569355
0.569363
0.569371
0.56938
0.56938
0.569388
0.569396
0.569404
0.569413
0.569413
0.569421
0.569429
0.569437
0.569446
0.569446
0.569454
0.569463
0.569471
0.569479
0.569479
0.569488
0.569496
0.569505
0.569513
0.569513
0.569522
0.56953
0.569539
0.569547
0.569547
0.569556
0.569564
0.569573
0.569581
0.569581
0.56959
0.569599
0.569607
0.569616
0.569616
0.569625
0.569633
0.569642
0.569651
0.569651
0.569659
0.569668
0.569677
0.569686
0.569686
0.569694
0.569703
0.569712
0.569721
0.569721
0.56973
0.569739
0.569747
0.569756
0.569756
0.569765
0.569774
0.569783
0.569792
0.569792
0.569801
0.56981
0.569819
0.569828
0.569828
0.569837
0.569846
0.569856
0.569865
0.569865
0.569874
0.569883
0.569892
0.569901
0.569901
0.56991
0.56992
0.569929
0.569938
0.569938
0.569947
0.569957
0.569966
0.569975
0.569975
0.569984
0.569994
0.570003
0.570013
0.570013
0.570022
0.570031
0.570041
0.57005
0.57005
0.57006
0.570069
0.570079
0.570088
0.570088
0.570098
0.570107
0.570117
0.570126
0.570126
0.570136
0.570146
0.570155
0.570165
0.570165
0.570175
0.570184
0.570194
0.570204
0.570204
0.570213
0.570223
0.570233
0.570243
0.570243
0.570253
0.570262
0.570272
0.570282
0.570282
0.570292
0.570302
0.570312
0.570322
0.570322
0.570332
0.570342
0.570352
0.570362
0.570362
0.570372
0.570382
0.570392
0.570402
0.570402
0.570412
0.570422
0.570432
0.570442
0.570442
0.570453
0.570463
0.570473
0.570483
0.570483
0.570494
0.570504
0.570514
0.570524
0.570524
0.570535
0.570545
0.570556
0.570566
0.570566
0.570576
0.570587
0.570597
0.570608
0.570608
0.570618
0.570629
0.570639
0.57065
0.57065
0.57066
0.570671
0.570681
0.570692
0.570692
0.570703
0.570713
0.570724
0.570735
0.570735
0.570745
0.570756
0.570767
0.570778
0.570778
0.570788
0.570799
0.57081
0.570821
0.570821
0.570832
0.570843
0.570854
0.570865
0.570865
0.570876
0.570887
0.570898
0.570909
0.570909
0.57092
0.570931
0.570942
0.570953
0.570953
0.570964
0.570975
0.570986
0.570997
0.570997
0.571009
0.57102
0.571031
0.571042
0.571042
0.571054
0.571065
0.571076
0.571087
0.571087
0.571099
0.57111
0.571122
0.571133
0.571133
0.571145
0.571156
0.571168
0.571179
0.571179
0.571191
0.571202
0.571214
0.571225
0.571225
0.571237
0.571249
0.57126
0.571272
0.571272
0.571284
0.571296
0.571307
0.571319
0.571319
0.571331
0.571343
0.571354
0.571366
0.571366
0.571378
0.57139
0.571402
0.571414
0.571414
0.571426
0.571438
0.57145
0.571462
0.571462
0.571474
0.571486
0.571498
0.57151
0.57151
0.571523
0.571535
0.571547
0.571559
0.571559
0.571571
0.571584
0.571596
0.571608
0.571608
0.571621
0.571633
0.571645
0.571658
0.571658
0.57167
0.571683
0.571695
0.571708
0.571708
0.57172
0.571733
0.571745
0.571758
0.571758
0.57177
0.571783
0.571796
0.571808
0.571808
0.571821
0.571834
0.571846
0.571859
0.571859
0.571872
0.571885
0.571898
0.571911
0.571911
0.571924
0.571937
0.571949
0.571962
0.571962
0.571975
0.571988
0.572001
0.572015
0.572015
0.572028
0.572041
0.572054
0.572067
0.572067
0.57208
0.572093
0.572107
0.57212
0.57212
0.572133
0.572146
0.57216
0.572173
0.572173
0.572186
0.5722
0.572213
0.572227
0.572227
0.57224
0.572254
0.572267
0.572281
0.572281
0.572294
0.572308
0.572322
0.572335
0.572335
0.572349
0.572363
0.572377
0.57239
0.57239
0.572404
0.572418
0.572432
0.572446
0.572446
0.572459
0.572473
0.572487
0.572501
0.572501
0.572515
0.572529
0.572543
0.572557
0.572557
0.572571
0.572586
0.5726
0.572614
0.572614
0.572628
0.572642
0.572657
0.572671
0.572671
0.572685
0.5727
0.572714
0.572728
0.572728
0.572743
0.572757
0.572772
0.572786
0.572786
0.572801
0.572815
0.57283
0.572844
0.572844
0.572859
0.572874
0.572888
0.572903
0.572903
0.572918
0.572933
0.572947
0.572962
0.572962
0.572977
0.572992
0.573007
0.573022
0.573022
0.573037
0.573052
0.573067
0.573082
0.573082
0.573097
0.573112
0.573127
0.573142
0.573142
0.573158
0.573173
0.573188
0.573203
0.573203
0.573219
0.573234
0.573249
0.573265
0.573265
0.57328
0.573296
0.573311
0.573326
0.573326
0.573342
0.573358
0.573373
0.573389
0.573389
0.573404
0.57342
0.573436
0.573452
0.573452
0.573467
0.573483
0.573499
0.573515
0.573515
0.573531
0.573547
0.573563
0.573579
0.573579
0.573595
0.573611
0.573627
0.573643
0.573643
0.573659
0.573675
0.573691
0.573707
0.573707
0.573724
0.57374
0.573756
0.573773
0.573773
0.573789
0.573805
0.573822
0.573838
0.573838
0.573855
0.573871
0.573888
0.573904
0.573904
0.573921
0.573938
0.573954
0.573971
0.573971
0.573988
0.574005
0.574021
0.574038
0.574038
0.574055
0.574072
0.574089
0.574106
0.574106
0.574123
0.57414
0.574157
0.574174
0.574174
0.574191
0.574208
0.574225
0.574243
0.574243
0.57426
0.574277
0.574294
0.574312
0.574312
0.574329
0.574347
0.574364
0.574382
0.574382
0.574399
0.574417
0.574434
0.574452
0.574452
0.574469
0.574487
0.574505
0.574523
0.574523
0.57454
0.574558
0.574576
0.574594
0.574594
0.574612
0.57463
0.574648
0.574666
0.574666
0.574684
0.574702
0.57472
0.574738
0.574738
0.574756
0.574774
0.574793
0.574811
0.574811
0.574829
0.574848
0.574866
0.574884
0.574884
0.574903
0.574921
0.57494
0.574958
0.574958
0.574977
0.574996
0.575014
0.575033
0.575033
0.575052
0.575071
0.575089
0.575108
0.575108
0.575127
0.575146
0.575165
0.575184
0.575184
0.575203
0.575222
0.575241
0.57526
0.57526
0.575279
0.575298
0.575318
0.575337
0.575337
0.575356
0.575375
0.575395
0.575414
0.575414
0.575434
0.575453
0.575473
0.575492
0.575492
0.575512
0.575531
0.575551
0.575571
0.575571
0.575591
0.57561
0.57563
0.57565
0.57565
0.57567
0.57569
0.57571
0.57573
0.57573
0.57575
0.57577
0.57579
0.57581
0.57581
0.57583
0.57585
0.575871
0.575891
0.575891
0.575911
0.575932
0.575952
0.575973
0.575973
0.575993
0.576014
0.576034
0.576055
0.576055
0.576075
0.576096
0.576117
0.576137
0.576137
0.576158
0.576179
0.5762
0.576221
0.576221
0.576242
0.576263
0.576284
0.576305
0.576305
0.576326
0.576347
0.576368
0.576389
0.576389
0.576411
0.576432
0.576453
0.576475
0.576475
0.576496
0.576518
0.576539
0.576561
0.576561
0.576582
0.576604
0.576626
0.576647
0.576647
0.576669
0.576691
0.576713
0.576734
0.576734
0.576756
0.576778
0.5768
0.576822
0.576822
0.576844
0.576866
0.576889
0.576911
0.576911
0.576933
0.576955
0.576978
0.577
0.577
0.577022
0.577045
0.577067
0.57709
0.57709
0.577112
0.577135
0.577158
0.57718
0.57718
0.577203
0.577226
0.577249
0.577271
0.577271
0.577294
0.577317
0.57734
0.577363
0.577363
0.577386
0.577409
0.577432
0.577456
0.577456
0.577479
0.577502
0.577526
0.577549
0.577549
0.577572
0.577596
0.577619
0.577643
0.577643
0.577666
0.57769
0.577714
0.577737
0.577737
0.577761
0.577785
0.577809
0.577833
0.577833
0.577857
0.577881
0.577905
0.577929
0.577929
0.577953
0.577977
0.578001
0.578025
0.578025
0.57805
0.578074
0.578098
0.578123
0.578123
0.578147
0.578172
0.578196
0.578221
0.578221
0.578246
0.57827
0.578295
0.57832
0.57832
0.578345
0.57837
0.578394
0.578419
0.578419
0.578444
0.578469
0.578495
0.57852
0.57852
0.578545
0.57857
0.578595
0.578621
0.578621
0.578646
0.578672
0.578697
0.578723
0.578723
0.578748
0.578774
0.5788
0.578825
0.578825
0.578851
0.578877
0.578903
0.578929
0.578929
0.578954
0.57898
0.579006
0.579033
0.579033
0.579059
0.579085
0.579111
0.579137
0.579137
0.579164
0.57919
0.579216
0.579243
0.579243
0.579269
0.579296
0.579323
0.579349
0.579349
0.579376
0.579403
0.57943
0.579456
0.579456
0.579483
0.57951
0.579537
0.579564
0.579564
0.579591
0.579619
0.579646
0.579673
0.579673
0.5797
0.579728
0.579755
0.579782
0.579782
0.57981
0.579838
0.579865
0.579893
0.579893
0.57992
0.579948
0.579976
0.580004
0.580004
0.580032
0.58006
0.580088
0.580116
0.580116
0.580144
0.580172
0.5802
0.580228
0.580228
0.580257
0.580285
0.580313
0.580342
0.580342
0.58037
0.580399
0.580428
0.580456
0.580456
0.580485
0.580514
0.580542
0.580571
0.580571
0.5806
0.580629
0.580658
0.580687
0.580687
0.580716
0.580746
0.580775
0.580804
0.580804
0.580833
0.580863
0.580892
0.580922
0.580922
0.580951
0.580981
0.58101
0.58104
0.58104
0.58107
0.5811
0.58113
0.581159
0.581159
0.581189
0.581219
0.58125
0.58128
0.58128
0.58131
0.58134
0.58137
0.581401
0.581401
0.581431
0.581462
0.581492
0.581523
0.581523
0.581553
0.581584
0.581614
0.581645
0.581645
0.581676
0.581707
0.581738
0.581769
0.581769
0.5818
0.581831
0.581862
0.581893
0.581893
0.581925
0.581956
0.581987
0.582019
0.582019
0.58205
0.582082
0.582113
0.582145
0.582145
0.582177
0.582208
0.58224
0.582272
0.582272
0.582304
0.582336
0.582368
0.5824
0.5824
0.582432
0.582464
0.582496
0.582529
0.582529
0.582561
0.582594
0.582626
0.582659
0.582659
0.582691
0.582724
0.582757
0.582789
0.582789
0.582822
0.582855
0.582888
0.582921
0.582921
0.582954
0.582987
0.58302
0.583053
0.583053
0.583087
0.58312
0.583153
0.583187
0.583187
0.58322
0.583254
0.583287
0.583321
0.583321
0.583355
0.583388
0.583422
0.583456
0.583456
0.58349
0.583524
0.583558
0.583592
0.583592
0.583627
0.583661
0.583695
0.583729
0.583729
0.583764
0.583798
0.583833
0.583867
0.583867
0.583902
0.583937
0.583972
0.584006
0.584006
0.584041
0.584076
0.584111
0.584146
0.584146
0.584181
0.584217
0.584252
0.584287
0.584287
0.584323
0.584358
0.584393
0.584429
0.584429
0.584465
0.5845
0.584536
0.584572
0.584572
0.584607
0.584643
0.584679
0.584715
0.584715
0.584751
0.584788
0.584824
0.58486
0.58486
0.584896
0.584933
0.584969
0.585006
0.585006
0.585042
0.585079
0.585115
0.585152
0.585152
0.585189
0.585226
0.585263
0.5853
0.5853
0.585337
0.585374
0.585411
0.585448
0.585448
0.585485
0.585523
0.58556
0.585598
0.585598
0.585635
0.585673
0.58571
0.585748
0.585748
0.585786
0.585824
0.585862
0.5859
0.5859
0.585938
0.585976
0.586014
0.586052
0.586052
0.58609
0.586129
0.586167
0.586205
0.586205
0.586244
0.586282
0.586321
0.58636
0.58636
0.586399
0.586437
0.586476
0.586515
0.586515
0.586554
0.586593
0.586632
0.586672
0.586672
0.586711
0.58675
0.58679
0.586829
0.586829
0.586868
0.586908
0.586948
0.586987
0.586987
0.587027
0.587067
0.587107
0.587147
0.587147
0.587187
0.587227
0.587267
0.587307
0.587307
0.587347
0.587388
0.587428
0.587468
0.587468
0.587509
0.58755
0.58759
0.587631
0.587631
0.587672
0.587712
0.587753
0.587794
0.587794
0.587835
0.587876
0.587917
0.587959
0.587959
0.588
0.588041
0.588083
0.588124
0.588124
0.588166
0.588207
0.588249
0.588291
0.588291
0.588332
0.588374
0.588416
0.588458
0.588458
0.5885
0.588542
0.588584
0.588626
0.588626
0.588669
0.588711
0.588753
0.588796
0.588796
0.588838
0.588881
0.588924
0.588966
0.588966
0.589009
0.589052
0.589095
0.589138
0.589138
0.589181
0.589224
0.589267
0.58931
0.58931
0.589354
0.589397
0.589441
0.589484
0.589484
0.589528
0.589571
0.589615
0.589659
0.589659
0.589702
0.589746
0.58979
0.589834
0.589834
0.589878
0.589922
0.589967
0.590011
0.590011
0.590055
0.5901
0.590144
0.590189
0.590189
0.590233
0.590278
0.590323
0.590367
0.590367
0.590412
0.590457
0.590502
0.590547
0.590547
0.590592
0.590637
0.590682
0.590728
0.590728
0.590773
0.590819
0.590864
0.59091
0.59091
0.590955
0.591001
0.591047
0.591092
0.591092
0.591138
0.591184
0.59123
0.591276
0.591276
0.591322
0.591368
0.591415
0.591461
0.591461
0.591507
0.591554
0.5916
0.591647
0.591647
0.591694
0.59174
0.591787
0.591834
0.591834
0.591881
0.591928
0.591975
0.592022
0.592022
0.592069
0.592116
0.592163
0.592211
0.592211
0.592258
0.592306
0.592353
0.592401
0.592401
0.592448
0.592496
0.592544
0.592592
0.592592
0.59264
0.592688
0.592736
0.592784
0.592784
0.592832
0.59288
0.592929
0.592977
0.592977
0.593025
0.593074
0.593122
0.593171
0.593171
0.59322
0.593268
0.593317
0.593366
0.593366
0.593415
0.593464
0.593513
0.593562
0.593562
0.593611
0.593661
0.59371
0.593759
0.593759
0.593809
0.593858
0.593908
0.593957
0.593957
0.594007
0.594057
0.594107
0.594157
0.594157
0.594206
0.594256
0.594307
0.594357
0.594357
0.594407
0.594457
0.594507
0.594558
0.594558
0.594608
0.594659
0.594709
0.59476
0.59476
0.594811
0.594861
0.594912
0.594963
0.594963
0.595014
0.595065
0.595116
0.595167
0.595167
0.595218
0.59527
0.595321
0.595372
0.595372
0.595424
0.595475
0.595527
0.595579
0.595579
0.59563
0.595682
0.595734
0.595786
0.595786
0.595838
0.59589
0.595942
0.595994
0.595994
0.596046
0.596098
0.59615
0.596203
0.596203
0.596255
0.596308
0.59636
0.596413
0.596413
0.596466
0.596518
0.596571
0.596624
0.596624
0.596677
0.59673
0.596783
0.596836
0.596836
0.596889
0.596942
0.596996
0.597049
0.597049
0.597102
0.597156
0.597209
0.597263
0.597263
0.597316
0.59737
0.597424
0.597478
0.597478
0.597532
0.597586
0.59764
0.597694
0.597694
0.597748
0.597802
0.597856
0.59791
0.59791
0.597965
0.598019
0.598074
0.598128
0.598128
0.598183
0.598237
0.598292
0.598347
0.598347
0.598402
0.598456
0.598511
0.598566
0.598566
0.598621
0.598677
0.598732
0.598787
0.598787
0.598842
0.598898
0.598953
0.599008
0.599008
0.599064
0.599119
0.599175
0.599231
0.599231
0.599286
0.599342
0.599398
0.599454
0.599454
0.59951
0.599566
0.599622
0.599678
0.599678
0.599734
0.599791
0.599847
0.599903
0.599903
0.59996
0.600016
0.600073
0.600129
0.600129
0.600186
0.600243
0.600299
0.600356
0.600356
0.600413
0.60047
0.600527
0.600584
0.600584
0.600641
0.600698
0.600755
0.600813
0.600813
0.60087
0.600927
0.600985
0.601042
0.601042
0.6011
0.601157
0.601215
0.601272
0.601272
0.60133
0.601388
0.601446
0.601504
0.601504
0.601562
0.60162
0.601678
0.601736
0.601736
0.601794
0.601852
0.60191
0.601969
0.601969
0.602027
0.602085
0.602144
0.602202
0.602202
0.602261
0.60232
0.602378
0.602437
0.602437
0.602496
0.602555
0.602614
0.602672
0.602672
0.602731
0.602791
0.60285
0.602909
0.602909
0.602968
0.603027
0.603086
0.603146
0.603146
0.603205
0.603265
0.603324
0.603384
0.603384
0.603443
0.603503
0.603563
0.603622
0.603622
0.603682
0.603742
0.603802
0.603862
0.603862
0.603922
0.603982
0.604042
0.604102
0.604102
0.604162
0.604222
0.604283
0.604343
0.604343
0.604403
0.604464
0.604524
0.604585
0.604585
0.604645
0.604706
0.604766
0.604827
0.604827
0.604888
0.604949
0.60501
0.60507
0.60507
0.605131
0.605192
0.605253
0.605314
0.605314
0.605375
0.605437
0.605498
0.605559
0.605559
0.60562
0.605682
0.605743
0.605805
0.605805
0.605866
0.605928
0.605989
0.606051
0.606051
0.606112
0.606174
0.606236
0.606298
0.606298
0.606359
0.606421
0.606483
0.606545
0.606545
0.606607
0.606669
0.606731
0.606793
0.606793
0.606856
0.606918
0.60698
0.607042
0.607042
0.607105
0.607167
0.60723
0.607292
0.607292
0.607355
0.607417
0.60748
0.607542
0.607542
0.607605
0.607668
0.60773
0.607793
0.607793
0.607856
0.607919
0.607982
0.608045
0.608045
0.608108
0.608171
0.608234
0.608297
0.608297
0.60836
0.608423
0.608487
0.60855
0.60855
0.608613
0.608677
0.60874
0.608803
0.608803
0.608867
0.60893
0.608994
0.609058
0.609058
0.609121
0.609185
0.609249
0.609312
0.609312
0.609376
0.60944
0.609504
0.609568
0.609568
0.609632
0.609696
0.60976
0.609824
0.609824
0.609888
0.609952
0.610016
0.61008
0.61008
0.610144
0.610209
0.610273
0.610337
0.610337
0.610402
0.610466
0.61053
0.610595
0.610595
0.610659
0.610724
0.610788
0.610853
0.610853
0.610918
0.610982
0.611047
0.611112
0.611112
0.611176
0.611241
0.611306
0.611371
0.611371
0.611436
0.611501
0.611566
0.611631
0.611631
0.611696
0.611761
0.611826
0.611891
0.611891
0.611956
0.612021
0.612087
0.612152
0.612152
0.612217
0.612283
0.612348
0.612413
0.612413
0.612479
0.612544
0.61261
0.612675
0.612675
0.612741
0.612806
0.612872
0.612937
0.612937
0.613003
0.613069
0.613135
0.6132
0.6132
0.613266
0.613332
0.613398
0.613464
0.613464
0.613529
0.613595
0.613661
0.613727
0.613727
0.613793
0.613859
0.613925
0.613992
0.613992
0.614058
0.614124
0.61419
0.614256
0.614256
0.614322
0.614389
0.614455
0.614521
0.614521
0.614588
0.614654
0.61472
0.614787
0.614787
0.614853
0.61492
0.614986
0.615053
0.615053
0.615119
0.615186
0.615252
0.615319
0.615319
0.615386
0.615452
0.615519
0.615586
0.615586
0.615653
0.615719
0.615786
0.615853
0.615853
0.61592
0.615987
0.616054
0.61612
0.61612
0.616187
0.616254
0.616321
0.616388
0.616388
0.616455
0.616522
0.61659
0.616657
0.616657
0.616724
0.616791
0.616858
0.616925
0.616925
0.616993
0.61706
0.617127
0.617194
0.617194
0.617262
0.617329
0.617396
0.617464
0.617464
0.617531
0.617599
0.617666
0.617733
0.617733
0.617801
0.617868
0.617936
0.618003
0.618003
0.618071
0.618139
0.618206
0.618274
0.618274
0.618341
0.618409
0.618477
0.618545
0.618545
0.618612
0.61868
0.618748
0.618816
0.618816
0.618883
0.618951
0.619019
0.619087
0.619087
0.619155
0.619223
0.619291
0.619358
0.619358
0.619426
0.619494
0.619562
0.61963
0.61963
0.619698
0.619766
0.619834
0.619903
0.619903
0.619971
0.620039
0.620107
0.620175
0.620175
0.620243
0.620311
0.62038
0.620448
0.620448
0.620516
0.620584
0.620653
0.620721
0.620721
0.620789
0.620857
0.620926
0.620994
0.620994
0.621062
0.621131
0.621199
0.621268
0.621268
0.621336
0.621404
0.621473
0.621541
0.621541
0.62161
0.621678
0.621747
0.621815
0.621815
0.621884
0.621953
0.622021
0.62209
0.62209
0.622158
0.622227
0.622296
0.622364
0.622364
0.622433
0.622501
0.62257
0.622639
0.622639
0.622708
0.622776
0.622845
0.622914
0.622914
0.622983
0.623051
0.62312
0.623189
0.623189