<?xml version="1.0"?>
<VTKFile type="UnstructuredGrid" version="0.1" byte_order="LittleEndian">
<UnstructuredGrid>
<Piece NumberOfPoints="5000" NumberOfCells="4000">
<PointData Scalars="Reaction 0">
<DataArray type="Float32" Name="Reaction 0" format="ascii">
0.402451
0.402451
0.402451
0.402452
0.402452
0.402452
0.402452
0.402452
0.402452
0.402452
0.402452
0.402453
0.402453
0.402453
0.402453
0.402453
0.402454
0.402454
0.402455
0.402455
0.402455
0.402456
0.402456
0.402457
0.402457
0.402457
0.402458
0.402458
0.402459
0.40246
0.40246
0.402461
0.402461
0.402462
0.402463
0.402463
0.402464
0.402465
0.402466
0.402466
0.402466
0.402467
0.402468
0.402469
0.40247
0.40247
0.402472
0.402473
0.402474
0.402475
0.402475
0.402476
0.402477
0.402479
0.40248
0.40248
0.402481
0.402483
0.402484
0.402485
0.402485
0.402487
0.402488
0.40249
0.402491
0.402491
0.402493
0.402494
0.402496
0.402498
0.402498
0.402499
0.402501
0.402503
0.402504
0.402504
0.402506
0.402508
0.40251
0.402512
0.402512
0.402514
0.402515
0.402517
0.402519
0.402519
0.402521
0.402523
0.402526
0.402528
0.402528
0.40253
0.402532
0.402534
0.402536
0.402536
0.402539
0.402541
0.402543
0.402546
0.402546
0.402548
0.40255
0.402553
0.402555
0.402555
0.402558
0.40256
0.402563
0.402565
0.402565
0.402568
0.402571
0.402573
0.402576
0.402576
0.402579
0.402581
0.402584
0.402587
0.402587
0.40259
0.402593
0.402596
0.402599
0.402599
0.402601
0.402604
0.402607
0.402611
0.402611
0.402614
0.402617
0.40262
0.402623
0.402623
0.402626
0.402629
0.402633
0.402636
0.402636
0.402639
0.402643
0.402646
0.402649
0.402649
0.402653
0.402656
0.40266
0.402663
0.402663
0.402667
0.40267
0.402674
0.402678
0.402678
0.402681
0.402685
0.402689
0.402692
0.402692
0.402696
0.4027
0.402704
0.402708
0.402708
0.402712
0.402716
0.40272
0.402724
0.402724
0.402728
0.402732
0.402736
0.40274
0.40274
0.402744
0.402748
0.402752
0.402756
0.402756
0.402761
0.402765
0.402769
0.402774
0.402774
0.402778
0.402782
0.402787
0.402791
0.402791
0.402796
0.4028
0.402805
0.402809
0.402809
0.402814
0.402819
0.402823
0.402828
0.402828
0.402833
0.402838
0.402842
0.402847
0.402847
0.402852
0.402857
0.402862
0.402867
0.402867
0.402872
0.402877
0.402882
0.402887
0.402887
0.402892
0.402897
0.402902
0.402907
0.402907
0.402912
0.402918
0.402923
0.402928
0.402928
0.402933
0.402939
0.402944
0.40295
0.40295
0.402955
0.40296
0.402966
0.402971
0.402971
0.402977
0.402983
0.402988
0.402994
0.402994
0.403
0.403005
0.403011
0.403017
0.403017
0.403022
0.403028
0.403034
0.40304
0.40304
0.403046
0.403052
0.403058
0.403064
0.403064
0.40307
0.403076
0.403082
0.403088
0.403088
0.403094
0.4031
0.403107
0.403113
0.403113
0.403119
0.403125
0.403132
0.403138
0.403138
0.403144
0.403151
0.403157
0.403164
0.403164
0.40317
0.403177
0.403183
0.40319
0.40319
0.403196
0.403203
0.40321
0.403216
0.403216
0.403223
0.40323
0.403237
0.403243
0.403243
0.40325
0.403257
0.403264
0.403271
0.403271
0.403278
0.403285
0.403292
0.403299
0.403299
0.403306
0.403313
0.40332
0.403328
0.403328
0.403335
0.403342
0.403349
0.403356
0.403356
0.403364
0.403371
0.403379
0.403386
0.403386
0.403393
0.403401
0.403408
0.403416
0.403416
0.403423
0.403431
0.403439
0.403446
0.403446
0.403454
0.403462
0.403469
0.403477
0.403477
0.403485
0.403493
0.403501
0.403508
0.403508
0.403516
0.403524
0.403532
0.40354
0.40354
0.403548
0.403556
0.403564
0.403572
0.403572
0.403581
0.403589
0.403597
0.403605
0.403605
0.403613
0.403622
0.40363
0.403638
0.403638
0.403647
0.403655
0.403664
0.403672
0.403672
0.403681
0.403689
0.403698
0.403706
0.403706
0.403715
0.403723
0.403732
0.403741
0.403741
0.40375
0.403758
0.403767
0.403776
0.403776
0.403785
0.403794
0.403803
0.403811
0.403811
0.40382
0.403829
0.403838
0.403848
0.403848
0.403857
0.403866
0.403875
0.403884
0.403884
0.403893
0.403902
0.403912
0.403921
0.403921
0.40393
0.40394
0.403949
0.403958
0.403958
0.403968
0.403977
0.403987
0.403996
0.403996
0.404006
0.404016
0.404025
0.404035
0.404035
0.404044
0.404054
0.404064
0.404074
0.404074
0.404083
0.404093
0.404103
0.404113
0.404113
0.404123
0.404133
0.404143
0.404153
0.404153
0.404163
0.404173
0.404183
0.404193
0.404193
0.404203
0.404213
0.404224
0.404234
0.404234
0.404244
0.404254
0.404265
0.404275
0.404275
0.404285
0.404296
0.404306
0.404317
0.404317
0.404327
0.404338
0.404348
0.404359
0.404359
0.40437
0.40438
0.404391
0.404402
0.404402
0.404412
0.404423
0.404434
0.404445
0.404445
0.404456
0.404466
0.404477
0.404488
0.404488
0.404499
0.40451
0.404521
0.404532
0.404532
0.404543
0.404555
0.404566
0.404577
0.404577
0.404588
0.404599
0.404611
0.404622
0.404622
0.404633
0.404645
0.404656
0.404667
0.404667
0.404679
0.40469
0.404702
0.404713
0.404713
0.404725
0.404736
0.404748
0.40476
0.40476
0.404771
0.404783
0.404795
0.404807
0.404807
0.404818
0.40483
0.404842
0.404854
0.404854
0.404866
0.404878
0.40489
0.404902
0.404902
0.404914
0.404926
0.404938
0.40495
0.40495
0.404962
0.404974
0.404987
0.404999
0.404999
0.405011
0.405023
0.405036
0.405048
0.405048
0.40506
0.405073
0.405085
0.405098
0.405098
0.40511
0.405123
0.405135
0.405148
0.405148
0.405161
0.405173
0.405186
0.405199
0.405199
0.405211
0.405224
0.405237
0.40525
0.40525
0.405263
0.405276
0.405288
0.405301
0.405301
0.405314
0.405327
0.40534
0.405353
0.405353
0.405367
0.40538
0.405393
0.405406
0.405406
0.405419
0.405432
0.405446
0.405459
0.405459
0.405472
0.405486
0.405499
0.405513
0.405513
0.405526
0.405539
0.405553
0.405567
0.405567
0.40558
0.405594
0.405607
0.405621
0.405621
0.405635
0.405648
0.405662
0.405676
0.405676
0.40569
0.405704
0.405717
0.405731
0.405731
0.405745
0.405759
0.405773
0.405787
0.405787
0.405801
0.405815
0.405829
0.405843
0.405843
0.405858
0.405872
0.405886
0.4059
0.4059
0.405915
0.405929
0.405943
0.405958
0.405958
0.405972
0.405986
0.406001
0.406015
0.406015
0.40603
0.406044
0.406059
0.406074
0.406074
0.406088
0.406103
0.406118
0.406132
0.406132
0.406147
0.406162
0.406177
0.406191
0.406191
0.406206
0.406221
0.406236
0.406251
0.406251
0.406266
0.406281
0.406296
0.406311
0.406311
0.406326
0.406341
0.406357
0.406372
0.406372
0.406387
0.406402
0.406417
0.406433
0.406433
0.406448
0.406463
0.406479
0.406494
0.406494
0.40651
0.406525
0.406541
0.406556
0.406556
0.406572
0.406588
0.406603
0.406619
0.406619
0.406634
0.40665
0.406666
0.406682
0.406682
0.406698
0.406713
0.406729
0.406745
0.406745
0.406761
0.406777
0.406793
0.406809
0.406809
0.406825
0.406841
0.406857
0.406873
0.406873
0.40689
0.406906
0.406922
0.406938
0.406938
0.406955
0.406971
0.406987
0.407004
0.407004
0.40702
0.407036
0.407053
0.407069
0.407069
0.407086
0.407102
0.407119
0.407136
0.407136
0.407152
0.407169
0.407186
0.407202
0.407202
0.407219
0.407236
0.407253
0.40727
0.40727
0.407286
0.407303
0.40732
0.407337
0.407337
0.407354
0.407371
0.407388
0.407405
0.407405
0.407423
0.40744
0.407457
0.407474
0.407474
0.407491
0.407509
0.407526
0.407543
0.407543
0.407561
0.407578
0.407595
0.407613
0.407613
0.40763
0.407648
0.407665
0.407683
0.407683
0.4077
0.407718
0.407736
0.407753
0.407753
0.407771
0.407789
0.407807
0.407824
0.407824
0.407842
0.40786
0.407878
0.407896
0.407896
0.407914
0.407932
0.40795
0.407968
0.407968
0.407986
0.408004
0.408022
0.40804
0.40804
0.408058
0.408077
0.408095
0.408113
0.408113
0.408131
0.40815
0.408168
0.408186
0.408186
0.408205
0.408223
0.408242
0.40826
0.40826
0.408279
0.408297
0.408316
0.408335
0.408335
0.408353
0.408372
0.408391
0.408409
0.408409
0.408428
0.408447
0.408466
0.408485
0.408485
0.408503
0.408522
0.408541
0.40856
0.40856
0.408579
0.408598
0.408617
0.408637
0.408637
0.408656
0.408675
0.408694
0.408713
0.408713
0.408732
0.408752
0.408771
0.40879
0.40879
0.40881
0.408829
0.408849
0.408868
0.408868
0.408887
0.408907
0.408927
0.408946
0.408946
0.408966
0.408985
0.409005
0.409025
0.409025
0.409044
0.409064
0.409084
0.409104
0.409104
0.409124
0.409143
0.409163
0.409183
0.409183
0.409203
0.409223
0.409243
0.409263
0.409263
0.409283
0.409303
0.409324
0.409344
0.409344
0.409364
0.409384
0.409404
0.409425
0.409425
0.409445
0.409465
0.409486
0.409506
0.409506
0.409527
0.409547
0.409567
0.409588
0.409588
0.409609
0.409629
0.40965
0.40967
0.40967
0.409691
0.409712
0.409732
0.409753
0.409753
0.409774
0.409795
0.409816
0.409837
0.409837
0.409857
0.409878
0.409899
0.40992
0.40992
0.409941
0.409962
0.409983
0.410005
0.410005
0.410026
0.410047
0.410068
0.410089
0.410089
0.410111
0.410132
0.410153
0.410175
0.410175
0.410196
0.410217
0.410239
0.41026
0.41026
0.410282
0.410303
0.410325
0.410346
0.410346
0.410368
0.41039
0.410411
0.410433
0.410433
0.410455
0.410477
0.410498
0.41052
0.41052
0.410542
0.410564
0.410586
0.410608
0.410608
0.41063
0.410652
0.410674
0.410696
0.410696
0.410718
0.41074
0.410762
0.410784
0.410784
0.410807
0.410829
0.410851
0.410873
0.410873
0.410896
0.410918
0.410941
0.410963
0.410963
0.410985
0.411008
0.41103
0.411053
0.411053
0.411075
0.411098
0.411121
0.411143
0.411143
0.411166
0.411189
0.411211
0.411234
0.411234
0.411257
0.41128
0.411303
0.411326
0.411326
0.411349
0.411372
0.411395
0.411418
0.411418
0.411441
0.411464
0.411487
0.41151
0.41151
0.411533
0.411556
0.411579
0.411603
0.411603
0.411626
0.411649
0.411673
0.411696
0.411696
0.411719
0.411743
0.411766
0.41179
0.41179
0.411813
0.411837
0.41186
0.411884
0.411884
0.411908
0.411931
0.411955
0.411979
0.411979
0.412003
0.412026
0.41205
0.412074
0.412074
0.412098
0.412122
0.412146
0.41217
0.41217
0.412194
0.412218
0.412242
0.412266
0.412266
0.41229
0.412314
0.412338
0.412362
0.412362
0.412387
0.412411
0.412435
0.41246
0.41246
0.412484
0.412508
0.412533
0.412557
0.412557
0.412582
0.412606
0.412631
0.412655
0.412655
0.41268
0.412704
0.412729
0.412754
0.412754
0.412778
0.412803
0.412828
0.412853
0.412853
0.412878
0.412902
0.412927
0.412952
0.412952
0.412977
0.413002
0.413027
0.413052
0.413052
0.413077
0.413102
0.413127
0.413153
0.413153
0.413178
0.413203
0.413228
0.413254
0.413254
0.413279
0.413304
0.41333
0.413355
0.413355
0.41338
0.413406
0.413431
0.413457
0.413457
0.413482
0.413508
0.413534
0.413559
0.413559
0.413585
0.413611
0.413636
0.413662
0.413662
0.413688
0.413714
0.413739
0.413765
0.413765
0.413791
0.413817
0.413843
0.413869
0.413869
0.413895
0.413921
0.413947
0.413973
0.413973
0.413999
0.414026
0.414052
0.414078
0.414078
0.414104
0.414131
0.414157
0.414183
0.414183
0.41421
0.414236
0.414262
0.414289
0.414289
0.414315
0.414342
0.414369
0.414395
0.414395
0.414422
0.414448
0.414475
0.414502
0.414502
0.414528
0.414555
0.414582
0.414609
0.414609
0.414636
0.414663
0.41469
0.414716
0.414716
0.414743
0.41477
0.414797
0.414825
0.414825
0.414852
0.414879
0.414906
0.414933
0.414933
0.41496
0.414988
0.415015
0.415042
0.415042
0.415069
0.415097
0.415124
0.415152
0.415152
0.415179
0.415207
0.415234
0.415262
0.415262
0.415289
0.415317
0.415344
0.415372
0.415372
0.4154
0.415427
0.415455
0.415483
0.415483
0.415511
0.415539
0.415567
0.415594
0.415594
0.415622
0.41565
0.415678
0.415706
0.415706
0.415734
0.415762
0.415791
0.415819
0.415819
0.415847
0.415875
0.415903
0.415932
0.415932
0.41596
0.415988
0.416016
0.416045
0.416045
0.416073
0.416102
0.41613
0.416159
0.416159
0.416187
0.416216
0.416244
0.416273
0.416273
0.416302
0.41633
0.416359
0.416388
0.416388
0.416416
0.416445
0.416474
0.416503
0.416503
0.416532
0.416561
0.41659
0.416619
0.416619
0.416648
0.416677
0.416706
0.416735
0.416735
0.416764
0.416793
0.416822
0.416852
0.416852
0.416881
0.41691
0.416939
0.416969
0.416969
0.416998
0.417027
0.417057
0.417086
0.417086
0.417116
0.417145
0.417175
0.417204
0.417204
0.417234
0.417264
0.417293
0.417323
0.417323
0.417353
0.417383
0.417412
0.417442
0.417442
0.417472
0.417502
0.417532
0.417562
0.417562
0.417592
0.417622
0.417652
0.417682
0.417682
0.417712
0.417742
0.417772
0.417802
0.417802
0.417832
0.417863
0.417893
0.417923
0.417923
0.417954
0.417984
0.418014
0.418045
0.418045
0.418075
0.418106
0.418136
0.418167
0.418167
0.418197
0.418228
0.418258
0.418289
0.418289
0.41832
0.41835
0.418381
0.418412
0.418412
0.418443
0.418474
0.418504
0.418535
0.418535
0.418566
0.418597
0.418628
0.418659
0.418659
0.41869
0.418721
0.418752
0.418784
0.418784
0.418815
0.418846
0.418877
0.418908
0.418908
0.41894
0.418971
0.419002
0.419034
0.419034
0.419065
0.419097
0.419128
0.41916
0.41916
0.419191
0.419223
0.419254
0.419286
0.419286
0.419317
0.419349
0.419381
0.419413
0.419413
0.419444
0.419476
0.419508
0.41954
0.41954
0.419572
0.419604
0.419635
0.419667
0.419667
0.419699
0.419731
0.419764
0.419796
0.419796
0.419828
0.41986
0.419892
0.419924
0.419924
0.419957
0.419989
0.420021
0.420053
0.420053
0.420086
0.420118
0.420151
0.420183
0.420183
0.420216
0.420248
0.420281
0.420313
0.420313
0.420346
0.420378
0.420411
0.420444
0.420444
0.420477
0.420509
0.420542
0.420575
0.420575
0.420608
0.420641
0.420674
0.420706
0.420706
0.420739
0.420772
0.420805
0.420838
0.420838
0.420872
0.420905
0.420938
0.420971
0.420971
0.421004
0.421037
0.421071
0.421104
0.421104
0.421137
0.421171
0.421204
0.421237
0.421237
0.421271
0.421304
0.421338
0.421371
0.421371
0.421405
0.421439
0.421472
0.421506
0.421506
0.42154
0.421573
0.421607
0.421641
0.421641
0.421675
0.421708
0.421742
0.421776
0.421776
0.42181
0.421844
0.421878
0.421912
0.421912
0.421946
0.42198
0.422014
0.422048
0.422048
0.422083
0.422117
0.422151
0.422185
0.422185
0.42222
0.422254
0.422288
0.422323
0.422323
0.422357
0.422392
0.422426
0.42246
0.42246
0.422495
0.42253
0.422564
0.422599
0.422599
0.422633
0.422668
0.422703
0.422738
0.422738
0.422772
0.422807
0.422842
0.422877
0.422877
0.422912
0.422947
0.422982
0.423017
0.423017
0.423052
0.423087
0.423122
0.423157
0.423157
0.423192
0.423227
0.423262
0.423298
0.423298
0.423333
0.423368
0.423403
0.423439
0.423439
0.423474
0.423509
0.423545
0.42358
0.42358
0.423616
0.423651
0.423687
0.423723
0.423723
0.423758
0.423794
0.423829
0.423865
0.423865
0.423901
0.423937
0.423973
0.424008
0.424008
0.424044
0.42408
0.424116
0.424152
0.424152
0.424188
0.424224
0.42426
0.424296
0.424296
0.424332
0.424368
0.424404
0.424441
0.424441
0.424477
0.424513
0.424549
0.424586
0.424586
0.424622
0.424658
0.424695
0.424731
0.424731
0.424768
0.424804
0.424841
0.424877
0.424877
0.424914
0.42495
0.424987
0.425024
0.425024
0.42506
0.425097
0.425134
0.425171
0.425171
0.425208
0.425244
0.425281
0.425318
0.425318
0.425355
0.425392
0.425429
0.425466
0.425466
0.425503
0.42554
0.425578
0.425615
0.425615
0.425652
0.425689
0.425726
0.425764
0.425764
0.425801
0.425838
0.425876
0.425913
0.425913
0.42595
0.425988
0.426025
0.426063
0.426063
0.4261
0.426138
0.426176
0.426213
0.426213
0.426251
0.426289
0.426326
0.426364
0.426364
0.426402
0.42644
0.426478
0.426516
0.426516
0.426553
0.426591
0.426629
0.426667
0.426667
0.426705
0.426744
0.426782
0.42682
0.42682
0.426858
0.426896
0.426934
0.426973
0.426973
0.427011
0.427049
0.427087
0.427126
0.427126
0.427164
0.427203
0.427241
0.42728
0.42728
0.427318
0.427357
0.427395
0.427434
0.427434
0.427473
0.427511
0.42755
0.427589
0.427589
0.427627
0.427666
0.427705
0.427744
0.427744
0.427783
0.427822
0.427861
0.4279
0.4279
0.427939
0.427978
0.428017
0.428056
0.428056
0.428095
0.428134
0.428173
0.428213
0.428213
0.428252
0.428291
0.42833
0.42837
0.42837
0.428409
0.428449
0.428488
0.428527
0.428527
0.428567
0.428606
0.428646
0.428686
0.428686
0.428725
0.428765
0.428805
0.428844
0.428844
0.428884
0.428924
0.428964
0.429003
0.429003
0.429043
0.429083
0.429123
0.429163
0.429163
0.429203
0.429243
0.429283
0.429323
0.429323
0.429363
0.429403
0.429443
0.429484
0.429484
0.429524
0.429564
0.429604
0.429645
0.429645
0.429685
0.429725
0.429766
0.429806
0.429806
0.429847
0.429887
0.429928
0.429968
0.429968
0.430009
0.43005
0.43009
0.430131
0.430131
0.430172
0.430212
0.430253
0.430294
0.430294
0.430335
0.430376
0.430417
0.430457
0.430457
0.430498
0.430539
0.43058
0.430622
0.430622
0.430663
0.430704
0.430745
0.430786
0.430786
0.430827
0.430868
0.43091
0.430951
0.430951
0.430992
0.431034
0.431075
0.431116
0.431116
0.431158
0.431199
0.431241
0.431282
0.431282
0.431324
0.431366
0.431407
0.431449
0.431449
0.431491
0.431532
0.431574
0.431616
0.431616
0.431658
0.431699
0.431741
0.431783
0.431783
0.431825
0.431867
0.431909
0.431951
0.431951
0.431993
0.432035
0.432077
0.43212
0.43212
0.432162
0.432204
0.432246
0.432288
0.432288
0.432331
0.432373
0.432415
0.432458
0.432458
0.4325
0.432543
0.432585
0.432628
0.432628
0.43267
0.432713
0.432755
0.432798
0.432798
0.432841
0.432883
0.432926
0.432969
0.432969
0.433012
0.433055
0.433097
0.43314
0.43314
0.433183
0.433226
0.433269
0.433312
0.433312
0.433355
0.433398
0.433441
0.433484
0.433484
0.433528
0.433571
0.433614
0.433657
0.433657
0.433701
0.433744
0.433787
0.433831
0.433831
0.433874
0.433917
0.433961
0.434004
0.434004
0.434048
0.434091
0.434135
0.434179
0.434179
0.434222
0.434266
0.43431
0.434353
0.434353
0.434397
0.434441
0.434485
0.434529
0.434529
0.434573
0.434616
0.43466
0.434704
0.434704
0.434748
0.434792
0.434837
0.434881
0.434881
0.434925
0.434969
0.435013
0.435057
0.435057
0.435102
0.435146
0.43519
0.435235
0.435235
0.435279
0.435323
0.435368
0.435412
0.435412
0.435457
0.435501
0.435546
0.435591
0.435591
0.435635
0.43568
0.435725
0.435769
0.435769
0.435814
0.435859
0.435904
0.435949
0.435949
0.435993
0.436038
0.436083
0.436128
0.436128
0.436173
0.436218
0.436263
0.436308
0.436308
0.436353
0.436399
0.436444
0.436489
0.436489
0.436534
0.43658
0.436625
0.43667
0.43667
0.436716
0.436761
0.436806
0.436852
0.436852
0.436897
0.436943
0.436988
0.437034
0.437034
0.43708
0.437125
0.437171
0.437217
0.437217
0.437262
0.437308
0.437354
0.4374
0.4374
0.437446
0.437492
0.437538
0.437583
0.437583
0.437629
0.437675
0.437722
0.437768
0.437768
0.437814
0.43786
0.437906
0.437952
0.437952
0.437998
0.438045
0.438091
0.438137
0.438137
0.438184
0.43823
0.438276
0.438323
0.438323
0.438369
0.438416
0.438462
0.438509
0.438509
0.438556
0.438602
0.438649
0.438696
0.438696
0.438742
0.438789
0.438836
0.438883
0.438883
0.43893
0.438976
0.439023
0.43907
0.43907
0.439117
0.439164
0.439211
0.439258
0.439258
0.439305
0.439353
0.4394
0.439447
0.439447
0.439494
0.439541
0.439589
0.439636
0.439636
0.439683
0.439731
0.439778
0.439826
0.439826
0.439873
0.439921
0.439968
0.440016
0.440016
0.440063
0.440111
0.440159
0.440206
0.440206
0.440254
0.440302
0.440349
0.440397
0.440397
0.440445
0.440493
0.440541
0.440589
0.440589
0.440637
0.440685
0.440733
0.440781
0.440781
0.440829
0.440877
0.440925
0.440973
0.440973
0.441022
0.44107
0.441118
0.441166
0.441166
0.441215
0.441263
0.441312
0.44136
0.44136
0.441408
0.441457
0.441505
0.441554
0.441554
0.441603
0.441651
0.4417
0.441749
0.441749
0.441797
0.441846
0.441895
0.441944
0.441944
0.441992
0.442041
0.44209
0.442139
0.442139
0.442188
0.442237
0.442286
0.442335
0.442335
0.442384
0.442433
0.442482
0.442532
0.442532
0.442581
0.44263
0.442679
0.442729
0.442729
0.442778
0.442827
0.442877
0.442926
0.442926
0.442976
0.443025
0.443075
0.443124
0.443124
0.443174
0.443223
0.443273
0.443323
0.443323
0.443372
0.443422
0.443472
0.443522
0.443522
0.443571
0.443621
0.443671
0.443721
0.443721
0.443771
0.443821
0.443871
0.443921
0.443921
0.443971
0.444021
0.444071
0.444122
0.444122
0.444172
0.444222
0.444272
0.444323
0.444323
0.444373
0.444423
0.444474
0.444524
0.444524
0.444575
0.444625
0.444676
0.444726
0.444726
0.444777
0.444827
0.444878
0.444929
0.444929
0.444979
0.44503
0.445081
0.445132
0.445132
0.445182
0.445233
0.445284
0.445335
0.445335
0.445386
0.445437
0.445488
0.445539
0.445539
0.44559
0.445641
0.445692
0.445744
0.445744
0.445795
0.445846
0.445897
0.445949
0.445949
0.446
0.446051
0.446103
0.446154
0.446154
0.446206
0.446257
0.446309
0.44636
0.44636
0.446412
0.446463
0.446515
0.446567
0.446567
0.446618
0.44667
0.446722
0.446774
0.446774
0.446825
0.446877
0.446929
0.446981
0.446981
0.447033
0.447085
0.447137
0.447189
0.447189
0.447241
0.447293
0.447345
0.447398
0.447398
0.44745
0.447502
0.447554
0.447607
0.447607
0.447659
0.447711
0.447764
0.447816
0.447816
0.447869
0.447921
0.447974
0.448026
0.448026
0.448079
0.448131
0.448184
0.448237
0.448237
0.448289
0.448342
0.448395
0.448448
0.448448
0.4485
0.448553
0.448606
0.448659
0.448659
0.448712
0.448765
0.448818
0.448871
0.448871
0.448924
0.448977
0.449031
0.449084
0.449084
0.449137
0.44919
0.449243
0.449297
0.449297
0.44935
0.449403
0.449457
0.44951
0.44951
0.449564
0.449617
0.449671
0.449724
0.449724
0.449778
0.449831
0.449885
0.449939
0.449939
0.449993
0.450046
0.4501
0.450154
0.450154
0.450208
0.450262
0.450315
0.450369
0.450369
0.450423
0.450477
0.450531
0.450585
0.450585
0.45064
0.450694
0.450748
0.450802
0.450802
0.450856
0.45091
0.450965
0.451019
0.451019
0.451073
0.451128
0.451182
0.451237
0.451237
0.451291
0.451346
0.4514
0.451455
0.451455
0.451509
0.451564
0.451619
0.451673
0.451673
0.451728
0.451783
0.451838
0.451892
0.451892
0.451947
0.452002
0.452057
0.452112
0.452112
0.452167
0.452222
0.452277
0.452332
0.452332
0.452387
0.452442
0.452497
0.452553
0.452553
0.452608
0.452663
0.452718
0.452774
0.452774
0.452829
0.452884
0.45294
0.452995
0.452995
0.453051
0.453106
0.453162
0.453217
0.453217
0.453273
0.453329
0.453384
0.45344
0.45344
0.453496
0.453552
0.453607
0.453663
0.453663
0.453719
0.453775
0.453831
0.453887
0.453887
0.453943
0.453999
0.454055
0.454111
0.454111
0.454167
0.454223
0.454279
0.454336
0.454336
0.454392
0.454448
0.454505
0.454561
0.454561
0.454617
0.454674
0.45473
0.454787
0.454787
0.454843
0.4549
0.454956
0.455013
0.455013
0.455069
0.455126
0.455183
0.455239
0.455239
0.455296
0.455353
0.45541
0.455467
0.455467
0.455523
0.45558
0.455637
0.455694
0.455694
0.455751
0.455808
0.455865
0.455923
0.455923
0.45598
0.456037
0.456094
0.456151
0.456151
0.456209
0.456266
0.456323
0.456381
0.456381
0.456438
0.456495
0.456553
0.45661
0.45661
0.456668
0.456725
0.456783
0.456841
0.456841
0.456898
0.456956
0.457014
0.457071
0.457071
0.457129
0.457187
0.457245
0.457303
0.457303
0.45736
0.457418
0.457476
0.457534
0.457534
0.457592
0.45765
0.457709
0.457767
0.457767
0.457825
0.457883
0.457941
0.457999
0.457999
0.458058
0.458116
0.458174
0.458233
0.458233
0.458291
0.45835
0.458408
0.458467
0.458467
0.458525
0.458584
0.458642
0.458701
0.458701
0.45876
0.458818
0.458877
0.458936
0.458936
0.458995
0.459054
0.459112
0.459171
0.459171
0.45923
0.459289
0.459348
0.459407
0.459407
0.459466
0.459525
0.459584
0.459644
0.459644
0.459703
0.459762
0.459821
0.45988
0.45988
0.45994
0.459999
0.460058
0.460118
0.460118
0.460177
0.460237
0.460296
0.460356
0.460356
0.460415
0.460475
0.460535
0.460594
0.460594
0.460654
0.460714
0.460773
0.460833
0.460833
0.460893
0.460953
0.461013
0.461073
0.461073
0.461133
0.461193
0.461253
0.461313
0.461313
0.461373
0.461433
0.461493
0.461553
0.461553
0.461613
0.461674
0.461734
0.461794
0.461794
0.461855
0.461915
0.461975
0.462036
0.462036
0.462096
0.462157
0.462217
0.462278
0.462278
0.462339
0.462399
0.46246
0.462521
0.462521
0.462581
0.462642
0.462703
0.462764
0.462764
0.462824
0.462885
0.462946
0.463007
0.463007
0.463068
0.463129
0.46319
0.463251
0.463251
0.463312
0.463374
0.463435
0.463496
0.463496
0.463557
0.463619
0.46368
0.463741
0.463741
0.463803
0.463864
0.463925
0.463987
0.463987
0.464048
0.46411
0.464171
0.464233
0.464233
0.464295
0.464356
0.464418
0.46448
0.46448
0.464542
0.464603
0.464665
0.464727
0.464727
0.464789
0.464851
0.464913
0.464975
0.464975
0.465037
0.465099
0.465161
0.465223
0.465223
0.465285
0.465347
0.46541
0.465472
0.465472
0.465534
0.465596
0.465659
0.465721
0.465721
0.465784
0.465846
0.465908
0.465971
0.465971
0.466034
0.466096
0.466159
0.466221
0.466221
0.466284
0.466347
0.466409
0.466472
0.466472
0.466535
0.466598
0.466661
0.466724
0.466724
0.466787
0.466849
0.466912
0.466976
0.466976
0.467039
0.467102
0.467165
0.467228
0.467228
0.467291
0.467354
0.467418
0.467481
0.467481
0.467544
0.467608
0.467671
0.467734
0.467734
0.467798
0.467861
0.467925
0.467988
0.467988
0.468052
0.468116
0.468179
0.468243
0.468243
0.468307
0.46837
0.468434
0.468498
0.468498
0.468562
0.468626
0.46869
0.468754
0.468754
0.468817
0.468882
0.468946
0.46901
0.46901
0.469074
0.469138
0.469202
0.469266
0.469266
0.46933
0.469395
0.469459
0.469523
0.469523
0.469588
0.469652
0.469717
0.469781
0.469781
0.469846
0.46991
0.469975
0.470039
0.470039
0.470104
0.470169
0.470233
0.470298
0.470298
0.470363
0.470427
0.470492
0.470557
0.470557
0.470622
0.470687
0.470752
0.470817
0.470817
0.470882
0.470947
0.471012
0.471077
0.471077
0.471142
0.471208
0.471273
0.471338
0.471338
0.471403
0.471469
0.471534
0.471599
0.471599
0.471665
0.47173
0.471796
0.471861
0.471861
0.471927
0.471992
0.472058
0.472124
0.472124
0.472189
0.472255
0.472321
0.472387
0.472387
0.472452
0.472518
0.472584
0.47265
0.47265
0.472716
0.472782
0.472848
0.472914
0.472914
0.47298
0.473046
0.473112
0.473178
0.473178
0.473245
0.473311
0.473377
0.473443
0.473443
0.47351
0.473576
0.473643
0.473709
0.473709
0.473775
0.473842
0.473909
0.473975
0.473975
0.474042
0.474108
0.474175
0.474242
0.474242
0.474308
0.474375
0.474442
0.474509
0.474509
0.474576
0.474643
0.47471
0.474777
0.474777
0.474844
0.474911
0.474978
0.475045
0.475045
0.475112
0.475179
0.475246
0.475313
0.475313
0.475381
0.475448
0.475515
0.475583
0.475583
0.47565
0.475718
0.475785
0.475852
0.475852
0.47592
0.475988
0.476055
0.476123
0.476123
0.47619
0.476258
0.476326
0.476394
0.476394
0.476461
0.476529
0.476597
0.476665
0.476665
0.476733
0.476801
0.476869
0.476937
0.476937
0.477005
0.477073
0.477141
0.477209
0.477209
0.477278
0.477346
0.477414
0.477482
0.477482
0.477551
0.477619
0.477687
0.477756
0.477756
0.477824
0.477893
0.477961
0.47803
0.47803
0.478099
0.478167
0.478236
0.478305
0.478305
0.478373
0.478442
0.478511
0.47858
0.47858
0.478649
0.478717
0.478786
0.478855
0.478855
0.478924
0.478993
0.479062
0.479131
0.479131
0.479201
0.47927
0.479339
0.479408
0.479408
0.479477
0.479547
0.479616
0.479685
0.479685
0.479755
0.479824
0.479894
0.479963
0.479963
0.480033
0.480102
0.480172
0.480242
0.480242
0.480311
0.480381
0.480451
0.48052
0.48052
0.48059
0.48066
0.48073
0.4808
0.4808
0.48087
0.48094
0.48101
0.48108
0.48108
0.48115
0.48122
0.48129
0.48136
0.48136
0.48143
0.481501
0.481571
0.481641
0.481641
0.481712
0.481782
0.481852
0.481923
0.481923
0.481993
0.482064
0.482134
0.482205
0.482205
0.482275
0.482346
0.482417
0.482487
0.482487
0.482558
0.482629
0.4827
0.482771
0.482771
0.482841
0.482912
0.482983
0.483054
0.483054
0.483125
0.483196
0.483267
0.483339
0.483339
0.48341
0.483481
0.483552
0.483623
0.483623
0.483695
0.483766
0.483837
0.483909
0.483909
0.48398
0.484052
0.484123
0.484195
0.484195
0.484266
0.484338
0.484409
0.484481
0.484481
0.484553
0.484624
0.484696
0.484768
0.484768
0.48484
0.484912
0.484983
0.485055
0.485055
0.485127
0.485199
0.485271
0.485343
0.485343
0.485415
0.485488
0.48556
0.485632
0.485632
0.485704
0.485776
0.485849
0.485921
0.485921
0.485993
0.486066
0.486138
0.486211
0.486211
0.486283
0.486356
0.486428
0.486501
0.486501
0.486574
0.486646
0.486719
0.486792
0.486792
0.486864
0.486937
0.48701
0.487083
0.487083
0.487156
0.487229
0.487302
0.487375
0.487375
0.487448
0.487521
0.487594
0.487667
0.487667
0.48774
0.487814
0.487887
0.48796
0.48796
0.488033
0.488107
0.48818
0.488253
0.488253
0.488327
0.4884
0.488474
0.488548
0.488548
0.488621
0.488695
0.488768
0.488842
0.488842
0.488916
0.48899
0.489063
0.489137
0.489137
0.489211
0.489285
0.489359
0.489433
0.489433
0.489507
0.489581
0.489655
0.489729
0.489729
0.489803
0.489877
0.489952
0.490026
0.490026
0.4901
0.490174
0.490249
0.490323
0.490323
0.490397
0.490472
0.490546
0.490621
0.490621
0.490695
0.49077
0.490845
0.490919
0.490919
0.490994
0.491069
0.491143
0.491218
0.491218
0.491293
0.491368
0.491443
0.491518
0.491518
0.491593
0.491668
0.491743
0.491818
0.491818
0.491893
0.491968
0.492043
0.492118
0.492118
0.492194
0.492269
0.492344
0.492419
0.492419
0.492495
0.49257
0.492646
0.492721
0.492721
0.492797
0.492872
0.492948
0.493023
0.493023
0.493099
0.493175
0.49325
0.493326
0.493326
0.493402
0.493478
0.493554
0.49363
0.49363
0.493705
0.493781
0.493857
0.493933
0.493933
0.49401
0.494086
0.494162
0.494238
0.494238
0.494314
0.49439
0.494467
0.494543
0.494543
0.494619
0.494696
0.494772
0.494848
0.494848
0.494925
0.495001
0.495078
0.495155
0.495155
0.495231
0.495308
0.495385
0.495461
0.495461
0.495538
0.495615
0.495692
0.495769
0.495769
0.495845
0.495922
0.495999
0.496076
0.496076
0.496153
0.49623
0.496307
0.496385
0.496385
0.496462
0.496539
0.496616
0.496694
0.496694
0.496771
0.496848
0.496926
0.497003
0.497003
0.49708
0.497158
0.497235
0.497313
0.497313
0.497391
0.497468
0.497546
0.497624
0.497624
0.497701
0.497779
0.497857
0.497935
0.497935
0.498013
0.49809
0.498168
0.498246
0.498246
0.498324
0.498402
0.49848
0.498559
0.498559
0.498637
0.498715
0.498793
0.498871
0.498871
0.49895
0.499028
0.499106
0.499185
0.499185
0.499263
0.499342
0.49942
0.499499
0.499499
0.499577
0.499656
0.499735
0.499813
0.499813
0.499892
0.499971
0.500049
0.500128
0.500128
0.500207
0.500286
0.500365
0.500444
0.500444
0.500523
0.500602
0.500681
0.50076
0.50076
0.500839
0.500918
0.500997
0.501077
0.501077
0.501156
0.501235
0.501315
0.501394
0.501394
0.501473
0.501553
0.501632
0.501712
0.501712
0.501791
0.501871
0.501951
0.50203
0.50203
0.50211
0.50219
0.502269
0.502349
0.502349
0.502429
0.502509
0.502589
0.502669
0.502669
0.502749
0.502829
0.502909
0.502989
0.502989
0.503069
0.503149
0.503229
0.50331
0.50331
0.50339
0.50347
0.503551
0.503631
0.503631
0.503711
0.503792
0.503872
0.503953
0.503953
0.504033
0.504114
0.504194
0.504275
0.504275
0.504356
0.504436
0.504517
0.504598
0.504598
0.504679
0.50476
0.504841
0.504922
0.504922
0.505003
0.505084
0.505165
0.505246
0.505246
0.505327
0.505408
0.505489
0.50557
0.50557
0.505652
0.505733
0.505814
0.505895
0.505895
0.505977
0.506058
0.50614
0.506221
0.506221
0.506303
0.506384
0.506466
0.506548
0.506548
0.506629
0.506711
0.506793
0.506875
0.506875
0.506956
0.507038
0.50712
0.507202
0.507202
0.507284
0.507366
0.507448
0.50753
0.50753
0.507612
0.507694
0.507777
0.507859
0.507859
0.507941
0.508023
0.508106
0.508188
0.508188
0.50827
0.508353
0.508435
0.508518
0.508518
0.5086
0.508683
0.508766
0.508848
0.508848
0.508931
0.509014
0.509096
0.509179
0.509179
0.509262
0.509345
0.509428
0.509511
0.509511
0.509594
0.509677
0.50976
0.509843
0.509843
0.509926
0.510009
0.510092
0.510175
0.510175
0.510259
0.510342