<?xml version="1.0"?>
<VTKFile type="UnstructuredGrid" version="0.1" byte_order="LittleEndian">
<UnstructuredGrid>
<Piece NumberOfPoints="5000" NumberOfCells="4000">
<PointData Scalars="Reaction 0">
<DataArray type="Float32" Name="Reaction 0" format="ascii">
0.149898
0.149898
0.149898
0.149898
0.149898
0.149898
0.149898
0.149899
0.149899
0.149899
0.149899
0.149899
0.1499
0.1499
0.1499
0.1499
0.149901
0.149901
0.149902
0.149902
0.149902
0.149903
0.149903
0.149904
0.149904
0.149904
0.149905
0.149906
0.149906
0.149907
0.149907
0.149908
0.149909
0.14991
0.14991
0.14991
0.149911
0.149912
0.149913
0.149914
0.149914
0.149915
0.149916
0.149917
0.149918
0.149918
0.14992
0.149921
0.149922
0.149923
0.149923
0.149925
0.149926
0.149927
0.149929
0.149929
0.14993
0.149931
0.149933
0.149934
0.149934
0.149936
0.149937
0.149939
0.149941
0.149941
0.149942
0.149944
0.149946
0.149947
0.149947
0.149949
0.149951
0.149953
0.149955
0.149955
0.149957
0.149959
0.149961
0.149963
0.149963
0.149965
0.149967
0.149969
0.149971
0.149971
0.149973
0.149975
0.149977
0.14998
0.14998
0.149982
0.149984
0.149987
0.149989
0.149989
0.149991
0.149994
0.149996
0.149999
0.149999
0.150001
0.150004
0.150006
0.150009
0.150009
0.150012
0.150014
0.150017
0.15002
0.15002
0.150023
0.150026
0.150028
0.150031
0.150031
0.150034
0.150037
0.15004
0.150043
0.150043
0.150046
0.150049
0.150052
0.150055
0.150055
0.150059
0.150062
0.150065
0.150068
0.150068
0.150072
0.150075
0.150078
0.150082
0.150082
0.150085
0.150088
0.150092
0.150095
0.150095
0.150099
0.150103
0.150106
0.15011
0.15011
0.150113
0.150117
0.150121
0.150125
0.150125
0.150128
0.150132
0.150136
0.15014
0.15014
0.150144
0.150148
0.150152
0.150156
0.150156
0.15016
0.150164
0.150168
0.150172
0.150172
0.150176
0.150181
0.150185
0.150189
0.150189
0.150193
0.150198
0.150202
0.150206
0.150206
0.150211
0.150215
0.15022
0.150224
0.150224
0.150229
0.150233
0.150238
0.150243
0.150243
0.150247
0.150252
0.150257
0.150262
0.150262
0.150266
0.150271
0.150276
0.150281
0.150281
0.150286
0.150291
0.150296
0.150301
0.150301
0.150306
0.150311
0.150316
0.150321
0.150321
0.150326
0.150332
0.150337
0.150342
0.150342
0.150347
0.150353
0.150358
0.150364
0.150364
0.150369
0.150374
0.15038
0.150386
0.150386
0.150391
0.150397
0.150402
0.150408
0.150408
0.150414
0.150419
0.150425
0.150431
0.150431
0.150437
0.150442
0.150448
0.150454
0.150454
0.15046
0.150466
0.150472
0.150478
0.150478
0.150484
0.15049
0.150496
0.150503
0.150503
0.150509
0.150515
0.150521
0.150528
0.150528
0.150534
0.15054
0.150547
0.150553
0.150553
0.150559
0.150566
0.150572
0.150579
0.150579
0.150586
0.150592
0.150599
0.150605
0.150605
0.150612
0.150619
0.150626
0.150632
0.150632
0.150639
0.150646
0.150653
0.15066
0.15066
0.150667
0.150674
0.150681
0.150688
0.150688
0.150695
0.150702
0.150709
0.150716
0.150716
0.150723
0.150731
0.150738
0.150745
0.150745
0.150753
0.15076
0.150767
0.150775
0.150775
0.150782
0.15079
0.150797
0.150805
0.150805
0.150812
0.15082
0.150828
0.150835
0.150835
0.150843
0.150851
0.150858
0.150866
0.150866
0.150874
0.150882
0.15089
0.150898
0.150898
0.150906
0.150914
0.150922
0.15093
0.15093
0.150938
0.150946
0.150954
0.150962
0.150962
0.15097
0.150979
0.150987
0.150995
0.150995
0.151004
0.151012
0.15102
0.151029
0.151029
0.151037
0.151046
0.151054
0.151063
0.151063
0.151071
0.15108
0.151089
0.151097
0.151097
0.151106
0.151115
0.151124
0.151132
0.151132
0.151141
0.15115
0.151159
0.151168
0.151168
0.151177
0.151186
0.151195
0.151204
0.151204
0.151213
0.151222
0.151231
0.151241
0.151241
0.15125
0.151259
0.151268
0.151278
0.151278
0.151287
0.151296
0.151306
0.151315
0.151315
0.151325
0.151334
0.151344
0.151353
0.151353
0.151363
0.151373
0.151382
0.151392
0.151392
0.151402
0.151411
0.151421
0.151431
0.151431
0.151441
0.151451
0.151461
0.151471
0.151471
0.151481
0.151491
0.151501
0.151511
0.151511
0.151521
0.151531
0.151541
0.151551
0.151551
0.151562
0.151572
0.151582
0.151592
0.151592
0.151603
0.151613
0.151624
0.151634
0.151634
0.151645
0.151655
0.151666
0.151676
0.151676
0.151687
0.151697
0.151708
0.151719
0.151719
0.15173
0.15174
0.151751
0.151762
0.151762
0.151773
0.151784
0.151795
0.151806
0.151806
0.151817
0.151828
0.151839
0.15185
0.15185
0.151861
0.151872
0.151883
0.151894
0.151894
0.151906
0.151917
0.151928
0.15194
0.15194
0.151951
0.151962
0.151974
0.151985
0.151985
0.151997
0.152008
0.15202
0.152032
0.152032
0.152043
0.152055
0.152066
0.152078
0.152078
0.15209
0.152102
0.152114
0.152125
0.152125
0.152137
0.152149
0.152161
0.152173
0.152173
0.152185
0.152197
0.152209
0.152221
0.152221
0.152234
0.152246
0.152258
0.15227
0.15227
0.152282
0.152295
0.152307
0.152319
0.152319
0.152332
0.152344
0.152357
0.152369
0.152369
0.152382
0.152394
0.152407
0.152419
0.152419
0.152432
0.152445
0.152457
0.15247
0.15247
0.152483
0.152496
0.152509
0.152521
0.152521
0.152534
0.152547
0.15256
0.152573
0.152573
0.152586
0.152599
0.152612
0.152625
0.152625
0.152639
0.152652
0.152665
0.152678
0.152678
0.152692
0.152705
0.152718
0.152732
0.152732
0.152745
0.152758
0.152772
0.152785
0.152785
0.152799
0.152813
0.152826
0.15284
0.15284
0.152853
0.152867
0.152881
0.152895
0.152895
0.152908
0.152922
0.152936
0.15295
0.15295
0.152964
0.152978
0.152992
0.153006
0.153006
0.15302
0.153034
0.153048
0.153062
0.153062
0.153076
0.153091
0.153105
0.153119
0.153119
0.153133
0.153148
0.153162
0.153176
0.153176
0.153191
0.153205
0.15322
0.153234
0.153234
0.153249
0.153264
0.153278
0.153293
0.153293
0.153307
0.153322
0.153337
0.153352
0.153352
0.153367
0.153381
0.153396
0.153411
0.153411
0.153426
0.153441
0.153456
0.153471
0.153471
0.153486
0.153501
0.153516
0.153532
0.153532
0.153547
0.153562
0.153577
0.153593
0.153593
0.153608
0.153623
0.153639
0.153654
0.153654
0.153669
0.153685
0.1537
0.153716
0.153716
0.153732
0.153747
0.153763
0.153779
0.153779
0.153794
0.15381
0.153826
0.153842
0.153842
0.153857
0.153873
0.153889
0.153905
0.153905
0.153921
0.153937
0.153953
0.153969
0.153969
0.153985
0.154001
0.154017
0.154034
0.154034
0.15405
0.154066
0.154082
0.154099
0.154099
0.154115
0.154131
0.154148
0.154164
0.154164
0.154181
0.154197
0.154214
0.15423
0.15423
0.154247
0.154264
0.15428
0.154297
0.154297
0.154314
0.15433
0.154347
0.154364
0.154364
0.154381
0.154398
0.154415
0.154432
0.154432
0.154449
0.154466
0.154483
0.1545
0.1545
0.154517
0.154534
0.154551
0.154568
0.154568
0.154586
0.154603
0.15462
0.154638
0.154638
0.154655
0.154672
0.15469
0.154707
0.154707
0.154725
0.154742
0.15476
0.154778
0.154778
0.154795
0.154813
0.154831
0.154848
0.154848
0.154866
0.154884
0.154902
0.154919
0.154919
0.154937
0.154955
0.154973
0.154991
0.154991
0.155009
0.155027
0.155045
0.155063
0.155063
0.155082
0.1551
0.155118
0.155136
0.155136
0.155154
0.155173
0.155191
0.155209
0.155209
0.155228
0.155246
0.155265
0.155283
0.155283
0.155302
0.15532
0.155339
0.155358
0.155358
0.155376
0.155395
0.155414
0.155432
0.155432
0.155451
0.15547
0.155489
0.155508
0.155508
0.155527
0.155546
0.155565
0.155584
0.155584
0.155603
0.155622
0.155641
0.15566
0.15566
0.155679
0.155698
0.155718
0.155737
0.155737
0.155756
0.155775
0.155795
0.155814
0.155814
0.155834
0.155853
0.155873
0.155892
0.155892
0.155912
0.155931
0.155951
0.155971
0.155971
0.15599
0.15601
0.15603
0.156049
0.156049
0.156069
0.156089
0.156109
0.156129
0.156129
0.156149
0.156169
0.156189
0.156209
0.156209
0.156229
0.156249
0.156269
0.156289
0.156289
0.15631
0.15633
0.15635
0.15637
0.15637
0.156391
0.156411
0.156432
0.156452
0.156452
0.156472
0.156493
0.156513
0.156534
0.156534
0.156555
0.156575
0.156596
0.156617
0.156617
0.156637
0.156658
0.156679
0.1567
0.1567
0.15672
0.156741
0.156762
0.156783
0.156783
0.156804
0.156825
0.156846
0.156867
0.156867
0.156888
0.15691
0.156931
0.156952
0.156952
0.156973
0.156994
0.157016
0.157037
0.157037
0.157058
0.15708
0.157101
0.157123
0.157123
0.157144
0.157166
0.157187
0.157209
0.157209
0.157231
0.157252
0.157274
0.157296
0.157296
0.157317
0.157339
0.157361
0.157383
0.157383
0.157405
0.157427
0.157449
0.157471
0.157471
0.157493
0.157515
0.157537
0.157559
0.157559
0.157581
0.157603
0.157625
0.157648
0.157648
0.15767
0.157692
0.157715
0.157737
0.157737
0.157759
0.157782
0.157804
0.157827
0.157827
0.157849
0.157872
0.157895
0.157917
0.157917
0.15794
0.157963
0.157985
0.158008
0.158008
0.158031
0.158054
0.158076
0.158099
0.158099
0.158122
0.158145
0.158168
0.158191
0.158191
0.158214
0.158237
0.158261
0.158284
0.158284
0.158307
0.15833
0.158353
0.158377
0.158377
0.1584
0.158423
0.158447
0.15847
0.15847
0.158494
0.158517
0.158541
0.158564
0.158564
0.158588
0.158611
0.158635
0.158659
0.158659
0.158682
0.158706
0.15873
0.158754
0.158754
0.158777
0.158801
0.158825
0.158849
0.158849
0.158873
0.158897
0.158921
0.158945
0.158945
0.158969
0.158993
0.159018
0.159042
0.159042
0.159066
0.15909
0.159115
0.159139
0.159139
0.159163
0.159188
0.159212
0.159237
0.159237
0.159261
0.159286
0.15931
0.159335
0.159335
0.159359
0.159384
0.159409
0.159433
0.159433
0.159458
0.159483
0.159508
0.159533
0.159533
0.159558
0.159582
0.159607
0.159632
0.159632
0.159657
0.159682
0.159707
0.159733
0.159733
0.159758
0.159783
0.159808
0.159833
0.159833
0.159859
0.159884
0.159909
0.159935
0.159935
0.15996
0.159986
0.160011
0.160037
0.160037
0.160062
0.160088
0.160113
0.160139
0.160139
0.160165
0.16019
0.160216
0.160242
0.160242
0.160268
0.160293
0.160319
0.160345
0.160345
0.160371
0.160397
0.160423
0.160449
0.160449
0.160475
0.160501
0.160527
0.160553
0.160553
0.16058
0.160606
0.160632
0.160658
0.160658
0.160685
0.160711
0.160738
0.160764
0.160764
0.16079
0.160817
0.160843
0.16087
0.16087
0.160897
0.160923
0.16095
0.160977
0.160977
0.161003
0.16103
0.161057
0.161084
0.161084
0.16111
0.161137
0.161164
0.161191
0.161191
0.161218
0.161245
0.161272
0.161299
0.161299
0.161326
0.161354
0.161381
0.161408
0.161408
0.161435
0.161462
0.16149
0.161517
0.161517
0.161545
0.161572
0.161599
0.161627
0.161627
0.161654
0.161682
0.161709
0.161737
0.161737
0.161765
0.161792
0.16182
0.161848
0.161848
0.161876
0.161903
0.161931
0.161959
0.161959
0.161987
0.162015
0.162043
0.162071
0.162071
0.162099
0.162127
0.162155
0.162183
0.162183
0.162211
0.16224
0.162268
0.162296
0.162296
0.162324
0.162353
0.162381
0.16241
0.16241
0.162438
0.162466
0.162495
0.162523
0.162523
0.162552
0.162581
0.162609
0.162638
0.162638
0.162667
0.162695
0.162724
0.162753
0.162753
0.162782
0.162811
0.162839
0.162868
0.162868
0.162897
0.162926
0.162955
0.162984
0.162984
0.163014
0.163043
0.163072
0.163101
0.163101
0.16313
0.16316
0.163189
0.163218
0.163218
0.163248
0.163277
0.163306
0.163336
0.163336
0.163365
0.163395
0.163424
0.163454
0.163454
0.163484
0.163513
0.163543
0.163573
0.163573
0.163602
0.163632
0.163662
0.163692
0.163692
0.163722
0.163752
0.163782
0.163812
0.163812
0.163842
0.163872
0.163902
0.163932
0.163932
0.163962
0.163992
0.164022
0.164053
0.164053
0.164083
0.164113
0.164144
0.164174
0.164174
0.164204
0.164235
0.164265
0.164296
0.164296
0.164327
0.164357
0.164388
0.164418
0.164418
0.164449
0.16448
0.164511
0.164541
0.164541
0.164572
0.164603
0.164634
0.164665
0.164665
0.164696
0.164727
0.164758
0.164789
0.164789
0.16482
0.164851
0.164882
0.164913
0.164913
0.164945
0.164976
0.165007
0.165038
0.165038
0.16507
0.165101
0.165133
0.165164
0.165164
0.165196
0.165227
0.165259
0.16529
0.16529
0.165322
0.165353
0.165385
0.165417
0.165417
0.165449
0.16548
0.165512
0.165544
0.165544
0.165576
0.165608
0.16564
0.165672
0.165672
0.165704
0.165736
0.165768
0.1658
0.1658
0.165832
0.165864
0.165897
0.165929
0.165929
0.165961
0.165994
0.166026
0.166058
0.166058
0.166091
0.166123
0.166156
0.166188
0.166188
0.166221
0.166253
0.166286
0.166319
0.166319
0.166351
0.166384
0.166417
0.16645
0.16645
0.166482
0.166515
0.166548
0.166581
0.166581
0.166614
0.166647
0.16668
0.166713
0.166713
0.166746
0.166779
0.166812
0.166846
0.166846
0.166879
0.166912
0.166945
0.166979
0.166979
0.167012
0.167046
0.167079
0.167112
0.167112
0.167146
0.167179
0.167213
0.167247
0.167247
0.16728
0.167314
0.167348
0.167381
0.167381
0.167415
0.167449
0.167483
0.167517
0.167517
0.16755
0.167584
0.167618
0.167652
0.167652
0.167686
0.16772
0.167755
0.167789
0.167789
0.167823
0.167857
0.167891
0.167926
0.167926
0.16796
0.167994
0.168029
0.168063
0.168063
0.168097
0.168132
0.168166
0.168201
0.168201
0.168235
0.16827
0.168305
0.168339
0.168339
0.168374
0.168409
0.168444
0.168478
0.168478
0.168513
0.168548
0.168583
0.168618
0.168618
0.168653
0.168688
0.168723
0.168758
0.168758
0.168793
0.168828
0.168863
0.168899
0.168899
0.168934
0.168969
0.169005
0.16904
0.16904
0.169075
0.169111
0.169146
0.169182
0.169182
0.169217
0.169253
0.169288
0.169324
0.169324
0.16936
0.169395
0.169431
0.169467
0.169467
0.169502
0.169538
0.169574
0.16961
0.16961
0.169646
0.169682
0.169718
0.169754
0.169754
0.16979
0.169826
0.169862
0.169898
0.169898
0.169935
0.169971
0.170007
0.170043
0.170043
0.17008
0.170116
0.170152
0.170189
0.170189
0.170225
0.170262
0.170298
0.170335
0.170335
0.170371
0.170408
0.170445
0.170481
0.170481
0.170518
0.170555
0.170592
0.170629
0.170629
0.170665
0.170702
0.170739
0.170776
0.170776
0.170813
0.17085
0.170887
0.170925
0.170925
0.170962
0.170999
0.171036
0.171073
0.171073
0.171111
0.171148
0.171185
0.171223
0.171223
0.17126
0.171297
0.171335
0.171372
0.171372
0.17141
0.171448
0.171485
0.171523
0.171523
0.171561
0.171598
0.171636
0.171674
0.171674
0.171712
0.171749
0.171787
0.171825
0.171825
0.171863
0.171901
0.171939
0.171977
0.171977
0.172015
0.172054
0.172092
0.17213
0.17213
0.172168
0.172206
0.172245
0.172283
0.172283
0.172321
0.17236
0.172398
0.172437
0.172437
0.172475
0.172514
0.172552
0.172591
0.172591
0.17263
0.172668
0.172707
0.172746
0.172746
0.172784
0.172823
0.172862
0.172901
0.172901
0.17294
0.172979
0.173018
0.173057
0.173057
0.173096
0.173135
0.173174
0.173213
0.173213
0.173252
0.173292
0.173331
0.17337
0.17337
0.17341
0.173449
0.173488
0.173528
0.173528
0.173567
0.173607
0.173646
0.173686
0.173686
0.173725
0.173765
0.173805
0.173844
0.173844
0.173884
0.173924
0.173964
0.174004
0.174004
0.174043
0.174083
0.174123
0.174163
0.174163
0.174203
0.174243
0.174283
0.174323
0.174323
0.174364
0.174404
0.174444
0.174484
0.174484
0.174525
0.174565
0.174605
0.174646
0.174646
0.174686
0.174727
0.174767
0.174808
0.174808
0.174848
0.174889
0.174929
0.17497
0.17497
0.175011
0.175051
0.175092
0.175133
0.175133
0.175174
0.175215
0.175256
0.175296
0.175296
0.175337
0.175378
0.17542
0.175461
0.175461
0.175502
0.175543
0.175584
0.175625
0.175625
0.175666
0.175708
0.175749
0.17579
0.17579
0.175832
0.175873
0.175915
0.175956
0.175956
0.175998
0.176039
0.176081
0.176122
0.176122
0.176164
0.176206
0.176248
0.176289
0.176289
0.176331
0.176373
0.176415
0.176457
0.176457
0.176499
0.176541
0.176583
0.176625
0.176625
0.176667
0.176709
0.176751
0.176793
0.176793
0.176835
0.176878
0.17692
0.176962
0.176962
0.177005
0.177047
0.177089
0.177132
0.177132
0.177174
0.177217
0.177259
0.177302
0.177302
0.177345
0.177387
0.17743
0.177473
0.177473
0.177516
0.177558
0.177601
0.177644
0.177644
0.177687
0.17773
0.177773
0.177816
0.177816
0.177859
0.177902
0.177945
0.177988
0.177988
0.178031
0.178075
0.178118
0.178161
0.178161
0.178205
0.178248
0.178291
0.178335
0.178335
0.178378
0.178422
0.178465
0.178509
0.178509
0.178552
0.178596
0.17864
0.178683
0.178683
0.178727
0.178771
0.178815
0.178859
0.178859
0.178902
0.178946
0.17899
0.179034
0.179034
0.179078
0.179122
0.179166
0.179211
0.179211
0.179255
0.179299
0.179343
0.179387
0.179387
0.179432
0.179476
0.17952
0.179565
0.179565
0.179609
0.179654
0.179698
0.179743
0.179743
0.179787
0.179832
0.179877
0.179921
0.179921
0.179966
0.180011
0.180055
0.1801
0.1801
0.180145
0.18019
0.180235
0.18028
0.18028
0.180325
0.18037
0.180415
0.18046
0.18046
0.180505
0.18055
0.180596
0.180641
0.180641
0.180686
0.180731
0.180777
0.180822
0.180822
0.180868
0.180913
0.180958
0.181004
0.181004
0.18105
0.181095
0.181141
0.181186
0.181186
0.181232
0.181278
0.181324
0.181369
0.181369
0.181415
0.181461
0.181507
0.181553
0.181553
0.181599
0.181645
0.181691
0.181737
0.181737
0.181783
0.181829
0.181875
0.181922
0.181922
0.181968
0.182014
0.182061
0.182107
0.182107
0.182153
0.1822
0.182246
0.182293
0.182293
0.182339
0.182386
0.182432
0.182479
0.182479
0.182526
0.182572
0.182619
0.182666
0.182666
0.182713
0.18276
0.182806
0.182853
0.182853
0.1829
0.182947
0.182994
0.183041
0.183041
0.183088
0.183136
0.183183
0.18323
0.18323
0.183277
0.183324
0.183372
0.183419
0.183419
0.183467
0.183514
0.183561
0.183609
0.183609
0.183656
0.183704
0.183751
0.183799
0.183799
0.183847
0.183894
0.183942
0.18399
0.18399
0.184038
0.184086
0.184133
0.184181
0.184181
0.184229
0.184277
0.184325
0.184373
0.184373
0.184421
0.18447
0.184518
0.184566
0.184566
0.184614
0.184662
0.184711
0.184759
0.184759
0.184807
0.184856
0.184904
0.184953
0.184953
0.185001
0.18505
0.185098
0.185147
0.185147
0.185195
0.185244
0.185293
0.185342
0.185342
0.18539
0.185439
0.185488
0.185537
0.185537
0.185586
0.185635
0.185684
0.185733
0.185733
0.185782
0.185831
0.18588
0.185929
0.185929
0.185979
0.186028
0.186077
0.186126
0.186126
0.186176
0.186225
0.186275
0.186324
0.186324
0.186374
0.186423
0.186473
0.186522
0.186522
0.186572
0.186622
0.186671
0.186721
0.186721
0.186771
0.186821
0.18687
0.18692
0.18692
0.18697
0.18702
0.18707
0.18712
0.18712
0.18717
0.18722
0.187271
0.187321
0.187321
0.187371
0.187421
0.187471
0.187522
0.187522
0.187572
0.187622
0.187673
0.187723
0.187723
0.187774
0.187824
0.187875
0.187925
0.187925
0.187976
0.188027
0.188077
0.188128
0.188128
0.188179
0.18823
0.188281
0.188331
0.188331
0.188382
0.188433
0.188484
0.188535
0.188535
0.188586
0.188638
0.188689
0.18874
0.18874
0.188791
0.188842
0.188894
0.188945
0.188945
0.188996
0.189048
0.189099
0.18915
0.18915
0.189202
0.189253
0.189305
0.189357
0.189357
0.189408
0.18946
0.189512
0.189563
0.189563
0.189615
0.189667
0.189719
0.189771
0.189771
0.189822
0.189874
0.189926
0.189978
0.189978
0.19003
0.190083
0.190135
0.190187
0.190187
0.190239
0.190291
0.190344
0.190396
0.190396
0.190448
0.190501
0.190553
0.190605
0.190605
0.190658
0.19071
0.190763
0.190816
0.190816
0.190868
0.190921
0.190974
0.191026
0.191026
0.191079
0.191132
0.191185
0.191238
0.191238
0.191291
0.191343
0.191396
0.19145
0.19145
0.191503
0.191556
0.191609
0.191662
0.191662
0.191715
0.191768
0.191822
0.191875
0.191875
0.191928
0.191982
0.192035
0.192089
0.192089
0.192142
0.192196
0.192249
0.192303
0.192303
0.192356
0.19241
0.192464
0.192517
0.192517
0.192571
0.192625
0.192679
0.192733
0.192733
0.192787
0.192841
0.192895
0.192949
0.192949
0.193003
0.193057
0.193111
0.193165
0.193165
0.193219
0.193274
0.193328
0.193382
0.193382
0.193437
0.193491
0.193545
0.1936
0.1936
0.193654
0.193709
0.193763
0.193818
0.193818
0.193873
0.193927
0.193982
0.194037
0.194037
0.194092
0.194146
0.194201
0.194256
0.194256
0.194311
0.194366
0.194421
0.194476
0.194476
0.194531
0.194586
0.194641
0.194697
0.194697
0.194752
0.194807
0.194862
0.194918
0.194918
0.194973
0.195028
0.195084
0.195139
0.195139
0.195195
0.19525
0.195306
0.195362
0.195362
0.195417
0.195473
0.195529
0.195584
0.195584
0.19564
0.195696
0.195752
0.195808
0.195808
0.195864
0.19592
0.195976
0.196032
0.196032
0.196088
0.196144
0.1962
0.196256
0.196256
0.196312
0.196369
0.196425
0.196481
0.196481
0.196538
0.196594
0.196651
0.196707
0.196707
0.196764
0.19682
0.196877
0.196933
0.196933
0.19699
0.197047
0.197103
0.19716
0.19716
0.197217
0.197274
0.197331
0.197388
0.197388
0.197445
0.197502
0.197559
0.197616
0.197616
0.197673
0.19773
0.197787
0.197844
0.197844
0.197902
0.197959
0.198016
0.198074
0.198074
0.198131
0.198188
0.198246
0.198303
0.198303
0.198361
0.198418
0.198476
0.198534
0.198534
0.198591
0.198649
0.198707
0.198765
0.198765
0.198822
0.19888
0.198938
0.198996
0.198996
0.199054
0.199112
0.19917
0.199228
0.199228
0.199286
0.199345
0.199403
0.199461
0.199461
0.199519
0.199577
0.199636
0.199694
0.199694
0.199753
0.199811
0.19987
0.199928
0.199928
0.199987
0.200045
0.200104
0.200162
0.200162
0.200221
0.20028
0.200339
0.200398
0.200398
0.200456
0.200515
0.200574
0.200633
0.200633
0.200692
0.200751
0.20081
0.200869
0.200869
0.200928
0.200988
0.201047
0.201106
0.201106
0.201165
0.201225
0.201284
0.201343
0.201343
0.201403
0.201462
0.201522
0.201581
0.201581
0.201641
0.201701
0.20176
0.20182
0.20182
0.20188
0.201939
0.201999
0.202059
0.202059
0.202119
0.202179
0.202239
0.202299
0.202299
0.202359
0.202419
0.202479
0.202539
0.202539
0.202599
0.202659
0.20272
0.20278
0.20278
0.20284
0.202901
0.202961
0.203021
0.203021
0.203082
0.203142
0.203203
0.203263
0.203263
0.203324
0.203385
0.203445
0.203506
0.203506
0.203567
0.203628
0.203688
0.203749
0.203749
0.20381
0.203871
0.203932
0.203993
0.203993
0.204054
0.204115
0.204176
0.204237
0.204237
0.204299
0.20436
0.204421
0.204482
0.204482
0.204544
0.204605
0.204667
0.204728
0.204728
0.204789
0.204851
0.204913
0.204974
0.204974
0.205036
0.205097
0.205159
0.205221
0.205221
0.205283
0.205344
0.205406
0.205468
0.205468
0.20553
0.205592
0.205654
0.205716
0.205716
0.205778
0.20584
0.205902
0.205965
0.205965
0.206027
0.206089
0.206151
0.206214
0.206214
0.206276
0.206339
0.206401
0.206463
0.206463
0.206526
0.206589
0.206651
0.206714
0.206714
0.206776
0.206839
0.206902
0.206965
0.206965
0.207027
0.20709
0.207153
0.207216
0.207216
0.207279
0.207342
0.207405
0.207468
0.207468
0.207531
0.207594
0.207658
0.207721
0.207721
0.207784
0.207847
0.207911
0.207974
0.207974
0.208037
0.208101
0.208164
0.208228
0.208228
0.208291
0.208355
0.208419
0.208482
0.208482
0.208546
0.20861
0.208673
0.208737
0.208737
0.208801
0.208865
0.208929
0.208993
0.208993
0.209057
0.209121
0.209185
0.209249
0.209249
0.209313
0.209377
0.209442
0.209506
0.209506
0.20957
0.209635
0.209699
0.209763
0.209763
0.209828
0.209892
0.209957
0.210021
0.210021
0.210086
0.21015
0.210215
0.21028
0.21028
0.210345
0.210409
0.210474
0.210539
0.210539
0.210604
0.210669
0.210734
0.210799
0.210799
0.210864
0.210929
0.210994
0.211059
0.211059
0.211124
0.21119
0.211255
0.21132
0.21132
0.211385
0.211451
0.211516
0.211582
0.211582
0.211647
0.211713
0.211778
0.211844
0.211844
0.211909
0.211975
0.212041
0.212107
0.212107
0.212172
0.212238
0.212304
0.21237
0.21237
0.212436
0.212502
0.212568
0.212634
0.212634
0.2127
0.212766
0.212832
0.212898
0.212898
0.212965
0.213031
0.213097
0.213163
0.213163
0.21323
0.213296
0.213363
0.213429
0.213429
0.213496
0.213562
0.213629
0.213695
0.213695
0.213762
0.213829
0.213896
0.213962
0.213962
0.214029
0.214096
0.214163
0.21423
0.21423
0.214297
0.214364
0.214431
0.214498
0.214498
0.214565
0.214632
0.214699
0.214767
0.214767
0.214834
0.214901
0.214969
0.215036
0.215036
0.215103
0.215171
0.215238
0.215306
0.215306
0.215373
0.215441
0.215509
0.215576
0.215576
0.215644
0.215712
0.21578
0.215848
0.215848
0.215915
0.215983
0.216051
0.216119
0.216119
0.216187
0.216255
0.216323
0.216392
0.216392
0.21646
0.216528
0.216596
0.216664
0.216664
0.216733
0.216801
0.216869
0.216938
0.216938
0.217006
0.217075
0.217143
0.217212
0.217212
0.217281
0.217349
0.217418
0.217487
0.217487
0.217555
0.217624
0.217693
0.217762
0.217762
0.217831
0.2179
0.217969
0.218038
0.218038
0.218107
0.218176
0.218245
0.218314
0.218314
0.218384
0.218453
0.218522
0.218591
0.218591
0.218661
0.21873
0.2188
0.218869
0.218869
0.218939
0.219008
0.219078
0.219147
0.219147
0.219217
0.219287
0.219357
0.219426
0.219426
0.219496
0.219566
0.219636
0.219706
0.219706
0.219776
0.219846
0.219916
0.219986
0.219986
0.220056
0.220126
0.220196
0.220267
0.220267
0.220337
0.220407
0.220478
0.220548
0.220548
0.220618
0.220689
0.220759
0.22083
0.22083
0.2209
0.220971
0.221042
0.221112
0.221112
0.221183
0.221254
0.221325
0.221396
0.221396
0.221466
0.221537
0.221608
0.221679
0.221679
0.22175
0.221821
0.221892
0.221964
0.221964
0.222035
0.222106
0.222177
0.222249
0.222249
0.22232
0.222391
0.222463
0.222534
0.222534
0.222606
0.222677
0.222749
0.22282
0.22282
0.222892
0.222963
0.223035
0.223107
0.223107
0.223179
0.223251
0.223322
0.223394
0.223394
0.223466
0.223538
0.22361
0.223682
0.223682
0.223754
0.223826
0.223899
0.223971
0.223971
0.224043
0.224115
0.224188
0.22426
0.22426
0.224332
0.224405
0.224477
0.22455
0.22455
0.224622
0.224695
0.224767
0.22484
0.22484
0.224913
0.224985
0.225058
0.225131
0.225131
0.225204
0.225277
0.22535
0.225423
0.225423
0.225496
0.225569
0.225642
0.225715
0.225715
0.225788
0.225861
0.225934
0.226008
0.226008
0.226081
0.226154
0.226228
0.226301
0.226301
0.226374
0.226448
0.226521
0.226595
0.226595
0.226669
0.226742
0.226816
0.22689
0.22689
0.226963
0.227037
0.227111
0.227185
0.227185
0.227259
0.227333
0.227407
0.227481
0.227481
0.227555
0.227629
0.227703
0.227777
0.227777
0.227851
0.227926
0.228
0.228074
0.228074
0.228149
0.228223
0.228297
0.228372
0.228372
0.228446
0.228521
0.228595
0.22867
0.22867
0.228745
0.228819
0.228894
0.228969
0.228969
0.229044
0.229119
0.229194
0.229268
0.229268
0.229343
0.229418
0.229493
0.229569
0.229569
0.229644
0.229719
0.229794
0.229869
0.229869
0.229944
0.23002
0.230095
0.230171
0.230171
0.230246
0.230321
0.230397
0.230472
0.230472
0.230548
0.230624
0.230699
0.230775
0.230775
0.230851
0.230926
0.231002
0.231078
0.231078
0.231154
0.23123
0.231306
0.231382
0.231382
0.231458
0.231534
0.23161
0.231686
0.231686
0.231762
0.231839
0.231915
0.231991
0.231991
0.232067
0.232144
0.23222
0.232297
0.232297
0.232373
0.23245
0.232526
0.232603
0.232603
0.23268
0.232756
0.232833
0.23291
0.23291
0.232986
0.233063
0.23314
0.233217
0.233217
0.233294
0.233371
0.233448
0.233525
0.233525
0.233602
0.233679
0.233757
0.233834
0.233834
0.233911
0.233988
0.234066
0.234143
0.234143
0.23422
0.234298
0.234375
0.234453
0.234453
0.23453
0.234608
0.234686
0.234763
0.234763
0.234841
0.234919
0.234997
0.235074
0.235074
0.235152
0.23523
0.235308
0.235386
0.235386
0.235464
0.235542
0.23562
0.235698
0.235698
0.235777
0.235855
0.235933
0.236011
0.236011
0.23609
0.236168
0.236246
0.236325
0.236325
0.236403
0.236482
0.23656
0.236639
0.236639
0.236718
0.236796
0.236875
0.236954
0.236954
0.237032
0.237111
0.23719
0.237269
0.237269
0.237348
0.237427
0.237506
0.237585
0.237585
0.237664
0.237743
0.237822
0.237902
0.237902
0.237981
0.23806
0.238139
0.238219
0.238219
0.238298
0.238378
0.238457
0.238537
0.238537
0.238616
0.238696
0.238775
0.238855
0.238855
0.238935
0.239014
0.239094
0.239174
0.239174
0.239254
0.239334
0.239414
0.239494
0.239494
0.239574
0.239654
0.239734
0.239814
0.239814
0.239894
0.239974
0.240055
0.240135
0.240135
0.240215
0.240296
0.240376
0.240456
0.240456
0.240537
0.240617
0.240698
0.240779
0.240779
0.240859
0.24094
0.241021
0.241101
0.241101
0.241182
0.241263
0.241344
0.241425
0.241425
0.241506
0.241587
0.241668
0.241749
0.241749
0.24183
0.241911
0.241992
0.242073
0.242073
0.242154
0.242236
0.242317
0.242398
0.242398
0.24248
0.242561
0.242643
0.242724
0.242724
0.242806
0.242887
0.242969
0.243051
0.243051
0.243132
0.243214
0.243296
0.243378
0.243378
0.24346
0.243541
0.243623
0.243705
0.243705
0.243787
0.243869
0.243951
0.244034
0.244034
0.244116
0.244198
0.24428
0.244362
0.244362
0.244445
0.244527
0.24461
0.244692
0.244692
0.244774
0.244857
0.24494
0.245022
0.245022
0.245105
0.245187
0.24527
0.245353
0.245353
0.245436
0.245518
0.245601
0.245684
0.245684
0.245767
0.24585
0.245933
0.246016
0.246016
0.246099
0.246182
0.246266
0.246349
0.246349
0.246432
0.246515
0.246599
0.246682
0.246682
0.246765
0.246849
0.246932
0.247016
0.247016
0.247099
0.247183
0.247267
0.24735
0.24735
0.247434
0.247518
0.247602
0.247685
0.247685
0.247769
0.247853
0.247937
0.248021
0.248021
0.248105
0.248189
0.248273
0.248357
0.248357
0.248441
0.248526
0.24861
0.248694
0.248694
0.248779
0.248863
0.248947
0.249032
0.249032
0.249116
0.249201
0.249285
0.24937
0.24937
0.249455
0.249539
0.249624
0.249709
0.249709
0.249794
0.249878
0.249963
0.250048
0.250048
0.250133
0.250218
0.250303
0.250388
0.250388
0.250473
0.250558
0.250644
0.250729
0.250729
0.250814
0.250899
0.250985
0.25107
0.25107
0.251155
0.251241
0.251326
0.251412
0.251412
0.251497
0.251583
0.251669
0.251754
0.251754
0.25184
0.251926
0.252012
0.252097
0.252097
0.252183
0.252269
0.252355
0.252441
0.252441
0.252527
0.252613
0.252699
0.252786
0.252786
0.252872
0.252958
0.253044
0.253131
0.253131
0.253217
0.253303
0.25339
0.253476
0.253476
0.253563
0.253649
0.253736
0.253822
0.253822
0.253909
0.253996
0.254082
0.254169
0.254169
0.254256
0.254343
0.25443
0.254517
0.254517
0.254604
0.254691
0.254778
0.254865
0.254865
0.254952
0.255039
0.255126
0.255213
0.255213
0.255301
0.255388
0.255475
0.255563
0.255563
0.25565
0.255738
0.255825
0.255913
0.255913
0.256
0.256088
0.256175
0.256263
0.256263
0.256351
0.256439
0.256526
0.256614
0.256614
0.256702
0.25679
0.256878
0.256966
0.256966
0.257054
0.257142
0.25723
0.257319
0.257319
0.257407
0.257495
0.257583
0.257672
0.257672
0.25776
0.257848
0.257937
0.258025
0.258025
0.258114
0.258202
0.258291
0.25838
0.25838
0.258468
0.258557
0.258646
0.258734
0.258734
0.258823
0.258912
0.259001
0.25909
0.25909
0.259179
0.259268
0.259357
0.259446
0.259446
0.259535
0.259624
0.259714
0.259803
0.259803
0.259892
0.259982
0.260071
0.26016
0.26016
0.26025
0.260339
0.260429
0.260518
0.260518
0.260608
0.260698
0.260787
0.260877
0.260877
0.260967
0.261056
0.261146
0.261236
0.261236
0.261326
0.261416
0.261506
0.261596
0.261596
0.261686
0.261776
0.261866
0.261957
0.261957
0.262047
0.262137
0.262227
0.262318
0.262318
0.262408
0.262498
0.262589
0.262679
0.262679
0.26277
0.262861
0.262951
0.263042
0.263042
0.263132
0.263223
0.263314
0.263405
0.263405
0.263496
0.263587
0.263677
0.263768
0.263768
0.263859
0.26395
0.264042
0.264133
0.264133
0.264224
0.264315
0.264406
0.264497
0.264497
0.264589
0.26468
0.264772
0.264863
0.264863
0.264954
0.265046
0.265137
0.265229
0.265229
0.265321
0.265412
0.265504
0.265596
0.265596
0.265688
0.265779
0.265871
0.265963
0.265963
0.266055
0.266147
0.266239
0.266331
0.266331
0.266423
0.266515
0.266608
0.2667
0.2667
0.266792
0.266884
0.266977
0.267069
0.267069
0.267161
0.267254
0.267346
0.267439
0.267439
0.267531
0.267624
0.267717
0.267809
0.267809
0.267902
0.267995
0.268088
0.26818
0.26818
0.268273
0.268366
0.268459
0.268552
0.268552
0.268645
0.268738
0.268831
0.268924
0.268924
0.269018
0.269111
0.269204
0.269297
0.269297
0.269391
0.269484