<?xml version="1.0"?>
<VTKFile type="UnstructuredGrid" version="0.1" byte_order="LittleEndian">
<UnstructuredGrid>
<Piece NumberOfPoints="5000" NumberOfCells="4000">
<PointData Scalars="Reaction 0">
<DataArray type="Float32" Name="Reaction 0" format="ascii">
0.584345
0.584345
0.584345
0.584345
0.584345
0.584345
0.584345
0.584345
0.584345
0.584346
0.584346
0.584346
0.584346
0.584346
0.584347
0.584347
0.584347
0.584347
0.584348
0.584348
0.584348
0.584348
0.584349
0.584349
0.58435
0.58435
0.58435
0.584351
0.584351
0.584352
0.584352
0.584352
0.584353
0.584353
0.584354
0.584354
0.584355
0.584355
0.584356
0.584357
0.584357
0.584358
0.584358
0.584359
0.58436
0.58436
0.584361
0.584362
0.584363
0.584364
0.584364
0.584365
0.584366
0.584367
0.584368
0.584368
0.584369
0.58437
0.584371
0.584372
0.584372
0.584373
0.584374
0.584375
0.584377
0.584377
0.584378
0.584379
0.58438
0.584382
0.584382
0.584383
0.584384
0.584386
0.584387
0.584387
0.584389
0.58439
0.584392
0.584393
0.584393
0.584395
0.584396
0.584398
0.584399
0.584399
0.584401
0.584403
0.584404
0.584406
0.584406
0.584408
0.584409
0.584411
0.584413
0.584413
0.584415
0.584416
0.584418
0.58442
0.58442
0.584422
0.584424
0.584426
0.584428
0.584428
0.58443
0.584432
0.584434
0.584436
0.584436
0.584438
0.58444
0.584442
0.584445
0.584445
0.584447
0.584449
0.584451
0.584453
0.584453
0.584456
0.584458
0.58446
0.584463
0.584463
0.584465
0.584467
0.58447
0.584472
0.584472
0.584475
0.584477
0.58448
0.584482
0.584482
0.584485
0.584487
0.58449
0.584492
0.584492
0.584495
0.584498
0.584501
0.584503
0.584503
0.584506
0.584509
0.584512
0.584514
0.584514
0.584517
0.58452
0.584523
0.584526
0.584526
0.584529
0.584532
0.584535
0.584538
0.584538
0.584541
0.584544
0.584547
0.58455
0.58455
0.584553
0.584556
0.58456
0.584563
0.584563
0.584566
0.584569
0.584573
0.584576
0.584576
0.584579
0.584583
0.584586
0.584589
0.584589
0.584593
0.584596
0.5846
0.584603
0.584603
0.584607
0.58461
0.584614
0.584617
0.584617
0.584621
0.584625
0.584628
0.584632
0.584632
0.584636
0.584639
0.584643
0.584647
0.584647
0.584651
0.584654
0.584658
0.584662
0.584662
0.584666
0.58467
0.584674
0.584678
0.584678
0.584682
0.584686
0.58469
0.584694
0.584694
0.584698
0.584702
0.584706
0.584711
0.584711
0.584715
0.584719
0.584723
0.584727
0.584727
0.584732
0.584736
0.58474
0.584745
0.584745
0.584749
0.584753
0.584758
0.584762
0.584762
0.584767
0.584771
0.584776
0.58478
0.58478
0.584785
0.58479
0.584794
0.584799
0.584799
0.584803
0.584808
0.584813
0.584818
0.584818
0.584822
0.584827
0.584832
0.584837
0.584837
0.584842
0.584847
0.584851
0.584856
0.584856
0.584861
0.584866
0.584871
0.584876
0.584876
0.584881
0.584887
0.584892
0.584897
0.584897
0.584902
0.584907
0.584912
0.584918
0.584918
0.584923
0.584928
0.584933
0.584939
0.584939
0.584944
0.584949
0.584955
0.58496
0.58496
0.584966
0.584971
0.584977
0.584982
0.584982
0.584988
0.584993
0.584999
0.585004
0.585004
0.58501
0.585016
0.585021
0.585027
0.585027
0.585033
0.585039
0.585044
0.58505
0.58505
0.585056
0.585062
0.585068
0.585074
0.585074
0.58508
0.585086
0.585092
0.585098
0.585098
0.585104
0.58511
0.585116
0.585122
0.585122
0.585128
0.585134
0.58514
0.585147
0.585147
0.585153
0.585159
0.585165
0.585172
0.585172
0.585178
0.585184
0.585191
0.585197
0.585197
0.585204
0.58521
0.585217
0.585223
0.585223
0.58523
0.585236
0.585243
0.585249
0.585249
0.585256
0.585263
0.585269
0.585276
0.585276
0.585283
0.585289
0.585296
0.585303
0.585303
0.58531
0.585317
0.585324
0.585331
0.585331
0.585337
0.585344
0.585351
0.585358
0.585358
0.585365
0.585372
0.585379
0.585387
0.585387
0.585394
0.585401
0.585408
0.585415
0.585415
0.585422
0.58543
0.585437
0.585444
0.585444
0.585452
0.585459
0.585466
0.585474
0.585474
0.585481
0.585489
0.585496
0.585504
0.585504
0.585511
0.585519
0.585526
0.585534
0.585534
0.585542
0.585549
0.585557
0.585565
0.585565
0.585572
0.58558
0.585588
0.585596
0.585596
0.585604
0.585612
0.585619
0.585627
0.585627
0.585635
0.585643
0.585651
0.585659
0.585659
0.585667
0.585675
0.585684
0.585692
0.585692
0.5857
0.585708
0.585716
0.585724
0.585724
0.585733
0.585741
0.585749
0.585758
0.585758
0.585766
0.585774
0.585783
0.585791
0.585791
0.5858
0.585808
0.585817
0.585825
0.585825
0.585834
0.585842
0.585851
0.585859
0.585859
0.585868
0.585877
0.585886
0.585894
0.585894
0.585903
0.585912
0.585921
0.585929
0.585929
0.585938
0.585947
0.585956
0.585965
0.585965
0.585974
0.585983
0.585992
0.586001
0.586001
0.58601
0.586019
0.586028
0.586038
0.586038
0.586047
0.586056
0.586065
0.586074
0.586074
0.586084
0.586093
0.586102
0.586112
0.586112
0.586121
0.586131
0.58614
0.586149
0.586149
0.586159
0.586168
0.586178
0.586188
0.586188
0.586197
0.586207
0.586216
0.586226
0.586226
0.586236
0.586245
0.586255
0.586265
0.586265
0.586275
0.586285
0.586294
0.586304
0.586304
0.586314
0.586324
0.586334
0.586344
0.586344
0.586354
0.586364
0.586374
0.586384
0.586384
0.586394
0.586404
0.586415
0.586425
0.586425
0.586435
0.586445
0.586456
0.586466
0.586466
0.586476
0.586487
0.586497
0.586508
0.586508
0.586518
0.586528
0.586539
0.58655
0.58655
0.58656
0.586571
0.586581
0.586592
0.586592
0.586603
0.586613
0.586624
0.586635
0.586635
0.586646
0.586656
0.586667
0.586678
0.586678
0.586689
0.5867
0.586711
0.586722
0.586722
0.586733
0.586744
0.586755
0.586766
0.586766
0.586777
0.586788
0.586799
0.586811
0.586811
0.586822
0.586833
0.586844
0.586856
0.586856
0.586867
0.586878
0.58689
0.586901
0.586901
0.586912
0.586924
0.586935
0.586947
0.586947
0.586958
0.58697
0.586981
0.586993
0.586993
0.587005
0.587016
0.587028
0.58704
0.58704
0.587052
0.587063
0.587075
0.587087
0.587087
0.587099
0.587111
0.587123
0.587134
0.587134
0.587146
0.587158
0.58717
0.587183
0.587183
0.587195
0.587207
0.587219
0.587231
0.587231
0.587243
0.587255
0.587268
0.58728
0.58728
0.587292
0.587304
0.587317
0.587329
0.587329
0.587342
0.587354
0.587366
0.587379
0.587379
0.587391
0.587404
0.587416
0.587429
0.587429
0.587442
0.587454
0.587467
0.58748
0.58748
0.587493
0.587505
0.587518
0.587531
0.587531
0.587544
0.587557
0.58757
0.587583
0.587583
0.587596
0.587609
0.587622
0.587635
0.587635
0.587648
0.587661
0.587674
0.587688
0.587688
0.587701
0.587714
0.587727
0.587741
0.587741
0.587754
0.587767
0.587781
0.587794
0.587794
0.587807
0.587821
0.587834
0.587848
0.587848
0.587861
0.587875
0.587889
0.587902
0.587902
0.587916
0.58793
0.587943
0.587957
0.587957
0.587971
0.587985
0.587999
0.588012
0.588012
0.588026
0.58804
0.588054
0.588068
0.588068
0.588082
0.588096
0.58811
0.588124
0.588124
0.588138
0.588153
0.588167
0.588181
0.588181
0.588195
0.588209
0.588224
0.588238
0.588238
0.588252
0.588267
0.588281
0.588295
0.588295
0.58831
0.588324
0.588339
0.588353
0.588353
0.588368
0.588383
0.588397
0.588412
0.588412
0.588427
0.588441
0.588456
0.588471
0.588471
0.588486
0.5885
0.588515
0.58853
0.58853
0.588545
0.58856
0.588575
0.58859
0.58859
0.588605
0.588621
0.588636
0.588651
0.588651
0.588666
0.588681
0.588697
0.588712
0.588712
0.588727
0.588742
0.588758
0.588773
0.588773
0.588789
0.588804
0.58882
0.588835
0.588835
0.588851
0.588866
0.588882
0.588897
0.588897
0.588913
0.588929
0.588945
0.58896
0.58896
0.588976
0.588992
0.589008
0.589024
0.589024
0.589039
0.589055
0.589071
0.589087
0.589087
0.589103
0.589119
0.589135
0.589152
0.589152
0.589168
0.589184
0.5892
0.589216
0.589216
0.589232
0.589249
0.589265
0.589281
0.589281
0.589298
0.589314
0.589331
0.589347
0.589347
0.589363
0.58938
0.589397
0.589413
0.589413
0.58943
0.589446
0.589463
0.58948
0.58948
0.589496
0.589513
0.58953
0.589547
0.589547
0.589564
0.589581
0.589598
0.589615
0.589615
0.589632
0.589649
0.589666
0.589683
0.589683
0.5897
0.589717
0.589734
0.589752
0.589752
0.589769
0.589786
0.589803
0.589821
0.589821
0.589838
0.589856
0.589873
0.58989
0.58989
0.589908
0.589926
0.589943
0.589961
0.589961
0.589978
0.589996
0.590014
0.590031
0.590031
0.590049
0.590067
0.590085
0.590102
0.590102
0.59012
0.590138
0.590156
0.590174
0.590174
0.590192
0.59021
0.590228
0.590246
0.590246
0.590264
0.590282
0.590301
0.590319
0.590319
0.590337
0.590355
0.590374
0.590392
0.590392
0.59041
0.590429
0.590447
0.590465
0.590465
0.590484
0.590502
0.590521
0.59054
0.59054
0.590558
0.590577
0.590595
0.590614
0.590614
0.590633
0.590652
0.590671
0.590689
0.590689
0.590708
0.590727
0.590746
0.590765
0.590765
0.590784
0.590803
0.590822
0.590842
0.590842
0.590861
0.59088
0.590899
0.590918
0.590918
0.590938
0.590957
0.590976
0.590996
0.590996
0.591015
0.591035
0.591054
0.591074
0.591074
0.591093
0.591113
0.591132
0.591152
0.591152
0.591172
0.591191
0.591211
0.591231
0.591231
0.591251
0.59127
0.59129
0.59131
0.59131
0.59133
0.59135
0.59137
0.59139
0.59139
0.59141
0.59143
0.59145
0.59147
0.59147
0.59149
0.591511
0.591531
0.591551
0.591551
0.591571
0.591592
0.591612
0.591632
0.591632
0.591653
0.591673
0.591694
0.591714
0.591714
0.591735
0.591755
0.591776
0.591797
0.591797
0.591818
0.591838
0.591859
0.59188
0.59188
0.591901
0.591922
0.591943
0.591964
0.591964
0.591985
0.592006
0.592027
0.592048
0.592048
0.592069
0.59209
0.592111
0.592133
0.592133
0.592154
0.592175
0.592197
0.592218
0.592218
0.592239
0.592261
0.592282
0.592304
0.592304
0.592325
0.592347
0.592368
0.59239
0.59239
0.592411
0.592433
0.592455
0.592477
0.592477
0.592498
0.59252
0.592542
0.592564
0.592564
0.592586
0.592608
0.59263
0.592652
0.592652
0.592674
0.592696
0.592718
0.59274
0.59274
0.592762
0.592784
0.592807
0.592829
0.592829
0.592851
0.592874
0.592896
0.592919
0.592919
0.592941
0.592964
0.592986
0.593009
0.593009
0.593031
0.593054
0.593077
0.5931
0.5931
0.593122
0.593145
0.593168
0.593191
0.593191
0.593214
0.593237
0.59326
0.593283
0.593283
0.593306
0.593329
0.593352
0.593375
0.593375
0.593398
0.593421
0.593445
0.593468
0.593468
0.593491
0.593514
0.593538
0.593561
0.593561
0.593585
0.593608
0.593632
0.593655
0.593655
0.593679
0.593702
0.593726
0.59375
0.59375
0.593773
0.593797
0.593821
0.593845
0.593845
0.593868
0.593892
0.593916
0.59394
0.59394
0.593964
0.593988
0.594012
0.594036
0.594036
0.594061
0.594085
0.594109
0.594133
0.594133
0.594158
0.594182
0.594206
0.594231
0.594231
0.594255
0.59428
0.594304
0.594329
0.594329
0.594353
0.594378
0.594403
0.594427
0.594427
0.594452
0.594477
0.594502
0.594526
0.594526
0.594551
0.594576
0.594601
0.594626
0.594626
0.594651
0.594676
0.594701
0.594726
0.594726
0.594751
0.594777
0.594802
0.594827
0.594827
0.594852
0.594878
0.594903
0.594928
0.594928
0.594954
0.594979
0.595005
0.59503
0.59503
0.595056
0.595081
0.595107
0.595133
0.595133
0.595158
0.595184
0.59521
0.595236
0.595236
0.595262
0.595288
0.595314
0.59534
0.59534
0.595366
0.595392
0.595418
0.595444
0.595444
0.59547
0.595496
0.595523
0.595549
0.595549
0.595575
0.595602
0.595628
0.595654
0.595654
0.595681
0.595707
0.595734
0.59576
0.59576
0.595787
0.595814
0.59584
0.595867
0.595867
0.595894
0.59592
0.595947
0.595974
0.595974
0.596001
0.596028
0.596055
0.596082
0.596082
0.596109
0.596136
0.596163
0.59619
0.59619
0.596217
0.596244
0.596272
0.596299
0.596299
0.596326
0.596354
0.596381
0.596409
0.596409
0.596436
0.596464
0.596491
0.596519
0.596519
0.596546
0.596574
0.596602
0.59663
0.59663
0.596657
0.596685
0.596713
0.596741
0.596741
0.596769
0.596797
0.596825
0.596853
0.596853
0.596881
0.596909
0.596937
0.596966
0.596966
0.596994
0.597022
0.59705
0.597079
0.597079
0.597107
0.597135
0.597164
0.597192
0.597192
0.597221
0.597249
0.597278
0.597307
0.597307
0.597335
0.597364
0.597393
0.597421
0.597421
0.59745
0.597479
0.597508
0.597537
0.597537
0.597566
0.597595
0.597624
0.597653
0.597653
0.597682
0.597712
0.597741
0.59777
0.59777
0.597799
0.597829
0.597858
0.597888
0.597888
0.597917
0.597946
0.597976
0.598006
0.598006
0.598035
0.598065
0.598094
0.598124
0.598124
0.598154
0.598184
0.598213
0.598243
0.598243
0.598273
0.598303
0.598333
0.598363
0.598363
0.598393
0.598423
0.598453
0.598483
0.598483
0.598514
0.598544
0.598574
0.598604
0.598604
0.598635
0.598665
0.598695
0.598726
0.598726
0.598756
0.598787
0.598818
0.598848
0.598848
0.598879
0.59891
0.59894
0.598971
0.598971
0.599002
0.599033
0.599064
0.599095
0.599095
0.599126
0.599157
0.599188
0.599219
0.599219
0.59925
0.599281
0.599312
0.599344
0.599344
0.599375
0.599406
0.599437
0.599469
0.599469
0.5995
0.599532
0.599563
0.599595
0.599595
0.599626
0.599658
0.59969
0.599721
0.599721
0.599753
0.599785
0.599816
0.599848
0.599848
0.59988
0.599912
0.599944
0.599976
0.599976
0.600008
0.60004
0.600072
0.600105
0.600105
0.600137
0.600169
0.600201
0.600234
0.600234
0.600266
0.600299
0.600331
0.600363
0.600363
0.600396
0.600429
0.600461
0.600494
0.600494
0.600526
0.600559
0.600592
0.600625
0.600625
0.600658
0.60069
0.600723
0.600756
0.600756
0.600789
0.600822
0.600855
0.600888
0.600888
0.600921
0.600955
0.600988
0.601021
0.601021
0.601054
0.601088
0.601121
0.601154
0.601154
0.601188
0.601221
0.601255
0.601288
0.601288
0.601322
0.601356
0.601389
0.601423
0.601423
0.601457
0.601491
0.601525
0.601559
0.601559
0.601592
0.601626
0.60166
0.601695
0.601695
0.601729
0.601763
0.601797
0.601831
0.601831
0.601865
0.6019
0.601934
0.601968
0.601968
0.602003
0.602037
0.602071
0.602106
0.602106
0.60214
0.602175
0.60221
0.602244
0.602244
0.602279
0.602314
0.602348
0.602383
0.602383
0.602418
0.602453
0.602488
0.602523
0.602523
0.602558
0.602593
0.602628
0.602663
0.602663
0.602699
0.602734
0.602769
0.602804
0.602804
0.60284
0.602875
0.602911
0.602946
0.602946
0.602982
0.603017
0.603053
0.603088
0.603088
0.603124
0.60316
0.603195
0.603231
0.603231
0.603267
0.603303
0.603339
0.603375
0.603375
0.60341
0.603446
0.603482
0.603519
0.603519
0.603555
0.603591
0.603627
0.603663
0.603663
0.603699
0.603736
0.603772
0.603809
0.603809
0.603845
0.603882
0.603918
0.603955
0.603955
0.603991
0.604028
0.604065
0.604101
0.604101
0.604138
0.604175
0.604212
0.604249
0.604249
0.604286
0.604323
0.60436
0.604397
0.604397
0.604434
0.604471
0.604508
0.604545
0.604545
0.604582
0.604619
0.604657
0.604694
0.604694
0.604731
0.604769
0.604806
0.604844
0.604844
0.604881
0.604919
0.604956
0.604994
0.604994
0.605032
0.60507
0.605107
0.605145
0.605145
0.605183
0.605221
0.605259
0.605297
0.605297
0.605335
0.605373
0.605411
0.605449
0.605449
0.605487
0.605526
0.605564
0.605602
0.605602
0.605641
0.605679
0.605717
0.605756
0.605756
0.605794
0.605833
0.605871
0.60591
0.60591
0.605949
0.605987
0.606026
0.606065
0.606065
0.606103
0.606142
0.606181
0.60622
0.60622
0.606259
0.606298
0.606337
0.606376
0.606376
0.606415
0.606454
0.606494
0.606533
0.606533
0.606572
0.606611
0.606651
0.60669
0.60669
0.60673
0.606769
0.606809
0.606848
0.606848
0.606888
0.606927
0.606967
0.607007
0.607007
0.607046
0.607086
0.607126
0.607166
0.607166
0.607206
0.607246
0.607286
0.607326
0.607326
0.607366
0.607406
0.607446
0.607486
0.607486
0.607526
0.607566
0.607607
0.607647
0.607647
0.607687
0.607728
0.607768
0.607809
0.607809
0.607849
0.60789
0.60793
0.607971
0.607971
0.608012
0.608052
0.608093
0.608134
0.608134
0.608175
0.608216
0.608257
0.608298
0.608298
0.608339
0.60838
0.608421
0.608462
0.608462
0.608503
0.608544
0.608585
0.608626
0.608626
0.608668
0.608709
0.60875
0.608792
0.608792
0.608833
0.608875
0.608916
0.608958
0.608958
0.608999
0.609041
0.609083
0.609124
0.609124
0.609166
0.609208
0.60925
0.609292
0.609292
0.609333
0.609375
0.609417
0.609459
0.609459
0.609501
0.609544
0.609586
0.609628
0.609628
0.60967
0.609712
0.609754
0.609797
0.609797
0.609839
0.609882
0.609924
0.609966
0.609966
0.610009
0.610051
0.610094
0.610137
0.610137
0.610179
0.610222
0.610265
0.610307
0.610307
0.61035
0.610393
0.610436
0.610479
0.610479
0.610522
0.610565
0.610608
0.610651
0.610651
0.610694
0.610737
0.61078
0.610824
0.610824
0.610867
0.61091
0.610954
0.610997
0.610997
0.61104
0.611084
0.611127
0.611171
0.611171
0.611214
0.611258
0.611302
0.611345
0.611345
0.611389
0.611433
0.611476
0.61152
0.61152
0.611564
0.611608
0.611652
0.611696
0.611696
0.61174
0.611784
0.611828
0.611872
0.611872
0.611916
0.61196
0.612005
0.612049
0.612049
0.612093
0.612138
0.612182
0.612226
0.612226
0.612271
0.612315
0.61236
0.612404
0.612404
0.612449
0.612494
0.612538
0.612583
0.612583
0.612628
0.612672
0.612717
0.612762
0.612762
0.612807
0.612852
0.612897
0.612942
0.612942
0.612987
0.613032
0.613077
0.613122
0.613122
0.613167
0.613212
0.613258
0.613303
0.613303
0.613348
0.613394
0.613439
0.613484
0.613484
0.61353
0.613575
0.613621
0.613666
0.613666
0.613712
0.613758
0.613803
0.613849
0.613849
0.613895
0.61394
0.613986
0.614032
0.614032
0.614078
0.614124
0.61417
0.614216
0.614216
0.614262
0.614308
0.614354
0.6144
0.6144
0.614446
0.614493
0.614539
0.614585
0.614585
0.614631
0.614678
0.614724
0.61477
0.61477
0.614817
0.614863
0.61491
0.614956
0.614956
0.615003
0.61505
0.615096
0.615143
0.615143
0.61519
0.615236
0.615283
0.61533
0.61533
0.615377
0.615424
0.615471
0.615518
0.615518
0.615565
0.615612
0.615659
0.615706
0.615706
0.615753
0.6158
0.615847
0.615895
0.615895
0.615942
0.615989
0.616036
0.616084
0.616084
0.616131
0.616179
0.616226
0.616274
0.616274
0.616321
0.616369
0.616416
0.616464
0.616464
0.616512
0.616559
0.616607
0.616655
0.616655
0.616703
0.61675
0.616798
0.616846
0.616846
0.616894
0.616942
0.61699
0.617038
0.617038
0.617086
0.617134
0.617182
0.617231
0.617231
0.617279
0.617327
0.617375
0.617424
0.617424
0.617472
0.61752
0.617569
0.617617
0.617617
0.617666
0.617714
0.617763
0.617811
0.617811
0.61786
0.617908
0.617957
0.618006
0.618006
0.618054
0.618103
0.618152
0.618201
0.618201
0.618249
0.618298
0.618347
0.618396
0.618396
0.618445
0.618494
0.618543
0.618592
0.618592
0.618641
0.618691
0.61874
0.618789
0.618789
0.618838
0.618887
0.618937
0.618986
0.618986
0.619035
0.619085
0.619134
0.619184
0.619184
0.619233
0.619282
0.619332
0.619382
0.619382
0.619431
0.619481
0.61953
0.61958
0.61958
0.61963
0.61968
0.619729
0.619779
0.619779
0.619829
0.619879
0.619929
0.619979
0.619979
0.620029
0.620079
0.620129
0.620179
0.620179
0.620229
0.620279
0.620329
0.620379
0.620379
0.620429
0.62048
0.62053
0.62058
0.62058
0.62063
0.620681
0.620731
0.620782
0.620782
0.620832
0.620882
0.620933
0.620983
0.620983
0.621034
0.621085
0.621135
0.621186
0.621186
0.621237
0.621287
0.621338
0.621389
0.621389
0.62144
0.62149
0.621541
0.621592
0.621592
0.621643
0.621694
0.621745
0.621796
0.621796
0.621847
0.621898
0.621949
0.622
0.622
0.622051
0.622102
0.622153
0.622205
0.622205
0.622256
0.622307
0.622358
0.62241
0.62241
0.622461
0.622512
0.622564
0.622615
0.622615
0.622667
0.622718
0.62277
0.622821
0.622821
0.622873
0.622924
0.622976
0.623028
0.623028
0.623079
0.623131
0.623183
0.623234
0.623234
0.623286
0.623338
0.62339
0.623442
0.623442
0.623494
0.623546
0.623597
0.623649
0.623649
0.623701
0.623753
0.623805
0.623858
0.623858
0.62391
0.623962
0.624014
0.624066
0.624066
0.624118
0.624171
0.624223
0.624275
0.624275
0.624327
0.62438
0.624432
0.624484
0.624484
0.624537
0.624589
0.624642
0.624694
0.624694
0.624747
0.624799
0.624852
0.624904
0.624904
0.624957
0.62501
0.625062
0.625115
0.625115
0.625168
0.62522
0.625273
0.625326
0.625326
0.625379
0.625432
0.625484
0.625537
0.625537
0.62559
0.625643
0.625696
0.625749
0.625749
0.625802
0.625855
0.625908
0.625961
0.625961
0.626014
0.626067
0.62612
0.626174
0.626174
0.626227
0.62628
0.626333
0.626387
0.626387
0.62644
0.626493
0.626546
0.6266
0.6266
0.626653
0.626707
0.62676
0.626813
0.626813
0.626867
0.62692
0.626974
0.627027
0.627027
0.627081
0.627135
0.627188
0.627242
0.627242
0.627295
0.627349
0.627403
0.627457
0.627457
0.62751
0.627564
0.627618
0.627672
0.627672
0.627725
0.627779
0.627833
0.627887
0.627887
0.627941
0.627995
0.628049
0.628103
0.628103
0.628157
0.628211
0.628265
0.628319
0.628319
0.628373
0.628427
0.628481
0.628535
0.628535
0.62859
0.628644
0.628698
0.628752
0.628752
0.628806
0.628861
0.628915
0.628969
0.628969
0.629024
0.629078
0.629132
0.629187
0.629187
0.629241
0.629296
0.62935
0.629405
0.629405
0.629459
0.629514
0.629568
0.629623
0.629623
0.629677
0.629732
0.629787
0.629841
0.629841
0.629896
0.62995
0.630005
0.63006
0.63006
0.630115
0.630169
0.630224
0.630279
0.630279
0.630334
0.630389
0.630443
0.630498
0.630498
0.630553
0.630608
0.630663
0.630718
0.630718
0.630773
0.630828
0.630883
0.630938
0.630938
0.630993
0.631048
0.631103
0.631158
0.631158
0.631213
0.631268
0.631324
0.631379
0.631379
0.631434
0.631489
0.631544
0.6316
0.6316
0.631655
0.63171
0.631765
0.631821
0.631821
0.631876
0.631931
0.631987
0.632042
0.632042
0.632097
0.632153
0.632208
0.632264
0.632264
0.632319
0.632375
0.63243
0.632486
0.632486
0.632541
0.632597
0.632652
0.632708
0.632708
0.632763
0.632819
0.632875
0.63293
0.63293
0.632986
0.633042
0.633097
0.633153
0.633153
0.633209
0.633265
0.63332
0.633376
0.633376
0.633432
0.633488
0.633544
0.633599
0.633599
0.633655
0.633711
0.633767
0.633823
0.633823
0.633879
0.633935
0.633991
0.634047
0.634047
0.634103
0.634159
0.634215
0.634271
0.634271
0.634327
0.634383
0.634439
0.634495
0.634495
0.634551
0.634607
0.634663
0.634719
0.634719
0.634776
0.634832
0.634888
0.634944
0.634944
0.635
0.635057
0.635113
0.635169
0.635169
0.635225
0.635282
0.635338
0.635394
0.635394
0.63545
0.635507
0.635563
0.63562
0.63562
0.635676
0.635732
0.635789
0.635845
0.635845
0.635902
0.635958
0.636015
0.636071
0.636071
0.636128
0.636184
0.636241
0.636297
0.636297
0.636354
0.63641
0.636467
0.636523
0.636523
0.63658
0.636637
0.636693
0.63675
0.63675
0.636806
0.636863
0.63692
0.636976
0.636976
0.637033
0.63709
0.637147
0.637203
0.637203
0.63726
0.637317
0.637374
0.63743
0.63743
0.637487
0.637544
0.637601
0.637658
0.637658
0.637714
0.637771
0.637828
0.637885
0.637885
0.637942
0.637999
0.638056
0.638113
0.638113
0.63817
0.638227
0.638284
0.63834
0.63834
0.638397
0.638454
0.638511
0.638568
0.638568
0.638626
0.638683
0.63874
0.638797
0.638797
0.638854
0.638911
0.638968
0.639025
0.639025
0.639082
0.639139
0.639196
0.639254
0.639254
0.639311
0.639368
0.639425
0.639482
0.639482
0.639539
0.639597
0.639654
0.639711
0.639711
0.639768
0.639826
0.639883
0.63994
0.63994
0.639997
0.640055
0.640112
0.640169
0.640169
0.640227
0.640284
0.640341
0.640399
0.640399
0.640456
0.640513
0.640571
0.640628
0.640628
0.640685
0.640743
0.6408
0.640858
0.640858
0.640915
0.640973
0.64103
0.641087
0.641087
0.641145
0.641202
0.64126
0.641317
0.641317
0.641375
0.641432
0.64149
0.641547
0.641547
0.641605
0.641663
0.64172
0.641778
0.641778
0.641835
0.641893
0.64195
0.642008
0.642008
0.642066
0.642123
0.642181
0.642239
0.642239
0.642296
0.642354
0.642411
0.642469
0.642469
0.642527
0.642585
0.642642
0.6427
0.6427
0.642758
0.642815
0.642873
0.642931
0.642931
0.642988
0.643046
0.643104
0.643162
0.643162
0.64322
0.643277
0.643335
0.643393
0.643393
0.643451
0.643508
0.643566
0.643624
0.643624
0.643682
0.64374
0.643798
0.643855
0.643855
0.643913
0.643971
0.644029
0.644087
0.644087
0.644145
0.644203
0.644261
0.644318
0.644318
0.644376
0.644434
0.644492
0.64455
0.64455
0.644608
0.644666
0.644724
0.644782
0.644782
0.64484
0.644898
0.644956
0.645014
0.645014
0.645072
0.64513
0.645188
0.645246
0.645246
0.645304
0.645362
0.64542
0.645478
0.645478
0.645536
0.645594
0.645652
0.64571
0.64571
0.645768
0.645826
0.645884
0.645942
0.645942
0.646001
0.646059
0.646117
0.646175
0.646175
0.646233
0.646291
0.646349
0.646407
0.646407
0.646465
0.646524
0.646582
0.64664
0.64664
0.646698
0.646756
0.646814
0.646873
0.646873
0.646931
0.646989
0.647047
0.647105
0.647105
0.647164
0.647222
0.64728
0.647338
0.647338
0.647396
0.647455
0.647513
0.647571
0.647571
0.647629
0.647688
0.647746
0.647804
0.647804
0.647862
0.647921
0.647979
0.648037
0.648037
0.648095
0.648154
0.648212
0.64827
0.64827
0.648329
0.648387
0.648445
0.648503
0.648503
0.648562
0.64862
0.648678
0.648737
0.648737
0.648795
0.648853
0.648912
0.64897
0.64897
0.649028
0.649087
0.649145
0.649204
0.649204
0.649262
0.64932
0.649379
0.649437
0.649437
0.649495
0.649554
0.649612
0.649671
0.649671
0.649729
0.649787
0.649846
0.649904
0.649904
0.649963
0.650021
0.650079
0.650138
0.650138
0.650196
0.650255
0.650313
0.650372
0.650372
0.65043
0.650489
0.650547
0.650605
0.650605
0.650664
0.650722
0.650781
0.650839
0.650839
0.650898
0.650956
0.651015
0.651073
0.651073
0.651132
0.65119
0.651249
0.651307
0.651307
0.651366
0.651424
0.651483
0.651541
0.651541
0.6516
0.651658
0.651717
0.651775
0.651775
0.651834
0.651892
0.651951
0.652009
0.652009
0.652068
0.652127
0.652185
0.652244
0.652244
0.652302
0.652361
0.652419
0.652478
0.652478
0.652536
0.652595
0.652654
0.652712
0.652712
0.652771
0.652829
0.652888
0.652946
0.652946
0.653005
0.653064
0.653122
0.653181
0.653181
0.653239
0.653298
0.653357
0.653415
0.653415
0.653474
0.653532
0.653591
0.65365
0.65365
0.653708
0.653767
0.653826
0.653884
0.653884
0.653943
0.654001
0.65406
0.654119
0.654119
0.654177
0.654236
0.654295
0.654353
0.654353
0.654412
0.654471
0.654529
0.654588
0.654588
0.654647
0.654705
0.654764
0.654822
0.654822
0.654881
0.65494
0.654998
0.655057
0.655057
0.655116
0.655175
0.655233
0.655292
0.655292
0.655351
0.655409
0.655468
0.655527
0.655527
0.655585
0.655644
0.655703
0.655761
0.655761
0.65582
0.655879
0.655937
0.655996
0.655996
0.656055
0.656114
0.656172
0.656231
0.656231
0.65629
0.656348
0.656407
0.656466
0.656466
0.656525
0.656583
0.656642
0.656701
0.656701
0.65676
0.656818
0.656877
0.656936
0.656936
0.656994
0.657053
0.657112
0.657171
0.657171
0.657229
0.657288
0.657347
0.657406
0.657406
0.657464
0.657523
0.657582
0.657641
0.657641
0.657699
0.657758
0.657817
0.657876
0.657876
0.657934
0.657993
0.658052
0.658111
0.658111
0.658169
0.658228
0.658287
0.658346
0.658346
0.658405
0.658463
0.658522
0.658581
0.658581
0.65864
0.658698
0.658757
0.658816
0.658816
0.658875
0.658934
0.658992
0.659051
0.659051
0.65911
0.659169
0.659227
0.659286
0.659286
0.659345
0.659404
0.659463
0.659521
0.659521
0.65958
0.659639
0.659698
0.659757
0.659757
0.659815
0.659874
0.659933
0.659992
0.659992
0.660051
0.660109
0.660168
0.660227
0.660227
0.660286
0.660345
0.660403
0.660462
0.660462
0.660521
0.66058
0.660639
0.660698
0.660698
0.660756
0.660815
0.660874
0.660933
0.660933
0.660992
0.66105
0.661109
0.661168
0.661168
0.661227
0.661286
0.661345
0.661403
0.661403
0.661462
0.661521
0.66158
0.661639
0.661639
0.661698
0.661756
0.661815
0.661874
0.661874
0.661933
0.661992
0.662051
0.662109
0.662109
0.662168
0.662227
0.662286
0.662345
0.662345
0.662404
0.662462
0.662521
0.66258
0.66258
0.662639
0.662698
0.662757
0.662816
0.662816
0.662874
0.662933
0.662992
0.663051
0.663051
0.66311
0.663169
0.663227
0.663286
0.663286
0.663345
0.663404
0.663463
0.663522
0.663522
0.663581
0.663639
0.663698
0.663757
0.663757
0.663816
0.663875
0.663934
0.663993
0.663993
0.664051
0.66411
0.664169
0.664228
0.664228
0.664287
0.664346
0.664405
0.664463
0.664463
0.664522
0.664581
0.66464
0.664699
0.664699
0.664758
0.664817
0.664876
0.664934
0.664934
0.664993
0.665052
0.665111
0.66517
0.66517
0.665229
0.665288
0.665347
0.665405
0.665405
0.665464
0.665523
0.665582
0.665641
0.665641
0.6657
0.665759
0.665818
0.665876
0.665876
0.665935
0.665994
0.666053
0.666112
0.666112
0.666171
0.66623
0.666289
0.666347
0.666347
0.666406
0.666465
0.666524
0.666583
0.666583
0.666642
0.666701
0.66676
0.666818
0.666818
0.666877
0.666936
0.666995
0.667054
0.667054
0.667113
0.667172
0.667231
0.66729
0.66729
0.667348
0.667407
0.667466
0.667525
0.667525
0.667584
0.667643
0.667702
0.667761
0.667761
0.66782
0.667878
0.667937
0.667996
0.667996
0.668055
0.668114
0.668173
0.668232
0.668232
0.668291
0.66835
0.668408
0.668467
0.668467
0.668526
0.668585
0.668644
0.668703
0.668703
0.668762
0.668821
0.66888
0.668939
0.668939
0.668997
0.669056
0.669115
0.669174
0.669174
0.669233
0.669292
0.669351
0.66941
0.66941
0.669469
0.669527
0.669586
0.669645
0.669645
0.669704
0.669763
0.669822
0.669881
0.669881
0.66994
0.669999
0.670058
0.670116
0.670116
0.670175
0.670234
0.670293
0.670352
0.670352
0.670411
0.67047
0.670529
0.670588
0.670588
0.670647
0.670705
0.670764
0.670823
0.670823
0.670882
0.670941
0.671
0.671059
0.671059
0.671118
0.671177
0.671236
0.671295
0.671295
0.671353
0.671412
0.671471
0.67153
0.67153
0.671589
0.671648
0.671707
0.671766
0.671766
0.671825
0.671884
0.671942
0.672001
0.672001
0.67206
0.672119
0.672178
0.672237
0.672237
0.672296
0.672355
0.672414
0.672473
0.672473
0.672532
0.67259
0.672649
0.672708
0.672708
0.672767
0.672826
0.672885
0.672944
0.672944
0.673003
0.673062
0.673121
0.673179
0.673179
0.673238
0.673297
0.673356
0.673415
0.673415
0.673474
0.673533
0.673592
0.673651
0.673651
0.67371
0.673769
0.673827
0.673886
0.673886
0.673945
0.674004
0.674063
0.674122
0.674122
0.674181
0.67424
0.674299
0.674358
0.674358
0.674417
0.674476
0.674534
0.674593
0.674593
0.674652
0.674711
0.67477
0.674829
0.674829
0.674888
0.674947
0.675006
0.675065
0.675065
0.675124
0.675182
0.675241
0.6753
0.6753
0.675359
0.675418
0.675477
0.675536
0.675536
0.675595
0.675654
0.675713
0.675772
0.675772
0.67583
0.675889
0.675948
0.676007
0.676007
0.676066
0.676125
0.676184
0.676243
0.676243
0.676302
0.676361
0.67642
0.676479
0.676479
0.676537
0.676596
0.676655
0.676714
0.676714
0.676773
0.676832
0.676891
0.67695
0.67695
0.677009
0.677068
0.677127
0.677185
0.677185
0.677244
0.677303
0.677362
0.677421
0.677421
0.67748
0.677539
0.677598
0.677657
0.677657
0.677716
0.677775
0.677834
0.677892
0.677892
0.677951
0.67801
0.678069
0.678128
0.678128
0.678187
0.678246
0.678305
0.678364
0.678364
0.678423
0.678482
0.678541
0.678599
0.678599
0.678658
0.678717
0.678776
0.678835
0.678835
0.678894
0.678953
0.679012
0.679071
0.679071
0.67913
0.679189
0.679248
0.679306
0.679306
0.679365
0.679424
0.679483
0.679542
0.679542
0.679601
0.67966
0.679719
0.679778
0.679778
0.679837
0.679896
0.679954
0.680013
0.680013
0.680072
0.680131
0.68019
0.680249
0.680249
0.680308
0.680367
0.680426
0.680485
0.680485
0.680544
0.680603
0.680661
0.68072
0.68072
0.680779
0.680838
0.680897
0.680956
0.680956
0.681015
0.681074
0.681133
0.681192
0.681192
0.681251
0.68131
0.681368
0.681427
0.681427
0.681486
0.681545
0.681604
0.681663
0.681663
0.681722
0.681781
0.68184
0.681899
0.681899
0.681958
0.682017
0.682075
0.682134
0.682134
0.682193
0.682252
0.682311
0.68237
0.68237
0.682429
0.682488
0.682547
0.682606
0.682606
0.682665
0.682724
0.682782
0.682841
0.682841
0.6829
0.682959
0.683018
0.683077
0.683077
0.683136
0.683195
0.683254
0.683313
0.683313
0.683372
0.683431
0.683489
0.683548
0.683548