<?xml version="1.0"?>
<VTKFile type="UnstructuredGrid" version="0.1" byte_order="LittleEndian">
<UnstructuredGrid>
<Piece NumberOfPoints="5000" NumberOfCells="4000">
<PointData Scalars="Reaction 0">
<DataArray type="Float32" Name="Reaction 0" format="ascii">
0.6071
0.6071
0.6071
0.6071
0.6071
0.6071
0.6071
0.6071
0.607101
0.607101
0.607101
0.607101
0.607102
0.607102
0.607102
0.607102
0.607103
0.607103
0.607104
0.607104
0.607104
0.607105
0.607106
0.607106
0.607107
0.607107
0.607108
0.607108
0.607109
0.60711
0.60711
0.607111
0.607112
0.607113
0.607114
0.607114
0.607115
0.607116
0.607117
0.607118
0.607118
0.607119
0.60712
0.607122
0.607123
0.607123
0.607124
0.607125
0.607127
0.607128
0.607128
0.60713
0.607131
0.607133
0.607134
0.607134
0.607136
0.607137
0.607139
0.607141
0.607141
0.607142
0.607144
0.607146
0.607148
0.607148
0.60715
0.607152
0.607154
0.607156
0.607156
0.607158
0.60716
0.607162
0.607164
0.607164
0.607166
0.607168
0.60717
0.607173
0.607173
0.607175
0.607177
0.60718
0.607182
0.607182
0.607184
0.607187
0.607189
0.607192
0.607192
0.607195
0.607197
0.6072
0.607203
0.607203
0.607205
0.607208
0.607211
0.607214
0.607214
0.607217
0.607219
0.607222
0.607225
0.607225
0.607228
0.607231
0.607234
0.607238
0.607238
0.607241
0.607244
0.607247
0.60725
0.60725
0.607254
0.607257
0.60726
0.607264
0.607264
0.607267
0.607271
0.607274
0.607278
0.607278
0.607281
0.607285
0.607289
0.607292
0.607292
0.607296
0.6073
0.607303
0.607307
0.607307
0.607311
0.607315
0.607319
0.607323
0.607323
0.607327
0.607331
0.607335
0.607339
0.607339
0.607343
0.607347
0.607352
0.607356
0.607356
0.60736
0.607365
0.607369
0.607373
0.607373
0.607378
0.607382
0.607387
0.607391
0.607391
0.607396
0.607401
0.607405
0.60741
0.60741
0.607415
0.607419
0.607424
0.607429
0.607429
0.607434
0.607439
0.607444
0.607449
0.607449
0.607454
0.607459
0.607464
0.607469
0.607469
0.607474
0.607479
0.607485
0.60749
0.60749
0.607495
0.6075
0.607506
0.607511
0.607511
0.607517
0.607522
0.607528
0.607533
0.607533
0.607539
0.607544
0.60755
0.607556
0.607556
0.607561
0.607567
0.607573
0.607579
0.607579
0.607585
0.607591
0.607597
0.607602
0.607602
0.607608
0.607615
0.607621
0.607627
0.607627
0.607633
0.607639
0.607645
0.607652
0.607652
0.607658
0.607664
0.607671
0.607677
0.607677
0.607683
0.60769
0.607696
0.607703
0.607703
0.607709
0.607716
0.607723
0.607729
0.607729
0.607736
0.607743
0.60775
0.607757
0.607757
0.607763
0.60777
0.607777
0.607784
0.607784
0.607791
0.607798
0.607805
0.607812
0.607812
0.60782
0.607827
0.607834
0.607841
0.607841
0.607849
0.607856
0.607863
0.607871
0.607871
0.607878
0.607886
0.607893
0.607901
0.607901
0.607908
0.607916
0.607924
0.607931
0.607931
0.607939
0.607947
0.607955
0.607962
0.607962
0.60797
0.607978
0.607986
0.607994
0.607994
0.608002
0.60801
0.608018
0.608026
0.608026
0.608035
0.608043
0.608051
0.608059
0.608059
0.608067
0.608076
0.608084
0.608093
0.608093
0.608101
0.60811
0.608118
0.608127
0.608127
0.608135
0.608144
0.608152
0.608161
0.608161
0.60817
0.608179
0.608187
0.608196
0.608196
0.608205
0.608214
0.608223
0.608232
0.608232
0.608241
0.60825
0.608259
0.608268
0.608268
0.608278
0.608287
0.608296
0.608305
0.608305
0.608315
0.608324
0.608333
0.608343
0.608343
0.608352
0.608362
0.608371
0.608381
0.608381
0.60839
0.6084
0.60841
0.608419
0.608419
0.608429
0.608439
0.608449
0.608458
0.608458
0.608468
0.608478
0.608488
0.608498
0.608498
0.608508
0.608518
0.608528
0.608538
0.608538
0.608549
0.608559
0.608569
0.608579
0.608579
0.60859
0.6086
0.60861
0.608621
0.608621
0.608631
0.608642
0.608652
0.608663
0.608663
0.608673
0.608684
0.608695
0.608705
0.608705
0.608716
0.608727
0.608737
0.608748
0.608748
0.608759
0.60877
0.608781
0.608792
0.608792
0.608803
0.608814
0.608825
0.608837
0.608837
0.608848
0.608859
0.60887
0.608882
0.608882
0.608893
0.608904
0.608916
0.608927
0.608927
0.608939
0.60895
0.608962
0.608973
0.608973
0.608985
0.608997
0.609008
0.60902
0.60902
0.609032
0.609044
0.609055
0.609067
0.609067
0.609079
0.609091
0.609103
0.609115
0.609115
0.609127
0.609139
0.609151
0.609164
0.609164
0.609176
0.609188
0.6092
0.609213
0.609213
0.609225
0.609237
0.60925
0.609262
0.609262
0.609275
0.609287
0.6093
0.609312
0.609312
0.609325
0.609338
0.60935
0.609363
0.609363
0.609376
0.609389
0.609402
0.609414
0.609414
0.609427
0.60944
0.609453
0.609466
0.609466
0.609479
0.609492
0.609506
0.609519
0.609519
0.609532
0.609545
0.609559
0.609572
0.609572
0.609585
0.609599
0.609612
0.609625
0.609625
0.609639
0.609652
0.609666
0.60968
0.60968
0.609693
0.609707
0.609721
0.609734
0.609734
0.609748
0.609762
0.609776
0.60979
0.60979
0.609804
0.609818
0.609832
0.609846
0.609846
0.60986
0.609874
0.609888
0.609902
0.609902
0.609916
0.609931
0.609945
0.609959
0.609959
0.609974
0.609988
0.610002
0.610017
0.610017
0.610031
0.610046
0.61006
0.610075
0.610075
0.61009
0.610104
0.610119
0.610134
0.610134
0.610149
0.610163
0.610178
0.610193
0.610193
0.610208
0.610223
0.610238
0.610253
0.610253
0.610268
0.610283
0.610299
0.610314
0.610314
0.610329
0.610344
0.61036
0.610375
0.610375
0.610391
0.610406
0.610422
0.610437
0.610437
0.610453
0.610468
0.610484
0.610499
0.610499
0.610515
0.610531
0.610547
0.610562
0.610562
0.610578
0.610594
0.61061
0.610626
0.610626
0.610642
0.610658
0.610674
0.61069
0.61069
0.610706
0.610722
0.610739
0.610755
0.610755
0.610771
0.610787
0.610804
0.61082
0.61082
0.610837
0.610853
0.61087
0.610886
0.610886
0.610903
0.610919
0.610936
0.610953
0.610953
0.610969
0.610986
0.611003
0.61102
0.61102
0.611036
0.611053
0.61107
0.611087
0.611087
0.611104
0.611121
0.611138
0.611155
0.611155
0.611172
0.61119
0.611207
0.611224
0.611224
0.611241
0.611259
0.611276
0.611293
0.611293
0.611311
0.611328
0.611346
0.611363
0.611363
0.611381
0.611398
0.611416
0.611434
0.611434
0.611451
0.611469
0.611487
0.611505
0.611505
0.611523
0.61154
0.611558
0.611576
0.611576
0.611594
0.611612
0.61163
0.611649
0.611649
0.611667
0.611685
0.611703
0.611721
0.611721
0.61174
0.611758
0.611777
0.611795
0.611795
0.611813
0.611832
0.611851
0.611869
0.611869
0.611888
0.611906
0.611925
0.611944
0.611944
0.611963
0.611981
0.612
0.612019
0.612019
0.612038
0.612057
0.612076
0.612095
0.612095
0.612114
0.612133
0.612152
0.612172
0.612172
0.612191
0.61221
0.612229
0.612249
0.612249
0.612268
0.612287
0.612307
0.612326
0.612326
0.612346
0.612365
0.612385
0.612404
0.612404
0.612424
0.612444
0.612463
0.612483
0.612483
0.612503
0.612523
0.612543
0.612562
0.612562
0.612582
0.612602
0.612622
0.612642
0.612642
0.612662
0.612682
0.612703
0.612723
0.612723
0.612743
0.612763
0.612783
0.612804
0.612804
0.612824
0.612844
0.612865
0.612885
0.612885
0.612906
0.612926
0.612947
0.612967
0.612967
0.612988
0.613009
0.613029
0.61305
0.61305
0.613071
0.613092
0.613113
0.613134
0.613134
0.613155
0.613176
0.613197
0.613218
0.613218
0.613239
0.61326
0.613281
0.613302
0.613302
0.613324
0.613345
0.613366
0.613388
0.613388
0.613409
0.613431
0.613452
0.613474
0.613474
0.613495
0.613517
0.613538
0.61356
0.61356
0.613582
0.613604
0.613625
0.613647
0.613647
0.613669
0.613691
0.613713
0.613735
0.613735
0.613757
0.613779
0.613801
0.613823
0.613823
0.613845
0.613867
0.613889
0.613912
0.613912
0.613934
0.613956
0.613979
0.614001
0.614001
0.614023
0.614046
0.614068
0.614091
0.614091
0.614113
0.614136
0.614159
0.614181
0.614181
0.614204
0.614227
0.614249
0.614272
0.614272
0.614295
0.614318
0.614341
0.614364
0.614364
0.614387
0.61441
0.614433
0.614456
0.614456
0.614479
0.614502
0.614525
0.614549
0.614549
0.614572
0.614595
0.614619
0.614642
0.614642
0.614666
0.614689
0.614713
0.614736
0.614736
0.61476
0.614784
0.614807
0.614831
0.614831
0.614855
0.614879
0.614902
0.614926
0.614926
0.61495
0.614974
0.614998
0.615022
0.615022
0.615046
0.61507
0.615095
0.615119
0.615119
0.615143
0.615167
0.615191
0.615216
0.615216
0.61524
0.615264
0.615289
0.615313
0.615313
0.615338
0.615362
0.615387
0.615411
0.615411
0.615436
0.615461
0.615485
0.61551
0.61551
0.615535
0.61556
0.615585
0.615609
0.615609
0.615634
0.615659
0.615684
0.615709
0.615709
0.615734
0.615759
0.615784
0.61581
0.61581
0.615835
0.61586
0.615885
0.615911
0.615911
0.615936
0.615961
0.615987
0.616012
0.616012
0.616038
0.616063
0.616089
0.616114
0.616114
0.61614
0.616166
0.616191
0.616217
0.616217
0.616243
0.616269
0.616295
0.616321
0.616321
0.616347
0.616373
0.616399
0.616425
0.616425
0.616451
0.616477
0.616503
0.61653
0.61653
0.616556
0.616582
0.616609
0.616635
0.616635
0.616661
0.616688
0.616714
0.616741
0.616741
0.616767
0.616794
0.61682
0.616847
0.616847
0.616874
0.616901
0.616927
0.616954
0.616954
0.616981
0.617008
0.617035
0.617062
0.617062
0.617088
0.617115
0.617142
0.61717
0.61717
0.617197
0.617224
0.617251
0.617278
0.617278
0.617305
0.617333
0.61736
0.617387
0.617387
0.617415
0.617442
0.61747
0.617497
0.617497
0.617525
0.617552
0.61758
0.617607
0.617607
0.617635
0.617663
0.617691
0.617719
0.617719
0.617746
0.617774
0.617802
0.61783
0.61783
0.617858
0.617886
0.617914
0.617943
0.617943
0.617971
0.617999
0.618027
0.618055
0.618055
0.618084
0.618112
0.618141
0.618169
0.618169
0.618197
0.618226
0.618254
0.618283
0.618283
0.618312
0.61834
0.618369
0.618397
0.618397
0.618426
0.618455
0.618484
0.618513
0.618513
0.618541
0.61857
0.618599
0.618628
0.618628
0.618657
0.618686
0.618715
0.618744
0.618744
0.618773
0.618803
0.618832
0.618861
0.618861
0.61889
0.61892
0.618949
0.618978
0.618978
0.619008
0.619037
0.619067
0.619096
0.619096
0.619126
0.619156
0.619185
0.619215
0.619215
0.619245
0.619274
0.619304
0.619334
0.619334
0.619364
0.619394
0.619424
0.619454
0.619454
0.619484
0.619514
0.619544
0.619575
0.619575
0.619605
0.619635
0.619665
0.619696
0.619696
0.619726
0.619756
0.619787
0.619817
0.619817
0.619847
0.619878
0.619908
0.619939
0.619939
0.61997
0.62
0.620031
0.620062
0.620062
0.620092
0.620123
0.620154
0.620185
0.620185
0.620216
0.620247
0.620277
0.620308
0.620308
0.620339
0.62037
0.620402
0.620433
0.620433
0.620464
0.620495
0.620526
0.620557
0.620557
0.620589
0.62062
0.620652
0.620683
0.620683
0.620714
0.620746
0.620778
0.620809
0.620809
0.620841
0.620872
0.620904
0.620936
0.620936
0.620968
0.621
0.621031
0.621063
0.621063
0.621095
0.621127
0.621159
0.621191
0.621191
0.621223
0.621255
0.621287
0.62132
0.62132
0.621352
0.621384
0.621416
0.621448
0.621448
0.621481
0.621513
0.621545
0.621578
0.621578
0.62161
0.621643
0.621675
0.621708
0.621708
0.62174
0.621773
0.621806
0.621838
0.621838
0.621871
0.621904
0.621937
0.621969
0.621969
0.622002
0.622035
0.622068
0.622101
0.622101
0.622134
0.622167
0.6222
0.622233
0.622233
0.622267
0.6223
0.622333
0.622366
0.622366
0.6224
0.622433
0.622467
0.6225
0.6225
0.622534
0.622567
0.622601
0.622634
0.622634
0.622668
0.622701
0.622735
0.622769
0.622769
0.622803
0.622836
0.62287
0.622904
0.622904
0.622938
0.622972
0.623006
0.62304
0.62304
0.623074
0.623108
0.623142
0.623176
0.623176
0.62321
0.623244
0.623278
0.623312
0.623312
0.623347
0.623381
0.623415
0.62345
0.62345
0.623484
0.623519
0.623553
0.623588
0.623588
0.623622
0.623657
0.623691
0.623726
0.623726
0.623761
0.623796
0.62383
0.623865
0.623865
0.6239
0.623935
0.62397
0.624005
0.624005
0.62404
0.624075
0.62411
0.624145
0.624145
0.62418
0.624216
0.624251
0.624286
0.624286
0.624321
0.624357
0.624392
0.624427
0.624427
0.624463
0.624498
0.624533
0.624569
0.624569
0.624604
0.62464
0.624676
0.624711
0.624711
0.624747
0.624783
0.624818
0.624854
0.624854
0.62489
0.624926
0.624961
0.624997
0.624997
0.625033
0.625069
0.625105
0.625141
0.625141
0.625177
0.625214
0.62525
0.625286
0.625286
0.625322
0.625358
0.625395
0.625431
0.625431
0.625467
0.625504
0.62554
0.625577
0.625577
0.625613
0.62565
0.625686
0.625723
0.625723
0.62576
0.625796
0.625833
0.62587
0.62587
0.625907
0.625943
0.62598
0.626017
0.626017
0.626054
0.626091
0.626128
0.626165
0.626165
0.626202
0.626239
0.626276
0.626313
0.626313
0.62635
0.626387
0.626424
0.626462
0.626462
0.626499
0.626536
0.626574
0.626611
0.626611
0.626648
0.626686
0.626723
0.626761
0.626761
0.626799
0.626836
0.626874
0.626911
0.626911
0.626949
0.626987
0.627025
0.627063
0.627063
0.6271
0.627138
0.627176
0.627214
0.627214
0.627252
0.62729
0.627328
0.627366
0.627366
0.627404
0.627442
0.627481
0.627519
0.627519
0.627557
0.627595
0.627633
0.627672
0.627672
0.62771
0.627748
0.627787
0.627825
0.627825
0.627864
0.627902
0.627941
0.627979
0.627979
0.628018
0.628056
0.628095
0.628134
0.628134
0.628173
0.628211
0.62825
0.628289
0.628289
0.628328
0.628367
0.628406
0.628445
0.628445
0.628484
0.628523
0.628562
0.628601
0.628601
0.62864
0.62868
0.628719
0.628758
0.628758
0.628797
0.628837
0.628876
0.628915
0.628915
0.628955
0.628994
0.629033
0.629073
0.629073
0.629112
0.629152
0.629191
0.629231
0.629231
0.629271
0.62931
0.62935
0.62939
0.62939
0.629429
0.629469
0.629509
0.629549
0.629549
0.629589
0.629629
0.629669
0.629709
0.629709
0.629749
0.629789
0.629829
0.629869
0.629869
0.629909
0.629949
0.62999
0.63003
0.63003
0.63007
0.630111
0.630151
0.630191
0.630191
0.630232
0.630272
0.630313
0.630353
0.630353
0.630394
0.630434
0.630475
0.630515
0.630515
0.630556
0.630597
0.630637
0.630678
0.630678
0.630719
0.63076
0.6308
0.630841
0.630841
0.630882
0.630923
0.630964
0.631005
0.631005
0.631046
0.631087
0.631128
0.631169
0.631169
0.63121
0.631252
0.631293
0.631334
0.631334
0.631375
0.631417
0.631458
0.631499
0.631499
0.631541
0.631582
0.631624
0.631665
0.631665
0.631707
0.631748
0.63179
0.631831
0.631831
0.631873
0.631915
0.631956
0.631998
0.631998
0.63204
0.632081
0.632123
0.632165
0.632165
0.632207
0.632249
0.632291
0.632333
0.632333
0.632375
0.632417
0.632459
0.632501
0.632501
0.632543
0.632585
0.632627
0.632669
0.632669
0.632711
0.632754
0.632796
0.632838
0.632838
0.632881
0.632923
0.632965
0.633008
0.633008
0.63305
0.633093
0.633135
0.633178
0.633178
0.633221
0.633263
0.633306
0.633348
0.633348
0.633391
0.633434
0.633477
0.633519
0.633519
0.633562
0.633605
0.633648
0.633691
0.633691
0.633733
0.633776
0.633819
0.633862
0.633862
0.633905
0.633948
0.633992
0.634035
0.634035
0.634078
0.634121
0.634164
0.634207
0.634207
0.634251
0.634294
0.634337
0.634381
0.634381
0.634424
0.634467
0.634511
0.634554
0.634554
0.634598
0.634641
0.634685
0.634729
0.634729
0.634772
0.634816
0.634859
0.634903
0.634903
0.634947
0.63499
0.635034
0.635078
0.635078
0.635122
0.635166
0.635209
0.635253
0.635253
0.635297
0.635341
0.635385
0.635429
0.635429
0.635473
0.635517
0.635561
0.635606
0.635606
0.63565
0.635694
0.635738
0.635782
0.635782
0.635827
0.635871
0.635915
0.63596
0.63596
0.636004
0.636048
0.636093
0.636137
0.636137
0.636182
0.636226
0.636271
0.636315
0.636315
0.63636
0.636404
0.636449
0.636494
0.636494
0.636538
0.636583
0.636628
0.636673
0.636673
0.636717
0.636762
0.636807
0.636852
0.636852
0.636897
0.636942
0.636987
0.637032
0.637032
0.637077
0.637122
0.637167
0.637212
0.637212
0.637257
0.637302
0.637347
0.637392
0.637392
0.637438
0.637483
0.637528
0.637573
0.637573
0.637619
0.637664
0.637709
0.637755
0.637755
0.6378
0.637846
0.637891
0.637937
0.637937
0.637982
0.638028
0.638073
0.638119
0.638119
0.638164
0.63821
0.638256
0.638301
0.638301
0.638347
0.638393
0.638438
0.638484
0.638484
0.63853
0.638576
0.638622
0.638668
0.638668
0.638714
0.63876
0.638806
0.638852
0.638852
0.638898
0.638944
0.63899
0.639036
0.639036
0.639082
0.639128
0.639174
0.63922
0.63922
0.639267
0.639313
0.639359
0.639405
0.639405
0.639452
0.639498
0.639544
0.639591
0.639591
0.639637
0.639683
0.63973
0.639776
0.639776
0.639823
0.639869
0.639916
0.639962
0.639962
0.640009
0.640056
0.640102
0.640149
0.640149
0.640196
0.640242
0.640289
0.640336
0.640336
0.640383
0.64043
0.640476
0.640523
0.640523
0.64057
0.640617
0.640664
0.640711
0.640711
0.640758
0.640805
0.640852
0.640899
0.640899
0.640946
0.640993
0.64104
0.641087
0.641087
0.641134
0.641181
0.641229
0.641276
0.641276
0.641323
0.64137
0.641418
0.641465
0.641465
0.641512
0.64156
0.641607
0.641654
0.641654
0.641702
0.641749
0.641797
0.641844
0.641844
0.641892
0.641939
0.641987
0.642034
0.642034
0.642082
0.642129
0.642177
0.642225
0.642225
0.642272
0.64232
0.642368
0.642416
0.642416
0.642463
0.642511
0.642559
0.642607
0.642607
0.642655
0.642702
0.64275
0.642798
0.642798
0.642846
0.642894
0.642942
0.64299
0.64299
0.643038
0.643086
0.643134
0.643182
0.643182
0.64323
0.643279
0.643327
0.643375
0.643375
0.643423
0.643471
0.643519
0.643568
0.643568
0.643616
0.643664
0.643713
0.643761
0.643761
0.643809
0.643858
0.643906
0.643954
0.643954
0.644003
0.644051
0.6441
0.644148
0.644148
0.644197
0.644245
0.644294
0.644342
0.644342
0.644391
0.64444
0.644488
0.644537
0.644537
0.644586
0.644634
0.644683
0.644732
0.644732
0.64478
0.644829
0.644878
0.644927
0.644927
0.644976
0.645024
0.645073
0.645122
0.645122
0.645171
0.64522
0.645269
0.645318
0.645318
0.645367
0.645416
0.645465
0.645514
0.645514
0.645563
0.645612
0.645661
0.64571
0.64571
0.645759
0.645808
0.645858
0.645907
0.645907
0.645956
0.646005
0.646054
0.646104
0.646104
0.646153
0.646202
0.646252
0.646301
0.646301
0.64635
0.6464
0.646449
0.646498
0.646498
0.646548
0.646597
0.646647
0.646696
0.646696
0.646746
0.646795
0.646845
0.646894
0.646894
0.646944
0.646993
0.647043
0.647092
0.647092
0.647142
0.647192
0.647241
0.647291
0.647291
0.647341
0.64739
0.64744
0.64749
0.64749
0.64754
0.64759
0.647639
0.647689
0.647689
0.647739
0.647789
0.647839
0.647889
0.647889
0.647938
0.647988
0.648038
0.648088
0.648088
0.648138
0.648188
0.648238
0.648288
0.648288
0.648338
0.648388
0.648438
0.648488
0.648488
0.648538
0.648589
0.648639
0.648689
0.648689
0.648739
0.648789
0.648839
0.64889
0.64889
0.64894
0.64899
0.64904
0.649091
0.649091
0.649141
0.649191
0.649242
0.649292
0.649292
0.649342
0.649393
0.649443
0.649493
0.649493
0.649544
0.649594
0.649645
0.649695
0.649695
0.649746
0.649796
0.649847
0.649897
0.649897
0.649948
0.649998
0.650049
0.650099
0.650099
0.65015
0.6502
0.650251
0.650302
0.650302
0.650352
0.650403
0.650454
0.650504
0.650504
0.650555
0.650606
0.650657
0.650707
0.650707
0.650758
0.650809
0.65086
0.65091
0.65091
0.650961
0.651012
0.651063
0.651114
0.651114
0.651165
0.651216
0.651267
0.651317
0.651317
0.651368
0.651419
0.65147
0.651521
0.651521
0.651572
0.651623
0.651674
0.651725
0.651725
0.651776
0.651827
0.651878
0.65193
0.65193
0.651981
0.652032
0.652083
0.652134
0.652134
0.652185
0.652236
0.652287
0.652339
0.652339
0.65239
0.652441
0.652492
0.652544
0.652544
0.652595
0.652646
0.652697
0.652749
0.652749
0.6528
0.652851
0.652903
0.652954
0.652954
0.653005
0.653057
0.653108
0.653159
0.653159
0.653211
0.653262
0.653314
0.653365
0.653365
0.653417
0.653468
0.65352
0.653571
0.653571
0.653622
0.653674
0.653726
0.653777
0.653777
0.653829
0.65388
0.653932
0.653983
0.653983
0.654035
0.654087
0.654138
0.65419
0.65419
0.654241
0.654293
0.654345
0.654396
0.654396
0.654448
0.6545
0.654552
0.654603
0.654603
0.654655
0.654707
0.654758
0.65481
0.65481
0.654862
0.654914
0.654966
0.655017
0.655017
0.655069
0.655121
0.655173
0.655225
0.655225
0.655277
0.655328
0.65538
0.655432
0.655432
0.655484
0.655536
0.655588
0.65564
0.65564
0.655692
0.655744
0.655796
0.655848
0.655848
0.6559
0.655952
0.656004
0.656056
0.656056
0.656108
0.65616
0.656212
0.656264
0.656264
0.656316
0.656368
0.65642
0.656472
0.656472
0.656524
0.656577
0.656629
0.656681
0.656681
0.656733
0.656785
0.656837
0.65689
0.65689
0.656942
0.656994
0.657046
0.657098
0.657098
0.657151
0.657203
0.657255
0.657307
0.657307
0.65736
0.657412
0.657464
0.657516
0.657516
0.657569
0.657621
0.657673
0.657726
0.657726
0.657778
0.65783
0.657883
0.657935
0.657935
0.657987
0.65804
0.658092
0.658145
0.658145
0.658197
0.658249
0.658302
0.658354
0.658354
0.658407
0.658459
0.658512
0.658564
0.658564
0.658617
0.658669
0.658722
0.658774
0.658774
0.658827
0.658879
0.658932
0.658984
0.658984
0.659037
0.659089
0.659142
0.659194
0.659194
0.659247
0.6593
0.659352
0.659405
0.659405
0.659457
0.65951
0.659563
0.659615
0.659615
0.659668
0.65972
0.659773
0.659826
0.659826
0.659878
0.659931
0.659984
0.660036
0.660036
0.660089
0.660142
0.660195
0.660247
0.660247
0.6603
0.660353
0.660406
0.660458
0.660458
0.660511
0.660564
0.660617
0.660669
0.660669
0.660722
0.660775
0.660828
0.660881
0.660881
0.660933
0.660986
0.661039
0.661092
0.661092
0.661145
0.661198
0.66125
0.661303
0.661303
0.661356
0.661409
0.661462
0.661515
0.661515
0.661568
0.661621
0.661673
0.661726
0.661726
0.661779
0.661832
0.661885
0.661938
0.661938
0.661991
0.662044
0.662097
0.66215
0.66215
0.662203
0.662256
0.662309
0.662362
0.662362
0.662415
0.662468
0.662521
0.662574
0.662574
0.662627
0.66268
0.662733
0.662786
0.662786
0.662839
0.662892
0.662945
0.662998
0.662998
0.663051
0.663104
0.663158
0.663211
0.663211
0.663264
0.663317
0.66337
0.663423
0.663423
0.663476
0.663529
0.663582
0.663636
0.663636
0.663689
0.663742
0.663795
0.663848
0.663848
0.663901
0.663954
0.664008
0.664061
0.664061
0.664114
0.664167
0.66422
0.664274
0.664274
0.664327
0.66438
0.664433
0.664486
0.664486
0.66454
0.664593
0.664646
0.664699
0.664699
0.664753
0.664806
0.664859
0.664912
0.664912
0.664966
0.665019
0.665072
0.665125
0.665125
0.665179
0.665232
0.665285
0.665339
0.665339
0.665392
0.665445
0.665498
0.665552
0.665552
0.665605
0.665658
0.665712
0.665765
0.665765
0.665818
0.665872
0.665925
0.665978
0.665978
0.666032
0.666085
0.666139
0.666192
0.666192
0.666245
0.666299
0.666352
0.666405
0.666405
0.666459
0.666512
0.666566
0.666619
0.666619
0.666672
0.666726
0.666779
0.666833
0.666833
0.666886
0.66694
0.666993
0.667046
0.667046
0.6671
0.667153
0.667207
0.66726
0.66726
0.667314
0.667367
0.667421
0.667474
0.667474
0.667527
0.667581
0.667634
0.667688
0.667688
0.667741
0.667795
0.667848
0.667902
0.667902
0.667955
0.668009
0.668062
0.668116
0.668116
0.668169
0.668223
0.668276
0.66833
0.66833
0.668384
0.668437
0.668491
0.668544
0.668544
0.668598
0.668651
0.668705
0.668758
0.668758
0.668812
0.668865
0.668919
0.668973
0.668973
0.669026
0.66908
0.669133
0.669187
0.669187
0.66924
0.669294
0.669348
0.669401
0.669401
0.669455
0.669508
0.669562
0.669616
0.669616
0.669669
0.669723
0.669776
0.66983
0.66983
0.669884
0.669937
0.669991
0.670045
0.670045
0.670098
0.670152
0.670205
0.670259
0.670259
0.670313
0.670366
0.67042
0.670474
0.670474
0.670527
0.670581
0.670635
0.670688
0.670688
0.670742
0.670796
0.670849
0.670903
0.670903
0.670957
0.67101
0.671064
0.671118
0.671118
0.671171
0.671225
0.671279
0.671332
0.671332
0.671386
0.67144
0.671493
0.671547
0.671547
0.671601
0.671655
0.671708
0.671762
0.671762
0.671816
0.671869
0.671923
0.671977
0.671977
0.672031
0.672084
0.672138
0.672192
0.672192
0.672246
0.672299
0.672353
0.672407
0.672407
0.67246
0.672514
0.672568
0.672622
0.672622
0.672675
0.672729
0.672783
0.672837
0.672837
0.67289
0.672944
0.672998
0.673052
0.673052
0.673106
0.673159
0.673213
0.673267
0.673267
0.673321
0.673374
0.673428
0.673482
0.673482
0.673536
0.67359
0.673643
0.673697
0.673697
0.673751
0.673805
0.673858
0.673912
0.673912
0.673966
0.67402
0.674074
0.674127
0.674127
0.674181
0.674235
0.674289
0.674343
0.674343
0.674397
0.67445
0.674504
0.674558
0.674558
0.674612
0.674666
0.674719
0.674773
0.674773
0.674827
0.674881
0.674935
0.674989
0.674989
0.675042
0.675096
0.67515
0.675204
0.675204
0.675258
0.675312
0.675365
0.675419
0.675419
0.675473
0.675527
0.675581
0.675635
0.675635
0.675688
0.675742
0.675796
0.67585
0.67585
0.675904
0.675958
0.676012
0.676065
0.676065
0.676119
0.676173
0.676227
0.676281
0.676281
0.676335
0.676389
0.676443
0.676496
0.676496
0.67655
0.676604
0.676658
0.676712
0.676712
0.676766
0.67682
0.676874
0.676927
0.676927
0.676981
0.677035
0.677089
0.677143
0.677143
0.677197
0.677251
0.677305
0.677359
0.677359
0.677412
0.677466
0.67752
0.677574
0.677574
0.677628
0.677682
0.677736
0.67779
0.67779
0.677844
0.677897
0.677951
0.678005
0.678005
0.678059
0.678113
0.678167
0.678221
0.678221
0.678275
0.678329
0.678383
0.678437
0.678437
0.67849
0.678544
0.678598
0.678652
0.678652
0.678706
0.67876
0.678814
0.678868
0.678868
0.678922
0.678976
0.67903
0.679084
0.679084
0.679138
0.679191
0.679245
0.679299
0.679299
0.679353
0.679407
0.679461
0.679515
0.679515
0.679569
0.679623
0.679677
0.679731
0.679731
0.679785
0.679839
0.679893
0.679947
0.679947
0.68
0.680054
0.680108
0.680162
0.680162
0.680216
0.68027
0.680324
0.680378
0.680378
0.680432
0.680486
0.68054
0.680594
0.680594
0.680648
0.680702
0.680756
0.68081
0.68081
0.680864
0.680918
0.680971
0.681025
0.681025
0.681079
0.681133
0.681187
0.681241
0.681241
0.681295
0.681349
0.681403
0.681457
0.681457
0.681511
0.681565
0.681619
0.681673
0.681673
0.681727
0.681781
0.681835
0.681889
0.681889
0.681943
0.681997
0.682051
0.682105
0.682105
0.682159
0.682213
0.682267
0.682321
0.682321
0.682374
0.682428
0.682482
0.682536
0.682536
0.68259
0.682644
0.682698
0.682752
0.682752
0.682806
0.68286
0.682914
0.682968
0.682968
0.683022
0.683076
0.68313
0.683184
0.683184
0.683238
0.683292
0.683346
0.6834
0.6834
0.683454
0.683508
0.683562
0.683616
0.683616
0.68367
0.683724
0.683778
0.683832
0.683832
0.683886
0.68394
0.683994
0.684048
0.684048
0.684102
0.684156
0.68421
0.684264
0.684264
0.684318
0.684372
0.684426
0.68448
0.68448
0.684534
0.684588
0.684642
0.684696
0.684696
0.68475
0.684804
0.684858
0.684912
0.684912
0.684966
0.68502
0.685074
0.685128
0.685128
0.685182
0.685236
0.68529
0.685344
0.685344
0.685398
0.685452
0.685506
0.68556
0.68556
0.685614
0.685668
0.685722
0.685776
0.685776
0.68583
0.685884
0.685938
0.685992
0.685992
0.686046
0.6861
0.686154
0.686207
0.686207
0.686261
0.686315
0.686369
0.686423
0.686423
0.686478
0.686532
0.686586
0.68664
0.68664
0.686694
0.686748
0.686802
0.686856
0.686856
0.68691
0.686964
0.687018
0.687072
0.687072
0.687126
0.68718
0.687234
0.687288
0.687288
0.687342
0.687396
0.68745
0.687504
0.687504
0.687558
0.687612
0.687666
0.68772
0.68772
0.687774
0.687828
0.687882
0.687936
0.687936
0.68799
0.688044
0.688098
0.688152
0.688152
0.688206
0.68826
0.688314
0.688368
0.688368
0.688422
0.688476
0.68853
0.688584
0.688584
0.688638
0.688692
0.688746
0.6888
0.6888
0.688854
0.688908
0.688962
0.689016
0.689016
0.68907
0.689124
0.689178
0.689232
0.689232
0.689286
0.68934
0.689394
0.689448
0.689448
0.689502
0.689556
0.68961
0.689664
0.689664
0.689718
0.689772
0.689826
0.68988
0.68988
0.689934
0.689988
0.690042
0.690096
0.690096
0.69015
0.690204
0.690258
0.690312
0.690312
0.690366
0.69042
0.690474
0.690528
0.690528
0.690582
0.690636
0.69069
0.690744
0.690744
0.690798
0.690852
0.690906
0.69096
0.69096
0.691014
0.691068
0.691122
0.691176
0.691176
0.69123
0.691284
0.691338
0.691393
0.691393
0.691447
0.691501
0.691555
0.691609
0.691609
0.691663
0.691717
0.691771
0.691825
0.691825
0.691879
0.691933
0.691987
0.692041
0.692041
0.692095
0.692149
0.692203
0.692257
0.692257
0.692311
0.692365
0.692419
0.692473
0.692473
0.692527
0.692581
0.692635
0.692689
0.692689
0.692743
0.692797
0.692851
0.692905
0.692905
0.692959
0.693013
0.693067
0.693121
0.693121
0.693175
0.693229
0.693283
0.693337
0.693337
0.693391
0.693445
0.693499
0.693553
0.693553
0.693607
0.693661
0.693715
0.693769
0.693769
0.693823
0.693877
0.693931
0.693986
0.693986
0.69404
0.694094
0.694148
0.694202
0.694202
0.694256
0.69431
0.694364
0.694418
0.694418
0.694472
0.694526
0.69458
0.694634
0.694634
0.694688
0.694742
0.694796
0.69485
0.69485
0.694904
0.694958
0.695012
0.695066
0.695066
0.69512
0.695174
0.695228
0.695282
0.695282
0.695336
0.69539
0.695444
0.695498
0.695498
0.695552
0.695606
0.69566
0.695714
0.695714
0.695768
0.695822
0.695876
0.69593
0.69593
0.695984
0.696038
0.696092
0.696146
0.696146
0.696201
0.696255
0.696309
0.696363
0.696363
0.696417
0.696471
0.696525
0.696579
0.696579
0.696633
0.696687
0.696741
0.696795
0.696795
0.696849
0.696903
0.696957
0.697011
0.697011
0.697065
0.697119
0.697173
0.697227
0.697227
0.697281
0.697335
0.697389
0.697443
0.697443
0.697497
0.697551
0.697605
0.697659
0.697659
0.697713
0.697767
0.697821
0.697875
0.697875
0.697929
0.697983
0.698037
0.698091
0.698091
0.698145
0.698199
0.698254
0.698308
0.698308
0.698362
0.698416
0.69847
0.698524
0.698524
0.698578
0.698632
0.698686
0.69874
0.69874
0.698794
0.698848
0.698902
0.698956
0.698956
0.69901
0.699064
0.699118
0.699172
0.699172
0.699226
0.69928
0.699334
0.699388
0.699388
0.699442
0.699496
0.69955
0.699604
0.699604
0.699658
0.699712
0.699766
0.69982
0.69982
0.699874
0.699928
0.699982
0.700036
0.700036
0.70009
0.700144
0.700198
0.700253
0.700253
0.700307
0.700361
0.700415
0.700469
0.700469
0.700523
0.700577
0.700631
0.700685
0.700685
0.700739
0.700793
0.700847
0.700901
0.700901
0.700955
0.701009
0.701063
0.701117
0.701117
0.701171
0.701225
0.701279
0.701333
0.701333
0.701387
0.701441
0.701495
0.701549
0.701549
0.701603
0.701657
0.701711
0.701765
0.701765
0.701819
0.701873
0.701927
0.701981
0.701981
0.702035
0.702089
0.702143
0.702198
0.702198
0.702252
0.702306
0.70236
0.702414
0.702414
0.702468
0.702522
0.702576
0.70263
0.70263
0.702684
0.702738
0.702792
0.702846
0.702846
0.7029
0.702954
0.703008
0.703062
0.703062
0.703116
0.70317
0.703224
0.703278
0.703278
0.703332
0.703386
0.70344
0.703494
0.703494
0.703548
0.703602
0.703656
0.70371
0.70371
0.703764
0.703818
0.703872
0.703926
0.703926
0.70398
0.704034
0.704089
0.704143
0.704143
0.704197
0.704251
0.704305
0.704359
0.704359
0.704413
0.704467
0.704521
0.704575
0.704575
0.704629
0.704683
0.704737
0.704791
0.704791
0.704845
0.704899
0.704953
0.705007
0.705007
0.705061
0.705115
0.705169
0.705223
0.705223
0.705277
0.705331
0.705385
0.705439
0.705439
0.705493
0.705547
0.705601
0.705655
0.705655
0.705709
0.705763
0.705817
0.705871
0.705871
0.705925
0.70598
0.706034
0.706088
0.706088
0.706142
0.706196
0.70625
0.706304
0.706304
0.706358
0.706412
0.706466
0.70652
0.70652
0.706574
0.706628
0.706682
0.706736
0.706736
0.70679
0.706844
0.706898
0.706952
0.706952
0.707006
0.70706
0.707114
0.707168
0.707168
0.707222
0.707276
0.70733
0.707384
0.707384
0.707438
0.707492
0.707546
0.7076
0.7076
0.707654
0.707708
0.707762
0.707816
0.707816
0.707871
0.707925
0.707979
0.708033
0.708033
0.708087
0.708141
0.708195
0.708249
0.708249
0.708303
0.708357
0.708411
0.708465
0.708465
0.708519
0.708573
0.708627
0.708681
0.708681
0.708735
0.708789
0.708843
0.708897
0.708897
0.708951
0.709005
0.709059
0.709113
0.709113
0.709167
0.709221
0.709275
0.709329
0.709329
0.709383
0.709437
0.709491
0.709545
0.709545
0.709599
0.709653
0.709708