<?xml version="1.0"?>
<VTKFile type="UnstructuredGrid" version="0.1" byte_order="LittleEndian">
<UnstructuredGrid>
<Piece NumberOfPoints="5000" NumberOfCells="4000">
<PointData Scalars="Reaction 0">
<DataArray type="Float32" Name="Reaction 0" format="ascii">
0.377199
0.377199
0.377199
0.377199
0.377199
0.377199
0.377199
0.3772
0.3772
0.3772
0.3772
0.3772
0.3772
0.377201
0.377201
0.377201
0.377201
0.377202
0.377202
0.377203
0.377203
0.377203
0.377204
0.377204
0.377205
0.377205
0.377205
0.377206
0.377207
0.377207
0.377207
0.377208
0.377209
0.37721
0.37721
0.37721
0.377211
0.377212
0.377213
0.377214
0.377214
0.377215
0.377216
0.377217
0.377218
0.377218
0.377219
0.37722
0.377221
0.377222
0.377222
0.377224
0.377225
0.377226
0.377227
0.377227
0.377229
0.37723
0.377231
0.377233
0.377233
0.377234
0.377235
0.377237
0.377238
0.377238
0.37724
0.377242
0.377243
0.377245
0.377245
0.377246
0.377248
0.37725
0.377252
0.377252
0.377253
0.377255
0.377257
0.377259
0.377259
0.377261
0.377263
0.377265
0.377267
0.377267
0.377269
0.377271
0.377273
0.377275
0.377275
0.377277
0.377279
0.377281
0.377283
0.377283
0.377286
0.377288
0.37729
0.377292
0.377292
0.377295
0.377297
0.3773
0.377302
0.377302
0.377304
0.377307
0.37731
0.377312
0.377312
0.377315
0.377317
0.37732
0.377323
0.377323
0.377325
0.377328
0.377331
0.377334
0.377334
0.377336
0.377339
0.377342
0.377345
0.377345
0.377348
0.377351
0.377354
0.377357
0.377357
0.37736
0.377363
0.377366
0.377369
0.377369
0.377372
0.377376
0.377379
0.377382
0.377382
0.377385
0.377389
0.377392
0.377395
0.377395
0.377399
0.377402
0.377406
0.377409
0.377409
0.377413
0.377416
0.37742
0.377423
0.377423
0.377427
0.377431
0.377434
0.377438
0.377438
0.377442
0.377446
0.37745
0.377453
0.377453
0.377457
0.377461
0.377465
0.377469
0.377469
0.377473
0.377477
0.377481
0.377485
0.377485
0.377489
0.377493
0.377498
0.377502
0.377502
0.377506
0.37751
0.377514
0.377519
0.377519
0.377523
0.377527
0.377532
0.377536
0.377536
0.377541
0.377545
0.37755
0.377554
0.377554
0.377559
0.377563
0.377568
0.377573
0.377573
0.377577
0.377582
0.377587
0.377592
0.377592
0.377596
0.377601
0.377606
0.377611
0.377611
0.377616
0.377621
0.377626
0.377631
0.377631
0.377636
0.377641
0.377646
0.377651
0.377651
0.377656
0.377662
0.377667
0.377672
0.377672
0.377677
0.377683
0.377688
0.377693
0.377693
0.377699
0.377704
0.37771
0.377715
0.377715
0.377721
0.377726
0.377732
0.377737
0.377737
0.377743
0.377748
0.377754
0.37776
0.37776
0.377766
0.377771
0.377777
0.377783
0.377783
0.377789
0.377795
0.377801
0.377807
0.377807
0.377813
0.377819
0.377825
0.377831
0.377831
0.377837
0.377843
0.377849
0.377855
0.377855
0.377861
0.377868
0.377874
0.37788
0.37788
0.377886
0.377893
0.377899
0.377906
0.377906
0.377912
0.377919
0.377925
0.377932
0.377932
0.377938
0.377945
0.377951
0.377958
0.377958
0.377965
0.377971
0.377978
0.377985
0.377985
0.377992
0.377998
0.378005
0.378012
0.378012
0.378019
0.378026
0.378033
0.37804
0.37804
0.378047
0.378054
0.378061
0.378068
0.378068
0.378075
0.378083
0.37809
0.378097
0.378097
0.378104
0.378111
0.378119
0.378126
0.378126
0.378133
0.378141
0.378148
0.378156
0.378156
0.378163
0.378171
0.378178
0.378186
0.378186
0.378194
0.378201
0.378209
0.378217
0.378217
0.378224
0.378232
0.37824
0.378248
0.378248
0.378255
0.378263
0.378271
0.378279
0.378279
0.378287
0.378295
0.378303
0.378311
0.378311
0.378319
0.378327
0.378335
0.378344
0.378344
0.378352
0.37836
0.378368
0.378377
0.378377
0.378385
0.378393
0.378402
0.37841
0.37841
0.378418
0.378427
0.378435
0.378444
0.378444
0.378452
0.378461
0.378469
0.378478
0.378478
0.378487
0.378495
0.378504
0.378513
0.378513
0.378522
0.378531
0.378539
0.378548
0.378548
0.378557
0.378566
0.378575
0.378584
0.378584
0.378593
0.378602
0.378611
0.37862
0.37862
0.378629
0.378638
0.378648
0.378657
0.378657
0.378666
0.378675
0.378685
0.378694
0.378694
0.378703
0.378713
0.378722
0.378732
0.378732
0.378741
0.378751
0.37876
0.37877
0.37877
0.378779
0.378789
0.378798
0.378808
0.378808
0.378818
0.378828
0.378837
0.378847
0.378847
0.378857
0.378867
0.378877
0.378887
0.378887
0.378897
0.378907
0.378917
0.378927
0.378927
0.378937
0.378947
0.378957
0.378967
0.378967
0.378977
0.378987
0.378998
0.379008
0.379008
0.379018
0.379028
0.379039
0.379049
0.379049
0.37906
0.37907
0.37908
0.379091
0.379091
0.379102
0.379112
0.379123
0.379133
0.379133
0.379144
0.379155
0.379165
0.379176
0.379176
0.379187
0.379198
0.379208
0.379219
0.379219
0.37923
0.379241
0.379252
0.379263
0.379263
0.379274
0.379285
0.379296
0.379307
0.379307
0.379318
0.379329
0.37934
0.379352
0.379352
0.379363
0.379374
0.379385
0.379397
0.379397
0.379408
0.379419
0.379431
0.379442
0.379442
0.379454
0.379465
0.379477
0.379488
0.379488
0.3795
0.379511
0.379523
0.379535
0.379535
0.379546
0.379558
0.37957
0.379582
0.379582
0.379593
0.379605
0.379617
0.379629
0.379629
0.379641
0.379653
0.379665
0.379677
0.379677
0.379689
0.379701
0.379713
0.379725
0.379725
0.379737
0.37975
0.379762
0.379774
0.379774
0.379786
0.379799
0.379811
0.379823
0.379823
0.379836
0.379848
0.379861
0.379873
0.379873
0.379886
0.379898
0.379911
0.379923
0.379923
0.379936
0.379949
0.379961
0.379974
0.379974
0.379987
0.38
0.380012
0.380025
0.380025
0.380038
0.380051
0.380064
0.380077
0.380077
0.38009
0.380103
0.380116
0.380129
0.380129
0.380142
0.380155
0.380168
0.380181
0.380181
0.380195
0.380208
0.380221
0.380234
0.380234
0.380248
0.380261
0.380274
0.380288
0.380288
0.380301
0.380315
0.380328
0.380342
0.380342
0.380355
0.380369
0.380383
0.380396
0.380396
0.38041
0.380424
0.380437
0.380451
0.380451
0.380465
0.380479
0.380493
0.380506
0.380506
0.38052
0.380534
0.380548
0.380562
0.380562
0.380576
0.38059
0.380604
0.380619
0.380619
0.380633
0.380647
0.380661
0.380675
0.380675
0.38069
0.380704
0.380718
0.380732
0.380732
0.380747
0.380761
0.380776
0.38079
0.38079
0.380805
0.380819
0.380834
0.380848
0.380848
0.380863
0.380878
0.380892
0.380907
0.380907
0.380922
0.380936
0.380951
0.380966
0.380966
0.380981
0.380996
0.381011
0.381025
0.381025
0.38104
0.381055
0.38107
0.381086
0.381086
0.381101
0.381116
0.381131
0.381146
0.381146
0.381161
0.381176
0.381192
0.381207
0.381207
0.381222
0.381238
0.381253
0.381268
0.381268
0.381284
0.381299
0.381315
0.38133
0.38133
0.381346
0.381361
0.381377
0.381393
0.381393
0.381408
0.381424
0.38144
0.381455
0.381455
0.381471
0.381487
0.381503
0.381519
0.381519
0.381535
0.38155
0.381566
0.381582
0.381582
0.381598
0.381614
0.38163
0.381647
0.381647
0.381663
0.381679
0.381695
0.381711
0.381711
0.381727
0.381744
0.38176
0.381776
0.381776
0.381793
0.381809
0.381826
0.381842
0.381842
0.381858
0.381875
0.381892
0.381908
0.381908
0.381925
0.381941
0.381958
0.381975
0.381975
0.381991
0.382008
0.382025
0.382042
0.382042
0.382058
0.382075
0.382092
0.382109
0.382109
0.382126
0.382143
0.38216
0.382177
0.382177
0.382194
0.382211
0.382228
0.382245
0.382245
0.382263
0.38228
0.382297
0.382314
0.382314
0.382332
0.382349
0.382366
0.382384
0.382384
0.382401
0.382418
0.382436
0.382453
0.382453
0.382471
0.382489
0.382506
0.382524
0.382524
0.382541
0.382559
0.382577
0.382594
0.382594
0.382612
0.38263
0.382648
0.382666
0.382666
0.382684
0.382701
0.382719
0.382737
0.382737
0.382755
0.382773
0.382791
0.382809
0.382809
0.382828
0.382846
0.382864
0.382882
0.382882
0.3829
0.382919
0.382937
0.382955
0.382955
0.382973
0.382992
0.38301
0.383029
0.383029
0.383047
0.383066
0.383084
0.383103
0.383103
0.383121
0.38314
0.383158
0.383177
0.383177
0.383196
0.383215
0.383233
0.383252
0.383252
0.383271
0.38329
0.383309
0.383327
0.383327
0.383346
0.383365
0.383384
0.383403
0.383403
0.383422
0.383441
0.383461
0.38348
0.38348
0.383499
0.383518
0.383537
0.383556
0.383556
0.383576
0.383595
0.383614
0.383634
0.383634
0.383653
0.383673
0.383692
0.383711
0.383711
0.383731
0.383751
0.38377
0.38379
0.38379
0.383809
0.383829
0.383849
0.383868
0.383868
0.383888
0.383908
0.383928
0.383947
0.383947
0.383967
0.383987
0.384007
0.384027
0.384027
0.384047
0.384067
0.384087
0.384107
0.384107
0.384127
0.384147
0.384167
0.384188
0.384188
0.384208
0.384228
0.384248
0.384269
0.384269
0.384289
0.384309
0.38433
0.38435
0.38435
0.384371
0.384391
0.384412
0.384432
0.384432
0.384453
0.384473
0.384494
0.384514
0.384514
0.384535
0.384556
0.384577
0.384597
0.384597
0.384618
0.384639
0.38466
0.384681
0.384681
0.384702
0.384722
0.384743
0.384764
0.384764
0.384785
0.384806
0.384828
0.384849
0.384849
0.38487
0.384891
0.384912
0.384933
0.384933
0.384955
0.384976
0.384997
0.385019
0.385019
0.38504
0.385061
0.385083
0.385104
0.385104
0.385126
0.385147
0.385169
0.38519
0.38519
0.385212
0.385234
0.385255
0.385277
0.385277
0.385299
0.38532
0.385342
0.385364
0.385364
0.385386
0.385408
0.38543
0.385452
0.385452
0.385473
0.385495
0.385517
0.385539
0.385539
0.385562
0.385584
0.385606
0.385628
0.385628
0.38565
0.385672
0.385695
0.385717
0.385717
0.385739
0.385761
0.385784
0.385806
0.385806
0.385829
0.385851
0.385874
0.385896
0.385896
0.385919
0.385941
0.385964
0.385986
0.385986
0.386009
0.386032
0.386054
0.386077
0.386077
0.3861
0.386123
0.386146
0.386168
0.386168
0.386191
0.386214
0.386237
0.38626
0.38626
0.386283
0.386306
0.386329
0.386352
0.386352
0.386375
0.386399
0.386422
0.386445
0.386445
0.386468
0.386491
0.386515
0.386538
0.386538
0.386561
0.386585
0.386608
0.386632
0.386632
0.386655
0.386679
0.386702
0.386726
0.386726
0.386749
0.386773
0.386797
0.38682
0.38682
0.386844
0.386868
0.386891
0.386915
0.386915
0.386939
0.386963
0.386987
0.387011
0.387011
0.387035
0.387059
0.387083
0.387107
0.387107
0.387131
0.387155
0.387179
0.387203
0.387203
0.387227
0.387251
0.387275
0.3873
0.3873
0.387324
0.387348
0.387373
0.387397
0.387397
0.387421
0.387446
0.38747
0.387495
0.387495
0.387519
0.387544
0.387568
0.387593
0.387593
0.387618
0.387642
0.387667
0.387692
0.387692
0.387716
0.387741
0.387766
0.387791
0.387791
0.387816
0.387841
0.387866
0.387891
0.387891
0.387916
0.387941
0.387966
0.387991
0.387991
0.388016
0.388041
0.388066
0.388091
0.388091
0.388116
0.388142
0.388167
0.388192
0.388192
0.388218
0.388243
0.388268
0.388294
0.388294
0.388319
0.388345
0.38837
0.388396
0.388396
0.388421
0.388447
0.388472
0.388498
0.388498
0.388524
0.388549
0.388575
0.388601
0.388601
0.388627
0.388653
0.388678
0.388704
0.388704
0.38873
0.388756
0.388782
0.388808
0.388808
0.388834
0.38886
0.388886
0.388912
0.388912
0.388939
0.388965
0.388991
0.389017
0.389017
0.389043
0.38907
0.389096
0.389122
0.389122
0.389149
0.389175
0.389202
0.389228
0.389228
0.389255
0.389281
0.389308
0.389334
0.389334
0.389361
0.389388
0.389414
0.389441
0.389441
0.389468
0.389494
0.389521
0.389548
0.389548
0.389575
0.389602
0.389629
0.389656
0.389656
0.389682
0.389709
0.389736
0.389764
0.389764
0.389791
0.389818
0.389845
0.389872
0.389872
0.389899
0.389926
0.389954
0.389981
0.389981
0.390008
0.390036
0.390063
0.39009
0.39009
0.390118
0.390145
0.390173
0.3902
0.3902
0.390228
0.390255
0.390283
0.390311
0.390311
0.390338
0.390366
0.390394
0.390421
0.390421
0.390449
0.390477
0.390505
0.390533
0.390533
0.390561
0.390588
0.390616
0.390644
0.390644
0.390672
0.3907
0.390729
0.390757
0.390757
0.390785
0.390813
0.390841
0.390869
0.390869
0.390898
0.390926
0.390954
0.390982
0.390982
0.391011
0.391039
0.391068
0.391096
0.391096
0.391124
0.391153
0.391182
0.39121
0.39121
0.391239
0.391267
0.391296
0.391325
0.391325
0.391353
0.391382
0.391411
0.39144
0.39144
0.391468
0.391497
0.391526
0.391555
0.391555
0.391584
0.391613
0.391642
0.391671
0.391671
0.3917
0.391729
0.391758
0.391787
0.391787
0.391817
0.391846
0.391875
0.391904
0.391904
0.391934
0.391963
0.391992
0.392022
0.392022
0.392051
0.39208
0.39211
0.392139
0.392139
0.392169
0.392198
0.392228
0.392258
0.392258
0.392287
0.392317
0.392347
0.392376
0.392376
0.392406
0.392436
0.392466
0.392496
0.392496
0.392525
0.392555
0.392585
0.392615
0.392615
0.392645
0.392675
0.392705
0.392735
0.392735
0.392765
0.392796
0.392826
0.392856
0.392856
0.392886
0.392916
0.392947
0.392977
0.392977
0.393007
0.393038
0.393068
0.393098
0.393098
0.393129
0.393159
0.39319
0.39322
0.39322
0.393251
0.393282
0.393312
0.393343
0.393343
0.393374
0.393404
0.393435
0.393466
0.393466
0.393497
0.393527
0.393558
0.393589
0.393589
0.39362
0.393651
0.393682
0.393713
0.393713
0.393744
0.393775
0.393806
0.393837
0.393837
0.393868
0.3939
0.393931
0.393962
0.393962
0.393993
0.394025
0.394056
0.394087
0.394087
0.394119
0.39415
0.394182
0.394213
0.394213
0.394244
0.394276
0.394308
0.394339
0.394339
0.394371
0.394402
0.394434
0.394466
0.394466
0.394497
0.394529
0.394561
0.394593
0.394593
0.394625
0.394657
0.394688
0.39472
0.39472
0.394752
0.394784
0.394816
0.394848
0.394848
0.394881
0.394913
0.394945
0.394977
0.394977
0.395009
0.395041
0.395074
0.395106
0.395106
0.395138
0.395171
0.395203
0.395235
0.395235
0.395268
0.3953
0.395333
0.395365
0.395365
0.395398
0.39543
0.395463
0.395496
0.395496
0.395528
0.395561
0.395594
0.395626
0.395626
0.395659
0.395692
0.395725
0.395758
0.395758
0.395791
0.395823
0.395856
0.395889
0.395889
0.395922
0.395955
0.395989
0.396022
0.396022
0.396055
0.396088
0.396121
0.396154
0.396154
0.396188
0.396221
0.396254
0.396287
0.396287
0.396321
0.396354
0.396388
0.396421
0.396421
0.396455
0.396488
0.396522
0.396555
0.396555
0.396589
0.396622
0.396656
0.39669
0.39669
0.396723
0.396757
0.396791
0.396825
0.396825
0.396858
0.396892
0.396926
0.39696
0.39696
0.396994
0.397028
0.397062
0.397096
0.397096
0.39713
0.397164
0.397198
0.397232
0.397232
0.397267
0.397301
0.397335
0.397369
0.397369
0.397404
0.397438
0.397472
0.397507
0.397507
0.397541
0.397576
0.39761
0.397644
0.397644
0.397679
0.397714
0.397748
0.397783
0.397783
0.397817
0.397852
0.397887
0.397921
0.397921
0.397956
0.397991
0.398026
0.398061
0.398061
0.398096
0.39813
0.398165
0.3982
0.3982
0.398235
0.39827
0.398305
0.39834
0.39834
0.398376
0.398411
0.398446
0.398481
0.398481
0.398516
0.398551
0.398587
0.398622
0.398622
0.398657
0.398693
0.398728
0.398764
0.398764
0.398799
0.398835
0.39887
0.398906
0.398906
0.398941
0.398977
0.399012
0.399048
0.399048
0.399084
0.399119
0.399155
0.399191
0.399191
0.399227
0.399263
0.399298
0.399334
0.399334
0.39937
0.399406
0.399442
0.399478
0.399478
0.399514
0.39955
0.399586
0.399622
0.399622
0.399659
0.399695
0.399731
0.399767
0.399767
0.399804
0.39984
0.399876
0.399912
0.399912
0.399949
0.399985
0.400022
0.400058
0.400058
0.400095
0.400131
0.400168
0.400204
0.400204
0.400241
0.400278
0.400314
0.400351
0.400351
0.400388
0.400424
0.400461
0.400498
0.400498
0.400535
0.400572
0.400609
0.400646
0.400646
0.400683
0.40072
0.400757
0.400794
0.400794
0.400831
0.400868
0.400905
0.400942
0.400942
0.400979
0.401017
0.401054
0.401091
0.401091
0.401128
0.401166
0.401203
0.401241
0.401241
0.401278
0.401315
0.401353
0.40139
0.40139
0.401428
0.401466
0.401503
0.401541
0.401541
0.401578
0.401616
0.401654
0.401692
0.401692
0.401729
0.401767
0.401805
0.401843
0.401843
0.401881
0.401919
0.401957
0.401995
0.401995
0.402033
0.402071
0.402109
0.402147
0.402147
0.402185
0.402223
0.402261
0.4023
0.4023
0.402338
0.402376
0.402414
0.402453
0.402453
0.402491
0.402529
0.402568
0.402606
0.402606
0.402645
0.402683
0.402722
0.40276
0.40276
0.402799
0.402838
0.402876
0.402915
0.402915
0.402954
0.402992
0.403031
0.40307
0.40307
0.403109
0.403148
0.403187
0.403225
0.403225
0.403264
0.403303
0.403342
0.403381
0.403381
0.40342
0.40346
0.403499
0.403538
0.403538
0.403577
0.403616
0.403655
0.403695
0.403695
0.403734
0.403773
0.403813
0.403852
0.403852
0.403891
0.403931
0.40397
0.40401
0.40401
0.404049
0.404089
0.404128
0.404168
0.404168
0.404208
0.404247
0.404287
0.404327
0.404327
0.404367
0.404406
0.404446
0.404486
0.404486
0.404526
0.404566
0.404606
0.404646
0.404646
0.404686
0.404726
0.404766
0.404806
0.404806
0.404846
0.404886
0.404926
0.404966
0.404966
0.405007
0.405047
0.405087
0.405127
0.405127
0.405168
0.405208
0.405249
0.405289
0.405289
0.405329
0.40537
0.40541
0.405451
0.405451
0.405492
0.405532
0.405573
0.405613
0.405613
0.405654
0.405695
0.405736
0.405776
0.405776
0.405817
0.405858
0.405899
0.40594
0.40594
0.405981
0.406022
0.406063
0.406104
0.406104
0.406145
0.406186
0.406227
0.406268
0.406268
0.406309
0.40635
0.406391
0.406433
0.406433
0.406474
0.406515
0.406557
0.406598
0.406598
0.406639
0.406681
0.406722
0.406764
0.406764
0.406805
0.406847
0.406888
0.40693
0.40693
0.406971
0.407013
0.407055
0.407096
0.407096
0.407138
0.40718
0.407222
0.407264
0.407264
0.407305
0.407347
0.407389
0.407431
0.407431
0.407473
0.407515
0.407557
0.407599
0.407599
0.407641
0.407683
0.407725
0.407768
0.407768
0.40781
0.407852
0.407894
0.407937
0.407937
0.407979
0.408021
0.408064
0.408106
0.408106
0.408149
0.408191
0.408233
0.408276
0.408276
0.408319
0.408361
0.408404
0.408446
0.408446
0.408489
0.408532
0.408574
0.408617
0.408617
0.40866
0.408703
0.408746
0.408788
0.408788
0.408831
0.408874
0.408917
0.40896
0.40896
0.409003
0.409046
0.409089
0.409132
0.409132
0.409176
0.409219
0.409262
0.409305
0.409305
0.409348
0.409392
0.409435
0.409478
0.409478
0.409522
0.409565
0.409608
0.409652
0.409652
0.409695
0.409739
0.409782
0.409826
0.409826
0.40987
0.409913
0.409957
0.410001
0.410001
0.410044
0.410088
0.410132
0.410176
0.410176
0.410219
0.410263
0.410307
0.410351
0.410351
0.410395
0.410439
0.410483
0.410527
0.410527
0.410571
0.410615
0.410659
0.410703
0.410703
0.410748
0.410792
0.410836
0.41088
0.41088
0.410925
0.410969
0.411013
0.411058
0.411058
0.411102
0.411147
0.411191
0.411236
0.411236
0.41128
0.411325
0.411369
0.411414
0.411414
0.411458
0.411503
0.411548
0.411593
0.411593
0.411637
0.411682
0.411727
0.411772
0.411772
0.411817
0.411862
0.411907
0.411951
0.411951
0.411996
0.412041
0.412087
0.412132
0.412132
0.412177
0.412222
0.412267
0.412312
0.412312
0.412357
0.412403
0.412448
0.412493
0.412493
0.412539
0.412584
0.412629
0.412675
0.412675
0.41272
0.412766
0.412811
0.412857
0.412857
0.412902
0.412948
0.412994
0.413039
0.413039
0.413085
0.413131
0.413177
0.413222
0.413222
0.413268
0.413314
0.41336
0.413406
0.413406
0.413452
0.413498
0.413544
0.41359
0.41359
0.413636
0.413682
0.413728
0.413774
0.413774
0.41382
0.413866
0.413912
0.413959
0.413959
0.414005
0.414051
0.414098
0.414144
0.414144
0.41419
0.414237
0.414283
0.41433
0.41433
0.414376
0.414423
0.414469
0.414516
0.414516
0.414563
0.414609
0.414656
0.414703
0.414703
0.414749
0.414796
0.414843
0.41489
0.41489
0.414937
0.414983
0.41503
0.415077
0.415077
0.415124
0.415171
0.415218
0.415265
0.415265
0.415313
0.41536
0.415407
0.415454
0.415454
0.415501
0.415548
0.415596
0.415643
0.415643
0.41569
0.415738
0.415785
0.415832
0.415832
0.41588
0.415927
0.415975
0.416022
0.416022
0.41607
0.416118
0.416165
0.416213
0.416213
0.41626
0.416308
0.416356
0.416404
0.416404
0.416451
0.416499
0.416547
0.416595
0.416595
0.416643
0.416691
0.416739
0.416787
0.416787
0.416835
0.416883
0.416931
0.416979
0.416979
0.417027
0.417075
0.417124
0.417172
0.417172
0.41722
0.417268
0.417317
0.417365
0.417365
0.417413
0.417462
0.41751
0.417559
0.417559
0.417607
0.417656
0.417704
0.417753
0.417753
0.417801
0.41785
0.417899
0.417947
0.417947
0.417996
0.418045
0.418094
0.418142
0.418142
0.418191
0.41824
0.418289
0.418338
0.418338
0.418387
0.418436
0.418485
0.418534
0.418534
0.418583
0.418632
0.418681
0.41873
0.41873
0.41878
0.418829
0.418878
0.418927
0.418927
0.418977
0.419026
0.419075
0.419125
0.419125
0.419174
0.419224
0.419273
0.419323
0.419323
0.419372
0.419422
0.419471
0.419521
0.419521
0.419571
0.41962
0.41967
0.41972
0.41972
0.41977
0.419819
0.419869
0.419919
0.419919
0.419969
0.420019
0.420069
0.420119
0.420119
0.420169
0.420219
0.420269
0.420319
0.420319
0.420369
0.420419
0.420469
0.42052
0.42052
0.42057
0.42062
0.420671
0.420721
0.420721
0.420771
0.420822
0.420872
0.420922
0.420922
0.420973
0.421023
0.421074
0.421125
0.421125
0.421175
0.421226
0.421276
0.421327
0.421327
0.421378
0.421428
0.421479
0.42153
0.42153
0.421581
0.421632
0.421683
0.421734
0.421734
0.421784
0.421835
0.421886
0.421937
0.421937
0.421989
0.42204
0.422091
0.422142
0.422142
0.422193
0.422244
0.422296
0.422347
0.422347
0.422398
0.422449
0.422501
0.422552
0.422552
0.422604
0.422655
0.422706
0.422758
0.422758
0.422809
0.422861
0.422913
0.422964
0.422964
0.423016
0.423068
0.423119
0.423171
0.423171
0.423223
0.423274
0.423326
0.423378
0.423378
0.42343
0.423482
0.423534
0.423586
0.423586
0.423638
0.42369
0.423742
0.423794
0.423794
0.423846
0.423898
0.42395
0.424003
0.424003
0.424055
0.424107
0.424159
0.424212
0.424212
0.424264
0.424316
0.424369
0.424421
0.424421
0.424474
0.424526
0.424579
0.424631
0.424631
0.424684
0.424736
0.424789
0.424842
0.424842
0.424894
0.424947
0.425
0.425053
0.425053
0.425106
0.425158
0.425211
0.425264
0.425264
0.425317
0.42537
0.425423
0.425476
0.425476
0.425529
0.425582
0.425635
0.425688
0.425688
0.425742
0.425795
0.425848
0.425901
0.425901
0.425955
0.426008
0.426061
0.426115
0.426115
0.426168
0.426221
0.426275
0.426328
0.426328
0.426382
0.426435
0.426489
0.426543
0.426543
0.426596
0.42665
0.426704
0.426757
0.426757
0.426811
0.426865
0.426919
0.426972
0.426972
0.427026
0.42708
0.427134
0.427188
0.427188
0.427242
0.427296
0.42735
0.427404
0.427404
0.427458
0.427512
0.427567
0.427621
0.427621
0.427675
0.427729
0.427783
0.427838
0.427838
0.427892
0.427947
0.428001
0.428055
0.428055
0.42811
0.428164
0.428219
0.428273
0.428273
0.428328
0.428382
0.428437
0.428492
0.428492
0.428546
0.428601
0.428656
0.428711
0.428711
0.428765
0.42882
0.428875
0.42893
0.42893
0.428985
0.42904
0.429095
0.42915
0.42915
0.429205
0.42926
0.429315
0.42937
0.42937
0.429425
0.429481
0.429536
0.429591
0.429591
0.429646
0.429702
0.429757
0.429812
0.429812
0.429868
0.429923
0.429979
0.430034
0.430034
0.43009
0.430145
0.430201
0.430256
0.430256
0.430312
0.430368
0.430423
0.430479
0.430479
0.430535
0.43059
0.430646
0.430702
0.430702
0.430758
0.430814
0.43087
0.430926
0.430926
0.430982
0.431038
0.431094
0.43115
0.43115
0.431206
0.431262
0.431318
0.431374
0.431374
0.431431
0.431487
0.431543
0.431599
0.431599
0.431656
0.431712
0.431768
0.431825
0.431825
0.431881
0.431938
0.431994
0.432051
0.432051
0.432107
0.432164
0.432221
0.432277
0.432277
0.432334
0.432391
0.432447
0.432504
0.432504
0.432561
0.432618
0.432675
0.432732
0.432732
0.432788
0.432845
0.432902
0.432959
0.432959
0.433016
0.433073
0.433131
0.433188
0.433188
0.433245
0.433302
0.433359
0.433416
0.433416
0.433474
0.433531
0.433588
0.433646
0.433646
0.433703
0.433761
0.433818
0.433875
0.433875
0.433933
0.43399
0.434048
0.434106
0.434106
0.434163
0.434221
0.434279
0.434336
0.434336
0.434394
0.434452
0.43451
0.434567
0.434567
0.434625
0.434683
0.434741
0.434799
0.434799
0.434857
0.434915
0.434973
0.435031
0.435031
0.435089
0.435147
0.435205
0.435264
0.435264
0.435322
0.43538
0.435438
0.435497
0.435497
0.435555
0.435613
0.435672
0.43573
0.43573
0.435789
0.435847
0.435906
0.435964
0.435964
0.436023
0.436081
0.43614
0.436199
0.436199
0.436257
0.436316
0.436375
0.436433
0.436433
0.436492
0.436551
0.43661
0.436669
0.436669
0.436728
0.436787
0.436846
0.436905
0.436905
0.436964
0.437023
0.437082
0.437141
0.437141
0.4372
0.437259
0.437319
0.437378
0.437378
0.437437
0.437496
0.437556
0.437615
0.437615
0.437674
0.437734
0.437793
0.437853
0.437853
0.437912
0.437972
0.438031
0.438091
0.438091
0.438151
0.43821
0.43827
0.43833
0.43833
0.438389
0.438449
0.438509
0.438569
0.438569
0.438629
0.438689
0.438748
0.438808
0.438808
0.438868
0.438928
0.438988
0.439049
0.439049
0.439109
0.439169
0.439229
0.439289
0.439289
0.439349
0.43941
0.43947
0.43953
0.43953
0.43959
0.439651
0.439711
0.439772
0.439772
0.439832
0.439893
0.439953
0.440014
0.440014
0.440074
0.440135
0.440195
0.440256
0.440256
0.440317
0.440377
0.440438
0.440499
0.440499
0.44056
0.440621
0.440681
0.440742
0.440742
0.440803
0.440864
0.440925
0.440986
0.440986
0.441047
0.441108
0.441169
0.441231
0.441231
0.441292
0.441353
0.441414
0.441475
0.441475
0.441537
0.441598
0.441659
0.441721
0.441721
0.441782
0.441843
0.441905
0.441966
0.441966
0.442028
0.442089
0.442151
0.442213
0.442213
0.442274
0.442336
0.442398
0.442459
0.442459
0.442521
0.442583
0.442645
0.442707
0.442707
0.442768
0.44283
0.442892
0.442954
0.442954
0.443016
0.443078
0.44314
0.443202
0.443202
0.443264
0.443327
0.443389
0.443451
0.443451
0.443513
0.443575
0.443638
0.4437
0.4437
0.443762
0.443825
0.443887
0.44395
0.44395
0.444012
0.444075
0.444137
0.4442
0.4442
0.444262
0.444325
0.444387
0.44445
0.44445
0.444513
0.444575
0.444638
0.444701
0.444701
0.444764
0.444827
0.44489
0.444952
0.444952
0.445015
0.445078
0.445141
0.445204
0.445204
0.445267
0.445331
0.445394
0.445457
0.445457
0.44552
0.445583
0.445646
0.44571
0.44571
0.445773
0.445836
0.4459
0.445963
0.445963
0.446026
0.44609
0.446153
0.446217
0.446217
0.44628
0.446344
0.446407
0.446471
0.446471
0.446535
0.446598
0.446662
0.446726
0.446726
0.44679
0.446853
0.446917
0.446981
0.446981
0.447045
0.447109
0.447173
0.447237
0.447237
0.447301
0.447365
0.447429
0.447493
0.447493
0.447557
0.447621
0.447685
0.44775
0.44775
0.447814
0.447878
0.447943
0.448007
0.448007
0.448071
0.448136
0.4482
0.448264
0.448264
0.448329
0.448393
0.448458
0.448523
0.448523
0.448587
0.448652
0.448716
0.448781
0.448781
0.448846
0.448911
0.448975
0.44904
0.44904
0.449105
0.44917
0.449235
0.4493
0.4493
0.449365
0.44943
0.449495
0.44956
0.44956
0.449625
0.44969
0.449755
0.44982
0.44982
0.449885
0.449951
0.450016
0.450081
0.450081
0.450146
0.450212
0.450277
0.450343
0.450343
0.450408
0.450473
0.450539
0.450604
0.450604
0.45067
0.450736
0.450801
0.450867
0.450867
0.450932
0.450998
0.451064
0.45113
0.45113
0.451195
0.451261
0.451327
0.451393
0.451393
0.451459
0.451525
0.451591
0.451657
0.451657
0.451723
0.451789
0.451855
0.451921
0.451921
0.451987
0.452053
0.45212
0.452186
0.452186
0.452252
0.452318
0.452385
0.452451
0.452451
0.452517
0.452584
0.45265
0.452717
0.452717
0.452783
0.45285
0.452916
0.452983
0.452983
0.45305
0.453116
0.453183
0.45325
0.45325
0.453316
0.453383
0.45345
0.453517
0.453517
0.453584
0.453651
0.453718
0.453784
0.453784
0.453851
0.453918
0.453986
0.454053
0.454053
0.45412
0.454187
0.454254
0.454321
0.454321
0.454388
0.454456
0.454523
0.45459
0.45459
0.454658
0.454725
0.454792
0.45486
0.45486
0.454927
0.454995
0.455062
0.45513
0.45513
0.455197
0.455265
0.455333
0.4554
0.4554
0.455468
0.455536
0.455603
0.455671
0.455671
0.455739
0.455807
0.455875
0.455943
0.455943
0.456011
0.456079
0.456147
0.456215
0.456215
0.456283
0.456351
0.456419
0.456487
0.456487
0.456555
0.456623
0.456692
0.45676
0.45676
0.456828
0.456897
0.456965
0.457033
0.457033
0.457102
0.45717
0.457239
0.457307
0.457307
0.457376
0.457444
0.457513
0.457582
0.457582
0.45765
0.457719
0.457788
0.457856
0.457856
0.457925
0.457994
0.458063
0.458132
0.458132
0.458201
0.45827
0.458338
0.458407
0.458407
0.458476
0.458546
0.458615
0.458684
0.458684
0.458753
0.458822
0.458891
0.45896
0.45896
0.45903
0.459099
0.459168
0.459238
0.459238
0.459307
0.459376
0.459446
0.459515
0.459515
0.459585
0.459654
0.459724
0.459794
0.459794
0.459863
0.459933
0.460002
0.460072
0.460072
0.460142
0.460212
0.460282
0.460351
0.460351
0.460421
0.460491
0.460561
0.460631
0.460631
0.460701
0.460771
0.460841
0.460911
0.460911
0.460981
0.461051
0.461121
0.461192
0.461192
0.461262
0.461332
0.461402
0.461473
0.461473
0.461543
0.461613
0.461684
0.461754
0.461754
0.461825
0.461895
0.461966
0.462036
0.462036
0.462107
0.462178
0.462248
0.462319
0.462319
0.46239
0.46246
0.462531
0.462602
0.462602
0.462673
0.462744
0.462814
0.462885
0.462885
0.462956
0.463027
0.463098
0.463169
0.463169
0.46324
0.463311
0.463383
0.463454
0.463454
0.463525
0.463596
0.463667
0.463739
0.463739
0.46381
0.463881
0.463953
0.464024
0.464024
0.464096
0.464167
0.464238
0.46431
0.46431
0.464382
0.464453
0.464525
0.464596
0.464596
0.464668
0.46474
0.464811
0.464883
0.464883
0.464955
0.465027
0.465099
0.465171
0.465171
0.465242
0.465314
0.465386
0.465458
0.465458
0.46553
0.465603
0.465675
0.465747
0.465747
0.465819
0.465891
0.465963
0.466036
0.466036
0.466108
0.46618
0.466252
0.466325
0.466325
0.466397
0.46647
0.466542
0.466615
0.466615
0.466687
0.46676
0.466832
0.466905
0.466905
0.466977
0.46705
0.467123
0.467196
0.467196
0.467268
0.467341
0.467414
0.467487
0.467487
0.46756
0.467633
0.467706
0.467779
0.467779
0.467852
0.467925
0.467998
0.468071
0.468071
0.468144
0.468217
0.46829
0.468363
0.468363
0.468437
0.46851
0.468583
0.468657
0.468657
0.46873
0.468803
0.468877
0.46895
0.46895
0.469024
0.469097
0.469171
0.469244
0.469244
0.469318
0.469392
0.469465
0.469539
0.469539
0.469613
0.469686
0.46976
0.469834
0.469834
0.469908
0.469982
0.470056
0.47013
0.47013
0.470204
0.470278
0.470352
0.470426
0.470426
0.4705
0.470574
0.470648
0.470722
0.470722
0.470797
0.470871
0.470945
0.471019
0.471019
0.471094
0.471168
0.471243
0.471317
0.471317
0.471391
0.471466
0.47154
0.471615
0.471615
0.47169
0.471764
0.471839
0.471914
0.471914
0.471988
0.472063
0.472138
0.472213
0.472213
0.472287
0.472362
0.472437
0.472512
0.472512
0.472587
0.472662
0.472737
0.472812
0.472812
0.472887
0.472962
0.473037
0.473113
0.473113
0.473188
0.473263
0.473338
0.473414
0.473414
0.473489
0.473564
0.47364
0.473715
0.473715
0.47379
0.473866
0.473941
0.474017
0.474017
0.474093
0.474168
0.474244
0.474319
0.474319
0.474395
0.474471
0.474547
0.474622
0.474622
0.474698
0.474774
0.47485
0.474926
0.474926
0.475002
0.475078
0.475154
0.47523
0.47523
0.475306
0.475382
0.475458
0.475534
0.475534
0.47561
0.475686
0.475763
0.475839
0.475839
0.475915
0.475992
0.476068
0.476144
0.476144
0.476221
0.476297
0.476374
0.47645
0.47645
0.476527
0.476603
0.47668
0.476757
0.476757
0.476833
0.47691
0.476987
0.477063
0.477063
0.47714
0.477217
0.477294
0.477371
0.477371
0.477448
0.477525
0.477602
0.477679
0.477679
0.477756
0.477833
0.47791
0.477987
0.477987
0.478064
0.478141
0.478219
0.478296
0.478296
0.478373
0.47845
0.478528
0.478605
0.478605
0.478682
0.47876
0.478837
0.478915
0.478915
0.478992
0.47907
0.479148
0.479225
0.479225
0.479303
0.479381
0.479458
0.479536
0.479536
0.479614
0.479692
0.479769
0.479847
0.479847
0.479925
0.480003
0.480081
0.480159
0.480159
0.480237
0.480315
0.480393
0.480471
0.480471
0.480549
0.480628
0.480706
0.480784
0.480784
0.480862
0.480941
0.481019
0.481097
0.481097
0.481176
0.481254
0.481333
0.481411
0.481411
0.48149
0.481568
0.481647
0.481725
0.481725