<?xml version="1.0"?>
<VTKFile type="UnstructuredGrid" version="0.1" byte_order="LittleEndian">
<UnstructuredGrid>
<Piece NumberOfPoints="5000" NumberOfCells="4000">
<PointData Scalars="Reaction 0">
<DataArray type="Float32" Name="Reaction 0" format="ascii">
0.167539
0.167539
0.167539
0.16754
0.16754
0.16754
0.16754
0.16754
0.16754
0.16754
0.16754
0.167541
0.167541
0.167541
0.167542
0.167542
0.167542
0.167543
0.167543
0.167544
0.167544
0.167544
0.167545
0.167545
0.167546
0.167546
0.167547
0.167547
0.167548
0.167549
0.167549
0.16755
0.167551
0.167551
0.167552
0.167552
0.167553
0.167554
0.167555
0.167556
0.167556
0.167557
0.167559
0.16756
0.167561
0.167561
0.167562
0.167563
0.167565
0.167566
0.167566
0.167567
0.167569
0.16757
0.167572
0.167572
0.167573
0.167575
0.167576
0.167578
0.167578
0.167579
0.167581
0.167583
0.167584
0.167584
0.167586
0.167588
0.16759
0.167591
0.167591
0.167593
0.167595
0.167597
0.167599
0.167599
0.167601
0.167603
0.167605
0.167607
0.167607
0.16761
0.167612
0.167614
0.167616
0.167616
0.167618
0.167621
0.167623
0.167625
0.167625
0.167628
0.16763
0.167633
0.167635
0.167635
0.167638
0.16764
0.167643
0.167646
0.167646
0.167648
0.167651
0.167654
0.167657
0.167657
0.167659
0.167662
0.167665
0.167668
0.167668
0.167671
0.167674
0.167677
0.16768
0.16768
0.167683
0.167686
0.167689
0.167692
0.167692
0.167696
0.167699
0.167702
0.167705
0.167705
0.167709
0.167712
0.167716
0.167719
0.167719
0.167723
0.167726
0.16773
0.167733
0.167733
0.167737
0.16774
0.167744
0.167748
0.167748
0.167751
0.167755
0.167759
0.167763
0.167763
0.167767
0.167771
0.167775
0.167779
0.167779
0.167783
0.167787
0.167791
0.167795
0.167795
0.167799
0.167803
0.167807
0.167812
0.167812
0.167816
0.16782
0.167824
0.167829
0.167829
0.167833
0.167838
0.167842
0.167847
0.167847
0.167851
0.167856
0.16786
0.167865
0.167865
0.16787
0.167874
0.167879
0.167884
0.167884
0.167889
0.167894
0.167898
0.167903
0.167903
0.167908
0.167913
0.167918
0.167923
0.167923
0.167928
0.167933
0.167939
0.167944
0.167944
0.167949
0.167954
0.167959
0.167965
0.167965
0.16797
0.167975
0.167981
0.167986
0.167986
0.167992
0.167997
0.168003
0.168008
0.168008
0.168014
0.16802
0.168025
0.168031
0.168031
0.168037
0.168042
0.168048
0.168054
0.168054
0.16806
0.168066
0.168072
0.168078
0.168078
0.168084
0.16809
0.168096
0.168102
0.168102
0.168108
0.168114
0.16812
0.168127
0.168127
0.168133
0.168139
0.168146
0.168152
0.168152
0.168158
0.168165
0.168171
0.168178
0.168178
0.168184
0.168191
0.168197
0.168204
0.168204
0.168211
0.168217
0.168224
0.168231
0.168231
0.168238
0.168244
0.168251
0.168258
0.168258
0.168265
0.168272
0.168279
0.168286
0.168286
0.168293
0.1683
0.168307
0.168315
0.168315
0.168322
0.168329
0.168336
0.168344
0.168344
0.168351
0.168358
0.168366
0.168373
0.168373
0.168381
0.168388
0.168396
0.168403
0.168403
0.168411
0.168418
0.168426
0.168434
0.168434
0.168442
0.168449
0.168457
0.168465
0.168465
0.168473
0.168481
0.168489
0.168497
0.168497
0.168505
0.168513
0.168521
0.168529
0.168529
0.168537
0.168545
0.168553
0.168561
0.168561
0.16857
0.168578
0.168586
0.168595
0.168595
0.168603
0.168612
0.16862
0.168628
0.168628
0.168637
0.168646
0.168654
0.168663
0.168663
0.168671
0.16868
0.168689
0.168698
0.168698
0.168706
0.168715
0.168724
0.168733
0.168733
0.168742
0.168751
0.16876
0.168769
0.168769
0.168778
0.168787
0.168796
0.168805
0.168805
0.168815
0.168824
0.168833
0.168842
0.168842
0.168852
0.168861
0.16887
0.16888
0.16888
0.168889
0.168899
0.168908
0.168918
0.168918
0.168927
0.168937
0.168947
0.168956
0.168956
0.168966
0.168976
0.168986
0.168996
0.168996
0.169005
0.169015
0.169025
0.169035
0.169035
0.169045
0.169055
0.169065
0.169075
0.169075
0.169086
0.169096
0.169106
0.169116
0.169116
0.169126
0.169137
0.169147
0.169157
0.169157
0.169168
0.169178
0.169189
0.169199
0.169199
0.16921
0.16922
0.169231
0.169241
0.169241
0.169252
0.169263
0.169274
0.169284
0.169284
0.169295
0.169306
0.169317
0.169328
0.169328
0.169339
0.16935
0.169361
0.169372
0.169372
0.169383
0.169394
0.169405
0.169416
0.169416
0.169427
0.169438
0.16945
0.169461
0.169461
0.169472
0.169484
0.169495
0.169507
0.169507
0.169518
0.169529
0.169541
0.169553
0.169553
0.169564
0.169576
0.169587
0.169599
0.169599
0.169611
0.169623
0.169634
0.169646
0.169646
0.169658
0.16967
0.169682
0.169694
0.169694
0.169706
0.169718
0.16973
0.169742
0.169742
0.169754
0.169766
0.169779
0.169791
0.169791
0.169803
0.169815
0.169828
0.16984
0.16984
0.169852
0.169865
0.169877
0.16989
0.16989
0.169902
0.169915
0.169928
0.16994
0.16994
0.169953
0.169966
0.169978
0.169991
0.169991
0.170004
0.170017
0.17003
0.170042
0.170042
0.170055
0.170068
0.170081
0.170094
0.170094
0.170107
0.17012
0.170134
0.170147
0.170147
0.17016
0.170173
0.170186
0.1702
0.1702
0.170213
0.170226
0.17024
0.170253
0.170253
0.170267
0.17028
0.170294
0.170307
0.170307
0.170321
0.170335
0.170348
0.170362
0.170362
0.170376
0.170389
0.170403
0.170417
0.170417
0.170431
0.170445
0.170459
0.170473
0.170473
0.170487
0.170501
0.170515
0.170529
0.170529
0.170543
0.170557
0.170571
0.170586
0.170586
0.1706
0.170614
0.170629
0.170643
0.170643
0.170657
0.170672
0.170686
0.170701
0.170701
0.170715
0.17073
0.170744
0.170759
0.170759
0.170774
0.170788
0.170803
0.170818
0.170818
0.170833
0.170848
0.170862
0.170877
0.170877
0.170892
0.170907
0.170922
0.170937
0.170937
0.170952
0.170967
0.170983
0.170998
0.170998
0.171013
0.171028
0.171044
0.171059
0.171059
0.171074
0.17109
0.171105
0.17112
0.17112
0.171136
0.171151
0.171167
0.171182
0.171182
0.171198
0.171214
0.171229
0.171245
0.171245
0.171261
0.171277
0.171292
0.171308
0.171308
0.171324
0.17134
0.171356
0.171372
0.171372
0.171388
0.171404
0.17142
0.171436
0.171436
0.171452
0.171468
0.171485
0.171501
0.171501
0.171517
0.171533
0.17155
0.171566
0.171566
0.171583
0.171599
0.171616
0.171632
0.171632
0.171649
0.171665
0.171682
0.171698
0.171698
0.171715
0.171732
0.171749
0.171765
0.171765
0.171782
0.171799
0.171816
0.171833
0.171833
0.17185
0.171867
0.171884
0.171901
0.171901
0.171918
0.171935
0.171952
0.171969
0.171969
0.171986
0.172004
0.172021
0.172038
0.172038
0.172056
0.172073
0.17209
0.172108
0.172108
0.172125
0.172143
0.17216
0.172178
0.172178
0.172196
0.172213
0.172231
0.172249
0.172249
0.172266
0.172284
0.172302
0.17232
0.17232
0.172338
0.172356
0.172374
0.172392
0.172392
0.17241
0.172428
0.172446
0.172464
0.172464
0.172482
0.1725
0.172518
0.172537
0.172537
0.172555
0.172573
0.172592
0.17261
0.17261
0.172628
0.172647
0.172665
0.172684
0.172684
0.172703
0.172721
0.17274
0.172758
0.172758
0.172777
0.172796
0.172815
0.172833
0.172833
0.172852
0.172871
0.17289
0.172909
0.172909
0.172928
0.172947
0.172966
0.172985
0.172985
0.173004
0.173023
0.173042
0.173061
0.173061
0.173081
0.1731
0.173119
0.173139
0.173139
0.173158
0.173177
0.173197
0.173216
0.173216
0.173236
0.173255
0.173275
0.173294
0.173294
0.173314
0.173334
0.173353
0.173373
0.173373
0.173393
0.173413
0.173433
0.173452
0.173452
0.173472
0.173492
0.173512
0.173532
0.173532
0.173552
0.173572
0.173592
0.173613
0.173613
0.173633
0.173653
0.173673
0.173693
0.173693
0.173714
0.173734
0.173754
0.173775
0.173775
0.173795
0.173816
0.173836
0.173857
0.173857
0.173877
0.173898
0.173919
0.173939
0.173939
0.17396
0.173981
0.174001
0.174022
0.174022
0.174043
0.174064
0.174085
0.174106
0.174106
0.174127
0.174148
0.174169
0.17419
0.17419
0.174211
0.174232
0.174253
0.174275
0.174275
0.174296
0.174317
0.174338
0.17436
0.17436
0.174381
0.174403
0.174424
0.174445
0.174445
0.174467
0.174489
0.17451
0.174532
0.174532
0.174553
0.174575
0.174597
0.174619
0.174619
0.17464
0.174662
0.174684
0.174706
0.174706
0.174728
0.17475
0.174772
0.174794
0.174794
0.174816
0.174838
0.17486
0.174882
0.174882
0.174904
0.174927
0.174949
0.174971
0.174971
0.174993
0.175016
0.175038
0.175061
0.175061
0.175083
0.175106
0.175128
0.175151
0.175151
0.175173
0.175196
0.175219
0.175241
0.175241
0.175264
0.175287
0.17531
0.175332
0.175332
0.175355
0.175378
0.175401
0.175424
0.175424
0.175447
0.17547
0.175493
0.175516
0.175516
0.175539
0.175562
0.175586
0.175609
0.175609
0.175632
0.175656
0.175679
0.175702
0.175702
0.175726
0.175749
0.175773
0.175796
0.175796
0.17582
0.175843
0.175867
0.17589
0.17589
0.175914
0.175938
0.175962
0.175985
0.175985
0.176009
0.176033
0.176057
0.176081
0.176081
0.176105
0.176129
0.176153
0.176177
0.176177
0.176201
0.176225
0.176249
0.176273
0.176273
0.176297
0.176322
0.176346
0.17637
0.17637
0.176395
0.176419
0.176443
0.176468
0.176468
0.176492
0.176517
0.176541
0.176566
0.176566
0.176591
0.176615
0.17664
0.176665
0.176665
0.176689
0.176714
0.176739
0.176764
0.176764
0.176789
0.176814
0.176839
0.176864
0.176864
0.176889
0.176914
0.176939
0.176964
0.176964
0.176989
0.177014
0.17704
0.177065
0.177065
0.17709
0.177115
0.177141
0.177166
0.177166
0.177192
0.177217
0.177243
0.177268
0.177268
0.177294
0.177319
0.177345
0.177371
0.177371
0.177396
0.177422
0.177448
0.177474
0.177474
0.177499
0.177525
0.177551
0.177577
0.177577
0.177603
0.177629
0.177655
0.177681
0.177681
0.177707
0.177734
0.17776
0.177786
0.177786
0.177812
0.177838
0.177865
0.177891
0.177891
0.177918
0.177944
0.17797
0.177997
0.177997
0.178023
0.17805
0.178077
0.178103
0.178103
0.17813
0.178156
0.178183
0.17821
0.17821
0.178237
0.178264
0.17829
0.178317
0.178317
0.178344
0.178371
0.178398
0.178425
0.178425
0.178452
0.178479
0.178506
0.178534
0.178534
0.178561
0.178588
0.178615
0.178643
0.178643
0.17867
0.178697
0.178725
0.178752
0.178752
0.17878
0.178807
0.178835
0.178862
0.178862
0.17889
0.178917
0.178945
0.178973
0.178973
0.179001
0.179028
0.179056
0.179084
0.179084
0.179112
0.17914
0.179168
0.179196
0.179196
0.179224
0.179252
0.17928
0.179308
0.179308
0.179336
0.179364
0.179392
0.179421
0.179421
0.179449
0.179477
0.179506
0.179534
0.179534
0.179562
0.179591
0.179619
0.179648
0.179648
0.179676
0.179705
0.179734
0.179762
0.179762
0.179791
0.17982
0.179849
0.179877
0.179877
0.179906
0.179935
0.179964
0.179993
0.179993
0.180022
0.180051
0.18008
0.180109
0.180109
0.180138
0.180167
0.180196
0.180225
0.180225
0.180255
0.180284
0.180313
0.180343
0.180343
0.180372
0.180401
0.180431
0.18046
0.18046
0.18049
0.180519
0.180549
0.180579
0.180579
0.180608
0.180638
0.180668
0.180697
0.180697
0.180727
0.180757
0.180787
0.180817
0.180817
0.180847
0.180876
0.180906
0.180936
0.180936
0.180967
0.180997
0.181027
0.181057
0.181057
0.181087
0.181117
0.181148
0.181178
0.181178
0.181208
0.181239
0.181269
0.181299
0.181299
0.18133
0.18136
0.181391
0.181421
0.181421
0.181452
0.181483
0.181513
0.181544
0.181544
0.181575
0.181605
0.181636
0.181667
0.181667
0.181698
0.181729
0.18176
0.181791
0.181791
0.181822
0.181853
0.181884
0.181915
0.181915
0.181946
0.181977
0.182009
0.18204
0.18204
0.182071
0.182102
0.182134
0.182165
0.182165
0.182197
0.182228
0.18226
0.182291
0.182291
0.182323
0.182354
0.182386
0.182417
0.182417
0.182449
0.182481
0.182513
0.182544
0.182544
0.182576
0.182608
0.18264
0.182672
0.182672
0.182704
0.182736
0.182768
0.1828
0.1828
0.182832
0.182864
0.182896
0.182929
0.182929
0.182961
0.182993
0.183025
0.183058
0.183058
0.18309
0.183123
0.183155
0.183187
0.183187
0.18322
0.183252
0.183285
0.183318
0.183318
0.18335
0.183383
0.183416
0.183448
0.183448
0.183481
0.183514
0.183547
0.18358
0.18358
0.183613
0.183646
0.183679
0.183712
0.183712
0.183745
0.183778
0.183811
0.183844
0.183844
0.183877
0.183911
0.183944
0.183977
0.183977
0.18401
0.184044
0.184077
0.184111
0.184111
0.184144
0.184178
0.184211
0.184245
0.184245
0.184278
0.184312
0.184346
0.184379
0.184379
0.184413
0.184447
0.184481
0.184515
0.184515
0.184548
0.184582
0.184616
0.18465
0.18465
0.184684
0.184718
0.184752
0.184787
0.184787
0.184821
0.184855
0.184889
0.184923
0.184923
0.184958
0.184992
0.185026
0.185061
0.185061
0.185095
0.18513
0.185164
0.185199
0.185199
0.185233
0.185268
0.185303
0.185337
0.185337
0.185372
0.185407
0.185441
0.185476
0.185476
0.185511
0.185546
0.185581
0.185616
0.185616
0.185651
0.185686
0.185721
0.185756
0.185756
0.185791
0.185826
0.185861
0.185897
0.185897
0.185932
0.185967
0.186002
0.186038
0.186038
0.186073
0.186109
0.186144
0.18618
0.18618
0.186215
0.186251
0.186286
0.186322
0.186322
0.186358
0.186393
0.186429
0.186465
0.186465
0.186501
0.186536
0.186572
0.186608
0.186608
0.186644
0.18668
0.186716
0.186752
0.186752
0.186788
0.186824
0.18686
0.186897
0.186897
0.186933
0.186969
0.187005
0.187042
0.187042
0.187078
0.187114
0.187151
0.187187
0.187187
0.187224
0.18726
0.187297
0.187334
0.187334
0.18737
0.187407
0.187444
0.18748
0.18748
0.187517
0.187554
0.187591
0.187628
0.187628
0.187664
0.187701
0.187738
0.187775
0.187775
0.187812
0.187849
0.187887
0.187924
0.187924
0.187961
0.187998
0.188035
0.188073
0.188073
0.18811
0.188147
0.188185
0.188222
0.188222
0.18826
0.188297
0.188335
0.188372
0.188372
0.18841
0.188447
0.188485
0.188523
0.188523
0.18856
0.188598
0.188636
0.188674
0.188674
0.188712
0.18875
0.188788
0.188826
0.188826
0.188864
0.188902
0.18894
0.188978
0.188978
0.189016
0.189054
0.189092
0.189131
0.189131
0.189169
0.189207
0.189246
0.189284
0.189284
0.189322
0.189361
0.189399
0.189438
0.189438
0.189476
0.189515
0.189554
0.189592
0.189592
0.189631
0.18967
0.189709
0.189747
0.189747
0.189786
0.189825
0.189864
0.189903
0.189903
0.189942
0.189981
0.19002
0.190059
0.190059
0.190098
0.190137
0.190176
0.190216
0.190216
0.190255
0.190294
0.190334
0.190373
0.190373
0.190412
0.190452
0.190491
0.190531
0.190531
0.19057
0.19061
0.190649
0.190689
0.190689
0.190729
0.190768
0.190808
0.190848
0.190848
0.190888
0.190928
0.190967
0.191007
0.191007
0.191047
0.191087
0.191127
0.191167
0.191167
0.191207
0.191247
0.191288
0.191328
0.191328
0.191368
0.191408
0.191449
0.191489
0.191489
0.191529
0.19157
0.19161
0.191651
0.191651
0.191691
0.191732
0.191772
0.191813
0.191813
0.191853
0.191894
0.191935
0.191976
0.191976
0.192016
0.192057
0.192098
0.192139
0.192139
0.19218
0.192221
0.192262
0.192303
0.192303
0.192344
0.192385
0.192426
0.192467
0.192467
0.192508
0.19255
0.192591
0.192632
0.192632
0.192673
0.192715
0.192756
0.192798
0.192798
0.192839
0.192881
0.192922
0.192964
0.192964
0.193005
0.193047
0.193089
0.19313
0.19313
0.193172
0.193214
0.193256
0.193298
0.193298
0.193339
0.193381
0.193423
0.193465
0.193465
0.193507
0.193549
0.193592
0.193634
0.193634
0.193676
0.193718
0.19376
0.193803
0.193803
0.193845
0.193887
0.19393
0.193972
0.193972
0.194014
0.194057
0.194099
0.194142
0.194142
0.194185
0.194227
0.19427
0.194312
0.194312
0.194355
0.194398
0.194441
0.194484
0.194484
0.194526
0.194569
0.194612
0.194655
0.194655
0.194698
0.194741
0.194784
0.194827
0.194827
0.194871
0.194914
0.194957
0.195
0.195
0.195043
0.195087
0.19513
0.195174
0.195174
0.195217
0.19526
0.195304
0.195347
0.195347
0.195391
0.195435
0.195478
0.195522
0.195522
0.195566
0.195609
0.195653
0.195697
0.195697
0.195741
0.195785
0.195828
0.195872
0.195872
0.195916
0.19596
0.196004
0.196049
0.196049
0.196093
0.196137
0.196181
0.196225
0.196225
0.196269
0.196314
0.196358
0.196402
0.196402
0.196447
0.196491
0.196536
0.19658
0.19658
0.196625
0.196669
0.196714
0.196759
0.196759
0.196803
0.196848
0.196893
0.196937
0.196937
0.196982
0.197027
0.197072
0.197117
0.197117
0.197162
0.197207
0.197252
0.197297
0.197297
0.197342
0.197387
0.197432
0.197477
0.197477
0.197523
0.197568
0.197613
0.197659
0.197659
0.197704
0.197749
0.197795
0.19784
0.19784
0.197886
0.197931
0.197977
0.198023
0.198023
0.198068
0.198114
0.19816
0.198205
0.198205
0.198251
0.198297
0.198343
0.198389
0.198389
0.198435
0.198481
0.198527
0.198573
0.198573
0.198619
0.198665
0.198711
0.198757
0.198757
0.198803
0.19885
0.198896
0.198942
0.198942
0.198989
0.199035
0.199081
0.199128
0.199128
0.199174
0.199221
0.199267
0.199314
0.199314
0.199361
0.199407
0.199454
0.199501
0.199501
0.199548
0.199594
0.199641
0.199688
0.199688
0.199735
0.199782
0.199829
0.199876
0.199876
0.199923
0.19997
0.200017
0.200064
0.200064
0.200112
0.200159
0.200206
0.200253
0.200253
0.200301
0.200348
0.200395
0.200443
0.200443
0.20049
0.200538
0.200585
0.200633
0.200633
0.200681
0.200728
0.200776
0.200824
0.200824
0.200871
0.200919
0.200967
0.201015
0.201015
0.201063
0.201111
0.201159
0.201207
0.201207
0.201255
0.201303
0.201351
0.201399
0.201399
0.201447
0.201495
0.201544
0.201592
0.201592
0.20164
0.201688
0.201737
0.201785
0.201785
0.201834
0.201882
0.201931
0.201979
0.201979
0.202028
0.202077
0.202125
0.202174
0.202174
0.202223
0.202271
0.20232
0.202369
0.202369
0.202418
0.202467
0.202516
0.202565
0.202565
0.202614
0.202663
0.202712
0.202761
0.202761
0.20281
0.202859
0.202909
0.202958
0.202958
0.203007
0.203057
0.203106
0.203155
0.203155
0.203205
0.203254
0.203304
0.203353
0.203353
0.203403
0.203452
0.203502
0.203552
0.203552
0.203602
0.203651
0.203701
0.203751
0.203751
0.203801
0.203851
0.203901
0.203951
0.203951
0.204001
0.204051
0.204101
0.204151
0.204151
0.204201
0.204251
0.204301
0.204352
0.204352
0.204402
0.204452
0.204502
0.204553
0.204553
0.204603
0.204654
0.204704
0.204755
0.204755
0.204805
0.204856
0.204907
0.204957
0.204957
0.205008
0.205059
0.205109
0.20516
0.20516
0.205211
0.205262
0.205313
0.205364
0.205364
0.205415
0.205466
0.205517
0.205568
0.205568
0.205619
0.20567
0.205722
0.205773
0.205773
0.205824
0.205875
0.205927
0.205978
0.205978
0.20603
0.206081
0.206132
0.206184
0.206184
0.206236
0.206287
0.206339
0.20639
0.20639
0.206442
0.206494
0.206546
0.206597
0.206597
0.206649
0.206701
0.206753
0.206805
0.206805
0.206857
0.206909
0.206961
0.207013
0.207013
0.207065
0.207117
0.207169
0.207222
0.207222
0.207274
0.207326
0.207379
0.207431
0.207431
0.207483
0.207536
0.207588
0.207641
0.207641
0.207693
0.207746
0.207799
0.207851
0.207851
0.207904
0.207957
0.208009
0.208062
0.208062
0.208115
0.208168
0.208221
0.208274
0.208274
0.208327
0.20838
0.208433
0.208486
0.208486
0.208539
0.208592
0.208645
0.208698
0.208698
0.208752
0.208805
0.208858
0.208912
0.208912
0.208965
0.209018
0.209072
0.209125
0.209125
0.209179
0.209232
0.209286
0.20934
0.20934
0.209393
0.209447
0.209501
0.209555
0.209555
0.209608
0.209662
0.209716
0.20977
0.20977
0.209824
0.209878
0.209932
0.209986
0.209986
0.21004
0.210094
0.210148
0.210203
0.210203
0.210257
0.210311
0.210366
0.21042
0.21042
0.210474
0.210529
0.210583
0.210638
0.210638
0.210692
0.210747
0.210801
0.210856
0.210856
0.210911
0.210965
0.21102
0.211075
0.211075
0.21113
0.211184
0.211239
0.211294
0.211294
0.211349
0.211404
0.211459
0.211514
0.211514
0.211569
0.211624
0.21168
0.211735
0.211735
0.21179
0.211845
0.211901
0.211956
0.211956
0.212011
0.212067
0.212122
0.212178
0.212178
0.212233
0.212289
0.212344
0.2124
0.2124
0.212456
0.212511
0.212567
0.212623
0.212623
0.212679
0.212734
0.21279
0.212846
0.212846
0.212902
0.212958
0.213014
0.21307
0.21307
0.213126
0.213182
0.213239
0.213295
0.213295
0.213351
0.213407
0.213464
0.21352
0.21352
0.213576
0.213633
0.213689
0.213746
0.213746
0.213802
0.213859
0.213915
0.213972
0.213972
0.214029
0.214085
0.214142
0.214199
0.214199
0.214256
0.214312
0.214369
0.214426
0.214426
0.214483
0.21454
0.214597
0.214654
0.214654
0.214711
0.214768
0.214825
0.214883
0.214883
0.21494
0.214997
0.215054
0.215112
0.215112
0.215169
0.215227
0.215284
0.215341
0.215341
0.215399
0.215457
0.215514
0.215572
0.215572
0.215629
0.215687
0.215745
0.215803
0.215803
0.21586
0.215918
0.215976
0.216034
0.216034
0.216092
0.21615
0.216208
0.216266
0.216266
0.216324
0.216382
0.21644
0.216498
0.216498
0.216557
0.216615
0.216673
0.216732
0.216732
0.21679
0.216848
0.216907
0.216965
0.216965
0.217024
0.217082
0.217141
0.217199
0.217199
0.217258
0.217317
0.217376
0.217434
0.217434
0.217493
0.217552
0.217611
0.21767
0.21767
0.217729
0.217788
0.217847
0.217906
0.217906
0.217965
0.218024
0.218083
0.218142
0.218142
0.218201
0.218261
0.21832
0.218379
0.218379
0.218439
0.218498
0.218557
0.218617
0.218617
0.218676
0.218736
0.218796
0.218855
0.218855
0.218915
0.218975
0.219034
0.219094
0.219094
0.219154
0.219214
0.219273
0.219333
0.219333
0.219393
0.219453
0.219513
0.219573
0.219573
0.219633
0.219694
0.219754
0.219814
0.219814
0.219874
0.219934
0.219995
0.220055
0.220055
0.220115
0.220176
0.220236
0.220297
0.220297
0.220357
0.220418
0.220478
0.220539
0.220539
0.2206
0.22066
0.220721
0.220782
0.220782
0.220842
0.220903
0.220964
0.221025
0.221025
0.221086
0.221147
0.221208
0.221269
0.221269
0.22133
0.221391
0.221452
0.221514
0.221514
0.221575
0.221636
0.221697
0.221759
0.221759
0.22182
0.221881
0.221943
0.222004
0.222004
0.222066
0.222127
0.222189
0.222251
0.222251
0.222312
0.222374
0.222436
0.222497
0.222497
0.222559
0.222621
0.222683
0.222745
0.222745
0.222807
0.222869
0.222931
0.222993
0.222993
0.223055
0.223117
0.223179
0.223241
0.223241
0.223304
0.223366
0.223428
0.223491
0.223491
0.223553
0.223615
0.223678
0.22374
0.22374
0.223803
0.223865
0.223928
0.22399
0.22399
0.224053
0.224116
0.224179
0.224241
0.224241
0.224304
0.224367
0.22443
0.224493
0.224493
0.224556
0.224619
0.224682
0.224745
0.224745
0.224808
0.224871
0.224934
0.224997
0.224997
0.225061
0.225124
0.225187
0.22525
0.22525
0.225314
0.225377
0.225441
0.225504
0.225504
0.225568
0.225631
0.225695
0.225758
0.225758
0.225822
0.225886
0.22595
0.226013
0.226013
0.226077
0.226141
0.226205
0.226269
0.226269
0.226333
0.226397
0.226461
0.226525
0.226525
0.226589
0.226653
0.226717
0.226781
0.226781
0.226846
0.22691
0.226974
0.227039
0.227039
0.227103
0.227167
0.227232
0.227296
0.227296
0.227361
0.227425
0.22749
0.227555
0.227555
0.227619
0.227684
0.227749
0.227813
0.227813
0.227878
0.227943
0.228008
0.228073
0.228073
0.228138
0.228203
0.228268
0.228333
0.228333
0.228398
0.228463
0.228528
0.228594
0.228594
0.228659
0.228724
0.228789
0.228855
0.228855
0.22892
0.228986
0.229051
0.229117
0.229117
0.229182
0.229248
0.229313
0.229379
0.229379
0.229445
0.22951
0.229576
0.229642
0.229642
0.229708
0.229773
0.229839
0.229905
0.229905
0.229971
0.230037
0.230103
0.230169
0.230169
0.230235
0.230302
0.230368
0.230434
0.230434
0.2305
0.230567
0.230633
0.230699
0.230699
0.230766
0.230832
0.230899
0.230965
0.230965
0.231032
0.231098
0.231165
0.231231
0.231231
0.231298
0.231365
0.231432
0.231498
0.231498
0.231565
0.231632
0.231699
0.231766
0.231766
0.231833
0.2319
0.231967
0.232034
0.232034
0.232101
0.232168
0.232235
0.232303
0.232303
0.23237
0.232437
0.232505
0.232572
0.232572
0.232639
0.232707
0.232774
0.232842
0.232842
0.232909
0.232977
0.233045
0.233112
0.233112
0.23318
0.233248
0.233315
0.233383
0.233383
0.233451
0.233519
0.233587
0.233655
0.233655
0.233723
0.233791
0.233859
0.233927
0.233927
0.233995
0.234063
0.234131
0.2342
0.2342
0.234268
0.234336
0.234405
0.234473
0.234473
0.234541
0.23461
0.234678
0.234747
0.234747
0.234815
0.234884
0.234953
0.235021
0.235021
0.23509
0.235159
0.235227
0.235296
0.235296
0.235365
0.235434
0.235503
0.235572
0.235572
0.235641
0.23571
0.235779
0.235848
0.235848
0.235917
0.235986
0.236056
0.236125
0.236125
0.236194
0.236263
0.236333
0.236402
0.236402
0.236472
0.236541
0.236611
0.23668
0.23668
0.23675
0.236819
0.236889
0.236959
0.236959
0.237028
0.237098
0.237168
0.237238
0.237238
0.237308
0.237377
0.237447
0.237517
0.237517
0.237587
0.237657
0.237728
0.237798
0.237798
0.237868
0.237938
0.238008
0.238078
0.238078
0.238149
0.238219
0.238289
0.23836
0.23836
0.23843
0.238501
0.238571
0.238642
0.238642
0.238712
0.238783
0.238854
0.238924
0.238924
0.238995
0.239066
0.239137
0.239208
0.239208
0.239278
0.239349
0.23942
0.239491
0.239491
0.239562
0.239633
0.239704
0.239776
0.239776
0.239847
0.239918
0.239989
0.24006
0.24006
0.240132
0.240203
0.240274
0.240346
0.240346
0.240417
0.240489
0.24056
0.240632
0.240632
0.240703
0.240775
0.240847
0.240918
0.240918
0.24099
0.241062
0.241134
0.241206
0.241206
0.241278
0.241349
0.241421
0.241493
0.241493
0.241565
0.241638
0.24171
0.241782
0.241782
0.241854
0.241926
0.241998
0.242071
0.242071
0.242143
0.242215
0.242288
0.24236
0.24236
0.242433
0.242505
0.242578
0.24265
0.24265
0.242723
0.242796
0.242868
0.242941
0.242941
0.243014
0.243087
0.243159
0.243232
0.243232
0.243305
0.243378
0.243451
0.243524
0.243524
0.243597
0.24367
0.243743
0.243816
0.243816
0.24389
0.243963
0.244036
0.244109
0.244109
0.244183
0.244256
0.24433
0.244403
0.244403
0.244476
0.24455
0.244624
0.244697
0.244697
0.244771
0.244844
0.244918
0.244992
0.244992
0.245066
0.245139
0.245213
0.245287
0.245287
0.245361
0.245435
0.245509
0.245583
0.245583
0.245657
0.245731
0.245805
0.24588
0.24588
0.245954
0.246028
0.246102
0.246177
0.246177
0.246251
0.246325
0.2464
0.246474
0.246474
0.246549
0.246623
0.246698
0.246772
0.246772
0.246847
0.246922
0.246996
0.247071
0.247071
0.247146
0.247221
0.247296
0.247371
0.247371
0.247446
0.24752
0.247595
0.247671
0.247671
0.247746
0.247821
0.247896
0.247971
0.247971
0.248046
0.248122
0.248197
0.248272
0.248272
0.248348
0.248423
0.248498
0.248574
0.248574
0.248649
0.248725
0.248801
0.248876
0.248876
0.248952
0.249028
0.249103
0.249179
0.249179
0.249255
0.249331
0.249407
0.249482
0.249482
0.249558
0.249634
0.24971
0.249786
0.249786
0.249863
0.249939
0.250015
0.250091
0.250091
0.250167
0.250244
0.25032
0.250396
0.250396
0.250473
0.250549
0.250626
0.250702
0.250702
0.250779
0.250855
0.250932
0.251008
0.251008
0.251085
0.251162
0.251239
0.251315
0.251315
0.251392
0.251469
0.251546
0.251623
0.251623
0.2517
0.251777
0.251854
0.251931
0.251931
0.252008
0.252085
0.252162
0.25224
0.25224
0.252317
0.252394
0.252471
0.252549
0.252549
0.252626
0.252704
0.252781
0.252859
0.252859
0.252936
0.253014
0.253091
0.253169
0.253169
0.253247
0.253325
0.253402
0.25348
0.25348
0.253558
0.253636
0.253714
0.253792
0.253792
0.25387
0.253948
0.254026
0.254104
0.254104
0.254182
0.25426
0.254338
0.254417
0.254417
0.254495
0.254573
0.254652
0.25473
0.25473
0.254808
0.254887
0.254965
0.255044
0.255044
0.255122
0.255201
0.25528
0.255358
0.255358
0.255437
0.255516
0.255595
0.255673
0.255673
0.255752
0.255831
0.25591
0.255989
0.255989
0.256068
0.256147
0.256226
0.256305
0.256305
0.256384
0.256464
0.256543
0.256622
0.256622
0.256701
0.256781
0.25686
0.256939
0.256939
0.257019
0.257098
0.257178
0.257257
0.257257
0.257337
0.257417
0.257496
0.257576
0.257576
0.257656
0.257736
0.257815
0.257895
0.257895
0.257975
0.258055
0.258135
0.258215
0.258215
0.258295
0.258375
0.258455
0.258535
0.258535
0.258615
0.258696
0.258776
0.258856
0.258856
0.258936
0.259017
0.259097
0.259178
0.259178
0.259258
0.259339
0.259419
0.2595
0.2595
0.25958
0.259661
0.259742
0.259822
0.259822
0.259903
0.259984
0.260065
0.260146
0.260146
0.260226
0.260307
0.260388
0.260469
0.260469
0.26055
0.260631
0.260713
0.260794
0.260794
0.260875
0.260956
0.261037
0.261119
0.261119
0.2612
0.261281
0.261363
0.261444
0.261444
0.261526
0.261607
0.261689
0.26177
0.26177
0.261852
0.261934
0.262015
0.262097
0.262097
0.262179
0.262261
0.262343
0.262424
0.262424
0.262506
0.262588
0.26267
0.262752
0.262752
0.262834
0.262916
0.262999
0.263081
0.263081
0.263163
0.263245
0.263328
0.26341
0.26341
0.263492
0.263575
0.263657
0.263739
0.263739
0.263822
0.263905
0.263987
0.26407
0.26407
0.264152
0.264235
0.264318
0.264401
0.264401
0.264483
0.264566
0.264649
0.264732
0.264732
0.264815
0.264898
0.264981
0.265064
0.265064
0.265147
0.26523
0.265313
0.265396
0.265396
0.26548
0.265563
0.265646
0.26573
0.26573
0.265813
0.265896
0.26598
0.266063
0.266063
0.266147
0.26623
0.266314
0.266398
0.266398
0.266481
0.266565
0.266649
0.266732
0.266732
0.266816
0.2669
0.266984
0.267068
0.267068
0.267152
0.267236
0.26732
0.267404
0.267404
0.267488
0.267572
0.267656
0.267741
0.267741
0.267825
0.267909
0.267993
0.268078
0.268078
0.268162
0.268247
0.268331
0.268416
0.268416
0.2685
0.268585
0.268669
0.268754
0.268754
0.268839
0.268923
0.269008
0.269093
0.269093
0.269178
0.269263
0.269348
0.269432
0.269432
0.269517
0.269602
0.269688
0.269773
0.269773
0.269858
0.269943
0.270028
0.270113
0.270113
0.270199
0.270284
0.270369
0.270455
0.270455
0.27054
0.270625
0.270711
0.270796
0.270796
0.270882
0.270968
0.271053
0.271139
0.271139
0.271225
0.27131
0.271396
0.271482
0.271482
0.271568
0.271654
0.27174
0.271826
0.271826
0.271912
0.271998
0.272084
0.27217
0.27217
0.272256
0.272342
0.272428
0.272515
0.272515
0.272601
0.272687
0.272774
0.27286
0.27286
0.272946
0.273033
0.273119
0.273206
0.273206
0.273293
0.273379
0.273466
0.273552
0.273552
0.273639
0.273726
0.273813
0.2739
0.2739
0.273986
0.274073
0.27416
0.274247
0.274247
0.274334
0.274421
0.274508
0.274596
0.274596
0.274683
0.27477
0.274857
0.274944
0.274944
0.275032
0.275119
0.275207
0.275294
0.275294
0.275381
0.275469
0.275556
0.275644
0.275644
0.275732
0.275819
0.275907
0.275995
0.275995
0.276082
0.27617
0.276258
0.276346
0.276346
0.276434
0.276522
0.27661
0.276698
0.276698
0.276786
0.276874
0.276962
0.27705
0.27705
0.277138
0.277226
0.277315
0.277403
0.277403
0.277491
0.27758
0.277668
0.277756
0.277756
0.277845
0.277933
0.278022
0.278111
0.278111
0.278199
0.278288
0.278377
0.278465
0.278465
0.278554
0.278643
0.278732
0.278821
0.278821
0.278909
0.278998
0.279087
0.279176
0.279176
0.279265
0.279355
0.279444
0.279533
0.279533
0.279622
0.279711
0.279801
0.27989
0.27989
0.279979
0.280069
0.280158
0.280247
0.280247
0.280337
0.280426
0.280516
0.280606
0.280606
0.280695
0.280785
0.280875
0.280964
0.280964
0.281054
0.281144
0.281234
0.281324
0.281324
0.281414
0.281504
0.281594
0.281684
0.281684
0.281774
0.281864
0.281954
0.282044
0.282044
0.282134
0.282225
0.282315
0.282405
0.282405
0.282496
0.282586
0.282677
0.282767
0.282767
0.282858
0.282948
0.283039
0.283129
0.283129
0.28322
0.283311
0.283401
0.283492
0.283492
0.283583
0.283674
0.283765
0.283856
0.283856
0.283947
0.284038
0.284129
0.28422
0.28422
0.284311
0.284402
0.284493
0.284584
0.284584
0.284675
0.284767
0.284858
0.284949
0.284949
0.285041
0.285132
0.285224
0.285315
0.285315
0.285407
0.285498
0.28559
0.285682
0.285682
0.285773
0.285865
0.285957
0.286048
0.286048
0.28614
0.286232
0.286324
0.286416
0.286416
0.286508
0.2866
0.286692
0.286784
0.286784
0.286876
0.286968
0.28706
0.287153
0.287153
0.287245
0.287337
0.28743
0.287522
0.287522
0.287614
0.287707
0.287799
0.287892
0.287892
0.287984
0.288077
0.28817
0.288262
0.288262
0.288355
0.288448
0.28854
0.288633
0.288633
0.288726
0.288819
0.288912
0.289005
0.289005
0.289098
0.289191
0.289284
0.289377
0.289377
0.28947
0.289563
0.289656
0.28975
0.28975
0.289843
0.289936