<?xml version="1.0"?>
<VTKFile type="UnstructuredGrid" version="0.1" byte_order="LittleEndian">
<UnstructuredGrid>
<Piece NumberOfPoints="5000" NumberOfCells="4000">
<PointData Scalars="Reaction 0">
<DataArray type="Float32" Name="Reaction 0" format="ascii">
0.391202
0.391202
0.391202
0.391202
0.391202
0.391202
0.391202
0.391203
0.391203
0.391203
0.391203
0.391203
0.391204
0.391204
0.391204
0.391204
0.391205
0.391205
0.391205
0.391206
0.391206
0.391206
0.391207
0.391207
0.391208
0.391208
0.391209
0.391209
0.39121
0.391211
0.391211
0.391211
0.391212
0.391213
0.391214
0.391214
0.391214
0.391215
0.391216
0.391217
0.391217
0.391218
0.391219
0.39122
0.391221
0.391221
0.391222
0.391223
0.391224
0.391225
0.391225
0.391227
0.391228
0.391229
0.39123
0.39123
0.391232
0.391233
0.391234
0.391236
0.391236
0.391237
0.391239
0.39124
0.391242
0.391242
0.391243
0.391245
0.391246
0.391248
0.391248
0.39125
0.391251
0.391253
0.391255
0.391255
0.391256
0.391258
0.39126
0.391262
0.391262
0.391264
0.391266
0.391268
0.39127
0.39127
0.391272
0.391274
0.391276
0.391278
0.391278
0.39128
0.391282
0.391284
0.391286
0.391286
0.391289
0.391291
0.391293
0.391296
0.391296
0.391298
0.3913
0.391303
0.391305
0.391305
0.391308
0.39131
0.391313
0.391315
0.391315
0.391318
0.39132
0.391323
0.391326
0.391326
0.391328
0.391331
0.391334
0.391337
0.391337
0.391339
0.391342
0.391345
0.391348
0.391348
0.391351
0.391354
0.391357
0.39136
0.39136
0.391363
0.391366
0.391369
0.391372
0.391372
0.391376
0.391379
0.391382
0.391385
0.391385
0.391389
0.391392
0.391395
0.391399
0.391399
0.391402
0.391405
0.391409
0.391412
0.391412
0.391416
0.391419
0.391423
0.391427
0.391427
0.39143
0.391434
0.391438
0.391441
0.391441
0.391445
0.391449
0.391453
0.391456
0.391456
0.39146
0.391464
0.391468
0.391472
0.391472
0.391476
0.39148
0.391484
0.391488
0.391488
0.391492
0.391496
0.391501
0.391505
0.391505
0.391509
0.391513
0.391518
0.391522
0.391522
0.391526
0.391531
0.391535
0.391539
0.391539
0.391544
0.391548
0.391553
0.391557
0.391557
0.391562
0.391567
0.391571
0.391576
0.391576
0.391581
0.391585
0.39159
0.391595
0.391595
0.3916
0.391604
0.391609
0.391614
0.391614
0.391619
0.391624
0.391629
0.391634
0.391634
0.391639
0.391644
0.391649
0.391654
0.391654
0.391659
0.391665
0.39167
0.391675
0.391675
0.39168
0.391686
0.391691
0.391696
0.391696
0.391702
0.391707
0.391713
0.391718
0.391718
0.391724
0.391729
0.391735
0.39174
0.39174
0.391746
0.391752
0.391757
0.391763
0.391763
0.391769
0.391774
0.39178
0.391786
0.391786
0.391792
0.391798
0.391804
0.39181
0.39181
0.391816
0.391822
0.391828
0.391834
0.391834
0.39184
0.391846
0.391852
0.391858
0.391858
0.391864
0.391871
0.391877
0.391883
0.391883
0.39189
0.391896
0.391902
0.391909
0.391909
0.391915
0.391922
0.391928
0.391935
0.391935
0.391941
0.391948
0.391954
0.391961
0.391961
0.391968
0.391974
0.391981
0.391988
0.391988
0.391995
0.392001
0.392008
0.392015
0.392015
0.392022
0.392029
0.392036
0.392043
0.392043
0.39205
0.392057
0.392064
0.392071
0.392071
0.392078
0.392086
0.392093
0.3921
0.3921
0.392107
0.392115
0.392122
0.392129
0.392129
0.392137
0.392144
0.392151
0.392159
0.392159
0.392166
0.392174
0.392181
0.392189
0.392189
0.392197
0.392204
0.392212
0.39222
0.39222
0.392227
0.392235
0.392243
0.392251
0.392251
0.392259
0.392266
0.392274
0.392282
0.392282
0.39229
0.392298
0.392306
0.392314
0.392314
0.392322
0.39233
0.392339
0.392347
0.392347
0.392355
0.392363
0.392371
0.39238
0.39238
0.392388
0.392396
0.392405
0.392413
0.392413
0.392421
0.39243
0.392438
0.392447
0.392447
0.392455
0.392464
0.392473
0.392481
0.392481
0.39249
0.392499
0.392507
0.392516
0.392516
0.392525
0.392534
0.392542
0.392551
0.392551
0.39256
0.392569
0.392578
0.392587
0.392587
0.392596
0.392605
0.392614
0.392623
0.392623
0.392632
0.392642
0.392651
0.39266
0.39266
0.392669
0.392678
0.392688
0.392697
0.392697
0.392706
0.392716
0.392725
0.392735
0.392735
0.392744
0.392754
0.392763
0.392773
0.392773
0.392782
0.392792
0.392802
0.392811
0.392811
0.392821
0.392831
0.392841
0.39285
0.39285
0.39286
0.39287
0.39288
0.39289
0.39289
0.3929
0.39291
0.39292
0.39293
0.39293
0.39294
0.39295
0.39296
0.39297
0.39297
0.39298
0.392991
0.393001
0.393011
0.393011
0.393021
0.393032
0.393042
0.393052
0.393052
0.393063
0.393073
0.393084
0.393094
0.393094
0.393105
0.393115
0.393126
0.393137
0.393137
0.393147
0.393158
0.393169
0.393179
0.393179
0.39319
0.393201
0.393212
0.393223
0.393223
0.393233
0.393244
0.393255
0.393266
0.393266
0.393277
0.393288
0.393299
0.39331
0.39331
0.393321
0.393333
0.393344
0.393355
0.393355
0.393366
0.393377
0.393389
0.3934
0.3934
0.393411
0.393423
0.393434
0.393446
0.393446
0.393457
0.393469
0.39348
0.393492
0.393492
0.393503
0.393515
0.393526
0.393538
0.393538
0.39355
0.393562
0.393573
0.393585
0.393585
0.393597
0.393609
0.393621
0.393633
0.393633
0.393644
0.393656
0.393668
0.39368
0.39368
0.393693
0.393705
0.393717
0.393729
0.393729
0.393741
0.393753
0.393765
0.393778
0.393778
0.39379
0.393802
0.393815
0.393827
0.393827
0.393839
0.393852
0.393864
0.393877
0.393877
0.393889
0.393902
0.393914
0.393927
0.393927
0.39394
0.393952
0.393965
0.393978
0.393978
0.39399
0.394003
0.394016
0.394029
0.394029
0.394042
0.394055
0.394068
0.39408
0.39408
0.394093
0.394106
0.39412
0.394133
0.394133
0.394146
0.394159
0.394172
0.394185
0.394185
0.394198
0.394212
0.394225
0.394238
0.394238
0.394252
0.394265
0.394278
0.394292
0.394292
0.394305
0.394319
0.394332
0.394346
0.394346
0.394359
0.394373
0.394386
0.3944
0.3944
0.394414
0.394428
0.394441
0.394455
0.394455
0.394469
0.394483
0.394497
0.39451
0.39451
0.394524
0.394538
0.394552
0.394566
0.394566
0.39458
0.394594
0.394608
0.394623
0.394623
0.394637
0.394651
0.394665
0.394679
0.394679
0.394694
0.394708
0.394722
0.394737
0.394737
0.394751
0.394765
0.39478
0.394794
0.394794
0.394809
0.394823
0.394838
0.394853
0.394853
0.394867
0.394882
0.394896
0.394911
0.394911
0.394926
0.394941
0.394955
0.39497
0.39497
0.394985
0.395
0.395015
0.39503
0.39503
0.395045
0.39506
0.395075
0.39509
0.39509
0.395105
0.39512
0.395135
0.39515
0.39515
0.395166
0.395181
0.395196
0.395211
0.395211
0.395227
0.395242
0.395258
0.395273
0.395273
0.395288
0.395304
0.395319
0.395335
0.395335
0.39535
0.395366
0.395382
0.395397
0.395397
0.395413
0.395429
0.395444
0.39546
0.39546
0.395476
0.395492
0.395508
0.395523
0.395523
0.395539
0.395555
0.395571
0.395587
0.395587
0.395603
0.395619
0.395635
0.395652
0.395652
0.395668
0.395684
0.3957
0.395716
0.395716
0.395733
0.395749
0.395765
0.395781
0.395781
0.395798
0.395814
0.395831
0.395847
0.395847
0.395864
0.39588
0.395897
0.395913
0.395913
0.39593
0.395947
0.395963
0.39598
0.39598
0.395997
0.396013
0.39603
0.396047
0.396047
0.396064
0.396081
0.396098
0.396115
0.396115
0.396132
0.396148
0.396166
0.396183
0.396183
0.3962
0.396217
0.396234
0.396251
0.396251
0.396268
0.396285
0.396303
0.39632
0.39632
0.396337
0.396355
0.396372
0.396389
0.396389
0.396407
0.396424
0.396442
0.396459
0.396459
0.396477
0.396494
0.396512
0.39653
0.39653
0.396547
0.396565
0.396583
0.3966
0.3966
0.396618
0.396636
0.396654
0.396672
0.396672
0.39669
0.396708
0.396726
0.396744
0.396744
0.396762
0.39678
0.396798
0.396816
0.396816
0.396834
0.396852
0.39687
0.396888
0.396888
0.396907
0.396925
0.396943
0.396962
0.396962
0.39698
0.396998
0.397017
0.397035
0.397035
0.397054
0.397072
0.397091
0.397109
0.397109
0.397128
0.397147
0.397165
0.397184
0.397184
0.397203
0.397221
0.39724
0.397259
0.397259
0.397278
0.397297
0.397316
0.397334
0.397334
0.397353
0.397372
0.397391
0.39741
0.39741
0.39743
0.397449
0.397468
0.397487
0.397487
0.397506
0.397525
0.397545
0.397564
0.397564
0.397583
0.397602
0.397622
0.397641
0.397641
0.397661
0.39768
0.3977
0.397719
0.397719
0.397739
0.397758
0.397778
0.397797
0.397797
0.397817
0.397837
0.397856
0.397876
0.397876
0.397896
0.397916
0.397936
0.397955
0.397955
0.397975
0.397995
0.398015
0.398035
0.398035
0.398055
0.398075
0.398095
0.398115
0.398115
0.398135
0.398156
0.398176
0.398196
0.398196
0.398216
0.398236
0.398257
0.398277
0.398277
0.398297
0.398318
0.398338
0.398359
0.398359
0.398379
0.3984
0.39842
0.398441
0.398441
0.398461
0.398482
0.398503
0.398523
0.398523
0.398544
0.398565
0.398586
0.398606
0.398606
0.398627
0.398648
0.398669
0.39869
0.39869
0.398711
0.398732
0.398753
0.398774
0.398774
0.398795
0.398816
0.398837
0.398858
0.398858
0.398879
0.398901
0.398922
0.398943
0.398943
0.398964
0.398986
0.399007
0.399028
0.399028
0.39905
0.399071
0.399093
0.399114
0.399114
0.399136
0.399157
0.399179
0.3992
0.3992
0.399222
0.399244
0.399265
0.399287
0.399287
0.399309
0.399331
0.399353
0.399374
0.399374
0.399396
0.399418
0.39944
0.399462
0.399462
0.399484
0.399506
0.399528
0.39955
0.39955
0.399572
0.399595
0.399617
0.399639
0.399639
0.399661
0.399683
0.399706
0.399728
0.399728
0.39975
0.399773
0.399795
0.399818
0.399818
0.39984
0.399863
0.399885
0.399908
0.399908
0.39993
0.399953
0.399975
0.399998
0.399998
0.400021
0.400044
0.400066
0.400089
0.400089
0.400112
0.400135
0.400158
0.400181
0.400181
0.400203
0.400226
0.400249
0.400272
0.400272
0.400296
0.400319
0.400342
0.400365
0.400365
0.400388
0.400411
0.400434
0.400458
0.400458
0.400481
0.400504
0.400528
0.400551
0.400551
0.400574
0.400598
0.400621
0.400645
0.400645
0.400668
0.400692
0.400715
0.400739
0.400739
0.400763
0.400786
0.40081
0.400834
0.400834
0.400858
0.400881
0.400905
0.400929
0.400929
0.400953
0.400977
0.401001
0.401025
0.401025
0.401049
0.401073
0.401097
0.401121
0.401121
0.401145
0.401169
0.401193
0.401217
0.401217
0.401242
0.401266
0.40129
0.401314
0.401314
0.401339
0.401363
0.401388
0.401412
0.401412
0.401436
0.401461
0.401485
0.40151
0.40151
0.401535
0.401559
0.401584
0.401609
0.401609
0.401633
0.401658
0.401683
0.401707
0.401707
0.401732
0.401757
0.401782
0.401807
0.401807
0.401832
0.401857
0.401882
0.401907
0.401907
0.401932
0.401957
0.401982
0.402007
0.402007
0.402032
0.402058
0.402083
0.402108
0.402108
0.402133
0.402159
0.402184
0.402209
0.402209
0.402235
0.40226
0.402286
0.402311
0.402311
0.402337
0.402362
0.402388
0.402413
0.402413
0.402439
0.402465
0.40249
0.402516
0.402516
0.402542
0.402568
0.402593
0.402619
0.402619
0.402645
0.402671
0.402697
0.402723
0.402723
0.402749
0.402775
0.402801
0.402827
0.402827
0.402853
0.402879
0.402905
0.402932
0.402932
0.402958
0.402984
0.40301
0.403037
0.403037
0.403063
0.403089
0.403116
0.403142
0.403142
0.403169
0.403195
0.403222
0.403248
0.403248
0.403275
0.403301
0.403328
0.403355
0.403355
0.403381
0.403408
0.403435
0.403462
0.403462
0.403488
0.403515
0.403542
0.403569
0.403569
0.403596
0.403623
0.40365
0.403677
0.403677
0.403704
0.403731
0.403758
0.403785
0.403785
0.403812
0.40384
0.403867
0.403894
0.403894
0.403921
0.403949
0.403976
0.404003
0.404003
0.404031
0.404058
0.404086
0.404113
0.404113
0.404141
0.404168
0.404196
0.404223
0.404223
0.404251
0.404279
0.404306
0.404334
0.404334
0.404362
0.404389
0.404417
0.404445
0.404445
0.404473
0.404501
0.404529
0.404557
0.404557
0.404585
0.404613
0.404641
0.404669
0.404669
0.404697
0.404725
0.404753
0.404781
0.404781
0.40481
0.404838
0.404866
0.404894
0.404894
0.404923
0.404951
0.40498
0.405008
0.405008
0.405036
0.405065
0.405093
0.405122
0.405122
0.405151
0.405179
0.405208
0.405236
0.405236
0.405265
0.405294
0.405323
0.405351
0.405351
0.40538
0.405409
0.405438
0.405467
0.405467
0.405496
0.405525
0.405554
0.405583
0.405583
0.405612
0.405641
0.40567
0.405699
0.405699
0.405728
0.405757
0.405787
0.405816
0.405816
0.405845
0.405874
0.405904
0.405933
0.405933
0.405963
0.405992
0.406021
0.406051
0.406051
0.40608
0.40611
0.406139
0.406169
0.406169
0.406199
0.406228
0.406258
0.406288
0.406288
0.406318
0.406347
0.406377
0.406407
0.406407
0.406437
0.406467
0.406497
0.406527
0.406527
0.406557
0.406587
0.406617
0.406647
0.406647
0.406677
0.406707
0.406737
0.406767
0.406767
0.406798
0.406828
0.406858
0.406888
0.406888
0.406919
0.406949
0.406979
0.40701
0.40701
0.40704
0.407071
0.407101
0.407132
0.407132
0.407162
0.407193
0.407224
0.407254
0.407254
0.407285
0.407316
0.407346
0.407377
0.407377
0.407408
0.407439
0.40747
0.407501
0.407501
0.407532
0.407563
0.407594
0.407625
0.407625
0.407656
0.407687
0.407718
0.407749
0.407749
0.40778
0.407811
0.407842
0.407874
0.407874
0.407905
0.407936
0.407968
0.407999
0.407999
0.40803
0.408062
0.408093
0.408125
0.408125
0.408156
0.408188
0.408219
0.408251
0.408251
0.408283
0.408314
0.408346
0.408378
0.408378
0.408409
0.408441
0.408473
0.408505
0.408505
0.408537
0.408569
0.408601
0.408633
0.408633
0.408665
0.408697
0.408729
0.408761
0.408761
0.408793
0.408825
0.408857
0.408889
0.408889
0.408921
0.408954
0.408986
0.409018
0.409018
0.409051
0.409083
0.409115
0.409148
0.409148
0.40918
0.409213
0.409245
0.409278
0.409278
0.40931
0.409343
0.409376
0.409408
0.409408
0.409441
0.409474
0.409507
0.409539
0.409539
0.409572
0.409605
0.409638
0.409671
0.409671
0.409704
0.409737
0.40977
0.409803
0.409803
0.409836
0.409869
0.409902
0.409935
0.409935
0.409968
0.410001
0.410035
0.410068
0.410068
0.410101
0.410134
0.410168
0.410201
0.410201
0.410235
0.410268
0.410301
0.410335
0.410335
0.410368
0.410402
0.410436
0.410469
0.410469
0.410503
0.410536
0.41057
0.410604
0.410604
0.410638
0.410671
0.410705
0.410739
0.410739
0.410773
0.410807
0.410841
0.410875
0.410875
0.410909
0.410943
0.410977
0.411011
0.411011
0.411045
0.411079
0.411113
0.411148
0.411148
0.411182
0.411216
0.41125
0.411285
0.411285
0.411319
0.411353
0.411388
0.411422
0.411422
0.411457
0.411491
0.411526
0.41156
0.41156
0.411595
0.411629
0.411664
0.411699
0.411699
0.411733
0.411768
0.411803
0.411838
0.411838
0.411873
0.411907
0.411942
0.411977
0.411977
0.412012
0.412047
0.412082
0.412117
0.412117
0.412152
0.412187
0.412222
0.412258
0.412258
0.412293
0.412328
0.412363
0.412398
0.412398
0.412434
0.412469
0.412504
0.41254
0.41254
0.412575
0.412611
0.412646
0.412682
0.412682
0.412717
0.412753
0.412788
0.412824
0.412824
0.412859
0.412895
0.412931
0.412967
0.412967
0.413002
0.413038
0.413074
0.41311
0.41311
0.413146
0.413182
0.413218
0.413254
0.413254
0.41329
0.413326
0.413362
0.413398
0.413398
0.413434
0.41347
0.413506
0.413542
0.413542
0.413579
0.413615
0.413651
0.413688
0.413688
0.413724
0.41376
0.413797
0.413833
0.413833
0.41387
0.413906
0.413943
0.413979
0.413979
0.414016
0.414052
0.414089
0.414126
0.414126
0.414162
0.414199
0.414236
0.414273
0.414273
0.41431
0.414346
0.414383
0.41442
0.41442
0.414457
0.414494
0.414531
0.414568
0.414568
0.414605
0.414642
0.41468
0.414717
0.414717
0.414754
0.414791
0.414828
0.414866
0.414866
0.414903
0.41494
0.414978
0.415015
0.415015
0.415052
0.41509
0.415127
0.415165
0.415165
0.415202
0.41524
0.415278
0.415315
0.415315
0.415353
0.415391
0.415428
0.415466
0.415466
0.415504
0.415542
0.415579
0.415617
0.415617
0.415655
0.415693
0.415731
0.415769
0.415769
0.415807
0.415845
0.415883
0.415921
0.415921
0.415959
0.415998
0.416036
0.416074
0.416074
0.416112
0.416151
0.416189
0.416227
0.416227
0.416266
0.416304
0.416342
0.416381
0.416381
0.416419
0.416458
0.416496
0.416535
0.416535
0.416574
0.416612
0.416651
0.41669
0.41669
0.416728
0.416767
0.416806
0.416845
0.416845
0.416884
0.416922
0.416961
0.417
0.417
0.417039
0.417078
0.417117
0.417156
0.417156
0.417195
0.417234
0.417274
0.417313
0.417313
0.417352
0.417391
0.41743
0.41747
0.41747
0.417509
0.417548
0.417588
0.417627
0.417627
0.417667
0.417706
0.417746
0.417785
0.417785
0.417825
0.417864
0.417904
0.417944
0.417944
0.417983
0.418023
0.418063
0.418102
0.418102
0.418142
0.418182
0.418222
0.418262
0.418262
0.418302
0.418342
0.418382
0.418422
0.418422
0.418462
0.418502
0.418542
0.418582
0.418582
0.418622
0.418662
0.418702
0.418743
0.418743
0.418783
0.418823
0.418864
0.418904
0.418904
0.418944
0.418985
0.419025
0.419066
0.419066
0.419106
0.419147
0.419187
0.419228
0.419228
0.419269
0.419309
0.41935
0.419391
0.419391
0.419431
0.419472
0.419513
0.419554
0.419554
0.419595
0.419636
0.419676
0.419717
0.419717
0.419758
0.419799
0.41984
0.419882
0.419882
0.419923
0.419964
0.420005
0.420046
0.420046
0.420087
0.420129
0.42017
0.420211
0.420211
0.420252
0.420294
0.420335
0.420377
0.420377
0.420418
0.42046
0.420501
0.420543
0.420543
0.420584
0.420626
0.420668
0.420709
0.420709
0.420751
0.420793
0.420834
0.420876
0.420876
0.420918
0.42096
0.421002
0.421044
0.421044
0.421086
0.421128
0.42117
0.421212
0.421212
0.421254
0.421296
0.421338
0.42138
0.42138
0.421422
0.421464
0.421507
0.421549
0.421549
0.421591
0.421633
0.421676
0.421718
0.421718
0.421761
0.421803
0.421845
0.421888
0.421888
0.421931
0.421973
0.422016
0.422058
0.422058
0.422101
0.422144
0.422186
0.422229
0.422229
0.422272
0.422315
0.422357
0.4224
0.4224
0.422443
0.422486
0.422529
0.422572
0.422572
0.422615
0.422658
0.422701
0.422744
0.422744
0.422787
0.422831
0.422874
0.422917
0.422917
0.42296
0.423004
0.423047
0.42309
0.42309
0.423134
0.423177
0.42322
0.423264
0.423264
0.423307
0.423351
0.423394
0.423438
0.423438
0.423482
0.423525
0.423569
0.423613
0.423613
0.423656
0.4237
0.423744
0.423788
0.423788
0.423831
0.423875
0.423919
0.423963
0.423963
0.424007
0.424051
0.424095
0.424139
0.424139
0.424183
0.424227
0.424272
0.424316
0.424316
0.42436
0.424404
0.424448
0.424493
0.424493
0.424537
0.424581
0.424626
0.42467
0.42467
0.424715
0.424759
0.424804
0.424848
0.424848
0.424893
0.424937
0.424982
0.425027
0.425027
0.425071
0.425116
0.425161
0.425205
0.425205
0.42525
0.425295
0.42534
0.425385
0.425385
0.42543
0.425475
0.42552
0.425565
0.425565
0.42561
0.425655
0.4257
0.425745
0.425745
0.42579
0.425835
0.425881
0.425926
0.425926
0.425971
0.426016
0.426062
0.426107
0.426107
0.426152
0.426198
0.426243
0.426289
0.426289
0.426334
0.42638
0.426426
0.426471
0.426471
0.426517
0.426562
0.426608
0.426654
0.426654
0.4267
0.426745
0.426791
0.426837
0.426837
0.426883
0.426929
0.426975
0.427021
0.427021
0.427067
0.427113
0.427159
0.427205
0.427205
0.427251
0.427297
0.427343
0.42739
0.42739
0.427436
0.427482
0.427528
0.427575
0.427575
0.427621
0.427667
0.427714
0.42776
0.42776
0.427807
0.427853
0.4279
0.427946
0.427946
0.427993
0.42804
0.428086
0.428133
0.428133
0.42818
0.428226
0.428273
0.42832
0.42832
0.428367
0.428414
0.428461
0.428508
0.428508
0.428554
0.428601
0.428648
0.428696
0.428696
0.428743
0.42879
0.428837
0.428884
0.428884
0.428931
0.428978
0.429026
0.429073
0.429073
0.42912
0.429168
0.429215
0.429262
0.429262
0.42931
0.429357
0.429405
0.429452
0.429452
0.4295
0.429547
0.429595
0.429643
0.429643
0.42969
0.429738
0.429786
0.429834
0.429834
0.429881
0.429929
0.429977
0.430025
0.430025
0.430073
0.430121
0.430169
0.430217
0.430217
0.430265
0.430313
0.430361
0.430409
0.430409
0.430457
0.430506
0.430554
0.430602
0.430602
0.43065
0.430699
0.430747
0.430795
0.430795
0.430844
0.430892
0.430941
0.430989
0.430989
0.431038
0.431086
0.431135
0.431183
0.431183
0.431232
0.431281
0.431329
0.431378
0.431378
0.431427
0.431476
0.431524
0.431573
0.431573
0.431622
0.431671
0.43172
0.431769
0.431769
0.431818
0.431867
0.431916
0.431965
0.431965
0.432014
0.432063
0.432113
0.432162
0.432162
0.432211
0.43226
0.43231
0.432359
0.432359
0.432408
0.432458
0.432507
0.432557
0.432557
0.432606
0.432656
0.432705
0.432755
0.432755
0.432804
0.432854
0.432904
0.432953
0.432953
0.433003
0.433053
0.433103
0.433152
0.433152
0.433202
0.433252
0.433302
0.433352
0.433352
0.433402
0.433452
0.433502
0.433552
0.433552
0.433602
0.433652
0.433702
0.433752
0.433752
0.433803
0.433853
0.433903
0.433953
0.433953
0.434004
0.434054
0.434104
0.434155
0.434155
0.434205
0.434256
0.434306
0.434357
0.434357
0.434407
0.434458
0.434509
0.434559
0.434559
0.43461
0.434661
0.434711
0.434762
0.434762
0.434813
0.434864
0.434915
0.434966
0.434966
0.435017
0.435068
0.435119
0.43517
0.43517
0.435221
0.435272
0.435323
0.435374
0.435374
0.435425
0.435476
0.435528
0.435579
0.435579
0.43563
0.435681
0.435733
0.435784
0.435784
0.435836
0.435887
0.435939
0.43599
0.43599
0.436042
0.436093
0.436145
0.436196
0.436196
0.436248
0.4363
0.436351
0.436403
0.436403
0.436455
0.436507
0.436559
0.43661
0.43661
0.436662
0.436714
0.436766
0.436818
0.436818
0.43687
0.436922
0.436974
0.437026
0.437026
0.437079
0.437131
0.437183
0.437235
0.437235
0.437287
0.43734
0.437392
0.437444
0.437444
0.437497
0.437549
0.437602
0.437654
0.437654
0.437707
0.437759
0.437812
0.437864
0.437864
0.437917
0.43797
0.438022
0.438075
0.438075
0.438128
0.438181
0.438233
0.438286
0.438286
0.438339
0.438392
0.438445
0.438498
0.438498
0.438551
0.438604
0.438657
0.43871
0.43871
0.438763
0.438816
0.438869
0.438923
0.438923
0.438976
0.439029
0.439082
0.439136
0.439136
0.439189
0.439242
0.439296
0.439349
0.439349
0.439403
0.439456
0.43951
0.439563
0.439563
0.439617
0.439671
0.439724
0.439778
0.439778
0.439832
0.439885
0.439939
0.439993
0.439993
0.440047
0.440101
0.440155
0.440209
0.440209
0.440263
0.440317
0.440371
0.440425
0.440425
0.440479
0.440533
0.440587
0.440641
0.440641
0.440695
0.44075
0.440804
0.440858
0.440858
0.440912
0.440967
0.441021
0.441076
0.441076
0.44113
0.441185
0.441239
0.441294
0.441294
0.441348
0.441403
0.441457
0.441512
0.441512
0.441567
0.441621
0.441676
0.441731
0.441731
0.441786
0.441841
0.441896
0.44195
0.44195
0.442005
0.44206
0.442115
0.44217
0.44217
0.442225
0.442281
0.442336
0.442391
0.442391
0.442446
0.442501
0.442556
0.442612
0.442612
0.442667
0.442722
0.442778
0.442833
0.442833
0.442888
0.442944
0.442999
0.443055
0.443055
0.44311
0.443166
0.443222
0.443277
0.443277
0.443333
0.443389
0.443444
0.4435
0.4435
0.443556
0.443612
0.443668
0.443724
0.443724
0.443779
0.443835
0.443891
0.443947
0.443947
0.444003
0.444059
0.444116
0.444172
0.444172
0.444228
0.444284
0.44434
0.444396
0.444396
0.444453
0.444509
0.444565
0.444622
0.444622
0.444678
0.444735
0.444791
0.444848
0.444848
0.444904
0.444961
0.445017
0.445074
0.445074
0.44513
0.445187
0.445244
0.445301
0.445301
0.445357
0.445414
0.445471
0.445528
0.445528
0.445585
0.445642
0.445699
0.445756
0.445756
0.445813
0.44587
0.445927
0.445984
0.445984
0.446041
0.446098
0.446155
0.446213
0.446213
0.44627
0.446327
0.446384
0.446442
0.446442
0.446499
0.446557
0.446614
0.446672
0.446672
0.446729
0.446787
0.446844
0.446902
0.446902
0.446959
0.447017
0.447075
0.447132
0.447132
0.44719
0.447248
0.447306
0.447364
0.447364
0.447421
0.447479
0.447537
0.447595
0.447595
0.447653
0.447711
0.447769
0.447827
0.447827
0.447886
0.447944
0.448002
0.44806
0.44806
0.448118
0.448177
0.448235
0.448293
0.448293
0.448352
0.44841
0.448468
0.448527
0.448527
0.448585
0.448644
0.448702
0.448761
0.448761
0.44882
0.448878
0.448937
0.448996
0.448996
0.449054
0.449113
0.449172
0.449231
0.449231
0.44929
0.449348
0.449407
0.449466
0.449466
0.449525
0.449584
0.449643
0.449702
0.449702
0.449762
0.449821
0.44988
0.449939
0.449939
0.449998
0.450058
0.450117
0.450176
0.450176
0.450235
0.450295
0.450354
0.450414
0.450414
0.450473
0.450533
0.450592
0.450652
0.450652
0.450711
0.450771
0.450831
0.45089
0.45089
0.45095
0.45101
0.45107
0.451129
0.451129
0.451189
0.451249
0.451309
0.451369
0.451369
0.451429
0.451489
0.451549
0.451609
0.451609
0.451669
0.451729
0.451789
0.45185
0.45185
0.45191
0.45197
0.45203
0.452091
0.452091
0.452151
0.452211
0.452272
0.452332
0.452332
0.452393
0.452453
0.452514
0.452574
0.452574
0.452635
0.452695
0.452756
0.452817
0.452817
0.452877
0.452938
0.452999
0.45306
0.45306
0.453121
0.453181
0.453242
0.453303
0.453303
0.453364
0.453425
0.453486
0.453547
0.453547
0.453608
0.453669
0.453731
0.453792
0.453792
0.453853
0.453914
0.453975
0.454037
0.454037
0.454098
0.454159
0.454221
0.454282
0.454282
0.454344
0.454405
0.454467
0.454528
0.454528
0.45459
0.454651
0.454713
0.454775
0.454775
0.454836
0.454898
0.45496
0.455022
0.455022
0.455083
0.455145
0.455207
0.455269
0.455269
0.455331
0.455393
0.455455
0.455517
0.455517
0.455579
0.455641
0.455703
0.455766
0.455766
0.455828
0.45589
0.455952
0.456015
0.456015
0.456077
0.456139
0.456202
0.456264
0.456264
0.456326
0.456389
0.456451
0.456514
0.456514
0.456577
0.456639
0.456702
0.456764
0.456764
0.456827
0.45689
0.456953
0.457015
0.457015
0.457078
0.457141
0.457204
0.457267
0.457267
0.45733
0.457393
0.457456
0.457519
0.457519
0.457582
0.457645
0.457708
0.457771
0.457771
0.457834
0.457898
0.457961
0.458024
0.458024
0.458088
0.458151
0.458214
0.458278
0.458278
0.458341
0.458405
0.458468
0.458532
0.458532
0.458595
0.458659
0.458722
0.458786
0.458786
0.45885
0.458914
0.458977
0.459041
0.459041
0.459105
0.459169
0.459233
0.459297
0.459297
0.45936
0.459424
0.459488
0.459552
0.459552
0.459617
0.459681
0.459745
0.459809
0.459809
0.459873
0.459937
0.460002
0.460066
0.460066
0.46013
0.460195
0.460259
0.460323
0.460323
0.460388
0.460452
0.460517
0.460581
0.460581
0.460646
0.46071
0.460775
0.46084
0.46084
0.460904
0.460969
0.461034
0.461099
0.461099
0.461164
0.461228
0.461293
0.461358
0.461358
0.461423
0.461488
0.461553
0.461618
0.461618
0.461683
0.461748
0.461813
0.461879
0.461879
0.461944
0.462009
0.462074
0.46214
0.46214
0.462205
0.46227
0.462336
0.462401
0.462401
0.462466
0.462532
0.462597
0.462663
0.462663
0.462729
0.462794
0.46286
0.462925
0.462925
0.462991
0.463057
0.463123
0.463188
0.463188
0.463254
0.46332
0.463386
0.463452
0.463452
0.463518
0.463584
0.46365
0.463716
0.463716
0.463782
0.463848
0.463914
0.46398
0.46398
0.464047
0.464113
0.464179
0.464245
0.464245
0.464312
0.464378
0.464444
0.464511
0.464511
0.464577
0.464644
0.46471
0.464777
0.464777
0.464843
0.46491
0.464977
0.465043
0.465043
0.46511
0.465177
0.465244
0.46531
0.46531
0.465377
0.465444
0.465511
0.465578
0.465578
0.465645
0.465712
0.465779
0.465846
0.465846
0.465913
0.46598
0.466047
0.466114
0.466114
0.466182
0.466249
0.466316
0.466383
0.466383
0.466451
0.466518
0.466586
0.466653
0.466653
0.46672
0.466788
0.466855
0.466923
0.466923
0.466991
0.467058
0.467126
0.467194
0.467194
0.467261
0.467329
0.467397
0.467465
0.467465
0.467532
0.4676
0.467668
0.467736
0.467736
0.467804
0.467872
0.46794
0.468008
0.468008
0.468076
0.468144
0.468213
0.468281
0.468281
0.468349
0.468417
0.468486
0.468554
0.468554
0.468622
0.468691
0.468759
0.468827
0.468827
0.468896
0.468964
0.469033
0.469102
0.469102
0.46917
0.469239
0.469307
0.469376
0.469376
0.469445
0.469514
0.469582
0.469651
0.469651
0.46972
0.469789
0.469858
0.469927
0.469927
0.469996
0.470065
0.470134
0.470203
0.470203
0.470272
0.470341
0.47041
0.47048
0.47048
0.470549
0.470618
0.470687
0.470757
0.470757
0.470826
0.470896
0.470965
0.471034
0.471034
0.471104
0.471174
0.471243
0.471313
0.471313
0.471382
0.471452
0.471522
0.471591
0.471591
0.471661
0.471731
0.471801
0.471871
0.471871
0.47194
0.47201
0.47208
0.47215
0.47215
0.47222
0.47229
0.47236
0.47243
0.47243
0.472501
0.472571
0.472641
0.472711
0.472711
0.472781
0.472852
0.472922
0.472992
0.472992
0.473063
0.473133
0.473204
0.473274
0.473274
0.473345
0.473415
0.473486
0.473556
0.473556
0.473627
0.473698
0.473768
0.473839
0.473839
0.47391
0.473981
0.474052
0.474122
0.474122
0.474193
0.474264
0.474335
0.474406
0.474406
0.474477
0.474548
0.474619
0.474691
0.474691
0.474762
0.474833
0.474904
0.474975
0.474975
0.475047
0.475118
0.475189
0.475261
0.475261
0.475332
0.475404
0.475475
0.475547
0.475547
0.475618
0.47569
0.475761
0.475833
0.475833
0.475905
0.475976
0.476048
0.47612
0.47612
0.476192
0.476263
0.476335
0.476407
0.476407
0.476479
0.476551
0.476623
0.476695
0.476695
0.476767
0.476839
0.476911
0.476983
0.476983
0.477056
0.477128
0.4772
0.477272
0.477272
0.477345
0.477417
0.477489
0.477562
0.477562
0.477634
0.477707
0.477779
0.477852
0.477852
0.477924
0.477997
0.47807
0.478142
0.478142
0.478215
0.478288
0.47836
0.478433
0.478433
0.478506
0.478579
0.478652
0.478725
0.478725
0.478798
0.478871
0.478944
0.479017
0.479017
0.47909
0.479163
0.479236
0.479309
0.479309
0.479383
0.479456
0.479529
0.479602
0.479602
0.479676
0.479749
0.479823
0.479896
0.479896
0.47997
0.480043
0.480117
0.48019
0.48019
0.480264
0.480337
0.480411
0.480485
0.480485
0.480558
0.480632
0.480706
0.48078
0.48078
0.480854
0.480928
0.481002
0.481076
0.481076
0.48115
0.481224
0.481298
0.481372
0.481372
0.481446
0.48152
0.481594
0.481668
0.481668
0.481743
0.481817
0.481891
0.481966
0.481966
0.48204
0.482114
0.482189
0.482263
0.482263
0.482338
0.482412
0.482487
0.482562
0.482562
0.482636
0.482711
0.482786
0.48286
0.48286
0.482935
0.48301
0.483085
0.48316
0.48316
0.483235
0.48331
0.483385
0.48346
0.48346
0.483535
0.48361
0.483685
0.48376
0.48376
0.483835
0.48391
0.483985
0.484061
0.484061
0.484136
0.484211
0.484287
0.484362
0.484362
0.484438
0.484513
0.484589
0.484664
0.484664
0.48474
0.484815
0.484891
0.484966
0.484966
0.485042
0.485118
0.485194
0.485269
0.485269
0.485345
0.485421
0.485497
0.485573
0.485573
0.485649
0.485725
0.485801
0.485877
0.485877
0.485953
0.486029
0.486105
0.486181
0.486181
0.486258
0.486334
0.48641
0.486486
0.486486
0.486563
0.486639
0.486716
0.486792
0.486792
0.486869
0.486945
0.487022
0.487098
0.487098
0.487175
0.487251
0.487328
0.487405
0.487405
0.487482
0.487558
0.487635
0.487712
0.487712
0.487789
0.487866
0.487943
0.48802
0.48802
0.488097
0.488174
0.488251
0.488328
0.488328
0.488405
0.488482
0.488559
0.488637
0.488637
0.488714
0.488791
0.488868
0.488946
0.488946
0.489023
0.489101
0.489178
0.489256
0.489256
0.489333
0.489411
0.489488
0.489566
0.489566
0.489644
0.489721
0.489799
0.489877
0.489877
0.489955
0.490032
0.49011
0.490188
0.490188
0.490266
0.490344
0.490422
0.4905
0.4905
0.490578
0.490656
0.490734
0.490812
0.490812
0.490891
0.490969
0.491047
0.491125
0.491125
0.491204
0.491282
0.49136
0.491439
0.491439
0.491517
0.491596
0.491674
0.491753
0.491753
0.491831
0.49191
0.491989
0.492067
0.492067
0.492146
0.492225
0.492304
0.492382
0.492382
0.492461
0.49254
0.492619
0.492698
0.492698
0.492777
0.492856
0.492935
0.493014
0.493014
0.493093
0.493173
0.493252
0.493331
0.493331
0.49341
0.493489
0.493569
0.493648
0.493648
0.493727
0.493807
0.493886
0.493966
0.493966
0.494045
0.494125
0.494204
0.494284
0.494284
0.494364
0.494443
0.494523
0.494603
0.494603
0.494683
0.494763
0.494842
0.494922
0.494922
0.495002
0.495082
0.495162
0.495242
0.495242
0.495322
0.495402
0.495482
0.495563
0.495563
0.495643
0.495723
0.495803
0.495883
0.495883
0.495964
0.496044
0.496124
0.496205
0.496205
0.496285
0.496366
0.496446
0.496527
0.496527
0.496608
0.496688
0.496769
0.496849
0.496849
0.49693
0.497011
0.497092
0.497173
0.497173
0.497253
0.497334