<?xml version="1.0"?>
<VTKFile type="UnstructuredGrid" version="0.1" byte_order="LittleEndian">
<UnstructuredGrid>
<Piece NumberOfPoints="5000" NumberOfCells="4000">
<PointData Scalars="Reaction 0">
<DataArray type="Float32" Name="Reaction 0" format="ascii">
0.398691
0.398691
0.398691
0.398691
0.398691
0.398691
0.398692
0.398692
0.398692
0.398692
0.398692
0.398692
0.398693
0.398693
0.398693
0.398693
0.398694
0.398694
0.398695
0.398695
0.398695
0.398695
0.398696
0.398697
0.398697
0.398697
0.398698
0.398698
0.398699
0.3987
0.3987
0.3987
0.398701
0.398702
0.398703
0.398703
0.398704
0.398704
0.398705
0.398706
0.398706
0.398707
0.398708
0.398709
0.39871
0.39871
0.398711
0.398712
0.398714
0.398715
0.398715
0.398716
0.398717
0.398718
0.39872
0.39872
0.398721
0.398722
0.398724
0.398725
0.398725
0.398726
0.398728
0.398729
0.398731
0.398731
0.398732
0.398734
0.398736
0.398737
0.398737
0.398739
0.398741
0.398742
0.398744
0.398744
0.398746
0.398748
0.398749
0.398751
0.398751
0.398753
0.398755
0.398757
0.398759
0.398759
0.398761
0.398763
0.398765
0.398767
0.398767
0.398769
0.398772
0.398774
0.398776
0.398776
0.398778
0.39878
0.398783
0.398785
0.398785
0.398787
0.39879
0.398792
0.398795
0.398795
0.398797
0.3988
0.398802
0.398805
0.398805
0.398807
0.39881
0.398813
0.398815
0.398815
0.398818
0.398821
0.398824
0.398826
0.398826
0.398829
0.398832
0.398835
0.398838
0.398838
0.398841
0.398844
0.398847
0.39885
0.39885
0.398853
0.398856
0.398859
0.398862
0.398862
0.398865
0.398869
0.398872
0.398875
0.398875
0.398878
0.398882
0.398885
0.398889
0.398889
0.398892
0.398895
0.398899
0.398902
0.398902
0.398906
0.398909
0.398913
0.398917
0.398917
0.39892
0.398924
0.398928
0.398931
0.398931
0.398935
0.398939
0.398943
0.398947
0.398947
0.398951
0.398955
0.398958
0.398962
0.398962
0.398966
0.39897
0.398975
0.398979
0.398979
0.398983
0.398987
0.398991
0.398995
0.398995
0.399
0.399004
0.399008
0.399012
0.399012
0.399017
0.399021
0.399026
0.39903
0.39903
0.399035
0.399039
0.399044
0.399048
0.399048
0.399053
0.399057
0.399062
0.399067
0.399067
0.399071
0.399076
0.399081
0.399086
0.399086
0.39909
0.399095
0.3991
0.399105
0.399105
0.39911
0.399115
0.39912
0.399125
0.399125
0.39913
0.399135
0.39914
0.399145
0.399145
0.399151
0.399156
0.399161
0.399166
0.399166
0.399172
0.399177
0.399182
0.399188
0.399188
0.399193
0.399199
0.399204
0.39921
0.39921
0.399215
0.399221
0.399226
0.399232
0.399232
0.399237
0.399243
0.399249
0.399255
0.399255
0.39926
0.399266
0.399272
0.399278
0.399278
0.399284
0.39929
0.399296
0.399302
0.399302
0.399308
0.399314
0.39932
0.399326
0.399326
0.399332
0.399338
0.399344
0.39935
0.39935
0.399357
0.399363
0.399369
0.399375
0.399375
0.399382
0.399388
0.399395
0.399401
0.399401
0.399407
0.399414
0.39942
0.399427
0.399427
0.399434
0.39944
0.399447
0.399454
0.399454
0.39946
0.399467
0.399474
0.399481
0.399481
0.399487
0.399494
0.399501
0.399508
0.399508
0.399515
0.399522
0.399529
0.399536
0.399536
0.399543
0.39955
0.399557
0.399564
0.399564
0.399572
0.399579
0.399586
0.399593
0.399593
0.3996
0.399608
0.399615
0.399623
0.399623
0.39963
0.399637
0.399645
0.399652
0.399652
0.39966
0.399667
0.399675
0.399683
0.399683
0.39969
0.399698
0.399706
0.399713
0.399713
0.399721
0.399729
0.399737
0.399745
0.399745
0.399752
0.39976
0.399768
0.399776
0.399776
0.399784
0.399792
0.3998
0.399808
0.399808
0.399817
0.399825
0.399833
0.399841
0.399841
0.399849
0.399858
0.399866
0.399874
0.399874
0.399882
0.399891
0.399899
0.399908
0.399908
0.399916
0.399925
0.399933
0.399942
0.399942
0.39995
0.399959
0.399968
0.399976
0.399976
0.399985
0.399994
0.400002
0.400011
0.400011
0.40002
0.400029
0.400038
0.400047
0.400047
0.400056
0.400065
0.400073
0.400083
0.400083
0.400092
0.400101
0.40011
0.400119
0.400119
0.400128
0.400137
0.400146
0.400156
0.400156
0.400165
0.400174
0.400184
0.400193
0.400193
0.400202
0.400212
0.400221
0.400231
0.400231
0.40024
0.40025
0.40026
0.400269
0.400269
0.400279
0.400288
0.400298
0.400308
0.400308
0.400318
0.400327
0.400337
0.400347
0.400347
0.400357
0.400367
0.400377
0.400387
0.400387
0.400397
0.400407
0.400417
0.400427
0.400427
0.400437
0.400447
0.400457
0.400467
0.400467
0.400478
0.400488
0.400498
0.400509
0.400509
0.400519
0.400529
0.40054
0.40055
0.40055
0.400561
0.400571
0.400582
0.400592
0.400592
0.400603
0.400613
0.400624
0.400635
0.400635
0.400645
0.400656
0.400667
0.400678
0.400678
0.400688
0.400699
0.40071
0.400721
0.400721
0.400732
0.400743
0.400754
0.400765
0.400765
0.400776
0.400787
0.400798
0.400809
0.400809
0.40082
0.400832
0.400843
0.400854
0.400854
0.400865
0.400877
0.400888
0.400899
0.400899
0.400911
0.400922
0.400934
0.400945
0.400945
0.400957
0.400968
0.40098
0.400991
0.400991
0.401003
0.401015
0.401026
0.401038
0.401038
0.40105
0.401062
0.401073
0.401085
0.401085
0.401097
0.401109
0.401121
0.401133
0.401133
0.401145
0.401157
0.401169
0.401181
0.401181
0.401193
0.401205
0.401217
0.40123
0.40123
0.401242
0.401254
0.401266
0.401279
0.401279
0.401291
0.401303
0.401316
0.401328
0.401328
0.401341
0.401353
0.401366
0.401378
0.401378
0.401391
0.401403
0.401416
0.401429
0.401429
0.401441
0.401454
0.401467
0.40148
0.40148
0.401493
0.401505
0.401518
0.401531
0.401531
0.401544
0.401557
0.40157
0.401583
0.401583
0.401596
0.401609
0.401622
0.401635
0.401635
0.401649
0.401662
0.401675
0.401688
0.401688
0.401702
0.401715
0.401728
0.401742
0.401742
0.401755
0.401768
0.401782
0.401795
0.401795
0.401809
0.401822
0.401836
0.40185
0.40185
0.401863
0.401877
0.401891
0.401904
0.401904
0.401918
0.401932
0.401946
0.401959
0.401959
0.401973
0.401987
0.402001
0.402015
0.402015
0.402029
0.402043
0.402057
0.402071
0.402071
0.402085
0.402099
0.402114
0.402128
0.402128
0.402142
0.402156
0.402171
0.402185
0.402185
0.402199
0.402214
0.402228
0.402242
0.402242
0.402257
0.402271
0.402286
0.4023
0.4023
0.402315
0.40233
0.402344
0.402359
0.402359
0.402374
0.402388
0.402403
0.402418
0.402418
0.402433
0.402448
0.402462
0.402477
0.402477
0.402492
0.402507
0.402522
0.402537
0.402537
0.402552
0.402567
0.402582
0.402598
0.402598
0.402613
0.402628
0.402643
0.402658
0.402658
0.402674
0.402689
0.402704
0.40272
0.40272
0.402735
0.40275
0.402766
0.402781
0.402781
0.402797
0.402813
0.402828
0.402844
0.402844
0.402859
0.402875
0.402891
0.402906
0.402906
0.402922
0.402938
0.402954
0.40297
0.40297
0.402985
0.403001
0.403017
0.403033
0.403033
0.403049
0.403065
0.403081
0.403097
0.403097
0.403113
0.40313
0.403146
0.403162
0.403162
0.403178
0.403194
0.403211
0.403227
0.403227
0.403243
0.40326
0.403276
0.403293
0.403293
0.403309
0.403326
0.403342
0.403359
0.403359
0.403375
0.403392
0.403408
0.403425
0.403425
0.403442
0.403458
0.403475
0.403492
0.403492
0.403509
0.403526
0.403543
0.403559
0.403559
0.403576
0.403593
0.40361
0.403627
0.403627
0.403644
0.403661
0.403679
0.403696
0.403696
0.403713
0.40373
0.403747
0.403765
0.403765
0.403782
0.403799
0.403816
0.403834
0.403834
0.403851
0.403869
0.403886
0.403904
0.403904
0.403921
0.403939
0.403956
0.403974
0.403974
0.403992
0.404009
0.404027
0.404045
0.404045
0.404062
0.40408
0.404098
0.404116
0.404116
0.404134
0.404152
0.40417
0.404187
0.404187
0.404205
0.404223
0.404242
0.40426
0.40426
0.404278
0.404296
0.404314
0.404332
0.404332
0.40435
0.404369
0.404387
0.404405
0.404405
0.404424
0.404442
0.40446
0.404479
0.404479
0.404497
0.404516
0.404534
0.404553
0.404553
0.404571
0.40459
0.404609
0.404627
0.404627
0.404646
0.404665
0.404684
0.404702
0.404702
0.404721
0.40474
0.404759
0.404778
0.404778
0.404797
0.404816
0.404835
0.404854
0.404854
0.404873
0.404892
0.404911
0.40493
0.40493
0.404949
0.404968
0.404988
0.405007
0.405007
0.405026
0.405046
0.405065
0.405084
0.405084
0.405104
0.405123
0.405143
0.405162
0.405162
0.405182
0.405201
0.405221
0.40524
0.40524
0.40526
0.40528
0.405299
0.405319
0.405319
0.405339
0.405359
0.405378
0.405398
0.405398
0.405418
0.405438
0.405458
0.405478
0.405478
0.405498
0.405518
0.405538
0.405558
0.405558
0.405578
0.405598
0.405619
0.405639
0.405639
0.405659
0.405679
0.4057
0.40572
0.40572
0.40574
0.405761
0.405781
0.405801
0.405801
0.405822
0.405842
0.405863
0.405883
0.405883
0.405904
0.405925
0.405945
0.405966
0.405966
0.405987
0.406007
0.406028
0.406049
0.406049
0.40607
0.406091
0.406112
0.406132
0.406132
0.406153
0.406174
0.406195
0.406216
0.406216
0.406237
0.406259
0.40628
0.406301
0.406301
0.406322
0.406343
0.406364
0.406386
0.406386
0.406407
0.406428
0.40645
0.406471
0.406471
0.406492
0.406514
0.406535
0.406557
0.406557
0.406578
0.4066
0.406622
0.406643
0.406643
0.406665
0.406686
0.406708
0.40673
0.40673
0.406752
0.406773
0.406795
0.406817
0.406817
0.406839
0.406861
0.406883
0.406905
0.406905
0.406927
0.406949
0.406971
0.406993
0.406993
0.407015
0.407037
0.40706
0.407082
0.407082
0.407104
0.407126
0.407149
0.407171
0.407171
0.407193
0.407216
0.407238
0.40726
0.40726
0.407283
0.407305
0.407328
0.407351
0.407351
0.407373
0.407396
0.407418
0.407441
0.407441
0.407464
0.407487
0.407509
0.407532
0.407532
0.407555
0.407578
0.407601
0.407624
0.407624
0.407647
0.40767
0.407693
0.407716
0.407716
0.407739
0.407762
0.407785
0.407808
0.407808
0.407831
0.407854
0.407878
0.407901
0.407901
0.407924
0.407948
0.407971
0.407994
0.407994
0.408018
0.408041
0.408065
0.408088
0.408088
0.408112
0.408135
0.408159
0.408183
0.408183
0.408206
0.40823
0.408254
0.408277
0.408277
0.408301
0.408325
0.408349
0.408373
0.408373
0.408397
0.40842
0.408444
0.408468
0.408468
0.408492
0.408516
0.408541
0.408565
0.408565
0.408589
0.408613
0.408637
0.408661
0.408661
0.408686
0.40871
0.408734
0.408758
0.408758
0.408783
0.408807
0.408832
0.408856
0.408856
0.408881
0.408905
0.40893
0.408954
0.408954
0.408979
0.409004
0.409028
0.409053
0.409053
0.409078
0.409102
0.409127
0.409152
0.409152
0.409177
0.409202
0.409227
0.409251
0.409251
0.409276
0.409301
0.409326
0.409351
0.409351
0.409377
0.409402
0.409427
0.409452
0.409452
0.409477
0.409502
0.409528
0.409553
0.409553
0.409578
0.409604
0.409629
0.409654
0.409654
0.40968
0.409705
0.409731
0.409756
0.409756
0.409782
0.409807
0.409833
0.409859
0.409859
0.409884
0.40991
0.409936
0.409962
0.409962
0.409987
0.410013
0.410039
0.410065
0.410065
0.410091
0.410117
0.410143
0.410169
0.410169
0.410195
0.410221
0.410247
0.410273
0.410273
0.410299
0.410325
0.410351
0.410378
0.410378
0.410404
0.41043
0.410457
0.410483
0.410483
0.410509
0.410536
0.410562
0.410589
0.410589
0.410615
0.410642
0.410668
0.410695
0.410695
0.410721
0.410748
0.410775
0.410802
0.410802
0.410828
0.410855
0.410882
0.410909
0.410909
0.410935
0.410962
0.410989
0.411016
0.411016
0.411043
0.41107
0.411097
0.411124
0.411124
0.411151
0.411179
0.411206
0.411233
0.411233
0.41126
0.411287
0.411315
0.411342
0.411342
0.411369
0.411397
0.411424
0.411451
0.411451
0.411479
0.411506
0.411534
0.411561
0.411561
0.411589
0.411617
0.411644
0.411672
0.411672
0.4117
0.411727
0.411755
0.411783
0.411783
0.411811
0.411838
0.411866
0.411894
0.411894
0.411922
0.41195
0.411978
0.412006
0.412006
0.412034
0.412062
0.41209
0.412118
0.412118
0.412147
0.412175
0.412203
0.412231
0.412231
0.41226
0.412288
0.412316
0.412345
0.412345
0.412373
0.412401
0.41243
0.412458
0.412458
0.412487
0.412515
0.412544
0.412573
0.412573
0.412601
0.41263
0.412659
0.412687
0.412687
0.412716
0.412745
0.412774
0.412802
0.412802
0.412831
0.41286
0.412889
0.412918
0.412918
0.412947
0.412976
0.413005
0.413034
0.413034
0.413063
0.413093
0.413122
0.413151
0.413151
0.41318
0.413209
0.413239
0.413268
0.413268
0.413297
0.413327
0.413356
0.413386
0.413386
0.413415
0.413445
0.413474
0.413504
0.413504
0.413533
0.413563
0.413593
0.413622
0.413622
0.413652
0.413682
0.413711
0.413741
0.413741
0.413771
0.413801
0.413831
0.413861
0.413861
0.413891
0.413921
0.413951
0.413981
0.413981
0.414011
0.414041
0.414071
0.414101
0.414101
0.414131
0.414162
0.414192
0.414222
0.414222
0.414252
0.414283
0.414313
0.414343
0.414343
0.414374
0.414404
0.414435
0.414465
0.414465
0.414496
0.414526
0.414557
0.414588
0.414588
0.414618
0.414649
0.41468
0.41471
0.41471
0.414741
0.414772
0.414803
0.414834
0.414834
0.414865
0.414896
0.414927
0.414958
0.414958
0.414989
0.41502
0.415051
0.415082
0.415082
0.415113
0.415144
0.415175
0.415207
0.415207
0.415238
0.415269
0.4153
0.415332
0.415332
0.415363
0.415394
0.415426
0.415457
0.415457
0.415489
0.41552
0.415552
0.415584
0.415584
0.415615
0.415647
0.415678
0.41571
0.41571
0.415742
0.415774
0.415805
0.415837
0.415837
0.415869
0.415901
0.415933
0.415965
0.415965
0.415997
0.416029
0.416061
0.416093
0.416093
0.416125
0.416157
0.416189
0.416221
0.416221
0.416254
0.416286
0.416318
0.416351
0.416351
0.416383
0.416415
0.416448
0.41648
0.41648
0.416512
0.416545
0.416577
0.41661
0.41661
0.416643
0.416675
0.416708
0.41674
0.41674
0.416773
0.416806
0.416839
0.416871
0.416871
0.416904
0.416937
0.41697
0.417003
0.417003
0.417036
0.417069
0.417102
0.417135
0.417135
0.417168
0.417201
0.417234
0.417267
0.417267
0.4173
0.417333
0.417367
0.4174
0.4174
0.417433
0.417466
0.4175
0.417533
0.417533
0.417567
0.4176
0.417633
0.417667
0.417667
0.4177
0.417734
0.417768
0.417801
0.417801
0.417835
0.417869
0.417902
0.417936
0.417936
0.41797
0.418004
0.418037
0.418071
0.418071
0.418105
0.418139
0.418173
0.418207
0.418207
0.418241
0.418275
0.418309
0.418343
0.418343
0.418377
0.418411
0.418446
0.41848
0.41848
0.418514
0.418548
0.418583
0.418617
0.418617
0.418651
0.418686
0.41872
0.418755
0.418755
0.418789
0.418824
0.418858
0.418893
0.418893
0.418927
0.418962
0.418997
0.419031
0.419031
0.419066
0.419101
0.419135
0.41917
0.41917
0.419205
0.41924
0.419275
0.41931
0.41931
0.419345
0.41938
0.419415
0.41945
0.41945
0.419485
0.41952
0.419555
0.41959
0.41959
0.419626
0.419661
0.419696
0.419731
0.419731
0.419767
0.419802
0.419837
0.419873
0.419873
0.419908
0.419944
0.419979
0.420015
0.420015
0.42005
0.420086
0.420121
0.420157
0.420157
0.420193
0.420228
0.420264
0.4203
0.4203
0.420336
0.420372
0.420407
0.420443
0.420443
0.420479
0.420515
0.420551
0.420587
0.420587
0.420623
0.420659
0.420695
0.420732
0.420732
0.420768
0.420804
0.42084
0.420876
0.420876
0.420913
0.420949
0.420985
0.421022
0.421022
0.421058
0.421094
0.421131
0.421167
0.421167
0.421204
0.42124
0.421277
0.421314
0.421314
0.42135
0.421387
0.421424
0.42146
0.42146
0.421497
0.421534
0.421571
0.421608
0.421608
0.421644
0.421681
0.421718
0.421755
0.421755
0.421792
0.421829
0.421866
0.421903
0.421903
0.421941
0.421978
0.422015
0.422052
0.422052
0.422089
0.422127
0.422164
0.422201
0.422201
0.422239
0.422276
0.422313
0.422351
0.422351
0.422388
0.422426
0.422463
0.422501
0.422501
0.422539
0.422576
0.422614
0.422652
0.422652
0.422689
0.422727
0.422765
0.422803
0.422803
0.42284
0.422878
0.422916
0.422954
0.422954
0.422992
0.42303
0.423068
0.423106
0.423106
0.423144
0.423182
0.42322
0.423259
0.423259
0.423297
0.423335
0.423373
0.423412
0.423412
0.42345
0.423488
0.423527
0.423565
0.423565
0.423604
0.423642
0.423681
0.423719
0.423719
0.423758
0.423796
0.423835
0.423873
0.423873
0.423912
0.423951
0.42399
0.424028
0.424028
0.424067
0.424106
0.424145
0.424184
0.424184
0.424223
0.424262
0.424301
0.42434
0.42434
0.424379
0.424418
0.424457
0.424496
0.424496
0.424535
0.424574
0.424614
0.424653
0.424653
0.424692
0.424731
0.424771
0.42481
0.42481
0.42485
0.424889
0.424928
0.424968
0.424968
0.425007
0.425047
0.425087
0.425126
0.425126
0.425166
0.425206
0.425245
0.425285
0.425285
0.425325
0.425365
0.425404
0.425444
0.425444
0.425484
0.425524
0.425564
0.425604
0.425604
0.425644
0.425684
0.425724
0.425764
0.425764
0.425804
0.425844
0.425885
0.425925
0.425925
0.425965
0.426005
0.426046
0.426086
0.426086
0.426126
0.426167
0.426207
0.426248
0.426248
0.426288
0.426329
0.426369
0.42641
0.42641
0.42645
0.426491
0.426532
0.426572
0.426572
0.426613
0.426654
0.426695
0.426736
0.426736
0.426776
0.426817
0.426858
0.426899
0.426899
0.42694
0.426981
0.427022
0.427063
0.427063
0.427104
0.427145
0.427187
0.427228
0.427228
0.427269
0.42731
0.427352
0.427393
0.427393
0.427434
0.427476
0.427517
0.427558
0.427558
0.4276
0.427641
0.427683
0.427724
0.427724
0.427766
0.427808
0.427849
0.427891
0.427891
0.427933
0.427974
0.428016
0.428058
0.428058
0.4281
0.428142
0.428183
0.428225
0.428225
0.428267
0.428309
0.428351
0.428393
0.428393
0.428435
0.428477
0.42852
0.428562
0.428562
0.428604
0.428646
0.428688
0.428731
0.428731
0.428773
0.428815
0.428858
0.4289
0.4289
0.428942
0.428985
0.429027
0.42907
0.42907
0.429112
0.429155
0.429198
0.42924
0.42924
0.429283
0.429326
0.429368
0.429411
0.429411
0.429454
0.429497
0.42954
0.429583
0.429583
0.429625
0.429668
0.429711
0.429754
0.429754
0.429797
0.42984
0.429884
0.429927
0.429927
0.42997
0.430013
0.430056
0.430099
0.430099
0.430143
0.430186
0.430229
0.430273
0.430273
0.430316
0.43036
0.430403
0.430446
0.430446
0.43049
0.430534
0.430577
0.430621
0.430621
0.430664
0.430708
0.430752
0.430795
0.430795
0.430839
0.430883
0.430927
0.430971
0.430971
0.431015
0.431059
0.431102
0.431146
0.431146
0.43119
0.431234
0.431279
0.431323
0.431323
0.431367
0.431411
0.431455
0.431499
0.431499
0.431544
0.431588
0.431632
0.431677
0.431677
0.431721
0.431765
0.43181
0.431854
0.431854
0.431899
0.431943
0.431988
0.432032
0.432032
0.432077
0.432122
0.432166
0.432211
0.432211
0.432256
0.4323
0.432345
0.43239
0.43239
0.432435
0.43248
0.432525
0.43257
0.43257
0.432615
0.43266
0.432705
0.43275
0.43275
0.432795
0.43284
0.432885
0.43293
0.43293
0.432976
0.433021
0.433066
0.433111
0.433111
0.433157
0.433202
0.433248
0.433293
0.433293
0.433338
0.433384
0.433429
0.433475
0.433475
0.433521
0.433566
0.433612
0.433658
0.433658
0.433703
0.433749
0.433795
0.433841
0.433841
0.433886
0.433932
0.433978
0.434024
0.434024
0.43407
0.434116
0.434162
0.434208
0.434208
0.434254
0.4343
0.434346
0.434393
0.434393
0.434439
0.434485
0.434531
0.434578
0.434578
0.434624
0.43467
0.434717
0.434763
0.434763
0.434809
0.434856
0.434902
0.434949
0.434949
0.434996
0.435042
0.435089
0.435135
0.435135
0.435182
0.435229
0.435276
0.435322
0.435322
0.435369
0.435416
0.435463
0.43551
0.43551
0.435557
0.435604
0.435651
0.435698
0.435698
0.435745
0.435792
0.435839
0.435886
0.435886
0.435933
0.43598
0.436028
0.436075
0.436075
0.436122
0.43617
0.436217
0.436264
0.436264
0.436312
0.436359
0.436407
0.436454
0.436454
0.436502
0.436549
0.436597
0.436645
0.436645
0.436692
0.43674
0.436788
0.436835
0.436835
0.436883
0.436931
0.436979
0.437027
0.437027
0.437075
0.437123
0.437171
0.437219
0.437219
0.437267
0.437315
0.437363
0.437411
0.437411
0.437459
0.437507
0.437555
0.437604
0.437604
0.437652
0.4377
0.437749
0.437797
0.437797
0.437845
0.437894
0.437942
0.437991
0.437991
0.438039
0.438088
0.438137
0.438185
0.438185
0.438234
0.438282
0.438331
0.43838
0.43838
0.438429
0.438477
0.438526
0.438575
0.438575
0.438624
0.438673
0.438722
0.438771
0.438771
0.43882
0.438869
0.438918
0.438967
0.438967
0.439016
0.439065
0.439115
0.439164
0.439164
0.439213
0.439262
0.439312
0.439361
0.439361
0.439411
0.43946
0.439509
0.439559
0.439559
0.439608
0.439658
0.439708
0.439757
0.439757
0.439807
0.439856
0.439906
0.439956
0.439956
0.440006
0.440055
0.440105
0.440155
0.440155
0.440205
0.440255
0.440305
0.440355
0.440355
0.440405
0.440455
0.440505
0.440555
0.440555
0.440605
0.440655
0.440705
0.440756
0.440756
0.440806
0.440856
0.440906
0.440957
0.440957
0.441007
0.441058
0.441108
0.441158
0.441158
0.441209
0.441259
0.44131
0.441361
0.441361
0.441411
0.441462
0.441513
0.441563
0.441563
0.441614
0.441665
0.441716
0.441766
0.441766
0.441817
0.441868
0.441919
0.44197
0.44197
0.442021
0.442072
0.442123
0.442174
0.442174
0.442225
0.442276
0.442328
0.442379
0.442379
0.44243
0.442481
0.442533
0.442584
0.442584
0.442635
0.442687
0.442738
0.44279
0.44279
0.442841
0.442893
0.442944
0.442996
0.442996
0.443047
0.443099
0.443151
0.443202
0.443202
0.443254
0.443306
0.443358
0.443409
0.443409
0.443461
0.443513
0.443565
0.443617
0.443617
0.443669
0.443721
0.443773
0.443825
0.443825
0.443877
0.443929
0.443982
0.444034
0.444034
0.444086
0.444138
0.44419
0.444243
0.444243
0.444295
0.444348
0.4444
0.444452
0.444452
0.444505
0.444557
0.44461
0.444662
0.444662
0.444715
0.444768
0.44482
0.444873
0.444873
0.444926
0.444979
0.445031
0.445084
0.445084
0.445137
0.44519
0.445243
0.445296
0.445296
0.445349
0.445402
0.445455
0.445508
0.445508
0.445561
0.445614
0.445667
0.44572
0.44572
0.445774
0.445827
0.44588
0.445933
0.445933
0.445987
0.44604
0.446094
0.446147
0.446147
0.4462
0.446254
0.446307
0.446361
0.446361
0.446415
0.446468
0.446522
0.446576
0.446576
0.446629
0.446683
0.446737
0.446791
0.446791
0.446844
0.446898
0.446952
0.447006
0.447006
0.44706
0.447114
0.447168
0.447222
0.447222
0.447276
0.44733
0.447385
0.447439
0.447439
0.447493
0.447547
0.447602
0.447656
0.447656
0.44771
0.447765
0.447819
0.447873
0.447873
0.447928
0.447982
0.448037
0.448091
0.448091
0.448146
0.448201
0.448255
0.44831
0.44831
0.448365
0.448419
0.448474
0.448529
0.448529
0.448584
0.448639
0.448694
0.448749
0.448749
0.448803
0.448858
0.448914
0.448969
0.448969
0.449024
0.449079
0.449134
0.449189
0.449189
0.449244
0.4493
0.449355
0.44941
0.44941
0.449465
0.449521
0.449576
0.449632
0.449632
0.449687
0.449743
0.449798
0.449854
0.449854
0.449909
0.449965
0.450021
0.450076
0.450076
0.450132
0.450188
0.450244
0.450299
0.450299
0.450355
0.450411
0.450467
0.450523
0.450523
0.450579
0.450635
0.450691
0.450747
0.450747
0.450803
0.450859
0.450915
0.450971
0.450971
0.451028
0.451084
0.45114
0.451196
0.451196
0.451253
0.451309
0.451366
0.451422
0.451422
0.451479
0.451535
0.451592
0.451648
0.451648
0.451705
0.451761
0.451818
0.451875
0.451875
0.451931
0.451988
0.452045
0.452102
0.452102
0.452159
0.452215
0.452272
0.452329
0.452329
0.452386
0.452443
0.4525
0.452557
0.452557
0.452614
0.452672
0.452729
0.452786
0.452786
0.452843
0.4529
0.452958
0.453015
0.453015
0.453072
0.45313
0.453187
0.453245
0.453245
0.453302
0.453359
0.453417
0.453475
0.453475
0.453532
0.45359
0.453647
0.453705
0.453705
0.453763
0.453821
0.453878
0.453936
0.453936
0.453994
0.454052
0.45411
0.454168
0.454168
0.454226
0.454284
0.454342
0.4544
0.4544
0.454458
0.454516
0.454574
0.454633
0.454633
0.454691
0.454749
0.454807
0.454866
0.454866
0.454924
0.454982
0.455041
0.455099
0.455099
0.455158
0.455216
0.455275
0.455333
0.455333
0.455392
0.455451
0.455509
0.455568
0.455568
0.455627
0.455685
0.455744
0.455803
0.455803
0.455862
0.455921
0.45598
0.456039
0.456039
0.456098
0.456157
0.456216
0.456275
0.456275
0.456334
0.456393
0.456452
0.456511
0.456511
0.456571
0.45663
0.456689
0.456749
0.456749
0.456808
0.456867
0.456927
0.456986
0.456986
0.457046
0.457105
0.457165
0.457224
0.457224
0.457284
0.457344
0.457403
0.457463
0.457463
0.457523
0.457583
0.457642
0.457702
0.457702
0.457762
0.457822
0.457882
0.457942
0.457942
0.458002
0.458062
0.458122
0.458182
0.458182
0.458242
0.458302
0.458363
0.458423
0.458423
0.458483
0.458543
0.458604
0.458664
0.458664
0.458724
0.458785
0.458845
0.458906
0.458906
0.458966
0.459027
0.459087
0.459148
0.459148
0.459209
0.459269
0.45933
0.459391
0.459391
0.459451
0.459512
0.459573
0.459634
0.459634
0.459695
0.459756
0.459817
0.459878
0.459878
0.459939
0.46
0.460061
0.460122
0.460122
0.460183
0.460244
0.460305
0.460367
0.460367
0.460428
0.460489
0.460551
0.460612
0.460612
0.460673
0.460735
0.460796
0.460858
0.460858
0.460919
0.460981
0.461042
0.461104
0.461104
0.461166
0.461227
0.461289
0.461351
0.461351
0.461413
0.461474
0.461536
0.461598
0.461598
0.46166
0.461722
0.461784
0.461846
0.461846
0.461908
0.46197
0.462032
0.462094
0.462094
0.462156
0.462219
0.462281
0.462343
0.462343
0.462405
0.462468
0.46253
0.462593
0.462593
0.462655
0.462717
0.46278
0.462842
0.462842
0.462905
0.462968
0.46303
0.463093
0.463093
0.463155
0.463218
0.463281
0.463344
0.463344
0.463406
0.463469
0.463532
0.463595
0.463595
0.463658
0.463721
0.463784
0.463847
0.463847
0.46391
0.463973
0.464036
0.464099
0.464099
0.464163
0.464226
0.464289
0.464352
0.464352
0.464416
0.464479
0.464542
0.464606
0.464606
0.464669
0.464733
0.464796
0.46486
0.46486
0.464923
0.464987
0.465051
0.465114
0.465114
0.465178
0.465242
0.465306
0.465369
0.465369
0.465433
0.465497
0.465561
0.465625
0.465625
0.465689
0.465753
0.465817
0.465881
0.465881
0.465945
0.466009
0.466073
0.466137
0.466137
0.466202
0.466266
0.46633
0.466395
0.466395
0.466459
0.466523
0.466588
0.466652
0.466652
0.466717
0.466781
0.466846
0.46691
0.46691
0.466975
0.467039
0.467104
0.467169
0.467169
0.467234
0.467298
0.467363
0.467428
0.467428
0.467493
0.467558
0.467623
0.467688
0.467688
0.467753
0.467818
0.467883
0.467948
0.467948
0.468013
0.468078
0.468143
0.468208
0.468208
0.468274
0.468339
0.468404
0.46847
0.46847
0.468535
0.4686
0.468666
0.468731
0.468731
0.468797
0.468862
0.468928
0.468994
0.468994
0.469059
0.469125
0.469191
0.469256
0.469256
0.469322
0.469388
0.469454
0.46952
0.46952
0.469586
0.469652
0.469717
0.469783
0.469783
0.46985
0.469916
0.469982
0.470048
0.470048
0.470114
0.47018
0.470246
0.470313
0.470313
0.470379
0.470445
0.470512
0.470578
0.470578
0.470644
0.470711
0.470777
0.470844
0.470844
0.47091
0.470977
0.471044
0.47111
0.47111
0.471177
0.471244
0.47131
0.471377
0.471377
0.471444
0.471511
0.471578
0.471645
0.471645
0.471712
0.471779
0.471846
0.471913
0.471913
0.47198
0.472047
0.472114
0.472181
0.472181
0.472248
0.472315
0.472383
0.47245
0.47245
0.472517
0.472585
0.472652
0.47272
0.47272
0.472787
0.472855
0.472922
0.47299
0.47299
0.473057
0.473125
0.473192
0.47326
0.47326
0.473328
0.473396
0.473463
0.473531
0.473531
0.473599
0.473667
0.473735
0.473803
0.473803
0.473871
0.473939
0.474007
0.474075
0.474075
0.474143
0.474211
0.474279
0.474348
0.474348
0.474416
0.474484
0.474552
0.474621
0.474621
0.474689
0.474758
0.474826
0.474895
0.474895
0.474963
0.475032
0.4751
0.475169
0.475169
0.475237
0.475306
0.475375
0.475444
0.475444
0.475512
0.475581
0.47565
0.475719
0.475719
0.475788
0.475857
0.475926
0.475995
0.475995
0.476064
0.476133
0.476202
0.476271
0.476271
0.47634
0.476409
0.476479
0.476548
0.476548
0.476617
0.476686
0.476756
0.476825
0.476825
0.476895
0.476964
0.477034
0.477103
0.477103
0.477173
0.477242
0.477312
0.477382
0.477382
0.477451
0.477521
0.477591
0.477661
0.477661
0.47773
0.4778
0.47787
0.47794
0.47794
0.47801
0.47808
0.47815
0.47822
0.47822
0.47829
0.47836
0.47843
0.478501
0.478501
0.478571
0.478641
0.478711
0.478782
0.478782
0.478852
0.478922
0.478993
0.479063
0.479063
0.479134
0.479204
0.479275
0.479345
0.479345
0.479416
0.479487
0.479557
0.479628
0.479628
0.479699
0.47977
0.47984
0.479911
0.479911
0.479982
0.480053
0.480124
0.480195
0.480195
0.480266
0.480337
0.480408
0.480479
0.480479
0.48055
0.480622
0.480693
0.480764
0.480764
0.480835
0.480907
0.480978
0.481049
0.481049
0.481121
0.481192
0.481264
0.481335
0.481335
0.481407
0.481478
0.48155
0.481622
0.481622
0.481693
0.481765
0.481837
0.481908
0.481908
0.48198
0.482052
0.482124
0.482196
0.482196
0.482268
0.48234
0.482412
0.482484
0.482484
0.482556
0.482628
0.4827
0.482772
0.482772
0.482845
0.482917
0.482989
0.483061
0.483061
0.483134
0.483206
0.483279
0.483351
0.483351
0.483424
0.483496
0.483569
0.483641
0.483641
0.483714
0.483786
0.483859
0.483932
0.483932
0.484005
0.484077
0.48415
0.484223
0.484223
0.484296
0.484369
0.484442
0.484515
0.484515
0.484588
0.484661
0.484734
0.484807
0.484807
0.48488
0.484953
0.485026
0.4851
0.4851
0.485173
0.485246
0.48532
0.485393
0.485393
0.485466
0.48554
0.485613
0.485687
0.485687
0.48576
0.485834
0.485908
0.485981
0.485981
0.486055
0.486129
0.486202
0.486276
0.486276
0.48635
0.486424
0.486498
0.486572
0.486572
0.486646
0.48672
0.486794
0.486868
0.486868
0.486942
0.487016
0.48709
0.487164
0.487164
0.487238
0.487313
0.487387
0.487461
0.487461
0.487536
0.48761
0.487684
0.487759
0.487759
0.487833
0.487908
0.487982
0.488057
0.488057
0.488132
0.488206
0.488281
0.488356
0.488356
0.488431
0.488505
0.48858
0.488655
0.488655
0.48873
0.488805
0.48888
0.488955
0.488955
0.48903
0.489105
0.48918
0.489255
0.489255
0.48933
0.489405
0.489481
0.489556
0.489556
0.489631
0.489707
0.489782
0.489857
0.489857
0.489933
0.490008
0.490084
0.490159
0.490159
0.490235
0.490311
0.490386
0.490462
0.490462
0.490538
0.490613
0.490689
0.490765
0.490765
0.490841
0.490917
0.490992
0.491068
0.491068
0.491144
0.49122
0.491296
0.491373
0.491373
0.491449
0.491525
0.491601
0.491677
0.491677
0.491753
0.49183
0.491906
0.491982
0.491982
0.492059
0.492135
0.492212
0.492288
0.492288
0.492365
0.492441
0.492518
0.492594
0.492594
0.492671
0.492748
0.492824
0.492901
0.492901
0.492978
0.493055
0.493132
0.493209
0.493209
0.493286
0.493363
0.49344
0.493517
0.493517
0.493594
0.493671
0.493748
0.493825
0.493825
0.493902
0.493979
0.494057
0.494134
0.494134
0.494211
0.494289
0.494366
0.494444
0.494444
0.494521
0.494599
0.494676
0.494754
0.494754
0.494831
0.494909
0.494987
0.495064
0.495064
0.495142
0.49522
0.495298
0.495376
0.495376
0.495453
0.495531
0.495609
0.495687
0.495687
0.495765
0.495843
0.495922
0.496
0.496
0.496078
0.496156
0.496234
0.496312
0.496312
0.496391
0.496469
0.496547
0.496626
0.496626
0.496704
0.496783
0.496861
0.49694
0.49694
0.497018
0.497097
0.497176
0.497254
0.497254
0.497333
0.497412
0.497491
0.497569
0.497569
0.497648
0.497727
0.497806
0.497885
0.497885
0.497964
0.498043
0.498122
0.498201
0.498201
0.49828
0.498359
0.498439
0.498518
0.498518
0.498597
0.498676
0.498756
0.498835
0.498835
0.498915
0.498994
0.499073
0.499153
0.499153
0.499232
0.499312
0.499392
0.499471
0.499471
0.499551
0.499631
0.49971
0.49979
0.49979
0.49987
0.49995
0.50003
0.50011
0.50011
0.50019
0.50027
0.50035
0.50043
0.50043
0.50051
0.50059
0.50067
0.50075
0.50075
0.500831
0.500911
0.500991
0.501071
0.501071
0.501152
0.501232
0.501313
0.501393
0.501393
0.501474
0.501554
0.501635
0.501715
0.501715
0.501796
0.501877
0.501957
0.502038
0.502038
0.502119
0.5022
0.502281
0.502362
0.502362
0.502442
0.502523
0.502604
0.502685
0.502685
0.502767
0.502848
0.502929
0.50301
0.50301
0.503091
0.503172
0.503254
0.503335
0.503335
0.503416
0.503498
0.503579
0.503661
0.503661
0.503742
0.503824
0.503905
0.503987
0.503987
0.504068
0.50415
0.504232
0.504313
0.504313
0.504395
0.504477
0.504559
0.504641
0.504641
0.504723
0.504805
0.504887
0.504969
0.504969
0.505051
0.505133
0.505215
0.505297
0.505297
0.505379
0.505461
0.505544
0.505626
0.505626
0.505708
0.505791
0.505873
0.505955
0.505955
0.506038
0.50612
0.506203