<?xml version="1.0"?>
<VTKFile type="UnstructuredGrid" version="0.1" byte_order="LittleEndian">
<UnstructuredGrid>
<Piece NumberOfPoints="5000" NumberOfCells="4000">
<PointData Scalars="Reaction 0">
<DataArray type="Float32" Name="Reaction 0" format="ascii">
0.597619
0.597619
0.597619
0.597619
0.59762
0.59762
0.59762
0.59762
0.59762
0.59762
0.59762
0.597621
0.597621
0.597621
0.597622
0.597622
0.597622
0.597622
0.597623
0.597623
0.597623
0.597624
0.597624
0.597625
0.597626
0.597626
0.597626
0.597627
0.597628
0.597628
0.597628
0.597629
0.59763
0.597631
0.597632
0.597632
0.597633
0.597634
0.597635
0.597636
0.597636
0.597637
0.597638
0.597639
0.59764
0.59764
0.597641
0.597642
0.597643
0.597645
0.597645
0.597646
0.597647
0.597649
0.59765
0.59765
0.597651
0.597653
0.597654
0.597656
0.597656
0.597657
0.597659
0.597661
0.597662
0.597662
0.597664
0.597666
0.597667
0.597669
0.597669
0.597671
0.597673
0.597675
0.597676
0.597676
0.597678
0.59768
0.597682
0.597684
0.597684
0.597686
0.597688
0.597691
0.597693
0.597693
0.597695
0.597697
0.597699
0.597702
0.597702
0.597704
0.597706
0.597709
0.597711
0.597711
0.597713
0.597716
0.597718
0.597721
0.597721
0.597723
0.597726
0.597729
0.597731
0.597731
0.597734
0.597737
0.597739
0.597742
0.597742
0.597745
0.597748
0.597751
0.597754
0.597754
0.597757
0.59776
0.597763
0.597766
0.597766
0.597769
0.597772
0.597775
0.597778
0.597778
0.597781
0.597784
0.597788
0.597791
0.597791
0.597794
0.597798
0.597801
0.597804
0.597804
0.597808
0.597811
0.597815
0.597818
0.597818
0.597822
0.597825
0.597829
0.597833
0.597833
0.597836
0.59784
0.597844
0.597848
0.597848
0.597852
0.597855
0.597859
0.597863
0.597863
0.597867
0.597871
0.597875
0.597879
0.597879
0.597883
0.597888
0.597892
0.597896
0.597896
0.5979
0.597904
0.597909
0.597913
0.597913
0.597917
0.597922
0.597926
0.597931
0.597931
0.597935
0.59794
0.597944
0.597949
0.597949
0.597953
0.597958
0.597963
0.597967
0.597967
0.597972
0.597977
0.597982
0.597986
0.597986
0.597991
0.597996
0.598001
0.598006
0.598006
0.598011
0.598016
0.598021
0.598026
0.598026
0.598031
0.598036
0.598042
0.598047
0.598047
0.598052
0.598057
0.598063
0.598068
0.598068
0.598073
0.598079
0.598084
0.59809
0.59809
0.598095
0.598101
0.598106
0.598112
0.598112
0.598117
0.598123
0.598129
0.598134
0.598134
0.59814
0.598146
0.598152
0.598158
0.598158
0.598163
0.598169
0.598175
0.598181
0.598181
0.598187
0.598193
0.598199
0.598206
0.598206
0.598212
0.598218
0.598224
0.59823
0.59823
0.598237
0.598243
0.598249
0.598256
0.598256
0.598262
0.598268
0.598275
0.598281
0.598281
0.598288
0.598294
0.598301
0.598308
0.598308
0.598314
0.598321
0.598328
0.598334
0.598334
0.598341
0.598348
0.598355
0.598362
0.598362
0.598369
0.598376
0.598383
0.59839
0.59839
0.598397
0.598404
0.598411
0.598418
0.598418
0.598425
0.598432
0.59844
0.598447
0.598447
0.598454
0.598461
0.598469
0.598476
0.598476
0.598484
0.598491
0.598499
0.598506
0.598506
0.598514
0.598521
0.598529
0.598537
0.598537
0.598544
0.598552
0.59856
0.598567
0.598567
0.598575
0.598583
0.598591
0.598599
0.598599
0.598607
0.598615
0.598623
0.598631
0.598631
0.598639
0.598647
0.598655
0.598663
0.598663
0.598672
0.59868
0.598688
0.598696
0.598696
0.598705
0.598713
0.598722
0.59873
0.59873
0.598738
0.598747
0.598755
0.598764
0.598764
0.598773
0.598781
0.59879
0.598799
0.598799
0.598807
0.598816
0.598825
0.598834
0.598834
0.598843
0.598851
0.59886
0.598869
0.598869
0.598878
0.598887
0.598896
0.598905
0.598905
0.598915
0.598924
0.598933
0.598942
0.598942
0.598951
0.598961
0.59897
0.598979
0.598979
0.598989
0.598998
0.599007
0.599017
0.599017
0.599026
0.599036
0.599045
0.599055
0.599055
0.599065
0.599074
0.599084
0.599094
0.599094
0.599103
0.599113
0.599123
0.599133
0.599133
0.599143
0.599153
0.599163
0.599173
0.599173
0.599183
0.599193
0.599203
0.599213
0.599213
0.599223
0.599234
0.599244
0.599254
0.599254
0.599265
0.599275
0.599285
0.599296
0.599296
0.599306
0.599317
0.599327
0.599338
0.599338
0.599348
0.599359
0.599369
0.59938
0.59938
0.599391
0.599402
0.599412
0.599423
0.599423
0.599434
0.599445
0.599456
0.599467
0.599467
0.599478
0.599489
0.5995
0.599511
0.599511
0.599522
0.599533
0.599544
0.599555
0.599555
0.599566
0.599578
0.599589
0.5996
0.5996
0.599612
0.599623
0.599635
0.599646
0.599646
0.599657
0.599669
0.599681
0.599692
0.599692
0.599704
0.599715
0.599727
0.599739
0.599739
0.599751
0.599762
0.599774
0.599786
0.599786
0.599798
0.59981
0.599822
0.599834
0.599834
0.599846
0.599858
0.59987
0.599882
0.599882
0.599894
0.599906
0.599919
0.599931
0.599931
0.599943
0.599956
0.599968
0.59998
0.59998
0.599993
0.600005
0.600018
0.60003
0.60003
0.600043
0.600055
0.600068
0.60008
0.60008
0.600093
0.600106
0.600119
0.600131
0.600131
0.600144
0.600157
0.60017
0.600183
0.600183
0.600196
0.600209
0.600222
0.600235
0.600235
0.600248
0.600261
0.600274
0.600287
0.600287
0.6003
0.600314
0.600327
0.60034
0.60034
0.600354
0.600367
0.60038
0.600394
0.600394
0.600407
0.600421
0.600434
0.600448
0.600448
0.600462
0.600475
0.600489
0.600503
0.600503
0.600517
0.60053
0.600544
0.600558
0.600558
0.600572
0.600586
0.6006
0.600614
0.600614
0.600628
0.600642
0.600656
0.60067
0.60067
0.600685
0.600699
0.600713
0.600727
0.600727
0.600742
0.600756
0.60077
0.600785
0.600785
0.600799
0.600814
0.600828
0.600843
0.600843
0.600857
0.600872
0.600887
0.600901
0.600901
0.600916
0.600931
0.600946
0.60096
0.60096
0.600975
0.60099
0.601005
0.60102
0.60102
0.601035
0.60105
0.601065
0.60108
0.60108
0.601095
0.60111
0.601126
0.601141
0.601141
0.601156
0.601171
0.601187
0.601202
0.601202
0.601217
0.601233
0.601248
0.601264
0.601264
0.601279
0.601295
0.60131
0.601326
0.601326
0.601342
0.601357
0.601373
0.601389
0.601389
0.601405
0.60142
0.601436
0.601452
0.601452
0.601468
0.601484
0.6015
0.601516
0.601516
0.601532
0.601548
0.601564
0.60158
0.60158
0.601597
0.601613
0.601629
0.601645
0.601645
0.601662
0.601678
0.601694
0.601711
0.601711
0.601727
0.601744
0.60176
0.601777
0.601777
0.601794
0.60181
0.601827
0.601844
0.601844
0.601861
0.601877
0.601894
0.601911
0.601911
0.601928
0.601945
0.601962
0.601979
0.601979
0.601996
0.602013
0.60203
0.602048
0.602048
0.602065
0.602082
0.602099
0.602117
0.602117
0.602134
0.602151
0.602169
0.602186
0.602186
0.602204
0.602221
0.602239
0.602256
0.602256
0.602274
0.602291
0.602309
0.602327
0.602327
0.602344
0.602362
0.60238
0.602398
0.602398
0.602416
0.602434
0.602452
0.60247
0.60247
0.602488
0.602506
0.602524
0.602542
0.602542
0.60256
0.602578
0.602596
0.602614
0.602614
0.602633
0.602651
0.602669
0.602688
0.602688
0.602706
0.602725
0.602743
0.602762
0.602762
0.60278
0.602799
0.602817
0.602836
0.602836
0.602855
0.602873
0.602892
0.602911
0.602911
0.60293
0.602949
0.602967
0.602986
0.602986
0.603005
0.603024
0.603043
0.603062
0.603062
0.603082
0.603101
0.60312
0.603139
0.603139
0.603159
0.603178
0.603197
0.603217
0.603217
0.603236
0.603256
0.603275
0.603295
0.603295
0.603314
0.603334
0.603353
0.603373
0.603373
0.603393
0.603412
0.603432
0.603452
0.603452
0.603472
0.603492
0.603512
0.603532
0.603532
0.603552
0.603572
0.603592
0.603612
0.603612
0.603632
0.603652
0.603672
0.603692
0.603692
0.603713
0.603733
0.603753
0.603774
0.603774
0.603794
0.603814
0.603835
0.603855
0.603855
0.603876
0.603897
0.603917
0.603938
0.603938
0.603958
0.603979
0.604
0.604021
0.604021
0.604041
0.604062
0.604083
0.604104
0.604104
0.604125
0.604146
0.604167
0.604188
0.604188
0.604209
0.60423
0.604251
0.604272
0.604272
0.604294
0.604315
0.604336
0.604357
0.604357
0.604379
0.6044
0.604422
0.604443
0.604443
0.604465
0.604486
0.604508
0.60453
0.60453
0.604551
0.604573
0.604595
0.604617
0.604617
0.604638
0.60466
0.604682
0.604704
0.604704
0.604726
0.604748
0.60477
0.604792
0.604792
0.604814
0.604837
0.604859
0.604881
0.604881
0.604903
0.604926
0.604948
0.60497
0.60497
0.604993
0.605015
0.605037
0.60506
0.60506
0.605083
0.605105
0.605128
0.60515
0.60515
0.605173
0.605196
0.605218
0.605241
0.605241
0.605264
0.605287
0.60531
0.605333
0.605333
0.605356
0.605378
0.605402
0.605425
0.605425
0.605448
0.605471
0.605494
0.605517
0.605517
0.60554
0.605564
0.605587
0.60561
0.60561
0.605633
0.605657
0.60568
0.605704
0.605704
0.605727
0.605751
0.605774
0.605798
0.605798
0.605822
0.605845
0.605869
0.605893
0.605893
0.605917
0.605941
0.605965
0.605989
0.605989
0.606013
0.606037
0.606061
0.606085
0.606085
0.606109
0.606133
0.606157
0.606182
0.606182
0.606206
0.60623
0.606255
0.606279
0.606279
0.606303
0.606328
0.606352
0.606377
0.606377
0.606401
0.606426
0.60645
0.606475
0.606475
0.6065
0.606525
0.606549
0.606574
0.606574
0.606599
0.606624
0.606649
0.606674
0.606674
0.606699
0.606724
0.606749
0.606774
0.606774
0.606799
0.606824
0.606849
0.606874
0.606874
0.606899
0.606925
0.60695
0.606975
0.606975
0.607001
0.607026
0.607052
0.607077
0.607077
0.607103
0.607128
0.607154
0.60718
0.60718
0.607205
0.607231
0.607257
0.607283
0.607283
0.607308
0.607334
0.60736
0.607386
0.607386
0.607412
0.607438
0.607465
0.607491
0.607491
0.607517
0.607543
0.607569
0.607596
0.607596
0.607622
0.607648
0.607675
0.607701
0.607701
0.607727
0.607754
0.60778
0.607807
0.607807
0.607834
0.60786
0.607887
0.607913
0.607913
0.60794
0.607967
0.607994
0.608021
0.608021
0.608047
0.608074
0.608101
0.608128
0.608128
0.608155
0.608182
0.608209
0.608236
0.608236
0.608263
0.608291
0.608318
0.608345
0.608345
0.608372
0.6084
0.608427
0.608454
0.608454
0.608482
0.608509
0.608537
0.608564
0.608564
0.608592
0.60862
0.608647
0.608675
0.608675
0.608703
0.608731
0.608758
0.608786
0.608786
0.608814
0.608842
0.60887
0.608898
0.608898
0.608926
0.608954
0.608983
0.609011
0.609011
0.609039
0.609067
0.609095
0.609124
0.609124
0.609152
0.60918
0.609209
0.609237
0.609237
0.609266
0.609294
0.609323
0.609351
0.609351
0.60938
0.609409
0.609437
0.609466
0.609466
0.609495
0.609524
0.609552
0.609581
0.609581
0.60961
0.609639
0.609668
0.609697
0.609697
0.609726
0.609755
0.609784
0.609813
0.609813
0.609843
0.609872
0.609901
0.60993
0.60993
0.60996
0.609989
0.610019
0.610048
0.610048
0.610078
0.610107
0.610137
0.610166
0.610166
0.610196
0.610226
0.610256
0.610285
0.610285
0.610315
0.610345
0.610375
0.610405
0.610405
0.610435
0.610465
0.610495
0.610525
0.610525
0.610555
0.610585
0.610615
0.610646
0.610646
0.610676
0.610706
0.610736
0.610767
0.610767
0.610797
0.610827
0.610858
0.610888
0.610888
0.610919
0.610949
0.61098
0.611011
0.611011
0.611041
0.611072
0.611103
0.611133
0.611133
0.611164
0.611195
0.611226
0.611257
0.611257
0.611288
0.611319
0.61135
0.611381
0.611381
0.611412
0.611443
0.611474
0.611506
0.611506
0.611537
0.611568
0.6116
0.611631
0.611631
0.611662
0.611694
0.611725
0.611757
0.611757
0.611789
0.61182
0.611852
0.611884
0.611884
0.611915
0.611947
0.611979
0.612011
0.612011
0.612042
0.612074
0.612106
0.612138
0.612138
0.61217
0.612202
0.612234
0.612266
0.612266
0.612299
0.612331
0.612363
0.612395
0.612395
0.612427
0.61246
0.612492
0.612524
0.612524
0.612557
0.612589
0.612622
0.612654
0.612654
0.612687
0.612719
0.612752
0.612785
0.612785
0.612817
0.61285
0.612883
0.612916
0.612916
0.612949
0.612982
0.613015
0.613048
0.613048
0.613081
0.613114
0.613147
0.61318
0.61318
0.613213
0.613246
0.61328
0.613313
0.613313
0.613346
0.61338
0.613413
0.613447
0.613447
0.61348
0.613513
0.613547
0.613581
0.613581
0.613614
0.613648
0.613681
0.613715
0.613715
0.613749
0.613783
0.613816
0.61385
0.61385
0.613884
0.613918
0.613952
0.613986
0.613986
0.61402
0.614054
0.614088
0.614122
0.614122
0.614156
0.614191
0.614225
0.614259
0.614259
0.614293
0.614328
0.614362
0.614397
0.614397
0.614431
0.614466
0.6145
0.614535
0.614535
0.61457
0.614604
0.614639
0.614674
0.614674
0.614709
0.614743
0.614778
0.614813
0.614813
0.614848
0.614883
0.614918
0.614953
0.614953
0.614988
0.615023
0.615058
0.615093
0.615093
0.615129
0.615164
0.615199
0.615234
0.615234
0.61527
0.615305
0.61534
0.615376
0.615376
0.615411
0.615447
0.615482
0.615518
0.615518
0.615553
0.615589
0.615625
0.61566
0.61566
0.615696
0.615732
0.615768
0.615804
0.615804
0.61584
0.615876
0.615912
0.615948
0.615948
0.615984
0.61602
0.616056
0.616092
0.616092
0.616129
0.616165
0.616201
0.616237
0.616237
0.616274
0.61631
0.616347
0.616383
0.616383
0.61642
0.616456
0.616493
0.616529
0.616529
0.616566
0.616602
0.616639
0.616676
0.616676
0.616713
0.616749
0.616786
0.616823
0.616823
0.61686
0.616897
0.616934
0.616971
0.616971
0.617008
0.617045
0.617082
0.617119
0.617119
0.617156
0.617194
0.617231
0.617268
0.617268
0.617306
0.617343
0.617381
0.617418
0.617418
0.617456
0.617493
0.617531
0.617568
0.617568
0.617606
0.617644
0.617681
0.617719
0.617719
0.617757
0.617795
0.617832
0.61787
0.61787
0.617908
0.617946
0.617984
0.618022
0.618022
0.61806
0.618098
0.618136
0.618174
0.618174
0.618213
0.618251
0.618289
0.618327
0.618327
0.618366
0.618404
0.618442
0.618481
0.618481
0.618519
0.618558
0.618596
0.618635
0.618635
0.618673
0.618712
0.618751
0.618789
0.618789
0.618828
0.618867
0.618906
0.618945
0.618945
0.618984
0.619023
0.619062
0.619101
0.619101
0.61914
0.619179
0.619218
0.619257
0.619257
0.619296
0.619335
0.619374
0.619414
0.619414
0.619453
0.619492
0.619532
0.619571
0.619571
0.61961
0.61965
0.619689
0.619729
0.619729
0.619768
0.619808
0.619848
0.619887
0.619887
0.619927
0.619967
0.620006
0.620046
0.620046
0.620086
0.620126
0.620166
0.620206
0.620206
0.620246
0.620286
0.620326
0.620366
0.620366
0.620406
0.620446
0.620487
0.620527
0.620527
0.620567
0.620607
0.620648
0.620688
0.620688
0.620729
0.620769
0.620809
0.62085
0.62085
0.62089
0.620931
0.620972
0.621012
0.621012
0.621053
0.621093
0.621134
0.621175
0.621175
0.621216
0.621256
0.621297
0.621338
0.621338
0.621379
0.62142
0.621461
0.621502
0.621502
0.621543
0.621584
0.621625
0.621667
0.621667
0.621708
0.621749
0.62179
0.621832
0.621832
0.621873
0.621914
0.621956
0.621997
0.621997
0.622039
0.62208
0.622122
0.622163
0.622163
0.622205
0.622246
0.622288
0.62233
0.62233
0.622372
0.622413
0.622455
0.622497
0.622497
0.622539
0.622581
0.622622
0.622664
0.622664
0.622706
0.622748
0.62279
0.622832
0.622832
0.622875
0.622917
0.622959
0.623001
0.623001
0.623043
0.623086
0.623128
0.62317
0.62317
0.623213
0.623255
0.623298
0.62334
0.62334
0.623383
0.623425
0.623468
0.62351
0.62351
0.623553
0.623596
0.623638
0.623681
0.623681
0.623724
0.623767
0.623809
0.623852
0.623852
0.623895
0.623938
0.623981
0.624024
0.624024
0.624067
0.62411
0.624153
0.624196
0.624196
0.624239
0.624282
0.624326
0.624369
0.624369
0.624412
0.624456
0.624499
0.624542
0.624542
0.624586
0.624629
0.624673
0.624716
0.624716
0.62476
0.624803
0.624847
0.62489
0.62489
0.624934
0.624978
0.625021
0.625065
0.625065
0.625109
0.625153
0.625197
0.62524
0.62524
0.625284
0.625328
0.625372
0.625416
0.625416
0.62546
0.625504
0.625548
0.625592
0.625592
0.625636
0.625681
0.625725
0.625769
0.625769
0.625813
0.625858
0.625902
0.625946
0.625946
0.625991
0.626035
0.62608
0.626124
0.626124
0.626169
0.626213
0.626258
0.626302
0.626302
0.626347
0.626392
0.626436
0.626481
0.626481
0.626526
0.62657
0.626615
0.62666
0.62666
0.626705
0.62675
0.626795
0.62684
0.62684
0.626885
0.62693
0.626975
0.62702
0.62702
0.627065
0.62711
0.627155
0.6272
0.6272
0.627246
0.627291
0.627336
0.627381
0.627381
0.627427
0.627472
0.627518
0.627563
0.627563
0.627608
0.627654
0.627699
0.627745
0.627745
0.627791
0.627836
0.627882
0.627927
0.627927
0.627973
0.628019
0.628065
0.62811
0.62811
0.628156
0.628202
0.628248
0.628294
0.628294
0.62834
0.628386
0.628432
0.628478
0.628478
0.628524
0.62857
0.628616
0.628662
0.628662
0.628708
0.628754
0.6288
0.628847
0.628847
0.628893
0.628939
0.628985
0.629032
0.629032
0.629078
0.629125
0.629171
0.629217
0.629217
0.629264
0.62931
0.629357
0.629404
0.629404
0.62945
0.629497
0.629543
0.62959
0.62959
0.629637
0.629683
0.62973
0.629777
0.629777
0.629824
0.629871
0.629917
0.629964
0.629964
0.630011
0.630058
0.630105
0.630152
0.630152
0.630199
0.630246
0.630293
0.630341
0.630341
0.630388
0.630435
0.630482
0.630529
0.630529
0.630576
0.630624
0.630671
0.630718
0.630718
0.630766
0.630813
0.630861
0.630908
0.630908
0.630955
0.631003
0.63105
0.631098
0.631098
0.631145
0.631193
0.631241
0.631288
0.631288
0.631336
0.631384
0.631431
0.631479
0.631479
0.631527
0.631575
0.631622
0.63167
0.63167
0.631718
0.631766
0.631814
0.631862
0.631862
0.63191
0.631958
0.632006
0.632054
0.632054
0.632102
0.63215
0.632198
0.632246
0.632246
0.632295
0.632343
0.632391
0.632439
0.632439
0.632488
0.632536
0.632584
0.632632
0.632632
0.632681
0.632729
0.632778
0.632826
0.632826
0.632875
0.632923
0.632972
0.63302
0.63302
0.633069
0.633117
0.633166
0.633215
0.633215
0.633263
0.633312
0.633361
0.633409
0.633409
0.633458
0.633507
0.633556
0.633605
0.633605
0.633653
0.633702
0.633751
0.6338
0.6338
0.633849
0.633898
0.633947
0.633996
0.633996
0.634045
0.634094
0.634143
0.634192
0.634192
0.634242
0.634291
0.63434
0.634389
0.634389
0.634438
0.634488
0.634537
0.634586
0.634586
0.634636
0.634685
0.634734
0.634784
0.634784
0.634833
0.634883
0.634932
0.634982
0.634982
0.635031
0.635081
0.63513
0.63518
0.63518
0.635229
0.635279
0.635329
0.635378
0.635378
0.635428
0.635478
0.635527
0.635577
0.635577
0.635627
0.635677
0.635727
0.635776
0.635776
0.635826
0.635876
0.635926
0.635976
0.635976
0.636026
0.636076
0.636126
0.636176
0.636176
0.636226
0.636276
0.636326
0.636376
0.636376
0.636426
0.636477
0.636527
0.636577
0.636577
0.636627
0.636677
0.636728
0.636778
0.636778
0.636828
0.636878
0.636929
0.636979
0.636979
0.63703
0.63708
0.63713
0.637181
0.637181
0.637231
0.637282
0.637332
0.637383
0.637383
0.637433
0.637484
0.637534
0.637585
0.637585
0.637636
0.637686
0.637737
0.637788
0.637788
0.637838
0.637889
0.63794
0.637991
0.637991
0.638041
0.638092
0.638143
0.638194
0.638194
0.638245
0.638296
0.638347
0.638397
0.638397
0.638448
0.638499
0.63855
0.638601
0.638601
0.638652
0.638703
0.638754
0.638806
0.638806
0.638857
0.638908
0.638959
0.63901
0.63901
0.639061
0.639112
0.639164
0.639215
0.639215
0.639266
0.639317
0.639369
0.63942
0.63942
0.639471
0.639523
0.639574
0.639625
0.639625
0.639677
0.639728
0.63978
0.639831
0.639831
0.639882
0.639934
0.639985
0.640037
0.640037
0.640088
0.64014
0.640192
0.640243
0.640243
0.640295
0.640346
0.640398
0.64045
0.64045
0.640501
0.640553
0.640605
0.640657
0.640657
0.640708
0.64076
0.640812
0.640864
0.640864
0.640916
0.640967
0.641019
0.641071
0.641071
0.641123
0.641175
0.641227
0.641279
0.641279
0.641331
0.641383
0.641435
0.641487
0.641487
0.641539
0.641591
0.641643
0.641695
0.641695
0.641747
0.641799
0.641851
0.641903
0.641903
0.641955
0.642008
0.64206
0.642112
0.642112
0.642164
0.642216
0.642269
0.642321
0.642321
0.642373
0.642425
0.642478
0.64253
0.64253
0.642582
0.642635
0.642687
0.64274
0.64274
0.642792
0.642844
0.642897
0.642949
0.642949
0.643002
0.643054
0.643107
0.643159
0.643159
0.643212
0.643264
0.643317
0.643369
0.643369
0.643422
0.643475
0.643527
0.64358
0.64358
0.643633
0.643685
0.643738
0.643791
0.643791
0.643843
0.643896
0.643949
0.644001
0.644001
0.644054
0.644107
0.64416
0.644213
0.644213
0.644265
0.644318
0.644371
0.644424
0.644424
0.644477
0.64453
0.644583
0.644636
0.644636
0.644689
0.644741
0.644794
0.644847
0.644847
0.6449
0.644953
0.645006
0.645059
0.645059
0.645112
0.645165
0.645219
0.645272
0.645272
0.645325
0.645378
0.645431
0.645484
0.645484
0.645537
0.64559
0.645644
0.645697
0.645697
0.64575
0.645803
0.645856
0.64591
0.64591
0.645963
0.646016
0.646069
0.646123
0.646123
0.646176
0.646229
0.646283
0.646336
0.646336
0.646389
0.646443
0.646496
0.646549
0.646549
0.646603
0.646656
0.64671
0.646763
0.646763
0.646817
0.64687
0.646924
0.646977
0.646977
0.64703
0.647084
0.647138
0.647191
0.647191
0.647245
0.647298
0.647352
0.647405
0.647405
0.647459
0.647512
0.647566
0.64762
0.64762
0.647673
0.647727
0.647781
0.647834
0.647834
0.647888
0.647942
0.647995
0.648049
0.648049
0.648103
0.648157
0.64821
0.648264
0.648264
0.648318
0.648372
0.648425
0.648479
0.648479
0.648533
0.648587
0.648641
0.648694
0.648694
0.648748
0.648802
0.648856
0.64891
0.64891
0.648964
0.649018
0.649072
0.649126
0.649126
0.64918
0.649233
0.649287
0.649341
0.649341
0.649395
0.649449
0.649503
0.649557
0.649557
0.649611
0.649665
0.649719
0.649773
0.649773
0.649828
0.649882
0.649936
0.64999
0.64999
0.650044
0.650098
0.650152
0.650206
0.650206
0.65026
0.650314
0.650369
0.650423
0.650423
0.650477
0.650531
0.650585
0.650639
0.650639
0.650694
0.650748
0.650802
0.650856
0.650856
0.650911
0.650965
0.651019
0.651073
0.651073
0.651128
0.651182
0.651236
0.651291
0.651291
0.651345
0.651399
0.651453
0.651508
0.651508
0.651562
0.651617
0.651671
0.651725
0.651725
0.65178
0.651834
0.651888
0.651943
0.651943
0.651997
0.652052
0.652106
0.652161
0.652161
0.652215
0.652269
0.652324
0.652378
0.652378
0.652433
0.652487
0.652542
0.652596
0.652596
0.652651
0.652705
0.65276
0.652814
0.652814
0.652869
0.652923
0.652978
0.653033
0.653033
0.653087
0.653142
0.653196
0.653251
0.653251
0.653305
0.65336
0.653415
0.653469
0.653469
0.653524
0.653579
0.653633
0.653688
0.653688
0.653743
0.653797
0.653852
0.653907
0.653907
0.653961
0.654016
0.654071
0.654125
0.654125
0.65418
0.654235
0.654289
0.654344
0.654344
0.654399
0.654454
0.654508
0.654563
0.654563
0.654618
0.654673
0.654728
0.654782
0.654782
0.654837
0.654892
0.654947
0.655002
0.655002
0.655056
0.655111
0.655166
0.655221
0.655221
0.655276
0.655331
0.655385
0.65544
0.65544
0.655495
0.65555
0.655605
0.65566
0.65566
0.655715
0.65577
0.655824
0.655879
0.655879
0.655934
0.655989
0.656044
0.656099
0.656099
0.656154
0.656209
0.656264
0.656319
0.656319
0.656374
0.656429
0.656484
0.656539
0.656539
0.656594
0.656649
0.656704
0.656759
0.656759
0.656814
0.656869
0.656924
0.656979
0.656979
0.657034
0.657089
0.657144
0.657199
0.657199
0.657254
0.657309
0.657364
0.657419
0.657419
0.657474
0.657529
0.657584
0.657639
0.657639
0.657694
0.65775
0.657805
0.65786
0.65786
0.657915
0.65797
0.658025
0.65808
0.65808
0.658135
0.65819
0.658246
0.658301
0.658301
0.658356
0.658411
0.658466
0.658521
0.658521
0.658577
0.658632
0.658687
0.658742
0.658742
0.658797
0.658852
0.658908
0.658963
0.658963
0.659018
0.659073
0.659128
0.659184
0.659184
0.659239
0.659294
0.659349
0.659405
0.659405
0.65946
0.659515
0.65957
0.659625
0.659625
0.659681
0.659736
0.659791
0.659846
0.659846
0.659902
0.659957
0.660012
0.660068
0.660068
0.660123
0.660178
0.660233
0.660289
0.660289
0.660344
0.660399
0.660455
0.66051
0.66051
0.660565
0.660621
0.660676
0.660731
0.660731
0.660787
0.660842
0.660897
0.660953
0.660953
0.661008
0.661063
0.661119
0.661174
0.661174
0.661229
0.661285
0.66134
0.661395
0.661395
0.661451
0.661506
0.661561
0.661617
0.661617
0.661672
0.661728
0.661783
0.661838
0.661838
0.661894
0.661949
0.662005
0.66206
0.66206
0.662115
0.662171
0.662226
0.662282
0.662282
0.662337
0.662392
0.662448
0.662503
0.662503
0.662559
0.662614
0.66267
0.662725
0.662725
0.66278
0.662836
0.662891
0.662947
0.662947
0.663002
0.663058
0.663113
0.663169
0.663169
0.663224
0.66328
0.663335
0.663391
0.663391
0.663446
0.663502
0.663557
0.663612
0.663612
0.663668
0.663723
0.663779
0.663834
0.663834
0.66389
0.663945
0.664001
0.664056
0.664056
0.664112
0.664167
0.664223
0.664278
0.664278
0.664334
0.66439
0.664445
0.664501
0.664501
0.664556
0.664612
0.664667
0.664723
0.664723
0.664778
0.664834
0.664889
0.664945
0.664945
0.665
0.665056
0.665112
0.665167
0.665167
0.665223
0.665278
0.665334
0.665389
0.665389
0.665445
0.6655
0.665556
0.665612
0.665612
0.665667
0.665723
0.665778
0.665834
0.665834
0.665889
0.665945
0.666001
0.666056
0.666056
0.666112
0.666167
0.666223
0.666279
0.666279
0.666334
0.66639
0.666445
0.666501
0.666501
0.666557
0.666612
0.666668
0.666723
0.666723
0.666779
0.666835
0.66689
0.666946
0.666946
0.667001
0.667057
0.667113
0.667168
0.667168
0.667224
0.66728
0.667335
0.667391
0.667391
0.667446
0.667502
0.667558
0.667613
0.667613
0.667669
0.667725
0.66778
0.667836
0.667836
0.667892
0.667947
0.668003
0.668058
0.668058
0.668114
0.66817
0.668225
0.668281
0.668281
0.668337
0.668392
0.668448
0.668504
0.668504
0.668559
0.668615
0.668671
0.668726
0.668726
0.668782
0.668838
0.668893
0.668949
0.668949
0.669005
0.66906
0.669116
0.669172
0.669172
0.669227
0.669283
0.669339
0.669394
0.669394
0.66945
0.669506
0.669562
0.669617
0.669617
0.669673
0.669729
0.669784
0.66984
0.66984
0.669896
0.669951
0.670007
0.670063
0.670063
0.670118
0.670174
0.67023
0.670286
0.670286
0.670341
0.670397
0.670453
0.670508
0.670508
0.670564
0.67062
0.670676
0.670731
0.670731
0.670787
0.670843
0.670898
0.670954
0.670954
0.67101
0.671066
0.671121
0.671177
0.671177
0.671233
0.671288
0.671344
0.6714
0.6714
0.671456
0.671511
0.671567
0.671623
0.671623
0.671678
0.671734
0.67179
0.671846
0.671846
0.671901
0.671957
0.672013
0.672069
0.672069
0.672124
0.67218
0.672236
0.672292
0.672292
0.672347
0.672403
0.672459
0.672514
0.672514
0.67257
0.672626
0.672682
0.672737
0.672737
0.672793
0.672849
0.672905
0.67296
0.67296
0.673016
0.673072
0.673128
0.673183
0.673183
0.673239
0.673295
0.673351
0.673406
0.673406
0.673462
0.673518
0.673574
0.673629
0.673629
0.673685
0.673741
0.673797
0.673853
0.673853
0.673908
0.673964
0.67402
0.674076
0.674076
0.674131
0.674187
0.674243
0.674299
0.674299
0.674354
0.67441
0.674466
0.674522
0.674522
0.674577
0.674633
0.674689
0.674745
0.674745
0.674801
0.674856
0.674912
0.674968
0.674968
0.675024
0.675079
0.675135
0.675191
0.675191
0.675247
0.675302
0.675358
0.675414
0.675414
0.67547
0.675526
0.675581
0.675637
0.675637
0.675693
0.675749
0.675804
0.67586
0.67586
0.675916
0.675972
0.676028
0.676083
0.676083
0.676139
0.676195
0.676251
0.676306
0.676306
0.676362
0.676418
0.676474
0.67653
0.67653
0.676585
0.676641
0.676697
0.676753
0.676753
0.676809
0.676864
0.67692
0.676976
0.676976
0.677032
0.677088
0.677143
0.677199
0.677199
0.677255
0.677311
0.677366
0.677422
0.677422
0.677478
0.677534
0.67759
0.677645
0.677645
0.677701
0.677757
0.677813
0.677869
0.677869
0.677924
0.67798
0.678036
0.678092
0.678092
0.678148
0.678203
0.678259
0.678315
0.678315
0.678371
0.678427
0.678482
0.678538
0.678538
0.678594
0.67865
0.678706
0.678761
0.678761
0.678817
0.678873
0.678929
0.678985
0.678985
0.67904
0.679096
0.679152
0.679208
0.679208
0.679264
0.679319
0.679375
0.679431
0.679431
0.679487
0.679543
0.679598
0.679654
0.679654
0.67971
0.679766
0.679822
0.679877
0.679877
0.679933
0.679989
0.680045
0.680101
0.680101
0.680156
0.680212
0.680268
0.680324
0.680324
0.68038
0.680436
0.680491
0.680547
0.680547
0.680603
0.680659
0.680715
0.68077
0.68077
0.680826
0.680882
0.680938
0.680994
0.680994
0.681049
0.681105
0.681161
0.681217
0.681217
0.681273
0.681328
0.681384
0.68144
0.68144
0.681496
0.681552
0.681608
0.681663
0.681663
0.681719
0.681775
0.681831
0.681887
0.681887
0.681942
0.681998
0.682054
0.68211
0.68211
0.682166
0.682221
0.682277
0.682333
0.682333
0.682389
0.682445
0.682501
0.682556
0.682556
0.682612
0.682668
0.682724
0.68278
0.68278
0.682835
0.682891
0.682947
0.683003
0.683003
0.683059
0.683115
0.68317
0.683226
0.683226
0.683282
0.683338
0.683394
0.683449
0.683449
0.683505
0.683561
0.683617
0.683673
0.683673
0.683729
0.683784
0.68384
0.683896
0.683896
0.683952
0.684008
0.684063
0.684119
0.684119
0.684175
0.684231
0.684287
0.684343
0.684343
0.684398
0.684454
0.68451
0.684566
0.684566
0.684622
0.684677
0.684733
0.684789
0.684789
0.684845
0.684901
0.684957
0.685012
0.685012
0.685068
0.685124
0.68518
0.685236
0.685236
0.685292
0.685347
0.685403
0.685459
0.685459
0.685515
0.685571
0.685626
0.685682
0.685682
0.685738
0.685794
0.68585
0.685906
0.685906
0.685961
0.686017
0.686073
0.686129
0.686129
0.686185
0.686241
0.686296
0.686352
0.686352
0.686408
0.686464
0.68652
0.686575
0.686575
0.686631
0.686687
0.686743
0.686799
0.686799
0.686855
0.68691
0.686966
0.687022
0.687022
0.687078
0.687134
0.68719
0.687245
0.687245
0.687301
0.687357
0.687413
0.687469
0.687469
0.687524
0.68758
0.687636
0.687692
0.687692
0.687748
0.687804
0.687859
0.687915
0.687915
0.687971
0.688027
0.688083
0.688139
0.688139
0.688194
0.68825
0.688306
0.688362
0.688362
0.688418
0.688473
0.688529
0.688585
0.688585
0.688641
0.688697
0.688753
0.688808
0.688808
0.688864
0.68892
0.688976
0.689032
0.689032
0.689088
0.689143
0.689199
0.689255
0.689255
0.689311
0.689367
0.689423
0.689478
0.689478
0.689534
0.68959
0.689646
0.689702
0.689702
0.689757
0.689813
0.689869
0.689925
0.689925
0.689981
0.690037
0.690092
0.690148
0.690148
0.690204
0.69026
0.690316
0.690372
0.690372
0.690427
0.690483
0.690539
0.690595
0.690595
0.690651
0.690707
0.690762
0.690818
0.690818
0.690874
0.69093
0.690986
0.691042
0.691042
0.691097
0.691153
0.691209
0.691265
0.691265
0.691321
0.691376
0.691432
0.691488
0.691488
0.691544
0.6916
0.691656
0.691711
0.691711
0.691767
0.691823
0.691879
0.691935
0.691935
0.691991
0.692046
0.692102
0.692158
0.692158
0.692214
0.69227
0.692326
0.692381
0.692381
0.692437
0.692493
0.692549
0.692605
0.692605
0.692661
0.692716
0.692772
0.692828
0.692828
0.692884
0.69294
0.692995
0.693051
0.693051
0.693107
0.693163
0.693219
0.693275
0.693275
0.69333
0.693386
0.693442
0.693498
0.693498
0.693554
0.69361
0.693665
0.693721
0.693721
0.693777
0.693833
0.693889
0.693945
0.693945
0.694
0.694056
0.694112
0.694168
0.694168
0.694224
0.69428
0.694335
0.694391
0.694391
0.694447
0.694503
0.694559
0.694615
0.694615
0.69467
0.694726
0.694782
0.694838
0.694838
0.694894
0.694949
0.695005
0.695061
0.695061
0.695117
0.695173
0.695229
0.695284
0.695284
0.69534
0.695396
0.695452
0.695508
0.695508
0.695564
0.695619
0.695675
0.695731
0.695731
0.695787
0.695843
0.695899
0.695954
0.695954
0.69601
0.696066
0.696122
0.696178
0.696178
0.696234
0.696289
0.696345
0.696401
0.696401
0.696457
0.696513
0.696569
0.696624
0.696624
0.69668
0.696736
0.696792
0.696848
0.696848
0.696904
0.696959
0.697015
0.697071
0.697071
0.697127
0.697183
0.697238
0.697294
0.697294
0.69735
0.697406
0.697462
0.697518
0.697518
0.697573
0.697629
0.697685
0.697741
0.697741
0.697797
0.697853
0.697908
0.697964
0.697964
0.69802
0.698076
0.698132
0.698188
0.698188
0.698243
0.698299
0.698355
0.698411
0.698411
0.698467
0.698523
0.698578
0.698634
0.698634
0.69869
0.698746
0.698802
0.698858
0.698858
0.698913
0.698969
0.699025
0.699081
0.699081
0.699137
0.699193
0.699248
0.699304
0.699304
0.69936
0.699416
0.699472
0.699527
0.699527
0.699583
0.699639
0.699695
0.699751
0.699751
0.699807
0.699862
0.699918
0.699974
0.699974