<?xml version="1.0"?>
<VTKFile type="UnstructuredGrid" version="0.1" byte_order="LittleEndian">
<UnstructuredGrid>
<Piece NumberOfPoints="5000" NumberOfCells="4000">
<PointData Scalars="Reaction 0">
<DataArray type="Float32" Name="Reaction 0" format="ascii">
0.562827
0.562827
0.562827
0.562827
0.562827
0.562827
0.562827
0.562827
0.562827
0.562827
0.562827
0.562827
0.562827
0.562827
0.562827
0.562827
0.562827
0.562827
0.562827
0.562827
0.562827
0.562827
0.562827
0.562827
0.562827
0.562827
0.562827
0.562827
0.562827
0.562827
0.562827
0.562827
0.562827
0.562827
0.562827
0.562827
0.562827
0.562827
0.562827
0.562827
0.562827
0.562827
0.562827
0.562827
0.562827
0.562827
0.562827
0.562827
0.562828
0.562828
0.562828
0.562828
0.562828
0.562828
0.562828
0.562828
0.562828
0.562828
0.562828
0.562828
0.562828
0.562828
0.562828
0.562828
0.562828
0.562828
0.562828
0.562828
0.562828
0.562828
0.562828
0.562828
0.562828
0.562829
0.562829
0.562829
0.562829
0.562829
0.562829
0.562829
0.562829
0.562829
0.562829
0.562829
0.562829
0.562829
0.562829
0.562829
0.562829
0.562829
0.562829
0.56283
0.56283
0.56283
0.56283
0.56283
0.56283
0.56283
0.56283
0.56283
0.56283
0.56283
0.56283
0.56283
0.56283
0.56283
0.56283
0.562831
0.562831
0.562831
0.562831
0.562831
0.562831
0.562831
0.562831
0.562831
0.562831
0.562831
0.562831
0.562832
0.562832
0.562832
0.562832
0.562832
0.562832
0.562832
0.562832
0.562832
0.562832
0.562832
0.562832
0.562832
0.562833
0.562833
0.562833
0.562833
0.562833
0.562833
0.562833
0.562833
0.562833
0.562833
0.562833
0.562834
0.562834
0.562834
0.562834
0.562834
0.562834
0.562834
0.562834
0.562834
0.562834
0.562835
0.562835
0.562835
0.562835
0.562835
0.562835
0.562835
0.562835
0.562835
0.562836
0.562836
0.562836
0.562836
0.562836
0.562836
0.562836
0.562836
0.562836
0.562837
0.562837
0.562837
0.562837
0.562837
0.562837
0.562837
0.562837
0.562838
0.562838
0.562838
0.562838
0.562838
0.562838
0.562838
0.562838
0.562838
0.562839
0.562839
0.562839
0.562839
0.562839
0.562839
0.562839
0.562839
0.56284
0.56284
0.56284
0.56284
0.56284
0.56284
0.56284
0.562841
0.562841
0.562841
0.562841
0.562841
0.562841
0.562841
0.562841
0.562842
0.562842
0.562842
0.562842
0.562842
0.562842
0.562843
0.562843
0.562843
0.562843
0.562843
0.562843
0.562843
0.562844
0.562844
0.562844
0.562844
0.562844
0.562844
0.562844
0.562845
0.562845
0.562845
0.562845
0.562845
0.562845
0.562846
0.562846
0.562846
0.562846
0.562846
0.562846
0.562847
0.562847
0.562847
0.562847
0.562847
0.562847
0.562848
0.562848
0.562848
0.562848
0.562848
0.562848
0.562848
0.562849
0.562849
0.562849
0.562849
0.562849
0.56285
0.56285
0.56285
0.56285
0.56285
0.56285
0.562851
0.562851
0.562851
0.562851
0.562851
0.562852
0.562852
0.562852
0.562852
0.562852
0.562853
0.562853
0.562853
0.562853
0.562853
0.562853
0.562854
0.562854
0.562854
0.562854
0.562854
0.562855
0.562855
0.562855
0.562855
0.562855
0.562856
0.562856
0.562856
0.562856
0.562856
0.562857
0.562857
0.562857
0.562857
0.562857
0.562858
0.562858
0.562858
0.562858
0.562858
0.562859
0.562859
0.562859
0.562859
0.56286
0.56286
0.56286
0.56286
0.56286
0.562861
0.562861
0.562861
0.562861
0.562861
0.562862
0.562862
0.562862
0.562862
0.562862
0.562863
0.562863
0.562863
0.562863
0.562864
0.562864
0.562864
0.562864
0.562864
0.562865
0.562865
0.562865
0.562866
0.562866
0.562866
0.562866
0.562866
0.562867
0.562867
0.562867
0.562867
0.562868
0.562868
0.562868
0.562868
0.562869
0.562869
0.562869
0.562869
0.562869
0.56287
0.56287
0.56287
0.56287
0.562871
0.562871
0.562871
0.562872
0.562872
0.562872
0.562872
0.562873
0.562873
0.562873
0.562873
0.562873
0.562874
0.562874
0.562874
0.562874
0.562875
0.562875
0.562875
0.562875
0.562876
0.562876
0.562876
0.562877
0.562877
0.562877
0.562877
0.562878
0.562878
0.562878
0.562878
0.562879
0.562879
0.562879
0.562879
0.56288
0.56288
0.56288
0.562881
0.562881
0.562881
0.562881
0.562882
0.562882
0.562882
0.562882
0.562883
0.562883
0.562883
0.562883
0.562884
0.562884
0.562885
0.562885
0.562885
0.562885
0.562886
0.562886
0.562886
0.562886
0.562887
0.562887
0.562887
0.562888
0.562888
0.562888
0.562889
0.562889
0.562889
0.562889
0.56289
0.56289
0.56289
0.562891
0.562891
0.562891
0.562892
0.562892
0.562892
0.562892
0.562893
0.562893
0.562893
0.562894
0.562894
0.562894
0.562895
0.562895
0.562895
0.562895
0.562896
0.562896
0.562897
0.562897
0.562897
0.562897
0.562898
0.562898
0.562898
0.562898
0.562899
0.562899
0.5629
0.5629
0.5629
0.5629
0.562901
0.562901
0.562902
0.562902
0.562902
0.562903
0.562903
0.562903
0.562903
0.562904
0.562904
0.562905
0.562905
0.562905
0.562905
0.562906
0.562906
0.562907
0.562907
0.562907
0.562908
0.562908
0.562908
0.562908
0.562909
0.562909
0.56291
0.56291
0.56291
0.56291
0.562911
0.562911
0.562912
0.562912
0.562912
0.562913
0.562913
0.562914
0.562914
0.562914
0.562914
0.562915
0.562915
0.562915
0.562916
0.562916
0.562917
0.562917
0.562917
0.562918
0.562918
0.562918
0.562919
0.562919
0.562919
0.56292
0.56292
0.562921
0.562921
0.562921
0.562922
0.562922
0.562923
0.562923
0.562923
0.562923
0.562924
0.562924
0.562924
0.562925
0.562925
0.562926
0.562926
0.562926
0.562927
0.562927
0.562928
0.562928
0.562928
0.562929
0.562929
0.56293
0.56293
0.56293
0.562931
0.562931
0.562932
0.562932
0.562932
0.562933
0.562933
0.562934
0.562934
0.562934
0.562935
0.562935
0.562936
0.562936
0.562936
0.562937
0.562937
0.562938
0.562938
0.562938
0.562939
0.562939
0.56294
0.56294
0.56294
0.562941
0.562941
0.562942
0.562942
0.562942
0.562943
0.562943
0.562944
0.562944
0.562944
0.562945
0.562945
0.562946
0.562946
0.562946
0.562947
0.562947
0.562948
0.562948
0.562948
0.562949
0.562949
0.56295
0.56295
0.56295
0.562951
0.562952
0.562952
0.562953
0.562953
0.562953
0.562954
0.562954
0.562955
0.562955
0.562955
0.562956
0.562956
0.562957
0.562957
0.562957
0.562958
0.562959
0.562959
0.562959
0.56296
0.56296
0.562961
0.562961
0.562961
0.562962
0.562962
0.562963
0.562964
0.562964
0.562964
0.562965
0.562965
0.562966
0.562966
0.562966
0.562967
0.562968
0.562968
0.562968
0.562969
0.562969
0.56297
0.56297
0.56297
0.562971
0.562972
0.562972
0.562973
0.562973
0.562973
0.562974
0.562975
0.562975
0.562975
0.562976
0.562976
0.562977
0.562977
0.562977
0.562978
0.562979
0.562979
0.56298
0.56298
0.56298
0.562981
0.562982
0.562982
0.562982
0.562983
0.562983
0.562984
0.562985
0.562985
0.562985
0.562986
0.562987
0.562987
0.562987
0.562988
0.562988
0.562989
0.56299
0.56299
0.56299
0.562991
0.562991
0.562992
0.562992
0.562993
0.562993
0.562994
0.562995
0.562995
0.562995
0.562996
0.562997
0.562997
0.562997
0.562998
0.562998
0.562999
0.563
0.563
0.563
0.563001
0.563002
0.563002
0.563002
0.563003
0.563004
0.563004
0.563005
0.563005
0.563006
0.563006
0.563007
0.563007
0.563007
0.563008
0.563009
0.563009
0.56301
0.56301
0.563011
0.563011
0.563012
0.563013
0.563013
0.563013
0.563014
0.563015
0.563015
0.563015
0.563016
0.563017
0.563018
0.563018
0.563018
0.563019
0.56302
0.56302
0.563021
0.563021
0.563022
0.563022
0.563023
0.563024
0.563024
0.563024
0.563025
0.563026
0.563026
0.563026
0.563027
0.563028
0.563029
0.563029
0.563029
0.56303
0.563031
0.563031
0.563032
0.563032
0.563033
0.563034
0.563034
0.563035
0.563035
0.563036
0.563036
0.563037
0.563038
0.563038
0.563039
0.563039
0.56304
0.563041
0.563041
0.563041
0.563042
0.563043
0.563044
0.563044
0.563044
0.563045
0.563046
0.563047
0.563047
0.563047
0.563048
0.563049
0.563049
0.563049
0.56305
0.563051
0.563052
0.563052
0.563052
0.563053
0.563054
0.563055
0.563055
0.563055
0.563056
0.563057
0.563058
0.563058
0.563058
0.563059
0.56306
0.563061
0.563061
0.563061
0.563062
0.563063
0.563064
0.563065
0.563065
0.563065
0.563066
0.563067
0.563068
0.563068
0.563068
0.563069
0.56307
0.563071
0.563071
0.563072
0.563072
0.563073
0.563074
0.563074
0.563075
0.563076
0.563076
0.563077
0.563077
0.563078
0.563079
0.56308
0.56308
0.56308
0.563081
0.563082
0.563083
0.563084
0.563084
0.563084
0.563085
0.563086
0.563087
0.563087
0.563088
0.563088
0.563089
0.56309
0.56309
0.563091
0.563092
0.563093
0.563093
0.563093
0.563094
0.563095
0.563096
0.563097
0.563097
0.563097
0.563098
0.563099
0.5631
0.5631
0.563101
0.563102
0.563102
0.563103
0.563103
0.563104
0.563105
0.563106
0.563107
0.563107
0.563107
0.563108
0.563109
0.56311
0.56311
0.563111
0.563112
0.563113
0.563114
0.563114
0.563114
0.563115
0.563116
0.563117
0.563117
0.563118
0.563119
0.56312
0.563121
0.563121
0.563121
0.563122
0.563123
0.563124
0.563124
0.563125
0.563126
0.563127
0.563128
0.563128
0.563128
0.563129
0.56313
0.563131
0.563131
0.563132
0.563133
0.563134
0.563135
0.563135
0.563136
0.563137
0.563137
0.563138
0.563138
0.563139
0.56314
0.563141
0.563142
0.563142
0.563143
0.563144
0.563145
0.563146
0.563146
0.563147
0.563147
0.563148
0.563149
0.563149
0.56315
0.563151
0.563152
0.563153
0.563153
0.563154
0.563155
0.563156
0.563157
0.563157
0.563158
0.563159
0.56316
0.56316
0.56316
0.563161
0.563162
0.563163
0.563164
0.563164
0.563165
0.563166
0.563167
0.563168
0.563168
0.563169
0.56317
0.563171
0.563172
0.563172
0.563173
0.563174
0.563175
0.563176
0.563176
0.563177
0.563178
0.563179
0.56318
0.56318
0.563181
0.563182
0.563183
0.563184
0.563184
0.563185
0.563186
0.563187
0.563188
0.563188
0.563189
0.56319
0.563191
0.563192
0.563192
0.563193
0.563194
0.563195
0.563196
0.563196
0.563197
0.563198
0.563199
0.5632
0.5632
0.563201
0.563202
0.563203
0.563204
0.563204
0.563205
0.563206
0.563207
0.563208
0.563208
0.563209
0.56321
0.563211
0.563212
0.563212
0.563213
0.563214
0.563215
0.563216
0.563216
0.563217
0.563218
0.563219
0.56322
0.56322
0.563221
0.563222
0.563223
0.563225
0.563225
0.563226
0.563227
0.563228
0.563229
0.563229
0.56323
0.563231
0.563232
0.563233
0.563233
0.563234
0.563235
0.563236
0.563237
0.563237
0.563238
0.563239
0.563241
0.563242
0.563242
0.563243
0.563244
0.563245
0.563246
0.563246
0.563247
0.563248
0.563249
0.56325
0.56325
0.563251
0.563253
0.563254
0.563255
0.563255
0.563256
0.563257
0.563258
0.563259
0.563259
0.56326
0.563261
0.563262
0.563264
0.563264
0.563265
0.563266
0.563267
0.563268
0.563268
0.563269
0.56327
0.563272
0.563273
0.563273
0.563274
0.563275
0.563276
0.563277
0.563277
0.563278
0.56328
0.563281
0.563282
0.563282
0.563283
0.563284
0.563285
0.563286
0.563286
0.563288
0.563289
0.56329
0.563291
0.563291
0.563292
0.563293
0.563295
0.563296
0.563296
0.563297
0.563298
0.563299
0.563301
0.563301
0.563302
0.563303
0.563304
0.563305
0.563305
0.563306
0.563308
0.563309
0.56331
0.56331
0.563311
0.563312
0.563314
0.563315
0.563315
0.563316
0.563317
0.563318
0.56332
0.56332
0.563321
0.563322
0.563323
0.563325
0.563325
0.563326
0.563327
0.563328
0.563329
0.563329
0.563331
0.563332
0.563333
0.563334
0.563334
0.563336
0.563337
0.563338
0.563339
0.563339
0.563341
0.563342
0.563343
0.563344
0.563344
0.563346
0.563347
0.563348
0.563349
0.563349
0.563351
0.563352
0.563353
0.563354
0.563354
0.563356
0.563357
0.563358
0.56336
0.56336
0.563361
0.563362
0.563363
0.563365
0.563365
0.563366
0.563367
0.563368
0.56337
0.56337
0.563371
0.563372
0.563374
0.563375
0.563375
0.563376
0.563378
0.563379
0.56338
0.56338
0.563382
0.563383
0.563384
0.563386
0.563386
0.563387
0.563388
0.56339
0.563391
0.563391
0.563392
0.563394
0.563395
0.563396
0.563396
0.563398
0.563399
0.5634
0.563402
0.563402
0.563403
0.563404
0.563406
0.563407
0.563407
0.563408
0.56341
0.563411
0.563412
0.563412
0.563414
0.563415
0.563416
0.563418
0.563418
0.563419
0.563421
0.563422
0.563423
0.563423
0.563425
0.563426
0.563427
0.563429
0.563429
0.56343
0.563432
0.563433
0.563434
0.563434
0.563436
0.563437
0.563439
0.56344
0.56344
0.563442
0.563443
0.563444
0.563446
0.563446
0.563447
0.563449
0.56345
0.563451
0.563451
0.563453
0.563454
0.563456
0.563457
0.563457
0.563459
0.56346
0.563462
0.563463
0.563463
0.563464
0.563466
0.563467
0.563469
0.563469
0.56347
0.563472
0.563473
0.563475
0.563475
0.563476
0.563477
0.563479
0.56348
0.56348
0.563482
0.563483
0.563485
0.563486
0.563486
0.563488
0.563489
0.563491
0.563492
0.563492
0.563494
0.563495
0.563497
0.563498
0.563498
0.5635
0.563501
0.563503
0.563504
0.563504
0.563506
0.563507
0.563509
0.56351
0.56351
0.563512
0.563513
0.563515
0.563517
0.563517
0.563518
0.56352
0.563521
0.563523
0.563523
0.563524
0.563526
0.563527
0.563529
0.563529
0.56353
0.563532
0.563533
0.563535
0.563535
0.563537
0.563538
0.56354
0.563541
0.563541
0.563543
0.563544
0.563546
0.563548
0.563548
0.563549
0.563551
0.563552
0.563554
0.563554
0.563555
0.563557
0.563559
0.56356
0.56356
0.563562
0.563564
0.563565
0.563567
0.563567
0.563568
0.56357
0.563572
0.563573
0.563573
0.563575
0.563576
0.563578
0.56358
0.56358
0.563581
0.563583
0.563585
0.563586
0.563586
0.563588
0.56359
0.563591
0.563593
0.563593
0.563594
0.563596
0.563598
0.563599
0.563599
0.563601
0.563603
0.563604
0.563606
0.563606
0.563608
0.563609
0.563611
0.563613
0.563613
0.563614
0.563616
0.563618
0.56362
0.56362
0.563621
0.563623
0.563625
0.563626
0.563626
0.563628
0.56363
0.563632
0.563633
0.563633
0.563635
0.563637
0.563638
0.56364
0.56364
0.563642
0.563644
0.563645
0.563647
0.563647
0.563649
0.56365
0.563652
0.563654
0.563654
0.563656
0.563657
0.563659
0.563661
0.563661
0.563663
0.563664
0.563666
0.563668
0.563668
0.56367
0.563672
0.563673
0.563675
0.563675
0.563677
0.563679
0.56368
0.563682
0.563682
0.563684
0.563686
0.563688
0.563689
0.563689
0.563691
0.563693
0.563695
0.563697
0.563697
0.563699
0.5637
0.563702
0.563704
0.563704
0.563706
0.563708
0.56371
0.563711
0.563711
0.563713
0.563715
0.563717
0.563719
0.563719
0.563721
0.563722
0.563724
0.563726
0.563726
0.563728
0.56373
0.563732
0.563734
0.563734
0.563735
0.563737
0.563739
0.563741
0.563741
0.563743
0.563745
0.563747
0.563749
0.563749
0.563751
0.563752
0.563754
0.563756
0.563756
0.563758
0.56376
0.563762
0.563764
0.563764
0.563766
0.563768
0.56377
0.563772
0.563772
0.563774
0.563776
0.563778
0.563779
0.563779
0.563781
0.563783
0.563785
0.563787
0.563787
0.563789
0.563791
0.563793
0.563795
0.563795
0.563797
0.563799
0.563801
0.563803
0.563803
0.563805
0.563807
0.563809
0.563811
0.563811
0.563813
0.563815
0.563817
0.563819
0.563819
0.563821
0.563823
0.563825
0.563827
0.563827
0.563829
0.563831
0.563833
0.563835
0.563835
0.563837
0.563839
0.563841
0.563843
0.563843
0.563845
0.563847
0.56385
0.563852
0.563852
0.563854
0.563856
0.563858
0.56386
0.56386
0.563862
0.563864
0.563866
0.563868
0.563868
0.56387
0.563872
0.563874
0.563876
0.563876
0.563879
0.563881
0.563883
0.563885
0.563885
0.563887
0.563889
0.563891
0.563893
0.563893
0.563896
0.563898
0.5639
0.563902
0.563902
0.563904
0.563906
0.563908
0.563911
0.563911
0.563913
0.563915
0.563917
0.563919
0.563919
0.563921
0.563924
0.563926
0.563928
0.563928
0.56393
0.563932
0.563934
0.563937
0.563937
0.563939
0.563941
0.563943
0.563945
0.563945
0.563948
0.56395
0.563952
0.563954
0.563954
0.563957
0.563959
0.563961
0.563963
0.563963
0.563965
0.563968
0.56397
0.563972
0.563972
0.563974
0.563977
0.563979
0.563981
0.563981
0.563984
0.563986
0.563988
0.56399
0.56399
0.563993
0.563995
0.563997
0.563999
0.563999
0.564002
0.564004
0.564006
0.564009
0.564009
0.564011
0.564013
0.564016
0.564018
0.564018
0.56402
0.564023
0.564025
0.564027
0.564027
0.56403
0.564032
0.564034
0.564037
0.564037
0.564039
0.564041
0.564044
0.564046
0.564046
0.564049
0.564051
0.564053
0.564056
0.564056
0.564058
0.56406
0.564063
0.564065
0.564065
0.564068
0.56407
0.564072
0.564075
0.564075
0.564077
0.56408
0.564082
0.564085
0.564085
0.564087
0.564089
0.564092
0.564094
0.564094
0.564097
0.564099
0.564102
0.564104
0.564104
0.564107
0.564109
0.564112
0.564114
0.564114
0.564117
0.564119
0.564122
0.564124
0.564124
0.564127
0.564129
0.564132
0.564134
0.564134
0.564137
0.564139
0.564142
0.564144
0.564144
0.564147
0.564149
0.564152
0.564154
0.564154
0.564157
0.564159
0.564162
0.564164
0.564164
0.564167
0.564169
0.564172
0.564175
0.564175
0.564177
0.56418
0.564182
0.564185
0.564185
0.564188
0.56419
0.564193
0.564195
0.564195
0.564198
0.564201
0.564203
0.564206
0.564206
0.564209
0.564211
0.564214
0.564216
0.564216
0.564219
0.564222
0.564224
0.564227
0.564227
0.56423
0.564232
0.564235
0.564238
0.564238
0.56424
0.564243
0.564246
0.564248
0.564248
0.564251
0.564254
0.564257
0.564259
0.564259
0.564262
0.564265
0.564268
0.56427
0.56427
0.564273
0.564276
0.564278
0.564281
0.564281
0.564284
0.564287
0.56429
0.564292
0.564292
0.564295
0.564298
0.564301
0.564303
0.564303
0.564306
0.564309
0.564312
0.564314
0.564314
0.564317
0.56432
0.564323
0.564326
0.564326
0.564329
0.564331
0.564334
0.564337
0.564337
0.56434
0.564343
0.564346
0.564349
0.564349
0.564351
0.564354
0.564357
0.56436
0.56436
0.564363
0.564366
0.564369
0.564372
0.564372
0.564374
0.564377
0.56438
0.564383
0.564383
0.564386
0.564389
0.564392
0.564395
0.564395
0.564398
0.564401
0.564404
0.564407
0.564407
0.56441
0.564413
0.564415
0.564418
0.564418
0.564421
0.564424
0.564427
0.56443
0.56443
0.564433
0.564436
0.564439
0.564443
0.564443
0.564446
0.564449
0.564452
0.564455
0.564455
0.564458
0.564461
0.564464
0.564467
0.564467
0.56447
0.564473
0.564476
0.564479
0.564479
0.564482
0.564485
0.564488
0.564491
0.564491
0.564494
0.564497
0.564501
0.564504
0.564504
0.564507
0.56451
0.564513
0.564516
0.564516
0.564519
0.564523
0.564526
0.564529
0.564529
0.564532
0.564535
0.564538
0.564542
0.564542
0.564545
0.564548
0.564551
0.564554
0.564554
0.564558
0.564561
0.564564
0.564567
0.564567
0.56457
0.564574
0.564577
0.56458
0.56458
0.564583
0.564586
0.56459
0.564593
0.564593
0.564596
0.5646
0.564603
0.564606
0.564606
0.564609
0.564613
0.564616
0.564619
0.564619
0.564623
0.564626
0.564629
0.564633
0.564633
0.564636
0.564639
0.564643
0.564646
0.564646
0.564649
0.564653
0.564656
0.564659
0.564659
0.564663
0.564666
0.56467
0.564673
0.564673
0.564676
0.56468
0.564683
0.564687
0.564687
0.56469
0.564694
0.564697
0.5647
0.5647
0.564704
0.564707
0.564711
0.564714
0.564714
0.564718
0.564721
0.564725
0.564728
0.564728
0.564732
0.564735
0.564739
0.564742
0.564742
0.564746
0.564749
0.564753
0.564756
0.564756
0.56476
0.564763
0.564767
0.56477
0.56477
0.564774
0.564778
0.564781
0.564785
0.564785
0.564788
0.564792
0.564796
0.564799
0.564799
0.564803
0.564806
0.56481
0.564814
0.564814
0.564817
0.564821
0.564825
0.564828
0.564828
0.564832
0.564836
0.564839
0.564843
0.564843
0.564847
0.56485
0.564854
0.564858
0.564858
0.564861
0.564865
0.564869
0.564873
0.564873
0.564876
0.56488
0.564884
0.564888
0.564888
0.564891
0.564895
0.564899
0.564903
0.564903
0.564907
0.56491
0.564914
0.564918
0.564918
0.564922
0.564926
0.564929
0.564933
0.564933
0.564937
0.564941
0.564945
0.564949
0.564949
0.564953
0.564956
0.56496
0.564964
0.564964
0.564968
0.564972
0.564976
0.56498
0.56498
0.564984
0.564988
0.564992
0.564996
0.564996
0.565
0.565004
0.565008
0.565012
0.565012
0.565015
0.565019
0.565023
0.565027
0.565027
0.565031
0.565035
0.565039
0.565044
0.565044
0.565048
0.565052
0.565056
0.56506
0.56506
0.565064
0.565068
0.565072
0.565076
0.565076
0.56508
0.565084
0.565088
0.565092
0.565092
0.565097
0.565101
0.565105
0.565109
0.565109
0.565113
0.565117
0.565121
0.565126
0.565126
0.56513
0.565134
0.565138
0.565142
0.565142
0.565147
0.565151
0.565155
0.565159
0.565159
0.565163
0.565168
0.565172
0.565176
0.565176
0.56518
0.565185
0.565189
0.565193
0.565193
0.565198
0.565202
0.565206
0.565211
0.565211
0.565215
0.565219
0.565224
0.565228
0.565228
0.565232
0.565237
0.565241
0.565245
0.565245
0.56525
0.565254
0.565259
0.565263
0.565263
0.565267
0.565272
0.565276
0.565281
0.565281
0.565285
0.56529
0.565294
0.565299
0.565299
0.565303
0.565308
0.565312
0.565317
0.565317
0.565321
0.565326
0.56533
0.565335
0.565335
0.565339
0.565344
0.565348
0.565353
0.565353
0.565358
0.565362
0.565367
0.565371
0.565371
0.565376
0.56538
0.565385
0.56539
0.56539
0.565394
0.565399
0.565404
0.565408
0.565408
0.565413
0.565418
0.565423
0.565427
0.565427
0.565432
0.565437
0.565441
0.565446
0.565446
0.565451
0.565456
0.56546
0.565465
0.565465
0.56547
0.565475
0.56548
0.565484
0.565484
0.565489
0.565494
0.565499
0.565504
0.565504
0.565508
0.565513
0.565518
0.565523
0.565523
0.565528
0.565533
0.565538
0.565543
0.565543
0.565548
0.565553
0.565558
0.565562
0.565562
0.565567
0.565572
0.565577
0.565582
0.565582
0.565587
0.565592
0.565597
0.565602
0.565602
0.565607
0.565612
0.565617
0.565622
0.565622
0.565628
0.565633
0.565638
0.565643
0.565643
0.565648
0.565653
0.565658
0.565663
0.565663
0.565668
0.565674
0.565679
0.565684
0.565684
0.565689
0.565694
0.5657
0.565705
0.565705
0.56571
0.565715
0.56572
0.565726
0.565726
0.565731
0.565736
0.565741
0.565747
0.565747
0.565752
0.565757
0.565763
0.565768
0.565768
0.565773
0.565779
0.565784
0.565789
0.565789
0.565795
0.5658
0.565805
0.565811
0.565811
0.565816
0.565822
0.565827
0.565833
0.565833
0.565838
0.565843
0.565849
0.565854
0.565854
0.56586
0.565865
0.565871
0.565876
0.565876
0.565882
0.565887
0.565893
0.565899
0.565899
0.565904
0.56591
0.565915
0.565921
0.565921
0.565927
0.565932
0.565938
0.565944
0.565944
0.565949
0.565955
0.565961
0.565966
0.565966
0.565972
0.565978
0.565983
0.565989
0.565989
0.565995
0.566
0.566006
0.566012
0.566012
0.566018
0.566024
0.566029
0.566035
0.566035
0.566041
0.566047
0.566053
0.566059
0.566059
0.566065
0.56607
0.566076
0.566082
0.566082
0.566088
0.566094
0.5661
0.566106
0.566106
0.566112
0.566118
0.566124
0.56613
0.56613
0.566136
0.566142
0.566148
0.566154
0.566154
0.56616
0.566166
0.566172
0.566178
0.566178
0.566184
0.56619
0.566197
0.566203
0.566203
0.566209
0.566215
0.566221
0.566227
0.566227
0.566234
0.56624
0.566246
0.566252
0.566252
0.566258
0.566265
0.566271
0.566277
0.566277
0.566283
0.56629
0.566296
0.566302
0.566302
0.566309
0.566315
0.566321
0.566328
0.566328
0.566334
0.566341
0.566347
0.566353
0.566353
0.56636
0.566366
0.566373
0.566379
0.566379
0.566386
0.566392
0.566399
0.566405
0.566405
0.566412
0.566418
0.566425
0.566431
0.566431
0.566438
0.566445
0.566451
0.566458
0.566458
0.566464
0.566471
0.566478
0.566484
0.566484
0.566491
0.566498
0.566505
0.566511
0.566511
0.566518
0.566525
0.566531
0.566538
0.566538
0.566545
0.566552
0.566559
0.566565
0.566565
0.566572
0.566579
0.566586
0.566593
0.566593
0.5666
0.566607
0.566614
0.566621
0.566621
0.566627
0.566634
0.566641
0.566648
0.566648
0.566655
0.566662
0.566669
0.566676
0.566676
0.566684
0.566691
0.566698
0.566705
0.566705
0.566712
0.566719
0.566726
0.566733
0.566733
0.56674
0.566748
0.566755
0.566762
0.566762
0.566769
0.566777
0.566784
0.566791
0.566791
0.566798
0.566806
0.566813
0.56682
0.56682
0.566828
0.566835
0.566842
0.56685
0.56685
0.566857
0.566864
0.566872
0.566879
0.566879
0.566887
0.566894
0.566902
0.566909
0.566909
0.566917
0.566924
0.566932
0.566939
0.566939
0.566947
0.566955
0.566962
0.56697
0.56697
0.566977
0.566985
0.566993
0.567
0.567
0.567008
0.567016
0.567023
0.567031
0.567031
0.567039
0.567047
0.567054
0.567062
0.567062
0.56707
0.567078
0.567086
0.567094
0.567094
0.567102
0.567109
0.567117
0.567125
0.567125
0.567133
0.567141
0.567149
0.567157
0.567157
0.567165
0.567173
0.567181
0.567189
0.567189
0.567197
0.567205
0.567213
0.567222
0.567222
0.56723
0.567238
0.567246
0.567254
0.567254
0.567262
0.567271
0.567279
0.567287
0.567287
0.567295
0.567304
0.567312
0.56732
0.56732
0.567329
0.567337
0.567345
0.567354
0.567354
0.567362
0.56737
0.567379
0.567387
0.567387
0.567396
0.567404
0.567413
0.567421
0.567421
0.56743
0.567439
0.567447
0.567456
0.567456
0.567464
0.567473
0.567482
0.56749
0.56749
0.567499
0.567508
0.567516
0.567525
0.567525
0.567534
0.567542
0.567551
0.56756
0.56756
0.567569
0.567578
0.567587
0.567595
0.567595
0.567604
0.567613
0.567622
0.567631
0.567631
0.56764
0.567649
0.567658
0.567667
0.567667
0.567676
0.567685
0.567694
0.567703
0.567703
0.567712
0.567722
0.567731
0.56774
0.56774
0.567749
0.567758
0.567768
0.567777
0.567777
0.567786
0.567795
0.567805
0.567814
0.567814
0.567823
0.567833
0.567842
0.567851
0.567851
0.567861
0.56787
0.56788
0.567889
0.567889
0.567899
0.567908
0.567918
0.567927
0.567927
0.567937
0.567946
0.567956
0.567966
0.567966
0.567975
0.567985
0.567995
0.568005
0.568005
0.568014
0.568024
0.568034
0.568044
0.568044
0.568053
0.568063
0.568073
0.568083
0.568083
0.568093
0.568103
0.568113
0.568123
0.568123
0.568133
0.568143
0.568153
0.568163
0.568163
0.568173
0.568183
0.568193
0.568203
0.568203
0.568213
0.568223
0.568234
0.568244
0.568244
0.568254
0.568264
0.568275
0.568285
0.568285
0.568295
0.568306
0.568316
0.568326
0.568326
0.568337
0.568347
0.568358
0.568368
0.568368
0.568379
0.568389
0.5684
0.56841
0.56841
0.568421
0.568431
0.568442
0.568453
0.568453
0.568463
0.568474
0.568485
0.568496
0.568496
0.568506
0.568517
0.568528
0.568539
0.568539
0.56855
0.56856
0.568571
0.568582
0.568582
0.568593
0.568604
0.568615
0.568626
0.568626
0.568637
0.568648
0.56866
0.568671
0.568671
0.568682
0.568693
0.568704
0.568715
0.568715
0.568726
0.568738
0.568749
0.56876
0.56876
0.568772
0.568783
0.568794
0.568806
0.568806
0.568817
0.568829
0.56884
0.568852
0.568852
0.568863
0.568875
0.568886
0.568898
0.568898
0.56891
0.568921
0.568933
0.568945
0.568945
0.568956
0.568968
0.56898
0.568992
0.568992
0.569003
0.569015
0.569027
0.569039
0.569039
0.569051
0.569063
0.569075
0.569087
0.569087
0.569099
0.569111
0.569123
0.569135
0.569135
0.569147
0.56916
0.569172
0.569184
0.569184
0.569196
0.569208
0.569221
0.569233
0.569233
0.569245
0.569258
0.56927
0.569283
0.569283
0.569295
0.569308
0.56932
0.569333
0.569333
0.569345
0.569358
0.56937
0.569383
0.569383
0.569396
0.569408
0.569421
0.569434
0.569434
0.569447
0.569459
0.569472
0.569485
0.569485
0.569498
0.569511
0.569524
0.569537
0.569537
0.56955
0.569563
0.569576
0.569589
0.569589
0.569602
0.569616
0.569629
0.569642
0.569642
0.569655
0.569668
0.569682
0.569695
0.569695
0.569708
0.569722
0.569735
0.569749
0.569749
0.569762
0.569776
0.569789
0.569803
0.569803
0.569816
0.56983
0.569844
0.569857
0.569857
0.569871
0.569885
0.569899
0.569912
0.569912
0.569926
0.56994
0.569954
0.569968
0.569968
0.569982
0.569996
0.57001
0.570024
0.570024
0.570038
0.570052
0.570066
0.57008
0.57008
0.570095
0.570109
0.570123
0.570137
0.570137
0.570152
0.570166
0.57018
0.570195
0.570195
0.570209
0.570224
0.570238
0.570253
0.570253
0.570268
0.570282
0.570297
0.570312
0.570312
0.570326
0.570341
0.570356
0.570371
0.570371
0.570385
0.5704
0.570415
0.57043
0.57043
0.570445
0.57046
0.570475
0.57049
0.57049
0.570505
0.570521
0.570536
0.570551
0.570551
0.570566
0.570582
0.570597
0.570612
0.570612
0.570628
0.570643
0.570659
0.570674
0.570674
0.57069
0.570705
0.570721
0.570736
0.570736
0.570752
0.570768
0.570783
0.570799
0.570799
0.570815
0.570831
0.570847
0.570863
0.570863
0.570879
0.570895
0.570911
0.570927
0.570927
0.570943
0.570959
0.570975
0.570991
0.570991
0.571008
0.571024
0.57104
0.571057
0.571057
0.571073
0.571089
0.571106
0.571122
0.571122
0.571139
0.571155
0.571172
0.571189
0.571189
0.571205
0.571222
0.571239
0.571256
0.571256
0.571273
0.571289
0.571306
0.571323
0.571323
0.57134
0.571357
0.571374
0.571391
0.571391
0.571409
0.571426
0.571443
0.57146
0.57146
0.571478
0.571495
0.571512
0.57153
0.57153
0.571547
0.571565
0.571582
0.5716
0.5716
0.571617
0.571635
0.571653
0.571671
0.571671
0.571688
0.571706
0.571724
0.571742
0.571742
0.57176
0.571778
0.571796
0.571814
0.571814
0.571832
0.57185
0.571868
0.571887
0.571887
0.571905
0.571923
0.571942
0.57196
0.57196
0.571978
0.571997
0.572015
0.572034
0.572034
0.572053
0.572071
0.57209
0.572109
0.572109
0.572127
0.572146
0.572165
0.572184
0.572184
0.572203
0.572222
0.572241
0.57226
0.57226
0.572279
0.572298
0.572318
0.572337
0.572337
0.572356
0.572375
0.572395
0.572414
0.572414
0.572434
0.572453
0.572473
0.572493
0.572493
0.572512
0.572532
0.572552
0.572571
0.572571
0.572591
0.572611
0.572631
0.572651
0.572651
0.572671
0.572691
0.572711
0.572731
0.572731
0.572752
0.572772
0.572792
0.572813
0.572813
0.572833
0.572853
0.572874
0.572894
0.572894
0.572915
0.572936
0.572956
0.572977
0.572977
0.572998
0.573018
0.573039
0.57306
0.57306
0.573081
0.573102
0.573123
0.573144
0.573144
0.573166
0.573187
0.573208
0.573229
0.573229
0.573251
0.573272
0.573294
0.573315
0.573315
0.573337
0.573358
0.57338
0.573401
0.573401
0.573423
0.573445
0.573467
0.573489
0.573489
0.573511
0.573533
0.573555
0.573577
0.573577
0.573599
0.573621
0.573643
0.573666
0.573666
0.573688
0.573711
0.573733
0.573755
0.573755
0.573778
0.573801
0.573823
0.573846
0.573846
0.573869
0.573892
0.573915
0.573937
0.573937
0.57396
0.573983
0.574007
0.57403
0.57403
0.574053
0.574076
0.574099
0.574123
0.574123
0.574146
0.57417
0.574193
0.574217
0.574217
0.57424
0.574264
0.574288
0.574312
0.574312
0.574335
0.574359
0.574383
0.574407
0.574407
0.574431
0.574455
0.57448
0.574504
0.574504
0.574528
0.574552
0.574577
0.574601
0.574601
0.574626
0.57465
0.574675
0.5747
0.5747
0.574724
0.574749
0.574774
0.574799
0.574799
0.574824
0.574849
0.574874
0.574899
0.574899
0.574924
0.574949
0.574975
0.575
0.575
0.575026
0.575051
0.575077
0.575102
0.575102
0.575128
0.575154
0.575179
0.575205
0.575205
0.575231
0.575257
0.575283
0.575309
0.575309
0.575335
0.575361
0.575388
0.575414
0.575414
0.57544
0.575467
0.575493
0.57552
0.57552
0.575547
0.575573
0.5756
0.575627
0.575627
0.575654
0.575681
0.575708
0.575735
0.575735
0.575762
0.575789
0.575816
0.575843
0.575843
0.575871
0.575898
0.575926
0.575953
0.575953
0.575981
0.576009
0.576036
0.576064
0.576064
0.576092
0.57612
0.576148
0.576176
0.576176
0.576204
0.576232
0.57626
0.576289
0.576289
0.576317
0.576346
0.576374
0.576403
0.576403
0.576431
0.57646
0.576489
0.576518
0.576518
0.576547
0.576576
0.576605
0.576634
0.576634
0.576663
0.576692
0.576721
0.576751
0.576751
0.57678
0.57681
0.576839
0.576869
0.576869
0.576899
0.576928
0.576958
0.576988
0.576988
0.577018
0.577048
0.577078
0.577108
0.577108
0.577139
0.577169
0.577199
0.57723
0.57723
0.57726
0.577291
0.577321
0.577352
0.577352
0.577383
0.577414
0.577445
0.577476
0.577476
0.577507
0.577538
0.577569
0.577601
0.577601
0.577632
0.577663
0.577695
0.577726
0.577726
0.577758
0.57779
0.577821
0.577853
0.577853
0.577885
0.577917
0.577949
0.577981
0.577981
0.578014
0.578046
0.578078
0.578111
0.578111
0.578143
0.578176
0.578208
0.578241
0.578241
0.578274
0.578307
0.57834
0.578373
0.578373
0.578406
0.578439
0.578472
0.578506
0.578506
0.578539
0.578572
0.578606
0.57864
0.57864
0.578673