<?xml version="1.0"?>
<VTKFile type="UnstructuredGrid" version="0.1" byte_order="LittleEndian">
<UnstructuredGrid>
<Piece NumberOfPoints="5000" NumberOfCells="4000">
<PointData Scalars="Reaction 0">
<DataArray type="Float32" Name="Reaction 0" format="ascii">
0.185887
0.185887
0.185887
0.185887
0.185887
0.185887
0.185887
0.185888
0.185888
0.185888
0.185888
0.185888
0.185889
0.185889
0.185889
0.185889
0.18589
0.18589
0.185891
0.185891
0.185891
0.185892
0.185893
0.185893
0.185894
0.185894
0.185895
0.185895
0.185896
0.185897
0.185897
0.185898
0.185899
0.185899
0.1859
0.1859
0.185901
0.185902
0.185903
0.185904
0.185904
0.185906
0.185907
0.185908
0.185909
0.185909
0.18591
0.185912
0.185913
0.185914
0.185914
0.185916
0.185917
0.185919
0.18592
0.18592
0.185922
0.185923
0.185925
0.185926
0.185926
0.185928
0.18593
0.185931
0.185933
0.185933
0.185935
0.185937
0.185939
0.185941
0.185941
0.185942
0.185944
0.185946
0.185948
0.185948
0.18595
0.185953
0.185955
0.185957
0.185957
0.185959
0.185961
0.185964
0.185966
0.185966
0.185968
0.185971
0.185973
0.185975
0.185975
0.185978
0.18598
0.185983
0.185986
0.185986
0.185988
0.185991
0.185993
0.185996
0.185996
0.185999
0.186002
0.186005
0.186007
0.186007
0.18601
0.186013
0.186016
0.186019
0.186019
0.186022
0.186025
0.186028
0.186031
0.186031
0.186035
0.186038
0.186041
0.186044
0.186044
0.186048
0.186051
0.186054
0.186058
0.186058
0.186061
0.186064
0.186068
0.186072
0.186072
0.186075
0.186079
0.186082
0.186086
0.186086
0.18609
0.186093
0.186097
0.186101
0.186101
0.186105
0.186109
0.186113
0.186117
0.186117
0.186121
0.186125
0.186129
0.186133
0.186133
0.186137
0.186141
0.186145
0.186149
0.186149
0.186154
0.186158
0.186162
0.186166
0.186166
0.186171
0.186175
0.18618
0.186184
0.186184
0.186189
0.186193
0.186198
0.186203
0.186203
0.186207
0.186212
0.186217
0.186221
0.186221
0.186226
0.186231
0.186236
0.186241
0.186241
0.186246
0.186251
0.186256
0.186261
0.186261
0.186266
0.186271
0.186276
0.186281
0.186281
0.186286
0.186292
0.186297
0.186302
0.186302
0.186307
0.186313
0.186318
0.186324
0.186324
0.186329
0.186335
0.18634
0.186346
0.186346
0.186351
0.186357
0.186363
0.186368
0.186368
0.186374
0.18638
0.186386
0.186392
0.186392
0.186398
0.186403
0.186409
0.186415
0.186415
0.186421
0.186427
0.186434
0.18644
0.18644
0.186446
0.186452
0.186458
0.186465
0.186465
0.186471
0.186477
0.186484
0.18649
0.18649
0.186496
0.186503
0.186509
0.186516
0.186516
0.186522
0.186529
0.186536
0.186542
0.186542
0.186549
0.186556
0.186563
0.186569
0.186569
0.186576
0.186583
0.18659
0.186597
0.186597
0.186604
0.186611
0.186618
0.186625
0.186625
0.186632
0.186639
0.186646
0.186654
0.186654
0.186661
0.186668
0.186676
0.186683
0.186683
0.18669
0.186698
0.186705
0.186713
0.186713
0.18672
0.186728
0.186735
0.186743
0.186743
0.186751
0.186758
0.186766
0.186774
0.186774
0.186782
0.186789
0.186797
0.186805
0.186805
0.186813
0.186821
0.186829
0.186837
0.186837
0.186845
0.186853
0.186861
0.18687
0.18687
0.186878
0.186886
0.186894
0.186903
0.186903
0.186911
0.186919
0.186928
0.186936
0.186936
0.186945
0.186953
0.186962
0.18697
0.18697
0.186979
0.186988
0.186996
0.187005
0.187005
0.187014
0.187023
0.187031
0.18704
0.18704
0.187049
0.187058
0.187067
0.187076
0.187076
0.187085
0.187094
0.187103
0.187112
0.187112
0.187121
0.187131
0.18714
0.187149
0.187149
0.187158
0.187168
0.187177
0.187187
0.187187
0.187196
0.187205
0.187215
0.187225
0.187225
0.187234
0.187244
0.187253
0.187263
0.187263
0.187273
0.187282
0.187292
0.187302
0.187302
0.187312
0.187322
0.187332
0.187342
0.187342
0.187352
0.187362
0.187372
0.187382
0.187382
0.187392
0.187402
0.187412
0.187422
0.187422
0.187433
0.187443
0.187453
0.187464
0.187464
0.187474
0.187485
0.187495
0.187505
0.187505
0.187516
0.187527
0.187537
0.187548
0.187548
0.187558
0.187569
0.18758
0.187591
0.187591
0.187601
0.187612
0.187623
0.187634
0.187634
0.187645
0.187656
0.187667
0.187678
0.187678
0.187689
0.1877
0.187711
0.187723
0.187723
0.187734
0.187745
0.187756
0.187768
0.187768
0.187779
0.18779
0.187802
0.187813
0.187813
0.187825
0.187836
0.187848
0.187859
0.187859
0.187871
0.187883
0.187894
0.187906
0.187906
0.187918
0.18793
0.187941
0.187953
0.187953
0.187965
0.187977
0.187989
0.188001
0.188001
0.188013
0.188025
0.188037
0.188049
0.188049
0.188062
0.188074
0.188086
0.188098
0.188098
0.188111
0.188123
0.188135
0.188148
0.188148
0.18816
0.188173
0.188185
0.188198
0.188198
0.18821
0.188223
0.188236
0.188248
0.188248
0.188261
0.188274
0.188286
0.188299
0.188299
0.188312
0.188325
0.188338
0.188351
0.188351
0.188364
0.188377
0.18839
0.188403
0.188403
0.188416
0.188429
0.188443
0.188456
0.188456
0.188469
0.188482
0.188496
0.188509
0.188509
0.188522
0.188536
0.188549
0.188563
0.188563
0.188576
0.18859
0.188604
0.188617
0.188617
0.188631
0.188645
0.188658
0.188672
0.188672
0.188686
0.1887
0.188714
0.188728
0.188728
0.188741
0.188755
0.188769
0.188783
0.188783
0.188798
0.188812
0.188826
0.18884
0.18884
0.188854
0.188869
0.188883
0.188897
0.188897
0.188911
0.188926
0.18894
0.188955
0.188955
0.188969
0.188984
0.188998
0.189013
0.189013
0.189028
0.189042
0.189057
0.189072
0.189072
0.189086
0.189101
0.189116
0.189131
0.189131
0.189146
0.189161
0.189176
0.189191
0.189191
0.189206
0.189221
0.189236
0.189251
0.189251
0.189266
0.189282
0.189297
0.189312
0.189312
0.189327
0.189343
0.189358
0.189374
0.189374
0.189389
0.189404
0.18942
0.189436
0.189436
0.189451
0.189467
0.189482
0.189498
0.189498
0.189514
0.18953
0.189545
0.189561
0.189561
0.189577
0.189593
0.189609
0.189625
0.189625
0.189641
0.189657
0.189673
0.189689
0.189689
0.189705
0.189721
0.189738
0.189754
0.189754
0.18977
0.189786
0.189803
0.189819
0.189819
0.189836
0.189852
0.189868
0.189885
0.189885
0.189901
0.189918
0.189935
0.189951
0.189951
0.189968
0.189985
0.190001
0.190018
0.190018
0.190035
0.190052
0.190069
0.190086
0.190086
0.190103
0.19012
0.190137
0.190154
0.190154
0.190171
0.190188
0.190205
0.190222
0.190222
0.19024
0.190257
0.190274
0.190292
0.190292
0.190309
0.190326
0.190344
0.190361
0.190361
0.190379
0.190396
0.190414
0.190431
0.190431
0.190449
0.190467
0.190484
0.190502
0.190502
0.19052
0.190538
0.190556
0.190574
0.190574
0.190591
0.190609
0.190627
0.190645
0.190645
0.190663
0.190682
0.1907
0.190718
0.190718
0.190736
0.190754
0.190772
0.190791
0.190791
0.190809
0.190827
0.190846
0.190864
0.190864
0.190883
0.190901
0.19092
0.190938
0.190938
0.190957
0.190976
0.190994
0.191013
0.191013
0.191032
0.19105
0.191069
0.191088
0.191088
0.191107
0.191126
0.191145
0.191164
0.191164
0.191183
0.191202
0.191221
0.19124
0.19124
0.191259
0.191278
0.191298
0.191317
0.191317
0.191336
0.191355
0.191375
0.191394
0.191394
0.191414
0.191433
0.191453
0.191472
0.191472
0.191492
0.191511
0.191531
0.191551
0.191551
0.19157
0.19159
0.19161
0.19163
0.19163
0.191649
0.191669
0.191689
0.191709
0.191709
0.191729
0.191749
0.191769
0.191789
0.191789
0.191809
0.191829
0.19185
0.19187
0.19187
0.19189
0.19191
0.191931
0.191951
0.191951
0.191971
0.191992
0.192012
0.192033
0.192033
0.192053
0.192074
0.192094
0.192115
0.192115
0.192136
0.192156
0.192177
0.192198
0.192198
0.192219
0.19224
0.19226
0.192281
0.192281
0.192302
0.192323
0.192344
0.192365
0.192365
0.192386
0.192407
0.192429
0.19245
0.19245
0.192471
0.192492
0.192513
0.192535
0.192535
0.192556
0.192577
0.192599
0.19262
0.19262
0.192642
0.192663
0.192685
0.192706
0.192706
0.192728
0.19275
0.192771
0.192793
0.192793
0.192815
0.192837
0.192859
0.19288
0.19288
0.192902
0.192924
0.192946
0.192968
0.192968
0.19299
0.193012
0.193034
0.193056
0.193056
0.193079
0.193101
0.193123
0.193145
0.193145
0.193168
0.19319
0.193212
0.193235
0.193235
0.193257
0.19328
0.193302
0.193325
0.193325
0.193347
0.19337
0.193393
0.193415
0.193415
0.193438
0.193461
0.193484
0.193506
0.193506
0.193529
0.193552
0.193575
0.193598
0.193598
0.193621
0.193644
0.193667
0.19369
0.19369
0.193713
0.193736
0.19376
0.193783
0.193783
0.193806
0.193829
0.193853
0.193876
0.193876
0.1939
0.193923
0.193946
0.19397
0.19397
0.193993
0.194017
0.194041
0.194064
0.194064
0.194088
0.194112
0.194135
0.194159
0.194159
0.194183
0.194207
0.194231
0.194255
0.194255
0.194279
0.194303
0.194327
0.194351
0.194351
0.194375
0.194399
0.194423
0.194447
0.194447
0.194471
0.194496
0.19452
0.194544
0.194544
0.194569
0.194593
0.194618
0.194642
0.194642
0.194667
0.194691
0.194716
0.19474
0.19474
0.194765
0.19479
0.194814
0.194839
0.194839
0.194864
0.194889
0.194913
0.194938
0.194938
0.194963
0.194988
0.195013
0.195038
0.195038
0.195063
0.195088
0.195113
0.195139
0.195139
0.195164
0.195189
0.195214
0.19524
0.19524
0.195265
0.19529
0.195316
0.195341
0.195341
0.195367
0.195392
0.195418
0.195443
0.195443
0.195469
0.195494
0.19552
0.195546
0.195546
0.195571
0.195597
0.195623
0.195649
0.195649
0.195675
0.195701
0.195727
0.195753
0.195753
0.195779
0.195805
0.195831
0.195857
0.195857
0.195883
0.195909
0.195935
0.195962
0.195962
0.195988
0.196014
0.196041
0.196067
0.196067
0.196093
0.19612
0.196146
0.196173
0.196173
0.1962
0.196226
0.196253
0.196279
0.196279
0.196306
0.196333
0.19636
0.196386
0.196386
0.196413
0.19644
0.196467
0.196494
0.196494
0.196521
0.196548
0.196575
0.196602
0.196602
0.196629
0.196656
0.196684
0.196711
0.196711
0.196738
0.196765
0.196793
0.19682
0.19682
0.196847
0.196875
0.196902
0.19693
0.19693
0.196957
0.196985
0.197012
0.19704
0.19704
0.197068
0.197095
0.197123
0.197151
0.197151
0.197179
0.197207
0.197234
0.197262
0.197262
0.19729
0.197318
0.197346
0.197374
0.197374
0.197402
0.197431
0.197459
0.197487
0.197487
0.197515
0.197543
0.197572
0.1976
0.1976
0.197628
0.197657
0.197685
0.197714
0.197714
0.197742
0.197771
0.197799
0.197828
0.197828
0.197856
0.197885
0.197914
0.197942
0.197942
0.197971
0.198
0.198029
0.198058
0.198058
0.198087
0.198116
0.198145
0.198174
0.198174
0.198203
0.198232
0.198261
0.19829
0.19829
0.198319
0.198348
0.198378
0.198407
0.198407
0.198436
0.198466
0.198495
0.198524
0.198524
0.198554
0.198583
0.198613
0.198642
0.198642
0.198672
0.198702
0.198731
0.198761
0.198761
0.198791
0.19882
0.19885
0.19888
0.19888
0.19891
0.19894
0.19897
0.199
0.199
0.19903
0.19906
0.19909
0.19912
0.19912
0.19915
0.19918
0.199211
0.199241
0.199241
0.199271
0.199301
0.199332
0.199362
0.199362
0.199393
0.199423
0.199453
0.199484
0.199484
0.199515
0.199545
0.199576
0.199606
0.199606
0.199637
0.199668
0.199699
0.199729
0.199729
0.19976
0.199791
0.199822
0.199853
0.199853
0.199884
0.199915
0.199946
0.199977
0.199977
0.200008
0.200039
0.20007
0.200102
0.200102
0.200133
0.200164
0.200196
0.200227
0.200227
0.200258
0.20029
0.200321
0.200353
0.200353
0.200384
0.200416
0.200447
0.200479
0.200479
0.200511
0.200542
0.200574
0.200606
0.200606
0.200638
0.200669
0.200701
0.200733
0.200733
0.200765
0.200797
0.200829
0.200861
0.200861
0.200893
0.200925
0.200958
0.20099
0.20099
0.201022
0.201054
0.201086
0.201119
0.201119
0.201151
0.201183
0.201216
0.201248
0.201248
0.201281
0.201313
0.201346
0.201379
0.201379
0.201411
0.201444
0.201477
0.201509
0.201509
0.201542
0.201575
0.201608
0.201641
0.201641
0.201673
0.201706
0.201739
0.201772
0.201772
0.201805
0.201838
0.201872
0.201905
0.201905
0.201938
0.201971
0.202004
0.202038
0.202038
0.202071
0.202104
0.202138
0.202171
0.202171
0.202205
0.202238
0.202272
0.202305
0.202305
0.202339
0.202372
0.202406
0.20244
0.20244
0.202473
0.202507
0.202541
0.202575
0.202575
0.202609
0.202643
0.202677
0.202711
0.202711
0.202745
0.202779
0.202813
0.202847
0.202847
0.202881
0.202915
0.202949
0.202984
0.202984
0.203018
0.203052
0.203087
0.203121
0.203121
0.203155
0.20319
0.203224
0.203259
0.203259
0.203293
0.203328
0.203363
0.203397
0.203397
0.203432
0.203467
0.203501
0.203536
0.203536
0.203571
0.203606
0.203641
0.203676
0.203676
0.203711
0.203746
0.203781
0.203816
0.203816
0.203851
0.203886
0.203921
0.203957
0.203957
0.203992
0.204027
0.204062
0.204098
0.204098
0.204133
0.204169
0.204204
0.20424
0.20424
0.204275
0.204311
0.204346
0.204382
0.204382
0.204418
0.204453
0.204489
0.204525
0.204525
0.204561
0.204596
0.204632
0.204668
0.204668
0.204704
0.20474
0.204776
0.204812
0.204812
0.204848
0.204884
0.204921
0.204957
0.204957
0.204993
0.205029
0.205066
0.205102
0.205102
0.205138
0.205175
0.205211
0.205248
0.205248
0.205284
0.205321
0.205357
0.205394
0.205394
0.20543
0.205467
0.205504
0.20554
0.20554
0.205577
0.205614
0.205651
0.205688
0.205688
0.205725
0.205762
0.205799
0.205836
0.205836
0.205873
0.20591
0.205947
0.205984
0.205984
0.206021
0.206058
0.206096
0.206133
0.206133
0.20617
0.206208
0.206245
0.206283
0.206283
0.20632
0.206357
0.206395
0.206433
0.206433
0.20647
0.206508
0.206545
0.206583
0.206583
0.206621
0.206659
0.206697
0.206734
0.206734
0.206772
0.20681
0.206848
0.206886
0.206886
0.206924
0.206962
0.207
0.207038
0.207038
0.207077
0.207115
0.207153
0.207191
0.207191
0.20723
0.207268
0.207306
0.207345
0.207345
0.207383
0.207422
0.20746
0.207499
0.207499
0.207537
0.207576
0.207614
0.207653
0.207653
0.207692
0.207731
0.207769
0.207808
0.207808
0.207847
0.207886
0.207925
0.207964
0.207964
0.208003
0.208042
0.208081
0.20812
0.20812
0.208159
0.208198
0.208237
0.208277
0.208277
0.208316
0.208355
0.208395
0.208434
0.208434
0.208473
0.208513
0.208552
0.208592
0.208592
0.208631
0.208671
0.208711
0.20875
0.20875
0.20879
0.20883
0.208869
0.208909
0.208909
0.208949
0.208989
0.209029
0.209069
0.209069
0.209109
0.209149
0.209189
0.209229
0.209229
0.209269
0.209309
0.209349
0.209389
0.209389
0.209429
0.20947
0.20951
0.20955
0.20955
0.209591
0.209631
0.209672
0.209712
0.209712
0.209753
0.209793
0.209834
0.209874
0.209874
0.209915
0.209956
0.209996
0.210037
0.210037
0.210078
0.210119
0.21016
0.210201
0.210201
0.210241
0.210282
0.210323
0.210365
0.210365
0.210406
0.210447
0.210488
0.210529
0.210529
0.21057
0.210611
0.210653
0.210694
0.210694
0.210735
0.210777
0.210818
0.21086
0.21086
0.210901
0.210943
0.210984
0.211026
0.211026
0.211067
0.211109
0.211151
0.211192
0.211192
0.211234
0.211276
0.211318
0.21136
0.21136
0.211402
0.211444
0.211486
0.211528
0.211528
0.21157
0.211612
0.211654
0.211696
0.211696
0.211738
0.21178
0.211823
0.211865
0.211865
0.211907
0.21195
0.211992
0.212034
0.212034
0.212077
0.212119
0.212162
0.212204
0.212204
0.212247
0.21229
0.212332
0.212375
0.212375
0.212418
0.21246
0.212503
0.212546
0.212546
0.212589
0.212632
0.212675
0.212718
0.212718
0.212761
0.212804
0.212847
0.21289
0.21289
0.212933
0.212976
0.21302
0.213063
0.213063
0.213106
0.21315
0.213193
0.213236
0.213236
0.21328
0.213323
0.213367
0.21341
0.21341
0.213454
0.213497
0.213541
0.213585
0.213585
0.213628
0.213672
0.213716
0.21376
0.21376
0.213804
0.213847
0.213891
0.213935
0.213935
0.213979
0.214023
0.214067
0.214111
0.214111
0.214156
0.2142
0.214244
0.214288
0.214288
0.214332
0.214377
0.214421
0.214465
0.214465
0.21451
0.214554
0.214599
0.214643
0.214643
0.214688
0.214732
0.214777
0.214822
0.214822
0.214866
0.214911
0.214956
0.215001
0.215001
0.215045
0.21509
0.215135
0.21518
0.21518
0.215225
0.21527
0.215315
0.21536
0.21536
0.215405
0.21545
0.215495
0.215541
0.215541
0.215586
0.215631
0.215677
0.215722
0.215722
0.215767
0.215813
0.215858
0.215904
0.215904
0.215949
0.215995
0.21604
0.216086
0.216086
0.216131
0.216177
0.216223
0.216269
0.216269
0.216314
0.21636
0.216406
0.216452
0.216452
0.216498
0.216544
0.21659
0.216636
0.216636
0.216682
0.216728
0.216774
0.21682
0.21682
0.216867
0.216913
0.216959
0.217006
0.217006
0.217052
0.217098
0.217145
0.217191
0.217191
0.217238
0.217284
0.217331
0.217377
0.217377
0.217424
0.217471
0.217517
0.217564
0.217564
0.217611
0.217658
0.217704
0.217751
0.217751
0.217798
0.217845
0.217892
0.217939
0.217939
0.217986
0.218033
0.21808
0.218128
0.218128
0.218175
0.218222
0.218269
0.218316
0.218316
0.218364
0.218411
0.218459
0.218506
0.218506
0.218553
0.218601
0.218648
0.218696
0.218696
0.218744
0.218791
0.218839
0.218887
0.218887
0.218934
0.218982
0.21903
0.219078
0.219078
0.219126
0.219174
0.219222
0.21927
0.21927
0.219318
0.219366
0.219414
0.219462
0.219462
0.21951
0.219558
0.219606
0.219655
0.219655
0.219703
0.219751
0.2198
0.219848
0.219848
0.219897
0.219945
0.219993
0.220042
0.220042
0.220091
0.220139
0.220188
0.220237
0.220237
0.220285
0.220334
0.220383
0.220432
0.220432
0.22048
0.220529
0.220578
0.220627
0.220627
0.220676
0.220725
0.220774
0.220823
0.220823
0.220873
0.220922
0.220971
0.22102
0.22102
0.221069
0.221119
0.221168
0.221218
0.221218
0.221267
0.221316
0.221366
0.221415
0.221415
0.221465
0.221515
0.221564
0.221614
0.221614
0.221663
0.221713
0.221763
0.221813
0.221813
0.221863
0.221912
0.221962
0.222012
0.222012
0.222062
0.222112
0.222162
0.222212
0.222212
0.222262
0.222313
0.222363
0.222413
0.222413
0.222463
0.222514
0.222564
0.222614
0.222614
0.222665
0.222715
0.222766
0.222816
0.222816
0.222867
0.222917
0.222968
0.223018
0.223018
0.223069
0.22312
0.22317
0.223221
0.223221
0.223272
0.223323
0.223374
0.223425
0.223425
0.223476
0.223527
0.223578
0.223629
0.223629
0.22368
0.223731
0.223782
0.223833
0.223833
0.223884
0.223936
0.223987
0.224038
0.224038
0.22409
0.224141
0.224193
0.224244
0.224244
0.224295
0.224347
0.224399
0.22445
0.22445
0.224502
0.224554
0.224605
0.224657
0.224657
0.224709
0.224761
0.224812
0.224864
0.224864
0.224916
0.224968
0.22502
0.225072
0.225072
0.225124
0.225176
0.225229
0.225281
0.225281
0.225333
0.225385
0.225437
0.22549
0.22549
0.225542
0.225594
0.225647
0.225699
0.225699
0.225752
0.225804
0.225857
0.225909
0.225909
0.225962
0.226015
0.226067
0.22612
0.22612
0.226173
0.226226
0.226278
0.226331
0.226331
0.226384
0.226437
0.22649
0.226543
0.226543
0.226596
0.226649
0.226702
0.226756
0.226756
0.226809
0.226862
0.226915
0.226968
0.226968
0.227022
0.227075
0.227129
0.227182
0.227182
0.227235
0.227289
0.227342
0.227396
0.227396
0.22745
0.227503
0.227557
0.227611
0.227611
0.227664
0.227718
0.227772
0.227826
0.227826
0.22788
0.227934
0.227987
0.228041
0.228041
0.228095
0.22815
0.228204
0.228258
0.228258
0.228312
0.228366
0.22842
0.228475
0.228475
0.228529
0.228583
0.228638
0.228692
0.228692
0.228746
0.228801
0.228855
0.22891
0.22891
0.228964
0.229019
0.229074
0.229128
0.229128
0.229183
0.229238
0.229293
0.229347
0.229347
0.229402
0.229457
0.229512
0.229567
0.229567
0.229622
0.229677
0.229732
0.229787
0.229787
0.229842
0.229898
0.229953
0.230008
0.230008
0.230063
0.230119
0.230174
0.230229
0.230229
0.230285
0.23034
0.230396
0.230451
0.230451
0.230507
0.230562
0.230618
0.230674
0.230674
0.230729
0.230785
0.230841
0.230897
0.230897
0.230952
0.231008
0.231064
0.23112
0.23112
0.231176
0.231232
0.231288
0.231344
0.231344
0.2314
0.231457
0.231513
0.231569
0.231569
0.231625
0.231681
0.231738
0.231794
0.231794
0.231851
0.231907
0.231963
0.23202
0.23202
0.232076
0.232133
0.23219
0.232246
0.232246
0.232303
0.23236
0.232416
0.232473
0.232473
0.23253
0.232587
0.232644
0.232701
0.232701
0.232758
0.232815
0.232872
0.232929
0.232929
0.232986
0.233043
0.2331
0.233157
0.233157
0.233214
0.233272
0.233329
0.233386
0.233386
0.233444
0.233501
0.233559
0.233616
0.233616
0.233674
0.233731
0.233789
0.233846
0.233846
0.233904
0.233962
0.234019
0.234077
0.234077
0.234135
0.234193
0.234251
0.234308
0.234308
0.234366
0.234424
0.234482
0.23454
0.23454
0.234598
0.234657
0.234715
0.234773
0.234773
0.234831
0.234889
0.234948
0.235006
0.235006
0.235064
0.235123
0.235181
0.235239
0.235239
0.235298
0.235356
0.235415
0.235474
0.235474
0.235532
0.235591
0.23565
0.235708
0.235708
0.235767
0.235826
0.235885
0.235944
0.235944
0.236003
0.236062
0.23612
0.236179
0.236179
0.236239
0.236298
0.236357
0.236416
0.236416
0.236475
0.236534
0.236594
0.236653
0.236653
0.236712
0.236772
0.236831
0.23689
0.23689
0.23695
0.237009
0.237069
0.237128
0.237128
0.237188
0.237248
0.237307
0.237367
0.237367
0.237427
0.237487
0.237546
0.237606
0.237606
0.237666
0.237726
0.237786
0.237846
0.237846
0.237906
0.237966
0.238026
0.238086
0.238086
0.238147
0.238207
0.238267
0.238327
0.238327
0.238388
0.238448
0.238508
0.238569
0.238569
0.238629
0.23869
0.23875
0.238811
0.238811
0.238871
0.238932
0.238993
0.239053
0.239053
0.239114
0.239175
0.239236
0.239296
0.239296
0.239357
0.239418
0.239479
0.23954
0.23954
0.239601
0.239662
0.239723
0.239784
0.239784
0.239845
0.239907
0.239968
0.240029
0.240029
0.24009
0.240152
0.240213
0.240274
0.240274
0.240336
0.240397
0.240459
0.24052
0.24052
0.240582
0.240643
0.240705
0.240767
0.240767
0.240828
0.24089
0.240952
0.241014
0.241014
0.241076
0.241138
0.241199
0.241261
0.241261
0.241323
0.241385
0.241447
0.24151
0.24151
0.241572
0.241634
0.241696
0.241758
0.241758
0.241821
0.241883
0.241945
0.242008
0.242008
0.24207
0.242132
0.242195
0.242257
0.242257
0.24232
0.242383
0.242445
0.242508
0.242508
0.24257
0.242633
0.242696
0.242759
0.242759
0.242822
0.242884
0.242947
0.24301
0.24301
0.243073
0.243136
0.243199
0.243262
0.243262
0.243325
0.243389
0.243452
0.243515
0.243515
0.243578
0.243641
0.243705
0.243768
0.243768
0.243832
0.243895
0.243958
0.244022
0.244022
0.244085
0.244149
0.244213
0.244276
0.244276
0.24434
0.244404
0.244467
0.244531
0.244531
0.244595
0.244659
0.244723
0.244786
0.244786
0.24485
0.244914
0.244978
0.245042
0.245042
0.245107
0.245171
0.245235
0.245299
0.245299
0.245363
0.245428
0.245492
0.245556
0.245556
0.24562
0.245685
0.245749
0.245814
0.245814
0.245878
0.245943
0.246007
0.246072
0.246072
0.246137
0.246201
0.246266
0.246331
0.246331
0.246396
0.24646
0.246525
0.24659
0.24659
0.246655
0.24672
0.246785
0.24685
0.24685
0.246915
0.24698
0.247045
0.247111
0.247111
0.247176
0.247241
0.247306
0.247372
0.247372
0.247437
0.247502
0.247568
0.247633
0.247633
0.247699
0.247764
0.24783
0.247895
0.247895
0.247961
0.248027
0.248092
0.248158
0.248158
0.248224
0.24829
0.248355
0.248421
0.248421
0.248487
0.248553
0.248619
0.248685
0.248685
0.248751
0.248817
0.248883
0.248949
0.248949
0.249016
0.249082
0.249148
0.249214
0.249214
0.249281
0.249347
0.249414
0.24948
0.24948
0.249546
0.249613
0.249679
0.249746
0.249746
0.249813
0.249879
0.249946
0.250013
0.250013
0.250079
0.250146
0.250213
0.25028
0.25028
0.250347
0.250414
0.250481
0.250548
0.250548
0.250615
0.250682
0.250749
0.250816
0.250816
0.250883
0.25095
0.251017
0.251085
0.251085
0.251152
0.251219
0.251287
0.251354
0.251354
0.251422
0.251489
0.251557
0.251624
0.251624
0.251692
0.251759
0.251827
0.251895
0.251895
0.251962
0.25203
0.252098
0.252166
0.252166
0.252234
0.252302
0.25237
0.252437
0.252437
0.252505
0.252574
0.252642
0.25271
0.25271
0.252778
0.252846
0.252914
0.252982
0.252982
0.253051
0.253119
0.253187
0.253256
0.253256
0.253324
0.253393
0.253461
0.25353
0.25353
0.253598
0.253667
0.253736
0.253804
0.253804
0.253873
0.253942
0.25401
0.254079
0.254079
0.254148
0.254217
0.254286
0.254355
0.254355
0.254424
0.254493
0.254562
0.254631
0.254631
0.2547
0.254769
0.254838
0.254908
0.254908
0.254977
0.255046
0.255116
0.255185
0.255185
0.255254
0.255324
0.255393
0.255463
0.255463
0.255532
0.255602
0.255671
0.255741
0.255741
0.255811
0.255881
0.25595
0.25602
0.25602
0.25609
0.25616
0.25623
0.2563
0.2563
0.25637
0.25644
0.25651
0.25658
0.25658
0.25665
0.25672
0.25679
0.25686
0.25686
0.25693
0.257001
0.257071
0.257141
0.257141
0.257212
0.257282
0.257353
0.257423
0.257423
0.257494
0.257564
0.257635
0.257705
0.257705
0.257776
0.257847
0.257918
0.257988
0.257988
0.258059
0.25813
0.258201
0.258272
0.258272
0.258343
0.258414
0.258485
0.258556
0.258556
0.258627
0.258698
0.258769
0.25884
0.25884
0.258911
0.258983
0.259054
0.259125
0.259125
0.259197
0.259268
0.25934
0.259411
0.259411
0.259483
0.259554
0.259626
0.259697
0.259697
0.259769
0.259841
0.259912
0.259984
0.259984
0.260056
0.260128
0.260199
0.260271
0.260271
0.260343
0.260415
0.260487
0.260559
0.260559
0.260631
0.260703
0.260776
0.260848
0.260848
0.26092
0.260992
0.261064
0.261137
0.261137
0.261209
0.261281
0.261354
0.261426
0.261426
0.261499
0.261571
0.261644
0.261716
0.261716
0.261789
0.261862
0.261934
0.262007
0.262007
0.26208
0.262153
0.262225
0.262298
0.262298
0.262371
0.262444
0.262517
0.26259
0.26259
0.262663
0.262736
0.262809
0.262883
0.262883
0.262956
0.263029
0.263102
0.263175
0.263175
0.263249
0.263322
0.263396
0.263469
0.263469
0.263542
0.263616
0.263689
0.263763
0.263763
0.263837
0.26391
0.263984
0.264058
0.264058
0.264131
0.264205
0.264279
0.264353
0.264353
0.264427
0.264501
0.264574
0.264648
0.264648
0.264722
0.264797
0.264871
0.264945
0.264945
0.265019
0.265093
0.265167
0.265242
0.265242
0.265316
0.26539
0.265465
0.265539
0.265539
0.265613
0.265688
0.265762
0.265837
0.265837
0.265912
0.265986
0.266061
0.266135
0.266135
0.26621
0.266285
0.26636
0.266435
0.266435
0.266509
0.266584
0.266659
0.266734
0.266734
0.266809
0.266884
0.266959
0.267034
0.267034
0.26711
0.267185
0.26726
0.267335
0.267335
0.26741
0.267486
0.267561
0.267636
0.267636
0.267712
0.267787
0.267863
0.267938
0.267938
0.268014
0.268089
0.268165
0.268241
0.268241
0.268316
0.268392
0.268468
0.268544
0.268544
0.26862
0.268695
0.268771
0.268847
0.268847
0.268923
0.268999
0.269075
0.269151
0.269151
0.269227
0.269304
0.26938
0.269456
0.269456
0.269532
0.269609
0.269685
0.269761
0.269761
0.269838
0.269914
0.269991
0.270067
0.270067
0.270144
0.27022
0.270297
0.270373
0.270373
0.27045
0.270527
0.270603
0.27068
0.27068
0.270757
0.270834
0.270911
0.270988
0.270988
0.271065
0.271142
0.271219
0.271296
0.271296
0.271373
0.27145
0.271527
0.271604
0.271604
0.271682
0.271759
0.271836
0.271913
0.271913
0.271991
0.272068
0.272146
0.272223
0.272223
0.272301
0.272378
0.272456
0.272533
0.272533
0.272611
0.272689
0.272766
0.272844
0.272844
0.272922
0.273
0.273078
0.273156
0.273156
0.273233
0.273311
0.273389
0.273467
0.273467
0.273546
0.273624
0.273702
0.27378
0.27378
0.273858
0.273936
0.274015
0.274093
0.274093
0.274171
0.27425
0.274328
0.274407
0.274407
0.274485
0.274564
0.274642
0.274721
0.274721
0.274799
0.274878
0.274957
0.275035
0.275035
0.275114
0.275193
0.275272
0.275351
0.275351
0.27543
0.275509
0.275587
0.275666
0.275666
0.275746
0.275825
0.275904
0.275983
0.275983
0.276062
0.276141
0.276221
0.2763
0.2763
0.276379
0.276458
0.276538
0.276617
0.276617
0.276697
0.276776
0.276856
0.276935
0.276935
0.277015
0.277095
0.277174
0.277254
0.277254
0.277334
0.277413
0.277493
0.277573
0.277573
0.277653
0.277733
0.277813
0.277893
0.277893
0.277973
0.278053
0.278133
0.278213
0.278213
0.278293
0.278373
0.278454
0.278534
0.278534
0.278614
0.278695
0.278775
0.278855
0.278855
0.278936
0.279016
0.279097
0.279177
0.279177
0.279258
0.279338
0.279419
0.2795
0.2795
0.279581
0.279661
0.279742
0.279823
0.279823
0.279904
0.279985
0.280066
0.280147
0.280147
0.280227
0.280309
0.28039
0.280471
0.280471
0.280552
0.280633
0.280714
0.280795
0.280795
0.280877
0.280958
0.281039
0.281121
0.281121
0.281202
0.281284
0.281365
0.281447
0.281447
0.281528
0.28161
0.281691
0.281773
0.281773
0.281855
0.281936
0.282018
0.2821
0.2821
0.282182
0.282264
0.282346
0.282427
0.282427
0.282509
0.282591
0.282673
0.282756
0.282756
0.282838
0.28292
0.283002
0.283084
0.283084
0.283166
0.283249
0.283331
0.283413
0.283413
0.283496
0.283578
0.283661
0.283743
0.283743
0.283826
0.283908
0.283991
0.284073
0.284073
0.284156
0.284239
0.284321
0.284404
0.284404
0.284487
0.28457
0.284653
0.284736
0.284736
0.284819
0.284902
0.284985
0.285068
0.285068
0.285151
0.285234
0.285317
0.2854
0.2854
0.285483
0.285567
0.28565
0.285733
0.285733
0.285817
0.2859
0.285983
0.286067
0.286067
0.28615
0.286234
0.286317
0.286401
0.286401
0.286485
0.286568
0.286652
0.286736
0.286736
0.28682
0.286903
0.286987
0.287071
0.287071
0.287155
0.287239
0.287323
0.287407
0.287407
0.287491
0.287575
0.287659
0.287743
0.287743
0.287827
0.287912
0.287996
0.28808
0.28808
0.288165
0.288249
0.288333
0.288418
0.288418
0.288502
0.288587
0.288671
0.288756
0.288756
0.28884
0.288925
0.28901
0.289094
0.289094
0.289179
0.289264
0.289349
0.289434
0.289434
0.289519
0.289603
0.289688
0.289773
0.289773
0.289858
0.289943
0.290029
0.290114
0.290114
0.290199
0.290284
0.290369
0.290455
0.290455
0.29054
0.290625
0.290711
0.290796
0.290796
0.290881
0.290967
0.291052
0.291138
0.291138
0.291223
0.291309
0.291395
0.29148
0.29148
0.291566
0.291652
0.291738
0.291823
0.291823
0.291909
0.291995
0.292081
0.292167
0.292167
0.292253
0.292339
0.292425
0.292511
0.292511
0.292597
0.292684
0.29277
0.292856
0.292856
0.292942
0.293029
0.293115
0.293201
0.293201
0.293288
0.293374
0.293461
0.293547
0.293547
0.293634
0.29372
0.293807
0.293893
0.293893
0.29398
0.294067
0.294154
0.29424
0.29424
0.294327
0.294414
0.294501
0.294588
0.294588
0.294675
0.294762
0.294849
0.294936
0.294936
0.295023
0.29511
0.295197
0.295284
0.295284
0.295372
0.295459
0.295546
0.295634
0.295634
0.295721
0.295808
0.295896
0.295983
0.295983
0.296071
0.296158
0.296246
0.296334
0.296334
0.296421
0.296509
0.296597
0.296684
0.296684
0.296772
0.29686
0.296948
0.297036
0.297036
0.297124
0.297212
0.2973
0.297388
0.297388
0.297476
0.297564
0.297652
0.29774
0.29774
0.297828
0.297917
0.298005
0.298093
0.298093
0.298182
0.29827
0.298358
0.298447
0.298447
0.298535
0.298624
0.298712
0.298801
0.298801
0.298889
0.298978
0.299067
0.299156
0.299156
0.299244
0.299333
0.299422
0.299511
0.299511
0.2996
0.299689
0.299778
0.299867
0.299867
0.299956
0.300045
0.300134
0.300223
0.300223
0.300312
0.300401
0.30049
0.30058
0.30058
0.300669
0.300758
0.300848
0.300937
0.300937
0.301027
0.301116
0.301206
0.301295
0.301295
0.301385
0.301474
0.301564
0.301654
0.301654
0.301743
0.301833
0.301923
0.302013
0.302013
0.302103
0.302193
0.302282
0.302372
0.302372
0.302462
0.302552
0.302643
0.302733
0.302733
0.302823
0.302913
0.303003
0.303093
0.303093
0.303184
0.303274
0.303364
0.303455
0.303455
0.303545
0.303636
0.303726
0.303817
0.303817
0.303907
0.303998
0.304088
0.304179
0.304179
0.30427
0.30436
0.304451
0.304542
0.304542
0.304633
0.304724
0.304814
0.304905
0.304905
0.304996
0.305087
0.305178
0.305269
0.305269
0.30536
0.305452
0.305543
0.305634
0.305634
0.305725
0.305816
0.305908
0.305999
0.305999
0.30609
0.306182
0.306273
0.306365
0.306365
0.306456
0.306548
0.306639
0.306731
0.306731
0.306823
0.306914
0.307006
0.307098
0.307098
0.30719
0.307281
0.307373
0.307465
0.307465
0.307557
0.307649
0.307741
0.307833
0.307833
0.307925
0.308017
0.308109
0.308202
0.308202
0.308294
0.308386
0.308478
0.308571
0.308571
0.308663
0.308755
0.308848
0.30894
0.30894
0.309033
0.309125
0.309218
0.30931
0.30931
0.309403
0.309495
0.309588