<?xml version="1.0"?>
<VTKFile type="UnstructuredGrid" version="0.1" byte_order="LittleEndian">
<UnstructuredGrid>
<Piece NumberOfPoints="5000" NumberOfCells="4000">
<PointData Scalars="Reaction 0">
<DataArray type="Float32" Name="Reaction 0" format="ascii">
0.437358
0.437358
0.437358
0.437358
0.437358
0.437358
0.437358
0.437358
0.437359
0.437359
0.437359
0.437359
0.437359
0.43736
0.43736
0.43736
0.437361
0.437361
0.437361
0.437362
0.437362
0.437362
0.437363
0.437364
0.437364
0.437364
0.437365
0.437365
0.437366
0.437367
0.437367
0.437368
0.437369
0.437369
0.43737
0.43737
0.437371
0.437372
0.437373
0.437374
0.437374
0.437375
0.437376
0.437377
0.437378
0.437378
0.437379
0.437381
0.437382
0.437383
0.437383
0.437384
0.437386
0.437387
0.437388
0.437388
0.43739
0.437391
0.437393
0.437394
0.437394
0.437396
0.437397
0.437399
0.437401
0.437401
0.437402
0.437404
0.437406
0.437407
0.437407
0.437409
0.437411
0.437413
0.437415
0.437415
0.437417
0.437419
0.43742
0.437422
0.437422
0.437425
0.437427
0.437429
0.437431
0.437431
0.437433
0.437435
0.437437
0.43744
0.43744
0.437442
0.437444
0.437447
0.437449
0.437449
0.437451
0.437454
0.437456
0.437459
0.437459
0.437461
0.437464
0.437467
0.437469
0.437469
0.437472
0.437475
0.437477
0.43748
0.43748
0.437483
0.437486
0.437489
0.437491
0.437491
0.437494
0.437497
0.4375
0.437503
0.437503
0.437506
0.437509
0.437513
0.437516
0.437516
0.437519
0.437522
0.437525
0.437529
0.437529
0.437532
0.437535
0.437539
0.437542
0.437542
0.437545
0.437549
0.437552
0.437556
0.437556
0.437559
0.437563
0.437567
0.43757
0.43757
0.437574
0.437578
0.437581
0.437585
0.437585
0.437589
0.437593
0.437597
0.437601
0.437601
0.437604
0.437608
0.437612
0.437616
0.437616
0.437621
0.437625
0.437629
0.437633
0.437633
0.437637
0.437641
0.437646
0.43765
0.43765
0.437654
0.437658
0.437663
0.437667
0.437667
0.437672
0.437676
0.437681
0.437685
0.437685
0.43769
0.437694
0.437699
0.437704
0.437704
0.437708
0.437713
0.437718
0.437723
0.437723
0.437727
0.437732
0.437737
0.437742
0.437742
0.437747
0.437752
0.437757
0.437762
0.437762
0.437767
0.437772
0.437777
0.437782
0.437782
0.437788
0.437793
0.437798
0.437803
0.437803
0.437809
0.437814
0.437819
0.437825
0.437825
0.43783
0.437836
0.437841
0.437847
0.437847
0.437852
0.437858
0.437864
0.437869
0.437869
0.437875
0.437881
0.437887
0.437892
0.437892
0.437898
0.437904
0.43791
0.437916
0.437916
0.437922
0.437928
0.437934
0.43794
0.43794
0.437946
0.437952
0.437958
0.437964
0.437964
0.437971
0.437977
0.437983
0.437989
0.437989
0.437996
0.438002
0.438008
0.438015
0.438015
0.438021
0.438028
0.438034
0.438041
0.438041
0.438047
0.438054
0.438061
0.438067
0.438067
0.438074
0.438081
0.438088
0.438094
0.438094
0.438101
0.438108
0.438115
0.438122
0.438122
0.438129
0.438136
0.438143
0.43815
0.43815
0.438157
0.438164
0.438171
0.438179
0.438179
0.438186
0.438193
0.4382
0.438208
0.438208
0.438215
0.438222
0.43823
0.438237
0.438237
0.438245
0.438252
0.43826
0.438267
0.438267
0.438275
0.438283
0.43829
0.438298
0.438298
0.438306
0.438313
0.438321
0.438329
0.438329
0.438337
0.438345
0.438353
0.438361
0.438361
0.438369
0.438377
0.438385
0.438393
0.438393
0.438401
0.438409
0.438417
0.438425
0.438425
0.438434
0.438442
0.43845
0.438458
0.438458
0.438467
0.438475
0.438484
0.438492
0.438492
0.438501
0.438509
0.438518
0.438526
0.438526
0.438535
0.438543
0.438552
0.438561
0.438561
0.43857
0.438578
0.438587
0.438596
0.438596
0.438605
0.438614
0.438623
0.438632
0.438632
0.438641
0.43865
0.438659
0.438668
0.438668
0.438677
0.438686
0.438695
0.438704
0.438704
0.438714
0.438723
0.438732
0.438742
0.438742
0.438751
0.43876
0.43877
0.438779
0.438779
0.438789
0.438798
0.438808
0.438818
0.438818
0.438827
0.438837
0.438846
0.438856
0.438856
0.438866
0.438876
0.438886
0.438895
0.438895
0.438905
0.438915
0.438925
0.438935
0.438935
0.438945
0.438955
0.438965
0.438975
0.438975
0.438985
0.438996
0.439006
0.439016
0.439016
0.439026
0.439037
0.439047
0.439057
0.439057
0.439068
0.439078
0.439089
0.439099
0.439099
0.43911
0.43912
0.439131
0.439141
0.439141
0.439152
0.439163
0.439173
0.439184
0.439184
0.439195
0.439206
0.439216
0.439227
0.439227
0.439238
0.439249
0.43926
0.439271
0.439271
0.439282
0.439293
0.439304
0.439315
0.439315
0.439326
0.439338
0.439349
0.43936
0.43936
0.439371
0.439383
0.439394
0.439405
0.439405
0.439417
0.439428
0.43944
0.439451
0.439451
0.439463
0.439474
0.439486
0.439498
0.439498
0.439509
0.439521
0.439533
0.439544
0.439544
0.439556
0.439568
0.43958
0.439592
0.439592
0.439604
0.439616
0.439627
0.439639
0.439639
0.439652
0.439664
0.439676
0.439688
0.439688
0.4397
0.439712
0.439724
0.439737
0.439737
0.439749
0.439761
0.439774
0.439786
0.439786
0.439798
0.439811
0.439823
0.439836
0.439836
0.439848
0.439861
0.439874
0.439886
0.439886
0.439899
0.439912
0.439924
0.439937
0.439937
0.43995
0.439963
0.439976
0.439989
0.439989
0.440002
0.440014
0.440027
0.44004
0.44004
0.440054
0.440067
0.44008
0.440093
0.440093
0.440106
0.440119
0.440133
0.440146
0.440146
0.440159
0.440172
0.440186
0.440199
0.440199
0.440213
0.440226
0.44024
0.440253
0.440253
0.440267
0.44028
0.440294
0.440308
0.440308
0.440321
0.440335
0.440349
0.440363
0.440363
0.440376
0.44039
0.440404
0.440418
0.440418
0.440432
0.440446
0.44046
0.440474
0.440474
0.440488
0.440502
0.440516
0.440531
0.440531
0.440545
0.440559
0.440573
0.440588
0.440588
0.440602
0.440616
0.440631
0.440645
0.440645
0.44066
0.440674
0.440689
0.440703
0.440703
0.440718
0.440732
0.440747
0.440762
0.440762
0.440776
0.440791
0.440806
0.440821
0.440821
0.440835
0.44085
0.440865
0.44088
0.44088
0.440895
0.44091
0.440925
0.44094
0.44094
0.440955
0.44097
0.440986
0.441001
0.441001
0.441016
0.441031
0.441047
0.441062
0.441062
0.441077
0.441093
0.441108
0.441124
0.441124
0.441139
0.441155
0.44117
0.441186
0.441186
0.441201
0.441217
0.441233
0.441248
0.441248
0.441264
0.44128
0.441296
0.441311
0.441311
0.441327
0.441343
0.441359
0.441375
0.441375
0.441391
0.441407
0.441423
0.441439
0.441439
0.441455
0.441471
0.441488
0.441504
0.441504
0.44152
0.441536
0.441553
0.441569
0.441569
0.441585
0.441602
0.441618
0.441635
0.441635
0.441651
0.441668
0.441684
0.441701
0.441701
0.441717
0.441734
0.441751
0.441768
0.441768
0.441784
0.441801
0.441818
0.441835
0.441835
0.441852
0.441869
0.441886
0.441903
0.441903
0.44192
0.441937
0.441954
0.441971
0.441971
0.441988
0.442005
0.442022
0.442039
0.442039
0.442057
0.442074
0.442091
0.442109
0.442109
0.442126
0.442144
0.442161
0.442179
0.442179
0.442196
0.442214
0.442231
0.442249
0.442249
0.442266
0.442284
0.442302
0.44232
0.44232
0.442337
0.442355
0.442373
0.442391
0.442391
0.442409
0.442427
0.442445
0.442463
0.442463
0.442481
0.442499
0.442517
0.442535
0.442535
0.442553
0.442571
0.44259
0.442608
0.442608
0.442626
0.442645
0.442663
0.442681
0.442681
0.4427
0.442718
0.442737
0.442755
0.442755
0.442774
0.442792
0.442811
0.44283
0.44283
0.442848
0.442867
0.442886
0.442905
0.442905
0.442923
0.442942
0.442961
0.44298
0.44298
0.442999
0.443018
0.443037
0.443056
0.443056
0.443075
0.443094
0.443113
0.443132
0.443132
0.443152
0.443171
0.44319
0.443209
0.443209
0.443229
0.443248
0.443267
0.443287
0.443287
0.443306
0.443326
0.443345
0.443365
0.443365
0.443384
0.443404
0.443424
0.443443
0.443443
0.443463
0.443483
0.443502
0.443522
0.443522
0.443542
0.443562
0.443582
0.443602
0.443602
0.443622
0.443642
0.443662
0.443682
0.443682
0.443702
0.443722
0.443742
0.443762
0.443762
0.443783
0.443803
0.443823
0.443843
0.443843
0.443864
0.443884
0.443905
0.443925
0.443925
0.443946
0.443966
0.443987
0.444007
0.444007
0.444028
0.444048
0.444069
0.44409
0.44409
0.444111
0.444131
0.444152
0.444173
0.444173
0.444194
0.444215
0.444236
0.444257
0.444257
0.444278
0.444299
0.44432
0.444341
0.444341
0.444362
0.444383
0.444404
0.444425
0.444425
0.444447
0.444468
0.444489
0.444511
0.444511
0.444532
0.444553
0.444575
0.444596
0.444596
0.444618
0.444639
0.444661
0.444683
0.444683
0.444704
0.444726
0.444748
0.444769
0.444769
0.444791
0.444813
0.444835
0.444857
0.444857
0.444879
0.4449
0.444922
0.444944
0.444944
0.444966
0.444988
0.445011
0.445033
0.445033
0.445055
0.445077
0.445099
0.445122
0.445122
0.445144
0.445166
0.445188
0.445211
0.445211
0.445233
0.445256
0.445278
0.445301
0.445301
0.445323
0.445346
0.445368
0.445391
0.445391
0.445414
0.445436
0.445459
0.445482
0.445482
0.445505
0.445528
0.44555
0.445573
0.445573
0.445596
0.445619
0.445642
0.445665
0.445665
0.445688
0.445711
0.445735
0.445758
0.445758
0.445781
0.445804
0.445827
0.445851
0.445851
0.445874
0.445897
0.445921
0.445944
0.445944
0.445968
0.445991
0.446015
0.446038
0.446038
0.446062
0.446085
0.446109
0.446133
0.446133
0.446156
0.44618
0.446204
0.446228
0.446228
0.446252
0.446275
0.446299
0.446323
0.446323
0.446347
0.446371
0.446395
0.446419
0.446419
0.446443
0.446468
0.446492
0.446516
0.446516
0.44654
0.446564
0.446589
0.446613
0.446613
0.446637
0.446662
0.446686
0.446711
0.446711
0.446735
0.44676
0.446784
0.446809
0.446809
0.446833
0.446858
0.446883
0.446907
0.446907
0.446932
0.446957
0.446982
0.447007
0.447007
0.447031
0.447056
0.447081
0.447106
0.447106
0.447131
0.447156
0.447181
0.447207
0.447207
0.447232
0.447257
0.447282
0.447307
0.447307
0.447333
0.447358
0.447383
0.447409
0.447409
0.447434
0.447459
0.447485
0.44751
0.44751
0.447536
0.447561
0.447587
0.447613
0.447613
0.447638
0.447664
0.44769
0.447715
0.447715
0.447741
0.447767
0.447793
0.447819
0.447819
0.447845
0.447871
0.447897
0.447923
0.447923
0.447949
0.447975
0.448001
0.448027
0.448027
0.448053
0.448079
0.448106
0.448132
0.448132
0.448158
0.448185
0.448211
0.448237
0.448237
0.448264
0.44829
0.448317
0.448343
0.448343
0.44837
0.448397
0.448423
0.44845
0.44845
0.448477
0.448503
0.44853
0.448557
0.448557
0.448584
0.448611
0.448637
0.448664
0.448664
0.448691
0.448718
0.448745
0.448772
0.448772
0.4488
0.448827
0.448854
0.448881
0.448881
0.448908
0.448936
0.448963
0.44899
0.44899
0.449017
0.449045
0.449072
0.4491
0.4491
0.449127
0.449155
0.449182
0.44921
0.44921
0.449237
0.449265
0.449293
0.449321
0.449321
0.449348
0.449376
0.449404
0.449432
0.449432
0.44946
0.449488
0.449515
0.449543
0.449543
0.449571
0.449599
0.449628
0.449656
0.449656
0.449684
0.449712
0.44974
0.449768
0.449768
0.449797
0.449825
0.449853
0.449882
0.449882
0.44991
0.449939
0.449967
0.449996
0.449996
0.450024
0.450053
0.450081
0.45011
0.45011
0.450139
0.450167
0.450196
0.450225
0.450225
0.450254
0.450282
0.450311
0.45034
0.45034
0.450369
0.450398
0.450427
0.450456
0.450456
0.450485
0.450514
0.450543
0.450572
0.450572
0.450602
0.450631
0.45066
0.450689
0.450689
0.450719
0.450748
0.450777
0.450807
0.450807
0.450836
0.450866
0.450895
0.450925
0.450925
0.450955
0.450984
0.451014
0.451043
0.451043
0.451073
0.451103
0.451133
0.451163
0.451163
0.451192
0.451222
0.451252
0.451282
0.451282
0.451312
0.451342
0.451372
0.451402
0.451402
0.451432
0.451462
0.451493
0.451523
0.451523
0.451553
0.451583
0.451614
0.451644
0.451644
0.451674
0.451705
0.451735
0.451766
0.451766
0.451796
0.451827
0.451857
0.451888
0.451888
0.451919
0.451949
0.45198
0.452011
0.452011
0.452042
0.452072
0.452103
0.452134
0.452134
0.452165
0.452196
0.452227
0.452258
0.452258
0.452289
0.45232
0.452351
0.452382
0.452382
0.452413
0.452445
0.452476
0.452507
0.452507
0.452538
0.45257
0.452601
0.452632
0.452632
0.452664
0.452695
0.452727
0.452758
0.452758
0.45279
0.452822
0.452853
0.452885
0.452885
0.452917
0.452948
0.45298
0.453012
0.453012
0.453044
0.453076
0.453107
0.453139
0.453139
0.453171
0.453203
0.453235
0.453267
0.453267
0.4533
0.453332
0.453364
0.453396
0.453396
0.453428
0.45346
0.453493
0.453525
0.453525
0.453557
0.45359
0.453622
0.453655
0.453655
0.453687
0.45372
0.453752
0.453785
0.453785
0.453818
0.45385
0.453883
0.453916
0.453916
0.453948
0.453981
0.454014
0.454047
0.454047
0.45408
0.454113
0.454146
0.454179
0.454179
0.454212
0.454245
0.454278
0.454311
0.454311
0.454344
0.454377
0.45441
0.454444
0.454444
0.454477
0.45451
0.454544
0.454577
0.454577
0.454611
0.454644
0.454677
0.454711
0.454711
0.454745
0.454778
0.454812
0.454845
0.454845
0.454879
0.454913
0.454947
0.45498
0.45498
0.455014
0.455048
0.455082
0.455116
0.455116
0.45515
0.455184
0.455218
0.455252
0.455252
0.455286
0.45532
0.455354
0.455388
0.455388
0.455423
0.455457
0.455491
0.455526
0.455526
0.45556
0.455594
0.455629
0.455663
0.455663
0.455698
0.455732
0.455767
0.455801
0.455801
0.455836
0.455871
0.455905
0.45594
0.45594
0.455975
0.45601
0.456044
0.456079
0.456079
0.456114
0.456149
0.456184
0.456219
0.456219
0.456254
0.456289
0.456324
0.456359
0.456359
0.456395
0.45643
0.456465
0.4565
0.4565
0.456535
0.456571
0.456606
0.456642
0.456642
0.456677
0.456712
0.456748
0.456783
0.456783
0.456819
0.456855
0.45689
0.456926
0.456926
0.456962
0.456997
0.457033
0.457069
0.457069
0.457105
0.457141
0.457176
0.457212
0.457212
0.457248
0.457284
0.45732
0.457356
0.457356
0.457393
0.457429
0.457465
0.457501
0.457501
0.457537
0.457574
0.45761
0.457646
0.457646
0.457683
0.457719
0.457755
0.457792
0.457792
0.457828
0.457865
0.457901
0.457938
0.457938
0.457975
0.458011
0.458048
0.458085
0.458085
0.458122
0.458158
0.458195
0.458232
0.458232
0.458269
0.458306
0.458343
0.45838
0.45838
0.458417
0.458454
0.458491
0.458528
0.458528
0.458565
0.458603
0.45864
0.458677
0.458677
0.458714
0.458752
0.458789
0.458827
0.458827
0.458864
0.458902
0.458939
0.458977
0.458977
0.459014
0.459052
0.459089
0.459127
0.459127
0.459165
0.459203
0.45924
0.459278
0.459278
0.459316
0.459354
0.459392
0.45943
0.45943
0.459468
0.459506
0.459544
0.459582
0.459582
0.45962
0.459658
0.459696
0.459735
0.459735
0.459773
0.459811
0.459849
0.459888
0.459888
0.459926
0.459965
0.460003
0.460042
0.460042
0.46008
0.460119
0.460157
0.460196
0.460196
0.460235
0.460273
0.460312
0.460351
0.460351
0.46039
0.460428
0.460467
0.460506
0.460506
0.460545
0.460584
0.460623
0.460662
0.460662
0.460701
0.46074
0.460779
0.460819
0.460819
0.460858
0.460897
0.460936
0.460976
0.460976
0.461015
0.461054
0.461094
0.461133
0.461133
0.461173
0.461212
0.461252
0.461291
0.461291
0.461331
0.46137
0.46141
0.46145
0.46145
0.46149
0.461529
0.461569
0.461609
0.461609
0.461649
0.461689
0.461729
0.461769
0.461769
0.461809
0.461849
0.461889
0.461929
0.461929
0.461969
0.462009
0.46205
0.46209
0.46209
0.46213
0.462171
0.462211
0.462251
0.462251
0.462292
0.462332
0.462373
0.462413
0.462413
0.462454
0.462494
0.462535
0.462576
0.462576
0.462616
0.462657
0.462698
0.462739
0.462739
0.46278
0.46282
0.462861
0.462902
0.462902
0.462943
0.462984
0.463025
0.463066
0.463066
0.463107
0.463149
0.46319
0.463231
0.463231
0.463272
0.463314
0.463355
0.463396
0.463396
0.463438
0.463479
0.46352
0.463562
0.463562
0.463603
0.463645
0.463687
0.463728
0.463728
0.46377
0.463812
0.463853
0.463895
0.463895
0.463937
0.463979
0.464021
0.464062
0.464062
0.464104
0.464146
0.464188
0.46423
0.46423
0.464272
0.464315
0.464357
0.464399
0.464399
0.464441
0.464483
0.464526
0.464568
0.464568
0.46461
0.464653
0.464695
0.464738
0.464738
0.46478
0.464823
0.464865
0.464908
0.464908
0.46495
0.464993
0.465036
0.465078
0.465078
0.465121
0.465164
0.465207
0.46525
0.46525
0.465292
0.465335
0.465378
0.465421
0.465421
0.465464
0.465507
0.465551
0.465594
0.465594
0.465637
0.46568
0.465723
0.465767
0.465767
0.46581
0.465853
0.465897
0.46594
0.46594
0.465984
0.466027
0.466071
0.466114
0.466114
0.466158
0.466201
0.466245
0.466289
0.466289
0.466332
0.466376
0.46642
0.466464
0.466464
0.466508
0.466551
0.466595
0.466639
0.466639
0.466683
0.466727
0.466771
0.466816
0.466816
0.46686
0.466904
0.466948
0.466992
0.466992
0.467037
0.467081
0.467125
0.46717
0.46717
0.467214
0.467259
0.467303
0.467348
0.467348
0.467392
0.467437
0.467481
0.467526
0.467526
0.467571
0.467615
0.46766
0.467705
0.467705
0.46775
0.467795
0.46784
0.467885
0.467885
0.467929
0.467974
0.46802
0.468065
0.468065
0.46811
0.468155
0.4682
0.468245
0.468245
0.468291
0.468336
0.468381
0.468426
0.468426
0.468472
0.468517
0.468563
0.468608
0.468608
0.468654
0.468699
0.468745
0.468791
0.468791
0.468836
0.468882
0.468928
0.468973
0.468973
0.469019
0.469065
0.469111
0.469157
0.469157
0.469203
0.469249
0.469295
0.469341
0.469341
0.469387
0.469433
0.469479
0.469525
0.469525
0.469572
0.469618
0.469664
0.469711
0.469711
0.469757
0.469803
0.46985
0.469896
0.469896
0.469943
0.469989
0.470036
0.470082
0.470082
0.470129
0.470176
0.470222
0.470269
0.470269
0.470316
0.470363
0.47041
0.470457
0.470457
0.470504
0.47055
0.470597
0.470645
0.470645
0.470692
0.470739
0.470786
0.470833
0.470833
0.47088
0.470927
0.470975
0.471022
0.471022
0.471069
0.471117
0.471164
0.471212
0.471212
0.471259
0.471307
0.471354
0.471402
0.471402
0.471449
0.471497
0.471545
0.471592
0.471592
0.47164
0.471688
0.471736
0.471784
0.471784
0.471832
0.47188
0.471928
0.471976
0.471976
0.472024
0.472072
0.47212
0.472168
0.472168
0.472216
0.472264
0.472313
0.472361
0.472361
0.472409
0.472458
0.472506
0.472555
0.472555
0.472603
0.472652
0.4727
0.472749
0.472749
0.472797
0.472846
0.472895
0.472943
0.472943
0.472992
0.473041
0.47309
0.473139
0.473139
0.473187
0.473236
0.473285
0.473334
0.473334
0.473383
0.473432
0.473482
0.473531
0.473531
0.47358
0.473629
0.473678
0.473728
0.473728
0.473777
0.473826
0.473876
0.473925
0.473925
0.473975
0.474024
0.474074
0.474123
0.474123
0.474173
0.474222
0.474272
0.474322
0.474322
0.474372
0.474421
0.474471
0.474521
0.474521
0.474571
0.474621
0.474671
0.474721
0.474721
0.474771
0.474821
0.474871
0.474921
0.474921
0.474971
0.475021
0.475072
0.475122
0.475122
0.475172
0.475223
0.475273
0.475323
0.475323
0.475374
0.475424
0.475475
0.475526
0.475526
0.475576
0.475627
0.475677
0.475728
0.475728
0.475779
0.47583
0.47588
0.475931
0.475931
0.475982
0.476033
0.476084
0.476135
0.476135
0.476186
0.476237
0.476288
0.476339
0.476339
0.476391
0.476442
0.476493
0.476544
0.476544
0.476596
0.476647
0.476698
0.47675
0.47675
0.476801
0.476853
0.476904
0.476956
0.476956
0.477007
0.477059
0.477111
0.477162
0.477162
0.477214
0.477266
0.477318
0.47737
0.47737
0.477421
0.477473
0.477525
0.477577
0.477577
0.477629
0.477681
0.477734
0.477786
0.477786
0.477838
0.47789
0.477942
0.477995
0.477995
0.478047
0.478099
0.478152
0.478204
0.478204
0.478257
0.478309
0.478362
0.478414
0.478414
0.478467
0.478519
0.478572
0.478625
0.478625
0.478678
0.47873
0.478783
0.478836
0.478836
0.478889
0.478942
0.478995
0.479048
0.479048
0.479101
0.479154
0.479207
0.47926
0.47926
0.479313
0.479367
0.47942
0.479473
0.479473
0.479526
0.47958
0.479633
0.479687
0.479687
0.47974
0.479794
0.479847
0.479901
0.479901
0.479954
0.480008
0.480062
0.480115
0.480115
0.480169
0.480223
0.480277
0.480331
0.480331
0.480385
0.480438
0.480492
0.480546
0.480546
0.480601
0.480655
0.480709
0.480763
0.480763
0.480817
0.480871
0.480926
0.48098
0.48098
0.481034
0.481089
0.481143
0.481197
0.481197
0.481252
0.481306
0.481361
0.481416
0.481416
0.48147
0.481525
0.48158
0.481634
0.481634
0.481689
0.481744
0.481799
0.481854
0.481854
0.481909
0.481964
0.482019
0.482074
0.482074
0.482129
0.482184
0.482239
0.482294
0.482294
0.482349
0.482405
0.48246
0.482515
0.482515
0.48257
0.482626
0.482681
0.482737
0.482737
0.482792
0.482848
0.482903
0.482959
0.482959
0.483015
0.48307
0.483126
0.483182
0.483182
0.483238
0.483293
0.483349
0.483405
0.483405
0.483461
0.483517
0.483573
0.483629
0.483629
0.483685
0.483741
0.483798
0.483854
0.483854
0.48391
0.483966
0.484023
0.484079
0.484079
0.484135
0.484192
0.484248
0.484305
0.484305
0.484361
0.484418
0.484474
0.484531
0.484531
0.484588
0.484644
0.484701
0.484758
0.484758
0.484815
0.484872
0.484929
0.484985
0.484985
0.485042
0.485099
0.485156
0.485214
0.485214
0.485271
0.485328
0.485385
0.485442
0.485442
0.4855
0.485557
0.485614
0.485672
0.485672
0.485729
0.485786
0.485844
0.485901
0.485901
0.485959
0.486017
0.486074
0.486132
0.486132
0.48619
0.486247
0.486305
0.486363
0.486363
0.486421
0.486479
0.486537
0.486595
0.486595
0.486653
0.486711
0.486769
0.486827
0.486827
0.486885
0.486943
0.487001
0.48706
0.48706
0.487118
0.487176
0.487235
0.487293
0.487293
0.487351
0.48741
0.487468
0.487527
0.487527
0.487586
0.487644
0.487703
0.487762
0.487762
0.48782
0.487879
0.487938
0.487997
0.487997
0.488056
0.488115
0.488174
0.488233
0.488233
0.488292
0.488351
0.48841
0.488469
0.488469
0.488528
0.488587
0.488647
0.488706
0.488706
0.488765
0.488825
0.488884
0.488944
0.488944
0.489003
0.489063
0.489122
0.489182
0.489182
0.489241
0.489301
0.489361
0.489421
0.489421
0.48948
0.48954
0.4896
0.48966
0.48966
0.48972
0.48978
0.48984
0.4899
0.4899
0.48996
0.49002
0.49008
0.49014
0.49014
0.490201
0.490261
0.490321
0.490382
0.490382
0.490442
0.490502
0.490563
0.490623
0.490623
0.490684
0.490745
0.490805
0.490866
0.490866
0.490926
0.490987
0.491048
0.491109
0.491109
0.49117
0.49123
0.491291
0.491352
0.491352
0.491413
0.491474
0.491535
0.491596
0.491596
0.491658
0.491719
0.49178
0.491841
0.491841
0.491903
0.491964
0.492025
0.492087
0.492087
0.492148
0.49221
0.492271
0.492333
0.492333
0.492394
0.492456
0.492517
0.492579
0.492579
0.492641
0.492703
0.492765
0.492826
0.492826
0.492888
0.49295
0.493012
0.493074
0.493074
0.493136
0.493198
0.49326
0.493323
0.493323
0.493385
0.493447
0.493509
0.493572
0.493572
0.493634
0.493696
0.493759
0.493821
0.493821
0.493884
0.493946
0.494009
0.494071
0.494071
0.494134
0.494197
0.494259
0.494322
0.494322
0.494385
0.494448
0.494511
0.494574
0.494574
0.494637
0.4947
0.494763
0.494826
0.494826
0.494889
0.494952
0.495015
0.495078
0.495078
0.495142
0.495205
0.495268
0.495332
0.495332
0.495395
0.495458
0.495522
0.495585
0.495585
0.495649
0.495713
0.495776
0.49584
0.49584
0.495904
0.495967
0.496031
0.496095
0.496095
0.496159
0.496223
0.496287
0.496351
0.496351
0.496415
0.496479
0.496543
0.496607
0.496607
0.496671
0.496735
0.4968
0.496864
0.496864
0.496928
0.496993
0.497057
0.497121
0.497121
0.497186
0.49725
0.497315
0.49738
0.49738
0.497444
0.497509
0.497574
0.497638
0.497638
0.497703
0.497768
0.497833
0.497898
0.497898
0.497963
0.498028
0.498093
0.498158
0.498158
0.498223
0.498288
0.498353
0.498418
0.498418
0.498484
0.498549
0.498614
0.49868
0.49868
0.498745
0.49881
0.498876
0.498941
0.498941
0.499007
0.499073
0.499138
0.499204
0.499204
0.49927
0.499335
0.499401
0.499467
0.499467
0.499533
0.499599
0.499665
0.499731
0.499731
0.499797
0.499863
0.499929
0.499995
0.499995
0.500061
0.500127
0.500194
0.50026
0.50026
0.500326
0.500393
0.500459
0.500526
0.500526
0.500592
0.500659
0.500725
0.500792
0.500792
0.500858
0.500925
0.500992
0.501058
0.501058
0.501125
0.501192
0.501259
0.501326
0.501326
0.501393
0.50146
0.501527
0.501594
0.501594
0.501661
0.501728
0.501795
0.501863
0.501863
0.50193
0.501997
0.502065
0.502132
0.502132
0.502199
0.502267
0.502334
0.502402
0.502402
0.502469
0.502537
0.502605
0.502672
0.502672
0.50274
0.502808
0.502876
0.502944
0.502944
0.503011
0.503079
0.503147
0.503215
0.503215
0.503283
0.503351
0.50342
0.503488
0.503488
0.503556
0.503624
0.503693
0.503761
0.503761
0.503829
0.503898
0.503966
0.504035
0.504035
0.504103
0.504172
0.50424
0.504309
0.504309
0.504377
0.504446
0.504515
0.504584
0.504584
0.504653
0.504721
0.50479
0.504859
0.504859
0.504928
0.504997
0.505066
0.505136
0.505136
0.505205
0.505274
0.505343
0.505412
0.505412
0.505482
0.505551
0.50562
0.50569
0.50569
0.505759
0.505829
0.505898
0.505968
0.505968
0.506038
0.506107
0.506177
0.506247
0.506247
0.506316
0.506386
0.506456
0.506526
0.506526
0.506596
0.506666
0.506736
0.506806
0.506806
0.506876
0.506946
0.507016
0.507087
0.507087
0.507157
0.507227
0.507297
0.507368
0.507368
0.507438
0.507509
0.507579
0.50765
0.50765
0.50772
0.507791
0.507862
0.507932
0.507932
0.508003
0.508074
0.508145
0.508215
0.508215
0.508286
0.508357
0.508428
0.508499
0.508499
0.50857
0.508641
0.508713
0.508784
0.508784
0.508855
0.508926
0.508997
0.509069
0.509069
0.50914
0.509212
0.509283
0.509355
0.509355
0.509426
0.509498
0.509569
0.509641
0.509641
0.509713
0.509784
0.509856
0.509928
0.509928
0.51
0.510072
0.510144
0.510216
0.510216
0.510288
0.51036
0.510432
0.510504
0.510504
0.510576
0.510648
0.510721
0.510793
0.510793
0.510865
0.510938
0.51101
0.511082
0.511082
0.511155
0.511227
0.5113
0.511373
0.511373
0.511445
0.511518
0.511591
0.511664
0.511664
0.511736
0.511809
0.511882
0.511955
0.511955
0.512028
0.512101
0.512174
0.512247
0.512247
0.51232
0.512394
0.512467
0.51254
0.51254
0.512613
0.512687
0.51276
0.512833
0.512833
0.512907
0.51298
0.513054
0.513128
0.513128
0.513201
0.513275
0.513349
0.513422
0.513422
0.513496
0.51357
0.513644
0.513718
0.513718
0.513792
0.513866
0.51394
0.514014
0.514014
0.514088
0.514162
0.514236
0.514311
0.514311
0.514385
0.514459
0.514533
0.514608
0.514608
0.514682
0.514757
0.514831
0.514906
0.514906
0.514981
0.515055
0.51513
0.515205
0.515205
0.515279
0.515354
0.515429
0.515504
0.515504
0.515579
0.515654
0.515729
0.515804
0.515804
0.515879
0.515954
0.516029
0.516105
0.516105
0.51618
0.516255
0.51633
0.516406
0.516406
0.516481
0.516557
0.516632
0.516708
0.516708
0.516783
0.516859
0.516935
0.51701
0.51701
0.517086
0.517162
0.517238
0.517314
0.517314
0.51739
0.517465
0.517541
0.517618
0.517618
0.517694
0.51777
0.517846
0.517922
0.517922
0.517998
0.518075
0.518151
0.518227
0.518227
0.518304
0.51838
0.518457
0.518533
0.518533
0.51861
0.518686
0.518763
0.51884
0.51884
0.518917
0.518993
0.51907
0.519147
0.519147
0.519224
0.519301
0.519378
0.519455
0.519455
0.519532
0.519609
0.519686
0.519763
0.519763
0.519841
0.519918
0.519995
0.520073
0.520073
0.52015
0.520228
0.520305
0.520383
0.520383
0.52046
0.520538
0.520615
0.520693
0.520693
0.520771
0.520849
0.520927
0.521004
0.521004
0.521082
0.52116
0.521238
0.521316
0.521316
0.521394
0.521472
0.521551
0.521629
0.521629
0.521707
0.521785
0.521864
0.521942
0.521942
0.52202
0.522099
0.522177
0.522256
0.522256
0.522335
0.522413
0.522492
0.522571
0.522571
0.522649
0.522728
0.522807
0.522886
0.522886
0.522965
0.523044
0.523123
0.523202
0.523202
0.523281
0.52336
0.523439
0.523518
0.523518
0.523597
0.523677
0.523756
0.523835
0.523835
0.523915
0.523994
0.524074
0.524153
0.524153
0.524233
0.524313
0.524392
0.524472
0.524472
0.524552
0.524632
0.524711
0.524791
0.524791
0.524871
0.524951
0.525031
0.525111
0.525111
0.525191
0.525271
0.525352
0.525432
0.525432
0.525512
0.525592
0.525673
0.525753
0.525753
0.525834
0.525914
0.525995
0.526075
0.526075
0.526156
0.526236
0.526317
0.526398
0.526398
0.526479
0.526559
0.52664
0.526721
0.526721
0.526802
0.526883
0.526964
0.527045
0.527045
0.527126
0.527208
0.527289
0.52737
0.52737
0.527451
0.527533
0.527614
0.527695
0.527695
0.527777
0.527858
0.52794
0.528021
0.528021
0.528103
0.528185
0.528267
0.528348
0.528348
0.52843
0.528512
0.528594
0.528676
0.528676
0.528758
0.52884
0.528922
0.529004
0.529004
0.529086
0.529168
0.52925
0.529333
0.529333
0.529415
0.529497
0.52958
0.529662
0.529662
0.529745
0.529827
0.52991
0.529992
0.529992
0.530075
0.530158
0.530241
0.530323
0.530323
0.530406
0.530489
0.530572
0.530655
0.530655
0.530738
0.530821
0.530904
0.530987
0.530987
0.53107
0.531154
0.531237
0.53132
0.53132
0.531404
0.531487
0.53157
0.531654
0.531654
0.531737
0.531821
0.531905
0.531988
0.531988
0.532072
0.532156
0.532239
0.532323
0.532323
0.532407
0.532491
0.532575
0.532659
0.532659
0.532743
0.532827
0.532911
0.532995
0.532995
0.53308
0.533164
0.533248
0.533333
0.533333
0.533417
0.533501
0.533586
0.53367
0.53367
0.533755
0.53384
0.533924
0.534009
0.534009
0.534094
0.534178
0.534263
0.534348
0.534348
0.534433
0.534518
0.534603
0.534688
0.534688
0.534773
0.534858
0.534944
0.535029
0.535029
0.535114
0.535199
0.535285
0.53537
0.53537
0.535456
0.535541
0.535627
0.535712
0.535712
0.535798
0.535883
0.535969
0.536055
0.536055
0.536141
0.536227
0.536312
0.536398
0.536398
0.536484
0.53657
0.536656
0.536743
0.536743
0.536829
0.536915
0.537001
0.537087
0.537087
0.537174
0.53726
0.537347
0.537433
0.537433
0.537519
0.537606
0.537693
0.537779
0.537779
0.537866
0.537953
0.538039
0.538126
0.538126
0.538213
0.5383
0.538387
0.538474
0.538474
0.538561
0.538648
0.538735
0.538822
0.538822
0.53891
0.538997
0.539084
0.539172
0.539172
0.539259
0.539346
0.539434
0.539521
0.539521
0.539609
0.539697
0.539784
0.539872
0.539872
0.53996
0.540047
0.540135
0.540223
0.540223
0.540311
0.540399
0.540487
0.540575
0.540575
0.540663
0.540751
0.54084
0.540928
0.540928
0.541016
0.541104
0.541193
0.541281
0.541281
0.54137
0.541458
0.541547
0.541635
0.541635
0.541724
0.541813
0.541902
0.54199
0.54199
0.542079
0.542168
0.542257
0.542346
0.542346
0.542435
0.542524
0.542613
0.542702
0.542702
0.542791
0.542881
0.54297
0.543059
0.543059
0.543149
0.543238
0.543327
0.543417
0.543417
0.543506
0.543596
0.543686
0.543775
0.543775
0.543865
0.543955
0.544045
0.544135
0.544135
0.544225
0.544314
0.544404
0.544495
0.544495
0.544585
0.544675
0.544765
0.544855
0.544855
0.544945
0.545036
0.545126
0.545217
0.545217
0.545307
0.545398
0.545488
0.545579
0.545579
0.545669
0.54576
0.545851
0.545941
0.545941
0.546032
0.546123
0.546214
0.546305
0.546305
0.546396
0.546487
0.546578
0.546669
0.546669
0.546761
0.546852
0.546943
0.547034
0.547034
0.547126
0.547217
0.547309
0.5474
0.5474
0.547492
0.547583
0.547675
0.547767
0.547767
0.547858
0.54795
0.548042
0.548134
0.548134
0.548226
0.548318
0.54841
0.548502
0.548502
0.548594
0.548686
0.548778
0.548871
0.548871
0.548963
0.549055
0.549148
0.54924
0.54924
0.549332
0.549425
0.549518
0.54961
0.54961
0.549703
0.549796
0.549888
0.549981
0.549981
0.550074
0.550167
0.55026
0.550353
0.550353
0.550446
0.550539
0.550632
0.550725
0.550725
0.550818
0.550912
0.551005
0.551098
0.551098
0.551192
0.551285
0.551379
0.551472
0.551472
0.551566
0.551659
0.551753
0.551847
0.551847
0.551941
0.552034
0.552128
0.552222
0.552222
0.552316
0.55241
0.552504
0.552598
0.552598
0.552693
0.552787
0.552881
0.552975
0.552975
0.55307
0.553164
0.553258
0.553353
0.553353
0.553447
0.553542
0.553637
0.553731
0.553731
0.553826
0.553921
0.554016
0.55411
0.55411
0.554205
0.5543
0.554395
0.55449
0.55449
0.554585
0.554681
0.554776
0.554871
0.554871
0.554966
0.555062
0.555157
0.555252
0.555252
0.555348
0.555443
0.555539
0.555635
0.555635
0.55573
0.555826
0.555922
0.556017
0.556017
0.556113
0.556209
0.556305
0.556401
0.556401
0.556497
0.556593
0.556689
0.556786
0.556786
0.556882
0.556978
0.557074
0.557171
0.557171
0.557267
0.557364
0.55746
0.557557
0.557557
0.557653
0.55775
0.557847