<?xml version="1.0"?>
<VTKFile type="UnstructuredGrid" version="0.1" byte_order="LittleEndian">
<UnstructuredGrid>
<Piece NumberOfPoints="5000" NumberOfCells="4000">
<PointData Scalars="Reaction 0">
<DataArray type="Float32" Name="Reaction 0" format="ascii">
0.564655
0.564655
0.564655
0.564655
0.564655
0.564655
0.564655
0.564655
0.564655
0.564655
0.564655
0.564655
0.564655
0.564655
0.564656
0.564656
0.564656
0.564656
0.564656
0.564656
0.564656
0.564656
0.564656
0.564656
0.564656
0.564656
0.564656
0.564656
0.564656
0.564656
0.564656
0.564656
0.564656
0.564656
0.564656
0.564656
0.564656
0.564657
0.564657
0.564657
0.564657
0.564657
0.564657
0.564657
0.564657
0.564657
0.564657
0.564657
0.564657
0.564658
0.564658
0.564658
0.564658
0.564658
0.564658
0.564658
0.564658
0.564658
0.564658
0.564659
0.564659
0.564659
0.564659
0.564659
0.564659
0.564659
0.564659
0.564659
0.56466
0.56466
0.56466
0.56466
0.56466
0.56466
0.56466
0.56466
0.56466
0.564661
0.564661
0.564661
0.564661
0.564661
0.564661
0.564662
0.564662
0.564662
0.564662
0.564662
0.564662
0.564663
0.564663
0.564663
0.564663
0.564663
0.564663
0.564663
0.564664
0.564664
0.564664
0.564664
0.564664
0.564664
0.564665
0.564665
0.564665
0.564665
0.564665
0.564666
0.564666
0.564666
0.564666
0.564666
0.564667
0.564667
0.564667
0.564667
0.564667
0.564668
0.564668
0.564668
0.564668
0.564668
0.564669
0.564669
0.564669
0.564669
0.564669
0.56467
0.56467
0.56467
0.56467
0.564671
0.564671
0.564671
0.564671
0.564671
0.564672
0.564672
0.564672
0.564673
0.564673
0.564673
0.564673
0.564674
0.564674
0.564674
0.564674
0.564675
0.564675
0.564675
0.564675
0.564676
0.564676
0.564676
0.564677
0.564677
0.564677
0.564677
0.564678
0.564678
0.564678
0.564678
0.564679
0.564679
0.56468
0.56468
0.56468
0.56468
0.564681
0.564681
0.564681
0.564681
0.564682
0.564682
0.564683
0.564683
0.564683
0.564683
0.564684
0.564684
0.564684
0.564685
0.564685
0.564685
0.564686
0.564686
0.564686
0.564687
0.564687
0.564687
0.564687
0.564688
0.564688
0.564689
0.564689
0.564689
0.56469
0.56469
0.56469
0.564691
0.564691
0.564691
0.564692
0.564692
0.564693
0.564693
0.564693
0.564694
0.564694
0.564695
0.564695
0.564695
0.564696
0.564696
0.564697
0.564697
0.564697
0.564697
0.564698
0.564698
0.564698
0.564699
0.564699
0.5647
0.5647
0.5647
0.564701
0.564701
0.564702
0.564703
0.564703
0.564703
0.564704
0.564704
0.564705
0.564705
0.564705
0.564706
0.564706
0.564707
0.564707
0.564707
0.564708
0.564708
0.564709
0.564709
0.564709
0.56471
0.564711
0.564711
0.564711
0.564712
0.564712
0.564713
0.564713
0.564713
0.564714
0.564715
0.564715
0.564716
0.564716
0.564716
0.564717
0.564717
0.564718
0.564718
0.564719
0.564719
0.56472
0.564721
0.564721
0.564721
0.564722
0.564722
0.564723
0.564723
0.564724
0.564724
0.564725
0.564725
0.564725
0.564726
0.564727
0.564727
0.564728
0.564728
0.564729
0.564729
0.56473
0.564731
0.564731
0.564731
0.564732
0.564733
0.564733
0.564733
0.564734
0.564735
0.564735
0.564736
0.564736
0.564737
0.564737
0.564738
0.564739
0.564739
0.564739
0.56474
0.564741
0.564741
0.564741
0.564742
0.564743
0.564744
0.564744
0.564744
0.564745
0.564746
0.564746
0.564747
0.564747
0.564748
0.564749
0.564749
0.56475
0.56475
0.564751
0.564752
0.564752
0.564753
0.564753
0.564754
0.564755
0.564755
0.564756
0.564756
0.564757
0.564758
0.564758
0.564759
0.564759
0.56476
0.564761
0.564762
0.564762
0.564762
0.564763
0.564764
0.564765
0.564766
0.564766
0.564766
0.564767
0.564768
0.564769
0.564769
0.56477
0.56477
0.564771
0.564772
0.564772
0.564773
0.564774
0.564774
0.564775
0.564775
0.564776
0.564777
0.564778
0.564779
0.564779
0.56478
0.56478
0.564781
0.564782
0.564782
0.564783
0.564784
0.564785
0.564785
0.564785
0.564786
0.564787
0.564788
0.564789
0.564789
0.56479
0.564791
0.564792
0.564793
0.564793
0.564793
0.564794
0.564795
0.564796
0.564796
0.564797
0.564798
0.564799
0.5648
0.5648
0.564801
0.564802
0.564803
0.564804
0.564804
0.564805
0.564805
0.564806
0.564807
0.564807
0.564808
0.564809
0.56481
0.564811
0.564811
0.564812
0.564813
0.564814
0.564815
0.564815
0.564816
0.564817
0.564818
0.564819
0.564819
0.56482
0.564821
0.564822
0.564823
0.564823
0.564824
0.564825
0.564826
0.564827
0.564827
0.564828
0.564829
0.56483
0.564831
0.564831
0.564832
0.564833
0.564834
0.564835
0.564835
0.564836
0.564837
0.564838
0.564839
0.564839
0.56484
0.564841
0.564842
0.564843
0.564843
0.564845
0.564846
0.564847
0.564848
0.564848
0.564849
0.56485
0.564851
0.564852
0.564852
0.564853
0.564854
0.564855
0.564856
0.564856
0.564858
0.564859
0.56486
0.564861
0.564861
0.564862
0.564863
0.564864
0.564865
0.564865
0.564866
0.564868
0.564869
0.56487
0.56487
0.564871
0.564872
0.564873
0.564874
0.564874
0.564876
0.564877
0.564878
0.564879
0.564879
0.56488
0.564881
0.564883
0.564884
0.564884
0.564885
0.564886
0.564887
0.564888
0.564888
0.56489
0.564891
0.564892
0.564893
0.564893
0.564894
0.564896
0.564897
0.564898
0.564898
0.564899
0.5649
0.564902
0.564903
0.564903
0.564904
0.564905
0.564907
0.564908
0.564908
0.564909
0.56491
0.564912
0.564913
0.564913
0.564914
0.564915
0.564917
0.564918
0.564918
0.564919
0.564921
0.564922
0.564923
0.564923
0.564924
0.564926
0.564927
0.564928
0.564928
0.56493
0.564931
0.564932
0.564934
0.564934
0.564935
0.564936
0.564937
0.564939
0.564939
0.56494
0.564941
0.564943
0.564944
0.564944
0.564945
0.564947
0.564948
0.56495
0.56495
0.564951
0.564952
0.564954
0.564955
0.564955
0.564956
0.564958
0.564959
0.56496
0.56496
0.564962
0.564963
0.564965
0.564966
0.564966
0.564967
0.564969
0.56497
0.564972
0.564972
0.564973
0.564974
0.564976
0.564977
0.564977
0.564979
0.56498
0.564982
0.564983
0.564983
0.564984
0.564986
0.564987
0.564989
0.564989
0.56499
0.564992
0.564993
0.564995
0.564995
0.564996
0.564998
0.564999
0.565
0.565
0.565002
0.565003
0.565005
0.565006
0.565006
0.565008
0.565009
0.565011
0.565012
0.565012
0.565014
0.565015
0.565017
0.565018
0.565018
0.56502
0.565021
0.565023
0.565025
0.565025
0.565026
0.565028
0.565029
0.565031
0.565031
0.565032
0.565034
0.565035
0.565037
0.565037
0.565039
0.56504
0.565042
0.565043
0.565043
0.565045
0.565047
0.565048
0.56505
0.56505
0.565051
0.565053
0.565055
0.565056
0.565056
0.565058
0.565059
0.565061
0.565063
0.565063
0.565064
0.565066
0.565068
0.565069
0.565069
0.565071
0.565072
0.565074
0.565076
0.565076
0.565077
0.565079
0.565081
0.565082
0.565082
0.565084
0.565086
0.565087
0.565089
0.565089
0.565091
0.565093
0.565094
0.565096
0.565096
0.565098
0.565099
0.565101
0.565103
0.565103
0.565104
0.565106
0.565108
0.56511
0.56511
0.565111
0.565113
0.565115
0.565117
0.565117
0.565118
0.56512
0.565122
0.565124
0.565124
0.565125
0.565127
0.565129
0.565131
0.565131
0.565132
0.565134
0.565136
0.565138
0.565138
0.56514
0.565141
0.565143
0.565145
0.565145
0.565147
0.565149
0.56515
0.565152
0.565152
0.565154
0.565156
0.565158
0.56516
0.56516
0.565161
0.565163
0.565165
0.565167
0.565167
0.565169
0.565171
0.565173
0.565175
0.565175
0.565176
0.565178
0.56518
0.565182
0.565182
0.565184
0.565186
0.565188
0.56519
0.56519
0.565192
0.565193
0.565195
0.565197
0.565197
0.565199
0.565201
0.565203
0.565205
0.565205
0.565207
0.565209
0.565211
0.565213
0.565213
0.565215
0.565217
0.565219
0.565221
0.565221
0.565223
0.565225
0.565227
0.565229
0.565229
0.565231
0.565233
0.565235
0.565237
0.565237
0.565239
0.565241
0.565243
0.565245
0.565245
0.565247
0.565249
0.565251
0.565253
0.565253
0.565255
0.565257
0.565259
0.565261
0.565261
0.565263
0.565265
0.565267
0.565269
0.565269
0.565271
0.565273
0.565275
0.565277
0.565277
0.56528
0.565282
0.565284
0.565286
0.565286
0.565288
0.56529
0.565292
0.565294
0.565294
0.565296
0.565299
0.565301
0.565303
0.565303
0.565305
0.565307
0.565309
0.565312
0.565312
0.565314
0.565316
0.565318
0.56532
0.56532
0.565322
0.565325
0.565327
0.565329
0.565329
0.565331
0.565333
0.565336
0.565338
0.565338
0.56534
0.565342
0.565344
0.565347
0.565347
0.565349
0.565351
0.565353
0.565356
0.565356
0.565358
0.56536
0.565362
0.565365
0.565365
0.565367
0.565369
0.565372
0.565374
0.565374
0.565376
0.565378
0.565381
0.565383
0.565383
0.565385
0.565388
0.56539
0.565392
0.565392
0.565394
0.565397
0.565399
0.565401
0.565401
0.565404
0.565406
0.565408
0.565411
0.565411
0.565413
0.565416
0.565418
0.56542
0.56542
0.565423
0.565425
0.565427
0.56543
0.56543
0.565432
0.565435
0.565437
0.565439
0.565439
0.565442
0.565444
0.565447
0.565449
0.565449
0.565452
0.565454
0.565457
0.565459
0.565459
0.565461
0.565464
0.565466
0.565469
0.565469
0.565471
0.565474
0.565476
0.565479
0.565479
0.565481
0.565484
0.565486
0.565489
0.565489
0.565491
0.565494
0.565496
0.565499
0.565499
0.565501
0.565504
0.565506
0.565509
0.565509
0.565512
0.565514
0.565517
0.565519
0.565519
0.565522
0.565524
0.565527
0.56553
0.56553
0.565532
0.565535
0.565537
0.56554
0.56554
0.565542
0.565545
0.565548
0.56555
0.56555
0.565553
0.565556
0.565558
0.565561
0.565561
0.565563
0.565566
0.565569
0.565571
0.565571
0.565574
0.565577
0.56558
0.565582
0.565582
0.565585
0.565588
0.56559
0.565593
0.565593
0.565596
0.565599
0.565601
0.565604
0.565604
0.565607
0.565609
0.565612
0.565615
0.565615
0.565618
0.56562
0.565623
0.565626
0.565626
0.565629
0.565632
0.565634
0.565637
0.565637
0.56564
0.565643
0.565646
0.565648
0.565648
0.565651
0.565654
0.565657
0.56566
0.56566
0.565662
0.565665
0.565668
0.565671
0.565671
0.565674
0.565677
0.56568
0.565682
0.565682
0.565685
0.565688
0.565691
0.565694
0.565694
0.565697
0.5657
0.565703
0.565706
0.565706
0.565708
0.565711
0.565714
0.565717
0.565717
0.56572
0.565723
0.565726
0.565729
0.565729
0.565732
0.565735
0.565738
0.565741
0.565741
0.565744
0.565747
0.56575
0.565753
0.565753
0.565756
0.565759
0.565762
0.565765
0.565765
0.565768
0.565771
0.565774
0.565777
0.565777
0.56578
0.565783
0.565787
0.56579
0.56579
0.565793
0.565796
0.565799
0.565802
0.565802
0.565805
0.565808
0.565811
0.565814
0.565814
0.565817
0.565821
0.565824
0.565827
0.565827
0.56583
0.565833
0.565836
0.565839
0.565839
0.565843
0.565846
0.565849
0.565852
0.565852
0.565855
0.565859
0.565862
0.565865
0.565865
0.565868
0.565871
0.565875
0.565878
0.565878
0.565881
0.565884
0.565888
0.565891
0.565891
0.565894
0.565897
0.565901
0.565904
0.565904
0.565907
0.565911
0.565914
0.565917
0.565917
0.565921
0.565924
0.565927
0.565931
0.565931
0.565934
0.565937
0.565941
0.565944
0.565944
0.565947
0.565951
0.565954
0.565957
0.565957
0.565961
0.565964
0.565968
0.565971
0.565971
0.565974
0.565978
0.565981
0.565985
0.565985
0.565988
0.565991
0.565995
0.565998
0.565998
0.566002
0.566005
0.566009
0.566012
0.566012
0.566016
0.566019
0.566023
0.566026
0.566026
0.56603
0.566033
0.566037
0.56604
0.56604
0.566044
0.566047
0.566051
0.566055
0.566055
0.566058
0.566062
0.566065
0.566069
0.566069
0.566072
0.566076
0.56608
0.566083
0.566083
0.566087
0.566091
0.566094
0.566098
0.566098
0.566101
0.566105
0.566109
0.566112
0.566112
0.566116
0.56612
0.566123
0.566127
0.566127
0.566131
0.566134
0.566138
0.566142
0.566142
0.566146
0.566149
0.566153
0.566157
0.566157
0.56616
0.566164
0.566168
0.566172
0.566172
0.566176
0.566179
0.566183
0.566187
0.566187
0.566191
0.566195
0.566198
0.566202
0.566202
0.566206
0.56621
0.566214
0.566218
0.566218
0.566221
0.566225
0.566229
0.566233
0.566233
0.566237
0.566241
0.566245
0.566249
0.566249
0.566253
0.566257
0.56626
0.566264
0.566264
0.566268
0.566272
0.566276
0.56628
0.56628
0.566284
0.566288
0.566292
0.566296
0.566296
0.5663
0.566304
0.566308
0.566312
0.566312
0.566316
0.56632
0.566324
0.566328
0.566328
0.566332
0.566336
0.56634
0.566344
0.566344
0.566349
0.566353
0.566357
0.566361
0.566361
0.566365
0.566369
0.566373
0.566377
0.566377
0.566382
0.566386
0.56639
0.566394
0.566394
0.566398
0.566402
0.566407
0.566411
0.566411
0.566415
0.566419
0.566423
0.566428
0.566428
0.566432
0.566436
0.56644
0.566445
0.566445
0.566449
0.566453
0.566457
0.566462
0.566462
0.566466
0.56647
0.566475
0.566479
0.566479
0.566483
0.566488
0.566492
0.566496
0.566496
0.566501
0.566505
0.566509
0.566514
0.566514
0.566518
0.566522
0.566527
0.566531
0.566531
0.566536
0.56654
0.566545
0.566549
0.566549
0.566554
0.566558
0.566563
0.566567
0.566567
0.566571
0.566576
0.56658
0.566585
0.566585
0.56659
0.566594
0.566599
0.566603
0.566603
0.566608
0.566612
0.566617
0.566621
0.566621
0.566626
0.566631
0.566635
0.56664
0.56664
0.566644
0.566649
0.566654
0.566658
0.566658
0.566663
0.566667
0.566672
0.566677
0.566677
0.566681
0.566686
0.566691
0.566695
0.566695
0.5667
0.566705
0.56671
0.566714
0.566714
0.566719
0.566724
0.566729
0.566734
0.566734
0.566738
0.566743
0.566748
0.566753
0.566753
0.566758
0.566762
0.566767
0.566772
0.566772
0.566777
0.566782
0.566787
0.566792
0.566792
0.566796
0.566801
0.566806
0.566811
0.566811
0.566816
0.566821
0.566826
0.566831
0.566831
0.566836
0.566841
0.566846
0.566851
0.566851
0.566856
0.566861
0.566866
0.566871
0.566871
0.566876
0.566881
0.566886
0.566891
0.566891
0.566896
0.566901
0.566906
0.566911
0.566911
0.566916
0.566921
0.566927
0.566932
0.566932
0.566937
0.566942
0.566947
0.566952
0.566952
0.566957
0.566963
0.566968
0.566973
0.566973
0.566978
0.566983
0.566989
0.566994
0.566994
0.566999
0.567004
0.56701
0.567015
0.567015
0.56702
0.567026
0.567031
0.567036
0.567036
0.567041
0.567047
0.567052
0.567057
0.567057
0.567063
0.567068
0.567073
0.567079
0.567079
0.567084
0.56709
0.567095
0.567101
0.567101
0.567106
0.567112
0.567117
0.567122
0.567122
0.567128
0.567133
0.567139
0.567144
0.567144
0.56715
0.567156
0.567161
0.567167
0.567167
0.567172
0.567178
0.567183
0.567189
0.567189
0.567194
0.5672
0.567206
0.567211
0.567211
0.567217
0.567223
0.567228
0.567234
0.567234
0.56724
0.567245
0.567251
0.567257
0.567257
0.567262
0.567268
0.567274
0.56728
0.56728
0.567285
0.567291
0.567297
0.567303
0.567303
0.567309
0.567314
0.56732
0.567326
0.567326
0.567332
0.567338
0.567344
0.567349
0.567349
0.567355
0.567361
0.567367
0.567373
0.567373
0.567379
0.567385
0.567391
0.567397
0.567397
0.567403
0.567409
0.567415
0.567421
0.567421
0.567427
0.567433
0.567439
0.567445
0.567445
0.567451
0.567457
0.567463
0.567469
0.567469
0.567475
0.567481
0.567487
0.567494
0.567494
0.5675
0.567506
0.567512
0.567518
0.567518
0.567525
0.567531
0.567537
0.567543
0.567543
0.567549
0.567556
0.567562
0.567568
0.567568
0.567574
0.567581
0.567587
0.567593
0.567593
0.5676
0.567606
0.567612
0.567619
0.567619
0.567625
0.567631
0.567638
0.567644
0.567644
0.567651
0.567657
0.567663
0.56767
0.56767
0.567676
0.567683
0.567689
0.567696
0.567696
0.567702
0.567709
0.567715
0.567722
0.567722
0.567729
0.567735
0.567742
0.567748
0.567748
0.567755
0.567762
0.567768
0.567775
0.567775
0.567782
0.567788
0.567795
0.567802
0.567802
0.567808
0.567815
0.567822
0.567828
0.567828
0.567835
0.567842
0.567849
0.567856
0.567856
0.567862
0.567869
0.567876
0.567883
0.567883
0.56789
0.567896
0.567903
0.56791
0.56791
0.567917
0.567924
0.567931
0.567938
0.567938
0.567945
0.567952
0.567959
0.567966
0.567966
0.567973
0.56798
0.567987
0.567994
0.567994
0.568001
0.568008
0.568015
0.568022
0.568022
0.568029
0.568036
0.568044
0.568051
0.568051
0.568058
0.568065
0.568072
0.568079
0.568079
0.568087
0.568094
0.568101
0.568108
0.568108
0.568116
0.568123
0.56813
0.568137
0.568137
0.568145
0.568152
0.568159
0.568167
0.568167
0.568174
0.568182
0.568189
0.568196
0.568196
0.568204
0.568211
0.568219
0.568226
0.568226
0.568234
0.568241
0.568249
0.568256
0.568256
0.568264
0.568271
0.568279
0.568286
0.568286
0.568294
0.568302
0.568309
0.568317
0.568317
0.568324
0.568332
0.56834
0.568347
0.568347
0.568355
0.568363
0.56837
0.568378
0.568378
0.568386
0.568394
0.568402
0.568409
0.568409
0.568417
0.568425
0.568433
0.568441
0.568441
0.568449
0.568457
0.568464
0.568472
0.568472
0.56848
0.568488
0.568496
0.568504
0.568504
0.568512
0.56852
0.568528
0.568536
0.568536
0.568544
0.568552
0.56856
0.568568
0.568568
0.568577
0.568585
0.568593
0.568601
0.568601
0.568609
0.568617
0.568625
0.568634
0.568634
0.568642
0.56865
0.568658
0.568667
0.568667
0.568675
0.568683
0.568692
0.5687
0.5687
0.568708
0.568717
0.568725
0.568734
0.568734
0.568742
0.56875
0.568759
0.568767
0.568767
0.568776
0.568784
0.568793
0.568801
0.568801
0.56881
0.568818
0.568827
0.568835
0.568835
0.568844
0.568853
0.568861
0.56887
0.56887
0.568879
0.568887
0.568896
0.568905
0.568905
0.568913
0.568922
0.568931
0.56894
0.56894
0.568949
0.568957
0.568966
0.568975
0.568975
0.568984
0.568993
0.569002
0.569011
0.569011
0.56902
0.569028
0.569037
0.569046
0.569046
0.569055
0.569064
0.569073
0.569082
0.569082
0.569091
0.5691
0.56911
0.569119
0.569119
0.569128
0.569137
0.569146
0.569155
0.569155
0.569165
0.569174
0.569183
0.569192
0.569192
0.569202
0.569211
0.56922
0.569229
0.569229
0.569239
0.569248
0.569258
0.569267
0.569267
0.569276
0.569286
0.569295
0.569305
0.569305
0.569314
0.569324
0.569333
0.569343
0.569343
0.569352
0.569362
0.569371
0.569381
0.569381
0.56939
0.5694
0.56941
0.569419
0.569419
0.569429
0.569439
0.569449
0.569458
0.569458
0.569468
0.569478
0.569488
0.569498
0.569498
0.569507
0.569517
0.569527
0.569537
0.569537
0.569547
0.569557
0.569567
0.569577
0.569577
0.569587
0.569597
0.569607
0.569617
0.569617
0.569627
0.569637
0.569647
0.569657
0.569657
0.569667
0.569677
0.569688
0.569698
0.569698
0.569708
0.569718
0.569729
0.569739
0.569739
0.569749
0.569759
0.56977
0.56978
0.56978
0.569791
0.569801
0.569811
0.569822
0.569822
0.569832
0.569843
0.569853
0.569864
0.569864
0.569874
0.569885
0.569895
0.569906
0.569906
0.569916
0.569927
0.569938
0.569948
0.569948
0.569959
0.56997
0.56998
0.569991
0.569991
0.570002
0.570013
0.570024
0.570034
0.570034
0.570045
0.570056
0.570067
0.570078
0.570078
0.570089
0.5701
0.570111
0.570122
0.570122
0.570133
0.570144
0.570155
0.570166
0.570166
0.570177
0.570188
0.570199
0.570211
0.570211
0.570222
0.570233
0.570244
0.570255
0.570255
0.570267
0.570278
0.570289
0.570301
0.570301
0.570312
0.570323
0.570335
0.570346
0.570346
0.570358
0.570369
0.570381
0.570392
0.570392
0.570404
0.570415
0.570427
0.570439
0.570439
0.57045
0.570462
0.570473
0.570485
0.570485
0.570497
0.570509
0.57052
0.570532
0.570532
0.570544
0.570556
0.570567
0.570579
0.570579
0.570591
0.570603
0.570615
0.570627
0.570627
0.570639
0.570651
0.570663
0.570675
0.570675
0.570687
0.570699
0.570712
0.570724
0.570724
0.570736
0.570748
0.57076
0.570772
0.570772
0.570785
0.570797
0.570809
0.570822
0.570822
0.570834
0.570846
0.570859
0.570871
0.570871
0.570884
0.570896
0.570909
0.570921
0.570921
0.570934
0.570946
0.570959
0.570971
0.570971
0.570984
0.570997
0.57101
0.571022
0.571022
0.571035
0.571048
0.571061
0.571073
0.571073
0.571086
0.571099
0.571112
0.571125
0.571125
0.571138
0.571151
0.571164
0.571177
0.571177
0.57119
0.571203
0.571216
0.571229
0.571229
0.571242
0.571255
0.571268
0.571282
0.571282
0.571295
0.571308
0.571322
0.571335
0.571335
0.571348
0.571362
0.571375
0.571388
0.571388
0.571402
0.571415
0.571429
0.571442
0.571442
0.571456
0.57147
0.571483
0.571497
0.571497
0.57151
0.571524
0.571538
0.571551
0.571551
0.571565
0.571579
0.571593
0.571607
0.571607
0.571621
0.571635
0.571648
0.571662
0.571662
0.571676
0.57169
0.571704
0.571719
0.571719
0.571733
0.571747
0.571761
0.571775
0.571775
0.571789
0.571803
0.571818
0.571832
0.571832
0.571846
0.571861
0.571875
0.571889
0.571889
0.571904
0.571918
0.571933
0.571947
0.571947
0.571962
0.571976
0.571991
0.572006
0.572006
0.57202
0.572035
0.57205
0.572064
0.572064
0.572079
0.572094
0.572109
0.572124
0.572124
0.572138
0.572153
0.572168
0.572183
0.572183
0.572198
0.572213
0.572228
0.572243
0.572243
0.572258
0.572274
0.572289
0.572304
0.572304
0.572319
0.572334
0.57235
0.572365
0.572365
0.57238
0.572396
0.572411
0.572427
0.572427
0.572442
0.572458
0.572473
0.572489
0.572489
0.572504
0.57252
0.572536
0.572551
0.572551
0.572567
0.572583
0.572598
0.572614
0.572614
0.57263
0.572646
0.572662
0.572678
0.572678
0.572694
0.57271
0.572726
0.572742
0.572742
0.572758
0.572774
0.57279
0.572806
0.572806
0.572823
0.572839
0.572855
0.572871
0.572871
0.572888
0.572904
0.572921
0.572937
0.572937
0.572953
0.57297
0.572986
0.573003
0.573003
0.57302
0.573036
0.573053
0.57307
0.57307
0.573086
0.573103
0.57312
0.573137
0.573137
0.573154
0.57317
0.573187
0.573204
0.573204
0.573221
0.573238
0.573255
0.573273
0.573273
0.57329
0.573307
0.573324
0.573341
0.573341
0.573358
0.573376
0.573393
0.57341
0.57341
0.573428
0.573445
0.573463
0.57348
0.57348
0.573498
0.573515
0.573533
0.57355
0.57355
0.573568
0.573586
0.573604
0.573621
0.573621
0.573639
0.573657
0.573675
0.573693
0.573693
0.573711
0.573729
0.573747
0.573765
0.573765
0.573783
0.573801
0.573819
0.573837
0.573837
0.573856
0.573874
0.573892
0.573911
0.573911
0.573929
0.573947
0.573966
0.573984
0.573984
0.574003
0.574021
0.57404
0.574059
0.574059
0.574077
0.574096
0.574115
0.574134
0.574134
0.574152
0.574171
0.57419
0.574209
0.574209
0.574228
0.574247
0.574266
0.574285
0.574285
0.574304
0.574323
0.574343
0.574362
0.574362
0.574381
0.5744
0.57442
0.574439
0.574439
0.574459
0.574478
0.574498
0.574517
0.574517
0.574537
0.574556
0.574576
0.574596
0.574596
0.574615
0.574635
0.574655
0.574675
0.574675
0.574695
0.574714
0.574734
0.574754
0.574754
0.574774
0.574794
0.574815
0.574835
0.574835
0.574855
0.574875
0.574896
0.574916
0.574916
0.574936
0.574957
0.574977
0.574998
0.574998
0.575018
0.575039
0.575059
0.57508
0.57508
0.575101
0.575121
0.575142
0.575163
0.575163
0.575184
0.575204
0.575225
0.575246
0.575246
0.575267
0.575288
0.575309
0.575331
0.575331
0.575352
0.575373
0.575394
0.575416
0.575416
0.575437
0.575458
0.57548
0.575501
0.575501
0.575523
0.575544
0.575566
0.575588
0.575588
0.575609
0.575631
0.575653
0.575674
0.575674
0.575696
0.575718
0.57574
0.575762
0.575762
0.575784
0.575806
0.575828
0.57585
0.57585
0.575873
0.575895
0.575917
0.575939
0.575939
0.575962
0.575984
0.576007
0.576029
0.576029
0.576052
0.576074
0.576097
0.57612
0.57612
0.576142
0.576165
0.576188
0.576211
0.576211
0.576234
0.576257
0.57628
0.576303
0.576303
0.576326
0.576349
0.576372
0.576395
0.576395
0.576418
0.576442
0.576465
0.576489
0.576489
0.576512
0.576535
0.576559
0.576583
0.576583
0.576606
0.57663
0.576654
0.576677
0.576677
0.576701
0.576725
0.576749
0.576773
0.576773
0.576797
0.576821
0.576845
0.576869
0.576869
0.576893
0.576918
0.576942
0.576966
0.576966
0.576991
0.577015
0.577039
0.577064
0.577064
0.577089
0.577113
0.577138
0.577162
0.577162
0.577187
0.577212
0.577237
0.577262
0.577262
0.577287
0.577312
0.577337
0.577362
0.577362
0.577387
0.577412
0.577437
0.577463
0.577463
0.577488
0.577514
0.577539
0.577564
0.577564
0.57759
0.577616
0.577641
0.577667
0.577667
0.577693
0.577718
0.577744
0.57777
0.57777
0.577796
0.577822
0.577848
0.577874
0.577874
0.5779
0.577926
0.577953
0.577979
0.577979
0.578005
0.578032
0.578058
0.578085
0.578085
0.578111
0.578138
0.578164
0.578191
0.578191
0.578218
0.578245
0.578272
0.578298
0.578298
0.578325
0.578352
0.578379
0.578407
0.578407
0.578434
0.578461
0.578488
0.578516
0.578516
0.578543
0.57857
0.578598
0.578625
0.578625
0.578653
0.578681
0.578708
0.578736
0.578736
0.578764
0.578792
0.57882
0.578848
0.578848
0.578876
0.578904
0.578932
0.57896
0.57896
0.578988
0.579016
0.579045
0.579073
0.579073
0.579102
0.57913
0.579159
0.579187
0.579187
0.579216
0.579245
0.579273
0.579302
0.579302
0.579331
0.57936
0.579389
0.579418
0.579418
0.579447
0.579476
0.579506
0.579535
0.579535
0.579564
0.579594
0.579623
0.579652
0.579652
0.579682
0.579712
0.579741
0.579771
0.579771
0.579801
0.579831
0.579861
0.57989
0.57989
0.57992
0.579951
0.579981
0.580011
0.580011
0.580041
0.580071
0.580102
0.580132
0.580132
0.580162
0.580193
0.580223
0.580254
0.580254
0.580285
0.580316
0.580346
0.580377
0.580377
0.580408
0.580439
0.58047
0.580501
0.580501
0.580532
0.580564
0.580595
0.580626
0.580626
0.580658
0.580689
0.58072
0.580752
0.580752
0.580784
0.580815
0.580847
0.580879
0.580879
0.580911
0.580943
0.580975
0.581007
0.581007
0.581039
0.581071
0.581103
0.581135
0.581135
0.581168
0.5812
0.581233
0.581265
0.581265
0.581298
0.58133
0.581363
0.581396
0.581396
0.581428
0.581461
0.581494
0.581527
0.581527
0.58156
0.581593
0.581627
0.58166
0.58166
0.581693
0.581726
0.58176
0.581793
0.581793
0.581827
0.581861
0.581894
0.581928
0.581928
0.581962
0.581996
0.582029
0.582063
0.582063
0.582097
0.582132
0.582166
0.5822
0.5822
0.582234
0.582269
0.582303
0.582337
0.582337
0.582372
0.582407
0.582441
0.582476
0.582476
0.582511
0.582546
0.582581
0.582616
0.582616
0.582651
0.582686
0.582721
0.582756
0.582756
0.582791
0.582827
0.582862
0.582898
0.582898
0.582933
0.582969
0.583004
0.58304
0.58304
0.583076
0.583112
0.583148
0.583184
0.583184
0.58322
0.583256
0.583292
0.583328
0.583328
0.583365
0.583401
0.583437
0.583474
0.583474
0.583511
0.583547
0.583584
0.583621
0.583621
0.583657
0.583694
0.583731
0.583768
0.583768
0.583806
0.583843
0.58388
0.583917
0.583917
0.583955
0.583992
0.584029
0.584067
0.584067
0.584105
0.584142
0.58418
0.584218
0.584218
0.584256
0.584294
0.584332
0.58437
0.58437
0.584408
0.584446
0.584484
0.584523
0.584523
0.584561
0.5846
0.584638
0.584677
0.584677
0.584716
0.584754
0.584793
0.584832
0.584832
0.584871
0.58491
0.584949
0.584988
0.584988
0.585027
0.585067
0.585106
0.585145
0.585145
0.585185
0.585224
0.585264
0.585304
0.585304
0.585344
0.585383
0.585423
0.585463
0.585463
0.585503
0.585543
0.585584
0.585624
0.585624
0.585664
0.585704
0.585745
0.585785
0.585785
0.585826
0.585867
0.585907
0.585948
0.585948
0.585989
0.58603
0.586071
0.586112
0.586112
0.586153
0.586194
0.586235
0.586277
0.586277
0.586318
0.58636
0.586401
0.586443
0.586443
0.586484
0.586526
0.586568
0.58661
0.58661
0.586652
0.586694
0.586736
0.586778
0.586778
0.58682
0.586862
0.586905
0.586947
0.586947
0.58699
0.587032
0.587075
0.587118
0.587118
0.58716
0.587203
0.587246
0.587289
0.587289
0.587332
0.587375
0.587419
0.587462
0.587462
0.587505
0.587549
0.587592
0.587636
0.587636
0.587679
0.587723
0.587767
0.58781
0.58781
0.587854
0.587898
0.587942
0.587986
0.587986
0.588031
0.588075
0.588119
0.588163
0.588163
0.588208
0.588252
0.588297
0.588342
0.588342
0.588386
0.588431
0.588476
0.588521
0.588521
0.588566
0.588611
0.588656
0.588701
0.588701
0.588747
0.588792
0.588838
0.588883
0.588883
0.588929
0.588974
0.58902
0.589066
0.589066
0.589112
0.589157
0.589203
0.589249
0.589249
0.589296
0.589342
0.589388
0.589434
0.589434
0.589481
0.589527
0.589574
0.589621
0.589621
0.589667
0.589714
0.589761
0.589808
0.589808
0.589855
0.589902
0.589949
0.589996
0.589996
0.590043
0.590091
0.590138
0.590185
0.590185
0.590233
0.590281
0.590328
0.590376
0.590376
0.590424
0.590472
0.59052
0.590568
0.590568
0.590616
0.590664
0.590712
0.590761
0.590761
0.590809
0.590857
0.590906
0.590954
0.590954
0.591003
0.591052
0.591101
0.59115
0.59115
0.591199
0.591248
0.591297
0.591346
0.591346
0.591395
0.591444
0.591494
0.591543
0.591543
0.591593
0.591642
0.591692
0.591741
0.591741
0.591791
0.591841
0.591891
0.591941
0.591941
0.591991
0.592041
0.592091
0.592142
0.592142
0.592192
0.592242
0.592293
0.592343
0.592343
0.592394
0.592445
0.592495
0.592546
0.592546
0.592597
0.592648
0.592699
0.59275
0.59275
0.592801
0.592853
0.592904
0.592955
0.592955
0.593007
0.593058
0.59311
0.593162
0.593162
0.593213
0.593265
0.593317
0.593369
0.593369
0.593421
0.593473
0.593525
0.593577
0.593577
0.593629
0.593682
0.593734
0.593787
0.593787
0.593839
0.593892
0.593945
0.593997
0.593997
0.59405
0.594103
0.594156
0.594209
0.594209
0.594262
0.594315
0.594368
0.594422
0.594422
0.594475
0.594528
0.594582
0.594636
0.594636
0.594689
0.594743
0.594797
0.59485
0.59485
0.594904
0.594958
0.595012
0.595066
0.595066
0.595121
0.595175
0.595229
0.595284
0.595284
0.595338
0.595392
0.595447
0.595502
0.595502
0.595556
0.595611
0.595666
0.595721
0.595721
0.595776
0.595831
0.595886
0.595941
0.595941
0.595996
0.596052
0.596107
0.596162
0.596162
0.596218
0.596273
0.596329
0.596385
0.596385
0.59644
0.596496
0.596552
0.596608
0.596608
0.596664
0.59672
0.596776
0.596832
0.596832
0.596889
0.596945
0.597001
0.597058
0.597058
0.597114
0.597171
0.597228
0.597284
0.597284
0.597341
0.597398
0.597455
0.597512
0.597512
0.597569
0.597626
0.597683
0.59774
0.59774
0.597798
0.597855
0.597912
0.59797
0.59797
0.598027
0.598085
0.598143
0.5982
0.5982
0.598258
0.598316
0.598374
0.598432
0.598432
0.59849
0.598548
0.598606
0.598664
0.598664
0.598723
0.598781
0.598839
0.598898
0.598898
0.598956
0.599015
0.599074
0.599132
0.599132
0.599191
0.59925
0.599309
0.599368
0.599368
0.599427
0.599486
0.599545
0.599604
0.599604
0.599663
0.599723
0.599782
0.599841
0.599841
0.599901
0.59996
0.60002
0.60008
0.60008
0.600139
0.600199
0.600259
0.600319
0.600319
0.600379
0.600439
0.600499
0.600559
0.600559
0.600619
0.600679
0.60074
0.6008
0.6008
0.60086
0.600921
0.600981
0.601042
0.601042
0.601103
0.601163
0.601224
0.601285
0.601285
0.601346
0.601407
0.601468
0.601529
0.601529
0.60159
0.601651
0.601712
0.601773
0.601773
0.601835
0.601896
0.601957
0.602019
0.602019
0.60208
0.602142
0.602203
0.602265
0.602265
0.602327
0.602389
0.602451
0.602512
0.602512
0.602574
0.602636
0.602698
0.602761
0.602761
0.602823
0.602885
0.602947
0.60301
0.60301
0.603072
0.603134
0.603197
0.603259
0.603259
0.603322
0.603385
0.603447
0.60351
0.60351
0.603573
0.603636
0.603698
0.603761
0.603761
0.603824
0.603887
0.603951
0.604014
0.604014
0.604077
0.60414
0.604203
0.604267
0.604267
0.60433
0.604394
0.604457
0.604521
0.604521
0.604584
0.604648
0.604712
0.604775
0.604775
0.604839
0.604903
0.604967
0.605031
0.605031
0.605095
0.605159
0.605223
0.605287
0.605287
0.605351
0.605415
0.605479
0.605544
0.605544
0.605608
0.605672
0.605737
0.605801
0.605801
0.605866
0.605931
0.605995
0.60606
0.60606
0.606125
0.606189
0.606254
0.606319
0.606319
0.606384
0.606449
0.606514
0.606579
0.606579
0.606644
0.606709
0.606774
0.606839
0.606839
0.606905
0.60697
0.607035
0.607101
0.607101
0.607166
0.607231
0.607297
0.607363
0.607363
0.607428
0.607494
0.607559
0.607625
0.607625
0.607691
0.607757
0.607823
0.607888
0.607888
0.607954
0.60802
0.608086
0.608152
0.608152
0.608218
0.608285
0.608351
0.608417
0.608417
0.608483
0.608549
0.608616
0.608682
0.608682
0.608748
0.608815
0.608881
0.608948
0.608948
0.609014
0.609081
0.609148
0.609214
0.609214
0.609281
0.609348
0.609415
0.609481
0.609481
0.609548
0.609615
0.609682
0.609749
0.609749
0.609816
0.609883
0.60995
0.610017
0.610017
0.610084
0.610152
0.610219
0.610286
0.610286