<?xml version="1.0"?>
<VTKFile type="UnstructuredGrid" version="0.1" byte_order="LittleEndian">
<UnstructuredGrid>
<Piece NumberOfPoints="5000" NumberOfCells="4000">
<PointData Scalars="Reaction 0">
<DataArray type="Float32" Name="Reaction 0" format="ascii">
0.563215
0.563215
0.563215
0.563215
0.563215
0.563215
0.563215
0.563215
0.563215
0.563215
0.563215
0.563215
0.563215
0.563215
0.563215
0.563215
0.563215
0.563215
0.563215
0.563215
0.563215
0.563215
0.563215
0.563215
0.563215
0.563215
0.563215
0.563215
0.563215
0.563215
0.563215
0.563215
0.563215
0.563215
0.563215
0.563215
0.563215
0.563215
0.563215
0.563215
0.563215
0.563215
0.563215
0.563215
0.563215
0.563215
0.563216
0.563216
0.563216
0.563216
0.563216
0.563216
0.563216
0.563216
0.563216
0.563216
0.563216
0.563216
0.563216
0.563216
0.563216
0.563216
0.563216
0.563216
0.563216
0.563216
0.563216
0.563217
0.563217
0.563217
0.563217
0.563217
0.563217
0.563217
0.563217
0.563217
0.563217
0.563217
0.563217
0.563217
0.563217
0.563217
0.563218
0.563218
0.563218
0.563218
0.563218
0.563218
0.563218
0.563218
0.563218
0.563218
0.563218
0.563218
0.563219
0.563219
0.563219
0.563219
0.563219
0.563219
0.563219
0.563219
0.563219
0.563219
0.563219
0.563219
0.56322
0.56322
0.56322
0.56322
0.56322
0.56322
0.56322
0.56322
0.56322
0.56322
0.56322
0.563221
0.563221
0.563221
0.563221
0.563221
0.563221
0.563221
0.563221
0.563221
0.563222
0.563222
0.563222
0.563222
0.563222
0.563222
0.563222
0.563222
0.563223
0.563223
0.563223
0.563223
0.563223
0.563223
0.563223
0.563223
0.563223
0.563224
0.563224
0.563224
0.563224
0.563224
0.563224
0.563224
0.563224
0.563225
0.563225
0.563225
0.563225
0.563225
0.563225
0.563225
0.563226
0.563226
0.563226
0.563226
0.563226
0.563226
0.563226
0.563226
0.563227
0.563227
0.563227
0.563227
0.563227
0.563227
0.563228
0.563228
0.563228
0.563228
0.563228
0.563228
0.563229
0.563229
0.563229
0.563229
0.563229
0.563229
0.56323
0.56323
0.56323
0.56323
0.56323
0.56323
0.56323
0.563231
0.563231
0.563231
0.563231
0.563231
0.563231
0.563232
0.563232
0.563232
0.563232
0.563232
0.563232
0.563233
0.563233
0.563233
0.563233
0.563233
0.563234
0.563234
0.563234
0.563234
0.563234
0.563235
0.563235
0.563235
0.563235
0.563235
0.563236
0.563236
0.563236
0.563236
0.563236
0.563236
0.563237
0.563237
0.563237
0.563237
0.563237
0.563238
0.563238
0.563238
0.563238
0.563238
0.563239
0.563239
0.563239
0.563239
0.56324
0.56324
0.56324
0.56324
0.56324
0.563241
0.563241
0.563241
0.563241
0.563241
0.563242
0.563242
0.563242
0.563242
0.563243
0.563243
0.563243
0.563243
0.563243
0.563244
0.563244
0.563244
0.563244
0.563244
0.563245
0.563245
0.563245
0.563245
0.563246
0.563246
0.563246
0.563247
0.563247
0.563247
0.563247
0.563247
0.563248
0.563248
0.563248
0.563248
0.563249
0.563249
0.563249
0.563249
0.56325
0.56325
0.56325
0.56325
0.563251
0.563251
0.563251
0.563251
0.563251
0.563252
0.563252
0.563252
0.563253
0.563253
0.563253
0.563253
0.563254
0.563254
0.563254
0.563254
0.563255
0.563255
0.563255
0.563255
0.563256
0.563256
0.563256
0.563257
0.563257
0.563257
0.563257
0.563258
0.563258
0.563258
0.563259
0.563259
0.563259
0.56326
0.56326
0.56326
0.56326
0.563261
0.563261
0.563261
0.563261
0.563262
0.563262
0.563262
0.563262
0.563263
0.563263
0.563264
0.563264
0.563264
0.563264
0.563265
0.563265
0.563265
0.563265
0.563266
0.563266
0.563267
0.563267
0.563267
0.563267
0.563268
0.563268
0.563269
0.563269
0.563269
0.563269
0.56327
0.56327
0.56327
0.563271
0.563271
0.563271
0.563272
0.563272
0.563272
0.563273
0.563273
0.563273
0.563273
0.563274
0.563274
0.563275
0.563275
0.563275
0.563275
0.563276
0.563276
0.563277
0.563277
0.563277
0.563277
0.563278
0.563278
0.563278
0.563279
0.563279
0.56328
0.56328
0.56328
0.56328
0.563281
0.563281
0.563282
0.563282
0.563282
0.563283
0.563283
0.563284
0.563284
0.563284
0.563284
0.563285
0.563285
0.563285
0.563286
0.563286
0.563287
0.563287
0.563287
0.563288
0.563288
0.563288
0.563289
0.563289
0.563289
0.56329
0.56329
0.563291
0.563291
0.563291
0.563292
0.563292
0.563293
0.563293
0.563293
0.563294
0.563294
0.563295
0.563295
0.563295
0.563296
0.563296
0.563297
0.563297
0.563297
0.563298
0.563298
0.563298
0.563298
0.563299
0.563299
0.5633
0.5633
0.5633
0.563301
0.563301
0.563302
0.563302
0.563302
0.563303
0.563303
0.563304
0.563304
0.563304
0.563305
0.563306
0.563306
0.563307
0.563307
0.563307
0.563308
0.563308
0.563309
0.563309
0.563309
0.56331
0.56331
0.563311
0.563311
0.563311
0.563312
0.563312
0.563313
0.563313
0.563313
0.563314
0.563314
0.563315
0.563315
0.563316
0.563316
0.563317
0.563317
0.563317
0.563318
0.563318
0.563319
0.563319
0.563319
0.56332
0.56332
0.563321
0.563322
0.563322
0.563322
0.563323
0.563323
0.563324
0.563324
0.563324
0.563325
0.563326
0.563326
0.563326
0.563327
0.563327
0.563328
0.563328
0.563328
0.563329
0.56333
0.56333
0.563331
0.563331
0.563331
0.563332
0.563332
0.563333
0.563333
0.563334
0.563334
0.563335
0.563335
0.563335
0.563336
0.563337
0.563337
0.563338
0.563338
0.563338
0.563339
0.56334
0.56334
0.56334
0.563341
0.563341
0.563342
0.563343
0.563343
0.563343
0.563344
0.563345
0.563345
0.563345
0.563346
0.563346
0.563347
0.563348
0.563348
0.563348
0.563349
0.56335
0.56335
0.56335
0.563351
0.563352
0.563352
0.563353
0.563353
0.563353
0.563354
0.563355
0.563355
0.563355
0.563356
0.563357
0.563357
0.563358
0.563358
0.563359
0.563359
0.56336
0.563361
0.563361
0.563361
0.563362
0.563363
0.563363
0.563363
0.563364
0.563365
0.563365
0.563366
0.563366
0.563367
0.563367
0.563368
0.563369
0.563369
0.563369
0.56337
0.563371
0.563371
0.563371
0.563372
0.563373
0.563373
0.563374
0.563374
0.563375
0.563376
0.563376
0.563377
0.563377
0.563378
0.563378
0.563379
0.56338
0.56338
0.56338
0.563381
0.563382
0.563383
0.563383
0.563383
0.563384
0.563385
0.563385
0.563385
0.563386
0.563387
0.563388
0.563388
0.563388
0.563389
0.56339
0.563391
0.563391
0.563391
0.563392
0.563393
0.563393
0.563394
0.563394
0.563395
0.563396
0.563396
0.563397
0.563397
0.563398
0.563399
0.563399
0.5634
0.5634
0.563401
0.563402
0.563403
0.563403
0.563403
0.563404
0.563405
0.563406
0.563406
0.563406
0.563407
0.563408
0.563409
0.563409
0.563409
0.56341
0.563411
0.563412
0.563413
0.563413
0.563413
0.563414
0.563415
0.563416
0.563416
0.563417
0.563417
0.563418
0.563419
0.563419
0.56342
0.56342
0.563421
0.563422
0.563422
0.563423
0.563424
0.563425
0.563425
0.563425
0.563426
0.563427
0.563428
0.563429
0.563429
0.563429
0.56343
0.563431
0.563432
0.563432
0.563433
0.563434
0.563434
0.563435
0.563435
0.563436
0.563437
0.563438
0.563439
0.563439
0.563439
0.56344
0.563441
0.563442
0.563442
0.563443
0.563444
0.563444
0.563445
0.563445
0.563446
0.563447
0.563448
0.563449
0.563449
0.56345
0.56345
0.563451
0.563452
0.563452
0.563453
0.563454
0.563455
0.563456
0.563456
0.563456
0.563457
0.563458
0.563459
0.563459
0.56346
0.563461
0.563462
0.563463
0.563463
0.563464
0.563465
0.563465
0.563466
0.563466
0.563467
0.563468
0.563469
0.56347
0.56347
0.563471
0.563472
0.563473
0.563474
0.563474
0.563474
0.563475
0.563476
0.563477
0.563477
0.563478
0.563479
0.56348
0.563481
0.563481
0.563482
0.563483
0.563484
0.563485
0.563485
0.563486
0.563487
0.563487
0.563488
0.563488
0.563489
0.56349
0.563491
0.563492
0.563492
0.563493
0.563494
0.563495
0.563496
0.563496
0.563497
0.563498
0.563499
0.5635
0.5635
0.563501
0.563502
0.563503
0.563504
0.563504
0.563505
0.563506
0.563507
0.563508
0.563508
0.563509
0.56351
0.563511
0.563512
0.563512
0.563513
0.563514
0.563515
0.563516
0.563516
0.563516
0.563517
0.563518
0.563519
0.563519
0.563521
0.563522
0.563523
0.563524
0.563524
0.563525
0.563526
0.563527
0.563528
0.563528
0.563529
0.56353
0.563531
0.563532
0.563532
0.563533
0.563534
0.563535
0.563536
0.563536
0.563537
0.563538
0.563539
0.56354
0.56354
0.563541
0.563542
0.563543
0.563544
0.563544
0.563545
0.563546
0.563547
0.563549
0.563549
0.56355
0.563551
0.563552
0.563553
0.563553
0.563554
0.563555
0.563556
0.563557
0.563557
0.563558
0.563559
0.56356
0.563561
0.563561
0.563562
0.563564
0.563565
0.563566
0.563566
0.563567
0.563568
0.563569
0.56357
0.56357
0.563571
0.563572
0.563573
0.563575
0.563575
0.563576
0.563577
0.563578
0.563579
0.563579
0.56358
0.563581
0.563582
0.563583
0.563583
0.563585
0.563586
0.563587
0.563588
0.563588
0.563589
0.56359
0.563591
0.563593
0.563593
0.563594
0.563595
0.563596
0.563597
0.563597
0.563598
0.563599
0.563601
0.563602
0.563602
0.563603
0.563604
0.563605
0.563606
0.563606
0.563608
0.563609
0.56361
0.563611
0.563611
0.563612
0.563614
0.563615
0.563616
0.563616
0.563617
0.563618
0.563619
0.563621
0.563621
0.563622
0.563623
0.563624
0.563625
0.563625
0.563627
0.563628
0.563629
0.56363
0.56363
0.563631
0.563633
0.563634
0.563635
0.563635
0.563636
0.563638
0.563639
0.56364
0.56364
0.563641
0.563642
0.563644
0.563645
0.563645
0.563646
0.563647
0.563649
0.56365
0.56365
0.563651
0.563652
0.563654
0.563655
0.563655
0.563656
0.563657
0.563659
0.56366
0.56366
0.563661
0.563663
0.563664
0.563665
0.563665
0.563666
0.563668
0.563669
0.56367
0.56367
0.563671
0.563673
0.563674
0.563675
0.563675
0.563677
0.563678
0.563679
0.563681
0.563681
0.563682
0.563683
0.563684
0.563686
0.563686
0.563687
0.563688
0.56369
0.563691
0.563691
0.563692
0.563694
0.563695
0.563696
0.563696
0.563698
0.563699
0.5637
0.563702
0.563702
0.563703
0.563704
0.563706
0.563707
0.563707
0.563708
0.56371
0.563711
0.563712
0.563712
0.563714
0.563715
0.563717
0.563718
0.563718
0.563719
0.563721
0.563722
0.563723
0.563723
0.563725
0.563726
0.563728
0.563729
0.563729
0.56373
0.563732
0.563733
0.563735
0.563735
0.563736
0.563737
0.563739
0.56374
0.56374
0.563742
0.563743
0.563744
0.563746
0.563746
0.563747
0.563749
0.56375
0.563752
0.563752
0.563753
0.563754
0.563756
0.563757
0.563757
0.563759
0.56376
0.563762
0.563763
0.563763
0.563764
0.563766
0.563767
0.563769
0.563769
0.56377
0.563772
0.563773
0.563775
0.563775
0.563776
0.563778
0.563779
0.563781
0.563781
0.563782
0.563783
0.563785
0.563786
0.563786
0.563788
0.563789
0.563791
0.563792
0.563792
0.563794
0.563795
0.563797
0.563798
0.563798
0.5638
0.563801
0.563803
0.563805
0.563805
0.563806
0.563808
0.563809
0.563811
0.563811
0.563812
0.563814
0.563815
0.563817
0.563817
0.563818
0.56382
0.563821
0.563823
0.563823
0.563825
0.563826
0.563828
0.563829
0.563829
0.563831
0.563832
0.563834
0.563835
0.563835
0.563837
0.563839
0.56384
0.563842
0.563842
0.563843
0.563845
0.563846
0.563848
0.563848
0.56385
0.563851
0.563853
0.563854
0.563854
0.563856
0.563858
0.563859
0.563861
0.563861
0.563862
0.563864
0.563866
0.563867
0.563867
0.563869
0.563871
0.563872
0.563874
0.563874
0.563876
0.563877
0.563879
0.563881
0.563881
0.563882
0.563884
0.563885
0.563887
0.563887
0.563889
0.56389
0.563892
0.563894
0.563894
0.563895
0.563897
0.563899
0.563901
0.563901
0.563902
0.563904
0.563906
0.563907
0.563907
0.563909
0.563911
0.563912
0.563914
0.563914
0.563916
0.563917
0.563919
0.563921
0.563921
0.563923
0.563924
0.563926
0.563928
0.563928
0.563929
0.563931
0.563933
0.563935
0.563935
0.563936
0.563938
0.56394
0.563942
0.563942
0.563943
0.563945
0.563947
0.563949
0.563949
0.56395
0.563952
0.563954
0.563956
0.563956
0.563958
0.563959
0.563961
0.563963
0.563963
0.563965
0.563966
0.563968
0.56397
0.56397
0.563972
0.563974
0.563975
0.563977
0.563977
0.563979
0.563981
0.563983
0.563985
0.563985
0.563986
0.563988
0.56399
0.563992
0.563992
0.563994
0.563995
0.563997
0.563999
0.563999
0.564001
0.564003
0.564005
0.564007
0.564007
0.564008
0.56401
0.564012
0.564014
0.564014
0.564016
0.564018
0.56402
0.564022
0.564022
0.564023
0.564025
0.564027
0.564029
0.564029
0.564031
0.564033
0.564035
0.564037
0.564037
0.564039
0.564041
0.564043
0.564044
0.564044
0.564046
0.564048
0.56405
0.564052
0.564052
0.564054
0.564056
0.564058
0.56406
0.56406
0.564062
0.564064
0.564066
0.564068
0.564068
0.56407
0.564072
0.564074
0.564076
0.564076
0.564078
0.564079
0.564081
0.564083
0.564083
0.564085
0.564087
0.564089
0.564091
0.564091
0.564093
0.564095
0.564097
0.564099
0.564099
0.564101
0.564103
0.564106
0.564108
0.564108
0.56411
0.564112
0.564114
0.564116
0.564116
0.564118
0.56412
0.564122
0.564124
0.564124
0.564126
0.564128
0.56413
0.564132
0.564132
0.564134
0.564136
0.564138
0.56414
0.56414
0.564143
0.564145
0.564147
0.564149
0.564149
0.564151
0.564153
0.564155
0.564157
0.564157
0.564159
0.564161
0.564163
0.564166
0.564166
0.564168
0.56417
0.564172
0.564174
0.564174
0.564176
0.564178
0.56418
0.564183
0.564183
0.564185
0.564187
0.564189
0.564191
0.564191
0.564194
0.564196
0.564198
0.5642
0.5642
0.564202
0.564204
0.564207
0.564209
0.564209
0.564211
0.564213
0.564215
0.564218
0.564218
0.56422
0.564222
0.564224
0.564226
0.564226
0.564229
0.564231
0.564233
0.564235
0.564235
0.564238
0.56424
0.564242
0.564244
0.564244
0.564247
0.564249
0.564251
0.564253
0.564253
0.564256
0.564258
0.56426
0.564262
0.564262
0.564265
0.564267
0.564269
0.564272
0.564272
0.564274
0.564276
0.564279
0.564281
0.564281
0.564283
0.564285
0.564288
0.56429
0.56429
0.564292
0.564295
0.564297
0.564299
0.564299
0.564302
0.564304
0.564307
0.564309
0.564309
0.564311
0.564314
0.564316
0.564318
0.564318
0.564321
0.564323
0.564325
0.564328
0.564328
0.56433
0.564333
0.564335
0.564337
0.564337
0.56434
0.564342
0.564345
0.564347
0.564347
0.564349
0.564352
0.564354
0.564357
0.564357
0.564359
0.564362
0.564364
0.564367
0.564367
0.564369
0.564371
0.564374
0.564376
0.564376
0.564379
0.564381
0.564384
0.564386
0.564386
0.564389
0.564391
0.564394
0.564396
0.564396
0.564399
0.564401
0.564404
0.564406
0.564406
0.564409
0.564411
0.564414
0.564416
0.564416
0.564419
0.564421
0.564424
0.564427
0.564427
0.564429
0.564432
0.564434
0.564437
0.564437
0.564439
0.564442
0.564445
0.564447
0.564447
0.56445
0.564452
0.564455
0.564458
0.564458
0.56446
0.564463
0.564465
0.564468
0.564468
0.564471
0.564473
0.564476
0.564479
0.564479
0.564481
0.564484
0.564486
0.564489
0.564489
0.564492
0.564494
0.564497
0.5645
0.5645
0.564502
0.564505
0.564508
0.56451
0.56451
0.564513
0.564516
0.564518
0.564521
0.564521
0.564524
0.564527
0.564529
0.564532
0.564532
0.564535
0.564538
0.56454
0.564543
0.564543
0.564546
0.564549
0.564551
0.564554
0.564554
0.564557
0.56456
0.564562
0.564565
0.564565
0.564568
0.564571
0.564574
0.564576
0.564576
0.564579
0.564582
0.564585
0.564588
0.564588
0.56459
0.564593
0.564596
0.564599
0.564599
0.564602
0.564605
0.564607
0.56461
0.56461
0.564613
0.564616
0.564619
0.564622
0.564622
0.564625
0.564627
0.56463
0.564633
0.564633
0.564636
0.564639
0.564642
0.564645
0.564645
0.564648
0.564651
0.564654
0.564657
0.564657
0.56466
0.564662
0.564665
0.564668
0.564668
0.564671
0.564674
0.564677
0.56468
0.56468
0.564683
0.564686
0.564689
0.564692
0.564692
0.564695
0.564698
0.564701
0.564704
0.564704
0.564707
0.56471
0.564713
0.564716
0.564716
0.564719
0.564722
0.564725
0.564728
0.564728
0.564731
0.564734
0.564738
0.564741
0.564741
0.564744
0.564747
0.56475
0.564753
0.564753
0.564756
0.564759
0.564762
0.564765
0.564765
0.564769
0.564772
0.564775
0.564778
0.564778
0.564781
0.564784
0.564787
0.56479
0.56479
0.564794
0.564797
0.5648
0.564803
0.564803
0.564806
0.564809
0.564813
0.564816
0.564816
0.564819
0.564822
0.564825
0.564829
0.564829
0.564832
0.564835
0.564838
0.564842
0.564842
0.564845
0.564848
0.564851
0.564855
0.564855
0.564858
0.564861
0.564864
0.564868
0.564868
0.564871
0.564874
0.564878
0.564881
0.564881
0.564884
0.564888
0.564891
0.564894
0.564894
0.564897
0.564901
0.564904
0.564907
0.564907
0.564911
0.564914
0.564918
0.564921
0.564921
0.564924
0.564928
0.564931
0.564935
0.564935
0.564938
0.564941
0.564945
0.564948
0.564948
0.564952
0.564955
0.564959
0.564962
0.564962
0.564965
0.564969
0.564972
0.564976
0.564976
0.564979
0.564983
0.564986
0.56499
0.56499
0.564993
0.564997
0.565
0.565004
0.565004
0.565007
0.565011
0.565014
0.565018
0.565018
0.565021
0.565025
0.565028
0.565032
0.565032
0.565036
0.565039
0.565043
0.565046
0.565046
0.56505
0.565054
0.565057
0.565061
0.565061
0.565064
0.565068
0.565072
0.565075
0.565075
0.565079
0.565083
0.565086
0.56509
0.56509
0.565093
0.565097
0.565101
0.565104
0.565104
0.565108
0.565112
0.565116
0.565119
0.565119
0.565123
0.565127
0.56513
0.565134
0.565134
0.565138
0.565142
0.565145
0.565149
0.565149
0.565153
0.565157
0.565161
0.565164
0.565164
0.565168
0.565172
0.565176
0.56518
0.56518
0.565183
0.565187
0.565191
0.565195
0.565195
0.565199
0.565203
0.565206
0.56521
0.56521
0.565214
0.565218
0.565222
0.565226
0.565226
0.56523
0.565233
0.565237
0.565241
0.565241
0.565245
0.565249
0.565253
0.565257
0.565257
0.565261
0.565265
0.565269
0.565273
0.565273
0.565277
0.565281
0.565285
0.565289
0.565289
0.565293
0.565297
0.565301
0.565305
0.565305
0.565309
0.565313
0.565317
0.565321
0.565321
0.565325
0.565329
0.565333
0.565337
0.565337
0.565341
0.565346
0.56535
0.565354
0.565354
0.565358
0.565362
0.565366
0.56537
0.56537
0.565374
0.565379
0.565383
0.565387
0.565387
0.565391
0.565395
0.5654
0.565404
0.565404
0.565408
0.565412
0.565416
0.565421
0.565421
0.565425
0.565429
0.565433
0.565438
0.565438
0.565442
0.565446
0.56545
0.565455
0.565455
0.565459
0.565463
0.565468
0.565472
0.565472
0.565476
0.56548
0.565485
0.565489
0.565489
0.565494
0.565498
0.565502
0.565507
0.565507
0.565511
0.565516
0.56552
0.565524
0.565524
0.565529
0.565533
0.565538
0.565542
0.565542
0.565546
0.565551
0.565555
0.56556
0.56556
0.565564
0.565569
0.565573
0.565578
0.565578
0.565582
0.565587
0.565591
0.565596
0.565596
0.5656
0.565605
0.565609
0.565614
0.565614
0.565619
0.565623
0.565628
0.565632
0.565632
0.565637
0.565642
0.565646
0.565651
0.565651
0.565656
0.56566
0.565665
0.56567
0.56567
0.565674
0.565679
0.565684
0.565688
0.565688
0.565693
0.565698
0.565702
0.565707
0.565707
0.565712
0.565717
0.565721
0.565726
0.565726
0.565731
0.565736
0.56574
0.565745
0.565745
0.56575
0.565755
0.56576
0.565765
0.565765
0.565769
0.565774
0.565779
0.565784
0.565784
0.565789
0.565794
0.565799
0.565804
0.565804
0.565808
0.565813
0.565818
0.565823
0.565823
0.565828
0.565833
0.565838
0.565843
0.565843
0.565848
0.565853
0.565858
0.565863
0.565863
0.565868
0.565873
0.565878
0.565883
0.565883
0.565888
0.565893
0.565898
0.565903
0.565903
0.565908
0.565914
0.565919
0.565924
0.565924
0.565929
0.565934
0.565939
0.565944
0.565944
0.565949
0.565955
0.56596
0.565965
0.565965
0.56597
0.565975
0.565981
0.565986
0.565986
0.565991
0.565996
0.566002
0.566007
0.566007
0.566012
0.566017
0.566023
0.566028
0.566028
0.566033
0.566039
0.566044
0.566049
0.566049
0.566055
0.56606
0.566065
0.566071
0.566071
0.566076
0.566082
0.566087
0.566092
0.566092
0.566098
0.566103
0.566109
0.566114
0.566114
0.56612
0.566125
0.566131
0.566136
0.566136
0.566142
0.566147
0.566153
0.566158
0.566158
0.566164
0.566169
0.566175
0.56618
0.56618
0.566186
0.566192
0.566197
0.566203
0.566203
0.566209
0.566214
0.56622
0.566225
0.566225
0.566231
0.566237
0.566242
0.566248
0.566248
0.566254
0.56626
0.566265
0.566271
0.566271
0.566277
0.566283
0.566288
0.566294
0.566294
0.5663
0.566306
0.566312
0.566317
0.566317
0.566323
0.566329
0.566335
0.566341
0.566341
0.566347
0.566353
0.566359
0.566364
0.566364
0.56637
0.566376
0.566382
0.566388
0.566388
0.566394
0.5664
0.566406
0.566412
0.566412
0.566418
0.566424
0.56643
0.566436
0.566436
0.566442
0.566448
0.566454
0.566461
0.566461
0.566467
0.566473
0.566479
0.566485
0.566485
0.566491
0.566497
0.566504
0.56651
0.56651
0.566516
0.566522
0.566528
0.566535
0.566535
0.566541
0.566547
0.566553
0.56656
0.56656
0.566566
0.566572
0.566578
0.566585
0.566585
0.566591
0.566597
0.566604
0.56661
0.56661
0.566617
0.566623
0.566629
0.566636
0.566636
0.566642
0.566649
0.566655
0.566662
0.566662
0.566668
0.566675
0.566681
0.566688
0.566688
0.566694
0.566701
0.566707
0.566714
0.566714
0.56672
0.566727
0.566733
0.56674
0.56674
0.566747
0.566753
0.56676
0.566767
0.566767
0.566773
0.56678
0.566787
0.566794
0.566794
0.5668
0.566807
0.566814
0.566821
0.566821
0.566827
0.566834
0.566841
0.566848
0.566848
0.566855
0.566861
0.566868
0.566875
0.566875
0.566882
0.566889
0.566896
0.566903
0.566903
0.56691
0.566916
0.566923
0.56693
0.56693
0.566937
0.566944
0.566951
0.566959
0.566959
0.566966
0.566973
0.56698
0.566987
0.566987
0.566994
0.567001
0.567008
0.567015
0.567015
0.567022
0.56703
0.567037
0.567044
0.567044
0.567051
0.567058
0.567065
0.567073
0.567073
0.56708
0.567087
0.567095
0.567102
0.567102
0.567109
0.567117
0.567124
0.567131
0.567131
0.567139
0.567146
0.567153
0.567161
0.567161
0.567168
0.567176
0.567183
0.567191
0.567191
0.567198
0.567206
0.567213
0.567221
0.567221
0.567228
0.567236
0.567243
0.567251
0.567251
0.567258
0.567266
0.567274
0.567281
0.567281
0.567289
0.567297
0.567304
0.567312
0.567312
0.56732
0.567328
0.567335
0.567343
0.567343
0.567351
0.567359
0.567366
0.567374
0.567374
0.567382
0.56739
0.567398
0.567406
0.567406
0.567413
0.567421
0.567429
0.567437
0.567437
0.567445
0.567453
0.567461
0.567469
0.567469
0.567477
0.567485
0.567493
0.567501
0.567501
0.56751
0.567518
0.567526
0.567534
0.567534
0.567542
0.56755
0.567558
0.567567
0.567567
0.567575
0.567583
0.567591
0.567599
0.567599
0.567608
0.567616
0.567624
0.567633
0.567633
0.567641
0.567649
0.567658
0.567666
0.567666
0.567675
0.567683
0.567691
0.5677
0.5677
0.567708
0.567717
0.567725
0.567734
0.567734
0.567742
0.567751
0.56776
0.567768
0.567768
0.567777
0.567785
0.567794
0.567803
0.567803
0.567811
0.56782
0.567829
0.567837
0.567837
0.567846
0.567855
0.567864
0.567873
0.567873
0.567881
0.56789
0.567899
0.567908
0.567908
0.567917
0.567926
0.567935
0.567944
0.567944
0.567953
0.567962
0.567971
0.56798
0.56798
0.567989
0.567998
0.568007
0.568016
0.568016
0.568025
0.568034
0.568043
0.568052
0.568052
0.568061
0.568071
0.56808
0.568089
0.568089
0.568098
0.568108
0.568117
0.568126
0.568126
0.568135
0.568145
0.568154
0.568164
0.568164
0.568173
0.568182
0.568192
0.568201
0.568201
0.568211
0.56822
0.56823
0.568239
0.568239
0.568249
0.568258
0.568268
0.568278
0.568278
0.568287
0.568297
0.568306
0.568316
0.568316
0.568326
0.568336
0.568345
0.568355
0.568355
0.568365
0.568375
0.568384
0.568394
0.568394
0.568404
0.568414
0.568424
0.568434
0.568434
0.568444
0.568454
0.568464
0.568474
0.568474
0.568484
0.568494
0.568504
0.568514
0.568514
0.568524
0.568534
0.568544
0.568554
0.568554
0.568565
0.568575
0.568585
0.568595
0.568595
0.568606
0.568616
0.568626
0.568636
0.568636
0.568647
0.568657
0.568668
0.568678
0.568678
0.568688
0.568699
0.568709
0.56872
0.56872
0.56873
0.568741
0.568752
0.568762
0.568762
0.568773
0.568783
0.568794
0.568805
0.568805
0.568815
0.568826
0.568837
0.568848
0.568848
0.568858
0.568869
0.56888
0.568891
0.568891
0.568902
0.568913
0.568923
0.568934
0.568934
0.568945
0.568956
0.568967
0.568978
0.568978
0.56899
0.569001
0.569012
0.569023
0.569023
0.569034
0.569045
0.569056
0.569067
0.569067
0.569079
0.56909
0.569101
0.569112
0.569112
0.569124
0.569135
0.569147
0.569158
0.569158
0.569169
0.569181
0.569192
0.569204
0.569204
0.569215
0.569227
0.569238
0.56925
0.56925
0.569262
0.569273
0.569285
0.569297
0.569297
0.569308
0.56932
0.569332
0.569344
0.569344
0.569355
0.569367
0.569379
0.569391
0.569391
0.569403
0.569415
0.569427
0.569439
0.569439
0.569451
0.569463
0.569475
0.569487
0.569487
0.569499
0.569511
0.569523
0.569536
0.569536
0.569548
0.56956
0.569572
0.569584
0.569584
0.569597
0.569609
0.569621
0.569634
0.569634
0.569646
0.569659
0.569671
0.569684
0.569684
0.569696
0.569709
0.569721
0.569734
0.569734
0.569747
0.569759
0.569772
0.569785
0.569785
0.569797
0.56981
0.569823
0.569836
0.569836
0.569848
0.569861
0.569874
0.569887
0.569887
0.5699
0.569913
0.569926
0.569939
0.569939
0.569952
0.569965
0.569978
0.569991
0.569991
0.570005
0.570018
0.570031
0.570044
0.570044
0.570058
0.570071
0.570084
0.570098
0.570098
0.570111
0.570124
0.570138
0.570151
0.570151
0.570165
0.570178
0.570192
0.570205
0.570205
0.570219
0.570233
0.570246
0.57026
0.57026
0.570274
0.570288
0.570301
0.570315
0.570315
0.570329
0.570343
0.570357
0.570371
0.570371
0.570385
0.570399
0.570413
0.570427
0.570427
0.570441
0.570455
0.570469
0.570483
0.570483
0.570498
0.570512
0.570526
0.57054
0.57054
0.570555
0.570569
0.570584
0.570598
0.570598
0.570612
0.570627
0.570641
0.570656
0.570656
0.57067
0.570685
0.5707
0.570714
0.570714
0.570729
0.570744
0.570759
0.570773
0.570773
0.570788
0.570803
0.570818
0.570833
0.570833
0.570848
0.570863
0.570878
0.570893
0.570893
0.570908
0.570923
0.570938
0.570953
0.570953
0.570969
0.570984
0.570999
0.571015
0.571015
0.57103
0.571045
0.571061
0.571076
0.571076
0.571092
0.571107
0.571123
0.571138
0.571138
0.571154
0.57117
0.571185
0.571201
0.571201
0.571217
0.571232
0.571248
0.571264
0.571264
0.57128
0.571296
0.571312
0.571328
0.571328
0.571344
0.57136
0.571376
0.571392
0.571392
0.571408
0.571425
0.571441
0.571457
0.571457
0.571473
0.57149
0.571506
0.571523
0.571523
0.571539
0.571555
0.571572
0.571588
0.571588
0.571605
0.571622
0.571638
0.571655
0.571655
0.571672
0.571689
0.571705
0.571722
0.571722
0.571739
0.571756
0.571773
0.57179
0.57179
0.571807
0.571824
0.571841
0.571858
0.571858
0.571875
0.571893
0.57191
0.571927
0.571927
0.571944
0.571962
0.571979
0.571997
0.571997
0.572014
0.572032
0.572049
0.572067
0.572067
0.572084
0.572102
0.57212
0.572138
0.572138
0.572155
0.572173
0.572191
0.572209
0.572209
0.572227
0.572245
0.572263
0.572281
0.572281
0.572299
0.572317
0.572335
0.572354
0.572354
0.572372
0.57239
0.572408
0.572427
0.572427
0.572445
0.572464
0.572482
0.572501
0.572501
0.572519
0.572538
0.572557
0.572575
0.572575
0.572594
0.572613
0.572632
0.57265
0.57265
0.572669
0.572688
0.572707
0.572726
0.572726
0.572745
0.572765
0.572784
0.572803
0.572803
0.572822
0.572841
0.572861
0.57288
0.57288
0.5729
0.572919
0.572938
0.572958
0.572958
0.572978
0.572997
0.573017
0.573036
0.573036
0.573056
0.573076
0.573096
0.573116
0.573116
0.573136
0.573156
0.573176
0.573196
0.573196
0.573216
0.573236
0.573256
0.573276
0.573276
0.573297
0.573317
0.573337
0.573358
0.573358
0.573378
0.573399
0.573419
0.57344
0.57344
0.573461
0.573481
0.573502
0.573523
0.573523
0.573544
0.573564
0.573585
0.573606
0.573606
0.573627
0.573648
0.573669
0.573691
0.573691
0.573712
0.573733
0.573754
0.573776
0.573776
0.573797
0.573818
0.57384
0.573861
0.573861
0.573883
0.573905
0.573926
0.573948
0.573948
0.57397
0.573992
0.574013
0.574035
0.574035
0.574057
0.574079
0.574101
0.574123
0.574123
0.574145
0.574168
0.57419
0.574212
0.574212
0.574234
0.574257
0.574279
0.574302
0.574302
0.574324
0.574347
0.57437
0.574392
0.574392
0.574415
0.574438
0.574461
0.574484
0.574484
0.574506
0.574529
0.574552
0.574576
0.574576
0.574599
0.574622
0.574645
0.574668
0.574668
0.574692
0.574715
0.574739
0.574762
0.574762
0.574786
0.574809
0.574833
0.574857
0.574857
0.57488
0.574904
0.574928
0.574952
0.574952
0.574976
0.575
0.575024
0.575048
0.575048
0.575072
0.575096
0.575121
0.575145
0.575145
0.575169
0.575194
0.575218
0.575243
0.575243
0.575268
0.575292
0.575317
0.575342
0.575342
0.575367
0.575391
0.575416
0.575441
0.575441
0.575466
0.575491
0.575517
0.575542
0.575542
0.575567
0.575592
0.575618
0.575643
0.575643
0.575669
0.575694
0.57572
0.575746
0.575746
0.575771
0.575797
0.575823
0.575849
0.575849
0.575875
0.575901
0.575927
0.575953
0.575953
0.575979
0.576005
0.576031
0.576058
0.576058
0.576084
0.576111
0.576137
0.576164
0.576164
0.57619
0.576217
0.576244
0.57627
0.57627
0.576297
0.576324
0.576351
0.576378
0.576378
0.576405
0.576432
0.57646
0.576487
0.576487
0.576514
0.576542
0.576569
0.576597
0.576597
0.576624
0.576652
0.57668
0.576707
0.576707
0.576735
0.576763
0.576791
0.576819
0.576819
0.576847
0.576875
0.576903
0.576931
0.576931
0.57696
0.576988
0.577017
0.577045
0.577045
0.577074
0.577102
0.577131
0.57716
0.57716
0.577188
0.577217
0.577246
0.577275
0.577275
0.577304
0.577333
0.577362
0.577392
0.577392
0.577421
0.57745
0.57748
0.577509
0.577509
0.577539
0.577568
0.577598
0.577628
0.577628
0.577658
0.577688
0.577717
0.577747
0.577747
0.577778
0.577808
0.577838
0.577868
0.577868
0.577898
0.577929
0.577959
0.57799
0.57799
0.57802
0.578051
0.578082
0.578113
0.578113
0.578143
0.578174
0.578205
0.578236
0.578236
0.578267
0.578299
0.57833
0.578361
0.578361
0.578393
0.578424
0.578455
0.578487
0.578487
0.578519
0.57855
0.578582
0.578614
0.578614
0.578646
0.578678
0.57871
0.578742
0.578742
0.578774
0.578807
0.578839
0.578871
0.578871
0.578904
0.578936
0.578969
0.579002
0.579002
0.579034
0.579067
0.5791
0.579133
0.579133
0.579166
0.579199
0.579232
0.579266
0.579266
0.579299
0.579332
0.579366
0.579399
0.579399
0.579433
0.579467
0.5795
0.579534
0.579534
0.579568
0.579602
0.579636
0.57967
0.57967
0.579704
0.579738
0.579773
0.579807
0.579807
0.579841
0.579876
0.579911
0.579945
0.579945
0.57998
0.580015
0.58005
0.580085
0.580085
0.58012
0.580155
0.58019
0.580225
0.580225
0.58026
0.580296
0.580331
0.580367
0.580367
0.580402
0.580438
0.580474
0.58051
0.58051
0.580546
0.580582
0.580618
0.580654
0.580654
0.58069
0.580726
0.580763
0.580799
0.580799
0.580836
0.580872
0.580909
0.580946
0.580946
0.580982
0.581019
0.581056
0.581093
0.581093
0.58113
0.581168
0.581205
0.581242
0.581242
0.58128
0.581317
0.581355
0.581392
0.581392
0.58143
0.581468
0.581506
0.581544
0.581544
0.581582
0.58162
0.581658
0.581696
0.581696
0.581734
0.581773
0.581811
0.58185
0.58185
0.581889
0.581927
0.581966
0.582005
0.582005
0.582044
0.582083
0.582122
0.582161
0.582161
0.582201
0.58224
0.582279
0.582319
0.582319
0.582358
0.582398
0.582438
0.582478
0.582478
0.582518
0.582558
0.582598
0.582638
0.582638
0.582678
0.582718
0.582759
0.582799
0.582799
0.58284
0.58288
0.582921
0.582962
0.582962
0.583003
0.583044
0.583085
0.583126
0.583126
0.583167
0.583208
0.583249
0.583291
0.583291
0.583332
0.583374
0.583416
0.583457
0.583457
0.583499
0.583541
0.583583
0.583625
0.583625
0.583667
0.58371
0.583752
0.583794
0.583794
0.583837
0.583879
0.583922
0.583965
0.583965
0.584008
0.58405
0.584093
0.584136
0.584136
0.58418
0.584223
0.584266
0.58431
0.58431
0.584353
0.584397
0.58444
0.584484
0.584484
0.584528
0.584572
0.584616
0.58466
0.58466
0.584704
0.584748
0.584792
0.584837
0.584837
0.584881
0.584926
0.58497
0.585015
0.585015
0.58506
0.585105
0.58515
0.585195
0.585195
0.58524
0.585285
0.58533
0.585376
0.585376
0.585421
0.585467
0.585512
0.585558
0.585558
0.585604
0.58565
0.585696
0.585742
0.585742
0.585788
0.585834
0.58588