<?xml version="1.0"?>
<VTKFile type="UnstructuredGrid" version="0.1" byte_order="LittleEndian">
<UnstructuredGrid>
<Piece NumberOfPoints="5000" NumberOfCells="4000">
<PointData Scalars="Reaction 0">
<DataArray type="Float32" Name="Reaction 0" format="ascii">
0.521272
0.521272
0.521272
0.521272
0.521272
0.521272
0.521272
0.521273
0.521273
0.521273
0.521273
0.521274
0.521274
0.521275
0.521275
0.521275
0.521276
0.521277
0.521278
0.521278
0.521278
0.521279
0.52128
0.521281
0.521282
0.521282
0.521283
0.521284
0.521285
0.521286
0.521286
0.521288
0.521289
0.52129
0.521292
0.521292
0.521293
0.521295
0.521296
0.521298
0.521298
0.5213
0.521301
0.521303
0.521305
0.521305
0.521307
0.521309
0.521311
0.521313
0.521313
0.521315
0.521317
0.521319
0.521321
0.521321
0.521324
0.521326
0.521328
0.521331
0.521331
0.521333
0.521336
0.521338
0.521341
0.521341
0.521344
0.521346
0.521349
0.521352
0.521352
0.521355
0.521358
0.521361
0.521364
0.521364
0.521367
0.52137
0.521373
0.521377
0.521377
0.52138
0.521383
0.521387
0.52139
0.52139
0.521394
0.521397
0.521401
0.521404
0.521404
0.521408
0.521412
0.521416
0.521419
0.521419
0.521423
0.521427
0.521431
0.521435
0.521435
0.52144
0.521444
0.521448
0.521452
0.521452
0.521457
0.521461
0.521465
0.52147
0.52147
0.521474
0.521479
0.521484
0.521488
0.521488
0.521493
0.521498
0.521503
0.521508
0.521508
0.521512
0.521517
0.521522
0.521528
0.521528
0.521533
0.521538
0.521543
0.521548
0.521548
0.521554
0.521559
0.521565
0.52157
0.52157
0.521576
0.521581
0.521587
0.521593
0.521593
0.521598
0.521604
0.52161
0.521616
0.521616
0.521622
0.521628
0.521634
0.52164
0.52164
0.521646
0.521653
0.521659
0.521665
0.521665
0.521672
0.521678
0.521684
0.521691
0.521691
0.521698
0.521704
0.521711
0.521718
0.521718
0.521724
0.521731
0.521738
0.521745
0.521745
0.521752
0.521759
0.521766
0.521773
0.521773
0.521781
0.521788
0.521795
0.521802
0.521802
0.52181
0.521817
0.521825
0.521832
0.521832
0.52184
0.521848
0.521855
0.521863
0.521863
0.521871
0.521879
0.521887
0.521895
0.521895
0.521903
0.521911
0.521919
0.521927
0.521927
0.521935
0.521944
0.521952
0.52196
0.52196
0.521969
0.521977
0.521986
0.521994
0.521994
0.522003
0.522012
0.52202
0.522029
0.522029
0.522038
0.522047
0.522056
0.522065
0.522065
0.522074
0.522083
0.522092
0.522101
0.522101
0.522111
0.52212
0.522129
0.522139
0.522139
0.522148
0.522158
0.522167
0.522177
0.522177
0.522187
0.522196
0.522206
0.522216
0.522216
0.522226
0.522236
0.522246
0.522256
0.522256
0.522266
0.522276
0.522286
0.522296
0.522296
0.522307
0.522317
0.522327
0.522338
0.522338
0.522348
0.522359
0.52237
0.52238
0.52238
0.522391
0.522402
0.522412
0.522423
0.522423
0.522434
0.522445
0.522456
0.522467
0.522467
0.522478
0.52249
0.522501
0.522512
0.522512
0.522523
0.522535
0.522546
0.522558
0.522558
0.522569
0.522581
0.522592
0.522604
0.522604
0.522616
0.522628
0.52264
0.522651
0.522651
0.522663
0.522675
0.522687
0.5227
0.5227
0.522712
0.522724
0.522736
0.522748
0.522748
0.522761
0.522773
0.522786
0.522798
0.522798
0.522811
0.522823
0.522836
0.522849
0.522849
0.522862
0.522874
0.522887
0.5229
0.5229
0.522913
0.522926
0.522939
0.522953
0.522953
0.522966
0.522979
0.522992
0.523006
0.523006
0.523019
0.523032
0.523046
0.52306
0.52306
0.523073
0.523087
0.523101
0.523114
0.523114
0.523128
0.523142
0.523156
0.52317
0.52317
0.523184
0.523198
0.523212
0.523226
0.523226
0.523241
0.523255
0.523269
0.523284
0.523284
0.523298
0.523313
0.523327
0.523342
0.523342
0.523356
0.523371
0.523386
0.523401
0.523401
0.523416
0.52343
0.523445
0.52346
0.52346
0.523475
0.523491
0.523506
0.523521
0.523521
0.523536
0.523552
0.523567
0.523582
0.523582
0.523598
0.523614
0.523629
0.523645
0.523645
0.52366
0.523676
0.523692
0.523708
0.523708
0.523724
0.52374
0.523756
0.523772
0.523772
0.523788
0.523804
0.52382
0.523837
0.523837
0.523853
0.523869
0.523886
0.523902
0.523902
0.523919
0.523935
0.523952
0.523969
0.523969
0.523986
0.524002
0.524019
0.524036
0.524036
0.524053
0.52407
0.524087
0.524104
0.524104
0.524121
0.524139
0.524156
0.524173
0.524173
0.524191
0.524208
0.524226
0.524243
0.524243
0.524261
0.524278
0.524296
0.524314
0.524314
0.524332
0.52435
0.524367
0.524385
0.524385
0.524403
0.524421
0.52444
0.524458
0.524458
0.524476
0.524494
0.524513
0.524531
0.524531
0.524549
0.524568
0.524587
0.524605
0.524605
0.524624
0.524642
0.524661
0.52468
0.52468
0.524699
0.524718
0.524737
0.524756
0.524756
0.524775
0.524794
0.524813
0.524832
0.524832
0.524852
0.524871
0.52489
0.52491
0.52491
0.524929
0.524949
0.524969
0.524988
0.524988
0.525008
0.525028
0.525048
0.525067
0.525067
0.525087
0.525107
0.525127
0.525147
0.525147
0.525168
0.525188
0.525208
0.525228
0.525228
0.525249
0.525269
0.52529
0.52531
0.52531
0.525331
0.525351
0.525372
0.525393
0.525393
0.525413
0.525434
0.525455
0.525476
0.525476
0.525497
0.525518
0.525539
0.52556
0.52556
0.525582
0.525603
0.525624
0.525646
0.525646
0.525667
0.525688
0.52571
0.525732
0.525732
0.525753
0.525775
0.525797
0.525818
0.525818
0.52584
0.525862
0.525884
0.525906
0.525906
0.525928
0.52595
0.525973
0.525995
0.525995
0.526017
0.526039
0.526062
0.526084
0.526084
0.526107
0.526129
0.526152
0.526174
0.526174
0.526197
0.52622
0.526243
0.526266
0.526266
0.526289
0.526312
0.526335
0.526358
0.526358
0.526381
0.526404
0.526427
0.526451
0.526451
0.526474
0.526497
0.526521
0.526544
0.526544
0.526568
0.526592
0.526615
0.526639
0.526639
0.526663
0.526687
0.52671
0.526734
0.526734
0.526758
0.526782
0.526807
0.526831
0.526831
0.526855
0.526879
0.526904
0.526928
0.526928
0.526952
0.526977
0.527001
0.527026
0.527026
0.527051
0.527075
0.5271
0.527125
0.527125
0.52715
0.527175
0.5272
0.527225
0.527225
0.52725
0.527275
0.5273
0.527326
0.527326
0.527351
0.527376
0.527402
0.527427
0.527427
0.527453
0.527478
0.527504
0.52753
0.52753
0.527555
0.527581
0.527607
0.527633
0.527633
0.527659
0.527685
0.527711
0.527737
0.527737
0.527763
0.527789
0.527816
0.527842
0.527842
0.527868
0.527895
0.527921
0.527948
0.527948
0.527975
0.528001
0.528028
0.528055
0.528055
0.528082
0.528109
0.528136
0.528163
0.528163
0.52819
0.528217
0.528244
0.528271
0.528271
0.528298
0.528326
0.528353
0.528381
0.528381
0.528408
0.528436
0.528463
0.528491
0.528491
0.528519
0.528546
0.528574
0.528602
0.528602
0.52863
0.528658
0.528686
0.528714
0.528714
0.528742
0.528771
0.528799
0.528827
0.528827
0.528856
0.528884
0.528913
0.528941
0.528941
0.52897
0.528998
0.529027
0.529056
0.529056
0.529085
0.529114
0.529142
0.529171
0.529171
0.529201
0.52923
0.529259
0.529288
0.529288
0.529317
0.529347
0.529376
0.529405
0.529405
0.529435
0.529464
0.529494
0.529524
0.529524
0.529553
0.529583
0.529613
0.529643
0.529643
0.529673
0.529703
0.529733
0.529763
0.529763
0.529793
0.529823
0.529854
0.529884
0.529884
0.529914
0.529945
0.529975
0.530006
0.530006
0.530037
0.530067
0.530098
0.530129
0.530129
0.53016
0.53019
0.530221
0.530252
0.530252
0.530283
0.530315
0.530346
0.530377
0.530377
0.530408
0.53044
0.530471
0.530502
0.530502
0.530534
0.530566
0.530597
0.530629
0.530629
0.530661
0.530692
0.530724
0.530756
0.530756
0.530788
0.53082
0.530852
0.530884
0.530884
0.530917
0.530949
0.530981
0.531013
0.531013
0.531046
0.531078
0.531111
0.531143
0.531143
0.531176
0.531209
0.531242
0.531274
0.531274
0.531307
0.53134
0.531373
0.531406
0.531406
0.531439
0.531472
0.531506
0.531539
0.531539
0.531572
0.531606
0.531639
0.531672
0.531672
0.531706
0.53174
0.531773
0.531807
0.531807
0.531841
0.531875
0.531909
0.531943
0.531943
0.531977
0.532011
0.532045
0.532079
0.532079
0.532113
0.532147
0.532182
0.532216
0.532216
0.532251
0.532285
0.53232
0.532354
0.532354
0.532389
0.532424
0.532459
0.532494
0.532494
0.532528
0.532563
0.532598
0.532634
0.532634
0.532669
0.532704
0.532739
0.532775
0.532775
0.53281
0.532845
0.532881
0.532916
0.532916
0.532952
0.532988
0.533023
0.533059
0.533059
0.533095
0.533131
0.533167
0.533203
0.533203
0.533239
0.533275
0.533311
0.533348
0.533348
0.533384
0.53342
0.533457
0.533493
0.533493
0.53353
0.533566
0.533603
0.53364
0.53364
0.533677
0.533713
0.53375
0.533787
0.533787
0.533824
0.533861
0.533898
0.533936
0.533936
0.533973
0.53401
0.534048
0.534085
0.534085
0.534122
0.53416
0.534198
0.534235
0.534235
0.534273
0.534311
0.534349
0.534386
0.534386
0.534424
0.534462
0.5345
0.534539
0.534539
0.534577
0.534615
0.534653
0.534692
0.534692
0.53473
0.534769
0.534807
0.534846
0.534846
0.534884
0.534923
0.534962
0.535001
0.535001
0.535039
0.535078
0.535117
0.535157
0.535157
0.535196
0.535235
0.535274
0.535313
0.535313
0.535353
0.535392
0.535432
0.535471
0.535471
0.535511
0.53555
0.53559
0.53563
0.53563
0.53567
0.53571
0.53575
0.53579
0.53579
0.53583
0.53587
0.53591
0.53595
0.53595
0.535991
0.536031
0.536071
0.536112
0.536112
0.536152
0.536193
0.536234
0.536274
0.536274
0.536315
0.536356
0.536397
0.536438
0.536438
0.536479
0.53652
0.536561
0.536602
0.536602
0.536644
0.536685
0.536726
0.536768
0.536768
0.536809
0.536851
0.536893
0.536934
0.536934
0.536976
0.537018
0.53706
0.537102
0.537102
0.537144
0.537186
0.537228
0.53727
0.53727
0.537312
0.537355
0.537397
0.537439
0.537439
0.537482
0.537524
0.537567
0.53761
0.53761
0.537652
0.537695
0.537738
0.537781
0.537781
0.537824
0.537867
0.53791
0.537953
0.537953
0.537996
0.538039
0.538083
0.538126
0.538126
0.53817
0.538213
0.538257
0.5383
0.5383
0.538344
0.538388
0.538432
0.538475
0.538475
0.538519
0.538563
0.538607
0.538652
0.538652
0.538696
0.53874
0.538784
0.538829
0.538829
0.538873
0.538918
0.538962
0.539007
0.539007
0.539051
0.539096
0.539141
0.539186
0.539186
0.539231
0.539276
0.539321
0.539366
0.539366
0.539411
0.539456
0.539502
0.539547
0.539547
0.539592
0.539638
0.539683
0.539729
0.539729
0.539775
0.53982
0.539866
0.539912
0.539912
0.539958
0.540004
0.54005
0.540096
0.540096
0.540142
0.540188
0.540235
0.540281
0.540281
0.540327
0.540374
0.54042
0.540467
0.540467
0.540514
0.54056
0.540607
0.540654
0.540654
0.540701
0.540748
0.540795
0.540842
0.540842
0.540889
0.540936
0.540984
0.541031
0.541031
0.541078
0.541126
0.541174
0.541221
0.541221
0.541269
0.541317
0.541364
0.541412
0.541412
0.54146
0.541508
0.541556
0.541604
0.541604
0.541652
0.541701
0.541749
0.541797
0.541797
0.541846
0.541894
0.541943
0.541991
0.541991
0.54204
0.542089
0.542138
0.542186
0.542186
0.542235
0.542284
0.542333
0.542383
0.542383
0.542432
0.542481
0.54253
0.54258
0.54258
0.542629
0.542679
0.542728
0.542778
0.542778
0.542827
0.542877
0.542927
0.542977
0.542977
0.543027
0.543077
0.543127
0.543177
0.543177
0.543227
0.543278
0.543328
0.543378
0.543378
0.543429
0.543479
0.54353
0.543581
0.543581
0.543631
0.543682
0.543733
0.543784
0.543784
0.543835
0.543886
0.543937
0.543988
0.543988
0.54404
0.544091
0.544142
0.544194
0.544194
0.544245
0.544297
0.544348
0.5444
0.5444
0.544452
0.544504
0.544556
0.544607
0.544607
0.54466
0.544712
0.544764
0.544816
0.544816
0.544868
0.544921
0.544973
0.545026
0.545026
0.545078
0.545131
0.545183
0.545236
0.545236
0.545289
0.545342
0.545395
0.545448
0.545448
0.545501
0.545554
0.545607
0.54566
0.54566
0.545714
0.545767
0.545821
0.545874
0.545874
0.545928
0.545981
0.546035
0.546089
0.546089
0.546143
0.546197
0.546251
0.546305
0.546305
0.546359
0.546413
0.546467
0.546522
0.546522
0.546576
0.546631
0.546685
0.54674
0.54674
0.546794
0.546849
0.546904
0.546959
0.546959
0.547014
0.547069
0.547124
0.547179
0.547179
0.547234
0.547289
0.547345
0.5474
0.5474
0.547456
0.547511
0.547567
0.547622
0.547622
0.547678
0.547734
0.54779
0.547846
0.547846
0.547902
0.547958
0.548014
0.54807
0.54807
0.548127
0.548183
0.548239
0.548296
0.548296
0.548352
0.548409
0.548466
0.548522
0.548522
0.548579
0.548636
0.548693
0.54875
0.54875
0.548807
0.548864
0.548922
0.548979
0.548979
0.549036
0.549094
0.549151
0.549209
0.549209
0.549266
0.549324
0.549382
0.54944
0.54944
0.549498
0.549556
0.549614
0.549672
0.549672
0.54973
0.549788
0.549847
0.549905
0.549905
0.549963
0.550022
0.550081
0.550139
0.550139
0.550198
0.550257
0.550316
0.550375
0.550375
0.550434
0.550493
0.550552
0.550611
0.550611
0.55067
0.55073
0.550789
0.550849
0.550849
0.550908
0.550968
0.551028
0.551088
0.551088
0.551147
0.551207
0.551267
0.551327
0.551327
0.551387
0.551448
0.551508
0.551568
0.551568
0.551629
0.551689
0.55175
0.55181
0.55181
0.551871
0.551932
0.551993
0.552054
0.552054
0.552115
0.552176
0.552237
0.552298
0.552298
0.552359
0.552421
0.552482
0.552543
0.552543
0.552605
0.552667
0.552728
0.55279
0.55279
0.552852
0.552914
0.552976
0.553038
0.553038
0.5531
0.553162
0.553224
0.553287
0.553287
0.553349
0.553412
0.553474
0.553537
0.553537
0.553599
0.553662
0.553725
0.553788
0.553788
0.553851
0.553914
0.553977
0.55404
0.55404
0.554103
0.554167
0.55423
0.554294
0.554294
0.554357
0.554421
0.554484
0.554548
0.554548
0.554612
0.554676
0.55474
0.554804
0.554804
0.554868
0.554932
0.554997
0.555061
0.555061
0.555125
0.55519
0.555254
0.555319
0.555319
0.555384
0.555449
0.555513
0.555578
0.555578
0.555643
0.555708
0.555774
0.555839
0.555839
0.555904
0.555969
0.556035
0.5561
0.5561
0.556166
0.556232
0.556297
0.556363
0.556363
0.556429
0.556495
0.556561
0.556627
0.556627
0.556693
0.55676
0.556826
0.556892
0.556892
0.556959
0.557025
0.557092
0.557159
0.557159
0.557226
0.557292
0.557359
0.557426
0.557426
0.557493
0.557561
0.557628
0.557695
0.557695
0.557762
0.55783
0.557897
0.557965
0.557965
0.558033
0.5581
0.558168
0.558236
0.558236
0.558304
0.558372
0.55844
0.558508
0.558508
0.558577
0.558645
0.558713
0.558782
0.558782
0.558851
0.558919
0.558988
0.559057
0.559057
0.559125
0.559194
0.559263
0.559332
0.559332
0.559401
0.55947
0.559538
0.559607
0.559607
0.559675
0.559741
0.559805
0.559867
0.559867
0.559924
0.559971
0.560006
0.56003
0.56003
0.560047
0.560063
0.560078
0.560092
0.560092
0.560107
0.560122
0.560136
0.560151
0.560151
0.560165
0.56018
0.560195
0.560209
0.560209
0.560224
0.560239
0.560253
0.560268
0.560268
0.560283
0.560297
0.560312
0.560327
0.560327
0.560341
0.560356
0.560371
0.560385
0.560385
0.5604
0.560414
0.560428
0.560442
0.560442
0.560456
0.560468
0.56048
0.560489
0.560489
0.560496
0.560501
0.560503
0.560503
0.560503
0.560503
0.560503
0.560502
0.560501
0.560501
0.5605
0.5605
0.560499
0.560498
0.560498
0.560497
0.560496
0.560495
0.560494
0.560494
0.560494
0.560493
0.560492
0.560491
0.560491
0.56049
0.560489
0.560488
0.560487
0.560487
0.560486
0.560485
0.560484
0.560483
0.560483
0.560483
0.560482
0.56048
0.560479
0.560479
0.560478
0.560477
0.560476
0.560475
0.560475
0.560474
0.560472
0.560471
0.56047
0.56047
0.560469
0.560467
0.560466
0.560465
0.560465
0.560463
0.560462
0.560461
0.560459
0.560459
0.560458
0.560457
0.560455
0.560454
0.560454
0.560453
0.560451
0.56045
0.560449
0.560449
0.560448
0.560446
0.560445
0.560444
0.560444
0.560442
0.560441
0.56044
0.560439
0.560439
0.560437
0.560436
0.560435
0.560435
0.560435
0.560434
0.560434
0.560433
0.560433
0.560433
0.560433
0.560432
0.560432
0.560432
0.560432
0.560431
0.560431
0.560431
0.56043
0.56043
0.56043
0.56043
0.560429
0.560429
0.560429
0.560429
0.560428
0.560428
0.560428
0.560428
0.560428
0.560427
0.560427
0.560427
0.560427
0.560426
0.560426
0.560426
0.560426
0.560426
0.560425
0.560425
0.560425
0.560425
0.560425
0.560425
0.560425
0.560425
0.560425
0.560425
0.560425
0.560425
0.560425
0.560425
0.560425
0.560425
0.560425
0.560425
0.560425
0.560425
0.560425
0.560425
0.560425
0.560425
0.560425
0.560425
0.560425
0.560425
0.560425
0.560425
0.560425
0.560425
0.560425
0.560425
0.560425
0.560425
0.560425
0.560425
0.560425
0.560425
0.560425
0.560425
0.560425
0.560425
0.560425
0.560425
0.560425
0.560425
0.560425
0.560425
0.560425
0.560425
0.560425
0.560425
0.560425
0.560425
0.560425
0.560425
0.560425
0.560425
0.560425
0.560425
0.560425
0.560425
0.560425
0.560425
0.560425
0.560425
0.560425
0.560425
0.560425
0.560425
0.560425
0.560425
0.560425
0.560425
0.560425
0.560425
0.560425
0.560425
0.560425
0.560425
0.560425
0.560425
0.560425
0.560425
0.560425
0.560425
0.560425
0.560425
0.560425
0.560425
0.560425
0.560425
0.560425
0.560425
0.560425
0.560425
0.560425
0.560425
0.560425
0.560425
0.560425
0.560425
0.560425
0.560425
0.560425
0.560425
0.560425
0.560425
0.560425
0.560425
0.560425
0.560425
0.560425
0.560425
0.560425
0.560425
0.560425
0.560425
0.560425
0.560425
0.560425
0.560425
0.560425
0.560425
0.560425
0.560425
0.560425
0.560425
0.560425
0.560425
0.560425
0.560425
0.560425
0.560425
0.560425
0.560425
0.560425
0.560425
0.560425
0.560425
0.560425
0.560425
0.560425
0.560425
0.560425
0.560425
0.560425
0.560425
0.560425
0.560425
0.560425
0.560425
0.560425
0.560425
0.560425
0.560425
0.560425
0.560425
0.560425
0.560425
0.560425
0.560425
0.560425
0.560425
0.560425
0.560425
0.560425
0.560425
0.560425
0.560425
0.560425
0.560425
0.560425
0.560425
0.560425
0.560425
0.560425
0.560425
0.560425
0.560425
0.560425
0.560425
0.560425
0.560425
0.560425
0.560425
0.560425
0.560425
0.560425
0.560425
0.560425
0.560425
0.560425
0.560425
0.560425
0.560425
0.560425
0.560425
0.560425
0.560425
0.560425
0.560425
0.560425
0.560425
0.560425
0.560425
0.560425
0.560425
0.560425
0.560425
0.560425
0.560425
0.560425
0.560425
0.560425
0.560425
0.560425
0.560425
0.560425
0.560425
0.560425
0.560425
0.560425
0.560425
0.560425
0.560425
0.560425
0.560425
0.560425
0.560425
0.560425
0.560425
0.560425
0.560425
0.560425
0.560425
0.560425
0.560425
0.560425
0.560425
0.560425
0.560425
0.560425
0.560425
0.560425
0.560425
0.560425
0.560425
0.560425
0.560425
0.560425
0.560425
0.560425
0.560425
0.560425
0.560425
0.560425
0.560425
0.560425
0.560425
0.560425
0.560426
0.560426
0.560426
0.560426
0.560426
0.560426
0.560426
0.560426
0.560426
0.560426
0.560426
0.560426
0.560426
0.560426
0.560426
0.560426
0.560426
0.560426
0.560426
0.560426
0.560426
0.560426
0.560426
0.560426
0.560426
0.560426
0.560426
0.560426
0.560426
0.560426
0.560426
0.560426
0.560426
0.560426
0.560426
0.560426
0.560426
0.560426
0.560426
0.560426
0.560426
0.560426
0.560426
0.560426
0.560426
0.560426
0.560426
0.560426
0.560426
0.560426
0.560426
0.560426
0.560426
0.560426
0.560426
0.560426
0.560426
0.560426
0.560426
0.560426
0.560426
0.560426
0.560426
0.560426
0.560426
0.560426
0.560426
0.560426
0.560426
0.560426
0.560426
0.560426
0.560426
0.560426
0.560426
0.560426
0.560426
0.560426
0.560426
0.560426
0.560426
0.560426
0.560426
0.560426
0.560426
0.560426
0.560426
0.560426
0.560426
0.560426
0.560426
0.560426
0.560426
0.560426
0.560426
0.560426
0.560426
0.560426
0.560426
0.560426
0.560426
0.560426
0.560426
0.560426
0.560426
0.560426
0.560426
0.560426
0.560426
0.560426
0.560426
0.560426
0.560426
0.560426
0.560426
0.560426
0.560426
0.560426
0.560426
0.560426
0.560426
0.560426
0.560426
0.560426
0.560426
0.560426
0.560426
0.560426
0.560426
0.560426
0.560426
0.560426
0.560426
0.560426
0.560426
0.560426
0.560426
0.560426
0.560426
0.560426
0.560426
0.560426
0.560426
0.560426
0.560426
0.560426
0.560426
0.560426
0.560426
0.560426
0.560426
0.560426
0.560426
0.560426
0.560426
0.560426
0.560426
0.560426
0.560426
0.560426
0.560426
0.560426
0.560426
0.560426
0.560426
0.560426
0.560426
0.560426
0.560426
0.560426
0.560426
0.560426
0.560426
0.560426
0.560426
0.560426
0.560426
0.560426
0.560426
0.560426
0.560426
0.560426
0.560426
0.560426
0.560426
0.560426
0.560426
0.560426
0.560426
0.560426
0.560426
0.560426
0.560426
0.560426
0.560426
0.560426
0.560426
0.560426
0.560426
0.560426
0.560426
0.560426
0.560426
0.560426
0.560426
0.560426
0.560426
0.560426
0.560426
0.560426
0.560426
0.560426
0.560427
0.560427
0.560427
0.560427
0.560427
0.560427
0.560427
0.560427
0.560427
0.560427
0.560427
0.560427
0.560427
0.560427
0.560427
0.560427
0.560427
0.560427
0.560427
0.560427
0.560427
0.560427
0.560427
0.560427
0.560427
0.560427
0.560427
0.560427
0.560427
0.560427
0.560427
0.560427
0.560427
0.560427
0.560427
0.560427
0.560427
0.560427
0.560427
0.560427
0.560427
0.560427
0.560427
0.560427
0.560427
0.560427
0.560427
0.560427
0.560427
0.560427
0.560427
0.560427
0.560427
0.560427
0.560427
0.560427
0.560427
0.560427
0.560427
0.560427
0.560427
0.560427
0.560427
0.560427
0.560427
0.560427
0.560427
0.560427
0.560427
0.560427
0.560427
0.560427
0.560427
0.560427
0.560427
0.560427
0.560427
0.560427
0.560427
0.560427
0.560427
0.560427
0.560427
0.560427
0.560427
0.560427
0.560427
0.560427
0.560427
0.560427
0.560427
0.560427
0.560427
0.560427
0.560427
0.560427
0.560427
0.560427
0.560427
0.560427
0.560427
0.560427
0.560427
0.560427
0.560427
0.560427
0.560427
0.560427
0.560427
0.560427
0.560427
0.560427
0.560427
0.560428
0.560428
0.560428
0.560428
0.560428
0.560428
0.560428
0.560428
0.560428
0.560428
0.560428
0.560428
0.560428
0.560428
0.560428
0.560428
0.560428
0.560428
0.560428
0.560428
0.560428
0.560428
0.560428
0.560428
0.560428
0.560428
0.560428
0.560428
0.560428
0.560428
0.560428
0.560428
0.560428
0.560428
0.560428
0.560428
0.560428
0.560428
0.560428
0.560428
0.560428
0.560428
0.560428
0.560428
0.560428
0.560428
0.560428
0.560428
0.560428
0.560428
0.560428
0.560428
0.560428
0.560428
0.560428
0.560428
0.560428
0.560428
0.560428
0.560428
0.560428
0.560428
0.560428
0.560428
0.560428
0.560428
0.560428
0.560428
0.560428
0.560428
0.560428
0.560428
0.560428
0.560428
0.560428
0.560428
0.560428
0.560428
0.560428
0.560428
0.560428
0.560428
0.560428
0.560428
0.560428
0.560428
0.560428
0.560429
0.560429
0.560429
0.560429
0.560429
0.560429
0.560429
0.560429
0.560429
0.560429
0.560429
0.560429
0.560429
0.560429
0.560429
0.560429
0.560429
0.560429
0.560429
0.560429
0.560429
0.560429
0.560429
0.560429
0.560429
0.560429
0.560429
0.560429
0.560429
0.560429
0.560429
0.560429
0.560429
0.560429
0.560429
0.560429
0.560429
0.560429
0.560429
0.560429
0.560429
0.560429
0.560429
0.560429
0.560429
0.560429
0.560429
0.560429
0.560429
0.560429
0.560429
0.560429
0.560429
0.560429
0.560429
0.560429
0.560429
0.560429
0.560429
0.560429
0.560429
0.560429
0.560429
0.560429
0.560429
0.560429
0.560429
0.560429
0.560429
0.560429
0.560429
0.560429
0.560429
0.560429
0.560429
0.56043
0.56043
0.56043
0.56043
0.56043
0.56043
0.56043
0.56043
0.56043
0.56043
0.56043
0.56043
0.56043
0.56043
0.56043
0.56043
0.56043
0.56043
0.56043
0.56043
0.56043
0.56043
0.56043
0.56043
0.56043
0.56043
0.56043
0.56043
0.56043
0.56043
0.56043
0.56043
0.56043
0.56043
0.56043
0.56043
0.56043
0.56043
0.56043
0.56043
0.56043
0.56043
0.56043
0.56043
0.56043
0.56043
0.56043
0.56043
0.56043
0.56043
0.56043
0.56043
0.56043
0.56043
0.56043
0.56043
0.56043
0.56043
0.56043
0.56043
0.56043
0.56043
0.56043
0.560431
0.560431
0.560431
0.560431
0.560431
0.560431
0.560431
0.560431
0.560431
0.560431
0.560431
0.560431
0.560431
0.560431
0.560431
0.560431
0.560431
0.560431
0.560431
0.560431
0.560431
0.560431
0.560431
0.560431
0.560431
0.560431
0.560431
0.560431
0.560431
0.560431
0.560431
0.560431
0.560431
0.560431
0.560431
0.560431
0.560431
0.560431
0.560431
0.560431
0.560431
0.560431
0.560431
0.560431
0.560431
0.560431
0.560431
0.560431
0.560431
0.560431
0.560431
0.560431
0.560431
0.560431
0.560431
0.560431
0.560431
0.560431
0.560431
0.560432
0.560432
0.560432
0.560432
0.560432
0.560432
0.560432
0.560432
0.560432
0.560432
0.560432
0.560432
0.560432
0.560432
0.560432
0.560432
0.560432
0.560432
0.560432
0.560432
0.560432
0.560432
0.560432
0.560432
0.560432
0.560432
0.560432
0.560432
0.560432
0.560432
0.560432
0.560432
0.560432
0.560432
0.560432
0.560432
0.560432
0.560432
0.560432
0.560432
0.560432
0.560432
0.560432
0.560432
0.560432
0.560432
0.560432
0.560432
0.560432
0.560432
0.560432
0.560432
0.560432
0.560433
0.560433
0.560433
0.560433
0.560433
0.560433
0.560433
0.560433
0.560433
0.560433
0.560433
0.560433
0.560433
0.560433
0.560433
0.560433
0.560433
0.560433
0.560433
0.560433
0.560433
0.560433
0.560433
0.560433
0.560433
0.560433
0.560433
0.560433
0.560433
0.560433
0.560433
0.560433
0.560433
0.560433
0.560433
0.560433
0.560433
0.560433
0.560433
0.560433
0.560433
0.560433
0.560433
0.560433
0.560433
0.560433
0.560433
0.560433
0.560433
0.560433
0.560434
0.560434
0.560434
0.560434
0.560434
0.560434
0.560434
0.560434
0.560434
0.560434
0.560434
0.560434
0.560434
0.560434
0.560434
0.560434
0.560434
0.560434
0.560434
0.560434
0.560434
0.560434
0.560434
0.560434
0.560434
0.560434
0.560434
0.560434
0.560434
0.560434
0.560434
0.560434
0.560434
0.560434
0.560434
0.560434
0.560434
0.560434
0.560434
0.560434
0.560434
0.560434
0.560434
0.560434
0.560434
0.560434
0.560435
0.560435
0.560435
0.560435
0.560435
0.560435
0.560435
0.560435
0.560435
0.560435
0.560435
0.560435
0.560435
0.560435
0.560435
0.560435
0.560435
0.560435
0.560435
0.560435
0.560435
0.560435
0.560435
0.560435
0.560435
0.560435
0.560435
0.560435
0.560435
0.560435
0.560435
0.560435
0.560435
0.560435
0.560435
0.560435
0.560435
0.560435
0.560435
0.560435
0.560435
0.560435
0.560435
0.560435
0.560435
0.560436
0.560436
0.560436
0.560436
0.560436
0.560436
0.560436
0.560436
0.560436
0.560436
0.560436
0.560436
0.560436
0.560436
0.560436
0.560436
0.560436
0.560436
0.560436
0.560436
0.560436
0.560436
0.560436
0.560436
0.560436
0.560436
0.560436
0.560436
0.560436
0.560436
0.560436
0.560436
0.560436
0.560436
0.560436
0.560436
0.560436
0.560436
0.560436
0.560436
0.560437
0.560437
0.560437
0.560437
0.560437
0.560437
0.560437
0.560437
0.560437
0.560437
0.560437
0.560437
0.560437
0.560437
0.560437
0.560437
0.560437
0.560437
0.560437
0.560437
0.560437
0.560437
0.560437
0.560437
0.560437
0.560437
0.560437
0.560437
0.560437
0.560437
0.560437
0.560437
0.560437
0.560437
0.560437
0.560437
0.560437
0.560437
0.560437
0.560437
0.560438
0.560438
0.560438
0.560438
0.560438
0.560438
0.560438
0.560438
0.560438
0.560438
0.560438
0.560438
0.560438
0.560438
0.560438
0.560438
0.560438
0.560438
0.560438
0.560438
0.560438
0.560438
0.560438
0.560438
0.560438
0.560438
0.560438
0.560438
0.560438
0.560438
0.560438
0.560438
0.560438
0.560438
0.560438
0.560438
0.560438
0.560438
0.560438
0.560439
0.560439
0.560439
0.560439
0.560439
0.560439
0.560439
0.560439
0.560439
0.560439
0.560439
0.560439
0.560439
0.560439
0.560439
0.560439
0.560439
0.560439
0.560439
0.560439
0.560439
0.560439
0.560439
0.560439
0.560439
0.560439
0.560439
0.560439
0.560439
0.560439
0.560439
0.560439
0.560439
0.560439
0.560439
0.56044
0.56044
0.56044
0.56044
0.56044
0.56044
0.56044
0.56044
0.56044
0.56044
0.56044
0.56044
0.56044
0.56044
0.56044
0.56044
0.56044
0.56044
0.56044
0.56044
0.56044
0.56044
0.56044
0.56044
0.56044
0.56044
0.56044
0.56044
0.56044
0.56044
0.56044
0.56044
0.56044
0.56044
0.56044
0.56044
0.560441
0.560441
0.560441
0.560441
0.560441
0.560441
0.560441
0.560441
0.560441
0.560441
0.560441
0.560441
0.560441
0.560441
0.560441
0.560441
0.560441
0.560441
0.560441
0.560441
0.560441
0.560441
0.560441
0.560441
0.560441
0.560441
0.560441
0.560441
0.560441
0.560441
0.560441
0.560441
0.560442
0.560442
0.560442
0.560442
0.560442
0.560442
0.560442
0.560442
0.560442
0.560442
0.560442
0.560442
0.560442
0.560442
0.560442
0.560442
0.560442
0.560442
0.560442
0.560442
0.560442
0.560442
0.560442
0.560442
0.560442
0.560442
0.560442
0.560442
0.560442
0.560442
0.560442
0.560442
0.560442
0.560443
0.560443
0.560443
0.560443
0.560443
0.560443
0.560443
0.560443
0.560443
0.560443
0.560443
0.560443
0.560443
0.560443
0.560443
0.560443
0.560443
0.560443
0.560443
0.560443
0.560443
0.560443
0.560443
0.560443
0.560443
0.560443
0.560443
0.560443
0.560443
0.560443
0.560443
0.560444
0.560444
0.560444
0.560444
0.560444
0.560444
0.560444
0.560444
0.560444
0.560444
0.560444
0.560444
0.560444
0.560444
0.560444
0.560444
0.560444
0.560444
0.560444
0.560444
0.560444
0.560444
0.560444
0.560444
0.560444
0.560444
0.560444
0.560444
0.560444
0.560444
0.560444
0.560445
0.560445
0.560445
0.560445
0.560445
0.560445
0.560445
0.560445
0.560445
0.560445
0.560445
0.560445
0.560445
0.560445
0.560445
0.560445
0.560445
0.560445
0.560445
0.560445
0.560445
0.560445
0.560445
0.560445
0.560445
0.560445
0.560445
0.560445
0.560445
0.560445
0.560446
0.560446
0.560446
0.560446
0.560446
0.560446
0.560446
0.560446
0.560446
0.560446
0.560446
0.560446
0.560446
0.560446
0.560446
0.560446
0.560446
0.560446
0.560446
0.560446
0.560446
0.560446
0.560446
0.560446
0.560446
0.560446
0.560446
0.560446
0.560447
0.560447
0.560447
0.560447
0.560447
0.560447
0.560447
0.560447
0.560447
0.560447
0.560447
0.560447
0.560447
0.560447
0.560447
0.560447
0.560447
0.560447
0.560447
0.560447
0.560447
0.560447
0.560447
0.560447
0.560447
0.560447
0.560447
0.560447
0.560447
0.560448
0.560448
0.560448
0.560448
0.560448
0.560448
0.560448
0.560448
0.560448
0.560448
0.560448
0.560448
0.560448
0.560448
0.560448
0.560448
0.560448
0.560448
0.560448
0.560448
0.560448
0.560448
0.560448
0.560448
0.560448
0.560448
0.560448
0.560449
0.560449
0.560449
0.560449
0.560449
0.560449
0.560449
0.560449
0.560449
0.560449
0.560449
0.560449
0.560449
0.560449
0.560449
0.560449
0.560449
0.560449
0.560449
0.560449
0.560449
0.560449
0.560449
0.560449
0.560449
0.560449
0.56045
0.56045
0.56045
0.56045
0.56045
0.56045
0.56045
0.56045
0.56045
0.56045
0.56045
0.56045
0.56045
0.56045
0.56045
0.56045
0.56045
0.56045
0.56045
0.56045
0.56045
0.56045
0.56045
0.56045
0.56045
0.56045
0.56045
0.560451
0.560451
0.560451
0.560451
0.560451
0.560451
0.560451
0.560451
0.560451
0.560451
0.560451
0.560451
0.560451
0.560451
0.560451
0.560451
0.560451
0.560451
0.560451
0.560451
0.560451
0.560451
0.560451
0.560451
0.560451
0.560452
0.560452
0.560452
0.560452
0.560452
0.560452
0.560452
0.560452
0.560452
0.560452
0.560452
0.560452
0.560452
0.560452
0.560452
0.560452
0.560452
0.560452
0.560452
0.560452
0.560452
0.560452
0.560452
0.560452
0.560452
0.560453
0.560453
0.560453
0.560453
0.560453
0.560453
0.560453
0.560453
0.560453
0.560453
0.560453
0.560453
0.560453
0.560453
0.560453
0.560453
0.560453
0.560453
0.560453
0.560453
0.560453
0.560453
0.560453
0.560454
0.560454
0.560454
0.560454
0.560454
0.560454
0.560454
0.560454
0.560454
0.560454
0.560454
0.560454
0.560454
0.560454
0.560454
0.560454
0.560454
0.560454
0.560454
0.560454
0.560454
0.560454
0.560454
0.560454
0.560455
0.560455
0.560455
0.560455
0.560455
0.560455
0.560455
0.560455
0.560455
0.560455
0.560455
0.560455
0.560455
0.560455
0.560455
0.560455
0.560455
0.560455
0.560455
0.560455
0.560455
0.560455
0.560455
0.560455
0.560456
0.560456
0.560456
0.560456
0.560456
0.560456
0.560456
0.560456
0.560456
0.560456
0.560456
0.560456
0.560456
0.560456
0.560456
0.560456
0.560456
0.560456