<?xml version="1.0"?>
<VTKFile type="UnstructuredGrid" version="0.1" byte_order="LittleEndian">
<UnstructuredGrid>
<Piece NumberOfPoints="5000" NumberOfCells="4000">
<PointData Scalars="Reaction 0">
<DataArray type="Float32" Name="Reaction 0" format="ascii">
0.566335
0.566335
0.566335
0.566335
0.566335
0.566335
0.566335
0.566335
0.566335
0.566335
0.566335
0.566335
0.566335
0.566335
0.566335
0.566335
0.566335
0.566335
0.566335
0.566335
0.566335
0.566335
0.566335
0.566335
0.566335
0.566335
0.566336
0.566336
0.566336
0.566336
0.566336
0.566336
0.566336
0.566336
0.566336
0.566336
0.566336
0.566337
0.566337
0.566337
0.566337
0.566337
0.566337
0.566337
0.566338
0.566338
0.566338
0.566338
0.566338
0.566338
0.566338
0.566338
0.566339
0.566339
0.566339
0.566339
0.566339
0.566339
0.56634
0.56634
0.56634
0.56634
0.56634
0.566341
0.566341
0.566341
0.566341
0.566341
0.566342
0.566342
0.566342
0.566342
0.566342
0.566343
0.566343
0.566343
0.566343
0.566344
0.566344
0.566344
0.566344
0.566344
0.566345
0.566345
0.566345
0.566345
0.566346
0.566346
0.566346
0.566347
0.566347
0.566347
0.566347
0.566348
0.566348
0.566348
0.566348
0.566349
0.566349
0.56635
0.56635
0.56635
0.56635
0.566351
0.566351
0.566351
0.566351
0.566352
0.566352
0.566353
0.566353
0.566353
0.566354
0.566354
0.566354
0.566354
0.566355
0.566355
0.566356
0.566356
0.566356
0.566357
0.566357
0.566358
0.566358
0.566358
0.566358
0.566359
0.566359
0.56636
0.56636
0.56636
0.566361
0.566361
0.566362
0.566362
0.566362
0.566363
0.566363
0.566364
0.566364
0.566364
0.566365
0.566366
0.566366
0.566366
0.566367
0.566367
0.566368
0.566368
0.566368
0.566369
0.566369
0.56637
0.566371
0.566371
0.566371
0.566372
0.566372
0.566373
0.566373
0.566374
0.566374
0.566375
0.566375
0.566375
0.566376
0.566377
0.566377
0.566378
0.566378
0.566379
0.566379
0.56638
0.566381
0.566381
0.566381
0.566382
0.566383
0.566383
0.566383
0.566384
0.566385
0.566385
0.566386
0.566386
0.566387
0.566387
0.566388
0.566389
0.566389
0.56639
0.56639
0.566391
0.566392
0.566392
0.566393
0.566393
0.566394
0.566395
0.566395
0.566396
0.566396
0.566397
0.566398
0.566398
0.566399
0.566399
0.5664
0.566401
0.566401
0.566402
0.566403
0.566403
0.566404
0.566404
0.566405
0.566406
0.566407
0.566408
0.566408
0.566408
0.566409
0.56641
0.566411
0.566411
0.566412
0.566413
0.566413
0.566414
0.566414
0.566415
0.566416
0.566417
0.566418
0.566418
0.566419
0.56642
0.566421
0.566422
0.566422
0.566422
0.566423
0.566424
0.566425
0.566425
0.566426
0.566427
0.566428
0.566429
0.566429
0.56643
0.566431
0.566432
0.566433
0.566433
0.566434
0.566435
0.566436
0.566437
0.566437
0.566438
0.566439
0.56644
0.566441
0.566441
0.566442
0.566443
0.566444
0.566445
0.566445
0.566446
0.566447
0.566448
0.566449
0.566449
0.56645
0.566451
0.566452
0.566453
0.566453
0.566454
0.566455
0.566456
0.566458
0.566458
0.566459
0.56646
0.566461
0.566462
0.566462
0.566463
0.566464
0.566465
0.566466
0.566466
0.566468
0.566469
0.56647
0.566471
0.566471
0.566472
0.566473
0.566475
0.566476
0.566476
0.566477
0.566478
0.566479
0.56648
0.56648
0.566482
0.566483
0.566484
0.566485
0.566485
0.566486
0.566488
0.566489
0.56649
0.56649
0.566491
0.566493
0.566494
0.566495
0.566495
0.566496
0.566498
0.566499
0.5665
0.5665
0.566501
0.566503
0.566504
0.566505
0.566505
0.566507
0.566508
0.566509
0.56651
0.56651
0.566512
0.566513
0.566514
0.566516
0.566516
0.566517
0.566518
0.56652
0.566521
0.566521
0.566522
0.566524
0.566525
0.566527
0.566527
0.566528
0.566529
0.566531
0.566532
0.566532
0.566534
0.566535
0.566536
0.566538
0.566538
0.566539
0.566541
0.566542
0.566543
0.566543
0.566545
0.566546
0.566548
0.566549
0.566549
0.566551
0.566552
0.566554
0.566555
0.566555
0.566557
0.566558
0.56656
0.566561
0.566561
0.566563
0.566564
0.566566
0.566567
0.566567
0.566569
0.56657
0.566572
0.566573
0.566573
0.566575
0.566576
0.566578
0.566579
0.566579
0.566581
0.566583
0.566584
0.566586
0.566586
0.566587
0.566589
0.566591
0.566592
0.566592
0.566594
0.566595
0.566597
0.566599
0.566599
0.5666
0.566602
0.566604
0.566605
0.566605
0.566607
0.566609
0.56661
0.566612
0.566612
0.566614
0.566615
0.566617
0.566619
0.566619
0.56662
0.566622
0.566624
0.566625
0.566625
0.566627
0.566629
0.566631
0.566632
0.566632
0.566634
0.566636
0.566638
0.566639
0.566639
0.566641
0.566643
0.566645
0.566646
0.566646
0.566648
0.56665
0.566652
0.566654
0.566654
0.566655
0.566657
0.566659
0.566661
0.566661
0.566663
0.566664
0.566666
0.566668
0.566668
0.56667
0.566672
0.566674
0.566676
0.566676
0.566677
0.566679
0.566681
0.566683
0.566683
0.566685
0.566687
0.566689
0.566691
0.566691
0.566693
0.566695
0.566696
0.566698
0.566698
0.5667
0.566702
0.566704
0.566706
0.566706
0.566708
0.56671
0.566712
0.566714
0.566714
0.566716
0.566718
0.56672
0.566722
0.566722
0.566724
0.566726
0.566728
0.56673
0.56673
0.566732
0.566734
0.566736
0.566738
0.566738
0.56674
0.566742
0.566744
0.566746
0.566746
0.566748
0.56675
0.566753
0.566755
0.566755
0.566757
0.566759
0.566761
0.566763
0.566763
0.566765
0.566767
0.566769
0.566772
0.566772
0.566774
0.566776
0.566778
0.56678
0.56678
0.566782
0.566785
0.566787
0.566789
0.566789
0.566791
0.566793
0.566796
0.566798
0.566798
0.5668
0.566802
0.566804
0.566807
0.566807
0.566809
0.566811
0.566813
0.566816
0.566816
0.566818
0.56682
0.566822
0.566825
0.566825
0.566827
0.566829
0.566832
0.566834
0.566834
0.566836
0.566839
0.566841
0.566843
0.566843
0.566846
0.566848
0.56685
0.566853
0.566853
0.566855
0.566857
0.56686
0.566862
0.566862
0.566864
0.566867
0.566869
0.566872
0.566872
0.566874
0.566876
0.566879
0.566881
0.566881
0.566884
0.566886
0.566889
0.566891
0.566891
0.566893
0.566896
0.566898
0.566901
0.566901
0.566903
0.566906
0.566908
0.566911
0.566911
0.566913
0.566916
0.566918
0.566921
0.566921
0.566923
0.566926
0.566928
0.566931
0.566931
0.566934
0.566936
0.566939
0.566941
0.566941
0.566944
0.566946
0.566949
0.566951
0.566951
0.566954
0.566957
0.566959
0.566962
0.566962
0.566965
0.566967
0.56697
0.566972
0.566972
0.566975
0.566978
0.56698
0.566983
0.566983
0.566986
0.566989
0.566991
0.566994
0.566994
0.566997
0.566999
0.567002
0.567005
0.567005
0.567008
0.56701
0.567013
0.567016
0.567016
0.567019
0.567021
0.567024
0.567027
0.567027
0.56703
0.567032
0.567035
0.567038
0.567038
0.567041
0.567044
0.567047
0.567049
0.567049
0.567052
0.567055
0.567058
0.567061
0.567061
0.567064
0.567066
0.567069
0.567072
0.567072
0.567075
0.567078
0.567081
0.567084
0.567084
0.567087
0.56709
0.567093
0.567095
0.567095
0.567098
0.567101
0.567104
0.567107
0.567107
0.56711
0.567113
0.567116
0.567119
0.567119
0.567122
0.567125
0.567128
0.567131
0.567131
0.567134
0.567137
0.56714
0.567143
0.567143
0.567146
0.567149
0.567152
0.567155
0.567155
0.567159
0.567162
0.567165
0.567168
0.567168
0.567171
0.567174
0.567177
0.56718
0.56718
0.567183
0.567186
0.56719
0.567193
0.567193
0.567196
0.567199
0.567202
0.567205
0.567205
0.567209
0.567212
0.567215
0.567218
0.567218
0.567222
0.567225
0.567228
0.567231
0.567231
0.567234
0.567238
0.567241
0.567244
0.567244
0.567248
0.567251
0.567254
0.567257
0.567257
0.567261
0.567264
0.567267
0.567271
0.567271
0.567274
0.567277
0.567281
0.567284
0.567284
0.567287
0.567291
0.567294
0.567297
0.567297
0.567301
0.567304
0.567308
0.567311
0.567311
0.567314
0.567318
0.567321
0.567325
0.567325
0.567328
0.567332
0.567335
0.567339
0.567339
0.567342
0.567345
0.567349
0.567352
0.567352
0.567356
0.567359
0.567363
0.567366
0.567366
0.56737
0.567374
0.567377
0.567381
0.567381
0.567384
0.567388
0.567391
0.567395
0.567395
0.567398
0.567402
0.567406
0.567409
0.567409
0.567413
0.567416
0.56742
0.567424
0.567424
0.567427
0.567431
0.567435
0.567439
0.567439
0.567442
0.567446
0.56745
0.567453
0.567453
0.567457
0.567461
0.567465
0.567468
0.567468
0.567472
0.567476
0.56748
0.567483
0.567483
0.567487
0.567491
0.567495
0.567498
0.567498
0.567502
0.567506
0.56751
0.567514
0.567514
0.567518
0.567521
0.567525
0.567529
0.567529
0.567533
0.567537
0.567541
0.567545
0.567545
0.567549
0.567552
0.567556
0.56756
0.56756
0.567564
0.567568
0.567572
0.567576
0.567576
0.56758
0.567584
0.567588
0.567592
0.567592
0.567596
0.5676
0.567604
0.567608
0.567608
0.567612
0.567616
0.56762
0.567624
0.567624
0.567628
0.567632
0.567636
0.56764
0.56764
0.567644
0.567648
0.567653
0.567657
0.567657
0.567661
0.567665
0.567669
0.567673
0.567673
0.567677
0.567682
0.567686
0.56769
0.56769
0.567694
0.567698
0.567703
0.567707
0.567707
0.567711
0.567715
0.56772
0.567724
0.567724
0.567728
0.567732
0.567737
0.567741
0.567741
0.567745
0.56775
0.567754
0.567758
0.567758
0.567763
0.567767
0.567771
0.567776
0.567776
0.56778
0.567784
0.567789
0.567793
0.567793
0.567797
0.567802
0.567806
0.567811
0.567811
0.567815
0.56782
0.567824
0.567828
0.567828
0.567833
0.567837
0.567842
0.567846
0.567846
0.567851
0.567855
0.56786
0.567864
0.567864
0.567869
0.567873
0.567878
0.567883
0.567883
0.567887
0.567892
0.567896
0.567901
0.567901
0.567906
0.56791
0.567915
0.567919
0.567919
0.567924
0.567929
0.567933
0.567938
0.567938
0.567943
0.567948
0.567952
0.567957
0.567957
0.567962
0.567966
0.567971
0.567976
0.567976
0.567981
0.567985
0.56799
0.567995
0.567995
0.568
0.568005
0.568009
0.568014
0.568014
0.568019
0.568024
0.568029
0.568034
0.568034
0.568038
0.568043
0.568048
0.568053
0.568053
0.568058
0.568063
0.568068
0.568073
0.568073
0.568078
0.568083
0.568087
0.568092
0.568092
0.568097
0.568102
0.568107
0.568112
0.568112
0.568117
0.568122
0.568127
0.568132
0.568132
0.568137
0.568143
0.568148
0.568153
0.568153
0.568158
0.568163
0.568168
0.568173
0.568173
0.568178
0.568184
0.568189
0.568194
0.568194
0.568199
0.568204
0.568209
0.568215
0.568215
0.56822
0.568225
0.56823
0.568236
0.568236
0.568241
0.568246
0.568251
0.568257
0.568257
0.568262
0.568267
0.568273
0.568278
0.568278
0.568283
0.568289
0.568294
0.568299
0.568299
0.568305
0.56831
0.568315
0.568321
0.568321
0.568326
0.568332
0.568337
0.568342
0.568342
0.568348
0.568353
0.568359
0.568364
0.568364
0.56837
0.568375
0.568381
0.568386
0.568386
0.568392
0.568397
0.568403
0.568408
0.568408
0.568414
0.56842
0.568425
0.568431
0.568431
0.568437
0.568442
0.568448
0.568454
0.568454
0.568459
0.568465
0.568471
0.568476
0.568476
0.568482
0.568488
0.568493
0.568499
0.568499
0.568505
0.568511
0.568516
0.568522
0.568522
0.568528
0.568534
0.56854
0.568546
0.568546
0.568551
0.568557
0.568563
0.568569
0.568569
0.568575
0.568581
0.568587
0.568592
0.568592
0.568598
0.568604
0.56861
0.568616
0.568616
0.568622
0.568628
0.568634
0.56864
0.56864
0.568646
0.568652
0.568658
0.568664
0.568664
0.56867
0.568676
0.568682
0.568688
0.568688
0.568695
0.568701
0.568707
0.568713
0.568713
0.568719
0.568725
0.568731
0.568738
0.568738
0.568744
0.56875
0.568756
0.568763
0.568763
0.568769
0.568775
0.568781
0.568788
0.568788
0.568794
0.5688
0.568806
0.568813
0.568813
0.568819
0.568825
0.568832
0.568838
0.568838
0.568845
0.568851
0.568857
0.568864
0.568864
0.56887
0.568877
0.568883
0.568889
0.568889
0.568896
0.568902
0.568909
0.568915
0.568915
0.568922
0.568928
0.568935
0.568942
0.568942
0.568948
0.568955
0.568961
0.568968
0.568968
0.568975
0.568981
0.568988
0.568995
0.568995
0.569001
0.569008
0.569015
0.569021
0.569021
0.569028
0.569035
0.569042
0.569048
0.569048
0.569055
0.569062
0.569069
0.569075
0.569075
0.569082
0.569089
0.569096
0.569103
0.569103
0.56911
0.569117
0.569123
0.56913
0.56913
0.569137
0.569144
0.569151
0.569158
0.569158
0.569165
0.569172
0.569179
0.569186
0.569186
0.569193
0.5692
0.569207
0.569214
0.569214
0.569221
0.569228
0.569235
0.569242
0.569242
0.56925
0.569257
0.569264
0.569271
0.569271
0.569278
0.569285
0.569293
0.5693
0.5693
0.569307
0.569314
0.569322
0.569329
0.569329
0.569336
0.569344
0.569351
0.569358
0.569358
0.569366
0.569373
0.56938
0.569388
0.569388
0.569395
0.569402
0.56941
0.569417
0.569417
0.569425
0.569432
0.56944
0.569447
0.569447
0.569455
0.569462
0.56947
0.569477
0.569477
0.569485
0.569492
0.5695
0.569507
0.569507
0.569515
0.569523
0.56953
0.569538
0.569538
0.569546
0.569553
0.569561
0.569569
0.569569
0.569576
0.569584
0.569592
0.5696
0.5696
0.569607
0.569615
0.569623
0.569631
0.569631
0.569639
0.569647
0.569655
0.569662
0.569662
0.56967
0.569678
0.569686
0.569694
0.569694
0.569702
0.56971
0.569718
0.569726
0.569726
0.569734
0.569742
0.56975
0.569758
0.569758
0.569766
0.569774
0.569782
0.56979
0.56979
0.569798
0.569807
0.569815
0.569823
0.569823
0.569831
0.569839
0.569848
0.569856
0.569856
0.569864
0.569872
0.569881
0.569889
0.569889
0.569897
0.569906
0.569914
0.569922
0.569922
0.569931
0.569939
0.569947
0.569956
0.569956
0.569964
0.569973
0.569981
0.56999
0.56999
0.569998
0.570007
0.570015
0.570024
0.570024
0.570032
0.570041
0.570049
0.570058
0.570058
0.570067
0.570075
0.570084
0.570093
0.570093
0.570101
0.57011
0.570119
0.570127
0.570127
0.570136
0.570145
0.570154
0.570162
0.570162
0.570171
0.57018
0.570189
0.570198
0.570198
0.570207
0.570215
0.570224
0.570233
0.570233
0.570242
0.570251
0.57026
0.570269
0.570269
0.570278
0.570287
0.570296
0.570305
0.570305
0.570314
0.570324
0.570333
0.570342
0.570342
0.570351
0.57036
0.570369
0.570378
0.570378
0.570388
0.570397
0.570406
0.570415
0.570415
0.570425
0.570434
0.570443
0.570452
0.570452
0.570462
0.570471
0.57048
0.57049
0.57049
0.570499
0.570509
0.570518
0.570528
0.570528
0.570537
0.570546
0.570556
0.570566
0.570566
0.570575
0.570585
0.570594
0.570604
0.570604
0.570614
0.570623
0.570633
0.570643
0.570643
0.570652
0.570662
0.570672
0.570681
0.570681
0.570691
0.570701
0.570711
0.57072
0.57072
0.57073
0.57074
0.57075
0.57076
0.57076
0.57077
0.57078
0.57079
0.570799
0.570799
0.570809
0.570819
0.570829
0.570839
0.570839
0.570849
0.570859
0.57087
0.57088
0.57088
0.57089
0.5709
0.57091
0.57092
0.57092
0.570931
0.570941
0.570951
0.570961
0.570961
0.570972
0.570982
0.570992
0.571002
0.571002
0.571013
0.571023
0.571034
0.571044
0.571044
0.571054
0.571065
0.571075
0.571086
0.571086
0.571096
0.571107
0.571117
0.571128
0.571128
0.571138
0.571149
0.571159
0.57117
0.57117
0.571181
0.571191
0.571202
0.571213
0.571213
0.571223
0.571234
0.571245
0.571256
0.571256
0.571267
0.571277
0.571288
0.571299
0.571299
0.57131
0.571321
0.571332
0.571343
0.571343
0.571354
0.571365
0.571376
0.571387
0.571387
0.571398
0.571409
0.57142
0.571431
0.571431
0.571442
0.571453
0.571464
0.571476
0.571476
0.571487
0.571498
0.571509
0.571521
0.571521
0.571532
0.571543
0.571554
0.571566
0.571566
0.571577
0.571588
0.5716
0.571611
0.571611
0.571623
0.571634
0.571646
0.571657
0.571657
0.571669
0.57168
0.571692
0.571704
0.571704
0.571715
0.571727
0.571739
0.57175
0.57175
0.571762
0.571774
0.571785
0.571797
0.571797
0.571809
0.571821
0.571833
0.571844
0.571844
0.571856
0.571868
0.57188
0.571892
0.571892
0.571904
0.571916
0.571928
0.57194
0.57194
0.571952
0.571964
0.571976
0.571988
0.571988
0.572
0.572013
0.572025
0.572037
0.572037
0.572049
0.572062
0.572074
0.572086
0.572086
0.572099
0.572111
0.572123
0.572136
0.572136
0.572148
0.57216
0.572173
0.572185
0.572185
0.572198
0.57221
0.572223
0.572236
0.572236
0.572248
0.572261
0.572273
0.572286
0.572286
0.572299
0.572311
0.572324
0.572337
0.572337
0.57235
0.572362
0.572375
0.572388
0.572388
0.572401
0.572414
0.572427
0.57244
0.57244
0.572453
0.572466
0.572479
0.572492
0.572492
0.572505
0.572518
0.572531
0.572544
0.572544
0.572557
0.57257
0.572584
0.572597
0.572597
0.57261
0.572623
0.572637
0.57265
0.57265
0.572663
0.572677
0.57269
0.572704
0.572704
0.572717
0.57273
0.572744
0.572757
0.572757
0.572771
0.572784
0.572798
0.572812
0.572812
0.572825
0.572839
0.572853
0.572867
0.572867
0.57288
0.572894
0.572908
0.572922
0.572922
0.572936
0.572949
0.572963
0.572977
0.572977
0.572991
0.573005
0.573019
0.573033
0.573033
0.573047
0.573061
0.573075
0.57309
0.57309
0.573104
0.573118
0.573132
0.573146
0.573146
0.57316
0.573175
0.573189
0.573203
0.573203
0.573218
0.573232
0.573247
0.573261
0.573261
0.573275
0.57329
0.573305
0.573319
0.573319
0.573334
0.573348
0.573363
0.573378
0.573378
0.573392
0.573407
0.573422
0.573437
0.573437
0.573451
0.573466
0.573481
0.573496
0.573496
0.573511
0.573526
0.573541
0.573556
0.573556
0.57357
0.573586
0.573601
0.573616
0.573616
0.573631
0.573646
0.573661
0.573676
0.573676
0.573691
0.573707
0.573722
0.573737
0.573737
0.573753
0.573768
0.573784
0.573799
0.573799
0.573814
0.57383
0.573845
0.573861
0.573861
0.573877
0.573892
0.573908
0.573923
0.573923
0.573939
0.573955
0.573971
0.573986
0.573986
0.574002
0.574018
0.574034
0.57405
0.57405
0.574065
0.574081
0.574097
0.574113
0.574113
0.574129
0.574145
0.574162
0.574178
0.574178
0.574194
0.57421
0.574226
0.574242
0.574242
0.574259
0.574275
0.574291
0.574308
0.574308
0.574324
0.574341
0.574357
0.574374
0.574374
0.57439
0.574407
0.574423
0.57444
0.57444
0.574456
0.574473
0.57449
0.574506
0.574506
0.574523
0.57454
0.574557
0.574573
0.574573
0.57459
0.574607
0.574624
0.574641
0.574641
0.574658
0.574675
0.574692
0.574709
0.574709
0.574726
0.574744
0.574761
0.574778
0.574778
0.574795
0.574813
0.57483
0.574847
0.574847
0.574865
0.574882
0.574899
0.574917
0.574917
0.574934
0.574952
0.574969
0.574987
0.574987
0.575005
0.575022
0.57504
0.575058
0.575058
0.575075
0.575093
0.575111
0.575129
0.575129
0.575147
0.575165
0.575183
0.575201
0.575201
0.575219
0.575237
0.575255
0.575273
0.575273
0.575291
0.575309
0.575328
0.575346
0.575346
0.575364
0.575382
0.575401
0.575419
0.575419
0.575438
0.575456
0.575474
0.575493
0.575493
0.575511
0.57553
0.575549
0.575567
0.575567
0.575586
0.575605
0.575623
0.575642
0.575642
0.575661
0.57568
0.575699
0.575718
0.575718
0.575737
0.575756
0.575775
0.575794
0.575794
0.575813
0.575832
0.575851
0.575871
0.575871
0.57589
0.575909
0.575928
0.575948
0.575948
0.575967
0.575986
0.576006
0.576025
0.576025
0.576045
0.576064
0.576084
0.576104
0.576104
0.576123
0.576143
0.576163
0.576183
0.576183
0.576202
0.576222
0.576242
0.576262
0.576262
0.576282
0.576302
0.576322
0.576342
0.576342
0.576362
0.576382
0.576403
0.576423
0.576423
0.576443
0.576463
0.576484
0.576504
0.576504
0.576524
0.576545
0.576565
0.576586
0.576586
0.576606
0.576627
0.576647
0.576668
0.576668
0.576689
0.576709
0.57673
0.576751
0.576751
0.576772
0.576793
0.576814
0.576835
0.576835
0.576856
0.576877
0.576898
0.576919
0.576919
0.57694
0.576961
0.576982
0.577004
0.577004
0.577025
0.577046
0.577068
0.577089
0.577089
0.577111
0.577132
0.577154
0.577175
0.577175
0.577197
0.577218
0.57724
0.577262
0.577262
0.577284
0.577305
0.577327
0.577349
0.577349
0.577371
0.577393
0.577415
0.577437
0.577437
0.577459
0.577481
0.577504
0.577526
0.577526
0.577548
0.57757
0.577593
0.577615
0.577615
0.577637
0.57766
0.577682
0.577705
0.577705
0.577727
0.57775
0.577773
0.577795
0.577795
0.577818
0.577841
0.577864
0.577886
0.577886
0.577909
0.577932
0.577955
0.577978
0.577978
0.578001
0.578025
0.578048
0.578071
0.578071
0.578094
0.578117
0.578141
0.578164
0.578164
0.578187
0.578211
0.578234
0.578258
0.578258
0.578281
0.578305
0.578329
0.578352
0.578352
0.578376
0.5784
0.578424
0.578447
0.578447
0.578471
0.578495
0.578519
0.578543
0.578543
0.578567
0.578592
0.578616
0.57864
0.57864
0.578664
0.578688
0.578713
0.578737
0.578737
0.578762
0.578786
0.578811
0.578835
0.578835
0.57886
0.578884
0.578909
0.578934
0.578934
0.578958
0.578983
0.579008
0.579033
0.579033
0.579058
0.579083
0.579108
0.579133
0.579133
0.579158
0.579183
0.579209
0.579234
0.579234
0.579259
0.579285
0.57931
0.579335
0.579335
0.579361
0.579386
0.579412
0.579438
0.579438
0.579463
0.579489
0.579515
0.579541
0.579541
0.579566
0.579592
0.579618
0.579644
0.579644
0.57967
0.579696
0.579722
0.579749
0.579749
0.579775
0.579801
0.579827
0.579854
0.579854
0.57988
0.579907
0.579933
0.57996
0.57996
0.579986
0.580013
0.58004
0.580066
0.580066
0.580093
0.58012
0.580147
0.580174
0.580174
0.580201
0.580228
0.580255
0.580282
0.580282
0.580309
0.580336
0.580363
0.580391
0.580391
0.580418
0.580446
0.580473
0.580501
0.580501
0.580528
0.580556
0.580583
0.580611
0.580611
0.580639
0.580667
0.580694
0.580722
0.580722
0.58075
0.580778
0.580806
0.580834
0.580834
0.580862
0.58089
0.580919
0.580947
0.580947
0.580975
0.581004
0.581032
0.581061
0.581061
0.581089
0.581118
0.581146
0.581175
0.581175
0.581204
0.581232
0.581261
0.58129
0.58129
0.581319
0.581348
0.581377
0.581406
0.581406
0.581435
0.581464
0.581494
0.581523
0.581523
0.581552
0.581581
0.581611
0.58164
0.58164
0.58167
0.581699
0.581729
0.581759
0.581759
0.581788
0.581818
0.581848
0.581878
0.581878
0.581908
0.581938
0.581968
0.581998
0.581998
0.582028
0.582058
0.582089
0.582119
0.582119
0.582149
0.58218
0.58221
0.58224
0.58224
0.582271
0.582302
0.582332
0.582363
0.582363
0.582394
0.582425
0.582455
0.582486
0.582486
0.582517
0.582548
0.582579
0.582611
0.582611
0.582642
0.582673
0.582704
0.582736
0.582736
0.582767
0.582798
0.58283
0.582861
0.582861
0.582893
0.582925
0.582956
0.582988
0.582988
0.58302
0.583052
0.583084
0.583116
0.583116
0.583148
0.58318
0.583212
0.583244
0.583244
0.583276
0.583309
0.583341
0.583374
0.583374
0.583406
0.583439
0.583471
0.583504
0.583504
0.583536
0.583569
0.583602
0.583635
0.583635
0.583668
0.583701
0.583734
0.583767
0.583767
0.5838
0.583833
0.583866
0.583899
0.583899
0.583933
0.583966
0.584
0.584033
0.584033
0.584067
0.5841
0.584134
0.584168
0.584168
0.584202
0.584235
0.584269
0.584303
0.584303
0.584337
0.584371
0.584405
0.58444
0.58444
0.584474
0.584508
0.584542
0.584577
0.584577
0.584611
0.584646
0.58468
0.584715
0.584715
0.58475
0.584784
0.584819
0.584854
0.584854
0.584889
0.584924
0.584959
0.584994
0.584994
0.585029
0.585064
0.5851
0.585135
0.585135
0.58517
0.585206
0.585241
0.585277
0.585277
0.585312
0.585348
0.585383
0.585419
0.585419
0.585455
0.585491
0.585527
0.585563
0.585563
0.585599
0.585635
0.585671
0.585707
0.585707
0.585744
0.58578
0.585817
0.585853
0.585853
0.585889
0.585926
0.585963
0.585999
0.585999
0.586036
0.586073
0.58611
0.586147
0.586147
0.586184
0.586221
0.586258
0.586295
0.586295
0.586332
0.586369
0.586407
0.586444
0.586444
0.586482
0.586519
0.586557
0.586594
0.586594
0.586632
0.58667
0.586707
0.586745
0.586745
0.586783
0.586821
0.586859
0.586897
0.586897
0.586935
0.586974
0.587012
0.58705
0.58705
0.587089
0.587127
0.587166
0.587204
0.587204
0.587243
0.587282
0.58732
0.587359
0.587359
0.587398
0.587437
0.587476
0.587515
0.587515
0.587554
0.587593
0.587632
0.587672
0.587672
0.587711
0.58775
0.58779
0.587829
0.587829
0.587869
0.587909
0.587948
0.587988
0.587988
0.588028
0.588068
0.588108
0.588148
0.588148
0.588188
0.588228
0.588268
0.588308
0.588308
0.588349
0.588389
0.58843
0.58847
0.58847
0.588511
0.588551
0.588592
0.588633
0.588633
0.588673
0.588714
0.588755
0.588796
0.588796
0.588837
0.588878
0.588919
0.588961
0.588961
0.589002
0.589043
0.589085
0.589126
0.589126
0.589168
0.589209
0.589251
0.589293
0.589293
0.589334
0.589376
0.589418
0.58946
0.58946
0.589502
0.589544
0.589586
0.589628
0.589628
0.58967
0.589713
0.589755
0.589798
0.589798
0.58984
0.589883
0.589925
0.589968
0.589968
0.590011
0.590054
0.590096
0.590139
0.590139
0.590182
0.590225
0.590268
0.590312
0.590312
0.590355
0.590398
0.590441
0.590485
0.590485
0.590528
0.590572
0.590615
0.590659
0.590659
0.590703
0.590747
0.590791
0.590834
0.590834
0.590878
0.590922
0.590967
0.591011
0.591011
0.591055
0.591099
0.591143
0.591188
0.591188
0.591232
0.591277
0.591321
0.591366
0.591366
0.591411
0.591455
0.5915
0.591545
0.591545
0.59159
0.591635
0.59168
0.591725
0.591725
0.591771
0.591816
0.591861
0.591907
0.591907
0.591952
0.591997
0.592043
0.592089
0.592089
0.592134
0.59218
0.592226
0.592272
0.592272
0.592318
0.592364
0.59241
0.592456
0.592456
0.592502
0.592548
0.592595
0.592641
0.592641
0.592687
0.592734
0.59278
0.592827
0.592827
0.592874
0.59292
0.592967
0.593014
0.593014
0.593061
0.593108
0.593155
0.593202
0.593202
0.593249
0.593296
0.593344
0.593391
0.593391
0.593438
0.593486
0.593533
0.593581
0.593581
0.593628
0.593676
0.593724
0.593772
0.593772
0.59382
0.593868
0.593916
0.593964
0.593964
0.594012
0.59406
0.594108
0.594156
0.594156
0.594205
0.594253
0.594302
0.59435
0.59435
0.594399
0.594448
0.594496
0.594545
0.594545
0.594594
0.594643
0.594692
0.594741
0.594741
0.59479
0.594839
0.594888
0.594938
0.594938
0.594987
0.595036
0.595086
0.595135
0.595135
0.595185
0.595234
0.595284
0.595334
0.595334
0.595384
0.595434
0.595484
0.595534
0.595534
0.595584
0.595634
0.595684
0.595734
0.595734
0.595784
0.595835
0.595885
0.595936
0.595936
0.595986
0.596037
0.596087
0.596138
0.596138
0.596189
0.59624
0.59629
0.596341
0.596341
0.596392
0.596443
0.596495
0.596546
0.596546
0.596597
0.596648
0.5967
0.596751
0.596751
0.596803
0.596854
0.596906
0.596957
0.596957
0.597009
0.597061
0.597113
0.597164
0.597164
0.597216
0.597268
0.59732
0.597372
0.597372
0.597425
0.597477
0.597529
0.597581
0.597581
0.597634
0.597686
0.597739
0.597791
0.597791
0.597844
0.597897
0.597949
0.598002
0.598002
0.598055
0.598108
0.598161
0.598214
0.598214
0.598267
0.59832
0.598373
0.598427
0.598427
0.59848
0.598533
0.598587
0.59864
0.59864
0.598694
0.598747
0.598801
0.598855
0.598855
0.598908
0.598962
0.599016
0.59907
0.59907
0.599124
0.599178
0.599232
0.599286
0.599286
0.599341
0.599395
0.599449
0.599503
0.599503
0.599558
0.599612
0.599667
0.599721
0.599721
0.599776
0.599831
0.599886
0.59994
0.59994
0.599995
0.60005
0.600105
0.60016
0.60016
0.600215
0.60027
0.600326
0.600381
0.600381
0.600436
0.600491
0.600547
0.600602
0.600602
0.600658
0.600713
0.600769
0.600825
0.600825
0.60088
0.600936
0.600992
0.601048
0.601048
0.601104
0.60116
0.601216
0.601272
0.601272
0.601328
0.601384
0.60144
0.601497
0.601497
0.601553
0.60161
0.601666
0.601723
0.601723
0.601779
0.601836
0.601892
0.601949
0.601949
0.602006
0.602063
0.60212
0.602176
0.602176
0.602233
0.60229
0.602348
0.602405
0.602405
0.602462
0.602519
0.602576
0.602634
0.602634
0.602691
0.602748
0.602806
0.602863
0.602863
0.602921
0.602979
0.603036
0.603094
0.603094
0.603152
0.60321
0.603268
0.603325
0.603325
0.603383
0.603441
0.603499
0.603558
0.603558
0.603616
0.603674
0.603732
0.603791
0.603791
0.603849
0.603907
0.603966
0.604024
0.604024
0.604083
0.604141
0.6042
0.604259
0.604259
0.604317
0.604376
0.604435
0.604494
0.604494
0.604553
0.604612
0.604671
0.60473
0.60473
0.604789
0.604848
0.604907
0.604967
0.604967
0.605026
0.605085
0.605145
0.605204
0.605204
0.605264
0.605323
0.605383
0.605442
0.605442
0.605502
0.605562
0.605621
0.605681
0.605681
0.605741
0.605801
0.605861
0.605921
0.605921
0.605981
0.606041
0.606101
0.606161
0.606161
0.606221
0.606282
0.606342
0.606402
0.606402
0.606463
0.606523
0.606584
0.606644
0.606644
0.606705
0.606765
0.606826
0.606886
0.606886
0.606947
0.607008
0.607069
0.607129
0.607129
0.60719
0.607251
0.607312
0.607373
0.607373
0.607434
0.607495
0.607556
0.607618
0.607618
0.607679
0.60774
0.607801
0.607863
0.607863
0.607924
0.607985
0.608047
0.608108
0.608108
0.60817
0.608232
0.608293
0.608355
0.608355
0.608416
0.608478
0.60854
0.608602
0.608602
0.608664
0.608725
0.608787
0.608849
0.608849
0.608911
0.608973
0.609035
0.609098
0.609098
0.60916
0.609222
0.609284
0.609346
0.609346
0.609409
0.609471
0.609533
0.609596
0.609596
0.609658
0.609721
0.609783
0.609846
0.609846
0.609908
0.609971
0.610034
0.610096
0.610096
0.610159
0.610222
0.610285
0.610348
0.610348
0.61041
0.610473
0.610536
0.610599
0.610599
0.610662
0.610725
0.610788
0.610852
0.610852
0.610915
0.610978
0.611041
0.611104
0.611104
0.611168
0.611231
0.611294
0.611358
0.611358
0.611421
0.611485
0.611548
0.611612
0.611612
0.611675
0.611739
0.611802
0.611866
0.611866
0.61193
0.611994
0.612057
0.612121
0.612121
0.612185
0.612249
0.612313
0.612377
0.612377
0.61244
0.612504
0.612568
0.612633
0.612633
0.612697
0.612761
0.612825
0.612889
0.612889
0.612953
0.613017
0.613082
0.613146
0.613146
0.61321
0.613275
0.613339
0.613403
0.613403
0.613468
0.613532
0.613597
0.613661
0.613661
0.613726
0.61379
0.613855
0.61392
0.61392
0.613984
0.614049
0.614114
0.614178
0.614178
0.614243
0.614308
0.614373
0.614438
0.614438
0.614503
0.614567
0.614632
0.614697
0.614697
0.614762
0.614827
0.614892
0.614958
0.614958
0.615023
0.615088
0.615153
0.615218
0.615218
0.615283
0.615349
0.615414
0.615479
0.615479
0.615544
0.61561
0.615675
0.61574
0.61574
0.615806
0.615871
0.615937
0.616002
0.616002
0.616068
0.616133
0.616199
0.616264
0.616264
0.61633
0.616396
0.616461
0.616527
0.616527
0.616593
0.616658
0.616724
0.61679
0.61679
0.616856
0.616921
0.616987
0.617053
0.617053
0.617119
0.617185
0.617251
0.617317
0.617317
0.617383
0.617449
0.617515
0.617581
0.617581
0.617647
0.617713
0.617779
0.617845
0.617845
0.617911
0.617978
0.618044
0.61811
0.61811
0.618176
0.618242
0.618309
0.618375
0.618375
0.618441
0.618508
0.618574
0.61864
0.61864
0.618707
0.618773
0.61884
0.618906
0.618906
0.618973
0.619039
0.619106
0.619172
0.619172
0.619239
0.619305
0.619372
0.619439
0.619439
0.619505
0.619572
0.619638
0.619705
0.619705
0.619772
0.619839
0.619905
0.619972
0.619972
0.620039
0.620106
0.620172
0.620239
0.620239
0.620306
0.620373
0.62044
0.620507
0.620507
0.620574
0.620641
0.620708
0.620775
0.620775
0.620842
0.620909
0.620976
0.621043
0.621043
0.62111
0.621177
0.621244
0.621311
0.621311
0.621378
0.621445
0.621512
0.621579
0.621579
0.621647
0.621714
0.621781
0.621848
0.621848
0.621916
0.621983
0.62205
0.622117
0.622117
0.622185
0.622252
0.622319
0.622387
0.622387
0.622454
0.622521
0.622589
0.622656
0.622656
0.622724
0.622791
0.622858
0.622926
0.622926
0.622993
0.623061
0.623128
0.623196
0.623196
0.623263
0.623331
0.623398
0.623466
0.623466
0.623534
0.623601
0.623669
0.623736
0.623736
0.623804
0.623872
0.623939
0.624007
0.624007
0.624075
0.624142
0.62421
0.624278
0.624278
0.624346
0.624413
0.624481
0.624549
0.624549
0.624617
0.624684
0.624752
0.62482
0.62482
0.624888
0.624956
0.625024
0.625091
0.625091
0.625159
0.625227
0.625295
0.625363
0.625363
0.625431
0.625499
0.625567
0.625635
0.625635
0.625703
0.625771
0.625839
0.625907
0.625907
0.625975
0.626043
0.626111
0.626179
0.626179
0.626247
0.626315
0.626383
0.626451
0.626451
0.626519
0.626587
0.626655
0.626723
0.626723
0.626791
0.62686
0.626928
0.626996
0.626996
0.627064
0.627132
0.6272
0.627268
0.627268
0.627337
0.627405
0.627473
0.627541
0.627541
0.62761
0.627678
0.627746
0.627814
0.627814
0.627883
0.627951
0.628019
0.628087
0.628087
0.628156
0.628224
0.628292
0.628361
0.628361
0.628429
0.628497
0.628566
0.628634
0.628634
0.628702