<?xml version="1.0"?>
<VTKFile type="UnstructuredGrid" version="0.1" byte_order="LittleEndian">
<UnstructuredGrid>
<Piece NumberOfPoints="5000" NumberOfCells="4000">
<PointData Scalars="Reaction 0">
<DataArray type="Float32" Name="Reaction 0" format="ascii">
0.479973
0.479973
0.479973
0.479973
0.479973
0.479973
0.479973
0.479973
0.479974
0.479974
0.479974
0.479974
0.479975
0.479975
0.479975
0.479975
0.479976
0.479976
0.479977
0.479977
0.479977
0.479978
0.479979
0.479979
0.47998
0.47998
0.479981
0.479982
0.479983
0.479983
0.479983
0.479984
0.479985
0.479986
0.479987
0.479987
0.479988
0.47999
0.479991
0.479992
0.479992
0.479993
0.479994
0.479996
0.479997
0.479997
0.479998
0.48
0.480001
0.480003
0.480003
0.480004
0.480006
0.480007
0.480009
0.480009
0.480011
0.480012
0.480014
0.480016
0.480016
0.480018
0.48002
0.480022
0.480024
0.480024
0.480026
0.480028
0.48003
0.480032
0.480032
0.480034
0.480036
0.480038
0.48004
0.48004
0.480043
0.480045
0.480047
0.48005
0.48005
0.480052
0.480055
0.480057
0.48006
0.48006
0.480062
0.480065
0.480068
0.48007
0.48007
0.480073
0.480076
0.480079
0.480081
0.480081
0.480084
0.480087
0.48009
0.480093
0.480093
0.480096
0.480099
0.480102
0.480106
0.480106
0.480109
0.480112
0.480115
0.480119
0.480119
0.480122
0.480125
0.480129
0.480132
0.480132
0.480136
0.480139
0.480143
0.480146
0.480146
0.48015
0.480154
0.480157
0.480161
0.480161
0.480165
0.480169
0.480172
0.480176
0.480176
0.48018
0.480184
0.480188
0.480192
0.480192
0.480196
0.480201
0.480205
0.480209
0.480209
0.480213
0.480217
0.480222
0.480226
0.480226
0.480231
0.480235
0.480239
0.480244
0.480244
0.480248
0.480253
0.480258
0.480262
0.480262
0.480267
0.480272
0.480277
0.480281
0.480281
0.480286
0.480291
0.480296
0.480301
0.480301
0.480306
0.480311
0.480316
0.480321
0.480321
0.480326
0.480331
0.480337
0.480342
0.480342
0.480347
0.480353
0.480358
0.480363
0.480363
0.480369
0.480374
0.48038
0.480385
0.480385
0.480391
0.480397
0.480402
0.480408
0.480408
0.480414
0.48042
0.480425
0.480431
0.480431
0.480437
0.480443
0.480449
0.480455
0.480455
0.480461
0.480467
0.480473
0.480479
0.480479
0.480486
0.480492
0.480498
0.480504
0.480504
0.480511
0.480517
0.480524
0.48053
0.48053
0.480537
0.480543
0.48055
0.480556
0.480556
0.480563
0.48057
0.480576
0.480583
0.480583
0.48059
0.480597
0.480604
0.480611
0.480611
0.480618
0.480625
0.480632
0.480639
0.480639
0.480646
0.480653
0.48066
0.480667
0.480667
0.480675
0.480682
0.480689
0.480697
0.480697
0.480704
0.480712
0.480719
0.480727
0.480727
0.480734
0.480742
0.480749
0.480757
0.480757
0.480765
0.480773
0.48078
0.480788
0.480788
0.480796
0.480804
0.480812
0.48082
0.48082
0.480828
0.480836
0.480844
0.480852
0.480852
0.48086
0.480868
0.480877
0.480885
0.480885
0.480893
0.480902
0.48091
0.480919
0.480919
0.480927
0.480936
0.480944
0.480953
0.480953
0.480961
0.48097
0.480979
0.480987
0.480987
0.480996
0.481005
0.481014
0.481023
0.481023
0.481032
0.481041
0.48105
0.481059
0.481059
0.481068
0.481077
0.481086
0.481095
0.481095
0.481104
0.481114
0.481123
0.481132
0.481132
0.481142
0.481151
0.481161
0.48117
0.48117
0.48118
0.481189
0.481199
0.481208
0.481208
0.481218
0.481228
0.481238
0.481247
0.481247
0.481257
0.481267
0.481277
0.481287
0.481287
0.481297
0.481307
0.481317
0.481327
0.481327
0.481337
0.481347
0.481358
0.481368
0.481368
0.481378
0.481389
0.481399
0.481409
0.481409
0.48142
0.48143
0.481441
0.481451
0.481451
0.481462
0.481473
0.481483
0.481494
0.481494
0.481505
0.481515
0.481526
0.481537
0.481537
0.481548
0.481559
0.48157
0.481581
0.481581
0.481592
0.481603
0.481614
0.481625
0.481625
0.481637
0.481648
0.481659
0.48167
0.48167
0.481682
0.481693
0.481705
0.481716
0.481716
0.481728
0.481739
0.481751
0.481762
0.481762
0.481774
0.481786
0.481797
0.481809
0.481809
0.481821
0.481833
0.481845
0.481857
0.481857
0.481869
0.481881
0.481893
0.481905
0.481905
0.481917
0.481929
0.481941
0.481953
0.481953
0.481966
0.481978
0.48199
0.482003
0.482003
0.482015
0.482028
0.48204
0.482053
0.482053
0.482065
0.482078
0.48209
0.482103
0.482103
0.482116
0.482129
0.482141
0.482154
0.482154
0.482167
0.48218
0.482193
0.482206
0.482206
0.482219
0.482232
0.482245
0.482258
0.482258
0.482272
0.482285
0.482298
0.482311
0.482311
0.482325
0.482338
0.482351
0.482365
0.482365
0.482378
0.482392
0.482406
0.482419
0.482419
0.482433
0.482446
0.48246
0.482474
0.482474
0.482488
0.482502
0.482515
0.482529
0.482529
0.482543
0.482557
0.482571
0.482585
0.482585
0.482599
0.482614
0.482628
0.482642
0.482642
0.482656
0.48267
0.482685
0.482699
0.482699
0.482714
0.482728
0.482743
0.482757
0.482757
0.482772
0.482786
0.482801
0.482815
0.482815
0.48283
0.482845
0.48286
0.482875
0.482875
0.482889
0.482904
0.482919
0.482934
0.482934
0.482949
0.482964
0.482979
0.482995
0.482995
0.48301
0.483025
0.48304
0.483055
0.483055
0.483071
0.483086
0.483102
0.483117
0.483117
0.483132
0.483148
0.483164
0.483179
0.483179
0.483195
0.48321
0.483226
0.483242
0.483242
0.483258
0.483273
0.483289
0.483305
0.483305
0.483321
0.483337
0.483353
0.483369
0.483369
0.483385
0.483401
0.483418
0.483434
0.483434
0.48345
0.483466
0.483483
0.483499
0.483499
0.483515
0.483532
0.483548
0.483565
0.483565
0.483581
0.483598
0.483615
0.483631
0.483631
0.483648
0.483665
0.483681
0.483698
0.483698
0.483715
0.483732
0.483749
0.483766
0.483766
0.483783
0.4838
0.483817
0.483834
0.483834
0.483851
0.483869
0.483886
0.483903
0.483903
0.48392
0.483938
0.483955
0.483973
0.483973
0.48399
0.484008
0.484025
0.484043
0.484043
0.48406
0.484078
0.484096
0.484114
0.484114
0.484131
0.484149
0.484167
0.484185
0.484185
0.484203
0.484221
0.484239
0.484257
0.484257
0.484275
0.484293
0.484311
0.484329
0.484329
0.484348
0.484366
0.484384
0.484403
0.484403
0.484421
0.484439
0.484458
0.484476
0.484476
0.484495
0.484514
0.484532
0.484551
0.484551
0.48457
0.484588
0.484607
0.484626
0.484626
0.484645
0.484664
0.484683
0.484702
0.484702
0.484721
0.48474
0.484759
0.484778
0.484778
0.484797
0.484816
0.484836
0.484855
0.484855
0.484874
0.484894
0.484913
0.484932
0.484932
0.484952
0.484971
0.484991
0.485011
0.485011
0.48503
0.48505
0.48507
0.485089
0.485089
0.485109
0.485129
0.485149
0.485169
0.485169
0.485189
0.485209
0.485229
0.485249
0.485249
0.485269
0.485289
0.485309
0.485329
0.485329
0.48535
0.48537
0.48539
0.485411
0.485411
0.485431
0.485452
0.485472
0.485493
0.485493
0.485513
0.485534
0.485554
0.485575
0.485575
0.485596
0.485617
0.485637
0.485658
0.485658
0.485679
0.4857
0.485721
0.485742
0.485742
0.485763
0.485784
0.485805
0.485826
0.485826
0.485847
0.485869
0.48589
0.485911
0.485911
0.485933
0.485954
0.485975
0.485997
0.485997
0.486018
0.48604
0.486061
0.486083
0.486083
0.486105
0.486126
0.486148
0.48617
0.48617
0.486192
0.486214
0.486235
0.486257
0.486257
0.486279
0.486301
0.486323
0.486346
0.486346
0.486368
0.48639
0.486412
0.486434
0.486434
0.486457
0.486479
0.486501
0.486524
0.486524
0.486546
0.486568
0.486591
0.486614
0.486614
0.486636
0.486659
0.486681
0.486704
0.486704
0.486727
0.48675
0.486773
0.486795
0.486795
0.486818
0.486841
0.486864
0.486887
0.486887
0.48691
0.486933
0.486957
0.48698
0.48698
0.487003
0.487026
0.487049
0.487073
0.487073
0.487096
0.48712
0.487143
0.487167
0.487167
0.48719
0.487214
0.487237
0.487261
0.487261
0.487285
0.487308
0.487332
0.487356
0.487356
0.48738
0.487404
0.487427
0.487451
0.487451
0.487475
0.487499
0.487524
0.487548
0.487548
0.487572
0.487596
0.48762
0.487645
0.487645
0.487669
0.487693
0.487718
0.487742
0.487742
0.487767
0.487791
0.487816
0.48784
0.48784
0.487865
0.487889
0.487914
0.487939
0.487939
0.487964
0.487989
0.488013
0.488038
0.488038
0.488063
0.488088
0.488113
0.488138
0.488138
0.488163
0.488189
0.488214
0.488239
0.488239
0.488264
0.488289
0.488315
0.48834
0.48834
0.488366
0.488391
0.488417
0.488442
0.488442
0.488468
0.488493
0.488519
0.488545
0.488545
0.48857
0.488596
0.488622
0.488648
0.488648
0.488674
0.4887
0.488726
0.488752
0.488752
0.488778
0.488804
0.48883
0.488856
0.488856
0.488882
0.488908
0.488935
0.488961
0.488961
0.488987
0.489014
0.48904
0.489067
0.489067
0.489093
0.48912
0.489146
0.489173
0.489173
0.4892
0.489226
0.489253
0.48928
0.48928
0.489307
0.489334
0.489361
0.489388
0.489388
0.489415
0.489442
0.489469
0.489496
0.489496
0.489523
0.48955
0.489577
0.489605
0.489605
0.489632
0.489659
0.489687
0.489714
0.489714
0.489742
0.489769
0.489797
0.489824
0.489824
0.489852
0.48988
0.489907
0.489935
0.489935
0.489963
0.489991
0.490019
0.490047
0.490047
0.490074
0.490102
0.490131
0.490159
0.490159
0.490187
0.490215
0.490243
0.490271
0.490271
0.4903
0.490328
0.490356
0.490385
0.490385
0.490413
0.490441
0.49047
0.490499
0.490499
0.490527
0.490556
0.490584
0.490613
0.490613
0.490642
0.490671
0.490699
0.490728
0.490728
0.490757
0.490786
0.490815
0.490844
0.490844
0.490873
0.490902
0.490932
0.490961
0.490961
0.49099
0.491019
0.491049
0.491078
0.491078
0.491107
0.491137
0.491166
0.491196
0.491196
0.491225
0.491255
0.491284
0.491314
0.491314
0.491344
0.491374
0.491403
0.491433
0.491433
0.491463
0.491493
0.491523
0.491553
0.491553
0.491583
0.491613
0.491643
0.491673
0.491673
0.491703
0.491734
0.491764
0.491794
0.491794
0.491825
0.491855
0.491885
0.491916
0.491916
0.491946
0.491977
0.492007
0.492038
0.492038
0.492069
0.4921
0.49213
0.492161
0.492161
0.492192
0.492223
0.492254
0.492285
0.492285
0.492316
0.492347
0.492378
0.492409
0.492409
0.49244
0.492471
0.492502
0.492534
0.492534
0.492565
0.492596
0.492628
0.492659
0.492659
0.492691
0.492722
0.492754
0.492785
0.492785
0.492817
0.492849
0.49288
0.492912
0.492912
0.492944
0.492976
0.493008
0.49304
0.49304
0.493072
0.493104
0.493136
0.493168
0.493168
0.4932
0.493232
0.493264
0.493296
0.493296
0.493329
0.493361
0.493393
0.493426
0.493426
0.493458
0.493491
0.493523
0.493556
0.493556
0.493588
0.493621
0.493654
0.493686
0.493686
0.493719
0.493752
0.493785
0.493818
0.493818
0.493851
0.493884
0.493917
0.49395
0.49395
0.493983
0.494016
0.494049
0.494082
0.494082
0.494116
0.494149
0.494182
0.494216
0.494216
0.494249
0.494283
0.494316
0.49435
0.49435
0.494383
0.494417
0.494451
0.494484
0.494484
0.494518
0.494552
0.494586
0.494619
0.494619
0.494653
0.494687
0.494721
0.494755
0.494755
0.494789
0.494824
0.494858
0.494892
0.494892
0.494926
0.49496
0.494995
0.495029
0.495029
0.495064
0.495098
0.495132
0.495167
0.495167
0.495202
0.495236
0.495271
0.495305
0.495305
0.49534
0.495375
0.49541
0.495445
0.495445
0.49548
0.495514
0.495549
0.495584
0.495584
0.495619
0.495655
0.49569
0.495725
0.495725
0.49576
0.495795
0.495831
0.495866
0.495866
0.495901
0.495937
0.495972
0.496008
0.496008
0.496043
0.496079
0.496115
0.49615
0.49615
0.496186
0.496222
0.496258
0.496293
0.496293
0.496329
0.496365
0.496401
0.496437
0.496437
0.496473
0.496509
0.496545
0.496582
0.496582
0.496618
0.496654
0.49669
0.496727
0.496727
0.496763
0.496799
0.496836
0.496872
0.496872
0.496909
0.496945
0.496982
0.497019
0.497019
0.497055
0.497092
0.497129
0.497166
0.497166
0.497203
0.49724
0.497277
0.497314
0.497314
0.497351
0.497388
0.497425
0.497462
0.497462
0.497499
0.497536
0.497574
0.497611
0.497611
0.497648
0.497686
0.497723
0.497761
0.497761
0.497798
0.497836
0.497873
0.497911
0.497911
0.497949
0.497987
0.498024
0.498062
0.498062
0.4981
0.498138
0.498176
0.498214
0.498214
0.498252
0.49829
0.498328
0.498366
0.498366
0.498404
0.498443
0.498481
0.498519
0.498519
0.498558
0.498596
0.498634
0.498673
0.498673
0.498711
0.49875
0.498789
0.498827
0.498827
0.498866
0.498905
0.498944
0.498982
0.498982
0.499021
0.49906
0.499099
0.499138
0.499138
0.499177
0.499216
0.499255
0.499294
0.499294
0.499334
0.499373
0.499412
0.499451
0.499451
0.499491
0.49953
0.49957
0.499609
0.499609
0.499649
0.499688
0.499728
0.499768
0.499768
0.499807
0.499847
0.499887
0.499927
0.499927
0.499966
0.500006
0.500046
0.500086
0.500086
0.500126
0.500166
0.500207
0.500247
0.500247
0.500287
0.500327
0.500368
0.500408
0.500408
0.500448
0.500489
0.500529
0.50057
0.50057
0.50061
0.500651
0.500691
0.500732
0.500732
0.500773
0.500813
0.500854
0.500895
0.500895
0.500936
0.500977
0.501018
0.501059
0.501059
0.5011
0.501141
0.501182
0.501223
0.501223
0.501265
0.501306
0.501347
0.501388
0.501388
0.50143
0.501471
0.501513
0.501554
0.501554
0.501596
0.501637
0.501679
0.501721
0.501721
0.501762
0.501804
0.501846
0.501888
0.501888
0.50193
0.501972
0.502014
0.502056
0.502056
0.502098
0.50214
0.502182
0.502224
0.502224
0.502266
0.502309
0.502351
0.502393
0.502393
0.502436
0.502478
0.502521
0.502563
0.502563
0.502606
0.502649
0.502691
0.502734
0.502734
0.502777
0.502819
0.502862
0.502905
0.502905
0.502948
0.502991
0.503034
0.503077
0.503077
0.50312
0.503163
0.503206
0.50325
0.50325
0.503293
0.503336
0.50338
0.503423
0.503423
0.503466
0.50351
0.503553
0.503597
0.503597
0.503641
0.503684
0.503728
0.503772
0.503772
0.503815
0.503859
0.503903
0.503947
0.503947
0.503991
0.504035
0.504079
0.504123
0.504123
0.504167
0.504211
0.504255
0.5043
0.5043
0.504344
0.504388
0.504433
0.504477
0.504477
0.504522
0.504566
0.504611
0.504655
0.504655
0.5047
0.504745
0.504789
0.504834
0.504834
0.504879
0.504924
0.504969
0.505013
0.505013
0.505058
0.505103
0.505149
0.505194
0.505194
0.505239
0.505284
0.505329
0.505375
0.505375
0.50542
0.505465
0.505511
0.505556
0.505556
0.505602
0.505647
0.505693
0.505738
0.505738
0.505784
0.50583
0.505875
0.505921
0.505921
0.505967
0.506013
0.506059
0.506105
0.506105
0.506151
0.506197
0.506243
0.506289
0.506289
0.506335
0.506382
0.506428
0.506474
0.506474
0.506521
0.506567
0.506613
0.50666
0.50666
0.506707
0.506753
0.5068
0.506846
0.506846
0.506893
0.50694
0.506987
0.507034
0.507034
0.50708
0.507127
0.507174
0.507221
0.507221
0.507268
0.507315
0.507363
0.50741
0.50741
0.507457
0.507504
0.507552
0.507599
0.507599
0.507646
0.507694
0.507741
0.507789
0.507789
0.507837
0.507884
0.507932
0.50798
0.50798
0.508027
0.508075
0.508123
0.508171
0.508171
0.508219
0.508267
0.508315
0.508363
0.508363
0.508411
0.508459
0.508507
0.508556
0.508556
0.508604
0.508652
0.508701
0.508749
0.508749
0.508798
0.508846
0.508895
0.508943
0.508943
0.508992
0.509041
0.509089
0.509138
0.509138
0.509187
0.509236
0.509285
0.509334
0.509334
0.509383
0.509432
0.509481
0.50953
0.50953
0.509579
0.509628
0.509677
0.509727
0.509727
0.509776
0.509826
0.509875
0.509924
0.509924
0.509974
0.510024
0.510073
0.510123
0.510123
0.510173
0.510222
0.510272
0.510322
0.510322
0.510372
0.510422
0.510472
0.510522
0.510522
0.510572
0.510622
0.510672
0.510722
0.510722
0.510772
0.510823
0.510873
0.510923
0.510923
0.510974
0.511024
0.511075
0.511125
0.511125
0.511176
0.511227
0.511277
0.511328
0.511328
0.511379
0.51143
0.511481
0.511531
0.511531
0.511582
0.511633
0.511684
0.511735
0.511735
0.511787
0.511838
0.511889
0.51194
0.51194
0.511992
0.512043
0.512094
0.512146
0.512146
0.512197
0.512249
0.5123
0.512352
0.512352
0.512404
0.512455
0.512507
0.512559
0.512559
0.512611
0.512663
0.512715
0.512767
0.512767
0.512819
0.512871
0.512923
0.512975
0.512975
0.513027
0.51308
0.513132
0.513184
0.513184
0.513237
0.513289
0.513341
0.513394
0.513394
0.513447
0.513499
0.513552
0.513605
0.513605
0.513657
0.51371
0.513763
0.513816
0.513816
0.513869
0.513922
0.513975
0.514028
0.514028
0.514081
0.514134
0.514187
0.514241
0.514241
0.514294
0.514347
0.514401
0.514454
0.514454
0.514508
0.514561
0.514615
0.514668
0.514668
0.514722
0.514776
0.514829
0.514883
0.514883
0.514937
0.514991
0.515045
0.515099
0.515099
0.515153
0.515207
0.515261
0.515315
0.515315
0.515369
0.515424
0.515478
0.515532
0.515532
0.515587
0.515641
0.515696
0.51575
0.51575
0.515805
0.515859
0.515914
0.515969
0.515969
0.516023
0.516078
0.516133
0.516188
0.516188
0.516243
0.516298
0.516353
0.516408
0.516408
0.516463
0.516518
0.516574
0.516629
0.516629
0.516684
0.516739
0.516795
0.51685
0.51685
0.516906
0.516961
0.517017
0.517073
0.517073
0.517128
0.517184
0.51724
0.517296
0.517296
0.517351
0.517407
0.517463
0.517519
0.517519
0.517575
0.517631
0.517688
0.517744
0.517744
0.5178
0.517856
0.517913
0.517969
0.517969
0.518025
0.518082
0.518138
0.518195
0.518195
0.518251
0.518308
0.518365
0.518422
0.518422
0.518478
0.518535
0.518592
0.518649
0.518649
0.518706
0.518763
0.51882
0.518877
0.518877
0.518934
0.518992
0.519049
0.519106
0.519106
0.519163
0.519221
0.519278
0.519336
0.519336
0.519393
0.519451
0.519508
0.519566
0.519566
0.519624
0.519682
0.519739
0.519797
0.519797
0.519855
0.519913
0.519971
0.520029
0.520029
0.520087
0.520145
0.520204
0.520262
0.520262
0.52032
0.520378
0.520437
0.520495
0.520495
0.520554
0.520612
0.520671
0.520729
0.520729
0.520788
0.520847
0.520906
0.520964
0.520964
0.521023
0.521082
0.521141
0.5212
0.5212
0.521259
0.521318
0.521377
0.521436
0.521436
0.521496
0.521555
0.521614
0.521674
0.521674
0.521733
0.521792
0.521852
0.521912
0.521912
0.521971
0.522031
0.52209
0.52215
0.52215
0.52221
0.52227
0.52233
0.52239
0.52239
0.52245
0.52251
0.52257
0.52263
0.52263
0.52269
0.52275
0.522811
0.522871
0.522871
0.522931
0.522992
0.523052
0.523113
0.523113
0.523173
0.523234
0.523294
0.523355
0.523355
0.523416
0.523477
0.523537
0.523598
0.523598
0.523659
0.52372
0.523781
0.523842
0.523842
0.523903
0.523965
0.524026
0.524087
0.524087
0.524148
0.52421
0.524271
0.524333
0.524333
0.524394
0.524456
0.524517
0.524579
0.524579
0.524641
0.524702
0.524764
0.524826
0.524826
0.524888
0.52495
0.525012
0.525074
0.525074
0.525136
0.525198
0.52526
0.525323
0.525323
0.525385
0.525447
0.52551
0.525572
0.525572
0.525634
0.525697
0.525759
0.525822
0.525822
0.525885
0.525947
0.52601
0.526073
0.526073
0.526136
0.526199
0.526262
0.526325
0.526325
0.526388
0.526451
0.526514
0.526577
0.526577
0.526641
0.526704
0.526767
0.526831
0.526831
0.526894
0.526957
0.527021
0.527085
0.527085
0.527148
0.527212
0.527276
0.527339
0.527339
0.527403
0.527467
0.527531
0.527595
0.527595
0.527659
0.527723
0.527787
0.527851
0.527851
0.527916
0.52798
0.528044
0.528109
0.528109
0.528173
0.528237
0.528302
0.528367
0.528367
0.528431
0.528496
0.528561
0.528625
0.528625
0.52869
0.528755
0.52882
0.528885
0.528885
0.52895
0.529015
0.52908
0.529145
0.529145
0.52921
0.529276
0.529341
0.529406
0.529406
0.529472
0.529537
0.529603
0.529668
0.529668
0.529734
0.529799
0.529865
0.529931
0.529931
0.529997
0.530062
0.530128
0.530194
0.530194
0.53026
0.530326
0.530392
0.530459
0.530459
0.530525
0.530591
0.530657
0.530724
0.530724
0.53079
0.530856
0.530923
0.530989
0.530989
0.531056
0.531123
0.531189
0.531256
0.531256
0.531323
0.53139
0.531457
0.531524
0.531524
0.531591
0.531658
0.531725
0.531792
0.531792
0.531859
0.531926
0.531993
0.532061
0.532061
0.532128
0.532196
0.532263
0.532331
0.532331
0.532398
0.532466
0.532534
0.532601
0.532601
0.532669
0.532737
0.532805
0.532873
0.532873
0.532941
0.533009
0.533077
0.533145
0.533145
0.533213
0.533281
0.53335
0.533418
0.533418
0.533486
0.533555
0.533623
0.533692
0.533692
0.533761
0.533829
0.533898
0.533967
0.533967
0.534035
0.534104
0.534173
0.534242
0.534242
0.534311
0.53438
0.534449
0.534518
0.534518
0.534588
0.534657
0.534726
0.534795
0.534795
0.534865
0.534934
0.535004
0.535073
0.535073
0.535143
0.535213
0.535282
0.535352
0.535352
0.535422
0.535492
0.535562
0.535632
0.535632
0.535702
0.535772
0.535842
0.535912
0.535912
0.535982
0.536052
0.536123
0.536193
0.536193
0.536264
0.536334
0.536405
0.536475
0.536475
0.536546
0.536616
0.536687
0.536758
0.536758
0.536829
0.5369
0.536971
0.537042
0.537042
0.537113
0.537184
0.537255
0.537326
0.537326
0.537397
0.537469
0.53754
0.537611
0.537611
0.537683
0.537754
0.537826
0.537897
0.537897
0.537969
0.538041
0.538113
0.538184
0.538184
0.538256
0.538328
0.5384
0.538472
0.538472
0.538544
0.538616
0.538689
0.538761
0.538761
0.538833
0.538905
0.538978
0.53905
0.53905
0.539123
0.539195
0.539268
0.53934
0.53934
0.539413
0.539486
0.539559
0.539631
0.539631
0.539704
0.539777
0.53985
0.539923
0.539923
0.539997
0.54007
0.540143
0.540216
0.540216
0.540289
0.540363
0.540436
0.54051
0.54051
0.540583
0.540657
0.54073
0.540804
0.540804
0.540878
0.540952
0.541026
0.541099
0.541099
0.541173
0.541247
0.541321
0.541396
0.541396
0.54147
0.541544
0.541618
0.541692
0.541692
0.541767
0.541841
0.541916
0.54199
0.54199
0.542065
0.54214
0.542214
0.542289
0.542289
0.542364
0.542439
0.542513
0.542588
0.542588
0.542663
0.542738
0.542814
0.542889
0.542889
0.542964
0.543039
0.543115
0.54319
0.54319
0.543265
0.543341
0.543416
0.543492
0.543492
0.543568
0.543643
0.543719
0.543795
0.543795
0.543871
0.543947
0.544023
0.544099
0.544099
0.544175
0.544251
0.544327
0.544403
0.544403
0.544479
0.544556
0.544632
0.544709
0.544709
0.544785
0.544862
0.544938
0.545015
0.545015
0.545092
0.545168
0.545245
0.545322
0.545322
0.545399
0.545476
0.545553
0.54563
0.54563
0.545707
0.545784
0.545862
0.545939
0.545939
0.546016
0.546094
0.546171
0.546249
0.546249
0.546326
0.546404
0.546482
0.546559
0.546559
0.546637
0.546715
0.546793
0.546871
0.546871
0.546949
0.547027
0.547105
0.547183
0.547183
0.547261
0.54734
0.547418
0.547496
0.547496
0.547575
0.547653
0.547732
0.54781
0.54781
0.547889
0.547968
0.548047
0.548125
0.548125
0.548204
0.548283
0.548362
0.548441
0.548441
0.54852
0.548599
0.548679
0.548758
0.548758
0.548837
0.548917
0.548996
0.549075
0.549075
0.549155
0.549235
0.549314
0.549394
0.549394
0.549474
0.549553
0.549633
0.549713
0.549713
0.549793
0.549873
0.549953
0.550033
0.550033
0.550114
0.550194
0.550274
0.550355
0.550355
0.550435
0.550515
0.550596
0.550677
0.550677
0.550757
0.550838
0.550919
0.550999
0.550999
0.55108
0.551161
0.551242
0.551323
0.551323
0.551404
0.551485
0.551567
0.551648
0.551648
0.551729
0.55181
0.551892
0.551973
0.551973
0.552055
0.552136
0.552218
0.5523
0.5523
0.552381
0.552463
0.552545
0.552627
0.552627
0.552709
0.552791
0.552873
0.552955
0.552955
0.553037
0.55312
0.553202
0.553284
0.553284
0.553367
0.553449
0.553532
0.553614
0.553614
0.553697
0.55378
0.553862
0.553945
0.553945
0.554028
0.554111
0.554194
0.554277
0.554277
0.55436
0.554443
0.554527
0.55461
0.55461
0.554693
0.554776
0.55486
0.554943
0.554943
0.555027
0.555111
0.555194
0.555278
0.555278
0.555362
0.555446
0.555529
0.555613
0.555613
0.555697
0.555781
0.555866
0.55595
0.55595
0.556034
0.556118
0.556203
0.556287
0.556287
0.556371
0.556456
0.55654
0.556625
0.556625
0.55671
0.556794
0.556879
0.556964
0.556964
0.557049
0.557134
0.557219
0.557304
0.557304
0.557389
0.557474
0.55756
0.557645
0.557645
0.55773
0.557816
0.557901
0.557987
0.557987
0.558072
0.558158
0.558244
0.55833
0.55833
0.558415
0.558501
0.558587
0.558673
0.558673
0.558759
0.558845
0.558931
0.559018
0.559018
0.559104
0.55919
0.559276
0.559362
0.559362
0.559448
0.559532
0.559616
0.559699
0.559699
0.55978
0.559855
0.559922
0.559982
0.559982
0.560016
0.560045
0.560067
0.560082
0.560082
0.560101
0.56012
0.560138
0.560156
0.560156
0.560174
0.560192
0.56021
0.560228
0.560228
0.560246
0.560263
0.560281
0.560298
0.560298
0.560315
0.560331
0.560346
0.560359
0.560359
0.560369
0.560376
0.56038
0.56038
0.56038
0.56038
0.560379
0.560378
0.560377
0.560377
0.560376
0.560375
0.560374
0.560373
0.560373
0.560372
0.560371
0.56037
0.560369
0.560369
0.560368
0.560367
0.560366
0.560364
0.560364
0.560363
0.560362
0.56036
0.560359
0.560359
0.560358
0.560356
0.560355
0.560354
0.560354
0.560352
0.560351
0.560349
0.560348
0.560348
0.560346
0.560344
0.560343
0.560341
0.560341
0.56034
0.560338
0.560337
0.560336
0.560336
0.560334
0.560333
0.560332
0.560331
0.560331
0.560331
0.56033
0.56033
0.560329
0.560329
0.560329
0.560329
0.560328
0.560328
0.560328
0.560328
0.560328
0.560327
0.560327
0.560327
0.560327
0.560326
0.560326
0.560326
0.560326
0.560325
0.560325
0.560325
0.560325
0.560325
0.560325
0.560325
0.560325
0.560325
0.560325
0.560325
0.560325
0.560325
0.560325
0.560325
0.560325
0.560325
0.560325
0.560325
0.560325
0.560325
0.560325
0.560325
0.560325
0.560325
0.560325
0.560325
0.560325
0.560325
0.560325
0.560325
0.560325
0.560326
0.560326
0.560326
0.560326
0.560326
0.560326
0.560326
0.560326
0.560326
0.560326
0.560326
0.560326
0.560326
0.560326
0.560326
0.560326
0.560326
0.560326
0.560326
0.560326
0.560326
0.560327
0.560327
0.560327
0.560327
0.560327
0.560327
0.560327
0.560327
0.560327
0.560327
0.560327
0.560327
0.560327
0.560327
0.560327
0.560327
0.560327
0.560327
0.560327
0.560327
0.560327
0.560327
0.560327
0.560327
0.560327
0.560327
0.560327
0.560327
0.560327
0.560327
0.560328
0.560328
0.560328
0.560328
0.560328
0.560328
0.560328
0.560328
0.560328
0.560328
0.560328
0.560328
0.560328
0.560328
0.560328
0.560328
0.560328
0.560328
0.560328
0.560328
0.560328
0.560328
0.560328
0.560328
0.560328
0.560328
0.560328
0.560328
0.560328
0.560328
0.560328
0.560328
0.560328
0.560328
0.560328
0.560328
0.560328
0.560328
0.560329
0.560329
0.560329
0.560329
0.560329
0.560329
0.560329
0.560329
0.560329
0.560329
0.560329
0.560329
0.560329
0.560329
0.560329
0.560329
0.560329
0.560329
0.560329
0.560329
0.560329
0.560329
0.560329
0.560329
0.560329
0.560329
0.560329
0.560329
0.560329
0.560329
0.560329
0.560329
0.560329
0.560329
0.560329
0.560329
0.56033
0.56033
0.56033
0.56033
0.56033
0.56033
0.56033
0.56033
0.56033
0.56033
0.56033
0.56033
0.56033
0.56033
0.56033
0.56033
0.56033
0.56033
0.56033
0.56033
0.56033
0.56033
0.56033
0.56033
0.56033
0.56033
0.56033
0.56033
0.56033
0.56033
0.56033
0.56033
0.56033
0.56033
0.56033
0.560331
0.560331
0.560331
0.560331
0.560331
0.560331
0.560331
0.560331
0.560331
0.560331
0.560331
0.560331
0.560331
0.560331
0.560331
0.560331
0.560331
0.560331
0.560331
0.560331
0.560331
0.560331
0.560331
0.560331
0.560331
0.560331
0.560331
0.560331
0.560331
0.560331
0.560331
0.560331
0.560331
0.560331
0.560331
0.560332
0.560332
0.560332
0.560332
0.560332
0.560332
0.560332
0.560332
0.560332
0.560332
0.560332
0.560332
0.560332
0.560332
0.560332
0.560332
0.560332
0.560332
0.560332
0.560332
0.560332
0.560332
0.560332
0.560332
0.560332
0.560332
0.560332
0.560332
0.560332
0.560332
0.560332
0.560332
0.560332
0.560332
0.560333
0.560333
0.560333
0.560333
0.560333
0.560333
0.560333
0.560333
0.560333
0.560333
0.560333
0.560333
0.560333
0.560333
0.560333
0.560333
0.560333
0.560333
0.560333
0.560333
0.560333
0.560333
0.560333
0.560333
0.560333
0.560333
0.560333
0.560333
0.560333
0.560333
0.560333
0.560333
0.560334
0.560334
0.560334
0.560334
0.560334
0.560334
0.560334
0.560334
0.560334
0.560334
0.560334
0.560334
0.560334
0.560334
0.560334
0.560334
0.560334
0.560334
0.560334
0.560334
0.560334
0.560334
0.560334
0.560334
0.560334
0.560334
0.560334
0.560334
0.560334
0.560334
0.560334
0.560334
0.560334
0.560335
0.560335
0.560335
0.560335
0.560335
0.560335
0.560335
0.560335
0.560335
0.560335
0.560335
0.560335
0.560335
0.560335
0.560335
0.560335
0.560335
0.560335
0.560335
0.560335
0.560335
0.560335
0.560335
0.560335
0.560335
0.560335
0.560335
0.560335
0.560335
0.560335
0.560335
0.560336
0.560336
0.560336
0.560336
0.560336
0.560336
0.560336
0.560336
0.560336
0.560336
0.560336
0.560336
0.560336
0.560336
0.560336
0.560336
0.560336
0.560336
0.560336
0.560336
0.560336
0.560336
0.560336
0.560336
0.560336
0.560336
0.560336
0.560336
0.560336
0.560336
0.560336
0.560336
0.560336
0.560337
0.560337
0.560337
0.560337
0.560337
0.560337
0.560337
0.560337
0.560337
0.560337
0.560337
0.560337
0.560337
0.560337
0.560337
0.560337
0.560337
0.560337
0.560337
0.560337
0.560337
0.560337
0.560337
0.560337
0.560337
0.560337
0.560337
0.560337
0.560337
0.560337
0.560338
0.560338
0.560338
0.560338
0.560338
0.560338
0.560338
0.560338
0.560338
0.560338
0.560338
0.560338
0.560338
0.560338
0.560338
0.560338
0.560338
0.560338
0.560338
0.560338
0.560338
0.560338
0.560338
0.560338
0.560338
0.560338
0.560338
0.560338
0.560338
0.560338
0.560339
0.560339
0.560339
0.560339
0.560339
0.560339
0.560339
0.560339
0.560339
0.560339
0.560339
0.560339
0.560339
0.560339
0.560339
0.560339
0.560339
0.560339
0.560339
0.560339
0.560339
0.560339
0.560339
0.560339
0.560339
0.560339
0.560339
0.560339
0.56034
0.56034
0.56034
0.56034
0.56034
0.56034
0.56034
0.56034
0.56034
0.56034
0.56034
0.56034
0.56034
0.56034
0.56034
0.56034
0.56034
0.56034
0.56034
0.56034
0.56034
0.56034
0.56034
0.56034
0.56034
0.56034
0.56034
0.56034
0.56034
0.560341
0.560341
0.560341
0.560341
0.560341
0.560341
0.560341
0.560341
0.560341
0.560341
0.560341
0.560341
0.560341
0.560341
0.560341
0.560341
0.560341
0.560341
0.560341
0.560341
0.560341
0.560341
0.560341
0.560341
0.560341
0.560341
0.560341
0.560341
0.560341
0.560342
0.560342
0.560342
0.560342
0.560342
0.560342
0.560342
0.560342
0.560342
0.560342
0.560342
0.560342
0.560342
0.560342
0.560342
0.560342
0.560342
0.560342
0.560342
0.560342
0.560342
0.560342
0.560342
0.560342
0.560342
0.560342
0.560342
0.560342
0.560342
0.560343
0.560343
0.560343
0.560343
0.560343
0.560343
0.560343
0.560343
0.560343
0.560343
0.560343
0.560343
0.560343
0.560343
0.560343
0.560343
0.560343
0.560343
0.560343
0.560343
0.560343
0.560343
0.560343
0.560343
0.560343
0.560343
0.560343
0.560344
0.560344
0.560344
0.560344
0.560344
0.560344
0.560344
0.560344
0.560344
0.560344
0.560344
0.560344
0.560344
0.560344
0.560344
0.560344
0.560344
0.560344
0.560344
0.560344
0.560344
0.560344
0.560344
0.560344
0.560344
0.560344
0.560345
0.560345
0.560345
0.560345
0.560345
0.560345
0.560345
0.560345
0.560345
0.560345
0.560345
0.560345
0.560345
0.560345
0.560345
0.560345
0.560345
0.560345
0.560345
0.560345
0.560345
0.560345
0.560345
0.560345
0.560345
0.560345
0.560345
0.560345
0.560346
0.560346
0.560346
0.560346
0.560346
0.560346
0.560346
0.560346
0.560346
0.560346
0.560346
0.560346
0.560346
0.560346
0.560346
0.560346
0.560346
0.560346
0.560346
0.560346
0.560346
0.560346
0.560346
0.560346
0.560346
0.560346
0.560347
0.560347
0.560347
0.560347
0.560347
0.560347
0.560347
0.560347
0.560347
0.560347
0.560347
0.560347
0.560347
0.560347
0.560347
0.560347
0.560347
0.560347
0.560347
0.560347
0.560347
0.560347
0.560347
0.560347
0.560347
0.560348
0.560348
0.560348
0.560348
0.560348
0.560348
0.560348
0.560348
0.560348
0.560348
0.560348
0.560348
0.560348
0.560348
0.560348
0.560348
0.560348
0.560348
0.560348
0.560348
0.560348
0.560348
0.560348
0.560348
0.560348
0.560348
0.560349
0.560349
0.560349
0.560349
0.560349
0.560349
0.560349
0.560349
0.560349
0.560349
0.560349
0.560349
0.560349
0.560349
0.560349
0.560349
0.560349
0.560349
0.560349
0.560349
0.560349
0.560349
0.560349
0.560349
0.560349
0.56035
0.56035
0.56035
0.56035
0.56035
0.56035
0.56035
0.56035
0.56035