<?xml version="1.0"?>
<VTKFile type="UnstructuredGrid" version="0.1" byte_order="LittleEndian">
<UnstructuredGrid>
<Piece NumberOfPoints="5000" NumberOfCells="4000">
<PointData Scalars="Reaction 0">
<DataArray type="Float32" Name="Reaction 0" format="ascii">
0.447624
0.447624
0.447624
0.447624
0.447624
0.447624
0.447624
0.447624
0.447625
0.447625
0.447625
0.447625
0.447625
0.447626
0.447626
0.447626
0.447627
0.447627
0.447628
0.447628
0.447628
0.447629
0.447629
0.44763
0.44763
0.44763
0.447631
0.447632
0.447632
0.447633
0.447633
0.447634
0.447635
0.447636
0.447637
0.447637
0.447638
0.447639
0.44764
0.447641
0.447641
0.447642
0.447643
0.447644
0.447645
0.447645
0.447646
0.447647
0.447649
0.44765
0.44765
0.447651
0.447653
0.447654
0.447655
0.447655
0.447657
0.447658
0.44766
0.447661
0.447661
0.447663
0.447665
0.447666
0.447668
0.447668
0.44767
0.447671
0.447673
0.447675
0.447675
0.447677
0.447679
0.447681
0.447683
0.447683
0.447685
0.447687
0.447689
0.447691
0.447691
0.447693
0.447695
0.447697
0.447699
0.447699
0.447702
0.447704
0.447706
0.447708
0.447708
0.447711
0.447713
0.447716
0.447718
0.447718
0.447721
0.447723
0.447726
0.447728
0.447728
0.447731
0.447734
0.447736
0.447739
0.447739
0.447742
0.447745
0.447747
0.44775
0.44775
0.447753
0.447756
0.447759
0.447762
0.447762
0.447765
0.447768
0.447771
0.447774
0.447774
0.447777
0.447781
0.447784
0.447787
0.447787
0.44779
0.447794
0.447797
0.4478
0.4478
0.447804
0.447807
0.447811
0.447814
0.447814
0.447818
0.447821
0.447825
0.447829
0.447829
0.447832
0.447836
0.44784
0.447843
0.447843
0.447847
0.447851
0.447855
0.447859
0.447859
0.447863
0.447867
0.447871
0.447875
0.447875
0.447879
0.447883
0.447887
0.447891
0.447891
0.447895
0.4479
0.447904
0.447908
0.447908
0.447913
0.447917
0.447921
0.447926
0.447926
0.44793
0.447935
0.447939
0.447944
0.447944
0.447948
0.447953
0.447958
0.447962
0.447962
0.447967
0.447972
0.447977
0.447981
0.447981
0.447986
0.447991
0.447996
0.448001
0.448001
0.448006
0.448011
0.448016
0.448021
0.448021
0.448026
0.448031
0.448037
0.448042
0.448042
0.448047
0.448052
0.448058
0.448063
0.448063
0.448068
0.448074
0.448079
0.448085
0.448085
0.44809
0.448096
0.448101
0.448107
0.448107
0.448112
0.448118
0.448124
0.448129
0.448129
0.448135
0.448141
0.448147
0.448153
0.448153
0.448159
0.448165
0.448171
0.448177
0.448177
0.448183
0.448189
0.448195
0.448201
0.448201
0.448207
0.448213
0.448219
0.448226
0.448226
0.448232
0.448238
0.448245
0.448251
0.448251
0.448257
0.448264
0.44827
0.448277
0.448277
0.448283
0.44829
0.448297
0.448303
0.448303
0.44831
0.448317
0.448323
0.44833
0.44833
0.448337
0.448344
0.448351
0.448358
0.448358
0.448365
0.448372
0.448379
0.448386
0.448386
0.448393
0.4484
0.448407
0.448414
0.448414
0.448421
0.448428
0.448436
0.448443
0.448443
0.44845
0.448458
0.448465
0.448473
0.448473
0.44848
0.448488
0.448495
0.448503
0.448503
0.44851
0.448518
0.448526
0.448533
0.448533
0.448541
0.448549
0.448556
0.448564
0.448564
0.448572
0.44858
0.448588
0.448596
0.448596
0.448604
0.448612
0.44862
0.448628
0.448628
0.448636
0.448644
0.448653
0.448661
0.448661
0.448669
0.448677
0.448686
0.448694
0.448694
0.448702
0.448711
0.448719
0.448728
0.448728
0.448736
0.448745
0.448753
0.448762
0.448762
0.448771
0.448779
0.448788
0.448797
0.448797
0.448805
0.448814
0.448823
0.448832
0.448832
0.448841
0.44885
0.448859
0.448868
0.448868
0.448877
0.448886
0.448895
0.448904
0.448904
0.448913
0.448923
0.448932
0.448941
0.448941
0.44895
0.44896
0.448969
0.448978
0.448978
0.448988
0.448997
0.449007
0.449016
0.449016
0.449026
0.449036
0.449045
0.449055
0.449055
0.449065
0.449074
0.449084
0.449094
0.449094
0.449104
0.449113
0.449123
0.449133
0.449133
0.449143
0.449153
0.449163
0.449173
0.449173
0.449183
0.449193
0.449204
0.449214
0.449214
0.449224
0.449234
0.449245
0.449255
0.449255
0.449265
0.449276
0.449286
0.449296
0.449296
0.449307
0.449317
0.449328
0.449339
0.449339
0.449349
0.44936
0.449371
0.449381
0.449381
0.449392
0.449403
0.449414
0.449424
0.449424
0.449435
0.449446
0.449457
0.449468
0.449468
0.449479
0.44949
0.449501
0.449512
0.449512
0.449523
0.449535
0.449546
0.449557
0.449557
0.449568
0.44958
0.449591
0.449602
0.449602
0.449614
0.449625
0.449637
0.449648
0.449648
0.44966
0.449671
0.449683
0.449694
0.449694
0.449706
0.449718
0.44973
0.449741
0.449741
0.449753
0.449765
0.449777
0.449789
0.449789
0.449801
0.449813
0.449825
0.449837
0.449837
0.449849
0.449861
0.449873
0.449885
0.449885
0.449897
0.449909
0.449922
0.449934
0.449934
0.449946
0.449959
0.449971
0.449983
0.449983
0.449996
0.450008
0.450021
0.450034
0.450034
0.450046
0.450059
0.450071
0.450084
0.450084
0.450097
0.45011
0.450122
0.450135
0.450135
0.450148
0.450161
0.450174
0.450187
0.450187
0.4502
0.450213
0.450226
0.450239
0.450239
0.450252
0.450265
0.450278
0.450291
0.450291
0.450305
0.450318
0.450331
0.450345
0.450345
0.450358
0.450371
0.450385
0.450398
0.450398
0.450412
0.450425
0.450439
0.450453
0.450453
0.450466
0.45048
0.450494
0.450507
0.450507
0.450521
0.450535
0.450549
0.450563
0.450563
0.450576
0.45059
0.450604
0.450618
0.450618
0.450632
0.450646
0.450661
0.450675
0.450675
0.450689
0.450703
0.450717
0.450732
0.450732
0.450746
0.45076
0.450775
0.450789
0.450789
0.450803
0.450818
0.450832
0.450847
0.450847
0.450861
0.450876
0.450891
0.450905
0.450905
0.45092
0.450935
0.45095
0.450964
0.450964
0.450979
0.450994
0.451009
0.451024
0.451024
0.451039
0.451054
0.451069
0.451084
0.451084
0.451099
0.451114
0.451129
0.451144
0.451144
0.45116
0.451175
0.45119
0.451205
0.451205
0.451221
0.451236
0.451252
0.451267
0.451267
0.451283
0.451298
0.451314
0.451329
0.451329
0.451345
0.451361
0.451376
0.451392
0.451392
0.451408
0.451423
0.451439
0.451455
0.451455
0.451471
0.451487
0.451503
0.451519
0.451519
0.451535
0.451551
0.451567
0.451583
0.451583
0.451599
0.451615
0.451632
0.451648
0.451648
0.451664
0.451681
0.451697
0.451713
0.451713
0.45173
0.451746
0.451763
0.451779
0.451779
0.451796
0.451812
0.451829
0.451846
0.451846
0.451862
0.451879
0.451896
0.451912
0.451912
0.451929
0.451946
0.451963
0.45198
0.45198
0.451997
0.452014
0.452031
0.452048
0.452048
0.452065
0.452082
0.452099
0.452116
0.452116
0.452134
0.452151
0.452168
0.452185
0.452185
0.452203
0.45222
0.452237
0.452255
0.452255
0.452272
0.45229
0.452307
0.452325
0.452325
0.452343
0.45236
0.452378
0.452396
0.452396
0.452413
0.452431
0.452449
0.452467
0.452467
0.452485
0.452503
0.452521
0.452539
0.452539
0.452557
0.452575
0.452593
0.452611
0.452611
0.452629
0.452647
0.452665
0.452683
0.452683
0.452702
0.45272
0.452738
0.452757
0.452757
0.452775
0.452794
0.452812
0.452831
0.452831
0.452849
0.452868
0.452886
0.452905
0.452905
0.452924
0.452942
0.452961
0.45298
0.45298
0.452999
0.453017
0.453036
0.453055
0.453055
0.453074
0.453093
0.453112
0.453131
0.453131
0.45315
0.453169
0.453188
0.453208
0.453208
0.453227
0.453246
0.453265
0.453285
0.453285
0.453304
0.453323
0.453343
0.453362
0.453362
0.453382
0.453401
0.453421
0.45344
0.45344
0.45346
0.45348
0.453499
0.453519
0.453519
0.453539
0.453558
0.453578
0.453598
0.453598
0.453618
0.453638
0.453658
0.453678
0.453678
0.453698
0.453718
0.453738
0.453758
0.453758
0.453778
0.453798
0.453818
0.453839
0.453839
0.453859
0.453879
0.4539
0.45392
0.45392
0.45394
0.453961
0.453981
0.454002
0.454002
0.454022
0.454043
0.454063
0.454084
0.454084
0.454105
0.454125
0.454146
0.454167
0.454167
0.454188
0.454209
0.454229
0.45425
0.45425
0.454271
0.454292
0.454313
0.454334
0.454334
0.454355
0.454377
0.454398
0.454419
0.454419
0.45444
0.454461
0.454483
0.454504
0.454504
0.454525
0.454547
0.454568
0.454589
0.454589
0.454611
0.454632
0.454654
0.454675
0.454675
0.454697
0.454719
0.45474
0.454762
0.454762
0.454784
0.454806
0.454827
0.454849
0.454849
0.454871
0.454893
0.454915
0.454937
0.454937
0.454959
0.454981
0.455003
0.455025
0.455025
0.455047
0.455069
0.455092
0.455114
0.455114
0.455136
0.455159
0.455181
0.455203
0.455203
0.455226
0.455248
0.455271
0.455293
0.455293
0.455316
0.455338
0.455361
0.455383
0.455383
0.455406
0.455429
0.455452
0.455474
0.455474
0.455497
0.45552
0.455543
0.455566
0.455566
0.455589
0.455612
0.455635
0.455658
0.455658
0.455681
0.455704
0.455727
0.45575
0.45575
0.455774
0.455797
0.45582
0.455843
0.455843
0.455867
0.45589
0.455914
0.455937
0.455937
0.45596
0.455984
0.456008
0.456031
0.456031
0.456055
0.456078
0.456102
0.456126
0.456126
0.45615
0.456173
0.456197
0.456221
0.456221
0.456245
0.456269
0.456293
0.456317
0.456317
0.456341
0.456365
0.456389
0.456413
0.456413
0.456437
0.456461
0.456486
0.45651
0.45651
0.456534
0.456559
0.456583
0.456607
0.456607
0.456632
0.456656
0.456681
0.456705
0.456705
0.45673
0.456754
0.456779
0.456804
0.456804
0.456828
0.456853
0.456878
0.456903
0.456903
0.456927
0.456952
0.456977
0.457002
0.457002
0.457027
0.457052
0.457077
0.457102
0.457102
0.457127
0.457152
0.457178
0.457203
0.457203
0.457228
0.457253
0.457279
0.457304
0.457304
0.457329
0.457355
0.45738
0.457406
0.457406
0.457431
0.457457
0.457482
0.457508
0.457508
0.457534
0.457559
0.457585
0.457611
0.457611
0.457636
0.457662
0.457688
0.457714
0.457714
0.45774
0.457766
0.457792
0.457818
0.457818
0.457844
0.45787
0.457896
0.457922
0.457922
0.457948
0.457975
0.458001
0.458027
0.458027
0.458053
0.45808
0.458106
0.458133
0.458133
0.458159
0.458186
0.458212
0.458239
0.458239
0.458265
0.458292
0.458319
0.458345
0.458345
0.458372
0.458399
0.458425
0.458452
0.458452
0.458479
0.458506
0.458533
0.45856
0.45856
0.458587
0.458614
0.458641
0.458668
0.458668
0.458695
0.458722
0.45875
0.458777
0.458777
0.458804
0.458831
0.458859
0.458886
0.458886
0.458914
0.458941
0.458968
0.458996
0.458996
0.459024
0.459051
0.459079
0.459106
0.459106
0.459134
0.459162
0.459189
0.459217
0.459217
0.459245
0.459273
0.459301
0.459329
0.459329
0.459357
0.459385
0.459413
0.459441
0.459441
0.459469
0.459497
0.459525
0.459553
0.459553
0.459581
0.45961
0.459638
0.459666
0.459666
0.459695
0.459723
0.459752
0.45978
0.45978
0.459808
0.459837
0.459866
0.459894
0.459894
0.459923
0.459951
0.45998
0.460009
0.460009
0.460038
0.460066
0.460095
0.460124
0.460124
0.460153
0.460182
0.460211
0.46024
0.46024
0.460269
0.460298
0.460327
0.460356
0.460356
0.460385
0.460415
0.460444
0.460473
0.460473
0.460503
0.460532
0.460561
0.460591
0.460591
0.46062
0.46065
0.460679
0.460709
0.460709
0.460738
0.460768
0.460798
0.460827
0.460827
0.460857
0.460887
0.460916
0.460946
0.460946
0.460976
0.461006
0.461036
0.461066
0.461066
0.461096
0.461126
0.461156
0.461186
0.461186
0.461216
0.461246
0.461277
0.461307
0.461307
0.461337
0.461367
0.461398
0.461428
0.461428
0.461459
0.461489
0.46152
0.46155
0.46155
0.461581
0.461611
0.461642
0.461672
0.461672
0.461703
0.461734
0.461765
0.461795
0.461795
0.461826
0.461857
0.461888
0.461919
0.461919
0.46195
0.461981
0.462012
0.462043
0.462043
0.462074
0.462105
0.462136
0.462167
0.462167
0.462199
0.46223
0.462261
0.462293
0.462293
0.462324
0.462355
0.462387
0.462418
0.462418
0.46245
0.462481
0.462513
0.462545
0.462545
0.462576
0.462608
0.46264
0.462671
0.462671
0.462703
0.462735
0.462767
0.462799
0.462799
0.462831
0.462863
0.462895
0.462927
0.462927
0.462959
0.462991
0.463023
0.463055
0.463055
0.463087
0.463119
0.463152
0.463184
0.463184
0.463216
0.463249
0.463281
0.463314
0.463314
0.463346
0.463378
0.463411
0.463444
0.463444
0.463476
0.463509
0.463542
0.463574
0.463574
0.463607
0.46364
0.463673
0.463705
0.463705
0.463738
0.463771
0.463804
0.463837
0.463837
0.46387
0.463903
0.463936
0.46397
0.46397
0.464003
0.464036
0.464069
0.464102
0.464102
0.464136
0.464169
0.464202
0.464236
0.464236
0.464269
0.464303
0.464336
0.46437
0.46437
0.464403
0.464437
0.464471
0.464504
0.464504
0.464538
0.464572
0.464606
0.464639
0.464639
0.464673
0.464707
0.464741
0.464775
0.464775
0.464809
0.464843
0.464877
0.464911
0.464911
0.464945
0.46498
0.465014
0.465048
0.465048
0.465082
0.465117
0.465151
0.465185
0.465185
0.46522
0.465254
0.465289
0.465323
0.465323
0.465358
0.465392
0.465427
0.465462
0.465462
0.465496
0.465531
0.465566
0.465601
0.465601
0.465635
0.46567
0.465705
0.46574
0.46574
0.465775
0.46581
0.465845
0.46588
0.46588
0.465915
0.46595
0.465986
0.466021
0.466021
0.466056
0.466091
0.466127
0.466162
0.466162
0.466197
0.466233
0.466268
0.466304
0.466304
0.466339
0.466375
0.46641
0.466446
0.466446
0.466482
0.466517
0.466553
0.466589
0.466589
0.466625
0.466661
0.466697
0.466732
0.466732
0.466768
0.466804
0.46684
0.466876
0.466876
0.466913
0.466949
0.466985
0.467021
0.467021
0.467057
0.467093
0.46713
0.467166
0.467166
0.467202
0.467239
0.467275
0.467312
0.467312
0.467348
0.467385
0.467421
0.467458
0.467458
0.467495
0.467531
0.467568
0.467605
0.467605
0.467642
0.467678
0.467715
0.467752
0.467752
0.467789
0.467826
0.467863
0.4679
0.4679
0.467937
0.467974
0.468011
0.468049
0.468049
0.468086
0.468123
0.46816
0.468198
0.468198
0.468235
0.468272
0.46831
0.468347
0.468347
0.468385
0.468422
0.46846
0.468497
0.468497
0.468535
0.468573
0.46861
0.468648
0.468648
0.468686
0.468724
0.468762
0.468799
0.468799
0.468837
0.468875
0.468913
0.468951
0.468951
0.468989
0.469027
0.469066
0.469104
0.469104
0.469142
0.46918
0.469218
0.469257
0.469257
0.469295
0.469333
0.469372
0.46941
0.46941
0.469449
0.469487
0.469526
0.469564
0.469564
0.469603
0.469642
0.46968
0.469719
0.469719
0.469758
0.469797
0.469835
0.469874
0.469874
0.469913
0.469952
0.469991
0.47003
0.47003
0.470069
0.470108
0.470147
0.470187
0.470187
0.470226
0.470265
0.470304
0.470344
0.470344
0.470383
0.470422
0.470462
0.470501
0.470501
0.470541
0.47058
0.47062
0.470659
0.470659
0.470699
0.470738
0.470778
0.470818
0.470818
0.470858
0.470897
0.470937
0.470977
0.470977
0.471017
0.471057
0.471097
0.471137
0.471137
0.471177
0.471217
0.471257
0.471297
0.471297
0.471337
0.471378
0.471418
0.471458
0.471458
0.471498
0.471539
0.471579
0.47162
0.47162
0.47166
0.471701
0.471741
0.471782
0.471782
0.471822
0.471863
0.471904
0.471944
0.471944
0.471985
0.472026
0.472067
0.472107
0.472107
0.472148
0.472189
0.47223
0.472271
0.472271
0.472312
0.472353
0.472394
0.472436
0.472436
0.472477
0.472518
0.472559
0.472601
0.472601
0.472642
0.472683
0.472725
0.472766
0.472766
0.472807
0.472849
0.472891
0.472932
0.472932
0.472974
0.473015
0.473057
0.473099
0.473099
0.47314
0.473182
0.473224
0.473266
0.473266
0.473308
0.47335
0.473392
0.473434
0.473434
0.473476
0.473518
0.47356
0.473602
0.473602
0.473644
0.473686
0.473729
0.473771
0.473771
0.473813
0.473856
0.473898
0.473941
0.473941
0.473983
0.474025
0.474068
0.474111
0.474111
0.474153
0.474196
0.474239
0.474281
0.474281
0.474324
0.474367
0.47441
0.474452
0.474452
0.474495
0.474538
0.474581
0.474624
0.474624
0.474667
0.47471
0.474754
0.474797
0.474797
0.47484
0.474883
0.474926
0.47497
0.47497
0.475013
0.475056
0.4751
0.475143
0.475143
0.475187
0.47523
0.475274
0.475317
0.475317
0.475361
0.475405
0.475448
0.475492
0.475492
0.475536
0.47558
0.475623
0.475667
0.475667
0.475711
0.475755
0.475799
0.475843
0.475843
0.475887
0.475931
0.475975
0.476019
0.476019
0.476064
0.476108
0.476152
0.476197
0.476197
0.476241
0.476285
0.47633
0.476374
0.476374
0.476419
0.476463
0.476508
0.476552
0.476552
0.476597
0.476642
0.476686
0.476731
0.476731
0.476776
0.476821
0.476865
0.47691
0.47691
0.476955
0.477
0.477045
0.47709
0.47709
0.477135
0.47718
0.477226
0.477271
0.477271
0.477316
0.477361
0.477406
0.477452
0.477452
0.477497
0.477543
0.477588
0.477633
0.477633
0.477679
0.477724
0.47777
0.477816
0.477816
0.477861
0.477907
0.477953
0.477998
0.477998
0.478044
0.47809
0.478136
0.478182
0.478182
0.478228
0.478274
0.47832
0.478366
0.478366
0.478412
0.478458
0.478504
0.47855
0.47855
0.478597
0.478643
0.478689
0.478736
0.478736
0.478782
0.478828
0.478875
0.478921
0.478921
0.478968
0.479014
0.479061
0.479108
0.479108
0.479154
0.479201
0.479248
0.479295
0.479295
0.479341
0.479388
0.479435
0.479482
0.479482
0.479529
0.479576
0.479623
0.47967
0.47967
0.479717
0.479764
0.479812
0.479859
0.479859
0.479906
0.479953
0.480001
0.480048
0.480048
0.480095
0.480143
0.48019
0.480238
0.480238
0.480285
0.480333
0.480381
0.480428
0.480428
0.480476
0.480524
0.480572
0.480619
0.480619
0.480667
0.480715
0.480763
0.480811
0.480811
0.480859
0.480907
0.480955
0.481003
0.481003
0.481051
0.4811
0.481148
0.481196
0.481196
0.481244
0.481293
0.481341
0.481389
0.481389
0.481438
0.481486
0.481535
0.481583
0.481583
0.481632
0.481681
0.481729
0.481778
0.481778
0.481827
0.481875
0.481924
0.481973
0.481973
0.482022
0.482071
0.48212
0.482169
0.482169
0.482218
0.482267
0.482316
0.482365
0.482365
0.482414
0.482464
0.482513
0.482562
0.482562
0.482611
0.482661
0.48271
0.48276
0.48276
0.482809
0.482859
0.482908
0.482958
0.482958
0.483007
0.483057
0.483107
0.483156
0.483156
0.483206
0.483256
0.483306
0.483356
0.483356
0.483406
0.483456
0.483506
0.483556
0.483556
0.483606
0.483656
0.483706
0.483756
0.483756
0.483806
0.483857
0.483907
0.483957
0.483957
0.484008
0.484058
0.484108
0.484159
0.484159
0.484209
0.48426
0.484311
0.484361
0.484361
0.484412
0.484463
0.484513
0.484564
0.484564
0.484615
0.484666
0.484717
0.484768
0.484768
0.484819
0.48487
0.484921
0.484972
0.484972
0.485023
0.485074
0.485125
0.485176
0.485176
0.485228
0.485279
0.48533
0.485382
0.485382
0.485433
0.485485
0.485536
0.485588
0.485588
0.485639
0.485691
0.485742
0.485794
0.485794
0.485846
0.485898
0.485949
0.486001
0.486001
0.486053
0.486105
0.486157
0.486209
0.486209
0.486261
0.486313
0.486365
0.486417
0.486417
0.486469
0.486521
0.486574
0.486626
0.486626
0.486678
0.486731
0.486783
0.486836
0.486836
0.486888
0.48694
0.486993
0.487046
0.487046
0.487098
0.487151
0.487204
0.487256
0.487256
0.487309
0.487362
0.487415
0.487468
0.487468
0.487521
0.487573
0.487626
0.48768
0.48768
0.487733
0.487786
0.487839
0.487892
0.487892
0.487945
0.487999
0.488052
0.488105
0.488105
0.488159
0.488212
0.488265
0.488319
0.488319
0.488372
0.488426
0.48848
0.488533
0.488533
0.488587
0.488641
0.488694
0.488748
0.488748
0.488802
0.488856
0.48891
0.488964
0.488964
0.489018
0.489072
0.489126
0.48918
0.48918
0.489234
0.489288
0.489342
0.489397
0.489397
0.489451
0.489505
0.48956
0.489614
0.489614
0.489668
0.489723
0.489777
0.489832
0.489832
0.489887
0.489941
0.489996
0.490051
0.490051
0.490105
0.49016
0.490215
0.49027
0.49027
0.490325
0.49038
0.490435
0.49049
0.49049
0.490545
0.4906
0.490655
0.49071
0.49071
0.490765
0.490821
0.490876
0.490931
0.490931
0.490986
0.491042
0.491097
0.491153
0.491153
0.491208
0.491264
0.491319
0.491375
0.491375
0.491431
0.491486
0.491542
0.491598
0.491598
0.491654
0.49171
0.491765
0.491821
0.491821
0.491877
0.491933
0.491989
0.492046
0.492046
0.492102
0.492158
0.492214
0.49227
0.49227
0.492327
0.492383
0.492439
0.492496
0.492496
0.492552
0.492608
0.492665
0.492722
0.492722
0.492778
0.492835
0.492891
0.492948
0.492948
0.493005
0.493062
0.493118
0.493175
0.493175
0.493232
0.493289
0.493346
0.493403
0.493403
0.49346
0.493517
0.493574
0.493632
0.493632
0.493689
0.493746
0.493803
0.493861
0.493861
0.493918
0.493975
0.494033
0.49409
0.49409
0.494148
0.494205
0.494263
0.494321
0.494321
0.494378
0.494436
0.494494
0.494551
0.494551
0.494609
0.494667
0.494725
0.494783
0.494783
0.494841
0.494899
0.494957
0.495015
0.495015
0.495073
0.495131
0.49519
0.495248
0.495248
0.495306
0.495365
0.495423
0.495481
0.495481
0.49554
0.495598
0.495657
0.495715
0.495715
0.495774
0.495833
0.495891
0.49595
0.49595
0.496009
0.496068
0.496126
0.496185
0.496185
0.496244
0.496303
0.496362
0.496421
0.496421
0.49648
0.496539
0.496599
0.496658
0.496658
0.496717
0.496776
0.496836
0.496895
0.496895
0.496954
0.497014
0.497073
0.497133
0.497133
0.497192
0.497252
0.497311
0.497371
0.497371
0.497431
0.49749
0.49755
0.49761
0.49761
0.49767
0.49773
0.49779
0.49785
0.49785
0.49791
0.49797
0.49803
0.49809
0.49809
0.49815
0.49821
0.498271
0.498331
0.498331
0.498391
0.498452
0.498512
0.498572
0.498572
0.498633
0.498694
0.498754
0.498815
0.498815
0.498875
0.498936
0.498997
0.499057
0.499057
0.499118
0.499179
0.49924
0.499301
0.499301
0.499362
0.499423
0.499484
0.499545
0.499545
0.499606
0.499667
0.499728
0.49979
0.49979
0.499851
0.499912
0.499974
0.500035
0.500035
0.500097
0.500158
0.50022
0.500281
0.500281
0.500343
0.500404
0.500466
0.500528
0.500528
0.500589
0.500651
0.500713
0.500775
0.500775
0.500837
0.500899
0.500961
0.501023
0.501023
0.501085
0.501147
0.501209
0.501271
0.501271
0.501334
0.501396
0.501458
0.501521
0.501521
0.501583
0.501645
0.501708
0.50177
0.50177
0.501833
0.501895
0.501958
0.502021
0.502021
0.502083
0.502146
0.502209
0.502272
0.502272
0.502335
0.502398
0.502461
0.502524
0.502524
0.502587
0.50265
0.502713
0.502776
0.502776
0.502839
0.502902
0.502966
0.503029
0.503029
0.503092
0.503156
0.503219
0.503283
0.503283
0.503346
0.50341
0.503473
0.503537
0.503537
0.503601
0.503664
0.503728
0.503792
0.503792
0.503856
0.503919
0.503983
0.504047
0.504047
0.504111
0.504175
0.504239
0.504304
0.504304
0.504368
0.504432
0.504496
0.50456
0.50456
0.504625
0.504689
0.504754
0.504818
0.504818
0.504882
0.504947
0.505012
0.505076
0.505076
0.505141
0.505205
0.50527
0.505335
0.505335
0.5054
0.505465
0.505529
0.505594
0.505594
0.505659
0.505724
0.505789
0.505854
0.505854
0.50592
0.505985
0.50605
0.506115
0.506115
0.506181
0.506246
0.506311
0.506377
0.506377
0.506442
0.506508
0.506573
0.506639
0.506639
0.506704
0.50677
0.506836
0.506901
0.506901
0.506967
0.507033
0.507099
0.507165
0.507165
0.507231
0.507297
0.507363
0.507429
0.507429
0.507495
0.507561
0.507627
0.507693
0.507693
0.50776
0.507826
0.507892
0.507959
0.507959
0.508025
0.508092
0.508158
0.508225
0.508225
0.508291
0.508358
0.508425
0.508491
0.508491
0.508558
0.508625
0.508692
0.508759
0.508759
0.508826
0.508892
0.508959
0.509027
0.509027
0.509094
0.509161
0.509228
0.509295
0.509295
0.509362
0.50943
0.509497
0.509564
0.509564
0.509632
0.509699
0.509767
0.509834
0.509834
0.509902
0.509969
0.510037
0.510105
0.510105
0.510173
0.51024
0.510308
0.510376
0.510376
0.510444
0.510512
0.51058
0.510648
0.510648
0.510716
0.510784
0.510852
0.510921
0.510921
0.510989
0.511057
0.511125
0.511194
0.511194
0.511262
0.511331
0.511399
0.511468
0.511468
0.511536
0.511605
0.511673
0.511742
0.511742
0.511811
0.51188
0.511948
0.512017
0.512017
0.512086
0.512155
0.512224
0.512293
0.512293
0.512362
0.512431
0.512501
0.51257
0.51257
0.512639
0.512708
0.512778
0.512847
0.512847
0.512916
0.512986
0.513055
0.513125
0.513125
0.513194
0.513264
0.513334
0.513403
0.513403
0.513473
0.513543
0.513613
0.513683
0.513683
0.513752
0.513822
0.513892
0.513962
0.513962
0.514032
0.514103
0.514173
0.514243
0.514243
0.514313
0.514383
0.514454
0.514524
0.514524
0.514595
0.514665
0.514736
0.514806
0.514806
0.514877
0.514947
0.515018
0.515089
0.515089
0.515159
0.51523
0.515301
0.515372
0.515372
0.515443
0.515514
0.515585
0.515656
0.515656
0.515727
0.515798
0.515869
0.51594
0.51594
0.516012
0.516083
0.516154
0.516226
0.516226
0.516297
0.516368
0.51644
0.516512
0.516512
0.516583
0.516655
0.516726
0.516798
0.516798
0.51687
0.516942
0.517014
0.517085
0.517085
0.517157
0.517229
0.517301
0.517373
0.517373
0.517445
0.517518
0.51759
0.517662
0.517662
0.517734
0.517807
0.517879
0.517951
0.517951
0.518024
0.518096
0.518169
0.518241
0.518241
0.518314
0.518387
0.518459
0.518532
0.518532
0.518605
0.518678
0.51875
0.518823
0.518823
0.518896
0.518969
0.519042
0.519115
0.519115
0.519189
0.519262
0.519335
0.519408
0.519408
0.519481
0.519555
0.519628
0.519702
0.519702
0.519775
0.519849
0.519922
0.519996
0.519996
0.520069
0.520143
0.520217
0.52029
0.52029
0.520364
0.520438
0.520512
0.520586
0.520586
0.52066
0.520734
0.520808
0.520882
0.520882
0.520956
0.52103
0.521105
0.521179
0.521179
0.521253
0.521328
0.521402
0.521476
0.521476
0.521551
0.521626
0.5217
0.521775
0.521775
0.521849
0.521924
0.521999
0.522074
0.522074
0.522148
0.522223
0.522298
0.522373
0.522373
0.522448
0.522523
0.522598
0.522674
0.522674
0.522749
0.522824
0.522899
0.522975
0.522975
0.52305
0.523125
0.523201
0.523276
0.523276
0.523352
0.523427
0.523503
0.523579
0.523579
0.523654
0.52373
0.523806
0.523882
0.523882
0.523958
0.524034
0.524109
0.524185
0.524185
0.524262
0.524338
0.524414
0.52449
0.52449
0.524566
0.524642
0.524719
0.524795
0.524795
0.524872
0.524948
0.525024
0.525101
0.525101
0.525178
0.525254
0.525331
0.525408
0.525408
0.525484
0.525561
0.525638
0.525715
0.525715
0.525792
0.525869
0.525946
0.526023
0.526023
0.5261
0.526177
0.526254
0.526332
0.526332
0.526409
0.526486
0.526563
0.526641
0.526641
0.526718
0.526796
0.526873
0.526951
0.526951
0.527029
0.527106
0.527184
0.527262
0.527262
0.52734
0.527417
0.527495
0.527573
0.527573
0.527651
0.527729
0.527807
0.527885
0.527885
0.527964
0.528042
0.52812
0.528198
0.528198
0.528277
0.528355
0.528434
0.528512
0.528512
0.528591
0.528669
0.528748
0.528826
0.528826
0.528905
0.528984
0.529063
0.529141
0.529141
0.52922
0.529299
0.529378
0.529457
0.529457
0.529536
0.529615
0.529694
0.529774
0.529774
0.529853
0.529932
0.530011
0.530091
0.530091
0.53017
0.53025
0.530329
0.530409
0.530409
0.530488
0.530568
0.530648
0.530727
0.530727
0.530807
0.530887
0.530967
0.531047
0.531047
0.531127
0.531207
0.531287
0.531367
0.531367
0.531447
0.531527
0.531607
0.531687
0.531687
0.531768
0.531848
0.531928
0.532009
0.532009
0.532089
0.53217
0.53225
0.532331
0.532331
0.532412
0.532492
0.532573
0.532654
0.532654
0.532735
0.532816
0.532897
0.532978
0.532978
0.533059
0.53314
0.533221
0.533302
0.533302
0.533383
0.533464
0.533546
0.533627
0.533627
0.533708
0.53379
0.533871
0.533953
0.533953
0.534034
0.534116
0.534198
0.534279
0.534279
0.534361
0.534443
0.534525
0.534607
0.534607
0.534689
0.534771
0.534853
0.534935
0.534935
0.535017
0.535099
0.535181
0.535263
0.535263
0.535346
0.535428
0.53551
0.535593
0.535593
0.535675
0.535758
0.53584
0.535923
0.535923
0.536006
0.536088
0.536171
0.536254
0.536254
0.536337
0.53642
0.536502
0.536585
0.536585
0.536668
0.536752
0.536835
0.536918
0.536918
0.537001
0.537084
0.537168
0.537251
0.537251
0.537334
0.537418
0.537501
0.537585
0.537585
0.537668
0.537752
0.537836
0.537919
0.537919
0.538003
0.538087
0.538171
0.538255
0.538255
0.538339
0.538422
0.538507
0.538591
0.538591
0.538675
0.538759
0.538843
0.538927
0.538927
0.539012
0.539096
0.53918
0.539265
0.539265
0.539349
0.539434
0.539519
0.539603
0.539603
0.539688
0.539773
0.539857
0.539942
0.539942
0.540027
0.540112
0.540197
0.540282
0.540282
0.540367
0.540452
0.540537
0.540622
0.540622
0.540708
0.540793
0.540878
0.540964
0.540964
0.541049
0.541134
0.54122
0.541306
0.541306
0.541391
0.541477
0.541563
0.541648
0.541648
0.541734
0.54182
0.541906
0.541992
0.541992
0.542078
0.542164
0.54225
0.542336
0.542336
0.542422
0.542508
0.542595
0.542681
0.542681
0.542767
0.542854
0.54294
0.543027
0.543027
0.543113
0.5432
0.543286
0.543373
0.543373
0.54346
0.543547
0.543633
0.54372
0.54372
0.543807
0.543894
0.543981
0.544068
0.544068
0.544155
0.544243
0.54433
0.544417
0.544417
0.544504
0.544592
0.544679
0.544766
0.544766
0.544854
0.544941
0.545029
0.545117
0.545117
0.545204
0.545292
0.54538
0.545468
0.545468
0.545556
0.545643
0.545731
0.545819
0.545819
0.545907
0.545996
0.546084
0.546172
0.546172
0.54626
0.546348
0.546437
0.546525
0.546525
0.546614
0.546702
0.546791
0.546879
0.546879
0.546968
0.547057
0.547145
0.547234
0.547234
0.547323
0.547412
0.547501
0.54759
0.54759
0.547679
0.547768
0.547857
0.547946
0.547946
0.548035
0.548124
0.548214
0.548303
0.548303
0.548392
0.548482
0.548571
0.548661
0.548661
0.54875
0.54884
0.54893
0.54902
0.54902
0.549109
0.549199
0.549289
0.549379
0.549379
0.549469
0.549559
0.549649
0.549739
0.549739
0.549829
0.549919
0.55001
0.5501
0.5501
0.55019
0.550281
0.550371
0.550462
0.550462
0.550552
0.550643
0.550733
0.550824
0.550824
0.550915
0.551006
0.551097
0.551187
0.551187
0.551278
0.551369
0.55146
0.551551
0.551551
0.551643
0.551734
0.551825
0.551916
0.551916
0.552008
0.552099
0.55219
0.552282
0.552282
0.552373
0.552465
0.552557
0.552648
0.552648
0.55274
0.552832
0.552924
0.553015
0.553015
0.553107
0.553199
0.553291
0.553383
0.553383
0.553475
0.553568
0.55366
0.553752
0.553752
0.553844
0.553937
0.554029
0.554122
0.554122
0.554214
0.554307
0.554399
0.554492
0.554492
0.554585
0.554677
0.55477
0.554863
0.554863
0.554956
0.555049
0.555142
0.555235
0.555235
0.555328
0.555421
0.555514
0.555607
0.555607
0.555701
0.555794
0.555887
0.555981
0.555981
0.556074
0.556168
0.556261
0.556355
0.556355
0.556449
0.556542
0.556636
0.55673
0.55673
0.556824
0.556918
0.557012
0.557106
0.557106
0.5572
0.557294
0.557388
0.557482
0.557482
0.557577
0.557671
0.557765
0.55786
0.55786
0.557954
0.558049
0.558143
0.558238
0.558238
0.558333
0.558427
0.558522
0.558617
0.558617
0.558712
0.558807
0.558902
0.558996
0.558996
0.559091
0.559186
0.55928
0.559375
0.559375
0.559469
0.559561
0.559652
0.55974
0.55974
0.559827
0.559902
0.559965
0.560016
0.560016
0.560043
0.560067
0.560089
0.560107
0.560107
0.560128
0.560147
0.560167
0.560187
0.560187
0.560206
0.560225
0.560244
0.560262
0.560262
0.56028
0.560295
0.560308
0.560319
0.560319
0.560324
0.560326
0.560327
0.560326
0.560326
0.560325
0.560324
0.560323
0.560322
0.560322
0.560321
0.56032
0.560319
0.560318
0.560318
0.560316
0.560315
0.560314
0.560312
0.560312
0.560311
0.560309
0.560308
0.560306
0.560306
0.560305
0.560303
0.560302
0.5603
0.5603
0.560298
0.560297
0.560295
0.560294
0.560294
0.560292
0.560291
0.560289
0.560288
0.560288
0.560287
0.560286
0.560285
0.560285
0.560285
0.560285
0.560284
0.560284
0.560283
0.560283
0.560283
0.560283
0.560282
0.560282
0.560282
0.560282
0.560281
0.560281
0.560281
0.560281
0.560281
0.560281
0.560281
0.560281
0.560281
0.560281
0.560281
0.560281
0.560281
0.560281
0.560281
0.560281
0.560281
0.560281
0.560281
0.560281
0.560281
0.560281
0.560281
0.560281
0.560281
0.560281
0.560281
0.560281
0.560281
0.560281
0.560282
0.560282
0.560282
0.560282
0.560282
0.560282
0.560282
0.560282
0.560282
0.560282
0.560282
0.560282
0.560282
0.560282
0.560282
0.560282
0.560282
0.560282
0.560282
0.560283
0.560283
0.560283
0.560283
0.560283
0.560283
0.560283
0.560283
0.560283
0.560283
0.560283
0.560283
0.560283
0.560283
0.560283
0.560283
0.560283
0.560283
0.560283
0.560283
0.560283
0.560283
0.560283
0.560283
0.560283
0.560283
0.560283
0.560284
0.560284
0.560284
0.560284
0.560284
0.560284
0.560284
0.560284
0.560284
0.560284
0.560284
0.560284
0.560284
0.560284
0.560284
0.560284
0.560284