<?xml version="1.0"?>
<VTKFile type="UnstructuredGrid" version="0.1" byte_order="LittleEndian">
<UnstructuredGrid>
<Piece NumberOfPoints="5000" NumberOfCells="4000">
<PointData Scalars="Reaction 0">
<DataArray type="Float32" Name="Reaction 0" format="ascii">
0.563147
0.563147
0.563147
0.563147
0.563147
0.563147
0.563147
0.563147
0.563147
0.563147
0.563147
0.563147
0.563147
0.563147
0.563147
0.563147
0.563147
0.563147
0.563147
0.563147
0.563147
0.563147
0.563147
0.563147
0.563147
0.563147
0.563148
0.563148
0.563148
0.563148
0.563148
0.563148
0.563148
0.563148
0.563148
0.563148
0.563148
0.563148
0.563148
0.563148
0.563148
0.563148
0.563148
0.563148
0.563148
0.563148
0.563148
0.563148
0.563148
0.563148
0.563148
0.563148
0.563148
0.563148
0.563148
0.563148
0.563149
0.563149
0.563149
0.563149
0.563149
0.563149
0.563149
0.563149
0.563149
0.563149
0.563149
0.563149
0.563149
0.563149
0.563149
0.563149
0.563149
0.563149
0.56315
0.56315
0.56315
0.56315
0.56315
0.56315
0.56315
0.56315
0.56315
0.56315
0.56315
0.56315
0.56315
0.56315
0.563151
0.563151
0.563151
0.563151
0.563151
0.563151
0.563151
0.563151
0.563151
0.563151
0.563151
0.563151
0.563151
0.563152
0.563152
0.563152
0.563152
0.563152
0.563152
0.563152
0.563152
0.563152
0.563152
0.563152
0.563153
0.563153
0.563153
0.563153
0.563153
0.563153
0.563153
0.563153
0.563153
0.563153
0.563153
0.563154
0.563154
0.563154
0.563154
0.563154
0.563154
0.563154
0.563154
0.563154
0.563155
0.563155
0.563155
0.563155
0.563155
0.563155
0.563155
0.563155
0.563155
0.563156
0.563156
0.563156
0.563156
0.563156
0.563156
0.563156
0.563156
0.563157
0.563157
0.563157
0.563157
0.563157
0.563157
0.563157
0.563157
0.563158
0.563158
0.563158
0.563158
0.563158
0.563158
0.563158
0.563159
0.563159
0.563159
0.563159
0.563159
0.563159
0.563159
0.563159
0.56316
0.56316
0.56316
0.56316
0.56316
0.56316
0.563161
0.563161
0.563161
0.563161
0.563161
0.563161
0.563162
0.563162
0.563162
0.563162
0.563162
0.563162
0.563162
0.563163
0.563163
0.563163
0.563163
0.563163
0.563163
0.563164
0.563164
0.563164
0.563164
0.563164
0.563164
0.563165
0.563165
0.563165
0.563165
0.563165
0.563165
0.563166
0.563166
0.563166
0.563166
0.563166
0.563167
0.563167
0.563167
0.563167
0.563167
0.563167
0.563167
0.563168
0.563168
0.563168
0.563168
0.563168
0.563169
0.563169
0.563169
0.563169
0.563169
0.56317
0.56317
0.56317
0.56317
0.56317
0.563171
0.563171
0.563171
0.563171
0.563171
0.563172
0.563172
0.563172
0.563172
0.563172
0.563173
0.563173
0.563173
0.563173
0.563173
0.563174
0.563174
0.563174
0.563174
0.563174
0.563175
0.563175
0.563175
0.563176
0.563176
0.563176
0.563176
0.563176
0.563177
0.563177
0.563177
0.563177
0.563178
0.563178
0.563178
0.563178
0.563178
0.563179
0.563179
0.563179
0.563179
0.56318
0.56318
0.56318
0.56318
0.56318
0.563181
0.563181
0.563181
0.563181
0.563182
0.563182
0.563182
0.563183
0.563183
0.563183
0.563183
0.563183
0.563184
0.563184
0.563184
0.563184
0.563185
0.563185
0.563185
0.563185
0.563186
0.563186
0.563186
0.563186
0.563187
0.563187
0.563187
0.563188
0.563188
0.563188
0.563188
0.563189
0.563189
0.563189
0.563189
0.56319
0.56319
0.56319
0.56319
0.563191
0.563191
0.563191
0.563192
0.563192
0.563192
0.563192
0.563193
0.563193
0.563193
0.563193
0.563194
0.563194
0.563195
0.563195
0.563195
0.563195
0.563196
0.563196
0.563196
0.563196
0.563197
0.563197
0.563197
0.563197
0.563198
0.563198
0.563199
0.563199
0.563199
0.563199
0.5632
0.5632
0.5632
0.5632
0.563201
0.563201
0.563202
0.563202
0.563202
0.563202
0.563203
0.563203
0.563203
0.563203
0.563204
0.563204
0.563205
0.563205
0.563205
0.563205
0.563206
0.563206
0.563207
0.563207
0.563207
0.563207
0.563208
0.563208
0.563208
0.563209
0.563209
0.563209
0.56321
0.56321
0.56321
0.563211
0.563211
0.563212
0.563212
0.563212
0.563212
0.563213
0.563213
0.563213
0.563214
0.563214
0.563215
0.563215
0.563215
0.563215
0.563216
0.563216
0.563217
0.563217
0.563217
0.563218
0.563218
0.563218
0.563218
0.563219
0.563219
0.56322
0.56322
0.56322
0.563221
0.563221
0.563222
0.563222
0.563222
0.563222
0.563223
0.563223
0.563224
0.563224
0.563224
0.563225
0.563225
0.563226
0.563226
0.563226
0.563227
0.563227
0.563228
0.563228
0.563228
0.563228
0.563229
0.563229
0.563229
0.56323
0.56323
0.563231
0.563231
0.563231
0.563232
0.563232
0.563233
0.563233
0.563233
0.563234
0.563234
0.563235
0.563235
0.563235
0.563236
0.563236
0.563237
0.563237
0.563237
0.563238
0.563238
0.563239
0.563239
0.563239
0.56324
0.56324
0.563241
0.563241
0.563241
0.563242
0.563242
0.563243
0.563243
0.563243
0.563244
0.563244
0.563245
0.563245
0.563245
0.563246
0.563246
0.563247
0.563248
0.563248
0.563248
0.563249
0.563249
0.56325
0.56325
0.56325
0.563251
0.563251
0.563252
0.563252
0.563252
0.563253
0.563253
0.563254
0.563254
0.563255
0.563255
0.563256
0.563256
0.563256
0.563257
0.563257
0.563258
0.563258
0.563258
0.563259
0.563259
0.56326
0.563261
0.563261
0.563261
0.563262
0.563262
0.563263
0.563263
0.563263
0.563264
0.563265
0.563265
0.563265
0.563266
0.563266
0.563267
0.563267
0.563267
0.563268
0.563269
0.563269
0.56327
0.56327
0.56327
0.563271
0.563272
0.563272
0.563272
0.563273
0.563273
0.563274
0.563275
0.563275
0.563275
0.563276
0.563276
0.563277
0.563277
0.563278
0.563278
0.563279
0.56328
0.56328
0.56328
0.563281
0.563281
0.563282
0.563282
0.563283
0.563283
0.563284
0.563284
0.563284
0.563285
0.563286
0.563286
0.563287
0.563287
0.563288
0.563288
0.563289
0.56329
0.56329
0.56329
0.563291
0.563291
0.563292
0.563292
0.563293
0.563293
0.563294
0.563295
0.563295
0.563295
0.563296
0.563297
0.563297
0.563297
0.563298
0.563299
0.563299
0.5633
0.5633
0.563301
0.563301
0.563302
0.563303
0.563303
0.563303
0.563304
0.563305
0.563305
0.563305
0.563306
0.563307
0.563307
0.563308
0.563308
0.563309
0.563309
0.56331
0.563311
0.563311
0.563311
0.563312
0.563313
0.563314
0.563314
0.563314
0.563315
0.563316
0.563316
0.563316
0.563317
0.563318
0.563318
0.563319
0.563319
0.56332
0.563321
0.563321
0.563322
0.563322
0.563323
0.563323
0.563324
0.563325
0.563325
0.563326
0.563326
0.563327
0.563328
0.563328
0.563329
0.563329
0.56333
0.563331
0.563331
0.563331
0.563332
0.563333
0.563334
0.563334
0.563334
0.563335
0.563336
0.563337
0.563337
0.563337
0.563338
0.563339
0.56334
0.56334
0.56334
0.563341
0.563342
0.563343
0.563343
0.563343
0.563344
0.563345
0.563346
0.563346
0.563347
0.563347
0.563348
0.563349
0.563349
0.56335
0.56335
0.563351
0.563352
0.563352
0.563353
0.563354
0.563354
0.563355
0.563355
0.563356
0.563357
0.563358
0.563358
0.563358
0.563359
0.56336
0.563361
0.563362
0.563362
0.563362
0.563363
0.563364
0.563365
0.563365
0.563366
0.563366
0.563367
0.563368
0.563368
0.563369
0.56337
0.56337
0.563371
0.563371
0.563372
0.563373
0.563374
0.563375
0.563375
0.563375
0.563376
0.563377
0.563378
0.563378
0.563379
0.56338
0.56338
0.563381
0.563381
0.563382
0.563383
0.563384
0.563385
0.563385
0.563385
0.563386
0.563387
0.563388
0.563388
0.563389
0.56339
0.563391
0.563392
0.563392
0.563392
0.563393
0.563394
0.563395
0.563395
0.563396
0.563397
0.563398
0.563399
0.563399
0.563399
0.5634
0.563401
0.563402
0.563402
0.563403
0.563404
0.563405
0.563406
0.563406
0.563407
0.563407
0.563408
0.563409
0.563409
0.56341
0.563411
0.563412
0.563413
0.563413
0.563414
0.563415
0.563416
0.563416
0.563416
0.563417
0.563418
0.563419
0.56342
0.56342
0.563421
0.563422
0.563423
0.563424
0.563424
0.563425
0.563426
0.563427
0.563428
0.563428
0.563429
0.563429
0.56343
0.563431
0.563431
0.563432
0.563433
0.563434
0.563435
0.563435
0.563436
0.563437
0.563438
0.563439
0.563439
0.56344
0.563441
0.563442
0.563443
0.563443
0.563444
0.563445
0.563446
0.563447
0.563447
0.563448
0.563449
0.56345
0.563451
0.563451
0.563452
0.563453
0.563454
0.563455
0.563455
0.563456
0.563457
0.563458
0.563459
0.563459
0.56346
0.563461
0.563462
0.563463
0.563463
0.563464
0.563465
0.563466
0.563467
0.563467
0.563468
0.563469
0.56347
0.563471
0.563471
0.563472
0.563473
0.563474
0.563475
0.563475
0.563476
0.563477
0.563478
0.563479
0.563479
0.56348
0.563481
0.563482
0.563483
0.563483
0.563484
0.563485
0.563486
0.563487
0.563487
0.563488
0.563489
0.56349
0.563491
0.563491
0.563493
0.563494
0.563495
0.563496
0.563496
0.563497
0.563498
0.563499
0.5635
0.5635
0.563501
0.563502
0.563503
0.563504
0.563504
0.563505
0.563506
0.563508
0.563509
0.563509
0.56351
0.563511
0.563512
0.563513
0.563513
0.563514
0.563515
0.563516
0.563518
0.563518
0.563519
0.56352
0.563521
0.563522
0.563522
0.563523
0.563524
0.563525
0.563526
0.563526
0.563528
0.563529
0.56353
0.563531
0.563531
0.563532
0.563533
0.563534
0.563536
0.563536
0.563537
0.563538
0.563539
0.56354
0.56354
0.563541
0.563542
0.563544
0.563545
0.563545
0.563546
0.563547
0.563548
0.563549
0.563549
0.563551
0.563552
0.563553
0.563554
0.563554
0.563555
0.563556
0.563558
0.563559
0.563559
0.56356
0.563561
0.563562
0.563563
0.563563
0.563565
0.563566
0.563567
0.563568
0.563568
0.563569
0.563571
0.563572
0.563573
0.563573
0.563574
0.563576
0.563577
0.563578
0.563578
0.563579
0.56358
0.563582
0.563583
0.563583
0.563584
0.563585
0.563587
0.563588
0.563588
0.563589
0.56359
0.563592
0.563593
0.563593
0.563594
0.563595
0.563597
0.563598
0.563598
0.563599
0.5636
0.563602
0.563603
0.563603
0.563604
0.563605
0.563607
0.563608
0.563608
0.563609
0.56361
0.563612
0.563613
0.563613
0.563614
0.563615
0.563617
0.563618
0.563618
0.563619
0.563621
0.563622
0.563623
0.563623
0.563624
0.563626
0.563627
0.563628
0.563628
0.56363
0.563631
0.563632
0.563634
0.563634
0.563635
0.563636
0.563638
0.563639
0.563639
0.56364
0.563642
0.563643
0.563644
0.563644
0.563646
0.563647
0.563648
0.56365
0.56365
0.563651
0.563652
0.563654
0.563655
0.563655
0.563656
0.563658
0.563659
0.563661
0.563661
0.563662
0.563663
0.563665
0.563666
0.563666
0.563667
0.563669
0.56367
0.563671
0.563671
0.563673
0.563674
0.563676
0.563677
0.563677
0.563678
0.56368
0.563681
0.563683
0.563683
0.563684
0.563685
0.563687
0.563688
0.563688
0.56369
0.563691
0.563692
0.563694
0.563694
0.563695
0.563697
0.563698
0.5637
0.5637
0.563701
0.563702
0.563704
0.563705
0.563705
0.563707
0.563708
0.56371
0.563711
0.563711
0.563713
0.563714
0.563715
0.563717
0.563717
0.563718
0.56372
0.563721
0.563723
0.563723
0.563724
0.563726
0.563727
0.563729
0.563729
0.56373
0.563732
0.563733
0.563735
0.563735
0.563736
0.563738
0.563739
0.563741
0.563741
0.563742
0.563744
0.563745
0.563747
0.563747
0.563748
0.56375
0.563751
0.563753
0.563753
0.563754
0.563756
0.563757
0.563759
0.563759
0.56376
0.563762
0.563763
0.563765
0.563765
0.563766
0.563768
0.563769
0.563771
0.563771
0.563773
0.563774
0.563776
0.563777
0.563777
0.563779
0.56378
0.563782
0.563784
0.563784
0.563785
0.563787
0.563788
0.56379
0.56379
0.563791
0.563793
0.563795
0.563796
0.563796
0.563798
0.563799
0.563801
0.563803
0.563803
0.563804
0.563806
0.563807
0.563809
0.563809
0.563811
0.563812
0.563814
0.563816
0.563816
0.563817
0.563819
0.56382
0.563822
0.563822
0.563824
0.563825
0.563827
0.563829
0.563829
0.56383
0.563832
0.563833
0.563835
0.563835
0.563837
0.563838
0.56384
0.563842
0.563842
0.563844
0.563845
0.563847
0.563849
0.563849
0.56385
0.563852
0.563854
0.563855
0.563855
0.563857
0.563859
0.56386
0.563862
0.563862
0.563864
0.563866
0.563867
0.563869
0.563869
0.563871
0.563872
0.563874
0.563876
0.563876
0.563878
0.563879
0.563881
0.563883
0.563883
0.563885
0.563886
0.563888
0.56389
0.56389
0.563891
0.563893
0.563895
0.563897
0.563897
0.563898
0.5639
0.563902
0.563904
0.563904
0.563906
0.563907
0.563909
0.563911
0.563911
0.563913
0.563914
0.563916
0.563918
0.563918
0.56392
0.563922
0.563923
0.563925
0.563925
0.563927
0.563929
0.563931
0.563933
0.563933
0.563934
0.563936
0.563938
0.56394
0.56394
0.563942
0.563944
0.563945
0.563947
0.563947
0.563949
0.563951
0.563953
0.563955
0.563955
0.563956
0.563958
0.56396
0.563962
0.563962
0.563964
0.563966
0.563968
0.56397
0.56397
0.563971
0.563973
0.563975
0.563977
0.563977
0.563979
0.563981
0.563983
0.563985
0.563985
0.563986
0.563988
0.56399
0.563992
0.563992
0.563994
0.563996
0.563998
0.564
0.564
0.564002
0.564004
0.564006
0.564008
0.564008
0.56401
0.564012
0.564014
0.564016
0.564016
0.564018
0.564019
0.564021
0.564023
0.564023
0.564025
0.564027
0.564029
0.564031
0.564031
0.564033
0.564035
0.564037
0.564039
0.564039
0.564041
0.564043
0.564045
0.564047
0.564047
0.564049
0.564051
0.564053
0.564055
0.564055
0.564057
0.564059
0.564061
0.564063
0.564063
0.564065
0.564067
0.564069
0.564072
0.564072
0.564074
0.564076
0.564078
0.56408
0.56408
0.564082
0.564084
0.564086
0.564088
0.564088
0.56409
0.564092
0.564094
0.564096
0.564096
0.564099
0.564101
0.564103
0.564105
0.564105
0.564107
0.564109
0.564111
0.564113
0.564113
0.564115
0.564117
0.56412
0.564122
0.564122
0.564124
0.564126
0.564128
0.56413
0.56413
0.564132
0.564134
0.564137
0.564139
0.564139
0.564141
0.564143
0.564145
0.564147
0.564147
0.56415
0.564152
0.564154
0.564156
0.564156
0.564158
0.564161
0.564163
0.564165
0.564165
0.564167
0.564169
0.564172
0.564174
0.564174
0.564176
0.564178
0.564181
0.564183
0.564183
0.564185
0.564187
0.564189
0.564192
0.564192
0.564194
0.564196
0.564198
0.564201
0.564201
0.564203
0.564205
0.564207
0.56421
0.56421
0.564212
0.564214
0.564217
0.564219
0.564219
0.564221
0.564223
0.564226
0.564228
0.564228
0.56423
0.564233
0.564235
0.564237
0.564237
0.56424
0.564242
0.564244
0.564247
0.564247
0.564249
0.564251
0.564254
0.564256
0.564256
0.564258
0.564261
0.564263
0.564265
0.564265
0.564268
0.56427
0.564273
0.564275
0.564275
0.564277
0.56428
0.564282
0.564284
0.564284
0.564287
0.564289
0.564292
0.564294
0.564294
0.564296
0.564299
0.564301
0.564304
0.564304
0.564306
0.564309
0.564311
0.564313
0.564313
0.564316
0.564318
0.564321
0.564323
0.564323
0.564326
0.564328
0.564331
0.564333
0.564333
0.564336
0.564338
0.564341
0.564343
0.564343
0.564346
0.564348
0.564351
0.564353
0.564353
0.564356
0.564358
0.564361
0.564363
0.564363
0.564366
0.564368
0.564371
0.564373
0.564373
0.564376
0.564378
0.564381
0.564383
0.564383
0.564386
0.564389
0.564391
0.564394
0.564394
0.564396
0.564399
0.564401
0.564404
0.564404
0.564407
0.564409
0.564412
0.564415
0.564415
0.564417
0.56442
0.564422
0.564425
0.564425
0.564428
0.56443
0.564433
0.564436
0.564436
0.564438
0.564441
0.564444
0.564446
0.564446
0.564449
0.564451
0.564454
0.564457
0.564457
0.564459
0.564462
0.564465
0.564468
0.564468
0.56447
0.564473
0.564476
0.564478
0.564478
0.564481
0.564484
0.564486
0.564489
0.564489
0.564492
0.564495
0.564497
0.5645
0.5645
0.564503
0.564506
0.564509
0.564511
0.564511
0.564514
0.564517
0.56452
0.564522
0.564522
0.564525
0.564528
0.564531
0.564534
0.564534
0.564536
0.564539
0.564542
0.564545
0.564545
0.564548
0.564551
0.564553
0.564556
0.564556
0.564559
0.564562
0.564565
0.564568
0.564568
0.56457
0.564573
0.564576
0.564579
0.564579
0.564582
0.564585
0.564588
0.564591
0.564591
0.564594
0.564596
0.564599
0.564602
0.564602
0.564605
0.564608
0.564611
0.564614
0.564614
0.564617
0.56462
0.564623
0.564626
0.564626
0.564629
0.564632
0.564635
0.564638
0.564638
0.564641
0.564644
0.564647
0.56465
0.56465
0.564653
0.564656
0.564659
0.564662
0.564662
0.564665
0.564668
0.564671
0.564674
0.564674
0.564677
0.56468
0.564683
0.564686
0.564686
0.564689
0.564692
0.564695
0.564698
0.564698
0.564701
0.564704
0.564708
0.564711
0.564711
0.564714
0.564717
0.56472
0.564723
0.564723
0.564726
0.564729
0.564732
0.564736
0.564736
0.564739
0.564742
0.564745
0.564748
0.564748
0.564751
0.564754
0.564758
0.564761
0.564761
0.564764
0.564767
0.56477
0.564774
0.564774
0.564777
0.56478
0.564783
0.564786
0.564786
0.56479
0.564793
0.564796
0.564799
0.564799
0.564803
0.564806
0.564809
0.564813
0.564813
0.564816
0.564819
0.564822
0.564826
0.564826
0.564829
0.564832
0.564836
0.564839
0.564839
0.564842
0.564845
0.564849
0.564852
0.564852
0.564855
0.564859
0.564862
0.564865
0.564865
0.564869
0.564872
0.564876
0.564879
0.564879
0.564882
0.564886
0.564889
0.564893
0.564893
0.564896
0.564899
0.564903
0.564906
0.564906
0.56491
0.564913
0.564917
0.56492
0.56492
0.564923
0.564927
0.56493
0.564934
0.564934
0.564937
0.564941
0.564944
0.564948
0.564948
0.564951
0.564955
0.564958
0.564962
0.564962
0.564965
0.564969
0.564972
0.564976
0.564976
0.564979
0.564983
0.564987
0.56499
0.56499
0.564994
0.564997
0.565001
0.565005
0.565005
0.565008
0.565012
0.565015
0.565019
0.565019
0.565023
0.565026
0.56503
0.565033
0.565033
0.565037
0.565041
0.565044
0.565048
0.565048
0.565052
0.565055
0.565059
0.565063
0.565063
0.565066
0.56507
0.565074
0.565078
0.565078
0.565081
0.565085
0.565089
0.565092
0.565092
0.565096
0.5651
0.565104
0.565108
0.565108
0.565111
0.565115
0.565119
0.565123
0.565123
0.565127
0.56513
0.565134
0.565138
0.565138
0.565142
0.565146
0.565149
0.565153
0.565153
0.565157
0.565161
0.565165
0.565169
0.565169
0.565173
0.565176
0.56518
0.565184
0.565184
0.565188
0.565192
0.565196
0.5652
0.5652
0.565204
0.565208
0.565212
0.565216
0.565216
0.56522
0.565224
0.565228
0.565232
0.565232
0.565236
0.56524
0.565244
0.565248
0.565248
0.565252
0.565256
0.56526
0.565264
0.565264
0.565268
0.565272
0.565276
0.56528
0.56528
0.565284
0.565288
0.565292
0.565296
0.565296
0.5653
0.565304
0.565308
0.565313
0.565313
0.565317
0.565321
0.565325
0.565329
0.565329
0.565333
0.565337
0.565342
0.565346
0.565346
0.56535
0.565354
0.565358
0.565363
0.565363
0.565367
0.565371
0.565375
0.56538
0.56538
0.565384
0.565388
0.565392
0.565396
0.565396
0.565401
0.565405
0.565409
0.565414
0.565414
0.565418
0.565422
0.565427
0.565431
0.565431
0.565435
0.56544
0.565444
0.565448
0.565448
0.565453
0.565457
0.565461
0.565466
0.565466
0.56547
0.565475
0.565479
0.565483
0.565483
0.565488
0.565492
0.565497
0.565501
0.565501
0.565506
0.56551
0.565515
0.565519
0.565519
0.565523
0.565528
0.565532
0.565537
0.565537
0.565541
0.565546
0.565551
0.565555
0.565555
0.56556
0.565564
0.565569
0.565573
0.565573
0.565578
0.565583
0.565587
0.565592
0.565592
0.565596
0.565601
0.565606
0.56561
0.56561
0.565615
0.56562
0.565624
0.565629
0.565629
0.565634
0.565638
0.565643
0.565648
0.565648
0.565652
0.565657
0.565662
0.565666
0.565666
0.565671
0.565676
0.565681
0.565686
0.565686
0.56569
0.565695
0.5657
0.565705
0.565705
0.56571
0.565714
0.565719
0.565724
0.565724
0.565729
0.565734
0.565739
0.565744
0.565744
0.565748
0.565753
0.565758
0.565763
0.565763
0.565768
0.565773
0.565778
0.565783
0.565783
0.565788
0.565793
0.565798
0.565803
0.565803
0.565808
0.565813
0.565818
0.565823
0.565823
0.565828
0.565833
0.565838
0.565843
0.565843
0.565848
0.565853
0.565858
0.565863
0.565863
0.565868
0.565873
0.565879
0.565884
0.565884
0.565889
0.565894
0.565899
0.565904
0.565904
0.565909
0.565915
0.56592
0.565925
0.565925
0.56593
0.565935
0.565941
0.565946
0.565946
0.565951
0.565956
0.565962
0.565967
0.565967
0.565972
0.565978
0.565983
0.565988
0.565988
0.565994
0.565999
0.566004
0.56601
0.56601
0.566015
0.56602
0.566026
0.566031
0.566031
0.566036
0.566042
0.566047
0.566053
0.566053
0.566058
0.566064
0.566069
0.566074
0.566074
0.56608
0.566085
0.566091
0.566097
0.566097
0.566102
0.566108
0.566113
0.566119
0.566119
0.566124
0.56613
0.566135
0.566141
0.566141
0.566147
0.566152
0.566158
0.566163
0.566163
0.566169
0.566175
0.56618
0.566186
0.566186
0.566192
0.566197
0.566203
0.566209
0.566209
0.566215
0.56622
0.566226
0.566232
0.566232
0.566238
0.566243
0.566249
0.566255
0.566255
0.566261
0.566267
0.566272
0.566278
0.566278
0.566284
0.56629
0.566296
0.566302
0.566302
0.566308
0.566314
0.566319
0.566325
0.566325
0.566331
0.566337
0.566343
0.566349
0.566349
0.566355
0.566361
0.566367
0.566373
0.566373
0.566379
0.566385
0.566391
0.566397
0.566397
0.566404
0.56641
0.566416
0.566422
0.566422
0.566428
0.566434
0.56644
0.566446
0.566446
0.566453
0.566459
0.566465
0.566471
0.566471
0.566477
0.566484
0.56649
0.566496
0.566496
0.566502
0.566509
0.566515
0.566521
0.566521
0.566527
0.566534
0.56654
0.566546
0.566546
0.566553
0.566559
0.566566
0.566572
0.566572
0.566578
0.566585
0.566591
0.566598
0.566598
0.566604
0.566611
0.566617
0.566623
0.566623
0.56663
0.566636
0.566643
0.566649
0.566649
0.566656
0.566663
0.566669
0.566676
0.566676
0.566682
0.566689
0.566696
0.566702
0.566702
0.566709
0.566716
0.566722
0.566729
0.566729
0.566736
0.566742
0.566749
0.566756
0.566756
0.566763
0.566769
0.566776
0.566783
0.566783
0.56679
0.566796
0.566803
0.56681
0.56681
0.566817
0.566824
0.566831
0.566838
0.566838
0.566844
0.566851
0.566858
0.566865
0.566865
0.566872
0.566879
0.566886
0.566893
0.566893
0.5669
0.566907
0.566914
0.566921
0.566921
0.566928
0.566935
0.566943
0.56695
0.56695
0.566957
0.566964
0.566971
0.566978
0.566978
0.566985
0.566992
0.567
0.567007
0.567007
0.567014
0.567021
0.567029
0.567036
0.567036
0.567043
0.567051
0.567058
0.567065
0.567065
0.567073
0.56708
0.567087
0.567095
0.567095
0.567102
0.567109
0.567117
0.567124
0.567124
0.567132
0.567139
0.567147
0.567154
0.567154
0.567162
0.567169
0.567177
0.567184
0.567184
0.567192
0.567199
0.567207
0.567215
0.567215
0.567222
0.56723
0.567238
0.567245
0.567245
0.567253
0.567261
0.567268
0.567276
0.567276
0.567284
0.567292
0.567299
0.567307
0.567307
0.567315
0.567323
0.567331
0.567338
0.567338
0.567346
0.567354
0.567362
0.56737
0.56737
0.567378
0.567386
0.567394
0.567402
0.567402
0.56741
0.567418
0.567426
0.567434
0.567434
0.567442
0.56745
0.567458
0.567466
0.567466
0.567474
0.567482
0.567491
0.567499
0.567499
0.567507
0.567515
0.567523
0.567532
0.567532
0.56754
0.567548
0.567556
0.567565
0.567565
0.567573
0.567581
0.56759
0.567598
0.567598
0.567606
0.567615
0.567623
0.567632
0.567632
0.56764
0.567649
0.567657
0.567665
0.567665
0.567674
0.567683
0.567691
0.5677
0.5677
0.567708
0.567717
0.567725
0.567734
0.567734
0.567743
0.567751
0.56776
0.567769
0.567769
0.567778
0.567786
0.567795
0.567804
0.567804
0.567813
0.567821
0.56783
0.567839
0.567839
0.567848
0.567857
0.567866
0.567874
0.567874
0.567883
0.567892
0.567901
0.56791
0.56791
0.567919
0.567928
0.567937
0.567946
0.567946
0.567955
0.567965
0.567974
0.567983
0.567983
0.567992
0.568001
0.56801
0.568019
0.568019
0.568029
0.568038
0.568047
0.568056
0.568056
0.568066
0.568075
0.568084
0.568094
0.568094
0.568103
0.568112
0.568122
0.568131
0.568131
0.568141
0.56815
0.56816
0.568169
0.568169
0.568179
0.568188
0.568198
0.568207
0.568207
0.568217
0.568227
0.568236
0.568246
0.568246
0.568255
0.568265
0.568275
0.568285
0.568285
0.568294
0.568304
0.568314
0.568324
0.568324
0.568334
0.568343
0.568353
0.568363
0.568363
0.568373
0.568383
0.568393
0.568403
0.568403
0.568413
0.568423
0.568433
0.568443
0.568443
0.568453
0.568463
0.568473
0.568483
0.568483
0.568494
0.568504
0.568514
0.568524
0.568524
0.568534
0.568545
0.568555
0.568565
0.568565
0.568576
0.568586
0.568596
0.568607
0.568607
0.568617
0.568628
0.568638
0.568648
0.568648
0.568659
0.568669
0.56868
0.56869
0.56869
0.568701
0.568712
0.568722
0.568733
0.568733
0.568744
0.568754
0.568765
0.568776
0.568776
0.568786
0.568797
0.568808
0.568819
0.568819
0.56883
0.568841
0.568852
0.568862
0.568862
0.568873
0.568884
0.568895
0.568906
0.568906
0.568917
0.568928
0.568939
0.56895
0.56895
0.568962
0.568973
0.568984
0.568995
0.568995
0.569006
0.569018
0.569029
0.56904
0.56904
0.569051
0.569063
0.569074
0.569085
0.569085
0.569097
0.569108
0.56912
0.569131
0.569131
0.569143
0.569154
0.569166
0.569177
0.569177
0.569189
0.5692
0.569212
0.569224
0.569224
0.569235
0.569247
0.569259
0.569271
0.569271
0.569282
0.569294
0.569306
0.569318
0.569318
0.56933
0.569342
0.569354
0.569366
0.569366
0.569378
0.56939
0.569402
0.569414
0.569414
0.569426
0.569438
0.56945
0.569462
0.569462
0.569474
0.569486
0.569499
0.569511
0.569511
0.569523
0.569536
0.569548
0.56956
0.56956
0.569573
0.569585
0.569598
0.56961
0.56961
0.569622
0.569635
0.569648
0.56966
0.56966
0.569673
0.569685
0.569698
0.569711
0.569711
0.569723
0.569736
0.569749
0.569762
0.569762
0.569774
0.569787
0.5698
0.569813
0.569813
0.569826
0.569839
0.569852
0.569865
0.569865
0.569878
0.569891
0.569904
0.569917
0.569917
0.56993
0.569944
0.569957
0.56997
0.56997
0.569983
0.569996
0.57001
0.570023
0.570023
0.570037
0.57005
0.570063
0.570077
0.570077
0.57009
0.570104
0.570117
0.570131
0.570131
0.570145
0.570158
0.570172
0.570185
0.570185
0.570199
0.570213
0.570227
0.57024
0.57024
0.570254
0.570268
0.570282
0.570296
0.570296
0.57031
0.570324
0.570338
0.570352
0.570352
0.570366
0.57038
0.570394
0.570409
0.570409
0.570423
0.570437
0.570451
0.570465
0.570465
0.57048
0.570494
0.570508
0.570523
0.570523
0.570537
0.570552
0.570566
0.570581
0.570581
0.570595
0.57061
0.570625
0.570639
0.570639
0.570654
0.570669
0.570684
0.570698
0.570698
0.570713
0.570728
0.570743
0.570758
0.570758
0.570773
0.570788
0.570803
0.570818
0.570818
0.570833
0.570848
0.570863
0.570878
0.570878
0.570893
0.570909
0.570924
0.570939
0.570939
0.570955
0.57097
0.570985
0.571001
0.571001
0.571016
0.571032
0.571047
0.571063
0.571063
0.571078
0.571094
0.57111
0.571125
0.571125
0.571141
0.571157
0.571173
0.571189
0.571189
0.571205
0.57122
0.571236
0.571252
0.571252
0.571268
0.571284
0.571301
0.571317
0.571317
0.571333
0.571349
0.571365
0.571381
0.571381
0.571398
0.571414
0.57143
0.571447
0.571447
0.571463
0.57148
0.571496
0.571513
0.571513
0.571529
0.571546
0.571563
0.571579
0.571579
0.571596
0.571613
0.57163
0.571647
0.571647
0.571663
0.57168
0.571697
0.571714
0.571714
0.571731
0.571748
0.571765
0.571783
0.571783
0.5718
0.571817
0.571834
0.571852
0.571852
0.571869
0.571886
0.571904
0.571921
0.571921
0.571939
0.571956
0.571974
0.571991
0.571991
0.572009
0.572027
0.572044
0.572062
0.572062
0.57208
0.572098
0.572115
0.572133
0.572133
0.572151
0.572169
0.572187
0.572205
0.572205
0.572224
0.572242
0.57226
0.572278
0.572278
0.572296
0.572315
0.572333
0.572351
0.572351
0.57237
0.572388
0.572407
0.572425
0.572425
0.572444
0.572462
0.572481
0.5725
0.5725
0.572519
0.572537
0.572556
0.572575
0.572575
0.572594
0.572613
0.572632
0.572651
0.572651
0.57267
0.572689
0.572708
0.572728
0.572728
0.572747
0.572766
0.572786
0.572805
0.572805
0.572824
0.572844
0.572863
0.572883
0.572883
0.572903
0.572922
0.572942
0.572962
0.572962
0.572981
0.573001
0.573021
0.573041
0.573041
0.573061
0.573081
0.573101
0.573121
0.573121
0.573141
0.573161
0.573181
0.573202
0.573202
0.573222
0.573242
0.573263
0.573283
0.573283
0.573304
0.573324
0.573345
0.573365
0.573365
0.573386
0.573407
0.573428
0.573448
0.573448
0.573469
0.57349
0.573511
0.573532
0.573532
0.573553
0.573574
0.573595
0.573616
0.573616
0.573638
0.573659
0.57368
0.573702
0.573702
0.573723
0.573744
0.573766
0.573788
0.573788
0.573809
0.573831
0.573852
0.573874
0.573874
0.573896
0.573918
0.57394
0.573962
0.573962
0.573984
0.574006
0.574028
0.57405
0.57405
0.574072
0.574094
0.574117
0.574139
0.574139
0.574161
0.574184
0.574206
0.574229
0.574229
0.574251
0.574274
0.574297
0.574319
0.574319
0.574342
0.574365
0.574388
0.574411
0.574411
0.574434
0.574457
0.57448
0.574503
0.574503
0.574526
0.574549
0.574573
0.574596
0.574596
0.574619
0.574643
0.574666
0.57469
0.57469
0.574713
0.574737
0.574761
0.574785
0.574785
0.574808
0.574832
0.574856
0.57488
0.57488
0.574904
0.574928
0.574952
0.574977
0.574977
0.575001
0.575025
0.575049
0.575074
0.575074
0.575098
0.575123
0.575147
0.575172
0.575172
0.575197
0.575221
0.575246
0.575271
0.575271
0.575296
0.575321
0.575346
0.575371
0.575371
0.575396
0.575421
0.575446
0.575472
0.575472
0.575497
0.575522
0.575548
0.575573
0.575573
0.575599
0.575624
0.57565
0.575676
0.575676
0.575702
0.575727
0.575753
0.575779
0.575779
0.575805
0.575831
0.575858
0.575884
0.575884
0.57591
0.575936
0.575963
0.575989
0.575989
0.576015
0.576042
0.576069
0.576095
0.576095
0.576122
0.576149
0.576176
0.576202
0.576202
0.576229
0.576256
0.576283
0.576311
0.576311
0.576338
0.576365
0.576392
0.57642
0.57642
0.576447
0.576475
0.576502
0.57653
0.57653
0.576557
0.576585
0.576613
0.576641
0.576641
0.576669
0.576697
0.576725
0.576753
0.576753
0.576781
0.576809
0.576837
0.576866
0.576866
0.576894
0.576923
0.576951
0.57698
0.57698
0.577008
0.577037
0.577066
0.577095
0.577095
0.577124
0.577153
0.577182
0.577211
0.577211
0.57724
0.577269
0.577298
0.577328
0.577328
0.577357
0.577387
0.577416
0.577446
0.577446
0.577475
0.577505
0.577535
0.577565
0.577565
0.577595
0.577625
0.577655
0.577685
0.577685
0.577715
0.577745
0.577776
0.577806
0.577806
0.577836
0.577867
0.577898
0.577928
0.577928
0.577959
0.57799
0.57802
0.578051
0.578051
0.578082
0.578113
0.578145
0.578176
0.578176
0.578207
0.578238
0.57827
0.578301
0.578301
0.578333
0.578364
0.578396
0.578428
0.578428
0.578459
0.578491
0.578523
0.578555
0.578555
0.578587
0.578619
0.578652
0.578684
0.578684
0.578716
0.578749
0.578781
0.578814
0.578814
0.578846
0.578879
0.578912
0.578945
0.578945
0.578978
0.57901
0.579044
0.579077
0.579077
0.57911
0.579143
0.579176
0.57921
0.57921
0.579243
0.579277
0.57931
0.579344
0.579344
0.579378
0.579412
0.579446
0.57948
0.57948
0.579514
0.579548
0.579582
0.579616
0.579616
0.57965
0.579685
0.579719
0.579754
0.579754
0.579788
0.579823
0.579858
0.579893
0.579893
0.579928
0.579963
0.579998
0.580033
0.580033
0.580068
0.580103
0.580139
0.580174
0.580174
0.58021
0.580245
0.580281
0.580317
0.580317
0.580352
0.580388
0.580424
0.58046
0.58046
0.580496
0.580533
0.580569
0.580605
0.580605
0.580642
0.580678
0.580715
0.580751
0.580751
0.580788
0.580825
0.580862
0.580898
0.580898
0.580935
0.580973
0.58101
0.581047
0.581047
0.581084
0.581122
0.581159
0.581197
0.581197
0.581234
0.581272
0.58131
0.581348
0.581348
0.581386
0.581424
0.581462
0.5815
0.5815
0.581538
0.581576
0.581615
0.581653
0.581653
0.581692
0.581731
0.581769
0.581808
0.581808
0.581847
0.581886
0.581925
0.581964
0.581964
0.582003
0.582043
0.582082
0.582121
0.582121
0.582161
0.5822
0.58224
0.58228
0.58228
0.58232
0.58236
0.5824
0.58244
0.58244
0.58248
0.58252
0.58256
0.582601
0.582601
0.582641
0.582682
0.582722
0.582763
0.582763
0.582804
0.582845
0.582886
0.582927
0.582927
0.582968
0.583009
0.58305
0.583092
0.583092
0.583133
0.583175
0.583216
0.583258
0.583258
0.5833
0.583342
0.583384
0.583426
0.583426
0.583468
0.58351
0.583552
0.583594
0.583594
0.583637
0.583679
0.583722
0.583765
0.583765
0.583807
0.58385
0.583893
0.583936
0.583936
0.583979
0.584023
0.584066
0.584109
0.584109
0.584153
0.584196
0.58424
0.584283
0.584283
0.584327
0.584371
0.584415
0.584459
0.584459
0.584503
0.584547
0.584591
0.584636
0.584636