<?xml version="1.0"?>
<VTKFile type="UnstructuredGrid" version="0.1" byte_order="LittleEndian">
<UnstructuredGrid>
<Piece NumberOfPoints="5000" NumberOfCells="4000">
<PointData Scalars="Reaction 0">
<DataArray type="Float32" Name="Reaction 0" format="ascii">
0.19355
0.19355
0.19355
0.193551
0.193551
0.193551
0.193551
0.193551
0.193551
0.193552
0.193552
0.193552
0.193552
0.193552
0.193553
0.193553
0.193553
0.193554
0.193554
0.193555
0.193555
0.193555
0.193556
0.193557
0.193557
0.193557
0.193558
0.193559
0.193559
0.19356
0.19356
0.193561
0.193562
0.193563
0.193564
0.193564
0.193565
0.193566
0.193567
0.193568
0.193568
0.193569
0.19357
0.193571
0.193573
0.193573
0.193574
0.193575
0.193577
0.193578
0.193578
0.193579
0.193581
0.193582
0.193584
0.193584
0.193585
0.193587
0.193588
0.19359
0.19359
0.193592
0.193593
0.193595
0.193597
0.193597
0.193599
0.1936
0.193602
0.193604
0.193604
0.193606
0.193608
0.19361
0.193612
0.193612
0.193614
0.193616
0.193618
0.193621
0.193621
0.193623
0.193625
0.193627
0.19363
0.19363
0.193632
0.193634
0.193637
0.193639
0.193639
0.193642
0.193644
0.193647
0.193649
0.193649
0.193652
0.193655
0.193657
0.19366
0.19366
0.193663
0.193666
0.193669
0.193671
0.193671
0.193674
0.193677
0.19368
0.193683
0.193683
0.193686
0.193689
0.193692
0.193696
0.193696
0.193699
0.193702
0.193705
0.193708
0.193708
0.193712
0.193715
0.193718
0.193722
0.193722
0.193725
0.193729
0.193732
0.193736
0.193736
0.193739
0.193743
0.193747
0.19375
0.19375
0.193754
0.193758
0.193762
0.193766
0.193766
0.193769
0.193773
0.193777
0.193781
0.193781
0.193785
0.193789
0.193793
0.193797
0.193797
0.193801
0.193806
0.19381
0.193814
0.193814
0.193818
0.193823
0.193827
0.193831
0.193831
0.193836
0.19384
0.193845
0.193849
0.193849
0.193854
0.193858
0.193863
0.193868
0.193868
0.193872
0.193877
0.193882
0.193887
0.193887
0.193891
0.193896
0.193901
0.193906
0.193906
0.193911
0.193916
0.193921
0.193926
0.193926
0.193931
0.193936
0.193941
0.193947
0.193947
0.193952
0.193957
0.193962
0.193968
0.193968
0.193973
0.193979
0.193984
0.193989
0.193989
0.193995
0.194
0.194006
0.194012
0.194012
0.194017
0.194023
0.194029
0.194034
0.194034
0.19404
0.194046
0.194052
0.194058
0.194058
0.194064
0.19407
0.194076
0.194082
0.194082
0.194088
0.194094
0.1941
0.194106
0.194106
0.194112
0.194118
0.194125
0.194131
0.194131
0.194137
0.194144
0.19415
0.194157
0.194157
0.194163
0.19417
0.194176
0.194183
0.194183
0.194189
0.194196
0.194203
0.194209
0.194209
0.194216
0.194223
0.19423
0.194236
0.194236
0.194243
0.19425
0.194257
0.194264
0.194264
0.194271
0.194278
0.194285
0.194292
0.194292
0.1943
0.194307
0.194314
0.194321
0.194321
0.194328
0.194336
0.194343
0.194351
0.194351
0.194358
0.194365
0.194373
0.19438
0.19438
0.194388
0.194396
0.194403
0.194411
0.194411
0.194419
0.194426
0.194434
0.194442
0.194442
0.19445
0.194458
0.194466
0.194473
0.194473
0.194481
0.194489
0.194498
0.194506
0.194506
0.194514
0.194522
0.19453
0.194538
0.194538
0.194546
0.194555
0.194563
0.194571
0.194571
0.19458
0.194588
0.194597
0.194605
0.194605
0.194614
0.194622
0.194631
0.194639
0.194639
0.194648
0.194657
0.194666
0.194674
0.194674
0.194683
0.194692
0.194701
0.19471
0.19471
0.194719
0.194728
0.194737
0.194746
0.194746
0.194755
0.194764
0.194773
0.194782
0.194782
0.194791
0.194801
0.19481
0.194819
0.194819
0.194829
0.194838
0.194847
0.194857
0.194857
0.194866
0.194876
0.194885
0.194895
0.194895
0.194905
0.194914
0.194924
0.194934
0.194934
0.194943
0.194953
0.194963
0.194973
0.194973
0.194983
0.194993
0.195003
0.195013
0.195013
0.195023
0.195033
0.195043
0.195053
0.195053
0.195063
0.195073
0.195084
0.195094
0.195094
0.195104
0.195115
0.195125
0.195135
0.195135
0.195146
0.195156
0.195167
0.195177
0.195177
0.195188
0.195199
0.195209
0.19522
0.19522
0.195231
0.195241
0.195252
0.195263
0.195263
0.195274
0.195285
0.195296
0.195307
0.195307
0.195318
0.195329
0.19534
0.195351
0.195351
0.195362
0.195373
0.195384
0.195396
0.195396
0.195407
0.195418
0.195429
0.195441
0.195441
0.195452
0.195464
0.195475
0.195487
0.195487
0.195498
0.19551
0.195521
0.195533
0.195533
0.195545
0.195556
0.195568
0.19558
0.19558
0.195592
0.195604
0.195616
0.195627
0.195627
0.195639
0.195651
0.195663
0.195676
0.195676
0.195688
0.1957
0.195712
0.195724
0.195724
0.195736
0.195749
0.195761
0.195773
0.195773
0.195786
0.195798
0.19581
0.195823
0.195823
0.195835
0.195848
0.195861
0.195873
0.195873
0.195886
0.195898
0.195911
0.195924
0.195924
0.195937
0.19595
0.195962
0.195975
0.195975
0.195988
0.196001
0.196014
0.196027
0.196027
0.19604
0.196053
0.196066
0.19608
0.19608
0.196093
0.196106
0.196119
0.196133
0.196133
0.196146
0.196159
0.196173
0.196186
0.196186
0.1962
0.196213
0.196227
0.19624
0.19624
0.196254
0.196267
0.196281
0.196295
0.196295
0.196309
0.196322
0.196336
0.19635
0.19635
0.196364
0.196378
0.196392
0.196406
0.196406
0.19642
0.196434
0.196448
0.196462
0.196462
0.196476
0.19649
0.196505
0.196519
0.196519
0.196533
0.196547
0.196562
0.196576
0.196576
0.196591
0.196605
0.19662
0.196634
0.196634
0.196649
0.196663
0.196678
0.196693
0.196693
0.196707
0.196722
0.196737
0.196752
0.196752
0.196766
0.196781
0.196796
0.196811
0.196811
0.196826
0.196841
0.196856
0.196871
0.196871
0.196886
0.196902
0.196917
0.196932
0.196932
0.196947
0.196962
0.196978
0.196993
0.196993
0.197009
0.197024
0.197039
0.197055
0.197055
0.19707
0.197086
0.197102
0.197117
0.197117
0.197133
0.197149
0.197164
0.19718
0.19718
0.197196
0.197212
0.197228
0.197244
0.197244
0.197259
0.197275
0.197291
0.197307
0.197307
0.197324
0.19734
0.197356
0.197372
0.197372
0.197388
0.197404
0.197421
0.197437
0.197437
0.197453
0.19747
0.197486
0.197503
0.197503
0.197519
0.197536
0.197552
0.197569
0.197569
0.197585
0.197602
0.197619
0.197636
0.197636
0.197652
0.197669
0.197686
0.197703
0.197703
0.19772
0.197737
0.197754
0.197771
0.197771
0.197788
0.197805
0.197822
0.197839
0.197839
0.197856
0.197873
0.197891
0.197908
0.197908
0.197925
0.197943
0.19796
0.197977
0.197977
0.197995
0.198012
0.19803
0.198047
0.198047
0.198065
0.198083
0.1981
0.198118
0.198118
0.198136
0.198153
0.198171
0.198189
0.198189
0.198207
0.198225
0.198243
0.198261
0.198261
0.198279
0.198297
0.198315
0.198333
0.198333
0.198351
0.198369
0.198388
0.198406
0.198406
0.198424
0.198442
0.198461
0.198479
0.198479
0.198497
0.198516
0.198534
0.198553
0.198553
0.198571
0.19859
0.198609
0.198627
0.198627
0.198646
0.198665
0.198684
0.198702
0.198702
0.198721
0.19874
0.198759
0.198778
0.198778
0.198797
0.198816
0.198835
0.198854
0.198854
0.198873
0.198892
0.198911
0.198931
0.198931
0.19895
0.198969
0.198988
0.199008
0.199008
0.199027
0.199046
0.199066
0.199085
0.199085
0.199105
0.199124
0.199144
0.199164
0.199164
0.199183
0.199203
0.199223
0.199243
0.199243
0.199262
0.199282
0.199302
0.199322
0.199322
0.199342
0.199362
0.199382
0.199402
0.199402
0.199422
0.199442
0.199462
0.199482
0.199482
0.199502
0.199523
0.199543
0.199563
0.199563
0.199584
0.199604
0.199624
0.199645
0.199645
0.199665
0.199686
0.199706
0.199727
0.199727
0.199748
0.199768
0.199789
0.19981
0.19981
0.19983
0.199851
0.199872
0.199893
0.199893
0.199914
0.199935
0.199956
0.199977
0.199977
0.199998
0.200019
0.20004
0.200061
0.200061
0.200082
0.200103
0.200125
0.200146
0.200146
0.200167
0.200188
0.20021
0.200231
0.200231
0.200253
0.200274
0.200296
0.200317
0.200317
0.200339
0.20036
0.200382
0.200404
0.200404
0.200425
0.200447
0.200469
0.200491
0.200491
0.200513
0.200535
0.200556
0.200578
0.200578
0.2006
0.200622
0.200645
0.200667
0.200667
0.200689
0.200711
0.200733
0.200755
0.200755
0.200778
0.2008
0.200822
0.200845
0.200845
0.200867
0.200889
0.200912
0.200934
0.200934
0.200957
0.20098
0.201002
0.201025
0.201025
0.201048
0.20107
0.201093
0.201116
0.201116
0.201139
0.201161
0.201184
0.201207
0.201207
0.20123
0.201253
0.201276
0.201299
0.201299
0.201322
0.201346
0.201369
0.201392
0.201392
0.201415
0.201438
0.201462
0.201485
0.201485
0.201508
0.201532
0.201555
0.201579
0.201579
0.201602
0.201626
0.201649
0.201673
0.201673
0.201697
0.20172
0.201744
0.201768
0.201768
0.201791
0.201815
0.201839
0.201863
0.201863
0.201887
0.201911
0.201935
0.201959
0.201959
0.201983
0.202007
0.202031
0.202055
0.202055
0.20208
0.202104
0.202128
0.202152
0.202152
0.202177
0.202201
0.202225
0.20225
0.20225
0.202274
0.202299
0.202323
0.202348
0.202348
0.202373
0.202397
0.202422
0.202447
0.202447
0.202471
0.202496
0.202521
0.202546
0.202546
0.202571
0.202596
0.202621
0.202646
0.202646
0.202671
0.202696
0.202721
0.202746
0.202746
0.202771
0.202796
0.202821
0.202847
0.202847
0.202872
0.202897
0.202923
0.202948
0.202948
0.202974
0.202999
0.203025
0.20305
0.20305
0.203076
0.203101
0.203127
0.203153
0.203153
0.203178
0.203204
0.20323
0.203256
0.203256
0.203281
0.203307
0.203333
0.203359
0.203359
0.203385
0.203411
0.203437
0.203463
0.203463
0.203489
0.203516
0.203542
0.203568
0.203568
0.203594
0.203621
0.203647
0.203673
0.203673
0.2037
0.203726
0.203753
0.203779
0.203779
0.203806
0.203832
0.203859
0.203885
0.203885
0.203912
0.203939
0.203966
0.203992
0.203992
0.204019
0.204046
0.204073
0.2041
0.2041
0.204127
0.204154
0.204181
0.204208
0.204208
0.204235
0.204262
0.204289
0.204316
0.204316
0.204344
0.204371
0.204398
0.204426
0.204426
0.204453
0.20448
0.204508
0.204535
0.204535
0.204563
0.20459
0.204618
0.204645
0.204645
0.204673
0.204701
0.204728
0.204756
0.204756
0.204784
0.204812
0.20484
0.204867
0.204867
0.204895
0.204923
0.204951
0.204979
0.204979
0.205007
0.205036
0.205064
0.205092
0.205092
0.20512
0.205148
0.205176
0.205205
0.205205
0.205233
0.205261
0.20529
0.205318
0.205318
0.205347
0.205375
0.205404
0.205432
0.205432
0.205461
0.20549
0.205518
0.205547
0.205547
0.205576
0.205605
0.205633
0.205662
0.205662
0.205691
0.20572
0.205749
0.205778
0.205778
0.205807
0.205836
0.205865
0.205894
0.205894
0.205923
0.205953
0.205982
0.206011
0.206011
0.20604
0.20607
0.206099
0.206128
0.206128
0.206158
0.206187
0.206217
0.206246
0.206246
0.206276
0.206306
0.206335
0.206365
0.206365
0.206395
0.206424
0.206454
0.206484
0.206484
0.206514
0.206544
0.206574
0.206604
0.206604
0.206633
0.206664
0.206694
0.206724
0.206724
0.206754
0.206784
0.206814
0.206844
0.206844
0.206875
0.206905
0.206935
0.206966
0.206966
0.206996
0.207026
0.207057
0.207087
0.207087
0.207118
0.207149
0.207179
0.20721
0.20721
0.20724
0.207271
0.207302
0.207333
0.207333
0.207363
0.207394
0.207425
0.207456
0.207456
0.207487
0.207518
0.207549
0.20758
0.20758
0.207611
0.207642
0.207674
0.207705
0.207705
0.207736
0.207767
0.207798
0.20783
0.20783
0.207861
0.207893
0.207924
0.207955
0.207955
0.207987
0.208019
0.20805
0.208082
0.208082
0.208113
0.208145
0.208177
0.208208
0.208208
0.20824
0.208272
0.208304
0.208336
0.208336
0.208368
0.2084
0.208432
0.208464
0.208464
0.208496
0.208528
0.20856
0.208592
0.208592
0.208624
0.208657
0.208689
0.208721
0.208721
0.208753
0.208786
0.208818
0.208851
0.208851
0.208883
0.208916
0.208948
0.208981
0.208981
0.209013
0.209046
0.209079
0.209111
0.209111
0.209144
0.209177
0.20921
0.209243
0.209243
0.209275
0.209308
0.209341
0.209374
0.209374
0.209407
0.20944
0.209473
0.209507
0.209507
0.20954
0.209573
0.209606
0.209639
0.209639
0.209673
0.209706
0.209739
0.209773
0.209773
0.209806
0.20984
0.209873
0.209907
0.209907
0.20994
0.209974
0.210008
0.210041
0.210041
0.210075
0.210109
0.210143
0.210176
0.210176
0.21021
0.210244
0.210278
0.210312
0.210312
0.210346
0.21038
0.210414
0.210448
0.210448
0.210482
0.210516
0.210551
0.210585
0.210585
0.210619
0.210653
0.210688
0.210722
0.210722
0.210757
0.210791
0.210825
0.21086
0.21086
0.210894
0.210929
0.210964
0.210998
0.210998
0.211033
0.211068
0.211102
0.211137
0.211137
0.211172
0.211207
0.211242
0.211277
0.211277
0.211312
0.211347
0.211382
0.211417
0.211417
0.211452
0.211487
0.211522
0.211557
0.211557
0.211593
0.211628
0.211663
0.211698
0.211698
0.211734
0.211769
0.211805
0.21184
0.21184
0.211876
0.211911
0.211947
0.211982
0.211982
0.212018
0.212054
0.212089
0.212125
0.212125
0.212161
0.212197
0.212233
0.212269
0.212269
0.212304
0.21234
0.212376
0.212412
0.212412
0.212448
0.212485
0.212521
0.212557
0.212557
0.212593
0.212629
0.212666
0.212702
0.212702
0.212738
0.212775
0.212811
0.212847
0.212847
0.212884
0.21292
0.212957
0.212994
0.212994
0.21303
0.213067
0.213104
0.21314
0.21314
0.213177
0.213214
0.213251
0.213287
0.213287
0.213324
0.213361
0.213398
0.213435
0.213435
0.213472
0.213509
0.213546
0.213584
0.213584
0.213621
0.213658
0.213695
0.213732
0.213732
0.21377
0.213807
0.213844
0.213882
0.213882
0.213919
0.213957
0.213994
0.214032
0.214032
0.214069
0.214107
0.214145
0.214182
0.214182
0.21422
0.214258
0.214296
0.214333
0.214333
0.214371
0.214409
0.214447
0.214485
0.214485
0.214523
0.214561
0.214599
0.214637
0.214637
0.214675
0.214714
0.214752
0.21479
0.21479
0.214828
0.214867
0.214905
0.214943
0.214943
0.214982
0.21502
0.215059
0.215097
0.215097
0.215136
0.215174
0.215213
0.215252
0.215252
0.21529
0.215329
0.215368
0.215407
0.215407
0.215445
0.215484
0.215523
0.215562
0.215562
0.215601
0.21564
0.215679
0.215718
0.215718
0.215757
0.215796
0.215836
0.215875
0.215875
0.215914
0.215953
0.215993
0.216032
0.216032
0.216071
0.216111
0.21615
0.21619
0.21619
0.216229
0.216269
0.216308
0.216348
0.216348
0.216388
0.216427
0.216467
0.216507
0.216507
0.216547
0.216586
0.216626
0.216666
0.216666
0.216706
0.216746
0.216786
0.216826
0.216826
0.216866
0.216906
0.216946
0.216987
0.216987
0.217027
0.217067
0.217107
0.217148
0.217148
0.217188
0.217228
0.217269
0.217309
0.217309
0.21735
0.21739
0.217431
0.217471
0.217471
0.217512
0.217553
0.217593
0.217634
0.217634
0.217675
0.217716
0.217757
0.217797
0.217797
0.217838
0.217879
0.21792
0.217961
0.217961
0.218002
0.218043
0.218085
0.218126
0.218126
0.218167
0.218208
0.218249
0.218291
0.218291
0.218332
0.218373
0.218415
0.218456
0.218456
0.218498
0.218539
0.218581
0.218622
0.218622
0.218664
0.218705
0.218747
0.218789
0.218789
0.21883
0.218872
0.218914
0.218956
0.218956
0.218998
0.21904
0.219082
0.219124
0.219124
0.219166
0.219208
0.21925
0.219292
0.219292
0.219334
0.219376
0.219418
0.219461
0.219461
0.219503
0.219545
0.219588
0.21963
0.21963
0.219672
0.219715
0.219757
0.2198
0.2198
0.219842
0.219885
0.219928
0.21997
0.21997
0.220013
0.220056
0.220099
0.220141
0.220141
0.220184
0.220227
0.22027
0.220313
0.220313
0.220356
0.220399
0.220442
0.220485
0.220485
0.220528
0.220571
0.220614
0.220658
0.220658
0.220701
0.220744
0.220788
0.220831
0.220831
0.220874
0.220918
0.220961
0.221005
0.221005
0.221048
0.221092
0.221135
0.221179
0.221179
0.221223
0.221266
0.22131
0.221354
0.221354
0.221398
0.221442
0.221486
0.221529
0.221529
0.221573
0.221617
0.221661
0.221705
0.221705
0.22175
0.221794
0.221838
0.221882
0.221882
0.221926
0.22197
0.222015
0.222059
0.222059
0.222103
0.222148
0.222192
0.222237
0.222237
0.222281
0.222326
0.22237
0.222415
0.222415
0.22246
0.222504
0.222549
0.222594
0.222594
0.222639
0.222683
0.222728
0.222773
0.222773
0.222818
0.222863
0.222908
0.222953
0.222953
0.222998
0.223043
0.223088
0.223133
0.223133
0.223179
0.223224
0.223269
0.223314
0.223314
0.22336
0.223405
0.22345
0.223496
0.223496
0.223541
0.223587
0.223632
0.223678
0.223678
0.223724
0.223769
0.223815
0.223861
0.223861
0.223906
0.223952
0.223998
0.224044
0.224044
0.22409
0.224136
0.224182
0.224228
0.224228
0.224274
0.22432
0.224366
0.224412
0.224412
0.224458
0.224504
0.224551
0.224597
0.224597
0.224643
0.224689
0.224736
0.224782
0.224782
0.224829
0.224875
0.224922
0.224968
0.224968
0.225015
0.225061
0.225108
0.225155
0.225155
0.225202
0.225248
0.225295
0.225342
0.225342
0.225389
0.225436
0.225483
0.22553
0.22553
0.225577
0.225624
0.225671
0.225718
0.225718
0.225765
0.225812
0.225859
0.225906
0.225906
0.225954
0.226001
0.226048
0.226096
0.226096
0.226143
0.226191
0.226238
0.226286
0.226286
0.226333
0.226381
0.226428
0.226476
0.226476
0.226524
0.226571
0.226619
0.226667
0.226667
0.226715
0.226763
0.226811
0.226859
0.226859
0.226907
0.226955
0.227003
0.227051
0.227051
0.227099
0.227147
0.227195
0.227243
0.227243
0.227291
0.22734
0.227388
0.227436
0.227436
0.227485
0.227533
0.227582
0.22763
0.22763
0.227679
0.227727
0.227776
0.227824
0.227824
0.227873
0.227922
0.227971
0.228019
0.228019
0.228068
0.228117
0.228166
0.228215
0.228215
0.228264
0.228313
0.228362
0.228411
0.228411
0.22846
0.228509
0.228558
0.228607
0.228607
0.228656
0.228706
0.228755
0.228804
0.228804
0.228854
0.228903
0.228952
0.229002
0.229002
0.229051
0.229101
0.22915
0.2292
0.2292
0.22925
0.229299
0.229349
0.229399
0.229399
0.229449
0.229498
0.229548
0.229598
0.229598
0.229648
0.229698
0.229748
0.229798
0.229798
0.229848
0.229898
0.229948
0.229998
0.229998
0.230049
0.230099
0.230149
0.230199
0.230199
0.23025
0.2303
0.23035
0.230401
0.230401
0.230451
0.230502
0.230552
0.230603
0.230603
0.230653
0.230704
0.230755
0.230805
0.230805
0.230856
0.230907
0.230958
0.231009
0.231009
0.231059
0.23111
0.231161
0.231212
0.231212
0.231263
0.231314
0.231365
0.231417
0.231417
0.231468
0.231519
0.23157
0.231621
0.231621
0.231673
0.231724
0.231775
0.231827
0.231827
0.231878
0.23193
0.231981
0.232033
0.232033
0.232084
0.232136
0.232188
0.232239
0.232239
0.232291
0.232343
0.232395
0.232446
0.232446
0.232498
0.23255
0.232602
0.232654
0.232654
0.232706
0.232758
0.23281
0.232862
0.232862
0.232914
0.232966
0.233019
0.233071
0.233071
0.233123
0.233175
0.233228
0.23328
0.23328
0.233332
0.233385
0.233437
0.23349
0.23349
0.233542
0.233595
0.233648
0.2337
0.2337
0.233753
0.233806
0.233858
0.233911
0.233911
0.233964
0.234017
0.23407
0.234123
0.234123
0.234176
0.234229
0.234282
0.234335
0.234335
0.234388
0.234441
0.234494
0.234547
0.234547
0.234601
0.234654
0.234707
0.23476
0.23476
0.234814
0.234867
0.234921
0.234974
0.234974
0.235028
0.235081
0.235135
0.235188
0.235188
0.235242
0.235296
0.23535
0.235403
0.235403
0.235457
0.235511
0.235565
0.235619
0.235619
0.235673
0.235727
0.235781
0.235835
0.235835
0.235889
0.235943
0.235997
0.236051
0.236051
0.236105
0.23616
0.236214
0.236268
0.236268
0.236322
0.236377
0.236431
0.236486
0.236486
0.23654
0.236595
0.236649
0.236704
0.236704
0.236758
0.236813
0.236868
0.236923
0.236923
0.236977
0.237032
0.237087
0.237142
0.237142
0.237197
0.237252
0.237307
0.237362
0.237362
0.237417
0.237472
0.237527
0.237582
0.237582
0.237637
0.237692
0.237748
0.237803
0.237803
0.237858
0.237914
0.237969
0.238024
0.238024
0.23808
0.238135
0.238191
0.238246
0.238246
0.238302
0.238358
0.238413
0.238469
0.238469
0.238525
0.23858
0.238636
0.238692
0.238692
0.238748
0.238804
0.23886
0.238916
0.238916
0.238972
0.239028
0.239084
0.23914
0.23914
0.239196
0.239252
0.239309
0.239365
0.239365
0.239421
0.239477
0.239534
0.23959
0.23959
0.239647
0.239703
0.23976
0.239816
0.239816
0.239873
0.239929
0.239986
0.240043
0.240043
0.240099
0.240156
0.240213
0.24027
0.24027
0.240326
0.240383
0.24044
0.240497
0.240497
0.240554
0.240611
0.240668
0.240725
0.240725
0.240782
0.24084
0.240897
0.240954
0.240954
0.241011
0.241069
0.241126
0.241183
0.241183
0.241241
0.241298
0.241356
0.241413
0.241413
0.241471
0.241528
0.241586
0.241643
0.241643
0.241701
0.241759
0.241816
0.241874
0.241874
0.241932
0.24199
0.242048
0.242106
0.242106
0.242164
0.242222
0.24228
0.242338
0.242338
0.242396
0.242454
0.242512
0.24257
0.24257
0.242629
0.242687
0.242745
0.242803
0.242803
0.242862
0.24292
0.242979
0.243037
0.243037
0.243096
0.243154
0.243213
0.243271
0.243271
0.24333
0.243389
0.243447
0.243506
0.243506
0.243565
0.243624
0.243683
0.243741
0.243741
0.2438
0.243859
0.243918
0.243977
0.243977
0.244036
0.244095
0.244155
0.244214
0.244214
0.244273
0.244332
0.244391
0.244451
0.244451
0.24451
0.24457
0.244629
0.244688
0.244688
0.244748
0.244807
0.244867
0.244926
0.244926
0.244986
0.245046
0.245105
0.245165
0.245165
0.245225
0.245285
0.245344
0.245404
0.245404
0.245464
0.245524
0.245584
0.245644
0.245644
0.245704
0.245764
0.245824
0.245884
0.245884
0.245945
0.246005
0.246065
0.246125
0.246125
0.246186
0.246246
0.246306
0.246367
0.246367
0.246427
0.246488
0.246548
0.246609
0.246609
0.246669
0.24673
0.246791
0.246851
0.246851
0.246912
0.246973
0.247034
0.247094
0.247094
0.247155
0.247216
0.247277
0.247338
0.247338
0.247399
0.24746
0.247521
0.247582
0.247582
0.247643
0.247705
0.247766
0.247827
0.247827
0.247888
0.24795
0.248011
0.248072
0.248072
0.248134
0.248195
0.248257
0.248318
0.248318
0.24838
0.248441
0.248503
0.248565
0.248565
0.248626
0.248688
0.24875
0.248812
0.248812
0.248873
0.248935
0.248997
0.249059
0.249059
0.249121
0.249183
0.249245
0.249307
0.249307
0.249369
0.249432
0.249494
0.249556
0.249556
0.249618
0.24968
0.249743
0.249805
0.249805
0.249868
0.24993
0.249992
0.250055
0.250055
0.250117
0.25018
0.250243
0.250305
0.250305
0.250368
0.250431
0.250493
0.250556
0.250556
0.250619
0.250682
0.250745
0.250807
0.250807
0.25087
0.250933
0.250996
0.251059
0.251059
0.251123
0.251186
0.251249
0.251312
0.251312
0.251375
0.251438
0.251502
0.251565
0.251565
0.251628
0.251692
0.251755
0.251819
0.251819
0.251882
0.251946
0.252009
0.252073
0.252073
0.252137
0.2522
0.252264
0.252328
0.252328
0.252391
0.252455
0.252519
0.252583
0.252583
0.252647
0.252711
0.252775
0.252839
0.252839
0.252903
0.252967
0.253031
0.253095
0.253095
0.253159
0.253224
0.253288
0.253352
0.253352
0.253416
0.253481
0.253545
0.25361
0.25361
0.253674
0.253739
0.253803
0.253868
0.253868
0.253932
0.253997
0.254062
0.254126
0.254126
0.254191
0.254256
0.254321
0.254385
0.254385
0.25445
0.254515
0.25458
0.254645
0.254645
0.25471
0.254775
0.25484
0.254905
0.254905
0.254971
0.255036
0.255101
0.255166
0.255166
0.255232
0.255297
0.255362
0.255428
0.255428
0.255493
0.255559
0.255624
0.25569
0.25569
0.255755
0.255821
0.255886
0.255952
0.255952
0.256018
0.256084
0.256149
0.256215
0.256215
0.256281
0.256347
0.256413
0.256479
0.256479
0.256545
0.256611
0.256677
0.256743
0.256743
0.256809
0.256875
0.256941
0.257008
0.257008
0.257074
0.25714
0.257207
0.257273
0.257273
0.257339
0.257406
0.257472
0.257539
0.257539
0.257605
0.257672
0.257738
0.257805
0.257805
0.257872
0.257938
0.258005
0.258072
0.258072
0.258139
0.258206
0.258273
0.258339
0.258339
0.258406
0.258473
0.25854
0.258608
0.258608
0.258675
0.258742
0.258809
0.258876
0.258876
0.258943
0.259011
0.259078
0.259145
0.259145
0.259213
0.25928
0.259347
0.259415
0.259415
0.259482
0.25955
0.259618
0.259685
0.259685
0.259753
0.25982
0.259888
0.259956
0.259956
0.260024
0.260092
0.260159
0.260227
0.260227
0.260295
0.260363
0.260431
0.260499
0.260499
0.260567
0.260635
0.260703
0.260772
0.260772
0.26084
0.260908
0.260976
0.261045
0.261045
0.261113
0.261181
0.26125
0.261318
0.261318
0.261387
0.261455
0.261524
0.261592
0.261592
0.261661
0.26173
0.261798
0.261867
0.261867
0.261936
0.262005
0.262073
0.262142
0.262142
0.262211
0.26228
0.262349
0.262418
0.262418
0.262487
0.262556
0.262625
0.262694
0.262694
0.262763
0.262833
0.262902
0.262971
0.262971
0.26304
0.26311
0.263179
0.263249
0.263249
0.263318
0.263388
0.263457
0.263527
0.263527
0.263596
0.263666
0.263735
0.263805
0.263805
0.263875
0.263945
0.264014
0.264084
0.264084
0.264154
0.264224
0.264294
0.264364
0.264364
0.264434
0.264504
0.264574
0.264644
0.264644
0.264714
0.264784
0.264855
0.264925
0.264925
0.264995
0.265065
0.265136
0.265206
0.265206
0.265277
0.265347
0.265417
0.265488
0.265488
0.265558
0.265629
0.2657
0.26577
0.26577
0.265841
0.265912
0.265983
0.266053
0.266053
0.266124
0.266195
0.266266
0.266337
0.266337
0.266408
0.266479
0.26655
0.266621
0.266621
0.266692
0.266763
0.266834
0.266905
0.266905
0.266977
0.267048
0.267119
0.267191
0.267191
0.267262
0.267333
0.267405
0.267476
0.267476
0.267548
0.267619
0.267691
0.267763
0.267763
0.267834
0.267906
0.267978
0.268049
0.268049
0.268121
0.268193
0.268265
0.268337
0.268337
0.268409
0.268481
0.268553
0.268625
0.268625
0.268697
0.268769
0.268841
0.268913
0.268913
0.268985
0.269058
0.26913
0.269202
0.269202
0.269275
0.269347
0.269419
0.269492
0.269492
0.269564
0.269637
0.269709
0.269782
0.269782
0.269855
0.269927
0.27
0.270073
0.270073
0.270145
0.270218
0.270291
0.270364
0.270364
0.270437
0.27051
0.270583
0.270656
0.270656
0.270729
0.270802
0.270875
0.270948
0.270948
0.271021
0.271094
0.271168
0.271241
0.271241
0.271314
0.271387
0.271461
0.271534
0.271534
0.271608
0.271681
0.271755
0.271828
0.271828
0.271902
0.271975
0.272049
0.272123
0.272123
0.272197
0.27227
0.272344
0.272418
0.272418
0.272492
0.272566
0.27264
0.272714
0.272714
0.272788
0.272862
0.272936
0.27301
0.27301
0.273084
0.273158
0.273232
0.273306
0.273306
0.273381
0.273455
0.273529
0.273604
0.273604
0.273678
0.273753
0.273827
0.273902
0.273902
0.273976
0.274051
0.274125
0.2742
0.2742
0.274275
0.274349
0.274424
0.274499
0.274499
0.274574
0.274649
0.274723
0.274798
0.274798
0.274873
0.274948
0.275023
0.275098
0.275098
0.275174
0.275249
0.275324
0.275399
0.275399
0.275474
0.27555
0.275625
0.2757
0.2757
0.275776
0.275851
0.275926
0.276002
0.276002
0.276077
0.276153
0.276229
0.276304
0.276304
0.27638
0.276455
0.276531
0.276607
0.276607
0.276683
0.276759
0.276834
0.27691
0.27691
0.276986
0.277062
0.277138
0.277214
0.277214
0.27729
0.277366
0.277442
0.277519
0.277519
0.277595
0.277671
0.277747
0.277824
0.277824
0.2779
0.277976
0.278053
0.278129
0.278129
0.278206
0.278282
0.278359
0.278435
0.278435
0.278512
0.278589
0.278665
0.278742
0.278742
0.278819
0.278895
0.278972
0.279049
0.279049
0.279126
0.279203
0.27928
0.279357
0.279357
0.279434
0.279511
0.279588
0.279665
0.279665
0.279742
0.27982
0.279897
0.279974
0.279974
0.280051
0.280129
0.280206
0.280283
0.280283
0.280361
0.280438
0.280516
0.280593
0.280593
0.280671
0.280749
0.280826
0.280904
0.280904
0.280982
0.281059
0.281137
0.281215
0.281215
0.281293
0.281371
0.281449
0.281526
0.281526
0.281604
0.281682
0.281761
0.281839
0.281839
0.281917
0.281995
0.282073
0.282151
0.282151
0.28223
0.282308
0.282386
0.282465
0.282465
0.282543
0.282621
0.2827
0.282778
0.282778
0.282857
0.282935
0.283014
0.283093
0.283093
0.283171
0.28325
0.283329
0.283408
0.283408
0.283486
0.283565
0.283644
0.283723
0.283723
0.283802
0.283881
0.28396
0.284039
0.284039
0.284118
0.284197
0.284276
0.284356
0.284356
0.284435
0.284514
0.284593
0.284673
0.284673
0.284752
0.284831
0.284911
0.28499
0.28499
0.28507
0.285149
0.285229
0.285308
0.285308
0.285388
0.285468
0.285547
0.285627
0.285627
0.285707
0.285787
0.285866
0.285946
0.285946
0.286026
0.286106
0.286186
0.286266
0.286266
0.286346
0.286426
0.286506
0.286587
0.286587
0.286667
0.286747
0.286827
0.286907
0.286907
0.286988
0.287068
0.287149
0.287229
0.287229
0.287309
0.28739
0.28747
0.287551
0.287551
0.287632
0.287712
0.287793
0.287873
0.287873
0.287954
0.288035
0.288116
0.288197
0.288197
0.288277
0.288358
0.288439
0.28852
0.28852
0.288601
0.288682
0.288763
0.288844
0.288844
0.288926
0.289007
0.289088
0.289169
0.289169
0.28925
0.289332
0.289413
0.289494
0.289494
0.289576
0.289657
0.289739
0.28982
0.28982
0.289902
0.289983
0.290065
0.290147
0.290147
0.290228
0.29031
0.290392
0.290474
0.290474
0.290555
0.290637
0.290719
0.290801
0.290801
0.290883
0.290965
0.291047
0.291129
0.291129
0.291211
0.291293
0.291376
0.291458
0.291458
0.29154
0.291622
0.291704
0.291787
0.291787
0.291869
0.291952
0.292034
0.292116
0.292116
0.292199
0.292282
0.292364
0.292447
0.292447
0.292529
0.292612
0.292695
0.292777
0.292777
0.29286
0.292943
0.293026
0.293109
0.293109
0.293192
0.293275
0.293358
0.293441
0.293441
0.293524
0.293607
0.29369
0.293773
0.293773
0.293856
0.293939
0.294023
0.294106
0.294106
0.294189
0.294273
0.294356
0.294439
0.294439
0.294523
0.294606
0.29469
0.294773
0.294773
0.294857
0.294941
0.295024
0.295108
0.295108
0.295192
0.295275
0.295359
0.295443
0.295443
0.295527
0.295611
0.295695
0.295779
0.295779
0.295863
0.295947
0.296031
0.296115
0.296115
0.296199
0.296283
0.296368
0.296452
0.296452
0.296536
0.29662
0.296705
0.296789
0.296789
0.296873
0.296958
0.297042
0.297127
0.297127
0.297211
0.297296
0.297381
0.297465
0.297465
0.29755
0.297635
0.297719
0.297804
0.297804
0.297889
0.297974
0.298059
0.298144
0.298144
0.298229
0.298314
0.298399
0.298484
0.298484
0.298569
0.298654
0.298739
0.298824
0.298824
0.29891
0.298995
0.29908
0.299165
0.299165
0.299251
0.299336
0.299422
0.299507
0.299507
0.299593
0.299678
0.299764
0.299849
0.299849
0.299935
0.300021
0.300106
0.300192
0.300192
0.300278
0.300364
0.300449
0.300535
0.300535
0.300621
0.300707
0.300793
0.300879
0.300879
0.300965
0.301051
0.301137
0.301223
0.301223
0.30131
0.301396
0.301482
0.301568
0.301568
0.301655
0.301741
0.301827
0.301914
0.301914
0.302
0.302087
0.302173
0.30226
0.30226
0.302346
0.302433
0.30252
0.302606
0.302606
0.302693
0.30278
0.302867
0.302953
0.302953
0.30304
0.303127
0.303214
0.303301
0.303301
0.303388
0.303475
0.303562
0.303649
0.303649
0.303736
0.303824
0.303911
0.303998
0.303998
0.304085
0.304173
0.30426
0.304347
0.304347
0.304435
0.304522
0.30461
0.304697
0.304697
0.304785
0.304872
0.30496
0.305047
0.305047
0.305135
0.305223
0.30531
0.305398
0.305398
0.305486
0.305574
0.305662
0.30575
0.30575
0.305838
0.305926
0.306014
0.306102
0.306102
0.30619
0.306278
0.306366
0.306454
0.306454
0.306542
0.306631
0.306719
0.306807
0.306807
0.306896
0.306984
0.307072
0.307161
0.307161
0.307249
0.307338
0.307426
0.307515
0.307515
0.307604
0.307692
0.307781
0.30787
0.30787
0.307958
0.308047
0.308136
0.308225
0.308225
0.308314
0.308403
0.308492
0.308581
0.308581
0.30867
0.308759
0.308848
0.308937
0.308937
0.309026
0.309115
0.309204
0.309294
0.309294
0.309383
0.309472
0.309562
0.309651
0.309651
0.309741
0.30983
0.309919
0.310009
0.310009
0.310099
0.310188
0.310278
0.310367
0.310367
0.310457
0.310547
0.310637
0.310726
0.310726
0.310816
0.310906
0.310996
0.311086
0.311086
0.311176
0.311266
0.311356
0.311446
0.311446
0.311536
0.311626
0.311716
0.311807
0.311807
0.311897
0.311987
0.312077
0.312168
0.312168
0.312258
0.312349
0.312439
0.31253
0.31253
0.31262
0.312711
0.312801
0.312892
0.312892
0.312982
0.313073
0.313164
0.313255
0.313255
0.313345
0.313436
0.313527
0.313618
0.313618
0.313709
0.3138
0.313891
0.313982
0.313982
0.314073
0.314164
0.314255
0.314346
0.314346
0.314437
0.314528
0.31462
0.314711
0.314711
0.314802
0.314894
0.314985
0.315076
0.315076
0.315168
0.315259
0.315351
0.315442
0.315442
0.315534
0.315626
0.315717
0.315809
0.315809
0.315901
0.315992
0.316084
0.316176
0.316176
0.316268
0.31636
0.316452
0.316544
0.316544
0.316636