<?xml version="1.0"?>
<VTKFile type="UnstructuredGrid" version="0.1" byte_order="LittleEndian">
<UnstructuredGrid>
<Piece NumberOfPoints="5000" NumberOfCells="4000">
<PointData Scalars="Reaction 0">
<DataArray type="Float32" Name="Reaction 0" format="ascii">
0.561905
0.561905
0.561905
0.561905
0.561905
0.561905
0.561905
0.561905
0.561905
0.561905
0.561905
0.561905
0.561905
0.561905
0.561905
0.561905
0.561905
0.561905
0.561905
0.561905
0.561905
0.561905
0.561905
0.561905
0.561905
0.561905
0.561905
0.561905
0.561906
0.561906
0.561906
0.561906
0.561906
0.561906
0.561906
0.561906
0.561906
0.561906
0.561906
0.561906
0.561906
0.561906
0.561906
0.561906
0.561906
0.561906
0.561906
0.561906
0.561906
0.561906
0.561906
0.561906
0.561906
0.561906
0.561906
0.561906
0.561906
0.561906
0.561906
0.561906
0.561906
0.561906
0.561906
0.561906
0.561906
0.561906
0.561906
0.561906
0.561906
0.561906
0.561906
0.561906
0.561906
0.561906
0.561906
0.561906
0.561906
0.561906
0.561906
0.561906
0.561906
0.561906
0.561906
0.561906
0.561906
0.561906
0.561906
0.561906
0.561906
0.561906
0.561906
0.561906
0.561907
0.561907
0.561907
0.561907
0.561907
0.561907
0.561907
0.561907
0.561907
0.561907
0.561907
0.561907
0.561907
0.561907
0.561907
0.561907
0.561907
0.561907
0.561907
0.561907
0.561907
0.561907
0.561907
0.561907
0.561907
0.561907
0.561907
0.561907
0.561907
0.561907
0.561907
0.561907
0.561907
0.561907
0.561908
0.561908
0.561908
0.561908
0.561908
0.561908
0.561908
0.561908
0.561908
0.561908
0.561908
0.561908
0.561908
0.561908
0.561908
0.561908
0.561908
0.561908
0.561908
0.561908
0.561908
0.561908
0.561908
0.561908
0.561908
0.561908
0.561908
0.561909
0.561909
0.561909
0.561909
0.561909
0.561909
0.561909
0.561909
0.561909
0.561909
0.561909
0.561909
0.561909
0.561909
0.561909
0.561909
0.561909
0.561909
0.561909
0.561909
0.561909
0.561909
0.561909
0.56191
0.56191
0.56191
0.56191
0.56191
0.56191
0.56191
0.56191
0.56191
0.56191
0.56191
0.56191
0.56191
0.56191
0.56191
0.56191
0.56191
0.56191
0.56191
0.56191
0.561911
0.561911
0.561911
0.561911
0.561911
0.561911
0.561911
0.561911
0.561911
0.561911
0.561911
0.561911
0.561911
0.561911
0.561911
0.561911
0.561911
0.561911
0.561912
0.561912
0.561912
0.561912
0.561912
0.561912
0.561912
0.561912
0.561912
0.561912
0.561912
0.561912
0.561912
0.561912
0.561912
0.561912
0.561912
0.561913
0.561913
0.561913
0.561913
0.561913
0.561913
0.561913
0.561913
0.561913
0.561913
0.561913
0.561913
0.561913
0.561913
0.561913
0.561913
0.561914
0.561914
0.561914
0.561914
0.561914
0.561914
0.561914
0.561914
0.561914
0.561914
0.561914
0.561914
0.561914
0.561914
0.561914
0.561915
0.561915
0.561915
0.561915
0.561915
0.561915
0.561915
0.561915
0.561915
0.561915
0.561915
0.561915
0.561915
0.561915
0.561916
0.561916
0.561916
0.561916
0.561916
0.561916
0.561916
0.561916
0.561916
0.561916
0.561916
0.561916
0.561917
0.561917
0.561917
0.561917
0.561917
0.561917
0.561917
0.561917
0.561917
0.561917
0.561917
0.561917
0.561917
0.561917
0.561918
0.561918
0.561918
0.561918
0.561918
0.561918
0.561918
0.561918
0.561918
0.561918
0.561918
0.561919
0.561919
0.561919
0.561919
0.561919
0.561919
0.561919
0.561919
0.561919
0.561919
0.561919
0.561919
0.561919
0.56192
0.56192
0.56192
0.56192
0.56192
0.56192
0.56192
0.56192
0.56192
0.56192
0.56192
0.561921
0.561921
0.561921
0.561921
0.561921
0.561921
0.561921
0.561921
0.561921
0.561921
0.561922
0.561922
0.561922
0.561922
0.561922
0.561922
0.561922
0.561922
0.561922
0.561922
0.561922
0.561923
0.561923
0.561923
0.561923
0.561923
0.561923
0.561923
0.561923
0.561923
0.561923
0.561924
0.561924
0.561924
0.561924
0.561924
0.561924
0.561924
0.561924
0.561924
0.561924
0.561925
0.561925
0.561925
0.561925
0.561925
0.561925
0.561925
0.561925
0.561925
0.561925
0.561926
0.561926
0.561926
0.561926
0.561926
0.561926
0.561926
0.561926
0.561926
0.561927
0.561927
0.561927
0.561927
0.561927
0.561927
0.561927
0.561927
0.561927
0.561928
0.561928
0.561928
0.561928
0.561928
0.561928
0.561928
0.561928
0.561928
0.561928
0.561929
0.561929
0.561929
0.561929
0.561929
0.561929
0.561929
0.561929
0.56193
0.56193
0.56193
0.56193
0.56193
0.56193
0.56193
0.56193
0.56193
0.561931
0.561931
0.561931
0.561931
0.561931
0.561931
0.561931
0.561931
0.561932
0.561932
0.561932
0.561932
0.561932
0.561932
0.561932
0.561932
0.561933
0.561933
0.561933
0.561933
0.561933
0.561933
0.561933
0.561933
0.561934
0.561934
0.561934
0.561934
0.561934
0.561934
0.561934
0.561934
0.561934
0.561935
0.561935
0.561935
0.561935
0.561935
0.561935
0.561935
0.561936
0.561936
0.561936
0.561936
0.561936
0.561936
0.561936
0.561936
0.561937
0.561937
0.561937
0.561937
0.561937
0.561937
0.561937
0.561938
0.561938
0.561938
0.561938
0.561938
0.561938
0.561938
0.561938
0.561939
0.561939
0.561939
0.561939
0.561939
0.561939
0.561939
0.56194
0.56194
0.56194
0.56194
0.56194
0.56194
0.56194
0.56194
0.561941
0.561941
0.561941
0.561941
0.561941
0.561941
0.561941
0.561942
0.561942
0.561942
0.561942
0.561942
0.561942
0.561943
0.561943
0.561943
0.561943
0.561943
0.561943
0.561943
0.561943
0.561944
0.561944
0.561944
0.561944
0.561944
0.561944
0.561945
0.561945
0.561945
0.561945
0.561945
0.561945
0.561946
0.561946
0.561946
0.561946
0.561946
0.561946
0.561946
0.561946
0.561947
0.561947
0.561947
0.561947
0.561947
0.561947
0.561948
0.561948
0.561948
0.561948
0.561948
0.561948
0.561949
0.561949
0.561949
0.561949
0.561949
0.561949
0.561949
0.56195
0.56195
0.56195
0.56195
0.56195
0.56195
0.561951
0.561951
0.561951
0.561951
0.561951
0.561951
0.561952
0.561952
0.561952
0.561952
0.561952
0.561952
0.561953
0.561953
0.561953
0.561953
0.561953
0.561953
0.561953
0.561954
0.561954
0.561954
0.561954
0.561954
0.561954
0.561955
0.561955
0.561955
0.561955
0.561955
0.561955
0.561956
0.561956
0.561956
0.561956
0.561956
0.561957
0.561957
0.561957
0.561957
0.561957
0.561957
0.561958
0.561958
0.561958
0.561958
0.561958
0.561958
0.561958
0.561959
0.561959
0.561959
0.561959
0.561959
0.56196
0.56196
0.56196
0.56196
0.56196
0.56196
0.561961
0.561961
0.561961
0.561961
0.561961
0.561962
0.561962
0.561962
0.561962
0.561962
0.561962
0.561963
0.561963
0.561963
0.561963
0.561963
0.561964
0.561964
0.561964
0.561964
0.561964
0.561965
0.561965
0.561965
0.561965
0.561965
0.561965
0.561966
0.561966
0.561966
0.561966
0.561966
0.561967
0.561967
0.561967
0.561967
0.561967
0.561968
0.561968
0.561968
0.561968
0.561968
0.561969
0.561969
0.561969
0.561969
0.561969
0.56197
0.56197
0.56197
0.56197
0.56197
0.56197
0.56197
0.561971
0.561971
0.561971
0.561971
0.561971
0.561972
0.561972
0.561972
0.561972
0.561972
0.561973
0.561973
0.561973
0.561973
0.561973
0.561974
0.561974
0.561974
0.561974
0.561974
0.561975
0.561975
0.561975
0.561975
0.561975
0.561976
0.561976
0.561976
0.561976
0.561976
0.561977
0.561977
0.561977
0.561977
0.561977
0.561978
0.561978
0.561978
0.561978
0.561978
0.561979
0.561979
0.561979
0.56198
0.56198
0.56198
0.56198
0.56198
0.561981
0.561981
0.561981
0.561981
0.561981
0.561982
0.561982
0.561982
0.561982
0.561982
0.561983
0.561983
0.561983
0.561983
0.561984
0.561984
0.561984
0.561984
0.561984
0.561985
0.561985
0.561985
0.561985
0.561985
0.561986
0.561986
0.561986
0.561986
0.561986
0.561987
0.561987
0.561987
0.561987
0.561988
0.561988
0.561988
0.561988
0.561988
0.561989
0.561989
0.561989
0.561989
0.56199
0.56199
0.56199
0.56199
0.56199
0.561991
0.561991
0.561991
0.561992
0.561992
0.561992
0.561992
0.561992
0.561993
0.561993
0.561993
0.561993
0.561993
0.561994
0.561994
0.561994
0.561994
0.561995
0.561995
0.561995
0.561995
0.561995
0.561996
0.561996
0.561996
0.561996
0.561997
0.561997
0.561997
0.561997
0.561998
0.561998
0.561998
0.561998
0.561998
0.561999
0.561999
0.561999
0.562
0.562
0.562
0.562
0.562001
0.562001
0.562001
0.562001
0.562001
0.562002
0.562002
0.562002
0.562002
0.562003
0.562003
0.562003
0.562003
0.562004
0.562004
0.562004
0.562004
0.562004
0.562005
0.562005
0.562005
0.562006
0.562006
0.562006
0.562006
0.562007
0.562007
0.562007
0.562007
0.562008
0.562008
0.562008
0.562008
0.562009
0.562009
0.562009
0.562009
0.562009
0.56201
0.56201
0.56201
0.562011
0.562011
0.562011
0.562011
0.562012
0.562012
0.562012
0.562012
0.562013
0.562013
0.562013
0.562013
0.562014
0.562014
0.562014
0.562015
0.562015
0.562015
0.562015
0.562016
0.562016
0.562016
0.562016
0.562017
0.562017
0.562017
0.562017
0.562018
0.562018
0.562018
0.562019
0.562019
0.562019
0.562019
0.56202
0.56202
0.56202
0.56202
0.562021
0.562021
0.562021
0.562021
0.562022
0.562022
0.562022
0.562023
0.562023
0.562023
0.562023
0.562024
0.562024
0.562024
0.562024
0.562025
0.562025
0.562025
0.562025
0.562026
0.562026
0.562026
0.562027
0.562027
0.562027
0.562027
0.562028
0.562028
0.562028
0.562028
0.562029
0.562029
0.562029
0.562029
0.56203
0.56203
0.56203
0.562031
0.562031
0.562031
0.562031
0.562032
0.562032
0.562032
0.562032
0.562033
0.562033
0.562034
0.562034
0.562034
0.562034
0.562035
0.562035
0.562035
0.562035
0.562036
0.562036
0.562036
0.562036
0.562037
0.562037
0.562038
0.562038
0.562038
0.562038
0.562039
0.562039
0.562039
0.562039
0.56204
0.56204
0.56204
0.562041
0.562041
0.562041
0.562042
0.562042
0.562042
0.562042
0.562043
0.562043
0.562043
0.562044
0.562044
0.562044
0.562045
0.562045
0.562045
0.562045
0.562046
0.562046
0.562046
0.562047
0.562047
0.562047
0.562048
0.562048
0.562048
0.562048
0.562049
0.562049
0.562049
0.56205
0.56205
0.56205
0.562051
0.562051
0.562051
0.562051
0.562052
0.562052
0.562052
0.562053
0.562053
0.562053
0.562054
0.562054
0.562054
0.562054
0.562055
0.562055
0.562056
0.562056
0.562056
0.562056
0.562057
0.562057
0.562058
0.562058
0.562058
0.562058
0.562059
0.562059
0.562059
0.56206
0.56206
0.56206
0.562061
0.562061
0.562061
0.562062
0.562062
0.562062
0.562062
0.562063
0.562063
0.562064
0.562064
0.562064
0.562064
0.562065
0.562065
0.562066
0.562066
0.562066
0.562066
0.562067
0.562067
0.562067
0.562068
0.562068
0.562068
0.562069
0.562069
0.562069
0.56207
0.56207
0.56207
0.56207
0.562071
0.562071
0.562072
0.562072
0.562072
0.562072
0.562073
0.562073
0.562074
0.562074
0.562074
0.562075
0.562075
0.562075
0.562075
0.562076
0.562076
0.562077
0.562077
0.562077
0.562078
0.562078
0.562078
0.562079
0.562079
0.562079
0.56208
0.56208
0.562081
0.562081
0.562081
0.562081
0.562082
0.562082
0.562082
0.562083
0.562083
0.562084
0.562084
0.562084
0.562084
0.562085
0.562085
0.562086
0.562086
0.562086
0.562087
0.562087
0.562087
0.562087
0.562088
0.562088
0.562089
0.562089
0.562089
0.56209
0.56209
0.562091
0.562091
0.562091
0.562091
0.562092
0.562092
0.562093
0.562093
0.562093
0.562094
0.562094
0.562095
0.562095
0.562095
0.562095
0.562096
0.562096
0.562096
0.562097
0.562097
0.562098
0.562098
0.562098
0.562099
0.562099
0.5621
0.5621
0.5621
0.5621
0.562101
0.562101
0.562102
0.562102
0.562102
0.562103
0.562103
0.562104
0.562104
0.562104
0.562105
0.562105
0.562106
0.562106
0.562106
0.562106
0.562107
0.562107
0.562107
0.562108
0.562108
0.562109
0.562109
0.562109
0.56211
0.56211
0.562111
0.562111
0.562111
0.562112
0.562112
0.562113
0.562113
0.562113
0.562113
0.562114
0.562114
0.562115
0.562115
0.562115
0.562116
0.562116
0.562117
0.562117
0.562117
0.562118
0.562118
0.562119
0.562119
0.562119
0.56212
0.56212
0.562121
0.562121
0.562121
0.562122
0.562122
0.562123
0.562123
0.562123
0.562124
0.562124
0.562125
0.562125
0.562125
0.562126
0.562126
0.562127
0.562127
0.562127
0.562128
0.562128
0.562129
0.562129
0.562129
0.56213
0.56213
0.562131
0.562131
0.562131
0.562132
0.562132
0.562133
0.562133
0.562133
0.562134
0.562134
0.562135
0.562135
0.562135
0.562136
0.562136
0.562137
0.562137
0.562137
0.562138
0.562138
0.562139
0.562139
0.562139
0.56214
0.56214
0.562141
0.562141
0.562141
0.562142
0.562142
0.562143
0.562143
0.562143
0.562144
0.562144
0.562145
0.562145
0.562145
0.562146
0.562147
0.562147
0.562147
0.562148
0.562148
0.562149
0.562149
0.562149
0.56215
0.56215
0.562151
0.562151
0.562151
0.562152
0.562152
0.562153
0.562153
0.562153
0.562154
0.562154
0.562155
0.562155
0.562155
0.562156
0.562157
0.562157
0.562158
0.562158
0.562158
0.562159
0.562159
0.56216
0.56216
0.56216
0.562161
0.562161
0.562162
0.562162
0.562163
0.562163
0.562164
0.562164
0.562164
0.562165
0.562165
0.562166
0.562166
0.562166
0.562167
0.562168
0.562168
0.562169
0.562169
0.562169
0.56217
0.56217
0.562171
0.562171
0.562171
0.562172
0.562172
0.562173
0.562173
0.562174
0.562174
0.562175
0.562175
0.562175
0.562176
0.562176
0.562177
0.562178
0.562178
0.562178
0.562179
0.562179
0.56218
0.56218
0.56218
0.562181
0.562182
0.562182
0.562182
0.562183
0.562183
0.562184
0.562184
0.562184
0.562185
0.562186
0.562186
0.562187
0.562187
0.562187
0.562188
0.562188
0.562189
0.562189
0.56219
0.56219
0.562191
0.562191
0.562191
0.562192
0.562193
0.562193
0.562194
0.562194
0.562194
0.562195
0.562195
0.562196
0.562196
0.562197
0.562197
0.562198
0.562198
0.562198
0.562199
0.5622
0.5622
0.562201
0.562201
0.562201
0.562202
0.562203
0.562203
0.562203
0.562204
0.562204
0.562205
0.562206
0.562206
0.562206
0.562207
0.562207
0.562208
0.562208
0.562209
0.562209
0.56221
0.562211
0.562211
0.562211
0.562212
0.562212
0.562213
0.562213
0.562214
0.562214
0.562215
0.562215
0.562215
0.562216
0.562217
0.562217
0.562218
0.562218
0.562219
0.562219
0.56222
0.56222
0.56222
0.562221
0.562222
0.562222
0.562223
0.562223
0.562224
0.562224
0.562225
0.562225
0.562225
0.562226
0.562227
0.562227
0.562228
0.562228
0.562229
0.562229
0.56223
0.562231
0.562231
0.562231
0.562232
0.562232
0.562233
0.562233
0.562234
0.562234
0.562235
0.562236
0.562236
0.562236
0.562237
0.562238
0.562238
0.562238
0.562239
0.56224
0.56224
0.562241
0.562241
0.562241
0.562242
0.562243
0.562243
0.562243
0.562244
0.562245
0.562245
0.562246
0.562246
0.562247
0.562247
0.562248
0.562249
0.562249
0.562249
0.56225
0.562251
0.562251
0.562251
0.562252
0.562253
0.562253
0.562254
0.562254
0.562255
0.562255
0.562256
0.562257
0.562257
0.562257
0.562258
0.562259
0.562259
0.562259
0.56226
0.562261
0.562262
0.562262
0.562262
0.562263
0.562264
0.562264
0.562265
0.562265
0.562266
0.562266
0.562267
0.562268
0.562268
0.562268
0.562269
0.56227
0.56227
0.56227
0.562271
0.562272
0.562273
0.562273
0.562273
0.562274
0.562275
0.562275
0.562276
0.562276
0.562277
0.562277
0.562278
0.562279
0.562279
0.56228
0.56228
0.562281
0.562282
0.562282
0.562282
0.562283
0.562284
0.562284
0.562284
0.562285
0.562286
0.562287
0.562287
0.562287
0.562288
0.562289
0.562289
0.56229
0.56229
0.562291
0.562292
0.562292
0.562293
0.562293
0.562294
0.562295
0.562295
0.562296
0.562296
0.562297
0.562297
0.562298
0.562299
0.562299
0.5623
0.5623
0.562301
0.562302
0.562302
0.562303
0.562303
0.562304
0.562305
0.562305
0.562306
0.562306
0.562307
0.562308
0.562308
0.562308
0.562309
0.56231
0.562311
0.562311
0.562311
0.562312
0.562313
0.562314
0.562314
0.562314
0.562315
0.562316
0.562317
0.562317
0.562317
0.562318
0.562319
0.56232
0.56232
0.56232
0.562321
0.562322
0.562323
0.562323
0.562324
0.562324
0.562325
0.562326
0.562326
0.562327
0.562327
0.562328
0.562329
0.562329
0.56233
0.56233
0.562331
0.562332
0.562332
0.562333
0.562334
0.562334
0.562335
0.562335
0.562336
0.562337
0.562337
0.562338
0.562338
0.562339
0.56234
0.562341
0.562341
0.562341
0.562342
0.562343
0.562344
0.562345
0.562345
0.562345
0.562346
0.562347
0.562348
0.562348
0.562349
0.562349
0.56235
0.562351
0.562351
0.562352
0.562353
0.562353
0.562354
0.562354
0.562355
0.562356
0.562357
0.562357
0.562357
0.562358
0.562359
0.56236
0.562361
0.562361
0.562361
0.562362
0.562363
0.562364
0.562364
0.562365
0.562365
0.562366
0.562367
0.562367
0.562368
0.562369
0.56237
0.56237
0.56237
0.562371
0.562372
0.562373
0.562374
0.562374
0.562375
0.562375
0.562376
0.562377
0.562377
0.562378
0.562379
0.56238
0.56238
0.56238
0.562381
0.562382
0.562383
0.562384
0.562384
0.562385
0.562385
0.562386
0.562387
0.562387
0.562388
0.562389
0.56239
0.562391
0.562391
0.562391
0.562392
0.562393
0.562394
0.562394
0.562395
0.562396
0.562397
0.562397
0.562397
0.562398
0.562399
0.5624
0.562401
0.562401
0.562402
0.562403
0.562404
0.562404
0.562404
0.562405
0.562406
0.562407
0.562408
0.562408
0.562409
0.56241
0.56241
0.562411
0.562411
0.562412
0.562413
0.562414
0.562415
0.562415
0.562416
0.562417
0.562417
0.562418
0.562418
0.562419
0.56242
0.562421
0.562422
0.562422
0.562423
0.562424
0.562425
0.562426
0.562426
0.562427
0.562427
0.562428
0.562429
0.562429
0.56243
0.562431
0.562432
0.562433
0.562433
0.562434
0.562435
0.562436
0.562436
0.562436
0.562437
0.562438
0.562439
0.56244
0.56244
0.562441
0.562442
0.562443
0.562444
0.562444
0.562445
0.562446
0.562447
0.562448
0.562448
0.562448
0.562449
0.56245
0.562451
0.562451
0.562452
0.562453
0.562454
0.562455
0.562455
0.562456
0.562457
0.562458
0.562459
0.562459
0.56246
0.562461
0.562462
0.562463
0.562463
0.562464
0.562464
0.562465
0.562466
0.562466
0.562467
0.562468
0.562469
0.56247
0.56247
0.562471
0.562472
0.562473
0.562474
0.562474
0.562475
0.562476
0.562477
0.562478
0.562478
0.562479
0.56248
0.562481
0.562482
0.562482
0.562483
0.562484
0.562485
0.562486
0.562486
0.562487
0.562488
0.562489
0.56249
0.56249
0.562491
0.562492
0.562493
0.562494
0.562494
0.562495
0.562496
0.562497
0.562498
0.562498
0.562499
0.5625
0.562501
0.562502
0.562502
0.562503
0.562504
0.562505
0.562506
0.562506
0.562507
0.562508
0.562509
0.56251
0.56251
0.562511
0.562512
0.562513
0.562514
0.562514
0.562515
0.562516
0.562517
0.562518
0.562518
0.562519
0.56252
0.562521
0.562522
0.562522
0.562523
0.562524
0.562525
0.562526
0.562526
0.562527
0.562528
0.562529
0.56253
0.56253
0.562531
0.562532
0.562533
0.562534
0.562534
0.562535
0.562536
0.562537
0.562539
0.562539
0.56254
0.562541
0.562542
0.562543
0.562543
0.562544
0.562545
0.562546
0.562547
0.562547
0.562548
0.562549
0.56255
0.562551
0.562551
0.562552
0.562553
0.562554
0.562555
0.562555
0.562557
0.562558
0.562559
0.56256
0.56256
0.562561
0.562562
0.562563
0.562564
0.562564
0.562565
0.562566
0.562567
0.562569
0.562569
0.56257
0.562571
0.562572
0.562573
0.562573
0.562574
0.562575
0.562576
0.562577
0.562577
0.562578
0.562579
0.562581
0.562582
0.562582
0.562583
0.562584
0.562585
0.562586
0.562586
0.562587
0.562588
0.562589
0.562591
0.562591
0.562592
0.562593
0.562594
0.562595
0.562595
0.562596
0.562597
0.562599
0.5626
0.5626
0.562601
0.562602
0.562603
0.562604
0.562604
0.562605
0.562607
0.562608
0.562609
0.562609
0.56261
0.562611
0.562612
0.562613
0.562613
0.562614
0.562616
0.562617
0.562618
0.562618
0.562619
0.56262
0.562621
0.562623
0.562623
0.562624
0.562625
0.562626
0.562627
0.562627
0.562629
0.56263
0.562631
0.562632
0.562632
0.562633
0.562634
0.562636
0.562637
0.562637
0.562638
0.562639
0.56264
0.562642
0.562642
0.562643
0.562644
0.562645
0.562646
0.562646
0.562647
0.562649
0.56265
0.562651
0.562651
0.562652
0.562654
0.562655
0.562656
0.562656
0.562657
0.562658
0.56266
0.562661
0.562661
0.562662
0.562663
0.562664
0.562666
0.562666
0.562667
0.562668
0.562669
0.562671
0.562671
0.562672
0.562673
0.562674
0.562675
0.562675
0.562677
0.562678
0.562679
0.56268
0.56268
0.562682
0.562683
0.562684
0.562685
0.562685
0.562687
0.562688
0.562689
0.562691
0.562691
0.562692
0.562693
0.562694
0.562696
0.562696
0.562697
0.562698
0.562699
0.562701
0.562701
0.562702
0.562703
0.562704
0.562706
0.562706
0.562707
0.562708
0.56271
0.562711
0.562711
0.562712
0.562713
0.562715
0.562716
0.562716
0.562717
0.562719
0.56272
0.562721
0.562721
0.562723
0.562724
0.562725
0.562726
0.562726
0.562728
0.562729
0.56273
0.562732
0.562732
0.562733
0.562734
0.562736
0.562737
0.562737
0.562738
0.56274
0.562741
0.562742
0.562742
0.562744
0.562745
0.562746
0.562748
0.562748
0.562749
0.56275
0.562752
0.562753
0.562753
0.562754
0.562756
0.562757
0.562758
0.562758
0.56276
0.562761
0.562763
0.562764
0.562764
0.562765
0.562767
0.562768
0.562769
0.562769
0.562771
0.562772
0.562773
0.562775
0.562775
0.562776
0.562778
0.562779
0.56278
0.56278
0.562782
0.562783
0.562784
0.562786
0.562786
0.562787
0.562789
0.56279
0.562791
0.562791
0.562793
0.562794
0.562796
0.562797
0.562797
0.562799
0.5628
0.562801
0.562803
0.562803
0.562804
0.562806
0.562807
0.562808
0.562808
0.56281
0.562811
0.562813
0.562814
0.562814
0.562816
0.562817
0.562818
0.56282
0.56282
0.562821
0.562823
0.562824
0.562826
0.562826
0.562827
0.562829
0.56283
0.562831
0.562831
0.562833
0.562834
0.562836
0.562837
0.562837
0.562839
0.56284
0.562842
0.562843
0.562843
0.562845
0.562846
0.562848
0.562849
0.562849
0.562851
0.562852
0.562854
0.562855
0.562855
0.562857
0.562858
0.56286
0.562861
0.562861
0.562863
0.562864
0.562866
0.562867
0.562867
0.562869
0.56287
0.562872
0.562873
0.562873
0.562875
0.562876
0.562878
0.562879
0.562879
0.562881
0.562882
0.562884
0.562885
0.562885
0.562887
0.562888
0.56289
0.562891
0.562891
0.562893
0.562895
0.562896
0.562898
0.562898
0.562899
0.562901
0.562902
0.562904
0.562904
0.562905
0.562907
0.562909
0.56291
0.56291
0.562912
0.562913
0.562915
0.562916
0.562916
0.562918
0.56292
0.562921
0.562923
0.562923
0.562924
0.562926
0.562928
0.562929
0.562929
0.562931
0.562932
0.562934
0.562936
0.562936
0.562937
0.562939
0.56294
0.562942
0.562942
0.562944
0.562945
0.562947
0.562948
0.562948
0.56295
0.562952
0.562953
0.562955
0.562955
0.562957
0.562958
0.56296
0.562962
0.562962
0.562963
0.562965
0.562966
0.562968
0.562968
0.56297
0.562971
0.562973
0.562975
0.562975
0.562976
0.562978
0.56298
0.562981
0.562981
0.562983
0.562985
0.562986
0.562988
0.562988
0.56299
0.562991
0.562993
0.562995
0.562995
0.562997
0.562998
0.563
0.563002
0.563002
0.563003
0.563005
0.563007
0.563009
0.563009
0.56301
0.563012
0.563014
0.563015
0.563015
0.563017
0.563019
0.563021
0.563022
0.563022
0.563024
0.563026
0.563027
0.563029
0.563029
0.563031
0.563033
0.563034
0.563036
0.563036
0.563038
0.56304
0.563042
0.563043
0.563043
0.563045
0.563047
0.563049
0.56305
0.56305
0.563052
0.563054
0.563056
0.563057
0.563057
0.563059
0.563061
0.563063
0.563065
0.563065
0.563066
0.563068
0.56307
0.563072
0.563072
0.563074
0.563075
0.563077
0.563079
0.563079
0.563081
0.563083
0.563085
0.563086
0.563086
0.563088
0.56309
0.563092
0.563094
0.563094
0.563096
0.563097
0.563099
0.563101
0.563101
0.563103
0.563105
0.563107
0.563108
0.563108
0.56311
0.563112
0.563114
0.563116
0.563116
0.563118
0.56312
0.563122
0.563124
0.563124
0.563125
0.563127
0.563129
0.563131
0.563131
0.563133
0.563135
0.563137
0.563139
0.563139
0.563141
0.563142
0.563144
0.563146
0.563146
0.563148
0.56315
0.563152
0.563154
0.563154
0.563156
0.563158
0.56316
0.563162
0.563162
0.563164
0.563166
0.563168
0.56317
0.56317
0.563172
0.563173
0.563175
0.563177
0.563177
0.563179
0.563181
0.563183
0.563185
0.563185
0.563187
0.563189
0.563191
0.563193
0.563193
0.563195
0.563197
0.563199
0.563201
0.563201
0.563203
0.563205
0.563207
0.563209
0.563209
0.563211
0.563213
0.563215
0.563217
0.563217
0.563219
0.563221
0.563223
0.563225
0.563225
0.563227
0.563229
0.563232
0.563234
0.563234
0.563236
0.563238
0.56324
0.563242
0.563242
0.563244
0.563246
0.563248
0.56325
0.56325
0.563252
0.563254
0.563256
0.563258
0.563258
0.563261
0.563263
0.563265
0.563267
0.563267
0.563269
0.563271
0.563273
0.563275
0.563275
0.563277
0.563279
0.563282
0.563284
0.563284
0.563286
0.563288
0.56329
0.563292
0.563292
0.563294
0.563297
0.563299
0.563301
0.563301
0.563303
0.563305
0.563307
0.56331
0.56331
0.563312
0.563314
0.563316
0.563318
0.563318
0.56332
0.563323
0.563325
0.563327
0.563327
0.563329
0.563331
0.563334
0.563336
0.563336
0.563338
0.56334
0.563342
0.563345
0.563345
0.563347
0.563349
0.563351
0.563354
0.563354
0.563356
0.563358
0.56336
0.563363
0.563363
0.563365
0.563367
0.563369
0.563372
0.563372
0.563374
0.563376
0.563378
0.563381
0.563381
0.563383
0.563385
0.563388
0.56339
0.56339
0.563392
0.563394
0.563397
0.563399
0.563399
0.563401
0.563404
0.563406
0.563408
0.563408
0.563411
0.563413
0.563415
0.563418
0.563418
0.56342
0.563422
0.563425
0.563427
0.563427
0.563429
0.563432
0.563434
0.563437
0.563437
0.563439
0.563441
0.563444
0.563446
0.563446
0.563448
0.563451
0.563453
0.563456
0.563456
0.563458
0.56346
0.563463
0.563465
0.563465
0.563468
0.56347
0.563472
0.563475
0.563475
0.563477
0.56348
0.563482
0.563485
0.563485
0.563487
0.56349
0.563492
0.563494
0.563494
0.563497
0.563499
0.563502
0.563504
0.563504
0.563507
0.563509
0.563512
0.563514
0.563514
0.563517
0.563519
0.563522
0.563524
0.563524
0.563527
0.563529
0.563532
0.563534
0.563534
0.563537
0.563539
0.563542
0.563545
0.563545
0.563547
0.56355
0.563552
0.563555
0.563555
0.563557
0.56356
0.563562
0.563565
0.563565
0.563567
0.56357
0.563573
0.563575
0.563575
0.563578
0.56358
0.563583
0.563586
0.563586
0.563588
0.563591
0.563594
0.563596
0.563596
0.563599
0.563601
0.563604
0.563607
0.563607
0.563609
0.563612
0.563615
0.563617
0.563617
0.56362
0.563623
0.563625
0.563628
0.563628
0.563631
0.563633
0.563636
0.563639
0.563639
0.563641
0.563644
0.563647
0.56365
0.56365
0.563652
0.563655
0.563658
0.56366
0.56366
0.563663
0.563666
0.563669
0.563671
0.563671
0.563674
0.563677
0.56368
0.563682
0.563682
0.563685
0.563688
0.563691
0.563694
0.563694
0.563696
0.563699
0.563702
0.563705
0.563705
0.563708
0.56371
0.563713
0.563716
0.563716
0.563719
0.563722
0.563725
0.563727
0.563727
0.56373
0.563733
0.563736
0.563739
0.563739
0.563742
0.563745
0.563747
0.56375
0.56375
0.563753
0.563756
0.563759
0.563762
0.563762
0.563765
0.563768
0.563771
0.563773
0.563773
0.563776
0.563779
0.563782
0.563785
0.563785
0.563788
0.563791
0.563794
0.563797
0.563797
0.5638
0.563803
0.563806
0.563809
0.563809
0.563812
0.563815
0.563818
0.563821
0.563821
0.563824
0.563827
0.56383
0.563833
0.563833
0.563836
0.563839
0.563842
0.563845
0.563845
0.563848
0.563851
0.563854
0.563857
0.563857
0.56386
0.563863
0.563867
0.56387
0.56387
0.563873
0.563876
0.563879
0.563882
0.563882
0.563885
0.563888
0.563891
0.563894
0.563894
0.563898
0.563901
0.563904
0.563907
0.563907
0.56391
0.563913
0.563917
0.56392
0.56392
0.563923
0.563926
0.563929
0.563932
0.563932
0.563936
0.563939
0.563942
0.563945
0.563945
0.563948
0.563952
0.563955
0.563958
0.563958
0.563961
0.563965
0.563968
0.563971
0.563971
0.563974
0.563978
0.563981
0.563984
0.563984
0.563988
0.563991
0.563994
0.563997
0.563997
0.564001
0.564004
0.564007
0.564011
0.564011
0.564014
0.564017
0.564021
0.564024
0.564024
0.564027
0.564031
0.564034
0.564038
0.564038
0.564041
0.564044
0.564048
0.564051
0.564051
0.564054
0.564058
0.564061
0.564065
0.564065
0.564068
0.564072
0.564075
0.564078
0.564078
0.564082
0.564085
0.564089
0.564092
0.564092
0.564096
0.564099
0.564103
0.564106
0.564106
0.56411
0.564113
0.564117
0.56412
0.56412
0.564124
0.564127
0.564131
0.564134
0.564134
0.564138
0.564141
0.564145
0.564149
0.564149
0.564152
0.564156
0.564159
0.564163
0.564163
0.564167
0.56417
0.564174
0.564177
0.564177
0.564181
0.564185
0.564188
0.564192
0.564192
0.564196
0.564199
0.564203
0.564207
0.564207
0.56421
0.564214
0.564218
0.564221
0.564221
0.564225
0.564229
0.564233
0.564236
0.564236
0.56424
0.564244
0.564248
0.564251
0.564251
0.564255
0.564259
0.564263
0.564266
0.564266
0.56427
0.564274
0.564278
0.564282
0.564282
0.564285
0.564289
0.564293
0.564297
0.564297
0.564301
0.564305
0.564308
0.564312
0.564312
0.564316
0.56432
0.564324
0.564328
0.564328
0.564332
0.564336
0.56434
0.564343
0.564343
0.564347
0.564351
0.564355
0.564359
0.564359
0.564363
0.564367
0.564371
0.564375
0.564375
0.564379
0.564383
0.564387
0.564391
0.564391
0.564395
0.564399
0.564403
0.564407
0.564407
0.564411
0.564415
0.564419
0.564423
0.564423
0.564428
0.564432
0.564436
0.56444
0.56444
0.564444
0.564448
0.564452
0.564456
0.564456
0.564461
0.564465
0.564469
0.564473
0.564473
0.564477
0.564481
0.564485
0.56449
0.56449
0.564494
0.564498
0.564502
0.564507
0.564507
0.564511
0.564515
0.564519
0.564524
0.564524
0.564528
0.564532
0.564536
0.564541
0.564541
0.564545
0.564549
0.564554
0.564558
0.564558
0.564562
0.564566
0.564571
0.564575
0.564575
0.56458
0.564584
0.564588
0.564593
0.564593
0.564597
0.564602
0.564606
0.56461
0.56461
0.564615
0.564619
0.564624
0.564628
0.564628
0.564633
0.564637
0.564642
0.564646
0.564646
0.564651
0.564655
0.56466
0.564664
0.564664
0.564669
0.564673
0.564678
0.564682
0.564682
0.564687
0.564691
0.564696
0.564701
0.564701
0.564705
0.56471
0.564714
0.564719
0.564719
0.564724
0.564728
0.564733
0.564738
0.564738
0.564742
0.564747
0.564752
0.564756
0.564756
0.564761
0.564766
0.564771
0.564775
0.564775
0.56478
0.564785
0.56479
0.564794
0.564794
0.564799
0.564804
0.564809
0.564814
0.564814
0.564818
0.564823
0.564828
0.564833
0.564833
0.564838
0.564843
0.564847
0.564852
0.564852
0.564857
0.564862
0.564867
0.564872
0.564872
0.564877
0.564882
0.564887
0.564892
0.564892
0.564897
0.564902
0.564907
0.564912
0.564912
0.564917
0.564922
0.564927
0.564932
0.564932
0.564937
0.564942
0.564947
0.564952
0.564952
0.564957
0.564962
0.564967
0.564973
0.564973
0.564978
0.564983
0.564988
0.564993
0.564993
0.564998
0.565004
0.565009
0.565014
0.565014
0.565019
0.565024
0.56503
0.565035
0.565035
0.56504
0.565045
0.565051
0.565056
0.565056
0.565061
0.565067
0.565072
0.565077
0.565077
0.565083
0.565088
0.565093
0.565099
0.565099
0.565104
0.565109
0.565115
0.56512
0.56512
0.565126
0.565131
0.565137
0.565142
0.565142
0.565147
0.565153
0.565158
0.565164
0.565164
0.565169
0.565175
0.565181
0.565186
0.565186
0.565192
0.565197
0.565203
0.565208
0.565208
0.565214
0.56522
0.565225
0.565231
0.565231
0.565237
0.565242
0.565248
0.565254
0.565254
0.565259
0.565265
0.565271
0.565276
0.565276
0.565282
0.565288
0.565294
0.565299
0.565299
0.565305
0.565311
0.565317
0.565323
0.565323
0.565329
0.565334
0.56534
0.565346
0.565346
0.565352
0.565358
0.565364
0.56537
0.56537
0.565376
0.565382
0.565388
0.565394
0.565394
0.5654
0.565406
0.565412
0.565418
0.565418
0.565424
0.56543
0.565436
0.565442
0.565442
0.565448
0.565454
0.56546
0.565466
0.565466
0.565472
0.565479
0.565485
0.565491
0.565491
0.565497
0.565503
0.565509
0.565516
0.565516
0.565522
0.565528
0.565534
0.565541
0.565541
0.565547
0.565553
0.56556
0.565566
0.565566
0.565572
0.565579
0.565585
0.565592
0.565592
0.565598
0.565604
0.565611
0.565617
0.565617
0.565624
0.56563
0.565637
0.565643
0.565643
0.56565
0.565656
0.565663
0.565669
0.565669
0.565676
0.565682
0.565689
0.565696
0.565696
0.565702
0.565709
0.565715
0.565722
0.565722
0.565729
0.565735
0.565742
0.565749
0.565749
0.565756
0.565762
0.565769
0.565776
0.565776
0.565783