<?xml version="1.0"?>
<VTKFile type="UnstructuredGrid" version="0.1" byte_order="LittleEndian">
<UnstructuredGrid>
<Piece NumberOfPoints="5000" NumberOfCells="4000">
<PointData Scalars="Reaction 0">
<DataArray type="Float32" Name="Reaction 0" format="ascii">
0.341106
0.341106
0.341106
0.341106
0.341106
0.341106
0.341107
0.341107
0.341107
0.341107
0.341107
0.341107
0.341108
0.341108
0.341108
0.341108
0.341109
0.341109
0.34111
0.34111
0.34111
0.341111
0.341111
0.341112
0.341112
0.341112
0.341113
0.341113
0.341114
0.341115
0.341115
0.341116
0.341116
0.341117
0.341118
0.341118
0.341119
0.34112
0.341121
0.341122
0.341122
0.341123
0.341124
0.341125
0.341126
0.341126
0.341127
0.341128
0.341129
0.34113
0.34113
0.341132
0.341133
0.341134
0.341136
0.341136
0.341137
0.341138
0.34114
0.341141
0.341141
0.341143
0.341144
0.341146
0.341147
0.341147
0.341149
0.34115
0.341152
0.341154
0.341154
0.341155
0.341157
0.341159
0.341161
0.341161
0.341163
0.341164
0.341166
0.341168
0.341168
0.34117
0.341172
0.341174
0.341176
0.341176
0.341178
0.341181
0.341183
0.341185
0.341185
0.341187
0.341189
0.341192
0.341194
0.341194
0.341196
0.341199
0.341201
0.341203
0.341203
0.341206
0.341208
0.341211
0.341213
0.341213
0.341216
0.341218
0.341221
0.341224
0.341224
0.341226
0.341229
0.341232
0.341235
0.341235
0.341237
0.34124
0.341243
0.341246
0.341246
0.341249
0.341252
0.341255
0.341258
0.341258
0.341261
0.341264
0.341267
0.34127
0.34127
0.341274
0.341277
0.34128
0.341283
0.341283
0.341287
0.34129
0.341293
0.341297
0.341297
0.3413
0.341303
0.341307
0.34131
0.34131
0.341314
0.341318
0.341321
0.341325
0.341325
0.341328
0.341332
0.341336
0.34134
0.34134
0.341343
0.341347
0.341351
0.341355
0.341355
0.341359
0.341363
0.341367
0.341371
0.341371
0.341375
0.341379
0.341383
0.341387
0.341387
0.341391
0.341395
0.341399
0.341404
0.341404
0.341408
0.341412
0.341417
0.341421
0.341421
0.341425
0.34143
0.341434
0.341439
0.341439
0.341443
0.341448
0.341452
0.341457
0.341457
0.341462
0.341466
0.341471
0.341476
0.341476
0.34148
0.341485
0.34149
0.341495
0.341495
0.3415
0.341505
0.34151
0.341514
0.341514
0.341519
0.341524
0.34153
0.341535
0.341535
0.34154
0.341545
0.34155
0.341555
0.341555
0.341561
0.341566
0.341571
0.341576
0.341576
0.341582
0.341587
0.341593
0.341598
0.341598
0.341604
0.341609
0.341615
0.34162
0.34162
0.341626
0.341631
0.341637
0.341643
0.341643
0.341648
0.341654
0.34166
0.341666
0.341666
0.341672
0.341678
0.341683
0.341689
0.341689
0.341695
0.341701
0.341707
0.341713
0.341713
0.341719
0.341726
0.341732
0.341738
0.341738
0.341744
0.34175
0.341757
0.341763
0.341763
0.341769
0.341776
0.341782
0.341788
0.341788
0.341795
0.341801
0.341808
0.341814
0.341814
0.341821
0.341828
0.341834
0.341841
0.341841
0.341848
0.341854
0.341861
0.341868
0.341868
0.341875
0.341882
0.341888
0.341895
0.341895
0.341902
0.341909
0.341916
0.341923
0.341923
0.34193
0.341937
0.341945
0.341952
0.341952
0.341959
0.341966
0.341973
0.341981
0.341981
0.341988
0.341995
0.342003
0.34201
0.34201
0.342017
0.342025
0.342032
0.34204
0.34204
0.342047
0.342055
0.342063
0.34207
0.34207
0.342078
0.342086
0.342093
0.342101
0.342101
0.342109
0.342117
0.342124
0.342132
0.342132
0.34214
0.342148
0.342156
0.342164
0.342164
0.342172
0.34218
0.342188
0.342196
0.342196
0.342205
0.342213
0.342221
0.342229
0.342229
0.342237
0.342246
0.342254
0.342262
0.342262
0.342271
0.342279
0.342288
0.342296
0.342296
0.342305
0.342313
0.342322
0.34233
0.34233
0.342339
0.342348
0.342356
0.342365
0.342365
0.342374
0.342383
0.342392
0.3424
0.3424
0.342409
0.342418
0.342427
0.342436
0.342436
0.342445
0.342454
0.342463
0.342472
0.342472
0.342481
0.342491
0.3425
0.342509
0.342509
0.342518
0.342527
0.342537
0.342546
0.342546
0.342555
0.342565
0.342574
0.342584
0.342584
0.342593
0.342603
0.342612
0.342622
0.342622
0.342631
0.342641
0.342651
0.34266
0.34266
0.34267
0.34268
0.34269
0.3427
0.3427
0.342709
0.342719
0.342729
0.342739
0.342739
0.342749
0.342759
0.342769
0.342779
0.342779
0.342789
0.342799
0.342809
0.34282
0.34282
0.34283
0.34284
0.34285
0.342861
0.342861
0.342871
0.342881
0.342892
0.342902
0.342902
0.342913
0.342923
0.342934
0.342944
0.342944
0.342955
0.342965
0.342976
0.342987
0.342987
0.342997
0.343008
0.343019
0.34303
0.34303
0.34304
0.343051
0.343062
0.343073
0.343073
0.343084
0.343095
0.343106
0.343117
0.343117
0.343128
0.343139
0.34315
0.343161
0.343161
0.343173
0.343184
0.343195
0.343206
0.343206
0.343218
0.343229
0.34324
0.343252
0.343252
0.343263
0.343275
0.343286
0.343298
0.343298
0.343309
0.343321
0.343332
0.343344
0.343344
0.343356
0.343367
0.343379
0.343391
0.343391
0.343403
0.343414
0.343426
0.343438
0.343438
0.34345
0.343462
0.343474
0.343486
0.343486
0.343498
0.34351
0.343522
0.343534
0.343534
0.343546
0.343559
0.343571
0.343583
0.343583
0.343595
0.343608
0.34362
0.343632
0.343632
0.343645
0.343657
0.34367
0.343682
0.343682
0.343694
0.343707
0.34372
0.343732
0.343732
0.343745
0.343758
0.34377
0.343783
0.343783
0.343796
0.343808
0.343821
0.343834
0.343834
0.343847
0.34386
0.343873
0.343886
0.343886
0.343899
0.343912
0.343925
0.343938
0.343938
0.343951
0.343964
0.343977
0.343991
0.343991
0.344004
0.344017
0.34403
0.344044
0.344044
0.344057
0.34407
0.344084
0.344097
0.344097
0.344111
0.344124
0.344138
0.344151
0.344151
0.344165
0.344179
0.344192
0.344206
0.344206
0.34422
0.344234
0.344247
0.344261
0.344261
0.344275
0.344289
0.344303
0.344317
0.344317
0.344331
0.344345
0.344359
0.344373
0.344373
0.344387
0.344401
0.344415
0.344429
0.344429
0.344443
0.344458
0.344472
0.344486
0.344486
0.344501
0.344515
0.344529
0.344544
0.344544
0.344558
0.344573
0.344587
0.344602
0.344602
0.344616
0.344631
0.344645
0.34466
0.34466
0.344675
0.34469
0.344704
0.344719
0.344719
0.344734
0.344749
0.344764
0.344778
0.344778
0.344793
0.344808
0.344823
0.344838
0.344838
0.344853
0.344869
0.344884
0.344899
0.344899
0.344914
0.344929
0.344944
0.34496
0.34496
0.344975
0.34499
0.345006
0.345021
0.345021
0.345036
0.345052
0.345067
0.345083
0.345083
0.345098
0.345114
0.34513
0.345145
0.345145
0.345161
0.345176
0.345192
0.345208
0.345208
0.345224
0.34524
0.345255
0.345271
0.345271
0.345287
0.345303
0.345319
0.345335
0.345335
0.345351
0.345367
0.345383
0.345399
0.345399
0.345415
0.345432
0.345448
0.345464
0.345464
0.34548
0.345497
0.345513
0.345529
0.345529
0.345546
0.345562
0.345578
0.345595
0.345595
0.345611
0.345628
0.345644
0.345661
0.345661
0.345678
0.345694
0.345711
0.345728
0.345728
0.345744
0.345761
0.345778
0.345795
0.345795
0.345812
0.345829
0.345846
0.345863
0.345863
0.34588
0.345897
0.345914
0.345931
0.345931
0.345948
0.345965
0.345982
0.345999
0.345999
0.346016
0.346034
0.346051
0.346068
0.346068
0.346086
0.346103
0.34612
0.346138
0.346138
0.346155
0.346173
0.34619
0.346208
0.346208
0.346226
0.346243
0.346261
0.346278
0.346278
0.346296
0.346314
0.346332
0.346349
0.346349
0.346367
0.346385
0.346403
0.346421
0.346421
0.346439
0.346457
0.346475
0.346493
0.346493
0.346511
0.346529
0.346547
0.346565
0.346565
0.346584
0.346602
0.34662
0.346638
0.346638
0.346657
0.346675
0.346693
0.346712
0.346712
0.34673
0.346749
0.346767
0.346786
0.346786
0.346804
0.346823
0.346841
0.34686
0.34686
0.346879
0.346897
0.346916
0.346935
0.346935
0.346954
0.346972
0.346991
0.34701
0.34701
0.347029
0.347048
0.347067
0.347086
0.347086
0.347105
0.347124
0.347143
0.347162
0.347162
0.347182
0.347201
0.34722
0.347239
0.347239
0.347258
0.347278
0.347297
0.347316
0.347316
0.347336
0.347355
0.347375
0.347394
0.347394
0.347414
0.347433
0.347453
0.347472
0.347472
0.347492
0.347512
0.347531
0.347551
0.347551
0.347571
0.347591
0.34761
0.34763
0.34763
0.34765
0.34767
0.34769
0.34771
0.34771
0.34773
0.34775
0.34777
0.34779
0.34779
0.34781
0.34783
0.347851
0.347871
0.347871
0.347891
0.347911
0.347932
0.347952
0.347952
0.347972
0.347993
0.348013
0.348034
0.348034
0.348054
0.348075
0.348095
0.348116
0.348116
0.348136
0.348157
0.348178
0.348198
0.348198
0.348219
0.34824
0.34826
0.348281
0.348281
0.348302
0.348323
0.348344
0.348365
0.348365
0.348386
0.348407
0.348428
0.348449
0.348449
0.34847
0.348491
0.348512
0.348533
0.348533
0.348554
0.348576
0.348597
0.348618
0.348618
0.34864
0.348661
0.348682
0.348704
0.348704
0.348725
0.348747
0.348768
0.34879
0.34879
0.348811
0.348833
0.348854
0.348876
0.348876
0.348898
0.348919
0.348941
0.348963
0.348963
0.348985
0.349007
0.349028
0.34905
0.34905
0.349072
0.349094
0.349116
0.349138
0.349138
0.34916
0.349182
0.349204
0.349226
0.349226
0.349249
0.349271
0.349293
0.349315
0.349315
0.349338
0.34936
0.349382
0.349405
0.349405
0.349427
0.349449
0.349472
0.349494
0.349494
0.349517
0.349539
0.349562
0.349585
0.349585
0.349607
0.34963
0.349653
0.349675
0.349675
0.349698
0.349721
0.349744
0.349767
0.349767
0.349789
0.349812
0.349835
0.349858
0.349858
0.349881
0.349904
0.349927
0.34995
0.34995
0.349974
0.349997
0.35002
0.350043
0.350043
0.350066
0.35009
0.350113
0.350136
0.350136
0.35016
0.350183
0.350206
0.35023
0.35023
0.350253
0.350277
0.3503
0.350324
0.350324
0.350348
0.350371
0.350395
0.350419
0.350419
0.350442
0.350466
0.35049
0.350514
0.350514
0.350537
0.350561
0.350585
0.350609
0.350609
0.350633
0.350657
0.350681
0.350705
0.350705
0.350729
0.350753
0.350777
0.350802
0.350802
0.350826
0.35085
0.350874
0.350899
0.350899
0.350923
0.350947
0.350972
0.350996
0.350996
0.35102
0.351045
0.351069
0.351094
0.351094
0.351119
0.351143
0.351168
0.351192
0.351192
0.351217
0.351242
0.351267
0.351291
0.351291
0.351316
0.351341
0.351366
0.351391
0.351391
0.351416
0.35144
0.351465
0.35149
0.35149
0.351516
0.351541
0.351566
0.351591
0.351591
0.351616
0.351641
0.351666
0.351692
0.351692
0.351717
0.351742
0.351768
0.351793
0.351793
0.351818
0.351844
0.351869
0.351895
0.351895
0.35192
0.351946
0.351971
0.351997
0.351997
0.352023
0.352048
0.352074
0.3521
0.3521
0.352125
0.352151
0.352177
0.352203
0.352203
0.352229
0.352255
0.35228
0.352306
0.352306
0.352332
0.352358
0.352385
0.352411
0.352411
0.352437
0.352463
0.352489
0.352515
0.352515
0.352541
0.352568
0.352594
0.35262
0.35262
0.352647
0.352673
0.352699
0.352726
0.352726
0.352752
0.352779
0.352805
0.352832
0.352832
0.352859
0.352885
0.352912
0.352939
0.352939
0.352965
0.352992
0.353019
0.353046
0.353046
0.353072
0.353099
0.353126
0.353153
0.353153
0.35318
0.353207
0.353234
0.353261
0.353261
0.353288
0.353315
0.353342
0.353369
0.353369
0.353397
0.353424
0.353451
0.353478
0.353478
0.353506
0.353533
0.35356
0.353588
0.353588
0.353615
0.353643
0.35367
0.353698
0.353698
0.353725
0.353753
0.35378
0.353808
0.353808
0.353836
0.353863
0.353891
0.353919
0.353919
0.353947
0.353974
0.354002
0.35403
0.35403
0.354058
0.354086
0.354114
0.354142
0.354142
0.35417
0.354198
0.354226
0.354254
0.354254
0.354282
0.354311
0.354339
0.354367
0.354367
0.354395
0.354424
0.354452
0.35448
0.35448
0.354509
0.354537
0.354565
0.354594
0.354594
0.354622
0.354651
0.354679
0.354708
0.354708
0.354737
0.354765
0.354794
0.354823
0.354823
0.354851
0.35488
0.354909
0.354938
0.354938
0.354967
0.354996
0.355025
0.355053
0.355053
0.355082
0.355111
0.35514
0.35517
0.35517
0.355199
0.355228
0.355257
0.355286
0.355286
0.355315
0.355345
0.355374
0.355403
0.355403
0.355432
0.355462
0.355491
0.355521
0.355521
0.35555
0.35558
0.355609
0.355639
0.355639
0.355668
0.355698
0.355727
0.355757
0.355757
0.355787
0.355816
0.355846
0.355876
0.355876
0.355906
0.355936
0.355966
0.355995
0.355995
0.356025
0.356055
0.356085
0.356115
0.356115
0.356145
0.356175
0.356206
0.356236
0.356236
0.356266
0.356296
0.356326
0.356356
0.356356
0.356387
0.356417
0.356447
0.356478
0.356478
0.356508
0.356539
0.356569
0.3566
0.3566
0.35663
0.356661
0.356691
0.356722
0.356722
0.356752
0.356783
0.356814
0.356845
0.356845
0.356875
0.356906
0.356937
0.356968
0.356968
0.356999
0.35703
0.357061
0.357091
0.357091
0.357122
0.357154
0.357185
0.357216
0.357216
0.357247
0.357278
0.357309
0.35734
0.35734
0.357372
0.357403
0.357434
0.357465
0.357465
0.357497
0.357528
0.35756
0.357591
0.357591
0.357622
0.357654
0.357685
0.357717
0.357717
0.357749
0.35778
0.357812
0.357844
0.357844
0.357875
0.357907
0.357939
0.357971
0.357971
0.358002
0.358034
0.358066
0.358098
0.358098
0.35813
0.358162
0.358194
0.358226
0.358226
0.358258
0.35829
0.358322
0.358354
0.358354
0.358387
0.358419
0.358451
0.358483
0.358483
0.358516
0.358548
0.35858
0.358613
0.358613
0.358645
0.358678
0.35871
0.358743
0.358743
0.358775
0.358808
0.35884
0.358873
0.358873
0.358906
0.358938
0.358971
0.359004
0.359004
0.359037
0.359069
0.359102
0.359135
0.359135
0.359168
0.359201
0.359234
0.359267
0.359267
0.3593
0.359333
0.359366
0.359399
0.359399
0.359432
0.359465
0.359498
0.359532
0.359532
0.359565
0.359598
0.359632
0.359665
0.359665
0.359698
0.359732
0.359765
0.359798
0.359798
0.359832
0.359865
0.359899
0.359933
0.359933
0.359966
0.36
0.360033
0.360067
0.360067
0.360101
0.360135
0.360168
0.360202
0.360202
0.360236
0.36027
0.360304
0.360338
0.360338
0.360372
0.360406
0.36044
0.360474
0.360474
0.360508
0.360542
0.360576
0.36061
0.36061
0.360644
0.360679
0.360713
0.360747
0.360747
0.360782
0.360816
0.36085
0.360885
0.360885
0.360919
0.360954
0.360988
0.361023
0.361023
0.361057
0.361092
0.361126
0.361161
0.361161
0.361196
0.36123
0.361265
0.3613
0.3613
0.361335
0.361369
0.361404
0.361439
0.361439
0.361474
0.361509
0.361544
0.361579
0.361579
0.361614
0.361649
0.361684
0.361719
0.361719
0.361754
0.361789
0.361825
0.36186
0.36186
0.361895
0.36193
0.361966
0.362001
0.362001
0.362036
0.362072
0.362107
0.362143
0.362143
0.362178
0.362214
0.362249
0.362285
0.362285
0.36232
0.362356
0.362392
0.362427
0.362427
0.362463
0.362499
0.362535
0.36257
0.36257
0.362606
0.362642
0.362678
0.362714
0.362714
0.36275
0.362786
0.362822
0.362858
0.362858
0.362894
0.36293
0.362966
0.363003
0.363003
0.363039
0.363075
0.363111
0.363148
0.363148
0.363184
0.36322
0.363257
0.363293
0.363293
0.363329
0.363366
0.363402
0.363439
0.363439
0.363475
0.363512
0.363549
0.363585
0.363585
0.363622
0.363659
0.363695
0.363732
0.363732
0.363769
0.363806
0.363843
0.363879
0.363879
0.363916
0.363953
0.36399
0.364027
0.364027
0.364064
0.364101
0.364138
0.364175
0.364175
0.364213
0.36425
0.364287
0.364324
0.364324
0.364361
0.364399
0.364436
0.364473
0.364473
0.364511
0.364548
0.364586
0.364623
0.364623
0.364661
0.364698
0.364736
0.364773
0.364773
0.364811
0.364848
0.364886
0.364924
0.364924
0.364962
0.364999
0.365037
0.365075
0.365075
0.365113
0.365151
0.365188
0.365226
0.365226
0.365264
0.365302
0.36534
0.365378
0.365378
0.365417
0.365455
0.365493
0.365531
0.365531
0.365569
0.365607
0.365646
0.365684
0.365684
0.365722
0.365761
0.365799
0.365837
0.365837
0.365876
0.365914
0.365953
0.365991
0.365991
0.36603
0.366068
0.366107
0.366146
0.366146
0.366184
0.366223
0.366262
0.3663
0.3663
0.366339
0.366378
0.366417
0.366456
0.366456
0.366495
0.366533
0.366572
0.366611
0.366611
0.36665
0.366689
0.366729
0.366768
0.366768
0.366807
0.366846
0.366885
0.366924
0.366924
0.366964
0.367003
0.367042
0.367082
0.367082
0.367121
0.36716
0.3672
0.367239
0.367239
0.367279
0.367318
0.367358
0.367397
0.367397
0.367437
0.367477
0.367516
0.367556
0.367556
0.367596
0.367635
0.367675
0.367715
0.367715
0.367755
0.367795
0.367834
0.367874
0.367874
0.367914
0.367954
0.367994
0.368034
0.368034
0.368074
0.368115
0.368155
0.368195
0.368195
0.368235
0.368275
0.368315
0.368356
0.368356
0.368396
0.368436
0.368477
0.368517
0.368517
0.368558
0.368598
0.368638
0.368679
0.368679
0.368719
0.36876
0.368801
0.368841
0.368841
0.368882
0.368923
0.368963
0.369004
0.369004
0.369045
0.369086
0.369126
0.369167
0.369167
0.369208
0.369249
0.36929
0.369331
0.369331
0.369372
0.369413
0.369454
0.369495
0.369495
0.369536
0.369577
0.369619
0.36966
0.36966
0.369701
0.369742
0.369784
0.369825
0.369825
0.369866
0.369908
0.369949
0.369991
0.369991
0.370032
0.370073
0.370115
0.370157
0.370157
0.370198
0.37024
0.370281
0.370323
0.370323
0.370365
0.370407
0.370448
0.37049
0.37049
0.370532
0.370574
0.370616
0.370657
0.370657
0.370699
0.370741
0.370783
0.370825
0.370825
0.370867
0.37091
0.370952
0.370994
0.370994
0.371036
0.371078
0.37112
0.371163
0.371163
0.371205
0.371247
0.37129
0.371332
0.371332
0.371374
0.371417
0.371459
0.371502
0.371502
0.371544
0.371587
0.371629
0.371672
0.371672
0.371715
0.371757
0.3718
0.371843
0.371843
0.371885
0.371928
0.371971
0.372014
0.372014
0.372057
0.3721
0.372142
0.372185
0.372185
0.372228
0.372271
0.372314
0.372357
0.372357
0.372401
0.372444
0.372487
0.37253
0.37253
0.372573
0.372616
0.37266
0.372703
0.372703
0.372746
0.37279
0.372833
0.372877
0.372877
0.37292
0.372963
0.373007
0.37305
0.37305
0.373094
0.373138
0.373181
0.373225
0.373225
0.373269
0.373312
0.373356
0.3734
0.3734
0.373444
0.373487
0.373531
0.373575
0.373575
0.373619
0.373663
0.373707
0.373751
0.373751
0.373795
0.373839
0.373883
0.373927
0.373927
0.373971
0.374015
0.37406
0.374104
0.374104
0.374148
0.374192
0.374237
0.374281
0.374281
0.374325
0.37437
0.374414
0.374459
0.374459
0.374503
0.374548
0.374592
0.374637
0.374637
0.374681
0.374726
0.374771
0.374815
0.374815
0.37486
0.374905
0.37495
0.374995
0.374995
0.375039
0.375084
0.375129
0.375174
0.375174
0.375219
0.375264
0.375309
0.375354
0.375354
0.375399
0.375444
0.375489
0.375534
0.375534
0.37558
0.375625
0.37567
0.375715
0.375715
0.375761
0.375806
0.375851
0.375897
0.375897
0.375942
0.375988
0.376033
0.376078
0.376078
0.376124
0.37617
0.376215
0.376261
0.376261
0.376306
0.376352
0.376398
0.376444
0.376444
0.376489
0.376535
0.376581
0.376627
0.376627
0.376673
0.376718
0.376764
0.37681
0.37681
0.376856
0.376902
0.376948
0.376995
0.376995
0.377041
0.377087
0.377133
0.377179
0.377179
0.377225
0.377272
0.377318
0.377364
0.377364
0.37741
0.377457
0.377503
0.37755
0.37755
0.377596
0.377643
0.377689
0.377736
0.377736
0.377782
0.377829
0.377875
0.377922
0.377922
0.377969
0.378015
0.378062
0.378109
0.378109
0.378156
0.378203
0.378249
0.378296
0.378296
0.378343
0.37839
0.378437
0.378484
0.378484
0.378531
0.378578
0.378625
0.378672
0.378672
0.37872
0.378767
0.378814
0.378861
0.378861
0.378908
0.378956
0.379003
0.37905
0.37905
0.379098
0.379145
0.379193
0.37924
0.37924
0.379287
0.379335
0.379383
0.37943
0.37943
0.379478
0.379525
0.379573
0.379621
0.379621
0.379668
0.379716
0.379764
0.379812
0.379812
0.37986
0.379907
0.379955
0.380003
0.380003
0.380051
0.380099
0.380147
0.380195
0.380195
0.380243
0.380291
0.380339
0.380388
0.380388
0.380436
0.380484
0.380532
0.38058
0.38058
0.380629
0.380677
0.380725
0.380774
0.380774
0.380822
0.380871
0.380919
0.380968
0.380968
0.381016
0.381065
0.381113
0.381162
0.381162
0.38121
0.381259
0.381308
0.381357
0.381357
0.381405
0.381454
0.381503
0.381552
0.381552
0.381601
0.381649
0.381698
0.381747
0.381747
0.381796
0.381845
0.381894
0.381943
0.381943
0.381992
0.382042
0.382091
0.38214
0.38214
0.382189
0.382238
0.382288
0.382337
0.382337
0.382386
0.382436
0.382485
0.382534
0.382534
0.382584
0.382633
0.382683
0.382732
0.382732
0.382782
0.382831
0.382881
0.382931
0.382931
0.38298
0.38303
0.38308
0.383129
0.383129
0.383179
0.383229
0.383279
0.383329
0.383329
0.383379
0.383429
0.383479
0.383529
0.383529
0.383579
0.383629
0.383679
0.383729
0.383729
0.383779
0.383829
0.383879
0.383929
0.383929
0.38398
0.38403
0.38408
0.38413
0.38413
0.384181
0.384231
0.384282
0.384332
0.384332
0.384382
0.384433
0.384484
0.384534
0.384534
0.384585
0.384635
0.384686
0.384737
0.384737
0.384787
0.384838
0.384889
0.384939
0.384939
0.38499
0.385041
0.385092
0.385143
0.385143
0.385194
0.385245
0.385296
0.385347
0.385347
0.385398
0.385449
0.3855
0.385551
0.385551
0.385602
0.385653
0.385705
0.385756
0.385756
0.385807
0.385858
0.38591
0.385961
0.385961
0.386012
0.386064
0.386115
0.386167
0.386167
0.386218
0.38627
0.386321
0.386373
0.386373
0.386424
0.386476
0.386528
0.386579
0.386579
0.386631
0.386683
0.386735
0.386786
0.386786
0.386838
0.38689
0.386942
0.386994
0.386994
0.387046
0.387098
0.38715
0.387202
0.387202
0.387254
0.387306
0.387358
0.38741
0.38741
0.387462
0.387515
0.387567
0.387619
0.387619
0.387671
0.387724
0.387776
0.387828
0.387828
0.387881
0.387933
0.387986
0.388038
0.388038
0.388091
0.388143
0.388196
0.388248
0.388248
0.388301
0.388354
0.388406
0.388459
0.388459
0.388512
0.388565
0.388617
0.38867
0.38867
0.388723
0.388776
0.388829
0.388882
0.388882
0.388935
0.388988
0.389041
0.389094
0.389094
0.389147
0.3892
0.389253
0.389306
0.389306
0.38936
0.389413
0.389466
0.389519
0.389519
0.389573
0.389626
0.389679
0.389733
0.389733
0.389786
0.38984
0.389893
0.389946
0.389946
0.39
0.390054
0.390107
0.390161
0.390161
0.390214
0.390268
0.390322
0.390376
0.390376
0.390429
0.390483
0.390537
0.390591
0.390591
0.390645
0.390699
0.390752
0.390806
0.390806
0.39086
0.390914
0.390968
0.391023
0.391023
0.391077
0.391131
0.391185
0.391239
0.391239
0.391293
0.391348
0.391402
0.391456
0.391456
0.39151
0.391565
0.391619
0.391674
0.391674
0.391728
0.391782
0.391837
0.391891
0.391891
0.391946
0.392001
0.392055
0.39211
0.39211
0.392165
0.392219
0.392274
0.392329
0.392329
0.392383
0.392438
0.392493
0.392548
0.392548
0.392603
0.392658
0.392713
0.392768
0.392768
0.392823
0.392878
0.392933
0.392988
0.392988
0.393043
0.393098
0.393153
0.393208
0.393208
0.393264
0.393319
0.393374
0.39343
0.39343
0.393485
0.39354
0.393596
0.393651
0.393651
0.393707
0.393762
0.393817
0.393873
0.393873
0.393929
0.393984
0.39404
0.394095
0.394095
0.394151
0.394207
0.394263
0.394318
0.394318
0.394374
0.39443
0.394486
0.394542
0.394542
0.394598
0.394653
0.394709
0.394765
0.394765
0.394821
0.394878
0.394934
0.39499
0.39499
0.395046
0.395102
0.395158
0.395214
0.395214
0.395271
0.395327
0.395383
0.395439
0.395439
0.395496
0.395552
0.395609
0.395665
0.395665
0.395722
0.395778
0.395835
0.395891
0.395891
0.395948
0.396004
0.396061
0.396118
0.396118
0.396174
0.396231
0.396288
0.396344
0.396344
0.396401
0.396458
0.396515
0.396572
0.396572
0.396629
0.396686
0.396743
0.3968
0.3968
0.396857
0.396914
0.396971
0.397028
0.397028
0.397085
0.397142
0.397199
0.397257
0.397257
0.397314
0.397371
0.397428
0.397486
0.397486
0.397543
0.397601
0.397658
0.397715
0.397715
0.397773
0.39783
0.397888
0.397945
0.397945
0.398003
0.398061
0.398118
0.398176
0.398176
0.398234
0.398291
0.398349
0.398407
0.398407
0.398465
0.398523
0.39858
0.398638
0.398638
0.398696
0.398754
0.398812
0.39887
0.39887
0.398928
0.398986
0.399044
0.399103
0.399103
0.399161
0.399219
0.399277
0.399335
0.399335
0.399394
0.399452
0.39951
0.399568
0.399568
0.399627
0.399685
0.399744
0.399802
0.399802
0.399861
0.399919
0.399978
0.400036
0.400036
0.400095
0.400153
0.400212
0.400271
0.400271
0.400329
0.400388
0.400447
0.400506
0.400506
0.400565
0.400623
0.400682
0.400741
0.400741
0.4008
0.400859
0.400918
0.400977
0.400977
0.401036
0.401095
0.401154
0.401213
0.401213
0.401272
0.401332
0.401391
0.40145
0.40145
0.401509
0.401569
0.401628
0.401687
0.401687
0.401747
0.401806
0.401865
0.401925
0.401925
0.401984
0.402044
0.402103
0.402163
0.402163
0.402223
0.402282
0.402342
0.402402
0.402402
0.402461
0.402521
0.402581
0.402641
0.402641
0.4027
0.40276
0.40282
0.40288
0.40288
0.40294
0.403
0.40306
0.40312
0.40312
0.40318
0.40324
0.4033
0.40336
0.40336
0.40342
0.403481
0.403541
0.403601
0.403601
0.403661
0.403722
0.403782
0.403842
0.403842
0.403903
0.403963
0.404023
0.404084
0.404084
0.404144
0.404205
0.404265
0.404326
0.404326
0.404387
0.404447
0.404508
0.404569
0.404569
0.404629
0.40469
0.404751
0.404812
0.404812
0.404872
0.404933
0.404994
0.405055
0.405055
0.405116
0.405177
0.405238
0.405299
0.405299
0.40536
0.405421
0.405482
0.405543
0.405543
0.405604
0.405665
0.405727
0.405788
0.405788
0.405849
0.40591
0.405972
0.406033
0.406033
0.406094
0.406156
0.406217
0.406279
0.406279
0.40634
0.406402
0.406463
0.406525
0.406525
0.406586
0.406648
0.40671
0.406771
0.406771
0.406833
0.406895
0.406957
0.407018
0.407018
0.40708
0.407142
0.407204
0.407266
0.407266
0.407328
0.40739
0.407452
0.407514
0.407514
0.407576
0.407638
0.4077
0.407762
0.407762
0.407824
0.407886
0.407948
0.408011
0.408011
0.408073
0.408135
0.408198
0.40826
0.40826
0.408322
0.408385
0.408447
0.40851
0.40851
0.408572
0.408635
0.408697
0.40876
0.40876
0.408822
0.408885
0.408947
0.40901
0.40901
0.409073
0.409136
0.409198
0.409261
0.409261
0.409324
0.409387
0.40945
0.409512
0.409512
0.409575
0.409638
0.409701
0.409764
0.409764
0.409827
0.40989
0.409953
0.410017
0.410017
0.41008
0.410143
0.410206
0.410269
0.410269
0.410333
0.410396
0.410459
0.410522
0.410522
0.410586
0.410649
0.410713
0.410776
0.410776
0.41084
0.410903
0.410967
0.41103
0.41103
0.411094
0.411157
0.411221
0.411285
0.411285
0.411348
0.411412
0.411476
0.41154
0.41154
0.411603
0.411667
0.411731
0.411795
0.411795
0.411859
0.411923
0.411987
0.412051
0.412051
0.412115
0.412179
0.412243
0.412307
0.412307
0.412371
0.412435
0.412499
0.412564
0.412564
0.412628
0.412692
0.412756
0.412821
0.412821
0.412885
0.412949
0.413014
0.413078
0.413078
0.413143
0.413207
0.413272
0.413336
0.413336
0.413401
0.413465
0.41353
0.413595
0.413595
0.413659
0.413724
0.413789
0.413854
0.413854
0.413918
0.413983
0.414048
0.414113
0.414113
0.414178
0.414243
0.414308
0.414373
0.414373
0.414438
0.414503
0.414568
0.414633
0.414633
0.414698
0.414763
0.414828
0.414893
0.414893
0.414959
0.415024
0.415089
0.415155
0.415155
0.41522
0.415285
0.415351
0.415416
0.415416
0.415481
0.415547
0.415612
0.415678
0.415678
0.415744
0.415809
0.415875
0.41594
0.41594
0.416006
0.416072
0.416137
0.416203
0.416203
0.416269
0.416335
0.416401
0.416466
0.416466
0.416532
0.416598
0.416664
0.41673
0.41673
0.416796
0.416862
0.416928
0.416994
0.416994
0.41706
0.417126
0.417193
0.417259
0.417259
0.417325
0.417391
0.417458
0.417524
0.417524
0.41759
0.417656
0.417723
0.417789
0.417789
0.417856
0.417922
0.417989
0.418055
0.418055
0.418122
0.418188
0.418255
0.418321
0.418321
0.418388
0.418455
0.418521
0.418588
0.418588
0.418655
0.418722
0.418789
0.418855
0.418855
0.418922
0.418989
0.419056
0.419123
0.419123
0.41919
0.419257
0.419324
0.419391
0.419391
0.419458
0.419525
0.419592
0.41966
0.41966
0.419727
0.419794
0.419861
0.419928
0.419928
0.419996
0.420063
0.42013
0.420198
0.420198
0.420265
0.420333
0.4204
0.420468
0.420468
0.420535
0.420603
0.42067
0.420738
0.420738
0.420805
0.420873
0.420941
0.421008
0.421008
0.421076
0.421144
0.421212
0.42128
0.42128
0.421347
0.421415
0.421483
0.421551
0.421551
0.421619
0.421687
0.421755
0.421823
0.421823
0.421891
0.421959
0.422027
0.422095
0.422095
0.422164
0.422232
0.4223
0.422368
0.422368
0.422437
0.422505
0.422573
0.422642
0.422642
0.42271
0.422778
0.422847
0.422915
0.422915
0.422984
0.423052
0.423121
0.423189
0.423189
0.423258
0.423327
0.423395
0.423464
0.423464
0.423533
0.423601
0.42367
0.423739
0.423739
0.423808
0.423877
0.423946
0.424014
0.424014
0.424083
0.424152
0.424221
0.42429
0.42429
0.424359
0.424428
0.424498
0.424567
0.424567
0.424636
0.424705
0.424774
0.424843
0.424843
0.424913
0.424982
0.425051
0.425121
0.425121
0.42519
0.425259
0.425329
0.425398
0.425398
0.425468
0.425537
0.425607
0.425676
0.425676
0.425746
0.425815
0.425885
0.425955
0.425955
0.426024
0.426094
0.426164
0.426234
0.426234
0.426303
0.426373
0.426443
0.426513
0.426513
0.426583
0.426653
0.426723
0.426793
0.426793
0.426863
0.426933
0.427003
0.427073
0.427073
0.427143
0.427213
0.427283
0.427353
0.427353
0.427424
0.427494
0.427564
0.427635
0.427635
0.427705
0.427775
0.427846
0.427916
0.427916
0.427986
0.428057
0.428127
0.428198
0.428198
0.428268
0.428339
0.42841
0.42848
0.42848
0.428551
0.428622
0.428692
0.428763
0.428763
0.428834
0.428905
0.428975
0.429046
0.429046
0.429117
0.429188
0.429259
0.42933
0.42933
0.429401
0.429472
0.429543
0.429614
0.429614
0.429685
0.429756
0.429827
0.429899
0.429899
0.42997
0.430041
0.430112
0.430183
0.430183
0.430255
0.430326
0.430397
0.430469
0.430469
0.43054
0.430612
0.430683
0.430755
0.430755
0.430826
0.430898
0.430969
0.431041
0.431041
0.431112
0.431184
0.431256
0.431327
0.431327
0.431399
0.431471
0.431543
0.431615
0.431615
0.431686
0.431758
0.43183
0.431902
0.431902
0.431974
0.432046
0.432118
0.43219
0.43219
0.432262
0.432334
0.432406
0.432478
0.432478
0.432551
0.432623
0.432695
0.432767
0.432767
0.432839
0.432912
0.432984
0.433056
0.433056
0.433129
0.433201
0.433274
0.433346
0.433346
0.433419
0.433491
0.433564
0.433636
0.433636
0.433709
0.433781
0.433854
0.433927
0.433927
0.433999
0.434072
0.434145
0.434218
0.434218
0.43429
0.434363
0.434436
0.434509
0.434509
0.434582
0.434655
0.434728
0.434801
0.434801
0.434874
0.434947
0.43502
0.435093
0.435093
0.435166
0.435239
0.435313
0.435386
0.435386
0.435459
0.435532
0.435606
0.435679
0.435679
0.435752
0.435826
0.435899
0.435972
0.435972
0.436046
0.436119
0.436193
0.436266
0.436266
0.43634
0.436413
0.436487
0.436561
0.436561
0.436634
0.436708
0.436782
0.436855
0.436855
0.436929
0.437003
0.437077
0.437151
0.437151
0.437225
0.437298
0.437372
0.437446
0.437446
0.43752
0.437594
0.437668
0.437742
0.437742
0.437817
0.437891
0.437965
0.438039
0.438039
0.438113
0.438187
0.438262
0.438336
0.438336
0.43841
0.438484
0.438559
0.438633
0.438633
0.438708
0.438782
0.438857
0.438931
0.438931
0.439006
0.43908
0.439155
0.439229
0.439229
0.439304
0.439378
0.439453
0.439528
0.439528
0.439603
0.439677
0.439752
0.439827
0.439827
0.439902
0.439977
0.440052
0.440126
0.440126
0.440201
0.440276
0.440351
0.440426
0.440426
0.440501
0.440576
0.440652
0.440727
0.440727
0.440802
0.440877
0.440952
0.441027
0.441027
0.441103
0.441178
0.441253
0.441329
0.441329
0.441404
0.441479
0.441555
0.44163
0.44163
0.441706
0.441781
0.441857
0.441932
0.441932
0.442008
0.442083
0.442159
0.442235
0.442235
0.44231
0.442386
0.442462
0.442538
0.442538
0.442613
0.442689
0.442765
0.442841
0.442841
0.442917
0.442993
0.443069
0.443145
0.443145
0.443221
0.443297
0.443373
0.443449
0.443449
0.443525
0.443601
0.443677
0.443753
0.443753
0.44383
0.443906
0.443982
0.444059
0.444059
0.444135
0.444211
0.444288
0.444364
0.444364
0.44444
0.444517
0.444593
0.44467
0.44467
0.444746
0.444823
0.444899
0.444976
0.444976
0.445053
0.445129
0.445206
0.445283
0.445283
0.44536
0.445436
0.445513
0.44559
0.44559
0.445667
0.445744
0.445821
0.445898
0.445898
0.445974
0.446051
0.446128
0.446206
0.446206
0.446283
0.44636
0.446437
0.446514
0.446514
0.446591
0.446668
0.446746
0.446823
0.446823
0.4469
0.446977
0.447055
0.447132
0.447132
0.447209
0.447287
0.447364
0.447442