<?xml version="1.0"?>
<VTKFile type="UnstructuredGrid" version="0.1" byte_order="LittleEndian">
<UnstructuredGrid>
<Piece NumberOfPoints="5000" NumberOfCells="4000">
<PointData Scalars="Reaction 0">
<DataArray type="Float32" Name="Reaction 0" format="ascii">
0.562196
0.562196
0.562196
0.562196
0.562196
0.562196
0.562196
0.562196
0.562196
0.562196
0.562196
0.562196
0.562196
0.562196
0.562196
0.562196
0.562196
0.562196
0.562196
0.562196
0.562196
0.562196
0.562196
0.562196
0.562196
0.562196
0.562197
0.562197
0.562197
0.562197
0.562197
0.562197
0.562197
0.562197
0.562197
0.562197
0.562197
0.562197
0.562197
0.562197
0.562197
0.562197
0.562197
0.562197
0.562197
0.562197
0.562197
0.562197
0.562197
0.562197
0.562197
0.562197
0.562197
0.562197
0.562197
0.562197
0.562197
0.562197
0.562197
0.562197
0.562197
0.562197
0.562197
0.562197
0.562197
0.562197
0.562197
0.562197
0.562197
0.562197
0.562197
0.562197
0.562197
0.562197
0.562197
0.562197
0.562197
0.562198
0.562198
0.562198
0.562198
0.562198
0.562198
0.562198
0.562198
0.562198
0.562198
0.562198
0.562198
0.562198
0.562198
0.562198
0.562198
0.562198
0.562198
0.562198
0.562198
0.562198
0.562198
0.562198
0.562198
0.562198
0.562198
0.562198
0.562198
0.562198
0.562199
0.562199
0.562199
0.562199
0.562199
0.562199
0.562199
0.562199
0.562199
0.562199
0.562199
0.562199
0.562199
0.562199
0.562199
0.562199
0.562199
0.562199
0.562199
0.562199
0.562199
0.562199
0.5622
0.5622
0.5622
0.5622
0.5622
0.5622
0.5622
0.5622
0.5622
0.5622
0.5622
0.5622
0.5622
0.5622
0.5622
0.5622
0.5622
0.5622
0.5622
0.5622
0.562201
0.562201
0.562201
0.562201
0.562201
0.562201
0.562201
0.562201
0.562201
0.562201
0.562201
0.562201
0.562201
0.562201
0.562201
0.562201
0.562202
0.562202
0.562202
0.562202
0.562202
0.562202
0.562202
0.562202
0.562202
0.562202
0.562202
0.562202
0.562202
0.562202
0.562202
0.562202
0.562202
0.562203
0.562203
0.562203
0.562203
0.562203
0.562203
0.562203
0.562203
0.562203
0.562203
0.562203
0.562203
0.562203
0.562204
0.562204
0.562204
0.562204
0.562204
0.562204
0.562204
0.562204
0.562204
0.562204
0.562204
0.562204
0.562204
0.562205
0.562205
0.562205
0.562205
0.562205
0.562205
0.562205
0.562205
0.562205
0.562205
0.562205
0.562205
0.562206
0.562206
0.562206
0.562206
0.562206
0.562206
0.562206
0.562206
0.562206
0.562206
0.562206
0.562206
0.562206
0.562207
0.562207
0.562207
0.562207
0.562207
0.562207
0.562207
0.562207
0.562207
0.562207
0.562208
0.562208
0.562208
0.562208
0.562208
0.562208
0.562208
0.562208
0.562208
0.562208
0.562208
0.562209
0.562209
0.562209
0.562209
0.562209
0.562209
0.562209
0.562209
0.562209
0.562209
0.56221
0.56221
0.56221
0.56221
0.56221
0.56221
0.56221
0.56221
0.56221
0.56221
0.562211
0.562211
0.562211
0.562211
0.562211
0.562211
0.562211
0.562211
0.562211
0.562212
0.562212
0.562212
0.562212
0.562212
0.562212
0.562212
0.562212
0.562212
0.562212
0.562213
0.562213
0.562213
0.562213
0.562213
0.562213
0.562213
0.562213
0.562213
0.562214
0.562214
0.562214
0.562214
0.562214
0.562214
0.562214
0.562214
0.562215
0.562215
0.562215
0.562215
0.562215
0.562215
0.562215
0.562215
0.562216
0.562216
0.562216
0.562216
0.562216
0.562216
0.562216
0.562216
0.562216
0.562217
0.562217
0.562217
0.562217
0.562217
0.562217
0.562217
0.562218
0.562218
0.562218
0.562218
0.562218
0.562218
0.562218
0.562218
0.562219
0.562219
0.562219
0.562219
0.562219
0.562219
0.562219
0.56222
0.56222
0.56222
0.56222
0.56222
0.56222
0.56222
0.56222
0.562221
0.562221
0.562221
0.562221
0.562221
0.562221
0.562221
0.562222
0.562222
0.562222
0.562222
0.562222
0.562222
0.562222
0.562222
0.562223
0.562223
0.562223
0.562223
0.562223
0.562223
0.562224
0.562224
0.562224
0.562224
0.562224
0.562224
0.562224
0.562225
0.562225
0.562225
0.562225
0.562225
0.562225
0.562225
0.562226
0.562226
0.562226
0.562226
0.562226
0.562226
0.562227
0.562227
0.562227
0.562227
0.562227
0.562227
0.562227
0.562228
0.562228
0.562228
0.562228
0.562228
0.562228
0.562228
0.562229
0.562229
0.562229
0.562229
0.562229
0.562229
0.56223
0.56223
0.56223
0.56223
0.56223
0.56223
0.562231
0.562231
0.562231
0.562231
0.562231
0.562232
0.562232
0.562232
0.562232
0.562232
0.562232
0.562233
0.562233
0.562233
0.562233
0.562233
0.562233
0.562233
0.562234
0.562234
0.562234
0.562234
0.562234
0.562234
0.562235
0.562235
0.562235
0.562235
0.562235
0.562236
0.562236
0.562236
0.562236
0.562236
0.562236
0.562237
0.562237
0.562237
0.562237
0.562237
0.562238
0.562238
0.562238
0.562238
0.562238
0.562238
0.562239
0.562239
0.562239
0.562239
0.562239
0.56224
0.56224
0.56224
0.56224
0.56224
0.562241
0.562241
0.562241
0.562241
0.562241
0.562241
0.562241
0.562242
0.562242
0.562242
0.562242
0.562242
0.562243
0.562243
0.562243
0.562243
0.562243
0.562244
0.562244
0.562244
0.562244
0.562244
0.562245
0.562245
0.562245
0.562245
0.562245
0.562246
0.562246
0.562246
0.562246
0.562246
0.562247
0.562247
0.562247
0.562247
0.562247
0.562248
0.562248
0.562248
0.562248
0.562248
0.562249
0.562249
0.562249
0.562249
0.562249
0.56225
0.56225
0.56225
0.56225
0.56225
0.562251
0.562251
0.562251
0.562251
0.562251
0.562252
0.562252
0.562252
0.562253
0.562253
0.562253
0.562253
0.562253
0.562254
0.562254
0.562254
0.562254
0.562254
0.562255
0.562255
0.562255
0.562255
0.562256
0.562256
0.562256
0.562256
0.562256
0.562257
0.562257
0.562257
0.562257
0.562257
0.562258
0.562258
0.562258
0.562258
0.562259
0.562259
0.562259
0.562259
0.562259
0.56226
0.56226
0.56226
0.56226
0.562261
0.562261
0.562261
0.562261
0.562261
0.562262
0.562262
0.562262
0.562263
0.562263
0.562263
0.562263
0.562263
0.562264
0.562264
0.562264
0.562264
0.562265
0.562265
0.562265
0.562265
0.562265
0.562266
0.562266
0.562266
0.562266
0.562267
0.562267
0.562267
0.562267
0.562268
0.562268
0.562268
0.562268
0.562268
0.562269
0.562269
0.562269
0.56227
0.56227
0.56227
0.56227
0.562271
0.562271
0.562271
0.562271
0.562272
0.562272
0.562272
0.562272
0.562272
0.562273
0.562273
0.562273
0.562273
0.562274
0.562274
0.562274
0.562275
0.562275
0.562275
0.562275
0.562276
0.562276
0.562276
0.562276
0.562277
0.562277
0.562277
0.562277
0.562278
0.562278
0.562278
0.562279
0.562279
0.562279
0.562279
0.56228
0.56228
0.56228
0.56228
0.562281
0.562281
0.562281
0.562281
0.562282
0.562282
0.562282
0.562283
0.562283
0.562283
0.562283
0.562284
0.562284
0.562284
0.562284
0.562285
0.562285
0.562285
0.562285
0.562286
0.562286
0.562286
0.562287
0.562287
0.562287
0.562287
0.562288
0.562288
0.562288
0.562288
0.562289
0.562289
0.562289
0.562289
0.56229
0.56229
0.56229
0.562291
0.562291
0.562291
0.562291
0.562292
0.562292
0.562292
0.562293
0.562293
0.562293
0.562294
0.562294
0.562294
0.562294
0.562295
0.562295
0.562295
0.562295
0.562296
0.562296
0.562296
0.562296
0.562297
0.562297
0.562298
0.562298
0.562298
0.562298
0.562299
0.562299
0.562299
0.562299
0.5623
0.5623
0.5623
0.562301
0.562301
0.562301
0.562302
0.562302
0.562302
0.562302
0.562303
0.562303
0.562303
0.562304
0.562304
0.562304
0.562305
0.562305
0.562305
0.562305
0.562306
0.562306
0.562307
0.562307
0.562307
0.562307
0.562308
0.562308
0.562308
0.562308
0.562309
0.562309
0.56231
0.56231
0.56231
0.56231
0.562311
0.562311
0.562312
0.562312
0.562312
0.562312
0.562313
0.562313
0.562313
0.562314
0.562314
0.562314
0.562315
0.562315
0.562315
0.562316
0.562316
0.562316
0.562316
0.562317
0.562317
0.562318
0.562318
0.562318
0.562318
0.562319
0.562319
0.56232
0.56232
0.56232
0.56232
0.562321
0.562321
0.562321
0.562322
0.562322
0.562322
0.562323
0.562323
0.562323
0.562324
0.562324
0.562324
0.562324
0.562325
0.562325
0.562326
0.562326
0.562326
0.562327
0.562327
0.562327
0.562328
0.562328
0.562328
0.562329
0.562329
0.56233
0.56233
0.56233
0.56233
0.562331
0.562331
0.562331
0.562332
0.562332
0.562333
0.562333
0.562333
0.562333
0.562334
0.562334
0.562335
0.562335
0.562335
0.562336
0.562336
0.562337
0.562337
0.562337
0.562337
0.562338
0.562338
0.562338
0.562339
0.562339
0.56234
0.56234
0.56234
0.562341
0.562341
0.562341
0.562342
0.562342
0.562342
0.562343
0.562343
0.562344
0.562344
0.562344
0.562345
0.562345
0.562345
0.562345
0.562346
0.562346
0.562347
0.562347
0.562347
0.562348
0.562348
0.562349
0.562349
0.562349
0.56235
0.56235
0.56235
0.562351
0.562351
0.562351
0.562352
0.562352
0.562353
0.562353
0.562353
0.562354
0.562354
0.562355
0.562355
0.562355
0.562356
0.562356
0.562357
0.562357
0.562357
0.562358
0.562358
0.562359
0.562359
0.562359
0.562359
0.56236
0.56236
0.56236
0.562361
0.562361
0.562362
0.562362
0.562362
0.562363
0.562363
0.562364
0.562364
0.562364
0.562365
0.562365
0.562366
0.562366
0.562366
0.562367
0.562367
0.562368
0.562368
0.562368
0.562369
0.562369
0.56237
0.56237
0.56237
0.562371
0.562371
0.562372
0.562372
0.562372
0.562373
0.562373
0.562374
0.562374
0.562374
0.562375
0.562375
0.562376
0.562376
0.562376
0.562377
0.562377
0.562378
0.562378
0.562378
0.562379
0.562379
0.56238
0.56238
0.56238
0.562381
0.562381
0.562382
0.562382
0.562382
0.562383
0.562383
0.562384
0.562384
0.562384
0.562385
0.562386
0.562386
0.562387
0.562387
0.562387
0.562388
0.562388
0.562389
0.562389
0.562389
0.56239
0.56239
0.562391
0.562391
0.562391
0.562392
0.562392
0.562393
0.562393
0.562394
0.562394
0.562395
0.562395
0.562395
0.562396
0.562396
0.562397
0.562397
0.562397
0.562398
0.562398
0.562399
0.562399
0.562399
0.5624
0.562401
0.562401
0.562402
0.562402
0.562402
0.562403
0.562403
0.562404
0.562404
0.562404
0.562405
0.562405
0.562406
0.562406
0.562407
0.562407
0.562408
0.562408
0.562408
0.562409
0.562409
0.56241
0.562411
0.562411
0.562411
0.562412
0.562412
0.562413
0.562413
0.562413
0.562414
0.562415
0.562415
0.562415
0.562416
0.562416
0.562417
0.562417
0.562417
0.562418
0.562419
0.562419
0.56242
0.56242
0.56242
0.562421
0.562421
0.562422
0.562422
0.562423
0.562423
0.562424
0.562424
0.562424
0.562425
0.562426
0.562426
0.562427
0.562427
0.562427
0.562428
0.562429
0.562429
0.562429
0.56243
0.56243
0.562431
0.562431
0.562431
0.562432
0.562433
0.562433
0.562434
0.562434
0.562434
0.562435
0.562436
0.562436
0.562436
0.562437
0.562437
0.562438
0.562439
0.562439
0.562439
0.56244
0.562441
0.562441
0.562441
0.562442
0.562442
0.562443
0.562444
0.562444
0.562444
0.562445
0.562445
0.562446
0.562446
0.562447
0.562447
0.562448
0.562449
0.562449
0.562449
0.56245
0.56245
0.562451
0.562451
0.562452
0.562452
0.562453
0.562454
0.562454
0.562454
0.562455
0.562456
0.562456
0.562456
0.562457
0.562457
0.562458
0.562459
0.562459
0.562459
0.56246
0.562461
0.562461
0.562461
0.562462
0.562463
0.562463
0.562464
0.562464
0.562464
0.562465
0.562466
0.562466
0.562466
0.562467
0.562468
0.562468
0.562469
0.562469
0.56247
0.56247
0.562471
0.562472
0.562472
0.562472
0.562473
0.562474
0.562474
0.562474
0.562475
0.562476
0.562476
0.562477
0.562477
0.562478
0.562478
0.562479
0.56248
0.56248
0.56248
0.562481
0.562482
0.562482
0.562482
0.562483
0.562484
0.562484
0.562485
0.562485
0.562486
0.562486
0.562487
0.562488
0.562488
0.562489
0.562489
0.56249
0.562491
0.562491
0.562491
0.562492
0.562493
0.562493
0.562493
0.562494
0.562495
0.562495
0.562496
0.562496
0.562497
0.562497
0.562498
0.562499
0.562499
0.5625
0.5625
0.562501
0.562502
0.562502
0.562502
0.562503
0.562504
0.562505
0.562505
0.562505
0.562506
0.562507
0.562507
0.562507
0.562508
0.562509
0.56251
0.56251
0.56251
0.562511
0.562512
0.562512
0.562513
0.562513
0.562514
0.562515
0.562515
0.562516
0.562516
0.562517
0.562518
0.562518
0.562519
0.562519
0.56252
0.56252
0.562521
0.562522
0.562522
0.562523
0.562523
0.562524
0.562525
0.562525
0.562526
0.562526
0.562527
0.562528
0.562528
0.562528
0.562529
0.56253
0.562531
0.562531
0.562532
0.562532
0.562533
0.562534
0.562534
0.562535
0.562535
0.562536
0.562537
0.562537
0.562538
0.562538
0.562539
0.56254
0.56254
0.562541
0.562541
0.562542
0.562543
0.562543
0.562544
0.562544
0.562545
0.562546
0.562546
0.562547
0.562548
0.562548
0.562549
0.562549
0.56255
0.562551
0.562551
0.562552
0.562552
0.562553
0.562554
0.562555
0.562555
0.562555
0.562556
0.562557
0.562558
0.562558
0.562558
0.562559
0.56256
0.562561
0.562562
0.562562
0.562562
0.562563
0.562564
0.562565
0.562565
0.562566
0.562566
0.562567
0.562568
0.562568
0.562569
0.56257
0.56257
0.562571
0.562571
0.562572
0.562573
0.562574
0.562575
0.562575
0.562575
0.562576
0.562577
0.562578
0.562578
0.562579
0.562579
0.56258
0.562581
0.562581
0.562582
0.562583
0.562584
0.562584
0.562584
0.562585
0.562586
0.562587
0.562588
0.562588
0.562588
0.562589
0.56259
0.562591
0.562591
0.562592
0.562593
0.562593
0.562594
0.562594
0.562595
0.562596
0.562597
0.562598
0.562598
0.562599
0.562599
0.5626
0.562601
0.562601
0.562602
0.562603
0.562604
0.562605
0.562605
0.562605
0.562606
0.562607
0.562608
0.562608
0.562609
0.56261
0.562611
0.562611
0.562611
0.562612
0.562613
0.562614
0.562615
0.562615
0.562616
0.562617
0.562618
0.562618
0.562618
0.562619
0.56262
0.562621
0.562622
0.562622
0.562623
0.562624
0.562625
0.562625
0.562625
0.562626
0.562627
0.562628
0.562629
0.562629
0.56263
0.562631
0.562632
0.562633
0.562633
0.562634
0.562634
0.562635
0.562636
0.562636
0.562637
0.562638
0.562639
0.56264
0.56264
0.562641
0.562642
0.562643
0.562643
0.562643
0.562644
0.562645
0.562646
0.562647
0.562647
0.562648
0.562649
0.56265
0.562651
0.562651
0.562652
0.562653
0.562654
0.562654
0.562654
0.562655
0.562656
0.562657
0.562658
0.562658
0.562659
0.56266
0.562661
0.562662
0.562662
0.562663
0.562664
0.562665
0.562666
0.562666
0.562667
0.562668
0.562669
0.56267
0.56267
0.562671
0.562671
0.562672
0.562673
0.562673
0.562674
0.562675
0.562676
0.562677
0.562677
0.562678
0.562679
0.56268
0.562681
0.562681
0.562682
0.562683
0.562684
0.562685
0.562685
0.562686
0.562687
0.562688
0.562689
0.562689
0.56269
0.562691
0.562692
0.562693
0.562693
0.562694
0.562695
0.562696
0.562697
0.562697
0.562698
0.562699
0.5627
0.562701
0.562701
0.562702
0.562703
0.562704
0.562705
0.562705
0.562706
0.562707
0.562708
0.562709
0.562709
0.56271
0.562711
0.562712
0.562713
0.562713
0.562714
0.562715
0.562716
0.562717
0.562717
0.562718
0.562719
0.56272
0.562721
0.562721
0.562722
0.562723
0.562724
0.562725
0.562725
0.562726
0.562727
0.562728
0.562729
0.562729
0.56273
0.562731
0.562732
0.562733
0.562733
0.562734
0.562735
0.562736
0.562737
0.562737
0.562738
0.56274
0.562741
0.562742
0.562742
0.562743
0.562744
0.562745
0.562746
0.562746
0.562747
0.562748
0.562749
0.56275
0.56275
0.562751
0.562752
0.562753
0.562754
0.562754
0.562755
0.562756
0.562758
0.562759
0.562759
0.56276
0.562761
0.562762
0.562763
0.562763
0.562764
0.562765
0.562766
0.562767
0.562767
0.562768
0.56277
0.562771
0.562772
0.562772
0.562773
0.562774
0.562775
0.562776
0.562776
0.562777
0.562778
0.562779
0.562781
0.562781
0.562782
0.562783
0.562784
0.562785
0.562785
0.562786
0.562787
0.562788
0.562789
0.562789
0.562791
0.562792
0.562793
0.562794
0.562794
0.562795
0.562796
0.562797
0.562798
0.562798
0.5628
0.562801
0.562802
0.562803
0.562803
0.562804
0.562805
0.562806
0.562808
0.562808
0.562809
0.56281
0.562811
0.562812
0.562812
0.562813
0.562815
0.562816
0.562817
0.562817
0.562818
0.562819
0.56282
0.562822
0.562822
0.562823
0.562824
0.562825
0.562826
0.562826
0.562827
0.562829
0.56283
0.562831
0.562831
0.562832
0.562833
0.562834
0.562836
0.562836
0.562837
0.562838
0.562839
0.56284
0.56284
0.562842
0.562843
0.562844
0.562845
0.562845
0.562846
0.562848
0.562849
0.56285
0.56285
0.562851
0.562852
0.562854
0.562855
0.562855
0.562856
0.562857
0.562859
0.56286
0.56286
0.562861
0.562862
0.562863
0.562865
0.562865
0.562866
0.562867
0.562868
0.56287
0.56287
0.562871
0.562872
0.562873
0.562875
0.562875
0.562876
0.562877
0.562878
0.56288
0.56288
0.562881
0.562882
0.562883
0.562885
0.562885
0.562886
0.562887
0.562888
0.56289
0.56289
0.562891
0.562892
0.562893
0.562895
0.562895
0.562896
0.562897
0.562899
0.5629
0.5629
0.562901
0.562902
0.562904
0.562905
0.562905
0.562906
0.562907
0.562909
0.56291
0.56291
0.562911
0.562913
0.562914
0.562915
0.562915
0.562917
0.562918
0.562919
0.562921
0.562921
0.562922
0.562923
0.562924
0.562926
0.562926
0.562927
0.562928
0.56293
0.562931
0.562931
0.562932
0.562934
0.562935
0.562936
0.562936
0.562938
0.562939
0.56294
0.562942
0.562942
0.562943
0.562944
0.562946
0.562947
0.562947
0.562948
0.56295
0.562951
0.562952
0.562952
0.562954
0.562955
0.562957
0.562958
0.562958
0.562959
0.562961
0.562962
0.562963
0.562963
0.562965
0.562966
0.562968
0.562969
0.562969
0.56297
0.562972
0.562973
0.562974
0.562974
0.562976
0.562977
0.562979
0.56298
0.56298
0.562981
0.562983
0.562984
0.562986
0.562986
0.562987
0.562988
0.56299
0.562991
0.562991
0.562993
0.562994
0.562995
0.562997
0.562997
0.562998
0.563
0.563001
0.563003
0.563003
0.563004
0.563005
0.563007
0.563008
0.563008
0.56301
0.563011
0.563013
0.563014
0.563014
0.563016
0.563017
0.563018
0.56302
0.56302
0.563021
0.563023
0.563024
0.563026
0.563026
0.563027
0.563029
0.56303
0.563032
0.563032
0.563033
0.563034
0.563036
0.563037
0.563037
0.563039
0.56304
0.563042
0.563043
0.563043
0.563045
0.563046
0.563048
0.563049
0.563049
0.563051
0.563052
0.563054
0.563055
0.563055
0.563057
0.563058
0.56306
0.563061
0.563061
0.563063
0.563064
0.563066
0.563068
0.563068
0.563069
0.563071
0.563072
0.563074
0.563074
0.563075
0.563077
0.563078
0.56308
0.56308
0.563081
0.563083
0.563084
0.563086
0.563086
0.563088
0.563089
0.563091
0.563092
0.563092
0.563094
0.563095
0.563097
0.563098
0.563098
0.5631
0.563102
0.563103
0.563105
0.563105
0.563106
0.563108
0.563109
0.563111
0.563111
0.563113
0.563114
0.563116
0.563117
0.563117
0.563119
0.563121
0.563122
0.563124
0.563124
0.563125
0.563127
0.563129
0.56313
0.56313
0.563132
0.563134
0.563135
0.563137
0.563137
0.563138
0.56314
0.563142
0.563143
0.563143
0.563145
0.563147
0.563148
0.56315
0.56315
0.563151
0.563153
0.563155
0.563156
0.563156
0.563158
0.56316
0.563161
0.563163
0.563163
0.563165
0.563166
0.563168
0.56317
0.56317
0.563171
0.563173
0.563175
0.563176
0.563176
0.563178
0.56318
0.563181
0.563183
0.563183
0.563185
0.563187
0.563188
0.56319
0.56319
0.563192
0.563193
0.563195
0.563197
0.563197
0.563199
0.5632
0.563202
0.563204
0.563204
0.563205
0.563207
0.563209
0.563211
0.563211
0.563212
0.563214
0.563216
0.563218
0.563218
0.563219
0.563221
0.563223
0.563225
0.563225
0.563226
0.563228
0.56323
0.563232
0.563232
0.563233
0.563235
0.563237
0.563239
0.563239
0.56324
0.563242
0.563244
0.563246
0.563246
0.563248
0.563249
0.563251
0.563253
0.563253
0.563255
0.563256
0.563258
0.56326
0.56326
0.563262
0.563264
0.563266
0.563267
0.563267
0.563269
0.563271
0.563273
0.563275
0.563275
0.563277
0.563278
0.56328
0.563282
0.563282
0.563284
0.563286
0.563288
0.563289
0.563289
0.563291
0.563293
0.563295
0.563297
0.563297
0.563299
0.563301
0.563302
0.563304
0.563304
0.563306
0.563308
0.56331
0.563312
0.563312
0.563314
0.563316
0.563318
0.563319
0.563319
0.563321
0.563323
0.563325
0.563327
0.563327
0.563329
0.563331
0.563333
0.563335
0.563335
0.563337
0.563339
0.56334
0.563342
0.563342
0.563344
0.563346
0.563348
0.56335
0.56335
0.563352
0.563354
0.563356
0.563358
0.563358
0.56336
0.563362
0.563364
0.563366
0.563366
0.563368
0.56337
0.563372
0.563374
0.563374
0.563376
0.563378
0.56338
0.563382
0.563382
0.563384
0.563386
0.563388
0.56339
0.56339
0.563392
0.563394
0.563396
0.563398
0.563398
0.5634
0.563402
0.563404
0.563406
0.563406
0.563408
0.56341
0.563412
0.563414
0.563414
0.563416
0.563418
0.56342
0.563422
0.563422
0.563424
0.563426
0.563428
0.56343
0.56343
0.563432
0.563434
0.563436
0.563439
0.563439
0.563441
0.563443
0.563445
0.563447
0.563447
0.563449
0.563451
0.563453
0.563455
0.563455
0.563457
0.563459
0.563462
0.563464
0.563464
0.563466
0.563468
0.56347
0.563472
0.563472
0.563474
0.563477
0.563479
0.563481
0.563481
0.563483
0.563485
0.563487
0.563489
0.563489
0.563492
0.563494
0.563496
0.563498
0.563498
0.5635
0.563502
0.563504
0.563507
0.563507
0.563509
0.563511
0.563513
0.563515
0.563515
0.563518
0.56352
0.563522
0.563524
0.563524
0.563527
0.563529
0.563531
0.563533
0.563533
0.563535
0.563538
0.56354
0.563542
0.563542
0.563544
0.563547
0.563549
0.563551
0.563551
0.563553
0.563556
0.563558
0.56356
0.56356
0.563562
0.563565
0.563567
0.563569
0.563569
0.563571
0.563574
0.563576
0.563578
0.563578
0.563581
0.563583
0.563585
0.563588
0.563588
0.56359
0.563592
0.563595
0.563597
0.563597
0.563599
0.563601
0.563604
0.563606
0.563606
0.563608
0.563611
0.563613
0.563615
0.563615
0.563618
0.56362
0.563623
0.563625
0.563625
0.563627
0.56363
0.563632
0.563634
0.563634
0.563637
0.563639
0.563642
0.563644
0.563644
0.563646
0.563649
0.563651
0.563654
0.563654
0.563656
0.563659
0.563661
0.563663
0.563663
0.563666
0.563668
0.563671
0.563673
0.563673
0.563675
0.563678
0.56368
0.563683
0.563683
0.563685
0.563688
0.56369
0.563693
0.563693
0.563695
0.563698
0.5637
0.563703
0.563703
0.563705
0.563708
0.56371
0.563713
0.563713
0.563715
0.563718
0.56372
0.563723
0.563723
0.563725
0.563728
0.56373
0.563733
0.563733
0.563735
0.563738
0.563741
0.563743
0.563743
0.563746
0.563748
0.563751
0.563753
0.563753
0.563756
0.563759
0.563761
0.563764
0.563764
0.563766
0.563769
0.563771
0.563774
0.563774
0.563777
0.563779
0.563782
0.563784
0.563784
0.563787
0.56379
0.563792
0.563795
0.563795
0.563798
0.5638
0.563803
0.563806
0.563806
0.563808
0.563811
0.563814
0.563816
0.563816
0.563819
0.563822
0.563824
0.563827
0.563827
0.56383
0.563832
0.563835
0.563838
0.563838
0.563841
0.563843
0.563846
0.563849
0.563849
0.563851
0.563854
0.563857
0.56386
0.56386
0.563862
0.563865
0.563868
0.563871
0.563871
0.563873
0.563876
0.563879
0.563882
0.563882
0.563885
0.563887
0.56389
0.563893
0.563893
0.563896
0.563899
0.563901
0.563904
0.563904
0.563907
0.56391
0.563913
0.563915
0.563915
0.563918
0.563921
0.563924
0.563927
0.563927
0.56393
0.563933
0.563935
0.563938
0.563938
0.563941
0.563944
0.563947
0.56395
0.56395
0.563953
0.563956
0.563959
0.563961
0.563961
0.563964
0.563967
0.56397
0.563973
0.563973
0.563976
0.563979
0.563982
0.563985
0.563985
0.563988
0.563991
0.563994
0.563997
0.563997
0.564
0.564003
0.564006
0.564009
0.564009
0.564012
0.564015
0.564018
0.564021
0.564021
0.564024
0.564027
0.56403
0.564033
0.564033
0.564036
0.564039
0.564042
0.564045
0.564045
0.564048
0.564051
0.564054
0.564057
0.564057
0.56406
0.564063
0.564066
0.564069
0.564069
0.564073
0.564076
0.564079
0.564082
0.564082
0.564085
0.564088
0.564091
0.564094
0.564094
0.564098
0.564101
0.564104
0.564107
0.564107
0.56411
0.564113
0.564116
0.56412
0.56412
0.564123
0.564126
0.564129
0.564132
0.564132
0.564136
0.564139
0.564142
0.564145
0.564145
0.564148
0.564152
0.564155
0.564158
0.564158
0.564161
0.564165
0.564168
0.564171
0.564171
0.564174
0.564178
0.564181
0.564184
0.564184
0.564187
0.564191
0.564194
0.564197
0.564197
0.564201
0.564204
0.564207
0.564211
0.564211
0.564214
0.564217
0.564221
0.564224
0.564224
0.564227
0.564231
0.564234
0.564238
0.564238
0.564241
0.564244
0.564248
0.564251
0.564251
0.564254
0.564258
0.564261
0.564265
0.564265
0.564268
0.564272
0.564275
0.564278
0.564278
0.564282
0.564285
0.564289
0.564292
0.564292
0.564296
0.564299
0.564303
0.564306
0.564306
0.56431
0.564313
0.564317
0.56432
0.56432
0.564324
0.564327
0.564331
0.564334
0.564334
0.564338
0.564341
0.564345
0.564349
0.564349
0.564352
0.564356
0.564359
0.564363
0.564363
0.564367
0.56437
0.564374
0.564377
0.564377
0.564381
0.564385
0.564388
0.564392
0.564392
0.564396
0.564399
0.564403
0.564406
0.564406
0.56441
0.564414
0.564418
0.564421
0.564421
0.564425
0.564429
0.564432
0.564436
0.564436
0.56444
0.564444
0.564447
0.564451
0.564451
0.564455
0.564459
0.564462
0.564466
0.564466
0.56447
0.564474
0.564477
0.564481
0.564481
0.564485
0.564489
0.564493
0.564497
0.564497
0.5645
0.564504
0.564508
0.564512
0.564512
0.564516
0.56452
0.564524
0.564527
0.564527
0.564531
0.564535
0.564539
0.564543
0.564543
0.564547
0.564551
0.564555
0.564559
0.564559
0.564563
0.564567
0.56457
0.564574
0.564574
0.564578
0.564582
0.564586
0.56459
0.56459
0.564594
0.564598
0.564602
0.564606
0.564606
0.56461
0.564614
0.564619
0.564623
0.564623
0.564627
0.564631
0.564635
0.564639
0.564639
0.564643
0.564647
0.564651
0.564655
0.564655
0.564659
0.564663
0.564668
0.564672
0.564672
0.564676
0.56468
0.564684
0.564688
0.564688
0.564693
0.564697
0.564701
0.564705
0.564705
0.564709
0.564714
0.564718
0.564722
0.564722
0.564726
0.56473
0.564735
0.564739
0.564739
0.564743
0.564748
0.564752
0.564756
0.564756
0.56476
0.564765
0.564769
0.564773
0.564773
0.564778
0.564782
0.564786
0.564791
0.564791
0.564795
0.564799
0.564804
0.564808
0.564808
0.564813
0.564817
0.564821
0.564826
0.564826
0.56483
0.564835
0.564839
0.564844
0.564844
0.564848
0.564853
0.564857
0.564862
0.564862
0.564866
0.56487
0.564875
0.564879
0.564879
0.564884
0.564889
0.564893
0.564898
0.564898
0.564902
0.564907
0.564911
0.564916
0.564916
0.564921
0.564925
0.56493
0.564934
0.564934
0.564939
0.564944
0.564948
0.564953
0.564953
0.564958
0.564962
0.564967
0.564972
0.564972
0.564976
0.564981
0.564986
0.56499
0.56499
0.564995
0.565
0.565005
0.565009
0.565009
0.565014
0.565019
0.565024
0.565029
0.565029
0.565033
0.565038
0.565043
0.565048
0.565048
0.565053
0.565058
0.565062
0.565067
0.565067
0.565072
0.565077
0.565082
0.565087
0.565087
0.565092
0.565097
0.565102
0.565107
0.565107
0.565112
0.565116
0.565121
0.565126
0.565126
0.565131
0.565136
0.565141
0.565146
0.565146
0.565151
0.565156
0.565162
0.565167
0.565167
0.565172
0.565177
0.565182
0.565187
0.565187
0.565192
0.565197
0.565202
0.565207
0.565207
0.565213
0.565218
0.565223
0.565228
0.565228
0.565233
0.565238
0.565244
0.565249
0.565249
0.565254
0.565259
0.565264
0.56527
0.56527
0.565275
0.56528
0.565286
0.565291
0.565291
0.565296
0.565301
0.565307
0.565312
0.565312
0.565318
0.565323
0.565328
0.565334
0.565334
0.565339
0.565344
0.56535
0.565355
0.565355
0.565361
0.565366
0.565371
0.565377
0.565377
0.565382
0.565388
0.565393
0.565399
0.565399
0.565404
0.56541
0.565415
0.565421
0.565421
0.565427
0.565432
0.565438
0.565443
0.565443
0.565449
0.565455
0.56546
0.565466
0.565466
0.565471
0.565477
0.565483
0.565488
0.565488
0.565494
0.5655
0.565505
0.565511
0.565511
0.565517
0.565523
0.565528
0.565534
0.565534
0.56554
0.565546
0.565552
0.565557
0.565557
0.565563
0.565569
0.565575
0.565581
0.565581
0.565587
0.565592
0.565598
0.565604
0.565604
0.56561
0.565616
0.565622
0.565628
0.565628
0.565634
0.56564
0.565646
0.565652
0.565652
0.565658
0.565664
0.56567
0.565676
0.565676
0.565682
0.565688
0.565694
0.5657
0.5657
0.565706
0.565713
0.565719
0.565725
0.565725
0.565731
0.565737
0.565743
0.56575
0.56575
0.565756
0.565762
0.565768
0.565775
0.565775
0.565781
0.565787
0.565793
0.5658
0.5658
0.565806
0.565812
0.565819
0.565825
0.565825
0.565831
0.565838
0.565844
0.56585
0.56585
0.565857
0.565863
0.56587
0.565876
0.565876
0.565883
0.565889
0.565896
0.565902
0.565902
0.565909
0.565915
0.565922
0.565928
0.565928
0.565935
0.565941
0.565948
0.565955
0.565955
0.565961
0.565968
0.565974
0.565981
0.565981
0.565988
0.565994
0.566001
0.566008
0.566008
0.566015
0.566021
0.566028
0.566035
0.566035
0.566042
0.566048
0.566055
0.566062
0.566062
0.566069
0.566076
0.566083
0.56609
0.56609
0.566096
0.566103
0.56611
0.566117
0.566117
0.566124
0.566131
0.566138
0.566145
0.566145
0.566152
0.566159
0.566166
0.566173
0.566173
0.56618
0.566187
0.566194
0.566202
0.566202
0.566209
0.566216
0.566223
0.56623
0.56623
0.566237
0.566245
0.566252
0.566259
0.566259
0.566266
0.566274
0.566281
0.566288
0.566288
0.566295
0.566303
0.56631
0.566317
0.566317
0.566325
0.566332
0.56634
0.566347
0.566347
0.566355
0.566362
0.566369
0.566377
0.566377
0.566384
0.566392
0.566399
0.566407
0.566407
0.566415
0.566422
0.56643
0.566437
0.566437
0.566445
0.566453
0.56646
0.566468
0.566468
0.566476
0.566483
0.566491
0.566499
0.566499
0.566507
0.566514
0.566522
0.56653
0.56653
0.566538
0.566546
0.566553
0.566561
0.566561
0.566569
0.566577
0.566585
0.566593
0.566593
0.566601
0.566609
0.566617
0.566625
0.566625
0.566633
0.566641
0.566649
0.566657
0.566657
0.566665
0.566673
0.566681
0.566689
0.566689
0.566698
0.566706
0.566714
0.566722
0.566722
0.56673
0.566739
0.566747
0.566755
0.566755
0.566764
0.566772
0.56678
0.566789
0.566789
0.566797
0.566805
0.566814
0.566822
0.566822
0.566831
0.566839
0.566848
0.566856
0.566856
0.566865
0.566873
0.566882
0.56689
0.56689
0.566899
0.566907
0.566916
0.566925
0.566925
0.566933
0.566942
0.566951
0.56696
0.56696
0.566968
0.566977
0.566986
0.566995
0.566995
0.567003
0.567012
0.567021
0.56703
0.56703
0.567039
0.567048
0.567057
0.567066
0.567066
0.567075
0.567084
0.567093
0.567102
0.567102
0.567111
0.56712
0.567129
0.567138
0.567138
0.567147
0.567156
0.567166
0.567175
0.567175
0.567184
0.567193
0.567203
0.567212
0.567212
0.567221
0.56723
0.56724
0.567249
0.567249
0.567259
0.567268
0.567277
0.567287
0.567287
0.567296
0.567306
0.567315
0.567325
0.567325
0.567334
0.567344
0.567353
0.567363
0.567363
0.567373
0.567382
0.567392
0.567402
0.567402
0.567412
0.567421
0.567431
0.567441
0.567441
0.567451
0.56746
0.56747
0.56748
0.56748
0.56749
0.5675
0.56751
0.56752
0.56752
0.56753
0.56754
0.56755
0.56756
0.56756
0.56757
0.56758
0.56759
0.5676
0.5676
0.567611
0.567621
0.567631
0.567641
0.567641
0.567651
0.567662
0.567672
0.567682
0.567682
0.567693
0.567703
0.567714
0.567724
0.567724
0.567734
0.567745
0.567755
0.567766
0.567766
0.567776
0.567787
0.567798
0.567808
0.567808
0.567819
0.56783
0.56784
0.567851
0.567851
0.567862
0.567872
0.567883
0.567894
0.567894
0.567905
0.567916
0.567927
0.567938
0.567938
0.567948
0.567959
0.56797
0.567981
0.567981
0.567992
0.568003
0.568015
0.568026
0.568026
0.568037
0.568048
0.568059
0.56807
0.56807
0.568082
0.568093
0.568104
0.568116
0.568116
0.568127
0.568138
0.56815
0.568161
0.568161
0.568172
0.568184
0.568195
0.568207
0.568207
0.568219
0.56823
0.568242
0.568253
0.568253
0.568265
0.568277
0.568289
0.5683
0.5683
0.568312
0.568324
0.568336
0.568347
0.568347
0.568359
0.568371
0.568383
0.568395
0.568395
0.568407
0.568419
0.568431
0.568443
0.568443
0.568455
0.568468
0.56848
0.568492
0.568492
0.568504
0.568516
0.568529
0.568541
0.568541
0.568553
0.568566
0.568578
0.568591
0.568591
0.568603
0.568615
0.568628
0.568641
0.568641
0.568653
0.568666
0.568678
0.568691
0.568691
0.568704
0.568716
0.568729
0.568742
0.568742
0.568755
0.568768
0.56878
0.568793
0.568793
0.568806
0.568819
0.568832
0.568845
0.568845
0.568858
0.568871
0.568885
0.568898
0.568898
0.568911
0.568924
0.568937