<?xml version="1.0"?>
<VTKFile type="UnstructuredGrid" version="0.1" byte_order="LittleEndian">
<UnstructuredGrid>
<Piece NumberOfPoints="5000" NumberOfCells="4000">
<PointData Scalars="Reaction 0">
<DataArray type="Float32" Name="Reaction 0" format="ascii">
0.268768
0.268768
0.268768
0.268768
0.268768
0.268768
0.268769
0.268769
0.268769
0.268769
0.268769
0.268769
0.26877
0.26877
0.268771
0.268771
0.268771
0.268771
0.268772
0.268772
0.268772
0.268773
0.268773
0.268774
0.268775
0.268775
0.268775
0.268776
0.268777
0.268778
0.268778
0.268778
0.268779
0.26878
0.268781
0.268781
0.268782
0.268783
0.268784
0.268785
0.268785
0.268786
0.268787
0.268788
0.26879
0.26879
0.268791
0.268792
0.268793
0.268795
0.268795
0.268796
0.268797
0.268799
0.2688
0.2688
0.268802
0.268803
0.268805
0.268806
0.268806
0.268808
0.26881
0.268811
0.268813
0.268813
0.268815
0.268817
0.268818
0.26882
0.26882
0.268822
0.268824
0.268826
0.268828
0.268828
0.26883
0.268832
0.268834
0.268836
0.268836
0.268838
0.26884
0.268843
0.268845
0.268845
0.268847
0.26885
0.268852
0.268854
0.268854
0.268857
0.268859
0.268862
0.268864
0.268864
0.268867
0.268869
0.268872
0.268874
0.268874
0.268877
0.26888
0.268883
0.268885
0.268885
0.268888
0.268891
0.268894
0.268897
0.268897
0.2689
0.268903
0.268906
0.268909
0.268909
0.268912
0.268915
0.268918
0.268921
0.268921
0.268924
0.268928
0.268931
0.268934
0.268934
0.268938
0.268941
0.268944
0.268948
0.268948
0.268951
0.268955
0.268958
0.268962
0.268962
0.268966
0.268969
0.268973
0.268977
0.268977
0.26898
0.268984
0.268988
0.268992
0.268992
0.268996
0.268999
0.269003
0.269007
0.269007
0.269011
0.269015
0.269019
0.269024
0.269024
0.269028
0.269032
0.269036
0.26904
0.26904
0.269045
0.269049
0.269053
0.269058
0.269058
0.269062
0.269066
0.269071
0.269075
0.269075
0.26908
0.269085
0.269089
0.269094
0.269094
0.269098
0.269103
0.269108
0.269113
0.269113
0.269117
0.269122
0.269127
0.269132
0.269132
0.269137
0.269142
0.269147
0.269152
0.269152
0.269157
0.269162
0.269167
0.269172
0.269172
0.269178
0.269183
0.269188
0.269193
0.269193
0.269199
0.269204
0.26921
0.269215
0.269215
0.26922
0.269226
0.269231
0.269237
0.269237
0.269243
0.269248
0.269254
0.26926
0.26926
0.269265
0.269271
0.269277
0.269283
0.269283
0.269289
0.269295
0.2693
0.269306
0.269306
0.269312
0.269318
0.269325
0.269331
0.269331
0.269337
0.269343
0.269349
0.269355
0.269355
0.269362
0.269368
0.269374
0.269381
0.269381
0.269387
0.269393
0.2694
0.269406
0.269406
0.269413
0.269419
0.269426
0.269433
0.269433
0.269439
0.269446
0.269453
0.26946
0.26946
0.269466
0.269473
0.26948
0.269487
0.269487
0.269494
0.269501
0.269508
0.269515
0.269515
0.269522
0.269529
0.269536
0.269543
0.269543
0.26955
0.269558
0.269565
0.269572
0.269572
0.26958
0.269587
0.269594
0.269602
0.269602
0.269609
0.269617
0.269624
0.269632
0.269632
0.269639
0.269647
0.269655
0.269662
0.269662
0.26967
0.269678
0.269686
0.269693
0.269693
0.269701
0.269709
0.269717
0.269725
0.269725
0.269733
0.269741
0.269749
0.269757
0.269757
0.269765
0.269773
0.269782
0.26979
0.26979
0.269798
0.269806
0.269815
0.269823
0.269823
0.269831
0.26984
0.269848
0.269857
0.269857
0.269865
0.269874
0.269883
0.269891
0.269891
0.2699
0.269908
0.269917
0.269926
0.269926
0.269935
0.269944
0.269952
0.269961
0.269961
0.26997
0.269979
0.269988
0.269997
0.269997
0.270006
0.270015
0.270024
0.270034
0.270034
0.270043
0.270052
0.270061
0.27007
0.27007
0.27008
0.270089
0.270099
0.270108
0.270108
0.270117
0.270127
0.270136
0.270146
0.270146
0.270156
0.270165
0.270175
0.270184
0.270184
0.270194
0.270204
0.270214
0.270224
0.270224
0.270233
0.270243
0.270253
0.270263
0.270263
0.270273
0.270283
0.270293
0.270303
0.270303
0.270313
0.270324
0.270334
0.270344
0.270344
0.270354
0.270364
0.270375
0.270385
0.270385
0.270395
0.270406
0.270416
0.270427
0.270427
0.270437
0.270448
0.270458
0.270469
0.270469
0.27048
0.27049
0.270501
0.270512
0.270512
0.270523
0.270533
0.270544
0.270555
0.270555
0.270566
0.270577
0.270588
0.270599
0.270599
0.27061
0.270621
0.270632
0.270643
0.270643
0.270655
0.270666
0.270677
0.270688
0.270688
0.2707
0.270711
0.270722
0.270734
0.270734
0.270745
0.270757
0.270768
0.27078
0.27078
0.270791
0.270803
0.270814
0.270826
0.270826
0.270838
0.27085
0.270861
0.270873
0.270873
0.270885
0.270897
0.270909
0.270921
0.270921
0.270933
0.270945
0.270957
0.270969
0.270969
0.270981
0.270993
0.271005
0.271017
0.271017
0.27103
0.271042
0.271054
0.271067
0.271067
0.271079
0.271091
0.271104
0.271116
0.271116
0.271129
0.271141
0.271154
0.271166
0.271166
0.271179
0.271192
0.271204
0.271217
0.271217
0.27123
0.271243
0.271256
0.271268
0.271268
0.271281
0.271294
0.271307
0.27132
0.27132
0.271333
0.271346
0.271359
0.271373
0.271373
0.271386
0.271399
0.271412
0.271425
0.271425
0.271439
0.271452
0.271465
0.271479
0.271479
0.271492
0.271506
0.271519
0.271533
0.271533
0.271546
0.27156
0.271574
0.271587
0.271587
0.271601
0.271615
0.271628
0.271642
0.271642
0.271656
0.27167
0.271684
0.271698
0.271698
0.271712
0.271726
0.27174
0.271754
0.271754
0.271768
0.271782
0.271796
0.27181
0.27181
0.271825
0.271839
0.271853
0.271867
0.271867
0.271882
0.271896
0.271911
0.271925
0.271925
0.27194
0.271954
0.271969
0.271983
0.271983
0.271998
0.272012
0.272027
0.272042
0.272042
0.272057
0.272071
0.272086
0.272101
0.272101
0.272116
0.272131
0.272146
0.272161
0.272161
0.272176
0.272191
0.272206
0.272221
0.272221
0.272236
0.272251
0.272267
0.272282
0.272282
0.272297
0.272313
0.272328
0.272343
0.272343
0.272359
0.272374
0.27239
0.272405
0.272405
0.272421
0.272436
0.272452
0.272468
0.272468
0.272483
0.272499
0.272515
0.27253
0.27253
0.272546
0.272562
0.272578
0.272594
0.272594
0.27261
0.272626
0.272642
0.272658
0.272658
0.272674
0.27269
0.272706
0.272722
0.272722
0.272739
0.272755
0.272771
0.272787
0.272787
0.272804
0.27282
0.272837
0.272853
0.272853
0.27287
0.272886
0.272903
0.272919
0.272919
0.272936
0.272952
0.272969
0.272986
0.272986
0.273003
0.273019
0.273036
0.273053
0.273053
0.27307
0.273087
0.273104
0.273121
0.273121
0.273138
0.273155
0.273172
0.273189
0.273189
0.273206
0.273223
0.27324
0.273258
0.273258
0.273275
0.273292
0.27331
0.273327
0.273327
0.273344
0.273362
0.273379
0.273397
0.273397
0.273414
0.273432
0.273449
0.273467
0.273467
0.273485
0.273502
0.27352
0.273538
0.273538
0.273556
0.273574
0.273591
0.273609
0.273609
0.273627
0.273645
0.273663
0.273681
0.273681
0.273699
0.273717
0.273736
0.273754
0.273754
0.273772
0.27379
0.273808
0.273827
0.273827
0.273845
0.273863
0.273882
0.2739
0.2739
0.273919
0.273937
0.273956
0.273974
0.273974
0.273993
0.274011
0.27403
0.274049
0.274049
0.274068
0.274086
0.274105
0.274124
0.274124
0.274143
0.274162
0.274181
0.2742
0.2742
0.274219
0.274238
0.274257
0.274276
0.274276
0.274295
0.274314
0.274333
0.274352
0.274352
0.274372
0.274391
0.27441
0.27443
0.27443
0.274449
0.274468
0.274488
0.274507
0.274507
0.274527
0.274546
0.274566
0.274586
0.274586
0.274605
0.274625
0.274645
0.274664
0.274664
0.274684
0.274704
0.274724
0.274744
0.274744
0.274764
0.274784
0.274804
0.274824
0.274824
0.274844
0.274864
0.274884
0.274904
0.274904
0.274924
0.274944
0.274965
0.274985
0.274985
0.275005
0.275026
0.275046
0.275066
0.275066
0.275087
0.275107
0.275128
0.275148
0.275148
0.275169
0.27519
0.27521
0.275231
0.275231
0.275252
0.275272
0.275293
0.275314
0.275314
0.275335
0.275356
0.275377
0.275397
0.275397
0.275418
0.275439
0.27546
0.275482
0.275482
0.275503
0.275524
0.275545
0.275566
0.275566
0.275587
0.275609
0.27563
0.275651
0.275651
0.275673
0.275694
0.275716
0.275737
0.275737
0.275758
0.27578
0.275802
0.275823
0.275823
0.275845
0.275866
0.275888
0.27591
0.27591
0.275932
0.275953
0.275975
0.275997
0.275997
0.276019
0.276041
0.276063
0.276085
0.276085
0.276107
0.276129
0.276151
0.276173
0.276173
0.276195
0.276218
0.27624
0.276262
0.276262
0.276284
0.276307
0.276329
0.276351
0.276351
0.276374
0.276396
0.276419
0.276441
0.276441
0.276464
0.276486
0.276509
0.276532
0.276532
0.276554
0.276577
0.2766
0.276623
0.276623
0.276646
0.276668
0.276691
0.276714
0.276714
0.276737
0.27676
0.276783
0.276806
0.276806
0.276829
0.276852
0.276876
0.276899
0.276899
0.276922
0.276945
0.276968
0.276992
0.276992
0.277015
0.277039
0.277062
0.277085
0.277085
0.277109
0.277132
0.277156
0.277179
0.277179
0.277203
0.277227
0.27725
0.277274
0.277274
0.277298
0.277322
0.277345
0.277369
0.277369
0.277393
0.277417
0.277441
0.277465
0.277465
0.277489
0.277513
0.277537
0.277561
0.277561
0.277585
0.27761
0.277634
0.277658
0.277658
0.277682
0.277707
0.277731
0.277755
0.277755
0.27778
0.277804
0.277829
0.277853
0.277853
0.277878
0.277902
0.277927
0.277951
0.277951
0.277976
0.278001
0.278025
0.27805
0.27805
0.278075
0.2781
0.278125
0.27815
0.27815
0.278175
0.278199
0.278224
0.27825
0.27825
0.278275
0.2783
0.278325
0.27835
0.27835
0.278375
0.2784
0.278426
0.278451
0.278451
0.278476
0.278502
0.278527
0.278552
0.278552
0.278578
0.278603
0.278629
0.278654
0.278654
0.27868
0.278706
0.278731
0.278757
0.278757
0.278783
0.278808
0.278834
0.27886
0.27886
0.278886
0.278912
0.278938
0.278964
0.278964
0.27899
0.279016
0.279042
0.279068
0.279068
0.279094
0.27912
0.279146
0.279172
0.279172
0.279199
0.279225
0.279251
0.279278
0.279278
0.279304
0.27933
0.279357
0.279383
0.279383
0.27941
0.279436
0.279463
0.279489
0.279489
0.279516
0.279543
0.279569
0.279596
0.279596
0.279623
0.27965
0.279677
0.279703
0.279703
0.27973
0.279757
0.279784
0.279811
0.279811
0.279838
0.279865
0.279892
0.27992
0.27992
0.279947
0.279974
0.280001
0.280028
0.280028
0.280056
0.280083
0.28011
0.280138
0.280138
0.280165
0.280193
0.28022
0.280248
0.280248
0.280275
0.280303
0.280331
0.280358
0.280358
0.280386
0.280414
0.280441
0.280469
0.280469
0.280497
0.280525
0.280553
0.280581
0.280581
0.280609
0.280637
0.280665
0.280693
0.280693
0.280721
0.280749
0.280777
0.280805
0.280805
0.280833
0.280862
0.28089
0.280918
0.280918
0.280947
0.280975
0.281003
0.281032
0.281032
0.28106
0.281089
0.281117
0.281146
0.281146
0.281175
0.281203
0.281232
0.281261
0.281261
0.281289
0.281318
0.281347
0.281376
0.281376
0.281405
0.281433
0.281462
0.281491
0.281491
0.28152
0.281549
0.281578
0.281608
0.281608
0.281637
0.281666
0.281695
0.281724
0.281724
0.281754
0.281783
0.281812
0.281842
0.281842
0.281871
0.2819
0.28193
0.281959
0.281959
0.281989
0.282018
0.282048
0.282078
0.282078
0.282107
0.282137
0.282167
0.282197
0.282197
0.282226
0.282256
0.282286
0.282316
0.282316
0.282346
0.282376
0.282406
0.282436
0.282436
0.282466
0.282496
0.282526
0.282556
0.282556
0.282586
0.282617
0.282647
0.282677
0.282677
0.282707
0.282738
0.282768
0.282799
0.282799
0.282829
0.282859
0.28289
0.282921
0.282921
0.282951
0.282982
0.283012
0.283043
0.283043
0.283074
0.283104
0.283135
0.283166
0.283166
0.283197
0.283228
0.283259
0.28329
0.28329
0.283321
0.283352
0.283383
0.283414
0.283414
0.283445
0.283476
0.283507
0.283538
0.283538
0.283569
0.283601
0.283632
0.283663
0.283663
0.283695
0.283726
0.283758
0.283789
0.283789
0.28382
0.283852
0.283884
0.283915
0.283915
0.283947
0.283978
0.28401
0.284042
0.284042
0.284074
0.284105
0.284137
0.284169
0.284169
0.284201
0.284233
0.284265
0.284297
0.284297
0.284329
0.284361
0.284393
0.284425
0.284425
0.284457
0.284489
0.284522
0.284554
0.284554
0.284586
0.284618
0.284651
0.284683
0.284683
0.284716
0.284748
0.28478
0.284813
0.284813
0.284846
0.284878
0.284911
0.284943
0.284943
0.284976
0.285009
0.285041
0.285074
0.285074
0.285107
0.28514
0.285173
0.285206
0.285206
0.285239
0.285272
0.285305
0.285338
0.285338
0.285371
0.285404
0.285437
0.28547
0.28547
0.285503
0.285536
0.28557
0.285603
0.285603
0.285636
0.28567
0.285703
0.285736
0.285736
0.28577
0.285803
0.285837
0.28587
0.28587
0.285904
0.285938
0.285971
0.286005
0.286005
0.286039
0.286072
0.286106
0.28614
0.28614
0.286174
0.286208
0.286242
0.286276
0.286276
0.28631
0.286344
0.286378
0.286412
0.286412
0.286446
0.28648
0.286514
0.286548
0.286548
0.286583
0.286617
0.286651
0.286685
0.286685
0.28672
0.286754
0.286789
0.286823
0.286823
0.286858
0.286892
0.286927
0.286961
0.286961
0.286996
0.287031
0.287065
0.2871
0.2871
0.287135
0.28717
0.287204
0.287239
0.287239
0.287274
0.287309
0.287344
0.287379
0.287379
0.287414
0.287449
0.287484
0.287519
0.287519
0.287554
0.28759
0.287625
0.28766
0.28766
0.287695
0.287731
0.287766
0.287801
0.287801
0.287837
0.287872
0.287908
0.287943
0.287943
0.287979
0.288014
0.28805
0.288086
0.288086
0.288121
0.288157
0.288193
0.288229
0.288229
0.288264
0.2883
0.288336
0.288372
0.288372
0.288408
0.288444
0.28848
0.288516
0.288516
0.288552
0.288588
0.288624
0.28866
0.28866
0.288696
0.288733
0.288769
0.288805
0.288805
0.288842
0.288878
0.288914
0.288951
0.288951
0.288987
0.289024
0.28906
0.289097
0.289097
0.289133
0.28917
0.289207
0.289243
0.289243
0.28928
0.289317
0.289354
0.28939
0.28939
0.289427
0.289464
0.289501
0.289538
0.289538
0.289575
0.289612
0.289649
0.289686
0.289686
0.289723
0.28976
0.289797
0.289835
0.289835
0.289872
0.289909
0.289946
0.289984
0.289984
0.290021
0.290059
0.290096
0.290133
0.290133
0.290171
0.290208
0.290246
0.290284
0.290284
0.290321
0.290359
0.290397
0.290434
0.290434
0.290472
0.29051
0.290548
0.290585
0.290585
0.290623
0.290661
0.290699
0.290737
0.290737
0.290775
0.290813
0.290851
0.290889
0.290889
0.290928
0.290966
0.291004
0.291042
0.291042
0.29108
0.291119
0.291157
0.291196
0.291196
0.291234
0.291272
0.291311
0.291349
0.291349
0.291388
0.291426
0.291465
0.291504
0.291504
0.291542
0.291581
0.29162
0.291658
0.291658
0.291697
0.291736
0.291775
0.291814
0.291814
0.291853
0.291892
0.291931
0.29197
0.29197
0.292009
0.292048
0.292087
0.292126
0.292126
0.292165
0.292205
0.292244
0.292283
0.292283
0.292322
0.292362
0.292401
0.292441
0.292441
0.29248
0.292519
0.292559
0.292598
0.292598
0.292638
0.292678
0.292717
0.292757
0.292757
0.292797
0.292836
0.292876
0.292916
0.292916
0.292956
0.292996
0.293036
0.293075
0.293075
0.293115
0.293155
0.293195
0.293236
0.293236
0.293276
0.293316
0.293356
0.293396
0.293396
0.293436
0.293477
0.293517
0.293557
0.293557
0.293597
0.293638
0.293678
0.293719
0.293719
0.293759
0.2938
0.29384
0.293881
0.293881
0.293921
0.293962
0.294003
0.294043
0.294043
0.294084
0.294125
0.294166
0.294207
0.294207
0.294247
0.294288
0.294329
0.29437
0.29437
0.294411
0.294452
0.294493
0.294534
0.294534
0.294576
0.294617
0.294658
0.294699
0.294699
0.29474
0.294782
0.294823
0.294864
0.294864
0.294906
0.294947
0.294989
0.29503
0.29503
0.295072
0.295113
0.295155
0.295196
0.295196
0.295238
0.29528
0.295321
0.295363
0.295363
0.295405
0.295447
0.295489
0.29553
0.29553
0.295572
0.295614
0.295656
0.295698
0.295698
0.29574
0.295782
0.295824
0.295867
0.295867
0.295909
0.295951
0.295993
0.296035
0.296035
0.296078
0.29612
0.296162
0.296205
0.296205
0.296247
0.29629
0.296332
0.296375
0.296375
0.296417
0.29646
0.296502
0.296545
0.296545
0.296588
0.29663
0.296673
0.296716
0.296716
0.296759
0.296802
0.296844
0.296887
0.296887
0.29693
0.296973
0.297016
0.297059
0.297059
0.297102
0.297145
0.297188
0.297232
0.297232
0.297275
0.297318
0.297361
0.297405
0.297405
0.297448
0.297491
0.297535
0.297578
0.297578
0.297622
0.297665
0.297709
0.297752
0.297752
0.297796
0.297839
0.297883
0.297927
0.297927
0.29797
0.298014
0.298058
0.298102
0.298102
0.298145
0.298189
0.298233
0.298277
0.298277
0.298321
0.298365
0.298409
0.298453
0.298453
0.298497
0.298541
0.298586
0.29863
0.29863
0.298674
0.298718
0.298763
0.298807
0.298807
0.298851
0.298896
0.29894
0.298985
0.298985
0.299029
0.299074
0.299118
0.299163
0.299163
0.299207
0.299252
0.299297
0.299341
0.299341
0.299386
0.299431
0.299476
0.29952
0.29952
0.299565
0.29961
0.299655
0.2997
0.2997
0.299745
0.29979
0.299835
0.29988
0.29988
0.299925
0.299971
0.300016
0.300061
0.300061
0.300106
0.300152
0.300197
0.300242
0.300242
0.300288
0.300333
0.300378
0.300424
0.300424
0.300469
0.300515
0.300561
0.300606
0.300606
0.300652
0.300697
0.300743
0.300789
0.300789
0.300835
0.30088
0.300926
0.300972
0.300972
0.301018
0.301064
0.30111
0.301156
0.301156
0.301202
0.301248
0.301294
0.30134
0.30134
0.301386
0.301433
0.301479
0.301525
0.301525
0.301571
0.301618
0.301664
0.30171
0.30171
0.301757
0.301803
0.30185
0.301896
0.301896
0.301943
0.301989
0.302036
0.302083
0.302083
0.302129
0.302176
0.302223
0.302269
0.302269
0.302316
0.302363
0.30241
0.302457
0.302457
0.302504
0.302551
0.302598
0.302645
0.302645
0.302692
0.302739
0.302786
0.302833
0.302833
0.30288
0.302927
0.302975
0.303022
0.303022
0.303069
0.303117
0.303164
0.303211
0.303211
0.303259
0.303306
0.303354
0.303401
0.303401
0.303449
0.303496
0.303544
0.303592
0.303592
0.303639
0.303687
0.303735
0.303783
0.303783
0.303831
0.303878
0.303926
0.303974
0.303974
0.304022
0.30407
0.304118
0.304166
0.304166
0.304214
0.304262
0.304311
0.304359
0.304359
0.304407
0.304455
0.304503
0.304552
0.304552
0.3046
0.304648
0.304697
0.304745
0.304745
0.304794
0.304842
0.304891
0.304939
0.304939
0.304988
0.305036
0.305085
0.305134
0.305134
0.305183
0.305231
0.30528
0.305329
0.305329
0.305378
0.305427
0.305476
0.305524
0.305524
0.305573
0.305622
0.305671
0.305721
0.305721
0.30577
0.305819
0.305868
0.305917
0.305917
0.305966
0.306016
0.306065
0.306114
0.306114
0.306164
0.306213
0.306262
0.306312
0.306312
0.306361
0.306411
0.30646
0.30651
0.30651
0.30656
0.306609
0.306659
0.306709
0.306709
0.306758
0.306808
0.306858
0.306908
0.306908
0.306958
0.307008
0.307057
0.307107
0.307107
0.307157
0.307207
0.307257
0.307308
0.307308
0.307358
0.307408
0.307458
0.307508
0.307508
0.307558
0.307609
0.307659
0.307709
0.307709
0.30776
0.30781
0.307861
0.307911
0.307911
0.307962
0.308012
0.308063
0.308113
0.308113
0.308164
0.308215
0.308265
0.308316
0.308316
0.308367
0.308418
0.308468
0.308519
0.308519
0.30857
0.308621
0.308672
0.308723
0.308723
0.308774
0.308825
0.308876
0.308927
0.308927
0.308978
0.30903
0.309081
0.309132
0.309132
0.309183
0.309235
0.309286
0.309337
0.309337
0.309389
0.30944
0.309492
0.309543
0.309543
0.309595
0.309646
0.309698
0.309749
0.309749
0.309801
0.309853
0.309904
0.309956
0.309956
0.310008
0.31006
0.310112
0.310163
0.310163
0.310215
0.310267
0.310319
0.310371
0.310371
0.310423
0.310475
0.310527
0.31058
0.31058
0.310632
0.310684
0.310736
0.310788
0.310788
0.310841
0.310893
0.310945
0.310998
0.310998
0.31105
0.311103
0.311155
0.311208
0.311208
0.31126
0.311313
0.311365
0.311418
0.311418
0.311471
0.311523
0.311576
0.311629
0.311629
0.311682
0.311734
0.311787
0.31184
0.31184
0.311893
0.311946
0.311999
0.312052
0.312052
0.312105
0.312158
0.312211
0.312264
0.312264
0.312318
0.312371
0.312424
0.312477
0.312477
0.312531
0.312584
0.312637
0.312691
0.312691
0.312744
0.312798
0.312851
0.312905
0.312905
0.312958
0.313012
0.313065
0.313119
0.313119
0.313173
0.313226
0.31328
0.313334
0.313334
0.313388
0.313442
0.313495
0.313549
0.313549
0.313603
0.313657
0.313711
0.313765
0.313765
0.313819
0.313873
0.313927
0.313982
0.313982
0.314036
0.31409
0.314144
0.314199
0.314199
0.314253
0.314307
0.314362
0.314416
0.314416
0.31447
0.314525
0.314579
0.314634
0.314634
0.314689
0.314743
0.314798
0.314852
0.314852
0.314907
0.314962
0.315017
0.315071
0.315071
0.315126
0.315181
0.315236
0.315291
0.315291
0.315346
0.315401
0.315456
0.315511
0.315511
0.315566
0.315621
0.315676
0.315731
0.315731
0.315787
0.315842
0.315897
0.315952
0.315952
0.316008
0.316063
0.316118
0.316174
0.316174
0.316229
0.316285
0.31634
0.316396
0.316396
0.316451
0.316507
0.316563
0.316618
0.316618
0.316674
0.31673
0.316786
0.316841
0.316841
0.316897
0.316953
0.317009
0.317065
0.317065
0.317121
0.317177
0.317233
0.317289
0.317289
0.317345
0.317401
0.317457
0.317513
0.317513
0.31757
0.317626
0.317682
0.317738
0.317738
0.317795
0.317851
0.317908
0.317964
0.317964
0.31802
0.318077
0.318133
0.31819
0.31819
0.318247
0.318303
0.31836
0.318416
0.318416
0.318473
0.31853
0.318587
0.318644
0.318644
0.3187
0.318757
0.318814
0.318871
0.318871
0.318928
0.318985
0.319042
0.319099
0.319099
0.319156
0.319213
0.31927
0.319328
0.319328
0.319385
0.319442
0.319499
0.319557
0.319557
0.319614
0.319671
0.319729
0.319786
0.319786
0.319844
0.319901
0.319959
0.320016
0.320016
0.320074
0.320132
0.320189
0.320247
0.320247
0.320305
0.320362
0.32042
0.320478
0.320478
0.320536
0.320594
0.320652
0.32071
0.32071
0.320768
0.320826
0.320884
0.320942
0.320942
0.321
0.321058
0.321116
0.321174
0.321174
0.321232
0.321291
0.321349
0.321407
0.321407
0.321466
0.321524
0.321582
0.321641
0.321641
0.321699
0.321758
0.321816
0.321875
0.321875
0.321934
0.321992
0.322051
0.322109
0.322109
0.322168
0.322227
0.322286
0.322345
0.322345
0.322403
0.322462
0.322521
0.32258
0.32258
0.322639
0.322698
0.322757
0.322816
0.322816
0.322875
0.322934
0.322994
0.323053
0.323053
0.323112
0.323171
0.323231
0.32329
0.32329
0.323349
0.323409
0.323468
0.323527
0.323527
0.323587
0.323646
0.323706
0.323766
0.323766
0.323825
0.323885
0.323944
0.324004
0.324004
0.324064
0.324124
0.324183
0.324243
0.324243
0.324303
0.324363
0.324423
0.324483
0.324483
0.324543
0.324603
0.324663
0.324723
0.324723
0.324783
0.324843
0.324903
0.324964
0.324964
0.325024
0.325084
0.325144
0.325205
0.325205
0.325265
0.325325
0.325386
0.325446
0.325446
0.325507
0.325567
0.325628
0.325688
0.325688
0.325749
0.325809
0.32587
0.325931
0.325931
0.325992
0.326052
0.326113
0.326174
0.326174
0.326235
0.326296
0.326357
0.326418
0.326418
0.326478
0.326539
0.326601
0.326662
0.326662
0.326723
0.326784
0.326845
0.326906
0.326906
0.326967
0.327029
0.32709
0.327151
0.327151
0.327213
0.327274
0.327335
0.327397
0.327397
0.327458
0.32752
0.327581
0.327643
0.327643
0.327705
0.327766
0.327828
0.327889
0.327889
0.327951
0.328013
0.328075
0.328137
0.328137
0.328198
0.32826
0.328322
0.328384
0.328384
0.328446
0.328508
0.32857
0.328632
0.328632
0.328694
0.328756
0.328819
0.328881
0.328881
0.328943
0.329005
0.329068
0.32913
0.32913
0.329192
0.329255
0.329317
0.329379
0.329379
0.329442
0.329504
0.329567
0.329629
0.329629
0.329692
0.329755
0.329817
0.32988
0.32988
0.329943
0.330005
0.330068
0.330131
0.330131
0.330194
0.330257
0.33032
0.330383
0.330383
0.330446
0.330509
0.330572
0.330635
0.330635
0.330698
0.330761
0.330824
0.330887
0.330887
0.33095
0.331014
0.331077
0.33114
0.33114
0.331204
0.331267
0.33133
0.331394
0.331394
0.331457
0.331521
0.331584
0.331648
0.331648
0.331711
0.331775
0.331839
0.331902
0.331902
0.331966
0.33203
0.332094
0.332157
0.332157
0.332221
0.332285
0.332349
0.332413
0.332413
0.332477
0.332541
0.332605
0.332669
0.332669
0.332733
0.332797
0.332861
0.332925
0.332925
0.33299
0.333054
0.333118
0.333182
0.333182
0.333247
0.333311
0.333375
0.33344
0.33344
0.333504
0.333569
0.333633
0.333698
0.333698
0.333762
0.333827
0.333892
0.333956
0.333956
0.334021
0.334086
0.334151
0.334215
0.334215
0.33428
0.334345
0.33441
0.334475
0.334475
0.33454
0.334605
0.33467
0.334735
0.334735
0.3348
0.334865
0.33493
0.334995
0.334995
0.33506
0.335126
0.335191
0.335256
0.335256
0.335321
0.335387
0.335452
0.335518
0.335518
0.335583
0.335649
0.335714
0.33578
0.33578
0.335845
0.335911
0.335976
0.336042
0.336042
0.336108
0.336173
0.336239
0.336305
0.336305
0.336371
0.336437
0.336502
0.336568
0.336568
0.336634
0.3367
0.336766
0.336832
0.336832
0.336898
0.336964
0.33703
0.337097
0.337097
0.337163
0.337229
0.337295
0.337362
0.337362
0.337428
0.337494
0.337561
0.337627
0.337627
0.337693
0.33776
0.337826
0.337893
0.337893
0.337959
0.338026
0.338093
0.338159
0.338159
0.338226
0.338293
0.338359
0.338426
0.338426
0.338493
0.33856
0.338627
0.338693
0.338693
0.33876
0.338827
0.338894
0.338961
0.338961
0.339028
0.339095
0.339162
0.33923
0.33923
0.339297
0.339364
0.339431
0.339498
0.339498
0.339566
0.339633
0.3397
0.339768
0.339768
0.339835
0.339903
0.33997
0.340038
0.340038
0.340105
0.340173
0.34024
0.340308
0.340308
0.340375
0.340443
0.340511
0.340579
0.340579
0.340646
0.340714
0.340782
0.34085
0.34085
0.340918
0.340986
0.341054
0.341122
0.341122
0.34119
0.341258
0.341326
0.341394
0.341394
0.341462
0.34153
0.341598
0.341667
0.341667
0.341735
0.341803
0.341872
0.34194
0.34194
0.342008
0.342077
0.342145
0.342214
0.342214
0.342282
0.342351
0.342419
0.342488
0.342488
0.342557
0.342625
0.342694
0.342763
0.342763
0.342831
0.3429
0.342969
0.343038
0.343038
0.343107
0.343176
0.343245
0.343313
0.343313
0.343382
0.343452
0.343521
0.34359
0.34359
0.343659
0.343728
0.343797
0.343866
0.343866
0.343936
0.344005
0.344074
0.344143
0.344143
0.344213
0.344282
0.344352
0.344421
0.344421
0.344491
0.34456
0.34463
0.344699
0.344699
0.344769
0.344838
0.344908
0.344978
0.344978
0.345048
0.345117
0.345187
0.345257
0.345257
0.345327
0.345397
0.345467
0.345537
0.345537
0.345607
0.345677
0.345747
0.345817
0.345817
0.345887
0.345957
0.346027
0.346097
0.346097
0.346167
0.346238
0.346308
0.346378
0.346378
0.346449
0.346519
0.346589
0.34666
0.34666
0.34673
0.346801
0.346871
0.346942
0.346942
0.347012
0.347083
0.347154
0.347224
0.347224
0.347295
0.347366
0.347436
0.347507
0.347507
0.347578
0.347649
0.34772
0.347791
0.347791
0.347862
0.347933
0.348004
0.348075
0.348075
0.348146
0.348217
0.348288
0.348359
0.348359
0.34843
0.348502
0.348573
0.348644
0.348644
0.348715
0.348787
0.348858
0.34893
0.34893
0.349001
0.349072
0.349144
0.349215
0.349215
0.349287
0.349359
0.34943
0.349502
0.349502
0.349574
0.349645
0.349717
0.349789
0.349789
0.349861
0.349932
0.350004
0.350076
0.350076
0.350148
0.35022
0.350292
0.350364
0.350364
0.350436
0.350508
0.35058
0.350652
0.350652
0.350724
0.350797
0.350869
0.350941
0.350941
0.351013
0.351086
0.351158
0.35123
0.35123
0.351303
0.351375
0.351448
0.35152
0.35152
0.351593
0.351665
0.351738
0.35181
0.35181
0.351883
0.351956
0.352028
0.352101
0.352101
0.352174
0.352247
0.35232
0.352392
0.352392
0.352465
0.352538
0.352611
0.352684
0.352684
0.352757
0.35283
0.352903
0.352976
0.352976
0.353049
0.353123
0.353196
0.353269
0.353269
0.353342
0.353415
0.353489
0.353562
0.353562
0.353635
0.353709
0.353782
0.353856
0.353856
0.353929
0.354003
0.354076
0.35415
0.35415
0.354224
0.354297
0.354371
0.354444
0.354444
0.354518
0.354592
0.354666
0.35474
0.35474
0.354813
0.354887
0.354961
0.355035
0.355035
0.355109
0.355183
0.355257
0.355331
0.355331
0.355405
0.355479
0.355554
0.355628
0.355628
0.355702
0.355776
0.35585
0.355925
0.355925
0.355999
0.356073
0.356148
0.356222
0.356222
0.356297
0.356371
0.356446
0.35652
0.35652
0.356595
0.356669
0.356744
0.356819
0.356819
0.356893
0.356968
0.357043
0.357118
0.357118
0.357192
0.357267
0.357342
0.357417
0.357417
0.357492
0.357567
0.357642
0.357717
0.357717
0.357792
0.357867
0.357942
0.358017
0.358017
0.358092
0.358168
0.358243
0.358318
0.358318
0.358393
0.358469
0.358544
0.358619
0.358619
0.358695
0.35877
0.358846
0.358921
0.358921
0.358997
0.359072
0.359148
0.359224
0.359224
0.359299
0.359375
0.359451
0.359526
0.359526
0.359602
0.359678
0.359754
0.35983
0.35983
0.359905
0.359981
0.360057
0.360133
0.360133
0.360209
0.360285
0.360361
0.360437
0.360437
0.360514
0.36059
0.360666
0.360742
0.360742
0.360818
0.360895
0.360971
0.361047
0.361047
0.361124
0.3612
0.361276
0.361353
0.361353
0.361429
0.361506
0.361582
0.361659
0.361659
0.361736
0.361812
0.361889
0.361966
0.361966
0.362042
0.362119
0.362196
0.362273
0.362273
0.362349
0.362426
0.362503
0.36258
0.36258
0.362657
0.362734
0.362811
0.362888
0.362888
0.362965
0.363042
0.36312
0.363197
0.363197
0.363274
0.363351
0.363428
0.363506
0.363506
0.363583
0.36366
0.363738
0.363815
0.363815
0.363893
0.36397
0.364047
0.364125
0.364125
0.364203
0.36428
0.364358
0.364435
0.364435
0.364513
0.364591
0.364668
0.364746
0.364746
0.364824
0.364902
0.36498
0.365058
0.365058
0.365136
0.365213
0.365291
0.365369
0.365369
0.365447
0.365525
0.365604
0.365682
0.365682
0.36576
0.365838
0.365916
0.365994
0.365994
0.366073
0.366151
0.366229
0.366308
0.366308
0.366386
0.366464
0.366543
0.366621
0.366621
0.3667
0.366778
0.366857
0.366936
0.366936
0.367014
0.367093
0.367172
0.36725
0.36725
0.367329
0.367408
0.367487
0.367565
0.367565
0.367644
0.367723
0.367802
0.367881
0.367881
0.36796
0.368039
0.368118
0.368197
0.368197
0.368276
0.368355
0.368434
0.368514
0.368514
0.368593
0.368672
0.368751
0.368831
0.368831
0.36891
0.368989
0.369069
0.369148
0.369148
0.369228
0.369307
0.369387
0.369466
0.369466
0.369546
0.369625
0.369705
0.369785
0.369785
0.369864
0.369944
0.370024
0.370103
0.370103
0.370183
0.370263
0.370343
0.370423
0.370423
0.370503
0.370583
0.370663
0.370743
0.370743
0.370823
0.370903
0.370983
0.371063
0.371063
0.371143
0.371223
0.371304
0.371384
0.371384
0.371464
0.371544
0.371625
0.371705
0.371705
0.371785
0.371866
0.371946
0.372027
0.372027
0.372107
0.372188
0.372268
0.372349
0.372349
0.37243
0.37251
0.372591
0.372672
0.372672
0.372752
0.372833
0.372914
0.372995
0.372995
0.373076
0.373157
0.373237
0.373318
0.373318
0.373399
0.37348
0.373561
0.373643
0.373643
0.373724
0.373805
0.373886
0.373967
0.373967
0.374048
0.37413
0.374211
0.374292
0.374292
0.374373
0.374455
0.374536
0.374618
0.374618
0.374699
0.37478
0.374862
0.374944
0.374944
0.375025
0.375107
0.375188
0.37527
0.37527
0.375352
0.375433
0.375515
0.375597
0.375597
0.375679
0.37576
0.375842
0.375924
0.375924
0.376006
0.376088
0.37617
0.376252
0.376252
0.376334
0.376416
0.376498
0.37658
0.37658
0.376662
0.376745
0.376827
0.376909
0.376909
0.376991
0.377074
0.377156
0.377238
0.377238
0.377321
0.377403
0.377486
0.377568
0.377568
0.377651
0.377733
0.377816
0.377898
0.377898
0.377981
0.378063
0.378146
0.378229
0.378229
0.378312
0.378394
0.378477
0.37856
0.37856
0.378643
0.378726
0.378809
0.378891
0.378891
0.378974
0.379057
0.37914
0.379223
0.379223
0.379307
0.37939
0.379473
0.379556
0.379556
0.379639
0.379722
0.379806
0.379889
0.379889
0.379972
0.380056
0.380139
0.380222
0.380222
0.380306
0.380389
0.380473
0.380556
0.380556
0.38064
0.380723
0.380807
0.380891
0.380891
0.380974
0.381058
0.381142
0.381225
0.381225
0.381309
0.381393
0.381477
0.381561
0.381561
0.381645
0.381729
0.381812
0.381896
0.381896
0.38198
0.382064
0.382149
0.382233
0.382233
0.382317
0.382401
0.382485
0.382569
0.382569
0.382654
0.382738
0.382822
0.382906
0.382906
0.382991
0.383075
0.38316
0.383244
0.383244
0.383329
0.383413
0.383498
0.383582
0.383582
0.383667
0.383751
0.383836
0.383921
0.383921
0.384005
0.38409
0.384175
0.38426
0.38426
0.384344
0.384429
0.384514
0.384599
0.384599
0.384684
0.384769
0.384854
0.384939
0.384939
0.385024
0.385109
0.385194
0.385279
0.385279
0.385364