<?xml version="1.0"?>
<VTKFile type="UnstructuredGrid" version="0.1" byte_order="LittleEndian">
<UnstructuredGrid>
<Piece NumberOfPoints="5000" NumberOfCells="4000">
<PointData Scalars="Reaction 0">
<DataArray type="Float32" Name="Reaction 0" format="ascii">
0.575009
0.575009
0.575009
0.575009
0.575009
0.575009
0.575009
0.575009
0.575009
0.575009
0.575009
0.575009
0.575009
0.57501
0.57501
0.57501
0.57501
0.57501
0.57501
0.575011
0.575011
0.575011
0.575011
0.575011
0.575012
0.575012
0.575012
0.575012
0.575013
0.575013
0.575013
0.575013
0.575014
0.575014
0.575014
0.575014
0.575015
0.575015
0.575016
0.575016
0.575016
0.575017
0.575017
0.575018
0.575018
0.575018
0.575019
0.575019
0.57502
0.575021
0.575021
0.575021
0.575022
0.575022
0.575023
0.575023
0.575024
0.575024
0.575025
0.575026
0.575026
0.575027
0.575027
0.575028
0.575029
0.575029
0.57503
0.57503
0.575031
0.575032
0.575032
0.575033
0.575034
0.575035
0.575035
0.575035
0.575036
0.575037
0.575038
0.575039
0.575039
0.57504
0.575041
0.575042
0.575043
0.575043
0.575044
0.575045
0.575046
0.575047
0.575047
0.575048
0.575049
0.575051
0.575052
0.575052
0.575053
0.575054
0.575055
0.575056
0.575056
0.575058
0.575059
0.57506
0.575061
0.575061
0.575063
0.575064
0.575065
0.575066
0.575066
0.575068
0.575069
0.57507
0.575072
0.575072
0.575073
0.575075
0.575076
0.575077
0.575077
0.575079
0.57508
0.575082
0.575083
0.575083
0.575085
0.575086
0.575088
0.575089
0.575089
0.575091
0.575092
0.575094
0.575096
0.575096
0.575097
0.575099
0.575101
0.575102
0.575102
0.575104
0.575106
0.575107
0.575109
0.575109
0.575111
0.575113
0.575114
0.575116
0.575116
0.575118
0.57512
0.575122
0.575123
0.575123
0.575125
0.575127
0.575129
0.575131
0.575131
0.575133
0.575135
0.575137
0.575139
0.575139
0.575141
0.575143
0.575145
0.575147
0.575147
0.575149
0.575151
0.575153
0.575155
0.575155
0.575157
0.575159
0.575162
0.575164
0.575164
0.575166
0.575168
0.57517
0.575172
0.575172
0.575175
0.575177
0.575179
0.575181
0.575181
0.575184
0.575186
0.575188
0.575191
0.575191
0.575193
0.575195
0.575198
0.5752
0.5752
0.575203
0.575205
0.575208
0.57521
0.57521
0.575212
0.575215
0.575217
0.57522
0.57522
0.575223
0.575225
0.575228
0.57523
0.57523
0.575233
0.575235
0.575238
0.575241
0.575241
0.575243
0.575246
0.575249
0.575251
0.575251
0.575254
0.575257
0.57526
0.575262
0.575262
0.575265
0.575268
0.575271
0.575274
0.575274
0.575277
0.575279
0.575282
0.575285
0.575285
0.575288
0.575291
0.575294
0.575297
0.575297
0.5753
0.575303
0.575306
0.575309
0.575309
0.575312
0.575315
0.575318
0.575321
0.575321
0.575324
0.575327
0.57533
0.575334
0.575334
0.575337
0.57534
0.575343
0.575346
0.575346
0.57535
0.575353
0.575356
0.575359
0.575359
0.575363
0.575366
0.575369
0.575373
0.575373
0.575376
0.575379
0.575383
0.575386
0.575386
0.575389
0.575393
0.575396
0.5754
0.5754
0.575403
0.575407
0.57541
0.575414
0.575414
0.575417
0.575421
0.575424
0.575428
0.575428
0.575432
0.575435
0.575439
0.575442
0.575442
0.575446
0.57545
0.575453
0.575457
0.575457
0.575461
0.575465
0.575468
0.575472
0.575472
0.575476
0.57548
0.575484
0.575487
0.575487
0.575491
0.575495
0.575499
0.575503
0.575503
0.575507
0.575511
0.575515
0.575519
0.575519
0.575523
0.575527
0.575531
0.575535
0.575535
0.575539
0.575543
0.575547
0.575551
0.575551
0.575555
0.575559
0.575563
0.575568
0.575568
0.575572
0.575576
0.57558
0.575584
0.575584
0.575589
0.575593
0.575597
0.575601
0.575601
0.575606
0.57561
0.575614
0.575619
0.575619
0.575623
0.575627
0.575632
0.575636
0.575636
0.575641
0.575645
0.57565
0.575654
0.575654
0.575659
0.575663
0.575668
0.575672
0.575672
0.575677
0.575681
0.575686
0.57569
0.57569
0.575695
0.5757
0.575704
0.575709
0.575709
0.575714
0.575718
0.575723
0.575728
0.575728
0.575733
0.575737
0.575742
0.575747
0.575747
0.575752
0.575757
0.575762
0.575767
0.575767
0.575771
0.575776
0.575781
0.575786
0.575786
0.575791
0.575796
0.575801
0.575806
0.575806
0.575811
0.575816
0.575821
0.575826
0.575826
0.575832
0.575837
0.575842
0.575847
0.575847
0.575852
0.575857
0.575863
0.575868
0.575868
0.575873
0.575878
0.575884
0.575889
0.575889
0.575894
0.575899
0.575905
0.57591
0.57591
0.575915
0.575921
0.575926
0.575932
0.575932
0.575937
0.575943
0.575948
0.575953
0.575953
0.575959
0.575965
0.57597
0.575976
0.575976
0.575981
0.575987
0.575992
0.575998
0.575998
0.576004
0.576009
0.576015
0.576021
0.576021
0.576026
0.576032
0.576038
0.576044
0.576044
0.576049
0.576055
0.576061
0.576067
0.576067
0.576073
0.576078
0.576084
0.57609
0.57609
0.576096
0.576102
0.576108
0.576114
0.576114
0.57612
0.576126
0.576132
0.576138
0.576138
0.576144
0.57615
0.576156
0.576162
0.576162
0.576168
0.576175
0.576181
0.576187
0.576187
0.576193
0.576199
0.576206
0.576212
0.576212
0.576218
0.576224
0.576231
0.576237
0.576237
0.576243
0.57625
0.576256
0.576262
0.576262
0.576269
0.576275
0.576282
0.576288
0.576288
0.576294
0.576301
0.576307
0.576314
0.576314
0.57632
0.576327
0.576334
0.57634
0.57634
0.576347
0.576353
0.57636
0.576367
0.576367
0.576373
0.57638
0.576387
0.576394
0.576394
0.5764
0.576407
0.576414
0.576421
0.576421
0.576428
0.576435
0.576441
0.576448
0.576448
0.576455
0.576462
0.576469
0.576476
0.576476
0.576483
0.57649
0.576497
0.576504
0.576504
0.576511
0.576518
0.576525
0.576533
0.576533
0.57654
0.576547
0.576554
0.576561
0.576561
0.576568
0.576576
0.576583
0.57659
0.57659
0.576597
0.576605
0.576612
0.576619
0.576619
0.576627
0.576634
0.576641
0.576649
0.576649
0.576656
0.576664
0.576671
0.576679
0.576679
0.576686
0.576694
0.576701
0.576709
0.576709
0.576716
0.576724
0.576731
0.576739
0.576739
0.576747
0.576754
0.576762
0.57677
0.57677
0.576777
0.576785
0.576793
0.576801
0.576801
0.576809
0.576816
0.576824
0.576832
0.576832
0.57684
0.576848
0.576856
0.576864
0.576864
0.576871
0.576879
0.576887
0.576895
0.576895
0.576903
0.576911
0.576919
0.576928
0.576928
0.576936
0.576944
0.576952
0.57696
0.57696
0.576968
0.576976
0.576985
0.576993
0.576993
0.577001
0.577009
0.577018
0.577026
0.577026
0.577034
0.577043
0.577051
0.577059
0.577059
0.577068
0.577076
0.577085
0.577093
0.577093
0.577102
0.57711
0.577119
0.577127
0.577127
0.577136
0.577145
0.577153
0.577162
0.577162
0.57717
0.577179
0.577188
0.577197
0.577197
0.577205
0.577214
0.577223
0.577232
0.577232
0.57724
0.577249
0.577258
0.577267
0.577267
0.577276
0.577285
0.577294
0.577303
0.577303
0.577312
0.577321
0.57733
0.577339
0.577339
0.577348
0.577357
0.577366
0.577375
0.577375
0.577384
0.577393
0.577402
0.577411
0.577411
0.577421
0.57743
0.577439
0.577448
0.577448
0.577458
0.577467
0.577476
0.577486
0.577486
0.577495
0.577504
0.577514
0.577523
0.577523
0.577533
0.577542
0.577552
0.577561
0.577561
0.577571
0.57758
0.57759
0.577599
0.577599
0.577609
0.577618
0.577628
0.577638
0.577638
0.577647
0.577657
0.577667
0.577677
0.577677
0.577686
0.577696
0.577706
0.577716
0.577716
0.577726
0.577736
0.577746
0.577755
0.577755
0.577765
0.577775
0.577785
0.577795
0.577795
0.577806
0.577816
0.577826
0.577836
0.577836
0.577846
0.577856
0.577866
0.577876
0.577876
0.577887
0.577897
0.577907
0.577917
0.577917
0.577928
0.577938
0.577948
0.577959
0.577959
0.577969
0.577979
0.57799
0.578
0.578
0.578011
0.578021
0.578032
0.578042
0.578042
0.578053
0.578063
0.578074
0.578085
0.578085
0.578095
0.578106
0.578117
0.578127
0.578127
0.578138
0.578149
0.578159
0.57817
0.57817
0.578181
0.578192
0.578203
0.578213
0.578213
0.578224
0.578235
0.578246
0.578257
0.578257
0.578268
0.578279
0.57829
0.578301
0.578301
0.578312
0.578323
0.578334
0.578345
0.578345
0.578357
0.578368
0.578379
0.57839
0.57839
0.578401
0.578413
0.578424
0.578435
0.578435
0.578447
0.578458
0.578469
0.578481
0.578481
0.578492
0.578504
0.578515
0.578527
0.578527
0.578538
0.57855
0.578561
0.578573
0.578573
0.578585
0.578596
0.578608
0.57862
0.57862
0.578631
0.578643
0.578655
0.578667
0.578667
0.578678
0.57869
0.578702
0.578714
0.578714
0.578726
0.578738
0.57875
0.578762
0.578762
0.578774
0.578786
0.578798
0.57881
0.57881
0.578822
0.578834
0.578846
0.578858
0.578858
0.57887
0.578882
0.578895
0.578907
0.578907
0.578919
0.578931
0.578944
0.578956
0.578956
0.578968
0.578981
0.578993
0.579005
0.579005
0.579018
0.57903
0.579043
0.579055
0.579055
0.579068
0.57908
0.579093
0.579105
0.579105
0.579118
0.579131
0.579143
0.579156
0.579156
0.579169
0.579182
0.579195
0.579207
0.579207
0.57922
0.579233
0.579246
0.579259
0.579259
0.579272
0.579285
0.579298
0.579311
0.579311
0.579324
0.579337
0.57935
0.579363
0.579363
0.579376
0.579389
0.579402
0.579416
0.579416
0.579429
0.579442
0.579455
0.579469
0.579469
0.579482
0.579495
0.579509
0.579522
0.579522
0.579536
0.579549
0.579562
0.579576
0.579576
0.579589
0.579603
0.579616
0.57963
0.57963
0.579644
0.579657
0.579671
0.579685
0.579685
0.579698
0.579712
0.579726
0.579739
0.579739
0.579753
0.579767
0.579781
0.579795
0.579795
0.579809
0.579823
0.579837
0.579851
0.579851
0.579865
0.579879
0.579893
0.579907
0.579907
0.579921
0.579935
0.579949
0.579963
0.579963
0.579978
0.579992
0.580006
0.580021
0.580021
0.580035
0.580049
0.580064
0.580078
0.580078
0.580093
0.580107
0.580122
0.580136
0.580136
0.580151
0.580165
0.58018
0.580194
0.580194
0.580209
0.580224
0.580238
0.580253
0.580253
0.580268
0.580282
0.580297
0.580312
0.580312
0.580327
0.580342
0.580357
0.580372
0.580372
0.580387
0.580401
0.580416
0.580431
0.580431
0.580446
0.580462
0.580477
0.580492
0.580492
0.580507
0.580522
0.580537
0.580552
0.580552
0.580568
0.580583
0.580598
0.580614
0.580614
0.580629
0.580644
0.58066
0.580675
0.580675
0.580691
0.580706
0.580722
0.580738
0.580738
0.580753
0.580769
0.580784
0.5808
0.5808
0.580816
0.580832
0.580847
0.580863
0.580863
0.580879
0.580895
0.580911
0.580927
0.580927
0.580943
0.580959
0.580975
0.580991
0.580991
0.581007
0.581023
0.581039
0.581055
0.581055
0.581071
0.581087
0.581103
0.58112
0.58112
0.581136
0.581152
0.581168
0.581185
0.581185
0.581201
0.581217
0.581234
0.58125
0.58125
0.581267
0.581283
0.5813
0.581316
0.581316
0.581333
0.581349
0.581366
0.581383
0.581383
0.581399
0.581416
0.581433
0.58145
0.58145
0.581466
0.581483
0.5815
0.581517
0.581517
0.581534
0.581551
0.581568
0.581585
0.581585
0.581602
0.581619
0.581636
0.581654
0.581654
0.581671
0.581688
0.581705
0.581722
0.581722
0.58174
0.581757
0.581774
0.581792
0.581792
0.581809
0.581827
0.581844
0.581862
0.581862
0.581879
0.581897
0.581914
0.581932
0.581932
0.581949
0.581967
0.581985
0.582002
0.582002
0.58202
0.582038
0.582056
0.582073
0.582073
0.582091
0.582109
0.582127
0.582145
0.582145
0.582163
0.582181
0.582199
0.582217
0.582217
0.582235
0.582253
0.582272
0.58229
0.58229
0.582308
0.582326
0.582345
0.582363
0.582363
0.582381
0.5824
0.582418
0.582437
0.582437
0.582455
0.582474
0.582492
0.582511
0.582511
0.582529
0.582548
0.582567
0.582585
0.582585
0.582604
0.582623
0.582642
0.58266
0.58266
0.582679
0.582698
0.582717
0.582736
0.582736
0.582755
0.582774
0.582793
0.582812
0.582812
0.582831
0.58285
0.582869
0.582888
0.582888
0.582908
0.582927
0.582946
0.582965
0.582965
0.582985
0.583004
0.583023
0.583043
0.583043
0.583062
0.583082
0.583101
0.583121
0.583121
0.58314
0.58316
0.58318
0.583199
0.583199
0.583219
0.583239
0.583259
0.583279
0.583279
0.583298
0.583318
0.583338
0.583358
0.583358
0.583378
0.583398
0.583418
0.583438
0.583438
0.583458
0.583479
0.583499
0.583519
0.583519
0.583539
0.583559
0.58358
0.5836
0.5836
0.58362
0.583641
0.583661
0.583682
0.583682
0.583702
0.583722
0.583743
0.583764
0.583764
0.583784
0.583805
0.583825
0.583846
0.583846
0.583867
0.583888
0.583908
0.583929
0.583929
0.58395
0.583971
0.583992
0.584013
0.584013
0.584034
0.584055
0.584076
0.584097
0.584097
0.584119
0.58414
0.584161
0.584182
0.584182
0.584204
0.584225
0.584246
0.584268
0.584268
0.584289
0.584311
0.584332
0.584354
0.584354
0.584375
0.584397
0.584418
0.58444
0.58444
0.584462
0.584483
0.584505
0.584527
0.584527
0.584549
0.58457
0.584592
0.584614
0.584614
0.584636
0.584658
0.58468
0.584702
0.584702
0.584724
0.584746
0.584769
0.584791
0.584791
0.584813
0.584835
0.584858
0.58488
0.58488
0.584902
0.584925
0.584947
0.58497
0.58497
0.584992
0.585015
0.585037
0.58506
0.58506
0.585083
0.585105
0.585128
0.585151
0.585151
0.585174
0.585196
0.585219
0.585242
0.585242
0.585265
0.585288
0.585311
0.585334
0.585334
0.585357
0.58538
0.585403
0.585427
0.585427
0.58545
0.585473
0.585496
0.585519
0.585519
0.585543
0.585566
0.58559
0.585613
0.585613
0.585636
0.58566
0.585684
0.585707
0.585707
0.585731
0.585755
0.585778
0.585802
0.585802
0.585826
0.58585
0.585874
0.585897
0.585897
0.585921
0.585945
0.585969
0.585993
0.585993
0.586018
0.586042
0.586066
0.58609
0.58609
0.586114
0.586138
0.586163
0.586187
0.586187
0.586211
0.586236
0.58626
0.586285
0.586285
0.586309
0.586334
0.586358
0.586383
0.586383
0.586407
0.586432
0.586457
0.586482
0.586482
0.586506
0.586531
0.586556
0.586581
0.586581
0.586606
0.586631
0.586656
0.586681
0.586681
0.586706
0.586731
0.586756
0.586782
0.586782
0.586807
0.586832
0.586858
0.586883
0.586883
0.586908
0.586934
0.586959
0.586985
0.586985
0.58701
0.587036
0.587062
0.587087
0.587087
0.587113
0.587139
0.587165
0.58719
0.58719
0.587216
0.587242
0.587268
0.587294
0.587294
0.58732
0.587346
0.587372
0.587398
0.587398
0.587424
0.58745
0.587477
0.587503
0.587503
0.587529
0.587555
0.587582
0.587608
0.587608
0.587635
0.587661
0.587688
0.587714
0.587714
0.587741
0.587768
0.587795
0.587821
0.587821
0.587848
0.587875
0.587902
0.587929
0.587929
0.587956
0.587983
0.58801
0.588037
0.588037
0.588064
0.588091
0.588118
0.588145
0.588145
0.588172
0.5882
0.588227
0.588254
0.588254
0.588282
0.588309
0.588337
0.588364
0.588364
0.588392
0.588419
0.588447
0.588474
0.588474
0.588502
0.58853
0.588558
0.588585
0.588585
0.588613
0.588641
0.588669
0.588697
0.588697
0.588725
0.588753
0.588782
0.58881
0.58881
0.588838
0.588866
0.588894
0.588923
0.588923
0.588951
0.58898
0.589008
0.589036
0.589036
0.589065
0.589093
0.589122
0.589151
0.589151
0.589179
0.589208
0.589237
0.589266
0.589266
0.589294
0.589323
0.589352
0.589381
0.589381
0.58941
0.589439
0.589468
0.589497
0.589497
0.589526
0.589555
0.589585
0.589614
0.589614
0.589643
0.589673
0.589702
0.589732
0.589732
0.589761
0.589791
0.58982
0.58985
0.58985
0.58988
0.589909
0.589939
0.589969
0.589969
0.589999
0.590028
0.590058
0.590088
0.590088
0.590118
0.590148
0.590178
0.590208
0.590208
0.590238
0.590269
0.590299
0.590329
0.590329
0.590359
0.59039
0.59042
0.59045
0.59045
0.590481
0.590511
0.590542
0.590573
0.590573
0.590603
0.590634
0.590665
0.590695
0.590695
0.590726
0.590757
0.590788
0.590819
0.590819
0.59085
0.590881
0.590912
0.590943
0.590943
0.590974
0.591006
0.591037
0.591068
0.591068
0.591099
0.591131
0.591162
0.591194
0.591194
0.591225
0.591256
0.591288
0.59132
0.59132
0.591351
0.591383
0.591415
0.591446
0.591446
0.591478
0.59151
0.591542
0.591574
0.591574
0.591606
0.591638
0.59167
0.591702
0.591702
0.591734
0.591767
0.591799
0.591831
0.591831
0.591863
0.591896
0.591928
0.591961
0.591961
0.591993
0.592026
0.592058
0.592091
0.592091
0.592124
0.592156
0.592189
0.592222
0.592222
0.592255
0.592288
0.592321
0.592353
0.592353
0.592386
0.59242
0.592453
0.592486
0.592486
0.592519
0.592552
0.592585
0.592619
0.592619
0.592652
0.592686
0.592719
0.592753
0.592753
0.592786
0.59282
0.592853
0.592887
0.592887
0.592921
0.592954
0.592988
0.593022
0.593022
0.593056
0.59309
0.593124
0.593158
0.593158
0.593192
0.593226
0.59326
0.593294
0.593294
0.593329
0.593363
0.593397
0.593432
0.593432
0.593466
0.5935
0.593535
0.593569
0.593569
0.593604
0.593639
0.593673
0.593708
0.593708
0.593743
0.593778
0.593812
0.593847
0.593847
0.593882
0.593917
0.593952
0.593987
0.593987
0.594023
0.594058
0.594093
0.594128
0.594128
0.594163
0.594199
0.594234
0.59427
0.59427
0.594305
0.594341
0.594376
0.594412
0.594412
0.594447
0.594483
0.594519
0.594554
0.594554
0.59459
0.594626
0.594662
0.594698
0.594698
0.594734
0.59477
0.594806
0.594842
0.594842
0.594878
0.594915
0.594951
0.594987
0.594987
0.595024
0.59506
0.595096
0.595133
0.595133
0.595169
0.595206
0.595243
0.595279
0.595279
0.595316
0.595353
0.59539
0.595426
0.595426
0.595463
0.5955
0.595537
0.595574
0.595574
0.595611
0.595648
0.595685
0.595723
0.595723
0.59576
0.595797
0.595834
0.595872
0.595872
0.595909
0.595947
0.595984
0.596022
0.596022
0.59606
0.596097
0.596135
0.596173
0.596173
0.59621
0.596248
0.596286
0.596324
0.596324
0.596362
0.5964
0.596438
0.596476
0.596476
0.596514
0.596553
0.596591
0.596629
0.596629
0.596667
0.596706
0.596744
0.596782
0.596782
0.596821
0.59686
0.596898
0.596937
0.596937
0.596975
0.597014
0.597053
0.597092
0.597092
0.597131
0.59717
0.597209
0.597248
0.597248
0.597287
0.597326
0.597365
0.597404
0.597404
0.597443
0.597483
0.597522
0.597561
0.597561
0.597601
0.59764
0.59768
0.597719
0.597719
0.597759
0.597798
0.597838
0.597878
0.597878
0.597917
0.597957
0.597997
0.598037
0.598037
0.598077
0.598117
0.598157
0.598197
0.598197
0.598237
0.598277
0.598317
0.598358
0.598358
0.598398
0.598438
0.598479
0.598519
0.598519
0.59856
0.5986
0.598641
0.598681
0.598681
0.598722
0.598763
0.598804
0.598844
0.598844
0.598885
0.598926
0.598967
0.599008
0.599008
0.599049
0.59909
0.599131
0.599172
0.599172
0.599213
0.599255
0.599296
0.599337
0.599337
0.599379
0.59942
0.599462
0.599503
0.599503
0.599545
0.599586
0.599628
0.59967
0.59967
0.599711
0.599753
0.599795
0.599837
0.599837
0.599879
0.599921
0.599963
0.600005
0.600005
0.600047
0.600089
0.600131
0.600174
0.600174
0.600216
0.600258
0.6003
0.600343
0.600343
0.600385
0.600428
0.60047
0.600513
0.600513
0.600556
0.600598
0.600641
0.600684
0.600684
0.600727
0.60077
0.600812
0.600855
0.600855
0.600898
0.600941
0.600985
0.601028
0.601028
0.601071
0.601114
0.601157
0.601201
0.601201
0.601244
0.601287
0.601331
0.601374
0.601374
0.601418
0.601461
0.601505
0.601548
0.601548
0.601592
0.601636
0.60168
0.601724
0.601724
0.601767
0.601811
0.601855
0.601899
0.601899
0.601943
0.601988
0.602032
0.602076
0.602076
0.60212
0.602164
0.602209
0.602253
0.602253
0.602298
0.602342
0.602386
0.602431
0.602431
0.602476
0.60252
0.602565
0.60261
0.60261
0.602654
0.602699
0.602744
0.602789
0.602789
0.602834
0.602879
0.602924
0.602969
0.602969
0.603014
0.603059
0.603104
0.60315
0.60315
0.603195
0.60324
0.603286
0.603331
0.603331
0.603377
0.603422
0.603468
0.603513
0.603513
0.603559
0.603604
0.60365
0.603696
0.603696
0.603742
0.603788
0.603833
0.603879
0.603879
0.603925
0.603971
0.604017
0.604063
0.604063
0.60411
0.604156
0.604202
0.604248
0.604248
0.604295
0.604341
0.604387
0.604434
0.604434
0.60448
0.604527
0.604574
0.60462
0.60462
0.604667
0.604714
0.60476
0.604807
0.604807
0.604854
0.604901
0.604948
0.604995
0.604995
0.605042
0.605089
0.605136
0.605183
0.605183
0.60523
0.605277
0.605324
0.605372
0.605372
0.605419
0.605467
0.605514
0.605561
0.605561
0.605609
0.605656
0.605704
0.605752
0.605752
0.605799
0.605847
0.605895
0.605943
0.605943
0.60599
0.606038
0.606086
0.606134
0.606134
0.606182
0.60623
0.606278
0.606326
0.606326
0.606375
0.606423
0.606471
0.606519
0.606519
0.606568
0.606616
0.606665
0.606713
0.606713
0.606762
0.60681
0.606859
0.606907
0.606907
0.606956
0.607005
0.607053
0.607102
0.607102
0.607151
0.6072
0.607249
0.607298
0.607298
0.607347
0.607396
0.607445
0.607494
0.607494
0.607543
0.607592
0.607641
0.607691
0.607691
0.60774
0.607789
0.607839
0.607888
0.607888
0.607938
0.607987
0.608037
0.608086
0.608086
0.608136
0.608186
0.608235
0.608285
0.608285
0.608335
0.608385
0.608435
0.608484
0.608484
0.608534
0.608584
0.608634
0.608684
0.608684
0.608734
0.608785
0.608835
0.608885
0.608885
0.608935
0.608986
0.609036
0.609086
0.609086
0.609137
0.609187
0.609238
0.609288
0.609288
0.609339
0.609389
0.60944
0.609491
0.609491
0.609541
0.609592
0.609643
0.609694
0.609694
0.609745
0.609796
0.609846
0.609897
0.609897
0.609948
0.609999
0.610051
0.610102
0.610102
0.610153
0.610204
0.610255
0.610307
0.610307
0.610358
0.610409
0.610461
0.610512
0.610512
0.610564
0.610615
0.610667
0.610718
0.610718
0.61077
0.610822
0.610873
0.610925
0.610925
0.610977
0.611029
0.61108
0.611132
0.611132
0.611184
0.611236
0.611288
0.61134
0.61134
0.611392
0.611444
0.611496
0.611548
0.611548
0.611601
0.611653
0.611705
0.611758
0.611758
0.61181
0.611862
0.611915
0.611967
0.611967
0.61202
0.612072
0.612125
0.612177
0.612177
0.61223
0.612283
0.612335
0.612388
0.612388
0.612441
0.612494
0.612546
0.612599
0.612599
0.612652
0.612705
0.612758
0.612811
0.612811
0.612864
0.612917
0.61297
0.613023
0.613023
0.613077
0.61313
0.613183
0.613236
0.613236
0.61329
0.613343
0.613396
0.61345
0.61345
0.613503
0.613557
0.61361
0.613664
0.613664
0.613717
0.613771
0.613825
0.613878
0.613878
0.613932
0.613986
0.61404
0.614093
0.614093
0.614147
0.614201
0.614255
0.614309
0.614309
0.614363
0.614417
0.614471
0.614525
0.614525
0.614579
0.614633
0.614688
0.614742
0.614742
0.614796
0.61485
0.614905
0.614959
0.614959
0.615013
0.615068
0.615122
0.615176
0.615176
0.615231
0.615285
0.61534
0.615395
0.615395
0.615449
0.615504
0.615559
0.615613
0.615613
0.615668
0.615723
0.615778
0.615832
0.615832
0.615887
0.615942
0.615997
0.616052
0.616052
0.616107
0.616162
0.616217
0.616272
0.616272
0.616327
0.616382
0.616437
0.616493
0.616493
0.616548
0.616603
0.616658
0.616714
0.616714
0.616769
0.616824
0.61688
0.616935
0.616935
0.616991
0.617046
0.617102
0.617157
0.617157
0.617213
0.617268
0.617324
0.61738
0.61738
0.617435
0.617491
0.617547
0.617603
0.617603
0.617658
0.617714
0.61777
0.617826
0.617826
0.617882
0.617938
0.617994
0.61805
0.61805
0.618106
0.618162
0.618218
0.618274
0.618274
0.61833
0.618386
0.618443
0.618499
0.618499
0.618555
0.618611
0.618668
0.618724
0.618724
0.61878
0.618837
0.618893
0.618949
0.618949
0.619006
0.619062
0.619119
0.619175
0.619175
0.619232
0.619289
0.619345
0.619402
0.619402
0.619459
0.619515
0.619572
0.619629
0.619629
0.619685
0.619742
0.619799
0.619856
0.619856
0.619913
0.61997
0.620027
0.620083
0.620083
0.62014
0.620197
0.620254
0.620312
0.620312
0.620369
0.620426
0.620483
0.62054
0.62054
0.620597
0.620654
0.620711
0.620769
0.620769
0.620826
0.620883
0.620941
0.620998
0.620998
0.621055
0.621113
0.62117
0.621227
0.621227
0.621285
0.621342
0.6214
0.621457
0.621457
0.621515
0.621573
0.62163
0.621688
0.621688
0.621745
0.621803
0.621861
0.621918
0.621918
0.621976
0.622034
0.622092
0.622149
0.622149
0.622207
0.622265
0.622323
0.622381
0.622381
0.622439
0.622497
0.622555
0.622613
0.622613
0.622671
0.622729
0.622787
0.622845
0.622845
0.622903
0.622961
0.623019
0.623077
0.623077
0.623135
0.623193
0.623252
0.62331
0.62331
0.623368
0.623426
0.623485
0.623543
0.623543
0.623601
0.62366
0.623718
0.623776
0.623776
0.623835
0.623893
0.623952
0.62401
0.62401
0.624069
0.624127
0.624186
0.624244
0.624244
0.624303
0.624361
0.62442
0.624479
0.624479
0.624537
0.624596
0.624655
0.624713
0.624713
0.624772
0.624831
0.624889
0.624948
0.624948
0.625007
0.625066
0.625125
0.625184
0.625184
0.625242
0.625301
0.62536
0.625419
0.625419
0.625478
0.625537
0.625596
0.625655
0.625655
0.625714
0.625773
0.625832
0.625891
0.625891
0.62595
0.626009
0.626068
0.626128
0.626128
0.626187
0.626246
0.626305
0.626364
0.626364
0.626424
0.626483
0.626542
0.626601
0.626601
0.626661
0.62672
0.626779
0.626839
0.626839
0.626898
0.626957
0.627017
0.627076
0.627076
0.627135
0.627195
0.627254
0.627314
0.627314
0.627373
0.627433
0.627492
0.627552
0.627552
0.627611
0.627671
0.627731
0.62779
0.62779
0.62785
0.627909
0.627969
0.628029
0.628029
0.628088
0.628148
0.628208
0.628267
0.628267
0.628327
0.628387
0.628447
0.628506
0.628506
0.628566
0.628626
0.628686
0.628746
0.628746
0.628806
0.628865
0.628925
0.628985
0.628985
0.629045
0.629105
0.629165
0.629225
0.629225
0.629285
0.629345
0.629405
0.629465
0.629465
0.629525
0.629585
0.629645
0.629705
0.629705
0.629765
0.629825
0.629885
0.629945
0.629945
0.630005
0.630065
0.630126
0.630186
0.630186
0.630246
0.630306
0.630366
0.630427
0.630427
0.630487
0.630547
0.630607
0.630667
0.630667
0.630728
0.630788
0.630848
0.630909
0.630909
0.630969
0.631029
0.63109
0.63115
0.63115
0.63121
0.631271
0.631331
0.631391
0.631391
0.631452
0.631512
0.631573
0.631633
0.631633
0.631694
0.631754
0.631815
0.631875
0.631875
0.631936
0.631996
0.632057
0.632117
0.632117
0.632178
0.632238
0.632299
0.632359
0.632359
0.63242
0.632481
0.632541
0.632602
0.632602
0.632663
0.632723
0.632784
0.632844
0.632844
0.632905
0.632966
0.633027
0.633087
0.633087
0.633148
0.633209
0.633269
0.63333
0.63333
0.633391
0.633452
0.633512
0.633573
0.633573
0.633634
0.633695
0.633756
0.633816
0.633816
0.633877
0.633938
0.633999
0.63406
0.63406
0.634121
0.634182
0.634242
0.634303
0.634303
0.634364
0.634425
0.634486
0.634547
0.634547
0.634608
0.634669
0.63473
0.634791
0.634791
0.634852
0.634913
0.634974
0.635035
0.635035
0.635096
0.635157
0.635218
0.635279
0.635279
0.63534
0.635401
0.635462
0.635523
0.635523
0.635584
0.635645
0.635706
0.635767
0.635767
0.635829
0.63589
0.635951
0.636012
0.636012
0.636073
0.636134
0.636195
0.636256
0.636256
0.636318
0.636379
0.63644
0.636501
0.636501
0.636562
0.636624
0.636685
0.636746
0.636746
0.636807
0.636868
0.63693
0.636991
0.636991
0.637052
0.637113
0.637175
0.637236
0.637236
0.637297
0.637359
0.63742
0.637481
0.637481
0.637542
0.637604
0.637665
0.637726
0.637726
0.637788
0.637849
0.63791
0.637972
0.637972
0.638033
0.638095
0.638156
0.638217
0.638217
0.638279
0.63834
0.638401
0.638463
0.638463
0.638524
0.638586
0.638647
0.638709
0.638709
0.63877
0.638831
0.638893
0.638954
0.638954
0.639016
0.639077
0.639139
0.6392
0.6392
0.639262
0.639323
0.639385
0.639446
0.639446
0.639508
0.639569
0.639631
0.639692
0.639692
0.639754
0.639815
0.639877
0.639938
0.639938
0.64
0.640061
0.640123
0.640184
0.640184
0.640246
0.640308
0.640369
0.640431
0.640431
0.640492
0.640554
0.640615
0.640677
0.640677
0.640739
0.6408
0.640862
0.640923
0.640923
0.640985
0.641047
0.641108
0.64117
0.64117
0.641232
0.641293
0.641355
0.641416
0.641416
0.641478
0.64154
0.641601
0.641663
0.641663
0.641725
0.641786
0.641848
0.64191
0.64191
0.641972
0.642033
0.642095
0.642157
0.642157
0.642218
0.64228
0.642342
0.642403
0.642403
0.642465
0.642527
0.642589
0.64265
0.64265
0.642712
0.642774
0.642836
0.642897
0.642897
0.642959
0.643021
0.643083
0.643144
0.643144
0.643206
0.643268
0.64333
0.643391
0.643391
0.643453
0.643515
0.643577
0.643639
0.643639
0.6437
0.643762
0.643824
0.643886
0.643886
0.643948
0.644009
0.644071
0.644133
0.644133
0.644195
0.644257
0.644318
0.64438
0.64438
0.644442
0.644504
0.644566
0.644628
0.644628
0.644689
0.644751
0.644813
0.644875
0.644875
0.644937
0.644999
0.645061
0.645122
0.645122
0.645184
0.645246
0.645308
0.64537
0.64537
0.645432
0.645494
0.645555
0.645617
0.645617
0.645679
0.645741
0.645803
0.645865
0.645865
0.645927
0.645989
0.646051
0.646113
0.646113
0.646174
0.646236
0.646298
0.64636
0.64636
0.646422
0.646484
0.646546
0.646608
0.646608
0.64667
0.646732
0.646794
0.646856
0.646856
0.646918
0.646979
0.647041
0.647103
0.647103
0.647165
0.647227
0.647289
0.647351
0.647351
0.647413
0.647475
0.647537
0.647599
0.647599
0.647661
0.647723
0.647785
0.647847
0.647847
0.647909
0.647971
0.648033
0.648095
0.648095
0.648157
0.648219
0.648281
0.648343
0.648343
0.648405
0.648467
0.648529
0.648591
0.648591
0.648653
0.648715
0.648777
0.648838
0.648838
0.6489
0.648962
0.649024
0.649086
0.649086
0.649148
0.649211
0.649273
0.649335
0.649335
0.649397
0.649459
0.649521
0.649583
0.649583
0.649645
0.649707
0.649769
0.649831
0.649831
0.649893
0.649955
0.650017
0.650079
0.650079
0.650141
0.650203
0.650265
0.650327
0.650327
0.650389
0.650451
0.650513
0.650575
0.650575
0.650637
0.650699
0.650761
0.650823
0.650823
0.650885
0.650947
0.651009
0.651071
0.651071
0.651133
0.651195
0.651258
0.65132
0.65132
0.651382
0.651444
0.651506
0.651568
0.651568
0.65163
0.651692
0.651754
0.651816
0.651816
0.651878
0.65194
0.652002
0.652064
0.652064
0.652126
0.652188
0.652251
0.652313
0.652313
0.652375
0.652437
0.652499
0.652561
0.652561
0.652623
0.652685
0.652747
0.652809
0.652809
0.652871
0.652933
0.652995
0.653058
0.653058
0.65312
0.653182
0.653244
0.653306
0.653306
0.653368
0.65343
0.653492
0.653554
0.653554
0.653616
0.653678
0.653741
0.653803
0.653803
0.653865
0.653927
0.653989
0.654051
0.654051
0.654113
0.654175
0.654237
0.654299
0.654299
0.654361
0.654424
0.654486
0.654548
0.654548
0.65461
0.654672
0.654734
0.654796
0.654796
0.654858
0.65492
0.654983
0.655045
0.655045
0.655107
0.655169
0.655231
0.655293
0.655293
0.655355
0.655417
0.655479
0.655542
0.655542
0.655604
0.655666
0.655728
0.65579
0.65579
0.655852
0.655914
0.655976
0.656039
0.656039
0.656101
0.656163
0.656225
0.656287
0.656287
0.656349
0.656411
0.656473
0.656535
0.656535
0.656598
0.65666
0.656722
0.656784
0.656784
0.656846
0.656908
0.65697
0.657032
0.657032
0.657095
0.657157
0.657219
0.657281
0.657281
0.657343
0.657405
0.657467
0.65753
0.65753
0.657592
0.657654
0.657716
0.657778
0.657778
0.65784
0.657902
0.657964
0.658027
0.658027
0.658089
0.658151
0.658213
0.658275
0.658275
0.658337
0.658399
0.658462
0.658524
0.658524
0.658586
0.658648
0.65871
0.658772
0.658772
0.658834
0.658897
0.658959
0.659021
0.659021
0.659083
0.659145
0.659207
0.659269
0.659269
0.659332
0.659394
0.659456
0.659518
0.659518
0.65958
0.659642
0.659704
0.659767
0.659767
0.659829
0.659891
0.659953
0.660015
0.660015
0.660077
0.660139
0.660202
0.660264
0.660264
0.660326
0.660388
0.66045
0.660512
0.660512
0.660574
0.660637
0.660699
0.660761
0.660761
0.660823
0.660885
0.660947
0.66101
0.66101
0.661072
0.661134
0.661196
0.661258
0.661258
0.66132
0.661382
0.661445
0.661507
0.661507
0.661569
0.661631
0.661693
0.661755
0.661755
0.661818
0.66188
0.661942
0.662004
0.662004
0.662066
0.662128
0.66219
0.662253
0.662253
0.662315
0.662377
0.662439
0.662501
0.662501
0.662563
0.662626
0.662688
0.66275
0.66275
0.662812
0.662874
0.662936
0.662998
0.662998
0.663061
0.663123
0.663185
0.663247
0.663247
0.663309
0.663371
0.663434
0.663496
0.663496
0.663558
0.66362
0.663682
0.663744
0.663744
0.663807
0.663869
0.663931
0.663993
0.663993
0.664055
0.664117
0.66418
0.664242
0.664242
0.664304
0.664366
0.664428
0.66449
0.66449
0.664552
0.664615
0.664677
0.664739
0.664739
0.664801
0.664863
0.664925
0.664988
0.664988
0.66505
0.665112
0.665174
0.665236
0.665236
0.665298
0.665361
0.665423
0.665485
0.665485
0.665547
0.665609
0.665671
0.665734
0.665734
0.665796
0.665858
0.66592
0.665982
0.665982
0.666044
0.666107
0.666169