<?xml version="1.0"?>
<VTKFile type="UnstructuredGrid" version="0.1" byte_order="LittleEndian">
<UnstructuredGrid>
<Piece NumberOfPoints="5000" NumberOfCells="4000">
<PointData Scalars="Reaction 0">
<DataArray type="Float32" Name="Reaction 0" format="ascii">
0.562776
0.562776
0.562776
0.562776
0.562776
0.562776
0.562776
0.562776
0.562776
0.562776
0.562776
0.562776
0.562776
0.562776
0.562776
0.562776
0.562776
0.562776
0.562776
0.562776
0.562776
0.562776
0.562776
0.562776
0.562776
0.562776
0.562776
0.562776
0.562776
0.562776
0.562776
0.562777
0.562777
0.562777
0.562777
0.562777
0.562777
0.562777
0.562777
0.562777
0.562777
0.562777
0.562777
0.562777
0.562777
0.562777
0.562777
0.562777
0.562777
0.562777
0.562777
0.562777
0.562777
0.562777
0.562777
0.562777
0.562777
0.562777
0.562777
0.562777
0.562777
0.562777
0.562777
0.562777
0.562778
0.562778
0.562778
0.562778
0.562778
0.562778
0.562778
0.562778
0.562778
0.562778
0.562778
0.562778
0.562778
0.562778
0.562778
0.562778
0.562778
0.562778
0.562778
0.562778
0.562779
0.562779
0.562779
0.562779
0.562779
0.562779
0.562779
0.562779
0.562779
0.562779
0.562779
0.562779
0.562779
0.562779
0.562779
0.562779
0.562779
0.562779
0.56278
0.56278
0.56278
0.56278
0.56278
0.56278
0.56278
0.56278
0.56278
0.56278
0.56278
0.56278
0.56278
0.56278
0.562781
0.562781
0.562781
0.562781
0.562781
0.562781
0.562781
0.562781
0.562781
0.562781
0.562781
0.562781
0.562782
0.562782
0.562782
0.562782
0.562782
0.562782
0.562782
0.562782
0.562782
0.562782
0.562782
0.562782
0.562782
0.562783
0.562783
0.562783
0.562783
0.562783
0.562783
0.562783
0.562783
0.562783
0.562783
0.562784
0.562784
0.562784
0.562784
0.562784
0.562784
0.562784
0.562784
0.562784
0.562784
0.562785
0.562785
0.562785
0.562785
0.562785
0.562785
0.562785
0.562785
0.562785
0.562785
0.562786
0.562786
0.562786
0.562786
0.562786
0.562786
0.562786
0.562786
0.562787
0.562787
0.562787
0.562787
0.562787
0.562787
0.562787
0.562787
0.562787
0.562788
0.562788
0.562788
0.562788
0.562788
0.562788
0.562788
0.562788
0.562789
0.562789
0.562789
0.562789
0.562789
0.562789
0.562789
0.56279
0.56279
0.56279
0.56279
0.56279
0.56279
0.56279
0.56279
0.562791
0.562791
0.562791
0.562791
0.562791
0.562791
0.562791
0.562792
0.562792
0.562792
0.562792
0.562792
0.562792
0.562792
0.562792
0.562793
0.562793
0.562793
0.562793
0.562793
0.562793
0.562794
0.562794
0.562794
0.562794
0.562794
0.562794
0.562795
0.562795
0.562795
0.562795
0.562795
0.562795
0.562796
0.562796
0.562796
0.562796
0.562796
0.562796
0.562796
0.562797
0.562797
0.562797
0.562797
0.562797
0.562797
0.562798
0.562798
0.562798
0.562798
0.562798
0.562798
0.562799
0.562799
0.562799
0.562799
0.562799
0.562799
0.5628
0.5628
0.5628
0.5628
0.5628
0.562801
0.562801
0.562801
0.562801
0.562801
0.562801
0.562801
0.562802
0.562802
0.562802
0.562802
0.562802
0.562803
0.562803
0.562803
0.562803
0.562803
0.562804
0.562804
0.562804
0.562804
0.562804
0.562804
0.562805
0.562805
0.562805
0.562805
0.562805
0.562806
0.562806
0.562806
0.562806
0.562806
0.562807
0.562807
0.562807
0.562807
0.562807
0.562808
0.562808
0.562808
0.562808
0.562808
0.562809
0.562809
0.562809
0.562809
0.56281
0.56281
0.56281
0.56281
0.56281
0.562811
0.562811
0.562811
0.562811
0.562811
0.562812
0.562812
0.562812
0.562812
0.562812
0.562813
0.562813
0.562813
0.562814
0.562814
0.562814
0.562814
0.562814
0.562815
0.562815
0.562815
0.562815
0.562816
0.562816
0.562816
0.562816
0.562816
0.562817
0.562817
0.562817
0.562817
0.562818
0.562818
0.562818
0.562818
0.562818
0.562819
0.562819
0.562819
0.562819
0.56282
0.56282
0.56282
0.562821
0.562821
0.562821
0.562821
0.562821
0.562822
0.562822
0.562822
0.562822
0.562823
0.562823
0.562823
0.562823
0.562824
0.562824
0.562824
0.562824
0.562825
0.562825
0.562825
0.562826
0.562826
0.562826
0.562826
0.562826
0.562827
0.562827
0.562827
0.562827
0.562828
0.562828
0.562828
0.562828
0.562829
0.562829
0.562829
0.562829
0.56283
0.56283
0.56283
0.562831
0.562831
0.562831
0.562831
0.562832
0.562832
0.562832
0.562833
0.562833
0.562833
0.562834
0.562834
0.562834
0.562834
0.562835
0.562835
0.562835
0.562835
0.562836
0.562836
0.562836
0.562836
0.562837
0.562837
0.562837
0.562838
0.562838
0.562838
0.562839
0.562839
0.562839
0.562839
0.56284
0.56284
0.56284
0.562841
0.562841
0.562841
0.562841
0.562842
0.562842
0.562842
0.562843
0.562843
0.562843
0.562844
0.562844
0.562844
0.562844
0.562845
0.562845
0.562845
0.562846
0.562846
0.562846
0.562847
0.562847
0.562847
0.562848
0.562848
0.562848
0.562848
0.562849
0.562849
0.562849
0.56285
0.56285
0.56285
0.562851
0.562851
0.562851
0.562851
0.562852
0.562852
0.562853
0.562853
0.562853
0.562853
0.562854
0.562854
0.562855
0.562855
0.562855
0.562856
0.562856
0.562856
0.562856
0.562857
0.562857
0.562858
0.562858
0.562858
0.562858
0.562859
0.562859
0.56286
0.56286
0.56286
0.562861
0.562861
0.562861
0.562861
0.562862
0.562862
0.562863
0.562863
0.562863
0.562863
0.562864
0.562864
0.562865
0.562865
0.562865
0.562866
0.562866
0.562867
0.562867
0.562867
0.562867
0.562868
0.562868
0.562868
0.562869
0.562869
0.56287
0.56287
0.56287
0.562871
0.562871
0.562872
0.562872
0.562872
0.562872
0.562873
0.562873
0.562874
0.562874
0.562874
0.562875
0.562875
0.562876
0.562876
0.562876
0.562877
0.562877
0.562878
0.562878
0.562878
0.562878
0.562879
0.562879
0.562879
0.56288
0.56288
0.562881
0.562881
0.562881
0.562882
0.562882
0.562883
0.562883
0.562883
0.562884
0.562884
0.562885
0.562885
0.562885
0.562886
0.562886
0.562887
0.562887
0.562887
0.562888
0.562888
0.562889
0.562889
0.562889
0.56289
0.56289
0.562891
0.562891
0.562891
0.562892
0.562892
0.562893
0.562893
0.562893
0.562894
0.562894
0.562895
0.562895
0.562895
0.562896
0.562896
0.562897
0.562897
0.562897
0.562898
0.562898
0.562899
0.562899
0.562899
0.5629
0.5629
0.562901
0.562901
0.562901
0.562902
0.562902
0.562903
0.562903
0.562903
0.562904
0.562905
0.562905
0.562906
0.562906
0.562906
0.562907
0.562907
0.562908
0.562908
0.562908
0.562909
0.562909
0.56291
0.56291
0.56291
0.562911
0.562912
0.562912
0.562912
0.562913
0.562913
0.562914
0.562914
0.562914
0.562915
0.562915
0.562916
0.562917
0.562917
0.562917
0.562918
0.562918
0.562919
0.562919
0.562919
0.56292
0.562921
0.562921
0.562921
0.562922
0.562922
0.562923
0.562923
0.562923
0.562924
0.562925
0.562925
0.562926
0.562926
0.562926
0.562927
0.562928
0.562928
0.562928
0.562929
0.562929
0.56293
0.56293
0.56293
0.562931
0.562932
0.562932
0.562933
0.562933
0.562933
0.562934
0.562935
0.562935
0.562935
0.562936
0.562936
0.562937
0.562938
0.562938
0.562938
0.562939
0.562939
0.56294
0.56294
0.562941
0.562941
0.562942
0.562943
0.562943
0.562943
0.562944
0.562944
0.562945
0.562945
0.562946
0.562946
0.562947
0.562947
0.562947
0.562948
0.562949
0.562949
0.56295
0.56295
0.562951
0.562951
0.562952
0.562952
0.562952
0.562953
0.562954
0.562954
0.562955
0.562955
0.562956
0.562956
0.562957
0.562958
0.562958
0.562958
0.562959
0.56296
0.56296
0.56296
0.562961
0.562962
0.562962
0.562963
0.562963
0.562964
0.562964
0.562965
0.562966
0.562966
0.562966
0.562967
0.562968
0.562968
0.562968
0.562969
0.56297
0.56297
0.562971
0.562971
0.562972
0.562972
0.562973
0.562974
0.562974
0.562974
0.562975
0.562976
0.562976
0.562976
0.562977
0.562978
0.562978
0.562979
0.562979
0.56298
0.56298
0.562981
0.562982
0.562982
0.562983
0.562983
0.562984
0.562985
0.562985
0.562985
0.562986
0.562987
0.562987
0.562987
0.562988
0.562989
0.56299
0.56299
0.56299
0.562991
0.562992
0.562992
0.562993
0.562993
0.562994
0.562995
0.562995
0.562996
0.562996
0.562997
0.562997
0.562998
0.562999
0.562999
0.563
0.563
0.563001
0.563002
0.563002
0.563003
0.563003
0.563004
0.563005
0.563005
0.563006
0.563006
0.563007
0.563008
0.563008
0.563009
0.563009
0.56301
0.563011
0.563011
0.563012
0.563012
0.563013
0.563014
0.563014
0.563015
0.563015
0.563016
0.563017
0.563017
0.563018
0.563018
0.563019
0.56302
0.56302
0.563021
0.563021
0.563022
0.563023
0.563023
0.563024
0.563025
0.563025
0.563026
0.563026
0.563027
0.563028
0.563028
0.563029
0.563029
0.56303
0.563031
0.563032
0.563032
0.563032
0.563033
0.563034
0.563035
0.563036
0.563036
0.563036
0.563037
0.563038
0.563039
0.563039
0.56304
0.56304
0.563041
0.563042
0.563042
0.563043
0.563044
0.563044
0.563045
0.563045
0.563046
0.563047
0.563048
0.563049
0.563049
0.563049
0.56305
0.563051
0.563052
0.563052
0.563053
0.563053
0.563054
0.563055
0.563055
0.563056
0.563057
0.563058
0.563059
0.563059
0.563059
0.56306
0.563061
0.563062
0.563062
0.563063
0.563064
0.563064
0.563065
0.563065
0.563066
0.563067
0.563068
0.563069
0.563069
0.56307
0.56307
0.563071
0.563072
0.563072
0.563073
0.563074
0.563075
0.563076
0.563076
0.563076
0.563077
0.563078
0.563079
0.563079
0.56308
0.563081
0.563082
0.563083
0.563083
0.563083
0.563084
0.563085
0.563086
0.563086
0.563087
0.563088
0.563089
0.56309
0.56309
0.563091
0.563091
0.563092
0.563093
0.563093
0.563094
0.563095
0.563096
0.563097
0.563097
0.563098
0.563099
0.5631
0.563101
0.563101
0.563101
0.563102
0.563103
0.563104
0.563104
0.563105
0.563106
0.563107
0.563108
0.563108
0.563109
0.56311
0.563111
0.563112
0.563112
0.563113
0.563114
0.563114
0.563115
0.563115
0.563116
0.563117
0.563118
0.563119
0.563119
0.56312
0.563121
0.563122
0.563123
0.563123
0.563124
0.563125
0.563126
0.563127
0.563127
0.563128
0.563129
0.56313
0.563131
0.563131
0.563132
0.563133
0.563134
0.563134
0.563134
0.563135
0.563136
0.563137
0.563138
0.563138
0.563139
0.56314
0.563141
0.563142
0.563142
0.563143
0.563144
0.563145
0.563146
0.563146
0.563147
0.563148
0.563149
0.56315
0.56315
0.563151
0.563152
0.563153
0.563154
0.563154
0.563155
0.563156
0.563157
0.563158
0.563158
0.563159
0.56316
0.563161
0.563162
0.563162
0.563163
0.563164
0.563165
0.563167
0.563167
0.563168
0.563169
0.56317
0.563171
0.563171
0.563172
0.563173
0.563174
0.563175
0.563175
0.563176
0.563177
0.563178
0.563179
0.563179
0.56318
0.563181
0.563182
0.563183
0.563183
0.563184
0.563185
0.563186
0.563187
0.563187
0.563188
0.563189
0.56319
0.563192
0.563192
0.563193
0.563194
0.563195
0.563196
0.563196
0.563197
0.563198
0.563199
0.5632
0.5632
0.563201
0.563202
0.563203
0.563205
0.563205
0.563206
0.563207
0.563208
0.563209
0.563209
0.56321
0.563211
0.563212
0.563213
0.563213
0.563214
0.563216
0.563217
0.563218
0.563218
0.563219
0.56322
0.563221
0.563222
0.563222
0.563223
0.563224
0.563226
0.563227
0.563227
0.563228
0.563229
0.56323
0.563231
0.563231
0.563232
0.563234
0.563235
0.563236
0.563236
0.563237
0.563238
0.563239
0.56324
0.56324
0.563241
0.563243
0.563244
0.563245
0.563245
0.563246
0.563247
0.563248
0.56325
0.56325
0.563251
0.563252
0.563253
0.563254
0.563254
0.563255
0.563257
0.563258
0.563259
0.563259
0.56326
0.563261
0.563263
0.563264
0.563264
0.563265
0.563266
0.563267
0.563269
0.563269
0.56327
0.563271
0.563272
0.563273
0.563273
0.563275
0.563276
0.563277
0.563278
0.563278
0.563279
0.563281
0.563282
0.563283
0.563283
0.563284
0.563285
0.563287
0.563288
0.563288
0.563289
0.56329
0.563291
0.563293
0.563293
0.563294
0.563295
0.563296
0.563298
0.563298
0.563299
0.5633
0.563301
0.563303
0.563303
0.563304
0.563305
0.563306
0.563308
0.563308
0.563309
0.56331
0.563311
0.563313
0.563313
0.563314
0.563315
0.563317
0.563318
0.563318
0.563319
0.56332
0.563322
0.563323
0.563323
0.563324
0.563326
0.563327
0.563328
0.563328
0.563329
0.563331
0.563332
0.563333
0.563333
0.563335
0.563336
0.563337
0.563338
0.563338
0.56334
0.563341
0.563342
0.563344
0.563344
0.563345
0.563346
0.563348
0.563349
0.563349
0.56335
0.563352
0.563353
0.563354
0.563354
0.563356
0.563357
0.563358
0.56336
0.56336
0.563361
0.563362
0.563364
0.563365
0.563365
0.563366
0.563368
0.563369
0.56337
0.56337
0.563372
0.563373
0.563375
0.563376
0.563376
0.563377
0.563379
0.56338
0.563381
0.563381
0.563383
0.563384
0.563386
0.563387
0.563387
0.563388
0.56339
0.563391
0.563392
0.563392
0.563394
0.563395
0.563397
0.563398
0.563398
0.563399
0.563401
0.563402
0.563404
0.563404
0.563405
0.563406
0.563408
0.563409
0.563409
0.563411
0.563412
0.563414
0.563415
0.563415
0.563416
0.563418
0.563419
0.563421
0.563421
0.563422
0.563424
0.563425
0.563427
0.563427
0.563428
0.563429
0.563431
0.563432
0.563432
0.563434
0.563435
0.563437
0.563438
0.563438
0.56344
0.563441
0.563443
0.563444
0.563444
0.563446
0.563447
0.563449
0.56345
0.56345
0.563451
0.563453
0.563454
0.563456
0.563456
0.563457
0.563459
0.56346
0.563462
0.563462
0.563463
0.563465
0.563466
0.563468
0.563468
0.563469
0.563471
0.563472
0.563474
0.563474
0.563476
0.563477
0.563479
0.56348
0.56348
0.563482
0.563483
0.563485
0.563486
0.563486
0.563488
0.563489
0.563491
0.563493
0.563493
0.563494
0.563496
0.563497
0.563499
0.563499
0.5635
0.563502
0.563503
0.563505
0.563505
0.563507
0.563508
0.56351
0.563511
0.563511
0.563513
0.563514
0.563516
0.563518
0.563518
0.563519
0.563521
0.563522
0.563524
0.563524
0.563526
0.563527
0.563529
0.56353
0.56353
0.563532
0.563534
0.563535
0.563537
0.563537
0.563538
0.56354
0.563542
0.563543
0.563543
0.563545
0.563547
0.563548
0.56355
0.56355
0.563552
0.563553
0.563555
0.563557
0.563557
0.563558
0.56356
0.563562
0.563563
0.563563
0.563565
0.563566
0.563568
0.56357
0.56357
0.563571
0.563573
0.563575
0.563576
0.563576
0.563578
0.56358
0.563582
0.563583
0.563583
0.563585
0.563587
0.563588
0.56359
0.56359
0.563592
0.563593
0.563595
0.563597
0.563597
0.563599
0.5636
0.563602
0.563604
0.563604
0.563606
0.563607
0.563609
0.563611
0.563611
0.563612
0.563614
0.563616
0.563618
0.563618
0.563619
0.563621
0.563623
0.563625
0.563625
0.563626
0.563628
0.56363
0.563632
0.563632
0.563634
0.563635
0.563637
0.563639
0.563639
0.563641
0.563642
0.563644
0.563646
0.563646
0.563648
0.56365
0.563651
0.563653
0.563653
0.563655
0.563657
0.563659
0.56366
0.56366
0.563662
0.563664
0.563666
0.563668
0.563668
0.56367
0.563671
0.563673
0.563675
0.563675
0.563677
0.563679
0.563681
0.563682
0.563682
0.563684
0.563686
0.563688
0.56369
0.56369
0.563692
0.563694
0.563695
0.563697
0.563697
0.563699
0.563701
0.563703
0.563705
0.563705
0.563707
0.563709
0.56371
0.563712
0.563712
0.563714
0.563716
0.563718
0.56372
0.56372
0.563722
0.563724
0.563726
0.563728
0.563728
0.56373
0.563732
0.563733
0.563735
0.563735
0.563737
0.563739
0.563741
0.563743
0.563743
0.563745
0.563747
0.563749
0.563751
0.563751
0.563753
0.563755
0.563757
0.563759
0.563759
0.563761
0.563763
0.563765
0.563767
0.563767
0.563769
0.563771
0.563773
0.563775
0.563775
0.563777
0.563779
0.563781
0.563783
0.563783
0.563785
0.563787
0.563789
0.563791
0.563791
0.563793
0.563795
0.563797
0.563799
0.563799
0.563801
0.563803
0.563805
0.563807
0.563807
0.563809
0.563811
0.563813
0.563815
0.563815
0.563817
0.563819
0.563821
0.563823
0.563823
0.563825
0.563828
0.56383
0.563832
0.563832
0.563834
0.563836
0.563838
0.56384
0.56384
0.563842
0.563844
0.563846
0.563848
0.563848
0.563851
0.563853
0.563855
0.563857
0.563857
0.563859
0.563861
0.563863
0.563866
0.563866
0.563868
0.56387
0.563872
0.563874
0.563874
0.563876
0.563878
0.563881
0.563883
0.563883
0.563885
0.563887
0.563889
0.563891
0.563891
0.563894
0.563896
0.563898
0.5639
0.5639
0.563902
0.563905
0.563907
0.563909
0.563909
0.563911
0.563913
0.563916
0.563918
0.563918
0.56392
0.563922
0.563924
0.563927
0.563927
0.563929
0.563931
0.563933
0.563936
0.563936
0.563938
0.56394
0.563942
0.563945
0.563945
0.563947
0.563949
0.563952
0.563954
0.563954
0.563956
0.563958
0.563961
0.563963
0.563963
0.563965
0.563968
0.56397
0.563972
0.563972
0.563974
0.563977
0.563979
0.563981
0.563981
0.563984
0.563986
0.563988
0.563991
0.563991
0.563993
0.563995
0.563998
0.564
0.564
0.564002
0.564005
0.564007
0.56401
0.56401
0.564012
0.564014
0.564017
0.564019
0.564019
0.564021
0.564024
0.564026
0.564029
0.564029
0.564031
0.564033
0.564036
0.564038
0.564038
0.564041
0.564043
0.564045
0.564048
0.564048
0.56405
0.564053
0.564055
0.564058
0.564058
0.56406
0.564062
0.564065
0.564067
0.564067
0.56407
0.564072
0.564075
0.564077
0.564077
0.56408
0.564082
0.564085
0.564087
0.564087
0.56409
0.564092
0.564095
0.564097
0.564097
0.5641
0.564102
0.564105
0.564107
0.564107
0.56411
0.564112
0.564115
0.564117
0.564117
0.56412
0.564122
0.564125
0.564128
0.564128
0.56413
0.564133
0.564135
0.564138
0.564138
0.56414
0.564143
0.564146
0.564148
0.564148
0.564151
0.564153
0.564156
0.564159
0.564159
0.564161
0.564164
0.564166
0.564169
0.564169
0.564172
0.564174
0.564177
0.56418
0.56418
0.564182
0.564185
0.564188
0.56419
0.56419
0.564193
0.564195
0.564198
0.564201
0.564201
0.564203
0.564206
0.564209
0.564211
0.564211
0.564214
0.564217
0.56422
0.564222
0.564222
0.564225
0.564228
0.56423
0.564233
0.564233
0.564236
0.564239
0.564241
0.564244
0.564244
0.564247
0.56425
0.564252
0.564255
0.564255
0.564258
0.564261
0.564264
0.564266
0.564266
0.564269
0.564272
0.564275
0.564277
0.564277
0.56428
0.564283
0.564286
0.564289
0.564289
0.564291
0.564294
0.564297
0.5643
0.5643
0.564303
0.564306
0.564308
0.564311
0.564311
0.564314
0.564317
0.56432
0.564323
0.564323
0.564326
0.564329
0.564331
0.564334
0.564334
0.564337
0.56434
0.564343
0.564346
0.564346
0.564349
0.564352
0.564355
0.564358
0.564358
0.564361
0.564363
0.564366
0.564369
0.564369
0.564372
0.564375
0.564378
0.564381
0.564381
0.564384
0.564387
0.56439
0.564393
0.564393
0.564396
0.564399
0.564402
0.564405
0.564405
0.564408
0.564411
0.564414
0.564417
0.564417
0.56442
0.564423
0.564426
0.564429
0.564429
0.564432
0.564435
0.564439
0.564442
0.564442
0.564445
0.564448
0.564451
0.564454
0.564454
0.564457
0.56446
0.564463
0.564466
0.564466
0.564469
0.564473
0.564476
0.564479
0.564479
0.564482
0.564485
0.564488
0.564491
0.564491
0.564495
0.564498
0.564501
0.564504
0.564504
0.564507
0.56451
0.564514
0.564517
0.564517
0.56452
0.564523
0.564526
0.56453
0.56453
0.564533
0.564536
0.564539
0.564542
0.564542
0.564546
0.564549
0.564552
0.564555
0.564555
0.564559
0.564562
0.564565
0.564569
0.564569
0.564572
0.564575
0.564578
0.564582
0.564582
0.564585
0.564588
0.564592
0.564595
0.564595
0.564598
0.564602
0.564605
0.564608
0.564608
0.564612
0.564615
0.564618
0.564622
0.564622
0.564625
0.564628
0.564632
0.564635
0.564635
0.564639
0.564642
0.564645
0.564649
0.564649
0.564652
0.564656
0.564659
0.564663
0.564663
0.564666
0.56467
0.564673
0.564676
0.564676
0.56468
0.564683
0.564687
0.56469
0.56469
0.564694
0.564697
0.564701
0.564704
0.564704
0.564708
0.564711
0.564715
0.564718
0.564718
0.564722
0.564725
0.564729
0.564732
0.564732
0.564736
0.56474
0.564743
0.564747
0.564747
0.56475
0.564754
0.564758
0.564761
0.564761
0.564765
0.564768
0.564772
0.564776
0.564776
0.564779
0.564783
0.564787
0.56479
0.56479
0.564794
0.564798
0.564801
0.564805
0.564805
0.564809
0.564812
0.564816
0.56482
0.56482
0.564823
0.564827
0.564831
0.564834
0.564834
0.564838
0.564842
0.564846
0.56485
0.56485
0.564853
0.564857
0.564861
0.564865
0.564865
0.564868
0.564872
0.564876
0.56488
0.56488
0.564884
0.564887
0.564891
0.564895
0.564895
0.564899
0.564903
0.564907
0.56491
0.56491
0.564914
0.564918
0.564922
0.564926
0.564926
0.56493
0.564934
0.564938
0.564942
0.564942
0.564945
0.564949
0.564953
0.564957
0.564957
0.564961
0.564965
0.564969
0.564973
0.564973
0.564977
0.564981
0.564985
0.564989
0.564989
0.564993
0.564997
0.565001
0.565005
0.565005
0.565009
0.565013
0.565017
0.565021
0.565021
0.565025
0.565029
0.565033
0.565037
0.565037
0.565042
0.565046
0.56505
0.565054
0.565054
0.565058
0.565062
0.565066
0.56507
0.56507
0.565075
0.565079
0.565083
0.565087
0.565087
0.565091
0.565095
0.565099
0.565104
0.565104
0.565108
0.565112
0.565116
0.56512
0.56512
0.565125
0.565129
0.565133
0.565137
0.565137
0.565142
0.565146
0.56515
0.565155
0.565155
0.565159
0.565163
0.565168
0.565172
0.565172
0.565176
0.56518
0.565185
0.565189
0.565189
0.565193
0.565198
0.565202
0.565207
0.565207
0.565211
0.565215
0.56522
0.565224
0.565224
0.565229
0.565233
0.565237
0.565242
0.565242
0.565246
0.565251
0.565255
0.56526
0.56526
0.565264
0.565269
0.565273
0.565278
0.565278
0.565282
0.565287
0.565291
0.565296
0.565296
0.5653
0.565305
0.565309
0.565314
0.565314
0.565318
0.565323
0.565328
0.565332
0.565332
0.565337
0.565341
0.565346
0.565351
0.565351
0.565355
0.56536
0.565365
0.565369
0.565369
0.565374
0.565379
0.565383
0.565388
0.565388
0.565393
0.565398
0.565402
0.565407
0.565407
0.565412
0.565416
0.565421
0.565426
0.565426
0.565431
0.565435
0.56544
0.565445
0.565445
0.56545
0.565455
0.56546
0.565464
0.565464
0.565469
0.565474
0.565479
0.565484
0.565484
0.565489
0.565494
0.565499
0.565503
0.565503
0.565508
0.565513
0.565518
0.565523
0.565523
0.565528
0.565533
0.565538
0.565543
0.565543
0.565548
0.565553
0.565558
0.565563
0.565563
0.565568
0.565573
0.565578
0.565583
0.565583
0.565588
0.565593
0.565598
0.565603
0.565603
0.565608
0.565614
0.565619
0.565624
0.565624
0.565629
0.565634
0.565639
0.565644
0.565644
0.56565
0.565655
0.56566
0.565665
0.565665
0.56567
0.565676
0.565681
0.565686
0.565686
0.565691
0.565696
0.565702
0.565707
0.565707
0.565712
0.565718
0.565723
0.565728
0.565728
0.565734
0.565739
0.565744
0.56575
0.56575
0.565755
0.56576
0.565766
0.565771
0.565771
0.565777
0.565782
0.565787
0.565793
0.565793
0.565798
0.565804
0.565809
0.565815
0.565815
0.56582
0.565826
0.565831
0.565837
0.565837
0.565842
0.565848
0.565853
0.565859
0.565859
0.565864
0.56587
0.565876
0.565881
0.565881
0.565887
0.565892
0.565898
0.565904
0.565904
0.565909
0.565915
0.565921
0.565926
0.565926
0.565932
0.565938
0.565943
0.565949
0.565949
0.565955
0.565961
0.565966
0.565972
0.565972
0.565978
0.565984
0.56599
0.565995
0.565995
0.566001
0.566007
0.566013
0.566019
0.566019
0.566025
0.56603
0.566036
0.566042
0.566042
0.566048
0.566054
0.56606
0.566066
0.566066
0.566072
0.566078
0.566084
0.56609
0.56609
0.566096
0.566102
0.566108
0.566114
0.566114
0.56612
0.566126
0.566132
0.566138
0.566138
0.566144
0.56615
0.566156
0.566163
0.566163
0.566169
0.566175
0.566181
0.566187
0.566187
0.566193
0.5662
0.566206
0.566212
0.566212
0.566218
0.566224
0.566231
0.566237
0.566237
0.566243
0.56625
0.566256
0.566262
0.566262
0.566269
0.566275
0.566281
0.566288
0.566288
0.566294
0.5663
0.566307
0.566313
0.566313
0.56632
0.566326
0.566332
0.566339
0.566339
0.566345
0.566352
0.566358
0.566365
0.566365
0.566371
0.566378
0.566385
0.566391
0.566391
0.566398
0.566404
0.566411
0.566417
0.566417
0.566424
0.566431
0.566437
0.566444
0.566444
0.566451
0.566457
0.566464
0.566471
0.566471
0.566478
0.566484
0.566491
0.566498
0.566498
0.566505
0.566511
0.566518
0.566525
0.566525
0.566532
0.566539
0.566546
0.566552
0.566552
0.566559
0.566566
0.566573
0.56658
0.56658
0.566587
0.566594
0.566601
0.566608
0.566608
0.566615
0.566622
0.566629
0.566636
0.566636
0.566643
0.56665
0.566657
0.566664
0.566664
0.566671
0.566679
0.566686
0.566693
0.566693
0.5667
0.566707
0.566714
0.566722
0.566722
0.566729
0.566736
0.566743
0.56675
0.56675
0.566758
0.566765
0.566772
0.56678
0.56678
0.566787
0.566794
0.566802
0.566809
0.566809
0.566816
0.566824
0.566831
0.566839
0.566839
0.566846
0.566854
0.566861
0.566869
0.566869
0.566876
0.566884
0.566891
0.566899
0.566899
0.566906
0.566914
0.566922
0.566929
0.566929
0.566937
0.566944
0.566952
0.56696
0.56696
0.566967
0.566975
0.566983
0.566991
0.566991
0.566998
0.567006
0.567014
0.567022
0.567022
0.56703
0.567037
0.567045
0.567053
0.567053
0.567061
0.567069
0.567077
0.567085
0.567085
0.567093
0.567101
0.567109
0.567116
0.567116
0.567125
0.567133
0.567141
0.567149
0.567149
0.567157
0.567165
0.567173
0.567181
0.567181
0.567189
0.567197
0.567206
0.567214
0.567214
0.567222
0.56723
0.567238
0.567247
0.567247
0.567255
0.567263
0.567271
0.56728
0.56728
0.567288
0.567296
0.567305
0.567313
0.567313
0.567322
0.56733
0.567338
0.567347
0.567347
0.567355
0.567364
0.567372
0.567381
0.567381
0.567389
0.567398
0.567407
0.567415
0.567415
0.567424
0.567432
0.567441
0.56745
0.56745
0.567458
0.567467
0.567476
0.567485
0.567485
0.567493
0.567502
0.567511
0.56752
0.56752
0.567528
0.567537
0.567546
0.567555
0.567555
0.567564
0.567573
0.567582
0.567591
0.567591
0.5676
0.567609
0.567618
0.567627
0.567627
0.567636
0.567645
0.567654
0.567663
0.567663
0.567672
0.567681
0.56769
0.5677
0.5677
0.567709
0.567718
0.567727
0.567737
0.567737
0.567746
0.567755
0.567764
0.567774
0.567774
0.567783
0.567792
0.567802
0.567811
0.567811
0.567821
0.56783
0.567839
0.567849
0.567849
0.567859
0.567868
0.567878
0.567887
0.567887
0.567897
0.567906
0.567916
0.567926
0.567926
0.567935
0.567945
0.567955
0.567964
0.567964
0.567974
0.567984
0.567994
0.568003
0.568003
0.568013
0.568023
0.568033
0.568043
0.568043
0.568053
0.568063
0.568073
0.568083
0.568083
0.568093
0.568103
0.568113
0.568123
0.568123
0.568133
0.568143
0.568153
0.568163
0.568163
0.568173
0.568183
0.568194
0.568204
0.568204
0.568214
0.568224
0.568235
0.568245
0.568245
0.568255
0.568266
0.568276
0.568287
0.568287
0.568297
0.568307
0.568318
0.568328
0.568328
0.568339
0.568349
0.56836
0.568371
0.568371
0.568381
0.568392
0.568402
0.568413
0.568413
0.568424
0.568434
0.568445
0.568456
0.568456
0.568467
0.568478
0.568488
0.568499
0.568499
0.56851
0.568521
0.568532
0.568543
0.568543
0.568554
0.568565
0.568576
0.568587
0.568587
0.568598
0.568609
0.56862
0.568631
0.568631
0.568642
0.568654
0.568665
0.568676
0.568676
0.568687
0.568699
0.56871
0.568721
0.568721
0.568733
0.568744
0.568755
0.568767
0.568767
0.568778
0.56879
0.568801
0.568813
0.568813
0.568824
0.568836
0.568847
0.568859
0.568859
0.568871
0.568882
0.568894
0.568906
0.568906
0.568918
0.568929
0.568941
0.568953
0.568953
0.568965
0.568977
0.568989
0.569
0.569
0.569012
0.569024
0.569036
0.569048
0.569048
0.56906
0.569073
0.569085
0.569097
0.569097
0.569109
0.569121
0.569133
0.569146
0.569146
0.569158
0.56917
0.569183
0.569195
0.569195
0.569207
0.56922
0.569232
0.569245
0.569245
0.569257
0.569269
0.569282
0.569295
0.569295
0.569307
0.56932
0.569332
0.569345
0.569345
0.569358
0.569371
0.569383
0.569396
0.569396
0.569409
0.569422
0.569435
0.569448
0.569448
0.569461
0.569473
0.569486
0.569499
0.569499
0.569512
0.569526
0.569539
0.569552
0.569552
0.569565
0.569578
0.569591
0.569605
0.569605
0.569618
0.569631
0.569645
0.569658
0.569658
0.569671
0.569685
0.569698
0.569712
0.569712
0.569725
0.569739
0.569752
0.569766
0.569766
0.569779
0.569793
0.569807
0.569821
0.569821
0.569834
0.569848
0.569862
0.569876
0.569876
0.56989
0.569904
0.569918
0.569931
0.569931
0.569945
0.569959
0.569974
0.569988
0.569988
0.570002
0.570016
0.57003
0.570044
0.570044
0.570059
0.570073
0.570087
0.570101
0.570101
0.570116
0.57013
0.570145
0.570159
0.570159
0.570174
0.570188
0.570203
0.570217
0.570217
0.570232
0.570247
0.570261
0.570276
0.570276
0.570291
0.570306
0.570321
0.570335
0.570335
0.57035
0.570365
0.57038
0.570395
0.570395
0.57041
0.570425
0.57044
0.570456
0.570456
0.570471
0.570486
0.570501
0.570516
0.570516
0.570532
0.570547
0.570562
0.570578
0.570578
0.570593
0.570609
0.570624
0.57064
0.57064
0.570655
0.570671
0.570687
0.570702
0.570702
0.570718
0.570734
0.57075
0.570766
0.570766
0.570781
0.570797
0.570813
0.570829
0.570829
0.570845
0.570861
0.570877
0.570893
0.570893
0.57091
0.570926
0.570942
0.570958
0.570958
0.570975
0.570991
0.571007
0.571024
0.571024
0.57104
0.571057
0.571073
0.57109
0.57109
0.571106
0.571123
0.57114
0.571156
0.571156
0.571173
0.57119
0.571207
0.571224
0.571224
0.571241
0.571258
0.571275
0.571292
0.571292
0.571309
0.571326
0.571343
0.57136
0.57136
0.571377
0.571395
0.571412
0.571429
0.571429
0.571447
0.571464
0.571481
0.571499
0.571499
0.571516
0.571534
0.571552
0.571569
0.571569
0.571587
0.571605
0.571623
0.57164
0.57164
0.571658
0.571676
0.571694
0.571712
0.571712
0.57173
0.571748
0.571766
0.571784
0.571784
0.571803
0.571821
0.571839
0.571857
0.571857
0.571876
0.571894
0.571913
0.571931
0.571931
0.57195
0.571968
0.571987
0.572005
0.572005
0.572024
0.572043
0.572062
0.57208
0.57208
0.572099
0.572118
0.572137
0.572156
0.572156
0.572175
0.572194
0.572213
0.572233
0.572233
0.572252
0.572271
0.57229
0.57231
0.57231
0.572329
0.572349
0.572368
0.572388
0.572388
0.572407
0.572427
0.572446
0.572466
0.572466
0.572486
0.572506
0.572526
0.572545
0.572545
0.572565
0.572585
0.572605
0.572626
0.572626
0.572646
0.572666
0.572686
0.572706
0.572706
0.572727
0.572747
0.572767
0.572788
0.572788
0.572808
0.572829
0.572849
0.57287
0.57287
0.572891
0.572912
0.572932
0.572953
0.572953
0.572974
0.572995
0.573016
0.573037
0.573037
0.573058
0.573079
0.5731
0.573121
0.573121
0.573143
0.573164
0.573185
0.573207
0.573207
0.573228
0.57325
0.573271
0.573293
0.573293
0.573315
0.573336
0.573358
0.57338
0.57338
0.573402
0.573424
0.573446
0.573468
0.573468
0.57349
0.573512
0.573534
0.573556
0.573556
0.573579
0.573601
0.573623
0.573646
0.573646
0.573668
0.573691
0.573713
0.573736
0.573736
0.573759
0.573782
0.573804
0.573827
0.573827
0.57385
0.573873
0.573896
0.573919
0.573919
0.573942
0.573965
0.573989
0.574012
0.574012
0.574035
0.574059
0.574082
0.574106
0.574106
0.574129
0.574153
0.574176
0.5742
0.5742
0.574224
0.574248
0.574272
0.574295
0.574295
0.574319
0.574344
0.574368
0.574392
0.574392
0.574416
0.57444
0.574465
0.574489
0.574489
0.574513
0.574538
0.574562
0.574587
0.574587
0.574612
0.574636
0.574661
0.574686
0.574686
0.574711
0.574736
0.574761
0.574786
0.574786
0.574811
0.574836
0.574862
0.574887
0.574887
0.574912
0.574938
0.574963
0.574989
0.574989
0.575014
0.57504
0.575066
0.575091
0.575091
0.575117
0.575143
0.575169
0.575195
0.575195
0.575221
0.575247
0.575274
0.5753
0.5753
0.575326
0.575352
0.575379
0.575405
0.575405
0.575432
0.575459
0.575485
0.575512
0.575512
0.575539
0.575566
0.575593
0.57562
0.57562
0.575647
0.575674
0.575701
0.575728
0.575728
0.575756
0.575783
0.57581
0.575838
0.575838
0.575865
0.575893
0.575921
0.575948
0.575948
0.575976
0.576004
0.576032
0.57606
0.57606
0.576088
0.576116
0.576144
0.576173
0.576173
0.576201
0.576229
0.576258
0.576286
0.576286
0.576315
0.576344
0.576372
0.576401
0.576401
0.57643
0.576459
0.576488
0.576517
0.576517
0.576546
0.576575
0.576605
0.576634
0.576634
0.576663
0.576693
0.576722
0.576752
0.576752
0.576782
0.576811
0.576841
0.576871
0.576871
0.576901
0.576931
0.576961
0.576991
0.576991
0.577021
0.577051
0.577082
0.577112
0.577112
0.577143
0.577173
0.577204
0.577235
0.577235
0.577265
0.577296
0.577327
0.577358
0.577358
0.577389
0.57742
0.577451
0.577483
0.577483
0.577514
0.577545
0.577577
0.577608
0.577608
0.57764
0.577672
0.577703
0.577735
0.577735