<?xml version="1.0"?>
<VTKFile type="UnstructuredGrid" version="0.1" byte_order="LittleEndian">
<UnstructuredGrid>
<Piece NumberOfPoints="5000" NumberOfCells="4000">
<PointData Scalars="Reaction 0">
<DataArray type="Float32" Name="Reaction 0" format="ascii">
0.389334
0.389334
0.389334
0.389334
0.389334
0.389334
0.389334
0.389335
0.389335
0.389335
0.389335
0.389335
0.389336
0.389336
0.389336
0.389336
0.389337
0.389337
0.389337
0.389338
0.389338
0.389338
0.389339
0.389339
0.38934
0.38934
0.389341
0.389341
0.389342
0.389342
0.389342
0.389343
0.389344
0.389345
0.389346
0.389346
0.389346
0.389347
0.389348
0.389349
0.389349
0.38935
0.389351
0.389352
0.389353
0.389353
0.389354
0.389355
0.389356
0.389357
0.389357
0.389359
0.38936
0.389361
0.389362
0.389362
0.389364
0.389365
0.389366
0.389368
0.389368
0.389369
0.389371
0.389372
0.389374
0.389374
0.389375
0.389377
0.389378
0.38938
0.38938
0.389381
0.389383
0.389385
0.389387
0.389387
0.389388
0.38939
0.389392
0.389394
0.389394
0.389396
0.389398
0.3894
0.389402
0.389402
0.389404
0.389406
0.389408
0.38941
0.38941
0.389412
0.389414
0.389416
0.389418
0.389418
0.389421
0.389423
0.389425
0.389427
0.389427
0.38943
0.389432
0.389435
0.389437
0.389437
0.389439
0.389442
0.389444
0.389447
0.389447
0.38945
0.389452
0.389455
0.389458
0.389458
0.38946
0.389463
0.389466
0.389469
0.389469
0.389471
0.389474
0.389477
0.38948
0.38948
0.389483
0.389486
0.389489
0.389492
0.389492
0.389495
0.389498
0.389501
0.389504
0.389504
0.389507
0.389511
0.389514
0.389517
0.389517
0.38952
0.389524
0.389527
0.38953
0.38953
0.389534
0.389537
0.389541
0.389544
0.389544
0.389548
0.389551
0.389555
0.389558
0.389558
0.389562
0.389566
0.389569
0.389573
0.389573
0.389577
0.389581
0.389584
0.389588
0.389588
0.389592
0.389596
0.3896
0.389604
0.389604
0.389608
0.389612
0.389616
0.38962
0.38962
0.389624
0.389628
0.389632
0.389637
0.389637
0.389641
0.389645
0.389649
0.389654
0.389654
0.389658
0.389662
0.389667
0.389671
0.389671
0.389676
0.38968
0.389685
0.389689
0.389689
0.389694
0.389698
0.389703
0.389708
0.389708
0.389712
0.389717
0.389722
0.389726
0.389726
0.389731
0.389736
0.389741
0.389746
0.389746
0.389751
0.389756
0.389761
0.389766
0.389766
0.389771
0.389776
0.389781
0.389786
0.389786
0.389791
0.389796
0.389802
0.389807
0.389807
0.389812
0.389817
0.389823
0.389828
0.389828
0.389833
0.389839
0.389844
0.38985
0.38985
0.389855
0.389861
0.389866
0.389872
0.389872
0.389878
0.389883
0.389889
0.389895
0.389895
0.3899
0.389906
0.389912
0.389918
0.389918
0.389924
0.389929
0.389935
0.389941
0.389941
0.389947
0.389953
0.389959
0.389965
0.389965
0.389971
0.389977
0.389984
0.38999
0.38999
0.389996
0.390002
0.390008
0.390015
0.390015
0.390021
0.390027
0.390034
0.39004
0.39004
0.390047
0.390053
0.39006
0.390066
0.390066
0.390073
0.390079
0.390086
0.390093
0.390093
0.390099
0.390106
0.390113
0.390119
0.390119
0.390126
0.390133
0.39014
0.390147
0.390147
0.390154
0.390161
0.390167
0.390174
0.390174
0.390181
0.390189
0.390196
0.390203
0.390203
0.39021
0.390217
0.390224
0.390231
0.390231
0.390239
0.390246
0.390253
0.390261
0.390261
0.390268
0.390275
0.390283
0.39029
0.39029
0.390298
0.390305
0.390313
0.39032
0.39032
0.390328
0.390336
0.390343
0.390351
0.390351
0.390359
0.390366
0.390374
0.390382
0.390382
0.39039
0.390398
0.390406
0.390414
0.390414
0.390421
0.390429
0.390437
0.390445
0.390445
0.390454
0.390462
0.39047
0.390478
0.390478
0.390486
0.390494
0.390503
0.390511
0.390511
0.390519
0.390527
0.390536
0.390544
0.390544
0.390553
0.390561
0.39057
0.390578
0.390578
0.390587
0.390595
0.390604
0.390612
0.390612
0.390621
0.39063
0.390638
0.390647
0.390647
0.390656
0.390665
0.390674
0.390682
0.390682
0.390691
0.3907
0.390709
0.390718
0.390718
0.390727
0.390736
0.390745
0.390754
0.390754
0.390763
0.390773
0.390782
0.390791
0.390791
0.3908
0.39081
0.390819
0.390828
0.390828
0.390837
0.390847
0.390856
0.390866
0.390866
0.390875
0.390885
0.390894
0.390904
0.390904
0.390913
0.390923
0.390933
0.390942
0.390942
0.390952
0.390962
0.390971
0.390981
0.390981
0.390991
0.391001
0.391011
0.391021
0.391021
0.391031
0.391041
0.391051
0.391061
0.391061
0.391071
0.391081
0.391091
0.391101
0.391101
0.391111
0.391121
0.391132
0.391142
0.391142
0.391152
0.391163
0.391173
0.391183
0.391183
0.391194
0.391204
0.391215
0.391225
0.391225
0.391236
0.391246
0.391257
0.391267
0.391267
0.391278
0.391289
0.391299
0.39131
0.39131
0.391321
0.391332
0.391342
0.391353
0.391353
0.391364
0.391375
0.391386
0.391397
0.391397
0.391408
0.391419
0.39143
0.391441
0.391441
0.391452
0.391463
0.391474
0.391486
0.391486
0.391497
0.391508
0.391519
0.391531
0.391531
0.391542
0.391553
0.391565
0.391576
0.391576
0.391588
0.391599
0.391611
0.391622
0.391622
0.391634
0.391645
0.391657
0.391669
0.391669
0.39168
0.391692
0.391704
0.391716
0.391716
0.391727
0.391739
0.391751
0.391763
0.391763
0.391775
0.391787
0.391799
0.391811
0.391811
0.391823
0.391835
0.391847
0.391859
0.391859
0.391871
0.391883
0.391896
0.391908
0.391908
0.39192
0.391933
0.391945
0.391957
0.391957
0.39197
0.391982
0.391994
0.392007
0.392007
0.392019
0.392032
0.392045
0.392057
0.392057
0.39207
0.392082
0.392095
0.392108
0.392108
0.392121
0.392133
0.392146
0.392159
0.392159
0.392172
0.392185
0.392198
0.392211
0.392211
0.392224
0.392237
0.39225
0.392263
0.392263
0.392276
0.392289
0.392302
0.392315
0.392315
0.392328
0.392342
0.392355
0.392368
0.392368
0.392381
0.392395
0.392408
0.392422
0.392422
0.392435
0.392449
0.392462
0.392476
0.392476
0.392489
0.392503
0.392516
0.39253
0.39253
0.392544
0.392557
0.392571
0.392585
0.392585
0.392599
0.392612
0.392626
0.39264
0.39264
0.392654
0.392668
0.392682
0.392696
0.392696
0.39271
0.392724
0.392738
0.392752
0.392752
0.392766
0.392781
0.392795
0.392809
0.392809
0.392823
0.392838
0.392852
0.392866
0.392866
0.392881
0.392895
0.392909
0.392924
0.392924
0.392938
0.392953
0.392967
0.392982
0.392982
0.392997
0.393011
0.393026
0.393041
0.393041
0.393055
0.39307
0.393085
0.3931
0.3931
0.393115
0.393129
0.393144
0.393159
0.393159
0.393174
0.393189
0.393204
0.393219
0.393219
0.393234
0.393249
0.393265
0.39328
0.39328
0.393295
0.39331
0.393325
0.393341
0.393341
0.393356
0.393371
0.393387
0.393402
0.393402
0.393418
0.393433
0.393449
0.393464
0.393464
0.39348
0.393495
0.393511
0.393526
0.393526
0.393542
0.393558
0.393573
0.393589
0.393589
0.393605
0.393621
0.393637
0.393652
0.393652
0.393668
0.393684
0.3937
0.393716
0.393716
0.393732
0.393748
0.393764
0.39378
0.39378
0.393797
0.393813
0.393829
0.393845
0.393845
0.393861
0.393878
0.393894
0.39391
0.39391
0.393927
0.393943
0.393959
0.393976
0.393976
0.393992
0.394009
0.394025
0.394042
0.394042
0.394059
0.394075
0.394092
0.394109
0.394109
0.394125
0.394142
0.394159
0.394176
0.394176
0.394192
0.394209
0.394226
0.394243
0.394243
0.39426
0.394277
0.394294
0.394311
0.394311
0.394328
0.394345
0.394362
0.394379
0.394379
0.394397
0.394414
0.394431
0.394448
0.394448
0.394466
0.394483
0.3945
0.394518
0.394518
0.394535
0.394553
0.39457
0.394588
0.394588
0.394605
0.394623
0.39464
0.394658
0.394658
0.394676
0.394693
0.394711
0.394729
0.394729
0.394746
0.394764
0.394782
0.3948
0.3948
0.394818
0.394836
0.394854
0.394872
0.394872
0.39489
0.394908
0.394926
0.394944
0.394944
0.394962
0.39498
0.394998
0.395016
0.395016
0.395035
0.395053
0.395071
0.39509
0.39509
0.395108
0.395126
0.395145
0.395163
0.395163
0.395182
0.3952
0.395219
0.395237
0.395237
0.395256
0.395274
0.395293
0.395312
0.395312
0.39533
0.395349
0.395368
0.395387
0.395387
0.395405
0.395424
0.395443
0.395462
0.395462
0.395481
0.3955
0.395519
0.395538
0.395538
0.395557
0.395576
0.395595
0.395614
0.395614
0.395634
0.395653
0.395672
0.395691
0.395691
0.39571
0.39573
0.395749
0.395769
0.395769
0.395788
0.395807
0.395827
0.395846
0.395846
0.395866
0.395885
0.395905
0.395925
0.395925
0.395944
0.395964
0.395984
0.396003
0.396003
0.396023
0.396043
0.396063
0.396082
0.396082
0.396102
0.396122
0.396142
0.396162
0.396162
0.396182
0.396202
0.396222
0.396242
0.396242
0.396262
0.396282
0.396303
0.396323
0.396323
0.396343
0.396363
0.396384
0.396404
0.396404
0.396424
0.396445
0.396465
0.396485
0.396485
0.396506
0.396526
0.396547
0.396567
0.396567
0.396588
0.396609
0.396629
0.39665
0.39665
0.396671
0.396691
0.396712
0.396733
0.396733
0.396754
0.396774
0.396795
0.396816
0.396816
0.396837
0.396858
0.396879
0.3969
0.3969
0.396921
0.396942
0.396963
0.396984
0.396984
0.397006
0.397027
0.397048
0.397069
0.397069
0.39709
0.397112
0.397133
0.397154
0.397154
0.397176
0.397197
0.397219
0.39724
0.39724
0.397262
0.397283
0.397305
0.397326
0.397326
0.397348
0.39737
0.397391
0.397413
0.397413
0.397435
0.397457
0.397478
0.3975
0.3975
0.397522
0.397544
0.397566
0.397588
0.397588
0.39761
0.397632
0.397654
0.397676
0.397676
0.397698
0.39772
0.397742
0.397764
0.397764
0.397787
0.397809
0.397831
0.397854
0.397854
0.397876
0.397898
0.397921
0.397943
0.397943
0.397965
0.397988
0.39801
0.398033
0.398033
0.398056
0.398078
0.398101
0.398123
0.398123
0.398146
0.398169
0.398191
0.398214
0.398214
0.398237
0.39826
0.398283
0.398306
0.398306
0.398329
0.398351
0.398374
0.398397
0.398397
0.39842
0.398444
0.398467
0.39849
0.39849
0.398513
0.398536
0.398559
0.398583
0.398583
0.398606
0.398629
0.398652
0.398676
0.398676
0.398699
0.398723
0.398746
0.398769
0.398769
0.398793
0.398816
0.39884
0.398864
0.398864
0.398887
0.398911
0.398935
0.398958
0.398958
0.398982
0.399006
0.39903
0.399053
0.399053
0.399077
0.399101
0.399125
0.399149
0.399149
0.399173
0.399197
0.399221
0.399245
0.399245
0.399269
0.399293
0.399317
0.399341
0.399341
0.399366
0.39939
0.399414
0.399438
0.399438
0.399463
0.399487
0.399512
0.399536
0.399536
0.39956
0.399585
0.399609
0.399634
0.399634
0.399658
0.399683
0.399708
0.399732
0.399732
0.399757
0.399782
0.399806
0.399831
0.399831
0.399856
0.399881
0.399906
0.39993
0.39993
0.399955
0.39998
0.400005
0.40003
0.40003
0.400055
0.40008
0.400105
0.40013
0.40013
0.400156
0.400181
0.400206
0.400231
0.400231
0.400256
0.400282
0.400307
0.400332
0.400332
0.400358
0.400383
0.400409
0.400434
0.400434
0.40046
0.400485
0.400511
0.400536
0.400536
0.400562
0.400587
0.400613
0.400639
0.400639
0.400665
0.40069
0.400716
0.400742
0.400742
0.400768
0.400794
0.400819
0.400845
0.400845
0.400871
0.400897
0.400923
0.400949
0.400949
0.400976
0.401002
0.401028
0.401054
0.401054
0.40108
0.401106
0.401133
0.401159
0.401159
0.401185
0.401212
0.401238
0.401264
0.401264
0.401291
0.401317
0.401344
0.40137
0.40137
0.401397
0.401423
0.40145
0.401477
0.401477
0.401503
0.40153
0.401557
0.401583
0.401583
0.40161
0.401637
0.401664
0.401691
0.401691
0.401718
0.401744
0.401771
0.401798
0.401798
0.401825
0.401852
0.40188
0.401907
0.401907
0.401934
0.401961
0.401988
0.402015
0.402015
0.402043
0.40207
0.402097
0.402125
0.402125
0.402152
0.402179
0.402207
0.402234
0.402234
0.402262
0.402289
0.402317
0.402344
0.402344
0.402372
0.402399
0.402427
0.402455
0.402455
0.402483
0.40251
0.402538
0.402566
0.402566
0.402594
0.402622
0.402649
0.402677
0.402677
0.402705
0.402733
0.402761
0.402789
0.402789
0.402817
0.402846
0.402874
0.402902
0.402902
0.40293
0.402958
0.402987
0.403015
0.403015
0.403043
0.403071
0.4031
0.403128
0.403128
0.403157
0.403185
0.403214
0.403242
0.403242
0.403271
0.403299
0.403328
0.403356
0.403356
0.403385
0.403414
0.403442
0.403471
0.403471
0.4035
0.403529
0.403558
0.403586
0.403586
0.403615
0.403644
0.403673
0.403702
0.403702
0.403731
0.40376
0.403789
0.403818
0.403818
0.403848
0.403877
0.403906
0.403935
0.403935
0.403964
0.403994
0.404023
0.404052
0.404052
0.404082
0.404111
0.40414
0.40417
0.40417
0.404199
0.404229
0.404258
0.404288
0.404288
0.404318
0.404347
0.404377
0.404407
0.404407
0.404436
0.404466
0.404496
0.404526
0.404526
0.404555
0.404585
0.404615
0.404645
0.404645
0.404675
0.404705
0.404735
0.404765
0.404765
0.404795
0.404825
0.404855
0.404885
0.404885
0.404916
0.404946
0.404976
0.405006
0.405006
0.405037
0.405067
0.405097
0.405128
0.405128
0.405158
0.405189
0.405219
0.40525
0.40525
0.40528
0.405311
0.405341
0.405372
0.405372
0.405403
0.405433
0.405464
0.405495
0.405495
0.405525
0.405556
0.405587
0.405618
0.405618
0.405649
0.40568
0.405711
0.405742
0.405742
0.405773
0.405804
0.405835
0.405866
0.405866
0.405897
0.405928
0.405959
0.405991
0.405991
0.406022
0.406053
0.406084
0.406116
0.406116
0.406147
0.406178
0.40621
0.406241
0.406241
0.406273
0.406304
0.406336
0.406367
0.406367
0.406399
0.406431
0.406462
0.406494
0.406494
0.406526
0.406557
0.406589
0.406621
0.406621
0.406653
0.406685
0.406717
0.406748
0.406748
0.40678
0.406812
0.406844
0.406876
0.406876
0.406909
0.406941
0.406973
0.407005
0.407005
0.407037
0.407069
0.407102
0.407134
0.407134
0.407166
0.407198
0.407231
0.407263
0.407263
0.407296
0.407328
0.407361
0.407393
0.407393
0.407426
0.407458
0.407491
0.407523
0.407523
0.407556
0.407589
0.407621
0.407654
0.407654
0.407687
0.40772
0.407753
0.407785
0.407785
0.407818
0.407851
0.407884
0.407917
0.407917
0.40795
0.407983
0.408016
0.408049
0.408049
0.408082
0.408116
0.408149
0.408182
0.408182
0.408215
0.408248
0.408282
0.408315
0.408315
0.408348
0.408382
0.408415
0.408449
0.408449
0.408482
0.408516
0.408549
0.408583
0.408583
0.408616
0.40865
0.408684
0.408717
0.408717
0.408751
0.408785
0.408819
0.408852
0.408852
0.408886
0.40892
0.408954
0.408988
0.408988
0.409022
0.409056
0.40909
0.409124
0.409124
0.409158
0.409192
0.409226
0.40926
0.40926
0.409294
0.409329
0.409363
0.409397
0.409397
0.409431
0.409466
0.4095
0.409535
0.409535
0.409569
0.409603
0.409638
0.409672
0.409672
0.409707
0.409742
0.409776
0.409811
0.409811
0.409845
0.40988
0.409915
0.40995
0.40995
0.409984
0.410019
0.410054
0.410089
0.410089
0.410124
0.410159
0.410194
0.410229
0.410229
0.410264
0.410299
0.410334
0.410369
0.410369
0.410404
0.410439
0.410474
0.410509
0.410509
0.410545
0.41058
0.410615
0.410651
0.410651
0.410686
0.410721
0.410757
0.410792
0.410792
0.410828
0.410863
0.410899
0.410934
0.410934
0.41097
0.411006
0.411041
0.411077
0.411077
0.411113
0.411148
0.411184
0.41122
0.41122
0.411256
0.411292
0.411327
0.411363
0.411363
0.411399
0.411435
0.411471
0.411507
0.411507
0.411543
0.41158
0.411616
0.411652
0.411652
0.411688
0.411724
0.41176
0.411797
0.411797
0.411833
0.411869
0.411906
0.411942
0.411942
0.411979
0.412015
0.412052
0.412088
0.412088
0.412125
0.412161
0.412198
0.412234
0.412234
0.412271
0.412308
0.412344
0.412381
0.412381
0.412418
0.412455
0.412492
0.412528
0.412528
0.412565
0.412602
0.412639
0.412676
0.412676
0.412713
0.41275
0.412787
0.412824
0.412824
0.412862
0.412899
0.412936
0.412973
0.412973
0.41301
0.413048
0.413085
0.413122
0.413122
0.41316
0.413197
0.413235
0.413272
0.413272
0.413309
0.413347
0.413385
0.413422
0.413422
0.41346
0.413497
0.413535
0.413573
0.413573
0.41361
0.413648
0.413686
0.413724
0.413724
0.413762
0.413799
0.413837
0.413875
0.413875
0.413913
0.413951
0.413989
0.414027
0.414027
0.414065
0.414104
0.414142
0.41418
0.41418
0.414218
0.414256
0.414294
0.414333
0.414333
0.414371
0.414409
0.414448
0.414486
0.414486
0.414525
0.414563
0.414602
0.41464
0.41464
0.414679
0.414717
0.414756
0.414794
0.414794
0.414833
0.414872
0.414911
0.414949
0.414949
0.414988
0.415027
0.415066
0.415105
0.415105
0.415144
0.415182
0.415221
0.41526
0.41526
0.415299
0.415338
0.415378
0.415417
0.415417
0.415456
0.415495
0.415534
0.415573
0.415573
0.415613
0.415652
0.415691
0.415731
0.415731
0.41577
0.415809
0.415849
0.415888
0.415888
0.415928
0.415967
0.416007
0.416046
0.416046
0.416086
0.416126
0.416165
0.416205
0.416205
0.416245
0.416285
0.416324
0.416364
0.416364
0.416404
0.416444
0.416484
0.416524
0.416524
0.416564
0.416604
0.416644
0.416684
0.416684
0.416724
0.416764
0.416804
0.416844
0.416844
0.416885
0.416925
0.416965
0.417005
0.417005
0.417046
0.417086
0.417126
0.417167
0.417167
0.417207
0.417248
0.417288
0.417329
0.417329
0.417369
0.41741
0.417451
0.417491
0.417491
0.417532
0.417573
0.417613
0.417654
0.417654
0.417695
0.417736
0.417777
0.417818
0.417818
0.417858
0.417899
0.41794
0.417981
0.417981
0.418022
0.418063
0.418105
0.418146
0.418146
0.418187
0.418228
0.418269
0.41831
0.41831
0.418352
0.418393
0.418434
0.418476
0.418476
0.418517
0.418559
0.4186
0.418641
0.418641
0.418683
0.418725
0.418766
0.418808
0.418808
0.418849
0.418891
0.418933
0.418974
0.418974
0.419016
0.419058
0.4191
0.419142
0.419142
0.419183
0.419225
0.419267
0.419309
0.419309
0.419351
0.419393
0.419435
0.419477
0.419477
0.419519
0.419562
0.419604
0.419646
0.419646
0.419688
0.41973
0.419773
0.419815
0.419815
0.419857
0.4199
0.419942
0.419984
0.419984
0.420027
0.420069
0.420112
0.420155
0.420155
0.420197
0.42024
0.420282
0.420325
0.420325
0.420368
0.42041
0.420453
0.420496
0.420496
0.420539
0.420582
0.420624
0.420667
0.420667
0.42071
0.420753
0.420796
0.420839
0.420839
0.420882
0.420925
0.420969
0.421012
0.421012
0.421055
0.421098
0.421141
0.421185
0.421185
0.421228
0.421271
0.421315
0.421358
0.421358
0.421401
0.421445
0.421488
0.421532
0.421532
0.421575
0.421619
0.421662
0.421706
0.421706
0.42175
0.421793
0.421837
0.421881
0.421881
0.421925
0.421968
0.422012
0.422056
0.422056
0.4221
0.422144
0.422188
0.422232
0.422232
0.422276
0.42232
0.422364
0.422408
0.422408
0.422452
0.422496
0.42254
0.422585
0.422585
0.422629
0.422673
0.422717
0.422762
0.422762
0.422806
0.422851
0.422895
0.422939
0.422939
0.422984
0.423028
0.423073
0.423117
0.423117
0.423162
0.423207
0.423251
0.423296
0.423296
0.423341
0.423386
0.42343
0.423475
0.423475
0.42352
0.423565
0.42361
0.423655
0.423655
0.4237
0.423745
0.42379
0.423835
0.423835
0.42388
0.423925
0.42397
0.424015
0.424015
0.42406
0.424106
0.424151
0.424196
0.424196
0.424241
0.424287
0.424332
0.424378
0.424378
0.424423
0.424468
0.424514
0.424559
0.424559
0.424605
0.424651
0.424696
0.424742
0.424742
0.424787
0.424833
0.424879
0.424925
0.424925
0.42497
0.425016
0.425062
0.425108
0.425108
0.425154
0.4252
0.425246
0.425292
0.425292
0.425338
0.425384
0.42543
0.425476
0.425476
0.425522
0.425568
0.425615
0.425661
0.425661
0.425707
0.425753
0.4258
0.425846
0.425846
0.425893
0.425939
0.425985
0.426032
0.426032
0.426078
0.426125
0.426171
0.426218
0.426218
0.426265
0.426311
0.426358
0.426405
0.426405
0.426452
0.426498
0.426545
0.426592
0.426592
0.426639
0.426686
0.426733
0.42678
0.42678
0.426827
0.426874
0.426921
0.426968
0.426968
0.427015
0.427062
0.427109
0.427156
0.427156
0.427204
0.427251
0.427298
0.427345
0.427345
0.427393
0.42744
0.427487
0.427535
0.427535
0.427582
0.42763
0.427677
0.427725
0.427725
0.427773
0.42782
0.427868
0.427915
0.427915
0.427963
0.428011
0.428059
0.428106
0.428106
0.428154
0.428202
0.42825
0.428298
0.428298
0.428346
0.428394
0.428442
0.42849
0.42849
0.428538
0.428586
0.428634
0.428682
0.428682
0.42873
0.428779
0.428827
0.428875
0.428875
0.428923
0.428972
0.42902
0.429069
0.429069
0.429117
0.429165
0.429214
0.429262
0.429262
0.429311
0.42936
0.429408
0.429457
0.429457
0.429505
0.429554
0.429603
0.429652
0.429652
0.4297
0.429749
0.429798
0.429847
0.429847
0.429896
0.429945
0.429994
0.430043
0.430043
0.430092
0.430141
0.43019
0.430239
0.430239
0.430288
0.430337
0.430386
0.430436
0.430436
0.430485
0.430534
0.430583
0.430633
0.430633
0.430682
0.430732
0.430781
0.430831
0.430831
0.43088
0.43093
0.430979
0.431029
0.431029
0.431078
0.431128
0.431178
0.431227
0.431227
0.431277
0.431327
0.431377
0.431426
0.431426
0.431476
0.431526
0.431576
0.431626
0.431626
0.431676
0.431726
0.431776
0.431826
0.431826
0.431876
0.431926
0.431977
0.432027
0.432027
0.432077
0.432127
0.432178
0.432228
0.432228
0.432278
0.432329
0.432379
0.432429
0.432429
0.43248
0.43253
0.432581
0.432631
0.432631
0.432682
0.432733
0.432783
0.432834
0.432834
0.432885
0.432935
0.432986
0.433037
0.433037
0.433088
0.433139
0.433189
0.43324
0.43324
0.433291
0.433342
0.433393
0.433444
0.433444
0.433495
0.433546
0.433598
0.433649
0.433649
0.4337
0.433751
0.433802
0.433854
0.433854
0.433905
0.433956
0.434008
0.434059
0.434059
0.43411
0.434162
0.434213
0.434265
0.434265
0.434316
0.434368
0.43442
0.434471
0.434471
0.434523
0.434575
0.434626
0.434678
0.434678
0.43473
0.434782
0.434833
0.434885
0.434885
0.434937
0.434989
0.435041
0.435093
0.435093
0.435145
0.435197
0.435249
0.435301
0.435301
0.435354
0.435406
0.435458
0.43551
0.43551
0.435562
0.435615
0.435667
0.435719
0.435719
0.435772
0.435824
0.435877
0.435929
0.435929
0.435982
0.436034
0.436087
0.436139
0.436139
0.436192
0.436245
0.436297
0.43635
0.43635
0.436403
0.436455
0.436508
0.436561
0.436561
0.436614
0.436667
0.43672
0.436773
0.436773
0.436826
0.436879
0.436932
0.436985
0.436985
0.437038
0.437091
0.437144
0.437198
0.437198
0.437251
0.437304
0.437357
0.437411
0.437411
0.437464
0.437517
0.437571
0.437624
0.437624
0.437678
0.437731
0.437785
0.437838
0.437838
0.437892
0.437945
0.437999
0.438053
0.438053
0.438107
0.43816
0.438214
0.438268
0.438268
0.438322
0.438376
0.438429
0.438483
0.438483
0.438537
0.438591
0.438645
0.438699
0.438699
0.438753
0.438808
0.438862
0.438916
0.438916
0.43897
0.439024
0.439079
0.439133
0.439133
0.439187
0.439242
0.439296
0.43935
0.43935
0.439405
0.439459
0.439514
0.439568
0.439568
0.439623
0.439677
0.439732
0.439787
0.439787
0.439841
0.439896
0.439951
0.440006
0.440006
0.44006
0.440115
0.44017
0.440225
0.440225
0.44028
0.440335
0.44039
0.440445
0.440445
0.4405
0.440555
0.44061
0.440665
0.440665
0.44072
0.440776
0.440831
0.440886
0.440886
0.440941
0.440997
0.441052
0.441107
0.441107
0.441163
0.441218
0.441274
0.441329
0.441329
0.441385
0.44144
0.441496
0.441551
0.441551
0.441607
0.441663
0.441719
0.441774
0.441774
0.44183
0.441886
0.441942
0.441998
0.441998
0.442053
0.442109
0.442165
0.442221
0.442221
0.442277
0.442333
0.442389
0.442446
0.442446
0.442502
0.442558
0.442614
0.44267
0.44267
0.442727
0.442783
0.442839
0.442896
0.442896
0.442952
0.443008
0.443065
0.443121
0.443121
0.443178
0.443234
0.443291
0.443347
0.443347
0.443404
0.443461
0.443517
0.443574
0.443574
0.443631
0.443688
0.443744
0.443801
0.443801
0.443858
0.443915
0.443972
0.444029
0.444029
0.444086
0.444143
0.4442
0.444257
0.444257
0.444314
0.444371
0.444428
0.444486
0.444486
0.444543
0.4446
0.444657
0.444715
0.444715
0.444772
0.44483
0.444887
0.444944
0.444944
0.445002
0.445059
0.445117
0.445174
0.445174
0.445232
0.44529
0.445347
0.445405
0.445405
0.445463
0.445521
0.445578
0.445636
0.445636
0.445694
0.445752
0.44581
0.445868
0.445868
0.445926
0.445984
0.446042
0.4461
0.4461
0.446158
0.446216
0.446274
0.446332
0.446332
0.44639
0.446449
0.446507
0.446565
0.446565
0.446624
0.446682
0.44674
0.446799
0.446799
0.446857
0.446916
0.446974
0.447033
0.447033
0.447091
0.44715
0.447209
0.447267
0.447267
0.447326
0.447385
0.447443
0.447502
0.447502
0.447561
0.44762
0.447679
0.447738
0.447738
0.447797
0.447856
0.447915
0.447974
0.447974
0.448033
0.448092
0.448151
0.44821
0.44821
0.448269
0.448329
0.448388
0.448447
0.448447
0.448506
0.448566
0.448625
0.448684
0.448684
0.448744
0.448803
0.448863
0.448922
0.448922
0.448982
0.449042
0.449101
0.449161
0.449161
0.44922
0.44928
0.44934
0.4494
0.4494
0.449459
0.449519
0.449579
0.449639
0.449639
0.449699
0.449759
0.449819
0.449879
0.449879
0.449939
0.449999
0.450059
0.450119
0.450119
0.450179
0.45024
0.4503
0.45036
0.45036
0.45042
0.450481
0.450541
0.450602
0.450602
0.450662
0.450722
0.450783
0.450843
0.450843
0.450904
0.450964
0.451025
0.451086
0.451086
0.451146
0.451207
0.451268
0.451329
0.451329
0.451389
0.45145
0.451511
0.451572
0.451572
0.451633
0.451694
0.451755
0.451816
0.451816
0.451877
0.451938
0.451999
0.45206
0.45206
0.452121
0.452182
0.452243
0.452305
0.452305
0.452366
0.452427
0.452489
0.45255
0.45255
0.452611
0.452673
0.452734
0.452796
0.452796
0.452857
0.452919
0.45298
0.453042
0.453042
0.453104
0.453165
0.453227
0.453289
0.453289
0.453351
0.453412
0.453474
0.453536
0.453536
0.453598
0.45366
0.453722
0.453784
0.453784
0.453846
0.453908
0.45397
0.454032
0.454032
0.454094
0.454156
0.454219
0.454281
0.454281
0.454343
0.454405
0.454468
0.45453
0.45453
0.454592
0.454655
0.454717
0.45478
0.45478
0.454842
0.454905
0.454967
0.45503
0.45503
0.455093
0.455155
0.455218
0.455281
0.455281
0.455343
0.455406
0.455469
0.455532
0.455532
0.455595
0.455658
0.455721
0.455784
0.455784
0.455847
0.45591
0.455973
0.456036
0.456036
0.456099
0.456162
0.456225
0.456289
0.456289
0.456352
0.456415
0.456478
0.456542
0.456542
0.456605
0.456669
0.456732
0.456795
0.456795
0.456859
0.456922
0.456986
0.45705
0.45705
0.457113
0.457177
0.457241
0.457304
0.457304
0.457368
0.457432
0.457496
0.457559
0.457559
0.457623
0.457687
0.457751
0.457815
0.457815
0.457879
0.457943
0.458007
0.458071
0.458071
0.458135
0.4582
0.458264
0.458328
0.458328
0.458392
0.458456
0.458521
0.458585
0.458585
0.458649
0.458714
0.458778
0.458843
0.458843
0.458907
0.458972
0.459036
0.459101
0.459101
0.459166
0.45923
0.459295
0.45936
0.45936
0.459424
0.459489
0.459554
0.459619
0.459619
0.459684
0.459748
0.459813
0.459878
0.459878
0.459943
0.460008
0.460073
0.460139
0.460139
0.460204
0.460269
0.460334
0.460399
0.460399
0.460464
0.46053
0.460595
0.46066
0.46066
0.460726
0.460791
0.460856
0.460922
0.460922
0.460987
0.461053
0.461118
0.461184
0.461184
0.46125
0.461315
0.461381
0.461447
0.461447
0.461512
0.461578
0.461644
0.46171
0.46171
0.461776
0.461842
0.461908
0.461973
0.461973
0.462039
0.462106
0.462172
0.462238
0.462238
0.462304
0.46237
0.462436
0.462502
0.462502
0.462569
0.462635
0.462701
0.462767
0.462767
0.462834
0.4629
0.462967
0.463033
0.463033
0.4631
0.463166
0.463233
0.463299
0.463299
0.463366
0.463432
0.463499
0.463566
0.463566
0.463633
0.463699
0.463766
0.463833
0.463833
0.4639
0.463967
0.464034
0.464101
0.464101
0.464168
0.464235
0.464302
0.464369
0.464369
0.464436
0.464503
0.46457
0.464637
0.464637
0.464705
0.464772
0.464839
0.464907
0.464907
0.464974
0.465041
0.465109
0.465176
0.465176
0.465244
0.465311
0.465379
0.465446
0.465446
0.465514
0.465582
0.465649
0.465717
0.465717
0.465785
0.465852
0.46592
0.465988
0.465988
0.466056
0.466124
0.466192
0.46626
0.46626
0.466328
0.466396
0.466464
0.466532
0.466532
0.4666
0.466668
0.466736
0.466805
0.466805
0.466873
0.466941
0.467009
0.467078
0.467078
0.467146
0.467215
0.467283
0.467351
0.467351
0.46742
0.467488
0.467557
0.467626
0.467626
0.467694
0.467763
0.467832
0.4679
0.4679
0.467969
0.468038
0.468107
0.468175
0.468175
0.468244
0.468313
0.468382
0.468451
0.468451
0.46852
0.468589
0.468658
0.468727
0.468727
0.468797
0.468866
0.468935
0.469004
0.469004
0.469073
0.469143
0.469212
0.469281
0.469281
0.469351
0.46942
0.46949
0.469559
0.469559
0.469628
0.469698
0.469768
0.469837
0.469837
0.469907
0.469977
0.470046
0.470116
0.470116
0.470186
0.470255
0.470325
0.470395
0.470395
0.470465
0.470535
0.470605
0.470675
0.470675
0.470745
0.470815
0.470885
0.470955
0.470955
0.471025
0.471095
0.471166
0.471236
0.471236
0.471306
0.471376
0.471447
0.471517
0.471517
0.471588
0.471658
0.471728
0.471799
0.471799
0.471869
0.47194
0.472011
0.472081
0.472081
0.472152
0.472222
0.472293
0.472364
0.472364
0.472435
0.472506
0.472576
0.472647
0.472647
0.472718
0.472789
0.47286
0.472931
0.472931
0.473002
0.473073
0.473144
0.473215
0.473215
0.473286
0.473358
0.473429
0.4735
0.4735
0.473571
0.473643
0.473714
0.473785
0.473785
0.473857
0.473928
0.474
0.474071
0.474071
0.474143
0.474214
0.474286
0.474358
0.474358
0.474429
0.474501
0.474573
0.474644
0.474644
0.474716
0.474788
0.47486
0.474932
0.474932
0.475004
0.475076
0.475148
0.47522
0.47522
0.475292
0.475364
0.475436
0.475508
0.475508
0.47558
0.475652
0.475725
0.475797
0.475797
0.475869
0.475942
0.476014
0.476086
0.476086
0.476159
0.476231
0.476304
0.476376
0.476376
0.476449
0.476521
0.476594
0.476667
0.476667
0.476739
0.476812
0.476885
0.476958
0.476958
0.47703
0.477103
0.477176
0.477249
0.477249
0.477322
0.477395
0.477468
0.477541
0.477541
0.477614
0.477687
0.47776
0.477834
0.477834
0.477907
0.47798
0.478053
0.478127
0.478127
0.4782
0.478273
0.478347
0.47842
0.47842
0.478494
0.478567
0.478641
0.478714
0.478714
0.478788
0.478861
0.478935
0.479009
0.479009
0.479082
0.479156
0.47923
0.479304
0.479304
0.479378
0.479451
0.479525
0.479599
0.479599
0.479673
0.479747
0.479821
0.479895
0.479895
0.479969
0.480044
0.480118
0.480192
0.480192
0.480266
0.48034
0.480415
0.480489
0.480489
0.480563
0.480638
0.480712
0.480787
0.480787
0.480861
0.480936
0.48101
0.481085
0.481085
0.481159
0.481234
0.481309
0.481383
0.481383
0.481458
0.481533
0.481608
0.481683
0.481683
0.481757
0.481832
0.481907
0.481982
0.481982
0.482057
0.482132
0.482207
0.482282
0.482282
0.482358
0.482433
0.482508
0.482583
0.482583
0.482658
0.482734
0.482809
0.482884
0.482884
0.48296
0.483035
0.483111
0.483186
0.483186
0.483262
0.483337
0.483413
0.483488
0.483488
0.483564
0.48364
0.483716
0.483791
0.483791
0.483867
0.483943
0.484019
0.484095
0.484095
0.48417
0.484246
0.484322
0.484398
0.484398
0.484474
0.484551
0.484627
0.484703
0.484703
0.484779
0.484855
0.484931
0.485008
0.485008
0.485084
0.48516
0.485237
0.485313
0.485313
0.485389
0.485466
0.485542
0.485619
0.485619
0.485695
0.485772
0.485849
0.485925
0.485925
0.486002
0.486079
0.486156
0.486232
0.486232
0.486309
0.486386
0.486463
0.48654
0.48654
0.486617
0.486694
0.486771
0.486848
0.486848
0.486925
0.487002
0.487079
0.487156
0.487156
0.487233
0.487311
0.487388
0.487465
0.487465
0.487543
0.48762
0.487697
0.487775
0.487775
0.487852
0.48793
0.488007
0.488085
0.488085
0.488163
0.48824
0.488318
0.488396
0.488396
0.488473
0.488551
0.488629
0.488707
0.488707
0.488785
0.488862
0.48894
0.489018
0.489018
0.489096
0.489174
0.489252
0.489331
0.489331
0.489409
0.489487
0.489565
0.489643
0.489643
0.489721
0.4898
0.489878
0.489956
0.489956
0.490035
0.490113
0.490192
0.49027
0.49027
0.490349
0.490427
0.490506
0.490584
0.490584
0.490663
0.490742
0.490821
0.490899
0.490899
0.490978
0.491057
0.491136
0.491215
0.491215
0.491293
0.491372
0.491451
0.49153
0.49153
0.491609
0.491689
0.491768
0.491847
0.491847
0.491926
0.492005
0.492084
0.492164
0.492164
0.492243
0.492322
0.492402
0.492481
0.492481
0.492561
0.49264
0.49272
0.492799
0.492799
0.492879
0.492958
0.493038
0.493118
0.493118
0.493197
0.493277
0.493357
0.493437
0.493437
0.493516
0.493596
0.493676
0.493756
0.493756
0.493836
0.493916
0.493996
0.494076
0.494076
0.494156
0.494236
0.494317
0.494397
0.494397
0.494477
0.494557
0.494638
0.494718
0.494718
0.494798
0.494879
0.494959
0.49504
0.49504
0.49512