<?xml version="1.0"?>
<VTKFile type="UnstructuredGrid" version="0.1" byte_order="LittleEndian">
<UnstructuredGrid>
<Piece NumberOfPoints="5000" NumberOfCells="4000">
<PointData Scalars="Reaction 0">
<DataArray type="Float32" Name="Reaction 0" format="ascii">
0.384667
0.384667
0.384667
0.384668
0.384668
0.384668
0.384668
0.384668
0.384668
0.384668
0.384668
0.384669
0.384669
0.384669
0.384669
0.384669
0.38467
0.38467
0.384671
0.384671
0.384671
0.384672
0.384672
0.384673
0.384673
0.384673
0.384674
0.384674
0.384675
0.384676
0.384676
0.384677
0.384677
0.384678
0.384679
0.384679
0.38468
0.384681
0.384681
0.384682
0.384682
0.384683
0.384684
0.384685
0.384686
0.384686
0.384687
0.384688
0.38469
0.384691
0.384691
0.384692
0.384693
0.384694
0.384696
0.384696
0.384697
0.384698
0.3847
0.384701
0.384701
0.384702
0.384704
0.384705
0.384707
0.384707
0.384708
0.38471
0.384711
0.384713
0.384713
0.384715
0.384716
0.384718
0.38472
0.38472
0.384722
0.384723
0.384725
0.384727
0.384727
0.384729
0.384731
0.384733
0.384735
0.384735
0.384737
0.384739
0.384741
0.384743
0.384743
0.384745
0.384747
0.384749
0.384752
0.384752
0.384754
0.384756
0.384758
0.384761
0.384761
0.384763
0.384765
0.384768
0.38477
0.38477
0.384773
0.384775
0.384778
0.38478
0.38478
0.384783
0.384785
0.384788
0.384791
0.384791
0.384793
0.384796
0.384799
0.384802
0.384802
0.384805
0.384807
0.38481
0.384813
0.384813
0.384816
0.384819
0.384822
0.384825
0.384825
0.384828
0.384831
0.384834
0.384837
0.384837
0.384841
0.384844
0.384847
0.38485
0.38485
0.384854
0.384857
0.38486
0.384864
0.384864
0.384867
0.38487
0.384874
0.384877
0.384877
0.384881
0.384884
0.384888
0.384892
0.384892
0.384895
0.384899
0.384903
0.384906
0.384906
0.38491
0.384914
0.384918
0.384921
0.384921
0.384925
0.384929
0.384933
0.384937
0.384937
0.384941
0.384945
0.384949
0.384953
0.384953
0.384957
0.384961
0.384966
0.38497
0.38497
0.384974
0.384978
0.384982
0.384987
0.384987
0.384991
0.384995
0.385
0.385004
0.385004
0.385009
0.385013
0.385018
0.385022
0.385022
0.385027
0.385031
0.385036
0.385041
0.385041
0.385045
0.38505
0.385055
0.38506
0.38506
0.385064
0.385069
0.385074
0.385079
0.385079
0.385084
0.385089
0.385094
0.385099
0.385099
0.385104
0.385109
0.385114
0.385119
0.385119
0.385124
0.385129
0.385135
0.38514
0.38514
0.385145
0.38515
0.385156
0.385161
0.385161
0.385166
0.385172
0.385177
0.385183
0.385183
0.385188
0.385194
0.385199
0.385205
0.385205
0.38521
0.385216
0.385222
0.385227
0.385227
0.385233
0.385239
0.385245
0.385251
0.385251
0.385256
0.385262
0.385268
0.385274
0.385274
0.38528
0.385286
0.385292
0.385298
0.385298
0.385304
0.38531
0.385316
0.385323
0.385323
0.385329
0.385335
0.385341
0.385348
0.385348
0.385354
0.38536
0.385367
0.385373
0.385373
0.385379
0.385386
0.385392
0.385399
0.385399
0.385405
0.385412
0.385419
0.385425
0.385425
0.385432
0.385439
0.385445
0.385452
0.385452
0.385459
0.385466
0.385473
0.385479
0.385479
0.385486
0.385493
0.3855
0.385507
0.385507
0.385514
0.385521
0.385528
0.385535
0.385535
0.385543
0.38555
0.385557
0.385564
0.385564
0.385571
0.385579
0.385586
0.385593
0.385593
0.385601
0.385608
0.385615
0.385623
0.385623
0.38563
0.385638
0.385645
0.385653
0.385653
0.385661
0.385668
0.385676
0.385684
0.385684
0.385691
0.385699
0.385707
0.385715
0.385715
0.385722
0.38573
0.385738
0.385746
0.385746
0.385754
0.385762
0.38577
0.385778
0.385778
0.385786
0.385794
0.385802
0.38581
0.38581
0.385819
0.385827
0.385835
0.385843
0.385843
0.385852
0.38586
0.385868
0.385877
0.385877
0.385885
0.385894
0.385902
0.385911
0.385911
0.385919
0.385928
0.385936
0.385945
0.385945
0.385953
0.385962
0.385971
0.38598
0.38598
0.385988
0.385997
0.386006
0.386015
0.386015
0.386024
0.386033
0.386042
0.38605
0.38605
0.386059
0.386069
0.386078
0.386087
0.386087
0.386096
0.386105
0.386114
0.386123
0.386123
0.386132
0.386142
0.386151
0.38616
0.38616
0.38617
0.386179
0.386188
0.386198
0.386198
0.386207
0.386217
0.386226
0.386236
0.386236
0.386246
0.386255
0.386265
0.386274
0.386274
0.386284
0.386294
0.386304
0.386313
0.386313
0.386323
0.386333
0.386343
0.386353
0.386353
0.386363
0.386373
0.386383
0.386393
0.386393
0.386403
0.386413
0.386423
0.386433
0.386433
0.386443
0.386453
0.386464
0.386474
0.386474
0.386484
0.386494
0.386505
0.386515
0.386515
0.386526
0.386536
0.386546
0.386557
0.386557
0.386567
0.386578
0.386589
0.386599
0.386599
0.38661
0.38662
0.386631
0.386642
0.386642
0.386653
0.386663
0.386674
0.386685
0.386685
0.386696
0.386707
0.386718
0.386729
0.386729
0.38674
0.386751
0.386762
0.386773
0.386773
0.386784
0.386795
0.386806
0.386817
0.386817
0.386828
0.38684
0.386851
0.386862
0.386862
0.386874
0.386885
0.386896
0.386908
0.386908
0.386919
0.386931
0.386942
0.386954
0.386954
0.386965
0.386977
0.386989
0.387
0.387
0.387012
0.387024
0.387035
0.387047
0.387047
0.387059
0.387071
0.387083
0.387094
0.387094
0.387106
0.387118
0.38713
0.387142
0.387142
0.387154
0.387166
0.387178
0.387191
0.387191
0.387203
0.387215
0.387227
0.387239
0.387239
0.387252
0.387264
0.387276
0.387288
0.387288
0.387301
0.387313
0.387326
0.387338
0.387338
0.387351
0.387363
0.387376
0.387388
0.387388
0.387401
0.387414
0.387426
0.387439
0.387439
0.387452
0.387464
0.387477
0.38749
0.38749
0.387503
0.387516
0.387529
0.387542
0.387542
0.387555
0.387568
0.387581
0.387594
0.387594
0.387607
0.38762
0.387633
0.387646
0.387646
0.387659
0.387673
0.387686
0.387699
0.387699
0.387712
0.387726
0.387739
0.387752
0.387752
0.387766
0.387779
0.387793
0.387806
0.387806
0.38782
0.387833
0.387847
0.387861
0.387861
0.387874
0.387888
0.387902
0.387916
0.387916
0.387929
0.387943
0.387957
0.387971
0.387971
0.387985
0.387999
0.388013
0.388027
0.388027
0.388041
0.388055
0.388069
0.388083
0.388083
0.388097
0.388111
0.388125
0.388139
0.388139
0.388154
0.388168
0.388182
0.388197
0.388197
0.388211
0.388225
0.38824
0.388254
0.388254
0.388269
0.388283
0.388298
0.388312
0.388312
0.388327
0.388342
0.388356
0.388371
0.388371
0.388386
0.3884
0.388415
0.38843
0.38843
0.388445
0.38846
0.388475
0.388489
0.388489
0.388504
0.388519
0.388534
0.388549
0.388549
0.388564
0.38858
0.388595
0.38861
0.38861
0.388625
0.38864
0.388655
0.388671
0.388671
0.388686
0.388701
0.388717
0.388732
0.388732
0.388747
0.388763
0.388778
0.388794
0.388794
0.388809
0.388825
0.388841
0.388856
0.388856
0.388872
0.388887
0.388903
0.388919
0.388919
0.388935
0.38895
0.388966
0.388982
0.388982
0.388998
0.389014
0.38903
0.389046
0.389046
0.389062
0.389078
0.389094
0.38911
0.38911
0.389126
0.389142
0.389158
0.389175
0.389175
0.389191
0.389207
0.389223
0.38924
0.38924
0.389256
0.389272
0.389289
0.389305
0.389305
0.389322
0.389338
0.389355
0.389371
0.389371
0.389388
0.389404
0.389421
0.389438
0.389438
0.389454
0.389471
0.389488
0.389505
0.389505
0.389521
0.389538
0.389555
0.389572
0.389572
0.389589
0.389606
0.389623
0.38964
0.38964
0.389657
0.389674
0.389691
0.389708
0.389708
0.389726
0.389743
0.38976
0.389777
0.389777
0.389794
0.389812
0.389829
0.389846
0.389846
0.389864
0.389881
0.389899
0.389916
0.389916
0.389934
0.389951
0.389969
0.389986
0.389986
0.390004
0.390022
0.390039
0.390057
0.390057
0.390075
0.390093
0.39011
0.390128
0.390128
0.390146
0.390164
0.390182
0.3902
0.3902
0.390218
0.390236
0.390254
0.390272
0.390272
0.39029
0.390308
0.390326
0.390345
0.390345
0.390363
0.390381
0.390399
0.390418
0.390418
0.390436
0.390454
0.390473
0.390491
0.390491
0.390509
0.390528
0.390546
0.390565
0.390565
0.390584
0.390602
0.390621
0.390639
0.390639
0.390658
0.390677
0.390696
0.390714
0.390714
0.390733
0.390752
0.390771
0.39079
0.39079
0.390809
0.390828
0.390846
0.390865
0.390865
0.390885
0.390904
0.390923
0.390942
0.390942
0.390961
0.39098
0.390999
0.391019
0.391019
0.391038
0.391057
0.391076
0.391096
0.391096
0.391115
0.391135
0.391154
0.391173
0.391173
0.391193
0.391212
0.391232
0.391252
0.391252
0.391271
0.391291
0.391311
0.39133
0.39133
0.39135
0.39137
0.391389
0.391409
0.391409
0.391429
0.391449
0.391469
0.391489
0.391489
0.391509
0.391529
0.391549
0.391569
0.391569
0.391589
0.391609
0.391629
0.391649
0.391649
0.39167
0.39169
0.39171
0.39173
0.39173
0.391751
0.391771
0.391791
0.391812
0.391812
0.391832
0.391853
0.391873
0.391894
0.391894
0.391914
0.391935
0.391955
0.391976
0.391976
0.391997
0.392017
0.392038
0.392059
0.392059
0.39208
0.3921
0.392121
0.392142
0.392142
0.392163
0.392184
0.392205
0.392226
0.392226
0.392247
0.392268
0.392289
0.39231
0.39231
0.392331
0.392352
0.392374
0.392395
0.392395
0.392416
0.392437
0.392459
0.39248
0.39248
0.392501
0.392523
0.392544
0.392566
0.392566
0.392587
0.392609
0.39263
0.392652
0.392652
0.392673
0.392695
0.392717
0.392738
0.392738
0.39276
0.392782
0.392803
0.392825
0.392825
0.392847
0.392869
0.392891
0.392913
0.392913
0.392935
0.392957
0.392979
0.393001
0.393001
0.393023
0.393045
0.393067
0.393089
0.393089
0.393111
0.393133
0.393156
0.393178
0.393178
0.3932
0.393223
0.393245
0.393267
0.393267
0.39329
0.393312
0.393335
0.393357
0.393357
0.39338
0.393402
0.393425
0.393447
0.393447
0.39347
0.393493
0.393515
0.393538
0.393538
0.393561
0.393584
0.393607
0.393629
0.393629
0.393652
0.393675
0.393698
0.393721
0.393721
0.393744
0.393767
0.39379
0.393813
0.393813
0.393836
0.39386
0.393883
0.393906
0.393906
0.393929
0.393952
0.393976
0.393999
0.393999
0.394022
0.394046
0.394069
0.394093
0.394093
0.394116
0.39414
0.394163
0.394187
0.394187
0.39421
0.394234
0.394257
0.394281
0.394281
0.394305
0.394329
0.394352
0.394376
0.394376
0.3944
0.394424
0.394448
0.394472
0.394472
0.394495
0.394519
0.394543
0.394567
0.394567
0.394591
0.394616
0.39464
0.394664
0.394664
0.394688
0.394712
0.394736
0.394761
0.394761
0.394785
0.394809
0.394834
0.394858
0.394858
0.394882
0.394907
0.394931
0.394956
0.394956
0.39498
0.395005
0.395029
0.395054
0.395054
0.395079
0.395103
0.395128
0.395153
0.395153
0.395177
0.395202
0.395227
0.395252
0.395252
0.395277
0.395302
0.395326
0.395351
0.395351
0.395376
0.395401
0.395426
0.395451
0.395451
0.395477
0.395502
0.395527
0.395552
0.395552
0.395577
0.395603
0.395628
0.395653
0.395653
0.395678
0.395704
0.395729
0.395755
0.395755
0.39578
0.395806
0.395831
0.395857
0.395857
0.395882
0.395908
0.395933
0.395959
0.395959
0.395985
0.39601
0.396036
0.396062
0.396062
0.396088
0.396114
0.396139
0.396165
0.396165
0.396191
0.396217
0.396243
0.396269
0.396269
0.396295
0.396321
0.396347
0.396373
0.396373
0.3964
0.396426
0.396452
0.396478
0.396478
0.396504
0.396531
0.396557
0.396583
0.396583
0.39661
0.396636
0.396663
0.396689
0.396689
0.396716
0.396742
0.396769
0.396795
0.396795
0.396822
0.396849
0.396875
0.396902
0.396902
0.396929
0.396955
0.396982
0.397009
0.397009
0.397036
0.397063
0.39709
0.397117
0.397117
0.397144
0.397171
0.397198
0.397225
0.397225
0.397252
0.397279
0.397306
0.397333
0.397333
0.39736
0.397388
0.397415
0.397442
0.397442
0.397469
0.397497
0.397524
0.397552
0.397552
0.397579
0.397607
0.397634
0.397662
0.397662
0.397689
0.397717
0.397744
0.397772
0.397772
0.3978
0.397827
0.397855
0.397883
0.397883
0.397911
0.397938
0.397966
0.397994
0.397994
0.398022
0.39805
0.398078
0.398106
0.398106
0.398134
0.398162
0.39819
0.398218
0.398218
0.398246
0.398274
0.398303
0.398331
0.398331
0.398359
0.398387
0.398416
0.398444
0.398444
0.398472
0.398501
0.398529
0.398558
0.398558
0.398586
0.398615
0.398643
0.398672
0.398672
0.3987
0.398729
0.398758
0.398786
0.398786
0.398815
0.398844
0.398873
0.398901
0.398901
0.39893
0.398959
0.398988
0.399017
0.399017
0.399046
0.399075
0.399104
0.399133
0.399133
0.399162
0.399191
0.39922
0.399249
0.399249
0.399279
0.399308
0.399337
0.399366
0.399366
0.399396
0.399425
0.399454
0.399484
0.399484
0.399513
0.399543
0.399572
0.399602
0.399602
0.399631
0.399661
0.39969
0.39972
0.39972
0.39975
0.399779
0.399809
0.399839
0.399839
0.399868
0.399898
0.399928
0.399958
0.399958
0.399988
0.400018
0.400048
0.400078
0.400078
0.400108
0.400138
0.400168
0.400198
0.400198
0.400228
0.400258
0.400288
0.400319
0.400319
0.400349
0.400379
0.400409
0.40044
0.40044
0.40047
0.4005
0.400531
0.400561
0.400561
0.400592
0.400622
0.400653
0.400683
0.400683
0.400714
0.400745
0.400775
0.400806
0.400806
0.400837
0.400867
0.400898
0.400929
0.400929
0.40096
0.400991
0.401021
0.401052
0.401052
0.401083
0.401114
0.401145
0.401176
0.401176
0.401207
0.401238
0.40127
0.401301
0.401301
0.401332
0.401363
0.401394
0.401426
0.401426
0.401457
0.401488
0.40152
0.401551
0.401551
0.401582
0.401614
0.401645
0.401677
0.401677
0.401708
0.40174
0.401771
0.401803
0.401803
0.401835
0.401866
0.401898
0.40193
0.40193
0.401961
0.401993
0.402025
0.402057
0.402057
0.402089
0.402121
0.402153
0.402185
0.402185
0.402217
0.402249
0.402281
0.402313
0.402313
0.402345
0.402377
0.402409
0.402441
0.402441
0.402474
0.402506
0.402538
0.40257
0.40257
0.402603
0.402635
0.402668
0.4027
0.4027
0.402732
0.402765
0.402798
0.40283
0.40283
0.402863
0.402895
0.402928
0.402961
0.402961
0.402993
0.403026
0.403059
0.403092
0.403092
0.403124
0.403157
0.40319
0.403223
0.403223
0.403256
0.403289
0.403322
0.403355
0.403355
0.403388
0.403421
0.403454
0.403487
0.403487
0.40352
0.403554
0.403587
0.40362
0.40362
0.403653
0.403687
0.40372
0.403753
0.403753
0.403787
0.40382
0.403854
0.403887
0.403887
0.403921
0.403954
0.403988
0.404021
0.404021
0.404055
0.404089
0.404122
0.404156
0.404156
0.40419
0.404224
0.404257
0.404291
0.404291
0.404325
0.404359
0.404393
0.404427
0.404427
0.404461
0.404495
0.404529
0.404563
0.404563
0.404597
0.404631
0.404665
0.4047
0.4047
0.404734
0.404768
0.404802
0.404837
0.404837
0.404871
0.404905
0.40494
0.404974
0.404974
0.405009
0.405043
0.405078
0.405112
0.405112
0.405147
0.405181
0.405216
0.405251
0.405251
0.405285
0.40532
0.405355
0.405389
0.405389
0.405424
0.405459
0.405494
0.405529
0.405529
0.405564
0.405599
0.405634
0.405669
0.405669
0.405704
0.405739
0.405774
0.405809
0.405809
0.405844
0.405879
0.405915
0.40595
0.40595
0.405985
0.40602
0.406056
0.406091
0.406091
0.406126
0.406162
0.406197
0.406233
0.406233
0.406268
0.406304
0.406339
0.406375
0.406375
0.406411
0.406446
0.406482
0.406518
0.406518
0.406553
0.406589
0.406625
0.406661
0.406661
0.406697
0.406733
0.406768
0.406804
0.406804
0.40684
0.406876
0.406912
0.406948
0.406948
0.406985
0.407021
0.407057
0.407093
0.407093
0.407129
0.407165
0.407202
0.407238
0.407238
0.407274
0.407311
0.407347
0.407384
0.407384
0.40742
0.407456
0.407493
0.407529
0.407529
0.407566
0.407603
0.407639
0.407676
0.407676
0.407713
0.407749
0.407786
0.407823
0.407823
0.40786
0.407896
0.407933
0.40797
0.40797
0.408007
0.408044
0.408081
0.408118
0.408118
0.408155
0.408192
0.408229
0.408266
0.408266
0.408303
0.408341
0.408378
0.408415
0.408415
0.408452
0.40849
0.408527
0.408564
0.408564
0.408602
0.408639
0.408676
0.408714
0.408714
0.408751
0.408789
0.408827
0.408864
0.408864
0.408902
0.408939
0.408977
0.409015
0.409015
0.409053
0.40909
0.409128
0.409166
0.409166
0.409204
0.409242
0.40928
0.409317
0.409317
0.409355
0.409393
0.409431
0.40947
0.40947
0.409508
0.409546
0.409584
0.409622
0.409622
0.40966
0.409698
0.409737
0.409775
0.409775
0.409813
0.409852
0.40989
0.409928
0.409928
0.409967
0.410005
0.410044
0.410082
0.410082
0.410121
0.41016
0.410198
0.410237
0.410237
0.410275
0.410314
0.410353
0.410392
0.410392
0.41043
0.410469
0.410508
0.410547
0.410547
0.410586
0.410625
0.410664
0.410703
0.410703
0.410742
0.410781
0.41082
0.410859
0.410859
0.410898
0.410937
0.410977
0.411016
0.411016
0.411055
0.411094
0.411134
0.411173
0.411173
0.411212
0.411252
0.411291
0.411331
0.411331
0.41137
0.41141
0.411449
0.411489
0.411489
0.411528
0.411568
0.411608
0.411648
0.411648
0.411687
0.411727
0.411767
0.411807
0.411807
0.411846
0.411886
0.411926
0.411966
0.411966
0.412006
0.412046
0.412086
0.412126
0.412126
0.412166
0.412206
0.412247
0.412287
0.412287
0.412327
0.412367
0.412407
0.412448
0.412448
0.412488
0.412528
0.412569
0.412609
0.412609
0.41265
0.41269
0.412731
0.412771
0.412771
0.412812
0.412852
0.412893
0.412933
0.412933
0.412974
0.413015
0.413056
0.413096
0.413096
0.413137
0.413178
0.413219
0.41326
0.41326
0.413301
0.413341
0.413382
0.413423
0.413423
0.413464
0.413505
0.413547
0.413588
0.413588
0.413629
0.41367
0.413711
0.413752
0.413752
0.413794
0.413835
0.413876
0.413918
0.413918
0.413959
0.414
0.414042
0.414083
0.414083
0.414125
0.414166
0.414208
0.414249
0.414249
0.414291
0.414333
0.414374
0.414416
0.414416
0.414458
0.4145
0.414541
0.414583
0.414583
0.414625
0.414667
0.414709
0.414751
0.414751
0.414793
0.414835
0.414877
0.414919
0.414919
0.414961
0.415003
0.415045
0.415087
0.415087
0.415129
0.415172
0.415214
0.415256
0.415256
0.415298
0.415341
0.415383
0.415426
0.415426
0.415468
0.415511
0.415553
0.415596
0.415596
0.415638
0.415681
0.415723
0.415766
0.415766
0.415809
0.415851
0.415894
0.415937
0.415937
0.41598
0.416022
0.416065
0.416108
0.416108
0.416151
0.416194
0.416237
0.41628
0.41628
0.416323
0.416366
0.416409
0.416452
0.416452
0.416495
0.416538
0.416582
0.416625
0.416625
0.416668
0.416711
0.416755
0.416798
0.416798
0.416841
0.416885
0.416928
0.416972
0.416972
0.417015
0.417059
0.417102
0.417146
0.417146
0.41719
0.417233
0.417277
0.417321
0.417321
0.417364
0.417408
0.417452
0.417496
0.417496
0.41754
0.417583
0.417627
0.417671
0.417671
0.417715
0.417759
0.417803
0.417847
0.417847
0.417891
0.417935
0.41798
0.418024
0.418024
0.418068
0.418112
0.418156
0.418201
0.418201
0.418245
0.418289
0.418334
0.418378
0.418378
0.418423
0.418467
0.418512
0.418556
0.418556
0.418601
0.418645
0.41869
0.418735
0.418735
0.418779
0.418824
0.418869
0.418913
0.418913
0.418958
0.419003
0.419048
0.419093
0.419093
0.419138
0.419183
0.419228
0.419273
0.419273
0.419318
0.419363
0.419408
0.419453
0.419453
0.419498
0.419543
0.419588
0.419634
0.419634
0.419679
0.419724
0.419769
0.419815
0.419815
0.41986
0.419906
0.419951
0.419997
0.419997
0.420042
0.420088
0.420133
0.420179
0.420179
0.420224
0.42027
0.420316
0.420361
0.420361
0.420407
0.420453
0.420499
0.420544
0.420544
0.42059
0.420636
0.420682
0.420728
0.420728
0.420774
0.42082
0.420866
0.420912
0.420912
0.420958
0.421004
0.42105
0.421097
0.421097
0.421143
0.421189
0.421235
0.421282
0.421282
0.421328
0.421374
0.421421
0.421467
0.421467
0.421514
0.42156
0.421607
0.421653
0.421653
0.4217
0.421746
0.421793
0.421839
0.421839
0.421886
0.421933
0.42198
0.422026
0.422026
0.422073
0.42212
0.422167
0.422214
0.422214
0.422261
0.422308
0.422355
0.422402
0.422402
0.422449
0.422496
0.422543
0.42259
0.42259
0.422637
0.422684
0.422731
0.422779
0.422779
0.422826
0.422873
0.422921
0.422968
0.422968
0.423015
0.423063
0.42311
0.423158
0.423158
0.423205
0.423253
0.4233
0.423348
0.423348
0.423396
0.423443
0.423491
0.423539
0.423539
0.423586
0.423634
0.423682
0.42373
0.42373
0.423778
0.423825
0.423873
0.423921
0.423921
0.423969
0.424017
0.424065
0.424113
0.424113
0.424162
0.42421
0.424258
0.424306
0.424306
0.424354
0.424403
0.424451
0.424499
0.424499
0.424547
0.424596
0.424644
0.424693
0.424693
0.424741
0.42479
0.424838
0.424887
0.424887
0.424935
0.424984
0.425032
0.425081
0.425081
0.42513
0.425178
0.425227
0.425276
0.425276
0.425325
0.425374
0.425423
0.425471
0.425471
0.42552
0.425569
0.425618
0.425667
0.425667
0.425716
0.425765
0.425815
0.425864
0.425864
0.425913
0.425962
0.426011
0.426061
0.426061
0.42611
0.426159
0.426208
0.426258
0.426258
0.426307
0.426357
0.426406
0.426456
0.426456
0.426505
0.426555
0.426604
0.426654
0.426654
0.426704
0.426753
0.426803
0.426853
0.426853
0.426902
0.426952
0.427002
0.427052
0.427052
0.427102
0.427152
0.427202
0.427252
0.427252
0.427302
0.427352
0.427402
0.427452
0.427452
0.427502
0.427552
0.427602
0.427652
0.427652
0.427703
0.427753
0.427803
0.427853
0.427853
0.427904
0.427954
0.428005
0.428055
0.428055
0.428106
0.428156
0.428207
0.428257
0.428257
0.428308
0.428358
0.428409
0.42846
0.42846
0.42851
0.428561
0.428612
0.428663
0.428663
0.428713
0.428764
0.428815
0.428866
0.428866
0.428917
0.428968
0.429019
0.42907
0.42907
0.429121
0.429172
0.429223
0.429275
0.429275
0.429326
0.429377
0.429428
0.429479
0.429479
0.429531
0.429582
0.429633
0.429685
0.429685
0.429736
0.429788
0.429839
0.429891
0.429891
0.429942
0.429994
0.430045
0.430097
0.430097
0.430149
0.4302
0.430252
0.430304
0.430304
0.430356
0.430407
0.430459
0.430511
0.430511
0.430563
0.430615
0.430667
0.430719
0.430719
0.430771
0.430823
0.430875
0.430927
0.430927
0.430979
0.431031
0.431084
0.431136
0.431136
0.431188
0.43124
0.431293
0.431345
0.431345
0.431397
0.43145
0.431502
0.431555
0.431555
0.431607
0.43166
0.431712
0.431765
0.431765
0.431818
0.43187
0.431923
0.431976
0.431976
0.432028
0.432081
0.432134
0.432187
0.432187
0.432239
0.432292
0.432345
0.432398
0.432398
0.432451
0.432504
0.432557
0.43261
0.43261
0.432663
0.432716
0.43277
0.432823
0.432823
0.432876
0.432929
0.432983
0.433036
0.433036
0.433089
0.433142
0.433196
0.433249
0.433249
0.433303
0.433356
0.43341
0.433463
0.433463
0.433517
0.43357
0.433624
0.433678
0.433678
0.433731
0.433785
0.433839
0.433893
0.433893
0.433946
0.434
0.434054
0.434108
0.434108
0.434162
0.434216
0.43427
0.434324
0.434324
0.434378
0.434432
0.434486
0.43454
0.43454
0.434594
0.434649
0.434703
0.434757
0.434757
0.434811
0.434866
0.43492
0.434974
0.434974
0.435029
0.435083
0.435138
0.435192
0.435192
0.435247
0.435301
0.435356
0.43541
0.43541
0.435465
0.43552
0.435574
0.435629
0.435629
0.435684
0.435739
0.435794
0.435848
0.435848
0.435903
0.435958
0.436013
0.436068
0.436068
0.436123
0.436178
0.436233
0.436288
0.436288
0.436343
0.436399
0.436454
0.436509
0.436509
0.436564
0.436619
0.436675
0.43673
0.43673
0.436785
0.436841
0.436896
0.436952
0.436952
0.437007
0.437063
0.437118
0.437174
0.437174
0.437229
0.437285
0.437341
0.437396
0.437396
0.437452
0.437508
0.437564
0.437619
0.437619
0.437675
0.437731
0.437787
0.437843
0.437843
0.437899
0.437955
0.438011
0.438067
0.438067
0.438123
0.438179
0.438235
0.438291
0.438291
0.438348
0.438404
0.43846
0.438516
0.438516
0.438573
0.438629
0.438685
0.438742
0.438742
0.438798
0.438855
0.438911
0.438968
0.438968
0.439024
0.439081
0.439137
0.439194
0.439194
0.439251
0.439308
0.439364
0.439421
0.439421
0.439478
0.439535
0.439591
0.439648
0.439648
0.439705
0.439762
0.439819
0.439876
0.439876
0.439933
0.43999
0.440047
0.440105
0.440105
0.440162
0.440219
0.440276
0.440333
0.440333
0.440391
0.440448
0.440505
0.440563
0.440563
0.44062
0.440677
0.440735
0.440792
0.440792
0.44085
0.440907
0.440965
0.441023
0.441023
0.44108
0.441138
0.441196
0.441253
0.441253
0.441311
0.441369
0.441427
0.441485
0.441485
0.441542
0.4416
0.441658
0.441716
0.441716
0.441774
0.441832
0.44189
0.441948
0.441948
0.442007
0.442065
0.442123
0.442181
0.442181
0.442239
0.442298
0.442356
0.442414
0.442414
0.442473
0.442531
0.442589
0.442648
0.442648
0.442706
0.442765
0.442823
0.442882
0.442882
0.442941
0.442999
0.443058
0.443117
0.443117
0.443175
0.443234
0.443293
0.443352
0.443352
0.44341
0.443469
0.443528
0.443587
0.443587
0.443646
0.443705
0.443764
0.443823
0.443823
0.443882
0.443941
0.444
0.44406
0.44406
0.444119
0.444178
0.444237
0.444297
0.444297
0.444356
0.444415
0.444475
0.444534
0.444534
0.444594
0.444653
0.444713
0.444772
0.444772
0.444832
0.444891
0.444951
0.44501
0.44501
0.44507
0.44513
0.44519
0.445249
0.445249
0.445309
0.445369
0.445429
0.445489
0.445489
0.445549
0.445609
0.445669
0.445729
0.445729
0.445789
0.445849
0.445909
0.445969
0.445969
0.446029
0.446089
0.44615
0.44621
0.44621
0.44627
0.446331
0.446391
0.446451
0.446451
0.446512
0.446572
0.446633
0.446693
0.446693
0.446754
0.446814
0.446875
0.446935
0.446935
0.446996
0.447057
0.447117
0.447178
0.447178
0.447239
0.4473
0.447361
0.447421
0.447421
0.447482
0.447543
0.447604
0.447665
0.447665
0.447726
0.447787
0.447848
0.447909
0.447909
0.447971
0.448032
0.448093
0.448154
0.448154
0.448215
0.448277
0.448338
0.448399
0.448399
0.448461
0.448522
0.448584
0.448645
0.448645
0.448707
0.448768
0.44883
0.448891
0.448891
0.448953
0.449015
0.449076
0.449138
0.449138
0.4492
0.449261
0.449323
0.449385
0.449385
0.449447
0.449509
0.449571
0.449633
0.449633
0.449695
0.449757
0.449819
0.449881
0.449881
0.449943
0.450005
0.450067
0.450129
0.450129
0.450192
0.450254
0.450316
0.450379
0.450379
0.450441
0.450503
0.450566
0.450628
0.450628
0.450691
0.450753
0.450816
0.450878
0.450878
0.450941
0.451003
0.451066
0.451129
0.451129
0.451191
0.451254
0.451317
0.45138
0.45138
0.451443
0.451505
0.451568
0.451631
0.451631
0.451694
0.451757
0.45182
0.451883
0.451883
0.451946
0.452009
0.452073
0.452136
0.452136
0.452199
0.452262
0.452325
0.452389
0.452389
0.452452
0.452515
0.452579
0.452642
0.452642
0.452706
0.452769
0.452833
0.452896
0.452896
0.45296
0.453023
0.453087
0.453151
0.453151
0.453214
0.453278
0.453342
0.453406
0.453406
0.453469
0.453533
0.453597
0.453661
0.453661
0.453725
0.453789
0.453853
0.453917
0.453917
0.453981
0.454045
0.454109
0.454173
0.454173
0.454237
0.454302
0.454366
0.45443
0.45443
0.454494
0.454559
0.454623
0.454688
0.454688
0.454752
0.454816
0.454881
0.454945
0.454945
0.45501
0.455074
0.455139
0.455204
0.455204
0.455268
0.455333
0.455398
0.455463
0.455463
0.455527
0.455592
0.455657
0.455722
0.455722
0.455787
0.455852
0.455917
0.455982
0.455982
0.456047
0.456112
0.456177
0.456242
0.456242
0.456307
0.456372
0.456438
0.456503
0.456503
0.456568
0.456633
0.456699
0.456764
0.456764
0.456829
0.456895
0.45696
0.457026
0.457026
0.457091
0.457157
0.457222
0.457288
0.457288
0.457354
0.457419
0.457485
0.457551
0.457551
0.457617
0.457682
0.457748
0.457814
0.457814
0.45788
0.457946
0.458012
0.458078
0.458078
0.458144
0.45821
0.458276
0.458342
0.458342
0.458408
0.458474
0.458541
0.458607
0.458607
0.458673
0.458739
0.458806
0.458872
0.458872
0.458938
0.459005
0.459071
0.459138
0.459138
0.459204
0.459271
0.459337
0.459404
0.459404
0.45947
0.459537
0.459604
0.459671
0.459671
0.459737
0.459804
0.459871
0.459938
0.459938
0.460005
0.460071
0.460138
0.460205
0.460205
0.460272
0.460339
0.460406
0.460474
0.460474
0.460541
0.460608
0.460675
0.460742
0.460742
0.460809
0.460877
0.460944
0.461011
0.461011
0.461079
0.461146
0.461214
0.461281
0.461281
0.461348
0.461416
0.461484
0.461551
0.461551
0.461619
0.461686
0.461754
0.461822
0.461822
0.461889
0.461957
0.462025
0.462093
0.462093
0.462161
0.462229
0.462296
0.462364
0.462364
0.462432
0.4625
0.462568
0.462637
0.462637
0.462705
0.462773
0.462841
0.462909
0.462909
0.462977
0.463046
0.463114
0.463182
0.463182
0.463251
0.463319
0.463387
0.463456
0.463456
0.463524
0.463593
0.463661
0.46373
0.46373
0.463798
0.463867
0.463936
0.464004
0.464004
0.464073
0.464142
0.464211
0.46428
0.46428
0.464348
0.464417
0.464486
0.464555
0.464555
0.464624
0.464693
0.464762
0.464831
0.464831
0.4649
0.464969
0.465038
0.465108
0.465108
0.465177
0.465246
0.465315
0.465385
0.465385
0.465454
0.465523
0.465593
0.465662
0.465662
0.465732
0.465801
0.465871
0.46594
0.46594
0.46601
0.466079
0.466149
0.466219
0.466219
0.466289
0.466358
0.466428
0.466498
0.466498
0.466568
0.466638
0.466707
0.466777
0.466777
0.466847
0.466917
0.466987
0.467057
0.467057
0.467127
0.467198
0.467268
0.467338
0.467338
0.467408
0.467478
0.467549
0.467619
0.467619
0.467689
0.46776
0.46783
0.4679
0.4679
0.467971
0.468041
0.468112
0.468182
0.468182
0.468253
0.468324
0.468394
0.468465
0.468465
0.468536
0.468606
0.468677
0.468748
0.468748
0.468819
0.46889
0.468961
0.469031
0.469031
0.469102
0.469173
0.469244
0.469315
0.469315
0.469387
0.469458
0.469529
0.4696
0.4696
0.469671
0.469742
0.469814
0.469885
0.469885
0.469956
0.470028
0.470099
0.47017
0.47017
0.470242
0.470313
0.470385
0.470456
0.470456
0.470528
0.4706
0.470671
0.470743
0.470743
0.470815
0.470886
0.470958
0.47103
0.47103
0.471102
0.471174
0.471246
0.471317
0.471317
0.471389
0.471461
0.471533
0.471605
0.471605
0.471678
0.47175
0.471822
0.471894
0.471894
0.471966
0.472038
0.472111
0.472183
0.472183
0.472255
0.472328
0.4724
0.472472
0.472472
0.472545
0.472617
0.47269
0.472762
0.472762
0.472835
0.472908
0.47298
0.473053
0.473053
0.473126
0.473198
0.473271
0.473344
0.473344
0.473417
0.47349
0.473563
0.473635
0.473635
0.473708
0.473781
0.473854
0.473927
0.473927
0.474001
0.474074
0.474147
0.47422
0.47422
0.474293
0.474366
0.47444
0.474513
0.474513
0.474586
0.47466
0.474733
0.474807
0.474807
0.47488
0.474953
0.475027
0.475101
0.475101
0.475174
0.475248
0.475321
0.475395
0.475395
0.475469
0.475543
0.475616
0.47569
0.47569
0.475764
0.475838
0.475912
0.475986
0.475986
0.47606
0.476134
0.476208
0.476282
0.476282
0.476356
0.47643
0.476504
0.476578
0.476578
0.476652
0.476727
0.476801
0.476875
0.476875
0.47695
0.477024
0.477098
0.477173
0.477173
0.477247
0.477322
0.477396
0.477471
0.477471
0.477545
0.47762
0.477695
0.477769
0.477769
0.477844
0.477919
0.477994
0.478068
0.478068
0.478143
0.478218
0.478293
0.478368
0.478368
0.478443
0.478518
0.478593
0.478668
0.478668
0.478743
0.478818
0.478893
0.478969
0.478969
0.479044
0.479119
0.479194
0.47927
0.47927
0.479345
0.47942
0.479496
0.479571
0.479571
0.479647
0.479722
0.479798
0.479873
0.479873
0.479949
0.480025
0.4801
0.480176
0.480176
0.480252
0.480328
0.480403
0.480479
0.480479
0.480555
0.480631
0.480707
0.480783
0.480783
0.480859
0.480935
0.481011
0.481087
0.481087
0.481163
0.481239
0.481315
0.481392
0.481392
0.481468
0.481544
0.48162
0.481697
0.481697
0.481773
0.481849
0.481926
0.482002
0.482002
0.482079
0.482155
0.482232
0.482308
0.482308
0.482385
0.482462
0.482538
0.482615
0.482615
0.482692
0.482769
0.482845
0.482922
0.482922
0.482999
0.483076
0.483153
0.48323
0.48323
0.483307
0.483384
0.483461
0.483538
0.483538
0.483615
0.483692
0.48377
0.483847
0.483847
0.483924
0.484001
0.484079
0.484156
0.484156
0.484233
0.484311
0.484388
0.484466
0.484466
0.484543
0.484621
0.484698
0.484776
0.484776
0.484854
0.484931
0.485009
0.485087
0.485087
0.485165
0.485242
0.48532
0.485398
0.485398
0.485476
0.485554
0.485632
0.48571
0.48571
0.485788
0.485866
0.485944
0.486022
0.486022
0.4861
0.486178
0.486257
0.486335
0.486335
0.486413
0.486492
0.48657
0.486648
0.486648
0.486727
0.486805
0.486884
0.486962
0.486962
0.487041
0.487119
0.487198
0.487276
0.487276
0.487355
0.487434
0.487513
0.487591
0.487591
0.48767
0.487749
0.487828
0.487907
0.487907
0.487986
0.488065
0.488144
0.488223
0.488223
0.488302
0.488381
0.48846
0.488539
0.488539
0.488618
0.488697
0.488777
0.488856
0.488856
0.488935
0.489014
0.489094
0.489173
0.489173
0.489253
0.489332
0.489412
0.489491
0.489491
0.489571
0.48965
0.48973
0.48981