<?xml version="1.0"?>
<VTKFile type="UnstructuredGrid" version="0.1" byte_order="LittleEndian">
<UnstructuredGrid>
<Piece NumberOfPoints="5000" NumberOfCells="4000">
<PointData Scalars="Reaction 0">
<DataArray type="Float32" Name="Reaction 0" format="ascii">
0.646569
0.646569
0.646569
0.646569
0.646569
0.646569
0.646569
0.646569
0.64657
0.64657
0.64657
0.64657
0.646571
0.646571
0.646572
0.646572
0.646572
0.646573
0.646573
0.646574
0.646574
0.646575
0.646576
0.646576
0.646577
0.646577
0.646578
0.646579
0.64658
0.646581
0.646581
0.646582
0.646583
0.646584
0.646585
0.646585
0.646587
0.646588
0.646589
0.64659
0.64659
0.646592
0.646593
0.646595
0.646596
0.646596
0.646598
0.646599
0.646601
0.646603
0.646603
0.646604
0.646606
0.646608
0.64661
0.64661
0.646612
0.646613
0.646615
0.646617
0.646617
0.64662
0.646622
0.646624
0.646626
0.646626
0.646628
0.64663
0.646633
0.646635
0.646635
0.646637
0.64664
0.646642
0.646645
0.646645
0.646647
0.64665
0.646653
0.646655
0.646655
0.646658
0.646661
0.646664
0.646667
0.646667
0.646669
0.646672
0.646675
0.646678
0.646678
0.646681
0.646685
0.646688
0.646691
0.646691
0.646694
0.646697
0.646701
0.646704
0.646704
0.646708
0.646711
0.646714
0.646718
0.646718
0.646722
0.646725
0.646729
0.646733
0.646733
0.646736
0.64674
0.646744
0.646748
0.646748
0.646752
0.646756
0.64676
0.646764
0.646764
0.646768
0.646772
0.646776
0.64678
0.64678
0.646784
0.646789
0.646793
0.646797
0.646797
0.646802
0.646806
0.646811
0.646815
0.646815
0.64682
0.646824
0.646829
0.646834
0.646834
0.646839
0.646843
0.646848
0.646853
0.646853
0.646858
0.646863
0.646868
0.646873
0.646873
0.646878
0.646883
0.646888
0.646894
0.646894
0.646899
0.646904
0.64691
0.646915
0.646915
0.64692
0.646926
0.646931
0.646937
0.646937
0.646943
0.646948
0.646954
0.64696
0.64696
0.646965
0.646971
0.646977
0.646983
0.646983
0.646989
0.646995
0.647001
0.647007
0.647007
0.647013
0.647019
0.647025
0.647032
0.647032
0.647038
0.647044
0.647051
0.647057
0.647057
0.647064
0.64707
0.647077
0.647083
0.647083
0.64709
0.647096
0.647103
0.64711
0.64711
0.647117
0.647123
0.64713
0.647137
0.647137
0.647144
0.647151
0.647158
0.647165
0.647165
0.647172
0.647179
0.647187
0.647194
0.647194
0.647201
0.647208
0.647216
0.647223
0.647223
0.647231
0.647238
0.647246
0.647253
0.647253
0.647261
0.647269
0.647276
0.647284
0.647284
0.647292
0.6473
0.647307
0.647315
0.647315
0.647323
0.647331
0.647339
0.647347
0.647347
0.647355
0.647364
0.647372
0.64738
0.64738
0.647388
0.647397
0.647405
0.647413
0.647413
0.647422
0.64743
0.647439
0.647447
0.647447
0.647456
0.647465
0.647473
0.647482
0.647482
0.647491
0.6475
0.647509
0.647518
0.647518
0.647527
0.647535
0.647545
0.647554
0.647554
0.647563
0.647572
0.647581
0.64759
0.64759
0.6476
0.647609
0.647618
0.647628
0.647628
0.647637
0.647647
0.647656
0.647666
0.647666
0.647675
0.647685
0.647695
0.647704
0.647704
0.647714
0.647724
0.647734
0.647744
0.647744
0.647754
0.647764
0.647774
0.647784
0.647784
0.647794
0.647804
0.647814
0.647824
0.647824
0.647835
0.647845
0.647855
0.647866
0.647866
0.647876
0.647887
0.647897
0.647908
0.647908
0.647918
0.647929
0.64794
0.647951
0.647951
0.647961
0.647972
0.647983
0.647994
0.647994
0.648005
0.648016
0.648027
0.648038
0.648038
0.648049
0.64806
0.648071
0.648082
0.648082
0.648094
0.648105
0.648116
0.648128
0.648128
0.648139
0.648151
0.648162
0.648174
0.648174
0.648185
0.648197
0.648209
0.64822
0.64822
0.648232
0.648244
0.648256
0.648268
0.648268
0.648279
0.648291
0.648303
0.648315
0.648315
0.648328
0.64834
0.648352
0.648364
0.648364
0.648376
0.648388
0.648401
0.648413
0.648413
0.648426
0.648438
0.64845
0.648463
0.648463
0.648475
0.648488
0.648501
0.648513
0.648513
0.648526
0.648539
0.648552
0.648565
0.648565
0.648578
0.64859
0.648603
0.648617
0.648617
0.64863
0.648643
0.648656
0.648669
0.648669
0.648682
0.648696
0.648709
0.648722
0.648722
0.648736
0.648749
0.648763
0.648776
0.648776
0.64879
0.648804
0.648817
0.648831
0.648831
0.648845
0.648858
0.648872
0.648886
0.648886
0.6489
0.648914
0.648928
0.648942
0.648942
0.648956
0.64897
0.648984
0.648998
0.648998
0.649013
0.649027
0.649041
0.649055
0.649055
0.64907
0.649084
0.649099
0.649113
0.649113
0.649128
0.649142
0.649157
0.649172
0.649172
0.649186
0.649201
0.649216
0.649231
0.649231
0.649245
0.64926
0.649275
0.64929
0.64929
0.649305
0.64932
0.649335
0.649351
0.649351
0.649366
0.649381
0.649396
0.649411
0.649411
0.649427
0.649442
0.649458
0.649473
0.649473
0.649489
0.649504
0.64952
0.649535
0.649535
0.649551
0.649567
0.649582
0.649598
0.649598
0.649614
0.64963
0.649646
0.649662
0.649662
0.649678
0.649694
0.64971
0.649726
0.649726
0.649742
0.649758
0.649774
0.649791
0.649791
0.649807
0.649823
0.649839
0.649856
0.649856
0.649872
0.649889
0.649905
0.649922
0.649922
0.649938
0.649955
0.649972
0.649988
0.649988
0.650005
0.650022
0.650039
0.650056
0.650056
0.650073
0.650089
0.650106
0.650123
0.650123
0.650141
0.650158
0.650175
0.650192
0.650192
0.650209
0.650227
0.650244
0.650261
0.650261
0.650279
0.650296
0.650314
0.650331
0.650331
0.650349
0.650366
0.650384
0.650402
0.650402
0.65042
0.650437
0.650455
0.650473
0.650473
0.650491
0.650509
0.650527
0.650545
0.650545
0.650563
0.650581
0.650599
0.650617
0.650617
0.650636
0.650654
0.650672
0.65069
0.65069
0.650709
0.650727
0.650746
0.650764
0.650764
0.650783
0.650801
0.65082
0.650838
0.650838
0.650857
0.650876
0.650895
0.650913
0.650913
0.650932
0.650951
0.65097
0.650989
0.650989
0.651008
0.651027
0.651046
0.651065
0.651065
0.651084
0.651103
0.651123
0.651142
0.651142
0.651161
0.65118
0.6512
0.651219
0.651219
0.651239
0.651258
0.651278
0.651297
0.651297
0.651317
0.651336
0.651356
0.651376
0.651376
0.651395
0.651415
0.651435
0.651455
0.651455
0.651475
0.651495
0.651515
0.651535
0.651535
0.651555
0.651575
0.651595
0.651615
0.651615
0.651635
0.651655
0.651676
0.651696
0.651696
0.651716
0.651737
0.651757
0.651777
0.651777
0.651798
0.651819
0.651839
0.65186
0.65186
0.65188
0.651901
0.651922
0.651943
0.651943
0.651963
0.651984
0.652005
0.652026
0.652026
0.652047
0.652068
0.652089
0.652111
0.652111
0.652132
0.652153
0.652174
0.652195
0.652195
0.652217
0.652238
0.652259
0.652281
0.652281
0.652302
0.652324
0.652345
0.652367
0.652367
0.652389
0.65241
0.652432
0.652454
0.652454
0.652475
0.652497
0.652519
0.652541
0.652541
0.652563
0.652585
0.652607
0.652629
0.652629
0.652651
0.652673
0.652695
0.652717
0.652717
0.652739
0.652761
0.652784
0.652806
0.652806
0.652828
0.652851
0.652873
0.652896
0.652896
0.652918
0.652941
0.652963
0.652986
0.652986
0.653008
0.653031
0.653054
0.653076
0.653076
0.653099
0.653122
0.653145
0.653168
0.653168
0.653191
0.653213
0.653236
0.653259
0.653259
0.653282
0.653306
0.653329
0.653352
0.653352
0.653375
0.653398
0.653422
0.653445
0.653445
0.653468
0.653492
0.653515
0.653539
0.653539
0.653562
0.653586
0.653609
0.653633
0.653633
0.653657
0.65368
0.653704
0.653728
0.653728
0.653752
0.653776
0.6538
0.653824
0.653824
0.653848
0.653872
0.653896
0.65392
0.65392
0.653944
0.653968
0.653992
0.654017
0.654017
0.654041
0.654065
0.65409
0.654114
0.654114
0.654138
0.654163
0.654187
0.654212
0.654212
0.654236
0.654261
0.654286
0.65431
0.65431
0.654335
0.65436
0.654385
0.654409
0.654409
0.654434
0.654459
0.654484
0.654509
0.654509
0.654534
0.654559
0.654584
0.654609
0.654609
0.654634
0.654659
0.654684
0.65471
0.65471
0.654735
0.65476
0.654785
0.654811
0.654811
0.654836
0.654862
0.654887
0.654913
0.654913
0.654938
0.654964
0.654989
0.655015
0.655015
0.655041
0.655066
0.655092
0.655118
0.655118
0.655144
0.655169
0.655195
0.655221
0.655221
0.655247
0.655273
0.655299
0.655326
0.655326
0.655352
0.655378
0.655404
0.65543
0.65543
0.655457
0.655483
0.655509
0.655536
0.655536
0.655562
0.655589
0.655615
0.655642
0.655642
0.655668
0.655695
0.655722
0.655748
0.655748
0.655775
0.655802
0.655829
0.655855
0.655855
0.655882
0.655909
0.655936
0.655963
0.655963
0.65599
0.656017
0.656044
0.656071
0.656071
0.656098
0.656125
0.656153
0.65618
0.65618
0.656207
0.656234
0.656262
0.656289
0.656289
0.656316
0.656344
0.656371
0.656399
0.656399
0.656426
0.656454
0.656481
0.656509
0.656509
0.656536
0.656564
0.656592
0.656619
0.656619
0.656647
0.656675
0.656703
0.656731
0.656731
0.656759
0.656787
0.656815
0.656843
0.656843
0.656871
0.656899
0.656927
0.656955
0.656955
0.656983
0.657012
0.65704
0.657068
0.657068
0.657097
0.657125
0.657154
0.657182
0.657182
0.657211
0.657239
0.657268
0.657296
0.657296
0.657325
0.657354
0.657382
0.657411
0.657411
0.65744
0.657469
0.657498
0.657526
0.657526
0.657555
0.657584
0.657613
0.657642
0.657642
0.657671
0.6577
0.657729
0.657759
0.657759
0.657788
0.657817
0.657846
0.657875
0.657875
0.657905
0.657934
0.657963
0.657993
0.657993
0.658022
0.658051
0.658081
0.65811
0.65811
0.65814
0.658169
0.658199
0.658229
0.658229
0.658258
0.658288
0.658318
0.658347
0.658347
0.658377
0.658407
0.658437
0.658467
0.658467
0.658497
0.658527
0.658557
0.658587
0.658587
0.658617
0.658647
0.658677
0.658708
0.658708
0.658738
0.658768
0.658798
0.658829
0.658829
0.658859
0.65889
0.65892
0.65895
0.65895
0.658981
0.659011
0.659042
0.659073
0.659073
0.659103
0.659134
0.659165
0.659195
0.659195
0.659226
0.659257
0.659288
0.659318
0.659318
0.659349
0.65938
0.659411
0.659442
0.659442
0.659473
0.659504
0.659535
0.659566
0.659566
0.659597
0.659628
0.659659
0.659691
0.659691
0.659722
0.659753
0.659784
0.659816
0.659816
0.659847
0.659878
0.65991
0.659941
0.659941
0.659973
0.660004
0.660036
0.660067
0.660067
0.660099
0.66013
0.660162
0.660194
0.660194
0.660226
0.660257
0.660289
0.660321
0.660321
0.660353
0.660385
0.660417
0.660449
0.660449
0.660481
0.660513
0.660545
0.660577
0.660577
0.660609
0.660642
0.660674
0.660706
0.660706
0.660738
0.660771
0.660803
0.660835
0.660835
0.660868
0.6609
0.660932
0.660965
0.660965
0.660997
0.66103
0.661062
0.661095
0.661095
0.661128
0.66116
0.661193
0.661225
0.661225
0.661258
0.661291
0.661324
0.661356
0.661356
0.661389
0.661422
0.661455
0.661488
0.661488
0.661521
0.661554
0.661587
0.66162
0.66162
0.661653
0.661686
0.661719
0.661752
0.661752
0.661786
0.661819
0.661852
0.661886
0.661886
0.661919
0.661952
0.661986
0.662019
0.662019
0.662053
0.662086
0.66212
0.662153
0.662153
0.662187
0.662221
0.662254
0.662288
0.662288
0.662322
0.662355
0.662389
0.662423
0.662423
0.662457
0.662491
0.662524
0.662558
0.662558
0.662592
0.662626
0.66266
0.662694
0.662694
0.662728
0.662762
0.662796
0.66283
0.66283
0.662865
0.662899
0.662933
0.662967
0.662967
0.663001
0.663036
0.66307
0.663104
0.663104
0.663139
0.663173
0.663207
0.663242
0.663242
0.663276
0.663311
0.663346
0.66338
0.66338
0.663415
0.66345
0.663484
0.663519
0.663519
0.663554
0.663589
0.663623
0.663658
0.663658
0.663693
0.663728
0.663763
0.663798
0.663798
0.663833
0.663868
0.663903
0.663938
0.663938
0.663973
0.664008
0.664043
0.664078
0.664078
0.664114
0.664149
0.664184
0.664219
0.664219
0.664255
0.66429
0.664325
0.664361
0.664361
0.664396
0.664431
0.664467
0.664502
0.664502
0.664538
0.664573
0.664609
0.664644
0.664644
0.66468
0.664716
0.664751
0.664787
0.664787
0.664823
0.664859
0.664894
0.66493
0.66493
0.664966
0.665002
0.665038
0.665074
0.665074
0.66511
0.665146
0.665182
0.665218
0.665218
0.665254
0.66529
0.665326
0.665363
0.665363
0.665399
0.665435
0.665471
0.665507
0.665507
0.665544
0.66558
0.665616
0.665653
0.665653
0.665689
0.665725
0.665762
0.665798
0.665798
0.665835
0.665871
0.665908
0.665944
0.665944
0.665981
0.666018
0.666054
0.666091
0.666091
0.666128
0.666164
0.666201
0.666238
0.666238
0.666275
0.666311
0.666348
0.666385
0.666385
0.666422
0.666459
0.666496
0.666533
0.666533
0.66657
0.666607
0.666644
0.666681
0.666681
0.666718
0.666756
0.666793
0.66683
0.66683
0.666867
0.666905
0.666942
0.666979
0.666979
0.667016
0.667054
0.667091
0.667129
0.667129
0.667166
0.667204
0.667241
0.667278
0.667278
0.667316
0.667354
0.667391
0.667429
0.667429
0.667466
0.667504
0.667542
0.667579
0.667579
0.667617
0.667655
0.667692
0.66773
0.66773
0.667768
0.667806
0.667844
0.667882
0.667882
0.66792
0.667958
0.667995
0.668034
0.668034
0.668072
0.66811
0.668148
0.668186
0.668186
0.668224
0.668262
0.6683
0.668339
0.668339
0.668377
0.668415
0.668453
0.668492
0.668492
0.66853
0.668568
0.668607
0.668645
0.668645
0.668684
0.668722
0.66876
0.668799
0.668799
0.668837
0.668876
0.668914
0.668953
0.668953
0.668992
0.66903
0.669069
0.669107
0.669107
0.669146
0.669185
0.669224
0.669262
0.669262
0.669301
0.66934
0.669379
0.669418
0.669418
0.669457
0.669495
0.669534
0.669573
0.669573
0.669612
0.669651
0.66969
0.66973
0.66973
0.669769
0.669808
0.669847
0.669886
0.669886
0.669925
0.669964
0.670004
0.670043
0.670043
0.670082
0.670121
0.670161
0.6702
0.6702
0.670239
0.670279
0.670318
0.670358
0.670358
0.670397
0.670436
0.670476
0.670515
0.670515
0.670555
0.670594
0.670634
0.670674
0.670674
0.670713
0.670753
0.670792
0.670832
0.670832
0.670872
0.670912
0.670951
0.670991
0.670991
0.671031
0.671071
0.671111
0.67115
0.67115
0.67119
0.67123
0.67127
0.67131
0.67131
0.67135
0.67139
0.67143
0.67147
0.67147
0.67151
0.67155
0.67159
0.671631
0.671631
0.671671
0.671711
0.671751
0.671791
0.671791
0.671832
0.671872
0.671912
0.671952
0.671952
0.671993
0.672033
0.672073
0.672114
0.672114
0.672154
0.672194
0.672235
0.672275
0.672275
0.672316
0.672356
0.672397
0.672437
0.672437
0.672478
0.672518
0.672559
0.6726
0.6726
0.67264
0.672681
0.672722
0.672762
0.672762
0.672803
0.672844
0.672885
0.672926
0.672926
0.672966
0.673007
0.673048
0.673089
0.673089
0.67313
0.673171
0.673212
0.673253
0.673253
0.673294
0.673335
0.673376
0.673417
0.673417
0.673458
0.673499
0.67354
0.673581
0.673581
0.673622
0.673663
0.673704
0.673745
0.673745
0.673787
0.673828
0.673869
0.67391
0.67391
0.673952
0.673993
0.674034
0.674076
0.674076
0.674117
0.674159
0.6742
0.674241
0.674241
0.674283
0.674324
0.674366
0.674407
0.674407
0.674449
0.67449
0.674532
0.674574
0.674574
0.674615
0.674657
0.674698
0.67474
0.67474
0.674782
0.674823
0.674865
0.674907
0.674907
0.674948
0.67499
0.675032
0.675074
0.675074
0.675116
0.675157
0.675199
0.675241
0.675241
0.675283
0.675325
0.675367
0.675409
0.675409
0.675451
0.675493
0.675535
0.675577
0.675577
0.675619
0.675661
0.675703
0.675745
0.675745
0.675787
0.675829
0.675872
0.675914
0.675914
0.675956
0.675998
0.67604
0.676083
0.676083
0.676125
0.676167
0.676209
0.676252
0.676252
0.676294
0.676336
0.676379
0.676421
0.676421
0.676463
0.676506
0.676548
0.676591
0.676591
0.676633
0.676676
0.676718
0.676761
0.676761
0.676803
0.676846
0.676888
0.676931
0.676931
0.676974
0.677016
0.677059
0.677102
0.677102
0.677144
0.677187
0.67723
0.677272
0.677272
0.677315
0.677358
0.677401
0.677443
0.677443
0.677486
0.677529
0.677572
0.677615
0.677615
0.677658
0.6777
0.677743
0.677786
0.677786
0.677829
0.677872
0.677915
0.677958
0.677958
0.678001
0.678044
0.678087
0.67813
0.67813
0.678173
0.678216
0.678259
0.678302
0.678302
0.678346
0.678389
0.678432
0.678475
0.678475
0.678518
0.678562
0.678605
0.678648
0.678648
0.678691
0.678735
0.678778
0.678821
0.678821
0.678864
0.678908
0.678951
0.678994
0.678994
0.679038
0.679081
0.679125
0.679168
0.679168
0.679211
0.679255
0.679298
0.679342
0.679342
0.679385
0.679429
0.679472
0.679516
0.679516
0.679559
0.679603
0.679647
0.67969
0.67969
0.679734
0.679777
0.679821
0.679865
0.679865
0.679909
0.679952
0.679996
0.68004
0.68004
0.680083
0.680127
0.680171
0.680215
0.680215
0.680258
0.680302
0.680346
0.68039
0.68039
0.680434
0.680478
0.680521
0.680565
0.680565
0.680609
0.680653
0.680697
0.680741
0.680741
0.680785
0.680829
0.680873
0.680917
0.680917
0.680961
0.681005
0.681049
0.681093
0.681093
0.681137
0.681181
0.681225
0.68127
0.68127
0.681314
0.681358
0.681402
0.681446
0.681446
0.68149
0.681535
0.681579
0.681623
0.681623
0.681667
0.681711
0.681756
0.6818
0.6818
0.681844
0.681889
0.681933
0.681977
0.681977
0.682021
0.682066
0.68211
0.682155
0.682155
0.682199
0.682243
0.682288
0.682332
0.682332
0.682377
0.682421
0.682466
0.68251
0.68251
0.682555
0.682599
0.682644
0.682688
0.682688
0.682733
0.682777
0.682822
0.682866
0.682866
0.682911
0.682956
0.683
0.683045
0.683045
0.683089
0.683134
0.683179
0.683223
0.683223
0.683268
0.683313
0.683358
0.683402
0.683402
0.683447
0.683492
0.683536
0.683581
0.683581
0.683626
0.683671
0.683716
0.68376
0.68376
0.683805
0.68385
0.683895
0.68394
0.68394
0.683985
0.68403
0.684075
0.684119
0.684119
0.684164
0.684209
0.684254
0.684299
0.684299
0.684344
0.684389
0.684434
0.684479
0.684479
0.684524
0.684569
0.684614
0.684659
0.684659
0.684704
0.684749
0.684794
0.68484
0.68484
0.684885
0.68493
0.684975
0.68502
0.68502
0.685065
0.68511
0.685156
0.685201
0.685201
0.685246
0.685291
0.685336
0.685382
0.685382
0.685427
0.685472
0.685517
0.685563
0.685563
0.685608
0.685653
0.685698
0.685744
0.685744
0.685789
0.685834
0.68588
0.685925
0.685925
0.68597
0.686016
0.686061
0.686106
0.686106
0.686152
0.686197
0.686243
0.686288
0.686288
0.686334
0.686379
0.686424
0.68647
0.68647
0.686515
0.686561
0.686606
0.686652
0.686652
0.686697
0.686743
0.686789
0.686834
0.686834
0.68688
0.686925
0.686971
0.687016
0.687016
0.687062
0.687107
0.687153
0.687199
0.687199
0.687244
0.68729
0.687336
0.687381
0.687381
0.687427
0.687473
0.687518
0.687564
0.687564
0.68761
0.687655
0.687701
0.687747
0.687747
0.687793
0.687838
0.687884
0.68793
0.68793
0.687976
0.688021
0.688067
0.688113
0.688113
0.688159
0.688205
0.68825
0.688296
0.688296
0.688342
0.688388
0.688434
0.68848
0.68848
0.688526
0.688571
0.688617
0.688663
0.688663
0.688709
0.688755
0.688801
0.688847
0.688847
0.688893
0.688939
0.688985
0.689031
0.689031
0.689077
0.689123
0.689169
0.689215
0.689215
0.689261
0.689307
0.689353
0.689399
0.689399
0.689445
0.689491
0.689537
0.689583
0.689583
0.689629
0.689675
0.689721
0.689767
0.689767
0.689814
0.68986
0.689906
0.689952
0.689952
0.689998
0.690044
0.69009
0.690136
0.690136
0.690183
0.690229
0.690275
0.690321
0.690321
0.690367
0.690414
0.69046
0.690506
0.690506
0.690552
0.690598
0.690645
0.690691
0.690691
0.690737
0.690783
0.69083
0.690876
0.690876
0.690922
0.690969
0.691015
0.691061
0.691061
0.691107
0.691154
0.6912
0.691246
0.691246
0.691293
0.691339
0.691386
0.691432
0.691432
0.691478
0.691525
0.691571
0.691617
0.691617
0.691664
0.69171
0.691757
0.691803
0.691803
0.691849
0.691896
0.691942
0.691989
0.691989
0.692035
0.692082
0.692128
0.692175
0.692175
0.692221
0.692267
0.692314
0.69236
0.69236
0.692407
0.692453
0.6925
0.692546
0.692546
0.692593
0.69264
0.692686
0.692733
0.692733
0.692779
0.692826
0.692872
0.692919
0.692919
0.692965
0.693012
0.693059
0.693105
0.693105
0.693152
0.693198
0.693245
0.693292
0.693292
0.693338
0.693385
0.693431
0.693478
0.693478
0.693525
0.693571
0.693618
0.693665
0.693665
0.693711
0.693758
0.693805
0.693851
0.693851
0.693898
0.693945
0.693991
0.694038
0.694038
0.694085
0.694131
0.694178
0.694225
0.694225
0.694272
0.694318
0.694365
0.694412
0.694412
0.694459
0.694505
0.694552
0.694599
0.694599
0.694646
0.694692
0.694739
0.694786
0.694786
0.694833
0.69488
0.694926
0.694973
0.694973
0.69502
0.695067
0.695114
0.69516
0.69516
0.695207
0.695254
0.695301
0.695348
0.695348
0.695395
0.695442
0.695488
0.695535
0.695535
0.695582
0.695629
0.695676
0.695723
0.695723
0.69577
0.695817
0.695863
0.69591
0.69591
0.695957
0.696004
0.696051
0.696098
0.696098
0.696145
0.696192
0.696239
0.696286
0.696286
0.696333
0.69638
0.696427
0.696474
0.696474
0.69652
0.696567
0.696614
0.696661
0.696661
0.696708
0.696755
0.696802
0.696849
0.696849
0.696896
0.696943
0.69699
0.697037
0.697037
0.697084
0.697131
0.697178
0.697225
0.697225
0.697272
0.697319
0.697366
0.697413
0.697413
0.697461
0.697508
0.697555
0.697602
0.697602
0.697649
0.697696
0.697743
0.69779
0.69779
0.697837
0.697884
0.697931
0.697978
0.697978
0.698025
0.698072
0.69812
0.698167
0.698167
0.698214
0.698261
0.698308
0.698355
0.698355
0.698402
0.698449
0.698496
0.698544
0.698544
0.698591
0.698638
0.698685
0.698732
0.698732
0.698779
0.698826
0.698874
0.698921
0.698921
0.698968
0.699015
0.699062
0.699109
0.699109
0.699157
0.699204
0.699251
0.699298
0.699298
0.699345
0.699392
0.69944
0.699487
0.699487
0.699534
0.699581
0.699628
0.699676
0.699676
0.699723
0.69977
0.699817
0.699865
0.699865
0.699912
0.699959
0.700006
0.700053
0.700053
0.700101
0.700148
0.700195
0.700242
0.700242
0.70029
0.700337
0.700384
0.700431
0.700431
0.700479
0.700526
0.700573
0.70062
0.70062
0.700668
0.700715
0.700762
0.70081
0.70081
0.700857
0.700904
0.700951
0.700999
0.700999
0.701046
0.701093
0.701141
0.701188
0.701188
0.701235
0.701283
0.70133
0.701377
0.701377
0.701424
0.701472
0.701519
0.701566
0.701566
0.701614
0.701661
0.701708
0.701756
0.701756
0.701803
0.70185
0.701898
0.701945
0.701945
0.701992
0.70204
0.702087
0.702135
0.702135
0.702182
0.702229
0.702277
0.702324
0.702324
0.702371
0.702419
0.702466
0.702513
0.702513
0.702561
0.702608
0.702656
0.702703
0.702703
0.70275
0.702798
0.702845
0.702892
0.702892
0.70294
0.702987
0.703035
0.703082
0.703082
0.703129
0.703177
0.703224
0.703272
0.703272
0.703319
0.703366
0.703414
0.703461
0.703461
0.703509
0.703556
0.703604
0.703651
0.703651
0.703698
0.703746
0.703793
0.703841
0.703841
0.703888
0.703936
0.703983
0.70403
0.70403
0.704078
0.704125
0.704173
0.70422
0.70422
0.704268
0.704315
0.704363
0.70441
0.70441
0.704457
0.704505
0.704552
0.7046
0.7046
0.704647
0.704695
0.704742
0.70479
0.70479
0.704837
0.704885
0.704932
0.70498
0.70498
0.705027
0.705075
0.705122
0.705169
0.705169
0.705217
0.705264
0.705312
0.705359
0.705359
0.705407
0.705454
0.705502
0.705549
0.705549
0.705597
0.705644
0.705692
0.705739
0.705739
0.705787
0.705834
0.705882
0.705929
0.705929
0.705977
0.706024
0.706072
0.706119
0.706119
0.706167
0.706214
0.706262
0.706309
0.706309
0.706357
0.706405
0.706452
0.7065
0.7065
0.706547
0.706595
0.706642
0.70669
0.70669
0.706737
0.706785
0.706832
0.70688
0.70688
0.706927
0.706975
0.707022
0.70707
0.70707
0.707118
0.707165
0.707213
0.70726
0.70726
0.707308
0.707355
0.707403
0.70745
0.70745
0.707498
0.707545
0.707593
0.707641
0.707641
0.707688
0.707736
0.707783
0.707831
0.707831
0.707878
0.707926
0.707973
0.708021
0.708021
0.708069
0.708116
0.708164
0.708211
0.708211
0.708259
0.708306
0.708354
0.708402
0.708402
0.708449
0.708497
0.708544
0.708592
0.708592
0.708639
0.708687
0.708735
0.708782
0.708782
0.70883
0.708877
0.708925
0.708973
0.708973
0.70902
0.709068
0.709115
0.709163
0.709163
0.70921
0.709258
0.709306
0.709353
0.709353
0.709401
0.709448
0.709496
0.709544
0.709544
0.709591
0.709639
0.709686
0.709734
0.709734
0.709782
0.709829
0.709877
0.709924
0.709924
0.709972
0.71002
0.710067
0.710115
0.710115
0.710162
0.71021
0.710258
0.710305
0.710305
0.710353
0.7104
0.710448
0.710496
0.710496
0.710543
0.710591
0.710639
0.710686
0.710686
0.710734
0.710781
0.710829
0.710877
0.710877
0.710924
0.710972
0.71102
0.711067
0.711067
0.711115
0.711162
0.71121
0.711258
0.711258
0.711305
0.711353
0.711401
0.711448
0.711448
0.711496
0.711543
0.711591
0.711639
0.711639
0.711686
0.711734
0.711782
0.711829
0.711829
0.711877
0.711924
0.711972
0.71202
0.71202
0.712067
0.712115
0.712163
0.71221
0.71221
0.712258
0.712306
0.712353
0.712401
0.712401
0.712448
0.712496
0.712544
0.712591
0.712591
0.712639
0.712687
0.712734
0.712782
0.712782
0.71283
0.712877
0.712925
0.712973
0.712973
0.71302
0.713068
0.713116
0.713163
0.713163
0.713211
0.713258
0.713306
0.713354
0.713354
0.713401
0.713449
0.713497
0.713544
0.713544
0.713592
0.71364
0.713687
0.713735
0.713735
0.713783
0.71383
0.713878
0.713926
0.713926
0.713973
0.714021
0.714069
0.714116
0.714116
0.714164
0.714212
0.714259
0.714307
0.714307
0.714355
0.714402
0.71445
0.714498
0.714498
0.714545
0.714593
0.714641
0.714688
0.714688
0.714736
0.714784
0.714831
0.714879
0.714879
0.714927
0.714974
0.715022
0.71507
0.71507
0.715117
0.715165
0.715213
0.71526
0.71526
0.715308
0.715356
0.715403
0.715451
0.715451
0.715499
0.715546
0.715594
0.715642
0.715642
0.715689
0.715737
0.715785
0.715832
0.715832
0.71588
0.715928
0.715975
0.716023
0.716023
0.716071
0.716118
0.716166
0.716214
0.716214
0.716261
0.716309
0.716357
0.716404
0.716404
0.716452
0.7165
0.716547
0.716595
0.716595
0.716643
0.716691
0.716738
0.716786
0.716786
0.716834
0.716881
0.716929
0.716977
0.716977
0.717024
0.717072
0.71712
0.717167
0.717167
0.717215
0.717263
0.71731
0.717358
0.717358
0.717406
0.717453
0.717501
0.717549
0.717549
0.717596
0.717644
0.717692
0.71774
0.71774
0.717787
0.717835
0.717883
0.71793
0.71793
0.717978
0.718026
0.718073
0.718121
0.718121
0.718169
0.718216
0.718264
0.718312
0.718312
0.718359
0.718407
0.718455
0.718503
0.718503
0.71855
0.718598
0.718646
0.718693
0.718693
0.718741
0.718789
0.718836
0.718884
0.718884
0.718932
0.718979
0.719027
0.719075
0.719075
0.719122
0.71917
0.719218
0.719266
0.719266
0.719313
0.719361
0.719409
0.719456
0.719456
0.719504
0.719552
0.719599
0.719647
0.719647
0.719695
0.719743
0.71979
0.719838
0.719838
0.719886
0.719933
0.719981
0.720029
0.720029
0.720076
0.720124
0.720172
0.720219
0.720219
0.720267
0.720315
0.720363
0.72041
0.72041
0.720458
0.720506
0.720553
0.720601
0.720601
0.720649
0.720696
0.720744
0.720792
0.720792
0.72084
0.720887
0.720935
0.720983
0.720983
0.72103
0.721078
0.721126
0.721173
0.721173
0.721221
0.721269
0.721316
0.721364
0.721364
0.721412
0.72146
0.721507
0.721555
0.721555
0.721603
0.72165
0.721698
0.721746
0.721746
0.721793
0.721841
0.721889
0.721937
0.721937
0.721984
0.722032
0.72208
0.722127
0.722127
0.722175
0.722223
0.72227
0.722318
0.722318
0.722366
0.722414
0.722461
0.722509
0.722509
0.722557
0.722604
0.722652
0.7227
0.7227
0.722747
0.722795
0.722843
0.722891
0.722891
0.722938
0.722986
0.723034
0.723081
0.723081
0.723129
0.723177
0.723225
0.723272
0.723272
0.72332
0.723368
0.723415
0.723463
0.723463
0.723511
0.723558
0.723606
0.723654
0.723654
0.723702
0.723749
0.723797
0.723845
0.723845
0.723892
0.72394
0.723988
0.724035
0.724035
0.724083
0.724131
0.724179
0.724226
0.724226
0.724274
0.724322
0.724369
0.724417
0.724417
0.724465
0.724512
0.72456
0.724608
0.724608
0.724656
0.724703
0.724751
0.724799
0.724799
0.724846
0.724894
0.724942
0.72499
0.72499
0.725037
0.725085
0.725133
0.72518
0.72518
0.725228
0.725276
0.725323
0.725371
0.725371
0.725419
0.725467
0.725514
0.725562
0.725562
0.72561
0.725657
0.725705
0.725753
0.725753
0.725801
0.725848
0.725896
0.725944
0.725944
0.725991
0.726039
0.726087
0.726134
0.726134
0.726182
0.72623
0.726278
0.726325
0.726325
0.726373
0.726421
0.726468
0.726516
0.726516
0.726564
0.726612
0.726659
0.726707
0.726707
0.726755
0.726802
0.72685
0.726898
0.726898
0.726945
0.726993
0.727041
0.727089
0.727089
0.727136
0.727184
0.727232
0.727279
0.727279
0.727327
0.727375
0.727423
0.72747
0.72747
0.727518
0.727566
0.727613
0.727661
0.727661
0.727709
0.727757
0.727804
0.727852
0.727852
0.7279
0.727947
0.727995
0.728043
0.728043
0.72809
0.728138
0.728186
0.728234
0.728234
0.728281
0.728329
0.728377
0.728424
0.728424
0.728472
0.72852
0.728568
0.728615
0.728615
0.728663
0.728711
0.728758
0.728806
0.728806
0.728854
0.728901
0.728949
0.728997
0.728997
0.729045
0.729092
0.72914
0.729188
0.729188
0.729235
0.729283
0.729331
0.729379
0.729379
0.729426
0.729474
0.729522
0.729569
0.729569
0.729617
0.729665
0.729713
0.72976
0.72976
0.729808
0.729856
0.729903
0.729951
0.729951
0.729999
0.730046
0.730094
0.730142
0.730142
0.73019
0.730237
0.730285
0.730333
0.730333
0.73038
0.730428
0.730476
0.730524
0.730524
0.730571
0.730619
0.730667
0.730714
0.730714
0.730762
0.73081
0.730858
0.730905
0.730905
0.730953
0.731001
0.731048
0.731096
0.731096
0.731144
0.731192
0.731239
0.731287
0.731287
0.731335
0.731382
0.73143
0.731478
0.731478
0.731525
0.731573
0.731621
0.731669
0.731669
0.731716
0.731764
0.731812
0.731859
0.731859
0.731907
0.731955
0.732003
0.73205
0.73205
0.732098
0.732146
0.732193
0.732241
0.732241
0.732289
0.732337
0.732384
0.732432
0.732432
0.73248
0.732527
0.732575
0.732623
0.732623
0.73267
0.732718
0.732766
0.732814
0.732814
0.732861
0.732909
0.732957
0.733004
0.733004
0.733052
0.7331
0.733148
0.733195
0.733195
0.733243
0.733291
0.733338
0.733386
0.733386
0.733434
0.733482
0.733529
0.733577
0.733577
0.733625
0.733672
0.73372
0.733768
0.733768
0.733816
0.733863
0.733911
0.733959
0.733959
0.734006
0.734054
0.734102
0.734149
0.734149
0.734197
0.734245
0.734293
0.73434
0.73434
0.734388
0.734436
0.734483
0.734531
0.734531
0.734579
0.734627
0.734674
0.734722
0.734722
0.73477
0.734817
0.734865
0.734913
0.734913
0.734961
0.735008
0.735056
0.735104
0.735104
0.735151
0.735199
0.735247
0.735295
0.735295
0.735342
0.73539
0.735438
0.735485
0.735485
0.735533
0.735581
0.735628
0.735676
0.735676
0.735724
0.735772
0.735819
0.735867
0.735867
0.735915
0.735962
0.73601
0.736058
0.736058
0.736106
0.736153
0.736201
0.736249
0.736249
0.736296
0.736344
0.736392
0.73644
0.73644
0.736487
0.736535
0.736583
0.73663
0.73663
0.736678
0.736726
0.736774
0.736821
0.736821
0.736869
0.736917
0.736964
0.737012
0.737012
0.73706
0.737107
0.737155
0.737203
0.737203
0.737251
0.737298
0.737346
0.737394
0.737394
0.737441
0.737489
0.737537
0.737585
0.737585
0.737632
0.73768
0.737728
0.737775
0.737775
0.737823
0.737871
0.737919
0.737966
0.737966
0.738014
0.738062
0.738109
0.738157
0.738157
0.738205
0.738253
0.7383
0.738348
0.738348
0.738396
0.738443
0.738491
0.738539
0.738539
0.738586
0.738634
0.738682
0.73873
0.73873
0.738777
0.738825
0.738873
0.73892
0.73892
0.738968
0.739016
0.739064
0.739111
0.739111
0.739159
0.739207
0.739254
0.739302
0.739302
0.73935
0.739398
0.739445
0.739493
0.739493
0.739541
0.739588
0.739636
0.739684
0.739684
0.739732
0.739779
0.739827
0.739875
0.739875
0.739922
0.73997
0.740018
0.740065
0.740065
0.740113
0.740161
0.740209
0.740256
0.740256
0.740304
0.740352
0.740399
0.740447
0.740447
0.740495
0.740543
0.74059
0.740638
0.740638
0.740686
0.740733
0.740781
0.740829
0.740829
0.740877
0.740924
0.740972
0.74102
0.74102
0.741067
0.741115
0.741163
0.741211
0.741211
0.741258
0.741306
0.741354
0.741401
0.741401
0.741449
0.741497
0.741544
0.741592
0.741592
0.74164
0.741688
0.741735
0.741783
0.741783
0.741831
0.741878
0.741926
0.741974
0.741974
0.742022
0.742069
0.742117
0.742165
0.742165
0.742212
0.74226
0.742308
0.742356
0.742356
0.742403
0.742451
0.742499
0.742546
0.742546
0.742594
0.742642
0.74269
0.742737
0.742737
0.742785
0.742833
0.74288
0.742928
0.742928
0.742976
0.743023
0.743071
0.743119
0.743119
0.743167