<?xml version="1.0"?>
<VTKFile type="UnstructuredGrid" version="0.1" byte_order="LittleEndian">
<UnstructuredGrid>
<Piece NumberOfPoints="5000" NumberOfCells="4000">
<PointData Scalars="Reaction 0">
<DataArray type="Float32" Name="Reaction 0" format="ascii">
0.563083
0.563083
0.563083
0.563083
0.563083
0.563083
0.563083
0.563083
0.563083
0.563083
0.563083
0.563083
0.563083
0.563083
0.563083
0.563083
0.563083
0.563083
0.563083
0.563083
0.563083
0.563083
0.563083
0.563083
0.563083
0.563083
0.563083
0.563083
0.563083
0.563083
0.563083
0.563083
0.563083
0.563083
0.563083
0.563083
0.563083
0.563084
0.563084
0.563084
0.563084
0.563084
0.563084
0.563084
0.563084
0.563084
0.563084
0.563084
0.563084
0.563084
0.563084
0.563084
0.563084
0.563084
0.563084
0.563084
0.563084
0.563084
0.563084
0.563084
0.563084
0.563084
0.563085
0.563085
0.563085
0.563085
0.563085
0.563085
0.563085
0.563085
0.563085
0.563085
0.563085
0.563085
0.563085
0.563085
0.563085
0.563085
0.563085
0.563086
0.563086
0.563086
0.563086
0.563086
0.563086
0.563086
0.563086
0.563086
0.563086
0.563086
0.563086
0.563086
0.563086
0.563086
0.563087
0.563087
0.563087
0.563087
0.563087
0.563087
0.563087
0.563087
0.563087
0.563087
0.563087
0.563087
0.563087
0.563088
0.563088
0.563088
0.563088
0.563088
0.563088
0.563088
0.563088
0.563088
0.563088
0.563088
0.563089
0.563089
0.563089
0.563089
0.563089
0.563089
0.563089
0.563089
0.563089
0.563089
0.56309
0.56309
0.56309
0.56309
0.56309
0.56309
0.56309
0.56309
0.56309
0.563091
0.563091
0.563091
0.563091
0.563091
0.563091
0.563091
0.563091
0.563091
0.563091
0.563092
0.563092
0.563092
0.563092
0.563092
0.563092
0.563092
0.563093
0.563093
0.563093
0.563093
0.563093
0.563093
0.563093
0.563093
0.563094
0.563094
0.563094
0.563094
0.563094
0.563094
0.563094
0.563095
0.563095
0.563095
0.563095
0.563095
0.563095
0.563095
0.563095
0.563096
0.563096
0.563096
0.563096
0.563096
0.563096
0.563096
0.563097
0.563097
0.563097
0.563097
0.563097
0.563097
0.563097
0.563098
0.563098
0.563098
0.563098
0.563098
0.563098
0.563099
0.563099
0.563099
0.563099
0.563099
0.563099
0.5631
0.5631
0.5631
0.5631
0.5631
0.5631
0.563101
0.563101
0.563101
0.563101
0.563101
0.563101
0.563101
0.563102
0.563102
0.563102
0.563102
0.563102
0.563103
0.563103
0.563103
0.563103
0.563103
0.563103
0.563104
0.563104
0.563104
0.563104
0.563104
0.563105
0.563105
0.563105
0.563105
0.563105
0.563106
0.563106
0.563106
0.563106
0.563106
0.563107
0.563107
0.563107
0.563107
0.563107
0.563108
0.563108
0.563108
0.563108
0.563108
0.563109
0.563109
0.563109
0.563109
0.563109
0.56311
0.56311
0.56311
0.56311
0.56311
0.563111
0.563111
0.563111
0.563111
0.563111
0.563112
0.563112
0.563112
0.563112
0.563113
0.563113
0.563113
0.563113
0.563113
0.563114
0.563114
0.563114
0.563114
0.563114
0.563115
0.563115
0.563115
0.563116
0.563116
0.563116
0.563116
0.563117
0.563117
0.563117
0.563117
0.563117
0.563118
0.563118
0.563118
0.563118
0.563119
0.563119
0.563119
0.563119
0.56312
0.56312
0.56312
0.56312
0.56312
0.563121
0.563121
0.563121
0.563122
0.563122
0.563122
0.563122
0.563123
0.563123
0.563123
0.563123
0.563124
0.563124
0.563124
0.563124
0.563125
0.563125
0.563125
0.563126
0.563126
0.563126
0.563126
0.563127
0.563127
0.563127
0.563127
0.563128
0.563128
0.563128
0.563128
0.563129
0.563129
0.563129
0.56313
0.56313
0.56313
0.56313
0.563131
0.563131
0.563131
0.563131
0.563132
0.563132
0.563132
0.563132
0.563133
0.563133
0.563134
0.563134
0.563134
0.563134
0.563135
0.563135
0.563135
0.563135
0.563136
0.563136
0.563136
0.563137
0.563137
0.563137
0.563138
0.563138
0.563138
0.563138
0.563139
0.563139
0.563139
0.56314
0.56314
0.56314
0.563141
0.563141
0.563141
0.563141
0.563142
0.563142
0.563143
0.563143
0.563143
0.563143
0.563144
0.563144
0.563145
0.563145
0.563145
0.563145
0.563146
0.563146
0.563146
0.563147
0.563147
0.563147
0.563148
0.563148
0.563148
0.563149
0.563149
0.563149
0.563149
0.56315
0.56315
0.563151
0.563151
0.563151
0.563152
0.563152
0.563152
0.563153
0.563153
0.563153
0.563154
0.563154
0.563155
0.563155
0.563155
0.563155
0.563156
0.563156
0.563156
0.563157
0.563157
0.563158
0.563158
0.563158
0.563159
0.563159
0.563159
0.56316
0.56316
0.56316
0.563161
0.563161
0.563162
0.563162
0.563162
0.563163
0.563163
0.563164
0.563164
0.563164
0.563164
0.563165
0.563165
0.563165
0.563166
0.563166
0.563167
0.563167
0.563167
0.563168
0.563168
0.563169
0.563169
0.563169
0.56317
0.56317
0.563171
0.563171
0.563171
0.563172
0.563172
0.563173
0.563173
0.563173
0.563174
0.563174
0.563175
0.563175
0.563175
0.563176
0.563176
0.563177
0.563177
0.563177
0.563178
0.563178
0.563179
0.563179
0.563179
0.56318
0.56318
0.563181
0.563181
0.563181
0.563182
0.563182
0.563183
0.563183
0.563183
0.563184
0.563184
0.563185
0.563185
0.563185
0.563186
0.563186
0.563187
0.563187
0.563187
0.563188
0.563188
0.563189
0.563189
0.563189
0.56319
0.56319
0.563191
0.563192
0.563192
0.563192
0.563193
0.563193
0.563194
0.563194
0.563194
0.563195
0.563195
0.563196
0.563196
0.563196
0.563197
0.563198
0.563198
0.563198
0.563199
0.563199
0.5632
0.5632
0.5632
0.563201
0.563202
0.563202
0.563203
0.563203
0.563203
0.563204
0.563204
0.563205
0.563205
0.563206
0.563206
0.563207
0.563207
0.563207
0.563208
0.563208
0.563209
0.56321
0.56321
0.56321
0.563211
0.563211
0.563212
0.563212
0.563213
0.563213
0.563214
0.563214
0.563214
0.563215
0.563216
0.563216
0.563217
0.563217
0.563217
0.563218
0.563219
0.563219
0.563219
0.56322
0.56322
0.563221
0.563222
0.563222
0.563222
0.563223
0.563224
0.563224
0.563224
0.563225
0.563225
0.563226
0.563227
0.563227
0.563227
0.563228
0.563229
0.563229
0.563229
0.56323
0.563231
0.563231
0.563232
0.563232
0.563232
0.563233
0.563234
0.563234
0.563234
0.563235
0.563236
0.563236
0.563237
0.563237
0.563238
0.563238
0.563239
0.56324
0.56324
0.56324
0.563241
0.563242
0.563242
0.563242
0.563243
0.563244
0.563244
0.563245
0.563245
0.563246
0.563246
0.563247
0.563248
0.563248
0.563248
0.563249
0.56325
0.56325
0.56325
0.563251
0.563252
0.563252
0.563253
0.563253
0.563254
0.563254
0.563255
0.563256
0.563256
0.563257
0.563257
0.563258
0.563259
0.563259
0.563259
0.56326
0.563261
0.563262
0.563262
0.563262
0.563263
0.563264
0.563264
0.563264
0.563265
0.563266
0.563267
0.563267
0.563267
0.563268
0.563269
0.563269
0.56327
0.56327
0.563271
0.563272
0.563272
0.563273
0.563273
0.563274
0.563275
0.563275
0.563276
0.563276
0.563277
0.563278
0.563278
0.563279
0.563279
0.56328
0.563281
0.563281
0.563282
0.563282
0.563283
0.563284
0.563284
0.563285
0.563285
0.563286
0.563287
0.563287
0.563288
0.563288
0.563289
0.56329
0.56329
0.563291
0.563291
0.563292
0.563293
0.563294
0.563294
0.563294
0.563295
0.563296
0.563297
0.563297
0.563297
0.563298
0.563299
0.5633
0.563301
0.563301
0.563301
0.563302
0.563303
0.563304
0.563304
0.563305
0.563305
0.563306
0.563307
0.563307
0.563308
0.563309
0.563309
0.56331
0.56331
0.563311
0.563312
0.563313
0.563314
0.563314
0.563314
0.563315
0.563316
0.563317
0.563317
0.563318
0.563319
0.563319
0.56332
0.56332
0.563321
0.563322
0.563323
0.563324
0.563324
0.563324
0.563325
0.563326
0.563327
0.563327
0.563328
0.563329
0.563329
0.56333
0.56333
0.563331
0.563332
0.563333
0.563334
0.563334
0.563335
0.563336
0.563336
0.563337
0.563337
0.563338
0.563339
0.56334
0.563341
0.563341
0.563342
0.563342
0.563343
0.563344
0.563344
0.563345
0.563346
0.563347
0.563348
0.563348
0.563349
0.56335
0.56335
0.563351
0.563351
0.563352
0.563353
0.563354
0.563355
0.563355
0.563356
0.563357
0.563358
0.563359
0.563359
0.563359
0.56336
0.563361
0.563362
0.563362
0.563363
0.563364
0.563365
0.563366
0.563366
0.563367
0.563368
0.563369
0.56337
0.56337
0.563371
0.563372
0.563372
0.563373
0.563373
0.563374
0.563375
0.563376
0.563377
0.563377
0.563378
0.563379
0.56338
0.563381
0.563381
0.563382
0.563383
0.563384
0.563385
0.563385
0.563386
0.563387
0.563388
0.563389
0.563389
0.56339
0.563391
0.563392
0.563393
0.563393
0.563394
0.563395
0.563396
0.563397
0.563397
0.563397
0.563398
0.563399
0.5634
0.5634
0.563401
0.563402
0.563403
0.563404
0.563404
0.563405
0.563406
0.563407
0.563408
0.563408
0.563409
0.56341
0.563411
0.563412
0.563412
0.563413
0.563414
0.563415
0.563417
0.563417
0.563418
0.563419
0.56342
0.563421
0.563421
0.563422
0.563423
0.563424
0.563425
0.563425
0.563426
0.563427
0.563428
0.563429
0.563429
0.56343
0.563431
0.563432
0.563433
0.563433
0.563434
0.563435
0.563436
0.563437
0.563437
0.563438
0.56344
0.563441
0.563442
0.563442
0.563443
0.563444
0.563445
0.563446
0.563446
0.563447
0.563448
0.563449
0.56345
0.56345
0.563451
0.563452
0.563454
0.563455
0.563455
0.563456
0.563457
0.563458
0.563459
0.563459
0.56346
0.563461
0.563462
0.563463
0.563463
0.563464
0.563466
0.563467
0.563468
0.563468
0.563469
0.56347
0.563471
0.563472
0.563472
0.563473
0.563475
0.563476
0.563477
0.563477
0.563478
0.563479
0.56348
0.563481
0.563481
0.563482
0.563484
0.563485
0.563486
0.563486
0.563487
0.563488
0.563489
0.56349
0.56349
0.563492
0.563493
0.563494
0.563495
0.563495
0.563496
0.563497
0.563499
0.5635
0.5635
0.563501
0.563502
0.563503
0.563505
0.563505
0.563506
0.563507
0.563508
0.563509
0.563509
0.56351
0.563512
0.563513
0.563514
0.563514
0.563515
0.563516
0.563518
0.563519
0.563519
0.56352
0.563521
0.563522
0.563524
0.563524
0.563525
0.563526
0.563527
0.563529
0.563529
0.56353
0.563531
0.563532
0.563533
0.563533
0.563535
0.563536
0.563537
0.563538
0.563538
0.56354
0.563541
0.563542
0.563543
0.563543
0.563545
0.563546
0.563547
0.563548
0.563548
0.56355
0.563551
0.563552
0.563553
0.563553
0.563555
0.563556
0.563557
0.563559
0.563559
0.56356
0.563561
0.563562
0.563564
0.563564
0.563565
0.563566
0.563568
0.563569
0.563569
0.56357
0.563571
0.563573
0.563574
0.563574
0.563575
0.563577
0.563578
0.563579
0.563579
0.563581
0.563582
0.563583
0.563585
0.563585
0.563586
0.563587
0.563588
0.56359
0.56359
0.563591
0.563592
0.563594
0.563595
0.563595
0.563596
0.563598
0.563599
0.5636
0.5636
0.563602
0.563603
0.563604
0.563606
0.563606
0.563607
0.563609
0.56361
0.563611
0.563611
0.563613
0.563614
0.563615
0.563617
0.563617
0.563618
0.56362
0.563621
0.563622
0.563622
0.563624
0.563625
0.563626
0.563628
0.563628
0.563629
0.563631
0.563632
0.563633
0.563633
0.563635
0.563636
0.563638
0.563639
0.563639
0.563641
0.563642
0.563643
0.563645
0.563645
0.563646
0.563648
0.563649
0.56365
0.56365
0.563652
0.563653
0.563655
0.563656
0.563656
0.563658
0.563659
0.563661
0.563662
0.563662
0.563663
0.563665
0.563666
0.563668
0.563668
0.563669
0.563671
0.563672
0.563674
0.563674
0.563675
0.563677
0.563678
0.56368
0.56368
0.563681
0.563683
0.563684
0.563686
0.563686
0.563687
0.563689
0.56369
0.563692
0.563692
0.563693
0.563695
0.563696
0.563698
0.563698
0.563699
0.563701
0.563702
0.563704
0.563704
0.563705
0.563707
0.563708
0.56371
0.56371
0.563711
0.563713
0.563714
0.563716
0.563716
0.563717
0.563719
0.56372
0.563722
0.563722
0.563724
0.563725
0.563727
0.563728
0.563728
0.56373
0.563731
0.563733
0.563734
0.563734
0.563736
0.563738
0.563739
0.563741
0.563741
0.563742
0.563744
0.563746
0.563747
0.563747
0.563749
0.56375
0.563752
0.563754
0.563754
0.563755
0.563757
0.563758
0.56376
0.56376
0.563762
0.563763
0.563765
0.563767
0.563767
0.563768
0.56377
0.563771
0.563773
0.563773
0.563775
0.563776
0.563778
0.56378
0.56378
0.563781
0.563783
0.563785
0.563786
0.563786
0.563788
0.56379
0.563791
0.563793
0.563793
0.563795
0.563796
0.563798
0.5638
0.5638
0.563801
0.563803
0.563805
0.563806
0.563806
0.563808
0.56381
0.563811
0.563813
0.563813
0.563815
0.563816
0.563818
0.56382
0.56382
0.563822
0.563823
0.563825
0.563827
0.563827
0.563828
0.56383
0.563832
0.563834
0.563834
0.563835
0.563837
0.563839
0.563841
0.563841
0.563842
0.563844
0.563846
0.563848
0.563848
0.563849
0.563851
0.563853
0.563855
0.563855
0.563857
0.563858
0.56386
0.563862
0.563862
0.563864
0.563865
0.563867
0.563869
0.563869
0.563871
0.563873
0.563874
0.563876
0.563876
0.563878
0.56388
0.563882
0.563883
0.563883
0.563885
0.563887
0.563889
0.563891
0.563891
0.563892
0.563894
0.563896
0.563898
0.563898
0.5639
0.563902
0.563904
0.563905
0.563905
0.563907
0.563909
0.563911
0.563913
0.563913
0.563915
0.563917
0.563918
0.56392
0.56392
0.563922
0.563924
0.563926
0.563928
0.563928
0.56393
0.563932
0.563934
0.563935
0.563935
0.563937
0.563939
0.563941
0.563943
0.563943
0.563945
0.563947
0.563949
0.563951
0.563951
0.563953
0.563955
0.563956
0.563958
0.563958
0.56396
0.563962
0.563964
0.563966
0.563966
0.563968
0.56397
0.563972
0.563974
0.563974
0.563976
0.563978
0.56398
0.563982
0.563982
0.563984
0.563986
0.563988
0.56399
0.56399
0.563992
0.563994
0.563996
0.563998
0.563998
0.564
0.564002
0.564004
0.564006
0.564006
0.564008
0.56401
0.564012
0.564014
0.564014
0.564016
0.564018
0.56402
0.564022
0.564022
0.564024
0.564026
0.564028
0.56403
0.56403
0.564032
0.564034
0.564036
0.564039
0.564039
0.564041
0.564043
0.564045
0.564047
0.564047
0.564049
0.564051
0.564053
0.564055
0.564055
0.564057
0.56406
0.564062
0.564064
0.564064
0.564066
0.564068
0.56407
0.564072
0.564072
0.564074
0.564076
0.564079
0.564081
0.564081
0.564083
0.564085
0.564087
0.564089
0.564089
0.564091
0.564094
0.564096
0.564098
0.564098
0.5641
0.564102
0.564104
0.564107
0.564107
0.564109
0.564111
0.564113
0.564115
0.564115
0.564118
0.56412
0.564122
0.564124
0.564124
0.564126
0.564129
0.564131
0.564133
0.564133
0.564135
0.564138
0.56414
0.564142
0.564142
0.564144
0.564146
0.564149
0.564151
0.564151
0.564153
0.564155
0.564158
0.56416
0.56416
0.564162
0.564165
0.564167
0.564169
0.564169
0.564171
0.564174
0.564176
0.564178
0.564178
0.56418
0.564183
0.564185
0.564187
0.564187
0.56419
0.564192
0.564194
0.564197
0.564197
0.564199
0.564201
0.564204
0.564206
0.564206
0.564208
0.564211
0.564213
0.564215
0.564215
0.564218
0.56422
0.564223
0.564225
0.564225
0.564227
0.56423
0.564232
0.564234
0.564234
0.564237
0.564239
0.564242
0.564244
0.564244
0.564246
0.564249
0.564251
0.564254
0.564254
0.564256
0.564258
0.564261
0.564263
0.564263
0.564266
0.564268
0.564271
0.564273
0.564273
0.564276
0.564278
0.56428
0.564283
0.564283
0.564285
0.564288
0.56429
0.564293
0.564293
0.564295
0.564298
0.5643
0.564303
0.564303
0.564305
0.564308
0.56431
0.564313
0.564313
0.564315
0.564318
0.56432
0.564323
0.564323
0.564326
0.564328
0.564331
0.564333
0.564333
0.564336
0.564338
0.564341
0.564343
0.564343
0.564346
0.564348
0.564351
0.564354
0.564354
0.564356
0.564359
0.564361
0.564364
0.564364
0.564367
0.564369
0.564372
0.564374
0.564374
0.564377
0.56438
0.564382
0.564385
0.564385
0.564388
0.56439
0.564393
0.564396
0.564396
0.564398
0.564401
0.564404
0.564406
0.564406
0.564409
0.564412
0.564414
0.564417
0.564417
0.56442
0.564422
0.564425
0.564428
0.564428
0.56443
0.564433
0.564436
0.564438
0.564438
0.564441
0.564444
0.564447
0.564449
0.564449
0.564452
0.564455
0.564458
0.56446
0.56446
0.564463
0.564466
0.564469
0.564472
0.564472
0.564474
0.564477
0.56448
0.564483
0.564483
0.564485
0.564488
0.564491
0.564494
0.564494
0.564497
0.5645
0.564502
0.564505
0.564505
0.564508
0.564511
0.564514
0.564517
0.564517
0.564519
0.564522
0.564525
0.564528
0.564528
0.564531
0.564534
0.564537
0.564539
0.564539
0.564542
0.564545
0.564548
0.564551
0.564551
0.564554
0.564557
0.56456
0.564563
0.564563
0.564566
0.564569
0.564572
0.564575
0.564575
0.564577
0.56458
0.564583
0.564586
0.564586
0.564589
0.564592
0.564595
0.564598
0.564598
0.564601
0.564604
0.564607
0.56461
0.56461
0.564613
0.564616
0.564619
0.564622
0.564622
0.564625
0.564628
0.564631
0.564634
0.564634
0.564637
0.56464
0.564644
0.564647
0.564647
0.56465
0.564653
0.564656
0.564659
0.564659
0.564662
0.564665
0.564668
0.564671
0.564671
0.564674
0.564678
0.564681
0.564684
0.564684
0.564687
0.56469
0.564693
0.564696
0.564696
0.564699
0.564703
0.564706
0.564709
0.564709
0.564712
0.564715
0.564718
0.564722
0.564722
0.564725
0.564728
0.564731
0.564734
0.564734
0.564738
0.564741
0.564744
0.564747
0.564747
0.564751
0.564754
0.564757
0.56476
0.56476
0.564764
0.564767
0.56477
0.564773
0.564773
0.564777
0.56478
0.564783
0.564787
0.564787
0.56479
0.564793
0.564797
0.5648
0.5648
0.564803
0.564806
0.56481
0.564813
0.564813
0.564816
0.56482
0.564823
0.564827
0.564827
0.56483
0.564833
0.564837
0.56484
0.56484
0.564843
0.564847
0.56485
0.564854
0.564854
0.564857
0.564861
0.564864
0.564867
0.564867
0.564871
0.564874
0.564878
0.564881
0.564881
0.564885
0.564888
0.564892
0.564895
0.564895
0.564899
0.564902
0.564906
0.564909
0.564909
0.564913
0.564916
0.56492
0.564923
0.564923
0.564927
0.56493
0.564934
0.564937
0.564937
0.564941
0.564944
0.564948
0.564952
0.564952
0.564955
0.564959
0.564962
0.564966
0.564966
0.56497
0.564973
0.564977
0.56498
0.56498
0.564984
0.564988
0.564991
0.564995
0.564995
0.564999
0.565002
0.565006
0.56501
0.56501
0.565013
0.565017
0.565021
0.565024
0.565024
0.565028
0.565032
0.565035
0.565039
0.565039
0.565043
0.565047
0.56505
0.565054
0.565054
0.565058
0.565062
0.565065
0.565069
0.565069
0.565073
0.565077
0.565081
0.565084
0.565084
0.565088
0.565092
0.565096
0.5651
0.5651
0.565104
0.565107
0.565111
0.565115
0.565115
0.565119
0.565123
0.565127
0.56513
0.56513
0.565134
0.565138
0.565142
0.565146
0.565146
0.56515
0.565154
0.565158
0.565162
0.565162
0.565166
0.56517
0.565174
0.565178
0.565178
0.565182
0.565186
0.56519
0.565194
0.565194
0.565198
0.565202
0.565206
0.56521
0.56521
0.565214
0.565218
0.565222
0.565226
0.565226
0.56523
0.565234
0.565238
0.565242
0.565242
0.565246
0.56525
0.565254
0.565258
0.565258
0.565262
0.565266
0.565271
0.565275
0.565275
0.565279
0.565283
0.565287
0.565291
0.565291
0.565296
0.5653
0.565304
0.565308
0.565308
0.565312
0.565316
0.565321
0.565325
0.565325
0.565329
0.565333
0.565338
0.565342
0.565342
0.565346
0.56535
0.565355
0.565359
0.565359
0.565363
0.565367
0.565372
0.565376
0.565376
0.56538
0.565385
0.565389
0.565393
0.565393
0.565398
0.565402
0.565406
0.565411
0.565411
0.565415
0.56542
0.565424
0.565428
0.565428
0.565433
0.565437
0.565442
0.565446
0.565446
0.56545
0.565455
0.565459
0.565464
0.565464
0.565468
0.565473
0.565477
0.565482
0.565482
0.565486
0.565491
0.565495
0.5655
0.5655
0.565504
0.565509
0.565513
0.565518
0.565518
0.565522
0.565527
0.565532
0.565536
0.565536
0.565541
0.565545
0.56555
0.565555
0.565555
0.565559
0.565564
0.565569
0.565573
0.565573
0.565578
0.565582
0.565587
0.565592
0.565592
0.565596
0.565601
0.565606
0.565611
0.565611
0.565615
0.56562
0.565625
0.56563
0.56563
0.565634
0.565639
0.565644
0.565649
0.565649
0.565654
0.565658
0.565663
0.565668
0.565668
0.565673
0.565678
0.565682
0.565687
0.565687
0.565692
0.565697
0.565702
0.565707
0.565707
0.565712
0.565717
0.565721
0.565726
0.565726
0.565731
0.565736
0.565741
0.565746
0.565746
0.565751
0.565756
0.565761
0.565766
0.565766
0.565771
0.565776
0.565781
0.565786
0.565786
0.565791
0.565796
0.565801
0.565806
0.565806
0.565812
0.565817
0.565822
0.565827
0.565827
0.565832
0.565837
0.565842
0.565847
0.565847
0.565852
0.565858
0.565863
0.565868
0.565868
0.565873
0.565878
0.565884
0.565889
0.565889
0.565894
0.565899
0.565905
0.56591
0.56591
0.565915
0.56592
0.565926
0.565931
0.565931
0.565936
0.565941
0.565947
0.565952
0.565952
0.565957
0.565963
0.565968
0.565973
0.565973
0.565979
0.565984
0.56599
0.565995
0.565995
0.566
0.566006
0.566011
0.566017
0.566017
0.566022
0.566028
0.566033
0.566039
0.566039
0.566044
0.56605
0.566055
0.566061
0.566061
0.566066
0.566072
0.566077
0.566083
0.566083
0.566089
0.566094
0.5661
0.566105
0.566105
0.566111
0.566117
0.566122
0.566128
0.566128
0.566134
0.566139
0.566145
0.566151
0.566151
0.566156
0.566162
0.566168
0.566174
0.566174
0.566179
0.566185
0.566191
0.566197
0.566197
0.566202
0.566208
0.566214
0.56622
0.56622
0.566226
0.566231
0.566237
0.566243
0.566243
0.566249
0.566255
0.566261
0.566267
0.566267
0.566273
0.566278
0.566284
0.56629
0.56629
0.566296
0.566302
0.566308
0.566314
0.566314
0.56632
0.566326
0.566332
0.566338
0.566338
0.566345
0.566351
0.566357
0.566363
0.566363
0.566369
0.566375
0.566381
0.566387
0.566387
0.566393
0.566399
0.566406
0.566412
0.566412
0.566418
0.566424
0.56643
0.566437
0.566437
0.566443
0.566449
0.566455
0.566462
0.566462
0.566468
0.566474
0.566481
0.566487
0.566487
0.566493
0.5665
0.566506
0.566512
0.566512
0.566519
0.566525
0.566531
0.566538
0.566538
0.566544
0.566551
0.566557
0.566564
0.566564
0.56657
0.566576
0.566583
0.566589
0.566589
0.566596
0.566603
0.566609
0.566616
0.566616
0.566622
0.566629
0.566635
0.566642
0.566642
0.566649
0.566655
0.566662
0.566669
0.566669
0.566675
0.566682
0.566689
0.566695
0.566695
0.566702
0.566709
0.566716
0.566722
0.566722
0.566729
0.566736
0.566743
0.566749
0.566749
0.566756
0.566763
0.56677
0.566777
0.566777
0.566784
0.566791
0.566798
0.566805
0.566805
0.566811
0.566818
0.566825
0.566832
0.566832
0.566839
0.566846
0.566853
0.56686
0.56686
0.566867
0.566874
0.566881
0.566888
0.566888
0.566896
0.566903
0.56691
0.566917
0.566917
0.566924
0.566931
0.566938
0.566946
0.566946
0.566953
0.56696
0.566967
0.566975
0.566975
0.566982
0.566989
0.566996
0.567004
0.567004
0.567011
0.567018
0.567026
0.567033
0.567033
0.56704
0.567048
0.567055
0.567062
0.567062
0.56707
0.567077
0.567085
0.567092
0.567092
0.5671
0.567107
0.567115
0.567122
0.567122
0.56713
0.567137
0.567145
0.567153
0.567153
0.56716
0.567168
0.567175
0.567183
0.567183
0.567191
0.567198
0.567206
0.567214
0.567214
0.567221
0.567229
0.567237
0.567245
0.567245
0.567253
0.56726
0.567268
0.567276
0.567276
0.567284
0.567292
0.5673
0.567308
0.567308
0.567315
0.567323
0.567331
0.567339
0.567339
0.567347
0.567355
0.567363
0.567371
0.567371
0.567379
0.567387
0.567395
0.567403
0.567403
0.567411
0.567419
0.567428
0.567436
0.567436
0.567444
0.567452
0.56746
0.567469
0.567469
0.567477
0.567485
0.567493
0.567502
0.567502
0.56751
0.567518
0.567526
0.567535
0.567535
0.567543
0.567551
0.56756
0.567568
0.567568
0.567577
0.567585
0.567593
0.567602
0.567602
0.56761
0.567619
0.567628
0.567636
0.567636
0.567645
0.567653
0.567662
0.56767
0.56767
0.567679
0.567688
0.567696
0.567705
0.567705
0.567714
0.567722
0.567731
0.56774
0.56774
0.567749
0.567757
0.567766
0.567775
0.567775
0.567784
0.567793
0.567801
0.56781
0.56781
0.567819
0.567828
0.567837
0.567846
0.567846
0.567855
0.567864
0.567873
0.567882
0.567882
0.567891
0.5679
0.567909
0.567918
0.567918
0.567927
0.567937
0.567946
0.567955
0.567955
0.567964
0.567973
0.567983
0.567992
0.567992
0.568001
0.56801
0.56802
0.568029
0.568029
0.568038
0.568048
0.568057
0.568067
0.568067
0.568076
0.568085
0.568095
0.568104
0.568104
0.568114
0.568123
0.568133
0.568142
0.568142
0.568152
0.568161
0.568171
0.568181
0.568181
0.56819
0.5682
0.56821
0.568219
0.568219
0.568229
0.568239
0.568249
0.568259
0.568259
0.568268
0.568278
0.568288
0.568298
0.568298
0.568308
0.568318
0.568328
0.568337
0.568337
0.568347
0.568357
0.568367
0.568377
0.568377
0.568387
0.568398
0.568408
0.568418
0.568418
0.568428
0.568438
0.568448
0.568458
0.568458
0.568469
0.568479
0.568489
0.568499
0.568499
0.56851
0.56852
0.56853
0.568541
0.568541
0.568551
0.568562
0.568572
0.568582
0.568582
0.568593
0.568603
0.568614
0.568624
0.568624
0.568635
0.568646
0.568656
0.568667
0.568667
0.568677
0.568688
0.568699
0.56871
0.56871
0.56872
0.568731
0.568742
0.568753
0.568753
0.568763
0.568774
0.568785
0.568796
0.568796
0.568807
0.568818
0.568829
0.56884
0.56884
0.568851
0.568862
0.568873
0.568884
0.568884
0.568895
0.568906
0.568917
0.568928
0.568928
0.56894
0.568951
0.568962
0.568973
0.568973
0.568985
0.568996
0.569007
0.569019
0.569019
0.56903
0.569041
0.569053
0.569064
0.569064
0.569076
0.569087
0.569099
0.56911
0.56911
0.569122
0.569133
0.569145
0.569157
0.569157
0.569168
0.56918
0.569192
0.569204
0.569204
0.569215
0.569227
0.569239
0.569251
0.569251
0.569263
0.569274
0.569286
0.569298
0.569298
0.56931
0.569322
0.569334
0.569346
0.569346
0.569358
0.56937
0.569383
0.569395
0.569395
0.569407
0.569419
0.569431
0.569444
0.569444
0.569456
0.569468
0.56948
0.569493
0.569493
0.569505
0.569518
0.56953
0.569542
0.569542
0.569555
0.569567
0.56958
0.569592
0.569592
0.569605
0.569618
0.56963
0.569643
0.569643
0.569656
0.569668
0.569681
0.569694
0.569694
0.569707
0.56972
0.569732
0.569745
0.569745
0.569758
0.569771
0.569784
0.569797
0.569797
0.56981
0.569823
0.569836
0.569849
0.569849
0.569862
0.569876
0.569889
0.569902
0.569902
0.569915
0.569929
0.569942
0.569955
0.569955
0.569969
0.569982
0.569995
0.570009
0.570009
0.570022
0.570036
0.570049
0.570063
0.570063
0.570076
0.57009
0.570104
0.570117
0.570117
0.570131
0.570145
0.570159
0.570172
0.570172
0.570186
0.5702
0.570214
0.570228
0.570228
0.570242
0.570256
0.57027
0.570284
0.570284
0.570298
0.570312
0.570326
0.57034
0.57034
0.570354
0.570369
0.570383
0.570397
0.570397
0.570412
0.570426
0.57044
0.570455
0.570455
0.570469
0.570484
0.570498
0.570513
0.570513
0.570527
0.570542
0.570556
0.570571
0.570571
0.570586
0.5706
0.570615
0.57063
0.57063
0.570645
0.57066
0.570674
0.570689
0.570689
0.570704
0.570719
0.570734
0.570749
0.570749
0.570764
0.57078
0.570795
0.57081
0.57081
0.570825
0.57084
0.570856
0.570871
0.570871
0.570886
0.570902
0.570917
0.570932
0.570932
0.570948
0.570963
0.570979
0.570995
0.570995
0.57101
0.571026
0.571041
0.571057
0.571057
0.571073
0.571089
0.571105
0.57112
0.57112
0.571136
0.571152
0.571168
0.571184
0.571184
0.5712
0.571216
0.571232
0.571248
0.571248
0.571265
0.571281
0.571297
0.571313
0.571313
0.57133
0.571346
0.571362
0.571379
0.571379
0.571395
0.571412
0.571428
0.571445
0.571445
0.571461
0.571478
0.571495
0.571511
0.571511
0.571528
0.571545
0.571562
0.571578
0.571578
0.571595
0.571612
0.571629
0.571646
0.571646
0.571663
0.57168
0.571698
0.571715
0.571715
0.571732
0.571749
0.571766
0.571784
0.571784
0.571801
0.571818
0.571836
0.571853
0.571853
0.571871
0.571888
0.571906
0.571923
0.571923
0.571941
0.571959
0.571976
0.571994
0.571994
0.572012
0.57203
0.572048
0.572066
0.572066
0.572084
0.572102
0.57212
0.572138
0.572138
0.572156
0.572174
0.572192
0.57221
0.57221
0.572229
0.572247
0.572265
0.572284
0.572284
0.572302
0.572321
0.572339
0.572358
0.572358
0.572377
0.572395
0.572414
0.572433
0.572433
0.572451
0.57247
0.572489
0.572508
0.572508
0.572527
0.572546
0.572565
0.572584
0.572584
0.572603
0.572622
0.572641
0.572661
0.572661
0.57268
0.572699
0.572719
0.572738
0.572738
0.572758
0.572777
0.572797
0.572816
0.572816
0.572836
0.572855
0.572875
0.572895
0.572895
0.572915
0.572935
0.572954
0.572974
0.572974
0.572994
0.573014
0.573035
0.573055
0.573055
0.573075
0.573095
0.573115
0.573136
0.573136
0.573156
0.573176
0.573197
0.573217
0.573217
0.573238
0.573258
0.573279
0.573299
0.573299
0.57332
0.573341
0.573362
0.573383
0.573383
0.573404
0.573424
0.573445
0.573466
0.573466
0.573488
0.573509
0.57353
0.573551
0.573551
0.573572
0.573594
0.573615
0.573636
0.573636
0.573658
0.573679
0.573701
0.573722
0.573722
0.573744
0.573766
0.573788
0.573809
0.573809
0.573831
0.573853
0.573875
0.573897
0.573897
0.573919
0.573941
0.573963
0.573985
0.573985
0.574008
0.57403
0.574052
0.574075
0.574075
0.574097
0.57412
0.574142
0.574165
0.574165
0.574187
0.57421
0.574233
0.574256
0.574256
0.574279
0.574301
0.574324
0.574347
0.574347
0.57437
0.574393
0.574417
0.57444
0.57444
0.574463
0.574486
0.57451
0.574533
0.574533
0.574557
0.57458
0.574604
0.574627
0.574627
0.574651
0.574675
0.574698
0.574722
0.574722
0.574746
0.57477
0.574794
0.574818
0.574818
0.574842
0.574866
0.57489
0.574915
0.574915
0.574939
0.574963
0.574988
0.575012
0.575012
0.575037
0.575062
0.575086
0.575111
0.575111
0.575136
0.57516
0.575185
0.57521
0.57521
0.575235
0.57526
0.575285
0.57531
0.57531
0.575335
0.575361
0.575386
0.575411
0.575411
0.575437
0.575462
0.575488
0.575513
0.575513
0.575539
0.575565
0.575591
0.575616
0.575616
0.575642
0.575668
0.575694
0.57572
0.57572
0.575746
0.575772
0.575799
0.575825
0.575825
0.575851
0.575878
0.575904
0.575931
0.575931
0.575957
0.575984
0.576011
0.576037
0.576037
0.576064
0.576091
0.576118
0.576145
0.576145
0.576172
0.576199
0.576226
0.576253
0.576253
0.576281
0.576308
0.576336
0.576363
0.576363
0.576391
0.576418
0.576446
0.576474
0.576474
0.576501
0.576529
0.576557
0.576585
0.576585
0.576613
0.576641
0.576669
0.576697
0.576697
0.576726
0.576754
0.576782
0.576811
0.576811
0.576839
0.576868
0.576897
0.576925
0.576925
0.576954
0.576983
0.577012
0.577041
0.577041
0.57707
0.577099
0.577128
0.577157
0.577157
0.577187
0.577216
0.577245
0.577275
0.577275
0.577304
0.577334
0.577364
0.577393
0.577393
0.577423
0.577453
0.577483
0.577513
0.577513
0.577543
0.577573
0.577603
0.577634
0.577634
0.577664
0.577694
0.577725
0.577755
0.577755
0.577786
0.577817
0.577847
0.577878
0.577878
0.577909
0.57794
0.577971
0.578002
0.578002
0.578033
0.578064
0.578096
0.578127
0.578127
0.578158
0.57819
0.578221
0.578253
0.578253
0.578285
0.578316
0.578348
0.57838
0.57838
0.578412
0.578444
0.578476
0.578508
0.578508
0.578541
0.578573
0.578605
0.578638
0.578638
0.57867
0.578703
0.578735
0.578768
0.578768
0.578801
0.578834
0.578867
0.5789
0.5789
0.578933
0.578966
0.578999
0.579033
0.579033
0.579066
0.579099
0.579133
0.579166
0.579166
0.5792
0.579234
0.579268
0.579301
0.579301
0.579335
0.579369
0.579403
0.579438
0.579438
0.579472
0.579506
0.579541
0.579575
0.579575
0.57961
0.579644
0.579679
0.579714
0.579714
0.579748
0.579783
0.579818
0.579853
0.579853
0.579888
0.579924
0.579959
0.579994
0.579994
0.58003
0.580065
0.580101
0.580136
0.580136
0.580172
0.580208
0.580244
0.58028
0.58028
0.580316
0.580352
0.580388
0.580424
0.580424
0.58046
0.580497
0.580533
0.58057
0.58057
0.580606
0.580643
0.58068
0.580717
0.580717
0.580754
0.580791
0.580828
0.580865
0.580865
0.580902
0.58094
0.580977
0.581014
0.581014
0.581052
0.58109
0.581127
0.581165
0.581165
0.581203
0.581241
0.581279
0.581317
0.581317
0.581355
0.581393
0.581432
0.58147
0.58147
0.581509
0.581547
0.581586
0.581625
0.581625
0.581663
0.581702
0.581741
0.58178
0.58178
0.581819
0.581859
0.581898
0.581937
0.581937
0.581977
0.582016
0.582056
0.582096
0.582096
0.582135
0.582175
0.582215
0.582255
0.582255
0.582295
0.582335
0.582376
0.582416
0.582416
0.582457
0.582497
0.582538
0.582578
0.582578
0.582619
0.58266
0.582701
0.582742
0.582742
0.582783
0.582824
0.582865
0.582907
0.582907
0.582948
0.582989
0.583031
0.583073
0.583073
0.583114
0.583156
0.583198
0.58324
0.58324
0.583282
0.583324
0.583367
0.583409
0.583409
0.583451
0.583494
0.583536