<?xml version="1.0"?>
<VTKFile type="UnstructuredGrid" version="0.1" byte_order="LittleEndian">
<UnstructuredGrid>
<Piece NumberOfPoints="5000" NumberOfCells="4000">
<PointData Scalars="Reaction 0">
<DataArray type="Float32" Name="Reaction 0" format="ascii">
0.563249
0.563249
0.563249
0.563249
0.563249
0.563249
0.563249
0.56325
0.56325
0.56325
0.56325
0.56325
0.56325
0.56325
0.56325
0.56325
0.56325
0.56325
0.56325
0.56325
0.56325
0.56325
0.56325
0.56325
0.56325
0.56325
0.56325
0.56325
0.56325
0.56325
0.56325
0.56325
0.56325
0.56325
0.56325
0.56325
0.56325
0.56325
0.56325
0.56325
0.56325
0.56325
0.56325
0.56325
0.56325
0.56325
0.56325
0.56325
0.563251
0.563251
0.563251
0.563251
0.563251
0.563251
0.563251
0.563251
0.563251
0.563251
0.563251
0.563251
0.563251
0.563251
0.563251
0.563251
0.563251
0.563251
0.563251
0.563252
0.563252
0.563252
0.563252
0.563252
0.563252
0.563252
0.563252
0.563252
0.563252
0.563252
0.563252
0.563252
0.563252
0.563252
0.563253
0.563253
0.563253
0.563253
0.563253
0.563253
0.563253
0.563253
0.563253
0.563253
0.563253
0.563253
0.563253
0.563253
0.563254
0.563254
0.563254
0.563254
0.563254
0.563254
0.563254
0.563254
0.563254
0.563254
0.563255
0.563255
0.563255
0.563255
0.563255
0.563255
0.563255
0.563255
0.563255
0.563255
0.563255
0.563256
0.563256
0.563256
0.563256
0.563256
0.563256
0.563256
0.563256
0.563256
0.563257
0.563257
0.563257
0.563257
0.563257
0.563257
0.563257
0.563257
0.563258
0.563258
0.563258
0.563258
0.563258
0.563258
0.563258
0.563258
0.563259
0.563259
0.563259
0.563259
0.563259
0.563259
0.563259
0.563259
0.563259
0.56326
0.56326
0.56326
0.56326
0.56326
0.56326
0.563261
0.563261
0.563261
0.563261
0.563261
0.563261
0.563261
0.563262
0.563262
0.563262
0.563262
0.563262
0.563262
0.563262
0.563263
0.563263
0.563263
0.563263
0.563263
0.563263
0.563264
0.563264
0.563264
0.563264
0.563264
0.563264
0.563265
0.563265
0.563265
0.563265
0.563265
0.563265
0.563266
0.563266
0.563266
0.563266
0.563266
0.563266
0.563266
0.563267
0.563267
0.563267
0.563267
0.563267
0.563268
0.563268
0.563268
0.563268
0.563268
0.563268
0.563269
0.563269
0.563269
0.563269
0.563269
0.56327
0.56327
0.56327
0.56327
0.56327
0.563271
0.563271
0.563271
0.563271
0.563271
0.563272
0.563272
0.563272
0.563272
0.563272
0.563273
0.563273
0.563273
0.563273
0.563273
0.563274
0.563274
0.563274
0.563274
0.563274
0.563275
0.563275
0.563275
0.563275
0.563276
0.563276
0.563276
0.563276
0.563276
0.563277
0.563277
0.563277
0.563277
0.563277
0.563278
0.563278
0.563278
0.563279
0.563279
0.563279
0.563279
0.563279
0.56328
0.56328
0.56328
0.56328
0.563281
0.563281
0.563281
0.563281
0.563282
0.563282
0.563282
0.563282
0.563282
0.563283
0.563283
0.563283
0.563283
0.563284
0.563284
0.563284
0.563285
0.563285
0.563285
0.563285
0.563286
0.563286
0.563286
0.563286
0.563287
0.563287
0.563287
0.563287
0.563288
0.563288
0.563288
0.563289
0.563289
0.563289
0.563289
0.56329
0.56329
0.56329
0.56329
0.563291
0.563291
0.563291
0.563291
0.563292
0.563292
0.563292
0.563293
0.563293
0.563293
0.563293
0.563294
0.563294
0.563294
0.563294
0.563295
0.563295
0.563295
0.563295
0.563296
0.563296
0.563297
0.563297
0.563297
0.563297
0.563298
0.563298
0.563298
0.563298
0.563299
0.563299
0.5633
0.5633
0.5633
0.5633
0.563301
0.563301
0.563301
0.563301
0.563302
0.563302
0.563303
0.563303
0.563303
0.563303
0.563304
0.563304
0.563305
0.563305
0.563305
0.563305
0.563306
0.563306
0.563306
0.563307
0.563307
0.563307
0.563308
0.563308
0.563308
0.563309
0.563309
0.56331
0.56331
0.56331
0.56331
0.563311
0.563311
0.563311
0.563312
0.563312
0.563312
0.563313
0.563313
0.563313
0.563314
0.563314
0.563315
0.563315
0.563315
0.563315
0.563316
0.563316
0.563316
0.563317
0.563317
0.563318
0.563318
0.563318
0.563319
0.563319
0.563319
0.56332
0.56332
0.56332
0.563321
0.563321
0.563322
0.563322
0.563322
0.563323
0.563323
0.563324
0.563324
0.563324
0.563325
0.563325
0.563326
0.563326
0.563326
0.563326
0.563327
0.563327
0.563327
0.563328
0.563328
0.563329
0.563329
0.563329
0.56333
0.56333
0.563331
0.563331
0.563331
0.563332
0.563332
0.563333
0.563333
0.563333
0.563334
0.563334
0.563335
0.563335
0.563335
0.563336
0.563336
0.563337
0.563337
0.563337
0.563338
0.563338
0.563339
0.563339
0.563339
0.56334
0.56334
0.563341
0.563341
0.563341
0.563342
0.563342
0.563343
0.563343
0.563343
0.563344
0.563345
0.563345
0.563346
0.563346
0.563346
0.563347
0.563347
0.563348
0.563348
0.563348
0.563349
0.563349
0.56335
0.56335
0.56335
0.563351
0.563352
0.563352
0.563352
0.563353
0.563353
0.563354
0.563354
0.563354
0.563355
0.563355
0.563356
0.563357
0.563357
0.563357
0.563358
0.563358
0.563359
0.563359
0.563359
0.56336
0.563361
0.563361
0.563361
0.563362
0.563362
0.563363
0.563363
0.563363
0.563364
0.563365
0.563365
0.563366
0.563366
0.563366
0.563367
0.563368
0.563368
0.563368
0.563369
0.563369
0.56337
0.563371
0.563371
0.563371
0.563372
0.563372
0.563373
0.563373
0.563374
0.563374
0.563375
0.563375
0.563375
0.563376
0.563377
0.563377
0.563378
0.563378
0.563379
0.563379
0.56338
0.56338
0.56338
0.563381
0.563382
0.563382
0.563383
0.563383
0.563384
0.563384
0.563385
0.563386
0.563386
0.563386
0.563387
0.563388
0.563388
0.563388
0.563389
0.563389
0.56339
0.563391
0.563391
0.563391
0.563392
0.563393
0.563393
0.563393
0.563394
0.563395
0.563395
0.563396
0.563396
0.563397
0.563397
0.563398
0.563399
0.563399
0.563399
0.5634
0.563401
0.563402
0.563402
0.563402
0.563403
0.563404
0.563404
0.563404
0.563405
0.563406
0.563406
0.563407
0.563407
0.563408
0.563408
0.563409
0.56341
0.56341
0.563411
0.563411
0.563412
0.563413
0.563413
0.563413
0.563414
0.563415
0.563416
0.563416
0.563416
0.563417
0.563418
0.563418
0.563418
0.563419
0.56342
0.563421
0.563421
0.563421
0.563422
0.563423
0.563423
0.563424
0.563424
0.563425
0.563426
0.563426
0.563427
0.563427
0.563428
0.563429
0.563429
0.56343
0.56343
0.563431
0.563432
0.563432
0.563433
0.563433
0.563434
0.563435
0.563435
0.563436
0.563436
0.563437
0.563438
0.563439
0.563439
0.563439
0.56344
0.563441
0.563442
0.563442
0.563442
0.563443
0.563444
0.563445
0.563446
0.563446
0.563446
0.563447
0.563448
0.563449
0.563449
0.56345
0.56345
0.563451
0.563452
0.563452
0.563453
0.563454
0.563454
0.563455
0.563455
0.563456
0.563457
0.563458
0.563458
0.563458
0.563459
0.56346
0.563461
0.563462
0.563462
0.563463
0.563463
0.563464
0.563465
0.563465
0.563466
0.563467
0.563467
0.563468
0.563468
0.563469
0.56347
0.563471
0.563472
0.563472
0.563473
0.563473
0.563474
0.563475
0.563475
0.563476
0.563477
0.563478
0.563478
0.563478
0.563479
0.56348
0.563481
0.563482
0.563482
0.563483
0.563484
0.563485
0.563485
0.563485
0.563486
0.563487
0.563488
0.563489
0.563489
0.56349
0.563491
0.563492
0.563492
0.563492
0.563493
0.563494
0.563495
0.563496
0.563496
0.563497
0.563498
0.563499
0.5635
0.5635
0.5635
0.563501
0.563502
0.563503
0.563503
0.563504
0.563505
0.563506
0.563507
0.563507
0.563508
0.563509
0.56351
0.563511
0.563511
0.563512
0.563512
0.563513
0.563514
0.563514
0.563515
0.563516
0.563517
0.563518
0.563518
0.563519
0.56352
0.563521
0.563522
0.563522
0.563523
0.563524
0.563525
0.563526
0.563526
0.563527
0.563528
0.563529
0.56353
0.56353
0.563531
0.563531
0.563532
0.563533
0.563533
0.563534
0.563535
0.563536
0.563537
0.563537
0.563538
0.563539
0.56354
0.563541
0.563541
0.563542
0.563543
0.563544
0.563545
0.563545
0.563546
0.563547
0.563548
0.563549
0.563549
0.56355
0.563551
0.563552
0.563553
0.563553
0.563554
0.563555
0.563556
0.563557
0.563557
0.563558
0.563559
0.56356
0.563561
0.563561
0.563562
0.563563
0.563564
0.563565
0.563565
0.563567
0.563568
0.563569
0.56357
0.56357
0.563571
0.563572
0.563573
0.563574
0.563574
0.563575
0.563576
0.563577
0.563578
0.563578
0.563579
0.56358
0.563581
0.563582
0.563582
0.563583
0.563585
0.563586
0.563587
0.563587
0.563588
0.563589
0.56359
0.563591
0.563591
0.563592
0.563593
0.563594
0.563595
0.563595
0.563596
0.563598
0.563599
0.5636
0.5636
0.563601
0.563602
0.563603
0.563604
0.563604
0.563605
0.563606
0.563608
0.563609
0.563609
0.56361
0.563611
0.563612
0.563613
0.563613
0.563614
0.563615
0.563616
0.563618
0.563618
0.563619
0.56362
0.563621
0.563622
0.563622
0.563623
0.563624
0.563626
0.563627
0.563627
0.563628
0.563629
0.56363
0.563631
0.563631
0.563633
0.563634
0.563635
0.563636
0.563636
0.563637
0.563638
0.56364
0.563641
0.563641
0.563642
0.563643
0.563644
0.563646
0.563646
0.563647
0.563648
0.563649
0.56365
0.56365
0.563652
0.563653
0.563654
0.563655
0.563655
0.563656
0.563658
0.563659
0.56366
0.56366
0.563661
0.563662
0.563664
0.563665
0.563665
0.563666
0.563667
0.563669
0.56367
0.56367
0.563671
0.563672
0.563673
0.563675
0.563675
0.563676
0.563677
0.563678
0.56368
0.56368
0.563681
0.563682
0.563683
0.563685
0.563685
0.563686
0.563687
0.563688
0.56369
0.56369
0.563691
0.563692
0.563693
0.563695
0.563695
0.563696
0.563697
0.563699
0.5637
0.5637
0.563701
0.563702
0.563704
0.563705
0.563705
0.563706
0.563708
0.563709
0.56371
0.56371
0.563712
0.563713
0.563714
0.563716
0.563716
0.563717
0.563718
0.56372
0.563721
0.563721
0.563722
0.563724
0.563725
0.563726
0.563726
0.563728
0.563729
0.56373
0.563732
0.563732
0.563733
0.563734
0.563736
0.563737
0.563737
0.563738
0.56374
0.563741
0.563742
0.563742
0.563744
0.563745
0.563746
0.563748
0.563748
0.563749
0.563751
0.563752
0.563753
0.563753
0.563755
0.563756
0.563757
0.563759
0.563759
0.56376
0.563762
0.563763
0.563764
0.563764
0.563766
0.563767
0.563769
0.56377
0.56377
0.563771
0.563773
0.563774
0.563776
0.563776
0.563777
0.563779
0.56378
0.563781
0.563781
0.563783
0.563784
0.563786
0.563787
0.563787
0.563789
0.56379
0.563792
0.563793
0.563793
0.563794
0.563796
0.563797
0.563799
0.563799
0.5638
0.563802
0.563803
0.563805
0.563805
0.563806
0.563808
0.563809
0.563811
0.563811
0.563812
0.563814
0.563815
0.563817
0.563817
0.563818
0.56382
0.563821
0.563823
0.563823
0.563824
0.563826
0.563827
0.563829
0.563829
0.56383
0.563832
0.563833
0.563835
0.563835
0.563836
0.563838
0.563839
0.563841
0.563841
0.563842
0.563844
0.563845
0.563847
0.563847
0.563848
0.56385
0.563852
0.563853
0.563853
0.563855
0.563856
0.563858
0.563859
0.563859
0.563861
0.563863
0.563864
0.563866
0.563866
0.563867
0.563869
0.56387
0.563872
0.563872
0.563874
0.563875
0.563877
0.563878
0.563878
0.56388
0.563882
0.563883
0.563885
0.563885
0.563886
0.563888
0.56389
0.563891
0.563891
0.563893
0.563894
0.563896
0.563898
0.563898
0.563899
0.563901
0.563903
0.563904
0.563904
0.563906
0.563907
0.563909
0.563911
0.563911
0.563912
0.563914
0.563916
0.563917
0.563917
0.563919
0.563921
0.563922
0.563924
0.563924
0.563926
0.563928
0.563929
0.563931
0.563931
0.563933
0.563934
0.563936
0.563938
0.563938
0.563939
0.563941
0.563943
0.563945
0.563945
0.563946
0.563948
0.56395
0.563951
0.563951
0.563953
0.563955
0.563957
0.563958
0.563958
0.56396
0.563962
0.563964
0.563965
0.563965
0.563967
0.563969
0.56397
0.563972
0.563972
0.563974
0.563976
0.563978
0.563979
0.563979
0.563981
0.563983
0.563985
0.563986
0.563986
0.563988
0.56399
0.563992
0.563993
0.563993
0.563995
0.563997
0.563999
0.564001
0.564001
0.564003
0.564004
0.564006
0.564008
0.564008
0.56401
0.564012
0.564013
0.564015
0.564015
0.564017
0.564019
0.564021
0.564023
0.564023
0.564025
0.564026
0.564028
0.56403
0.56403
0.564032
0.564034
0.564036
0.564038
0.564038
0.564039
0.564041
0.564043
0.564045
0.564045
0.564047
0.564049
0.564051
0.564052
0.564052
0.564054
0.564056
0.564058
0.56406
0.56406
0.564062
0.564064
0.564066
0.564068
0.564068
0.56407
0.564072
0.564073
0.564075
0.564075
0.564077
0.564079
0.564081
0.564083
0.564083
0.564085
0.564087
0.564089
0.564091
0.564091
0.564093
0.564095
0.564097
0.564099
0.564099
0.564101
0.564103
0.564105
0.564107
0.564107
0.564109
0.564111
0.564113
0.564115
0.564115
0.564117
0.564119
0.564121
0.564123
0.564123
0.564125
0.564127
0.564129
0.564131
0.564131
0.564133
0.564135
0.564137
0.564139
0.564139
0.564141
0.564143
0.564145
0.564147
0.564147
0.564149
0.564151
0.564153
0.564155
0.564155
0.564157
0.564159
0.564161
0.564164
0.564164
0.564166
0.564168
0.56417
0.564172
0.564172
0.564174
0.564176
0.564178
0.56418
0.56418
0.564182
0.564185
0.564187
0.564189
0.564189
0.564191
0.564193
0.564195
0.564197
0.564197
0.564199
0.564202
0.564204
0.564206
0.564206
0.564208
0.56421
0.564212
0.564214
0.564214
0.564217
0.564219
0.564221
0.564223
0.564223
0.564225
0.564227
0.56423
0.564232
0.564232
0.564234
0.564236
0.564238
0.564241
0.564241
0.564243
0.564245
0.564247
0.564249
0.564249
0.564252
0.564254
0.564256
0.564258
0.564258
0.564261
0.564263
0.564265
0.564267
0.564267
0.56427
0.564272
0.564274
0.564276
0.564276
0.564279
0.564281
0.564283
0.564285
0.564285
0.564288
0.56429
0.564292
0.564295
0.564295
0.564297
0.564299
0.564301
0.564304
0.564304
0.564306
0.564308
0.564311
0.564313
0.564313
0.564315
0.564318
0.56432
0.564322
0.564322
0.564325
0.564327
0.564329
0.564332
0.564332
0.564334
0.564336
0.564339
0.564341
0.564341
0.564344
0.564346
0.564348
0.564351
0.564351
0.564353
0.564355
0.564358
0.56436
0.56436
0.564363
0.564365
0.564368
0.56437
0.56437
0.564372
0.564375
0.564377
0.56438
0.56438
0.564382
0.564384
0.564387
0.564389
0.564389
0.564392
0.564394
0.564397
0.564399
0.564399
0.564402
0.564404
0.564407
0.564409
0.564409
0.564412
0.564414
0.564417
0.564419
0.564419
0.564422
0.564424
0.564427
0.564429
0.564429
0.564432
0.564434
0.564437
0.564439
0.564439
0.564442
0.564444
0.564447
0.564449
0.564449
0.564452
0.564454
0.564457
0.56446
0.56446
0.564462
0.564465
0.564467
0.56447
0.56447
0.564472
0.564475
0.564478
0.56448
0.56448
0.564483
0.564485
0.564488
0.564491
0.564491
0.564493
0.564496
0.564498
0.564501
0.564501
0.564504
0.564506
0.564509
0.564512
0.564512
0.564514
0.564517
0.56452
0.564522
0.564522
0.564525
0.564528
0.56453
0.564533
0.564533
0.564536
0.564539
0.564541
0.564544
0.564544
0.564547
0.564549
0.564552
0.564555
0.564555
0.564557
0.56456
0.564563
0.564566
0.564566
0.564568
0.564571
0.564574
0.564577
0.564577
0.564579
0.564582
0.564585
0.564588
0.564588
0.56459
0.564593
0.564596
0.564599
0.564599
0.564602
0.564604
0.564607
0.56461
0.56461
0.564613
0.564616
0.564619
0.564621
0.564621
0.564624
0.564627
0.56463
0.564633
0.564633
0.564636
0.564639
0.564641
0.564644
0.564644
0.564647
0.56465
0.564653
0.564656
0.564656
0.564659
0.564662
0.564664
0.564667
0.564667
0.56467
0.564673
0.564676
0.564679
0.564679
0.564682
0.564685
0.564688
0.564691
0.564691
0.564694
0.564697
0.5647
0.564703
0.564703
0.564706
0.564709
0.564712
0.564715
0.564715
0.564718
0.564721
0.564724
0.564727
0.564727
0.56473
0.564733
0.564736
0.564739
0.564739
0.564742
0.564745
0.564748
0.564751
0.564751
0.564754
0.564757
0.56476
0.564763
0.564763
0.564766
0.564769
0.564772
0.564775
0.564775
0.564778
0.564781
0.564785
0.564788
0.564788
0.564791
0.564794
0.564797
0.5648
0.5648
0.564803
0.564807
0.56481
0.564813
0.564813
0.564816
0.564819
0.564822
0.564826
0.564826
0.564829
0.564832
0.564835
0.564838
0.564838
0.564841
0.564845
0.564848
0.564851
0.564851
0.564854
0.564857
0.564861
0.564864
0.564864
0.564867
0.56487
0.564874
0.564877
0.564877
0.56488
0.564883
0.564887
0.56489
0.56489
0.564893
0.564897
0.5649
0.564903
0.564903
0.564907
0.56491
0.564913
0.564916
0.564916
0.56492
0.564923
0.564927
0.56493
0.56493
0.564933
0.564937
0.56494
0.564943
0.564943
0.564947
0.56495
0.564953
0.564957
0.564957
0.56496
0.564964
0.564967
0.56497
0.56497
0.564974
0.564977
0.564981
0.564984
0.564984
0.564988
0.564991
0.564994
0.564998
0.564998
0.565001
0.565005
0.565008
0.565012
0.565012
0.565015
0.565019
0.565022
0.565026
0.565026
0.565029
0.565033
0.565036
0.56504
0.56504
0.565044
0.565047
0.565051
0.565054
0.565054
0.565058
0.565061
0.565065
0.565068
0.565068
0.565072
0.565076
0.565079
0.565083
0.565083
0.565086
0.56509
0.565094
0.565097
0.565097
0.565101
0.565105
0.565108
0.565112
0.565112
0.565116
0.565119
0.565123
0.565127
0.565127
0.56513
0.565134
0.565138
0.565141
0.565141
0.565145
0.565149
0.565153
0.565156
0.565156
0.56516
0.565164
0.565168
0.565171
0.565171
0.565175
0.565179
0.565183
0.565186
0.565186
0.56519
0.565194
0.565198
0.565202
0.565202
0.565205
0.565209
0.565213
0.565217
0.565217
0.565221
0.565225
0.565228
0.565232
0.565232
0.565236
0.56524
0.565244
0.565248
0.565248
0.565252
0.565256
0.56526
0.565263
0.565263
0.565267
0.565271
0.565275
0.565279
0.565279
0.565283
0.565287
0.565291
0.565295
0.565295
0.565299
0.565303
0.565307
0.565311
0.565311
0.565315
0.565319
0.565323
0.565327
0.565327
0.565331
0.565335
0.565339
0.565343
0.565343
0.565347
0.565351
0.565355
0.565359
0.565359
0.565364
0.565368
0.565372
0.565376
0.565376
0.56538
0.565384
0.565388
0.565392
0.565392
0.565396
0.565401
0.565405
0.565409
0.565409
0.565413
0.565417
0.565421
0.565426
0.565426
0.56543
0.565434
0.565438
0.565442
0.565442
0.565447
0.565451
0.565455
0.565459
0.565459
0.565464
0.565468
0.565472
0.565477
0.565477
0.565481
0.565485
0.565489
0.565494
0.565494
0.565498
0.565502
0.565507
0.565511
0.565511
0.565515
0.56552
0.565524
0.565529
0.565529
0.565533
0.565537
0.565542
0.565546
0.565546
0.565551
0.565555
0.565559
0.565564
0.565564
0.565568
0.565573
0.565577
0.565582
0.565582
0.565586
0.565591
0.565595
0.5656
0.5656
0.565604
0.565609
0.565613
0.565618
0.565618
0.565622
0.565627
0.565631
0.565636
0.565636
0.56564
0.565645
0.56565
0.565654
0.565654
0.565659
0.565663
0.565668
0.565673
0.565673
0.565677
0.565682
0.565687
0.565691
0.565691
0.565696
0.5657
0.565705
0.56571
0.56571
0.565715
0.565719
0.565724
0.565729
0.565729
0.565734
0.565738
0.565743
0.565748
0.565748
0.565753
0.565757
0.565762
0.565767
0.565767
0.565772
0.565777
0.565781
0.565786
0.565786
0.565791
0.565796
0.565801
0.565806
0.565806
0.56581
0.565815
0.56582
0.565825
0.565825
0.56583
0.565835
0.56584
0.565845
0.565845
0.56585
0.565855
0.56586
0.565865
0.565865
0.56587
0.565875
0.56588
0.565885
0.565885
0.56589
0.565895
0.5659
0.565905
0.565905
0.56591
0.565915
0.56592
0.565925
0.565925
0.56593
0.565935
0.56594
0.565945
0.565945
0.56595
0.565955
0.565961
0.565966
0.565966
0.565971
0.565976
0.565981
0.565986
0.565986
0.565992
0.565997
0.566002
0.566007
0.566007
0.566013
0.566018
0.566023
0.566028
0.566028
0.566034
0.566039
0.566044
0.566049
0.566049
0.566055
0.56606
0.566065
0.566071
0.566071
0.566076
0.566081
0.566087
0.566092
0.566092
0.566097
0.566103
0.566108
0.566114
0.566114
0.566119
0.566125
0.56613
0.566135
0.566135
0.566141
0.566146
0.566152
0.566157
0.566157
0.566163
0.566168
0.566174
0.566179
0.566179
0.566185
0.566191
0.566196
0.566202
0.566202
0.566207
0.566213
0.566218
0.566224
0.566224
0.56623
0.566235
0.566241
0.566247
0.566247
0.566252
0.566258
0.566264
0.566269
0.566269
0.566275
0.566281
0.566287
0.566292
0.566292
0.566298
0.566304
0.56631
0.566315
0.566315
0.566321
0.566327
0.566333
0.566339
0.566339
0.566344
0.56635
0.566356
0.566362
0.566362
0.566368
0.566374
0.56638
0.566385
0.566385
0.566391
0.566397
0.566403
0.566409
0.566409
0.566415
0.566421
0.566427
0.566433
0.566433
0.566439
0.566445
0.566451
0.566457
0.566457
0.566463
0.566469
0.566475
0.566482
0.566482
0.566488
0.566494
0.5665
0.566506
0.566506
0.566512
0.566518
0.566524
0.566531
0.566531
0.566537
0.566543
0.566549
0.566555
0.566555
0.566562
0.566568
0.566574
0.56658
0.56658
0.566587
0.566593
0.566599
0.566606
0.566606
0.566612
0.566618
0.566625
0.566631
0.566631
0.566637
0.566644
0.56665
0.566657
0.566657
0.566663
0.566669
0.566676
0.566682
0.566682
0.566689
0.566695
0.566702
0.566708
0.566708
0.566715
0.566721
0.566728
0.566734
0.566734
0.566741
0.566748
0.566754
0.566761
0.566761
0.566767
0.566774
0.566781
0.566787
0.566787
0.566794
0.566801
0.566807
0.566814
0.566814
0.566821
0.566828
0.566834
0.566841
0.566841
0.566848
0.566855
0.566861
0.566868
0.566868
0.566875
0.566882
0.566889
0.566895
0.566895
0.566902
0.566909
0.566916
0.566923
0.566923
0.56693
0.566937
0.566944
0.566951
0.566951
0.566958
0.566965
0.566972
0.566979
0.566979
0.566986
0.566993
0.567
0.567007
0.567007
0.567014
0.567021
0.567028
0.567035
0.567035
0.567043
0.56705
0.567057
0.567064
0.567064
0.567071
0.567078
0.567086
0.567093
0.567093
0.5671
0.567107
0.567115
0.567122
0.567122
0.567129
0.567137
0.567144
0.567151
0.567151
0.567159
0.567166
0.567173
0.567181
0.567181
0.567188
0.567196
0.567203
0.56721
0.56721
0.567218
0.567225
0.567233
0.56724
0.56724
0.567248
0.567256
0.567263
0.567271
0.567271
0.567278
0.567286
0.567294
0.567301
0.567301
0.567309
0.567316
0.567324
0.567332
0.567332
0.56734
0.567347
0.567355
0.567363
0.567363
0.56737
0.567378
0.567386
0.567394
0.567394
0.567402
0.567409
0.567417
0.567425
0.567425
0.567433
0.567441
0.567449
0.567457
0.567457
0.567465
0.567473
0.567481
0.567489
0.567489
0.567497
0.567505
0.567513
0.567521
0.567521
0.567529
0.567537
0.567545
0.567553
0.567553
0.567561
0.567569
0.567578
0.567586
0.567586
0.567594
0.567602
0.56761
0.567619
0.567619
0.567627
0.567635
0.567644
0.567652
0.567652
0.56766
0.567669
0.567677
0.567685
0.567685
0.567694
0.567702
0.567711
0.567719
0.567719
0.567727
0.567736
0.567744
0.567753
0.567753
0.567761
0.56777
0.567778
0.567787
0.567787
0.567796
0.567804
0.567813
0.567822
0.567822
0.56783
0.567839
0.567848
0.567856
0.567856
0.567865
0.567874
0.567883
0.567891
0.567891
0.5679
0.567909
0.567918
0.567927
0.567927
0.567935
0.567944
0.567953
0.567962
0.567962
0.567971
0.56798
0.567989
0.567998
0.567998
0.568007
0.568016
0.568025
0.568034
0.568034
0.568043
0.568052
0.568062
0.568071
0.568071
0.56808
0.568089
0.568098
0.568107
0.568107
0.568117
0.568126
0.568135
0.568144
0.568144
0.568154
0.568163
0.568172
0.568182
0.568182
0.568191
0.5682
0.56821
0.568219
0.568219
0.568229
0.568238
0.568248
0.568257
0.568257
0.568267
0.568276
0.568286
0.568295
0.568295
0.568305
0.568315
0.568324
0.568334
0.568334
0.568344
0.568353
0.568363
0.568373
0.568373
0.568383
0.568392
0.568402
0.568412
0.568412
0.568422
0.568432
0.568442
0.568451
0.568451
0.568461
0.568471
0.568481
0.568491
0.568491
0.568501
0.568511
0.568521
0.568531
0.568531
0.568541
0.568551
0.568562
0.568572
0.568572
0.568582
0.568592
0.568602
0.568612
0.568612
0.568623
0.568633
0.568643
0.568654
0.568654
0.568664
0.568674
0.568685
0.568695
0.568695
0.568705
0.568716
0.568726
0.568737
0.568737
0.568747
0.568758
0.568768
0.568779
0.568779
0.568789
0.5688
0.568811
0.568821
0.568821
0.568832
0.568843
0.568853
0.568864
0.568864
0.568875
0.568886
0.568896
0.568907
0.568907
0.568918
0.568929
0.56894
0.568951
0.568951
0.568962
0.568973
0.568984
0.568995
0.568995
0.569006
0.569017
0.569028
0.569039
0.569039
0.56905
0.569061
0.569072
0.569083
0.569083
0.569095
0.569106
0.569117
0.569128
0.569128
0.56914
0.569151
0.569162
0.569174
0.569174
0.569185
0.569197
0.569208
0.56922
0.56922
0.569231
0.569242
0.569254
0.569266
0.569266
0.569277
0.569289
0.5693
0.569312
0.569312
0.569324
0.569335
0.569347
0.569359
0.569359
0.569371
0.569382
0.569394
0.569406
0.569406
0.569418
0.56943
0.569442
0.569454
0.569454
0.569466
0.569478
0.56949
0.569502
0.569502
0.569514
0.569526
0.569538
0.56955
0.56955
0.569562
0.569574
0.569587
0.569599
0.569599
0.569611
0.569624
0.569636
0.569648
0.569648
0.569661
0.569673
0.569686
0.569698
0.569698
0.56971
0.569723
0.569735
0.569748
0.569748
0.569761
0.569773
0.569786
0.569798
0.569798
0.569811
0.569824
0.569837
0.569849
0.569849
0.569862
0.569875
0.569888
0.569901
0.569901
0.569914
0.569927
0.56994
0.569953
0.569953
0.569966
0.569979
0.569992
0.570005
0.570005
0.570018
0.570031
0.570044
0.570057
0.570057
0.570071
0.570084
0.570097
0.57011
0.57011
0.570124
0.570137
0.570151
0.570164
0.570164
0.570178
0.570191
0.570205
0.570218
0.570218
0.570232
0.570245
0.570259
0.570273
0.570273
0.570286
0.5703
0.570314
0.570327
0.570327
0.570341
0.570355
0.570369
0.570383
0.570383
0.570397
0.570411
0.570425
0.570439
0.570439
0.570453
0.570467
0.570481
0.570495
0.570495
0.570509
0.570523
0.570538
0.570552
0.570552
0.570566
0.570581
0.570595
0.570609
0.570609
0.570624
0.570638
0.570652
0.570667
0.570667
0.570681
0.570696
0.570711
0.570725
0.570725
0.57074
0.570755
0.570769
0.570784
0.570784
0.570799
0.570814
0.570829
0.570843
0.570843
0.570858
0.570873
0.570888
0.570903
0.570903
0.570918
0.570933
0.570948
0.570963
0.570963
0.570979
0.570994
0.571009
0.571024
0.571024
0.57104
0.571055
0.57107
0.571086
0.571086
0.571101
0.571117
0.571132
0.571148
0.571148
0.571163
0.571179
0.571194
0.57121
0.57121
0.571226
0.571241
0.571257
0.571273
0.571273
0.571289
0.571305
0.571321
0.571336
0.571336
0.571352
0.571368
0.571385
0.571401
0.571401
0.571417
0.571433
0.571449
0.571465
0.571465
0.571481
0.571498
0.571514
0.57153
0.57153
0.571547
0.571563
0.57158
0.571596
0.571596
0.571613
0.571629
0.571646
0.571662
0.571662
0.571679
0.571696
0.571712
0.571729
0.571729
0.571746
0.571763
0.57178
0.571797
0.571797
0.571814
0.571831
0.571848
0.571865
0.571865
0.571882
0.571899
0.571916
0.571933
0.571933
0.571951
0.571968
0.571985
0.572003
0.572003
0.57202
0.572037
0.572055
0.572072
0.572072
0.57209
0.572108
0.572125
0.572143
0.572143
0.572161
0.572178
0.572196
0.572214
0.572214
0.572232
0.57225
0.572268
0.572286
0.572286
0.572304
0.572322
0.57234
0.572358
0.572358
0.572376
0.572394
0.572413
0.572431
0.572431
0.572449
0.572468
0.572486
0.572505
0.572505
0.572523
0.572542
0.57256
0.572579
0.572579
0.572597
0.572616
0.572635
0.572654
0.572654
0.572672
0.572691
0.57271
0.572729
0.572729
0.572748
0.572767
0.572786
0.572805
0.572805
0.572824
0.572844
0.572863
0.572882
0.572882
0.572901
0.572921
0.57294
0.57296
0.57296
0.572979
0.572999
0.573018
0.573038
0.573038
0.573058
0.573077
0.573097
0.573117
0.573117
0.573137
0.573157
0.573176
0.573196
0.573196
0.573216
0.573236
0.573257
0.573277
0.573277
0.573297
0.573317
0.573337
0.573358
0.573358
0.573378
0.573398
0.573419
0.573439
0.573439
0.57346
0.573481
0.573501
0.573522
0.573522
0.573543
0.573563
0.573584
0.573605
0.573605
0.573626
0.573647
0.573668
0.573689
0.573689
0.57371
0.573731
0.573752
0.573773
0.573773
0.573795
0.573816
0.573837
0.573859
0.573859
0.57388
0.573902
0.573923
0.573945
0.573945
0.573967
0.573988
0.57401
0.574032
0.574032
0.574054
0.574076
0.574097
0.574119
0.574119
0.574141
0.574164
0.574186
0.574208
0.574208
0.57423
0.574252
0.574275
0.574297
0.574297
0.57432
0.574342
0.574365
0.574387
0.574387
0.57441
0.574432
0.574455
0.574478
0.574478
0.574501
0.574523
0.574546
0.574569
0.574569
0.574592
0.574615
0.574639
0.574662
0.574662
0.574685
0.574708
0.574732
0.574755
0.574755
0.574778
0.574802
0.574825
0.574849
0.574849
0.574873
0.574896
0.57492
0.574944
0.574944
0.574968
0.574991
0.575015
0.575039
0.575039
0.575063
0.575088
0.575112
0.575136
0.575136
0.57516
0.575185
0.575209
0.575233
0.575233
0.575258
0.575282
0.575307
0.575331
0.575331
0.575356
0.575381
0.575406
0.575431
0.575431
0.575455
0.57548
0.575505
0.57553
0.57553
0.575556
0.575581
0.575606
0.575631
0.575631
0.575657
0.575682
0.575708
0.575733
0.575733
0.575759
0.575784
0.57581
0.575836
0.575836
0.575861
0.575887
0.575913
0.575939
0.575939
0.575965
0.575991
0.576017
0.576044
0.576044
0.57607
0.576096
0.576122
0.576149
0.576149
0.576175
0.576202
0.576228
0.576255
0.576255
0.576282
0.576309
0.576335
0.576362
0.576362
0.576389
0.576416
0.576443
0.57647
0.57647
0.576498
0.576525
0.576552
0.576579
0.576579
0.576607
0.576634
0.576662
0.576689
0.576689
0.576717
0.576745
0.576772
0.5768
0.5768
0.576828
0.576856
0.576884
0.576912
0.576912
0.57694
0.576969
0.576997
0.577025
0.577025
0.577054
0.577082
0.57711
0.577139
0.577139
0.577168
0.577196
0.577225
0.577254
0.577254
0.577283
0.577312
0.577341
0.57737
0.57737
0.577399
0.577428
0.577457
0.577487
0.577487
0.577516
0.577545
0.577575
0.577604
0.577604
0.577634
0.577664
0.577694
0.577723
0.577723
0.577753
0.577783
0.577813
0.577843
0.577843
0.577873
0.577904
0.577934
0.577964
0.577964
0.577995
0.578025
0.578056
0.578086
0.578086
0.578117
0.578148
0.578178
0.578209
0.578209
0.57824
0.578271
0.578302
0.578333
0.578333
0.578364
0.578396
0.578427
0.578458
0.578458
0.57849
0.578521
0.578553
0.578585
0.578585
0.578616
0.578648
0.57868
0.578712
0.578712
0.578744
0.578776
0.578808
0.57884
0.57884
0.578873
0.578905
0.578937
0.57897
0.57897
0.579002
0.579035
0.579068
0.5791
0.5791
0.579133
0.579166
0.579199
0.579232
0.579232
0.579265
0.579298
0.579332
0.579365
0.579365
0.579398
0.579432
0.579465
0.579499
0.579499
0.579532
0.579566
0.5796
0.579634
0.579634
0.579668
0.579702
0.579736
0.57977
0.57977
0.579804
0.579839
0.579873
0.579907
0.579907
0.579942
0.579976
0.580011
0.580046
0.580046
0.580081
0.580115
0.58015
0.580185
0.580185
0.58022
0.580256
0.580291
0.580326
0.580326
0.580362
0.580397
0.580433
0.580468
0.580468
0.580504
0.58054
0.580575
0.580611
0.580611
0.580647
0.580683
0.580719
0.580756
0.580756
0.580792
0.580828
0.580865
0.580901
0.580901
0.580938
0.580974
0.581011
0.581048
0.581048
0.581085
0.581122
0.581159
0.581196
0.581196
0.581233
0.58127
0.581307
0.581345
0.581345
0.581382
0.58142
0.581457
0.581495
0.581495
0.581533
0.581571
0.581609
0.581647
0.581647
0.581685
0.581723
0.581761
0.581799
0.581799
0.581838
0.581876
0.581915
0.581953
0.581953
0.581992
0.582031
0.58207
0.582109
0.582109
0.582148
0.582187
0.582226
0.582265
0.582265
0.582304
0.582344
0.582383
0.582423
0.582423
0.582463
0.582502
0.582542
0.582582
0.582582
0.582622
0.582662
0.582702
0.582742
0.582742
0.582782
0.582823
0.582863
0.582904
0.582904
0.582944
0.582985
0.583026
0.583066
0.583066
0.583107
0.583148
0.583189
0.583231
0.583231
0.583272
0.583313
0.583354
0.583396
0.583396
0.583437
0.583479
0.583521
0.583563
0.583563
0.583604
0.583646
0.583688
0.583731
0.583731
0.583773
0.583815
0.583857
0.5839
0.5839
0.583942
0.583985
0.584027
0.58407
0.58407
0.584113
0.584156
0.584199
0.584242
0.584242
0.584285
0.584329
0.584372
0.584415
0.584415
0.584459
0.584502
0.584546
0.58459
0.58459
0.584634
0.584677
0.584721
0.584766
0.584766
0.58481
0.584854
0.584898
0.584943
0.584943
0.584987
0.585032
0.585076
0.585121
0.585121
0.585166
0.585211
0.585256
0.585301
0.585301
0.585346
0.585391
0.585437
0.585482
0.585482
0.585527
0.585573
0.585619
0.585664
0.585664
0.58571
0.585756
0.585802
0.585848
0.585848
0.585894
0.585941
0.585987
0.586033
0.586033
0.58608
0.586126
0.586173
0.58622
0.58622
0.586267
0.586313
0.58636
0.586408
0.586408
0.586455
0.586502
0.586549
0.586597
0.586597
0.586644