<?xml version="1.0"?>
<VTKFile type="UnstructuredGrid" version="0.1" byte_order="LittleEndian">
<UnstructuredGrid>
<Piece NumberOfPoints="5000" NumberOfCells="4000">
<PointData Scalars="Reaction 0">
<DataArray type="Float32" Name="Reaction 0" format="ascii">
0.563181
0.563181
0.563181
0.563181
0.563181
0.563181
0.563181
0.563181
0.563181
0.563181
0.563181
0.563181
0.563181
0.563181
0.563181
0.563181
0.563181
0.563181
0.563181
0.563181
0.563181
0.563181
0.563181
0.563181
0.563181
0.563181
0.563181
0.563181
0.563181
0.563181
0.563181
0.563181
0.563181
0.563181
0.563181
0.563181
0.563181
0.563181
0.563181
0.563181
0.563181
0.563181
0.563181
0.563181
0.563181
0.563181
0.563181
0.563181
0.563182
0.563182
0.563182
0.563182
0.563182
0.563182
0.563182
0.563182
0.563182
0.563182
0.563182
0.563182
0.563182
0.563182
0.563182
0.563182
0.563182
0.563182
0.563182
0.563182
0.563183
0.563183
0.563183
0.563183
0.563183
0.563183
0.563183
0.563183
0.563183
0.563183
0.563183
0.563183
0.563183
0.563183
0.563183
0.563183
0.563184
0.563184
0.563184
0.563184
0.563184
0.563184
0.563184
0.563184
0.563184
0.563184
0.563184
0.563184
0.563184
0.563185
0.563185
0.563185
0.563185
0.563185
0.563185
0.563185
0.563185
0.563185
0.563185
0.563185
0.563186
0.563186
0.563186
0.563186
0.563186
0.563186
0.563186
0.563186
0.563186
0.563186
0.563187
0.563187
0.563187
0.563187
0.563187
0.563187
0.563187
0.563187
0.563187
0.563187
0.563188
0.563188
0.563188
0.563188
0.563188
0.563188
0.563188
0.563188
0.563188
0.563189
0.563189
0.563189
0.563189
0.563189
0.563189
0.563189
0.563189
0.563189
0.56319
0.56319
0.56319
0.56319
0.56319
0.56319
0.56319
0.563191
0.563191
0.563191
0.563191
0.563191
0.563191
0.563191
0.563191
0.563192
0.563192
0.563192
0.563192
0.563192
0.563192
0.563192
0.563193
0.563193
0.563193
0.563193
0.563193
0.563193
0.563194
0.563194
0.563194
0.563194
0.563194
0.563194
0.563194
0.563195
0.563195
0.563195
0.563195
0.563195
0.563195
0.563196
0.563196
0.563196
0.563196
0.563196
0.563196
0.563197
0.563197
0.563197
0.563197
0.563197
0.563197
0.563198
0.563198
0.563198
0.563198
0.563198
0.563198
0.563198
0.563199
0.563199
0.563199
0.563199
0.563199
0.5632
0.5632
0.5632
0.5632
0.5632
0.563201
0.563201
0.563201
0.563201
0.563201
0.563201
0.563202
0.563202
0.563202
0.563202
0.563202
0.563203
0.563203
0.563203
0.563203
0.563203
0.563204
0.563204
0.563204
0.563204
0.563204
0.563205
0.563205
0.563205
0.563205
0.563205
0.563206
0.563206
0.563206
0.563206
0.563206
0.563207
0.563207
0.563207
0.563207
0.563208
0.563208
0.563208
0.563208
0.563208
0.563209
0.563209
0.563209
0.563209
0.563209
0.56321
0.56321
0.56321
0.563211
0.563211
0.563211
0.563211
0.563211
0.563212
0.563212
0.563212
0.563212
0.563213
0.563213
0.563213
0.563213
0.563214
0.563214
0.563214
0.563214
0.563214
0.563215
0.563215
0.563215
0.563215
0.563216
0.563216
0.563216
0.563217
0.563217
0.563217
0.563217
0.563218
0.563218
0.563218
0.563218
0.563219
0.563219
0.563219
0.563219
0.563219
0.56322
0.56322
0.56322
0.56322
0.563221
0.563221
0.563221
0.563222
0.563222
0.563222
0.563222
0.563223
0.563223
0.563223
0.563224
0.563224
0.563224
0.563225
0.563225
0.563225
0.563225
0.563226
0.563226
0.563226
0.563226
0.563227
0.563227
0.563227
0.563227
0.563228
0.563228
0.563228
0.563229
0.563229
0.563229
0.56323
0.56323
0.56323
0.56323
0.563231
0.563231
0.563231
0.563232
0.563232
0.563232
0.563233
0.563233
0.563233
0.563233
0.563234
0.563234
0.563234
0.563235
0.563235
0.563235
0.563236
0.563236
0.563236
0.563236
0.563237
0.563237
0.563238
0.563238
0.563238
0.563238
0.563239
0.563239
0.56324
0.56324
0.56324
0.56324
0.563241
0.563241
0.563241
0.563242
0.563242
0.563242
0.563243
0.563243
0.563243
0.563244
0.563244
0.563244
0.563244
0.563245
0.563245
0.563246
0.563246
0.563246
0.563247
0.563247
0.563248
0.563248
0.563248
0.563248
0.563249
0.563249
0.56325
0.56325
0.56325
0.563251
0.563251
0.563251
0.563251
0.563252
0.563252
0.563253
0.563253
0.563253
0.563254
0.563254
0.563255
0.563255
0.563255
0.563256
0.563256
0.563256
0.563257
0.563257
0.563257
0.563258
0.563258
0.563259
0.563259
0.563259
0.56326
0.56326
0.563261
0.563261
0.563261
0.563262
0.563262
0.563263
0.563263
0.563263
0.563264
0.563264
0.563265
0.563265
0.563265
0.563265
0.563266
0.563266
0.563266
0.563267
0.563267
0.563268
0.563268
0.563268
0.563269
0.563269
0.56327
0.56327
0.56327
0.563271
0.563271
0.563272
0.563272
0.563272
0.563273
0.563274
0.563274
0.563275
0.563275
0.563275
0.563276
0.563276
0.563277
0.563277
0.563277
0.563278
0.563278
0.563279
0.563279
0.563279
0.56328
0.56328
0.563281
0.563281
0.563281
0.563282
0.563282
0.563283
0.563283
0.563284
0.563284
0.563285
0.563285
0.563285
0.563286
0.563286
0.563287
0.563287
0.563287
0.563288
0.563288
0.563289
0.56329
0.56329
0.56329
0.563291
0.563291
0.563292
0.563292
0.563292
0.563293
0.563294
0.563294
0.563294
0.563295
0.563295
0.563296
0.563296
0.563296
0.563297
0.563298
0.563298
0.563299
0.563299
0.563299
0.5633
0.5633
0.563301
0.563301
0.563302
0.563302
0.563303
0.563303
0.563303
0.563304
0.563305
0.563305
0.563306
0.563306
0.563306
0.563307
0.563308
0.563308
0.563308
0.563309
0.56331
0.56331
0.563311
0.563311
0.563311
0.563312
0.563313
0.563313
0.563313
0.563314
0.563314
0.563315
0.563316
0.563316
0.563316
0.563317
0.563318
0.563318
0.563318
0.563319
0.56332
0.56332
0.563321
0.563321
0.563321
0.563322
0.563323
0.563323
0.563323
0.563324
0.563325
0.563325
0.563326
0.563326
0.563327
0.563327
0.563328
0.563329
0.563329
0.563329
0.56333
0.563331
0.563331
0.563331
0.563332
0.563333
0.563333
0.563334
0.563334
0.563335
0.563335
0.563336
0.563337
0.563337
0.563337
0.563338
0.563339
0.563339
0.563339
0.56334
0.563341
0.563341
0.563342
0.563342
0.563343
0.563343
0.563344
0.563345
0.563345
0.563346
0.563346
0.563347
0.563348
0.563348
0.563348
0.563349
0.56335
0.56335
0.56335
0.563351
0.563352
0.563353
0.563353
0.563353
0.563354
0.563355
0.563355
0.563356
0.563356
0.563357
0.563358
0.563358
0.563359
0.563359
0.56336
0.563361
0.563361
0.563362
0.563362
0.563363
0.563364
0.563364
0.563365
0.563365
0.563366
0.563367
0.563367
0.563368
0.563368
0.563369
0.56337
0.56337
0.563371
0.563371
0.563372
0.563373
0.563373
0.563374
0.563374
0.563375
0.563376
0.563376
0.563377
0.563377
0.563378
0.563379
0.56338
0.56338
0.56338
0.563381
0.563382
0.563383
0.563383
0.563383
0.563384
0.563385
0.563386
0.563387
0.563387
0.563387
0.563388
0.563389
0.56339
0.56339
0.563391
0.563391
0.563392
0.563393
0.563393
0.563394
0.563395
0.563395
0.563396
0.563396
0.563397
0.563398
0.563399
0.5634
0.5634
0.5634
0.563401
0.563402
0.563403
0.563403
0.563404
0.563404
0.563405
0.563406
0.563406
0.563407
0.563408
0.563409
0.563409
0.563409
0.56341
0.563411
0.563412
0.563413
0.563413
0.563414
0.563415
0.563415
0.563416
0.563416
0.563417
0.563418
0.563419
0.56342
0.56342
0.563421
0.563421
0.563422
0.563423
0.563423
0.563424
0.563425
0.563426
0.563427
0.563427
0.563428
0.563428
0.563429
0.56343
0.56343
0.563431
0.563432
0.563433
0.563434
0.563434
0.563435
0.563436
0.563436
0.563437
0.563437
0.563438
0.563439
0.56344
0.563441
0.563441
0.563442
0.563443
0.563444
0.563445
0.563445
0.563446
0.563446
0.563447
0.563448
0.563448
0.563449
0.56345
0.563451
0.563452
0.563452
0.563453
0.563454
0.563455
0.563456
0.563456
0.563457
0.563458
0.563459
0.56346
0.56346
0.56346
0.563461
0.563462
0.563463
0.563463
0.563464
0.563465
0.563466
0.563467
0.563467
0.563468
0.563469
0.56347
0.563471
0.563471
0.563472
0.563473
0.563474
0.563475
0.563475
0.563476
0.563477
0.563478
0.563479
0.563479
0.56348
0.563481
0.563482
0.563483
0.563483
0.563484
0.563485
0.563486
0.563487
0.563487
0.563488
0.563489
0.56349
0.563491
0.563491
0.563492
0.563493
0.563494
0.563495
0.563495
0.563496
0.563497
0.563498
0.563499
0.563499
0.5635
0.563501
0.563502
0.563503
0.563503
0.563504
0.563505
0.563506
0.563507
0.563507
0.563508
0.563509
0.56351
0.563511
0.563511
0.563512
0.563513
0.563514
0.563515
0.563515
0.563516
0.563518
0.563519
0.56352
0.56352
0.563521
0.563522
0.563523
0.563524
0.563524
0.563525
0.563526
0.563527
0.563528
0.563528
0.563529
0.56353
0.563531
0.563532
0.563532
0.563534
0.563535
0.563536
0.563537
0.563537
0.563538
0.563539
0.56354
0.563541
0.563541
0.563542
0.563543
0.563544
0.563546
0.563546
0.563547
0.563548
0.563549
0.56355
0.56355
0.563551
0.563552
0.563553
0.563555
0.563555
0.563556
0.563557
0.563558
0.563559
0.563559
0.56356
0.563561
0.563563
0.563564
0.563564
0.563565
0.563566
0.563567
0.563568
0.563568
0.563569
0.563571
0.563572
0.563573
0.563573
0.563574
0.563575
0.563576
0.563578
0.563578
0.563579
0.56358
0.563581
0.563582
0.563582
0.563583
0.563585
0.563586
0.563587
0.563587
0.563588
0.563589
0.563591
0.563592
0.563592
0.563593
0.563594
0.563595
0.563596
0.563596
0.563598
0.563599
0.5636
0.563601
0.563601
0.563602
0.563604
0.563605
0.563606
0.563606
0.563607
0.563609
0.56361
0.563611
0.563611
0.563612
0.563613
0.563615
0.563616
0.563616
0.563617
0.563618
0.56362
0.563621
0.563621
0.563622
0.563623
0.563625
0.563626
0.563626
0.563627
0.563629
0.56363
0.563631
0.563631
0.563632
0.563634
0.563635
0.563636
0.563636
0.563637
0.563639
0.56364
0.563641
0.563641
0.563643
0.563644
0.563645
0.563646
0.563646
0.563648
0.563649
0.56365
0.563652
0.563652
0.563653
0.563654
0.563655
0.563657
0.563657
0.563658
0.563659
0.563661
0.563662
0.563662
0.563663
0.563665
0.563666
0.563667
0.563667
0.563669
0.56367
0.563671
0.563673
0.563673
0.563674
0.563675
0.563677
0.563678
0.563678
0.563679
0.563681
0.563682
0.563683
0.563683
0.563685
0.563686
0.563687
0.563689
0.563689
0.56369
0.563692
0.563693
0.563694
0.563694
0.563696
0.563697
0.563698
0.5637
0.5637
0.563701
0.563703
0.563704
0.563705
0.563705
0.563707
0.563708
0.56371
0.563711
0.563711
0.563712
0.563714
0.563715
0.563717
0.563717
0.563718
0.563719
0.563721
0.563722
0.563722
0.563724
0.563725
0.563727
0.563728
0.563728
0.563729
0.563731
0.563732
0.563734
0.563734
0.563735
0.563737
0.563738
0.56374
0.56374
0.563741
0.563742
0.563744
0.563745
0.563745
0.563747
0.563748
0.56375
0.563751
0.563751
0.563753
0.563754
0.563756
0.563757
0.563757
0.563759
0.56376
0.563762
0.563763
0.563763
0.563765
0.563766
0.563768
0.563769
0.563769
0.563771
0.563772
0.563774
0.563775
0.563775
0.563777
0.563778
0.56378
0.563781
0.563781
0.563783
0.563784
0.563786
0.563787
0.563787
0.563789
0.56379
0.563792
0.563794
0.563794
0.563795
0.563797
0.563798
0.5638
0.5638
0.563801
0.563803
0.563804
0.563806
0.563806
0.563807
0.563809
0.563811
0.563812
0.563812
0.563814
0.563815
0.563817
0.563819
0.563819
0.56382
0.563822
0.563823
0.563825
0.563825
0.563827
0.563828
0.56383
0.563831
0.563831
0.563833
0.563835
0.563836
0.563838
0.563838
0.563839
0.563841
0.563843
0.563844
0.563844
0.563846
0.563848
0.563849
0.563851
0.563851
0.563853
0.563854
0.563856
0.563858
0.563858
0.563859
0.563861
0.563862
0.563864
0.563864
0.563866
0.563867
0.563869
0.563871
0.563871
0.563872
0.563874
0.563876
0.563877
0.563877
0.563879
0.563881
0.563883
0.563884
0.563884
0.563886
0.563888
0.563889
0.563891
0.563891
0.563893
0.563894
0.563896
0.563898
0.563898
0.5639
0.563901
0.563903
0.563905
0.563905
0.563907
0.563908
0.56391
0.563912
0.563912
0.563914
0.563915
0.563917
0.563919
0.563919
0.563921
0.563922
0.563924
0.563926
0.563926
0.563928
0.563929
0.563931
0.563933
0.563933
0.563935
0.563937
0.563938
0.56394
0.56394
0.563942
0.563944
0.563945
0.563947
0.563947
0.563949
0.563951
0.563953
0.563954
0.563954
0.563956
0.563958
0.56396
0.563962
0.563962
0.563964
0.563965
0.563967
0.563969
0.563969
0.563971
0.563973
0.563975
0.563977
0.563977
0.563978
0.56398
0.563982
0.563984
0.563984
0.563986
0.563988
0.56399
0.563991
0.563991
0.563993
0.563995
0.563997
0.563999
0.563999
0.564001
0.564003
0.564005
0.564007
0.564007
0.564008
0.56401
0.564012
0.564014
0.564014
0.564016
0.564018
0.56402
0.564022
0.564022
0.564024
0.564026
0.564028
0.56403
0.56403
0.564031
0.564033
0.564035
0.564037
0.564037
0.564039
0.564041
0.564043
0.564045
0.564045
0.564047
0.564049
0.564051
0.564053
0.564053
0.564055
0.564057
0.564059
0.564061
0.564061
0.564063
0.564065
0.564067
0.564069
0.564069
0.564071
0.564073
0.564075
0.564077
0.564077
0.564079
0.564081
0.564083
0.564085
0.564085
0.564087
0.564089
0.564091
0.564093
0.564093
0.564095
0.564097
0.564099
0.564101
0.564101
0.564103
0.564106
0.564108
0.56411
0.56411
0.564112
0.564114
0.564116
0.564118
0.564118
0.56412
0.564122
0.564124
0.564126
0.564126
0.564128
0.564131
0.564133
0.564135
0.564135
0.564137
0.564139
0.564141
0.564143
0.564143
0.564145
0.564148
0.56415
0.564152
0.564152
0.564154
0.564156
0.564158
0.56416
0.56416
0.564163
0.564165
0.564167
0.564169
0.564169
0.564171
0.564173
0.564176
0.564178
0.564178
0.56418
0.564182
0.564184
0.564186
0.564186
0.564189
0.564191
0.564193
0.564195
0.564195
0.564197
0.5642
0.564202
0.564204
0.564204
0.564206
0.564209
0.564211
0.564213
0.564213
0.564215
0.564218
0.56422
0.564222
0.564222
0.564224
0.564227
0.564229
0.564231
0.564231
0.564233
0.564236
0.564238
0.56424
0.56424
0.564243
0.564245
0.564247
0.564249
0.564249
0.564252
0.564254
0.564256
0.564259
0.564259
0.564261
0.564263
0.564266
0.564268
0.564268
0.56427
0.564273
0.564275
0.564277
0.564277
0.56428
0.564282
0.564284
0.564287
0.564287
0.564289
0.564291
0.564294
0.564296
0.564296
0.564299
0.564301
0.564303
0.564306
0.564306
0.564308
0.564311
0.564313
0.564315
0.564315
0.564318
0.56432
0.564323
0.564325
0.564325
0.564327
0.56433
0.564332
0.564335
0.564335
0.564337
0.56434
0.564342
0.564345
0.564345
0.564347
0.564349
0.564352
0.564354
0.564354
0.564357
0.564359
0.564362
0.564364
0.564364
0.564367
0.564369
0.564372
0.564374
0.564374
0.564377
0.564379
0.564382
0.564384
0.564384
0.564387
0.564389
0.564392
0.564394
0.564394
0.564397
0.5644
0.564402
0.564405
0.564405
0.564407
0.56441
0.564412
0.564415
0.564415
0.564418
0.56442
0.564423
0.564425
0.564425
0.564428
0.56443
0.564433
0.564436
0.564436
0.564438
0.564441
0.564443
0.564446
0.564446
0.564449
0.564451
0.564454
0.564457
0.564457
0.564459
0.564462
0.564464
0.564467
0.564467
0.56447
0.564473
0.564475
0.564478
0.564478
0.564481
0.564483
0.564486
0.564489
0.564489
0.564491
0.564494
0.564497
0.564499
0.564499
0.564502
0.564505
0.564508
0.56451
0.56451
0.564513
0.564516
0.564519
0.564521
0.564521
0.564524
0.564527
0.56453
0.564532
0.564532
0.564535
0.564538
0.564541
0.564543
0.564543
0.564546
0.564549
0.564552
0.564554
0.564554
0.564557
0.56456
0.564563
0.564566
0.564566
0.564569
0.564571
0.564574
0.564577
0.564577
0.56458
0.564583
0.564586
0.564589
0.564589
0.564591
0.564594
0.564597
0.5646
0.5646
0.564603
0.564606
0.564609
0.564612
0.564612
0.564614
0.564617
0.56462
0.564623
0.564623
0.564626
0.564629
0.564632
0.564635
0.564635
0.564638
0.564641
0.564644
0.564647
0.564647
0.56465
0.564653
0.564656
0.564658
0.564658
0.564661
0.564664
0.564667
0.56467
0.56467
0.564673
0.564676
0.564679
0.564683
0.564683
0.564686
0.564689
0.564692
0.564695
0.564695
0.564698
0.564701
0.564704
0.564707
0.564707
0.56471
0.564713
0.564716
0.564719
0.564719
0.564722
0.564725
0.564728
0.564731
0.564731
0.564734
0.564737
0.564741
0.564744
0.564744
0.564747
0.56475
0.564753
0.564756
0.564756
0.564759
0.564763
0.564766
0.564769
0.564769
0.564772
0.564775
0.564778
0.564782
0.564782
0.564785
0.564788
0.564791
0.564794
0.564794
0.564798
0.564801
0.564804
0.564807
0.564807
0.56481
0.564814
0.564817
0.56482
0.56482
0.564823
0.564827
0.56483
0.564833
0.564833
0.564836
0.56484
0.564843
0.564846
0.564846
0.564849
0.564853
0.564856
0.564859
0.564859
0.564863
0.564866
0.564869
0.564873
0.564873
0.564876
0.564879
0.564883
0.564886
0.564886
0.56489
0.564893
0.564896
0.5649
0.5649
0.564903
0.564906
0.56491
0.564913
0.564913
0.564917
0.56492
0.564923
0.564927
0.564927
0.56493
0.564934
0.564937
0.56494
0.56494
0.564944
0.564947
0.564951
0.564954
0.564954
0.564958
0.564961
0.564965
0.564968
0.564968
0.564972
0.564975
0.564979
0.564982
0.564982
0.564986
0.564989
0.564993
0.564996
0.564996
0.565
0.565004
0.565007
0.565011
0.565011
0.565014
0.565018
0.565021
0.565025
0.565025
0.565029
0.565032
0.565036
0.565039
0.565039
0.565043
0.565047
0.56505
0.565054
0.565054
0.565057
0.565061
0.565065
0.565068
0.565068
0.565072
0.565076
0.56508
0.565083
0.565083
0.565087
0.565091
0.565094
0.565098
0.565098
0.565102
0.565106
0.565109
0.565113
0.565113
0.565117
0.56512
0.565124
0.565128
0.565128
0.565132
0.565135
0.565139
0.565143
0.565143
0.565147
0.565151
0.565154
0.565158
0.565158
0.565162
0.565166
0.56517
0.565174
0.565174
0.565177
0.565181
0.565185
0.565189
0.565189
0.565193
0.565197
0.565201
0.565205
0.565205
0.565209
0.565212
0.565216
0.56522
0.56522
0.565224
0.565228
0.565232
0.565236
0.565236
0.56524
0.565244
0.565248
0.565252
0.565252
0.565256
0.56526
0.565264
0.565268
0.565268
0.565272
0.565276
0.56528
0.565284
0.565284
0.565288
0.565292
0.565296
0.5653
0.5653
0.565304
0.565308
0.565312
0.565316
0.565316
0.565321
0.565325
0.565329
0.565333
0.565333
0.565337
0.565341
0.565345
0.565349
0.565349
0.565353
0.565358
0.565362
0.565366
0.565366
0.56537
0.565374
0.565378
0.565383
0.565383
0.565387
0.565391
0.565395
0.5654
0.5654
0.565404
0.565408
0.565412
0.565417
0.565417
0.565421
0.565425
0.565429
0.565434
0.565434
0.565438
0.565442
0.565447
0.565451
0.565451
0.565455
0.56546
0.565464
0.565468
0.565468
0.565473
0.565477
0.565481
0.565486
0.565486
0.56549
0.565495
0.565499
0.565503
0.565503
0.565508
0.565512
0.565517
0.565521
0.565521
0.565526
0.56553
0.565534
0.565539
0.565539
0.565543
0.565548
0.565552
0.565557
0.565557
0.565561
0.565566
0.565571
0.565575
0.565575
0.56558
0.565584
0.565589
0.565593
0.565593
0.565598
0.565602
0.565607
0.565612
0.565612
0.565616
0.565621
0.565625
0.56563
0.56563
0.565635
0.565639
0.565644
0.565649
0.565649
0.565653
0.565658
0.565663
0.565667
0.565667
0.565672
0.565677
0.565682
0.565686
0.565686
0.565691
0.565696
0.565701
0.565705
0.565705
0.56571
0.565715
0.56572
0.565725
0.565725
0.565729
0.565734
0.565739
0.565744
0.565744
0.565749
0.565753
0.565758
0.565763
0.565763
0.565768
0.565773
0.565778
0.565783
0.565783
0.565788
0.565793
0.565798
0.565803
0.565803
0.565808
0.565812
0.565817
0.565822
0.565822
0.565827
0.565832
0.565837
0.565842
0.565842
0.565847
0.565852
0.565857
0.565863
0.565863
0.565868
0.565873
0.565878
0.565883
0.565883
0.565888
0.565893
0.565898
0.565903
0.565903
0.565908
0.565913
0.565919
0.565924
0.565924
0.565929
0.565934
0.565939
0.565945
0.565945
0.56595
0.565955
0.56596
0.565965
0.565965
0.565971
0.565976
0.565981
0.565986
0.565986
0.565992
0.565997
0.566002
0.566008
0.566008
0.566013
0.566018
0.566024
0.566029
0.566029
0.566034
0.56604
0.566045
0.56605
0.56605
0.566056
0.566061
0.566067
0.566072
0.566072
0.566078
0.566083
0.566088
0.566094
0.566094
0.566099
0.566105
0.56611
0.566116
0.566116
0.566121
0.566127
0.566132
0.566138
0.566138
0.566143
0.566149
0.566155
0.56616
0.56616
0.566166
0.566171
0.566177
0.566183
0.566183
0.566188
0.566194
0.5662
0.566205
0.566205
0.566211
0.566217
0.566222
0.566228
0.566228
0.566234
0.56624
0.566245
0.566251
0.566251
0.566257
0.566263
0.566268
0.566274
0.566274
0.56628
0.566286
0.566291
0.566297
0.566297
0.566303
0.566309
0.566315
0.566321
0.566321
0.566327
0.566333
0.566338
0.566344
0.566344
0.56635
0.566356
0.566362
0.566368
0.566368
0.566374
0.56638
0.566386
0.566392
0.566392
0.566398
0.566404
0.56641
0.566416
0.566416
0.566422
0.566428
0.566435
0.566441
0.566441
0.566447
0.566453
0.566459
0.566465
0.566465
0.566471
0.566477
0.566484
0.56649
0.56649
0.566496
0.566502
0.566509
0.566515
0.566515
0.566521
0.566527
0.566534
0.56654
0.56654
0.566546
0.566552
0.566559
0.566565
0.566565
0.566571
0.566578
0.566584
0.566591
0.566591
0.566597
0.566603
0.56661
0.566616
0.566616
0.566623
0.566629
0.566635
0.566642
0.566642
0.566648
0.566655
0.566662
0.566668
0.566668
0.566675
0.566681
0.566688
0.566694
0.566694
0.566701
0.566707
0.566714
0.566721
0.566721
0.566727
0.566734
0.566741
0.566747
0.566747
0.566754
0.566761
0.566767
0.566774
0.566774
0.566781
0.566788
0.566794
0.566801
0.566801
0.566808
0.566815
0.566822
0.566828
0.566828
0.566835
0.566842
0.566849
0.566856
0.566856
0.566863
0.56687
0.566877
0.566883
0.566883
0.56689
0.566897
0.566904
0.566911
0.566911
0.566918
0.566925
0.566932
0.566939
0.566939
0.566946
0.566953
0.56696
0.566968
0.566968
0.566975
0.566982
0.566989
0.566996
0.566996
0.567003
0.567011
0.567018
0.567025
0.567025
0.567032
0.567039
0.567047
0.567054
0.567054
0.567061
0.567068
0.567076
0.567083
0.567083
0.56709
0.567098
0.567105
0.567112
0.567112
0.56712
0.567127
0.567134
0.567142
0.567142
0.567149
0.567157
0.567164
0.567172
0.567172
0.567179
0.567187
0.567194
0.567202
0.567202
0.567209
0.567217
0.567225
0.567232
0.567232
0.56724
0.567247
0.567255
0.567263
0.567263
0.56727
0.567278
0.567286
0.567293
0.567293
0.567301
0.567309
0.567317
0.567324
0.567324
0.567332
0.56734
0.567348
0.567356
0.567356
0.567364
0.567371
0.567379
0.567387
0.567387
0.567395
0.567403
0.567411
0.567419
0.567419
0.567427
0.567435
0.567443
0.567451
0.567451
0.567459
0.567467
0.567475
0.567483
0.567483
0.567491
0.567499
0.567508
0.567516
0.567516
0.567524
0.567532
0.56754
0.567549
0.567549
0.567557
0.567565
0.567573
0.567582
0.567582
0.56759
0.567598
0.567606
0.567615
0.567615
0.567623
0.567631
0.56764
0.567648
0.567648
0.567657
0.567665
0.567674
0.567682
0.567682
0.567691
0.567699
0.567708
0.567716
0.567716
0.567725
0.567733
0.567742
0.567751
0.567751
0.567759
0.567768
0.567776
0.567785
0.567785
0.567794
0.567802
0.567811
0.56782
0.56782
0.567829
0.567837
0.567846
0.567855
0.567855
0.567864
0.567873
0.567882
0.567891
0.567891
0.567899
0.567908
0.567917
0.567926
0.567926
0.567935
0.567944
0.567953
0.567962
0.567962
0.567971
0.56798
0.56799
0.567999
0.567999
0.568008
0.568017
0.568026
0.568035
0.568035
0.568044
0.568054
0.568063
0.568072
0.568072
0.568081
0.568091
0.5681
0.568109
0.568109
0.568119
0.568128
0.568137
0.568147
0.568147
0.568156
0.568166
0.568175
0.568185
0.568185
0.568194
0.568204
0.568213
0.568223
0.568223
0.568232
0.568242
0.568251
0.568261
0.568261
0.568271
0.56828
0.56829
0.5683
0.5683
0.568309
0.568319
0.568329
0.568339
0.568339
0.568349
0.568358
0.568368
0.568378
0.568378
0.568388
0.568398
0.568408
0.568418
0.568418
0.568428
0.568438
0.568448
0.568458
0.568458
0.568468
0.568478
0.568488
0.568498
0.568498
0.568508
0.568518
0.568528
0.568539
0.568539
0.568549
0.568559
0.568569
0.56858
0.56858
0.56859
0.5686
0.568611
0.568621
0.568621
0.568631
0.568642
0.568652
0.568662
0.568662
0.568673
0.568683
0.568694
0.568704
0.568704
0.568715
0.568726
0.568736
0.568747
0.568747
0.568757
0.568768
0.568779
0.56879
0.56879
0.5688
0.568811
0.568822
0.568833
0.568833
0.568843
0.568854
0.568865
0.568876
0.568876
0.568887
0.568898
0.568909
0.56892
0.56892
0.568931
0.568942
0.568953
0.568964
0.568964
0.568975
0.568986
0.568997
0.569008
0.569008
0.569019
0.569031
0.569042
0.569053
0.569053
0.569064
0.569076
0.569087
0.569098
0.569098
0.56911
0.569121
0.569132
0.569144
0.569144
0.569155
0.569167
0.569178
0.56919
0.56919
0.569201
0.569213
0.569224
0.569236
0.569236
0.569248
0.569259
0.569271
0.569283
0.569283
0.569295
0.569306
0.569318
0.56933
0.56933
0.569342
0.569354
0.569366
0.569377
0.569377
0.569389
0.569401
0.569413
0.569425
0.569425
0.569437
0.569449
0.569462
0.569474
0.569474
0.569486
0.569498
0.56951
0.569522
0.569522
0.569535
0.569547
0.569559
0.569572
0.569572
0.569584
0.569596
0.569609
0.569621
0.569621
0.569634
0.569646
0.569658
0.569671
0.569671
0.569684
0.569696
0.569709
0.569721
0.569721
0.569734
0.569747
0.56976
0.569772
0.569772
0.569785
0.569798
0.569811
0.569824
0.569824
0.569836
0.569849
0.569862
0.569875
0.569875
0.569888
0.569901
0.569914
0.569927
0.569927
0.56994
0.569953
0.569967
0.56998
0.56998
0.569993
0.570006
0.57002
0.570033
0.570033
0.570046
0.57006
0.570073
0.570086
0.570086
0.5701
0.570113
0.570127
0.57014
0.57014
0.570154
0.570167
0.570181
0.570195
0.570195
0.570208
0.570222
0.570236
0.570249
0.570249
0.570263
0.570277
0.570291
0.570305
0.570305
0.570319
0.570333
0.570347
0.570361
0.570361
0.570375
0.570389
0.570403
0.570417
0.570417
0.570431
0.570445
0.570459
0.570473
0.570473
0.570488
0.570502
0.570516
0.570531
0.570531
0.570545
0.57056
0.570574
0.570589
0.570589
0.570603
0.570618
0.570632
0.570647
0.570647
0.570661
0.570676
0.570691
0.570705
0.570705
0.57072
0.570735
0.57075
0.570765
0.570765
0.570779
0.570794
0.570809
0.570824
0.570824
0.570839
0.570854
0.57087
0.570885
0.570885
0.5709
0.570915
0.57093
0.570945
0.570945
0.570961
0.570976
0.570991
0.571007
0.571007
0.571022
0.571038
0.571053
0.571068
0.571068
0.571084
0.5711
0.571115
0.571131
0.571131
0.571147
0.571162
0.571178
0.571194
0.571194
0.57121
0.571226
0.571241
0.571257
0.571257
0.571273
0.571289
0.571305
0.571321
0.571321
0.571337
0.571353
0.57137
0.571386
0.571386
0.571402
0.571418
0.571435
0.571451
0.571451
0.571467
0.571484
0.5715
0.571517
0.571517
0.571533
0.57155
0.571566
0.571583
0.571583
0.5716
0.571616
0.571633
0.57165
0.57165
0.571667
0.571683
0.5717
0.571717
0.571717
0.571734
0.571751
0.571768
0.571785
0.571785
0.571802
0.57182
0.571837
0.571854
0.571854
0.571871
0.571888
0.571906
0.571923
0.571923
0.57194
0.571958
0.571975
0.571993
0.571993
0.57201
0.572028
0.572046
0.572063
0.572063
0.572081
0.572099
0.572117
0.572134
0.572134
0.572152
0.57217
0.572188
0.572206
0.572206
0.572224
0.572242
0.57226
0.572278
0.572278
0.572297
0.572315
0.572333
0.572351
0.572351
0.57237
0.572388
0.572406
0.572425
0.572425
0.572443
0.572462
0.572481
0.572499
0.572499
0.572518
0.572537
0.572555
0.572574
0.572574
0.572593
0.572612
0.572631
0.57265
0.57265
0.572669
0.572688
0.572707
0.572726
0.572726
0.572745
0.572764
0.572783
0.572803
0.572803
0.572822
0.572841
0.572861
0.57288
0.57288
0.5729
0.572919
0.572939
0.572959
0.572959
0.572978
0.572998
0.573018
0.573038
0.573038
0.573057
0.573077
0.573097
0.573117
0.573117
0.573137
0.573157
0.573177
0.573198
0.573198
0.573218
0.573238
0.573258
0.573279
0.573279
0.573299
0.573319
0.57334
0.57336
0.57336
0.573381
0.573402
0.573422
0.573443
0.573443
0.573464
0.573484
0.573505
0.573526
0.573526
0.573547
0.573568
0.573589
0.57361
0.57361
0.573631
0.573652
0.573674
0.573695
0.573695
0.573716
0.573737
0.573759
0.57378
0.57378
0.573802
0.573823
0.573845
0.573866
0.573866
0.573888
0.57391
0.573932
0.573954
0.573954
0.573975
0.573997
0.574019
0.574041
0.574041
0.574063
0.574085
0.574108
0.57413
0.57413
0.574152
0.574174
0.574197
0.574219
0.574219
0.574242
0.574264
0.574287
0.574309
0.574309
0.574332
0.574355
0.574377
0.5744
0.5744
0.574423
0.574446
0.574469
0.574492
0.574492
0.574515
0.574538
0.574561
0.574584
0.574584
0.574608
0.574631
0.574654
0.574678
0.574678
0.574701
0.574725
0.574748
0.574772
0.574772
0.574796
0.574819
0.574843
0.574867
0.574867
0.574891
0.574915
0.574939
0.574963
0.574963
0.574987
0.575011
0.575035
0.57506
0.57506
0.575084
0.575108
0.575133
0.575157
0.575157
0.575182
0.575206
0.575231
0.575256
0.575256
0.57528
0.575305
0.57533
0.575355
0.575355
0.57538
0.575405
0.57543
0.575455
0.575455
0.57548
0.575505
0.575531
0.575556
0.575556
0.575581
0.575607
0.575632
0.575658
0.575658
0.575684
0.575709
0.575735
0.575761
0.575761
0.575787
0.575813
0.575839
0.575865
0.575865
0.575891
0.575917
0.575943
0.575969
0.575969
0.575996
0.576022
0.576048
0.576075
0.576075
0.576101
0.576128
0.576155
0.576182
0.576182
0.576208
0.576235
0.576262
0.576289
0.576289
0.576316
0.576343
0.57637
0.576397
0.576397
0.576425
0.576452
0.576479
0.576507
0.576507
0.576534
0.576562
0.576589
0.576617
0.576617
0.576645
0.576673
0.576701
0.576728
0.576728
0.576756
0.576784
0.576813
0.576841
0.576841
0.576869
0.576897
0.576926
0.576954
0.576954
0.576982
0.577011
0.57704
0.577068
0.577068
0.577097
0.577126
0.577155
0.577183
0.577183
0.577212
0.577241
0.577271
0.5773
0.5773
0.577329
0.577358
0.577388
0.577417
0.577417
0.577446
0.577476
0.577506
0.577535
0.577535
0.577565
0.577595
0.577625
0.577655
0.577655
0.577685
0.577715
0.577745
0.577775
0.577775
0.577805
0.577836
0.577866
0.577896
0.577896
0.577927
0.577957
0.577988
0.578019
0.578019
0.57805
0.57808
0.578111
0.578142
0.578142
0.578173
0.578205
0.578236
0.578267
0.578267
0.578298
0.57833
0.578361
0.578393
0.578393
0.578424
0.578456
0.578488
0.578519
0.578519
0.578551
0.578583
0.578615
0.578647
0.578647
0.578679
0.578712
0.578744
0.578776
0.578776
0.578809
0.578841
0.578874
0.578906
0.578906
0.578939
0.578972
0.579004
0.579037
0.579037
0.57907
0.579103
0.579136
0.57917
0.57917
0.579203
0.579236
0.57927
0.579303
0.579303
0.579337
0.57937
0.579404
0.579438
0.579438
0.579471
0.579505
0.579539
0.579573
0.579573
0.579607
0.579641
0.579676
0.57971
0.57971
0.579744
0.579779
0.579813
0.579848
0.579848
0.579883
0.579917
0.579952
0.579987
0.579987
0.580022
0.580057
0.580092
0.580127
0.580127
0.580163
0.580198
0.580233
0.580269
0.580269
0.580304
0.58034
0.580376
0.580412
0.580412
0.580447
0.580483
0.580519
0.580555
0.580555
0.580592
0.580628
0.580664
0.5807
0.5807
0.580737
0.580773
0.58081
0.580847
0.580847
0.580883
0.58092
0.580957
0.580994
0.580994
0.581031
0.581068
0.581106
0.581143
0.581143
0.58118
0.581218
0.581255
0.581293
0.581293
0.58133
0.581368
0.581406
0.581444
0.581444
0.581482
0.58152
0.581558
0.581596
0.581596
0.581635
0.581673
0.581711
0.58175
0.58175
0.581789
0.581827
0.581866
0.581905
0.581905
0.581944
0.581983
0.582022
0.582061
0.582061
0.5821
0.582139
0.582179
0.582218
0.582218
0.582258
0.582298
0.582337
0.582377
0.582377
0.582417
0.582457
0.582497
0.582537
0.582537
0.582577
0.582617
0.582658
0.582698
0.582698
0.582739
0.582779
0.58282
0.582861
0.582861
0.582901
0.582942
0.582983
0.583024
0.583024
0.583066
0.583107
0.583148
0.58319
0.58319
0.583231
0.583273
0.583314
0.583356
0.583356
0.583398
0.58344
0.583482
0.583524
0.583524
0.583566
0.583608
0.58365
0.583693
0.583693
0.583735
0.583778
0.58382
0.583863
0.583863
0.583906
0.583949
0.583991
0.584035
0.584035
0.584078
0.584121
0.584164
0.584207
0.584207
0.584251
0.584294
0.584338
0.584382
0.584382
0.584426
0.584469
0.584513
0.584557
0.584557
0.584601
0.584646
0.58469
0.584734
0.584734
0.584779
0.584823
0.584868
0.584913
0.584913
0.584957
0.585002
0.585047
0.585092
0.585092
0.585137
0.585183
0.585228
0.585273
0.585273