<?xml version="1.0"?>
<VTKFile type="UnstructuredGrid" version="0.1" byte_order="LittleEndian">
<UnstructuredGrid>
<Piece NumberOfPoints="5000" NumberOfCells="4000">
<PointData Scalars="Reaction 0">
<DataArray type="Float32" Name="Reaction 0" format="ascii">
0.568693
0.568693
0.568693
0.568693
0.568693
0.568693
0.568693
0.568693
0.568693
0.568693
0.568693
0.568693
0.568693
0.568693
0.568693
0.568693
0.568693
0.568694
0.568694
0.568694
0.568694
0.568694
0.568694
0.568694
0.568694
0.568694
0.568694
0.568695
0.568695
0.568695
0.568695
0.568695
0.568695
0.568696
0.568696
0.568696
0.568696
0.568696
0.568696
0.568697
0.568697
0.568697
0.568697
0.568697
0.568698
0.568698
0.568698
0.568698
0.568699
0.568699
0.568699
0.568699
0.568699
0.5687
0.5687
0.5687
0.5687
0.568701
0.568701
0.568702
0.568702
0.568702
0.568702
0.568703
0.568703
0.568703
0.568703
0.568704
0.568704
0.568705
0.568705
0.568705
0.568706
0.568706
0.568706
0.568706
0.568707
0.568707
0.568708
0.568708
0.568708
0.568709
0.568709
0.56871
0.56871
0.56871
0.568711
0.568711
0.568712
0.568712
0.568712
0.568713
0.568714
0.568714
0.568715
0.568715
0.568715
0.568716
0.568716
0.568717
0.568717
0.568718
0.568718
0.568719
0.568719
0.568719
0.56872
0.568721
0.568721
0.568722
0.568722
0.568723
0.568723
0.568724
0.568725
0.568725
0.568726
0.568726
0.568727
0.568728
0.568728
0.568728
0.568729
0.56873
0.568731
0.568731
0.568731
0.568732
0.568733
0.568734
0.568734
0.568735
0.568735
0.568736
0.568737
0.568737
0.568738
0.568739
0.568739
0.56874
0.56874
0.568741
0.568742
0.568743
0.568744
0.568744
0.568745
0.568745
0.568746
0.568747
0.568747
0.568748
0.568749
0.56875
0.568751
0.568751
0.568752
0.568753
0.568754
0.568755
0.568755
0.568756
0.568757
0.568758
0.568759
0.568759
0.56876
0.568761
0.568762
0.568763
0.568763
0.568764
0.568765
0.568766
0.568767
0.568767
0.568768
0.568769
0.56877
0.568771
0.568771
0.568773
0.568774
0.568775
0.568776
0.568776
0.568777
0.568778
0.568779
0.56878
0.56878
0.568782
0.568783
0.568784
0.568785
0.568785
0.568786
0.568788
0.568789
0.56879
0.56879
0.568791
0.568792
0.568794
0.568795
0.568795
0.568796
0.568797
0.568799
0.5688
0.5688
0.568801
0.568803
0.568804
0.568805
0.568805
0.568807
0.568808
0.568809
0.568811
0.568811
0.568812
0.568813
0.568815
0.568816
0.568816
0.568817
0.568819
0.56882
0.568822
0.568822
0.568823
0.568824
0.568826
0.568827
0.568827
0.568829
0.56883
0.568832
0.568833
0.568833
0.568835
0.568836
0.568838
0.568839
0.568839
0.568841
0.568842
0.568844
0.568845
0.568845
0.568847
0.568848
0.56885
0.568851
0.568851
0.568853
0.568854
0.568856
0.568858
0.568858
0.568859
0.568861
0.568863
0.568864
0.568864
0.568866
0.568867
0.568869
0.568871
0.568871
0.568872
0.568874
0.568876
0.568877
0.568877
0.568879
0.568881
0.568883
0.568884
0.568884
0.568886
0.568888
0.56889
0.568891
0.568891
0.568893
0.568895
0.568897
0.568898
0.568898
0.5689
0.568902
0.568904
0.568906
0.568906
0.568907
0.568909
0.568911
0.568913
0.568913
0.568915
0.568917
0.568919
0.56892
0.56892
0.568922
0.568924
0.568926
0.568928
0.568928
0.56893
0.568932
0.568934
0.568936
0.568936
0.568938
0.56894
0.568942
0.568944
0.568944
0.568946
0.568948
0.56895
0.568952
0.568952
0.568954
0.568956
0.568958
0.56896
0.56896
0.568962
0.568964
0.568966
0.568968
0.568968
0.56897
0.568972
0.568975
0.568977
0.568977
0.568979
0.568981
0.568983
0.568985
0.568985
0.568987
0.568989
0.568992
0.568994
0.568994
0.568996
0.568998
0.569
0.569003
0.569003
0.569005
0.569007
0.569009
0.569012
0.569012
0.569014
0.569016
0.569018
0.569021
0.569021
0.569023
0.569025
0.569028
0.56903
0.56903
0.569032
0.569034
0.569037
0.569039
0.569039
0.569042
0.569044
0.569046
0.569049
0.569049
0.569051
0.569053
0.569056
0.569058
0.569058
0.569061
0.569063
0.569066
0.569068
0.569068
0.56907
0.569073
0.569075
0.569078
0.569078
0.56908
0.569083
0.569085
0.569088
0.569088
0.569091
0.569093
0.569096
0.569098
0.569098
0.569101
0.569103
0.569106
0.569109
0.569109
0.569111
0.569114
0.569116
0.569119
0.569119
0.569122
0.569124
0.569127
0.56913
0.56913
0.569132
0.569135
0.569138
0.56914
0.56914
0.569143
0.569146
0.569148
0.569151
0.569151
0.569154
0.569157
0.569159
0.569162
0.569162
0.569165
0.569168
0.56917
0.569173
0.569173
0.569176
0.569179
0.569182
0.569185
0.569185
0.569187
0.56919
0.569193
0.569196
0.569196
0.569199
0.569202
0.569205
0.569208
0.569208
0.56921
0.569213
0.569216
0.569219
0.569219
0.569222
0.569225
0.569228
0.569231
0.569231
0.569234
0.569237
0.56924
0.569243
0.569243
0.569246
0.569249
0.569252
0.569255
0.569255
0.569258
0.569261
0.569264
0.569268
0.569268
0.569271
0.569274
0.569277
0.56928
0.56928
0.569283
0.569286
0.569289
0.569293
0.569293
0.569296
0.569299
0.569302
0.569305
0.569305
0.569308
0.569312
0.569315
0.569318
0.569318
0.569321
0.569325
0.569328
0.569331
0.569331
0.569334
0.569338
0.569341
0.569344
0.569344
0.569347
0.569351
0.569354
0.569357
0.569357
0.569361
0.569364
0.569368
0.569371
0.569371
0.569374
0.569378
0.569381
0.569384
0.569384
0.569388
0.569391
0.569395
0.569398
0.569398
0.569402
0.569405
0.569409
0.569412
0.569412
0.569416
0.569419
0.569423
0.569426
0.569426
0.56943
0.569433
0.569437
0.569441
0.569441
0.569444
0.569448
0.569451
0.569455
0.569455
0.569459
0.569462
0.569466
0.569469
0.569469
0.569473
0.569477
0.56948
0.569484
0.569484
0.569488
0.569492
0.569495
0.569499
0.569499
0.569503
0.569506
0.56951
0.569514
0.569514
0.569518
0.569521
0.569525
0.569529
0.569529
0.569533
0.569537
0.569541
0.569544
0.569544
0.569548
0.569552
0.569556
0.56956
0.56956
0.569564
0.569568
0.569571
0.569575
0.569575
0.569579
0.569583
0.569587
0.569591
0.569591
0.569595
0.569599
0.569603
0.569607
0.569607
0.569611
0.569615
0.569619
0.569623
0.569623
0.569627
0.569631
0.569635
0.569639
0.569639
0.569643
0.569648
0.569652
0.569656
0.569656
0.56966
0.569664
0.569668
0.569672
0.569672
0.569676
0.569681
0.569685
0.569689
0.569689
0.569693
0.569697
0.569702
0.569706
0.569706
0.56971
0.569714
0.569719
0.569723
0.569723
0.569727
0.569731
0.569736
0.56974
0.56974
0.569744
0.569749
0.569753
0.569758
0.569758
0.569762
0.569766
0.569771
0.569775
0.569775
0.56978
0.569784
0.569788
0.569793
0.569793
0.569797
0.569802
0.569806
0.569811
0.569811
0.569815
0.56982
0.569824
0.569829
0.569829
0.569833
0.569838
0.569842
0.569847
0.569847
0.569852
0.569856
0.569861
0.569865
0.569865
0.56987
0.569875
0.569879
0.569884
0.569884
0.569889
0.569893
0.569898
0.569903
0.569903
0.569907
0.569912
0.569917
0.569922
0.569922
0.569926
0.569931
0.569936
0.569941
0.569941
0.569945
0.56995
0.569955
0.56996
0.56996
0.569965
0.56997
0.569974
0.569979
0.569979
0.569984
0.569989
0.569994
0.569999
0.569999
0.570004
0.570009
0.570014
0.570019
0.570019
0.570024
0.570029
0.570034
0.570038
0.570038
0.570043
0.570049
0.570054
0.570059
0.570059
0.570064
0.570069
0.570074
0.570079
0.570079
0.570084
0.570089
0.570094
0.570099
0.570099
0.570105
0.57011
0.570115
0.57012
0.57012
0.570125
0.570131
0.570136
0.570141
0.570141
0.570146
0.570152
0.570157
0.570162
0.570162
0.570167
0.570173
0.570178
0.570183
0.570183
0.570189
0.570194
0.570199
0.570205
0.570205
0.57021
0.570216
0.570221
0.570226
0.570226
0.570232
0.570237
0.570243
0.570248
0.570248
0.570254
0.570259
0.570265
0.57027
0.57027
0.570276
0.570281
0.570287
0.570292
0.570292
0.570298
0.570303
0.570309
0.570315
0.570315
0.57032
0.570326
0.570331
0.570337
0.570337
0.570343
0.570348
0.570354
0.57036
0.57036
0.570365
0.570371
0.570377
0.570383
0.570383
0.570388
0.570394
0.5704
0.570406
0.570406
0.570411
0.570417
0.570423
0.570429
0.570429
0.570435
0.570441
0.570447
0.570453
0.570453
0.570458
0.570464
0.57047
0.570476
0.570476
0.570482
0.570488
0.570494
0.5705
0.5705
0.570506
0.570512
0.570518
0.570524
0.570524
0.57053
0.570536
0.570543
0.570549
0.570549
0.570555
0.570561
0.570567
0.570573
0.570573
0.570579
0.570585
0.570592
0.570598
0.570598
0.570604
0.57061
0.570617
0.570623
0.570623
0.570629
0.570635
0.570642
0.570648
0.570648
0.570654
0.57066
0.570667
0.570673
0.570673
0.570679
0.570686
0.570692
0.570699
0.570699
0.570705
0.570711
0.570718
0.570724
0.570724
0.570731
0.570737
0.570744
0.57075
0.57075
0.570757
0.570763
0.57077
0.570776
0.570776
0.570783
0.570789
0.570796
0.570803
0.570803
0.570809
0.570816
0.570822
0.570829
0.570829
0.570836
0.570843
0.570849
0.570856
0.570856
0.570863
0.570869
0.570876
0.570883
0.570883
0.57089
0.570897
0.570903
0.57091
0.57091
0.570917
0.570924
0.570931
0.570938
0.570938
0.570945
0.570952
0.570958
0.570965
0.570965
0.570972
0.570979
0.570986
0.570993
0.570993
0.571
0.571007
0.571014
0.571021
0.571021
0.571028
0.571035
0.571043
0.57105
0.57105
0.571057
0.571064
0.571071
0.571078
0.571078
0.571085
0.571092
0.5711
0.571107
0.571107
0.571114
0.571121
0.571129
0.571136
0.571136
0.571143
0.57115
0.571158
0.571165
0.571165
0.571172
0.57118
0.571187
0.571194
0.571194
0.571202
0.571209
0.571217
0.571224
0.571224
0.571231
0.571239
0.571246
0.571254
0.571254
0.571261
0.571269
0.571277
0.571284
0.571284
0.571292
0.571299
0.571307
0.571315
0.571315
0.571322
0.57133
0.571337
0.571345
0.571345
0.571353
0.571361
0.571368
0.571376
0.571376
0.571384
0.571392
0.571399
0.571407
0.571407
0.571415
0.571423
0.571431
0.571438
0.571438
0.571446
0.571454
0.571462
0.57147
0.57147
0.571478
0.571486
0.571494
0.571502
0.571502
0.57151
0.571518
0.571526
0.571534
0.571534
0.571542
0.57155
0.571558
0.571566
0.571566
0.571574
0.571582
0.57159
0.571598
0.571598
0.571606
0.571615
0.571623
0.571631
0.571631
0.571639
0.571648
0.571656
0.571664
0.571664
0.571673
0.571681
0.571689
0.571698
0.571698
0.571706
0.571714
0.571723
0.571731
0.571731
0.57174
0.571748
0.571756
0.571765
0.571765
0.571773
0.571782
0.57179
0.571799
0.571799
0.571808
0.571816
0.571825
0.571833
0.571833
0.571842
0.571851
0.571859
0.571868
0.571868
0.571876
0.571885
0.571894
0.571903
0.571903
0.571911
0.57192
0.571929
0.571938
0.571938
0.571946
0.571955
0.571964
0.571973
0.571973
0.571982
0.571991
0.572
0.572008
0.572008
0.572017
0.572026
0.572035
0.572044
0.572044
0.572053
0.572062
0.572071
0.572081
0.572081
0.57209
0.572099
0.572108
0.572117
0.572117
0.572126
0.572135
0.572145
0.572154
0.572154
0.572163
0.572172
0.572181
0.572191
0.572191
0.5722
0.572209
0.572219
0.572228
0.572228
0.572237
0.572247
0.572256
0.572265
0.572265
0.572275
0.572284
0.572294
0.572303
0.572303
0.572313
0.572322
0.572332
0.572341
0.572341
0.572351
0.57236
0.57237
0.57238
0.57238
0.572389
0.572399
0.572408
0.572418
0.572418
0.572428
0.572438
0.572447
0.572457
0.572457
0.572467
0.572477
0.572486
0.572496
0.572496
0.572506
0.572516
0.572526
0.572536
0.572536
0.572546
0.572556
0.572566
0.572576
0.572576
0.572586
0.572596
0.572606
0.572616
0.572616
0.572626
0.572636
0.572646
0.572656
0.572656
0.572666
0.572677
0.572687
0.572697
0.572697
0.572707
0.572717
0.572728
0.572738
0.572738
0.572748
0.572758
0.572769
0.572779
0.572779
0.572789
0.5728
0.57281
0.572821
0.572821
0.572831
0.572841
0.572852
0.572862
0.572862
0.572873
0.572883
0.572894
0.572905
0.572905
0.572915
0.572926
0.572936
0.572947
0.572947
0.572958
0.572968
0.572979
0.57299
0.57299
0.573001
0.573011
0.573022
0.573033
0.573033
0.573044
0.573055
0.573066
0.573077
0.573077
0.573087
0.573098
0.573109
0.57312
0.57312
0.573131
0.573142
0.573153
0.573164
0.573164
0.573175
0.573187
0.573198
0.573209
0.573209
0.57322
0.573231
0.573242
0.573253
0.573253
0.573265
0.573276
0.573287
0.573298
0.573298
0.57331
0.573321
0.573332
0.573344
0.573344
0.573355
0.573366
0.573378
0.573389
0.573389
0.573401
0.573412
0.573424
0.573435
0.573435
0.573447
0.573459
0.57347
0.573482
0.573482
0.573493
0.573505
0.573517
0.573529
0.573529
0.57354
0.573552
0.573564
0.573576
0.573576
0.573587
0.573599
0.573611
0.573623
0.573623
0.573635
0.573647
0.573659
0.573671
0.573671
0.573683
0.573695
0.573707
0.573719
0.573719
0.573731
0.573743
0.573755
0.573767
0.573767
0.573779
0.573791
0.573803
0.573816
0.573816
0.573828
0.57384
0.573852
0.573865
0.573865
0.573877
0.573889
0.573902
0.573914
0.573914
0.573927
0.573939
0.573952
0.573964
0.573964
0.573977
0.573989
0.574002
0.574014
0.574014
0.574027
0.574039
0.574052
0.574065
0.574065
0.574077
0.57409
0.574103
0.574116
0.574116
0.574128
0.574141
0.574154
0.574167
0.574167
0.57418
0.574193
0.574205
0.574218
0.574218
0.574231
0.574244
0.574257
0.57427
0.57427
0.574283
0.574296
0.574309
0.574323
0.574323
0.574336
0.574349
0.574362
0.574375
0.574375
0.574388
0.574402
0.574415
0.574428
0.574428
0.574442
0.574455
0.574468
0.574482
0.574482
0.574495
0.574509
0.574522
0.574536
0.574536
0.574549
0.574563
0.574576
0.57459
0.57459
0.574604
0.574617
0.574631
0.574645
0.574645
0.574658
0.574672
0.574686
0.5747
0.5747
0.574713
0.574727
0.574741
0.574755
0.574755
0.574769
0.574783
0.574797
0.574811
0.574811
0.574825
0.574839
0.574853
0.574867
0.574867
0.574881
0.574895
0.574909
0.574923
0.574923
0.574938
0.574952
0.574966
0.57498
0.57498
0.574995
0.575009
0.575024
0.575038
0.575038
0.575052
0.575067
0.575081
0.575096
0.575096
0.57511
0.575125
0.575139
0.575154
0.575154
0.575169
0.575183
0.575198
0.575213
0.575213
0.575227
0.575242
0.575257
0.575271
0.575271
0.575286
0.575301
0.575316
0.575331
0.575331
0.575346
0.575361
0.575376
0.575391
0.575391
0.575406
0.575421
0.575436
0.575451
0.575451
0.575466
0.575481
0.575496
0.575512
0.575512
0.575527
0.575542
0.575558
0.575573
0.575573
0.575588
0.575604
0.575619
0.575634
0.575634
0.57565
0.575665
0.575681
0.575696
0.575696
0.575712
0.575728
0.575743
0.575759
0.575759
0.575775
0.57579
0.575806
0.575822
0.575822
0.575837
0.575853
0.575869
0.575885
0.575885
0.575901
0.575917
0.575933
0.575949
0.575949
0.575965
0.575981
0.575997
0.576013
0.576013
0.576029
0.576045
0.576061
0.576077
0.576077
0.576094
0.57611
0.576126
0.576143
0.576143
0.576159
0.576175
0.576192
0.576208
0.576208
0.576225
0.576241
0.576258
0.576274
0.576274
0.576291
0.576307
0.576324
0.576341
0.576341
0.576357
0.576374
0.576391
0.576408
0.576408
0.576424
0.576441
0.576458
0.576475
0.576475
0.576492
0.576509
0.576526
0.576543
0.576543
0.57656
0.576577
0.576594
0.576611
0.576611
0.576628
0.576645
0.576663
0.57668
0.57668
0.576697
0.576715
0.576732
0.576749
0.576749
0.576767
0.576784
0.576802
0.576819
0.576819
0.576837
0.576854
0.576872
0.576889
0.576889
0.576907
0.576925
0.576942
0.57696
0.57696
0.576978
0.576996
0.577013
0.577031
0.577031
0.577049
0.577067
0.577085
0.577103
0.577103
0.577121
0.577139
0.577157
0.577175
0.577175
0.577193
0.577211
0.57723
0.577248
0.577248
0.577266
0.577284
0.577303
0.577321
0.577321
0.57734
0.577358
0.577376
0.577395
0.577395
0.577413
0.577432
0.577451
0.577469
0.577469
0.577488
0.577506
0.577525
0.577544
0.577544
0.577563
0.577581
0.5776
0.577619
0.577619
0.577638
0.577657
0.577676
0.577695
0.577695
0.577714
0.577733
0.577752
0.577771
0.577771
0.57779
0.577809
0.577829
0.577848
0.577848
0.577867
0.577887
0.577906
0.577925
0.577925
0.577945
0.577964
0.577984
0.578003
0.578003
0.578023
0.578042
0.578062
0.578082
0.578082
0.578101
0.578121
0.578141
0.578161
0.578161
0.57818
0.5782
0.57822
0.57824
0.57824
0.57826
0.57828
0.5783
0.57832
0.57832
0.57834
0.57836
0.57838
0.578401
0.578401
0.578421
0.578441
0.578461
0.578482
0.578482
0.578502
0.578523
0.578543
0.578564
0.578564
0.578584
0.578605
0.578625
0.578646
0.578646
0.578667
0.578687
0.578708
0.578729
0.578729
0.578749
0.57877
0.578791
0.578812
0.578812
0.578833
0.578854
0.578875
0.578896
0.578896
0.578917
0.578938
0.578959
0.57898
0.57898
0.579002
0.579023
0.579044
0.579065
0.579065
0.579087
0.579108
0.57913
0.579151
0.579151
0.579173
0.579194
0.579216
0.579237
0.579237
0.579259
0.579281
0.579303
0.579324
0.579324
0.579346
0.579368
0.57939
0.579412
0.579412
0.579434
0.579456
0.579478
0.5795
0.5795
0.579522
0.579544
0.579566
0.579588
0.579588
0.57961
0.579633
0.579655
0.579677
0.579677
0.5797
0.579722
0.579745
0.579767
0.579767
0.57979
0.579812
0.579835
0.579858
0.579858
0.57988
0.579903
0.579926
0.579949
0.579949
0.579972
0.579994
0.580017
0.58004
0.58004
0.580063
0.580086
0.580109
0.580133
0.580133
0.580156
0.580179
0.580202
0.580225
0.580225
0.580249
0.580272
0.580295
0.580319
0.580319
0.580342
0.580366
0.580389
0.580413
0.580413
0.580436
0.58046
0.580484
0.580508
0.580508
0.580531
0.580555
0.580579
0.580603
0.580603
0.580627
0.580651
0.580675
0.580699
0.580699
0.580723
0.580747
0.580771
0.580796
0.580796
0.58082
0.580844
0.580868
0.580893
0.580893
0.580917
0.580942
0.580966
0.580991
0.580991
0.581015
0.58104
0.581064
0.581089
0.581089
0.581114
0.581139
0.581164
0.581188
0.581188
0.581213
0.581238
0.581263
0.581288
0.581288
0.581313
0.581339
0.581364
0.581389
0.581389
0.581414
0.581439
0.581465
0.58149
0.58149
0.581516
0.581541
0.581566
0.581592
0.581592
0.581617
0.581643
0.581669
0.581694
0.581694
0.58172
0.581746
0.581772
0.581798
0.581798
0.581823
0.581849
0.581875
0.581901
0.581901
0.581927
0.581954
0.58198
0.582006
0.582006
0.582032
0.582059
0.582085
0.582111
0.582111
0.582138
0.582164
0.582191
0.582217
0.582217
0.582244
0.58227
0.582297
0.582324
0.582324
0.582351
0.582377
0.582404
0.582431
0.582431
0.582458
0.582485
0.582512
0.582539
0.582539
0.582566
0.582593
0.58262
0.582648
0.582648
0.582675
0.582702
0.58273
0.582757
0.582757
0.582785
0.582812
0.58284
0.582867
0.582867
0.582895
0.582923
0.58295
0.582978
0.582978
0.583006
0.583034
0.583062
0.58309
0.58309
0.583118
0.583146
0.583174
0.583202
0.583202
0.58323
0.583258
0.583286
0.583315
0.583315
0.583343
0.583371
0.5834
0.583428
0.583428
0.583457
0.583485
0.583514
0.583543
0.583543
0.583572
0.5836
0.583629
0.583658
0.583658
0.583687
0.583716
0.583745
0.583774
0.583774
0.583803
0.583832
0.583861
0.58389
0.58389
0.58392
0.583949
0.583978
0.584008
0.584008
0.584037
0.584067
0.584096
0.584126
0.584126
0.584155
0.584185
0.584215
0.584245
0.584245
0.584274
0.584304
0.584334
0.584364
0.584364
0.584394
0.584424
0.584454
0.584485
0.584485
0.584515
0.584545
0.584575
0.584606
0.584606
0.584636
0.584667
0.584697
0.584728
0.584728
0.584758
0.584789
0.584819
0.58485
0.58485
0.584881
0.584912
0.584942
0.584973
0.584973
0.585004
0.585035
0.585066
0.585098
0.585098
0.585129
0.58516
0.585191
0.585223
0.585223
0.585254
0.585285
0.585317
0.585348
0.585348
0.58538
0.585411
0.585443
0.585475
0.585475
0.585506
0.585538
0.58557
0.585602
0.585602
0.585634
0.585666
0.585698
0.58573
0.58573
0.585762
0.585794
0.585826
0.585859
0.585859
0.585891
0.585923
0.585956
0.585988
0.585988
0.586021
0.586053
0.586086
0.586119
0.586119
0.586151
0.586184
0.586217
0.58625
0.58625
0.586283
0.586316
0.586349
0.586382
0.586382
0.586415
0.586448
0.586481
0.586514
0.586514
0.586548
0.586581
0.586614
0.586648
0.586648
0.586681
0.586715
0.586749
0.586782
0.586782
0.586816
0.58685
0.586884
0.586918
0.586918
0.586951
0.586985
0.587019
0.587054
0.587054
0.587088
0.587122
0.587156
0.58719
0.58719
0.587225
0.587259
0.587293
0.587328
0.587328
0.587362
0.587397
0.587432
0.587466
0.587466
0.587501
0.587536
0.587571
0.587605
0.587605
0.58764
0.587675
0.58771
0.587746
0.587746
0.587781
0.587816
0.587851
0.587887
0.587887
0.587922
0.587957
0.587993
0.588028
0.588028
0.588064
0.588099
0.588135
0.588171
0.588171
0.588206
0.588242
0.588278
0.588314
0.588314
0.58835
0.588386
0.588422
0.588458
0.588458
0.588494
0.588531
0.588567
0.588603
0.588603
0.58864
0.588676
0.588713
0.588749
0.588749
0.588786
0.588822
0.588859
0.588896
0.588896
0.588933
0.58897
0.589006
0.589043
0.589043
0.58908
0.589117
0.589155
0.589192
0.589192
0.589229
0.589266
0.589304
0.589341
0.589341
0.589378
0.589416
0.589453
0.589491
0.589491
0.589529
0.589566
0.589604
0.589642
0.589642
0.58968
0.589718
0.589756
0.589794
0.589794
0.589832
0.58987
0.589908
0.589946
0.589946
0.589985
0.590023
0.590061
0.5901
0.5901
0.590138
0.590177
0.590215
0.590254
0.590254
0.590293
0.590332
0.59037
0.590409
0.590409
0.590448
0.590487
0.590526
0.590565
0.590565
0.590604
0.590644
0.590683
0.590722
0.590722
0.590762
0.590801
0.59084
0.59088
0.59088
0.59092
0.590959
0.590999
0.591038
0.591038
0.591078
0.591118
0.591158
0.591198
0.591198
0.591238
0.591278
0.591318
0.591358
0.591358
0.591398
0.591439
0.591479
0.591519
0.591519
0.59156
0.5916
0.591641
0.591682
0.591682
0.591722
0.591763
0.591804
0.591844
0.591844
0.591885
0.591926
0.591967
0.592008
0.592008
0.592049
0.59209
0.592132
0.592173
0.592173
0.592214
0.592255
0.592297
0.592338
0.592338
0.59238
0.592421
0.592463
0.592505
0.592505
0.592546
0.592588
0.59263
0.592672
0.592672
0.592714
0.592756
0.592798
0.59284
0.59284
0.592882
0.592924
0.592967
0.593009
0.593009
0.593051
0.593094
0.593136
0.593179
0.593179
0.593221
0.593264
0.593307
0.59335
0.59335
0.593392
0.593435
0.593478
0.593521
0.593521
0.593564
0.593607
0.59365
0.593694
0.593694
0.593737
0.59378
0.593824
0.593867
0.593867
0.59391
0.593954
0.593997
0.594041
0.594041
0.594085
0.594128
0.594172
0.594216
0.594216
0.59426
0.594304
0.594348
0.594392
0.594392
0.594436
0.59448
0.594525
0.594569
0.594569
0.594613
0.594658
0.594702
0.594746
0.594746
0.594791
0.594836
0.59488
0.594925
0.594925
0.59497
0.595015
0.595059
0.595104
0.595104
0.595149
0.595194
0.595239
0.595284
0.595284
0.59533
0.595375
0.59542
0.595466
0.595466
0.595511
0.595557
0.595602
0.595648
0.595648
0.595693
0.595739
0.595785
0.59583
0.59583
0.595876
0.595922
0.595968
0.596014
0.596014
0.59606
0.596106
0.596152
0.596199
0.596199
0.596245
0.596291
0.596338
0.596384
0.596384
0.59643
0.596477
0.596524
0.59657
0.59657
0.596617
0.596664
0.596711
0.596757
0.596757
0.596804
0.596851
0.596898
0.596945
0.596945
0.596992
0.59704
0.597087
0.597134
0.597134
0.597181
0.597229
0.597276
0.597324
0.597324
0.597371
0.597419
0.597467
0.597514
0.597514
0.597562
0.59761
0.597658
0.597706
0.597706
0.597754
0.597802
0.59785
0.597898
0.597898
0.597946
0.597994
0.598042
0.598091
0.598091
0.598139
0.598188
0.598236
0.598285
0.598285
0.598333
0.598382
0.598431
0.598479
0.598479
0.598528
0.598577
0.598626
0.598675
0.598675
0.598724
0.598773
0.598822
0.598871
0.598871
0.598921
0.59897
0.599019
0.599068
0.599068
0.599118
0.599167
0.599217
0.599266
0.599266
0.599316
0.599366
0.599416
0.599465
0.599465
0.599515
0.599565
0.599615
0.599665
0.599665
0.599715
0.599765
0.599815
0.599866
0.599866
0.599916
0.599966
0.600016
0.600067
0.600067
0.600117
0.600168
0.600218
0.600269
0.600269
0.60032
0.60037
0.600421
0.600472
0.600472
0.600523
0.600574
0.600624
0.600675
0.600675
0.600727
0.600778
0.600829
0.60088
0.60088
0.600931
0.600983
0.601034
0.601085
0.601085
0.601137
0.601188
0.60124
0.601291
0.601291
0.601343
0.601395
0.601447
0.601498
0.601498
0.60155
0.601602
0.601654
0.601706
0.601706
0.601758
0.60181
0.601862
0.601915
0.601915
0.601967
0.602019
0.602071
0.602124
0.602124
0.602176
0.602229
0.602281
0.602334
0.602334
0.602386
0.602439
0.602492
0.602545
0.602545
0.602597
0.60265
0.602703
0.602756
0.602756
0.602809
0.602862
0.602915
0.602968
0.602968
0.603022
0.603075
0.603128
0.603182
0.603182
0.603235
0.603288
0.603342
0.603395
0.603395
0.603449
0.603503
0.603556
0.60361
0.60361
0.603664
0.603718
0.603771
0.603825
0.603825
0.603879
0.603933
0.603987
0.604041
0.604041
0.604095
0.60415
0.604204
0.604258
0.604258
0.604312
0.604367
0.604421
0.604476
0.604476
0.60453
0.604585
0.604639
0.604694
0.604694
0.604749
0.604803
0.604858
0.604913
0.604913
0.604968
0.605023
0.605078
0.605133
0.605133
0.605188
0.605243
0.605298
0.605353
0.605353
0.605408
0.605463
0.605519
0.605574
0.605574
0.605629
0.605685
0.60574
0.605796
0.605796
0.605851
0.605907
0.605963
0.606018
0.606018
0.606074
0.60613
0.606186
0.606241
0.606241
0.606297
0.606353
0.606409
0.606465
0.606465
0.606521
0.606578
0.606634
0.60669
0.60669
0.606746
0.606802
0.606859
0.606915
0.606915
0.606972
0.607028
0.607084
0.607141
0.607141
0.607198
0.607254
0.607311
0.607368
0.607368
0.607424
0.607481
0.607538
0.607595
0.607595
0.607652
0.607709
0.607766
0.607823
0.607823
0.60788
0.607937
0.607994
0.608051
0.608051
0.608108
0.608166
0.608223
0.60828
0.60828
0.608338
0.608395
0.608452
0.60851
0.60851
0.608567
0.608625
0.608683
0.60874
0.60874
0.608798
0.608856
0.608913
0.608971
0.608971
0.609029
0.609087
0.609145
0.609203
0.609203
0.609261
0.609319
0.609377
0.609435
0.609435
0.609493
0.609551
0.60961
0.609668
0.609668
0.609726
0.609785
0.609843
0.609901
0.609901
0.60996
0.610018
0.610077
0.610135
0.610135
0.610194
0.610253
0.610311
0.61037
0.61037
0.610429
0.610487
0.610546
0.610605
0.610605
0.610664
0.610723
0.610782
0.610841
0.610841
0.6109
0.610959
0.611018
0.611077
0.611077
0.611136
0.611195
0.611255
0.611314
0.611314
0.611373
0.611433
0.611492
0.611551
0.611551
0.611611
0.61167
0.61173
0.611789
0.611789
0.611849
0.611908
0.611968
0.612028
0.612028
0.612087
0.612147
0.612207
0.612267
0.612267
0.612326
0.612386
0.612446
0.612506
0.612506
0.612566
0.612626
0.612686
0.612746
0.612746
0.612806
0.612866
0.612927
0.612987
0.612987
0.613047
0.613107
0.613167
0.613228
0.613228
0.613288
0.613349
0.613409
0.613469
0.613469
0.61353
0.61359
0.613651
0.613711
0.613711
0.613772
0.613833
0.613893
0.613954
0.613954
0.614015
0.614075
0.614136
0.614197
0.614197
0.614258
0.614319
0.614379
0.61444
0.61444
0.614501
0.614562
0.614623
0.614684
0.614684
0.614745
0.614806
0.614868
0.614929
0.614929
0.61499
0.615051
0.615112
0.615174
0.615174
0.615235
0.615296
0.615357
0.615419
0.615419
0.61548
0.615542
0.615603
0.615665
0.615665
0.615726
0.615788
0.615849
0.615911
0.615911
0.615972
0.616034
0.616096
0.616157
0.616157
0.616219
0.616281
0.616343
0.616404
0.616404
0.616466
0.616528
0.61659
0.616652
0.616652
0.616714
0.616776
0.616838
0.6169
0.6169
0.616962
0.617024
0.617086
0.617148
0.617148
0.61721
0.617272
0.617334
0.617396
0.617396
0.617459
0.617521
0.617583
0.617645
0.617645
0.617708
0.61777
0.617832
0.617895
0.617895
0.617957
0.61802
0.618082
0.618145
0.618145
0.618207
0.61827
0.618332
0.618395
0.618395
0.618457
0.61852
0.618583
0.618645
0.618645
0.618708
0.618771
0.618833
0.618896
0.618896
0.618959
0.619022
0.619084
0.619147
0.619147
0.61921
0.619273
0.619336
0.619399
0.619399
0.619462
0.619525
0.619588
0.619651
0.619651
0.619714
0.619777
0.61984
0.619903
0.619903
0.619966
0.620029
0.620092
0.620155
0.620155
0.620219
0.620282
0.620345
0.620408
0.620408
0.620471
0.620535
0.620598
0.620661
0.620661
0.620725
0.620788
0.620851
0.620915
0.620915
0.620978
0.621042
0.621105
0.621169
0.621169
0.621232
0.621296
0.621359
0.621423
0.621423
0.621486
0.62155
0.621613
0.621677
0.621677
0.621741
0.621804
0.621868
0.621932
0.621932
0.621995
0.622059
0.622123
0.622187
0.622187
0.62225
0.622314
0.622378
0.622442
0.622442
0.622506
0.622569
0.622633
0.622697
0.622697
0.622761
0.622825
0.622889
0.622953
0.622953
0.623017
0.623081
0.623145
0.623209
0.623209
0.623273
0.623337
0.623401
0.623465
0.623465
0.623529
0.623593
0.623657
0.623722
0.623722
0.623786
0.62385
0.623914
0.623978
0.623978
0.624043
0.624107
0.624171
0.624235
0.624235
0.6243
0.624364
0.624428
0.624492
0.624492
0.624557
0.624621
0.624685
0.62475
0.62475
0.624814
0.624879
0.624943
0.625007
0.625007
0.625072
0.625136
0.625201
0.625265
0.625265
0.62533
0.625394
0.625459
0.625523
0.625523
0.625588
0.625652
0.625717
0.625782
0.625782
0.625846
0.625911
0.625975
0.62604
0.62604
0.626105
0.626169
0.626234
0.626299
0.626299
0.626363
0.626428
0.626493
0.626558
0.626558
0.626622
0.626687
0.626752
0.626817
0.626817
0.626881
0.626946
0.627011
0.627076
0.627076
0.627141
0.627205
0.62727
0.627335
0.627335
0.6274
0.627465
0.62753
0.627595
0.627595
0.62766
0.627725
0.62779
0.627855
0.627855
0.627919
0.627984
0.628049
0.628114
0.628114
0.628179
0.628244
0.628309
0.628374
0.628374
0.62844
0.628505
0.62857
0.628635
0.628635
0.6287
0.628765
0.62883
0.628895
0.628895
0.62896
0.629025
0.62909
0.629156
0.629156
0.629221
0.629286
0.629351
0.629416
0.629416
0.629481
0.629547
0.629612
0.629677
0.629677
0.629742
0.629808
0.629873
0.629938
0.629938
0.630003
0.630069
0.630134
0.630199
0.630199
0.630264
0.63033
0.630395
0.63046
0.63046
0.630526
0.630591
0.630656
0.630722
0.630722
0.630787
0.630852
0.630918
0.630983
0.630983
0.631048
0.631114
0.631179
0.631245
0.631245
0.63131
0.631376
0.631441
0.631506
0.631506
0.631572
0.631637
0.631703
0.631768
0.631768
0.631834
0.631899
0.631965
0.63203
0.63203
0.632096
0.632161
0.632227
0.632292
0.632292
0.632358
0.632423
0.632489
0.632554
0.632554
0.63262
0.632685
0.632751
0.632817
0.632817
0.632882
0.632948
0.633013
0.633079
0.633079
0.633144
0.63321
0.633276
0.633341
0.633341
0.633407
0.633473
0.633538
0.633604
0.633604
0.633669
0.633735
0.633801
0.633866
0.633866
0.633932
0.633998
0.634063
0.634129
0.634129
0.634195
0.634261
0.634326
0.634392
0.634392
0.634458
0.634523
0.634589
0.634655
0.634655
0.634721
0.634786
0.634852
0.634918
0.634918
0.634984
0.635049
0.635115
0.635181
0.635181
0.635247
0.635312
0.635378
0.635444
0.635444
0.63551
0.635575
0.635641
0.635707
0.635707
0.635773
0.635839
0.635904
0.63597
0.63597
0.636036
0.636102
0.636168
0.636234
0.636234
0.636299
0.636365
0.636431
0.636497
0.636497
0.636563
0.636629
0.636695
0.63676
0.63676
0.636826
0.636892
0.636958
0.637024
0.637024
0.63709
0.637156
0.637222
0.637288
0.637288
0.637353
0.637419
0.637485
0.637551
0.637551
0.637617
0.637683
0.637749
0.637815
0.637815
0.637881
0.637947
0.638013
0.638079
0.638079
0.638144
0.63821
0.638276
0.638342
0.638342
0.638408
0.638474
0.63854
0.638606
0.638606
0.638672
0.638738
0.638804
0.63887
0.63887
0.638936
0.639002
0.639068
0.639134
0.639134
0.6392
0.639266
0.639332
0.639398
0.639398
0.639464
0.63953
0.639596
0.639662
0.639662
0.639728
0.639794
0.63986
0.639926
0.639926
0.639992
0.640058
0.640124
0.64019
0.64019
0.640256
0.640322
0.640388
0.640454
0.640454
0.64052
0.640586
0.640652
0.640718
0.640718
0.640784
0.640851
0.640917
0.640983
0.640983
0.641049
0.641115
0.641181
0.641247
0.641247
0.641313
0.641379
0.641445
0.641511
0.641511
0.641577
0.641643
0.641709
0.641775
0.641775
0.641842
0.641908
0.641974
0.64204
0.64204
0.642106
0.642172
0.642238
0.642304
0.642304
0.64237
0.642436
0.642503
0.642569
0.642569
0.642635
0.642701
0.642767
0.642833
0.642833
0.642899
0.642965
0.643031
0.643098
0.643098
0.643164
0.64323
0.643296
0.643362
0.643362
0.643428
0.643494
0.64356
0.643627
0.643627
0.643693
0.643759
0.643825
0.643891
0.643891
0.643957
0.644023
0.644089
0.644156
0.644156
0.644222
0.644288
0.644354
0.64442
0.64442