<?xml version="1.0"?>
<VTKFile type="UnstructuredGrid" version="0.1" byte_order="LittleEndian">
<UnstructuredGrid>
<Piece NumberOfPoints="5000" NumberOfCells="4000">
<PointData Scalars="Reaction 0">
<DataArray type="Float32" Name="Reaction 0" format="ascii">
0.491172
0.491172
0.491172
0.491172
0.491172
0.491172
0.491172
0.491172
0.491173
0.491173
0.491173
0.491173
0.491174
0.491174
0.491175
0.491175
0.491175
0.491176
0.491176
0.491177
0.491177
0.491178
0.491178
0.491179
0.49118
0.49118
0.491181
0.491181
0.491182
0.491183
0.491183
0.491184
0.491185
0.491186
0.491187
0.491187
0.491189
0.49119
0.491191
0.491192
0.491192
0.491194
0.491195
0.491196
0.491198
0.491198
0.491199
0.491201
0.491202
0.491204
0.491204
0.491206
0.491207
0.491209
0.491211
0.491211
0.491212
0.491214
0.491216
0.491218
0.491218
0.49122
0.491222
0.491224
0.491226
0.491226
0.491228
0.49123
0.491233
0.491235
0.491235
0.491237
0.491239
0.491242
0.491244
0.491244
0.491247
0.491249
0.491252
0.491254
0.491254
0.491257
0.491259
0.491262
0.491265
0.491265
0.491267
0.49127
0.491273
0.491276
0.491276
0.491279
0.491282
0.491285
0.491288
0.491288
0.491291
0.491294
0.491297
0.4913
0.4913
0.491304
0.491307
0.49131
0.491314
0.491314
0.491317
0.49132
0.491324
0.491327
0.491327
0.491331
0.491335
0.491338
0.491342
0.491342
0.491346
0.491349
0.491353
0.491357
0.491357
0.491361
0.491365
0.491369
0.491373
0.491373
0.491377
0.491381
0.491385
0.491389
0.491389
0.491393
0.491398
0.491402
0.491406
0.491406
0.491411
0.491415
0.491419
0.491424
0.491424
0.491429
0.491433
0.491438
0.491442
0.491442
0.491447
0.491452
0.491457
0.491461
0.491461
0.491466
0.491471
0.491476
0.491481
0.491481
0.491486
0.491491
0.491496
0.491501
0.491501
0.491506
0.491512
0.491517
0.491522
0.491522
0.491527
0.491533
0.491538
0.491544
0.491544
0.491549
0.491555
0.49156
0.491566
0.491566
0.491572
0.491577
0.491583
0.491589
0.491589
0.491595
0.4916
0.491606
0.491612
0.491612
0.491618
0.491624
0.49163
0.491636
0.491636
0.491643
0.491649
0.491655
0.491661
0.491661
0.491668
0.491674
0.49168
0.491687
0.491687
0.491693
0.4917
0.491706
0.491713
0.491713
0.491719
0.491726
0.491733
0.491739
0.491739
0.491746
0.491753
0.49176
0.491767
0.491767
0.491774
0.491781
0.491788
0.491795
0.491795
0.491802
0.491809
0.491816
0.491824
0.491824
0.491831
0.491838
0.491845
0.491853
0.491853
0.49186
0.491868
0.491875
0.491883
0.491883
0.49189
0.491898
0.491906
0.491913
0.491913
0.491921
0.491929
0.491937
0.491945
0.491945
0.491953
0.491961
0.491969
0.491977
0.491977
0.491985
0.491993
0.492001
0.492009
0.492009
0.492017
0.492026
0.492034
0.492042
0.492042
0.492051
0.492059
0.492068
0.492076
0.492076
0.492085
0.492093
0.492102
0.492111
0.492111
0.492119
0.492128
0.492137
0.492146
0.492146
0.492155
0.492164
0.492173
0.492182
0.492182
0.492191
0.4922
0.492209
0.492218
0.492218
0.492227
0.492236
0.492246
0.492255
0.492255
0.492264
0.492274
0.492283
0.492293
0.492293
0.492302
0.492312
0.492322
0.492331
0.492331
0.492341
0.492351
0.49236
0.49237
0.49237
0.49238
0.49239
0.4924
0.49241
0.49241
0.49242
0.49243
0.49244
0.49245
0.49245
0.49246
0.492471
0.492481
0.492491
0.492491
0.492501
0.492512
0.492522
0.492533
0.492533
0.492543
0.492554
0.492564
0.492575
0.492575
0.492586
0.492596
0.492607
0.492618
0.492618
0.492629
0.49264
0.492651
0.492661
0.492661
0.492672
0.492684
0.492695
0.492706
0.492706
0.492717
0.492728
0.492739
0.492751
0.492751
0.492762
0.492773
0.492785
0.492796
0.492796
0.492808
0.492819
0.492831
0.492842
0.492842
0.492854
0.492866
0.492877
0.492889
0.492889
0.492901
0.492913
0.492925
0.492936
0.492936
0.492948
0.49296
0.492973
0.492985
0.492985
0.492997
0.493009
0.493021
0.493033
0.493033
0.493046
0.493058
0.49307
0.493083
0.493083
0.493095
0.493108
0.49312
0.493133
0.493133
0.493145
0.493158
0.493171
0.493184
0.493184
0.493196
0.493209
0.493222
0.493235
0.493235
0.493248
0.493261
0.493274
0.493287
0.493287
0.4933
0.493313
0.493326
0.49334
0.49334
0.493353
0.493366
0.49338
0.493393
0.493393
0.493406
0.49342
0.493433
0.493447
0.493447
0.493461
0.493474
0.493488
0.493502
0.493502
0.493515
0.493529
0.493543
0.493557
0.493557
0.493571
0.493585
0.493599
0.493613
0.493613
0.493627
0.493641
0.493655
0.493669
0.493669
0.493684
0.493698
0.493712
0.493727
0.493727
0.493741
0.493755
0.49377
0.493784
0.493784
0.493799
0.493814
0.493828
0.493843
0.493843
0.493858
0.493873
0.493887
0.493902
0.493902
0.493917
0.493932
0.493947
0.493962
0.493962
0.493977
0.493992
0.494007
0.494023
0.494023
0.494038
0.494053
0.494068
0.494084
0.494084
0.494099
0.494115
0.49413
0.494146
0.494146
0.494161
0.494177
0.494192
0.494208
0.494208
0.494224
0.49424
0.494255
0.494271
0.494271
0.494287
0.494303
0.494319
0.494335
0.494335
0.494351
0.494367
0.494383
0.494399
0.494399
0.494416
0.494432
0.494448
0.494465
0.494465
0.494481
0.494497
0.494514
0.49453
0.49453
0.494547
0.494563
0.49458
0.494597
0.494597
0.494613
0.49463
0.494647
0.494664
0.494664
0.494681
0.494698
0.494714
0.494731
0.494731
0.494749
0.494766
0.494783
0.4948
0.4948
0.494817
0.494834
0.494852
0.494869
0.494869
0.494886
0.494904
0.494921
0.494939
0.494939
0.494956
0.494974
0.494991
0.495009
0.495009
0.495027
0.495044
0.495062
0.49508
0.49508
0.495098
0.495116
0.495134
0.495152
0.495152
0.49517
0.495188
0.495206
0.495224
0.495224
0.495242
0.49526
0.495279
0.495297
0.495297
0.495315
0.495334
0.495352
0.495371
0.495371
0.495389
0.495408
0.495426
0.495445
0.495445
0.495464
0.495482
0.495501
0.49552
0.49552
0.495539
0.495558
0.495577
0.495596
0.495596
0.495615
0.495634
0.495653
0.495672
0.495672
0.495691
0.49571
0.49573
0.495749
0.495749
0.495768
0.495788
0.495807
0.495827
0.495827
0.495846
0.495866
0.495885
0.495905
0.495905
0.495924
0.495944
0.495964
0.495984
0.495984
0.496004
0.496023
0.496043
0.496063
0.496063
0.496083
0.496103
0.496124
0.496144
0.496144
0.496164
0.496184
0.496204
0.496225
0.496225
0.496245
0.496265
0.496286
0.496306
0.496306
0.496327
0.496347
0.496368
0.496388
0.496388
0.496409
0.49643
0.496451
0.496471
0.496471
0.496492
0.496513
0.496534
0.496555
0.496555
0.496576
0.496597
0.496618
0.496639
0.496639
0.49666
0.496682
0.496703
0.496724
0.496724
0.496746
0.496767
0.496788
0.49681
0.49681
0.496831
0.496853
0.496874
0.496896
0.496896
0.496918
0.496939
0.496961
0.496983
0.496983
0.497005
0.497027
0.497049
0.497071
0.497071
0.497093
0.497115
0.497137
0.497159
0.497159
0.497181
0.497203
0.497226
0.497248
0.497248
0.49727
0.497293
0.497315
0.497337
0.497337
0.49736
0.497382
0.497405
0.497428
0.497428
0.49745
0.497473
0.497496
0.497519
0.497519
0.497541
0.497564
0.497587
0.49761
0.49761
0.497633
0.497656
0.497679
0.497703
0.497703
0.497726
0.497749
0.497772
0.497795
0.497795
0.497819
0.497842
0.497866
0.497889
0.497889
0.497913
0.497936
0.49796
0.497983
0.497983
0.498007
0.498031
0.498055
0.498078
0.498078
0.498102
0.498126
0.49815
0.498174
0.498174
0.498198
0.498222
0.498246
0.49827
0.49827
0.498294
0.498319
0.498343
0.498367
0.498367
0.498392
0.498416
0.49844
0.498465
0.498465
0.498489
0.498514
0.498539
0.498563
0.498563
0.498588
0.498613
0.498637
0.498662
0.498662
0.498687
0.498712
0.498737
0.498762
0.498762
0.498787
0.498812
0.498837
0.498862
0.498862
0.498887
0.498913
0.498938
0.498963
0.498963
0.498989
0.499014
0.49904
0.499065
0.499065
0.499091
0.499116
0.499142
0.499167
0.499167
0.499193
0.499219
0.499245
0.49927
0.49927
0.499296
0.499322
0.499348
0.499374
0.499374
0.4994
0.499426
0.499452
0.499479
0.499479
0.499505
0.499531
0.499557
0.499584
0.499584
0.49961
0.499636
0.499663
0.499689
0.499689
0.499716
0.499743
0.499769
0.499796
0.499796
0.499823
0.499849
0.499876
0.499903
0.499903
0.49993
0.499957
0.499984
0.500011
0.500011
0.500038
0.500065
0.500092
0.500119
0.500119
0.500146
0.500174
0.500201
0.500228
0.500228
0.500256
0.500283
0.500311
0.500338
0.500338
0.500366
0.500393
0.500421
0.500449
0.500449
0.500477
0.500504
0.500532
0.50056
0.50056
0.500588
0.500616
0.500644
0.500672
0.500672
0.5007
0.500728
0.500756
0.500784
0.500784
0.500813
0.500841
0.500869
0.500898
0.500898
0.500926
0.500955
0.500983
0.501012
0.501012
0.50104
0.501069
0.501098
0.501126
0.501126
0.501155
0.501184
0.501213
0.501242
0.501242
0.50127
0.501299
0.501328
0.501358
0.501358
0.501387
0.501416
0.501445
0.501474
0.501474
0.501504
0.501533
0.501562
0.501592
0.501592
0.501621
0.501651
0.50168
0.50171
0.50171
0.501739
0.501769
0.501799
0.501828
0.501828
0.501858
0.501888
0.501918
0.501948
0.501948
0.501978
0.502008
0.502038
0.502068
0.502068
0.502098
0.502128
0.502158
0.502189
0.502189
0.502219
0.502249
0.50228
0.50231
0.50231
0.502341
0.502371
0.502402
0.502432
0.502432
0.502463
0.502494
0.502524
0.502555
0.502555
0.502586
0.502617
0.502648
0.502679
0.502679
0.50271
0.502741
0.502772
0.502803
0.502803
0.502834
0.502865
0.502897
0.502928
0.502928
0.502959
0.502991
0.503022
0.503054
0.503054
0.503085
0.503117
0.503148
0.50318
0.50318
0.503212
0.503243
0.503275
0.503307
0.503307
0.503339
0.503371
0.503403
0.503435
0.503435
0.503467
0.503499
0.503531
0.503563
0.503563
0.503595
0.503628
0.50366
0.503692
0.503692
0.503725
0.503757
0.50379
0.503822
0.503822
0.503855
0.503887
0.50392
0.503953
0.503953
0.503985
0.504018
0.504051
0.504084
0.504084
0.504117
0.50415
0.504183
0.504216
0.504216
0.504249
0.504282
0.504315
0.504348
0.504348
0.504382
0.504415
0.504448
0.504482
0.504482
0.504515
0.504548
0.504582
0.504616
0.504616
0.504649
0.504683
0.504717
0.50475
0.50475
0.504784
0.504818
0.504852
0.504886
0.504886
0.50492
0.504954
0.504988
0.505022
0.505022
0.505056
0.50509
0.505124
0.505159
0.505159
0.505193
0.505227
0.505262
0.505296
0.505296
0.505331
0.505365
0.5054
0.505434
0.505434
0.505469
0.505504
0.505538
0.505573
0.505573
0.505608
0.505643
0.505678
0.505713
0.505713
0.505748
0.505783
0.505818
0.505853
0.505853
0.505888
0.505923
0.505959
0.505994
0.505994
0.506029
0.506065
0.5061
0.506136
0.506136
0.506171
0.506207
0.506243
0.506278
0.506278
0.506314
0.50635
0.506386
0.506421
0.506421
0.506457
0.506493
0.506529
0.506565
0.506565
0.506601
0.506637
0.506674
0.50671
0.50671
0.506746
0.506782
0.506819
0.506855
0.506855
0.506891
0.506928
0.506964
0.507001
0.507001
0.507038
0.507074
0.507111
0.507148
0.507148
0.507184
0.507221
0.507258
0.507295
0.507295
0.507332
0.507369
0.507406
0.507443
0.507443
0.50748
0.507518
0.507555
0.507592
0.507592
0.507629
0.507667
0.507704
0.507742
0.507742
0.507779
0.507817
0.507854
0.507892
0.507892
0.507929
0.507967
0.508005
0.508043
0.508043
0.508081
0.508119
0.508156
0.508194
0.508194
0.508232
0.508271
0.508309
0.508347
0.508347
0.508385
0.508423
0.508462
0.5085
0.5085
0.508538
0.508577
0.508615
0.508654
0.508654
0.508692
0.508731
0.50877
0.508808
0.508808
0.508847
0.508886
0.508925
0.508964
0.508964
0.509003
0.509041
0.509081
0.50912
0.50912
0.509159
0.509198
0.509237
0.509276
0.509276
0.509316
0.509355
0.509394
0.509434
0.509434
0.509473
0.509513
0.509552
0.509592
0.509592
0.509631
0.509671
0.509711
0.509751
0.509751
0.509791
0.50983
0.50987
0.50991
0.50991
0.50995
0.50999
0.51003
0.510071
0.510071
0.510111
0.510151
0.510191
0.510232
0.510232
0.510272
0.510312
0.510353
0.510393
0.510393
0.510434
0.510475
0.510515
0.510556
0.510556
0.510597
0.510637
0.510678
0.510719
0.510719
0.51076
0.510801
0.510842
0.510883
0.510883
0.510924
0.510965
0.511006
0.511048
0.511048
0.511089
0.51113
0.511172
0.511213
0.511213
0.511255
0.511296
0.511338
0.511379
0.511379
0.511421
0.511463
0.511504
0.511546
0.511546
0.511588
0.51163
0.511672
0.511714
0.511714
0.511756
0.511798
0.51184
0.511882
0.511882
0.511924
0.511966
0.512009
0.512051
0.512051
0.512093
0.512136
0.512178
0.512221
0.512221
0.512263
0.512306
0.512349
0.512391
0.512391
0.512434
0.512477
0.51252
0.512563
0.512563
0.512606
0.512649
0.512692
0.512735
0.512735
0.512778
0.512821
0.512864
0.512907
0.512907
0.512951
0.512994
0.513037
0.513081
0.513081
0.513124
0.513168
0.513211
0.513255
0.513255
0.513299
0.513342
0.513386
0.51343
0.51343
0.513474
0.513518
0.513562
0.513606
0.513606
0.51365
0.513694
0.513738
0.513782
0.513782
0.513826
0.513871
0.513915
0.513959
0.513959
0.514004
0.514048
0.514093
0.514137
0.514137
0.514182
0.514226
0.514271
0.514316
0.514316
0.514361
0.514405
0.51445
0.514495
0.514495
0.51454
0.514585
0.51463
0.514675
0.514675
0.51472
0.514766
0.514811
0.514856
0.514856
0.514902
0.514947
0.514992
0.515038
0.515038
0.515083
0.515129
0.515175
0.51522
0.51522
0.515266
0.515312
0.515357
0.515403
0.515403
0.515449
0.515495
0.515541
0.515587
0.515587
0.515633
0.515679
0.515726
0.515772
0.515772
0.515818
0.515864
0.515911
0.515957
0.515957
0.516004
0.51605
0.516097
0.516143
0.516143
0.51619
0.516237
0.516283
0.51633
0.51633
0.516377
0.516424
0.516471
0.516518
0.516518
0.516565
0.516612
0.516659
0.516706
0.516706
0.516753
0.516801
0.516848
0.516895
0.516895
0.516943
0.51699
0.517038
0.517085
0.517085
0.517133
0.51718
0.517228
0.517276
0.517276
0.517324
0.517372
0.517419
0.517467
0.517467
0.517515
0.517563
0.517611
0.517659
0.517659
0.517708
0.517756
0.517804
0.517852
0.517852
0.517901
0.517949
0.517998
0.518046
0.518046
0.518095
0.518143
0.518192
0.518241
0.518241
0.518289
0.518338
0.518387
0.518436
0.518436
0.518485
0.518534
0.518583
0.518632
0.518632
0.518681
0.51873
0.518779
0.518828
0.518828
0.518878
0.518927
0.518977
0.519026
0.519026
0.519075
0.519125
0.519175
0.519224
0.519224
0.519274
0.519324
0.519373
0.519423
0.519423
0.519473
0.519523
0.519573
0.519623
0.519623
0.519673
0.519723
0.519773
0.519824
0.519824
0.519874
0.519924
0.519975
0.520025
0.520025
0.520075
0.520126
0.520177
0.520227
0.520227
0.520278
0.520328
0.520379
0.52043
0.52043
0.520481
0.520532
0.520583
0.520634
0.520634
0.520685
0.520736
0.520787
0.520838
0.520838
0.520889
0.520941
0.520992
0.521043
0.521043
0.521095
0.521146
0.521198
0.521249
0.521249
0.521301
0.521353
0.521404
0.521456
0.521456
0.521508
0.52156
0.521612
0.521664
0.521664
0.521716
0.521768
0.52182
0.521872
0.521872
0.521924
0.521976
0.522029
0.522081
0.522081
0.522133
0.522186
0.522238
0.522291
0.522291
0.522343
0.522396
0.522449
0.522502
0.522502
0.522554
0.522607
0.52266
0.522713
0.522713
0.522766
0.522819
0.522872
0.522925
0.522925
0.522978
0.523032
0.523085
0.523138
0.523138
0.523192
0.523245
0.523299
0.523352
0.523352
0.523406
0.523459
0.523513
0.523567
0.523567
0.52362
0.523674
0.523728
0.523782
0.523782
0.523836
0.52389
0.523944
0.523998
0.523998
0.524052
0.524107
0.524161
0.524215
0.524215
0.524269
0.524324
0.524378
0.524433
0.524433
0.524487
0.524542
0.524597
0.524651
0.524651
0.524706
0.524761
0.524816
0.524871
0.524871
0.524926
0.524981
0.525036
0.525091
0.525091
0.525146
0.525201
0.525256
0.525312
0.525312
0.525367
0.525423
0.525478
0.525534
0.525534
0.525589
0.525645
0.5257
0.525756
0.525756
0.525812
0.525868
0.525923
0.525979
0.525979
0.526035
0.526091
0.526147
0.526203
0.526203
0.52626
0.526316
0.526372
0.526428
0.526428
0.526485
0.526541
0.526598
0.526654
0.526654
0.526711
0.526767
0.526824
0.526881
0.526881
0.526937
0.526994
0.527051
0.527108
0.527108
0.527165
0.527222
0.527279
0.527336
0.527336
0.527393
0.52745
0.527508
0.527565
0.527565
0.527622
0.52768
0.527737
0.527795
0.527795
0.527852
0.52791
0.527968
0.528025
0.528025
0.528083
0.528141
0.528199
0.528257
0.528257
0.528315
0.528373
0.528431
0.528489
0.528489
0.528547
0.528605
0.528664
0.528722
0.528722
0.52878
0.528839
0.528897
0.528956
0.528956
0.529014
0.529073
0.529132
0.52919
0.52919
0.529249
0.529308
0.529367
0.529426
0.529426
0.529485
0.529544
0.529603
0.529662
0.529662
0.529721
0.52978
0.52984
0.529899
0.529899
0.529958
0.530018
0.530077
0.530137
0.530137
0.530197
0.530256
0.530316
0.530376
0.530376
0.530435
0.530495
0.530555
0.530615
0.530615
0.530675
0.530735
0.530795
0.530856
0.530856
0.530916
0.530976
0.531036
0.531097
0.531097
0.531157
0.531218
0.531278
0.531339
0.531339
0.531399
0.53146
0.531521
0.531582
0.531582
0.531642
0.531703
0.531764
0.531825
0.531825
0.531886
0.531947
0.532009
0.53207
0.53207
0.532131
0.532192
0.532254
0.532315
0.532315
0.532377
0.532438
0.5325
0.532561
0.532561
0.532623
0.532685
0.532746
0.532808
0.532808
0.53287
0.532932
0.532994
0.533056
0.533056
0.533118
0.53318
0.533243
0.533305
0.533305
0.533367
0.533429
0.533492
0.533554
0.533554
0.533617
0.533679
0.533742
0.533805
0.533805
0.533867
0.53393
0.533993
0.534056
0.534056
0.534119
0.534182
0.534245
0.534308
0.534308
0.534371
0.534434
0.534497
0.534561
0.534561
0.534624
0.534687
0.534751
0.534814
0.534814
0.534878
0.534942
0.535005
0.535069
0.535069
0.535133
0.535197
0.53526
0.535324
0.535324
0.535388
0.535452
0.535516
0.535581
0.535581
0.535645
0.535709
0.535773
0.535838
0.535838
0.535902
0.535967
0.536031
0.536096
0.536096
0.53616
0.536225
0.53629
0.536354
0.536354
0.536419
0.536484
0.536549
0.536614
0.536614
0.536679
0.536744
0.536809
0.536875
0.536875
0.53694
0.537005
0.537071
0.537136
0.537136
0.537202
0.537267
0.537333
0.537398
0.537398
0.537464
0.53753
0.537595
0.537661
0.537661
0.537727
0.537793
0.537859
0.537925
0.537925
0.537991
0.538058
0.538124
0.53819
0.53819
0.538256
0.538323
0.538389
0.538456
0.538456
0.538522
0.538589
0.538656
0.538722
0.538722
0.538789
0.538856
0.538923
0.53899
0.53899
0.539057
0.539124
0.539191
0.539258
0.539258
0.539325
0.539392
0.53946
0.539527
0.539527
0.539595
0.539662
0.53973
0.539797
0.539797
0.539865
0.539932
0.54
0.540068
0.540068
0.540136
0.540204
0.540272
0.54034
0.54034
0.540408
0.540476
0.540544
0.540612
0.540612
0.540681
0.540749
0.540817
0.540886
0.540886
0.540954
0.541023
0.541092
0.54116
0.54116
0.541229
0.541298
0.541367
0.541436
0.541436
0.541505
0.541574
0.541643
0.541712
0.541712
0.541781
0.54185
0.541919
0.541989
0.541989
0.542058
0.542128
0.542197
0.542267
0.542267
0.542336
0.542406
0.542476
0.542545
0.542545
0.542615
0.542685
0.542755
0.542825
0.542825
0.542895
0.542965
0.543036
0.543106
0.543106
0.543176
0.543246
0.543317
0.543387
0.543387
0.543458
0.543528
0.543599
0.54367
0.54367
0.54374
0.543811
0.543882
0.543953
0.543953
0.544024
0.544095
0.544166
0.544237
0.544237
0.544308
0.544379
0.544451
0.544522
0.544522
0.544593
0.544665
0.544736
0.544808
0.544808
0.54488
0.544951
0.545023
0.545095
0.545095
0.545167
0.545239
0.54531
0.545383
0.545383
0.545455
0.545527
0.545599
0.545671
0.545671
0.545743
0.545816
0.545888
0.545961
0.545961
0.546033
0.546106
0.546178
0.546251
0.546251
0.546324
0.546397
0.54647
0.546543
0.546543
0.546615
0.546689
0.546762
0.546835
0.546835
0.546908
0.546981
0.547055
0.547128
0.547128
0.547201
0.547275
0.547348
0.547422
0.547422
0.547496
0.547569
0.547643
0.547717
0.547717
0.547791
0.547865
0.547939
0.548013
0.548013
0.548087
0.548161
0.548236
0.54831
0.54831
0.548384
0.548459
0.548533
0.548608
0.548608
0.548682
0.548757
0.548832
0.548906
0.548906
0.548981
0.549056
0.549131
0.549206
0.549206
0.549281
0.549356
0.549431
0.549506
0.549506
0.549582
0.549657
0.549732
0.549808
0.549808
0.549883
0.549959
0.550035
0.55011
0.55011
0.550186
0.550262
0.550338
0.550414
0.550414
0.55049
0.550566
0.550642
0.550718
0.550718
0.550794
0.55087
0.550947
0.551023
0.551023
0.551099
0.551176
0.551252
0.551329
0.551329
0.551406
0.551483
0.551559
0.551636
0.551636
0.551713
0.55179
0.551867
0.551944
0.551944
0.552021
0.552098
0.552176
0.552253
0.552253
0.55233
0.552408
0.552485
0.552563
0.552563
0.552641
0.552718
0.552796
0.552874
0.552874
0.552952
0.55303
0.553107
0.553186
0.553186
0.553264
0.553342
0.55342
0.553498
0.553498
0.553577
0.553655
0.553733
0.553812
0.553812
0.55389
0.553969
0.554048
0.554126
0.554126
0.554205
0.554284
0.554363
0.554442
0.554442
0.554521
0.5546
0.554679
0.554759
0.554759
0.554838
0.554917
0.554997
0.555076
0.555076
0.555156
0.555235
0.555315
0.555394
0.555394
0.555474
0.555554
0.555634
0.555714
0.555714
0.555794
0.555874
0.555954
0.556034
0.556034
0.556114
0.556195
0.556275
0.556355
0.556355
0.556436
0.556517
0.556597
0.556678
0.556678
0.556758
0.556839
0.55692
0.557001
0.557001
0.557082
0.557163
0.557244
0.557325
0.557325
0.557406
0.557488
0.557569
0.55765
0.55765
0.557732
0.557813
0.557895
0.557977
0.557977
0.558058
0.55814
0.558222
0.558304
0.558304
0.558386
0.558468
0.55855
0.558632
0.558632
0.558714
0.558796
0.558878
0.558961
0.558961
0.559043
0.559126
0.559208
0.55929
0.55929
0.559372
0.559454
0.559535
0.559616
0.559616
0.559696
0.559772
0.559844
0.559912
0.559912
0.559968
0.56001
0.56004
0.560057
0.560057
0.560075
0.560093
0.560111
0.560128
0.560128
0.560145
0.560163
0.56018
0.560197
0.560197
0.560215
0.560232
0.560249
0.560266
0.560266
0.560283
0.5603
0.560317
0.560333
0.560333
0.56035
0.560364
0.560377
0.560388
0.560388
0.560396
0.560401
0.560404
0.560404
0.560404
0.560403
0.560403
0.560402
0.560401
0.560401
0.5604
0.560399
0.560398
0.560397
0.560397
0.560396
0.560395
0.560394
0.560393
0.560393
0.560392
0.560391
0.56039
0.560389
0.560389
0.560388
0.560386
0.560385
0.560384
0.560384
0.560382
0.560381
0.56038
0.560379
0.560379
0.560377
0.560376
0.560374
0.560373
0.560373
0.560371
0.56037
0.560368
0.560367
0.560367
0.560365
0.560364
0.560363
0.560361
0.560361
0.56036
0.560358
0.560357
0.560355
0.560355
0.560354
0.560353
0.560352
0.560351
0.560351
0.560351
0.56035
0.56035
0.56035
0.56035
0.560349
0.560349
0.560349
0.560348
0.560348
0.560348
0.560348
0.560347
0.560347
0.560347
0.560347
0.560346
0.560346
0.560346
0.560346
0.560346
0.560345
0.560345
0.560345
0.560345
0.560345
0.560344
0.560344
0.560344
0.560344
0.560344
0.560344
0.560344
0.560344
0.560344
0.560344
0.560344
0.560344
0.560344
0.560344
0.560345
0.560345
0.560345
0.560345
0.560345
0.560345
0.560345
0.560345
0.560345
0.560345
0.560345
0.560345
0.560345
0.560345
0.560345
0.560345
0.560345
0.560345
0.560345
0.560345
0.560345
0.560345
0.560345
0.560345
0.560345
0.560345
0.560345
0.560346
0.560346
0.560346
0.560346
0.560346
0.560346
0.560346
0.560346
0.560346
0.560346
0.560346
0.560346
0.560346
0.560346
0.560346
0.560346
0.560346
0.560346
0.560346
0.560346
0.560346
0.560346
0.560346
0.560346
0.560346
0.560346
0.560347
0.560347
0.560347
0.560347
0.560347
0.560347
0.560347
0.560347
0.560347
0.560347
0.560347
0.560347
0.560347
0.560347
0.560347
0.560347
0.560347
0.560347
0.560347
0.560347
0.560347
0.560347
0.560347
0.560347
0.560347
0.560347
0.560347
0.560347
0.560347
0.560347
0.560347
0.560347
0.560347
0.560347
0.560347
0.560347
0.560347
0.560347
0.560347
0.560347
0.560347
0.560347
0.560348
0.560348
0.560348
0.560348
0.560348
0.560348
0.560348
0.560348
0.560348
0.560348
0.560348
0.560348
0.560348
0.560348
0.560348
0.560348
0.560348
0.560348
0.560348
0.560348
0.560348
0.560348
0.560348
0.560348
0.560348
0.560348
0.560348
0.560348
0.560348
0.560348
0.560348
0.560348
0.560348
0.560348
0.560348
0.560348
0.560348
0.560348
0.560348
0.560348
0.560348
0.560348
0.560348
0.560349
0.560349
0.560349
0.560349
0.560349
0.560349
0.560349
0.560349
0.560349
0.560349
0.560349
0.560349
0.560349
0.560349
0.560349
0.560349
0.560349
0.560349
0.560349
0.560349
0.560349
0.560349
0.560349
0.560349
0.560349
0.560349
0.560349
0.560349
0.560349
0.560349
0.560349
0.560349
0.560349
0.560349
0.560349
0.560349
0.560349
0.560349
0.560349
0.560349
0.560349
0.560349
0.56035
0.56035
0.56035
0.56035
0.56035
0.56035
0.56035
0.56035
0.56035
0.56035
0.56035
0.56035
0.56035
0.56035
0.56035
0.56035
0.56035
0.56035
0.56035
0.56035
0.56035
0.56035
0.56035
0.56035
0.56035
0.56035
0.56035
0.56035
0.56035
0.56035
0.56035
0.56035
0.56035
0.56035
0.56035
0.56035
0.56035
0.56035
0.56035
0.56035
0.560351
0.560351
0.560351
0.560351
0.560351
0.560351
0.560351
0.560351
0.560351
0.560351
0.560351
0.560351
0.560351
0.560351
0.560351
0.560351
0.560351
0.560351
0.560351
0.560351
0.560351
0.560351
0.560351
0.560351
0.560351
0.560351
0.560351
0.560351
0.560351
0.560351
0.560351
0.560351
0.560351
0.560351
0.560351
0.560351
0.560351
0.560351
0.560352
0.560352
0.560352
0.560352
0.560352
0.560352
0.560352
0.560352
0.560352
0.560352
0.560352
0.560352
0.560352
0.560352
0.560352
0.560352
0.560352
0.560352
0.560352
0.560352
0.560352
0.560352
0.560352
0.560352
0.560352
0.560352
0.560352
0.560352
0.560352
0.560352
0.560352
0.560352
0.560352
0.560352
0.560352
0.560352
0.560352
0.560352
0.560352
0.560353
0.560353
0.560353
0.560353
0.560353
0.560353
0.560353
0.560353
0.560353
0.560353
0.560353
0.560353
0.560353
0.560353
0.560353
0.560353
0.560353
0.560353
0.560353
0.560353
0.560353
0.560353
0.560353
0.560353
0.560353
0.560353
0.560353
0.560353
0.560353
0.560353
0.560353
0.560353
0.560353
0.560353
0.560353
0.560353
0.560354
0.560354
0.560354
0.560354
0.560354
0.560354
0.560354
0.560354
0.560354
0.560354
0.560354
0.560354
0.560354
0.560354
0.560354
0.560354
0.560354
0.560354
0.560354
0.560354
0.560354
0.560354
0.560354
0.560354
0.560354
0.560354
0.560354
0.560354
0.560354
0.560354
0.560354
0.560354
0.560354
0.560354
0.560354
0.560354
0.560354
0.560355
0.560355
0.560355
0.560355
0.560355
0.560355
0.560355
0.560355
0.560355
0.560355
0.560355
0.560355
0.560355
0.560355
0.560355
0.560355
0.560355
0.560355
0.560355
0.560355
0.560355
0.560355
0.560355
0.560355
0.560355
0.560355
0.560355
0.560355
0.560355
0.560355
0.560355
0.560355
0.560355
0.560355
0.560355
0.560355
0.560356
0.560356
0.560356
0.560356
0.560356
0.560356
0.560356
0.560356
0.560356
0.560356
0.560356
0.560356
0.560356
0.560356
0.560356
0.560356
0.560356
0.560356
0.560356
0.560356
0.560356
0.560356
0.560356
0.560356
0.560356
0.560356
0.560356
0.560356
0.560356
0.560356
0.560356
0.560356
0.560356
0.560356
0.560357
0.560357
0.560357
0.560357
0.560357
0.560357
0.560357
0.560357
0.560357
0.560357
0.560357
0.560357
0.560357
0.560357
0.560357
0.560357
0.560357
0.560357
0.560357
0.560357
0.560357
0.560357
0.560357
0.560357
0.560357
0.560357
0.560357
0.560357
0.560357
0.560357
0.560357
0.560357
0.560357
0.560358
0.560358
0.560358
0.560358
0.560358
0.560358
0.560358
0.560358
0.560358
0.560358
0.560358
0.560358
0.560358
0.560358
0.560358
0.560358
0.560358
0.560358
0.560358
0.560358
0.560358
0.560358
0.560358
0.560358
0.560358
0.560358
0.560358
0.560358
0.560358
0.560358
0.560358
0.560358
0.560358
0.560359
0.560359
0.560359
0.560359
0.560359
0.560359
0.560359
0.560359
0.560359
0.560359
0.560359
0.560359
0.560359
0.560359
0.560359
0.560359
0.560359
0.560359
0.560359
0.560359
0.560359
0.560359
0.560359
0.560359
0.560359
0.560359
0.560359
0.560359
0.560359
0.560359
0.560359
0.56036
0.56036
0.56036
0.56036
0.56036
0.56036
0.56036
0.56036
0.56036
0.56036
0.56036
0.56036
0.56036
0.56036
0.56036
0.56036
0.56036
0.56036
0.56036
0.56036
0.56036
0.56036
0.56036
0.56036
0.56036
0.56036
0.56036
0.56036
0.56036
0.56036
0.56036
0.56036
0.56036
0.560361
0.560361
0.560361
0.560361
0.560361
0.560361
0.560361
0.560361
0.560361
0.560361
0.560361
0.560361
0.560361
0.560361
0.560361
0.560361
0.560361
0.560361
0.560361
0.560361
0.560361
0.560361
0.560361
0.560361
0.560361
0.560361
0.560361
0.560361
0.560361
0.560361
0.560362
0.560362
0.560362
0.560362
0.560362
0.560362
0.560362
0.560362
0.560362
0.560362
0.560362
0.560362
0.560362
0.560362
0.560362
0.560362
0.560362
0.560362
0.560362
0.560362
0.560362
0.560362
0.560362
0.560362
0.560362
0.560362
0.560362
0.560362
0.560362
0.560362
0.560363
0.560363
0.560363
0.560363
0.560363
0.560363
0.560363
0.560363
0.560363
0.560363
0.560363
0.560363
0.560363
0.560363
0.560363
0.560363
0.560363
0.560363
0.560363
0.560363
0.560363
0.560363
0.560363
0.560363
0.560363
0.560363
0.560363
0.560363
0.560363
0.560363
0.560364
0.560364
0.560364
0.560364
0.560364
0.560364
0.560364
0.560364
0.560364
0.560364
0.560364
0.560364
0.560364
0.560364
0.560364
0.560364
0.560364
0.560364
0.560364
0.560364
0.560364
0.560364
0.560364
0.560364
0.560364
0.560364
0.560364
0.560365
0.560365
0.560365
0.560365
0.560365
0.560365
0.560365
0.560365
0.560365
0.560365
0.560365
0.560365
0.560365
0.560365
0.560365
0.560365
0.560365
0.560365
0.560365
0.560365
0.560365
0.560365
0.560365
0.560365
0.560365
0.560365
0.560365
0.560365
0.560365
0.560366
0.560366
0.560366
0.560366
0.560366
0.560366
0.560366
0.560366
0.560366
0.560366
0.560366
0.560366
0.560366
0.560366
0.560366
0.560366
0.560366
0.560366
0.560366
0.560366
0.560366
0.560366
0.560366
0.560366
0.560366
0.560366
0.560366
0.560366
0.560366
0.560367
0.560367
0.560367
0.560367
0.560367
0.560367
0.560367
0.560367
0.560367
0.560367
0.560367
0.560367
0.560367
0.560367
0.560367
0.560367
0.560367
0.560367
0.560367
0.560367
0.560367
0.560367
0.560367
0.560367
0.560367
0.560367
0.560368
0.560368
0.560368
0.560368
0.560368
0.560368
0.560368
0.560368
0.560368
0.560368
0.560368
0.560368
0.560368
0.560368
0.560368
0.560368
0.560368
0.560368
0.560368
0.560368
0.560368
0.560368
0.560368
0.560368
0.560368
0.560368
0.560368
0.560369
0.560369
0.560369
0.560369
0.560369
0.560369
0.560369
0.560369
0.560369
0.560369
0.560369
0.560369
0.560369
0.560369
0.560369
0.560369
0.560369
0.560369
0.560369
0.560369
0.560369
0.560369
0.560369
0.560369
0.560369
0.560369
0.560369
0.56037
0.56037
0.56037
0.56037
0.56037
0.56037
0.56037
0.56037
0.56037
0.56037
0.56037
0.56037
0.56037
0.56037
0.56037
0.56037
0.56037
0.56037
0.56037
0.56037
0.56037
0.56037
0.56037
0.56037
0.56037
0.56037
0.560371
0.560371
0.560371
0.560371
0.560371
0.560371
0.560371
0.560371
0.560371
0.560371
0.560371
0.560371
0.560371
0.560371
0.560371
0.560371
0.560371
0.560371
0.560371
0.560371
0.560371
0.560371
0.560371
0.560371
0.560371
0.560372
0.560372
0.560372
0.560372
0.560372
0.560372
0.560372
0.560372
0.560372
0.560372
0.560372
0.560372
0.560372
0.560372
0.560372
0.560372
0.560372
0.560372
0.560372
0.560372
0.560372
0.560372
0.560372
0.560372
0.560372
0.560373
0.560373
0.560373
0.560373
0.560373
0.560373
0.560373
0.560373
0.560373
0.560373
0.560373
0.560373
0.560373
0.560373
0.560373
0.560373
0.560373
0.560373
0.560373
0.560373
0.560373
0.560373
0.560373
0.560373
0.560373
0.560374
0.560374
0.560374
0.560374
0.560374
0.560374
0.560374
0.560374
0.560374
0.560374
0.560374
0.560374
0.560374
0.560374
0.560374
0.560374
0.560374
0.560374
0.560374
0.560374
0.560374
0.560374
0.560374
0.560374
0.560374
0.560375
0.560375
0.560375
0.560375
0.560375
0.560375
0.560375
0.560375
0.560375
0.560375
0.560375
0.560375
0.560375
0.560375
0.560375
0.560375
0.560375
0.560375
0.560375
0.560375
0.560375
0.560375
0.560375
0.560375
0.560376
0.560376
0.560376
0.560376
0.560376
0.560376