<?xml version="1.0"?>
<VTKFile type="UnstructuredGrid" version="0.1" byte_order="LittleEndian">
<UnstructuredGrid>
<Piece NumberOfPoints="5000" NumberOfCells="4000">
<PointData Scalars="Reaction 0">
<DataArray type="Float32" Name="Reaction 0" format="ascii">
0.564003
0.564003
0.564003
0.564003
0.564003
0.564003
0.564003
0.564003
0.564003
0.564003
0.564003
0.564003
0.564003
0.564003
0.564003
0.564003
0.564003
0.564003
0.564003
0.564003
0.564003
0.564004
0.564004
0.564004
0.564004
0.564004
0.564004
0.564004
0.564004
0.564004
0.564004
0.564004
0.564004
0.564004
0.564004
0.564004
0.564004
0.564004
0.564004
0.564004
0.564004
0.564004
0.564004
0.564005
0.564005
0.564005
0.564005
0.564005
0.564005
0.564005
0.564005
0.564005
0.564005
0.564005
0.564005
0.564005
0.564005
0.564005
0.564006
0.564006
0.564006
0.564006
0.564006
0.564006
0.564006
0.564006
0.564006
0.564006
0.564006
0.564007
0.564007
0.564007
0.564007
0.564007
0.564007
0.564007
0.564007
0.564007
0.564007
0.564008
0.564008
0.564008
0.564008
0.564008
0.564008
0.564008
0.564008
0.564008
0.564009
0.564009
0.564009
0.564009
0.564009
0.564009
0.564009
0.564009
0.564009
0.56401
0.56401
0.56401
0.56401
0.56401
0.56401
0.56401
0.564011
0.564011
0.564011
0.564011
0.564011
0.564011
0.564011
0.564012
0.564012
0.564012
0.564012
0.564012
0.564012
0.564012
0.564013
0.564013
0.564013
0.564013
0.564013
0.564013
0.564014
0.564014
0.564014
0.564014
0.564014
0.564015
0.564015
0.564015
0.564015
0.564015
0.564015
0.564015
0.564016
0.564016
0.564016
0.564016
0.564016
0.564017
0.564017
0.564017
0.564017
0.564017
0.564018
0.564018
0.564018
0.564018
0.564018
0.564019
0.564019
0.564019
0.564019
0.564019
0.56402
0.56402
0.56402
0.56402
0.56402
0.564021
0.564021
0.564021
0.564022
0.564022
0.564022
0.564022
0.564022
0.564023
0.564023
0.564023
0.564023
0.564024
0.564024
0.564024
0.564024
0.564024
0.564025
0.564025
0.564025
0.564025
0.564026
0.564026
0.564026
0.564026
0.564027
0.564027
0.564027
0.564028
0.564028
0.564028
0.564028
0.564028
0.564029
0.564029
0.564029
0.564029
0.56403
0.56403
0.56403
0.56403
0.564031
0.564031
0.564032
0.564032
0.564032
0.564032
0.564033
0.564033
0.564033
0.564033
0.564034
0.564034
0.564034
0.564034
0.564035
0.564035
0.564035
0.564036
0.564036
0.564036
0.564037
0.564037
0.564037
0.564037
0.564038
0.564038
0.564039
0.564039
0.564039
0.564039
0.56404
0.56404
0.56404
0.56404
0.564041
0.564041
0.564042
0.564042
0.564042
0.564042
0.564043
0.564043
0.564044
0.564044
0.564044
0.564045
0.564045
0.564045
0.564045
0.564046
0.564046
0.564047
0.564047
0.564047
0.564048
0.564048
0.564048
0.564049
0.564049
0.564049
0.56405
0.56405
0.564051
0.564051
0.564051
0.564052
0.564052
0.564052
0.564052
0.564053
0.564053
0.564054
0.564054
0.564054
0.564055
0.564055
0.564056
0.564056
0.564056
0.564057
0.564057
0.564058
0.564058
0.564058
0.564059
0.564059
0.56406
0.56406
0.56406
0.564061
0.564061
0.564062
0.564062
0.564062
0.564063
0.564063
0.564064
0.564064
0.564064
0.564065
0.564065
0.564066
0.564066
0.564066
0.564067
0.564067
0.564068
0.564068
0.564068
0.564069
0.564069
0.56407
0.56407
0.56407
0.564071
0.564072
0.564072
0.564073
0.564073
0.564073
0.564074
0.564074
0.564075
0.564075
0.564075
0.564076
0.564077
0.564077
0.564077
0.564078
0.564078
0.564079
0.564079
0.564079
0.56408
0.564081
0.564081
0.564082
0.564082
0.564082
0.564083
0.564083
0.564084
0.564084
0.564085
0.564085
0.564086
0.564086
0.564086
0.564087
0.564088
0.564088
0.564089
0.564089
0.56409
0.56409
0.564091
0.564091
0.564091
0.564092
0.564093
0.564093
0.564094
0.564094
0.564095
0.564095
0.564096
0.564096
0.564096
0.564097
0.564098
0.564098
0.564099
0.564099
0.5641
0.5641
0.564101
0.564102
0.564102
0.564102
0.564103
0.564104
0.564104
0.564104
0.564105
0.564106
0.564106
0.564107
0.564107
0.564108
0.564108
0.564109
0.56411
0.56411
0.56411
0.564111
0.564112
0.564112
0.564112
0.564113
0.564114
0.564115
0.564115
0.564115
0.564116
0.564117
0.564117
0.564118
0.564118
0.564119
0.56412
0.56412
0.564121
0.564121
0.564122
0.564122
0.564123
0.564124
0.564124
0.564125
0.564125
0.564126
0.564127
0.564127
0.564128
0.564128
0.564129
0.56413
0.56413
0.564131
0.564131
0.564132
0.564133
0.564133
0.564134
0.564134
0.564135
0.564136
0.564136
0.564137
0.564137
0.564138
0.564139
0.564139
0.56414
0.564141
0.564141
0.564142
0.564142
0.564143
0.564144
0.564145
0.564145
0.564145
0.564146
0.564147
0.564148
0.564149
0.564149
0.564149
0.56415
0.564151
0.564152
0.564152
0.564153
0.564153
0.564154
0.564155
0.564155
0.564156
0.564157
0.564158
0.564158
0.564158
0.564159
0.56416
0.564161
0.564162
0.564162
0.564163
0.564163
0.564164
0.564165
0.564165
0.564166
0.564167
0.564168
0.564169
0.564169
0.564169
0.56417
0.564171
0.564172
0.564172
0.564173
0.564174
0.564175
0.564176
0.564176
0.564177
0.564177
0.564178
0.564179
0.564179
0.56418
0.564181
0.564182
0.564183
0.564183
0.564184
0.564185
0.564185
0.564186
0.564186
0.564187
0.564188
0.564189
0.56419
0.56419
0.564191
0.564192
0.564193
0.564194
0.564194
0.564195
0.564196
0.564197
0.564198
0.564198
0.564199
0.564199
0.5642
0.564201
0.564201
0.564202
0.564203
0.564204
0.564205
0.564205
0.564206
0.564207
0.564208
0.564209
0.564209
0.56421
0.564211
0.564212
0.564213
0.564213
0.564214
0.564215
0.564216
0.564217
0.564217
0.564218
0.564219
0.56422
0.564221
0.564221
0.564222
0.564223
0.564224
0.564225
0.564225
0.564226
0.564227
0.564228
0.564229
0.564229
0.56423
0.564231
0.564232
0.564233
0.564233
0.564234
0.564235
0.564236
0.564238
0.564238
0.564239
0.56424
0.564241
0.564242
0.564242
0.564243
0.564244
0.564245
0.564246
0.564246
0.564247
0.564248
0.564249
0.56425
0.56425
0.564251
0.564252
0.564254
0.564255
0.564255
0.564256
0.564257
0.564258
0.564259
0.564259
0.56426
0.564261
0.564262
0.564263
0.564263
0.564265
0.564266
0.564267
0.564268
0.564268
0.564269
0.56427
0.564271
0.564272
0.564272
0.564274
0.564275
0.564276
0.564277
0.564277
0.564278
0.564279
0.56428
0.564282
0.564282
0.564283
0.564284
0.564285
0.564286
0.564286
0.564287
0.564289
0.56429
0.564291
0.564291
0.564292
0.564293
0.564294
0.564296
0.564296
0.564297
0.564298
0.564299
0.5643
0.5643
0.564302
0.564303
0.564304
0.564305
0.564305
0.564306
0.564308
0.564309
0.56431
0.56431
0.564311
0.564313
0.564314
0.564315
0.564315
0.564316
0.564318
0.564319
0.56432
0.56432
0.564321
0.564322
0.564324
0.564325
0.564325
0.564326
0.564328
0.564329
0.56433
0.56433
0.564331
0.564333
0.564334
0.564335
0.564335
0.564336
0.564338
0.564339
0.56434
0.56434
0.564342
0.564343
0.564344
0.564345
0.564345
0.564347
0.564348
0.564349
0.564351
0.564351
0.564352
0.564353
0.564355
0.564356
0.564356
0.564357
0.564359
0.56436
0.564361
0.564361
0.564363
0.564364
0.564365
0.564367
0.564367
0.564368
0.564369
0.564371
0.564372
0.564372
0.564373
0.564375
0.564376
0.564377
0.564377
0.564379
0.56438
0.564381
0.564383
0.564383
0.564384
0.564386
0.564387
0.564388
0.564388
0.56439
0.564391
0.564393
0.564394
0.564394
0.564395
0.564397
0.564398
0.5644
0.5644
0.564401
0.564403
0.564404
0.564405
0.564405
0.564407
0.564408
0.56441
0.564411
0.564411
0.564413
0.564414
0.564416
0.564417
0.564417
0.564418
0.56442
0.564421
0.564423
0.564423
0.564424
0.564426
0.564427
0.564429
0.564429
0.56443
0.564432
0.564433
0.564435
0.564435
0.564436
0.564438
0.564439
0.564441
0.564441
0.564442
0.564444
0.564445
0.564447
0.564447
0.564448
0.56445
0.564451
0.564453
0.564453
0.564454
0.564456
0.564457
0.564459
0.564459
0.56446
0.564462
0.564463
0.564465
0.564465
0.564467
0.564468
0.56447
0.564471
0.564471
0.564473
0.564474
0.564476
0.564477
0.564477
0.564479
0.564481
0.564482
0.564484
0.564484
0.564485
0.564487
0.564489
0.56449
0.56449
0.564492
0.564493
0.564495
0.564497
0.564497
0.564498
0.5645
0.564502
0.564503
0.564503
0.564505
0.564506
0.564508
0.56451
0.56451
0.564511
0.564513
0.564515
0.564516
0.564516
0.564518
0.56452
0.564521
0.564523
0.564523
0.564525
0.564526
0.564528
0.56453
0.56453
0.564531
0.564533
0.564535
0.564536
0.564536
0.564538
0.56454
0.564542
0.564543
0.564543
0.564545
0.564547
0.564548
0.56455
0.56455
0.564552
0.564554
0.564555
0.564557
0.564557
0.564559
0.56456
0.564562
0.564564
0.564564
0.564566
0.564567
0.564569
0.564571
0.564571
0.564573
0.564574
0.564576
0.564578
0.564578
0.56458
0.564581
0.564583
0.564585
0.564585
0.564587
0.564589
0.56459
0.564592
0.564592
0.564594
0.564596
0.564598
0.5646
0.5646
0.564601
0.564603
0.564605
0.564607
0.564607
0.564609
0.564611
0.564612
0.564614
0.564614
0.564616
0.564618
0.56462
0.564622
0.564622
0.564623
0.564625
0.564627
0.564629
0.564629
0.564631
0.564633
0.564635
0.564637
0.564637
0.564638
0.56464
0.564642
0.564644
0.564644
0.564646
0.564648
0.56465
0.564652
0.564652
0.564654
0.564656
0.564658
0.564659
0.564659
0.564661
0.564663
0.564665
0.564667
0.564667
0.564669
0.564671
0.564673
0.564675
0.564675
0.564677
0.564679
0.564681
0.564683
0.564683
0.564685
0.564687
0.564689
0.564691
0.564691
0.564693
0.564695
0.564697
0.564699
0.564699
0.564701
0.564703
0.564705
0.564707
0.564707
0.564709
0.564711
0.564713
0.564715
0.564715
0.564717
0.564719
0.564721
0.564723
0.564723
0.564725
0.564727
0.564729
0.564731
0.564731
0.564733
0.564735
0.564738
0.56474
0.56474
0.564742
0.564744
0.564746
0.564748
0.564748
0.56475
0.564752
0.564754
0.564756
0.564756
0.564758
0.564761
0.564763
0.564765
0.564765
0.564767
0.564769
0.564771
0.564773
0.564773
0.564775
0.564778
0.56478
0.564782
0.564782
0.564784
0.564786
0.564788
0.56479
0.56479
0.564793
0.564795
0.564797
0.564799
0.564799
0.564801
0.564804
0.564806
0.564808
0.564808
0.56481
0.564812
0.564815
0.564817
0.564817
0.564819
0.564821
0.564824
0.564826
0.564826
0.564828
0.56483
0.564833
0.564835
0.564835
0.564837
0.564839
0.564842
0.564844
0.564844
0.564846
0.564848
0.564851
0.564853
0.564853
0.564855
0.564858
0.56486
0.564862
0.564862
0.564864
0.564867
0.564869
0.564871
0.564871
0.564874
0.564876
0.564878
0.564881
0.564881
0.564883
0.564885
0.564888
0.56489
0.56489
0.564892
0.564895
0.564897
0.564899
0.564899
0.564902
0.564904
0.564907
0.564909
0.564909
0.564911
0.564914
0.564916
0.564919
0.564919
0.564921
0.564923
0.564926
0.564928
0.564928
0.564931
0.564933
0.564936
0.564938
0.564938
0.56494
0.564943
0.564945
0.564948
0.564948
0.56495
0.564953
0.564955
0.564958
0.564958
0.56496
0.564963
0.564965
0.564968
0.564968
0.56497
0.564973
0.564975
0.564978
0.564978
0.56498
0.564983
0.564985
0.564988
0.564988
0.56499
0.564993
0.564995
0.564998
0.564998
0.565
0.565003
0.565005
0.565008
0.565008
0.56501
0.565013
0.565016
0.565018
0.565018
0.565021
0.565023
0.565026
0.565028
0.565028
0.565031
0.565034
0.565036
0.565039
0.565039
0.565042
0.565044
0.565047
0.56505
0.56505
0.565052
0.565055
0.565057
0.56506
0.56506
0.565063
0.565065
0.565068
0.565071
0.565071
0.565073
0.565076
0.565079
0.565082
0.565082
0.565084
0.565087
0.56509
0.565092
0.565092
0.565095
0.565098
0.5651
0.565103
0.565103
0.565106
0.565109
0.565111
0.565114
0.565114
0.565117
0.56512
0.565122
0.565125
0.565125
0.565128
0.565131
0.565133
0.565136
0.565136
0.565139
0.565142
0.565145
0.565147
0.565147
0.56515
0.565153
0.565156
0.565159
0.565159
0.565162
0.565164
0.565167
0.56517
0.56517
0.565173
0.565176
0.565179
0.565182
0.565182
0.565184
0.565187
0.56519
0.565193
0.565193
0.565196
0.565199
0.565202
0.565205
0.565205
0.565208
0.56521
0.565213
0.565216
0.565216
0.565219
0.565222
0.565225
0.565228
0.565228
0.565231
0.565234
0.565237
0.56524
0.56524
0.565243
0.565246
0.565249
0.565252
0.565252
0.565255
0.565258
0.565261
0.565264
0.565264
0.565267
0.56527
0.565273
0.565276
0.565276
0.565279
0.565282
0.565285
0.565288
0.565288
0.565291
0.565294
0.565297
0.5653
0.5653
0.565303
0.565307
0.56531
0.565313
0.565313
0.565316
0.565319
0.565322
0.565325
0.565325
0.565328
0.565331
0.565335
0.565338
0.565338
0.565341
0.565344
0.565347
0.56535
0.56535
0.565353
0.565357
0.56536
0.565363
0.565363
0.565366
0.565369
0.565372
0.565376
0.565376
0.565379
0.565382
0.565385
0.565388
0.565388
0.565392
0.565395
0.565398
0.565401
0.565401
0.565405
0.565408
0.565411
0.565415
0.565415
0.565418
0.565421
0.565424
0.565428
0.565428
0.565431
0.565434
0.565438
0.565441
0.565441
0.565444
0.565448
0.565451
0.565454
0.565454
0.565458
0.565461
0.565464
0.565468
0.565468
0.565471
0.565475
0.565478
0.565481
0.565481
0.565485
0.565488
0.565491
0.565495
0.565495
0.565498
0.565502
0.565505
0.565508
0.565508
0.565512
0.565515
0.565519
0.565522
0.565522
0.565526
0.565529
0.565533
0.565536
0.565536
0.56554
0.565543
0.565547
0.56555
0.56555
0.565554
0.565557
0.565561
0.565564
0.565564
0.565568
0.565571
0.565575
0.565579
0.565579
0.565582
0.565586
0.565589
0.565593
0.565593
0.565596
0.5656
0.565604
0.565607
0.565607
0.565611
0.565614
0.565618
0.565622
0.565622
0.565625
0.565629
0.565633
0.565636
0.565636
0.56564
0.565644
0.565647
0.565651
0.565651
0.565655
0.565658
0.565662
0.565666
0.565666
0.565669
0.565673
0.565677
0.565681
0.565681
0.565684
0.565688
0.565692
0.565696
0.565696
0.565699
0.565703
0.565707
0.565711
0.565711
0.565715
0.565718
0.565722
0.565726
0.565726
0.56573
0.565734
0.565738
0.565741
0.565741
0.565745
0.565749
0.565753
0.565757
0.565757
0.565761
0.565765
0.565768
0.565772
0.565772
0.565776
0.56578
0.565784
0.565788
0.565788
0.565792
0.565796
0.5658
0.565804
0.565804
0.565808
0.565812
0.565816
0.56582
0.56582
0.565824
0.565828
0.565832
0.565836
0.565836
0.56584
0.565844
0.565848
0.565852
0.565852
0.565856
0.56586
0.565864
0.565868
0.565868
0.565872
0.565876
0.56588
0.565884
0.565884
0.565888
0.565892
0.565896
0.565901
0.565901
0.565905
0.565909
0.565913
0.565917
0.565917
0.565921
0.565925
0.56593
0.565934
0.565934
0.565938
0.565942
0.565946
0.56595
0.56595
0.565955
0.565959
0.565963
0.565967
0.565967
0.565972
0.565976
0.56598
0.565984
0.565984
0.565989
0.565993
0.565997
0.566002
0.566002
0.566006
0.56601
0.566015
0.566019
0.566019
0.566023
0.566028
0.566032
0.566036
0.566036
0.566041
0.566045
0.566049
0.566054
0.566054
0.566058
0.566062
0.566067
0.566071
0.566071
0.566076
0.56608
0.566085
0.566089
0.566089
0.566093
0.566098
0.566102
0.566107
0.566107
0.566111
0.566116
0.56612
0.566125
0.566125
0.566129
0.566134
0.566139
0.566143
0.566143
0.566148
0.566152
0.566157
0.566161
0.566161
0.566166
0.566171
0.566175
0.56618
0.56618
0.566184
0.566189
0.566194
0.566198
0.566198
0.566203
0.566208
0.566212
0.566217
0.566217
0.566221
0.566226
0.566231
0.566236
0.566236
0.56624
0.566245
0.56625
0.566254
0.566254
0.566259
0.566264
0.566269
0.566274
0.566274
0.566278
0.566283
0.566288
0.566293
0.566293
0.566298
0.566302
0.566307
0.566312
0.566312
0.566317
0.566322
0.566327
0.566332
0.566332
0.566336
0.566341
0.566346
0.566351
0.566351
0.566356
0.566361
0.566366
0.566371
0.566371
0.566376
0.566381
0.566386
0.566391
0.566391
0.566396
0.566401
0.566406
0.566411
0.566411
0.566416
0.566421
0.566426
0.566431
0.566431
0.566436
0.566441
0.566446
0.566451
0.566451
0.566456
0.566461
0.566466
0.566472
0.566472
0.566477
0.566482
0.566487
0.566492
0.566492
0.566497
0.566502
0.566508
0.566513
0.566513
0.566518
0.566523
0.566528
0.566534
0.566534
0.566539
0.566544
0.566549
0.566555
0.566555
0.56656
0.566565
0.566571
0.566576
0.566576
0.566581
0.566586
0.566592
0.566597
0.566597
0.566603
0.566608
0.566613
0.566619
0.566619
0.566624
0.56663
0.566635
0.56664
0.56664
0.566646
0.566651
0.566657
0.566662
0.566662
0.566668
0.566673
0.566679
0.566684
0.566684
0.56669
0.566695
0.566701
0.566706
0.566706
0.566712
0.566717
0.566723
0.566728
0.566728
0.566734
0.56674
0.566745
0.566751
0.566751
0.566756
0.566762
0.566768
0.566773
0.566773
0.566779
0.566785
0.56679
0.566796
0.566796
0.566802
0.566808
0.566813
0.566819
0.566819
0.566825
0.566831
0.566836
0.566842
0.566842
0.566848
0.566854
0.56686
0.566865
0.566865
0.566871
0.566877
0.566883
0.566889
0.566889
0.566895
0.566901
0.566906
0.566912
0.566912
0.566918
0.566924
0.56693
0.566936
0.566936
0.566942
0.566948
0.566954
0.56696
0.56696
0.566966
0.566972
0.566978
0.566984
0.566984
0.56699
0.566996
0.567002
0.567008
0.567008
0.567015
0.567021
0.567027
0.567033
0.567033
0.567039
0.567045
0.567051
0.567057
0.567057
0.567064
0.56707
0.567076
0.567082
0.567082
0.567088
0.567095
0.567101
0.567107
0.567107
0.567113
0.56712
0.567126
0.567132
0.567132
0.567139
0.567145
0.567151
0.567158
0.567158
0.567164
0.567171
0.567177
0.567183
0.567183
0.56719
0.567196
0.567203
0.567209
0.567209
0.567216
0.567222
0.567228
0.567235
0.567235
0.567241
0.567248
0.567254
0.567261
0.567261
0.567268
0.567274
0.567281
0.567287
0.567287
0.567294
0.5673
0.567307
0.567314
0.567314
0.56732
0.567327
0.567334
0.56734
0.56734
0.567347
0.567354
0.567361
0.567367
0.567367
0.567374
0.567381
0.567388
0.567394
0.567394
0.567401
0.567408
0.567415
0.567422
0.567422
0.567429
0.567435
0.567442
0.567449
0.567449
0.567456
0.567463
0.56747
0.567477
0.567477
0.567484
0.567491
0.567498
0.567505
0.567505
0.567512
0.567519
0.567526
0.567533
0.567533
0.56754
0.567547
0.567554
0.567561
0.567561
0.567568
0.567575
0.567582
0.56759
0.56759
0.567597
0.567604
0.567611
0.567618
0.567618
0.567625
0.567633
0.56764
0.567647
0.567647
0.567654
0.567662
0.567669
0.567676
0.567676
0.567684
0.567691
0.567698
0.567706
0.567706
0.567713
0.56772
0.567728
0.567735
0.567735
0.567743
0.56775
0.567758
0.567765
0.567765
0.567773
0.56778
0.567788
0.567795
0.567795
0.567803
0.56781
0.567818
0.567825
0.567825
0.567833
0.567841
0.567848
0.567856
0.567856
0.567863
0.567871
0.567879
0.567886
0.567886
0.567894
0.567902
0.56791
0.567917
0.567917
0.567925
0.567933
0.567941
0.567949
0.567949
0.567956
0.567964
0.567972
0.56798
0.56798
0.567988
0.567996
0.568004
0.568012
0.568012
0.56802
0.568027
0.568035
0.568043
0.568043
0.568051
0.568059
0.568067
0.568075
0.568075
0.568084
0.568092
0.5681
0.568108
0.568108
0.568116
0.568124
0.568132
0.56814
0.56814
0.568149
0.568157
0.568165
0.568173
0.568173
0.568182
0.56819
0.568198
0.568206
0.568206
0.568215
0.568223
0.568231
0.56824
0.56824
0.568248
0.568256
0.568265
0.568273
0.568273
0.568282
0.56829
0.568299
0.568307
0.568307
0.568316
0.568324
0.568333
0.568341
0.568341
0.56835
0.568358
0.568367
0.568376
0.568376
0.568384
0.568393
0.568402
0.56841
0.56841
0.568419
0.568428
0.568436
0.568445
0.568445
0.568454
0.568463
0.568471
0.56848
0.56848
0.568489
0.568498
0.568507
0.568516
0.568516
0.568524
0.568533
0.568542
0.568551
0.568551
0.56856
0.568569
0.568578
0.568587
0.568587
0.568596
0.568605
0.568614
0.568623
0.568623
0.568633
0.568642
0.568651
0.56866
0.56866
0.568669
0.568678
0.568688
0.568697
0.568697
0.568706
0.568715
0.568725
0.568734
0.568734
0.568743
0.568752
0.568762
0.568771
0.568771
0.568781
0.56879
0.568799
0.568809
0.568809
0.568818
0.568828
0.568837
0.568847
0.568847
0.568856
0.568866
0.568875
0.568885
0.568885
0.568895
0.568904
0.568914
0.568924
0.568924
0.568933
0.568943
0.568953
0.568962
0.568962
0.568972
0.568982
0.568992
0.569001
0.569001
0.569011
0.569021
0.569031
0.569041
0.569041
0.569051
0.569061
0.569071
0.569081
0.569081
0.569091
0.569101
0.569111
0.569121
0.569121
0.569131
0.569141
0.569151
0.569161
0.569161
0.569171
0.569181
0.569191
0.569202
0.569202
0.569212
0.569222
0.569232
0.569243
0.569243
0.569253
0.569263
0.569273
0.569284
0.569284
0.569294
0.569305
0.569315
0.569325
0.569325
0.569336
0.569346
0.569357
0.569367
0.569367
0.569378
0.569389
0.569399
0.56941
0.56941
0.56942
0.569431
0.569442
0.569452
0.569452
0.569463
0.569474
0.569484
0.569495
0.569495
0.569506
0.569517
0.569528
0.569538
0.569538
0.569549
0.56956
0.569571
0.569582
0.569582
0.569593
0.569604
0.569615
0.569626
0.569626
0.569637
0.569648
0.569659
0.56967
0.56967
0.569681
0.569693
0.569704
0.569715
0.569715
0.569726
0.569737
0.569749
0.56976
0.56976
0.569771
0.569783
0.569794
0.569805
0.569805
0.569817
0.569828
0.569839
0.569851
0.569851
0.569862
0.569874
0.569885
0.569897
0.569897
0.569909
0.56992
0.569932
0.569943
0.569943
0.569955
0.569967
0.569979
0.56999
0.56999
0.570002
0.570014
0.570026
0.570037
0.570037
0.570049
0.570061
0.570073
0.570085
0.570085
0.570097
0.570109
0.570121
0.570133
0.570133
0.570145
0.570157
0.570169
0.570181
0.570181
0.570193
0.570205
0.570218
0.57023
0.57023
0.570242
0.570254
0.570267
0.570279
0.570279
0.570291
0.570304
0.570316
0.570328
0.570328
0.570341
0.570353
0.570366
0.570378
0.570378
0.570391
0.570403
0.570416
0.570428
0.570428
0.570441
0.570454
0.570466
0.570479
0.570479
0.570492
0.570505
0.570517
0.57053
0.57053
0.570543
0.570556
0.570569
0.570582
0.570582
0.570595
0.570607
0.57062
0.570633
0.570633
0.570646
0.57066
0.570673
0.570686
0.570686
0.570699
0.570712
0.570725
0.570738
0.570738
0.570752
0.570765
0.570778
0.570791
0.570791
0.570805
0.570818
0.570832
0.570845
0.570845
0.570859
0.570872
0.570886
0.570899
0.570899
0.570913
0.570926
0.57094
0.570953
0.570953
0.570967
0.570981
0.570995
0.571008
0.571008
0.571022
0.571036
0.57105
0.571064
0.571064
0.571077
0.571091
0.571105
0.571119
0.571119
0.571133
0.571147
0.571161
0.571176
0.571176
0.57119
0.571204
0.571218
0.571232
0.571232
0.571246
0.571261
0.571275
0.571289
0.571289
0.571304
0.571318
0.571332
0.571347
0.571347
0.571361
0.571376
0.57139
0.571405
0.571405
0.571419
0.571434
0.571449
0.571463
0.571463
0.571478
0.571493
0.571508
0.571522
0.571522
0.571537
0.571552
0.571567
0.571582
0.571582
0.571597
0.571612
0.571627
0.571642
0.571642
0.571657
0.571672
0.571687
0.571702
0.571702
0.571717
0.571732
0.571748
0.571763
0.571763
0.571778
0.571794
0.571809
0.571824
0.571824
0.57184
0.571855
0.571871
0.571886
0.571886
0.571902
0.571918
0.571933
0.571949
0.571949
0.571964
0.57198
0.571996
0.572012
0.572012
0.572027
0.572043
0.572059
0.572075
0.572075
0.572091
0.572107
0.572123
0.572139
0.572139
0.572155
0.572171
0.572187
0.572204
0.572204
0.57222
0.572236
0.572252
0.572269
0.572269
0.572285
0.572301
0.572318
0.572334
0.572334
0.57235
0.572367
0.572383
0.5724
0.5724
0.572417
0.572433
0.57245
0.572467
0.572467
0.572483
0.5725
0.572517
0.572534
0.572534
0.572551
0.572568
0.572585
0.572602
0.572602
0.572619
0.572636
0.572653
0.57267
0.57267
0.572687
0.572704
0.572721
0.572739
0.572739
0.572756
0.572773
0.572791
0.572808
0.572808
0.572825
0.572843
0.57286
0.572878
0.572878
0.572895
0.572913
0.572931
0.572948
0.572948
0.572966
0.572984
0.573002
0.57302
0.57302
0.573037
0.573055
0.573073
0.573091
0.573091
0.573109
0.573127
0.573145
0.573163
0.573163
0.573182
0.5732
0.573218
0.573236
0.573236
0.573255
0.573273
0.573291
0.57331
0.57331
0.573328
0.573347
0.573365
0.573384
0.573384
0.573402
0.573421
0.57344
0.573459
0.573459
0.573477
0.573496
0.573515
0.573534
0.573534
0.573553
0.573572
0.573591
0.57361
0.57361
0.573629
0.573648
0.573667
0.573686
0.573686
0.573705
0.573725
0.573744
0.573763
0.573763
0.573783
0.573802
0.573822
0.573841
0.573841
0.573861
0.57388
0.5739
0.57392
0.57392
0.573939
0.573959
0.573979
0.573999
0.573999
0.574018
0.574038
0.574058
0.574078
0.574078
0.574098
0.574119
0.574139
0.574159
0.574159
0.574179
0.574199
0.57422
0.57424
0.57424
0.57426
0.574281
0.574301
0.574322
0.574322
0.574342
0.574363
0.574383
0.574404
0.574404
0.574425
0.574445
0.574466
0.574487
0.574487
0.574508
0.574529
0.57455
0.574571
0.574571
0.574592
0.574613
0.574634
0.574655
0.574655
0.574676
0.574698
0.574719
0.57474
0.57474
0.574762
0.574783
0.574805
0.574826
0.574826
0.574848
0.574869
0.574891
0.574913
0.574913
0.574934
0.574956
0.574978
0.575
0.575
0.575022
0.575044
0.575066
0.575088
0.575088
0.57511
0.575132
0.575154
0.575177
0.575177
0.575199
0.575221
0.575244
0.575266
0.575266
0.575289
0.575311
0.575334
0.575356
0.575356
0.575379
0.575402
0.575424
0.575447
0.575447
0.57547
0.575493
0.575516
0.575539
0.575539
0.575562
0.575585
0.575608
0.575631
0.575631
0.575655
0.575678
0.575701
0.575724
0.575724
0.575748
0.575771
0.575795
0.575818
0.575818
0.575842
0.575866
0.575889
0.575913
0.575913
0.575937
0.575961
0.575985
0.576009
0.576009
0.576033
0.576057
0.576081
0.576105
0.576105
0.576129
0.576153
0.576178
0.576202
0.576202
0.576226
0.576251
0.576275
0.5763
0.5763
0.576324
0.576349
0.576374
0.576398
0.576398
0.576423
0.576448
0.576473
0.576498
0.576498
0.576523
0.576548
0.576573
0.576598
0.576598
0.576623
0.576649
0.576674
0.576699
0.576699
0.576725
0.57675
0.576776
0.576801
0.576801
0.576827
0.576852
0.576878
0.576904
0.576904
0.57693
0.576956
0.576982
0.577008
0.577008
0.577034
0.57706
0.577086
0.577112
0.577112
0.577138
0.577165
0.577191
0.577217
0.577217
0.577244
0.57727
0.577297
0.577323
0.577323
0.57735
0.577377
0.577404
0.57743
0.57743
0.577457
0.577484
0.577511
0.577538
0.577538
0.577565
0.577593
0.57762
0.577647
0.577647
0.577674
0.577702
0.577729
0.577757
0.577757
0.577784
0.577812
0.577839
0.577867
0.577867
0.577895
0.577923
0.577951
0.577979
0.577979
0.578007
0.578035
0.578063
0.578091
0.578091
0.578119
0.578148
0.578176
0.578204
0.578204
0.578233
0.578261
0.57829
0.578318
0.578318
0.578347
0.578376
0.578405
0.578433
0.578433
0.578462
0.578491
0.57852
0.578549
0.578549
0.578579
0.578608
0.578637
0.578666
0.578666
0.578696
0.578725
0.578755
0.578784
0.578784
0.578814
0.578843
0.578873
0.578903
0.578903
0.578933
0.578963
0.578993
0.579023
0.579023
0.579053
0.579083
0.579113
0.579143
0.579143
0.579174
0.579204
0.579235
0.579265
0.579265
0.579296
0.579326
0.579357
0.579388
0.579388
0.579418
0.579449
0.57948
0.579511
0.579511
0.579542
0.579573
0.579605
0.579636
0.579636
0.579667
0.579698
0.57973
0.579761
0.579761
0.579793
0.579825
0.579856
0.579888
0.579888
0.57992
0.579952
0.579984
0.580016
0.580016
0.580048
0.58008
0.580112
0.580144
0.580144
0.580176
0.580209
0.580241
0.580274
0.580274
0.580306
0.580339
0.580372
0.580404
0.580404
0.580437
0.58047
0.580503
0.580536
0.580536
0.580569
0.580602
0.580635
0.580668
0.580668
0.580702
0.580735
0.580769
0.580802
0.580802
0.580836
0.580869
0.580903
0.580937
0.580937
0.580971
0.581005
0.581039
0.581073
0.581073
0.581107
0.581141
0.581175
0.581209
0.581209
0.581244
0.581278
0.581313
0.581347
0.581347
0.581382
0.581417
0.581451
0.581486
0.581486
0.581521
0.581556
0.581591
0.581626
0.581626
0.581661
0.581697
0.581732
0.581767
0.581767
0.581803
0.581838
0.581874
0.581909
0.581909
0.581945
0.581981
0.582017
0.582053
0.582053
0.582088
0.582125
0.582161
0.582197
0.582197
0.582233
0.582269
0.582306
0.582342
0.582342
0.582379
0.582415
0.582452
0.582489
0.582489
0.582526
0.582562
0.582599
0.582636
0.582636
0.582673
0.582711
0.582748
0.582785
0.582785
0.582822
0.58286
0.582897
0.582935
0.582935
0.582972
0.58301
0.583048
0.583086
0.583086
0.583124
0.583162
0.5832
0.583238
0.583238
0.583276
0.583314
0.583353
0.583391
0.583391
0.583429
0.583468
0.583507
0.583545
0.583545
0.583584
0.583623
0.583662
0.583701
0.583701
0.58374
0.583779
0.583818
0.583857
0.583857
0.583897
0.583936
0.583976
0.584015
0.584015
0.584055
0.584094
0.584134
0.584174
0.584174
0.584214
0.584254
0.584294
0.584334
0.584334
0.584374
0.584414
0.584455
0.584495
0.584495
0.584536
0.584576
0.584617
0.584657
0.584657
0.584698
0.584739
0.58478
0.584821
0.584821
0.584862
0.584903
0.584944
0.584986
0.584986
0.585027
0.585068
0.58511
0.585152
0.585152
0.585193
0.585235
0.585277
0.585319
0.585319
0.58536
0.585402
0.585445
0.585487
0.585487
0.585529
0.585571
0.585614
0.585656
0.585656
0.585699
0.585741
0.585784
0.585827
0.585827
0.585869
0.585912
0.585955
0.585998
0.585998
0.586042
0.586085
0.586128
0.586171
0.586171
0.586215
0.586258
0.586302
0.586345
0.586345
0.586389
0.586433
0.586477
0.586521
0.586521
0.586565
0.586609
0.586653
0.586697
0.586697
0.586742
0.586786
0.58683
0.586875
0.586875
0.58692
0.586964
0.587009
0.587054
0.587054
0.587099
0.587144
0.587189
0.587234
0.587234
0.587279
0.587324
0.58737
0.587415
0.587415
0.587461
0.587506
0.587552
0.587598
0.587598
0.587644
0.58769
0.587736
0.587782
0.587782
0.587828
0.587874
0.58792
0.587966
0.587966
0.588013
0.588059
0.588106
0.588153
0.588153
0.588199
0.588246
0.588293
0.58834
0.58834
0.588387
0.588434
0.588481
0.588529
0.588529
0.588576
0.588623
0.588671
0.588718
0.588718
0.588766
0.588814
0.588861
0.588909
0.588909
0.588957
0.589005
0.589053
0.589102
0.589102
0.58915
0.589198
0.589246
0.589295
0.589295
0.589343
0.589392
0.589441
0.58949
0.58949
0.589538
0.589587
0.589636
0.589685
0.589685
0.589734
0.589784
0.589833
0.589882
0.589882
0.589932
0.589981
0.590031
0.590081
0.590081
0.59013
0.59018
0.59023
0.59028
0.59028
0.59033
0.59038
0.59043
0.590481
0.590481
0.590531
0.590582
0.590632
0.590683
0.590683
0.590733
0.590784
0.590835
0.590886
0.590886
0.590937
0.590988
0.591039
0.59109
0.59109
0.591141
0.591193
0.591244
0.591295
0.591295
0.591347
0.591399
0.59145
0.591502
0.591502
0.591554
0.591606
0.591658
0.59171
0.59171
0.591762
0.591814
0.591867
0.591919
0.591919
0.591972
0.592024
0.592077
0.592129
0.592129
0.592182
0.592235
0.592288
0.592341
0.592341
0.592394
0.592447
0.5925
0.592554
0.592554
0.592607
0.59266
0.592714
0.592767
0.592767
0.592821
0.592875
0.592929
0.592982
0.592982
0.593036
0.59309
0.593144
0.593199
0.593199
0.593253
0.593307
0.593361
0.593416
0.593416
0.59347
0.593525
0.59358
0.593634
0.593634
0.593689
0.593744
0.593799
0.593854
0.593854
0.593909
0.593964
0.59402
0.594075
0.594075
0.59413
0.594186
0.594241
0.594297
0.594297
0.594353
0.594409
0.594464
0.59452
0.59452
0.594576
0.594632
0.594688
0.594745
0.594745
0.594801
0.594857
0.594914
0.59497
0.59497
0.595027
0.595083
0.59514
0.595197
0.595197
0.595253
0.59531
0.595367
0.595424
0.595424
0.595481
0.595539
0.595596
0.595653
0.595653
0.595711
0.595768
0.595826
0.595883
0.595883
0.595941
0.595999
0.596056
0.596114
0.596114
0.596172
0.59623
0.596288
0.596346
0.596346
0.596405
0.596463
0.596521
0.59658
0.59658
0.596638
0.596697
0.596755
0.596814
0.596814
0.596873
0.596932
0.596991
0.59705
0.59705
0.597109
0.597168
0.597227
0.597286
0.597286
0.597345
0.597405
0.597464
0.597524
0.597524
0.597583
0.597643
0.597703
0.597762
0.597762
0.597822
0.597882
0.597942
0.598002
0.598002
0.598062
0.598122
0.598183
0.598243
0.598243
0.598303
0.598364
0.598424
0.598485
0.598485
0.598545
0.598606
0.598667
0.598728
0.598728
0.598789
0.59885
0.598911
0.598972
0.598972
0.599033
0.599094
0.599155
0.599217
0.599217
0.599278
0.599339
0.599401
0.599462
0.599462
0.599524
0.599586
0.599648
0.599709
0.599709
0.599771
0.599833
0.599895
0.599957
0.599957
0.600019
0.600082
0.600144
0.600206
0.600206
0.600269
0.600331
0.600394