<?xml version="1.0"?>
<VTKFile type="UnstructuredGrid" version="0.1" byte_order="LittleEndian">
<UnstructuredGrid>
<Piece NumberOfPoints="5000" NumberOfCells="4000">
<PointData Scalars="Reaction 0">
<DataArray type="Float32" Name="Reaction 0" format="ascii">
0.507482
0.507482
0.507482
0.507482
0.507483
0.507483
0.507483
0.507483
0.507483
0.507484
0.507484
0.507484
0.507484
0.507485
0.507485
0.507485
0.507486
0.507487
0.507487
0.507488
0.507488
0.507489
0.507489
0.50749
0.507491
0.507491
0.507492
0.507493
0.507494
0.507495
0.507495
0.507496
0.507497
0.507499
0.5075
0.5075
0.507501
0.507502
0.507504
0.507505
0.507505
0.507507
0.507508
0.50751
0.507511
0.507511
0.507513
0.507515
0.507516
0.507518
0.507518
0.50752
0.507522
0.507524
0.507526
0.507526
0.507528
0.50753
0.507532
0.507534
0.507534
0.507536
0.507539
0.507541
0.507543
0.507543
0.507546
0.507548
0.50755
0.507553
0.507553
0.507555
0.507558
0.507561
0.507563
0.507563
0.507566
0.507569
0.507572
0.507575
0.507575
0.507577
0.50758
0.507583
0.507586
0.507586
0.50759
0.507593
0.507596
0.507599
0.507599
0.507602
0.507606
0.507609
0.507612
0.507612
0.507616
0.507619
0.507623
0.507627
0.507627
0.50763
0.507634
0.507638
0.507641
0.507641
0.507645
0.507649
0.507653
0.507657
0.507657
0.507661
0.507665
0.507669
0.507673
0.507673
0.507677
0.507682
0.507686
0.50769
0.50769
0.507694
0.507699
0.507703
0.507708
0.507708
0.507712
0.507717
0.507722
0.507726
0.507726
0.507731
0.507736
0.507741
0.507745
0.507745
0.50775
0.507755
0.50776
0.507765
0.507765
0.50777
0.507775
0.507781
0.507786
0.507786
0.507791
0.507796
0.507802
0.507807
0.507807
0.507813
0.507818
0.507824
0.507829
0.507829
0.507835
0.50784
0.507846
0.507852
0.507852
0.507858
0.507864
0.507869
0.507875
0.507875
0.507881
0.507887
0.507893
0.5079
0.5079
0.507906
0.507912
0.507918
0.507925
0.507925
0.507931
0.507937
0.507944
0.50795
0.50795
0.507957
0.507963
0.50797
0.507977
0.507977
0.507983
0.50799
0.507997
0.508004
0.508004
0.508011
0.508018
0.508024
0.508032
0.508032
0.508039
0.508046
0.508053
0.50806
0.50806
0.508067
0.508075
0.508082
0.508089
0.508089
0.508097
0.508104
0.508112
0.508119
0.508119
0.508127
0.508135
0.508142
0.50815
0.50815
0.508158
0.508166
0.508174
0.508182
0.508182
0.50819
0.508198
0.508206
0.508214
0.508214
0.508222
0.50823
0.508238
0.508247
0.508247
0.508255
0.508263
0.508272
0.50828
0.50828
0.508289
0.508297
0.508306
0.508315
0.508315
0.508323
0.508332
0.508341
0.50835
0.50835
0.508359
0.508368
0.508377
0.508386
0.508386
0.508395
0.508404
0.508413
0.508422
0.508422
0.508431
0.508441
0.50845
0.508459
0.508459
0.508469
0.508478
0.508488
0.508497
0.508497
0.508507
0.508517
0.508526
0.508536
0.508536
0.508546
0.508556
0.508566
0.508576
0.508576
0.508585
0.508596
0.508606
0.508616
0.508616
0.508626
0.508636
0.508646
0.508657
0.508657
0.508667
0.508677
0.508688
0.508698
0.508698
0.508709
0.508719
0.50873
0.508741
0.508741
0.508751
0.508762
0.508773
0.508784
0.508784
0.508795
0.508806
0.508816
0.508828
0.508828
0.508839
0.50885
0.508861
0.508872
0.508872
0.508883
0.508895
0.508906
0.508917
0.508917
0.508929
0.50894
0.508952
0.508963
0.508963
0.508975
0.508987
0.508998
0.50901
0.50901
0.509022
0.509034
0.509046
0.509058
0.509058
0.50907
0.509082
0.509094
0.509106
0.509106
0.509118
0.50913
0.509142
0.509155
0.509155
0.509167
0.509179
0.509192
0.509204
0.509204
0.509217
0.50923
0.509242
0.509255
0.509255
0.509268
0.50928
0.509293
0.509306
0.509306
0.509319
0.509332
0.509345
0.509358
0.509358
0.509371
0.509384
0.509397
0.50941
0.50941
0.509424
0.509437
0.50945
0.509464
0.509464
0.509477
0.509491
0.509504
0.509518
0.509518
0.509531
0.509545
0.509559
0.509573
0.509573
0.509586
0.5096
0.509614
0.509628
0.509628
0.509642
0.509656
0.50967
0.509684
0.509684
0.509699
0.509713
0.509727
0.509741
0.509741
0.509756
0.50977
0.509785
0.509799
0.509799
0.509814
0.509828
0.509843
0.509858
0.509858
0.509872
0.509887
0.509902
0.509917
0.509917
0.509932
0.509947
0.509962
0.509977
0.509977
0.509992
0.510007
0.510022
0.510037
0.510037
0.510053
0.510068
0.510083
0.510099
0.510099
0.510114
0.51013
0.510145
0.510161
0.510161
0.510177
0.510192
0.510208
0.510224
0.510224
0.51024
0.510256
0.510272
0.510288
0.510288
0.510304
0.51032
0.510336
0.510352
0.510352
0.510368
0.510384
0.510401
0.510417
0.510417
0.510433
0.51045
0.510466
0.510483
0.510483
0.510499
0.510516
0.510533
0.510549
0.510549
0.510566
0.510583
0.5106
0.510617
0.510617
0.510634
0.510651
0.510668
0.510685
0.510685
0.510702
0.510719
0.510736
0.510754
0.510754
0.510771
0.510788
0.510806
0.510823
0.510823
0.510841
0.510858
0.510876
0.510893
0.510893
0.510911
0.510929
0.510947
0.510964
0.510964
0.510982
0.511
0.511018
0.511036
0.511036
0.511054
0.511072
0.511091
0.511109
0.511109
0.511127
0.511145
0.511164
0.511182
0.511182
0.5112
0.511219
0.511237
0.511256
0.511256
0.511275
0.511293
0.511312
0.511331
0.511331
0.51135
0.511368
0.511387
0.511406
0.511406
0.511425
0.511444
0.511463
0.511482
0.511482
0.511502
0.511521
0.51154
0.511559
0.511559
0.511579
0.511598
0.511618
0.511637
0.511637
0.511657
0.511676
0.511696
0.511716
0.511716
0.511735
0.511755
0.511775
0.511795
0.511795
0.511815
0.511835
0.511855
0.511875
0.511875
0.511895
0.511915
0.511935
0.511955
0.511955
0.511976
0.511996
0.512017
0.512037
0.512037
0.512057
0.512078
0.512099
0.512119
0.512119
0.51214
0.512161
0.512181
0.512202
0.512202
0.512223
0.512244
0.512265
0.512286
0.512286
0.512307
0.512328
0.512349
0.51237
0.51237
0.512391
0.512413
0.512434
0.512455
0.512455
0.512477
0.512498
0.51252
0.512541
0.512541
0.512563
0.512585
0.512606
0.512628
0.512628
0.51265
0.512672
0.512694
0.512716
0.512716
0.512738
0.51276
0.512782
0.512804
0.512804
0.512826
0.512848
0.51287
0.512893
0.512893
0.512915
0.512938
0.51296
0.512982
0.512982
0.513005
0.513028
0.51305
0.513073
0.513073
0.513096
0.513118
0.513141
0.513164
0.513164
0.513187
0.51321
0.513233
0.513256
0.513256
0.513279
0.513302
0.513326
0.513349
0.513349
0.513372
0.513396
0.513419
0.513442
0.513442
0.513466
0.513489
0.513513
0.513537
0.513537
0.51356
0.513584
0.513608
0.513632
0.513632
0.513656
0.513679
0.513703
0.513727
0.513727
0.513752
0.513776
0.5138
0.513824
0.513824
0.513848
0.513873
0.513897
0.513921
0.513921
0.513946
0.51397
0.513995
0.514019
0.514019
0.514044
0.514069
0.514093
0.514118
0.514118
0.514143
0.514168
0.514193
0.514218
0.514218
0.514243
0.514268
0.514293
0.514318
0.514318
0.514343
0.514368
0.514394
0.514419
0.514419
0.514444
0.51447
0.514495
0.514521
0.514521
0.514547
0.514572
0.514598
0.514624
0.514624
0.514649
0.514675
0.514701
0.514727
0.514727
0.514753
0.514779
0.514805
0.514831
0.514831
0.514857
0.514883
0.51491
0.514936
0.514936
0.514962
0.514989
0.515015
0.515042
0.515042
0.515068
0.515095
0.515121
0.515148
0.515148
0.515175
0.515202
0.515228
0.515255
0.515255
0.515282
0.515309
0.515336
0.515363
0.515363
0.51539
0.515418
0.515445
0.515472
0.515472
0.515499
0.515527
0.515554
0.515582
0.515582
0.515609
0.515637
0.515664
0.515692
0.515692
0.51572
0.515747
0.515775
0.515803
0.515803
0.515831
0.515859
0.515887
0.515915
0.515915
0.515943
0.515971
0.515999
0.516027
0.516027
0.516056
0.516084
0.516112
0.516141
0.516141
0.516169
0.516198
0.516226
0.516255
0.516255
0.516284
0.516312
0.516341
0.51637
0.51637
0.516399
0.516428
0.516457
0.516486
0.516486
0.516515
0.516544
0.516573
0.516602
0.516602
0.516631
0.516661
0.51669
0.516719
0.516719
0.516749
0.516778
0.516808
0.516837
0.516837
0.516867
0.516897
0.516926
0.516956
0.516956
0.516986
0.517016
0.517046
0.517076
0.517076
0.517106
0.517136
0.517166
0.517196
0.517196
0.517226
0.517256
0.517287
0.517317
0.517317
0.517348
0.517378
0.517409
0.517439
0.517439
0.51747
0.5175
0.517531
0.517562
0.517562
0.517593
0.517623
0.517654
0.517685
0.517685
0.517716
0.517747
0.517778
0.51781
0.51781
0.517841
0.517872
0.517903
0.517935
0.517935
0.517966
0.517997
0.518029
0.51806
0.51806
0.518092
0.518124
0.518155
0.518187
0.518187
0.518219
0.518251
0.518283
0.518314
0.518314
0.518346
0.518378
0.518411
0.518443
0.518443
0.518475
0.518507
0.518539
0.518572
0.518572
0.518604
0.518636
0.518669
0.518701
0.518701
0.518734
0.518767
0.518799
0.518832
0.518832
0.518865
0.518898
0.51893
0.518963
0.518963
0.518996
0.519029
0.519062
0.519095
0.519095
0.519129
0.519162
0.519195
0.519228
0.519228
0.519262
0.519295
0.519329
0.519362
0.519362
0.519396
0.519429
0.519463
0.519497
0.519497
0.51953
0.519564
0.519598
0.519632
0.519632
0.519666
0.5197
0.519734
0.519768
0.519768
0.519802
0.519836
0.519871
0.519905
0.519905
0.519939
0.519974
0.520008
0.520043
0.520043
0.520077
0.520112
0.520147
0.520181
0.520181
0.520216
0.520251
0.520286
0.520321
0.520321
0.520355
0.52039
0.520426
0.520461
0.520461
0.520496
0.520531
0.520566
0.520602
0.520602
0.520637
0.520672
0.520708
0.520743
0.520743
0.520779
0.520814
0.52085
0.520886
0.520886
0.520921
0.520957
0.520993
0.521029
0.521029
0.521065
0.521101
0.521137
0.521173
0.521173
0.521209
0.521246
0.521282
0.521318
0.521318
0.521354
0.521391
0.521427
0.521464
0.521464
0.5215
0.521537
0.521574
0.52161
0.52161
0.521647
0.521684
0.521721
0.521758
0.521758
0.521795
0.521832
0.521869
0.521906
0.521906
0.521943
0.52198
0.522017
0.522055
0.522055
0.522092
0.52213
0.522167
0.522205
0.522205
0.522242
0.52228
0.522317
0.522355
0.522355
0.522393
0.522431
0.522469
0.522507
0.522507
0.522545
0.522583
0.522621
0.522659
0.522659
0.522697
0.522735
0.522773
0.522812
0.522812
0.52285
0.522889
0.522927
0.522966
0.522966
0.523004
0.523043
0.523082
0.52312
0.52312
0.523159
0.523198
0.523237
0.523276
0.523276
0.523315
0.523354
0.523393
0.523432
0.523432
0.523471
0.52351
0.52355
0.523589
0.523589
0.523629
0.523668
0.523707
0.523747
0.523747
0.523787
0.523826
0.523866
0.523906
0.523906
0.523946
0.523985
0.524025
0.524065
0.524065
0.524105
0.524145
0.524186
0.524226
0.524226
0.524266
0.524306
0.524347
0.524387
0.524387
0.524427
0.524468
0.524508
0.524549
0.524549
0.52459
0.52463
0.524671
0.524712
0.524712
0.524753
0.524794
0.524835
0.524876
0.524876
0.524917
0.524958
0.524999
0.52504
0.52504
0.525081
0.525123
0.525164
0.525206
0.525206
0.525247
0.525289
0.52533
0.525372
0.525372
0.525413
0.525455
0.525497
0.525539
0.525539
0.525581
0.525623
0.525665
0.525707
0.525707
0.525749
0.525791
0.525833
0.525875
0.525875
0.525918
0.52596
0.526002
0.526045
0.526045
0.526087
0.52613
0.526173
0.526215
0.526215
0.526258
0.526301
0.526344
0.526386
0.526386
0.526429
0.526472
0.526515
0.526559
0.526559
0.526602
0.526645
0.526688
0.526731
0.526731
0.526775
0.526818
0.526862
0.526905
0.526905
0.526949
0.526992
0.527036
0.52708
0.52708
0.527124
0.527167
0.527211
0.527255
0.527255
0.527299
0.527343
0.527387
0.527431
0.527431
0.527476
0.52752
0.527564
0.527609
0.527609
0.527653
0.527697
0.527742
0.527786
0.527786
0.527831
0.527876
0.527921
0.527965
0.527965
0.52801
0.528055
0.5281
0.528145
0.528145
0.52819
0.528235
0.52828
0.528325
0.528325
0.528371
0.528416
0.528461
0.528507
0.528507
0.528552
0.528598
0.528643
0.528689
0.528689
0.528735
0.52878
0.528826
0.528872
0.528872
0.528918
0.528964
0.52901
0.529056
0.529056
0.529102
0.529148
0.529195
0.529241
0.529241
0.529287
0.529334
0.52938
0.529426
0.529426
0.529473
0.52952
0.529566
0.529613
0.529613
0.52966
0.529707
0.529753
0.5298
0.5298
0.529847
0.529894
0.529941
0.529989
0.529989
0.530036
0.530083
0.53013
0.530178
0.530178
0.530225
0.530273
0.53032
0.530368
0.530368
0.530415
0.530463
0.530511
0.530558
0.530558
0.530606
0.530654
0.530702
0.53075
0.53075
0.530798
0.530846
0.530894
0.530943
0.530943
0.530991
0.531039
0.531088
0.531136
0.531136
0.531185
0.531233
0.531282
0.53133
0.53133
0.531379
0.531428
0.531477
0.531526
0.531526
0.531574
0.531623
0.531673
0.531722
0.531722
0.531771
0.53182
0.531869
0.531919
0.531919
0.531968
0.532017
0.532067
0.532116
0.532116
0.532166
0.532216
0.532265
0.532315
0.532315
0.532365
0.532415
0.532465
0.532515
0.532515
0.532565
0.532615
0.532665
0.532715
0.532715
0.532765
0.532816
0.532866
0.532916
0.532916
0.532967
0.533017
0.533068
0.533119
0.533119
0.533169
0.53322
0.533271
0.533322
0.533322
0.533373
0.533424
0.533475
0.533526
0.533526
0.533577
0.533628
0.533679
0.53373
0.53373
0.533782
0.533833
0.533885
0.533936
0.533936
0.533988
0.534039
0.534091
0.534143
0.534143
0.534195
0.534247
0.534298
0.53435
0.53435
0.534402
0.534455
0.534507
0.534559
0.534559
0.534611
0.534663
0.534716
0.534768
0.534768
0.534821
0.534873
0.534926
0.534978
0.534978
0.535031
0.535084
0.535137
0.53519
0.53519
0.535242
0.535295
0.535348
0.535402
0.535402
0.535455
0.535508
0.535561
0.535615
0.535615
0.535668
0.535721
0.535775
0.535828
0.535828
0.535882
0.535936
0.535989
0.536043
0.536043
0.536097
0.536151
0.536205
0.536259
0.536259
0.536313
0.536367
0.536421
0.536475
0.536475
0.53653
0.536584
0.536638
0.536693
0.536693
0.536747
0.536802
0.536856
0.536911
0.536911
0.536966
0.537021
0.537076
0.53713
0.53713
0.537185
0.53724
0.537295
0.537351
0.537351
0.537406
0.537461
0.537516
0.537572
0.537572
0.537627
0.537683
0.537738
0.537794
0.537794
0.537849
0.537905
0.537961
0.538017
0.538017
0.538073
0.538129
0.538185
0.538241
0.538241
0.538297
0.538353
0.538409
0.538465
0.538465
0.538522
0.538578
0.538635
0.538691
0.538691
0.538748
0.538804
0.538861
0.538918
0.538918
0.538975
0.539031
0.539088
0.539145
0.539145
0.539202
0.539259
0.539317
0.539374
0.539374
0.539431
0.539488
0.539546
0.539603
0.539603
0.539661
0.539718
0.539776
0.539834
0.539834
0.539891
0.539949
0.540007
0.540065
0.540065
0.540123
0.540181
0.540239
0.540297
0.540297
0.540355
0.540414
0.540472
0.54053
0.54053
0.540589
0.540647
0.540706
0.540764
0.540764
0.540823
0.540882
0.540941
0.541
0.541
0.541058
0.541117
0.541176
0.541236
0.541236
0.541295
0.541354
0.541413
0.541472
0.541472
0.541532
0.541591
0.541651
0.54171
0.54171
0.54177
0.54183
0.541889
0.541949
0.541949
0.542009
0.542069
0.542129
0.542189
0.542189
0.542249
0.542309
0.542369
0.54243
0.54243
0.54249
0.54255
0.542611
0.542671
0.542671
0.542732
0.542793
0.542853
0.542914
0.542914
0.542975
0.543036
0.543097
0.543158
0.543158
0.543219
0.54328
0.543341
0.543402
0.543402
0.543463
0.543525
0.543586
0.543648
0.543648
0.543709
0.543771
0.543833
0.543894
0.543894
0.543956
0.544018
0.54408
0.544142
0.544142
0.544204
0.544266
0.544328
0.54439
0.54439
0.544452
0.544515
0.544577
0.544639
0.544639
0.544702
0.544765
0.544827
0.54489
0.54489
0.544953
0.545015
0.545078
0.545141
0.545141
0.545204
0.545267
0.54533
0.545393
0.545393
0.545457
0.54552
0.545583
0.545647
0.545647
0.54571
0.545774
0.545837
0.545901
0.545901
0.545965
0.546028
0.546092
0.546156
0.546156
0.54622
0.546284
0.546348
0.546412
0.546412
0.546477
0.546541
0.546605
0.54667
0.54667
0.546734
0.546799
0.546863
0.546928
0.546928
0.546993
0.547057
0.547122
0.547187
0.547187
0.547252
0.547317
0.547382
0.547447
0.547447
0.547512
0.547578
0.547643
0.547708
0.547708
0.547774
0.547839
0.547905
0.547971
0.547971
0.548036
0.548102
0.548168
0.548234
0.548234
0.5483
0.548366
0.548432
0.548498
0.548498
0.548564
0.54863
0.548697
0.548763
0.548763
0.548829
0.548896
0.548962
0.549029
0.549029
0.549096
0.549163
0.549229
0.549296
0.549296
0.549363
0.54943
0.549497
0.549564
0.549564
0.549632
0.549699
0.549766
0.549834
0.549834
0.549901
0.549969
0.550036
0.550104
0.550104
0.550172
0.550239
0.550307
0.550375
0.550375
0.550443
0.550511
0.550579
0.550647
0.550647
0.550715
0.550784
0.550852
0.55092
0.55092
0.550989
0.551057
0.551126
0.551195
0.551195
0.551263
0.551332
0.551401
0.55147
0.55147
0.551539
0.551608
0.551677
0.551746
0.551746
0.551816
0.551885
0.551954
0.552024
0.552024
0.552093
0.552163
0.552232
0.552302
0.552302
0.552372
0.552442
0.552511
0.552581
0.552581
0.552651
0.552721
0.552792
0.552862
0.552862
0.552932
0.553002
0.553073
0.553143
0.553143
0.553214
0.553284
0.553355
0.553426
0.553426
0.553496
0.553567
0.553638
0.553709
0.553709
0.55378
0.553851
0.553923
0.553994
0.553994
0.554065
0.554136
0.554208
0.554279
0.554279
0.554351
0.554423
0.554494
0.554566
0.554566
0.554638
0.55471
0.554782
0.554854
0.554854
0.554926
0.554998
0.55507
0.555143
0.555143
0.555215
0.555287
0.55536
0.555432
0.555432
0.555505
0.555578
0.55565
0.555723
0.555723
0.555796
0.555869
0.555942
0.556015
0.556015
0.556088
0.556162
0.556235
0.556308
0.556308
0.556382
0.556455
0.556529
0.556602
0.556602
0.556676
0.55675
0.556823
0.556897
0.556897
0.556971
0.557045
0.557119
0.557194
0.557194
0.557268
0.557342
0.557416
0.557491
0.557491
0.557565
0.55764
0.557714
0.557789
0.557789
0.557864
0.557939
0.558014
0.558089
0.558089
0.558164
0.558239
0.558314
0.558389
0.558389
0.558464
0.55854
0.558615
0.558691
0.558691
0.558766
0.558842
0.558917
0.558993
0.558993
0.559069
0.559145
0.559221
0.559296
0.559296
0.559372
0.559448
0.559523
0.559598
0.559598
0.559672
0.559744
0.559814
0.559881
0.559881
0.559941
0.559987
0.560021
0.560041
0.560041
0.560059
0.560076
0.560092
0.560108
0.560108
0.560124
0.56014
0.560156
0.560172
0.560172
0.560188
0.560204
0.56022
0.560236
0.560236
0.560252
0.560268
0.560284
0.5603
0.5603
0.560316
0.560332
0.560347
0.560363
0.560363
0.560378
0.560393
0.560407
0.56042
0.56042
0.560431
0.56044
0.560445
0.560448
0.560448
0.560448
0.560449
0.560448
0.560447
0.560447
0.560446
0.560446
0.560445
0.560444
0.560444
0.560443
0.560442
0.560441
0.56044
0.56044
0.560439
0.560438
0.560437
0.560436
0.560436
0.560435
0.560434
0.560433
0.560432
0.560432
0.560431
0.56043
0.560429
0.560428
0.560428
0.560427
0.560425
0.560424
0.560423
0.560423
0.560422
0.560421
0.560419
0.560418
0.560418
0.560417
0.560415
0.560414
0.560412
0.560412
0.560411
0.56041
0.560408
0.560407
0.560407
0.560405
0.560404
0.560403
0.560401
0.560401
0.5604
0.560398
0.560397
0.560396
0.560396
0.560394
0.560393
0.560392
0.560391
0.560391
0.56039
0.560389
0.560388
0.560388
0.560388
0.560388
0.560387
0.560387
0.560387
0.560387
0.560386
0.560386
0.560386
0.560385
0.560385
0.560385
0.560385
0.560385
0.560384
0.560384
0.560384
0.560384
0.560383
0.560383
0.560383
0.560383
0.560382
0.560382
0.560382
0.560382
0.560382
0.560381
0.560381
0.560381
0.560381
0.560381
0.560381
0.560381
0.560381
0.560381
0.560381
0.560381
0.560381
0.560381
0.560381
0.560381
0.560381
0.560381
0.560381
0.560381
0.560381
0.560381
0.560381
0.560381
0.560381
0.560381
0.560381
0.560381
0.560381
0.560381
0.560381
0.560381
0.560381
0.560381
0.560381
0.560381
0.560381
0.560381
0.560381
0.560381
0.560381
0.560381
0.560382
0.560382
0.560382
0.560382
0.560382
0.560382
0.560382
0.560382
0.560382
0.560382
0.560382
0.560382
0.560382
0.560382
0.560382
0.560382
0.560382
0.560382
0.560382
0.560382
0.560382
0.560382
0.560382
0.560382
0.560382
0.560382
0.560382
0.560382
0.560382
0.560382
0.560382
0.560382
0.560382
0.560382
0.560383
0.560383
0.560383
0.560383
0.560383
0.560383
0.560383
0.560383
0.560383
0.560383
0.560383
0.560383
0.560383
0.560383
0.560383
0.560383
0.560383
0.560383
0.560383
0.560383
0.560383
0.560383
0.560383
0.560383
0.560383
0.560383
0.560383
0.560383
0.560383
0.560383
0.560383
0.560383
0.560383
0.560383
0.560383
0.560383
0.560383
0.560383
0.560383
0.560383
0.560383
0.560383
0.560383
0.560383
0.560383
0.560383
0.560383
0.560383
0.560383
0.560383
0.560383
0.560383
0.560383
0.560383
0.560383
0.560383
0.560383
0.560383
0.560383
0.560383
0.560383
0.560383
0.560383
0.560383
0.560383
0.560383
0.560383
0.560384
0.560384
0.560384
0.560384
0.560384
0.560384
0.560384
0.560384
0.560384
0.560384
0.560384
0.560384
0.560384
0.560384
0.560384
0.560384
0.560384
0.560384
0.560384
0.560384
0.560384
0.560384
0.560384
0.560384
0.560384
0.560384
0.560384
0.560384
0.560384
0.560384
0.560384
0.560384
0.560384
0.560384
0.560384
0.560384
0.560384
0.560384
0.560384
0.560384
0.560384
0.560384
0.560384
0.560384
0.560384
0.560384
0.560384
0.560384
0.560384
0.560384
0.560384
0.560384
0.560384
0.560384
0.560384
0.560384
0.560384
0.560384
0.560384
0.560384
0.560384
0.560384
0.560384
0.560384
0.560384
0.560384
0.560384
0.560384
0.560384
0.560384
0.560385
0.560385
0.560385
0.560385
0.560385
0.560385
0.560385
0.560385
0.560385
0.560385
0.560385
0.560385
0.560385
0.560385
0.560385
0.560385
0.560385
0.560385
0.560385
0.560385
0.560385
0.560385
0.560385
0.560385
0.560385
0.560385
0.560385
0.560385
0.560385
0.560385
0.560385
0.560385
0.560385
0.560385
0.560385
0.560385
0.560385
0.560385
0.560385
0.560385
0.560385
0.560385
0.560385
0.560385
0.560385
0.560385
0.560385
0.560385
0.560385
0.560385
0.560385
0.560385
0.560385
0.560385
0.560385
0.560385
0.560385
0.560385
0.560385
0.560385
0.560385
0.560385
0.560385
0.560385
0.560385
0.560386
0.560386
0.560386
0.560386
0.560386
0.560386
0.560386
0.560386
0.560386
0.560386
0.560386
0.560386
0.560386
0.560386
0.560386
0.560386
0.560386
0.560386
0.560386
0.560386
0.560386
0.560386
0.560386
0.560386
0.560386
0.560386
0.560386
0.560386
0.560386
0.560386
0.560386
0.560386
0.560386
0.560386
0.560386
0.560386
0.560386
0.560386
0.560386
0.560386
0.560386
0.560386
0.560386
0.560386
0.560386
0.560386
0.560386
0.560386
0.560386
0.560386
0.560386
0.560386
0.560386
0.560386
0.560386
0.560386
0.560386
0.560386
0.560386
0.560387
0.560387
0.560387
0.560387
0.560387
0.560387
0.560387
0.560387
0.560387
0.560387
0.560387
0.560387
0.560387
0.560387
0.560387
0.560387
0.560387
0.560387
0.560387
0.560387
0.560387
0.560387
0.560387
0.560387
0.560387
0.560387
0.560387
0.560387
0.560387
0.560387
0.560387
0.560387
0.560387
0.560387
0.560387
0.560387
0.560387
0.560387
0.560387
0.560387
0.560387
0.560387
0.560387
0.560387
0.560387
0.560387
0.560387
0.560387
0.560387
0.560387
0.560387
0.560387
0.560387
0.560387
0.560387
0.560388
0.560388
0.560388
0.560388
0.560388
0.560388
0.560388
0.560388
0.560388
0.560388
0.560388
0.560388
0.560388
0.560388
0.560388
0.560388
0.560388
0.560388
0.560388
0.560388
0.560388
0.560388
0.560388
0.560388
0.560388
0.560388
0.560388
0.560388
0.560388
0.560388
0.560388
0.560388
0.560388
0.560388
0.560388
0.560388
0.560388
0.560388
0.560388
0.560388
0.560388
0.560388
0.560388
0.560388
0.560388
0.560388
0.560388
0.560388
0.560388
0.560388
0.560388
0.560389
0.560389
0.560389
0.560389
0.560389
0.560389
0.560389
0.560389
0.560389
0.560389
0.560389
0.560389
0.560389
0.560389
0.560389
0.560389
0.560389
0.560389
0.560389
0.560389
0.560389
0.560389
0.560389
0.560389
0.560389
0.560389
0.560389
0.560389
0.560389
0.560389
0.560389
0.560389
0.560389
0.560389
0.560389
0.560389
0.560389
0.560389
0.560389
0.560389
0.560389
0.560389
0.560389
0.560389
0.560389
0.560389
0.560389
0.560389
0.560389
0.56039
0.56039
0.56039
0.56039
0.56039
0.56039
0.56039
0.56039
0.56039
0.56039
0.56039
0.56039
0.56039
0.56039
0.56039
0.56039
0.56039
0.56039
0.56039
0.56039
0.56039
0.56039
0.56039
0.56039
0.56039
0.56039
0.56039
0.56039
0.56039
0.56039
0.56039
0.56039
0.56039
0.56039
0.56039
0.56039
0.56039
0.56039
0.56039
0.56039
0.56039
0.56039
0.56039
0.56039
0.56039
0.56039
0.560391
0.560391
0.560391
0.560391
0.560391
0.560391
0.560391
0.560391
0.560391
0.560391
0.560391
0.560391
0.560391
0.560391
0.560391
0.560391
0.560391
0.560391
0.560391
0.560391
0.560391
0.560391
0.560391
0.560391
0.560391
0.560391
0.560391
0.560391
0.560391
0.560391
0.560391
0.560391
0.560391
0.560391
0.560391
0.560391
0.560391
0.560391
0.560391
0.560391
0.560391
0.560391
0.560391
0.560391
0.560391
0.560392
0.560392
0.560392
0.560392
0.560392
0.560392
0.560392
0.560392
0.560392
0.560392
0.560392
0.560392
0.560392
0.560392
0.560392
0.560392
0.560392
0.560392
0.560392
0.560392
0.560392
0.560392
0.560392
0.560392
0.560392
0.560392
0.560392
0.560392
0.560392
0.560392
0.560392
0.560392
0.560392
0.560392
0.560392
0.560392
0.560392
0.560392
0.560392
0.560392
0.560392
0.560392
0.560392
0.560393
0.560393
0.560393
0.560393
0.560393
0.560393
0.560393
0.560393
0.560393
0.560393
0.560393
0.560393
0.560393
0.560393
0.560393
0.560393
0.560393
0.560393
0.560393
0.560393
0.560393
0.560393
0.560393
0.560393
0.560393
0.560393
0.560393
0.560393
0.560393
0.560393
0.560393
0.560393
0.560393
0.560393
0.560393
0.560393
0.560393
0.560393
0.560393
0.560393
0.560393
0.560394
0.560394
0.560394
0.560394
0.560394
0.560394
0.560394
0.560394
0.560394
0.560394
0.560394
0.560394
0.560394
0.560394
0.560394
0.560394
0.560394
0.560394
0.560394
0.560394
0.560394
0.560394
0.560394
0.560394
0.560394
0.560394
0.560394
0.560394
0.560394
0.560394
0.560394
0.560394
0.560394
0.560394
0.560394
0.560394
0.560394
0.560394
0.560394
0.560395
0.560395
0.560395
0.560395
0.560395
0.560395
0.560395
0.560395
0.560395
0.560395
0.560395
0.560395
0.560395
0.560395
0.560395
0.560395
0.560395
0.560395
0.560395
0.560395
0.560395
0.560395
0.560395
0.560395
0.560395
0.560395
0.560395
0.560395
0.560395
0.560395
0.560395
0.560395
0.560395
0.560395
0.560395
0.560395
0.560395
0.560396
0.560396
0.560396
0.560396
0.560396
0.560396
0.560396
0.560396
0.560396
0.560396
0.560396
0.560396
0.560396
0.560396
0.560396
0.560396
0.560396
0.560396
0.560396
0.560396
0.560396
0.560396
0.560396
0.560396
0.560396
0.560396
0.560396
0.560396
0.560396
0.560396
0.560396
0.560396
0.560396
0.560396
0.560396
0.560396
0.560396
0.560396
0.560397
0.560397
0.560397
0.560397
0.560397
0.560397
0.560397
0.560397
0.560397
0.560397
0.560397
0.560397
0.560397
0.560397
0.560397
0.560397
0.560397
0.560397
0.560397
0.560397
0.560397
0.560397
0.560397
0.560397
0.560397
0.560397
0.560397
0.560397
0.560397
0.560397
0.560397
0.560397
0.560397
0.560397
0.560397
0.560398
0.560398
0.560398
0.560398
0.560398
0.560398
0.560398
0.560398
0.560398
0.560398
0.560398
0.560398
0.560398
0.560398
0.560398
0.560398
0.560398
0.560398
0.560398
0.560398
0.560398
0.560398
0.560398
0.560398
0.560398
0.560398
0.560398
0.560398
0.560398
0.560398
0.560398
0.560398
0.560398
0.560398
0.560398
0.560399
0.560399
0.560399
0.560399
0.560399
0.560399
0.560399
0.560399
0.560399
0.560399
0.560399
0.560399
0.560399
0.560399
0.560399
0.560399
0.560399
0.560399
0.560399
0.560399
0.560399
0.560399
0.560399
0.560399
0.560399
0.560399
0.560399
0.560399
0.560399
0.560399
0.560399
0.560399
0.560399
0.560399
0.5604
0.5604
0.5604
0.5604
0.5604
0.5604
0.5604
0.5604
0.5604
0.5604
0.5604
0.5604
0.5604
0.5604
0.5604
0.5604
0.5604
0.5604
0.5604
0.5604
0.5604
0.5604
0.5604
0.5604
0.5604
0.5604
0.5604
0.5604
0.5604
0.5604
0.5604
0.560401
0.560401
0.560401
0.560401
0.560401
0.560401
0.560401
0.560401
0.560401
0.560401
0.560401
0.560401
0.560401
0.560401
0.560401
0.560401
0.560401
0.560401
0.560401
0.560401
0.560401
0.560401
0.560401
0.560401
0.560401
0.560401
0.560401
0.560401
0.560401
0.560401
0.560401
0.560401
0.560402
0.560402
0.560402
0.560402
0.560402
0.560402
0.560402
0.560402
0.560402
0.560402
0.560402
0.560402
0.560402
0.560402
0.560402
0.560402
0.560402
0.560402
0.560402
0.560402
0.560402
0.560402
0.560402
0.560402
0.560402
0.560402
0.560402
0.560402
0.560402
0.560402
0.560403
0.560403
0.560403
0.560403
0.560403
0.560403
0.560403
0.560403
0.560403
0.560403
0.560403
0.560403
0.560403
0.560403
0.560403
0.560403
0.560403
0.560403
0.560403
0.560403
0.560403
0.560403
0.560403
0.560403
0.560403
0.560403
0.560403
0.560403
0.560403
0.560403
0.560404
0.560404
0.560404
0.560404
0.560404
0.560404
0.560404
0.560404
0.560404
0.560404
0.560404
0.560404
0.560404
0.560404
0.560404
0.560404
0.560404
0.560404
0.560404
0.560404
0.560404
0.560404
0.560404
0.560404
0.560404
0.560404
0.560404
0.560404
0.560404
0.560404
0.560405
0.560405
0.560405
0.560405
0.560405
0.560405
0.560405
0.560405
0.560405
0.560405
0.560405
0.560405
0.560405
0.560405
0.560405
0.560405
0.560405
0.560405
0.560405
0.560405
0.560405
0.560405
0.560405
0.560405
0.560405
0.560405
0.560405
0.560405
0.560405
0.560406
0.560406
0.560406
0.560406
0.560406
0.560406
0.560406
0.560406
0.560406
0.560406
0.560406
0.560406
0.560406
0.560406
0.560406
0.560406
0.560406
0.560406
0.560406
0.560406
0.560406
0.560406
0.560406
0.560406
0.560406
0.560406
0.560406
0.560406
0.560406
0.560407
0.560407
0.560407
0.560407
0.560407
0.560407
0.560407
0.560407
0.560407
0.560407
0.560407
0.560407
0.560407
0.560407
0.560407
0.560407
0.560407
0.560407
0.560407
0.560407
0.560407
0.560407
0.560407
0.560407
0.560407
0.560407
0.560407
0.560408
0.560408
0.560408
0.560408
0.560408
0.560408
0.560408
0.560408
0.560408
0.560408
0.560408
0.560408
0.560408
0.560408
0.560408
0.560408
0.560408
0.560408
0.560408
0.560408
0.560408
0.560408
0.560408
0.560408
0.560408
0.560408
0.560408
0.560409
0.560409
0.560409
0.560409
0.560409
0.560409
0.560409
0.560409
0.560409
0.560409
0.560409
0.560409
0.560409
0.560409
0.560409
0.560409
0.560409
0.560409
0.560409
0.560409
0.560409
0.560409
0.560409
0.560409
0.560409
0.560409
0.56041
0.56041
0.56041
0.56041
0.56041
0.56041
0.56041
0.56041
0.56041
0.56041
0.56041
0.56041
0.56041
0.56041
0.56041
0.56041
0.56041
0.56041
0.56041
0.56041
0.56041
0.56041
0.56041
0.56041
0.56041
0.56041
0.560411
0.560411
0.560411
0.560411
0.560411
0.560411
0.560411
0.560411
0.560411
0.560411
0.560411
0.560411
0.560411
0.560411
0.560411
0.560411
0.560411
0.560411
0.560411
0.560411
0.560411
0.560411
0.560411
0.560411
0.560411
0.560412
0.560412
0.560412
0.560412
0.560412
0.560412
0.560412
0.560412
0.560412
0.560412
0.560412
0.560412
0.560412
0.560412
0.560412
0.560412
0.560412
0.560412
0.560412
0.560412
0.560412
0.560412
0.560412
0.560412
0.560412
0.560413
0.560413
0.560413
0.560413
0.560413
0.560413
0.560413
0.560413
0.560413
0.560413
0.560413
0.560413
0.560413
0.560413
0.560413
0.560413
0.560413
0.560413
0.560413
0.560413
0.560413
0.560413
0.560413
0.560413
0.560413
0.560414
0.560414
0.560414
0.560414
0.560414
0.560414
0.560414
0.560414
0.560414
0.560414
0.560414
0.560414
0.560414
0.560414
0.560414
0.560414
0.560414
0.560414
0.560414
0.560414
0.560414
0.560414
0.560414
0.560414
0.560415
0.560415
0.560415
0.560415
0.560415
0.560415
0.560415
0.560415
0.560415
0.560415
0.560415
0.560415
0.560415
0.560415
0.560415
0.560415
0.560415
0.560415
0.560415
0.560415
0.560415
0.560415
0.560415
0.560415
0.560416
0.560416
0.560416
0.560416
0.560416
0.560416
0.560416
0.560416
0.560416
0.560416
0.560416
0.560416
0.560416
0.560416
0.560416
0.560416
0.560416
0.560416
0.560416
0.560416
0.560416
0.560416
0.560416
0.560417
0.560417
0.560417
0.560417
0.560417
0.560417
0.560417
0.560417
0.560417
0.560417
0.560417
0.560417
0.560417
0.560417
0.560417
0.560417
0.560417
0.560417
0.560417