<?xml version="1.0"?>
<VTKFile type="UnstructuredGrid" version="0.1" byte_order="LittleEndian">
<UnstructuredGrid>
<Piece NumberOfPoints="5000" NumberOfCells="4000">
<PointData Scalars="Reaction 0">
<DataArray type="Float32" Name="Reaction 0" format="ascii">
0.361231
0.361231
0.361231
0.361231
0.361231
0.361231
0.361231
0.361231
0.361231
0.361231
0.361231
0.361232
0.361232
0.361232
0.361233
0.361233
0.361233
0.361233
0.361234
0.361234
0.361234
0.361235
0.361235
0.361236
0.361236
0.361236
0.361237
0.361238
0.361238
0.361239
0.361239
0.36124
0.361241
0.361241
0.361242
0.361242
0.361243
0.361244
0.361245
0.361246
0.361246
0.361247
0.361248
0.361249
0.36125
0.36125
0.361251
0.361252
0.361253
0.361254
0.361254
0.361255
0.361257
0.361258
0.361259
0.361259
0.36126
0.361262
0.361263
0.361265
0.361265
0.361266
0.361267
0.361269
0.36127
0.36127
0.361272
0.361274
0.361275
0.361277
0.361277
0.361279
0.36128
0.361282
0.361284
0.361284
0.361286
0.361287
0.361289
0.361291
0.361291
0.361293
0.361295
0.361297
0.361299
0.361299
0.361301
0.361303
0.361305
0.361307
0.361307
0.361309
0.361311
0.361314
0.361316
0.361316
0.361318
0.36132
0.361323
0.361325
0.361325
0.361327
0.36133
0.361332
0.361335
0.361335
0.361337
0.36134
0.361342
0.361345
0.361345
0.361348
0.36135
0.361353
0.361356
0.361356
0.361358
0.361361
0.361364
0.361367
0.361367
0.36137
0.361372
0.361375
0.361378
0.361378
0.361381
0.361384
0.361387
0.36139
0.36139
0.361393
0.361397
0.3614
0.361403
0.361403
0.361406
0.361409
0.361413
0.361416
0.361416
0.361419
0.361423
0.361426
0.361429
0.361429
0.361433
0.361436
0.36144
0.361443
0.361443
0.361447
0.361451
0.361454
0.361458
0.361458
0.361461
0.361465
0.361469
0.361473
0.361473
0.361476
0.36148
0.361484
0.361488
0.361488
0.361492
0.361496
0.3615
0.361504
0.361504
0.361508
0.361512
0.361516
0.36152
0.36152
0.361524
0.361529
0.361533
0.361537
0.361537
0.361541
0.361546
0.36155
0.361554
0.361554
0.361559
0.361563
0.361568
0.361572
0.361572
0.361577
0.361581
0.361586
0.36159
0.36159
0.361595
0.3616
0.361604
0.361609
0.361609
0.361614
0.361618
0.361623
0.361628
0.361628
0.361633
0.361638
0.361643
0.361648
0.361648
0.361653
0.361658
0.361663
0.361668
0.361668
0.361673
0.361678
0.361683
0.361688
0.361688
0.361694
0.361699
0.361704
0.361709
0.361709
0.361715
0.36172
0.361725
0.361731
0.361731
0.361736
0.361742
0.361747
0.361753
0.361753
0.361758
0.361764
0.36177
0.361775
0.361775
0.361781
0.361787
0.361793
0.361798
0.361798
0.361804
0.36181
0.361816
0.361822
0.361822
0.361828
0.361834
0.36184
0.361846
0.361846
0.361852
0.361858
0.361864
0.36187
0.36187
0.361876
0.361882
0.361889
0.361895
0.361895
0.361901
0.361907
0.361914
0.36192
0.36192
0.361926
0.361933
0.361939
0.361946
0.361946
0.361952
0.361959
0.361965
0.361972
0.361972
0.361979
0.361985
0.361992
0.361999
0.361999
0.362006
0.362012
0.362019
0.362026
0.362026
0.362033
0.36204
0.362047
0.362054
0.362054
0.362061
0.362068
0.362075
0.362082
0.362082
0.362089
0.362096
0.362103
0.36211
0.36211
0.362118
0.362125
0.362132
0.36214
0.36214
0.362147
0.362154
0.362162
0.362169
0.362169
0.362177
0.362184
0.362192
0.362199
0.362199
0.362207
0.362214
0.362222
0.36223
0.36223
0.362237
0.362245
0.362253
0.362261
0.362261
0.362268
0.362276
0.362284
0.362292
0.362292
0.3623
0.362308
0.362316
0.362324
0.362324
0.362332
0.36234
0.362348
0.362356
0.362356
0.362364
0.362373
0.362381
0.362389
0.362389
0.362397
0.362406
0.362414
0.362422
0.362422
0.362431
0.362439
0.362448
0.362456
0.362456
0.362465
0.362473
0.362482
0.362491
0.362491
0.362499
0.362508
0.362517
0.362525
0.362525
0.362534
0.362543
0.362552
0.362561
0.362561
0.362569
0.362578
0.362587
0.362596
0.362596
0.362605
0.362614
0.362623
0.362632
0.362632
0.362642
0.362651
0.36266
0.362669
0.362669
0.362678
0.362688
0.362697
0.362706
0.362706
0.362716
0.362725
0.362734
0.362744
0.362744
0.362753
0.362763
0.362772
0.362782
0.362782
0.362791
0.362801
0.362811
0.36282
0.36282
0.36283
0.36284
0.36285
0.362859
0.362859
0.362869
0.362879
0.362889
0.362899
0.362899
0.362909
0.362919
0.362929
0.362939
0.362939
0.362949
0.362959
0.362969
0.362979
0.362979
0.362989
0.363
0.36301
0.36302
0.36302
0.36303
0.363041
0.363051
0.363061
0.363061
0.363072
0.363082
0.363093
0.363103
0.363103
0.363114
0.363124
0.363135
0.363146
0.363146
0.363156
0.363167
0.363178
0.363188
0.363188
0.363199
0.36321
0.363221
0.363232
0.363232
0.363242
0.363253
0.363264
0.363275
0.363275
0.363286
0.363297
0.363308
0.363319
0.363319
0.363331
0.363342
0.363353
0.363364
0.363364
0.363375
0.363387
0.363398
0.363409
0.363409
0.363421
0.363432
0.363443
0.363455
0.363455
0.363466
0.363478
0.363489
0.363501
0.363501
0.363513
0.363524
0.363536
0.363548
0.363548
0.363559
0.363571
0.363583
0.363595
0.363595
0.363606
0.363618
0.36363
0.363642
0.363642
0.363654
0.363666
0.363678
0.36369
0.36369
0.363702
0.363714
0.363726
0.363738
0.363738
0.363751
0.363763
0.363775
0.363787
0.363787
0.3638
0.363812
0.363824
0.363837
0.363837
0.363849
0.363862
0.363874
0.363887
0.363887
0.363899
0.363912
0.363924
0.363937
0.363937
0.36395
0.363962
0.363975
0.363988
0.363988
0.364001
0.364013
0.364026
0.364039
0.364039
0.364052
0.364065
0.364078
0.364091
0.364091
0.364104
0.364117
0.36413
0.364143
0.364143
0.364156
0.364169
0.364182
0.364196
0.364196
0.364209
0.364222
0.364235
0.364249
0.364249
0.364262
0.364276
0.364289
0.364302
0.364302
0.364316
0.364329
0.364343
0.364357
0.364357
0.36437
0.364384
0.364397
0.364411
0.364411
0.364425
0.364439
0.364452
0.364466
0.364466
0.36448
0.364494
0.364508
0.364522
0.364522
0.364536
0.36455
0.364564
0.364578
0.364578
0.364592
0.364606
0.36462
0.364634
0.364634
0.364648
0.364663
0.364677
0.364691
0.364691
0.364705
0.36472
0.364734
0.364748
0.364748
0.364763
0.364777
0.364792
0.364806
0.364806
0.364821
0.364835
0.36485
0.364865
0.364865
0.364879
0.364894
0.364909
0.364923
0.364923
0.364938
0.364953
0.364968
0.364983
0.364983
0.364998
0.365013
0.365028
0.365042
0.365042
0.365058
0.365073
0.365088
0.365103
0.365103
0.365118
0.365133
0.365148
0.365163
0.365163
0.365179
0.365194
0.365209
0.365225
0.365225
0.36524
0.365255
0.365271
0.365286
0.365286
0.365302
0.365317
0.365333
0.365348
0.365348
0.365364
0.36538
0.365395
0.365411
0.365411
0.365427
0.365442
0.365458
0.365474
0.365474
0.36549
0.365506
0.365522
0.365537
0.365537
0.365553
0.365569
0.365585
0.365601
0.365601
0.365618
0.365634
0.36565
0.365666
0.365666
0.365682
0.365698
0.365715
0.365731
0.365731
0.365747
0.365764
0.36578
0.365796
0.365796
0.365813
0.365829
0.365846
0.365862
0.365862
0.365879
0.365895
0.365912
0.365928
0.365928
0.365945
0.365962
0.365979
0.365995
0.365995
0.366012
0.366029
0.366046
0.366063
0.366063
0.366079
0.366096
0.366113
0.36613
0.36613
0.366147
0.366164
0.366181
0.366199
0.366199
0.366216
0.366233
0.36625
0.366267
0.366267
0.366285
0.366302
0.366319
0.366336
0.366336
0.366354
0.366371
0.366389
0.366406
0.366406
0.366424
0.366441
0.366459
0.366476
0.366476
0.366494
0.366511
0.366529
0.366547
0.366547
0.366564
0.366582
0.3666
0.366618
0.366618
0.366636
0.366654
0.366671
0.366689
0.366689
0.366707
0.366725
0.366743
0.366761
0.366761
0.366779
0.366798
0.366816
0.366834
0.366834
0.366852
0.36687
0.366888
0.366907
0.366907
0.366925
0.366943
0.366962
0.36698
0.36698
0.366999
0.367017
0.367035
0.367054
0.367054
0.367073
0.367091
0.36711
0.367128
0.367128
0.367147
0.367166
0.367184
0.367203
0.367203
0.367222
0.367241
0.36726
0.367278
0.367278
0.367297
0.367316
0.367335
0.367354
0.367354
0.367373
0.367392
0.367411
0.36743
0.36743
0.36745
0.367469
0.367488
0.367507
0.367507
0.367526
0.367546
0.367565
0.367584
0.367584
0.367604
0.367623
0.367642
0.367662
0.367662
0.367681
0.367701
0.36772
0.36774
0.36774
0.36776
0.367779
0.367799
0.367819
0.367819
0.367838
0.367858
0.367878
0.367898
0.367898
0.367917
0.367937
0.367957
0.367977
0.367977
0.367997
0.368017
0.368037
0.368057
0.368057
0.368077
0.368097
0.368117
0.368138
0.368138
0.368158
0.368178
0.368198
0.368218
0.368218
0.368239
0.368259
0.368279
0.3683
0.3683
0.36832
0.368341
0.368361
0.368382
0.368382
0.368402
0.368423
0.368443
0.368464
0.368464
0.368485
0.368505
0.368526
0.368547
0.368547
0.368568
0.368588
0.368609
0.36863
0.36863
0.368651
0.368672
0.368693
0.368714
0.368714
0.368735
0.368756
0.368777
0.368798
0.368798
0.368819
0.36884
0.368861
0.368883
0.368883
0.368904
0.368925
0.368947
0.368968
0.368968
0.368989
0.369011
0.369032
0.369053
0.369053
0.369075
0.369096
0.369118
0.36914
0.36914
0.369161
0.369183
0.369204
0.369226
0.369226
0.369248
0.36927
0.369291
0.369313
0.369313
0.369335
0.369357
0.369379
0.369401
0.369401
0.369423
0.369445
0.369467
0.369489
0.369489
0.369511
0.369533
0.369555
0.369577
0.369577
0.369599
0.369621
0.369644
0.369666
0.369666
0.369688
0.36971
0.369733
0.369755
0.369755
0.369778
0.3698
0.369823
0.369845
0.369845
0.369868
0.36989
0.369913
0.369935
0.369935
0.369958
0.369981
0.370003
0.370026
0.370026
0.370049
0.370072
0.370095
0.370117
0.370117
0.37014
0.370163
0.370186
0.370209
0.370209
0.370232
0.370255
0.370278
0.370301
0.370301
0.370324
0.370348
0.370371
0.370394
0.370394
0.370417
0.37044
0.370464
0.370487
0.370487
0.37051
0.370534
0.370557
0.370581
0.370581
0.370604
0.370628
0.370651
0.370675
0.370675
0.370698
0.370722
0.370745
0.370769
0.370769
0.370793
0.370817
0.37084
0.370864
0.370864
0.370888
0.370912
0.370936
0.37096
0.37096
0.370984
0.371008
0.371031
0.371056
0.371056
0.37108
0.371104
0.371128
0.371152
0.371152
0.371176
0.3712
0.371225
0.371249
0.371249
0.371273
0.371297
0.371322
0.371346
0.371346
0.37137
0.371395
0.371419
0.371444
0.371444
0.371468
0.371493
0.371518
0.371542
0.371542
0.371567
0.371591
0.371616
0.371641
0.371641
0.371666
0.37169
0.371715
0.37174
0.37174
0.371765
0.37179
0.371815
0.37184
0.37184
0.371865
0.37189
0.371915
0.37194
0.37194
0.371965
0.37199
0.372015
0.37204
0.37204
0.372066
0.372091
0.372116
0.372142
0.372142
0.372167
0.372192
0.372218
0.372243
0.372243
0.372269
0.372294
0.37232
0.372345
0.372345
0.372371
0.372396
0.372422
0.372448
0.372448
0.372473
0.372499
0.372525
0.37255
0.37255
0.372576
0.372602
0.372628
0.372654
0.372654
0.37268
0.372706
0.372732
0.372758
0.372758
0.372784
0.37281
0.372836
0.372862
0.372862
0.372888
0.372914
0.372941
0.372967
0.372967
0.372993
0.37302
0.373046
0.373072
0.373072
0.373099
0.373125
0.373151
0.373178
0.373178
0.373204
0.373231
0.373258
0.373284
0.373284
0.373311
0.373337
0.373364
0.373391
0.373391
0.373418
0.373444
0.373471
0.373498
0.373498
0.373525
0.373552
0.373579
0.373606
0.373606
0.373633
0.37366
0.373687
0.373714
0.373714
0.373741
0.373768
0.373795
0.373822
0.373822
0.373849
0.373877
0.373904
0.373931
0.373931
0.373959
0.373986
0.374013
0.374041
0.374041
0.374068
0.374096
0.374123
0.374151
0.374151
0.374178
0.374206
0.374233
0.374261
0.374261
0.374289
0.374316
0.374344
0.374372
0.374372
0.3744
0.374428
0.374455
0.374483
0.374483
0.374511
0.374539
0.374567
0.374595
0.374595
0.374623
0.374651
0.374679
0.374707
0.374707
0.374736
0.374764
0.374792
0.37482
0.37482
0.374848
0.374877
0.374905
0.374933
0.374933
0.374962
0.37499
0.375019
0.375047
0.375047
0.375076
0.375104
0.375133
0.375161
0.375161
0.37519
0.375218
0.375247
0.375276
0.375276
0.375304
0.375333
0.375362
0.375391
0.375391
0.37542
0.375449
0.375477
0.375506
0.375506
0.375535
0.375564
0.375593
0.375622
0.375622
0.375651
0.375681
0.37571
0.375739
0.375739
0.375768
0.375797
0.375827
0.375856
0.375856
0.375885
0.375914
0.375944
0.375973
0.375973
0.376003
0.376032
0.376062
0.376091
0.376091
0.376121
0.37615
0.37618
0.376209
0.376209
0.376239
0.376269
0.376298
0.376328
0.376328
0.376358
0.376388
0.376418
0.376448
0.376448
0.376477
0.376507
0.376537
0.376567
0.376567
0.376597
0.376627
0.376657
0.376687
0.376687
0.376718
0.376748
0.376778
0.376808
0.376808
0.376838
0.376869
0.376899
0.376929
0.376929
0.37696
0.37699
0.37702
0.377051
0.377051
0.377081
0.377112
0.377142
0.377173
0.377173
0.377204
0.377234
0.377265
0.377295
0.377295
0.377326
0.377357
0.377388
0.377418
0.377418
0.377449
0.37748
0.377511
0.377542
0.377542
0.377573
0.377604
0.377635
0.377666
0.377666
0.377697
0.377728
0.377759
0.37779
0.37779
0.377821
0.377853
0.377884
0.377915
0.377915
0.377946
0.377978
0.378009
0.37804
0.37804
0.378072
0.378103
0.378135
0.378166
0.378166
0.378198
0.378229
0.378261
0.378292
0.378292
0.378324
0.378356
0.378387
0.378419
0.378419
0.378451
0.378483
0.378514
0.378546
0.378546
0.378578
0.37861
0.378642
0.378674
0.378674
0.378706
0.378738
0.37877
0.378802
0.378802
0.378834
0.378866
0.378898
0.378931
0.378931
0.378963
0.378995
0.379027
0.37906
0.37906
0.379092
0.379124
0.379157
0.379189
0.379189
0.379222
0.379254
0.379287
0.379319
0.379319
0.379352
0.379384
0.379417
0.37945
0.37945
0.379482
0.379515
0.379548
0.37958
0.37958
0.379613
0.379646
0.379679
0.379712
0.379712
0.379745
0.379778
0.379811
0.379844
0.379844
0.379877
0.37991
0.379943
0.379976
0.379976
0.380009
0.380042
0.380076
0.380109
0.380109
0.380142
0.380175
0.380209
0.380242
0.380242
0.380275
0.380309
0.380342
0.380376
0.380376
0.380409
0.380443
0.380476
0.38051
0.38051
0.380543
0.380577
0.380611
0.380644
0.380644
0.380678
0.380712
0.380746
0.380779
0.380779
0.380813
0.380847
0.380881
0.380915
0.380915
0.380949
0.380983
0.381017
0.381051
0.381051
0.381085
0.381119
0.381153
0.381187
0.381187
0.381222
0.381256
0.38129
0.381324
0.381324
0.381359
0.381393
0.381427
0.381462
0.381462
0.381496
0.381531
0.381565
0.3816
0.3816
0.381634
0.381669
0.381703
0.381738
0.381738
0.381773
0.381807
0.381842
0.381877
0.381877
0.381912
0.381946
0.381981
0.382016
0.382016
0.382051
0.382086
0.382121
0.382156
0.382156
0.382191
0.382226
0.382261
0.382296
0.382296
0.382331
0.382366
0.382401
0.382437
0.382437
0.382472
0.382507
0.382542
0.382578
0.382578
0.382613
0.382648
0.382684
0.382719
0.382719
0.382755
0.38279
0.382826
0.382861
0.382861
0.382897
0.382932
0.382968
0.383004
0.383004
0.383039
0.383075
0.383111
0.383147
0.383147
0.383183
0.383218
0.383254
0.38329
0.38329
0.383326
0.383362
0.383398
0.383434
0.383434
0.38347
0.383506
0.383542
0.383578
0.383578
0.383614
0.383651
0.383687
0.383723
0.383723
0.383759
0.383796
0.383832
0.383868
0.383868
0.383905
0.383941
0.383978
0.384014
0.384014
0.384051
0.384087
0.384124
0.38416
0.38416
0.384197
0.384234
0.38427
0.384307
0.384307
0.384344
0.38438
0.384417
0.384454
0.384454
0.384491
0.384528
0.384565
0.384602
0.384602
0.384639
0.384676
0.384713
0.38475
0.38475
0.384787
0.384824
0.384861
0.384898
0.384898
0.384935
0.384973
0.38501
0.385047
0.385047
0.385085
0.385122
0.385159
0.385197
0.385197
0.385234
0.385272
0.385309
0.385347
0.385347
0.385384
0.385422
0.385459
0.385497
0.385497
0.385535
0.385572
0.38561
0.385648
0.385648
0.385685
0.385723
0.385761
0.385799
0.385799
0.385837
0.385875
0.385913
0.385951
0.385951
0.385989
0.386027
0.386065
0.386103
0.386103
0.386141
0.386179
0.386217
0.386256
0.386256
0.386294
0.386332
0.38637
0.386409
0.386409
0.386447
0.386485
0.386524
0.386562
0.386562
0.386601
0.386639
0.386678
0.386716
0.386716
0.386755
0.386794
0.386832
0.386871
0.386871
0.38691
0.386948
0.386987
0.387026
0.387026
0.387065
0.387104
0.387142
0.387181
0.387181
0.38722
0.387259
0.387298
0.387337
0.387337
0.387376
0.387415
0.387454
0.387494
0.387494
0.387533
0.387572
0.387611
0.38765
0.38765
0.38769
0.387729
0.387768
0.387808
0.387808
0.387847
0.387886
0.387926
0.387965
0.387965
0.388005
0.388044
0.388084
0.388124
0.388124
0.388163
0.388203
0.388243
0.388282
0.388282
0.388322
0.388362
0.388402
0.388441
0.388441
0.388481
0.388521
0.388561
0.388601
0.388601
0.388641
0.388681
0.388721
0.388761
0.388761
0.388801
0.388841
0.388881
0.388922
0.388922
0.388962
0.389002
0.389042
0.389082
0.389082
0.389123
0.389163
0.389204
0.389244
0.389244
0.389284
0.389325
0.389365
0.389406
0.389406
0.389446
0.389487
0.389528
0.389568
0.389568
0.389609
0.389649
0.38969
0.389731
0.389731
0.389772
0.389813
0.389853
0.389894
0.389894
0.389935
0.389976
0.390017
0.390058
0.390058
0.390099
0.39014
0.390181
0.390222
0.390222
0.390263
0.390304
0.390346
0.390387
0.390387
0.390428
0.390469
0.390511
0.390552
0.390552
0.390593
0.390635
0.390676
0.390717
0.390717
0.390759
0.3908
0.390842
0.390884
0.390884
0.390925
0.390967
0.391008
0.39105
0.39105
0.391092
0.391133
0.391175
0.391217
0.391217
0.391259
0.391301
0.391343
0.391384
0.391384
0.391426
0.391468
0.39151
0.391552
0.391552
0.391594
0.391636
0.391678
0.391721
0.391721
0.391763
0.391805
0.391847
0.391889
0.391889
0.391932
0.391974
0.392016
0.392059
0.392059
0.392101
0.392143
0.392186
0.392228
0.392228
0.392271
0.392313
0.392356
0.392399
0.392399
0.392441
0.392484
0.392526
0.392569
0.392569
0.392612
0.392655
0.392697
0.39274
0.39274
0.392783
0.392826
0.392869
0.392912
0.392912
0.392955
0.392998
0.393041
0.393084
0.393084
0.393127
0.39317
0.393213
0.393256
0.393256
0.393299
0.393343
0.393386
0.393429
0.393429
0.393473
0.393516
0.393559
0.393603
0.393603
0.393646
0.393689
0.393733
0.393776
0.393776
0.39382
0.393864
0.393907
0.393951
0.393951
0.393994
0.394038
0.394082
0.394126
0.394126
0.394169
0.394213
0.394257
0.394301
0.394301
0.394345
0.394389
0.394433
0.394476
0.394476
0.39452
0.394564
0.394609
0.394653
0.394653
0.394697
0.394741
0.394785
0.394829
0.394829
0.394873
0.394918
0.394962
0.395006
0.395006
0.395051
0.395095
0.395139
0.395184
0.395184
0.395228
0.395273
0.395317
0.395362
0.395362
0.395406
0.395451
0.395496
0.39554
0.39554
0.395585
0.39563
0.395674
0.395719
0.395719
0.395764
0.395809
0.395854
0.395898
0.395898
0.395943
0.395988
0.396033
0.396078
0.396078
0.396123
0.396168
0.396213
0.396259
0.396259
0.396304
0.396349
0.396394
0.396439
0.396439
0.396485
0.39653
0.396575
0.39662
0.39662
0.396666
0.396711
0.396757
0.396802
0.396802
0.396848
0.396893
0.396939
0.396984
0.396984
0.39703
0.397075
0.397121
0.397167
0.397167
0.397213
0.397258
0.397304
0.39735
0.39735
0.397396
0.397442
0.397487
0.397533
0.397533
0.397579
0.397625
0.397671
0.397717
0.397717
0.397763
0.397809
0.397856
0.397902
0.397902
0.397948
0.397994
0.39804
0.398087
0.398087
0.398133
0.398179
0.398225
0.398272
0.398272
0.398318
0.398365
0.398411
0.398458
0.398458
0.398504
0.398551
0.398597
0.398644
0.398644
0.39869
0.398737
0.398784
0.398831
0.398831
0.398877
0.398924
0.398971
0.399018
0.399018
0.399065
0.399111
0.399158
0.399205
0.399205
0.399252
0.399299
0.399346
0.399393
0.399393
0.39944
0.399488
0.399535
0.399582
0.399582
0.399629
0.399676
0.399724
0.399771
0.399771
0.399818
0.399865
0.399913
0.39996
0.39996
0.400008
0.400055
0.400103
0.40015
0.40015
0.400198
0.400245
0.400293
0.400341
0.400341
0.400388
0.400436
0.400484
0.400531
0.400531
0.400579
0.400627
0.400675
0.400723
0.400723
0.40077
0.400818
0.400866
0.400914
0.400914
0.400962
0.40101
0.401058
0.401106
0.401106
0.401155
0.401203
0.401251
0.401299
0.401299
0.401347
0.401396
0.401444
0.401492
0.401492
0.401541
0.401589
0.401637
0.401686
0.401686
0.401734
0.401783
0.401831
0.40188
0.40188
0.401928
0.401977
0.402026
0.402074
0.402074
0.402123
0.402172
0.40222
0.402269
0.402269
0.402318
0.402367
0.402416
0.402465
0.402465
0.402513
0.402562
0.402611
0.40266
0.40266
0.402709
0.402758
0.402808
0.402857
0.402857
0.402906
0.402955
0.403004
0.403053
0.403053
0.403103
0.403152
0.403201
0.403251
0.403251
0.4033
0.403349
0.403399
0.403448
0.403448
0.403498
0.403547
0.403597
0.403646
0.403646
0.403696
0.403746
0.403795
0.403845
0.403845
0.403895
0.403944
0.403994
0.404044
0.404044
0.404094
0.404144
0.404194
0.404243
0.404243
0.404293
0.404343
0.404393
0.404443
0.404443
0.404493
0.404544
0.404594
0.404644
0.404644
0.404694
0.404744
0.404794
0.404845
0.404845
0.404895
0.404945
0.404996
0.405046
0.405046
0.405096
0.405147
0.405197
0.405248
0.405248
0.405298
0.405349
0.405399
0.40545
0.40545
0.405501
0.405551
0.405602
0.405653
0.405653
0.405703
0.405754
0.405805
0.405856
0.405856
0.405907
0.405958
0.406008
0.406059
0.406059
0.40611
0.406161
0.406212
0.406263
0.406263
0.406314
0.406366
0.406417
0.406468
0.406468
0.406519
0.40657
0.406622
0.406673
0.406673
0.406724
0.406776
0.406827
0.406878
0.406878
0.40693
0.406981
0.407033
0.407084
0.407084
0.407136
0.407187
0.407239
0.40729
0.40729
0.407342
0.407394
0.407446
0.407497
0.407497
0.407549
0.407601
0.407653
0.407704
0.407704
0.407756
0.407808
0.40786
0.407912
0.407912
0.407964
0.408016
0.408068
0.40812
0.40812
0.408172
0.408225
0.408277
0.408329
0.408329
0.408381
0.408433
0.408486
0.408538
0.408538
0.40859
0.408643
0.408695
0.408748
0.408748
0.4088
0.408852
0.408905
0.408957
0.408957
0.40901
0.409063
0.409115
0.409168
0.409168
0.409221
0.409273
0.409326
0.409379
0.409379
0.409432
0.409484
0.409537
0.40959
0.40959
0.409643
0.409696
0.409749
0.409802
0.409802
0.409855
0.409908
0.409961
0.410014
0.410014
0.410067
0.41012
0.410174
0.410227
0.410227
0.41028
0.410333
0.410387
0.41044
0.41044
0.410493
0.410547
0.4106
0.410654
0.410654
0.410707
0.410761
0.410814
0.410868
0.410868
0.410921
0.410975
0.411029
0.411082
0.411082
0.411136
0.41119
0.411243
0.411297
0.411297
0.411351
0.411405
0.411459
0.411513
0.411513
0.411567
0.411621
0.411675
0.411729
0.411729
0.411783
0.411837
0.411891
0.411945
0.411945
0.411999
0.412053
0.412107
0.412162
0.412162
0.412216
0.41227
0.412325
0.412379
0.412379
0.412433
0.412488
0.412542
0.412597
0.412597
0.412651
0.412706
0.41276
0.412815
0.412815
0.412869
0.412924
0.412979
0.413033
0.413033
0.413088
0.413143
0.413198
0.413252
0.413252
0.413307
0.413362
0.413417
0.413472
0.413472
0.413527
0.413582
0.413637
0.413692
0.413692
0.413747
0.413802
0.413857
0.413912
0.413912
0.413968
0.414023
0.414078
0.414133
0.414133
0.414189
0.414244
0.414299
0.414355
0.414355
0.41441
0.414465
0.414521
0.414576
0.414576
0.414632
0.414687
0.414743
0.414799
0.414799
0.414854
0.41491
0.414966
0.415021
0.415021
0.415077
0.415133
0.415189
0.415245
0.415245
0.4153
0.415356
0.415412
0.415468
0.415468
0.415524
0.41558
0.415636
0.415692
0.415692
0.415748
0.415804
0.415861
0.415917
0.415917
0.415973
0.416029
0.416085
0.416142
0.416142
0.416198
0.416254
0.416311
0.416367
0.416367
0.416424
0.41648
0.416537
0.416593
0.416593
0.41665
0.416706
0.416763
0.416819
0.416819
0.416876
0.416933
0.416989
0.417046
0.417046
0.417103
0.41716
0.417217
0.417273
0.417273
0.41733
0.417387
0.417444
0.417501
0.417501
0.417558
0.417615
0.417672
0.417729
0.417729
0.417786
0.417843
0.417901
0.417958
0.417958
0.418015
0.418072
0.41813
0.418187
0.418187
0.418244
0.418302
0.418359
0.418416
0.418416
0.418474
0.418531
0.418589
0.418646
0.418646
0.418704
0.418762
0.418819
0.418877
0.418877
0.418934
0.418992
0.41905
0.419108
0.419108
0.419165
0.419223
0.419281
0.419339
0.419339
0.419397
0.419455
0.419513
0.419571
0.419571
0.419629
0.419687
0.419745
0.419803
0.419803
0.419861
0.419919
0.419978
0.420036
0.420036
0.420094
0.420152
0.420211
0.420269
0.420269
0.420327
0.420386
0.420444
0.420502
0.420502
0.420561
0.420619
0.420678
0.420737
0.420737
0.420795
0.420854
0.420912
0.420971
0.420971
0.42103
0.421088
0.421147
0.421206
0.421206
0.421265
0.421324
0.421383
0.421441
0.421441
0.4215
0.421559
0.421618
0.421677
0.421677
0.421736
0.421795
0.421854
0.421914
0.421914
0.421973
0.422032
0.422091
0.42215
0.42215
0.42221
0.422269
0.422328
0.422388
0.422388
0.422447
0.422506
0.422566
0.422625
0.422625
0.422685
0.422744
0.422804
0.422863
0.422863
0.422923
0.422983
0.423042
0.423102
0.423102
0.423162
0.423221
0.423281
0.423341
0.423341
0.423401
0.423461
0.423521
0.423581
0.423581
0.42364
0.4237
0.42376
0.42382
0.42382
0.423881
0.423941
0.424001
0.424061
0.424061
0.424121
0.424181
0.424241
0.424302
0.424302
0.424362
0.424422
0.424483
0.424543
0.424543
0.424603
0.424664
0.424724
0.424785
0.424785
0.424845
0.424906
0.424966
0.425027
0.425027
0.425088
0.425148
0.425209
0.42527
0.42527
0.42533
0.425391
0.425452
0.425513
0.425513
0.425574
0.425634
0.425695
0.425756
0.425756
0.425817
0.425878
0.425939
0.426
0.426
0.426061
0.426123
0.426184
0.426245
0.426245
0.426306
0.426367
0.426428
0.42649
0.42649
0.426551
0.426612
0.426674
0.426735
0.426735
0.426797
0.426858
0.426919
0.426981
0.426981
0.427043
0.427104
0.427166
0.427227
0.427227
0.427289
0.427351
0.427412
0.427474
0.427474
0.427536
0.427598
0.427659
0.427721
0.427721
0.427783
0.427845
0.427907
0.427969
0.427969
0.428031
0.428093
0.428155
0.428217
0.428217
0.428279
0.428341
0.428403
0.428466
0.428466
0.428528
0.42859
0.428652
0.428715
0.428715
0.428777
0.428839
0.428902
0.428964
0.428964
0.429026
0.429089
0.429151
0.429214
0.429214
0.429276
0.429339
0.429402
0.429464
0.429464
0.429527
0.42959
0.429652
0.429715
0.429715
0.429778
0.429841
0.429903
0.429966
0.429966
0.430029
0.430092
0.430155
0.430218
0.430218
0.430281
0.430344
0.430407
0.43047
0.43047
0.430533
0.430596
0.43066
0.430723
0.430723
0.430786
0.430849
0.430913
0.430976
0.430976
0.431039
0.431103
0.431166
0.431229
0.431229
0.431293
0.431356
0.43142
0.431483
0.431483
0.431547
0.431611
0.431674
0.431738
0.431738
0.431802
0.431865
0.431929
0.431993
0.431993
0.432057
0.43212
0.432184
0.432248
0.432248
0.432312
0.432376
0.43244
0.432504
0.432504
0.432568
0.432632
0.432696
0.43276
0.43276
0.432824
0.432888
0.432953
0.433017
0.433017
0.433081
0.433145
0.43321
0.433274
0.433274
0.433338
0.433403
0.433467
0.433532
0.433532
0.433596
0.433661
0.433725
0.43379
0.43379
0.433854
0.433919
0.433984
0.434048
0.434048
0.434113
0.434178
0.434242
0.434307
0.434307
0.434372
0.434437
0.434502
0.434567
0.434567
0.434632
0.434697
0.434762
0.434827
0.434827
0.434892
0.434957
0.435022
0.435087
0.435087
0.435152
0.435217
0.435282
0.435348
0.435348
0.435413
0.435478
0.435544
0.435609
0.435609
0.435674
0.43574
0.435805
0.435871
0.435871
0.435936
0.436002
0.436067
0.436133
0.436133
0.436198
0.436264
0.43633
0.436395
0.436395
0.436461
0.436527
0.436593
0.436658
0.436658
0.436724
0.43679
0.436856
0.436922
0.436922
0.436988
0.437054
0.43712
0.437186
0.437186
0.437252
0.437318
0.437384
0.43745
0.43745
0.437516
0.437583
0.437649
0.437715
0.437715
0.437781
0.437848
0.437914
0.43798
0.43798
0.438047
0.438113
0.43818
0.438246
0.438246
0.438313
0.438379
0.438446
0.438512
0.438512
0.438579
0.438646
0.438712
0.438779
0.438779
0.438846
0.438912
0.438979
0.439046
0.439046
0.439113
0.43918
0.439247
0.439314
0.439314
0.439381
0.439448
0.439515
0.439582
0.439582
0.439649
0.439716
0.439783
0.43985
0.43985
0.439917
0.439985
0.440052
0.440119
0.440119
0.440186
0.440254
0.440321
0.440388
0.440388
0.440456
0.440523
0.440591
0.440658
0.440658
0.440726
0.440793
0.440861
0.440929
0.440929
0.440996
0.441064
0.441132
0.441199
0.441199
0.441267
0.441335
0.441403
0.441471
0.441471
0.441538
0.441606
0.441674
0.441742
0.441742
0.44181
0.441878
0.441946
0.442014
0.442014
0.442082
0.442151
0.442219
0.442287
0.442287
0.442355
0.442423
0.442492
0.44256
0.44256
0.442628
0.442697
0.442765
0.442833
0.442833
0.442902
0.44297
0.443039
0.443107
0.443107
0.443176
0.443244
0.443313
0.443382
0.443382
0.44345
0.443519
0.443588
0.443656
0.443656
0.443725
0.443794
0.443863
0.443932
0.443932
0.444001
0.44407
0.444138
0.444207
0.444207
0.444276
0.444345
0.444415
0.444484
0.444484
0.444553
0.444622
0.444691
0.44476
0.44476
0.444829
0.444899
0.444968
0.445037
0.445037
0.445107
0.445176
0.445245
0.445315
0.445315
0.445384
0.445454
0.445523
0.445593
0.445593
0.445662
0.445732
0.445802
0.445871
0.445871
0.445941
0.446011
0.44608
0.44615
0.44615
0.44622
0.44629
0.44636
0.44643
0.44643
0.4465
0.446569
0.446639
0.446709
0.446709
0.446779
0.446849
0.44692
0.44699
0.44699
0.44706
0.44713
0.4472
0.44727
0.44727
0.447341
0.447411
0.447481
0.447552
0.447552
0.447622
0.447692
0.447763
0.447833
0.447833
0.447904
0.447974
0.448045
0.448115
0.448115
0.448186
0.448256
0.448327
0.448398
0.448398
0.448468
0.448539
0.44861
0.448681
0.448681
0.448752
0.448822
0.448893
0.448964
0.448964
0.449035
0.449106
0.449177
0.449248
0.449248
0.449319
0.44939
0.449461
0.449532
0.449532
0.449604
0.449675
0.449746
0.449817
0.449817
0.449889
0.44996
0.450031
0.450103
0.450103
0.450174
0.450245
0.450317
0.450388
0.450388
0.45046
0.450531
0.450603
0.450674
0.450674
0.450746
0.450818
0.450889
0.450961
0.450961
0.451033
0.451104
0.451176
0.451248
0.451248
0.45132
0.451392
0.451464
0.451536
0.451536
0.451608
0.45168
0.451752
0.451824
0.451824
0.451896
0.451968
0.45204
0.452112
0.452112
0.452184
0.452256
0.452329
0.452401
0.452401
0.452473
0.452545
0.452618
0.45269
0.45269
0.452763
0.452835
0.452908
0.45298
0.45298
0.453053
0.453125
0.453198
0.45327
0.45327
0.453343
0.453416
0.453488
0.453561
0.453561
0.453634
0.453706
0.453779
0.453852
0.453852
0.453925
0.453998
0.454071
0.454144
0.454144
0.454217
0.45429
0.454363
0.454436
0.454436
0.454509
0.454582
0.454655
0.454728
0.454728
0.454802
0.454875
0.454948
0.455021
0.455021
0.455095
0.455168
0.455241
0.455315
0.455315
0.455388
0.455462
0.455535
0.455609
0.455609
0.455682
0.455756
0.455829
0.455903
0.455903
0.455977
0.45605
0.456124
0.456198
0.456198
0.456272
0.456345
0.456419
0.456493
0.456493
0.456567
0.456641
0.456715
0.456789
0.456789
0.456863
0.456937
0.457011
0.457085
0.457085
0.457159
0.457233
0.457307
0.457381
0.457381
0.457456
0.45753
0.457604
0.457679
0.457679
0.457753
0.457827
0.457902
0.457976
0.457976
0.458051
0.458125
0.4582
0.458274
0.458274
0.458349
0.458423
0.458498
0.458573
0.458573
0.458647
0.458722
0.458797
0.458871
0.458871
0.458946
0.459021
0.459096
0.459171
0.459171
0.459246
0.459321
0.459396
0.459471
0.459471
0.459546
0.459621
0.459696
0.459771
0.459771
0.459846
0.459921
0.459996
0.460072
0.460072
0.460147
0.460222
0.460297
0.460373
0.460373
0.460448
0.460523
0.460599
0.460674
0.460674
0.46075
0.460825
0.460901
0.460976
0.460976
0.461052
0.461128
0.461203
0.461279
0.461279
0.461355
0.46143
0.461506
0.461582
0.461582
0.461658
0.461734
0.461809
0.461885
0.461885
0.461961
0.462037
0.462113
0.462189
0.462189
0.462265
0.462341
0.462418
0.462494
0.462494
0.46257
0.462646
0.462722
0.462798
0.462798
0.462875
0.462951
0.463027
0.463104
0.463104
0.46318
0.463257
0.463333
0.46341
0.46341
0.463486
0.463563
0.463639
0.463716
0.463716
0.463792
0.463869
0.463946
0.464022
0.464022
0.464099
0.464176
0.464253
0.464329
0.464329
0.464406
0.464483
0.46456
0.464637
0.464637
0.464714
0.464791
0.464868
0.464945
0.464945
0.465022
0.465099
0.465176
0.465254
0.465254
0.465331
0.465408
0.465485