<?xml version="1.0"?>
<VTKFile type="UnstructuredGrid" version="0.1" byte_order="LittleEndian">
<UnstructuredGrid>
<Piece NumberOfPoints="5000" NumberOfCells="4000">
<PointData Scalars="Reaction 0">
<DataArray type="Float32" Name="Reaction 0" format="ascii">
0.100722
0.100722
0.100722
0.100722
0.100722
0.100722
0.100722
0.100722
0.100722
0.100722
0.100722
0.100722
0.100722
0.100722
0.100722
0.100722
0.100722
0.100722
0.100722
0.100722
0.100722
0.100722
0.100722
0.100722
0.100722
0.100722
0.100723
0.100723
0.100723
0.100723
0.100723
0.100723
0.100723
0.100723
0.100723
0.100723
0.100723
0.100723
0.100724
0.100724
0.100724
0.100724
0.100724
0.100724
0.100724
0.100724
0.100724
0.100724
0.100725
0.100725
0.100725
0.100725
0.100725
0.100725
0.100725
0.100725
0.100726
0.100726
0.100726
0.100726
0.100726
0.100726
0.100726
0.100727
0.100727
0.100727
0.100727
0.100727
0.100727
0.100728
0.100728
0.100728
0.100728
0.100728
0.100729
0.100729
0.100729
0.100729
0.100729
0.10073
0.10073
0.10073
0.10073
0.10073
0.100731
0.100731
0.100731
0.100731
0.100731
0.100732
0.100732
0.100732
0.100732
0.100732
0.100733
0.100733
0.100733
0.100733
0.100734
0.100734
0.100734
0.100734
0.100735
0.100735
0.100735
0.100735
0.100736
0.100736
0.100736
0.100737
0.100737
0.100737
0.100737
0.100738
0.100738
0.100738
0.100738
0.100739
0.100739
0.100739
0.100739
0.10074
0.10074
0.100741
0.100741
0.100741
0.100741
0.100742
0.100742
0.100742
0.100742
0.100743
0.100743
0.100744
0.100744
0.100744
0.100745
0.100745
0.100745
0.100746
0.100746
0.100746
0.100747
0.100747
0.100748
0.100748
0.100748
0.100748
0.100749
0.100749
0.100749
0.10075
0.10075
0.100751
0.100751
0.100751
0.100752
0.100752
0.100753
0.100753
0.100753
0.100754
0.100754
0.100755
0.100755
0.100755
0.100756
0.100756
0.100757
0.100757
0.100757
0.100758
0.100758
0.100759
0.100759
0.100759
0.10076
0.100761
0.100761
0.100762
0.100762
0.100762
0.100763
0.100763
0.100764
0.100764
0.100765
0.100765
0.100766
0.100766
0.100766
0.100767
0.100767
0.100768
0.100769
0.100769
0.100769
0.10077
0.100771
0.100771
0.100771
0.100772
0.100772
0.100773
0.100774
0.100774
0.100774
0.100775
0.100776
0.100776
0.100776
0.100777
0.100778
0.100778
0.100779
0.100779
0.10078
0.10078
0.100781
0.100782
0.100782
0.100782
0.100783
0.100784
0.100784
0.100784
0.100785
0.100786
0.100787
0.100787
0.100787
0.100788
0.100789
0.100789
0.10079
0.10079
0.100791
0.100792
0.100792
0.100793
0.100793
0.100794
0.100795
0.100795
0.100796
0.100796
0.100797
0.100798
0.100799
0.100799
0.100799
0.1008
0.100801
0.100802
0.100803
0.100803
0.100803
0.100804
0.100805
0.100806
0.100806
0.100807
0.100807
0.100808
0.100809
0.100809
0.10081
0.100811
0.100812
0.100812
0.100812
0.100813
0.100814
0.100815
0.100816
0.100816
0.100817
0.100818
0.100818
0.100819
0.100819
0.10082
0.100821
0.100822
0.100823
0.100823
0.100824
0.100825
0.100826
0.100827
0.100827
0.100828
0.100828
0.100829
0.10083
0.10083
0.100831
0.100832
0.100833
0.100834
0.100834
0.100835
0.100836
0.100837
0.100838
0.100838
0.100839
0.10084
0.100841
0.100842
0.100842
0.100843
0.100844
0.100845
0.100846
0.100846
0.100847
0.100848
0.100849
0.10085
0.10085
0.100851
0.100852
0.100853
0.100854
0.100854
0.100855
0.100856
0.100857
0.100858
0.100858
0.100859
0.10086
0.100861
0.100862
0.100862
0.100864
0.100865
0.100866
0.100867
0.100867
0.100868
0.100869
0.10087
0.100871
0.100871
0.100872
0.100873
0.100874
0.100876
0.100876
0.100877
0.100878
0.100879
0.10088
0.10088
0.100881
0.100882
0.100884
0.100885
0.100885
0.100886
0.100887
0.100888
0.100889
0.100889
0.100891
0.100892
0.100893
0.100894
0.100894
0.100895
0.100897
0.100898
0.100899
0.100899
0.1009
0.100901
0.100903
0.100904
0.100904
0.100905
0.100906
0.100908
0.100909
0.100909
0.10091
0.100911
0.100913
0.100914
0.100914
0.100915
0.100916
0.100918
0.100919
0.100919
0.10092
0.100922
0.100923
0.100924
0.100924
0.100925
0.100927
0.100928
0.100929
0.100929
0.100931
0.100932
0.100933
0.100935
0.100935
0.100936
0.100937
0.100939
0.10094
0.10094
0.100942
0.100943
0.100944
0.100946
0.100946
0.100947
0.100948
0.10095
0.100951
0.100951
0.100953
0.100954
0.100955
0.100957
0.100957
0.100958
0.10096
0.100961
0.100962
0.100962
0.100964
0.100965
0.100967
0.100968
0.100968
0.10097
0.100971
0.100973
0.100974
0.100974
0.100976
0.100977
0.100979
0.10098
0.10098
0.100981
0.100983
0.100984
0.100986
0.100986
0.100988
0.100989
0.100991
0.100992
0.100992
0.100994
0.100995
0.100997
0.100998
0.100998
0.101
0.101001
0.101003
0.101004
0.101004
0.101006
0.101008
0.101009
0.101011
0.101011
0.101012
0.101014
0.101016
0.101017
0.101017
0.101019
0.10102
0.101022
0.101024
0.101024
0.101025
0.101027
0.101028
0.10103
0.10103
0.101032
0.101033
0.101035
0.101037
0.101037
0.101038
0.10104
0.101042
0.101043
0.101043
0.101045
0.101047
0.101048
0.10105
0.10105
0.101052
0.101054
0.101055
0.101057
0.101057
0.101059
0.10106
0.101062
0.101064
0.101064
0.101066
0.101067
0.101069
0.101071
0.101071
0.101073
0.101075
0.101076
0.101078
0.101078
0.10108
0.101082
0.101083
0.101085
0.101085
0.101087
0.101089
0.101091
0.101093
0.101093
0.101094
0.101096
0.101098
0.1011
0.1011
0.101102
0.101104
0.101105
0.101107
0.101107
0.101109
0.101111
0.101113
0.101115
0.101115
0.101117
0.101119
0.10112
0.101122
0.101122
0.101124
0.101126
0.101128
0.10113
0.10113
0.101132
0.101134
0.101136
0.101138
0.101138
0.10114
0.101142
0.101144
0.101146
0.101146
0.101148
0.10115
0.101152
0.101154
0.101154
0.101156
0.101158
0.10116
0.101162
0.101162
0.101164
0.101166
0.101168
0.10117
0.10117
0.101172
0.101174
0.101176
0.101178
0.101178
0.10118
0.101182
0.101184
0.101186
0.101186
0.101188
0.10119
0.101192
0.101194
0.101194
0.101197
0.101199
0.101201
0.101203
0.101203
0.101205
0.101207
0.101209
0.101211
0.101211
0.101214
0.101216
0.101218
0.10122
0.10122
0.101222
0.101224
0.101227
0.101229
0.101229
0.101231
0.101233
0.101235
0.101238
0.101238
0.10124
0.101242
0.101244
0.101246
0.101246
0.101249
0.101251
0.101253
0.101255
0.101255
0.101258
0.10126
0.101262
0.101264
0.101264
0.101267
0.101269
0.101271
0.101274
0.101274
0.101276
0.101278
0.101281
0.101283
0.101283
0.101285
0.101288
0.10129
0.101292
0.101292
0.101295
0.101297
0.101299
0.101302
0.101302
0.101304
0.101306
0.101309
0.101311
0.101311
0.101314
0.101316
0.101318
0.101321
0.101321
0.101323
0.101326
0.101328
0.10133
0.10133
0.101333
0.101335
0.101338
0.10134
0.10134
0.101343
0.101345
0.101348
0.10135
0.10135
0.101353
0.101355
0.101358
0.10136
0.10136
0.101363
0.101365
0.101368
0.10137
0.10137
0.101373
0.101375
0.101378
0.10138
0.10138
0.101383
0.101386
0.101388
0.101391
0.101391
0.101393
0.101396
0.101399
0.101401
0.101401
0.101404
0.101406
0.101409
0.101412
0.101412
0.101414
0.101417
0.10142
0.101422
0.101422
0.101425
0.101428
0.10143
0.101433
0.101433
0.101436
0.101438
0.101441
0.101444
0.101444
0.101446
0.101449
0.101452
0.101455
0.101455
0.101457
0.10146
0.101463
0.101466
0.101466
0.101468
0.101471
0.101474
0.101477
0.101477
0.101479
0.101482
0.101485
0.101488
0.101488
0.101491
0.101493
0.101496
0.101499
0.101499
0.101502
0.101505
0.101508
0.10151
0.10151
0.101513
0.101516
0.101519
0.101522
0.101522
0.101525
0.101528
0.101531
0.101534
0.101534
0.101536
0.101539
0.101542
0.101545
0.101545
0.101548
0.101551
0.101554
0.101557
0.101557
0.10156
0.101563
0.101566
0.101569
0.101569
0.101572
0.101575
0.101578
0.101581
0.101581
0.101584
0.101587
0.10159
0.101593
0.101593
0.101596
0.101599
0.101602
0.101605
0.101605
0.101608
0.101612
0.101615
0.101618
0.101618
0.101621
0.101624
0.101627
0.10163
0.10163
0.101633
0.101636
0.10164
0.101643
0.101643
0.101646
0.101649
0.101652
0.101655
0.101655
0.101659
0.101662
0.101665
0.101668
0.101668
0.101671
0.101675
0.101678
0.101681
0.101681
0.101684
0.101688
0.101691
0.101694
0.101694
0.101697
0.101701
0.101704
0.101707
0.101707
0.101711
0.101714
0.101717
0.10172
0.10172
0.101724
0.101727
0.10173
0.101734
0.101734
0.101737
0.101741
0.101744
0.101747
0.101747
0.101751
0.101754
0.101757
0.101761
0.101761
0.101764
0.101768
0.101771
0.101775
0.101775
0.101778
0.101781
0.101785
0.101788
0.101788
0.101792
0.101795
0.101799
0.101802
0.101802
0.101806
0.101809
0.101813
0.101816
0.101816
0.10182
0.101823
0.101827
0.101831
0.101831
0.101834
0.101838
0.101841
0.101845
0.101845
0.101848
0.101852
0.101856
0.101859
0.101859
0.101863
0.101866
0.10187
0.101874
0.101874
0.101877
0.101881
0.101885
0.101888
0.101888
0.101892
0.101896
0.101899
0.101903
0.101903
0.101907
0.101911
0.101914
0.101918
0.101918
0.101922
0.101926
0.101929
0.101933
0.101933
0.101937
0.101941
0.101944
0.101948
0.101948
0.101952
0.101956
0.10196
0.101963
0.101963
0.101967
0.101971
0.101975
0.101979
0.101979
0.101983
0.101987
0.10199
0.101994
0.101994
0.101998
0.102002
0.102006
0.10201
0.10201
0.102014
0.102018
0.102022
0.102026
0.102026
0.10203
0.102034
0.102038
0.102042
0.102042
0.102046
0.10205
0.102054
0.102058
0.102058
0.102062
0.102066
0.10207
0.102074
0.102074
0.102078
0.102082
0.102086
0.10209
0.10209
0.102094
0.102098
0.102103
0.102107
0.102107
0.102111
0.102115
0.102119
0.102123
0.102123
0.102127
0.102132
0.102136
0.10214
0.10214
0.102144
0.102148
0.102152
0.102157
0.102157
0.102161
0.102165
0.102169
0.102174
0.102174
0.102178
0.102182
0.102186
0.102191
0.102191
0.102195
0.102199
0.102204
0.102208
0.102208
0.102212
0.102217
0.102221
0.102225
0.102225
0.10223
0.102234
0.102238
0.102243
0.102243
0.102247
0.102252
0.102256
0.102261
0.102261
0.102265
0.102269
0.102274
0.102278
0.102278
0.102283
0.102287
0.102292
0.102296
0.102296
0.102301
0.102305
0.10231
0.102314
0.102314
0.102319
0.102323
0.102328
0.102333
0.102333
0.102337
0.102342
0.102346
0.102351
0.102351
0.102355
0.10236
0.102365
0.102369
0.102369
0.102374
0.102379
0.102383
0.102388
0.102388
0.102393
0.102397
0.102402
0.102407
0.102407
0.102412
0.102416
0.102421
0.102426
0.102426
0.102431
0.102435
0.10244
0.102445
0.102445
0.10245
0.102454
0.102459
0.102464
0.102464
0.102469
0.102474
0.102479
0.102483
0.102483
0.102488
0.102493
0.102498
0.102503
0.102503
0.102508
0.102513
0.102518
0.102523
0.102523
0.102528
0.102533
0.102538
0.102543
0.102543
0.102547
0.102552
0.102557
0.102562
0.102562
0.102568
0.102573
0.102578
0.102583
0.102583
0.102588
0.102593
0.102598
0.102603
0.102603
0.102608
0.102613
0.102618
0.102623
0.102623
0.102629
0.102634
0.102639
0.102644
0.102644
0.102649
0.102654
0.10266
0.102665
0.102665
0.10267
0.102675
0.10268
0.102686
0.102686
0.102691
0.102696
0.102701
0.102707
0.102707
0.102712
0.102717
0.102723
0.102728
0.102728
0.102733
0.102739
0.102744
0.102749
0.102749
0.102755
0.10276
0.102766
0.102771
0.102771
0.102776
0.102782
0.102787
0.102793
0.102793
0.102798
0.102804
0.102809
0.102815
0.102815
0.10282
0.102826
0.102831
0.102837
0.102837
0.102842
0.102848
0.102853
0.102859
0.102859
0.102864
0.10287
0.102876
0.102881
0.102881
0.102887
0.102892
0.102898
0.102904
0.102904
0.102909
0.102915
0.102921
0.102926
0.102926
0.102932
0.102938
0.102944
0.102949
0.102949
0.102955
0.102961
0.102967
0.102972
0.102972
0.102978
0.102984
0.10299
0.102996
0.102996
0.103001
0.103007
0.103013
0.103019
0.103019
0.103025
0.103031
0.103037
0.103043
0.103043
0.103049
0.103054
0.10306
0.103066
0.103066
0.103072
0.103078
0.103084
0.10309
0.10309
0.103096
0.103102
0.103108
0.103114
0.103114
0.10312
0.103127
0.103133
0.103139
0.103139
0.103145
0.103151
0.103157
0.103163
0.103163
0.103169
0.103175
0.103182
0.103188
0.103188
0.103194
0.1032
0.103206
0.103213
0.103213
0.103219
0.103225
0.103231
0.103238
0.103238
0.103244
0.10325
0.103256
0.103263
0.103263
0.103269
0.103275
0.103282
0.103288
0.103288
0.103295
0.103301
0.103307
0.103314
0.103314
0.10332
0.103327
0.103333
0.103339
0.103339
0.103346
0.103352
0.103359
0.103365
0.103365
0.103372
0.103378
0.103385
0.103391
0.103391
0.103398
0.103405
0.103411
0.103418
0.103418
0.103424
0.103431
0.103438
0.103444
0.103444
0.103451
0.103458
0.103464
0.103471
0.103471
0.103478
0.103484
0.103491
0.103498
0.103498
0.103505
0.103511
0.103518
0.103525
0.103525
0.103532
0.103539
0.103545
0.103552
0.103552
0.103559
0.103566
0.103573
0.10358
0.10358
0.103587
0.103593
0.1036
0.103607
0.103607
0.103614
0.103621
0.103628
0.103635
0.103635
0.103642
0.103649
0.103656
0.103663
0.103663
0.10367
0.103677
0.103684
0.103691
0.103691
0.103699
0.103706
0.103713
0.10372
0.10372
0.103727
0.103734
0.103741
0.103749
0.103749
0.103756
0.103763
0.10377
0.103777
0.103777
0.103785
0.103792
0.103799
0.103806
0.103806
0.103814
0.103821
0.103828
0.103836
0.103836
0.103843
0.10385
0.103858
0.103865
0.103865
0.103873
0.10388
0.103887
0.103895
0.103895
0.103902
0.10391
0.103917
0.103925
0.103925
0.103932
0.10394
0.103947
0.103955
0.103955
0.103962
0.10397
0.103978
0.103985
0.103985
0.103993
0.104
0.104008
0.104016
0.104016
0.104023
0.104031
0.104039
0.104046
0.104046
0.104054
0.104062
0.10407
0.104077
0.104077
0.104085
0.104093
0.104101
0.104109
0.104109
0.104116
0.104124
0.104132
0.10414
0.10414
0.104148
0.104156
0.104164
0.104172
0.104172
0.10418
0.104187
0.104195
0.104203
0.104203
0.104211
0.104219
0.104227
0.104235
0.104235
0.104244
0.104252
0.10426
0.104268
0.104268
0.104276
0.104284
0.104292
0.1043
0.1043
0.104308
0.104317
0.104325
0.104333
0.104333
0.104341
0.104349
0.104358
0.104366
0.104366
0.104374
0.104382
0.104391
0.104399
0.104399
0.104407
0.104416
0.104424
0.104432
0.104432
0.104441
0.104449
0.104458
0.104466
0.104466
0.104475
0.104483
0.104492
0.1045
0.1045
0.104509
0.104517
0.104526
0.104534
0.104534
0.104543
0.104551
0.10456
0.104568
0.104568
0.104577
0.104586
0.104594
0.104603
0.104603
0.104612
0.10462
0.104629
0.104638
0.104638
0.104647
0.104655
0.104664
0.104673
0.104673
0.104682
0.10469
0.104699
0.104708
0.104708
0.104717
0.104726
0.104735
0.104744
0.104744
0.104753
0.104762
0.10477
0.104779
0.104779
0.104788
0.104797
0.104806
0.104815
0.104815
0.104824
0.104834
0.104843
0.104852
0.104852
0.104861
0.10487
0.104879
0.104888
0.104888
0.104897
0.104907
0.104916
0.104925
0.104925
0.104934
0.104943
0.104953
0.104962
0.104962
0.104971
0.104981
0.10499
0.104999
0.104999
0.105009
0.105018
0.105027
0.105037
0.105037
0.105046
0.105056
0.105065
0.105074
0.105074
0.105084
0.105093
0.105103
0.105112
0.105112
0.105122
0.105132
0.105141
0.105151
0.105151
0.10516
0.10517
0.10518
0.105189
0.105189
0.105199
0.105209
0.105218
0.105228
0.105228
0.105238
0.105247
0.105257
0.105267
0.105267
0.105277
0.105287
0.105296
0.105306
0.105306
0.105316
0.105326
0.105336
0.105346
0.105346
0.105356
0.105366
0.105376
0.105386
0.105386
0.105396
0.105406
0.105416
0.105426
0.105426
0.105436
0.105446
0.105456
0.105466
0.105466
0.105476
0.105486
0.105497
0.105507
0.105507
0.105517
0.105527
0.105537
0.105548
0.105548
0.105558
0.105568
0.105578
0.105589
0.105589
0.105599
0.105609
0.10562
0.10563
0.10563
0.105641
0.105651
0.105661
0.105672
0.105672
0.105682
0.105693
0.105703
0.105714
0.105714
0.105724
0.105735
0.105746
0.105756
0.105756
0.105767
0.105777
0.105788
0.105799
0.105799
0.105809
0.10582
0.105831
0.105841
0.105841
0.105852
0.105863
0.105874
0.105885
0.105885
0.105895
0.105906
0.105917
0.105928
0.105928
0.105939
0.10595
0.105961
0.105972
0.105972
0.105983
0.105994
0.106005
0.106016
0.106016
0.106027
0.106038
0.106049
0.10606
0.10606
0.106071
0.106082
0.106093
0.106104
0.106104
0.106116
0.106127
0.106138
0.106149
0.106149
0.10616
0.106172
0.106183
0.106194
0.106194
0.106206
0.106217
0.106228
0.10624
0.10624
0.106251
0.106262
0.106274
0.106285
0.106285
0.106297
0.106308
0.10632
0.106331
0.106331
0.106343
0.106354
0.106366
0.106378
0.106378
0.106389
0.106401
0.106413
0.106424
0.106424
0.106436
0.106448
0.106459
0.106471
0.106471
0.106483
0.106495
0.106506
0.106518
0.106518
0.10653
0.106542
0.106554
0.106566
0.106566
0.106578
0.10659
0.106602
0.106614
0.106614
0.106626
0.106638
0.10665
0.106662
0.106662
0.106674
0.106686
0.106698
0.10671
0.10671
0.106722
0.106734
0.106747
0.106759
0.106759
0.106771
0.106783
0.106796
0.106808
0.106808
0.10682
0.106833
0.106845
0.106857
0.106857
0.10687
0.106882
0.106894
0.106907
0.106907
0.106919
0.106932
0.106944
0.106957
0.106957
0.106969
0.106982
0.106995
0.107007
0.107007
0.10702
0.107032
0.107045
0.107058
0.107058
0.107071
0.107083
0.107096
0.107109
0.107109
0.107122
0.107134
0.107147
0.10716
0.10716
0.107173
0.107186
0.107199
0.107212
0.107212
0.107225
0.107238
0.107251
0.107264
0.107264
0.107277
0.10729
0.107303
0.107316
0.107316
0.107329
0.107342
0.107355
0.107368
0.107368
0.107382
0.107395
0.107408
0.107421
0.107421
0.107435
0.107448
0.107461
0.107475
0.107475
0.107488
0.107501
0.107515
0.107528
0.107528
0.107542
0.107555
0.107569
0.107582
0.107582
0.107596
0.107609
0.107623
0.107636
0.107636
0.10765
0.107664
0.107677
0.107691
0.107691
0.107705
0.107718
0.107732
0.107746
0.107746
0.10776
0.107773
0.107787
0.107801
0.107801
0.107815
0.107829
0.107843
0.107857
0.107857
0.107871
0.107885
0.107899
0.107913
0.107913
0.107927
0.107941
0.107955
0.107969
0.107969
0.107983
0.107997
0.108011
0.108026
0.108026
0.10804
0.108054
0.108068
0.108083
0.108083
0.108097
0.108111
0.108126
0.10814
0.10814
0.108154
0.108169
0.108183
0.108198
0.108198
0.108212
0.108227
0.108241
0.108256
0.108256
0.10827
0.108285
0.1083
0.108314
0.108314
0.108329
0.108344
0.108358
0.108373
0.108373
0.108388
0.108403
0.108418
0.108432
0.108432
0.108447
0.108462
0.108477
0.108492
0.108492
0.108507
0.108522
0.108537
0.108552
0.108552
0.108567
0.108582
0.108597
0.108612
0.108612
0.108627
0.108642
0.108658
0.108673
0.108673
0.108688
0.108703
0.108718
0.108734
0.108734
0.108749
0.108764
0.10878
0.108795
0.108795
0.108811
0.108826
0.108841
0.108857
0.108857
0.108872
0.108888
0.108903
0.108919
0.108919
0.108935
0.10895
0.108966
0.108982
0.108982
0.108997
0.109013
0.109029
0.109044
0.109044
0.10906
0.109076
0.109092
0.109108
0.109108
0.109124
0.109139
0.109155
0.109171
0.109171
0.109187
0.109203
0.109219
0.109235
0.109235
0.109252
0.109268
0.109284
0.1093
0.1093
0.109316
0.109332
0.109348
0.109365
0.109365
0.109381
0.109397
0.109414
0.10943
0.10943
0.109446
0.109463
0.109479
0.109496
0.109496
0.109512
0.109529
0.109545
0.109562
0.109562
0.109578
0.109595
0.109611
0.109628
0.109628
0.109645
0.109661
0.109678
0.109695
0.109695
0.109712
0.109728
0.109745
0.109762
0.109762
0.109779
0.109796
0.109813
0.10983
0.10983
0.109847
0.109864
0.109881
0.109898
0.109898
0.109915
0.109932
0.109949
0.109966
0.109966
0.109983
0.11
0.110018
0.110035
0.110035
0.110052
0.110069
0.110087
0.110104
0.110104
0.110122
0.110139
0.110156
0.110174
0.110174
0.110191
0.110209
0.110226
0.110244
0.110244
0.110261
0.110279
0.110297
0.110314
0.110314
0.110332
0.11035
0.110368
0.110385
0.110385
0.110403
0.110421
0.110439
0.110457
0.110457
0.110475
0.110492
0.11051
0.110528
0.110528
0.110546
0.110564
0.110582
0.110601
0.110601
0.110619
0.110637
0.110655
0.110673
0.110673
0.110691
0.11071
0.110728
0.110746
0.110746
0.110765
0.110783
0.110801
0.11082
0.11082
0.110838
0.110857
0.110875
0.110894
0.110894
0.110912
0.110931
0.110949
0.110968
0.110968
0.110987
0.111005
0.111024
0.111043
0.111043
0.111061
0.11108
0.111099
0.111118
0.111118
0.111137
0.111156
0.111175
0.111194
0.111194
0.111212
0.111231
0.111251
0.11127
0.11127
0.111289
0.111308
0.111327
0.111346
0.111346
0.111365
0.111385
0.111404
0.111423
0.111423
0.111442
0.111462
0.111481
0.111501
0.111501
0.11152
0.111539
0.111559
0.111578
0.111578
0.111598
0.111618
0.111637
0.111657
0.111657
0.111676
0.111696
0.111716
0.111736
0.111736
0.111755
0.111775
0.111795
0.111815
0.111815
0.111835
0.111855
0.111875
0.111894
0.111894
0.111914
0.111935
0.111955
0.111975
0.111975
0.111995
0.112015
0.112035
0.112055
0.112055
0.112076
0.112096
0.112116
0.112136
0.112136
0.112157
0.112177
0.112197
0.112218
0.112218
0.112238
0.112259
0.112279
0.1123
0.1123
0.112321
0.112341
0.112362
0.112382
0.112382
0.112403
0.112424
0.112445
0.112465
0.112465
0.112486
0.112507
0.112528
0.112549
0.112549
0.11257
0.112591
0.112612
0.112633
0.112633
0.112654
0.112675
0.112696
0.112717
0.112717
0.112738
0.11276
0.112781
0.112802
0.112802
0.112823
0.112845
0.112866
0.112887
0.112887
0.112909
0.11293
0.112952
0.112973
0.112973
0.112995
0.113016
0.113038
0.11306
0.11306
0.113081
0.113103
0.113125
0.113147
0.113147
0.113168
0.11319
0.113212
0.113234
0.113234
0.113256
0.113278
0.1133
0.113322
0.113322
0.113344
0.113366
0.113388
0.11341
0.11341
0.113432
0.113454
0.113477
0.113499
0.113499
0.113521
0.113543
0.113566
0.113588
0.113588
0.113611
0.113633
0.113655
0.113678
0.113678
0.1137
0.113723
0.113746
0.113768
0.113768
0.113791
0.113814
0.113836
0.113859
0.113859
0.113882
0.113905
0.113928
0.11395
0.11395
0.113973
0.113996
0.114019
0.114042
0.114042
0.114065
0.114088
0.114112
0.114135
0.114135
0.114158
0.114181
0.114204
0.114228
0.114228
0.114251
0.114274
0.114298
0.114321
0.114321
0.114344
0.114368
0.114391
0.114415
0.114415
0.114438
0.114462
0.114486
0.114509
0.114509
0.114533
0.114557
0.114581
0.114604
0.114604
0.114628
0.114652
0.114676
0.1147
0.1147
0.114724
0.114748
0.114772
0.114796
0.114796
0.11482
0.114844
0.114868
0.114892
0.114892
0.114917
0.114941
0.114965
0.11499
0.11499
0.115014
0.115038
0.115063
0.115087
0.115087
0.115112
0.115136
0.115161
0.115185
0.115185
0.11521
0.115235
0.115259
0.115284
0.115284
0.115309
0.115334
0.115358
0.115383
0.115383
0.115408
0.115433
0.115458
0.115483
0.115483
0.115508
0.115533
0.115558
0.115583
0.115583
0.115609
0.115634
0.115659
0.115684
0.115684
0.11571
0.115735
0.11576
0.115786
0.115786
0.115811
0.115837
0.115862
0.115888
0.115888
0.115913
0.115939
0.115965
0.11599
0.11599
0.116016
0.116042
0.116068
0.116094
0.116094
0.116119
0.116145
0.116171
0.116197
0.116197
0.116223
0.116249
0.116275
0.116301
0.116301
0.116328
0.116354
0.11638
0.116406
0.116406
0.116433
0.116459
0.116485
0.116512
0.116512
0.116538
0.116565
0.116591
0.116618
0.116618
0.116644
0.116671
0.116697
0.116724
0.116724
0.116751
0.116778
0.116804
0.116831
0.116831
0.116858
0.116885
0.116912
0.116939
0.116939
0.116966
0.116993
0.11702
0.117047
0.117047
0.117074
0.117102
0.117129
0.117156
0.117156
0.117183
0.117211
0.117238
0.117265
0.117265
0.117293
0.11732
0.117348
0.117375
0.117375
0.117403
0.117431
0.117458
0.117486
0.117486
0.117514
0.117542
0.117569
0.117597
0.117597
0.117625
0.117653
0.117681
0.117709
0.117709
0.117737
0.117765
0.117793
0.117821
0.117821
0.11785
0.117878
0.117906
0.117934
0.117934
0.117963
0.117991
0.11802
0.118048
0.118048
0.118077
0.118105
0.118134
0.118162
0.118162
0.118191
0.11822
0.118248
0.118277
0.118277
0.118306
0.118335
0.118363
0.118392
0.118392
0.118421
0.11845
0.118479
0.118508
0.118508
0.118538
0.118567
0.118596
0.118625
0.118625
0.118654
0.118684
0.118713
0.118742
0.118742
0.118772
0.118801
0.118831
0.11886
0.11886
0.11889
0.118919
0.118949
0.118979
0.118979
0.119008
0.119038
0.119068
0.119098
0.119098
0.119128
0.119158
0.119187
0.119217
0.119217
0.119247
0.119278
0.119308
0.119338
0.119338
0.119368
0.119398
0.119428
0.119459
0.119459
0.119489
0.11952
0.11955
0.11958
0.11958
0.119611
0.119641
0.119672
0.119703
0.119703
0.119733
0.119764
0.119795
0.119826
0.119826
0.119856
0.119887
0.119918
0.119949
0.119949
0.11998
0.120011
0.120042
0.120073
0.120073
0.120104
0.120136
0.120167
0.120198
0.120198
0.120229
0.120261
0.120292
0.120324
0.120324
0.120355
0.120387
0.120418
0.12045
0.12045
0.120481
0.120513
0.120545
0.120576
0.120576
0.120608
0.12064
0.120672
0.120704
0.120704
0.120736
0.120768
0.1208
0.120832
0.120832
0.120864
0.120896
0.120928
0.120961
0.120961
0.120993
0.121025
0.121058
0.12109
0.12109
0.121122
0.121155
0.121188
0.12122
0.12122
0.121253
0.121285
0.121318
0.121351
0.121351
0.121384
0.121416
0.121449
0.121482
0.121482
0.121515
0.121548
0.121581
0.121614
0.121614
0.121647
0.121681
0.121714
0.121747
0.121747
0.12178
0.121814
0.121847
0.12188
0.12188
0.121914
0.121947
0.121981
0.122015
0.122015
0.122048
0.122082
0.122116
0.122149
0.122149
0.122183
0.122217
0.122251
0.122285
0.122285
0.122319
0.122353
0.122387
0.122421
0.122421
0.122455
0.122489
0.122523
0.122558
0.122558
0.122592
0.122626
0.122661
0.122695
0.122695
0.12273
0.122764
0.122799
0.122834
0.122834
0.122868
0.122903
0.122938
0.122972
0.122972
0.123007
0.123042
0.123077
0.123112
0.123112
0.123147
0.123182
0.123217
0.123252
0.123252
0.123288
0.123323
0.123358
0.123393
0.123393
0.123429
0.123464
0.1235
0.123535
0.123535
0.123571
0.123606
0.123642
0.123678
0.123678
0.123713
0.123749
0.123785
0.123821
0.123821
0.123857
0.123893
0.123929
0.123965
0.123965
0.124001
0.124037
0.124073
0.124109
0.124109
0.124145
0.124182
0.124218
0.124254
0.124254
0.124291
0.124327
0.124364
0.124401
0.124401
0.124437
0.124474
0.124511
0.124547
0.124547
0.124584
0.124621
0.124658
0.124695
0.124695
0.124732
0.124769
0.124806
0.124843
0.124843
0.12488
0.124917
0.124955
0.124992
0.124992
0.125029
0.125067
0.125104
0.125142
0.125142
0.125179
0.125217
0.125254
0.125292
0.125292
0.12533
0.125367
0.125405
0.125443
0.125443
0.125481
0.125519
0.125557
0.125595
0.125595
0.125633
0.125671
0.125709
0.125748
0.125748
0.125786
0.125824
0.125863
0.125901
0.125901
0.125939
0.125978
0.126017
0.126055
0.126055
0.126094
0.126132
0.126171
0.12621
0.12621
0.126249
0.126288
0.126327
0.126366
0.126366
0.126405
0.126444
0.126483
0.126522
0.126522
0.126561
0.126601
0.12664
0.126679
0.126679
0.126719
0.126758
0.126798
0.126837
0.126837
0.126877
0.126916
0.126956
0.126996
0.126996
0.127036
0.127075
0.127115
0.127155
0.127155
0.127195
0.127235
0.127275
0.127316
0.127316
0.127356
0.127396
0.127436
0.127477
0.127477
0.127517
0.127557
0.127598
0.127638
0.127638
0.127679
0.127719
0.12776
0.127801
0.127801
0.127842
0.127882
0.127923
0.127964
0.127964
0.128005
0.128046
0.128087
0.128128
0.128128
0.128169
0.128211
0.128252
0.128293
0.128293
0.128335
0.128376
0.128417
0.128459
0.128459
0.1285
0.128542
0.128584
0.128625
0.128625
0.128667
0.128709
0.128751
0.128793
0.128793
0.128835
0.128877
0.128919
0.128961
0.128961
0.129003
0.129045
0.129087
0.12913
0.12913
0.129172
0.129214
0.129257
0.129299
0.129299
0.129342
0.129384
0.129427
0.12947
0.12947
0.129512
0.129555
0.129598
0.129641
0.129641
0.129684
0.129727
0.12977
0.129813
0.129813
0.129856
0.129899
0.129943
0.129986
0.129986
0.130029
0.130073
0.130116
0.13016
0.13016
0.130203
0.130247
0.130291
0.130334
0.130334
0.130378
0.130422
0.130466
0.13051
0.13051
0.130554
0.130598
0.130642
0.130686
0.130686
0.13073
0.130774
0.130819
0.130863
0.130863
0.130907
0.130952
0.130996
0.131041
0.131041
0.131085
0.13113
0.131175
0.131219
0.131219
0.131264
0.131309
0.131354
0.131399
0.131399
0.131444
0.131489
0.131534
0.131579
0.131579
0.131624
0.13167
0.131715
0.13176
0.13176
0.131806
0.131851
0.131897
0.131942
0.131942
0.131988
0.132034
0.132079
0.132125
0.132125
0.132171
0.132217
0.132263
0.132309
0.132309
0.132355
0.132401
0.132447
0.132493
0.132493
0.13254
0.132586
0.132632
0.132679
0.132679
0.132725
0.132772
0.132818
0.132865
0.132865
0.132912
0.132959
0.133005
0.133052
0.133052
0.133099
0.133146
0.133193
0.13324
0.13324
0.133287
0.133334
0.133382
0.133429
0.133429
0.133476
0.133524
0.133571
0.133619
0.133619
0.133666
0.133714
0.133762
0.133809
0.133809
0.133857
0.133905
0.133953
0.134001
0.134001
0.134049
0.134097
0.134145
0.134193
0.134193
0.134241
0.13429
0.134338
0.134386
0.134386
0.134435
0.134483
0.134532
0.13458
0.13458
0.134629
0.134678
0.134726
0.134775
0.134775
0.134824
0.134873
0.134922
0.134971
0.134971
0.13502
0.135069
0.135118
0.135168
0.135168
0.135217
0.135266
0.135316
0.135365
0.135365
0.135415
0.135464
0.135514
0.135564
0.135564
0.135614
0.135663
0.135713
0.135763
0.135763
0.135813
0.135863
0.135913
0.135963
0.135963
0.136014
0.136064
0.136114
0.136165
0.136165
0.136215
0.136266
0.136316
0.136367
0.136367
0.136417
0.136468
0.136519
0.13657
0.13657
0.136621
0.136672
0.136723
0.136774
0.136774
0.136825
0.136876
0.136927
0.136978
0.136978
0.13703
0.137081
0.137133
0.137184
0.137184
0.137236
0.137287
0.137339
0.137391
0.137391
0.137443
0.137494
0.137546
0.137598
0.137598
0.13765
0.137702
0.137754
0.137807
0.137807
0.137859
0.137911
0.137964
0.138016
0.138016
0.138069
0.138121
0.138174
0.138226
0.138226
0.138279
0.138332
0.138385
0.138438
0.138438
0.138491
0.138544
0.138597
0.13865
0.13865
0.138703
0.138756
0.13881
0.138863
0.138863
0.138916
0.13897
0.139023
0.139077
0.139077
0.139131
0.139184
0.139238
0.139292
0.139292
0.139346
0.1394
0.139454
0.139508
0.139508
0.139562
0.139616
0.13967
0.139725
0.139725
0.139779
0.139833
0.139888
0.139942
0.139942
0.139997
0.140052
0.140106
0.140161
0.140161
0.140216
0.140271
0.140326
0.140381
0.140381
0.140436
0.140491
0.140546
0.140602
0.140602
0.140657
0.140712
0.140768
0.140823
0.140823
0.140879
0.140934
0.14099
0.141046
0.141046
0.141101
0.141157
0.141213
0.141269
0.141269
0.141325
0.141381
0.141437
0.141494
0.141494
0.14155
0.141606
0.141663
0.141719
0.141719
0.141776
0.141832
0.141889
0.141946
0.141946
0.142002
0.142059
0.142116
0.142173
0.142173
0.14223
0.142287
0.142344
0.142401
0.142401
0.142459
0.142516
0.142573
0.142631
0.142631
0.142688
0.142746
0.142803
0.142861
0.142861
0.142919
0.142977
0.143034
0.143092
0.143092
0.14315
0.143208
0.143266
0.143325
0.143325
0.143383
0.143441
0.143499
0.143558
0.143558
0.143616
0.143675
0.143733
0.143792
0.143792
0.143851
0.14391
0.143969
0.144027
0.144027
0.144086
0.144145
0.144205
0.144264
0.144264
0.144323
0.144382
0.144442
0.144501
0.144501
0.14456
0.14462
0.14468
0.144739
0.144739
0.144799
0.144859
0.144919
0.144978
0.144978
0.145038
0.145098
0.145159
0.145219
0.145219
0.145279
0.145339
0.1454
0.14546
0.14546
0.14552
0.145581
0.145642
0.145702
0.145702
0.145763
0.145824
0.145885
0.145946
0.145946
0.146007
0.146068
0.146129
0.14619
0.14619
0.146251
0.146312
0.146374
0.146435
0.146435
0.146497
0.146558
0.14662
0.146682
0.146682
0.146743
0.146805
0.146867
0.146929
0.146929
0.146991
0.147053
0.147115
0.147177
0.147177
0.14724
0.147302
0.147364
0.147427
0.147427
0.147489
0.147552
0.147614
0.147677
0.147677
0.14774
0.147803
0.147866
0.147929
0.147929
0.147992
0.148055
0.148118
0.148181
0.148181
0.148244
0.148308
0.148371
0.148435
0.148435
0.148498
0.148562
0.148626
0.148689
0.148689
0.148753
0.148817
0.148881
0.148945
0.148945
0.149009
0.149073
0.149137
0.149202
0.149202
0.149266
0.14933
0.149395
0.149459
0.149459
0.149524