<?xml version="1.0"?>
<VTKFile type="UnstructuredGrid" version="0.1" byte_order="LittleEndian">
<UnstructuredGrid>
<Piece NumberOfPoints="5000" NumberOfCells="4000">
<PointData Scalars="Reaction 0">
<DataArray type="Float32" Name="Reaction 0" format="ascii">
0.363121
0.363121
0.363121
0.363121
0.363121
0.363121
0.363121
0.363121
0.363121
0.363122
0.363122
0.363122
0.363122
0.363122
0.363123
0.363123
0.363123
0.363124
0.363124
0.363124
0.363124
0.363125
0.363125
0.363126
0.363127
0.363127
0.363127
0.363128
0.363128
0.363129
0.363129
0.36313
0.363131
0.363131
0.363132
0.363132
0.363133
0.363134
0.363135
0.363136
0.363136
0.363137
0.363138
0.363139
0.36314
0.36314
0.363141
0.363142
0.363143
0.363144
0.363144
0.363145
0.363147
0.363148
0.363149
0.363149
0.363151
0.363152
0.363153
0.363155
0.363155
0.363156
0.363158
0.363159
0.363161
0.363161
0.363162
0.363164
0.363165
0.363167
0.363167
0.363169
0.36317
0.363172
0.363174
0.363174
0.363176
0.363177
0.363179
0.363181
0.363181
0.363183
0.363185
0.363187
0.363189
0.363189
0.363191
0.363193
0.363195
0.363197
0.363197
0.363199
0.363201
0.363204
0.363206
0.363206
0.363208
0.36321
0.363213
0.363215
0.363215
0.363217
0.36322
0.363222
0.363225
0.363225
0.363227
0.36323
0.363232
0.363235
0.363235
0.363238
0.36324
0.363243
0.363246
0.363246
0.363248
0.363251
0.363254
0.363257
0.363257
0.363259
0.363262
0.363265
0.363268
0.363268
0.363271
0.363274
0.363277
0.36328
0.36328
0.363283
0.363286
0.36329
0.363293
0.363293
0.363296
0.363299
0.363302
0.363306
0.363306
0.363309
0.363312
0.363316
0.363319
0.363319
0.363323
0.363326
0.36333
0.363333
0.363333
0.363337
0.36334
0.363344
0.363347
0.363347
0.363351
0.363355
0.363359
0.363362
0.363362
0.363366
0.36337
0.363374
0.363378
0.363378
0.363382
0.363386
0.36339
0.363394
0.363394
0.363398
0.363402
0.363406
0.36341
0.36341
0.363414
0.363418
0.363422
0.363427
0.363427
0.363431
0.363435
0.363439
0.363444
0.363444
0.363448
0.363453
0.363457
0.363461
0.363461
0.363466
0.363471
0.363475
0.36348
0.36348
0.363484
0.363489
0.363494
0.363498
0.363498
0.363503
0.363508
0.363513
0.363517
0.363517
0.363522
0.363527
0.363532
0.363537
0.363537
0.363542
0.363547
0.363552
0.363557
0.363557
0.363562
0.363567
0.363572
0.363578
0.363578
0.363583
0.363588
0.363593
0.363599
0.363599
0.363604
0.363609
0.363615
0.36362
0.36362
0.363626
0.363631
0.363636
0.363642
0.363642
0.363648
0.363653
0.363659
0.363664
0.363664
0.36367
0.363676
0.363682
0.363687
0.363687
0.363693
0.363699
0.363705
0.363711
0.363711
0.363717
0.363723
0.363729
0.363735
0.363735
0.363741
0.363747
0.363753
0.363759
0.363759
0.363765
0.363771
0.363777
0.363784
0.363784
0.36379
0.363796
0.363802
0.363809
0.363809
0.363815
0.363822
0.363828
0.363835
0.363835
0.363841
0.363848
0.363854
0.363861
0.363861
0.363867
0.363874
0.363881
0.363887
0.363887
0.363894
0.363901
0.363908
0.363915
0.363915
0.363921
0.363928
0.363935
0.363942
0.363942
0.363949
0.363956
0.363963
0.36397
0.36397
0.363977
0.363984
0.363992
0.363999
0.363999
0.364006
0.364013
0.364021
0.364028
0.364028
0.364035
0.364043
0.36405
0.364057
0.364057
0.364065
0.364072
0.36408
0.364087
0.364087
0.364095
0.364102
0.36411
0.364118
0.364118
0.364125
0.364133
0.364141
0.364149
0.364149
0.364156
0.364164
0.364172
0.36418
0.36418
0.364188
0.364196
0.364204
0.364212
0.364212
0.36422
0.364228
0.364236
0.364244
0.364244
0.364252
0.364261
0.364269
0.364277
0.364277
0.364285
0.364294
0.364302
0.36431
0.36431
0.364319
0.364327
0.364336
0.364344
0.364344
0.364352
0.364361
0.36437
0.364378
0.364378
0.364387
0.364395
0.364404
0.364413
0.364413
0.364422
0.36443
0.364439
0.364448
0.364448
0.364457
0.364466
0.364475
0.364484
0.364484
0.364493
0.364502
0.364511
0.36452
0.36452
0.364529
0.364538
0.364547
0.364556
0.364556
0.364566
0.364575
0.364584
0.364593
0.364593
0.364603
0.364612
0.364621
0.364631
0.364631
0.36464
0.36465
0.364659
0.364669
0.364669
0.364678
0.364688
0.364698
0.364707
0.364707
0.364717
0.364727
0.364736
0.364746
0.364746
0.364756
0.364766
0.364776
0.364786
0.364786
0.364796
0.364805
0.364815
0.364825
0.364825
0.364836
0.364846
0.364856
0.364866
0.364866
0.364876
0.364886
0.364896
0.364907
0.364907
0.364917
0.364927
0.364938
0.364948
0.364948
0.364958
0.364969
0.364979
0.36499
0.36499
0.365
0.365011
0.365021
0.365032
0.365032
0.365042
0.365053
0.365064
0.365075
0.365075
0.365085
0.365096
0.365107
0.365118
0.365118
0.365129
0.365139
0.36515
0.365161
0.365161
0.365172
0.365183
0.365194
0.365205
0.365205
0.365217
0.365228
0.365239
0.36525
0.36525
0.365261
0.365273
0.365284
0.365295
0.365295
0.365306
0.365318
0.365329
0.365341
0.365341
0.365352
0.365364
0.365375
0.365387
0.365387
0.365398
0.36541
0.365421
0.365433
0.365433
0.365445
0.365456
0.365468
0.36548
0.36548
0.365492
0.365504
0.365516
0.365527
0.365527
0.365539
0.365551
0.365563
0.365575
0.365575
0.365587
0.365599
0.365611
0.365624
0.365624
0.365636
0.365648
0.36566
0.365672
0.365672
0.365685
0.365697
0.365709
0.365722
0.365722
0.365734
0.365747
0.365759
0.365771
0.365771
0.365784
0.365797
0.365809
0.365822
0.365822
0.365834
0.365847
0.36586
0.365872
0.365872
0.365885
0.365898
0.365911
0.365924
0.365924
0.365936
0.365949
0.365962
0.365975
0.365975
0.365988
0.366001
0.366014
0.366027
0.366027
0.36604
0.366054
0.366067
0.36608
0.36608
0.366093
0.366106
0.36612
0.366133
0.366133
0.366146
0.36616
0.366173
0.366186
0.366186
0.3662
0.366213
0.366227
0.36624
0.36624
0.366254
0.366268
0.366281
0.366295
0.366295
0.366309
0.366322
0.366336
0.36635
0.36635
0.366364
0.366378
0.366391
0.366405
0.366405
0.366419
0.366433
0.366447
0.366461
0.366461
0.366475
0.366489
0.366503
0.366517
0.366517
0.366532
0.366546
0.36656
0.366574
0.366574
0.366589
0.366603
0.366617
0.366632
0.366632
0.366646
0.36666
0.366675
0.366689
0.366689
0.366704
0.366718
0.366733
0.366748
0.366748
0.366762
0.366777
0.366792
0.366806
0.366806
0.366821
0.366836
0.366851
0.366865
0.366865
0.36688
0.366895
0.36691
0.366925
0.366925
0.36694
0.366955
0.36697
0.366985
0.366985
0.367
0.367015
0.367031
0.367046
0.367046
0.367061
0.367076
0.367092
0.367107
0.367107
0.367122
0.367138
0.367153
0.367168
0.367168
0.367184
0.367199
0.367215
0.36723
0.36723
0.367246
0.367261
0.367277
0.367293
0.367293
0.367308
0.367324
0.36734
0.367356
0.367356
0.367372
0.367387
0.367403
0.367419
0.367419
0.367435
0.367451
0.367467
0.367483
0.367483
0.367499
0.367515
0.367531
0.367547
0.367547
0.367563
0.36758
0.367596
0.367612
0.367612
0.367628
0.367645
0.367661
0.367677
0.367677
0.367694
0.36771
0.367727
0.367743
0.367743
0.36776
0.367776
0.367793
0.367809
0.367809
0.367826
0.367843
0.367859
0.367876
0.367876
0.367893
0.36791
0.367926
0.367943
0.367943
0.36796
0.367977
0.367994
0.368011
0.368011
0.368028
0.368045
0.368062
0.368079
0.368079
0.368096
0.368113
0.36813
0.368148
0.368148
0.368165
0.368182
0.368199
0.368217
0.368217
0.368234
0.368251
0.368269
0.368286
0.368286
0.368304
0.368321
0.368338
0.368356
0.368356
0.368374
0.368391
0.368409
0.368426
0.368426
0.368444
0.368462
0.36848
0.368497
0.368497
0.368515
0.368533
0.368551
0.368569
0.368569
0.368587
0.368605
0.368623
0.368641
0.368641
0.368659
0.368677
0.368695
0.368713
0.368713
0.368731
0.368749
0.368768
0.368786
0.368786
0.368804
0.368822
0.368841
0.368859
0.368859
0.368877
0.368896
0.368914
0.368933
0.368933
0.368951
0.36897
0.368988
0.369007
0.369007
0.369026
0.369044
0.369063
0.369082
0.369082
0.3691
0.369119
0.369138
0.369157
0.369157
0.369176
0.369194
0.369213
0.369232
0.369232
0.369251
0.36927
0.369289
0.369308
0.369308
0.369328
0.369347
0.369366
0.369385
0.369385
0.369404
0.369423
0.369443
0.369462
0.369462
0.369481
0.369501
0.36952
0.369539
0.369539
0.369559
0.369578
0.369598
0.369617
0.369617
0.369637
0.369657
0.369676
0.369696
0.369696
0.369716
0.369735
0.369755
0.369775
0.369775
0.369795
0.369814
0.369834
0.369854
0.369854
0.369874
0.369894
0.369914
0.369934
0.369934
0.369954
0.369974
0.369994
0.370014
0.370014
0.370034
0.370055
0.370075
0.370095
0.370095
0.370115
0.370136
0.370156
0.370176
0.370176
0.370197
0.370217
0.370237
0.370258
0.370258
0.370278
0.370299
0.37032
0.37034
0.37034
0.370361
0.370381
0.370402
0.370423
0.370423
0.370444
0.370464
0.370485
0.370506
0.370506
0.370527
0.370548
0.370569
0.370589
0.370589
0.37061
0.370631
0.370652
0.370674
0.370674
0.370695
0.370716
0.370737
0.370758
0.370758
0.370779
0.3708
0.370822
0.370843
0.370843
0.370864
0.370886
0.370907
0.370928
0.370928
0.37095
0.370971
0.370993
0.371014
0.371014
0.371036
0.371058
0.371079
0.371101
0.371101
0.371122
0.371144
0.371166
0.371188
0.371188
0.371209
0.371231
0.371253
0.371275
0.371275
0.371297
0.371319
0.371341
0.371363
0.371363
0.371385
0.371407
0.371429
0.371451
0.371451
0.371473
0.371495
0.371518
0.37154
0.37154
0.371562
0.371584
0.371607
0.371629
0.371629
0.371651
0.371674
0.371696
0.371719
0.371719
0.371741
0.371764
0.371786
0.371809
0.371809
0.371831
0.371854
0.371877
0.371899
0.371899
0.371922
0.371945
0.371968
0.37199
0.37199
0.372013
0.372036
0.372059
0.372082
0.372082
0.372105
0.372128
0.372151
0.372174
0.372174
0.372197
0.37222
0.372243
0.372266
0.372266
0.37229
0.372313
0.372336
0.372359
0.372359
0.372383
0.372406
0.372429
0.372453
0.372453
0.372476
0.3725
0.372523
0.372547
0.372547
0.37257
0.372594
0.372617
0.372641
0.372641
0.372665
0.372688
0.372712
0.372736
0.372736
0.37276
0.372783
0.372807
0.372831
0.372831
0.372855
0.372879
0.372903
0.372927
0.372927
0.372951
0.372975
0.372999
0.373023
0.373023
0.373047
0.373071
0.373096
0.37312
0.37312
0.373144
0.373168
0.373193
0.373217
0.373217
0.373241
0.373266
0.37329
0.373315
0.373315
0.373339
0.373364
0.373388
0.373413
0.373413
0.373437
0.373462
0.373487
0.373511
0.373511
0.373536
0.373561
0.373585
0.37361
0.37361
0.373635
0.37366
0.373685
0.37371
0.37371
0.373735
0.37376
0.373785
0.37381
0.37381
0.373835
0.37386
0.373885
0.37391
0.37391
0.373935
0.37396
0.373986
0.374011
0.374011
0.374036
0.374062
0.374087
0.374112
0.374112
0.374138
0.374163
0.374189
0.374214
0.374214
0.37424
0.374265
0.374291
0.374316
0.374316
0.374342
0.374368
0.374393
0.374419
0.374419
0.374445
0.374471
0.374497
0.374522
0.374522
0.374548
0.374574
0.3746
0.374626
0.374626
0.374652
0.374678
0.374704
0.37473
0.37473
0.374756
0.374783
0.374809
0.374835
0.374835
0.374861
0.374887
0.374914
0.37494
0.37494
0.374966
0.374993
0.375019
0.375046
0.375046
0.375072
0.375099
0.375125
0.375152
0.375152
0.375178
0.375205
0.375231
0.375258
0.375258
0.375285
0.375312
0.375338
0.375365
0.375365
0.375392
0.375419
0.375446
0.375472
0.375472
0.375499
0.375526
0.375553
0.37558
0.37558
0.375607
0.375634
0.375662
0.375689
0.375689
0.375716
0.375743
0.37577
0.375798
0.375798
0.375825
0.375852
0.375879
0.375907
0.375907
0.375934
0.375962
0.375989
0.376017
0.376017
0.376044
0.376072
0.376099
0.376127
0.376127
0.376154
0.376182
0.37621
0.376238
0.376238
0.376265
0.376293
0.376321
0.376349
0.376349
0.376377
0.376404
0.376432
0.37646
0.37646
0.376488
0.376516
0.376544
0.376572
0.376572
0.3766
0.376629
0.376657
0.376685
0.376685
0.376713
0.376741
0.37677
0.376798
0.376798
0.376826
0.376855
0.376883
0.376911
0.376911
0.37694
0.376968
0.376997
0.377025
0.377025
0.377054
0.377083
0.377111
0.37714
0.37714
0.377168
0.377197
0.377226
0.377255
0.377255
0.377283
0.377312
0.377341
0.37737
0.37737
0.377399
0.377428
0.377457
0.377486
0.377486
0.377515
0.377544
0.377573
0.377602
0.377602
0.377631
0.37766
0.37769
0.377719
0.377719
0.377748
0.377777
0.377807
0.377836
0.377836
0.377865
0.377895
0.377924
0.377954
0.377954
0.377983
0.378013
0.378042
0.378072
0.378072
0.378102
0.378131
0.378161
0.378191
0.378191
0.37822
0.37825
0.37828
0.37831
0.37831
0.378339
0.378369
0.378399
0.378429
0.378429
0.378459
0.378489
0.378519
0.378549
0.378549
0.378579
0.378609
0.378639
0.37867
0.37867
0.3787
0.37873
0.37876
0.378791
0.378791
0.378821
0.378851
0.378882
0.378912
0.378912
0.378942
0.378973
0.379003
0.379034
0.379034
0.379064
0.379095
0.379126
0.379156
0.379156
0.379187
0.379217
0.379248
0.379279
0.379279
0.37931
0.379341
0.379371
0.379402
0.379402
0.379433
0.379464
0.379495
0.379526
0.379526
0.379557
0.379588
0.379619
0.37965
0.37965
0.379681
0.379712
0.379744
0.379775
0.379775
0.379806
0.379837
0.379869
0.3799
0.3799
0.379931
0.379963
0.379994
0.380025
0.380025
0.380057
0.380088
0.38012
0.380152
0.380152
0.380183
0.380215
0.380246
0.380278
0.380278
0.38031
0.380341
0.380373
0.380405
0.380405
0.380437
0.380469
0.380501
0.380532
0.380532
0.380564
0.380596
0.380628
0.38066
0.38066
0.380692
0.380725
0.380757
0.380789
0.380789
0.380821
0.380853
0.380885
0.380918
0.380918
0.38095
0.380982
0.381015
0.381047
0.381047
0.381079
0.381112
0.381144
0.381177
0.381177
0.381209
0.381242
0.381274
0.381307
0.381307
0.38134
0.381372
0.381405
0.381438
0.381438
0.38147
0.381503
0.381536
0.381569
0.381569
0.381602
0.381634
0.381667
0.3817
0.3817
0.381733
0.381766
0.381799
0.381832
0.381832
0.381866
0.381899
0.381932
0.381965
0.381965
0.381998
0.382031
0.382065
0.382098
0.382098
0.382131
0.382165
0.382198
0.382231
0.382231
0.382265
0.382298
0.382332
0.382365
0.382365
0.382399
0.382433
0.382466
0.3825
0.3825
0.382533
0.382567
0.382601
0.382635
0.382635
0.382668
0.382702
0.382736
0.38277
0.38277
0.382804
0.382838
0.382872
0.382906
0.382906
0.38294
0.382974
0.383008
0.383042
0.383042
0.383076
0.38311
0.383145
0.383179
0.383179
0.383213
0.383247
0.383282
0.383316
0.383316
0.38335
0.383385
0.383419
0.383454
0.383454
0.383488
0.383523
0.383557
0.383592
0.383592
0.383626
0.383661
0.383696
0.38373
0.38373
0.383765
0.3838
0.383835
0.383869
0.383869
0.383904
0.383939
0.383974
0.384009
0.384009
0.384044
0.384079
0.384114
0.384149
0.384149
0.384184
0.384219
0.384254
0.384289
0.384289
0.384324
0.38436
0.384395
0.38443
0.38443
0.384465
0.384501
0.384536
0.384572
0.384572
0.384607
0.384642
0.384678
0.384713
0.384713
0.384749
0.384784
0.38482
0.384856
0.384856
0.384891
0.384927
0.384963
0.384998
0.384998
0.385034
0.38507
0.385106
0.385142
0.385142
0.385177
0.385213
0.385249
0.385285
0.385285
0.385321
0.385357
0.385393
0.385429
0.385429
0.385465
0.385502
0.385538
0.385574
0.385574
0.38561
0.385646
0.385683
0.385719
0.385719
0.385755
0.385792
0.385828
0.385865
0.385865
0.385901
0.385937
0.385974
0.386011
0.386011
0.386047
0.386084
0.38612
0.386157
0.386157
0.386194
0.38623
0.386267
0.386304
0.386304
0.386341
0.386378
0.386414
0.386451
0.386451
0.386488
0.386525
0.386562
0.386599
0.386599
0.386636
0.386673
0.38671
0.386747
0.386747
0.386785
0.386822
0.386859
0.386896
0.386896
0.386933
0.386971
0.387008
0.387045
0.387045
0.387083
0.38712
0.387158
0.387195
0.387195
0.387233
0.38727
0.387308
0.387345
0.387345
0.387383
0.38742
0.387458
0.387496
0.387496
0.387534
0.387571
0.387609
0.387647
0.387647
0.387685
0.387723
0.38776
0.387798
0.387798
0.387836
0.387874
0.387912
0.38795
0.38795
0.387988
0.388027
0.388065
0.388103
0.388103
0.388141
0.388179
0.388217
0.388256
0.388256
0.388294
0.388332
0.388371
0.388409
0.388409
0.388448
0.388486
0.388524
0.388563
0.388563
0.388601
0.38864
0.388679
0.388717
0.388717
0.388756
0.388795
0.388833
0.388872
0.388872
0.388911
0.38895
0.388988
0.389027
0.389027
0.389066
0.389105
0.389144
0.389183
0.389183
0.389222
0.389261
0.3893
0.389339
0.389339
0.389378
0.389417
0.389456
0.389496
0.389496
0.389535
0.389574
0.389613
0.389653
0.389653
0.389692
0.389731
0.389771
0.38981
0.38981
0.38985
0.389889
0.389929
0.389968
0.389968
0.390008
0.390047
0.390087
0.390127
0.390127
0.390166
0.390206
0.390246
0.390286
0.390286
0.390325
0.390365
0.390405
0.390445
0.390445
0.390485
0.390525
0.390565
0.390605
0.390605
0.390645
0.390685
0.390725
0.390765
0.390765
0.390805
0.390845
0.390886
0.390926
0.390926
0.390966
0.391006
0.391047
0.391087
0.391087
0.391128
0.391168
0.391208
0.391249
0.391249
0.391289
0.39133
0.39137
0.391411
0.391411
0.391452
0.391492
0.391533
0.391574
0.391574
0.391614
0.391655
0.391696
0.391737
0.391737
0.391777
0.391818
0.391859
0.3919
0.3919
0.391941
0.391982
0.392023
0.392064
0.392064
0.392105
0.392146
0.392187
0.392229
0.392229
0.39227
0.392311
0.392352
0.392393
0.392393
0.392435
0.392476
0.392517
0.392559
0.392559
0.3926
0.392642
0.392683
0.392725
0.392725
0.392766
0.392808
0.392849
0.392891
0.392891
0.392933
0.392974
0.393016
0.393058
0.393058
0.393099
0.393141
0.393183
0.393225
0.393225
0.393267
0.393309
0.393351
0.393393
0.393393
0.393435
0.393477
0.393519
0.393561
0.393561
0.393603
0.393645
0.393687
0.393729
0.393729
0.393772
0.393814
0.393856
0.393898
0.393898
0.393941
0.393983
0.394025
0.394068
0.394068
0.39411
0.394153
0.394195
0.394238
0.394238
0.39428
0.394323
0.394366
0.394408
0.394408
0.394451
0.394494
0.394536
0.394579
0.394579
0.394622
0.394665
0.394708
0.394751
0.394751
0.394793
0.394836
0.394879
0.394922
0.394922
0.394965
0.395008
0.395051
0.395095
0.395095
0.395138
0.395181
0.395224
0.395267
0.395267
0.395311
0.395354
0.395397
0.39544
0.39544
0.395484
0.395527
0.395571
0.395614
0.395614
0.395658
0.395701
0.395745
0.395788
0.395788
0.395832
0.395875
0.395919
0.395963
0.395963
0.396007
0.39605
0.396094
0.396138
0.396138
0.396182
0.396226
0.396269
0.396313
0.396313
0.396357
0.396401
0.396445
0.396489
0.396489
0.396533
0.396577
0.396622
0.396666
0.396666
0.39671
0.396754
0.396798
0.396843
0.396843
0.396887
0.396931
0.396975
0.39702
0.39702
0.397064
0.397109
0.397153
0.397198
0.397198
0.397242
0.397287
0.397331
0.397376
0.397376
0.397421
0.397465
0.39751
0.397555
0.397555
0.397599
0.397644
0.397689
0.397734
0.397734
0.397779
0.397823
0.397868
0.397913
0.397913
0.397958
0.398003
0.398048
0.398093
0.398093
0.398139
0.398184
0.398229
0.398274
0.398274
0.398319
0.398364
0.39841
0.398455
0.398455
0.3985
0.398546
0.398591
0.398636
0.398636
0.398682
0.398727
0.398773
0.398818
0.398818
0.398864
0.398909
0.398955
0.399001
0.399001
0.399046
0.399092
0.399138
0.399184
0.399184
0.399229
0.399275
0.399321
0.399367
0.399367
0.399413
0.399459
0.399505
0.399551
0.399551
0.399597
0.399643
0.399689
0.399735
0.399735
0.399781
0.399827
0.399873
0.399919
0.399919
0.399966
0.400012
0.400058
0.400105
0.400105
0.400151
0.400197
0.400244
0.40029
0.40029
0.400337
0.400383
0.40043
0.400476
0.400476
0.400523
0.400569
0.400616
0.400663
0.400663
0.400709
0.400756
0.400803
0.40085
0.40085
0.400896
0.400943
0.40099
0.401037
0.401037
0.401084
0.401131
0.401178
0.401225
0.401225
0.401272
0.401319
0.401366
0.401413
0.401413
0.40146
0.401508
0.401555
0.401602
0.401602
0.401649
0.401697
0.401744
0.401791
0.401791
0.401839
0.401886
0.401934
0.401981
0.401981
0.402028
0.402076
0.402124
0.402171
0.402171
0.402219
0.402266
0.402314
0.402362
0.402362
0.40241
0.402457
0.402505
0.402553
0.402553
0.402601
0.402649
0.402696
0.402744
0.402744
0.402792
0.40284
0.402888
0.402936
0.402936
0.402984
0.403033
0.403081
0.403129
0.403129
0.403177
0.403225
0.403273
0.403322
0.403322
0.40337
0.403418
0.403467
0.403515
0.403515
0.403564
0.403612
0.40366
0.403709
0.403709
0.403757
0.403806
0.403855
0.403903
0.403903
0.403952
0.404001
0.404049
0.404098
0.404098
0.404147
0.404196
0.404244
0.404293
0.404293
0.404342
0.404391
0.40444
0.404489
0.404489
0.404538
0.404587
0.404636
0.404685
0.404685
0.404734
0.404783
0.404832
0.404882
0.404882
0.404931
0.40498
0.405029
0.405079
0.405079
0.405128
0.405177
0.405227
0.405276
0.405276
0.405325
0.405375
0.405424
0.405474
0.405474
0.405524
0.405573
0.405623
0.405672
0.405672
0.405722
0.405772
0.405821
0.405871
0.405871
0.405921
0.405971
0.406021
0.406071
0.406071
0.40612
0.40617
0.40622
0.40627
0.40627
0.40632
0.40637
0.40642
0.406471
0.406471
0.406521
0.406571
0.406621
0.406671
0.406671
0.406721
0.406772
0.406822
0.406872
0.406872
0.406923
0.406973
0.407024
0.407074
0.407074
0.407124
0.407175
0.407225
0.407276
0.407276
0.407327
0.407377
0.407428
0.407479
0.407479
0.407529
0.40758
0.407631
0.407682
0.407682
0.407732
0.407783
0.407834
0.407885
0.407885
0.407936
0.407987
0.408038
0.408089
0.408089
0.40814
0.408191
0.408242
0.408293
0.408293
0.408344
0.408396
0.408447
0.408498
0.408498
0.408549
0.408601
0.408652
0.408703
0.408703
0.408755
0.408806
0.408857
0.408909
0.408909
0.40896
0.409012
0.409064
0.409115
0.409115
0.409167
0.409218
0.40927
0.409322
0.409322
0.409373
0.409425
0.409477
0.409529
0.409529
0.409581
0.409633
0.409684
0.409736
0.409736
0.409788
0.40984
0.409892
0.409944
0.409944
0.409996
0.410049
0.410101
0.410153
0.410153
0.410205
0.410257
0.410309
0.410362
0.410362
0.410414
0.410466
0.410519
0.410571
0.410571
0.410624
0.410676
0.410728
0.410781
0.410781
0.410833
0.410886
0.410939
0.410991
0.410991
0.411044
0.411097
0.411149
0.411202
0.411202
0.411255
0.411307
0.41136
0.411413
0.411413
0.411466
0.411519
0.411572
0.411625
0.411625
0.411678
0.411731
0.411784
0.411837
0.411837
0.41189
0.411943
0.411996
0.412049
0.412049
0.412103
0.412156
0.412209
0.412262
0.412262
0.412316
0.412369
0.412423
0.412476
0.412476
0.412529
0.412583
0.412636
0.41269
0.41269
0.412743
0.412797
0.412851
0.412904
0.412904
0.412958
0.413012
0.413065
0.413119
0.413119
0.413173
0.413227
0.41328
0.413334
0.413334
0.413388
0.413442
0.413496
0.41355
0.41355
0.413604
0.413658
0.413712
0.413766
0.413766
0.41382
0.413875
0.413929
0.413983
0.413983
0.414037
0.414091
0.414146
0.4142
0.4142
0.414254
0.414309
0.414363
0.414418
0.414418
0.414472
0.414527
0.414581
0.414636
0.414636
0.41469
0.414745
0.4148
0.414854
0.414854
0.414909
0.414964
0.415018
0.415073
0.415073
0.415128
0.415183
0.415238
0.415293
0.415293
0.415347
0.415402
0.415457
0.415512
0.415512
0.415567
0.415623
0.415678
0.415733
0.415733
0.415788
0.415843
0.415898
0.415953
0.415953
0.416009
0.416064
0.416119
0.416175
0.416175
0.41623
0.416285
0.416341
0.416396
0.416396
0.416452
0.416507
0.416563
0.416619
0.416619
0.416674
0.41673
0.416785
0.416841
0.416841
0.416897
0.416953
0.417008
0.417064
0.417064
0.41712
0.417176
0.417232
0.417288
0.417288
0.417344
0.4174
0.417456
0.417512
0.417512
0.417568
0.417624
0.41768
0.417736
0.417736
0.417792
0.417848
0.417905
0.417961
0.417961
0.418017
0.418073
0.41813
0.418186
0.418186
0.418243
0.418299
0.418356
0.418412
0.418412
0.418469
0.418525
0.418582
0.418638
0.418638
0.418695
0.418752
0.418808
0.418865
0.418865
0.418922
0.418978
0.419035
0.419092
0.419092
0.419149
0.419206
0.419263
0.41932
0.41932
0.419377
0.419434
0.419491
0.419548
0.419548
0.419605
0.419662
0.419719
0.419776
0.419776
0.419833
0.419891
0.419948
0.420005
0.420005
0.420063
0.42012
0.420177
0.420235
0.420235
0.420292
0.420349
0.420407
0.420464
0.420464
0.420522
0.42058
0.420637
0.420695
0.420695
0.420752
0.42081
0.420868
0.420926
0.420926
0.420983
0.421041
0.421099
0.421157
0.421157
0.421215
0.421273
0.421331
0.421389
0.421389
0.421447
0.421505
0.421563
0.421621
0.421621
0.421679
0.421737
0.421795
0.421853
0.421853
0.421912
0.42197
0.422028
0.422086
0.422086
0.422145
0.422203
0.422261
0.42232
0.42232
0.422378
0.422437
0.422495
0.422554
0.422554
0.422612
0.422671
0.42273
0.422788
0.422788
0.422847
0.422906
0.422964
0.423023
0.423023
0.423082
0.423141
0.4232
0.423259
0.423259
0.423317
0.423376
0.423435
0.423494
0.423494
0.423553
0.423612
0.423671
0.423731
0.423731
0.42379
0.423849
0.423908
0.423967
0.423967
0.424027
0.424086
0.424145
0.424204
0.424204
0.424264
0.424323
0.424383
0.424442
0.424442
0.424502
0.424561
0.424621
0.42468
0.42468
0.42474
0.424799
0.424859
0.424919
0.424919
0.424978
0.425038
0.425098
0.425158
0.425158
0.425217
0.425277
0.425337
0.425397
0.425397
0.425457
0.425517
0.425577
0.425637
0.425637
0.425697
0.425757
0.425817
0.425877
0.425877
0.425937
0.425998
0.426058
0.426118
0.426118
0.426178
0.426239
0.426299
0.426359
0.426359
0.42642
0.42648
0.426541
0.426601
0.426601
0.426662
0.426722
0.426783
0.426843
0.426843
0.426904
0.426964
0.427025
0.427086
0.427086
0.427147
0.427207
0.427268
0.427329
0.427329
0.42739
0.427451
0.427512
0.427572
0.427572
0.427633
0.427694
0.427755
0.427816
0.427816
0.427877
0.427939
0.428
0.428061
0.428061
0.428122
0.428183
0.428244
0.428306
0.428306
0.428367
0.428428
0.42849
0.428551
0.428551
0.428613
0.428674
0.428735
0.428797
0.428797
0.428858
0.42892
0.428982
0.429043
0.429043
0.429105
0.429166
0.429228
0.42929
0.42929
0.429352
0.429413
0.429475
0.429537
0.429537
0.429599
0.429661
0.429723
0.429785
0.429785
0.429847
0.429909
0.429971
0.430033
0.430033
0.430095
0.430157
0.430219
0.430281
0.430281
0.430343
0.430406
0.430468
0.43053
0.43053
0.430593
0.430655
0.430717
0.43078
0.43078
0.430842
0.430905
0.430967
0.43103
0.43103
0.431092
0.431155
0.431217
0.43128
0.43128
0.431343
0.431405
0.431468
0.431531
0.431531
0.431594
0.431656
0.431719
0.431782
0.431782
0.431845
0.431908
0.431971
0.432034
0.432034
0.432097
0.43216
0.432223
0.432286
0.432286
0.432349
0.432412
0.432475
0.432539
0.432539
0.432602
0.432665
0.432728
0.432792
0.432792
0.432855
0.432918
0.432982
0.433045
0.433045
0.433109
0.433172
0.433236
0.433299
0.433299
0.433363
0.433426
0.43349
0.433554
0.433554
0.433617
0.433681
0.433745
0.433809
0.433809
0.433872
0.433936
0.434
0.434064
0.434064
0.434128
0.434192
0.434256
0.43432
0.43432
0.434384
0.434448
0.434512
0.434576
0.434576
0.43464
0.434704
0.434768
0.434833
0.434833
0.434897
0.434961
0.435026
0.43509
0.43509
0.435154
0.435219
0.435283
0.435348
0.435348
0.435412
0.435477
0.435541
0.435606
0.435606
0.43567
0.435735
0.435799
0.435864
0.435864
0.435929
0.435994
0.436058
0.436123
0.436123
0.436188
0.436253
0.436318
0.436383
0.436383
0.436448
0.436513
0.436578
0.436643
0.436643
0.436708
0.436773
0.436838
0.436903
0.436903
0.436968
0.437033
0.437098
0.437164
0.437164
0.437229
0.437294
0.43736
0.437425
0.437425
0.43749
0.437556
0.437621
0.437687
0.437687
0.437752
0.437818
0.437883
0.437949
0.437949
0.438015
0.43808
0.438146
0.438212
0.438212
0.438277
0.438343
0.438409
0.438475
0.438475
0.43854
0.438606
0.438672
0.438738
0.438738
0.438804
0.43887
0.438936
0.439002
0.439002
0.439068
0.439134
0.439201
0.439267
0.439267
0.439333
0.439399
0.439465
0.439532
0.439532
0.439598
0.439664
0.439731
0.439797
0.439797
0.439863
0.43993
0.439996
0.440063
0.440063
0.440129
0.440196
0.440262
0.440329
0.440329
0.440396
0.440462
0.440529
0.440596
0.440596
0.440663
0.440729
0.440796
0.440863
0.440863
0.44093
0.440997
0.441064
0.441131
0.441131
0.441198
0.441265
0.441332
0.441399
0.441399
0.441466
0.441533
0.4416
0.441667
0.441667
0.441735
0.441802
0.441869
0.441936
0.441936
0.442004
0.442071
0.442138
0.442206
0.442206
0.442273
0.442341
0.442408
0.442476
0.442476
0.442543
0.442611
0.442678
0.442746
0.442746
0.442814
0.442881
0.442949
0.443017
0.443017
0.443085
0.443153
0.44322
0.443288
0.443288
0.443356
0.443424
0.443492
0.44356
0.44356
0.443628
0.443696
0.443764
0.443832
0.443832
0.4439
0.443968
0.444037
0.444105
0.444105
0.444173
0.444241
0.44431
0.444378
0.444378
0.444446
0.444515
0.444583
0.444652
0.444652
0.44472
0.444789
0.444857
0.444926
0.444926
0.444994
0.445063
0.445131
0.4452
0.4452
0.445269
0.445338
0.445406
0.445475
0.445475
0.445544
0.445613
0.445682
0.44575
0.44575
0.445819
0.445888
0.445957
0.446026
0.446026
0.446095
0.446164
0.446233
0.446303
0.446303
0.446372
0.446441
0.44651
0.446579
0.446579
0.446649
0.446718
0.446787
0.446857
0.446857
0.446926
0.446995
0.447065
0.447134
0.447134
0.447204
0.447273
0.447343
0.447412
0.447412
0.447482
0.447552
0.447621
0.447691
0.447691
0.447761
0.44783
0.4479
0.44797
0.44797
0.44804
0.44811
0.44818
0.44825
0.44825
0.44832
0.448389
0.448459
0.44853
0.44853
0.4486
0.44867
0.44874
0.44881
0.44881
0.44888
0.44895
0.449021
0.449091
0.449091
0.449161
0.449231
0.449302
0.449372
0.449372
0.449443
0.449513
0.449583
0.449654
0.449654
0.449724
0.449795
0.449866
0.449936
0.449936
0.450007
0.450077
0.450148
0.450219
0.450219
0.45029
0.45036
0.450431
0.450502
0.450502
0.450573
0.450644
0.450715
0.450786
0.450786
0.450857
0.450928
0.450999
0.45107
0.45107
0.451141
0.451212
0.451283
0.451354
0.451354
0.451425
0.451497
0.451568
0.451639
0.451639
0.451711
0.451782
0.451853
0.451925
0.451925
0.451996
0.452068
0.452139
0.452211
0.452211
0.452282
0.452354
0.452425
0.452497
0.452497
0.452569
0.45264
0.452712
0.452784
0.452784
0.452856
0.452927
0.452999
0.453071
0.453071
0.453143
0.453215
0.453287
0.453359
0.453359
0.453431
0.453503
0.453575
0.453647
0.453647
0.453719
0.453791
0.453863
0.453936
0.453936
0.454008
0.45408
0.454152
0.454225
0.454225
0.454297
0.454369
0.454442
0.454514
0.454514
0.454587
0.454659
0.454732
0.454804
0.454804
0.454877
0.454949
0.455022
0.455095
0.455095
0.455167
0.45524
0.455313
0.455386
0.455386
0.455458
0.455531
0.455604
0.455677
0.455677
0.45575
0.455823
0.455896
0.455969
0.455969
0.456042
0.456115
0.456188
0.456261
0.456261
0.456334
0.456408
0.456481
0.456554
0.456554
0.456627
0.456701
0.456774
0.456847
0.456847
0.456921
0.456994
0.457067
0.457141
0.457141
0.457214
0.457288
0.457361
0.457435
0.457435
0.457509
0.457582
0.457656
0.45773
0.45773
0.457803
0.457877
0.457951
0.458025
0.458025
0.458099
0.458172
0.458246
0.45832
0.45832
0.458394
0.458468
0.458542
0.458616
0.458616
0.45869
0.458764
0.458838
0.458913
0.458913
0.458987
0.459061
0.459135
0.45921
0.45921
0.459284
0.459358
0.459432
0.459507
0.459507
0.459581
0.459656
0.45973
0.459805
0.459805
0.459879
0.459954
0.460028
0.460103
0.460103
0.460178
0.460252
0.460327
0.460402
0.460402
0.460476
0.460551
0.460626
0.460701
0.460701
0.460776
0.460851
0.460926
0.461
0.461
0.461075
0.46115
0.461226
0.461301
0.461301
0.461376
0.461451
0.461526
0.461601
0.461601
0.461676
0.461752
0.461827
0.461902
0.461902
0.461978
0.462053
0.462128
0.462204
0.462204
0.462279
0.462355
0.46243
0.462506
0.462506
0.462581
0.462657
0.462732
0.462808
0.462808
0.462884
0.462959
0.463035
0.463111
0.463111
0.463187
0.463262
0.463338
0.463414
0.463414
0.46349
0.463566
0.463642
0.463718
0.463718
0.463794
0.46387
0.463946
0.464022
0.464022
0.464098
0.464175
0.464251
0.464327
0.464327
0.464403
0.464479
0.464556
0.464632
0.464632
0.464708
0.464785
0.464861
0.464938
0.464938
0.465014
0.465091
0.465167
0.465244
0.465244
0.46532
0.465397
0.465474
0.46555
0.46555
0.465627
0.465704
0.465781
0.465857
0.465857
0.465934
0.466011
0.466088
0.466165
0.466165
0.466242
0.466319
0.466396
0.466473
0.466473
0.46655
0.466627
0.466704
0.466781
0.466781
0.466858
0.466935
0.467013
0.46709
0.46709
0.467167
0.467245
0.467322
0.467399
0.467399
0.467477
0.467554