<?xml version="1.0"?>
<VTKFile type="UnstructuredGrid" version="0.1" byte_order="LittleEndian">
<UnstructuredGrid>
<Piece NumberOfPoints="5000" NumberOfCells="4000">
<PointData Scalars="Reaction 0">
<DataArray type="Float32" Name="Reaction 0" format="ascii">
0.533573
0.533573
0.533573
0.533573
0.533573
0.533573
0.533574
0.533574
0.533574
0.533575
0.533575
0.533575
0.533576
0.533576
0.533577
0.533577
0.533578
0.533579
0.53358
0.53358
0.53358
0.533581
0.533582
0.533584
0.533585
0.533585
0.533586
0.533587
0.533589
0.53359
0.53359
0.533591
0.533593
0.533595
0.533596
0.533596
0.533598
0.5336
0.533601
0.533603
0.533603
0.533605
0.533607
0.533609
0.533611
0.533611
0.533614
0.533616
0.533618
0.53362
0.53362
0.533623
0.533625
0.533628
0.53363
0.53363
0.533633
0.533636
0.533639
0.533641
0.533641
0.533644
0.533647
0.53365
0.533653
0.533653
0.533656
0.53366
0.533663
0.533666
0.533666
0.53367
0.533673
0.533676
0.53368
0.53368
0.533684
0.533687
0.533691
0.533695
0.533695
0.533699
0.533702
0.533706
0.53371
0.53371
0.533715
0.533719
0.533723
0.533727
0.533727
0.533731
0.533736
0.53374
0.533745
0.533745
0.533749
0.533754
0.533759
0.533763
0.533763
0.533768
0.533773
0.533778
0.533783
0.533783
0.533788
0.533793
0.533798
0.533803
0.533803
0.533809
0.533814
0.533819
0.533825
0.533825
0.53383
0.533836
0.533842
0.533847
0.533847
0.533853
0.533859
0.533865
0.533871
0.533871
0.533877
0.533883
0.533889
0.533895
0.533895
0.533901
0.533907
0.533914
0.53392
0.53392
0.533927
0.533933
0.53394
0.533946
0.533946
0.533953
0.53396
0.533967
0.533974
0.533974
0.533981
0.533988
0.533995
0.534002
0.534002
0.534009
0.534016
0.534024
0.534031
0.534031
0.534038
0.534046
0.534053
0.534061
0.534061
0.534069
0.534076
0.534084
0.534092
0.534092
0.5341
0.534108
0.534116
0.534124
0.534124
0.534132
0.53414
0.534149
0.534157
0.534157
0.534165
0.534174
0.534182
0.534191
0.534191
0.534199
0.534208
0.534217
0.534226
0.534226
0.534235
0.534243
0.534252
0.534262
0.534262
0.534271
0.53428
0.534289
0.534298
0.534298
0.534308
0.534317
0.534327
0.534336
0.534336
0.534346
0.534355
0.534365
0.534375
0.534375
0.534385
0.534394
0.534404
0.534414
0.534414
0.534425
0.534435
0.534445
0.534455
0.534455
0.534465
0.534476
0.534486
0.534497
0.534497
0.534507
0.534518
0.534529
0.534539
0.534539
0.53455
0.534561
0.534572
0.534583
0.534583
0.534594
0.534605
0.534616
0.534627
0.534627
0.534639
0.53465
0.534661
0.534673
0.534673
0.534684
0.534696
0.534708
0.534719
0.534719
0.534731
0.534743
0.534755
0.534767
0.534767
0.534779
0.534791
0.534803
0.534815
0.534815
0.534827
0.53484
0.534852
0.534864
0.534864
0.534877
0.534889
0.534902
0.534915
0.534915
0.534927
0.53494
0.534953
0.534966
0.534966
0.534979
0.534992
0.535005
0.535018
0.535018
0.535031
0.535045
0.535058
0.535071
0.535071
0.535085
0.535098
0.535112
0.535126
0.535126
0.535139
0.535153
0.535167
0.535181
0.535181
0.535195
0.535209
0.535223
0.535237
0.535237
0.535251
0.535265
0.53528
0.535294
0.535294
0.535309
0.535323
0.535338
0.535352
0.535352
0.535367
0.535382
0.535396
0.535411
0.535411
0.535426
0.535441
0.535456
0.535471
0.535471
0.535487
0.535502
0.535517
0.535532
0.535532
0.535548
0.535563
0.535579
0.535594
0.535594
0.53561
0.535626
0.535642
0.535657
0.535657
0.535673
0.535689
0.535705
0.535721
0.535721
0.535738
0.535754
0.53577
0.535786
0.535786
0.535803
0.535819
0.535836
0.535852
0.535852
0.535869
0.535886
0.535902
0.535919
0.535919
0.535936
0.535953
0.53597
0.535987
0.535987
0.536004
0.536022
0.536039
0.536056
0.536056
0.536074
0.536091
0.536108
0.536126
0.536126
0.536144
0.536161
0.536179
0.536197
0.536197
0.536215
0.536233
0.536251
0.536269
0.536269
0.536287
0.536305
0.536323
0.536342
0.536342
0.53636
0.536378
0.536397
0.536416
0.536416
0.536434
0.536453
0.536472
0.53649
0.53649
0.536509
0.536528
0.536547
0.536566
0.536566
0.536585
0.536605
0.536624
0.536643
0.536643
0.536662
0.536682
0.536701
0.536721
0.536721
0.536741
0.53676
0.53678
0.5368
0.5368
0.53682
0.53684
0.53686
0.53688
0.53688
0.5369
0.53692
0.53694
0.53696
0.53696
0.536981
0.537001
0.537022
0.537042
0.537042
0.537063
0.537084
0.537104
0.537125
0.537125
0.537146
0.537167
0.537188
0.537209
0.537209
0.53723
0.537251
0.537272
0.537294
0.537294
0.537315
0.537337
0.537358
0.53738
0.53738
0.537401
0.537423
0.537445
0.537466
0.537466
0.537488
0.53751
0.537532
0.537554
0.537554
0.537576
0.537599
0.537621
0.537643
0.537643
0.537666
0.537688
0.537711
0.537733
0.537733
0.537756
0.537778
0.537801
0.537824
0.537824
0.537847
0.53787
0.537893
0.537916
0.537916
0.537939
0.537962
0.537985
0.538009
0.538009
0.538032
0.538056
0.538079
0.538103
0.538103
0.538126
0.53815
0.538174
0.538198
0.538198
0.538222
0.538246
0.53827
0.538294
0.538294
0.538318
0.538342
0.538366
0.538391
0.538391
0.538415
0.53844
0.538464
0.538489
0.538489
0.538513
0.538538
0.538563
0.538588
0.538588
0.538613
0.538638
0.538663
0.538688
0.538688
0.538713
0.538738
0.538764
0.538789
0.538789
0.538814
0.53884
0.538865
0.538891
0.538891
0.538917
0.538942
0.538968
0.538994
0.538994
0.53902
0.539046
0.539072
0.539098
0.539098
0.539125
0.539151
0.539177
0.539204
0.539204
0.53923
0.539257
0.539283
0.53931
0.53931
0.539337
0.539363
0.53939
0.539417
0.539417
0.539444
0.539471
0.539498
0.539525
0.539525
0.539553
0.53958
0.539607
0.539635
0.539635
0.539662
0.53969
0.539718
0.539745
0.539745
0.539773
0.539801
0.539829
0.539857
0.539857
0.539885
0.539913
0.539941
0.539969
0.539969
0.539997
0.540026
0.540054
0.540083
0.540083
0.540111
0.54014
0.540169
0.540197
0.540197
0.540226
0.540255
0.540284
0.540313
0.540313
0.540342
0.540371
0.5404
0.54043
0.54043
0.540459
0.540488
0.540518
0.540547
0.540547
0.540577
0.540607
0.540636
0.540666
0.540666
0.540696
0.540726
0.540756
0.540786
0.540786
0.540816
0.540846
0.540877
0.540907
0.540907
0.540937
0.540968
0.540998
0.541029
0.541029
0.54106
0.54109
0.541121
0.541152
0.541152
0.541183
0.541214
0.541245
0.541276
0.541276
0.541307
0.541338
0.54137
0.541401
0.541401
0.541433
0.541464
0.541496
0.541527
0.541527
0.541559
0.541591
0.541623
0.541655
0.541655
0.541687
0.541719
0.541751
0.541783
0.541783
0.541815
0.541848
0.54188
0.541913
0.541913
0.541945
0.541978
0.54201
0.542043
0.542043
0.542076
0.542109
0.542142
0.542175
0.542175
0.542208
0.542241
0.542274
0.542307
0.542307
0.542341
0.542374
0.542408
0.542441
0.542441
0.542475
0.542508
0.542542
0.542576
0.542576
0.54261
0.542644
0.542678
0.542712
0.542712
0.542746
0.54278
0.542815
0.542849
0.542849
0.542883
0.542918
0.542952
0.542987
0.542987
0.543022
0.543057
0.543091
0.543126
0.543126
0.543161
0.543196
0.543231
0.543267
0.543267
0.543302
0.543337
0.543373
0.543408
0.543408
0.543443
0.543479
0.543515
0.54355
0.54355
0.543586
0.543622
0.543658
0.543694
0.543694
0.54373
0.543766
0.543803
0.543839
0.543839
0.543875
0.543912
0.543948
0.543985
0.543985
0.544021
0.544058
0.544095
0.544132
0.544132
0.544168
0.544205
0.544242
0.54428
0.54428
0.544317
0.544354
0.544391
0.544429
0.544429
0.544466
0.544504
0.544541
0.544579
0.544579
0.544617
0.544655
0.544692
0.54473
0.54473
0.544768
0.544807
0.544845
0.544883
0.544883
0.544921
0.54496
0.544998
0.545037
0.545037
0.545075
0.545114
0.545153
0.545191
0.545191
0.54523
0.545269
0.545308
0.545347
0.545347
0.545386
0.545426
0.545465
0.545504
0.545504
0.545544
0.545583
0.545623
0.545662
0.545662
0.545702
0.545742
0.545782
0.545822
0.545822
0.545862
0.545902
0.545942
0.545982
0.545982
0.546023
0.546063
0.546103
0.546144
0.546144
0.546184
0.546225
0.546266
0.546307
0.546307
0.546347
0.546388
0.546429
0.54647
0.54647
0.546512
0.546553
0.546594
0.546635
0.546635
0.546677
0.546718
0.54676
0.546802
0.546802
0.546843
0.546885
0.546927
0.546969
0.546969
0.547011
0.547053
0.547095
0.547138
0.547138
0.54718
0.547222
0.547265
0.547307
0.547307
0.54735
0.547392
0.547435
0.547478
0.547478
0.547521
0.547564
0.547607
0.54765
0.54765
0.547693
0.547736
0.54778
0.547823
0.547823
0.547867
0.54791
0.547954
0.547998
0.547998
0.548041
0.548085
0.548129
0.548173
0.548173
0.548217
0.548261
0.548305
0.54835
0.54835
0.548394
0.548439
0.548483
0.548528
0.548528
0.548572
0.548617
0.548662
0.548707
0.548707
0.548752
0.548797
0.548842
0.548887
0.548887
0.548932
0.548978
0.549023
0.549068
0.549068
0.549114
0.54916
0.549205
0.549251
0.549251
0.549297
0.549343
0.549389
0.549435
0.549435
0.549481
0.549527
0.549574
0.54962
0.54962
0.549666
0.549713
0.54976
0.549806
0.549806
0.549853
0.5499
0.549947
0.549994
0.549994
0.550041
0.550088
0.550135
0.550182
0.550182
0.55023
0.550277
0.550325
0.550372
0.550372
0.55042
0.550468
0.550516
0.550563
0.550563
0.550611
0.550659
0.550708
0.550756
0.550756
0.550804
0.550852
0.550901
0.550949
0.550949
0.550998
0.551047
0.551095
0.551144
0.551144
0.551193
0.551242
0.551291
0.55134
0.55134
0.551389
0.551439
0.551488
0.551537
0.551537
0.551587
0.551637
0.551686
0.551736
0.551736
0.551786
0.551836
0.551886
0.551936
0.551936
0.551986
0.552036
0.552086
0.552137
0.552137
0.552187
0.552238
0.552288
0.552339
0.552339
0.55239
0.552441
0.552491
0.552542
0.552542
0.552594
0.552645
0.552696
0.552747
0.552747
0.552799
0.55285
0.552902
0.552953
0.552953
0.553005
0.553057
0.553109
0.553161
0.553161
0.553213
0.553265
0.553317
0.553369
0.553369
0.553421
0.553474
0.553526
0.553579
0.553579
0.553632
0.553684
0.553737
0.55379
0.55379
0.553843
0.553896
0.553949
0.554002
0.554002
0.554056
0.554109
0.554163
0.554216
0.554216
0.55427
0.554323
0.554377
0.554431
0.554431
0.554485
0.554539
0.554593
0.554647
0.554647
0.554702
0.554756
0.55481
0.554865
0.554865
0.55492
0.554974
0.555029
0.555084
0.555084
0.555139
0.555194
0.555249
0.555304
0.555304
0.555359
0.555415
0.55547
0.555526
0.555526
0.555581
0.555637
0.555692
0.555748
0.555748
0.555804
0.55586
0.555916
0.555972
0.555972
0.556029
0.556085
0.556141
0.556198
0.556198
0.556254
0.556311
0.556368
0.556425
0.556425
0.556482
0.556539
0.556596
0.556653
0.556653
0.55671
0.556767
0.556825
0.556882
0.556882
0.55694
0.556997
0.557055
0.557113
0.557113
0.557171
0.557229
0.557287
0.557345
0.557345
0.557403
0.557462
0.55752
0.557579
0.557579
0.557637
0.557696
0.557755
0.557813
0.557813
0.557872
0.557931
0.55799
0.55805
0.55805
0.558109
0.558168
0.558228
0.558287
0.558287
0.558347
0.558407
0.558466
0.558526
0.558526
0.558586
0.558646
0.558706
0.558766
0.558766
0.558827
0.558887
0.558948
0.559008
0.559008
0.559069
0.559129
0.55919
0.559251
0.559251
0.559312
0.559373
0.559434
0.559495
0.559495
0.559556
0.559616
0.559676
0.559736
0.559736
0.559795
0.559851
0.559902
0.559951
0.559951
0.559987
0.560015
0.560035
0.560048
0.560048
0.560061
0.560075
0.560088
0.560101
0.560101
0.560114
0.560126
0.560139
0.560152
0.560152
0.560165
0.560179
0.560192
0.560205
0.560205
0.560218
0.560231
0.560244
0.560257
0.560257
0.56027
0.560283
0.560296
0.560309
0.560309
0.560323
0.560336
0.560349
0.560362
0.560362
0.560375
0.560388
0.560402
0.560415
0.560415
0.560428
0.560441
0.560454
0.560468
0.560468
0.560481
0.560494
0.560507
0.560519
0.560519
0.560532
0.560543
0.560554
0.560564
0.560564
0.560571
0.560576
0.560578
0.560579
0.560579
0.560579
0.560578
0.560578
0.560577
0.560577
0.560577
0.560576
0.560575
0.560574
0.560574
0.560574
0.560573
0.560572
0.560571
0.560571
0.560571
0.56057
0.560569
0.560568
0.560568
0.560567
0.560567
0.560566
0.560565
0.560565
0.560564
0.560563
0.560562
0.560561
0.560561
0.56056
0.56056
0.560559
0.560558
0.560558
0.560557
0.560556
0.560555
0.560554
0.560554
0.560553
0.560552
0.560551
0.56055
0.56055
0.560549
0.560548
0.560547
0.560546
0.560546
0.560545
0.560544
0.560543
0.560542
0.560542
0.56054
0.560539
0.560538
0.560537
0.560537
0.560535
0.560534
0.560533
0.560531
0.560531
0.56053
0.560529
0.560528
0.560526
0.560526
0.560525
0.560524
0.560523
0.560521
0.560521
0.56052
0.560519
0.560518
0.560516
0.560516
0.560515
0.560514
0.560513
0.560511
0.560511
0.56051
0.560509
0.560508
0.560506
0.560506
0.560505
0.560504
0.560503
0.560501
0.560501
0.5605
0.560499
0.560498
0.560497
0.560497
0.560496
0.560496
0.560495
0.560495
0.560495
0.560495
0.560494
0.560494
0.560494
0.560494
0.560493
0.560493
0.560493
0.560492
0.560492
0.560492
0.560492
0.560491
0.560491
0.560491
0.560491
0.56049
0.56049
0.56049
0.56049
0.560489
0.560489
0.560489
0.560488
0.560488
0.560488
0.560488
0.560487
0.560487
0.560487
0.560487
0.560486
0.560486
0.560486
0.560486
0.560486
0.560485
0.560485
0.560485
0.560485
0.560484
0.560484
0.560484
0.560484
0.560484
0.560484
0.560484
0.560483
0.560483
0.560483
0.560483
0.560483
0.560483
0.560483
0.560483
0.560483
0.560483
0.560483
0.560483
0.560483
0.560483
0.560483
0.560483
0.560483
0.560483
0.560483
0.560483
0.560483
0.560483
0.560483
0.560483
0.560483
0.560483
0.560483
0.560483
0.560483
0.560483
0.560483
0.560483
0.560483
0.560483
0.560483
0.560483
0.560483
0.560483
0.560483
0.560483
0.560483
0.560483
0.560483
0.560483
0.560483
0.560483
0.560483
0.560483
0.560483
0.560483
0.560483
0.560483
0.560483
0.560483
0.560483
0.560483
0.560483
0.560483
0.560482
0.560482
0.560482
0.560482
0.560482
0.560482
0.560482
0.560482
0.560482
0.560482
0.560482
0.560482
0.560482
0.560482
0.560482
0.560482
0.560482
0.560482
0.560482
0.560482
0.560482
0.560482
0.560482
0.560482
0.560482
0.560482
0.560482
0.560482
0.560482
0.560482
0.560482
0.560482
0.560482
0.560482
0.560482
0.560482
0.560482
0.560482
0.560482
0.560482
0.560482
0.560482
0.560482
0.560482
0.560482
0.560482
0.560482
0.560482
0.560482
0.560482
0.560482
0.560482
0.560482
0.560482
0.560482
0.560482
0.560482
0.560482
0.560482
0.560482
0.560482
0.560482
0.560482
0.560482
0.560482
0.560482
0.560482
0.560481
0.560481
0.560481
0.560481
0.560481
0.560481
0.560481
0.560481
0.560481
0.560481
0.560481
0.560481
0.560481
0.560481
0.560481
0.560481
0.560481
0.560481
0.560481
0.560481
0.560481
0.560481
0.560481
0.560481
0.560481
0.560481
0.560481
0.560481
0.560481
0.560481
0.560481
0.560481
0.560481
0.560481
0.560481
0.560481
0.560481
0.560481
0.560481
0.560481
0.560481
0.560481
0.560481
0.56048
0.56048
0.56048
0.56048
0.56048
0.56048
0.56048
0.56048
0.56048
0.56048
0.56048
0.56048
0.56048
0.56048
0.56048
0.56048
0.56048
0.56048
0.56048
0.56048
0.56048
0.56048
0.56048
0.56048
0.56048
0.56048
0.56048
0.56048
0.56048
0.56048
0.56048
0.56048
0.56048
0.56048
0.56048
0.56048
0.56048
0.56048
0.56048
0.56048
0.56048
0.56048
0.560479
0.560479
0.560479
0.560479
0.560479
0.560479
0.560479
0.560479
0.560479
0.560479
0.560479
0.560479
0.560479
0.560479
0.560479
0.560479
0.560479
0.560479
0.560479
0.560479
0.560479
0.560479
0.560479
0.560479
0.560479
0.560479
0.560479
0.560479
0.560479
0.560479
0.560479
0.560479
0.560479
0.560479
0.560479
0.560479
0.560479
0.560479
0.560479
0.560479
0.560479
0.560479
0.560479
0.560479
0.560479
0.560478
0.560478
0.560478
0.560478
0.560478
0.560478
0.560478
0.560478
0.560478
0.560478
0.560478
0.560478
0.560478
0.560478
0.560478
0.560478
0.560478
0.560478
0.560478
0.560478
0.560478
0.560478
0.560478
0.560478
0.560478
0.560478
0.560478
0.560478
0.560478
0.560478
0.560478
0.560478
0.560478
0.560478
0.560478
0.560478
0.560478
0.560478
0.560478
0.560478
0.560478
0.560478
0.560478
0.560478
0.560478
0.560478
0.560478
0.560478
0.560478
0.560478
0.560477
0.560477
0.560477
0.560477
0.560477
0.560477
0.560477
0.560477
0.560477
0.560477
0.560477
0.560477
0.560477
0.560477
0.560477
0.560477
0.560477
0.560477
0.560477
0.560477
0.560477
0.560477
0.560477
0.560477
0.560477
0.560477
0.560477
0.560477
0.560477
0.560477
0.560477
0.560477
0.560477
0.560477
0.560477
0.560477
0.560477
0.560477
0.560477
0.560477
0.560477
0.560477
0.560477
0.560477
0.560477
0.560477
0.560477
0.560477
0.560477
0.560477
0.560477
0.560477
0.560477
0.560477
0.560477
0.560477
0.560476
0.560476
0.560476
0.560476
0.560476
0.560476
0.560476
0.560476
0.560476
0.560476
0.560476
0.560476
0.560476
0.560476
0.560476
0.560476
0.560476
0.560476
0.560476
0.560476
0.560476
0.560476
0.560476
0.560476
0.560476
0.560476
0.560476
0.560476
0.560476
0.560476
0.560476
0.560476
0.560476
0.560476
0.560476
0.560476
0.560476
0.560476
0.560476
0.560476
0.560476
0.560476
0.560476
0.560476
0.560476
0.560476
0.560476
0.560476
0.560476
0.560476
0.560476
0.560476
0.560476
0.560476
0.560476
0.560476
0.560476
0.560476
0.560476
0.560476
0.560476
0.560476
0.560475
0.560475
0.560475
0.560475
0.560475
0.560475
0.560475
0.560475
0.560475
0.560475
0.560475
0.560475
0.560475
0.560475
0.560475
0.560475
0.560475
0.560475
0.560475
0.560475
0.560475
0.560475
0.560475
0.560475
0.560475
0.560475
0.560475
0.560475
0.560475
0.560475
0.560475
0.560475
0.560475
0.560475
0.560475
0.560475
0.560475
0.560475
0.560475
0.560475
0.560475
0.560475
0.560475
0.560475
0.560475
0.560475
0.560475
0.560475
0.560475
0.560475
0.560475
0.560475
0.560475
0.560475
0.560475
0.560475
0.560475
0.560475
0.560475
0.560475
0.560475
0.560475
0.560475
0.560475
0.560475
0.560475
0.560475
0.560475
0.560475
0.560475
0.560475
0.560475
0.560474
0.560474
0.560474
0.560474
0.560474
0.560474
0.560474
0.560474
0.560474
0.560474
0.560474
0.560474
0.560474
0.560474
0.560474
0.560474
0.560474
0.560474
0.560474
0.560474
0.560474
0.560474
0.560474
0.560474
0.560474
0.560474
0.560474
0.560474
0.560474
0.560474
0.560474
0.560474
0.560474
0.560474
0.560474
0.560474
0.560474
0.560474
0.560474
0.560474
0.560474
0.560474
0.560474
0.560474
0.560474
0.560474
0.560474
0.560474
0.560474
0.560474
0.560474
0.560474
0.560474
0.560474
0.560474
0.560474
0.560474
0.560474
0.560474
0.560474
0.560474
0.560474
0.560474
0.560474
0.560474
0.560474
0.560474
0.560474
0.560474
0.560474
0.560474
0.560474
0.560474
0.560474
0.560474
0.560474
0.560474
0.560474
0.560474
0.560474
0.560474
0.560474
0.560474
0.560474
0.560474
0.560474
0.560474
0.560474
0.560474
0.560474
0.560473
0.560473
0.560473
0.560473
0.560473
0.560473
0.560473
0.560473
0.560473
0.560473
0.560473
0.560473
0.560473
0.560473
0.560473
0.560473
0.560473
0.560473
0.560473
0.560473
0.560473
0.560473
0.560473
0.560473
0.560473
0.560473
0.560473
0.560473
0.560473
0.560473
0.560473
0.560473
0.560473
0.560473
0.560473
0.560473
0.560473
0.560473
0.560473
0.560473
0.560473
0.560473
0.560473
0.560473
0.560473
0.560473
0.560473
0.560473
0.560473
0.560473
0.560473
0.560473
0.560473
0.560473
0.560473
0.560473
0.560473
0.560473
0.560473
0.560473
0.560473
0.560473
0.560473
0.560473
0.560473
0.560473
0.560473
0.560473
0.560473
0.560473
0.560473
0.560473
0.560473
0.560473
0.560473
0.560473
0.560473
0.560473
0.560473
0.560473
0.560473
0.560473
0.560473
0.560473
0.560473
0.560473
0.560473
0.560473
0.560473
0.560473
0.560473
0.560473
0.560473
0.560473
0.560473
0.560473
0.560473
0.560473
0.560473
0.560473
0.560473
0.560473
0.560473
0.560473
0.560473
0.560473
0.560473
0.560473
0.560473
0.560473
0.560473
0.560473
0.560473
0.560473
0.560473
0.560473
0.560473
0.560473
0.560473
0.560473
0.560473
0.560473
0.560473
0.560473
0.560473
0.560473
0.560473
0.560473
0.560473
0.560473
0.560473
0.560473
0.560473
0.560473
0.560473
0.560473
0.560473
0.560473
0.560472
0.560472
0.560472
0.560472
0.560472
0.560472
0.560472
0.560472
0.560472
0.560472
0.560472
0.560472
0.560472
0.560472
0.560472
0.560472
0.560472
0.560472
0.560472
0.560472
0.560472
0.560472
0.560472
0.560472
0.560472
0.560472
0.560472
0.560472
0.560472
0.560472
0.560472
0.560472
0.560472
0.560472
0.560472
0.560472
0.560472
0.560472
0.560472
0.560472
0.560472
0.560472
0.560472
0.560472
0.560472
0.560472
0.560472
0.560472
0.560472
0.560472
0.560472
0.560472
0.560472
0.560472
0.560472
0.560472
0.560472
0.560472
0.560472
0.560472
0.560472
0.560472
0.560472
0.560472
0.560472
0.560472
0.560472
0.560472
0.560472
0.560472
0.560472
0.560472
0.560472
0.560472
0.560472
0.560472
0.560472
0.560472
0.560472
0.560472
0.560472
0.560472
0.560472
0.560472
0.560472
0.560472
0.560472
0.560472
0.560472
0.560472
0.560472
0.560472
0.560472
0.560472
0.560472
0.560472
0.560472
0.560472
0.560472
0.560472
0.560472
0.560472
0.560472
0.560472
0.560472
0.560472
0.560472
0.560472
0.560472
0.560472
0.560472
0.560472
0.560472
0.560472
0.560472
0.560472
0.560472
0.560472
0.560472
0.560472
0.560472
0.560472
0.560472
0.560472
0.560472
0.560472
0.560472
0.560472
0.560472
0.560472
0.560472
0.560472
0.560472
0.560472
0.560472
0.560472
0.560472
0.560472
0.560472
0.560472
0.560472
0.560472
0.560472
0.560472
0.560472
0.560472
0.560472
0.560472
0.560472
0.560472
0.560472
0.560472
0.560472
0.560472
0.560472
0.560472
0.560472
0.560472
0.560472
0.560472
0.560472
0.560472
0.560472
0.560472
0.560472
0.560472
0.560472
0.560472
0.560472
0.560472
0.560472
0.560472
0.560472
0.560472
0.560472
0.560472
0.560472
0.560472
0.560472
0.560472
0.560472
0.560472
0.560472
0.560472
0.560472
0.560472
0.560472
0.560472
0.560472
0.560472
0.560472
0.560472
0.560472
0.560472
0.560472
0.560472
0.560472
0.560472
0.560472
0.560472
0.560472
0.560472
0.560472
0.560472
0.560472
0.560472
0.560472
0.560472
0.560472
0.560472
0.560472
0.560472
0.560472
0.560472
0.560472
0.560472
0.560472
0.560472
0.560472
0.560472
0.560472
0.560472
0.560472
0.560472
0.560472
0.560472
0.560472
0.560472
0.560472
0.560472
0.560472
0.560472
0.560472
0.560472
0.560472
0.560472
0.560472
0.560472
0.560472
0.560472
0.560472
0.560472
0.560472
0.560472
0.560472
0.560472
0.560472
0.560472
0.560472
0.560472
0.560472
0.560472
0.560472
0.560472
0.560472
0.560472
0.560472
0.560472
0.560472
0.560472
0.560472
0.560472
0.560472
0.560472
0.560472
0.560472
0.560472
0.560472
0.560472
0.560472
0.560472
0.560472
0.560472
0.560472
0.560472
0.560472
0.560472
0.560472
0.560472
0.560472
0.560472
0.560472
0.560472
0.560472
0.560472
0.560472
0.560472
0.560473
0.560473
0.560473
0.560473
0.560473
0.560473
0.560473
0.560473
0.560473
0.560473
0.560473
0.560473
0.560473
0.560473
0.560473
0.560473
0.560473
0.560473
0.560473
0.560473
0.560473
0.560473
0.560473
0.560473
0.560473
0.560473
0.560473
0.560473
0.560473
0.560473
0.560473
0.560473
0.560473
0.560473
0.560473
0.560473
0.560473
0.560473
0.560473
0.560473
0.560473
0.560473
0.560473
0.560473
0.560473
0.560473
0.560473
0.560473
0.560473
0.560473
0.560473
0.560473
0.560473
0.560473
0.560473
0.560473
0.560473
0.560473
0.560473
0.560473
0.560473
0.560473
0.560473
0.560473
0.560473
0.560473
0.560473
0.560473
0.560473
0.560473
0.560473
0.560473
0.560473
0.560473
0.560473
0.560473
0.560473
0.560473
0.560473
0.560473
0.560473
0.560473
0.560473
0.560473
0.560473
0.560473
0.560473
0.560473
0.560473
0.560473
0.560473
0.560473
0.560473
0.560473
0.560473
0.560473
0.560473
0.560473
0.560473
0.560473
0.560473
0.560473
0.560473
0.560473
0.560473
0.560473
0.560473
0.560473
0.560473
0.560473
0.560473
0.560473
0.560473
0.560473
0.560473
0.560473
0.560473
0.560473
0.560473
0.560473
0.560473
0.560473
0.560473
0.560473
0.560473
0.560473
0.560473
0.560473
0.560473
0.560473
0.560473
0.560473
0.560473
0.560473
0.560473
0.560473
0.560473
0.560473
0.560473
0.560474
0.560474
0.560474
0.560474
0.560474
0.560474
0.560474
0.560474
0.560474
0.560474
0.560474
0.560474
0.560474
0.560474
0.560474
0.560474
0.560474
0.560474
0.560474
0.560474
0.560474
0.560474
0.560474
0.560474
0.560474
0.560474
0.560474
0.560474
0.560474
0.560474
0.560474
0.560474
0.560474
0.560474
0.560474
0.560474
0.560474
0.560474
0.560474
0.560474
0.560474
0.560474
0.560474
0.560474
0.560474
0.560474
0.560474
0.560474
0.560474
0.560474
0.560474
0.560474
0.560474
0.560474
0.560474
0.560474
0.560474
0.560474
0.560474
0.560474
0.560474
0.560474
0.560474
0.560474
0.560474
0.560474
0.560474
0.560474
0.560474
0.560474
0.560474
0.560474
0.560474
0.560474
0.560474
0.560474
0.560474
0.560474
0.560474
0.560474
0.560474
0.560474
0.560474
0.560474
0.560474
0.560474
0.560474
0.560474
0.560474
0.560474
0.560475
0.560475
0.560475
0.560475
0.560475
0.560475
0.560475
0.560475
0.560475
0.560475
0.560475
0.560475
0.560475
0.560475
0.560475
0.560475
0.560475
0.560475
0.560475
0.560475
0.560475
0.560475
0.560475
0.560475
0.560475
0.560475
0.560475
0.560475
0.560475
0.560475
0.560475
0.560475
0.560475
0.560475
0.560475
0.560475
0.560475
0.560475
0.560475
0.560475
0.560475
0.560475
0.560475
0.560475
0.560475
0.560475
0.560475
0.560475
0.560475
0.560475
0.560475
0.560475
0.560475
0.560475
0.560475
0.560475
0.560475
0.560475
0.560475
0.560475
0.560475
0.560475
0.560475
0.560475
0.560475
0.560475
0.560475
0.560475
0.560475
0.560475
0.560475
0.560476
0.560476
0.560476
0.560476
0.560476
0.560476
0.560476
0.560476
0.560476
0.560476
0.560476
0.560476
0.560476
0.560476
0.560476
0.560476
0.560476
0.560476
0.560476
0.560476
0.560476
0.560476
0.560476
0.560476
0.560476
0.560476
0.560476
0.560476
0.560476
0.560476
0.560476
0.560476
0.560476
0.560476
0.560476
0.560476
0.560476
0.560476
0.560476
0.560476
0.560476
0.560476
0.560476
0.560476
0.560476
0.560476
0.560476
0.560476
0.560476
0.560476
0.560476
0.560476
0.560476
0.560476
0.560476
0.560476
0.560476
0.560476
0.560476
0.560476
0.560477
0.560477
0.560477
0.560477
0.560477
0.560477
0.560477
0.560477
0.560477
0.560477
0.560477
0.560477
0.560477
0.560477
0.560477
0.560477
0.560477
0.560477
0.560477
0.560477
0.560477
0.560477
0.560477
0.560477
0.560477
0.560477
0.560477
0.560477
0.560477
0.560477
0.560477
0.560477
0.560477
0.560477
0.560477
0.560477
0.560477
0.560477
0.560477
0.560477
0.560477
0.560477
0.560477
0.560477
0.560477
0.560477
0.560477
0.560477
0.560477
0.560477
0.560477
0.560477
0.560477
0.560477
0.560478
0.560478
0.560478
0.560478
0.560478
0.560478
0.560478
0.560478
0.560478
0.560478
0.560478
0.560478
0.560478
0.560478
0.560478
0.560478
0.560478
0.560478
0.560478
0.560478
0.560478
0.560478
0.560478
0.560478
0.560478
0.560478
0.560478
0.560478
0.560478
0.560478
0.560478
0.560478
0.560478
0.560478
0.560478
0.560478
0.560478
0.560478
0.560478
0.560478
0.560478
0.560478
0.560478
0.560478
0.560478
0.560478
0.560478
0.560478
0.560478
0.560479
0.560479
0.560479
0.560479
0.560479
0.560479
0.560479
0.560479
0.560479
0.560479
0.560479
0.560479
0.560479
0.560479
0.560479
0.560479
0.560479
0.560479
0.560479
0.560479
0.560479
0.560479
0.560479
0.560479
0.560479
0.560479
0.560479
0.560479
0.560479
0.560479
0.560479
0.560479
0.560479
0.560479
0.560479
0.560479
0.560479
0.560479
0.560479
0.560479
0.560479
0.560479
0.560479
0.560479
0.560479
0.56048
0.56048
0.56048
0.56048
0.56048
0.56048
0.56048
0.56048
0.56048
0.56048
0.56048
0.56048
0.56048
0.56048
0.56048
0.56048
0.56048
0.56048
0.56048
0.56048
0.56048
0.56048
0.56048
0.56048
0.56048
0.56048
0.56048
0.56048
0.56048
0.56048
0.56048
0.56048
0.56048
0.56048
0.56048
0.56048
0.56048
0.56048
0.56048
0.56048
0.56048
0.56048
0.560481
0.560481
0.560481
0.560481
0.560481
0.560481
0.560481
0.560481
0.560481
0.560481
0.560481
0.560481
0.560481
0.560481
0.560481
0.560481
0.560481
0.560481
0.560481
0.560481
0.560481
0.560481
0.560481
0.560481
0.560481
0.560481
0.560481
0.560481
0.560481
0.560481
0.560481
0.560481
0.560481
0.560481
0.560481
0.560481
0.560481
0.560481
0.560481
0.560481
0.560482
0.560482
0.560482
0.560482
0.560482
0.560482
0.560482
0.560482
0.560482
0.560482
0.560482
0.560482
0.560482
0.560482
0.560482
0.560482
0.560482
0.560482
0.560482
0.560482
0.560482
0.560482
0.560482
0.560482
0.560482
0.560482
0.560482
0.560482
0.560482
0.560482
0.560482
0.560482
0.560482
0.560482
0.560482
0.560482
0.560482
0.560482
0.560483
0.560483
0.560483
0.560483
0.560483
0.560483
0.560483
0.560483
0.560483
0.560483
0.560483
0.560483
0.560483
0.560483
0.560483
0.560483
0.560483
0.560483
0.560483
0.560483
0.560483
0.560483
0.560483
0.560483
0.560483
0.560483
0.560483
0.560483
0.560483
0.560483
0.560483
0.560483
0.560483
0.560483
0.560483
0.560484
0.560484
0.560484
0.560484
0.560484
0.560484
0.560484
0.560484
0.560484
0.560484
0.560484
0.560484
0.560484
0.560484
0.560484
0.560484
0.560484
0.560484
0.560484
0.560484
0.560484
0.560484
0.560484
0.560484
0.560484
0.560484
0.560484
0.560484
0.560484
0.560484
0.560484
0.560484
0.560484
0.560485
0.560485
0.560485
0.560485
0.560485
0.560485
0.560485
0.560485
0.560485
0.560485
0.560485
0.560485
0.560485
0.560485
0.560485
0.560485
0.560485
0.560485
0.560485
0.560485
0.560485
0.560485
0.560485
0.560485
0.560485
0.560485
0.560485
0.560485
0.560485
0.560485
0.560485
0.560485
0.560485
0.560486
0.560486
0.560486
0.560486
0.560486
0.560486
0.560486
0.560486
0.560486
0.560486
0.560486
0.560486
0.560486
0.560486
0.560486
0.560486
0.560486
0.560486
0.560486
0.560486
0.560486
0.560486
0.560486
0.560486
0.560486
0.560486
0.560486
0.560486
0.560486
0.560486
0.560486
0.560487
0.560487
0.560487
0.560487
0.560487
0.560487
0.560487
0.560487
0.560487
0.560487
0.560487
0.560487
0.560487
0.560487
0.560487
0.560487
0.560487
0.560487
0.560487
0.560487
0.560487
0.560487
0.560487
0.560487
0.560487
0.560487
0.560487
0.560487
0.560487
0.560487
0.560488
0.560488
0.560488
0.560488
0.560488
0.560488
0.560488
0.560488
0.560488
0.560488
0.560488
0.560488
0.560488
0.560488
0.560488
0.560488
0.560488
0.560488
0.560488
0.560488
0.560488
0.560488
0.560488
0.560488
0.560488
0.560488
0.560488
0.560488
0.560488
0.560489
0.560489
0.560489
0.560489
0.560489
0.560489
0.560489
0.560489
0.560489
0.560489
0.560489
0.560489
0.560489
0.560489
0.560489
0.560489
0.560489
0.560489
0.560489
0.560489
0.560489
0.560489
0.560489
0.560489
0.560489
0.560489
0.560489
0.560489
0.560489
0.56049
0.56049
0.56049
0.56049
0.56049
0.56049
0.56049
0.56049
0.56049
0.56049
0.56049
0.56049
0.56049
0.56049
0.56049
0.56049
0.56049
0.56049
0.56049
0.56049
0.56049
0.56049
0.56049
0.56049
0.56049
0.56049
0.560491
0.560491
0.560491
0.560491
0.560491
0.560491
0.560491
0.560491
0.560491
0.560491
0.560491
0.560491
0.560491
0.560491
0.560491
0.560491
0.560491
0.560491
0.560491
0.560491
0.560491
0.560491
0.560491
0.560491
0.560491
0.560491
0.560492
0.560492
0.560492
0.560492
0.560492
0.560492
0.560492
0.560492
0.560492
0.560492
0.560492
0.560492
0.560492
0.560492
0.560492
0.560492
0.560492
0.560492
0.560492
0.560492
0.560492
0.560492
0.560492
0.560492
0.560492
0.560492
0.560493
0.560493
0.560493
0.560493
0.560493
0.560493
0.560493
0.560493
0.560493
0.560493
0.560493
0.560493
0.560493
0.560493
0.560493
0.560493
0.560493
0.560493
0.560493
0.560493
0.560493
0.560493
0.560493
0.560493
0.560493
0.560494
0.560494
0.560494
0.560494
0.560494
0.560494
0.560494
0.560494
0.560494
0.560494
0.560494
0.560494
0.560494
0.560494
0.560494
0.560494
0.560494
0.560494
0.560494