<?xml version="1.0"?>
<VTKFile type="UnstructuredGrid" version="0.1" byte_order="LittleEndian">
<UnstructuredGrid>
<Piece NumberOfPoints="5000" NumberOfCells="4000">
<PointData Scalars="Reaction 0">
<DataArray type="Float32" Name="Reaction 0" format="ascii">
0.56406
0.56406
0.56406
0.56406
0.56406
0.56406
0.56406
0.56406
0.56406
0.56406
0.56406
0.56406
0.56406
0.56406
0.56406
0.56406
0.56406
0.56406
0.56406
0.56406
0.56406
0.56406
0.56406
0.56406
0.56406
0.56406
0.56406
0.56406
0.56406
0.56406
0.56406
0.56406
0.56406
0.56406
0.56406
0.56406
0.564061
0.564061
0.564061
0.564061
0.564061
0.564061
0.564061
0.564061
0.564061
0.564061
0.564061
0.564061
0.564061
0.564061
0.564061
0.564061
0.564062
0.564062
0.564062
0.564062
0.564062
0.564062
0.564062
0.564062
0.564062
0.564062
0.564062
0.564062
0.564063
0.564063
0.564063
0.564063
0.564063
0.564063
0.564063
0.564063
0.564063
0.564063
0.564064
0.564064
0.564064
0.564064
0.564064
0.564064
0.564064
0.564064
0.564064
0.564064
0.564065
0.564065
0.564065
0.564065
0.564065
0.564065
0.564065
0.564065
0.564066
0.564066
0.564066
0.564066
0.564066
0.564066
0.564066
0.564067
0.564067
0.564067
0.564067
0.564067
0.564067
0.564067
0.564067
0.564068
0.564068
0.564068
0.564068
0.564068
0.564068
0.564069
0.564069
0.564069
0.564069
0.564069
0.564069
0.56407
0.56407
0.56407
0.56407
0.56407
0.56407
0.56407
0.564071
0.564071
0.564071
0.564071
0.564071
0.564072
0.564072
0.564072
0.564072
0.564072
0.564072
0.564073
0.564073
0.564073
0.564073
0.564073
0.564074
0.564074
0.564074
0.564074
0.564074
0.564075
0.564075
0.564075
0.564075
0.564075
0.564076
0.564076
0.564076
0.564076
0.564076
0.564077
0.564077
0.564077
0.564077
0.564078
0.564078
0.564078
0.564078
0.564078
0.564079
0.564079
0.564079
0.56408
0.56408
0.56408
0.56408
0.56408
0.564081
0.564081
0.564081
0.564081
0.564082
0.564082
0.564082
0.564082
0.564083
0.564083
0.564083
0.564083
0.564084
0.564084
0.564084
0.564085
0.564085
0.564085
0.564085
0.564086
0.564086
0.564086
0.564086
0.564087
0.564087
0.564087
0.564087
0.564088
0.564088
0.564088
0.564089
0.564089
0.564089
0.564089
0.56409
0.56409
0.56409
0.564091
0.564091
0.564091
0.564092
0.564092
0.564092
0.564092
0.564093
0.564093
0.564093
0.564094
0.564094
0.564094
0.564095
0.564095
0.564095
0.564095
0.564096
0.564096
0.564096
0.564097
0.564097
0.564097
0.564098
0.564098
0.564098
0.564099
0.564099
0.5641
0.5641
0.5641
0.5641
0.564101
0.564101
0.564101
0.564102
0.564102
0.564103
0.564103
0.564103
0.564103
0.564104
0.564104
0.564105
0.564105
0.564105
0.564106
0.564106
0.564107
0.564107
0.564107
0.564107
0.564108
0.564108
0.564108
0.564109
0.564109
0.56411
0.56411
0.56411
0.564111
0.564111
0.564112
0.564112
0.564112
0.564113
0.564113
0.564114
0.564114
0.564114
0.564115
0.564115
0.564116
0.564116
0.564116
0.564117
0.564117
0.564118
0.564118
0.564118
0.564119
0.564119
0.56412
0.56412
0.56412
0.564121
0.564121
0.564122
0.564122
0.564122
0.564123
0.564123
0.564124
0.564124
0.564124
0.564125
0.564125
0.564126
0.564127
0.564127
0.564127
0.564128
0.564128
0.564129
0.564129
0.564129
0.56413
0.56413
0.564131
0.564131
0.564132
0.564132
0.564133
0.564133
0.564133
0.564134
0.564134
0.564135
0.564136
0.564136
0.564136
0.564137
0.564137
0.564138
0.564138
0.564138
0.564139
0.56414
0.56414
0.56414
0.564141
0.564141
0.564142
0.564143
0.564143
0.564143
0.564144
0.564145
0.564145
0.564145
0.564146
0.564146
0.564147
0.564148
0.564148
0.564148
0.564149
0.56415
0.56415
0.56415
0.564151
0.564151
0.564152
0.564153
0.564153
0.564153
0.564154
0.564155
0.564155
0.564155
0.564156
0.564157
0.564157
0.564158
0.564158
0.564159
0.564159
0.56416
0.564161
0.564161
0.564161
0.564162
0.564163
0.564163
0.564163
0.564164
0.564165
0.564165
0.564166
0.564166
0.564167
0.564168
0.564168
0.564169
0.564169
0.56417
0.56417
0.564171
0.564172
0.564172
0.564173
0.564173
0.564174
0.564175
0.564175
0.564175
0.564176
0.564177
0.564178
0.564178
0.564178
0.564179
0.56418
0.564181
0.564181
0.564181
0.564182
0.564183
0.564184
0.564184
0.564184
0.564185
0.564186
0.564187
0.564187
0.564187
0.564188
0.564189
0.56419
0.56419
0.56419
0.564191
0.564192
0.564193
0.564193
0.564194
0.564194
0.564195
0.564196
0.564196
0.564197
0.564197
0.564198
0.564199
0.564199
0.5642
0.564201
0.564201
0.564202
0.564202
0.564203
0.564204
0.564205
0.564206
0.564206
0.564206
0.564207
0.564208
0.564209
0.564209
0.56421
0.564211
0.564211
0.564212
0.564212
0.564213
0.564214
0.564215
0.564216
0.564216
0.564216
0.564217
0.564218
0.564219
0.564219
0.56422
0.564221
0.564222
0.564222
0.564222
0.564223
0.564224
0.564225
0.564226
0.564226
0.564227
0.564228
0.564229
0.56423
0.56423
0.56423
0.564231
0.564232
0.564233
0.564233
0.564234
0.564235
0.564236
0.564237
0.564237
0.564238
0.564239
0.564239
0.56424
0.56424
0.564241
0.564242
0.564243
0.564244
0.564244
0.564245
0.564246
0.564247
0.564248
0.564248
0.564249
0.56425
0.564251
0.564252
0.564252
0.564252
0.564253
0.564254
0.564255
0.564255
0.564256
0.564257
0.564258
0.564259
0.564259
0.56426
0.564261
0.564262
0.564263
0.564263
0.564264
0.564265
0.564266
0.564267
0.564267
0.564268
0.564269
0.56427
0.564271
0.564271
0.564272
0.564273
0.564274
0.564275
0.564275
0.564276
0.564277
0.564278
0.564279
0.564279
0.56428
0.564281
0.564282
0.564283
0.564283
0.564284
0.564285
0.564287
0.564288
0.564288
0.564289
0.56429
0.564291
0.564292
0.564292
0.564293
0.564294
0.564295
0.564296
0.564296
0.564297
0.564298
0.564299
0.5643
0.5643
0.564301
0.564302
0.564304
0.564305
0.564305
0.564306
0.564307
0.564308
0.564309
0.564309
0.56431
0.564311
0.564312
0.564313
0.564313
0.564315
0.564316
0.564317
0.564318
0.564318
0.564319
0.56432
0.564321
0.564322
0.564322
0.564324
0.564325
0.564326
0.564327
0.564327
0.564328
0.564329
0.56433
0.564332
0.564332
0.564333
0.564334
0.564335
0.564336
0.564336
0.564337
0.564338
0.56434
0.564341
0.564341
0.564342
0.564343
0.564344
0.564346
0.564346
0.564347
0.564348
0.564349
0.56435
0.56435
0.564352
0.564353
0.564354
0.564355
0.564355
0.564356
0.564358
0.564359
0.56436
0.56436
0.564361
0.564362
0.564364
0.564365
0.564365
0.564366
0.564367
0.564369
0.56437
0.56437
0.564371
0.564372
0.564374
0.564375
0.564375
0.564376
0.564377
0.564379
0.56438
0.56438
0.564381
0.564383
0.564384
0.564385
0.564385
0.564386
0.564388
0.564389
0.56439
0.56439
0.564391
0.564393
0.564394
0.564395
0.564395
0.564397
0.564398
0.564399
0.564401
0.564401
0.564402
0.564403
0.564405
0.564406
0.564406
0.564407
0.564409
0.56441
0.564411
0.564411
0.564413
0.564414
0.564415
0.564417
0.564417
0.564418
0.564419
0.564421
0.564422
0.564422
0.564423
0.564425
0.564426
0.564427
0.564427
0.564429
0.56443
0.564432
0.564433
0.564433
0.564434
0.564436
0.564437
0.564438
0.564438
0.56444
0.564441
0.564443
0.564444
0.564444
0.564445
0.564447
0.564448
0.56445
0.56445
0.564451
0.564453
0.564454
0.564455
0.564455
0.564457
0.564458
0.56446
0.564461
0.564461
0.564463
0.564464
0.564466
0.564467
0.564467
0.564468
0.56447
0.564471
0.564473
0.564473
0.564474
0.564476
0.564477
0.564479
0.564479
0.56448
0.564482
0.564483
0.564485
0.564485
0.564486
0.564488
0.564489
0.564491
0.564491
0.564492
0.564494
0.564495
0.564497
0.564497
0.564498
0.5645
0.564501
0.564503
0.564503
0.564504
0.564506
0.564507
0.564509
0.564509
0.564511
0.564512
0.564514
0.564515
0.564515
0.564517
0.564518
0.56452
0.564521
0.564521
0.564523
0.564525
0.564526
0.564528
0.564528
0.564529
0.564531
0.564532
0.564534
0.564534
0.564536
0.564537
0.564539
0.56454
0.56454
0.564542
0.564544
0.564545
0.564547
0.564547
0.564549
0.56455
0.564552
0.564553
0.564553
0.564555
0.564557
0.564558
0.56456
0.56456
0.564562
0.564563
0.564565
0.564567
0.564567
0.564568
0.56457
0.564572
0.564573
0.564573
0.564575
0.564577
0.564578
0.56458
0.56458
0.564582
0.564583
0.564585
0.564587
0.564587
0.564589
0.56459
0.564592
0.564594
0.564594
0.564595
0.564597
0.564599
0.564601
0.564601
0.564602
0.564604
0.564606
0.564608
0.564608
0.564609
0.564611
0.564613
0.564614
0.564614
0.564616
0.564618
0.56462
0.564622
0.564622
0.564623
0.564625
0.564627
0.564629
0.564629
0.56463
0.564632
0.564634
0.564636
0.564636
0.564638
0.564639
0.564641
0.564643
0.564643
0.564645
0.564647
0.564648
0.56465
0.56465
0.564652
0.564654
0.564656
0.564658
0.564658
0.564659
0.564661
0.564663
0.564665
0.564665
0.564667
0.564669
0.564671
0.564672
0.564672
0.564674
0.564676
0.564678
0.56468
0.56468
0.564682
0.564684
0.564686
0.564687
0.564687
0.564689
0.564691
0.564693
0.564695
0.564695
0.564697
0.564699
0.564701
0.564703
0.564703
0.564705
0.564707
0.564709
0.564711
0.564711
0.564712
0.564714
0.564716
0.564718
0.564718
0.56472
0.564722
0.564724
0.564726
0.564726
0.564728
0.56473
0.564732
0.564734
0.564734
0.564736
0.564738
0.56474
0.564742
0.564742
0.564744
0.564746
0.564748
0.56475
0.56475
0.564752
0.564754
0.564756
0.564758
0.564758
0.56476
0.564762
0.564764
0.564766
0.564766
0.564768
0.56477
0.564772
0.564774
0.564774
0.564776
0.564779
0.564781
0.564783
0.564783
0.564785
0.564787
0.564789
0.564791
0.564791
0.564793
0.564795
0.564797
0.564799
0.564799
0.564802
0.564804
0.564806
0.564808
0.564808
0.56481
0.564812
0.564814
0.564816
0.564816
0.564819
0.564821
0.564823
0.564825
0.564825
0.564827
0.564829
0.564831
0.564834
0.564834
0.564836
0.564838
0.56484
0.564842
0.564842
0.564845
0.564847
0.564849
0.564851
0.564851
0.564853
0.564855
0.564858
0.56486
0.56486
0.564862
0.564864
0.564867
0.564869
0.564869
0.564871
0.564873
0.564875
0.564878
0.564878
0.56488
0.564882
0.564885
0.564887
0.564887
0.564889
0.564891
0.564894
0.564896
0.564896
0.564898
0.564901
0.564903
0.564905
0.564905
0.564907
0.56491
0.564912
0.564914
0.564914
0.564917
0.564919
0.564921
0.564924
0.564924
0.564926
0.564928
0.564931
0.564933
0.564933
0.564935
0.564938
0.56494
0.564943
0.564943
0.564945
0.564947
0.56495
0.564952
0.564952
0.564954
0.564957
0.564959
0.564962
0.564962
0.564964
0.564966
0.564969
0.564971
0.564971
0.564974
0.564976
0.564978
0.564981
0.564981
0.564983
0.564986
0.564988
0.564991
0.564991
0.564993
0.564996
0.564998
0.565
0.565
0.565003
0.565005
0.565008
0.56501
0.56501
0.565013
0.565015
0.565018
0.56502
0.56502
0.565023
0.565026
0.565028
0.565031
0.565031
0.565033
0.565036
0.565038
0.565041
0.565041
0.565043
0.565046
0.565048
0.565051
0.565051
0.565053
0.565056
0.565059
0.565061
0.565061
0.565064
0.565066
0.565069
0.565072
0.565072
0.565074
0.565077
0.565079
0.565082
0.565082
0.565085
0.565087
0.56509
0.565092
0.565092
0.565095
0.565098
0.5651
0.565103
0.565103
0.565106
0.565108
0.565111
0.565114
0.565114
0.565116
0.565119
0.565122
0.565124
0.565124
0.565127
0.56513
0.565133
0.565135
0.565135
0.565138
0.565141
0.565143
0.565146
0.565146
0.565149
0.565152
0.565154
0.565157
0.565157
0.56516
0.565163
0.565165
0.565168
0.565168
0.565171
0.565174
0.565177
0.565179
0.565179
0.565182
0.565185
0.565188
0.56519
0.56519
0.565193
0.565196
0.565199
0.565202
0.565202
0.565205
0.565207
0.56521
0.565213
0.565213
0.565216
0.565219
0.565222
0.565224
0.565224
0.565227
0.56523
0.565233
0.565236
0.565236
0.565239
0.565242
0.565245
0.565248
0.565248
0.565251
0.565253
0.565256
0.565259
0.565259
0.565262
0.565265
0.565268
0.565271
0.565271
0.565274
0.565277
0.56528
0.565283
0.565283
0.565286
0.565289
0.565292
0.565295
0.565295
0.565298
0.565301
0.565304
0.565307
0.565307
0.56531
0.565313
0.565316
0.565319
0.565319
0.565322
0.565325
0.565328
0.565331
0.565331
0.565334
0.565337
0.56534
0.565343
0.565343
0.565346
0.56535
0.565353
0.565356
0.565356
0.565359
0.565362
0.565365
0.565368
0.565368
0.565371
0.565375
0.565378
0.565381
0.565381
0.565384
0.565387
0.56539
0.565393
0.565393
0.565397
0.5654
0.565403
0.565406
0.565406
0.565409
0.565413
0.565416
0.565419
0.565419
0.565422
0.565425
0.565429
0.565432
0.565432
0.565435
0.565438
0.565442
0.565445
0.565445
0.565448
0.565451
0.565455
0.565458
0.565458
0.565461
0.565464
0.565468
0.565471
0.565471
0.565474
0.565478
0.565481
0.565484
0.565484
0.565488
0.565491
0.565494
0.565498
0.565498
0.565501
0.565504
0.565508
0.565511
0.565511
0.565514
0.565518
0.565521
0.565525
0.565525
0.565528
0.565531
0.565535
0.565538
0.565538
0.565542
0.565545
0.565549
0.565552
0.565552
0.565555
0.565559
0.565562
0.565566
0.565566
0.565569
0.565573
0.565576
0.56558
0.56558
0.565583
0.565587
0.56559
0.565594
0.565594
0.565597
0.565601
0.565604
0.565608
0.565608
0.565611
0.565615
0.565618
0.565622
0.565622
0.565626
0.565629
0.565633
0.565636
0.565636
0.56564
0.565644
0.565647
0.565651
0.565651
0.565654
0.565658
0.565662
0.565665
0.565665
0.565669
0.565673
0.565676
0.56568
0.56568
0.565684
0.565687
0.565691
0.565695
0.565695
0.565698
0.565702
0.565706
0.565709
0.565709
0.565713
0.565717
0.565721
0.565724
0.565724
0.565728
0.565732
0.565736
0.565739
0.565739
0.565743
0.565747
0.565751
0.565754
0.565754
0.565758
0.565762
0.565766
0.56577
0.56577
0.565774
0.565777
0.565781
0.565785
0.565785
0.565789
0.565793
0.565797
0.565801
0.565801
0.565804
0.565808
0.565812
0.565816
0.565816
0.56582
0.565824
0.565828
0.565832
0.565832
0.565836
0.56584
0.565844
0.565848
0.565848
0.565852
0.565856
0.56586
0.565864
0.565864
0.565867
0.565871
0.565875
0.565879
0.565879
0.565883
0.565887
0.565892
0.565896
0.565896
0.5659
0.565904
0.565908
0.565912
0.565912
0.565916
0.56592
0.565924
0.565928
0.565928
0.565932
0.565936
0.565941
0.565945
0.565945
0.565949
0.565953
0.565957
0.565961
0.565961
0.565965
0.56597
0.565974
0.565978
0.565978
0.565982
0.565986
0.565991
0.565995
0.565995
0.565999
0.566003
0.566007
0.566012
0.566012
0.566016
0.56602
0.566024
0.566029
0.566029
0.566033
0.566037
0.566041
0.566046
0.566046
0.56605
0.566054
0.566059
0.566063
0.566063
0.566067
0.566072
0.566076
0.566081
0.566081
0.566085
0.566089
0.566094
0.566098
0.566098
0.566103
0.566107
0.566111
0.566116
0.566116
0.56612
0.566125
0.566129
0.566134
0.566134
0.566138
0.566143
0.566147
0.566151
0.566151
0.566156
0.56616
0.566165
0.566169
0.566169
0.566174
0.566179
0.566183
0.566188
0.566188
0.566192
0.566197
0.566201
0.566206
0.566206
0.56621
0.566215
0.56622
0.566224
0.566224
0.566229
0.566234
0.566238
0.566243
0.566243
0.566248
0.566252
0.566257
0.566262
0.566262
0.566266
0.566271
0.566276
0.56628
0.56628
0.566285
0.56629
0.566295
0.566299
0.566299
0.566304
0.566309
0.566314
0.566318
0.566318
0.566323
0.566328
0.566333
0.566338
0.566338
0.566342
0.566347
0.566352
0.566357
0.566357
0.566362
0.566367
0.566371
0.566376
0.566376
0.566381
0.566386
0.566391
0.566396
0.566396
0.566401
0.566406
0.566411
0.566416
0.566416
0.566421
0.566426
0.566431
0.566436
0.566436
0.566441
0.566446
0.566451
0.566456
0.566456
0.566461
0.566466
0.566471
0.566476
0.566476
0.566481
0.566486
0.566491
0.566496
0.566496
0.566501
0.566506
0.566512
0.566517
0.566517
0.566522
0.566527
0.566532
0.566537
0.566537
0.566542
0.566548
0.566553
0.566558
0.566558
0.566563
0.566569
0.566574
0.566579
0.566579
0.566584
0.56659
0.566595
0.5666
0.5666
0.566605
0.566611
0.566616
0.566621
0.566621
0.566627
0.566632
0.566637
0.566643
0.566643
0.566648
0.566653
0.566659
0.566664
0.566664
0.56667
0.566675
0.56668
0.566686
0.566686
0.566691
0.566697
0.566702
0.566708
0.566708
0.566713
0.566719
0.566724
0.56673
0.56673
0.566735
0.566741
0.566746
0.566752
0.566752
0.566757
0.566763
0.566769
0.566774
0.566774
0.56678
0.566785
0.566791
0.566797
0.566797
0.566802
0.566808
0.566814
0.566819
0.566819
0.566825
0.566831
0.566836
0.566842
0.566842
0.566848
0.566854
0.566859
0.566865
0.566865
0.566871
0.566876
0.566882
0.566888
0.566888
0.566894
0.5669
0.566906
0.566911
0.566911
0.566917
0.566923
0.566929
0.566935
0.566935
0.566941
0.566947
0.566953
0.566959
0.566959
0.566965
0.56697
0.566976
0.566982
0.566982
0.566988
0.566994
0.567
0.567006
0.567006
0.567012
0.567018
0.567024
0.56703
0.56703
0.567036
0.567043
0.567049
0.567055
0.567055
0.567061
0.567067
0.567073
0.567079
0.567079
0.567085
0.567092
0.567098
0.567104
0.567104
0.56711
0.567116
0.567123
0.567129
0.567129
0.567135
0.567141
0.567148
0.567154
0.567154
0.56716
0.567166
0.567173
0.567179
0.567179
0.567185
0.567192
0.567198
0.567204
0.567204
0.567211
0.567217
0.567224
0.56723
0.56723
0.567236
0.567243
0.567249
0.567256
0.567256
0.567262
0.567269
0.567275
0.567282
0.567282
0.567288
0.567295
0.567301
0.567308
0.567308
0.567314
0.567321
0.567328
0.567334
0.567334
0.567341
0.567348
0.567354
0.567361
0.567361
0.567367
0.567374
0.567381
0.567388
0.567388
0.567394
0.567401
0.567408
0.567414
0.567414
0.567421
0.567428
0.567435
0.567441
0.567441
0.567448
0.567455
0.567462
0.567469
0.567469
0.567476
0.567483
0.567489
0.567496
0.567496
0.567503
0.56751
0.567517
0.567524
0.567524
0.567531
0.567538
0.567545
0.567552
0.567552
0.567559
0.567566
0.567573
0.56758
0.56758
0.567587
0.567594
0.567601
0.567609
0.567609
0.567616
0.567623
0.56763
0.567637
0.567637
0.567644
0.567651
0.567659
0.567666
0.567666
0.567673
0.56768
0.567688
0.567695
0.567695
0.567702
0.567709
0.567717
0.567724
0.567724
0.567731
0.567739
0.567746
0.567753
0.567753
0.567761
0.567768
0.567776
0.567783
0.567783
0.567791
0.567798
0.567805
0.567813
0.567813
0.56782
0.567828
0.567835
0.567843
0.567843
0.56785
0.567858
0.567866
0.567873
0.567873
0.567881
0.567888
0.567896
0.567904
0.567904
0.567911
0.567919
0.567927
0.567935
0.567935
0.567942
0.56795
0.567958
0.567966
0.567966
0.567973
0.567981
0.567989
0.567997
0.567997
0.568005
0.568012
0.56802
0.568028
0.568028
0.568036
0.568044
0.568052
0.56806
0.56806
0.568068
0.568076
0.568084
0.568092
0.568092
0.5681
0.568108
0.568116
0.568124
0.568124
0.568132
0.56814
0.568148
0.568156
0.568156
0.568165
0.568173
0.568181
0.568189
0.568189
0.568197
0.568205
0.568214
0.568222
0.568222
0.56823
0.568238
0.568247
0.568255
0.568255
0.568263
0.568272
0.56828
0.568288
0.568288
0.568297
0.568305
0.568314
0.568322
0.568322
0.56833
0.568339
0.568347
0.568356
0.568356
0.568364
0.568373
0.568382
0.56839
0.56839
0.568399
0.568407
0.568416
0.568425
0.568425
0.568433
0.568442
0.568451
0.568459
0.568459
0.568468
0.568477
0.568485
0.568494
0.568494
0.568503
0.568512
0.56852
0.568529
0.568529
0.568538
0.568547
0.568556
0.568565
0.568565
0.568574
0.568583
0.568592
0.568601
0.568601
0.56861
0.568619
0.568628
0.568637
0.568637
0.568646
0.568655
0.568664
0.568673
0.568673
0.568682
0.568691
0.5687
0.568709
0.568709
0.568719
0.568728
0.568737
0.568746
0.568746
0.568755
0.568765
0.568774
0.568783
0.568783
0.568793
0.568802
0.568811
0.568821
0.568821
0.56883
0.56884
0.568849
0.568858
0.568858
0.568868
0.568877
0.568887
0.568896
0.568896
0.568906
0.568916
0.568925
0.568935
0.568935
0.568944
0.568954
0.568964
0.568973
0.568973
0.568983
0.568993
0.569002
0.569012
0.569012
0.569022
0.569032
0.569041
0.569051
0.569051
0.569061
0.569071
0.569081
0.569091
0.569091
0.569101
0.569111
0.569121
0.569131
0.569131
0.569141
0.569151
0.569161
0.569171
0.569171
0.569181
0.569191
0.569201
0.569211
0.569211
0.569221
0.569231
0.569241
0.569252
0.569252
0.569262
0.569272
0.569282
0.569293
0.569293
0.569303
0.569313
0.569324
0.569334
0.569334
0.569344
0.569355
0.569365
0.569376
0.569376
0.569386
0.569397
0.569407
0.569418
0.569418
0.569428
0.569439
0.569449
0.56946
0.56946
0.569471
0.569481
0.569492
0.569503
0.569503
0.569513
0.569524
0.569535
0.569546
0.569546
0.569556
0.569567
0.569578
0.569589
0.569589
0.5696
0.569611
0.569622
0.569633
0.569633
0.569644
0.569655
0.569666
0.569677
0.569677
0.569688
0.569699
0.56971
0.569721
0.569721
0.569732
0.569743
0.569754
0.569766
0.569766
0.569777
0.569788
0.569799
0.569811
0.569811
0.569822
0.569833
0.569845
0.569856
0.569856
0.569867
0.569879
0.56989
0.569902
0.569902
0.569913
0.569925
0.569936
0.569948
0.569948
0.56996
0.569971
0.569983
0.569994
0.569994
0.570006
0.570018
0.570029
0.570041
0.570041
0.570053
0.570065
0.570076
0.570088
0.570088
0.5701
0.570112
0.570124
0.570136
0.570136
0.570148
0.57016
0.570172
0.570184
0.570184
0.570196
0.570208
0.57022
0.570232
0.570232
0.570244
0.570257
0.570269
0.570281
0.570281
0.570293
0.570305
0.570318
0.57033
0.57033
0.570342
0.570355
0.570367
0.570379
0.570379
0.570392
0.570404
0.570417
0.570429
0.570429
0.570442
0.570454
0.570467
0.57048
0.57048
0.570492
0.570505
0.570518
0.57053
0.57053
0.570543
0.570556
0.570569
0.570581
0.570581
0.570594
0.570607
0.57062
0.570633
0.570633
0.570646
0.570659
0.570672
0.570685
0.570685
0.570698
0.570711
0.570724
0.570737
0.570737
0.57075
0.570763
0.570777
0.57079
0.57079
0.570803
0.570816
0.57083
0.570843
0.570843
0.570856
0.57087
0.570883
0.570897
0.570897
0.57091
0.570924
0.570937
0.570951
0.570951
0.570964
0.570978
0.570991
0.571005
0.571005
0.571019
0.571032
0.571046
0.57106
0.57106
0.571074
0.571087
0.571101
0.571115
0.571115
0.571129
0.571143
0.571157
0.571171
0.571171
0.571185
0.571199
0.571213
0.571227
0.571227
0.571241
0.571255
0.57127
0.571284
0.571284
0.571298
0.571312
0.571327
0.571341
0.571341
0.571355
0.57137
0.571384
0.571398
0.571398
0.571413
0.571427
0.571442
0.571457
0.571457
0.571471
0.571486
0.5715
0.571515
0.571515
0.57153
0.571545
0.571559
0.571574
0.571574
0.571589
0.571604
0.571619
0.571633
0.571633
0.571648
0.571663
0.571678
0.571693
0.571693
0.571708
0.571724
0.571739
0.571754
0.571754
0.571769
0.571784
0.5718
0.571815
0.571815
0.57183
0.571845
0.571861
0.571876
0.571876
0.571892
0.571907
0.571923
0.571938
0.571938
0.571954
0.571969
0.571985
0.572
0.572
0.572016
0.572032
0.572048
0.572063
0.572063
0.572079
0.572095
0.572111
0.572127
0.572127
0.572143
0.572159
0.572175
0.572191
0.572191
0.572207
0.572223
0.572239
0.572255
0.572255
0.572271
0.572288
0.572304
0.57232
0.57232
0.572336
0.572353
0.572369
0.572386
0.572386
0.572402
0.572419
0.572435
0.572452
0.572452
0.572468
0.572485
0.572502
0.572518
0.572518
0.572535
0.572552
0.572569
0.572585
0.572585
0.572602
0.572619
0.572636
0.572653
0.572653
0.57267
0.572687
0.572704
0.572721
0.572721
0.572738
0.572756
0.572773
0.57279
0.57279
0.572807
0.572825
0.572842
0.572859
0.572859
0.572877
0.572894
0.572912
0.572929
0.572929
0.572947
0.572965
0.572982
0.573
0.573
0.573018
0.573035
0.573053
0.573071
0.573071
0.573089
0.573107
0.573124
0.573142
0.573142
0.57316
0.573178
0.573197
0.573215
0.573215
0.573233
0.573251
0.573269
0.573288
0.573288
0.573306
0.573324
0.573343
0.573361
0.573361
0.573379
0.573398
0.573416
0.573435
0.573435
0.573453
0.573472
0.573491
0.573509
0.573509
0.573528
0.573547
0.573566
0.573585
0.573585
0.573604
0.573623
0.573642
0.573661
0.573661
0.57368
0.573699
0.573718
0.573737
0.573737
0.573756
0.573776
0.573795
0.573814
0.573814
0.573834
0.573853
0.573872
0.573892
0.573892
0.573911
0.573931
0.573951
0.57397
0.57397
0.57399
0.57401
0.574029
0.574049
0.574049
0.574069
0.574089
0.574109
0.574129
0.574129
0.574149
0.574169
0.574189
0.574209
0.574209
0.574229
0.57425
0.57427
0.57429
0.57429
0.57431
0.574331
0.574351
0.574372
0.574372
0.574392
0.574413
0.574433
0.574454
0.574454
0.574475
0.574495
0.574516
0.574537
0.574537
0.574558
0.574579
0.5746
0.574621
0.574621
0.574642
0.574663
0.574684
0.574705
0.574705
0.574726
0.574747
0.574769
0.57479
0.57479
0.574811
0.574833
0.574854
0.574876
0.574876
0.574897
0.574919
0.574941
0.574962
0.574962
0.574984
0.575006
0.575028
0.575049
0.575049
0.575071
0.575093
0.575115
0.575137
0.575137
0.575159
0.575181
0.575204
0.575226
0.575226
0.575248
0.57527
0.575293
0.575315
0.575315
0.575337
0.57536
0.575383
0.575405
0.575405
0.575428
0.57545
0.575473
0.575496
0.575496
0.575519
0.575542
0.575564
0.575587
0.575587
0.57561
0.575633
0.575657
0.57568
0.57568
0.575703
0.575726
0.575749
0.575773
0.575773
0.575796
0.575819
0.575843
0.575866
0.575866
0.57589
0.575914
0.575937
0.575961
0.575961
0.575985
0.576009
0.576032
0.576056
0.576056
0.57608
0.576104
0.576128
0.576152
0.576152
0.576177
0.576201
0.576225
0.576249
0.576249
0.576274
0.576298
0.576322
0.576347
0.576347
0.576371
0.576396
0.576421
0.576445
0.576445
0.57647
0.576495
0.57652
0.576545
0.576545
0.57657
0.576595
0.57662
0.576645
0.576645
0.57667
0.576695
0.57672
0.576746
0.576746
0.576771
0.576796
0.576822
0.576847
0.576847
0.576873
0.576899
0.576924
0.57695
0.57695
0.576976
0.577002
0.577027
0.577053
0.577053
0.577079
0.577105
0.577131
0.577158
0.577158
0.577184
0.57721
0.577236
0.577263
0.577263
0.577289
0.577315
0.577342
0.577368
0.577368
0.577395
0.577422
0.577448
0.577475
0.577475
0.577502
0.577529
0.577556
0.577583
0.577583
0.57761
0.577637
0.577664
0.577691
0.577691
0.577719
0.577746
0.577773
0.577801
0.577801
0.577828
0.577856
0.577883
0.577911
0.577911
0.577939
0.577966
0.577994
0.578022
0.578022
0.57805
0.578078
0.578106
0.578134
0.578134
0.578162
0.578191
0.578219
0.578247
0.578247
0.578275
0.578304
0.578332
0.578361
0.578361
0.57839
0.578418
0.578447
0.578476
0.578476
0.578505
0.578533
0.578562
0.578591
0.578591
0.578621
0.57865
0.578679
0.578708
0.578708
0.578737
0.578767
0.578796
0.578826
0.578826
0.578855
0.578885
0.578914
0.578944
0.578944
0.578974
0.579004
0.579033
0.579063
0.579063
0.579093
0.579124
0.579154
0.579184
0.579184
0.579214
0.579244
0.579275
0.579305
0.579305
0.579336
0.579366
0.579397
0.579427
0.579427
0.579458
0.579489
0.57952
0.579551
0.579551
0.579582
0.579613
0.579644
0.579675
0.579675
0.579706
0.579737
0.579769
0.5798
0.5798
0.579832
0.579863
0.579895
0.579926
0.579926
0.579958
0.57999
0.580021
0.580053
0.580053
0.580085
0.580117
0.580149
0.580182
0.580182
0.580214
0.580246
0.580278
0.580311
0.580311
0.580343
0.580376
0.580408
0.580441
0.580441
0.580474
0.580506
0.580539
0.580572
0.580572
0.580605
0.580638
0.580671
0.580704
0.580704
0.580737
0.580771
0.580804
0.580838
0.580838
0.580871
0.580905
0.580938
0.580972
0.580972
0.581006
0.581039
0.581073
0.581107
0.581107
0.581141
0.581175
0.581209
0.581243
0.581243
0.581278
0.581312
0.581346
0.581381
0.581381
0.581415
0.58145
0.581485
0.581519
0.581519
0.581554
0.581589
0.581624
0.581659
0.581659
0.581694
0.581729
0.581764
0.581799
0.581799
0.581835
0.58187
0.581905
0.581941
0.581941
0.581977
0.582012
0.582048
0.582084
0.582084
0.58212
0.582155
0.582191
0.582227
0.582227
0.582264
0.5823
0.582336
0.582372
0.582372
0.582409
0.582445
0.582482
0.582518
0.582518
0.582555
0.582592
0.582628
0.582665
0.582665
0.582702
0.582739
0.582776
0.582813
0.582813
0.582851
0.582888
0.582925
0.582963
0.582963
0.583
0.583038
0.583075
0.583113
0.583113
0.583151
0.583189
0.583227
0.583265
0.583265
0.583303
0.583341
0.583379
0.583417
0.583417
0.583456
0.583494
0.583532
0.583571
0.583571
0.58361
0.583648
0.583687
0.583726
0.583726
0.583765
0.583804
0.583843
0.583882
0.583882
0.583921
0.58396
0.583999
0.584039
0.584039
0.584078
0.584118
0.584157
0.584197
0.584197
0.584237
0.584277
0.584317
0.584357
0.584357
0.584397
0.584437
0.584477
0.584517
0.584517
0.584557
0.584598
0.584638
0.584679
0.584679
0.584719
0.58476
0.584801
0.584842
0.584842
0.584882
0.584923
0.584964
0.585006
0.585006
0.585047
0.585088
0.585129
0.585171
0.585171
0.585212
0.585254
0.585295
0.585337
0.585337
0.585379
0.585421
0.585463
0.585505
0.585505
0.585547
0.585589
0.585631
0.585673
0.585673
0.585716
0.585758
0.585801
0.585843
0.585843
0.585886
0.585928
0.585971
0.586014
0.586014
0.586057
0.5861
0.586143
0.586186
0.586186
0.58623
0.586273
0.586316
0.58636
0.58636
0.586403
0.586447
0.58649
0.586534
0.586534
0.586578
0.586622
0.586666
0.58671
0.58671
0.586754
0.586798
0.586843
0.586887
0.586887
0.586931
0.586976
0.58702
0.587065
0.587065
0.58711
0.587155
0.587199
0.587244
0.587244
0.587289
0.587335
0.58738
0.587425
0.587425
0.58747
0.587516
0.587561
0.587607
0.587607
0.587652
0.587698
0.587744
0.58779
0.58779
0.587835
0.587881
0.587928
0.587974
0.587974
0.58802
0.588066
0.588113
0.588159
0.588159
0.588206
0.588252
0.588299
0.588346
0.588346
0.588392
0.588439
0.588486
0.588533
0.588533
0.58858
0.588628
0.588675
0.588722
0.588722
0.58877
0.588817
0.588865
0.588912
0.588912
0.58896
0.589008
0.589056
0.589104
0.589104
0.589152
0.5892
0.589248
0.589296
0.589296
0.589344
0.589393
0.589441
0.58949
0.58949
0.589538
0.589587
0.589636
0.589685
0.589685
0.589734
0.589783
0.589832
0.589881
0.589881
0.58993
0.589979
0.590029
0.590078
0.590078
0.590128
0.590177
0.590227
0.590277
0.590277
0.590327
0.590376
0.590426
0.590476
0.590476
0.590527
0.590577
0.590627
0.590677
0.590677
0.590728
0.590778
0.590829
0.59088
0.59088
0.59093
0.590981
0.591032
0.591083
0.591083
0.591134
0.591185
0.591236
0.591287
0.591287
0.591339
0.59139
0.591442
0.591493
0.591493
0.591545
0.591596
0.591648
0.5917
0.5917
0.591752
0.591804
0.591856
0.591908
0.591908
0.59196
0.592013
0.592065
0.592117
0.592117
0.59217
0.592222
0.592275
0.592328
0.592328
0.592381
0.592434
0.592486
0.592539
0.592539
0.592593
0.592646
0.592699
0.592752
0.592752
0.592806
0.592859
0.592913
0.592966
0.592966
0.59302
0.593074
0.593128
0.593181
0.593181
0.593235
0.593289
0.593344
0.593398
0.593398
0.593452
0.593506
0.593561
0.593615
0.593615
0.59367
0.593724
0.593779
0.593834
0.593834
0.593889
0.593944
0.593999
0.594054
0.594054
0.594109
0.594164
0.594219
0.594275
0.594275
0.59433
0.594386
0.594441
0.594497
0.594497
0.594552
0.594608
0.594664
0.59472
0.59472
0.594776
0.594832
0.594888
0.594944
0.594944
0.595001
0.595057
0.595113
0.59517
0.59517
0.595226
0.595283
0.59534
0.595397
0.595397
0.595453
0.59551
0.595567
0.595624
0.595624
0.595681
0.595739
0.595796
0.595853
0.595853
0.595911
0.595968
0.596026
0.596083
0.596083
0.596141
0.596199
0.596256
0.596314
0.596314
0.596372
0.59643
0.596488
0.596546
0.596546
0.596605
0.596663
0.596721
0.59678
0.59678
0.596838
0.596897
0.596955
0.597014
0.597014
0.597073
0.597132
0.59719
0.597249
0.597249
0.597308
0.597368
0.597427
0.597486
0.597486
0.597545
0.597605
0.597664
0.597723
0.597723
0.597783
0.597843
0.597902
0.597962
0.597962
0.598022
0.598082
0.598142
0.598202
0.598202
0.598262
0.598322
0.598382
0.598442
0.598442
0.598503
0.598563
0.598624
0.598684
0.598684
0.598745
0.598805
0.598866
0.598927
0.598927
0.598988
0.599049
0.59911
0.599171
0.599171
0.599232
0.599293
0.599354
0.599415
0.599415
0.599477
0.599538
0.5996
0.599661
0.599661
0.599723
0.599784
0.599846
0.599908
0.599908
0.59997
0.600032
0.600094
0.600156
0.600156
0.600218
0.60028
0.600342
0.600404
0.600404
0.600467
0.600529
0.600591
0.600654
0.600654
0.600717
0.600779
0.600842
0.600905
0.600905
0.600967
0.60103
0.601093
0.601156
0.601156
0.601219
0.601282
0.601345
0.601409
0.601409
0.601472
0.601535
0.601599