<?xml version="1.0"?>
<VTKFile type="UnstructuredGrid" version="0.1" byte_order="LittleEndian">
<UnstructuredGrid>
<Piece NumberOfPoints="5000" NumberOfCells="4000">
<PointData Scalars="Reaction 0">
<DataArray type="Float32" Name="Reaction 0" format="ascii">
0.561578
0.561578
0.561578
0.561578
0.561578
0.561578
0.561578
0.561578
0.561578
0.561578
0.561578
0.561578
0.561578
0.561578
0.561578
0.561578
0.561578
0.561578
0.561578
0.561578
0.561578
0.561578
0.561578
0.561578
0.561578
0.561578
0.561578
0.561578
0.561578
0.561578
0.561578
0.561578
0.561578
0.561578
0.561578
0.561578
0.561578
0.561578
0.561578
0.561578
0.561578
0.561578
0.561578
0.561578
0.561578
0.561578
0.561578
0.561578
0.561578
0.561578
0.561578
0.561578
0.561578
0.561579
0.561579
0.561579
0.561579
0.561579
0.561579
0.561579
0.561579
0.561579
0.561579
0.561579
0.561579
0.561579
0.561579
0.561579
0.561579
0.561579
0.561579
0.561579
0.561579
0.561579
0.561579
0.561579
0.561579
0.561579
0.561579
0.561579
0.561579
0.561579
0.561579
0.561579
0.561579
0.561579
0.561579
0.561579
0.561579
0.561579
0.561579
0.561579
0.561579
0.561579
0.561579
0.561579
0.561579
0.561579
0.561579
0.561579
0.561579
0.561579
0.561579
0.561579
0.561579
0.561579
0.561579
0.561579
0.561579
0.561579
0.561579
0.561579
0.561579
0.561579
0.561579
0.561579
0.561579
0.561579
0.561579
0.561579
0.561579
0.561579
0.561579
0.56158
0.56158
0.56158
0.56158
0.56158
0.56158
0.56158
0.56158
0.56158
0.56158
0.56158
0.56158
0.56158
0.56158
0.56158
0.56158
0.56158
0.56158
0.56158
0.56158
0.56158
0.56158
0.56158
0.56158
0.56158
0.56158
0.56158
0.56158
0.56158
0.56158
0.56158
0.56158
0.56158
0.56158
0.56158
0.56158
0.56158
0.56158
0.56158
0.56158
0.56158
0.56158
0.56158
0.561581
0.561581
0.561581
0.561581
0.561581
0.561581
0.561581
0.561581
0.561581
0.561581
0.561581
0.561581
0.561581
0.561581
0.561581
0.561581
0.561581
0.561581
0.561581
0.561581
0.561581
0.561581
0.561581
0.561581
0.561581
0.561581
0.561581
0.561581
0.561581
0.561581
0.561581
0.561581
0.561581
0.561582
0.561582
0.561582
0.561582
0.561582
0.561582
0.561582
0.561582
0.561582
0.561582
0.561582
0.561582
0.561582
0.561582
0.561582
0.561582
0.561582
0.561582
0.561582
0.561582
0.561582
0.561582
0.561582
0.561582
0.561582
0.561582
0.561582
0.561582
0.561582
0.561583
0.561583
0.561583
0.561583
0.561583
0.561583
0.561583
0.561583
0.561583
0.561583
0.561583
0.561583
0.561583
0.561583
0.561583
0.561583
0.561583
0.561583
0.561583
0.561583
0.561583
0.561583
0.561583
0.561583
0.561583
0.561584
0.561584
0.561584
0.561584
0.561584
0.561584
0.561584
0.561584
0.561584
0.561584
0.561584
0.561584
0.561584
0.561584
0.561584
0.561584
0.561584
0.561584
0.561584
0.561584
0.561584
0.561584
0.561584
0.561585
0.561585
0.561585
0.561585
0.561585
0.561585
0.561585
0.561585
0.561585
0.561585
0.561585
0.561585
0.561585
0.561585
0.561585
0.561585
0.561585
0.561585
0.561585
0.561585
0.561585
0.561586
0.561586
0.561586
0.561586
0.561586
0.561586
0.561586
0.561586
0.561586
0.561586
0.561586
0.561586
0.561586
0.561586
0.561586
0.561586
0.561586
0.561586
0.561586
0.561586
0.561587
0.561587
0.561587
0.561587
0.561587
0.561587
0.561587
0.561587
0.561587
0.561587
0.561587
0.561587
0.561587
0.561587
0.561587
0.561587
0.561587
0.561587
0.561587
0.561588
0.561588
0.561588
0.561588
0.561588
0.561588
0.561588
0.561588
0.561588
0.561588
0.561588
0.561588
0.561588
0.561588
0.561588
0.561588
0.561588
0.561589
0.561589
0.561589
0.561589
0.561589
0.561589
0.561589
0.561589
0.561589
0.561589
0.561589
0.561589
0.561589
0.561589
0.561589
0.561589
0.561589
0.561589
0.56159
0.56159
0.56159
0.56159
0.56159
0.56159
0.56159
0.56159
0.56159
0.56159
0.56159
0.56159
0.56159
0.56159
0.56159
0.56159
0.561591
0.561591
0.561591
0.561591
0.561591
0.561591
0.561591
0.561591
0.561591
0.561591
0.561591
0.561591
0.561591
0.561591
0.561591
0.561592
0.561592
0.561592
0.561592
0.561592
0.561592
0.561592
0.561592
0.561592
0.561592
0.561592
0.561592
0.561592
0.561592
0.561592
0.561593
0.561593
0.561593
0.561593
0.561593
0.561593
0.561593
0.561593
0.561593
0.561593
0.561593
0.561593
0.561593
0.561593
0.561594
0.561594
0.561594
0.561594
0.561594
0.561594
0.561594
0.561594
0.561594
0.561594
0.561594
0.561594
0.561594
0.561595
0.561595
0.561595
0.561595
0.561595
0.561595
0.561595
0.561595
0.561595
0.561595
0.561595
0.561595
0.561595
0.561595
0.561596
0.561596
0.561596
0.561596
0.561596
0.561596
0.561596
0.561596
0.561596
0.561596
0.561596
0.561596
0.561596
0.561597
0.561597
0.561597
0.561597
0.561597
0.561597
0.561597
0.561597
0.561597
0.561597
0.561597
0.561597
0.561598
0.561598
0.561598
0.561598
0.561598
0.561598
0.561598
0.561598
0.561598
0.561598
0.561598
0.561598
0.561598
0.561599
0.561599
0.561599
0.561599
0.561599
0.561599
0.561599
0.561599
0.561599
0.561599
0.561599
0.561599
0.5616
0.5616
0.5616
0.5616
0.5616
0.5616
0.5616
0.5616
0.5616
0.5616
0.5616
0.561601
0.561601
0.561601
0.561601
0.561601
0.561601
0.561601
0.561601
0.561601
0.561601
0.561601
0.561601
0.561602
0.561602
0.561602
0.561602
0.561602
0.561602
0.561602
0.561602
0.561602
0.561602
0.561602
0.561603
0.561603
0.561603
0.561603
0.561603
0.561603
0.561603
0.561603
0.561603
0.561603
0.561603
0.561604
0.561604
0.561604
0.561604
0.561604
0.561604
0.561604
0.561604
0.561604
0.561604
0.561605
0.561605
0.561605
0.561605
0.561605
0.561605
0.561605
0.561605
0.561605
0.561605
0.561605
0.561606
0.561606
0.561606
0.561606
0.561606
0.561606
0.561606
0.561606
0.561606
0.561606
0.561607
0.561607
0.561607
0.561607
0.561607
0.561607
0.561607
0.561607
0.561607
0.561607
0.561608
0.561608
0.561608
0.561608
0.561608
0.561608
0.561608
0.561608
0.561608
0.561608
0.561609
0.561609
0.561609
0.561609
0.561609
0.561609
0.561609
0.561609
0.561609
0.561609
0.56161
0.56161
0.56161
0.56161
0.56161
0.56161
0.56161
0.56161
0.56161
0.561611
0.561611
0.561611
0.561611
0.561611
0.561611
0.561611
0.561611
0.561611
0.561611
0.561612
0.561612
0.561612
0.561612
0.561612
0.561612
0.561612
0.561612
0.561612
0.561613
0.561613
0.561613
0.561613
0.561613
0.561613
0.561613
0.561613
0.561613
0.561614
0.561614
0.561614
0.561614
0.561614
0.561614
0.561614
0.561614
0.561614
0.561614
0.561615
0.561615
0.561615
0.561615
0.561615
0.561615
0.561615
0.561615
0.561616
0.561616
0.561616
0.561616
0.561616
0.561616
0.561616
0.561616
0.561616
0.561617
0.561617
0.561617
0.561617
0.561617
0.561617
0.561617
0.561617
0.561617
0.561618
0.561618
0.561618
0.561618
0.561618
0.561618
0.561618
0.561619
0.561619
0.561619
0.561619
0.561619
0.561619
0.561619
0.561619
0.561619
0.56162
0.56162
0.56162
0.56162
0.56162
0.56162
0.56162
0.56162
0.56162
0.561621
0.561621
0.561621
0.561621
0.561621
0.561621
0.561621
0.561622
0.561622
0.561622
0.561622
0.561622
0.561622
0.561622
0.561622
0.561622
0.561623
0.561623
0.561623
0.561623
0.561623
0.561623
0.561623
0.561623
0.561624
0.561624
0.561624
0.561624
0.561624
0.561624
0.561624
0.561625
0.561625
0.561625
0.561625
0.561625
0.561625
0.561625
0.561625
0.561625
0.561626
0.561626
0.561626
0.561626
0.561626
0.561626
0.561626
0.561627
0.561627
0.561627
0.561627
0.561627
0.561627
0.561627
0.561627
0.561628
0.561628
0.561628
0.561628
0.561628
0.561628
0.561628
0.561629
0.561629
0.561629
0.561629
0.561629
0.561629
0.561629
0.561629
0.56163
0.56163
0.56163
0.56163
0.56163
0.56163
0.56163
0.561631
0.561631
0.561631
0.561631
0.561631
0.561631
0.561631
0.561631
0.561632
0.561632
0.561632
0.561632
0.561632
0.561632
0.561632
0.561633
0.561633
0.561633
0.561633
0.561633
0.561633
0.561633
0.561634
0.561634
0.561634
0.561634
0.561634
0.561634
0.561634
0.561635
0.561635
0.561635
0.561635
0.561635
0.561635
0.561636
0.561636
0.561636
0.561636
0.561636
0.561636
0.561636
0.561636
0.561637
0.561637
0.561637
0.561637
0.561637
0.561637
0.561638
0.561638
0.561638
0.561638
0.561638
0.561638
0.561638
0.561638
0.561639
0.561639
0.561639
0.561639
0.561639
0.561639
0.56164
0.56164
0.56164
0.56164
0.56164
0.56164
0.56164
0.561641
0.561641
0.561641
0.561641
0.561641
0.561641
0.561641
0.561642
0.561642
0.561642
0.561642
0.561642
0.561642
0.561643
0.561643
0.561643
0.561643
0.561643
0.561643
0.561644
0.561644
0.561644
0.561644
0.561644
0.561644
0.561644
0.561644
0.561645
0.561645
0.561645
0.561645
0.561645
0.561645
0.561646
0.561646
0.561646
0.561646
0.561646
0.561646
0.561647
0.561647
0.561647
0.561647
0.561647
0.561647
0.561648
0.561648
0.561648
0.561648
0.561648
0.561648
0.561648
0.561649
0.561649
0.561649
0.561649
0.561649
0.561649
0.56165
0.56165
0.56165
0.56165
0.56165
0.56165
0.561651
0.561651
0.561651
0.561651
0.561651
0.561651
0.561652
0.561652
0.561652
0.561652
0.561652
0.561653
0.561653
0.561653
0.561653
0.561653
0.561653
0.561653
0.561654
0.561654
0.561654
0.561654
0.561654
0.561654
0.561655
0.561655
0.561655
0.561655
0.561655
0.561655
0.561656
0.561656
0.561656
0.561656
0.561656
0.561656
0.561657
0.561657
0.561657
0.561657
0.561657
0.561658
0.561658
0.561658
0.561658
0.561658
0.561658
0.561658
0.561659
0.561659
0.561659
0.561659
0.561659
0.56166
0.56166
0.56166
0.56166
0.56166
0.56166
0.561661
0.561661
0.561661
0.561661
0.561661
0.561662
0.561662
0.561662
0.561662
0.561662
0.561662
0.561663
0.561663
0.561663
0.561663
0.561663
0.561664
0.561664
0.561664
0.561664
0.561664
0.561664
0.561665
0.561665
0.561665
0.561665
0.561665
0.561666
0.561666
0.561666
0.561666
0.561666
0.561666
0.561666
0.561667
0.561667
0.561667
0.561667
0.561667
0.561668
0.561668
0.561668
0.561668
0.561668
0.561668
0.561669
0.561669
0.561669
0.561669
0.561669
0.56167
0.56167
0.56167
0.56167
0.56167
0.561671
0.561671
0.561671
0.561671
0.561671
0.561672
0.561672
0.561672
0.561672
0.561672
0.561672
0.561673
0.561673
0.561673
0.561673
0.561673
0.561674
0.561674
0.561674
0.561674
0.561674
0.561675
0.561675
0.561675
0.561675
0.561675
0.561676
0.561676
0.561676
0.561676
0.561676
0.561677
0.561677
0.561677
0.561677
0.561677
0.561678
0.561678
0.561678
0.561678
0.561678
0.561679
0.561679
0.561679
0.561679
0.561679
0.561679
0.56168
0.56168
0.56168
0.56168
0.56168
0.561681
0.561681
0.561681
0.561681
0.561682
0.561682
0.561682
0.561682
0.561682
0.561683
0.561683
0.561683
0.561683
0.561683
0.561684
0.561684
0.561684
0.561684
0.561684
0.561685
0.561685
0.561685
0.561685
0.561685
0.561686
0.561686
0.561686
0.561686
0.561686
0.561687
0.561687
0.561687
0.561687
0.561687
0.561688
0.561688
0.561688
0.561688
0.561688
0.561689
0.561689
0.561689
0.561689
0.561689
0.56169
0.56169
0.56169
0.56169
0.56169
0.561691
0.561691
0.561691
0.561691
0.561691
0.561692
0.561692
0.561692
0.561692
0.561693
0.561693
0.561693
0.561693
0.561693
0.561694
0.561694
0.561694
0.561694
0.561694
0.561695
0.561695
0.561695
0.561695
0.561696
0.561696
0.561696
0.561696
0.561696
0.561697
0.561697
0.561697
0.561697
0.561697
0.561698
0.561698
0.561698
0.561699
0.561699
0.561699
0.561699
0.561699
0.5617
0.5617
0.5617
0.5617
0.5617
0.561701
0.561701
0.561701
0.561701
0.561702
0.561702
0.561702
0.561702
0.561702
0.561703
0.561703
0.561703
0.561703
0.561703
0.561704
0.561704
0.561704
0.561704
0.561705
0.561705
0.561705
0.561705
0.561705
0.561706
0.561706
0.561706
0.561706
0.561707
0.561707
0.561707
0.561707
0.561707
0.561708
0.561708
0.561708
0.561709
0.561709
0.561709
0.561709
0.561709
0.56171
0.56171
0.56171
0.56171
0.561711
0.561711
0.561711
0.561711
0.561712
0.561712
0.561712
0.561712
0.561712
0.561713
0.561713
0.561713
0.561713
0.561714
0.561714
0.561714
0.561714
0.561714
0.561715
0.561715
0.561715
0.561716
0.561716
0.561716
0.561716
0.561716
0.561717
0.561717
0.561717
0.561717
0.561718
0.561718
0.561718
0.561718
0.561719
0.561719
0.561719
0.561719
0.56172
0.56172
0.56172
0.56172
0.56172
0.561721
0.561721
0.561721
0.561722
0.561722
0.561722
0.561722
0.561723
0.561723
0.561723
0.561723
0.561723
0.561724
0.561724
0.561724
0.561724
0.561725
0.561725
0.561725
0.561725
0.561726
0.561726
0.561726
0.561727
0.561727
0.561727
0.561727
0.561727
0.561728
0.561728
0.561728
0.561728
0.561729
0.561729
0.561729
0.561729
0.56173
0.56173
0.56173
0.56173
0.561731
0.561731
0.561731
0.561732
0.561732
0.561732
0.561732
0.561733
0.561733
0.561733
0.561733
0.561734
0.561734
0.561734
0.561734
0.561734
0.561735
0.561735
0.561735
0.561735
0.561736
0.561736
0.561736
0.561737
0.561737
0.561737
0.561737
0.561738
0.561738
0.561738
0.561738
0.561739
0.561739
0.561739
0.561739
0.56174
0.56174
0.56174
0.561741
0.561741
0.561741
0.561741
0.561742
0.561742
0.561742
0.561742
0.561743
0.561743
0.561743
0.561743
0.561744
0.561744
0.561744
0.561745
0.561745
0.561745
0.561745
0.561746
0.561746
0.561746
0.561746
0.561747
0.561747
0.561747
0.561747
0.561748
0.561748
0.561748
0.561749
0.561749
0.561749
0.561749
0.56175
0.56175
0.56175
0.56175
0.561751
0.561751
0.561751
0.561751
0.561752
0.561752
0.561752
0.561753
0.561753
0.561753
0.561753
0.561754
0.561754
0.561754
0.561754
0.561755
0.561755
0.561756
0.561756
0.561756
0.561756
0.561757
0.561757
0.561757
0.561757
0.561758
0.561758
0.561758
0.561758
0.561759
0.561759
0.561759
0.56176
0.56176
0.56176
0.56176
0.561761
0.561761
0.561761
0.561762
0.561762
0.561762
0.561763
0.561763
0.561763
0.561763
0.561764
0.561764
0.561764
0.561764
0.561765
0.561765
0.561765
0.561765
0.561766
0.561766
0.561766
0.561767
0.561767
0.561767
0.561768
0.561768
0.561768
0.561768
0.561769
0.561769
0.561769
0.56177
0.56177
0.56177
0.561771
0.561771
0.561771
0.561771
0.561772
0.561772
0.561772
0.561773
0.561773
0.561773
0.561773
0.561774
0.561774
0.561774
0.561775
0.561775
0.561775
0.561776
0.561776
0.561776
0.561776
0.561777
0.561777
0.561777
0.561778
0.561778
0.561778
0.561779
0.561779
0.561779
0.561779
0.56178
0.56178
0.56178
0.561781
0.561781
0.561781
0.561782
0.561782
0.561782
0.561782
0.561783
0.561783
0.561783
0.561784
0.561784
0.561784
0.561785
0.561785
0.561785
0.561786
0.561786
0.561786
0.561786
0.561787
0.561787
0.561787
0.561788
0.561788
0.561788
0.561789
0.561789
0.561789
0.561789
0.56179
0.56179
0.561791
0.561791
0.561791
0.561791
0.561792
0.561792
0.561793
0.561793
0.561793
0.561793
0.561794
0.561794
0.561794
0.561794
0.561795
0.561795
0.561796
0.561796
0.561796
0.561797
0.561797
0.561797
0.561797
0.561798
0.561798
0.561799
0.561799
0.561799
0.561799
0.5618
0.5618
0.561801
0.561801
0.561801
0.561801
0.561802
0.561802
0.561802
0.561803
0.561803
0.561803
0.561804
0.561804
0.561804
0.561805
0.561805
0.561805
0.561805
0.561806
0.561806
0.561807
0.561807
0.561807
0.561807
0.561808
0.561808
0.561809
0.561809
0.561809
0.561809
0.56181
0.56181
0.56181
0.561811
0.561811
0.561812
0.561812
0.561812
0.561812
0.561813
0.561813
0.561814
0.561814
0.561814
0.561815
0.561815
0.561815
0.561815
0.561816
0.561816
0.561817
0.561817
0.561817
0.561817
0.561818
0.561818
0.561819
0.561819
0.561819
0.56182
0.56182
0.56182
0.56182
0.561821
0.561821
0.561822
0.561822
0.561822
0.561823
0.561823
0.561823
0.561824
0.561824
0.561824
0.561825
0.561825
0.561826
0.561826
0.561826
0.561826
0.561827
0.561827
0.561827
0.561828
0.561828
0.561829
0.561829
0.561829
0.56183
0.56183
0.56183
0.561831
0.561831
0.561831
0.561832
0.561832
0.561833
0.561833
0.561833
0.561833
0.561834
0.561834
0.561834
0.561835
0.561835
0.561836
0.561836
0.561836
0.561837
0.561837
0.561837
0.561838
0.561838
0.561838
0.561839
0.561839
0.56184
0.56184
0.56184
0.561841
0.561841
0.561842
0.561842
0.561842
0.561842
0.561843
0.561843
0.561843
0.561844
0.561844
0.561845
0.561845
0.561845
0.561846
0.561846
0.561847
0.561847
0.561847
0.561847
0.561848
0.561848
0.561849
0.561849
0.561849
0.56185
0.56185
0.561851
0.561851
0.561851
0.561852
0.561852
0.561853
0.561853
0.561853
0.561853
0.561854
0.561854
0.561854
0.561855
0.561855
0.561856
0.561856
0.561856
0.561857
0.561857
0.561858
0.561858
0.561858
0.561859
0.561859
0.56186
0.56186
0.56186
0.561861
0.561861
0.561861
0.561862
0.561862
0.561862
0.561863
0.561863
0.561864
0.561864
0.561864
0.561865
0.561865
0.561866
0.561866
0.561866
0.561867
0.561867
0.561868
0.561868
0.561868
0.561869
0.561869
0.56187
0.56187
0.56187
0.561871
0.561871
0.561872
0.561872
0.561872
0.561873
0.561873
0.561874
0.561874
0.561874
0.561875
0.561875
0.561876
0.561876
0.561876
0.561876
0.561877
0.561877
0.561877
0.561878
0.561878
0.561879
0.561879
0.561879
0.56188
0.56188
0.561881
0.561881
0.561881
0.561882
0.561883
0.561883
0.561884
0.561884
0.561884
0.561885
0.561885
0.561886
0.561886
0.561886
0.561887
0.561887
0.561888
0.561888
0.561888
0.561889
0.561889
0.56189
0.56189
0.56189
0.561891
0.561891
0.561892
0.561892
0.561892
0.561893
0.561893
0.561894
0.561894
0.561894
0.561895
0.561895
0.561896
0.561896
0.561896
0.561897
0.561897
0.561898
0.561898
0.561898
0.561899
0.561899
0.5619
0.5619
0.5619
0.561901
0.561901
0.561902
0.561902
0.561902
0.561903
0.561904
0.561904
0.561904
0.561905
0.561905
0.561906
0.561906
0.561906
0.561907
0.561907
0.561908
0.561908
0.561908
0.561909
0.561909
0.56191
0.56191
0.56191
0.561911
0.561912
0.561912
0.561913
0.561913
0.561913
0.561914
0.561914
0.561915
0.561915
0.561915
0.561916
0.561916
0.561917
0.561917
0.561917
0.561918
0.561919
0.561919
0.561919
0.56192
0.56192
0.561921
0.561921
0.561921
0.561922
0.561922
0.561923
0.561923
0.561923
0.561924
0.561925
0.561925
0.561926
0.561926
0.561926
0.561927
0.561927
0.561928
0.561928
0.561928
0.561929
0.56193
0.56193
0.56193
0.561931
0.561931
0.561932
0.561932
0.561932
0.561933
0.561933
0.561934
0.561935
0.561935
0.561935
0.561936
0.561936
0.561937
0.561937
0.561937
0.561938
0.561938
0.561939
0.561939
0.56194
0.56194
0.561941
0.561941
0.561941
0.561942
0.561943
0.561943
0.561944
0.561944
0.561944
0.561945
0.561945
0.561946
0.561946
0.561947
0.561947
0.561948
0.561948
0.561948
0.561949
0.561949
0.56195
0.561951
0.561951
0.561951
0.561952
0.561952
0.561953
0.561953
0.561953
0.561954
0.561955
0.561955
0.561955
0.561956
0.561956
0.561957
0.561958
0.561958
0.561958
0.561959
0.561959
0.56196
0.56196
0.561961
0.561961
0.561962
0.561962
0.561962
0.561963
0.561964
0.561964
0.561965
0.561965
0.561965
0.561966
0.561967
0.561967
0.561967
0.561968
0.561968
0.561969
0.561969
0.561969
0.56197
0.561971
0.561971
0.561972
0.561972
0.561973
0.561973
0.561974
0.561974
0.561974
0.561975
0.561976
0.561976
0.561977
0.561977
0.561977
0.561978
0.561979
0.561979
0.561979
0.56198
0.561981
0.561981
0.561982
0.561982
0.561982
0.561983
0.561984
0.561984
0.561984
0.561985
0.561985
0.561986
0.561987
0.561987
0.561987
0.561988
0.561989
0.561989
0.561989
0.56199
0.56199
0.561991
0.561992
0.561992
0.561992
0.561993
0.561994
0.561994
0.561994
0.561995
0.561996
0.561996
0.561997
0.561997
0.561997
0.561998
0.561999
0.561999
0.561999
0.562
0.562001
0.562001
0.562002
0.562002
0.562003
0.562003
0.562004
0.562004
0.562004
0.562005
0.562006
0.562006
0.562007
0.562007
0.562008
0.562008
0.562009
0.56201
0.56201
0.56201
0.562011
0.562012
0.562012
0.562012
0.562013
0.562014
0.562014
0.562015
0.562015
0.562016
0.562016
0.562017
0.562018
0.562018
0.562018
0.562019
0.56202
0.56202
0.56202
0.562021
0.562022
0.562022
0.562023
0.562023
0.562024
0.562024
0.562025
0.562026
0.562026
0.562026
0.562027
0.562028
0.562028
0.562028
0.562029
0.56203
0.56203
0.562031
0.562031
0.562032
0.562032
0.562033
0.562034
0.562034
0.562034
0.562035
0.562036
0.562036
0.562036
0.562037
0.562038
0.562038
0.562039
0.562039
0.56204
0.562041
0.562041
0.562042
0.562042
0.562043
0.562043
0.562044
0.562045
0.562045
0.562045
0.562046
0.562047
0.562047
0.562047
0.562048
0.562049
0.56205
0.56205
0.56205
0.562051
0.562052
0.562052
0.562053
0.562053
0.562054
0.562054
0.562055
0.562056
0.562056
0.562057
0.562057
0.562058
0.562059
0.562059
0.562059
0.56206
0.562061
0.562062
0.562062
0.562062
0.562063
0.562064
0.562064
0.562064
0.562065
0.562066
0.562067
0.562067
0.562067
0.562068
0.562069
0.562069
0.56207
0.56207
0.562071
0.562072
0.562072
0.562073
0.562073
0.562074
0.562075
0.562075
0.562076
0.562076
0.562077
0.562077
0.562078
0.562079
0.562079
0.56208
0.56208
0.562081
0.562082
0.562082
0.562083
0.562083
0.562084
0.562085
0.562085
0.562086
0.562086
0.562087
0.562088
0.562088
0.562089
0.562089
0.56209
0.562091
0.562091
0.562092
0.562092
0.562093
0.562094
0.562094
0.562095
0.562095
0.562096
0.562097
0.562097
0.562098
0.562098
0.562099
0.5621
0.5621
0.562101
0.562101
0.562102
0.562103
0.562103
0.562104
0.562104
0.562105
0.562106
0.562106
0.562107
0.562107
0.562108
0.562109
0.562109
0.56211
0.562111
0.562111
0.562112
0.562112
0.562113
0.562114
0.562114
0.562115
0.562115
0.562116
0.562117
0.562118
0.562118
0.562118
0.562119
0.56212
0.562121
0.562121
0.562121
0.562122
0.562123
0.562124
0.562125
0.562125
0.562125
0.562126
0.562127
0.562128
0.562128
0.562129
0.562129
0.56213
0.562131
0.562131
0.562132
0.562133
0.562133
0.562134
0.562134
0.562135
0.562136
0.562137
0.562137
0.562137
0.562138
0.562139
0.56214
0.562141
0.562141
0.562141
0.562142
0.562143
0.562144
0.562144
0.562145
0.562145
0.562146
0.562147
0.562147
0.562148
0.562149
0.56215
0.56215
0.56215
0.562151
0.562152
0.562153
0.562154
0.562154
0.562155
0.562155
0.562156
0.562157
0.562157
0.562158
0.562159
0.56216
0.56216
0.56216
0.562161
0.562162
0.562163
0.562164
0.562164
0.562165
0.562165
0.562166
0.562167
0.562167
0.562168
0.562169
0.56217
0.56217
0.56217
0.562171
0.562172
0.562173
0.562174
0.562174
0.562175
0.562176
0.562176
0.562177
0.562177
0.562178
0.562179
0.56218
0.562181
0.562181
0.562181
0.562182
0.562183
0.562184
0.562184
0.562185
0.562186
0.562187
0.562188
0.562188
0.562188
0.562189
0.56219
0.562191
0.562191
0.562192
0.562193
0.562194
0.562195
0.562195
0.562195
0.562196
0.562197
0.562198
0.562198
0.562199
0.5622
0.562201
0.562202
0.562202
0.562202
0.562203
0.562204
0.562205
0.562205
0.562206
0.562207
0.562208
0.562209
0.562209
0.56221
0.562211
0.562211
0.562212
0.562212
0.562213
0.562214
0.562215
0.562216
0.562216
0.562217
0.562218
0.562219
0.562219
0.562219
0.56222
0.562221
0.562222
0.562223
0.562223
0.562224
0.562225
0.562226
0.562227
0.562227
0.562228
0.562229
0.56223
0.562231
0.562231
0.562231
0.562232
0.562233
0.562234
0.562234
0.562235
0.562236
0.562237
0.562238
0.562238
0.562239
0.56224
0.562241
0.562242
0.562242
0.562243
0.562243
0.562244
0.562245
0.562245
0.562246
0.562247
0.562248
0.562249
0.562249
0.56225
0.562251
0.562252
0.562253
0.562253
0.562254
0.562255
0.562256
0.562257
0.562257
0.562258
0.562259
0.56226
0.562261
0.562261
0.562261
0.562262
0.562263
0.562264
0.562264
0.562265
0.562266
0.562267
0.562268
0.562268
0.562269
0.56227
0.562271
0.562272
0.562272
0.562273
0.562274
0.562275
0.562276
0.562276
0.562277
0.562278
0.562279
0.56228
0.56228
0.562281
0.562282
0.562283
0.562284
0.562284
0.562285
0.562286
0.562287
0.562288
0.562288
0.562289
0.56229
0.562291
0.562292
0.562292
0.562293
0.562294
0.562295
0.562296
0.562296
0.562297
0.562298
0.562299
0.5623
0.5623
0.562301
0.562302
0.562303
0.562304
0.562304
0.562305
0.562306
0.562307
0.562308
0.562308
0.562309
0.56231
0.562311
0.562312
0.562312
0.562313
0.562314
0.562315
0.562316
0.562316
0.562317
0.562318
0.562319
0.56232
0.56232
0.562321
0.562322
0.562323
0.562324
0.562324
0.562325
0.562327
0.562328
0.562329
0.562329
0.56233
0.562331
0.562332
0.562333
0.562333
0.562334
0.562335
0.562336
0.562337
0.562337
0.562338
0.562339
0.56234
0.562341
0.562341
0.562342
0.562343
0.562344
0.562346
0.562346
0.562347
0.562348
0.562349
0.56235
0.56235
0.562351
0.562352
0.562353
0.562354
0.562354
0.562355
0.562356
0.562357
0.562358
0.562358
0.56236
0.562361
0.562362
0.562363
0.562363
0.562364
0.562365
0.562366
0.562367
0.562367
0.562368
0.562369
0.56237
0.562372
0.562372
0.562373
0.562374
0.562375
0.562376
0.562376
0.562377
0.562378
0.562379
0.56238
0.56238
0.562382
0.562383
0.562384
0.562385
0.562385
0.562386
0.562387
0.562388
0.562389
0.562389
0.56239
0.562392
0.562393
0.562394
0.562394
0.562395
0.562396
0.562397
0.562398
0.562398
0.5624
0.562401
0.562402
0.562403
0.562403
0.562404
0.562405
0.562406
0.562408
0.562408
0.562409
0.56241
0.562411
0.562412
0.562412
0.562413
0.562414
0.562416
0.562417
0.562417
0.562418
0.562419
0.56242
0.562421
0.562421
0.562423
0.562424
0.562425
0.562426
0.562426
0.562427
0.562428
0.56243
0.562431
0.562431
0.562432
0.562433
0.562434
0.562436
0.562436
0.562437
0.562438
0.562439
0.56244
0.56244
0.562441
0.562443
0.562444
0.562445
0.562445
0.562446
0.562447
0.562449
0.56245
0.56245
0.562451
0.562452
0.562454
0.562455
0.562455
0.562456
0.562457
0.562458
0.56246
0.56246
0.562461
0.562462
0.562463
0.562464
0.562464
0.562466
0.562467
0.562468
0.562469
0.562469
0.562471
0.562472
0.562473
0.562474
0.562474
0.562476
0.562477
0.562478
0.562479
0.562479
0.562481
0.562482
0.562483
0.562484
0.562484
0.562485
0.562487
0.562488
0.562489
0.562489
0.56249
0.562492
0.562493
0.562494
0.562494
0.562496
0.562497
0.562498
0.562499
0.562499
0.562501
0.562502
0.562503
0.562504
0.562504
0.562506
0.562507
0.562508
0.56251
0.56251
0.562511
0.562512
0.562513
0.562515
0.562515
0.562516
0.562517
0.562519
0.56252
0.56252
0.562521
0.562523
0.562524
0.562525
0.562525
0.562526
0.562528
0.562529
0.56253
0.56253
0.562532
0.562533
0.562534
0.562536
0.562536
0.562537
0.562538
0.56254
0.562541
0.562541
0.562542
0.562544
0.562545
0.562546
0.562546
0.562548
0.562549
0.56255
0.562552
0.562552
0.562553
0.562554
0.562556
0.562557
0.562557
0.562558
0.56256
0.562561
0.562562
0.562562
0.562564
0.562565
0.562566
0.562568
0.562568
0.562569
0.562571
0.562572
0.562573
0.562573
0.562575
0.562576
0.562577
0.562579
0.562579
0.56258
0.562582
0.562583
0.562584
0.562584
0.562586
0.562587
0.562589
0.56259
0.56259
0.562591
0.562593
0.562594
0.562596
0.562596
0.562597
0.562598
0.5626
0.562601
0.562601
0.562603
0.562604
0.562605
0.562607
0.562607
0.562608
0.56261
0.562611
0.562613
0.562613
0.562614
0.562615
0.562617
0.562618
0.562618
0.56262
0.562621
0.562623
0.562624
0.562624
0.562625
0.562627
0.562628
0.56263
0.56263
0.562631
0.562633
0.562634
0.562636
0.562636
0.562637
0.562639
0.56264
0.562641
0.562641
0.562643
0.562644
0.562646
0.562647
0.562647
0.562649
0.56265
0.562652
0.562653
0.562653
0.562655
0.562656
0.562658
0.562659
0.562659
0.562661
0.562662
0.562664
0.562665
0.562665
0.562667
0.562668
0.56267
0.562671
0.562671
0.562673
0.562674
0.562676
0.562677
0.562677
0.562679
0.56268
0.562682
0.562683
0.562683
0.562685
0.562686
0.562688
0.562689
0.562689
0.562691
0.562693
0.562694
0.562696
0.562696
0.562697
0.562699
0.5627
0.562702
0.562702
0.562703
0.562705
0.562706
0.562708
0.562708
0.56271
0.562711
0.562713
0.562714
0.562714
0.562716
0.562717
0.562719
0.562721
0.562721
0.562722
0.562724
0.562725
0.562727
0.562727
0.562729
0.56273
0.562732
0.562733
0.562733
0.562735
0.562737
0.562738
0.56274
0.56274
0.562741
0.562743
0.562745
0.562746
0.562746
0.562748
0.562749
0.562751
0.562753
0.562753
0.562754
0.562756
0.562758
0.562759
0.562759
0.562761
0.562762
0.562764
0.562766
0.562766
0.562767
0.562769
0.562771
0.562772
0.562772
0.562774
0.562776
0.562777
0.562779
0.562779
0.562781
0.562782
0.562784
0.562786
0.562786
0.562787
0.562789
0.562791
0.562792
0.562792
0.562794
0.562796
0.562797
0.562799
0.562799
0.562801
0.562803
0.562804
0.562806
0.562806
0.562808
0.562809
0.562811
0.562813
0.562813
0.562814
0.562816
0.562818
0.56282
0.56282
0.562821
0.562823
0.562825
0.562827
0.562827
0.562828
0.56283
0.562832
0.562834
0.562834
0.562835
0.562837
0.562839
0.562841
0.562841
0.562842
0.562844
0.562846
0.562848
0.562848
0.562849
0.562851
0.562853
0.562855
0.562855
0.562856
0.562858
0.56286
0.562862
0.562862
0.562864
0.562865
0.562867
0.562869
0.562869
0.562871
0.562873
0.562874
0.562876
0.562876
0.562878
0.56288
0.562882
0.562883
0.562883
0.562885
0.562887
0.562889
0.562891
0.562891
0.562893
0.562894
0.562896
0.562898
0.562898
0.5629
0.562902
0.562904
0.562905
0.562905
0.562907
0.562909
0.562911
0.562913
0.562913
0.562915
0.562917
0.562918
0.56292
0.56292
0.562922
0.562924
0.562926
0.562928
0.562928
0.56293
0.562932
0.562934
0.562935
0.562935
0.562937
0.562939
0.562941
0.562943
0.562943
0.562945
0.562947
0.562949
0.562951
0.562951
0.562953
0.562955
0.562956
0.562958
0.562958
0.56296
0.562962
0.562964
0.562966
0.562966
0.562968
0.56297
0.562972
0.562974
0.562974
0.562976
0.562978
0.56298
0.562982
0.562982
0.562984
0.562986
0.562988
0.56299
0.56299
0.562992
0.562994
0.562996
0.562998
0.562998
0.563
0.563002
0.563004
0.563006
0.563006
0.563008
0.56301
0.563012
0.563014
0.563014
0.563016
0.563018
0.56302
0.563022
0.563022
0.563024
0.563026
0.563028
0.56303
0.56303
0.563032
0.563034
0.563036
0.563038
0.563038
0.56304
0.563042
0.563044
0.563046
0.563046
0.563048
0.56305
0.563053
0.563055
0.563055
0.563057
0.563059
0.563061
0.563063
0.563063
0.563065
0.563067
0.563069
0.563071
0.563071
0.563074
0.563076
0.563078
0.56308
0.56308
0.563082
0.563084
0.563086
0.563088
0.563088
0.563091
0.563093
0.563095
0.563097
0.563097
0.563099
0.563101
0.563103
0.563106
0.563106
0.563108
0.56311
0.563112
0.563114
0.563114
0.563116
0.563119
0.563121
0.563123
0.563123
0.563125
0.563127
0.56313
0.563132
0.563132
0.563134
0.563136
0.563138
0.563141
0.563141
0.563143
0.563145
0.563147
0.56315
0.56315
0.563152
0.563154
0.563156
0.563158
0.563158
0.563161
0.563163
0.563165
0.563168
0.563168
0.56317
0.563172
0.563174
0.563177
0.563177
0.563179
0.563181
0.563183
0.563186
0.563186
0.563188
0.56319
0.563193
0.563195
0.563195
0.563197
0.5632
0.563202
0.563204
0.563204
0.563206
0.563209
0.563211
0.563214
0.563214
0.563216
0.563218
0.563221
0.563223
0.563223
0.563225
0.563228
0.56323
0.563232
0.563232
0.563235
0.563237
0.563239
0.563242
0.563242
0.563244
0.563247
0.563249
0.563251
0.563251
0.563254
0.563256
0.563259
0.563261
0.563261
0.563263
0.563266
0.563268
0.563271
0.563271
0.563273
0.563275
0.563278
0.56328
0.56328
0.563283
0.563285
0.563288
0.56329
0.56329
0.563293
0.563295
0.563298
0.5633
0.5633
0.563303
0.563305
0.563308
0.56331
0.56331
0.563312
0.563315
0.563318
0.56332
0.56332
0.563323
0.563325
0.563328
0.56333
0.56333
0.563333
0.563335
0.563338
0.56334
0.56334
0.563343
0.563345
0.563348
0.56335
0.56335
0.563353
0.563356
0.563358
0.563361
0.563361
0.563363
0.563366
0.563369
0.563371
0.563371
0.563374
0.563376
0.563379
0.563382
0.563382
0.563384
0.563387
0.563389
0.563392
0.563392
0.563395
0.563397
0.5634
0.563403
0.563403
0.563405
0.563408
0.563411
0.563413
0.563413
0.563416
0.563419
0.563421
0.563424
0.563424
0.563427
0.563429