<?xml version="1.0"?>
<VTKFile type="UnstructuredGrid" version="0.1" byte_order="LittleEndian">
<UnstructuredGrid>
<Piece NumberOfPoints="5000" NumberOfCells="4000">
<PointData Scalars="Reaction 0">
<DataArray type="Float32" Name="Reaction 0" format="ascii">
0.442448
0.442448
0.442448
0.442448
0.442448
0.442448
0.442448
0.442449
0.442449
0.442449
0.442449
0.442449
0.44245
0.44245
0.44245
0.44245
0.442451
0.442451
0.442452
0.442452
0.442452
0.442453
0.442453
0.442454
0.442454
0.442454
0.442455
0.442456
0.442457
0.442457
0.442457
0.442458
0.442459
0.44246
0.442461
0.442461
0.442462
0.442463
0.442463
0.442464
0.442464
0.442466
0.442467
0.442468
0.442469
0.442469
0.44247
0.442471
0.442472
0.442474
0.442474
0.442475
0.442476
0.442478
0.442479
0.442479
0.442481
0.442482
0.442483
0.442485
0.442485
0.442487
0.442488
0.44249
0.442491
0.442491
0.442493
0.442495
0.442497
0.442498
0.442498
0.4425
0.442502
0.442504
0.442506
0.442506
0.442508
0.44251
0.442512
0.442514
0.442514
0.442516
0.442518
0.44252
0.442522
0.442522
0.442524
0.442527
0.442529
0.442531
0.442531
0.442534
0.442536
0.442538
0.442541
0.442541
0.442543
0.442546
0.442548
0.442551
0.442551
0.442553
0.442556
0.442559
0.442561
0.442561
0.442564
0.442567
0.442569
0.442572
0.442572
0.442575
0.442578
0.442581
0.442584
0.442584
0.442587
0.44259
0.442593
0.442596
0.442596
0.442599
0.442602
0.442605
0.442608
0.442608
0.442612
0.442615
0.442618
0.442622
0.442622
0.442625
0.442628
0.442632
0.442635
0.442635
0.442639
0.442642
0.442646
0.442649
0.442649
0.442653
0.442656
0.44266
0.442664
0.442664
0.442668
0.442671
0.442675
0.442679
0.442679
0.442683
0.442687
0.442691
0.442695
0.442695
0.442699
0.442703
0.442707
0.442711
0.442711
0.442715
0.442719
0.442723
0.442728
0.442728
0.442732
0.442736
0.44274
0.442745
0.442745
0.442749
0.442753
0.442758
0.442762
0.442762
0.442767
0.442771
0.442776
0.442781
0.442781
0.442785
0.44279
0.442795
0.442799
0.442799
0.442804
0.442809
0.442814
0.442819
0.442819
0.442824
0.442828
0.442833
0.442838
0.442838
0.442843
0.442848
0.442854
0.442859
0.442859
0.442864
0.442869
0.442874
0.442879
0.442879
0.442885
0.44289
0.442895
0.442901
0.442901
0.442906
0.442912
0.442917
0.442923
0.442923
0.442928
0.442934
0.442939
0.442945
0.442945
0.442951
0.442956
0.442962
0.442968
0.442968
0.442974
0.442979
0.442985
0.442991
0.442991
0.442997
0.443003
0.443009
0.443015
0.443015
0.443021
0.443027
0.443033
0.443039
0.443039
0.443046
0.443052
0.443058
0.443064
0.443064
0.443071
0.443077
0.443083
0.44309
0.44309
0.443096
0.443103
0.443109
0.443116
0.443116
0.443122
0.443129
0.443135
0.443142
0.443142
0.443149
0.443155
0.443162
0.443169
0.443169
0.443176
0.443183
0.44319
0.443196
0.443196
0.443203
0.44321
0.443217
0.443224
0.443224
0.443232
0.443239
0.443246
0.443253
0.443253
0.44326
0.443267
0.443275
0.443282
0.443282
0.443289
0.443297
0.443304
0.443312
0.443312
0.443319
0.443326
0.443334
0.443342
0.443342
0.443349
0.443357
0.443364
0.443372
0.443372
0.44338
0.443388
0.443395
0.443403
0.443403
0.443411
0.443419
0.443427
0.443435
0.443435
0.443443
0.443451
0.443459
0.443467
0.443467
0.443475
0.443483
0.443491
0.4435
0.4435
0.443508
0.443516
0.443524
0.443533
0.443533
0.443541
0.443549
0.443558
0.443566
0.443566
0.443575
0.443583
0.443592
0.4436
0.4436
0.443609
0.443618
0.443626
0.443635
0.443635
0.443644
0.443653
0.443662
0.44367
0.44367
0.443679
0.443688
0.443697
0.443706
0.443706
0.443715
0.443724
0.443733
0.443742
0.443742
0.443751
0.443761
0.44377
0.443779
0.443779
0.443788
0.443798
0.443807
0.443816
0.443816
0.443826
0.443835
0.443845
0.443854
0.443854
0.443864
0.443873
0.443883
0.443892
0.443892
0.443902
0.443912
0.443921
0.443931
0.443931
0.443941
0.443951
0.443961
0.44397
0.44397
0.44398
0.44399
0.444
0.44401
0.44401
0.44402
0.44403
0.44404
0.444051
0.444051
0.444061
0.444071
0.444081
0.444091
0.444091
0.444102
0.444112
0.444122
0.444133
0.444133
0.444143
0.444154
0.444164
0.444175
0.444175
0.444185
0.444196
0.444207
0.444217
0.444217
0.444228
0.444239
0.444249
0.44426
0.44426
0.444271
0.444282
0.444293
0.444304
0.444304
0.444315
0.444325
0.444336
0.444348
0.444348
0.444359
0.44437
0.444381
0.444392
0.444392
0.444403
0.444414
0.444426
0.444437
0.444437
0.444448
0.44446
0.444471
0.444482
0.444482
0.444494
0.444505
0.444517
0.444529
0.444529
0.44454
0.444552
0.444563
0.444575
0.444575
0.444587
0.444599
0.44461
0.444622
0.444622
0.444634
0.444646
0.444658
0.44467
0.44467
0.444682
0.444694
0.444706
0.444718
0.444718
0.44473
0.444742
0.444754
0.444766
0.444766
0.444779
0.444791
0.444803
0.444816
0.444816
0.444828
0.44484
0.444853
0.444865
0.444865
0.444878
0.44489
0.444903
0.444915
0.444915
0.444928
0.444941
0.444953
0.444966
0.444966
0.444979
0.444992
0.445004
0.445017
0.445017
0.44503
0.445043
0.445056
0.445069
0.445069
0.445082
0.445095
0.445108
0.445121
0.445121
0.445134
0.445147
0.445161
0.445174
0.445174
0.445187
0.4452
0.445214
0.445227
0.445227
0.445241
0.445254
0.445267
0.445281
0.445281
0.445294
0.445308
0.445322
0.445335
0.445335
0.445349
0.445363
0.445376
0.44539
0.44539
0.445404
0.445418
0.445432
0.445445
0.445445
0.445459
0.445473
0.445487
0.445501
0.445501
0.445515
0.445529
0.445544
0.445558
0.445558
0.445572
0.445586
0.4456
0.445615
0.445615
0.445629
0.445643
0.445658
0.445672
0.445672
0.445686
0.445701
0.445715
0.44573
0.44573
0.445744
0.445759
0.445774
0.445788
0.445788
0.445803
0.445818
0.445833
0.445847
0.445847
0.445862
0.445877
0.445892
0.445907
0.445907
0.445922
0.445937
0.445952
0.445967
0.445967
0.445982
0.445997
0.446012
0.446027
0.446027
0.446043
0.446058
0.446073
0.446088
0.446088
0.446104
0.446119
0.446134
0.44615
0.44615
0.446165
0.446181
0.446196
0.446212
0.446212
0.446228
0.446243
0.446259
0.446275
0.446275
0.44629
0.446306
0.446322
0.446338
0.446338
0.446354
0.446369
0.446385
0.446401
0.446401
0.446417
0.446433
0.446449
0.446466
0.446466
0.446482
0.446498
0.446514
0.44653
0.44653
0.446546
0.446563
0.446579
0.446595
0.446595
0.446612
0.446628
0.446645
0.446661
0.446661
0.446678
0.446694
0.446711
0.446727
0.446727
0.446744
0.446761
0.446777
0.446794
0.446794
0.446811
0.446828
0.446845
0.446861
0.446861
0.446878
0.446895
0.446912
0.446929
0.446929
0.446946
0.446963
0.44698
0.446998
0.446998
0.447015
0.447032
0.447049
0.447066
0.447066
0.447084
0.447101
0.447118
0.447136
0.447136
0.447153
0.447171
0.447188
0.447206
0.447206
0.447223
0.447241
0.447258
0.447276
0.447276
0.447294
0.447311
0.447329
0.447347
0.447347
0.447365
0.447383
0.4474
0.447418
0.447418
0.447436
0.447454
0.447472
0.44749
0.44749
0.447508
0.447527
0.447545
0.447563
0.447563
0.447581
0.447599
0.447618
0.447636
0.447636
0.447654
0.447673
0.447691
0.447709
0.447709
0.447728
0.447746
0.447765
0.447783
0.447783
0.447802
0.447821
0.447839
0.447858
0.447858
0.447877
0.447896
0.447914
0.447933
0.447933
0.447952
0.447971
0.44799
0.448009
0.448009
0.448028
0.448047
0.448066
0.448085
0.448085
0.448104
0.448123
0.448142
0.448162
0.448162
0.448181
0.4482
0.448219
0.448239
0.448239
0.448258
0.448278
0.448297
0.448317
0.448317
0.448336
0.448356
0.448375
0.448395
0.448395
0.448414
0.448434
0.448454
0.448474
0.448474
0.448493
0.448513
0.448533
0.448553
0.448553
0.448573
0.448593
0.448613
0.448633
0.448633
0.448653
0.448673
0.448693
0.448713
0.448713
0.448733
0.448753
0.448774
0.448794
0.448794
0.448814
0.448834
0.448855
0.448875
0.448875
0.448896
0.448916
0.448937
0.448957
0.448957
0.448978
0.448998
0.449019
0.449039
0.449039
0.44906
0.449081
0.449102
0.449122
0.449122
0.449143
0.449164
0.449185
0.449206
0.449206
0.449227
0.449248
0.449269
0.44929
0.44929
0.449311
0.449332
0.449353
0.449374
0.449374
0.449396
0.449417
0.449438
0.44946
0.44946
0.449481
0.449502
0.449524
0.449545
0.449545
0.449567
0.449588
0.44961
0.449631
0.449631
0.449653
0.449674
0.449696
0.449718
0.449718
0.44974
0.449761
0.449783
0.449805
0.449805
0.449827
0.449849
0.449871
0.449893
0.449893
0.449915
0.449937
0.449959
0.449981
0.449981
0.450003
0.450025
0.450047
0.45007
0.45007
0.450092
0.450114
0.450136
0.450159
0.450159
0.450181
0.450204
0.450226
0.450249
0.450249
0.450271
0.450294
0.450316
0.450339
0.450339
0.450362
0.450384
0.450407
0.45043
0.45043
0.450453
0.450475
0.450498
0.450521
0.450521
0.450544
0.450567
0.45059
0.450613
0.450613
0.450636
0.450659
0.450682
0.450705
0.450705
0.450729
0.450752
0.450775
0.450798
0.450798
0.450822
0.450845
0.450868
0.450892
0.450892
0.450915
0.450939
0.450962
0.450986
0.450986
0.451009
0.451033
0.451057
0.45108
0.45108
0.451104
0.451128
0.451152
0.451175
0.451175
0.451199
0.451223
0.451247
0.451271
0.451271
0.451295
0.451319
0.451343
0.451367
0.451367
0.451391
0.451415
0.45144
0.451464
0.451464
0.451488
0.451512
0.451537
0.451561
0.451561
0.451585
0.45161
0.451634
0.451659
0.451659
0.451683
0.451708
0.451732
0.451757
0.451757
0.451781
0.451806
0.451831
0.451856
0.451856
0.45188
0.451905
0.45193
0.451955
0.451955
0.45198
0.452005
0.45203
0.452055
0.452055
0.45208
0.452105
0.45213
0.452155
0.452155
0.45218
0.452205
0.452231
0.452256
0.452256
0.452281
0.452307
0.452332
0.452357
0.452357
0.452383
0.452408
0.452434
0.452459
0.452459
0.452485
0.45251
0.452536
0.452562
0.452562
0.452587
0.452613
0.452639
0.452665
0.452665
0.452691
0.452716
0.452742
0.452768
0.452768
0.452794
0.45282
0.452846
0.452872
0.452872
0.452898
0.452925
0.452951
0.452977
0.452977
0.453003
0.453029
0.453056
0.453082
0.453082
0.453108
0.453135
0.453161
0.453188
0.453188
0.453214
0.453241
0.453267
0.453294
0.453294
0.45332
0.453347
0.453374
0.453401
0.453401
0.453427
0.453454
0.453481
0.453508
0.453508
0.453535
0.453562
0.453589
0.453616
0.453616
0.453643
0.45367
0.453697
0.453724
0.453724
0.453751
0.453778
0.453805
0.453833
0.453833
0.45386
0.453887
0.453915
0.453942
0.453942
0.453969
0.453997
0.454024
0.454052
0.454052
0.45408
0.454107
0.454135
0.454162
0.454162
0.45419
0.454218
0.454246
0.454273
0.454273
0.454301
0.454329
0.454357
0.454385
0.454385
0.454413
0.454441
0.454469
0.454497
0.454497
0.454525
0.454553
0.454581
0.45461
0.45461
0.454638
0.454666
0.454694
0.454723
0.454723
0.454751
0.454779
0.454808
0.454836
0.454836
0.454865
0.454893
0.454922
0.45495
0.45495
0.454979
0.455008
0.455036
0.455065
0.455065
0.455094
0.455123
0.455152
0.45518
0.45518
0.455209
0.455238
0.455267
0.455296
0.455296
0.455325
0.455354
0.455383
0.455413
0.455413
0.455442
0.455471
0.4555
0.455529
0.455529
0.455559
0.455588
0.455617
0.455647
0.455647
0.455676
0.455706
0.455735
0.455765
0.455765
0.455794
0.455824
0.455853
0.455883
0.455883
0.455913
0.455943
0.455972
0.456002
0.456002
0.456032
0.456062
0.456092
0.456122
0.456122
0.456152
0.456182
0.456212
0.456242
0.456242
0.456272
0.456302
0.456332
0.456362
0.456362
0.456393
0.456423
0.456453
0.456484
0.456484
0.456514
0.456544
0.456575
0.456605
0.456605
0.456636
0.456666
0.456697
0.456727
0.456727
0.456758
0.456789
0.456819
0.45685
0.45685
0.456881
0.456912
0.456943
0.456973
0.456973
0.457004
0.457035
0.457066
0.457097
0.457097
0.457128
0.457159
0.457191
0.457222
0.457222
0.457253
0.457284
0.457315
0.457347
0.457347
0.457378
0.457409
0.457441
0.457472
0.457472
0.457503
0.457535
0.457566
0.457598
0.457598
0.45763
0.457661
0.457693
0.457725
0.457725
0.457756
0.457788
0.45782
0.457852
0.457852
0.457884
0.457915
0.457947
0.457979
0.457979
0.458011
0.458043
0.458075
0.458107
0.458107
0.45814
0.458172
0.458204
0.458236
0.458236
0.458268
0.458301
0.458333
0.458365
0.458365
0.458398
0.45843
0.458463
0.458495
0.458495
0.458528
0.45856
0.458593
0.458625
0.458625
0.458658
0.458691
0.458724
0.458756
0.458756
0.458789
0.458822
0.458855
0.458888
0.458888
0.458921
0.458954
0.458987
0.45902
0.45902
0.459053
0.459086
0.459119
0.459152
0.459152
0.459185
0.459219
0.459252
0.459285
0.459285
0.459318
0.459352
0.459385
0.459419
0.459419
0.459452
0.459486
0.459519
0.459553
0.459553
0.459586
0.45962
0.459654
0.459687
0.459687
0.459721
0.459755
0.459789
0.459823
0.459823
0.459857
0.45989
0.459924
0.459958
0.459958
0.459992
0.460027
0.460061
0.460095
0.460095
0.460129
0.460163
0.460197
0.460232
0.460232
0.460266
0.4603
0.460335
0.460369
0.460369
0.460403
0.460438
0.460472
0.460507
0.460507
0.460541
0.460576
0.460611
0.460645
0.460645
0.46068
0.460715
0.46075
0.460784
0.460784
0.460819
0.460854
0.460889
0.460924
0.460924
0.460959
0.460994
0.461029
0.461064
0.461064
0.461099
0.461134
0.461169
0.461205
0.461205
0.46124
0.461275
0.46131
0.461346
0.461346
0.461381
0.461417
0.461452
0.461488
0.461488
0.461523
0.461559
0.461594
0.46163
0.46163
0.461665
0.461701
0.461737
0.461773
0.461773
0.461808
0.461844
0.46188
0.461916
0.461916
0.461952
0.461988
0.462024
0.46206
0.46206
0.462096
0.462132
0.462168
0.462204
0.462204
0.462241
0.462277
0.462313
0.462349
0.462349
0.462386
0.462422
0.462459
0.462495
0.462495
0.462532
0.462568
0.462605
0.462641
0.462641
0.462678
0.462714
0.462751
0.462788
0.462788
0.462825
0.462861
0.462898
0.462935
0.462935
0.462972
0.463009
0.463046
0.463083
0.463083
0.46312
0.463157
0.463194
0.463231
0.463231
0.463268
0.463306
0.463343
0.46338
0.46338
0.463417
0.463455
0.463492
0.463529
0.463529
0.463567
0.463604
0.463642
0.463679
0.463679
0.463717
0.463755
0.463792
0.46383
0.46383
0.463868
0.463905
0.463943
0.463981
0.463981
0.464019
0.464057
0.464095
0.464133
0.464133
0.464171
0.464209
0.464247
0.464285
0.464285
0.464323
0.464361
0.464399
0.464438
0.464438
0.464476
0.464514
0.464552
0.464591
0.464591
0.464629
0.464668
0.464706
0.464745
0.464745
0.464783
0.464822
0.46486
0.464899
0.464899
0.464938
0.464976
0.465015
0.465054
0.465054
0.465093
0.465132
0.465171
0.465209
0.465209
0.465248
0.465287
0.465326
0.465366
0.465366
0.465405
0.465444
0.465483
0.465522
0.465522
0.465561
0.465601
0.46564
0.465679
0.465679
0.465719
0.465758
0.465798
0.465837
0.465837
0.465877
0.465916
0.465956
0.465995
0.465995
0.466035
0.466075
0.466114
0.466154
0.466154
0.466194
0.466234
0.466274
0.466313
0.466313
0.466353
0.466393
0.466433
0.466473
0.466473
0.466513
0.466554
0.466594
0.466634
0.466634
0.466674
0.466714
0.466755
0.466795
0.466795
0.466835
0.466876
0.466916
0.466957
0.466957
0.466997
0.467038
0.467078
0.467119
0.467119
0.467159
0.4672
0.467241
0.467281
0.467281
0.467322
0.467363
0.467404
0.467445
0.467445
0.467486
0.467527
0.467568
0.467609
0.467609
0.46765
0.467691
0.467732
0.467773
0.467773
0.467814
0.467855
0.467897
0.467938
0.467938
0.467979
0.468021
0.468062
0.468103
0.468103
0.468145
0.468186
0.468228
0.468269
0.468269
0.468311
0.468353
0.468394
0.468436
0.468436
0.468478
0.46852
0.468561
0.468603
0.468603
0.468645
0.468687
0.468729
0.468771
0.468771
0.468813
0.468855
0.468897
0.468939
0.468939
0.468982
0.469024
0.469066
0.469108
0.469108
0.469151
0.469193
0.469235
0.469278
0.469278
0.46932
0.469363
0.469405
0.469448
0.469448
0.46949
0.469533
0.469576
0.469618
0.469618
0.469661
0.469704
0.469747
0.469789
0.469789
0.469832
0.469875
0.469918
0.469961
0.469961
0.470004
0.470047
0.47009
0.470133
0.470133
0.470176
0.47022
0.470263
0.470306
0.470306
0.470349
0.470393
0.470436
0.470479
0.470479
0.470523
0.470566
0.47061
0.470653
0.470653
0.470697
0.470741
0.470784
0.470828
0.470828
0.470872
0.470915
0.470959
0.471003
0.471003
0.471047
0.471091
0.471135
0.471179
0.471179
0.471223
0.471267
0.471311
0.471355
0.471355
0.471399
0.471443
0.471487
0.471532
0.471532
0.471576
0.47162
0.471664
0.471709
0.471709
0.471753
0.471798
0.471842
0.471887
0.471887
0.471931
0.471976
0.472021
0.472065
0.472065
0.47211
0.472155
0.472199
0.472244
0.472244
0.472289
0.472334
0.472379
0.472424
0.472424
0.472469
0.472514
0.472559
0.472604
0.472604
0.472649
0.472694
0.47274
0.472785
0.472785
0.47283
0.472875
0.472921
0.472966
0.472966
0.473011
0.473057
0.473102
0.473148
0.473148
0.473194
0.473239
0.473285
0.47333
0.47333
0.473376
0.473422
0.473468
0.473513
0.473513
0.473559
0.473605
0.473651
0.473697
0.473697
0.473743
0.473789
0.473835
0.473881
0.473881
0.473927
0.473973
0.47402
0.474066
0.474066
0.474112
0.474158
0.474205
0.474251
0.474251
0.474298
0.474344
0.47439
0.474437
0.474437
0.474484
0.47453
0.474577
0.474623
0.474623
0.47467
0.474717
0.474764
0.47481
0.47481
0.474857
0.474904
0.474951
0.474998
0.474998
0.475045
0.475092
0.475139
0.475186
0.475186
0.475233
0.475281
0.475328
0.475375
0.475375
0.475422
0.47547
0.475517
0.475564
0.475564
0.475612
0.475659
0.475707
0.475754
0.475754
0.475802
0.475849
0.475897
0.475945
0.475945
0.475992
0.47604
0.476088
0.476136
0.476136
0.476183
0.476231
0.476279
0.476327
0.476327
0.476375
0.476423
0.476471
0.476519
0.476519
0.476568
0.476616
0.476664
0.476712
0.476712
0.47676
0.476809
0.476857
0.476905
0.476905
0.476954
0.477002
0.477051
0.477099
0.477099
0.477148
0.477197
0.477245
0.477294
0.477294
0.477343
0.477391
0.47744
0.477489
0.477489
0.477538
0.477587
0.477636
0.477685
0.477685
0.477734
0.477783
0.477832
0.477881
0.477881
0.47793
0.477979
0.478028
0.478078
0.478078
0.478127
0.478176
0.478226
0.478275
0.478275
0.478324
0.478374
0.478423
0.478473
0.478473
0.478523
0.478572
0.478622
0.478671
0.478671
0.478721
0.478771
0.478821
0.478871
0.478871
0.47892
0.47897
0.47902
0.47907
0.47907
0.47912
0.47917
0.47922
0.479271
0.479271
0.479321
0.479371
0.479421
0.479471
0.479471
0.479522
0.479572
0.479622
0.479673
0.479673
0.479723
0.479774
0.479824
0.479875
0.479875
0.479926
0.479976
0.480027
0.480078
0.480078
0.480128
0.480179
0.48023
0.480281
0.480281
0.480332
0.480383
0.480434
0.480485
0.480485
0.480536
0.480587
0.480638
0.480689
0.480689
0.48074
0.480791
0.480843
0.480894
0.480894
0.480945
0.480997
0.481048
0.481099
0.481099
0.481151
0.481202
0.481254
0.481306
0.481306
0.481357
0.481409
0.48146
0.481512
0.481512
0.481564
0.481616
0.481668
0.48172
0.48172
0.481771
0.481823
0.481875
0.481927
0.481927
0.481979
0.482032
0.482084
0.482136
0.482136
0.482188
0.48224
0.482293
0.482345
0.482345
0.482397
0.48245
0.482502
0.482555
0.482555
0.482607
0.48266
0.482712
0.482765
0.482765
0.482817
0.48287
0.482923
0.482976
0.482976
0.483028
0.483081
0.483134
0.483187
0.483187
0.48324
0.483293
0.483346
0.483399
0.483399
0.483452
0.483505
0.483558
0.483612
0.483612
0.483665
0.483718
0.483771
0.483825
0.483825
0.483878
0.483932
0.483985
0.484039
0.484039
0.484092
0.484146
0.484199
0.484253
0.484253
0.484307
0.48436
0.484414
0.484468
0.484468
0.484522
0.484576
0.48463
0.484683
0.484683
0.484737
0.484791
0.484846
0.4849
0.4849
0.484954
0.485008
0.485062
0.485116
0.485116
0.485171
0.485225
0.485279
0.485334
0.485334
0.485388
0.485443
0.485497
0.485552
0.485552
0.485606
0.485661
0.485715
0.48577
0.48577
0.485825
0.48588
0.485934
0.485989
0.485989
0.486044
0.486099
0.486154
0.486209
0.486209
0.486264
0.486319
0.486374
0.486429
0.486429
0.486484
0.48654
0.486595
0.48665
0.48665
0.486706
0.486761
0.486816
0.486872
0.486872
0.486927
0.486983
0.487038
0.487094
0.487094
0.487149
0.487205
0.487261
0.487317
0.487317
0.487372
0.487428
0.487484
0.48754
0.48754
0.487596
0.487652
0.487708
0.487764
0.487764
0.48782
0.487876
0.487932
0.487988
0.487988
0.488044
0.488101
0.488157
0.488213
0.488213
0.48827
0.488326
0.488383
0.488439
0.488439
0.488496
0.488552
0.488609
0.488665
0.488665
0.488722
0.488779
0.488836
0.488892
0.488892
0.488949
0.489006
0.489063
0.48912
0.48912
0.489177
0.489234
0.489291
0.489348
0.489348
0.489405
0.489462
0.489519
0.489577
0.489577
0.489634
0.489691
0.489749
0.489806
0.489806
0.489863
0.489921
0.489978
0.490036
0.490036
0.490093
0.490151
0.490209
0.490266
0.490266
0.490324
0.490382
0.49044
0.490498
0.490498
0.490555
0.490613
0.490671
0.490729
0.490729
0.490787
0.490845
0.490903
0.490962
0.490962
0.49102
0.491078
0.491136
0.491195
0.491195
0.491253
0.491311
0.49137
0.491428
0.491428
0.491487
0.491545
0.491604
0.491662
0.491662
0.491721
0.49178
0.491838
0.491897
0.491897
0.491956
0.492015
0.492074
0.492132
0.492132
0.492191
0.49225
0.492309
0.492368
0.492368
0.492428
0.492487
0.492546
0.492605
0.492605
0.492664
0.492724
0.492783
0.492842
0.492842
0.492902
0.492961
0.493021
0.49308
0.49308
0.49314
0.493199
0.493259
0.493319
0.493319
0.493378
0.493438
0.493498
0.493558
0.493558
0.493617
0.493677
0.493737
0.493797
0.493797
0.493857
0.493917
0.493977
0.494038
0.494038
0.494098
0.494158
0.494218
0.494278
0.494278
0.494339
0.494399
0.49446
0.49452
0.49452
0.49458
0.494641
0.494702
0.494762
0.494762
0.494823
0.494883
0.494944
0.495005
0.495005
0.495066
0.495126
0.495187
0.495248
0.495248
0.495309
0.49537
0.495431
0.495492
0.495492
0.495553
0.495614
0.495676
0.495737
0.495737
0.495798
0.495859
0.495921
0.495982
0.495982
0.496043
0.496105
0.496166
0.496228
0.496228
0.496289
0.496351
0.496413
0.496474
0.496474
0.496536
0.496598
0.496659
0.496721
0.496721
0.496783
0.496845
0.496907
0.496969
0.496969
0.497031
0.497093
0.497155
0.497217
0.497217
0.497279
0.497342
0.497404
0.497466
0.497466
0.497529
0.497591
0.497653
0.497716
0.497716
0.497778
0.497841
0.497903
0.497966
0.497966
0.498029
0.498091
0.498154
0.498217
0.498217
0.498279
0.498342
0.498405
0.498468
0.498468
0.498531
0.498594
0.498657
0.49872
0.49872
0.498783
0.498846
0.49891
0.498973
0.498973
0.499036
0.499099
0.499163
0.499226
0.499226
0.499289
0.499353
0.499416
0.49948
0.49948
0.499544
0.499607
0.499671
0.499735
0.499735
0.499798
0.499862
0.499926
0.49999
0.49999
0.500054
0.500117
0.500181
0.500245
0.500245
0.50031
0.500374
0.500438
0.500502
0.500502
0.500566
0.50063
0.500695
0.500759
0.500759
0.500823
0.500888
0.500952
0.501017
0.501017
0.501081
0.501146
0.50121
0.501275
0.501275
0.50134
0.501404
0.501469
0.501534
0.501534
0.501599
0.501664
0.501728
0.501793
0.501793
0.501858
0.501923
0.501988
0.502054
0.502054
0.502119
0.502184
0.502249
0.502314
0.502314
0.50238
0.502445
0.50251
0.502576
0.502576
0.502641
0.502707
0.502772
0.502838
0.502838
0.502904
0.502969
0.503035
0.503101
0.503101
0.503167
0.503232
0.503298
0.503364
0.503364
0.50343
0.503496
0.503562
0.503628
0.503628
0.503694
0.50376
0.503827
0.503893
0.503893
0.503959
0.504025
0.504092
0.504158
0.504158
0.504224
0.504291
0.504357
0.504424
0.504424
0.50449
0.504557
0.504624
0.50469
0.50469
0.504757
0.504824
0.504891
0.504958
0.504958
0.505025
0.505091
0.505158
0.505225
0.505225
0.505293
0.50536
0.505427
0.505494
0.505494
0.505561
0.505628
0.505696
0.505763
0.505763
0.50583
0.505898
0.505965
0.506033
0.506033
0.5061
0.506168
0.506235
0.506303
0.506303
0.506371
0.506439
0.506506
0.506574
0.506574
0.506642
0.50671
0.506778
0.506846
0.506846
0.506914
0.506982
0.50705
0.507118
0.507118
0.507186
0.507255
0.507323
0.507391
0.507391
0.507459
0.507528
0.507596
0.507665
0.507665
0.507733
0.507802
0.50787
0.507939
0.507939
0.508008
0.508076
0.508145
0.508214
0.508214
0.508283
0.508352
0.50842
0.508489
0.508489
0.508558
0.508627
0.508696
0.508766
0.508766
0.508835
0.508904
0.508973
0.509042
0.509042
0.509112
0.509181
0.50925
0.50932
0.50932
0.509389
0.509459
0.509528
0.509598
0.509598
0.509668
0.509737
0.509807
0.509877
0.509877
0.509947
0.510016
0.510086
0.510156
0.510156
0.510226
0.510296
0.510366
0.510436
0.510436
0.510506
0.510577
0.510647
0.510717
0.510717
0.510787
0.510858
0.510928
0.510998
0.510998
0.511069
0.511139
0.51121
0.511281
0.511281
0.511351
0.511422
0.511492
0.511563
0.511563
0.511634
0.511705
0.511776
0.511847
0.511847
0.511918
0.511988
0.51206
0.512131
0.512131
0.512202
0.512273
0.512344
0.512415
0.512415
0.512487
0.512558
0.512629
0.512701
0.512701
0.512772
0.512843
0.512915
0.512987
0.512987
0.513058
0.51313
0.513201
0.513273
0.513273
0.513345
0.513417
0.513489
0.51356
0.51356
0.513632
0.513704
0.513776
0.513848
0.513848
0.513921
0.513993
0.514065
0.514137
0.514137
0.514209
0.514282
0.514354
0.514426
0.514426
0.514499
0.514571
0.514644
0.514716
0.514716
0.514789
0.514861
0.514934
0.515007
0.515007
0.51508
0.515152
0.515225
0.515298
0.515298
0.515371
0.515444
0.515517
0.51559
0.51559
0.515663
0.515736
0.515809
0.515883
0.515883
0.515956
0.516029
0.516103
0.516176
0.516176
0.516249
0.516323
0.516396
0.51647
0.51647
0.516543
0.516617
0.516691
0.516764
0.516764
0.516838
0.516912
0.516986
0.51706
0.51706
0.517134
0.517208
0.517282
0.517356
0.517356
0.51743
0.517504
0.517578
0.517652
0.517652
0.517726
0.517801
0.517875
0.517949
0.517949
0.518024
0.518098
0.518173
0.518247
0.518247
0.518322
0.518397
0.518471
0.518546
0.518546
0.518621
0.518696
0.51877
0.518845
0.518845
0.51892
0.518995
0.51907
0.519145
0.519145
0.51922
0.519295
0.519371
0.519446
0.519446
0.519521
0.519596
0.519672
0.519747
0.519747
0.519823
0.519898
0.519974
0.520049
0.520049
0.520125
0.5202
0.520276
0.520352
0.520352
0.520428
0.520503
0.520579
0.520655
0.520655
0.520731
0.520807
0.520883
0.520959
0.520959
0.521035
0.521111
0.521188
0.521264
0.521264
0.52134
0.521416
0.521493
0.521569
0.521569
0.521646
0.521722
0.521799
0.521875
0.521875
0.521952
0.522028
0.522105
0.522182
0.522182
0.522259
0.522336
0.522412
0.522489
0.522489
0.522566
0.522643
0.52272
0.522797
0.522797
0.522875
0.522952
0.523029
0.523106
0.523106
0.523183
0.523261
0.523338
0.523416
0.523416
0.523493
0.523571
0.523648
0.523726
0.523726
0.523803
0.523881
0.523959
0.524037
0.524037
0.524114
0.524192
0.52427
0.524348
0.524348
0.524426
0.524504
0.524582
0.52466
0.52466
0.524738
0.524817
0.524895
0.524973
0.524973
0.525051
0.52513
0.525208
0.525287
0.525287
0.525365
0.525444
0.525522
0.525601
0.525601
0.52568
0.525758
0.525837
0.525916
0.525916
0.525995
0.526074
0.526153
0.526232
0.526232
0.526311
0.52639
0.526469
0.526548
0.526548
0.526627
0.526706
0.526786
0.526865
0.526865
0.526944
0.527024
0.527103
0.527183
0.527183
0.527262
0.527342
0.527421
0.527501
0.527501
0.527581
0.527661
0.52774
0.52782
0.52782
0.5279
0.52798
0.52806
0.52814
0.52814
0.52822
0.5283
0.52838
0.52846
0.52846
0.528541
0.528621
0.528701
0.528782
0.528782
0.528862
0.528943
0.529023
0.529104
0.529104
0.529184
0.529265
0.529345
0.529426
0.529426
0.529507
0.529588
0.529669
0.529749
0.529749
0.52983
0.529911
0.529992
0.530073
0.530073
0.530155
0.530236
0.530317
0.530398
0.530398
0.530479
0.530561
0.530642
0.530724
0.530724
0.530805
0.530886
0.530968
0.53105
0.53105
0.531131
0.531213
0.531295
0.531376
0.531376
0.531458
0.53154
0.531622
0.531704
0.531704
0.531786
0.531868
0.53195
0.532032
0.532032
0.532114
0.532197
0.532279
0.532361
0.532361
0.532443
0.532526
0.532608
0.532691
0.532691
0.532773
0.532856
0.532938
0.533021
0.533021
0.533104
0.533187
0.533269
0.533352
0.533352
0.533435
0.533518
0.533601
0.533684
0.533684
0.533767
0.53385
0.533933
0.534016
0.534016
0.5341
0.534183
0.534266
0.53435
0.53435
0.534433
0.534516
0.5346
0.534683
0.534683
0.534767
0.534851
0.534934
0.535018
0.535018
0.535102
0.535186
0.535269
0.535353
0.535353
0.535437
0.535521
0.535605
0.535689
0.535689
0.535774
0.535858
0.535942
0.536026
0.536026
0.53611
0.536195
0.536279
0.536364
0.536364
0.536448
0.536533
0.536617
0.536702
0.536702
0.536787
0.536871
0.536956
0.537041
0.537041
0.537126
0.537211
0.537295
0.53738
0.53738
0.537465
0.537551
0.537636
0.537721
0.537721
0.537806
0.537891
0.537977
0.538062
0.538062
0.538147
0.538233
0.538318
0.538404
0.538404
0.538489
0.538575
0.53866
0.538746
0.538746
0.538832
0.538918
0.539004
0.539089
0.539089
0.539175
0.539261
0.539347
0.539433
0.539433
0.53952
0.539606
0.539692
0.539778
0.539778
0.539864
0.539951
0.540037
0.540124
0.540124
0.54021
0.540297
0.540383
0.54047
0.54047
0.540556
0.540643
0.54073
0.540817
0.540817
0.540903
0.54099
0.541077
0.541164
0.541164
0.541251
0.541338
0.541425
0.541513
0.541513
0.5416
0.541687
0.541774
0.541862
0.541862
0.541949
0.542037
0.542124
0.542212
0.542212
0.542299
0.542387
0.542474
0.542562
0.542562
0.54265
0.542738
0.542825
0.542913
0.542913
0.543001
0.543089
0.543177
0.543265
0.543265
0.543354
0.543442
0.54353
0.543618
0.543618
0.543706
0.543795
0.543883
0.543972
0.543972
0.54406
0.544149
0.544237
0.544326
0.544326
0.544415
0.544503
0.544592
0.544681
0.544681
0.54477
0.544859
0.544948
0.545037
0.545037
0.545126
0.545215
0.545304
0.545393
0.545393
0.545482
0.545572
0.545661
0.54575
0.54575
0.54584
0.545929
0.546019
0.546108
0.546108
0.546198
0.546288
0.546377
0.546467
0.546467
0.546557
0.546647
0.546736
0.546826
0.546826
0.546916
0.547006
0.547096
0.547187
0.547187
0.547277
0.547367
0.547457
0.547548
0.547548
0.547638
0.547728
0.547819
0.547909
0.547909
0.548
0.54809
0.548181
0.548272
0.548272
0.548362
0.548453
0.548544
0.548635
0.548635
0.548726
0.548817
0.548908
0.548999
0.548999
0.54909
0.549181
0.549272
0.549364
0.549364
0.549455
0.549546
0.549638
0.549729
0.549729
0.54982
0.549912
0.550004
0.550095
0.550095
0.550187
0.550279
0.55037
0.550462
0.550462
0.550554
0.550646
0.550738
0.55083
0.55083
0.550922
0.551014
0.551106
0.551198
0.551198
0.551291
0.551383
0.551475
0.551568
0.551568
0.55166
0.551753
0.551845
0.551938
0.551938
0.55203
0.552123
0.552216
0.552308
0.552308
0.552401
0.552494
0.552587
0.55268
0.55268
0.552773
0.552866
0.552959
0.553052
0.553052
0.553145
0.553239
0.553332
0.553425
0.553425
0.553519
0.553612
0.553706
0.553799
0.553799
0.553893
0.553986
0.55408
0.554174
0.554174
0.554268
0.554361
0.554455
0.554549
0.554549
0.554643
0.554737
0.554831
0.554925
0.554925
0.555019
0.555114
0.555208
0.555302
0.555302
0.555397
0.555491
0.555585
0.55568
0.55568
0.555774
0.555869
0.555964
0.556058
0.556058
0.556153
0.556248
0.556343
0.556438
0.556438
0.556533
0.556627
0.556723
0.556818
0.556818
0.556913
0.557008
0.557103
0.557198
0.557198
0.557294
0.557389
0.557484
0.55758
0.55758
0.557675
0.557771
0.557867
0.557962
0.557962
0.558058
0.558154
0.55825
0.558345
0.558345
0.558441
0.558537
0.558633
0.558729
0.558729
0.558825
0.558921
0.559017
0.559113
0.559113
0.559209
0.559305
0.5594
0.559494
0.559494
0.559588
0.559679
0.559767
0.559851
0.559851
0.559927
0.559985
0.560027
0.560052
0.560052
0.560074
0.560096
0.560116
0.560136
0.560136
0.560156
0.560176
0.560195
0.560215
0.560215
0.560234
0.560253
0.56027
0.560286
0.560286
0.5603
0.56031
0.560316
0.560319
0.560319
0.560319
0.560319
0.560318
0.560317
0.560317
0.560316
0.560315
0.560314
0.560313
0.560313
0.560311
0.56031
0.560309
0.560307
0.560307
0.560306
0.560305
0.560303
0.560302
0.560302
0.5603
0.560299
0.560297
0.560296
0.560296
0.560294
0.560292
0.560291
0.560289
0.560289
0.560287
0.560286
0.560284
0.560283
0.560283
0.560282
0.560281
0.56028
0.560279
0.560279
0.560279
0.560278
0.560278
0.560278
0.560278
0.560277
0.560277