<?xml version="1.0"?>
<VTKFile type="UnstructuredGrid" version="0.1" byte_order="LittleEndian">
<UnstructuredGrid>
<Piece NumberOfPoints="5000" NumberOfCells="4000">
<PointData Scalars="Reaction 0">
<DataArray type="Float32" Name="Reaction 0" format="ascii">
0.40057
0.40057
0.40057
0.40057
0.40057
0.40057
0.40057
0.40057
0.40057
0.400571
0.400571
0.400571
0.400571
0.400571
0.400572
0.400572
0.400572
0.400573
0.400573
0.400573
0.400573
0.400574
0.400574
0.400575
0.400576
0.400576
0.400576
0.400577
0.400577
0.400578
0.400578
0.400579
0.40058
0.40058
0.400581
0.400581
0.400582
0.400583
0.400584
0.400585
0.400585
0.400586
0.400587
0.400588
0.400589
0.400589
0.40059
0.400591
0.400592
0.400593
0.400593
0.400594
0.400596
0.400597
0.400598
0.400598
0.400599
0.400601
0.400602
0.400604
0.400604
0.400605
0.400606
0.400608
0.400609
0.400609
0.400611
0.400613
0.400614
0.400616
0.400616
0.400617
0.400619
0.400621
0.400623
0.400623
0.400624
0.400626
0.400628
0.40063
0.40063
0.400632
0.400634
0.400636
0.400638
0.400638
0.40064
0.400642
0.400644
0.400646
0.400646
0.400648
0.40065
0.400652
0.400655
0.400655
0.400657
0.400659
0.400661
0.400664
0.400664
0.400666
0.400668
0.400671
0.400673
0.400673
0.400676
0.400678
0.400681
0.400683
0.400683
0.400686
0.400689
0.400691
0.400694
0.400694
0.400697
0.400699
0.400702
0.400705
0.400705
0.400708
0.400711
0.400714
0.400717
0.400717
0.40072
0.400722
0.400726
0.400729
0.400729
0.400732
0.400735
0.400738
0.400741
0.400741
0.400744
0.400747
0.400751
0.400754
0.400754
0.400757
0.400761
0.400764
0.400767
0.400767
0.400771
0.400774
0.400778
0.400781
0.400781
0.400785
0.400788
0.400792
0.400796
0.400796
0.400799
0.400803
0.400807
0.40081
0.40081
0.400814
0.400818
0.400822
0.400826
0.400826
0.400829
0.400833
0.400837
0.400841
0.400841
0.400845
0.400849
0.400853
0.400858
0.400858
0.400862
0.400866
0.40087
0.400874
0.400874
0.400878
0.400883
0.400887
0.400891
0.400891
0.400896
0.4009
0.400905
0.400909
0.400909
0.400914
0.400918
0.400923
0.400927
0.400927
0.400932
0.400936
0.400941
0.400946
0.400946
0.40095
0.400955
0.40096
0.400965
0.400965
0.40097
0.400974
0.400979
0.400984
0.400984
0.400989
0.400994
0.400999
0.401004
0.401004
0.401009
0.401014
0.40102
0.401025
0.401025
0.40103
0.401035
0.40104
0.401046
0.401046
0.401051
0.401056
0.401062
0.401067
0.401067
0.401072
0.401078
0.401083
0.401089
0.401089
0.401094
0.4011
0.401106
0.401111
0.401111
0.401117
0.401122
0.401128
0.401134
0.401134
0.40114
0.401146
0.401151
0.401157
0.401157
0.401163
0.401169
0.401175
0.401181
0.401181
0.401187
0.401193
0.401199
0.401205
0.401205
0.401211
0.401217
0.401224
0.40123
0.40123
0.401236
0.401242
0.401249
0.401255
0.401255
0.401261
0.401268
0.401274
0.401281
0.401281
0.401287
0.401294
0.4013
0.401307
0.401307
0.401313
0.40132
0.401327
0.401333
0.401333
0.40134
0.401347
0.401353
0.40136
0.40136
0.401367
0.401374
0.401381
0.401388
0.401388
0.401395
0.401402
0.401409
0.401416
0.401416
0.401423
0.40143
0.401437
0.401444
0.401444
0.401451
0.401459
0.401466
0.401473
0.401473
0.40148
0.401488
0.401495
0.401503
0.401503
0.40151
0.401517
0.401525
0.401532
0.401532
0.40154
0.401547
0.401555
0.401563
0.401563
0.40157
0.401578
0.401586
0.401593
0.401593
0.401601
0.401609
0.401617
0.401625
0.401625
0.401633
0.401641
0.401648
0.401656
0.401656
0.401664
0.401673
0.401681
0.401689
0.401689
0.401697
0.401705
0.401713
0.401721
0.401721
0.40173
0.401738
0.401746
0.401755
0.401755
0.401763
0.401771
0.40178
0.401788
0.401788
0.401797
0.401805
0.401814
0.401822
0.401822
0.401831
0.401839
0.401848
0.401857
0.401857
0.401865
0.401874
0.401883
0.401892
0.401892
0.401901
0.401909
0.401918
0.401927
0.401927
0.401936
0.401945
0.401954
0.401963
0.401963
0.401972
0.401981
0.401991
0.402
0.402
0.402009
0.402018
0.402027
0.402037
0.402037
0.402046
0.402055
0.402065
0.402074
0.402074
0.402083
0.402093
0.402102
0.402112
0.402112
0.402121
0.402131
0.402141
0.40215
0.40215
0.40216
0.40217
0.402179
0.402189
0.402189
0.402199
0.402209
0.402218
0.402228
0.402228
0.402238
0.402248
0.402258
0.402268
0.402268
0.402278
0.402288
0.402298
0.402308
0.402308
0.402318
0.402328
0.402339
0.402349
0.402349
0.402359
0.402369
0.40238
0.40239
0.40239
0.4024
0.402411
0.402421
0.402432
0.402432
0.402442
0.402453
0.402463
0.402474
0.402474
0.402484
0.402495
0.402506
0.402516
0.402516
0.402527
0.402538
0.402548
0.402559
0.402559
0.40257
0.402581
0.402592
0.402603
0.402603
0.402614
0.402625
0.402636
0.402647
0.402647
0.402658
0.402669
0.40268
0.402691
0.402691
0.402702
0.402714
0.402725
0.402736
0.402736
0.402747
0.402759
0.40277
0.402781
0.402781
0.402793
0.402804
0.402816
0.402827
0.402827
0.402839
0.40285
0.402862
0.402874
0.402874
0.402885
0.402897
0.402909
0.40292
0.40292
0.402932
0.402944
0.402956
0.402968
0.402968
0.40298
0.402992
0.403004
0.403015
0.403015
0.403027
0.40304
0.403052
0.403064
0.403064
0.403076
0.403088
0.4031
0.403112
0.403112
0.403125
0.403137
0.403149
0.403162
0.403162
0.403174
0.403186
0.403199
0.403211
0.403211
0.403224
0.403236
0.403249
0.403261
0.403261
0.403274
0.403286
0.403299
0.403312
0.403312
0.403325
0.403337
0.40335
0.403363
0.403363
0.403376
0.403389
0.403401
0.403414
0.403414
0.403427
0.40344
0.403453
0.403466
0.403466
0.403479
0.403493
0.403506
0.403519
0.403519
0.403532
0.403545
0.403558
0.403572
0.403572
0.403585
0.403598
0.403612
0.403625
0.403625
0.403639
0.403652
0.403665
0.403679
0.403679
0.403693
0.403706
0.40372
0.403733
0.403733
0.403747
0.403761
0.403774
0.403788
0.403788
0.403802
0.403816
0.40383
0.403843
0.403843
0.403857
0.403871
0.403885
0.403899
0.403899
0.403913
0.403927
0.403941
0.403955
0.403955
0.40397
0.403984
0.403998
0.404012
0.404012
0.404026
0.404041
0.404055
0.404069
0.404069
0.404084
0.404098
0.404112
0.404127
0.404127
0.404141
0.404156
0.40417
0.404185
0.404185
0.4042
0.404214
0.404229
0.404244
0.404244
0.404258
0.404273
0.404288
0.404303
0.404303
0.404317
0.404332
0.404347
0.404362
0.404362
0.404377
0.404392
0.404407
0.404422
0.404422
0.404437
0.404452
0.404467
0.404483
0.404483
0.404498
0.404513
0.404528
0.404544
0.404544
0.404559
0.404574
0.40459
0.404605
0.404605
0.40462
0.404636
0.404651
0.404667
0.404667
0.404682
0.404698
0.404714
0.404729
0.404729
0.404745
0.404761
0.404776
0.404792
0.404792
0.404808
0.404824
0.404839
0.404855
0.404855
0.404871
0.404887
0.404903
0.404919
0.404919
0.404935
0.404951
0.404967
0.404983
0.404983
0.404999
0.405016
0.405032
0.405048
0.405048
0.405064
0.405081
0.405097
0.405113
0.405113
0.40513
0.405146
0.405162
0.405179
0.405179
0.405195
0.405212
0.405228
0.405245
0.405245
0.405262
0.405278
0.405295
0.405312
0.405312
0.405328
0.405345
0.405362
0.405379
0.405379
0.405396
0.405412
0.405429
0.405446
0.405446
0.405463
0.40548
0.405497
0.405514
0.405514
0.405531
0.405548
0.405566
0.405583
0.405583
0.4056
0.405617
0.405634
0.405652
0.405652
0.405669
0.405686
0.405704
0.405721
0.405721
0.405739
0.405756
0.405774
0.405791
0.405791
0.405809
0.405826
0.405844
0.405861
0.405861
0.405879
0.405897
0.405915
0.405932
0.405932
0.40595
0.405968
0.405986
0.406004
0.406004
0.406022
0.406039
0.406057
0.406075
0.406075
0.406093
0.406111
0.40613
0.406148
0.406148
0.406166
0.406184
0.406202
0.40622
0.40622
0.406239
0.406257
0.406275
0.406294
0.406294
0.406312
0.40633
0.406349
0.406367
0.406367
0.406386
0.406404
0.406423
0.406441
0.406441
0.40646
0.406479
0.406497
0.406516
0.406516
0.406535
0.406554
0.406572
0.406591
0.406591
0.40661
0.406629
0.406648
0.406667
0.406667
0.406686
0.406705
0.406724
0.406743
0.406743
0.406762
0.406781
0.4068
0.406819
0.406819
0.406839
0.406858
0.406877
0.406896
0.406896
0.406916
0.406935
0.406954
0.406974
0.406974
0.406993
0.407013
0.407032
0.407052
0.407052
0.407071
0.407091
0.407111
0.40713
0.40713
0.40715
0.40717
0.407189
0.407209
0.407209
0.407229
0.407249
0.407269
0.407288
0.407288
0.407308
0.407328
0.407348
0.407368
0.407368
0.407388
0.407408
0.407428
0.407449
0.407449
0.407469
0.407489
0.407509
0.407529
0.407529
0.40755
0.40757
0.40759
0.407611
0.407611
0.407631
0.407651
0.407672
0.407692
0.407692
0.407713
0.407733
0.407754
0.407775
0.407775
0.407795
0.407816
0.407837
0.407857
0.407857
0.407878
0.407899
0.40792
0.40794
0.40794
0.407961
0.407982
0.408003
0.408024
0.408024
0.408045
0.408066
0.408087
0.408108
0.408108
0.408129
0.40815
0.408171
0.408193
0.408193
0.408214
0.408235
0.408256
0.408278
0.408278
0.408299
0.40832
0.408342
0.408363
0.408363
0.408385
0.408406
0.408428
0.408449
0.408449
0.408471
0.408492
0.408514
0.408536
0.408536
0.408557
0.408579
0.408601
0.408623
0.408623
0.408644
0.408666
0.408688
0.40871
0.40871
0.408732
0.408754
0.408776
0.408798
0.408798
0.40882
0.408842
0.408864
0.408886
0.408886
0.408908
0.408931
0.408953
0.408975
0.408975
0.408997
0.40902
0.409042
0.409064
0.409064
0.409087
0.409109
0.409132
0.409154
0.409154
0.409177
0.409199
0.409222
0.409244
0.409244
0.409267
0.40929
0.409312
0.409335
0.409335
0.409358
0.409381
0.409403
0.409426
0.409426
0.409449
0.409472
0.409495
0.409518
0.409518
0.409541
0.409564
0.409587
0.40961
0.40961
0.409633
0.409656
0.40968
0.409703
0.409703
0.409726
0.409749
0.409773
0.409796
0.409796
0.409819
0.409843
0.409866
0.409889
0.409889
0.409913
0.409936
0.40996
0.409984
0.409984
0.410007
0.410031
0.410054
0.410078
0.410078
0.410102
0.410125
0.410149
0.410173
0.410173
0.410197
0.410221
0.410245
0.410268
0.410268
0.410292
0.410316
0.41034
0.410364
0.410364
0.410388
0.410413
0.410437
0.410461
0.410461
0.410485
0.410509
0.410533
0.410558
0.410558
0.410582
0.410606
0.410631
0.410655
0.410655
0.41068
0.410704
0.410728
0.410753
0.410753
0.410778
0.410802
0.410827
0.410851
0.410851
0.410876
0.410901
0.410925
0.41095
0.41095
0.410975
0.411
0.411024
0.411049
0.411049
0.411074
0.411099
0.411124
0.411149
0.411149
0.411174
0.411199
0.411224
0.411249
0.411249
0.411274
0.4113
0.411325
0.41135
0.41135
0.411375
0.411401
0.411426
0.411451
0.411451
0.411477
0.411502
0.411527
0.411553
0.411553
0.411578
0.411604
0.411629
0.411655
0.411655
0.411681
0.411706
0.411732
0.411758
0.411758
0.411783
0.411809
0.411835
0.411861
0.411861
0.411886
0.411912
0.411938
0.411964
0.411964
0.41199
0.412016
0.412042
0.412068
0.412068
0.412094
0.41212
0.412146
0.412173
0.412173
0.412199
0.412225
0.412251
0.412278
0.412278
0.412304
0.41233
0.412357
0.412383
0.412383
0.41241
0.412436
0.412462
0.412489
0.412489
0.412516
0.412542
0.412569
0.412595
0.412595
0.412622
0.412649
0.412676
0.412702
0.412702
0.412729
0.412756
0.412783
0.41281
0.41281
0.412837
0.412863
0.41289
0.412917
0.412917
0.412944
0.412972
0.412999
0.413026
0.413026
0.413053
0.41308
0.413107
0.413135
0.413135
0.413162
0.413189
0.413216
0.413244
0.413244
0.413271
0.413299
0.413326
0.413354
0.413354
0.413381
0.413409
0.413436
0.413464
0.413464
0.413491
0.413519
0.413547
0.413574
0.413574
0.413602
0.41363
0.413658
0.413686
0.413686
0.413713
0.413741
0.413769
0.413797
0.413797
0.413825
0.413853
0.413881
0.413909
0.413909
0.413937
0.413966
0.413994
0.414022
0.414022
0.41405
0.414078
0.414107
0.414135
0.414135
0.414163
0.414192
0.41422
0.414249
0.414249
0.414277
0.414305
0.414334
0.414363
0.414363
0.414391
0.41442
0.414448
0.414477
0.414477
0.414506
0.414534
0.414563
0.414592
0.414592
0.414621
0.41465
0.414679
0.414707
0.414707
0.414736
0.414765
0.414794
0.414823
0.414823
0.414852
0.414882
0.414911
0.41494
0.41494
0.414969
0.414998
0.415027
0.415057
0.415057
0.415086
0.415115
0.415145
0.415174
0.415174
0.415203
0.415233
0.415262
0.415292
0.415292
0.415321
0.415351
0.415381
0.41541
0.41541
0.41544
0.41547
0.415499
0.415529
0.415529
0.415559
0.415589
0.415618
0.415648
0.415648
0.415678
0.415708
0.415738
0.415768
0.415768
0.415798
0.415828
0.415858
0.415888
0.415888
0.415918
0.415949
0.415979
0.416009
0.416009
0.416039
0.416069
0.4161
0.41613
0.41613
0.41616
0.416191
0.416221
0.416252
0.416252
0.416282
0.416313
0.416343
0.416374
0.416374
0.416405
0.416435
0.416466
0.416497
0.416497
0.416527
0.416558
0.416589
0.41662
0.41662
0.41665
0.416681
0.416712
0.416743
0.416743
0.416774
0.416805
0.416836
0.416867
0.416867
0.416898
0.416929
0.416961
0.416992
0.416992
0.417023
0.417054
0.417085
0.417117
0.417117
0.417148
0.417179
0.417211
0.417242
0.417242
0.417274
0.417305
0.417337
0.417368
0.417368
0.4174
0.417431
0.417463
0.417495
0.417495
0.417526
0.417558
0.41759
0.417622
0.417622
0.417653
0.417685
0.417717
0.417749
0.417749
0.417781
0.417813
0.417845
0.417877
0.417877
0.417909
0.417941
0.417973
0.418005
0.418005
0.418037
0.41807
0.418102
0.418134
0.418134
0.418166
0.418199
0.418231
0.418263
0.418263
0.418296
0.418328
0.418361
0.418393
0.418393
0.418426
0.418458
0.418491
0.418523
0.418523
0.418556
0.418589
0.418621
0.418654
0.418654
0.418687
0.41872
0.418752
0.418785
0.418785
0.418818
0.418851
0.418884
0.418917
0.418917
0.41895
0.418983
0.419016
0.419049
0.419049
0.419082
0.419116
0.419149
0.419182
0.419182
0.419215
0.419248
0.419282
0.419315
0.419315
0.419348
0.419382
0.419415
0.419449
0.419449
0.419482
0.419516
0.419549
0.419583
0.419583
0.419616
0.41965
0.419684
0.419717
0.419717
0.419751
0.419785
0.419819
0.419852
0.419852
0.419886
0.41992
0.419954
0.419988
0.419988
0.420022
0.420056
0.42009
0.420124
0.420124
0.420158
0.420192
0.420226
0.420261
0.420261
0.420295
0.420329
0.420363
0.420397
0.420397
0.420432
0.420466
0.420501
0.420535
0.420535
0.420569
0.420604
0.420638
0.420673
0.420673
0.420707
0.420742
0.420777
0.420811
0.420811
0.420846
0.420881
0.420915
0.42095
0.42095
0.420985
0.42102
0.421055
0.42109
0.42109
0.421125
0.421159
0.421194
0.421229
0.421229
0.421265
0.4213
0.421335
0.42137
0.42137
0.421405
0.42144
0.421475
0.421511
0.421511
0.421546
0.421581
0.421617
0.421652
0.421652
0.421687
0.421723
0.421758
0.421794
0.421794
0.421829
0.421865
0.4219
0.421936
0.421936
0.421972
0.422007
0.422043
0.422079
0.422079
0.422115
0.42215
0.422186
0.422222
0.422222
0.422258
0.422294
0.42233
0.422366
0.422366
0.422402
0.422438
0.422474
0.42251
0.42251
0.422546
0.422582
0.422618
0.422655
0.422655
0.422691
0.422727
0.422763
0.4228
0.4228
0.422836
0.422873
0.422909
0.422945
0.422945
0.422982
0.423018
0.423055
0.423092
0.423092
0.423128
0.423165
0.423201
0.423238
0.423238
0.423275
0.423312
0.423348
0.423385
0.423385
0.423422
0.423459
0.423496
0.423533
0.423533
0.42357
0.423607
0.423644
0.423681
0.423681
0.423718
0.423755
0.423792
0.423829
0.423829
0.423867
0.423904
0.423941
0.423978
0.423978
0.424016
0.424053
0.424091
0.424128
0.424128
0.424165
0.424203
0.42424
0.424278
0.424278
0.424316
0.424353
0.424391
0.424428
0.424428
0.424466
0.424504
0.424542
0.424579
0.424579
0.424617
0.424655
0.424693
0.424731
0.424731
0.424769
0.424807
0.424845
0.424883
0.424883
0.424921
0.424959
0.424997
0.425035
0.425035
0.425073
0.425111
0.42515
0.425188
0.425188
0.425226
0.425265
0.425303
0.425341
0.425341
0.42538
0.425418
0.425457
0.425495
0.425495
0.425534
0.425572
0.425611
0.42565
0.42565
0.425688
0.425727
0.425766
0.425804
0.425804
0.425843
0.425882
0.425921
0.42596
0.42596
0.425999
0.426038
0.426076
0.426115
0.426115
0.426154
0.426194
0.426233
0.426272
0.426272
0.426311
0.42635
0.426389
0.426428
0.426428
0.426468
0.426507
0.426546
0.426586
0.426586
0.426625
0.426665
0.426704
0.426743
0.426743
0.426783
0.426822
0.426862
0.426902
0.426902
0.426941
0.426981
0.427021
0.42706
0.42706
0.4271
0.42714
0.42718
0.42722
0.42722
0.427259
0.427299
0.427339
0.427379
0.427379
0.427419
0.427459
0.427499
0.427539
0.427539
0.427579
0.42762
0.42766
0.4277
0.4277
0.42774
0.42778
0.427821
0.427861
0.427861
0.427901
0.427942
0.427982
0.428023
0.428023
0.428063
0.428104
0.428144
0.428185
0.428185
0.428225
0.428266
0.428307
0.428347
0.428347
0.428388
0.428429
0.42847
0.42851
0.42851
0.428551
0.428592
0.428633
0.428674
0.428674
0.428715
0.428756
0.428797
0.428838
0.428838
0.428879
0.42892
0.428961
0.429002
0.429002
0.429044
0.429085
0.429126
0.429167
0.429167
0.429209
0.42925
0.429292
0.429333
0.429333
0.429374
0.429416
0.429457
0.429499
0.429499
0.42954
0.429582
0.429624
0.429665
0.429665
0.429707
0.429749
0.429791
0.429832
0.429832
0.429874
0.429916
0.429958
0.43
0.43
0.430042
0.430084
0.430126
0.430168
0.430168
0.43021
0.430252
0.430294
0.430336
0.430336
0.430378
0.43042
0.430463
0.430505
0.430505
0.430547
0.43059
0.430632
0.430674
0.430674
0.430717
0.430759
0.430802
0.430844
0.430844
0.430887
0.430929
0.430972
0.431015
0.431015
0.431057
0.4311
0.431143
0.431185
0.431185
0.431228
0.431271
0.431314
0.431357
0.431357
0.4314
0.431443
0.431486
0.431529
0.431529
0.431572
0.431615
0.431658
0.431701
0.431701
0.431744
0.431787
0.43183
0.431874
0.431874
0.431917
0.43196
0.432004
0.432047
0.432047
0.43209
0.432134
0.432177
0.432221
0.432221
0.432264
0.432308
0.432351
0.432395
0.432395
0.432439
0.432482
0.432526
0.43257
0.43257
0.432613
0.432657
0.432701
0.432745
0.432745
0.432789
0.432833
0.432877
0.432921
0.432921
0.432965
0.433009
0.433053
0.433097
0.433097
0.433141
0.433185
0.433229
0.433274
0.433274
0.433318
0.433362
0.433406
0.433451
0.433451
0.433495
0.433539
0.433584
0.433628
0.433628
0.433673
0.433717
0.433762
0.433807
0.433807
0.433851
0.433896
0.43394
0.433985
0.433985
0.43403
0.434075
0.434119
0.434164
0.434164
0.434209
0.434254
0.434299
0.434344
0.434344
0.434389
0.434434
0.434479
0.434524
0.434524
0.434569
0.434614
0.434659
0.434705
0.434705
0.43475
0.434795
0.43484
0.434886
0.434886
0.434931
0.434977
0.435022
0.435067
0.435067
0.435113
0.435158
0.435204
0.435249
0.435249
0.435295
0.435341
0.435386
0.435432
0.435432
0.435478
0.435524
0.435569
0.435615
0.435615
0.435661
0.435707
0.435753
0.435799
0.435799
0.435845
0.435891
0.435937
0.435983
0.435983
0.436029
0.436075
0.436121
0.436167
0.436167
0.436213
0.43626
0.436306
0.436352
0.436352
0.436399
0.436445
0.436491
0.436538
0.436538
0.436584
0.436631
0.436677
0.436724
0.436724
0.43677
0.436817
0.436864
0.43691
0.43691
0.436957
0.437004
0.437051
0.437097
0.437097
0.437144
0.437191
0.437238
0.437285
0.437285
0.437332
0.437379
0.437426
0.437473
0.437473
0.43752
0.437567
0.437614
0.437661
0.437661
0.437708
0.437756
0.437803
0.43785
0.43785
0.437898
0.437945
0.437992
0.43804
0.43804
0.438087
0.438135
0.438182
0.43823
0.43823
0.438277
0.438325
0.438372
0.43842
0.43842
0.438468
0.438515
0.438563
0.438611
0.438611
0.438659
0.438707
0.438754
0.438802
0.438802
0.43885
0.438898
0.438946
0.438994
0.438994
0.439042
0.43909
0.439139
0.439187
0.439187
0.439235
0.439283
0.439331
0.43938
0.43938
0.439428
0.439476
0.439525
0.439573
0.439573
0.439621
0.43967
0.439718
0.439767
0.439767
0.439815
0.439864
0.439913
0.439961
0.439961
0.44001
0.440059
0.440107
0.440156
0.440156
0.440205
0.440254
0.440303
0.440352
0.440352
0.4404
0.440449
0.440498
0.440547
0.440547
0.440596
0.440646
0.440695
0.440744
0.440744
0.440793
0.440842
0.440891
0.440941
0.440941
0.44099
0.441039
0.441089
0.441138
0.441138
0.441187
0.441237
0.441286
0.441336
0.441336
0.441385
0.441435
0.441485
0.441534
0.441534
0.441584
0.441634
0.441683
0.441733
0.441733
0.441783
0.441833
0.441882
0.441932
0.441932
0.441982
0.442032
0.442082
0.442132
0.442132
0.442182
0.442232
0.442282
0.442333
0.442333
0.442383
0.442433
0.442483
0.442533
0.442533
0.442584
0.442634
0.442684
0.442735
0.442735
0.442785
0.442835
0.442886
0.442936
0.442936
0.442987
0.443038
0.443088
0.443139
0.443139
0.443189
0.44324
0.443291
0.443342
0.443342
0.443392
0.443443
0.443494
0.443545
0.443545
0.443596
0.443647
0.443698
0.443749
0.443749
0.4438
0.443851
0.443902
0.443953
0.443953
0.444004
0.444055
0.444107
0.444158
0.444158
0.444209
0.44426
0.444312
0.444363
0.444363
0.444414
0.444466
0.444517
0.444569
0.444569
0.44462
0.444672
0.444724
0.444775
0.444775
0.444827
0.444878
0.44493
0.444982
0.444982
0.445034
0.445086
0.445137
0.445189
0.445189
0.445241
0.445293
0.445345
0.445397
0.445397
0.445449
0.445501
0.445553
0.445605
0.445605
0.445657
0.44571
0.445762
0.445814
0.445814
0.445866
0.445919
0.445971
0.446023
0.446023
0.446076
0.446128
0.446181
0.446233
0.446233
0.446286
0.446338
0.446391
0.446443
0.446443
0.446496
0.446549
0.446601
0.446654
0.446654
0.446707
0.44676
0.446813
0.446865
0.446865
0.446918
0.446971
0.447024
0.447077
0.447077
0.44713
0.447183
0.447236
0.447289
0.447289
0.447343
0.447396
0.447449
0.447502
0.447502
0.447556
0.447609
0.447662
0.447716
0.447716
0.447769
0.447822
0.447876
0.447929
0.447929
0.447983
0.448036
0.44809
0.448144
0.448144
0.448197
0.448251
0.448305
0.448358
0.448358
0.448412
0.448466
0.44852
0.448574
0.448574
0.448628
0.448681
0.448735
0.448789
0.448789
0.448843
0.448898
0.448952
0.449006
0.449006
0.44906
0.449114
0.449168
0.449222
0.449222
0.449277
0.449331
0.449385
0.44944
0.44944
0.449494
0.449549
0.449603
0.449658
0.449658
0.449712
0.449767
0.449821
0.449876
0.449876
0.44993
0.449985
0.45004
0.450095
0.450095
0.450149
0.450204
0.450259
0.450314
0.450314
0.450369
0.450424
0.450479
0.450534
0.450534
0.450589
0.450644
0.450699
0.450754
0.450754
0.450809
0.450864
0.45092
0.450975
0.450975
0.45103
0.451085
0.451141
0.451196
0.451196
0.451252
0.451307
0.451362
0.451418
0.451418
0.451473
0.451529
0.451585
0.45164
0.45164
0.451696
0.451752
0.451807
0.451863
0.451863
0.451919
0.451975
0.452031
0.452086
0.452086
0.452142
0.452198
0.452254
0.45231
0.45231
0.452366
0.452422
0.452478
0.452535
0.452535
0.452591
0.452647
0.452703
0.452759
0.452759
0.452816
0.452872
0.452928
0.452985
0.452985
0.453041
0.453098
0.453154
0.453211
0.453211
0.453267
0.453324
0.45338
0.453437
0.453437
0.453494
0.45355
0.453607
0.453664
0.453664
0.453721
0.453777
0.453834
0.453891
0.453891
0.453948
0.454005
0.454062
0.454119
0.454119
0.454176
0.454233
0.45429
0.454347
0.454347
0.454405
0.454462
0.454519
0.454576
0.454576
0.454634
0.454691
0.454748
0.454806
0.454806
0.454863
0.454921
0.454978
0.455036
0.455036
0.455093
0.455151
0.455208
0.455266
0.455266
0.455324
0.455381
0.455439
0.455497
0.455497
0.455555
0.455612
0.45567
0.455728
0.455728
0.455786
0.455844
0.455902
0.45596
0.45596
0.456018
0.456076
0.456134
0.456193
0.456193
0.456251
0.456309
0.456367
0.456426
0.456426
0.456484
0.456542
0.456601
0.456659
0.456659
0.456717
0.456776
0.456834
0.456893
0.456893
0.456951
0.45701
0.457069
0.457127
0.457127
0.457186
0.457245
0.457304
0.457362
0.457362
0.457421
0.45748
0.457539
0.457598
0.457598
0.457657
0.457716
0.457775
0.457834
0.457834
0.457893
0.457952
0.458011
0.45807
0.45807
0.45813
0.458189
0.458248
0.458307
0.458307
0.458367
0.458426
0.458485
0.458545
0.458545
0.458604
0.458664
0.458723
0.458783
0.458783
0.458842
0.458902
0.458962
0.459021
0.459021
0.459081
0.459141
0.459201
0.45926
0.45926
0.45932
0.45938
0.45944
0.4595
0.4595
0.45956
0.45962
0.45968
0.45974
0.45974
0.4598
0.45986
0.459921
0.459981
0.459981
0.460041
0.460101
0.460161
0.460222
0.460222
0.460282
0.460343
0.460403
0.460463
0.460463
0.460524
0.460584
0.460645
0.460706
0.460706
0.460766
0.460827
0.460887
0.460948
0.460948
0.461009
0.46107
0.46113
0.461191
0.461191
0.461252
0.461313
0.461374
0.461435
0.461435
0.461496
0.461557
0.461618
0.461679
0.461679
0.46174
0.461801
0.461863
0.461924
0.461924
0.461985
0.462046
0.462108
0.462169
0.462169
0.46223
0.462292
0.462353
0.462415
0.462415
0.462476
0.462538
0.462599
0.462661
0.462661
0.462723
0.462784
0.462846
0.462908
0.462908
0.462969
0.463031
0.463093
0.463155
0.463155
0.463217
0.463279
0.463341
0.463403
0.463403
0.463465
0.463527
0.463589
0.463651
0.463651
0.463713
0.463775
0.463838
0.4639
0.4639
0.463962
0.464024
0.464087
0.464149
0.464149
0.464212
0.464274
0.464336
0.464399
0.464399
0.464462
0.464524
0.464587
0.464649
0.464649
0.464712
0.464775
0.464837
0.4649
0.4649
0.464963
0.465026
0.465089
0.465152
0.465152
0.465214
0.465277
0.46534
0.465403
0.465403
0.465467
0.46553
0.465593
0.465656
0.465656
0.465719
0.465782
0.465846
0.465909
0.465909
0.465972
0.466035
0.466099
0.466162
0.466162
0.466226
0.466289
0.466353
0.466416
0.466416
0.46648
0.466543
0.466607
0.466671
0.466671
0.466734
0.466798
0.466862
0.466926
0.466926
0.46699
0.467053
0.467117
0.467181
0.467181
0.467245
0.467309
0.467373
0.467437
0.467437
0.467501
0.467566
0.46763
0.467694
0.467694
0.467758
0.467822
0.467887
0.467951
0.467951
0.468015
0.46808
0.468144
0.468209
0.468209
0.468273
0.468338
0.468402
0.468467
0.468467
0.468531
0.468596
0.468661
0.468725
0.468725
0.46879
0.468855
0.46892
0.468984
0.468984
0.469049
0.469114
0.469179
0.469244
0.469244
0.469309
0.469374
0.469439
0.469504
0.469504
0.469569
0.469635
0.4697
0.469765
0.469765
0.46983
0.469896
0.469961
0.470026
0.470026
0.470092
0.470157
0.470223
0.470288
0.470288
0.470354
0.470419
0.470485
0.47055
0.47055
0.470616
0.470682
0.470747
0.470813
0.470813
0.470879
0.470945
0.471011
0.471077
0.471077
0.471142
0.471208
0.471274
0.47134
0.47134
0.471406
0.471473
0.471539
0.471605
0.471605
0.471671
0.471737
0.471803
0.47187
0.47187
0.471936
0.472002
0.472069
0.472135
0.472135
0.472202
0.472268
0.472335
0.472401
0.472401
0.472468
0.472534
0.472601
0.472668
0.472668
0.472734
0.472801
0.472868
0.472935
0.472935
0.473001
0.473068
0.473135
0.473202
0.473202
0.473269
0.473336
0.473403
0.47347
0.47347
0.473537
0.473604
0.473672
0.473739
0.473739
0.473806
0.473873
0.47394
0.474008
0.474008
0.474075
0.474143
0.47421
0.474277
0.474277
0.474345
0.474412
0.47448
0.474548
0.474548
0.474615
0.474683
0.474751
0.474818
0.474818
0.474886
0.474954
0.475022
0.47509
0.47509
0.475157
0.475225
0.475293
0.475361
0.475361
0.475429
0.475497
0.475565
0.475634
0.475634
0.475702
0.47577
0.475838
0.475906
0.475906
0.475975
0.476043
0.476111
0.47618
0.47618
0.476248
0.476316
0.476385
0.476453
0.476453
0.476522
0.476591
0.476659
0.476728
0.476728
0.476797
0.476865
0.476934
0.477003
0.477003
0.477072
0.47714
0.477209
0.477278
0.477278
0.477347
0.477416
0.477485
0.477554
0.477554
0.477623
0.477692
0.477762
0.477831
0.477831
0.4779
0.477969
0.478038
0.478108
0.478108
0.478177
0.478246
0.478316
0.478385
0.478385
0.478455
0.478524
0.478594
0.478663
0.478663
0.478733
0.478803
0.478872
0.478942
0.478942
0.479012
0.479082
0.479151
0.479221
0.479221
0.479291
0.479361
0.479431
0.479501
0.479501
0.479571
0.479641
0.479711
0.479781
0.479781
0.479851
0.479921
0.479992
0.480062
0.480062
0.480132
0.480202
0.480273
0.480343
0.480343
0.480414
0.480484
0.480554
0.480625
0.480625
0.480695
0.480766
0.480837
0.480907
0.480907
0.480978
0.481049
0.481119
0.48119
0.48119
0.481261
0.481332
0.481403
0.481474
0.481474
0.481545
0.481616
0.481687
0.481758
0.481758
0.481829
0.4819
0.481971
0.482042
0.482042
0.482113
0.482184
0.482256
0.482327
0.482327
0.482398
0.48247
0.482541
0.482613
0.482613
0.482684
0.482756
0.482827
0.482899
0.482899
0.48297
0.483042
0.483114
0.483185
0.483185
0.483257
0.483329
0.483401
0.483473
0.483473
0.483544
0.483616
0.483688
0.48376
0.48376
0.483832
0.483904
0.483976
0.484048
0.484048
0.484121
0.484193
0.484265
0.484337
0.484337
0.48441
0.484482
0.484554
0.484627
0.484627
0.484699
0.484771
0.484844
0.484916
0.484916
0.484989
0.485062
0.485134
0.485207
0.485207
0.48528
0.485352
0.485425
0.485498
0.485498
0.485571
0.485643
0.485716
0.485789
0.485789
0.485862
0.485935
0.486008
0.486081
0.486081
0.486154
0.486228
0.486301
0.486374
0.486374
0.486447
0.48652
0.486594
0.486667
0.486667
0.48674
0.486814
0.486887
0.486961
0.486961
0.487034
0.487108
0.487181
0.487255
0.487255
0.487328
0.487402
0.487476
0.487549
0.487549
0.487623
0.487697
0.487771
0.487845
0.487845
0.487919
0.487993
0.488067
0.488141
0.488141
0.488215
0.488289
0.488363
0.488437
0.488437
0.488511
0.488585
0.48866
0.488734
0.488734
0.488808
0.488882
0.488957
0.489031
0.489031
0.489106
0.48918
0.489255
0.489329
0.489329
0.489404
0.489478
0.489553
0.489628
0.489628
0.489702
0.489777
0.489852
0.489927
0.489927
0.490002
0.490077
0.490151
0.490226
0.490226
0.490301
0.490376
0.490451
0.490527
0.490527
0.490602
0.490677
0.490752
0.490827
0.490827
0.490903
0.490978
0.491053
0.491129
0.491129
0.491204
0.491279
0.491355
0.49143
0.49143
0.491506
0.491581
0.491657
0.491733
0.491733
0.491808
0.491884
0.49196
0.492036
0.492036
0.492111
0.492187
0.492263
0.492339
0.492339
0.492415
0.492491
0.492567
0.492643
0.492643
0.492719
0.492795
0.492871
0.492948
0.492948
0.493024
0.4931
0.493176
0.493253
0.493253
0.493329
0.493405
0.493482
0.493558
0.493558
0.493635
0.493711
0.493788
0.493864
0.493864
0.493941
0.494018
0.494094
0.494171
0.494171
0.494248
0.494325
0.494402
0.494478
0.494478
0.494555
0.494632
0.494709
0.494786
0.494786
0.494863
0.49494
0.495017
0.495095
0.495095
0.495172
0.495249
0.495326
0.495404
0.495404
0.495481
0.495558
0.495636
0.495713
0.495713
0.495791
0.495868
0.495946
0.496023
0.496023
0.496101
0.496178
0.496256
0.496334
0.496334
0.496411
0.496489
0.496567
0.496645
0.496645
0.496723
0.496801
0.496879
0.496957
0.496957
0.497035
0.497113
0.497191
0.497269
0.497269
0.497347
0.497425
0.497503
0.497582
0.497582
0.49766
0.497738
0.497817
0.497895
0.497895
0.497973
0.498052
0.49813
0.498209
0.498209
0.498287
0.498366
0.498445
0.498523
0.498523
0.498602
0.498681
0.49876
0.498838
0.498838
0.498917
0.498996
0.499075
0.499154
0.499154
0.499233
0.499312
0.499391
0.49947
0.49947
0.499549
0.499628
0.499708
0.499787
0.499787
0.499866
0.499945
0.500025
0.500104
0.500104
0.500183
0.500263
0.500342
0.500422
0.500422
0.500501
0.500581
0.500661
0.50074
0.50074
0.50082
0.5009
0.500979
0.501059
0.501059
0.501139
0.501219
0.501299
0.501379
0.501379
0.501459
0.501539
0.501619
0.501699
0.501699
0.501779
0.501859
0.501939
0.502019
0.502019
0.5021
0.50218
0.50226
0.50234
0.50234
0.502421
0.502501
0.502582
0.502662
0.502662
0.502743
0.502823
0.502904
0.502984
0.502984
0.503065
0.503146
0.503227
0.503307
0.503307
0.503388
0.503469
0.50355
0.503631
0.503631
0.503712
0.503793
0.503874
0.503955
0.503955
0.504036
0.504117
0.504198
0.504279
0.504279
0.50436
0.504442
0.504523
0.504604
0.504604
0.504686
0.504767
0.504849
0.50493
0.50493
0.505012
0.505093
0.505175
0.505256
0.505256
0.505338
0.50542
0.505501
0.505583
0.505583
0.505665
0.505747
0.505829
0.50591
0.50591
0.505992
0.506074
0.506156
0.506238
0.506238
0.50632
0.506403
0.506485
0.506567
0.506567
0.506649
0.506731
0.506814
0.506896
0.506896
0.506978
0.507061
0.507143
0.507226
0.507226
0.507308
0.507391
0.507473
0.507556
0.507556
0.507638
0.507721
0.507804
0.507887
0.507887
0.507969
0.508052
0.508135
0.508218
0.508218
0.508301
0.508384