<?xml version="1.0"?>
<VTKFile type="UnstructuredGrid" version="0.1" byte_order="LittleEndian">
<UnstructuredGrid>
<Piece NumberOfPoints="5000" NumberOfCells="4000">
<PointData Scalars="Reaction 0">
<DataArray type="Float32" Name="Reaction 0" format="ascii">
0.600548
0.600548
0.600548
0.600548
0.600548
0.600548
0.600548
0.600548
0.600548
0.600548
0.600548
0.600547
0.600547
0.600547
0.600547
0.600547
0.600547
0.600547
0.600547
0.600547
0.600547
0.600547
0.600547
0.600547
0.600547
0.600547
0.600547
0.600547
0.600547
0.600546
0.600546
0.600546
0.600546
0.600546
0.600546
0.600546
0.600546
0.600546
0.600546
0.600545
0.600545
0.600545
0.600545
0.600545
0.600545
0.600545
0.600545
0.600545
0.600544
0.600544
0.600544
0.600544
0.600544
0.600544
0.600544
0.600544
0.600543
0.600543
0.600543
0.600543
0.600543
0.600543
0.600542
0.600542
0.600542
0.600542
0.600542
0.600542
0.600541
0.600541
0.600541
0.600541
0.600541
0.60054
0.60054
0.60054
0.60054
0.60054
0.600539
0.600539
0.600539
0.600539
0.600539
0.600538
0.600538
0.600538
0.600538
0.600537
0.600537
0.600537
0.600537
0.600536
0.600536
0.600536
0.600536
0.600536
0.600535
0.600535
0.600535
0.600534
0.600534
0.600534
0.600534
0.600533
0.600533
0.600533
0.600533
0.600532
0.600532
0.600531
0.600531
0.600531
0.600531
0.60053
0.60053
0.60053
0.60053
0.600529
0.600529
0.600528
0.600528
0.600528
0.600528
0.600527
0.600527
0.600527
0.600526
0.600526
0.600525
0.600525
0.600525
0.600525
0.600524
0.600524
0.600523
0.600523
0.600523
0.600522
0.600522
0.600521
0.600521
0.600521
0.600521
0.60052
0.60052
0.60052
0.600519
0.600519
0.600518
0.600518
0.600518
0.600517
0.600517
0.600516
0.600516
0.600516
0.600515
0.600515
0.600514
0.600514
0.600514
0.600513
0.600512
0.600512
0.600511
0.600511
0.600511
0.60051
0.60051
0.600509
0.600509
0.600509
0.600508
0.600507
0.600507
0.600507
0.600506
0.600506
0.600505
0.600505
0.600505
0.600504
0.600503
0.600503
0.600502
0.600502
0.600502
0.600501
0.6005
0.6005
0.6005
0.600499
0.600498
0.600498
0.600497
0.600497
0.600497
0.600496
0.600495
0.600495
0.600495
0.600494
0.600493
0.600493
0.600492
0.600492
0.600491
0.600491
0.60049
0.600489
0.600489
0.600489
0.600488
0.600487
0.600486
0.600486
0.600486
0.600485
0.600484
0.600484
0.600484
0.600483
0.600482
0.600481
0.600481
0.600481
0.60048
0.600479
0.600479
0.600478
0.600478
0.600477
0.600476
0.600476
0.600475
0.600475
0.600474
0.600473
0.600472
0.600472
0.600472
0.600471
0.60047
0.600469
0.600469
0.600469
0.600468
0.600467
0.600466
0.600465
0.600465
0.600465
0.600464
0.600463
0.600462
0.600462
0.600461
0.600461
0.60046
0.600459
0.600459
0.600458
0.600457
0.600456
0.600455
0.600455
0.600455
0.600454
0.600453
0.600452
0.600452
0.600451
0.60045
0.600449
0.600449
0.600449
0.600448
0.600447
0.600446
0.600445
0.600445
0.600444
0.600443
0.600442
0.600441
0.600441
0.600441
0.60044
0.600439
0.600438
0.600438
0.600437
0.600436
0.600435
0.600434
0.600434
0.600433
0.600432
0.600431
0.60043
0.60043
0.600429
0.600428
0.600428
0.600427
0.600427
0.600426
0.600425
0.600424
0.600423
0.600423
0.600422
0.600421
0.60042
0.600419
0.600419
0.600418
0.600417
0.600416
0.600415
0.600415
0.600414
0.600413
0.600412
0.600411
0.600411
0.60041
0.600409
0.600408
0.600407
0.600407
0.600406
0.600405
0.600404
0.600403
0.600403
0.600402
0.600401
0.600399
0.600398
0.600398
0.600397
0.600396
0.600395
0.600394
0.600394
0.600393
0.600392
0.600391
0.60039
0.60039
0.600389
0.600388
0.600387
0.600386
0.600386
0.600385
0.600383
0.600382
0.600381
0.600381
0.60038
0.600379
0.600378
0.600377
0.600377
0.600376
0.600375
0.600373
0.600372
0.600372
0.600371
0.60037
0.600369
0.600368
0.600368
0.600367
0.600366
0.600364
0.600363
0.600363
0.600362
0.600361
0.60036
0.600359
0.600359
0.600357
0.600356
0.600355
0.600354
0.600354
0.600353
0.600352
0.60035
0.600349
0.600349
0.600348
0.600347
0.600346
0.600344
0.600344
0.600343
0.600342
0.600341
0.60034
0.60034
0.600338
0.600337
0.600336
0.600335
0.600335
0.600334
0.600332
0.600331
0.60033
0.60033
0.600329
0.600327
0.600326
0.600325
0.600325
0.600324
0.600323
0.600321
0.60032
0.60032
0.600319
0.600318
0.600316
0.600315
0.600315
0.600314
0.600312
0.600311
0.60031
0.60031
0.600309
0.600307
0.600306
0.600305
0.600305
0.600304
0.600302
0.600301
0.6003
0.6003
0.600298
0.600297
0.600296
0.600295
0.600295
0.600293
0.600292
0.600291
0.600289
0.600289
0.600288
0.600287
0.600285
0.600284
0.600284
0.600283
0.600281
0.60028
0.600279
0.600279
0.600277
0.600276
0.600275
0.600273
0.600273
0.600272
0.600271
0.600269
0.600268
0.600268
0.600267
0.600265
0.600264
0.600262
0.600262
0.600261
0.600259
0.600258
0.600256
0.600256
0.600255
0.600253
0.600252
0.60025
0.60025
0.600248
0.600247
0.600245
0.600243
0.600243
0.600242
0.60024
0.600238
0.600236
0.600236
0.600235
0.600233
0.600231
0.600229
0.600229
0.600227
0.600225
0.600223
0.600221
0.600221
0.600219
0.600217
0.600215
0.600213
0.600213
0.600211
0.600209
0.600207
0.600205
0.600205
0.600203
0.600201
0.600199
0.600197
0.600197
0.600195
0.600192
0.60019
0.600188
0.600188
0.600186
0.600184
0.600182
0.60018
0.60018
0.600178
0.600176
0.600173
0.600171
0.600171
0.600169
0.600167
0.600165
0.600163
0.600163
0.600161
0.600158
0.600156
0.600154
0.600154
0.600152
0.60015
0.600148
0.600145
0.600145
0.600143
0.600141
0.600139
0.600137
0.600137
0.600135
0.600132
0.60013
0.600128
0.600128
0.600126
0.600124
0.600121
0.600119
0.600119
0.600117
0.600115
0.600113
0.60011
0.60011
0.600108
0.600106
0.600104
0.600101
0.600101
0.600099
0.600097
0.600095
0.600092
0.600092
0.60009
0.600088
0.600086
0.600083
0.600083
0.600081
0.600079
0.600077
0.600074
0.600074
0.600072
0.60007
0.600068
0.600065
0.600065
0.600063
0.600061
0.600058
0.600056
0.600056
0.600054
0.600052
0.600049
0.600047
0.600047
0.600045
0.600042
0.60004
0.600038
0.600038
0.600035
0.600033
0.600031
0.600028
0.600028
0.600026
0.600024
0.600021
0.600019
0.600019
0.600017
0.600014
0.600012
0.60001
0.60001
0.600007
0.600005
0.600003
0.6
0.6
0.599998
0.599996
0.599993
0.599991
0.599991
0.599988
0.599986
0.599984
0.599981
0.599981
0.599979
0.599977
0.599974
0.599972
0.599972
0.599969
0.599967
0.599965
0.599962
0.599962
0.59996
0.599957
0.599955
0.599953
0.599953
0.59995
0.599948
0.599945
0.599943
0.599943
0.599941
0.599938
0.599936
0.599933
0.599933
0.599931
0.599928
0.599926
0.599924
0.599924
0.599921
0.599919
0.599916
0.599914
0.599914
0.599911
0.599909
0.599907
0.599904
0.599904
0.599902
0.599899
0.599897
0.599894
0.599894
0.599892
0.599889
0.599887
0.599884
0.599884
0.599882
0.59988
0.599877
0.599875
0.599875
0.599872
0.59987
0.599867
0.599865
0.599865
0.599862
0.59986
0.599857
0.599855
0.599855
0.599852
0.59985
0.599847
0.599845
0.599845
0.599842
0.59984
0.599837
0.599835
0.599835
0.599832
0.59983
0.599827
0.599825
0.599825
0.599822
0.59982
0.599817
0.599815
0.599815
0.599812
0.59981
0.599807
0.599805
0.599805
0.599802
0.5998
0.599797
0.599794
0.599794
0.599792
0.599789
0.599787
0.599784
0.599784
0.599782
0.599779
0.599777
0.599774
0.599774
0.599772
0.599769
0.599767
0.599764
0.599764
0.599762
0.599759
0.599756
0.599754
0.599754
0.599751
0.599749
0.599746
0.599744
0.599744
0.599741
0.599739
0.599736
0.599733
0.599733
0.599731
0.599728
0.599726
0.599723
0.599723
0.599721
0.599718
0.599715
0.599713
0.599713
0.59971
0.599708
0.599705
0.599703
0.599703
0.5997
0.599697
0.599695
0.599692
0.599692
0.59969
0.599687
0.599685
0.599682
0.599682
0.599679
0.599677
0.599674
0.599672
0.599672
0.599669
0.599666
0.599664
0.599661
0.599661
0.599658
0.599656
0.599653
0.59965
0.59965
0.599647
0.599645
0.599642
0.599639
0.599639
0.599636
0.599633
0.599631
0.599628
0.599628
0.599625
0.599622
0.599619
0.599616
0.599616
0.599613
0.59961
0.599607
0.599604
0.599604
0.5996
0.599597
0.599594
0.599591
0.599591
0.599588
0.599585
0.599581
0.599578
0.599578
0.599575
0.599571
0.599568
0.599565
0.599565
0.599562
0.599558
0.599555
0.599552
0.599552
0.599548
0.599545
0.599542
0.599538
0.599538
0.599535
0.599531
0.599528
0.599525
0.599525
0.599521
0.599518
0.599515
0.599511
0.599511
0.599508
0.599505
0.599501
0.599498
0.599498
0.599494
0.599491
0.599488
0.599484
0.599484
0.599481
0.599478
0.599474
0.599471
0.599471
0.599467
0.599464
0.599461
0.599457
0.599457
0.599454
0.59945
0.599447
0.599444
0.599444
0.59944
0.599437
0.599433
0.59943
0.59943
0.599427
0.599423
0.59942
0.599416
0.599416
0.599413
0.59941
0.599406
0.599403
0.599403
0.599399
0.599396
0.599393
0.599389
0.599389
0.599386
0.599382
0.599379
0.599375
0.599375
0.599372
0.599369
0.599365
0.599362
0.599362
0.599358
0.599355
0.599352
0.599348
0.599348
0.599345
0.599341
0.599338
0.599334
0.599334
0.599331
0.599328
0.599324
0.599321
0.599321
0.599317
0.599314
0.59931
0.599307
0.599307
0.599304
0.5993
0.599297
0.599293
0.599293
0.59929
0.599286
0.599283
0.59928
0.59928
0.599276
0.599273
0.599269
0.599266
0.599266
0.599262
0.599259
0.599255
0.599252
0.599252
0.599249
0.599245
0.599242
0.599238
0.599238
0.599235
0.599231
0.599228
0.599225
0.599225
0.599221
0.599218
0.599214
0.599211
0.599211
0.599207
0.599204
0.5992
0.599197
0.599197
0.599194
0.59919
0.599187
0.599183
0.599183
0.59918
0.599176
0.599173
0.599169
0.599169
0.599166
0.599163
0.599159
0.599156
0.599156
0.599152
0.599149
0.599145
0.599142
0.599142
0.599138
0.599135
0.599132
0.599128
0.599128
0.599125
0.599121
0.599118
0.599114
0.599114
0.599111
0.599107
0.599104
0.599101
0.599101
0.599097
0.599094
0.59909
0.599087
0.599087
0.599083
0.59908
0.599076
0.599073
0.599073
0.59907
0.599066
0.599063
0.599059
0.599059
0.599056
0.599052
0.599049
0.599045
0.599045
0.599042
0.599038
0.599035
0.599031
0.599031
0.599028
0.599024
0.599021
0.599017
0.599017
0.599014
0.59901
0.599007
0.599003
0.599003
0.598999
0.598996
0.598992
0.598988
0.598988
0.598984
0.598981
0.598977
0.598973
0.598973
0.598969
0.598966
0.598962
0.598958
0.598958
0.598954
0.59895
0.598946
0.598942
0.598942
0.598938
0.598934
0.598931
0.598927
0.598927
0.598923
0.598919
0.598914
0.59891
0.59891
0.598906
0.598902
0.598898
0.598894
0.598894
0.59889
0.598886
0.598882
0.598878
0.598878
0.598874
0.59887
0.598866
0.598862
0.598862
0.598858
0.598854
0.598849
0.598845
0.598845
0.598841
0.598837
0.598833
0.598829
0.598829
0.598825
0.598821
0.598817
0.598813
0.598813
0.598809
0.598805
0.598801
0.598796
0.598796
0.598792
0.598788
0.598784
0.59878
0.59878
0.598776
0.598772
0.598768
0.598764
0.598764
0.59876
0.598756
0.598752
0.598748
0.598748
0.598744
0.598739
0.598735
0.598731
0.598731
0.598727
0.598723
0.598719
0.598715
0.598715
0.598711
0.598707
0.598703
0.598699
0.598699
0.598695
0.598691
0.598687
0.598683
0.598683
0.598679
0.598674
0.59867
0.598666
0.598666
0.598662
0.598658
0.598654
0.59865
0.59865
0.598646
0.598642
0.598638
0.598634
0.598634
0.59863
0.598626
0.598622
0.598618
0.598618
0.598614
0.59861
0.598606
0.598602
0.598602
0.598597
0.598593
0.598589
0.598585
0.598585
0.598581
0.598577
0.598573
0.598569
0.598569
0.598565
0.598561
0.598557
0.598553
0.598553
0.598549
0.598545
0.598541
0.598537
0.598537
0.598533
0.598529
0.598525
0.598521
0.598521
0.598517
0.598513
0.598509
0.598505
0.598505
0.598501
0.598497
0.598493
0.598489
0.598489
0.598485
0.598481
0.598477
0.598473
0.598473
0.598469
0.598465
0.598461
0.598457
0.598457
0.598453
0.598449
0.598445
0.598441
0.598441
0.598437
0.598433
0.598429
0.598425
0.598425
0.598421
0.598417
0.598413
0.598409
0.598409
0.598404
0.5984
0.598396
0.598392
0.598392
0.598388
0.598384
0.59838
0.598376
0.598376
0.598372
0.598367
0.598363
0.598359
0.598359
0.598355
0.598351
0.598346
0.598342
0.598342
0.598338
0.598334
0.598329
0.598325
0.598325
0.598321
0.598317
0.598312
0.598308
0.598308
0.598303
0.598299
0.598295
0.59829
0.59829
0.598286
0.598281
0.598277
0.598273
0.598273
0.598268
0.598264
0.598259
0.598255
0.598255
0.59825
0.598246
0.598241
0.598237
0.598237
0.598233
0.598228
0.598224
0.598219
0.598219
0.598215
0.59821
0.598206
0.598201
0.598201
0.598197
0.598192
0.598188
0.598183
0.598183
0.598179
0.598175
0.59817
0.598166
0.598166
0.598161
0.598157
0.598152
0.598148
0.598148
0.598143
0.598139
0.598135
0.59813
0.59813
0.598126
0.598121
0.598117
0.598112
0.598112
0.598108
0.598103
0.598099
0.598095
0.598095
0.59809
0.598086
0.598081
0.598077
0.598077
0.598073
0.598068
0.598064
0.598059
0.598059
0.598055
0.59805
0.598046
0.598042
0.598042
0.598037
0.598033
0.598028
0.598024
0.598024
0.59802
0.598015
0.598011
0.598007
0.598007
0.598002
0.597998
0.597993
0.597989
0.597989
0.597985
0.59798
0.597976
0.597971
0.597971
0.597967
0.597963
0.597958
0.597954
0.597954
0.59795
0.597945
0.597941
0.597937
0.597937
0.597932
0.597928
0.597924
0.597919
0.597919
0.597915
0.597911
0.597906
0.597902
0.597902
0.597898
0.597893
0.597889
0.597885
0.597885
0.59788
0.597876
0.597872
0.597867
0.597867
0.597863
0.597859
0.597854
0.59785
0.59785
0.597846
0.597841
0.597837
0.597833
0.597833
0.597828
0.597824
0.59782
0.597815
0.597815
0.597811
0.597807
0.597802
0.597798
0.597798
0.597794
0.597789
0.597785
0.59778
0.59778
0.597776
0.597772
0.597767
0.597763
0.597763
0.597758
0.597754
0.597749
0.597745
0.597745
0.59774
0.597736
0.597731
0.597727
0.597727
0.597722
0.597718
0.597713
0.597709
0.597709
0.597704
0.5977
0.597695
0.59769
0.59769
0.597686
0.597681
0.597677
0.597672
0.597672
0.597667
0.597663
0.597658
0.597654
0.597654
0.597649
0.597644
0.59764
0.597635
0.597635
0.59763
0.597626
0.597621
0.597617
0.597617
0.597612
0.597607
0.597603
0.597598
0.597598
0.597593
0.597589
0.597584
0.59758
0.59758
0.597575
0.59757
0.597566
0.597561
0.597561
0.597557
0.597552
0.597547
0.597543
0.597543
0.597538
0.597534
0.597529
0.597524
0.597524
0.59752
0.597515
0.597511
0.597506
0.597506
0.597502
0.597497
0.597492
0.597488
0.597488
0.597483
0.597479
0.597474
0.59747
0.59747
0.597465
0.597461
0.597456
0.597451
0.597451
0.597447
0.597442
0.597438
0.597433
0.597433
0.597429
0.597424
0.59742
0.597415
0.597415
0.597411
0.597406
0.597402
0.597397
0.597397
0.597393
0.597388
0.597384
0.597379
0.597379
0.597375
0.59737
0.597366
0.597361
0.597361
0.597357
0.597352
0.597348
0.597343
0.597343
0.597339
0.597334
0.59733
0.597325
0.597325
0.597321
0.597317
0.597312
0.597308
0.597308
0.597303
0.597299
0.597294
0.59729
0.59729
0.597285
0.597281
0.597276
0.597272
0.597272
0.597268
0.597263
0.597259
0.597254
0.597254
0.59725
0.597245
0.597241
0.597236
0.597236
0.597232
0.597227
0.597223
0.597218
0.597218
0.597214
0.597209
0.597205
0.5972
0.5972
0.597196
0.597191
0.597187
0.597182
0.597182
0.597178
0.597173
0.597169
0.597164
0.597164
0.597159
0.597155
0.59715
0.597146
0.597146
0.597141
0.597136
0.597132
0.597127
0.597127
0.597123
0.597118
0.597113
0.597109
0.597109
0.597104
0.5971
0.597095
0.59709
0.59709
0.597086
0.597081
0.597076
0.597072
0.597072
0.597067
0.597062
0.597058
0.597053
0.597053
0.597049
0.597044
0.597039
0.597035
0.597035
0.59703
0.597025
0.597021
0.597016
0.597016
0.597012
0.597007
0.597002
0.596998
0.596998
0.596993
0.596989
0.596984
0.59698
0.59698
0.596975
0.59697
0.596966
0.596961
0.596961
0.596957
0.596952
0.596948
0.596943
0.596943
0.596938
0.596934
0.596929
0.596925
0.596925
0.59692
0.596916
0.596911
0.596907
0.596907
0.596902
0.596898
0.596893
0.596889
0.596889
0.596884
0.59688
0.596875
0.596871
0.596871
0.596866
0.596862
0.596857
0.596853
0.596853
0.596848
0.596844
0.596839
0.596835
0.596835
0.59683
0.596826
0.596821
0.596817
0.596817
0.596812
0.596808
0.596803
0.596799
0.596799
0.596795
0.59679
0.596786
0.596781
0.596781
0.596777
0.596772
0.596768
0.596763
0.596763
0.596759
0.596755
0.59675
0.596746
0.596746
0.596741
0.596737
0.596732
0.596728
0.596728
0.596724
0.596719
0.596715
0.59671
0.59671
0.596706
0.596701
0.596697
0.596692
0.596692
0.596688
0.596683
0.596679
0.596674
0.596674
0.59667
0.596665
0.596661
0.596656
0.596656
0.596652
0.596648
0.596643
0.596639
0.596639
0.596634
0.59663
0.596625
0.596621
0.596621
0.596616
0.596611
0.596607
0.596602
0.596602
0.596598
0.596593
0.596589
0.596584
0.596584
0.59658
0.596575
0.596571
0.596566
0.596566
0.596562
0.596557
0.596553
0.596548
0.596548
0.596544
0.596539
0.596535
0.59653
0.59653
0.596526
0.596521
0.596517
0.596512
0.596512
0.596508
0.596503
0.596499
0.596494
0.596494
0.59649
0.596485
0.596481
0.596476
0.596476
0.596472
0.596467
0.596463
0.596458
0.596458
0.596454
0.59645
0.596445
0.596441
0.596441
0.596436
0.596432
0.596427
0.596423
0.596423
0.596419
0.596414
0.59641
0.596405
0.596405
0.596401
0.596397
0.596392
0.596388
0.596388
0.596383
0.596379
0.596375
0.59637
0.59637
0.596366
0.596362
0.596357
0.596353
0.596353
0.596348
0.596344
0.59634
0.596335
0.596335
0.596331
0.596327
0.596322
0.596318
0.596318
0.596314
0.596309
0.596305
0.596301
0.596301
0.596296
0.596292
0.596288
0.596283
0.596283
0.596279
0.596275
0.596271
0.596266
0.596266
0.596262
0.596258
0.596253
0.596249
0.596249
0.596245
0.59624
0.596236
0.596232
0.596232
0.596227
0.596223
0.596219
0.596214
0.596214
0.59621
0.596206
0.596201
0.596197
0.596197
0.596193
0.596188
0.596184
0.59618
0.59618
0.596175
0.596171
0.596167
0.596162
0.596162
0.596158
0.596154
0.596149
0.596145
0.596145
0.596141
0.596136
0.596132
0.596128
0.596128
0.596123
0.596119
0.596115
0.59611
0.59611
0.596106
0.596102
0.596097
0.596093
0.596093
0.596089
0.596084
0.59608
0.596076
0.596076
0.596071
0.596067
0.596063
0.596058
0.596058
0.596054
0.59605
0.596046
0.596041
0.596041
0.596037
0.596033
0.596028
0.596024
0.596024
0.59602
0.596016
0.596011
0.596007
0.596007
0.596003
0.595999
0.595994
0.59599
0.59599
0.595986
0.595982
0.595977
0.595973
0.595973
0.595969
0.595965
0.595961
0.595956
0.595956
0.595952
0.595948
0.595944
0.59594
0.59594
0.595935
0.595931
0.595927
0.595923
0.595923
0.595919
0.595915
0.59591
0.595906
0.595906
0.595902
0.595898
0.595894
0.59589
0.59589
0.595885
0.595881
0.595877
0.595873
0.595873
0.595869
0.595865
0.595861
0.595857
0.595857
0.595852
0.595848
0.595844
0.59584
0.59584
0.595836
0.595832
0.595828
0.595824
0.595824
0.595819
0.595815
0.595811
0.595807
0.595807
0.595803
0.595799
0.595795
0.595791
0.595791
0.595786
0.595782
0.595778
0.595774
0.595774
0.59577
0.595766
0.595762
0.595758
0.595758
0.595754
0.59575
0.595745
0.595741
0.595741
0.595737
0.595733
0.595729
0.595725
0.595725
0.595721
0.595717
0.595713
0.595708
0.595708
0.595704
0.5957
0.595696
0.595692
0.595692
0.595688
0.595684
0.59568
0.595676
0.595676
0.595672
0.595668
0.595664
0.595659
0.595659
0.595655
0.595651
0.595647
0.595643
0.595643
0.595639
0.595635
0.595631
0.595627
0.595627
0.595623
0.595619
0.595615
0.595611
0.595611
0.595607
0.595603
0.595599
0.595595
0.595595
0.595591
0.595587
0.595583
0.595579
0.595579
0.595575
0.595571
0.595567
0.595563
0.595563
0.595559
0.595555
0.595551
0.595547
0.595547
0.595543
0.595539
0.595535
0.595532
0.595532
0.595528
0.595524
0.59552
0.595516
0.595516
0.595512
0.595508
0.595504
0.5955
0.5955
0.595496
0.595492
0.595489
0.595485
0.595485
0.595481
0.595477
0.595473
0.595469
0.595469
0.595465
0.595461
0.595457
0.595454
0.595454
0.59545
0.595446
0.595442
0.595438
0.595438
0.595434
0.59543
0.595426
0.595423
0.595423
0.595419
0.595415
0.595411
0.595407
0.595407
0.595403
0.595399
0.595396
0.595392
0.595392
0.595388
0.595384
0.59538
0.595376
0.595376
0.595373
0.595369
0.595365
0.595361
0.595361
0.595357
0.595353
0.59535
0.595346
0.595346
0.595342
0.595338
0.595334
0.595331
0.595331
0.595327
0.595323
0.595319
0.595315
0.595315
0.595312
0.595308
0.595304
0.5953
0.5953
0.595296
0.595293
0.595289
0.595285
0.595285
0.595281
0.595277
0.595274
0.59527
0.59527
0.595266
0.595262
0.595259
0.595255
0.595255
0.595251
0.595247
0.595244
0.59524
0.59524
0.595236
0.595233
0.595229
0.595225
0.595225
0.595221
0.595218
0.595214
0.59521
0.59521
0.595207
0.595203
0.595199
0.595196
0.595196
0.595192
0.595188
0.595185
0.595181
0.595181
0.595177
0.595174
0.59517
0.595167
0.595167
0.595163
0.595159
0.595156
0.595152
0.595152
0.595148
0.595145
0.595141
0.595138
0.595138
0.595134
0.59513
0.595127
0.595123
0.595123
0.595119
0.595116
0.595112
0.595109
0.595109
0.595105
0.595101
0.595098
0.595094
0.595094
0.595091
0.595087
0.595084
0.59508
0.59508
0.595076
0.595073
0.595069
0.595066
0.595066
0.595062
0.595059
0.595055
0.595052
0.595052
0.595048
0.595045
0.595041
0.595037
0.595037
0.595034
0.59503
0.595027
0.595023
0.595023
0.59502
0.595016
0.595013
0.595009
0.595009
0.595006
0.595002
0.594999
0.594995
0.594995
0.594992
0.594988
0.594985
0.594981
0.594981
0.594978
0.594974
0.594971
0.594967
0.594967
0.594964
0.59496
0.594957
0.594953
0.594953
0.59495
0.594947
0.594943
0.59494
0.59494
0.594936
0.594933
0.594929
0.594926
0.594926
0.594923
0.594919
0.594916
0.594912
0.594912
0.594909
0.594906
0.594902
0.594899
0.594899
0.594895
0.594892
0.594889
0.594885
0.594885
0.594882
0.594879
0.594875
0.594872
0.594872
0.594868
0.594865
0.594862
0.594858
0.594858
0.594855
0.594852
0.594848
0.594845
0.594845
0.594842
0.594839
0.594835
0.594832
0.594832
0.594829
0.594825
0.594822
0.594819
0.594819
0.594815
0.594812
0.594809
0.594805
0.594805
0.594802
0.594799
0.594796
0.594792
0.594792
0.594789
0.594786
0.594782
0.594779
0.594779
0.594776
0.594773
0.59477
0.594766
0.594766
0.594763
0.59476
0.594757
0.594753
0.594753
0.59475
0.594747
0.594744
0.594741
0.594741
0.594737
0.594734
0.594731
0.594728
0.594728
0.594725
0.594721
0.594718
0.594715
0.594715
0.594712
0.594709
0.594705
0.594702
0.594702
0.594699
0.594696
0.594693
0.59469
0.59469
0.594686
0.594683
0.59468
0.594677
0.594677
0.594674
0.594671
0.594668
0.594664
0.594664
0.594661
0.594658
0.594655
0.594652
0.594652
0.594649
0.594646
0.594643
0.59464
0.59464
0.594636
0.594633
0.59463
0.594627
0.594627
0.594624
0.594621
0.594618
0.594615
0.594615
0.594612
0.594609
0.594606
0.594603
0.594603
0.5946
0.594597
0.594594
0.594591
0.594591
0.594588
0.594585
0.594582
0.594579
0.594579
0.594576
0.594573
0.59457
0.594567
0.594567
0.594564
0.594561
0.594558
0.594555
0.594555
0.594552
0.594549
0.594546
0.594543
0.594543
0.59454
0.594537
0.594534
0.594531
0.594531
0.594528
0.594525
0.594522
0.594519
0.594519
0.594516
0.594513
0.59451
0.594507
0.594507
0.594505
0.594502
0.594499
0.594496
0.594496
0.594493
0.59449
0.594487
0.594484
0.594484
0.594481
0.594478
0.594476
0.594473
0.594473
0.59447
0.594467
0.594464
0.594461
0.594461
0.594458
0.594456
0.594453
0.59445
0.59445
0.594447
0.594444
0.594441
0.594439
0.594439
0.594436
0.594433
0.59443
0.594427
0.594427
0.594424
0.594422
0.594419
0.594416
0.594416
0.594413
0.59441
0.594408
0.594405
0.594405
0.594402
0.594399
0.594397
0.594394
0.594394
0.594391
0.594388
0.594386
0.594383
0.594383
0.59438
0.594377
0.594375
0.594372
0.594372
0.594369
0.594367
0.594364
0.594361
0.594361
0.594358
0.594356
0.594353
0.59435
0.59435
0.594348
0.594345
0.594342
0.59434
0.59434
0.594337
0.594334
0.594331
0.594329
0.594329
0.594326
0.594323
0.594321
0.594318
0.594318
0.594315
0.594313
0.59431
0.594308
0.594308
0.594305
0.594302
0.5943
0.594297
0.594297
0.594295
0.594292
0.594289
0.594287
0.594287
0.594284
0.594282
0.594279
0.594277
0.594277
0.594274
0.594271
0.594269
0.594266
0.594266
0.594264
0.594261
0.594259
0.594256
0.594256
0.594253
0.594251
0.594248
0.594246
0.594246
0.594243
0.594241
0.594238
0.594236
0.594236
0.594233
0.594231
0.594228
0.594226
0.594226
0.594223
0.594221
0.594218
0.594216
0.594216
0.594213
0.594211
0.594208
0.594206
0.594206
0.594203
0.594201
0.594199
0.594196
0.594196
0.594194
0.594191
0.594189
0.594186
0.594186
0.594184
0.594182
0.594179
0.594177
0.594177
0.594174
0.594172
0.594169
0.594167
0.594167
0.594165
0.594162
0.59416
0.594158
0.594158
0.594155
0.594153
0.59415
0.594148
0.594148
0.594146
0.594143
0.594141
0.594139
0.594139
0.594136
0.594134
0.594131
0.594129
0.594129
0.594127
0.594124
0.594122
0.59412
0.59412
0.594118
0.594115
0.594113
0.594111
0.594111
0.594108
0.594106
0.594104
0.594102
0.594102
0.594099
0.594097
0.594095
0.594093
0.594093
0.59409
0.594088
0.594086
0.594084
0.594084
0.594081
0.594079
0.594077
0.594075
0.594075
0.594072
0.59407
0.594068
0.594066
0.594066
0.594064
0.594061
0.594059
0.594057
0.594057
0.594055
0.594053
0.59405
0.594048
0.594048
0.594046
0.594044
0.594042
0.59404
0.59404
0.594037
0.594035
0.594033
0.594031
0.594031
0.594029
0.594027
0.594025
0.594022
0.594022
0.59402
0.594018
0.594016
0.594014
0.594014
0.594012
0.59401
0.594008
0.594006
0.594006
0.594004
0.594001
0.593999
0.593997
0.593997
0.593995
0.593993
0.593991
0.593989
0.593989
0.593987
0.593985
0.593983
0.593981
0.593981
0.593979
0.593977
0.593975
0.593973
0.593973
0.593971
0.593969
0.593966
0.593964
0.593964
0.593962
0.59396
0.593959
0.593957
0.593957
0.593955
0.593953
0.593951
0.593949
0.593949
0.593947
0.593945
0.593943
0.593941
0.593941
0.593939
0.593937
0.593935
0.593933
0.593933
0.593931
0.593929
0.593927
0.593926
0.593926
0.593924
0.593922
0.59392
0.593918
0.593918
0.593916
0.593914
0.593912
0.59391
0.59391
0.593908
0.593907
0.593905
0.593903
0.593903
0.593901
0.593899
0.593897
0.593895
0.593895
0.593894
0.593892
0.59389
0.593888
0.593888
0.593886
0.593884
0.593883
0.593881
0.593881
0.593879
0.593877
0.593875
0.593873
0.593873
0.593872
0.59387
0.593868
0.593866
0.593866
0.593865
0.593863
0.593861
0.593859
0.593859
0.593857
0.593856
0.593854
0.593852
0.593852
0.59385
0.593849
0.593847
0.593845
0.593845
0.593843
0.593842
0.59384
0.593838
0.593838
0.593837
0.593835
0.593833
0.593831
0.593831
0.59383
0.593828
0.593826
0.593825
0.593825
0.593823
0.593821
0.59382
0.593818
0.593818
0.593817
0.593815
0.593813
0.593812
0.593812
0.59381
0.593808
0.593807
0.593805
0.593805
0.593803
0.593802
0.5938
0.593799
0.593799
0.593797
0.593795
0.593794
0.593792
0.593792
0.593791
0.593789
0.593788
0.593786
0.593786
0.593784
0.593783
0.593781
0.59378
0.59378
0.593778
0.593777
0.593775
0.593774
0.593774
0.593772
0.59377
0.593769
0.593767
0.593767
0.593766
0.593764
0.593763
0.593761
0.593761
0.59376
0.593758
0.593757
0.593755
0.593755
0.593754
0.593752
0.593751
0.59375
0.59375
0.593748
0.593747
0.593745
0.593744
0.593744
0.593742
0.593741
0.593739
0.593738
0.593738
0.593736
0.593735
0.593733
0.593732
0.593732
0.593731
0.593729
0.593728
0.593726
0.593726
0.593725
0.593724
0.593722
0.593721
0.593721
0.59372
0.593718
0.593717
0.593715
0.593715
0.593714
0.593713
0.593711
0.59371
0.59371
0.593709
0.593708
0.593706
0.593705
0.593705
0.593704
0.593702
0.593701
0.5937
0.5937
0.593698
0.593697
0.593696
0.593694
0.593694
0.593693
0.593692
0.593691
0.593689
0.593689
0.593688
0.593687
0.593685
0.593684
0.593684
0.593683
0.593682
0.59368
0.593679
0.593679
0.593678
0.593677
0.593676
0.593674
0.593674
0.593673
0.593672
0.593671
0.593669
0.593669
0.593668
0.593667
0.593666
0.593665
0.593665
0.593664
0.593662
0.593661
0.59366
0.59366
0.593659
0.593658
0.593656
0.593655
0.593655
0.593654
0.593653
0.593652
0.593651
0.593651
0.59365
0.593648
0.593647
0.593646
0.593646
0.593645
0.593644
0.593643
0.593642
0.593642
0.593641
0.593639
0.593638
0.593637
0.593637
0.593636
0.593635
0.593634
0.593633
0.593633
0.593632
0.593631
0.59363
0.593629
0.593629
0.593628
0.593627
0.593626
0.593625
0.593625
0.593624
0.593623
0.593622
0.593621
0.593621
0.59362
0.593619
0.593618
0.593617
0.593617
0.593616
0.593615
0.593614
0.593613
0.593613
0.593612
0.593611
0.59361
0.593609
0.593609
0.593608
0.593607
0.593606
0.593605
0.593605
0.593604
0.593603
0.593602
0.593602
0.593602
0.593601
0.5936
0.593599
0.593598
0.593598
0.593597
0.593596
0.593595
0.593594
0.593594
0.593593
0.593592
0.593592
0.593591
0.593591
0.59359
0.593589
0.593588
0.593587
0.593587
0.593586
0.593585
0.593585
0.593584
0.593584
0.593583
0.593582
0.593581
0.59358
0.59358
0.59358
0.593579
0.593578
0.593577
0.593577
0.593576
0.593576
0.593575
0.593574
0.593574
0.593573
0.593573
0.593572
0.593571
0.593571
0.59357
0.59357
0.593569
0.593568
0.593568
0.593567
0.593567
0.593566
0.593565
0.593565
0.593564
0.593564
0.593563
0.593562
0.593562
0.593562
0.593561
0.59356
0.59356
0.59356
0.593559
0.593558
0.593557
0.593557
0.593557
0.593556
0.593555
0.593555
0.593554
0.593554
0.593553
0.593553
0.593552
0.593552
0.593552
0.593551
0.59355
0.59355
0.593549
0.593549
0.593548
0.593548
0.593547
0.593546
0.593546
0.593546
0.593545
0.593545
0.593544
0.593544
0.593543
0.593543
0.593542
0.593542
0.593542
0.593541
0.59354
0.59354
0.593539
0.593539
0.593539
0.593538
0.593538
0.593537
0.593537
0.593537
0.593536
0.593536
0.593535
0.593535
0.593535
0.593534
0.593534
0.593533
0.593533
0.593533
0.593532
0.593532
0.593531
0.593531
0.593531
0.59353
0.59353
0.593529
0.593529
0.593529
0.593528
0.593528
0.593528
0.593528
0.593527
0.593527
0.593526
0.593526
0.593526
0.593525
0.593525
0.593525
0.593524
0.593524
0.593524
0.593523
0.593523
0.593523
0.593523
0.593522
0.593522
0.593521
0.593521
0.593521
0.593521
0.59352
0.59352
0.593519
0.593519
0.593519
0.593519
0.593518
0.593518
0.593518
0.593518
0.593517
0.593517
0.593517
0.593517
0.593516
0.593516
0.593516
0.593515
0.593515
0.593515
0.593515
0.593514
0.593514
0.593514
0.593514
0.593513
0.593513
0.593513
0.593513
0.593513
0.593512
0.593512
0.593512
0.593512
0.593512
0.593511
0.593511
0.593511
0.593511
0.593511
0.593511
0.59351
0.59351
0.59351
0.59351
0.59351
0.59351
0.593509
0.593509
0.593509
0.593509
0.593509
0.593509
0.593509
0.593508
0.593508
0.593508
0.593508
0.593508
0.593508
0.593508
0.593507
0.593507
0.593507
0.593507
0.593507
0.593507
0.593507
0.593507
0.593507
0.593506
0.593506
0.593506
0.593506
0.593506
0.593506
0.593506
0.593506
0.593506
0.593506
0.593506
0.593505
0.593505
0.593505
0.593505
0.593505
0.593505
0.593505
0.593505
0.593505
0.593505
0.593505
0.593505
0.593505
0.593505
0.593505
0.593505
0.593505
0.593505
0.593505
0.593504
0.593504
0.593504
0.593504
0.593504
0.593504
0.593504
0.593504
0.593504
0.593504
0.593504
0.593505
0.593505
0.593505
0.593505
0.593505
0.593505
0.593505
0.593505
0.593505
0.593505
0.593505
0.593505
0.593505
0.593505
0.593505
0.593505
0.593505
0.593505
0.593505
0.593506
0.593506
0.593506
0.593506
0.593506
0.593506
0.593506
0.593506
0.593506
0.593506
0.593506
0.593506
0.593507
0.593507
0.593507
0.593507
0.593507
0.593507
0.593507
0.593507
0.593507
0.593508
0.593508
0.593508
0.593508
0.593508
0.593508
0.593508
0.593508
0.593509
0.593509
0.593509
0.593509
0.593509
0.593509
0.59351
0.59351
0.59351
0.59351
0.59351
0.59351
0.593511
0.593511
0.593511
0.593511
0.593511