<?xml version="1.0"?>
<VTKFile type="UnstructuredGrid" version="0.1" byte_order="LittleEndian">
<UnstructuredGrid>
<Piece NumberOfPoints="5000" NumberOfCells="4000">
<PointData Scalars="Reaction 0">
<DataArray type="Float32" Name="Reaction 0" format="ascii">
0.707745
0.707745
0.707745
0.707745
0.707745
0.707745
0.707745
0.707745
0.707745
0.707745
0.707745
0.707745
0.707745
0.707745
0.707746
0.707746
0.707746
0.707746
0.707746
0.707746
0.707746
0.707746
0.707746
0.707746
0.707746
0.707746
0.707746
0.707747
0.707747
0.707747
0.707747
0.707747
0.707747
0.707747
0.707748
0.707748
0.707748
0.707748
0.707748
0.707748
0.707748
0.707749
0.707749
0.707749
0.707749
0.707749
0.707749
0.70775
0.70775
0.70775
0.70775
0.70775
0.707751
0.707751
0.707751
0.707751
0.707752
0.707752
0.707752
0.707753
0.707753
0.707753
0.707753
0.707753
0.707754
0.707754
0.707754
0.707755
0.707755
0.707755
0.707755
0.707756
0.707756
0.707756
0.707757
0.707757
0.707757
0.707758
0.707758
0.707758
0.707758
0.707759
0.707759
0.70776
0.70776
0.70776
0.707761
0.707761
0.707761
0.707762
0.707762
0.707762
0.707763
0.707763
0.707764
0.707764
0.707764
0.707765
0.707765
0.707766
0.707766
0.707766
0.707767
0.707767
0.707768
0.707768
0.707769
0.707769
0.70777
0.70777
0.70777
0.707771
0.707771
0.707772
0.707773
0.707773
0.707773
0.707774
0.707774
0.707775
0.707775
0.707776
0.707776
0.707777
0.707778
0.707778
0.707778
0.707779
0.70778
0.70778
0.70778
0.707781
0.707782
0.707782
0.707783
0.707783
0.707784
0.707784
0.707785
0.707786
0.707786
0.707787
0.707787
0.707788
0.707789
0.707789
0.70779
0.70779
0.707791
0.707792
0.707792
0.707793
0.707793
0.707794
0.707795
0.707795
0.707796
0.707797
0.707797
0.707798
0.707798
0.707799
0.7078
0.707801
0.707802
0.707802
0.707803
0.707803
0.707804
0.707805
0.707805
0.707806
0.707807
0.707808
0.707809
0.707809
0.70781
0.707811
0.707812
0.707812
0.707812
0.707813
0.707814
0.707815
0.707816
0.707816
0.707817
0.707818
0.707819
0.70782
0.70782
0.707821
0.707822
0.707823
0.707824
0.707824
0.707825
0.707826
0.707827
0.707828
0.707828
0.707829
0.70783
0.707831
0.707832
0.707832
0.707834
0.707835
0.707836
0.707837
0.707837
0.707838
0.707839
0.70784
0.707841
0.707841
0.707842
0.707843
0.707845
0.707846
0.707846
0.707847
0.707848
0.707849
0.70785
0.70785
0.707852
0.707853
0.707854
0.707855
0.707855
0.707856
0.707857
0.707859
0.70786
0.70786
0.707861
0.707862
0.707864
0.707865
0.707865
0.707866
0.707867
0.707869
0.70787
0.70787
0.707871
0.707872
0.707874
0.707875
0.707875
0.707876
0.707878
0.707879
0.70788
0.70788
0.707882
0.707883
0.707884
0.707886
0.707886
0.707887
0.707888
0.70789
0.707891
0.707891
0.707893
0.707894
0.707895
0.707897
0.707897
0.707898
0.7079
0.707901
0.707902
0.707902
0.707904
0.707905
0.707907
0.707908
0.707908
0.70791
0.707911
0.707913
0.707914
0.707914
0.707916
0.707917
0.707919
0.70792
0.70792
0.707922
0.707923
0.707925
0.707926
0.707926
0.707928
0.707929
0.707931
0.707932
0.707932
0.707934
0.707935
0.707937
0.707939
0.707939
0.70794
0.707942
0.707943
0.707945
0.707945
0.707947
0.707948
0.70795
0.707952
0.707952
0.707953
0.707955
0.707956
0.707958
0.707958
0.70796
0.707961
0.707963
0.707965
0.707965
0.707967
0.707968
0.70797
0.707972
0.707972
0.707973
0.707975
0.707977
0.707979
0.707979
0.70798
0.707982
0.707984
0.707986
0.707986
0.707987
0.707989
0.707991
0.707993
0.707993
0.707995
0.707996
0.707998
0.708
0.708
0.708002
0.708004
0.708005
0.708007
0.708007
0.708009
0.708011
0.708013
0.708015
0.708015
0.708017
0.708019
0.70802
0.708022
0.708022
0.708024
0.708026
0.708028
0.70803
0.70803
0.708032
0.708034
0.708036
0.708038
0.708038
0.70804
0.708042
0.708044
0.708046
0.708046
0.708048
0.70805
0.708052
0.708054
0.708054
0.708056
0.708058
0.70806
0.708062
0.708062
0.708064
0.708066
0.708068
0.70807
0.70807
0.708072
0.708074
0.708076
0.708078
0.708078
0.70808
0.708082
0.708084
0.708086
0.708086
0.708089
0.708091
0.708093
0.708095
0.708095
0.708097
0.708099
0.708101
0.708104
0.708104
0.708106
0.708108
0.70811
0.708112
0.708112
0.708114
0.708117
0.708119
0.708121
0.708121
0.708123
0.708125
0.708128
0.70813
0.70813
0.708132
0.708134
0.708137
0.708139
0.708139
0.708141
0.708143
0.708146
0.708148
0.708148
0.70815
0.708153
0.708155
0.708157
0.708157
0.70816
0.708162
0.708164
0.708167
0.708167
0.708169
0.708171
0.708174
0.708176
0.708176
0.708178
0.708181
0.708183
0.708185
0.708185
0.708188
0.70819
0.708193
0.708195
0.708195
0.708198
0.7082
0.708202
0.708205
0.708205
0.708207
0.70821
0.708212
0.708215
0.708215
0.708217
0.70822
0.708222
0.708225
0.708225
0.708227
0.70823
0.708232
0.708235
0.708235
0.708237
0.70824
0.708242
0.708245
0.708245
0.708247
0.70825
0.708252
0.708255
0.708255
0.708258
0.70826
0.708263
0.708265
0.708265
0.708268
0.708271
0.708273
0.708276
0.708276
0.708278
0.708281
0.708284
0.708286
0.708286
0.708289
0.708292
0.708294
0.708297
0.708297
0.7083
0.708303
0.708305
0.708308
0.708308
0.708311
0.708313
0.708316
0.708319
0.708319
0.708322
0.708324
0.708327
0.70833
0.70833
0.708333
0.708335
0.708338
0.708341
0.708341
0.708344
0.708347
0.708349
0.708352
0.708352
0.708355
0.708358
0.708361
0.708364
0.708364
0.708366
0.708369
0.708372
0.708375
0.708375
0.708378
0.708381
0.708384
0.708386
0.708386
0.708389
0.708392
0.708395
0.708398
0.708398
0.708401
0.708404
0.708407
0.70841
0.70841
0.708413
0.708416
0.708419
0.708422
0.708422
0.708425
0.708428
0.708431
0.708434
0.708434
0.708437
0.70844
0.708443
0.708446
0.708446
0.708449
0.708452
0.708455
0.708458
0.708458
0.708461
0.708464
0.708467
0.70847
0.70847
0.708473
0.708476
0.708479
0.708482
0.708482
0.708486
0.708489
0.708492
0.708495
0.708495
0.708498
0.708501
0.708504
0.708507
0.708507
0.708511
0.708514
0.708517
0.70852
0.70852
0.708523
0.708526
0.70853
0.708533
0.708533
0.708536
0.708539
0.708543
0.708546
0.708546
0.708549
0.708552
0.708555
0.708559
0.708559
0.708562
0.708565
0.708569
0.708572
0.708572
0.708575
0.708578
0.708582
0.708585
0.708585
0.708588
0.708592
0.708595
0.708598
0.708598
0.708602
0.708605
0.708608
0.708612
0.708612
0.708615
0.708618
0.708622
0.708625
0.708625
0.708629
0.708632
0.708635
0.708639
0.708639
0.708642
0.708646
0.708649
0.708653
0.708653
0.708656
0.708659
0.708663
0.708666
0.708666
0.70867
0.708673
0.708677
0.70868
0.70868
0.708684
0.708687
0.708691
0.708694
0.708694
0.708698
0.708701
0.708705
0.708709
0.708709
0.708712
0.708716
0.708719
0.708723
0.708723
0.708726
0.70873
0.708734
0.708737
0.708737
0.708741
0.708744
0.708748
0.708752
0.708752
0.708755
0.708759
0.708763
0.708766
0.708766
0.70877
0.708773
0.708777
0.708781
0.708781
0.708785
0.708788
0.708792
0.708796
0.708796
0.708799
0.708803
0.708807
0.70881
0.70881
0.708814
0.708818
0.708822
0.708825
0.708825
0.708829
0.708833
0.708837
0.708841
0.708841
0.708844
0.708848
0.708852
0.708856
0.708856
0.70886
0.708863
0.708867
0.708871
0.708871
0.708875
0.708879
0.708883
0.708886
0.708886
0.70889
0.708894
0.708898
0.708902
0.708902
0.708906
0.70891
0.708914
0.708918
0.708918
0.708921
0.708925
0.708929
0.708933
0.708933
0.708937
0.708941
0.708945
0.708949
0.708949
0.708953
0.708957
0.708961
0.708965
0.708965
0.708969
0.708973
0.708977
0.708981
0.708981
0.708985
0.708989
0.708993
0.708997
0.708997
0.709001
0.709005
0.709009
0.709013
0.709013
0.709017
0.709022
0.709026
0.70903
0.70903
0.709034
0.709038
0.709042
0.709046
0.709046
0.70905
0.709054
0.709059
0.709063
0.709063
0.709067
0.709071
0.709075
0.709079
0.709079
0.709084
0.709088
0.709092
0.709096
0.709096
0.7091
0.709104
0.709109
0.709113
0.709113
0.709117
0.709121
0.709126
0.70913
0.70913
0.709134
0.709138
0.709143
0.709147
0.709147
0.709151
0.709155
0.70916
0.709164
0.709164
0.709168
0.709173
0.709177
0.709181
0.709181
0.709186
0.70919
0.709194
0.709199
0.709199
0.709203
0.709208
0.709212
0.709216
0.709216
0.709221
0.709225
0.70923
0.709234
0.709234
0.709239
0.709243
0.709247
0.709252
0.709252
0.709256
0.709261
0.709265
0.70927
0.70927
0.709274
0.709279
0.709283
0.709288
0.709288
0.709292
0.709297
0.709301
0.709306
0.709306
0.70931
0.709315
0.709319
0.709324
0.709324
0.709328
0.709333
0.709338
0.709342
0.709342
0.709347
0.709351
0.709356
0.709361
0.709361
0.709365
0.70937
0.709374
0.709379
0.709379
0.709384
0.709388
0.709393
0.709398
0.709398
0.709402
0.709407
0.709412
0.709416
0.709416
0.709421
0.709426
0.70943
0.709435
0.709435
0.70944
0.709444
0.709449
0.709454
0.709454
0.709459
0.709463
0.709468
0.709473
0.709473
0.709478
0.709482
0.709487
0.709492
0.709492
0.709497
0.709502
0.709506
0.709511
0.709511
0.709516
0.709521
0.709526
0.709531
0.709531
0.709535
0.70954
0.709545
0.70955
0.70955
0.709555
0.70956
0.709565
0.70957
0.70957
0.709574
0.709579
0.709584
0.709589
0.709589
0.709594
0.709599
0.709604
0.709609
0.709609
0.709614
0.709619
0.709624
0.709629
0.709629
0.709634
0.709639
0.709644
0.709649
0.709649
0.709654
0.709659
0.709664
0.709669
0.709669
0.709674
0.709679
0.709684
0.709689
0.709689
0.709694
0.709699
0.709704
0.709709
0.709709
0.709714
0.709719
0.709724
0.70973
0.70973
0.709735
0.70974
0.709745
0.70975
0.70975
0.709755
0.70976
0.709765
0.709771
0.709771
0.709776
0.709781
0.709786
0.709791
0.709791
0.709796
0.709802
0.709807
0.709812
0.709812
0.709817
0.709823
0.709828
0.709833
0.709833
0.709838
0.709843
0.709849
0.709854
0.709854
0.709859
0.709865
0.70987
0.709875
0.709875
0.70988
0.709886
0.709891
0.709896
0.709896
0.709902
0.709907
0.709912
0.709918
0.709918
0.709923
0.709928
0.709934
0.709939
0.709939
0.709944
0.70995
0.709955
0.709961
0.709961
0.709966
0.709971
0.709977
0.709982
0.709982
0.709988
0.709993
0.709998
0.710004
0.710004
0.710009
0.710015
0.71002
0.710026
0.710026
0.710031
0.710037
0.710042
0.710048
0.710048
0.710053
0.710059
0.710064
0.71007
0.71007
0.710075
0.710081
0.710086
0.710092
0.710092
0.710097
0.710103
0.710108
0.710114
0.710114
0.71012
0.710125
0.710131
0.710137
0.710137
0.710142
0.710148
0.710153
0.710159
0.710159
0.710165
0.71017
0.710176
0.710182
0.710182
0.710187
0.710193
0.710199
0.710205
0.710205
0.71021
0.710216
0.710222
0.710227
0.710227
0.710233
0.710239
0.710245
0.71025
0.71025
0.710256
0.710262
0.710268
0.710273
0.710273
0.710279
0.710285
0.710291
0.710297
0.710297
0.710302
0.710308
0.710314
0.71032
0.71032
0.710326
0.710332
0.710337
0.710343
0.710343
0.710349
0.710355
0.710361
0.710367
0.710367
0.710373
0.710378
0.710384
0.71039
0.71039
0.710396
0.710402
0.710408
0.710414
0.710414
0.71042
0.710426
0.710432
0.710438
0.710438
0.710444
0.71045
0.710456
0.710462
0.710462
0.710468
0.710474
0.71048
0.710486
0.710486
0.710492
0.710498
0.710504
0.71051
0.71051
0.710516
0.710522
0.710528
0.710534
0.710534
0.71054
0.710546
0.710552
0.710558
0.710558
0.710564
0.71057
0.710577
0.710583
0.710583
0.710589
0.710595
0.710601
0.710607
0.710607
0.710613
0.71062
0.710626
0.710632
0.710632
0.710638
0.710644
0.71065
0.710657
0.710657
0.710663
0.710669
0.710675
0.710682
0.710682
0.710688
0.710694
0.7107
0.710706
0.710706
0.710713
0.710719
0.710725
0.710732
0.710732
0.710738
0.710744
0.71075
0.710757
0.710757
0.710763
0.710769
0.710776
0.710782
0.710782
0.710788
0.710795
0.710801
0.710807
0.710807
0.710814
0.71082
0.710826
0.710833
0.710833
0.710839
0.710846
0.710852
0.710858
0.710858
0.710865
0.710871
0.710878
0.710884
0.710884
0.710891
0.710897
0.710903
0.71091
0.71091
0.710916
0.710923
0.710929
0.710936
0.710936
0.710942
0.710949
0.710955
0.710962
0.710962
0.710968
0.710975
0.710981
0.710988
0.710988
0.710994
0.711001
0.711007
0.711014
0.711014
0.711021
0.711027
0.711034
0.71104
0.71104
0.711047
0.711054
0.71106
0.711067
0.711067
0.711073
0.71108
0.711087
0.711093
0.711093
0.7111
0.711107
0.711114
0.71112
0.71112
0.711127
0.711134
0.71114
0.711147
0.711147
0.711154
0.711161
0.711167
0.711174
0.711174
0.711181
0.711188
0.711194
0.711201
0.711201
0.711208
0.711215
0.711221
0.711228
0.711228
0.711235
0.711242
0.711249
0.711256
0.711256
0.711262
0.711269
0.711276
0.711283
0.711283
0.71129
0.711297
0.711303
0.71131
0.71131
0.711317
0.711324
0.711331
0.711338
0.711338
0.711345
0.711352
0.711359
0.711366
0.711366
0.711373
0.711379
0.711386
0.711393
0.711393
0.7114
0.711407
0.711414
0.711421
0.711421
0.711428
0.711435
0.711442
0.711449
0.711449
0.711456
0.711463
0.71147
0.711477
0.711477
0.711484
0.711491
0.711498
0.711506
0.711506
0.711513
0.71152
0.711527
0.711534
0.711534
0.711541
0.711548
0.711555
0.711562
0.711562
0.711569
0.711576
0.711584
0.711591
0.711591
0.711598
0.711605
0.711612
0.711619
0.711619
0.711627
0.711634
0.711641
0.711648
0.711648
0.711655
0.711663
0.71167
0.711677
0.711677
0.711684
0.711691
0.711699
0.711706
0.711706
0.711713
0.71172
0.711728
0.711735
0.711735
0.711742
0.71175
0.711757
0.711764
0.711764
0.711771
0.711779
0.711786
0.711793
0.711793
0.711801
0.711808
0.711815
0.711823
0.711823
0.71183
0.711837
0.711845
0.711852
0.711852
0.71186
0.711867
0.711874
0.711882
0.711882
0.711889
0.711897
0.711904
0.711911
0.711911
0.711919
0.711926
0.711934
0.711941
0.711941
0.711949
0.711956
0.711963
0.711971
0.711971
0.711978
0.711986
0.711993
0.712001
0.712001
0.712008
0.712016
0.712024
0.712031
0.712031
0.712039
0.712046
0.712054
0.712061
0.712061
0.712069
0.712077
0.712084
0.712092
0.712092
0.7121
0.712107
0.712115
0.712122
0.712122
0.71213
0.712138
0.712145
0.712153
0.712153
0.712161
0.712169
0.712176
0.712184
0.712184
0.712192
0.712199
0.712207
0.712215
0.712215
0.712222
0.71223
0.712238
0.712246
0.712246
0.712253
0.712261
0.712269
0.712277
0.712277
0.712285
0.712292
0.7123
0.712308
0.712308
0.712316
0.712324
0.712331
0.712339
0.712339
0.712347
0.712355
0.712363
0.712371
0.712371
0.712378
0.712386
0.712394
0.712402
0.712402
0.71241
0.712418
0.712426
0.712434
0.712434
0.712441
0.712449
0.712457
0.712465
0.712465
0.712473
0.712481
0.712489
0.712497
0.712497
0.712505
0.712513
0.712521
0.712529
0.712529
0.712537
0.712545
0.712553
0.712561
0.712561
0.712569
0.712577
0.712585
0.712593
0.712593
0.712601
0.712609
0.712617
0.712625
0.712625
0.712633
0.712641
0.712649
0.712658
0.712658
0.712666
0.712674
0.712682
0.71269
0.71269
0.712698
0.712706
0.712714
0.712723
0.712723
0.712731
0.712739
0.712747
0.712755
0.712755
0.712763
0.712772
0.71278
0.712788
0.712788
0.712796
0.712804
0.712812
0.712821
0.712821
0.712829
0.712837
0.712845
0.712854
0.712854
0.712862
0.71287
0.712878
0.712887
0.712887
0.712895
0.712903
0.712911
0.71292
0.71292
0.712928
0.712936
0.712945
0.712953
0.712953
0.712961
0.71297
0.712978
0.712986
0.712986
0.712995
0.713003
0.713012
0.71302
0.71302
0.713028
0.713037
0.713045
0.713054
0.713054
0.713062
0.713071
0.713079
0.713088
0.713088
0.713096
0.713105
0.713113
0.713122
0.713122
0.71313
0.713139
0.713147
0.713156
0.713156
0.713164
0.713173
0.713181
0.71319
0.71319
0.713198
0.713207
0.713215
0.713224
0.713224
0.713233
0.713241
0.71325
0.713258
0.713258
0.713267
0.713276
0.713284
0.713293
0.713293
0.713301
0.71331
0.713319
0.713327
0.713327
0.713336
0.713345
0.713353
0.713362
0.713362
0.713371
0.713379
0.713388
0.713397
0.713397
0.713405
0.713414
0.713423
0.713432
0.713432
0.71344
0.713449
0.713458
0.713467
0.713467
0.713475
0.713484
0.713493
0.713502
0.713502
0.713511
0.713519
0.713528
0.713537
0.713537
0.713546
0.713555
0.713563
0.713572
0.713572
0.713581
0.71359
0.713599
0.713608
0.713608
0.713616
0.713625
0.713634
0.713643
0.713643
0.713652
0.713661
0.71367
0.713679
0.713679
0.713688
0.713697
0.713706
0.713714
0.713714
0.713723
0.713732
0.713741
0.71375
0.71375
0.713759
0.713768
0.713777
0.713786
0.713786
0.713795
0.713804
0.713813
0.713822
0.713822
0.713831
0.71384
0.713849
0.713858
0.713858
0.713867
0.713876
0.713885
0.713894
0.713894
0.713904
0.713913
0.713922
0.713931
0.713931
0.71394
0.713949
0.713958
0.713967
0.713967
0.713976
0.713986
0.713995
0.714004
0.714004
0.714013
0.714022
0.714032
0.714041
0.714041
0.71405
0.714059
0.714068
0.714078
0.714078
0.714087
0.714096
0.714106
0.714115
0.714115
0.714124
0.714133
0.714143
0.714152
0.714152
0.714161
0.714171
0.71418
0.714189
0.714189
0.714199
0.714208
0.714217
0.714227
0.714227
0.714236
0.714245
0.714255
0.714264
0.714264
0.714273
0.714283
0.714292
0.714302
0.714302
0.714311
0.71432
0.71433
0.714339
0.714339
0.714349
0.714358
0.714368
0.714377
0.714377
0.714386
0.714396
0.714405
0.714415
0.714415
0.714424
0.714434
0.714443
0.714453
0.714453
0.714462
0.714472
0.714481
0.714491
0.714491
0.7145
0.71451
0.71452
0.714529
0.714529
0.714539
0.714548
0.714558
0.714567
0.714567
0.714577
0.714587
0.714596
0.714606
0.714606
0.714615
0.714625
0.714635
0.714644
0.714644
0.714654
0.714664
0.714673
0.714683
0.714683
0.714693
0.714702
0.714712
0.714722
0.714722
0.714731
0.714741
0.714751
0.71476
0.71476
0.71477
0.71478
0.71479
0.714799
0.714799
0.714809
0.714819
0.714829
0.714838
0.714838
0.714848
0.714858
0.714868
0.714877
0.714877
0.714887
0.714897
0.714907
0.714917
0.714917
0.714926
0.714936
0.714946
0.714956
0.714956
0.714966
0.714976
0.714986
0.714996
0.714996
0.715005
0.715015
0.715025
0.715035
0.715035
0.715045
0.715055
0.715065
0.715075
0.715075
0.715085
0.715095
0.715105
0.715115
0.715115
0.715125
0.715135
0.715145
0.715155
0.715155
0.715165
0.715175
0.715185
0.715195
0.715195
0.715205
0.715215
0.715225
0.715236
0.715236
0.715246
0.715256
0.715266
0.715276
0.715276
0.715286
0.715296
0.715306
0.715316
0.715316
0.715327
0.715337
0.715347
0.715357
0.715357
0.715367
0.715377
0.715387
0.715398
0.715398
0.715408
0.715418
0.715428
0.715438
0.715438
0.715449
0.715459
0.715469
0.715479
0.715479
0.71549
0.7155
0.71551
0.71552
0.71552
0.715531
0.715541
0.715551
0.715561
0.715561
0.715572
0.715582
0.715592
0.715603
0.715603
0.715613
0.715623
0.715634
0.715644
0.715644
0.715654
0.715665
0.715675
0.715685
0.715685
0.715696
0.715706
0.715716
0.715727
0.715727
0.715737
0.715748
0.715758
0.715768
0.715768
0.715779
0.715789
0.7158
0.71581
0.71581
0.715821
0.715831
0.715842
0.715852
0.715852
0.715862
0.715873
0.715883
0.715894
0.715894
0.715904
0.715915
0.715925
0.715936
0.715936
0.715946
0.715957
0.715968
0.715978
0.715978
0.715989
0.715999
0.71601
0.71602
0.71602
0.716031
0.716042
0.716052
0.716063
0.716063
0.716074
0.716084
0.716095
0.716106
0.716106
0.716116
0.716127
0.716138
0.716148
0.716148
0.716159
0.71617
0.716181
0.716191
0.716191
0.716202
0.716213
0.716224
0.716234
0.716234
0.716245
0.716256
0.716267
0.716277
0.716277
0.716288
0.716299
0.71631
0.716321
0.716321
0.716331
0.716342
0.716353
0.716364
0.716364
0.716375
0.716386
0.716396
0.716407
0.716407
0.716418
0.716429
0.71644
0.716451
0.716451
0.716462
0.716473
0.716483
0.716494
0.716494
0.716505
0.716516
0.716527
0.716538
0.716538
0.716549
0.71656
0.716571
0.716582
0.716582
0.716593
0.716604
0.716615
0.716626
0.716626
0.716637
0.716648
0.716659
0.71667
0.71667
0.716681
0.716692
0.716703
0.716714
0.716714
0.716725
0.716736
0.716747
0.716758
0.716758
0.716769
0.71678
0.716791
0.716803
0.716803
0.716814
0.716825
0.716836
0.716847
0.716847
0.716858
0.716869
0.71688
0.716891
0.716891
0.716903
0.716914
0.716925
0.716936
0.716936
0.716947
0.716958
0.71697
0.716981
0.716981
0.716992
0.717003
0.717015
0.717026
0.717026
0.717037
0.717048
0.71706
0.717071
0.717071
0.717082
0.717094
0.717105
0.717116
0.717116
0.717128
0.717139
0.71715
0.717162
0.717162
0.717173
0.717184
0.717196
0.717207
0.717207
0.717219
0.71723
0.717241
0.717253
0.717253
0.717264
0.717276
0.717287
0.717298
0.717298
0.71731
0.717321
0.717333
0.717344
0.717344
0.717356
0.717367
0.717379
0.71739
0.71739
0.717402
0.717413
0.717425
0.717436
0.717436
0.717448
0.717459
0.717471
0.717482
0.717482
0.717494
0.717505
0.717517
0.717529
0.717529
0.71754
0.717552
0.717563
0.717575
0.717575
0.717587
0.717598
0.71761
0.717621
0.717621
0.717633
0.717645
0.717656
0.717668
0.717668
0.71768
0.717691
0.717703
0.717715
0.717715
0.717726
0.717738
0.71775
0.717761
0.717761
0.717773
0.717785
0.717796
0.717808
0.717808
0.71782
0.717832
0.717843
0.717855
0.717855
0.717867
0.717879
0.71789
0.717902
0.717902
0.717914
0.717926
0.717937
0.717949
0.717949
0.717961
0.717973
0.717985
0.717997
0.717997
0.718008
0.71802
0.718032
0.718044
0.718044
0.718056
0.718068
0.71808
0.718092
0.718092
0.718104
0.718116
0.718127
0.718139
0.718139
0.718151
0.718163
0.718175
0.718187
0.718187
0.718199
0.718211
0.718223
0.718235
0.718235
0.718247
0.718259
0.718272
0.718284
0.718284
0.718296
0.718308
0.71832
0.718332
0.718332
0.718344
0.718356
0.718368
0.71838
0.71838
0.718392
0.718404
0.718417
0.718429
0.718429
0.718441
0.718453
0.718465
0.718477
0.718477
0.718489
0.718502
0.718514
0.718526
0.718526
0.718538
0.71855
0.718562
0.718575
0.718575
0.718587
0.718599
0.718611
0.718624
0.718624
0.718636
0.718648
0.71866
0.718672
0.718672
0.718685
0.718697
0.718709
0.718722
0.718722
0.718734
0.718746
0.718758
0.718771
0.718771
0.718783
0.718795
0.718808
0.71882
0.71882
0.718832
0.718845
0.718857
0.718869
0.718869
0.718882
0.718894
0.718906
0.718919
0.718919
0.718931
0.718944
0.718956
0.718968
0.718968
0.718981
0.718993
0.719006
0.719018
0.719018
0.719031
0.719043
0.719056
0.719068
0.719068
0.71908
0.719093
0.719105
0.719118
0.719118
0.719131
0.719143
0.719156
0.719168
0.719168
0.719181
0.719193
0.719206
0.719219
0.719219
0.719231
0.719244
0.719256
0.719269
0.719269
0.719282
0.719294
0.719307
0.71932
0.71932
0.719332
0.719345
0.719358
0.71937
0.71937
0.719383
0.719396
0.719409
0.719421
0.719421
0.719434
0.719447
0.719459
0.719472
0.719472
0.719485
0.719498
0.71951
0.719523
0.719523
0.719536
0.719549
0.719561
0.719574
0.719574
0.719587
0.7196
0.719613
0.719625
0.719625
0.719638
0.719651
0.719664
0.719677
0.719677
0.71969
0.719702
0.719715
0.719728
0.719728
0.719741
0.719754
0.719767
0.71978
0.71978
0.719793
0.719805
0.719818
0.719831
0.719831
0.719844
0.719857
0.71987
0.719883
0.719883
0.719896
0.719909
0.719922
0.719935
0.719935
0.719948
0.719961
0.719974
0.719987
0.719987
0.72
0.720013
0.720026
0.720039
0.720039
0.720052
0.720065
0.720078
0.720091
0.720091
0.720104
0.720117
0.72013
0.720143
0.720143
0.720156
0.72017
0.720183
0.720196
0.720196
0.720209
0.720222
0.720235
0.720249
0.720249
0.720262
0.720275
0.720288
0.720301
0.720301
0.720315
0.720328
0.720341
0.720354
0.720354
0.720368
0.720381
0.720394
0.720407
0.720407
0.720421
0.720434
0.720447
0.720461
0.720461
0.720474
0.720487
0.7205
0.720514
0.720514
0.720527
0.72054
0.720554
0.720567
0.720567
0.72058
0.720594
0.720607
0.720621
0.720621
0.720634
0.720647
0.720661
0.720674
0.720674
0.720688
0.720701
0.720714
0.720728
0.720728
0.720741
0.720755
0.720768
0.720782
0.720782
0.720795
0.720809
0.720822
0.720835
0.720835
0.720849
0.720862
0.720876
0.720889
0.720889
0.720903
0.720916
0.72093
0.720943
0.720943
0.720957
0.720971
0.720984
0.720998
0.720998
0.721011
0.721025
0.721038
0.721052
0.721052
0.721065
0.721079
0.721093
0.721106
0.721106
0.72112
0.721134
0.721147
0.721161
0.721161
0.721174
0.721188
0.721202
0.721216
0.721216
0.721229
0.721243
0.721257
0.72127
0.72127
0.721284
0.721298
0.721312
0.721326
0.721326
0.721339
0.721353
0.721367
0.721381
0.721381
0.721395
0.721408
0.721422
0.721436
0.721436
0.72145
0.721464
0.721478
0.721491
0.721491
0.721505
0.721519
0.721533
0.721547
0.721547
0.721561
0.721575
0.721589
0.721603
0.721603
0.721617
0.72163
0.721644
0.721658
0.721658
0.721672
0.721686
0.7217
0.721714
0.721714
0.721728
0.721742
0.721756
0.72177
0.72177
0.721784
0.721798
0.721812
0.721826
0.721826
0.72184
0.721854
0.721868
0.721882
0.721882
0.721896
0.72191
0.721924
0.721938
0.721938
0.721953
0.721967
0.721981
0.721995
0.721995
0.722009
0.722023
0.722037
0.722051
0.722051
0.722065
0.722079
0.722094
0.722108
0.722108
0.722122
0.722136
0.72215
0.722164
0.722164
0.722179
0.722193
0.722207
0.722221
0.722221
0.722235
0.72225
0.722264
0.722278
0.722278
0.722292
0.722307
0.722321
0.722335
0.722335
0.72235
0.722364
0.722378
0.722393
0.722393
0.722407
0.722421
0.722436
0.72245
0.72245
0.722465
0.722479
0.722493
0.722508
0.722508
0.722522
0.722537
0.722551
0.722565
0.722565
0.72258
0.722594
0.722609
0.722623
0.722623
0.722638
0.722652
0.722667
0.722681
0.722681
0.722696
0.72271
0.722725
0.722739
0.722739
0.722754
0.722768
0.722783
0.722797
0.722797
0.722812
0.722826
0.722841
0.722855
0.722855
0.72287
0.722884
0.722899
0.722914
0.722914
0.722928
0.722943
0.722957
0.722972
0.722972
0.722987
0.723001
0.723016
0.72303
0.72303
0.723045
0.72306
0.723074
0.723089
0.723089
0.723104
0.723118
0.723133
0.723148
0.723148
0.723162
0.723177
0.723192
0.723207
0.723207
0.723221
0.723236
0.723251
0.723266
0.723266
0.72328
0.723295
0.72331
0.723325
0.723325
0.723339
0.723354
0.723369
0.723384
0.723384
0.723399
0.723414
0.723429
0.723443
0.723443
0.723458
0.723473
0.723488
0.723503
0.723503
0.723518
0.723533
0.723548
0.723563
0.723563
0.723578
0.723593
0.723608
0.723623
0.723623
0.723638
0.723653
0.723668
0.723683
0.723683
0.723698
0.723713
0.723728
0.723743
0.723743
0.723758
0.723773
0.723788
0.723803
0.723803
0.723818
0.723833
0.723848
0.723863
0.723863
0.723878
0.723893
0.723908
0.723924
0.723924
0.723939
0.723954
0.723969
0.723984
0.723984
0.723999
0.724014
0.724029
0.724045
0.724045
0.72406
0.724075
0.72409
0.724105
0.724105
0.72412
0.724136
0.724151
0.724166
0.724166
0.724181
0.724196
0.724212
0.724227
0.724227
0.724242
0.724257
0.724273
0.724288
0.724288
0.724303
0.724318
0.724334
0.724349
0.724349
0.724364
0.72438
0.724395
0.72441
0.72441
0.724426
0.724441
0.724456
0.724472
0.724472
0.724487
0.724503
0.724518
0.724533
0.724533
0.724549
0.724564
0.72458
0.724595
0.724595
0.724611
0.724626
0.724642
0.724657
0.724657
0.724673
0.724688
0.724704
0.724719
0.724719
0.724735
0.72475
0.724766
0.724781
0.724781
0.724797
0.724813
0.724828
0.724844
0.724844
0.724859
0.724875
0.72489
0.724906
0.724906
0.724922
0.724937
0.724953
0.724968
0.724968
0.724984
0.725
0.725015
0.725031
0.725031
0.725047
0.725062
0.725078
0.725094
0.725094
0.725109
0.725125
0.725141
0.725156
0.725156
0.725172
0.725188
0.725203
0.725219
0.725219
0.725235
0.725251
0.725266
0.725282
0.725282
0.725298
0.725314
0.725329
0.725345
0.725345
0.725361
0.725377
0.725393
0.725408
0.725408
0.725424
0.72544
0.725456
0.725472
0.725472
0.725488
0.725504
0.725519
0.725535
0.725535
0.725551
0.725567
0.725583
0.725599
0.725599
0.725615
0.725631
0.725647
0.725663
0.725663
0.725679
0.725695
0.725711
0.725727
0.725727
0.725743
0.725759
0.725775
0.725791
0.725791
0.725807
0.725823
0.725839
0.725855
0.725855
0.725871
0.725888
0.725904
0.72592
0.72592
0.725936
0.725952
0.725968
0.725984
0.725984
0.726
0.726016
0.726033
0.726049
0.726049
0.726065
0.726081
0.726097
0.726113
0.726113
0.72613
0.726146
0.726162
0.726178
0.726178
0.726194
0.72621
0.726227
0.726243
0.726243
0.726259
0.726275
0.726292
0.726308
0.726308
0.726324
0.72634
0.726357
0.726373
0.726373
0.726389
0.726405
0.726422
0.726438
0.726438
0.726454
0.726471
0.726487
0.726503
0.726503
0.72652
0.726536
0.726552
0.726569
0.726569
0.726585
0.726602
0.726618
0.726634
0.726634
0.726651
0.726667
0.726684
0.7267
0.7267
0.726717
0.726733
0.72675
0.726766
0.726766
0.726783
0.726799
0.726816
0.726832
0.726832
0.726849
0.726866
0.726882
0.726899
0.726899
0.726915
0.726932
0.726948
0.726965
0.726965
0.726982
0.726998
0.727015
0.727031
0.727031
0.727048
0.727065
0.727081
0.727098
0.727098
0.727115
0.727131
0.727148
0.727165
0.727165
0.727181
0.727198
0.727215
0.727231
0.727231
0.727248
0.727265
0.727281
0.727298
0.727298
0.727315
0.727332
0.727348
0.727365
0.727365
0.727382
0.727399
0.727415
0.727432
0.727432
0.727449
0.727466
0.727482
0.727499
0.727499
0.727516
0.727533
0.72755
0.727567
0.727567
0.727583
0.7276
0.727617
0.727634
0.727634
0.727651
0.727668
0.727685
0.727702
0.727702
0.727719
0.727736
0.727753
0.72777
0.72777
0.727786
0.727803
0.72782
0.727838
0.727838
0.727855
0.727872
0.727889
0.727906
0.727906
0.727923
0.72794
0.727957
0.727974
0.727974
0.727991
0.728008
0.728025
0.728042
0.728042
0.728059
0.728076
0.728093
0.728111
0.728111
0.728128
0.728145
0.728162
0.728179
0.728179
0.728196
0.728213
0.728231
0.728248
0.728248
0.728265
0.728282
0.728299
0.728316
0.728316
0.728334
0.728351
0.728368
0.728385
0.728385
0.728402
0.72842
0.728437
0.728454
0.728454
0.728471
0.728489
0.728506
0.728523
0.728523
0.72854
0.728558
0.728575
0.728592
0.728592
0.72861
0.728627
0.728644
0.728662
0.728662
0.728679
0.728696
0.728714
0.728731
0.728731
0.728749
0.728766
0.728783
0.728801
0.728801
0.728818
0.728836
0.728853
0.728871
0.728871
0.728888
0.728906
0.728923
0.728941
0.728941
0.728958
0.728976
0.728993
0.729011
0.729011
0.729028
0.729046
0.729063
0.729081
0.729081
0.729099
0.729116
0.729134
0.729151
0.729151
0.729169
0.729187
0.729204
0.729222
0.729222
0.729239
0.729257
0.729275
0.729292
0.729292
0.72931
0.729328
0.729345
0.729363
0.729363
0.729381
0.729398
0.729416
0.729434
0.729434
0.729451
0.729469
0.729487
0.729505
0.729505
0.729522
0.72954
0.729558
0.729575
0.729575
0.729593
0.729611
0.729629
0.729646
0.729646
0.729664
0.729682
0.7297
0.729718
0.729718
0.729735
0.729753
0.729771
0.729789
0.729789
0.729807
0.729825
0.729843
0.729861
0.729861
0.729878
0.729896
0.729914
0.729932
0.729932
0.72995
0.729968
0.729986
0.730004
0.730004
0.730022
0.73004
0.730058
0.730076
0.730076
0.730094
0.730112
0.73013
0.730148
0.730148
0.730166
0.730184
0.730203
0.730221
0.730221
0.730239
0.730257
0.730275
0.730293
0.730293
0.730311
0.730329
0.730347
0.730365
0.730365
0.730384
0.730402
0.73042
0.730438
0.730438
0.730456
0.730474
0.730492
0.730511
0.730511
0.730529
0.730547
0.730565
0.730583
0.730583
0.730601
0.73062
0.730638
0.730656
0.730656
0.730674
0.730693
0.730711
0.730729
0.730729
0.730747
0.730766
0.730784
0.730802
0.730802
0.73082
0.730839
0.730857
0.730875
0.730875
0.730894
0.730912
0.73093
0.730949
0.730949
0.730967
0.730986
0.731004
0.731023
0.731023
0.731041
0.731059
0.731078
0.731096
0.731096
0.731115
0.731133
0.731152
0.73117
0.73117
0.731189
0.731207
0.731226
0.731244
0.731244
0.731263
0.731281
0.7313
0.731318
0.731318
0.731337
0.731356
0.731374
0.731393
0.731393
0.731411
0.73143
0.731449
0.731467
0.731467
0.731486
0.731504
0.731523
0.731542
0.731542
0.73156
0.731579
0.731597
0.731616
0.731616
0.731635
0.731653
0.731672
0.731691
0.731691
0.731709
0.731728
0.731747
0.731766
0.731766
0.731784
0.731803
0.731822
0.73184
0.73184
0.731859
0.731878
0.731897
0.731915
0.731915
0.731934
0.731953
0.731972