<?xml version="1.0"?>
<VTKFile type="UnstructuredGrid" version="0.1" byte_order="LittleEndian">
<UnstructuredGrid>
<Piece NumberOfPoints="5000" NumberOfCells="4000">
<PointData Scalars="Reaction 0">
<DataArray type="Float32" Name="Reaction 0" format="ascii">
0.744382
0.744382
0.744382
0.744382
0.744382
0.744382
0.744382
0.744382
0.744382
0.744382
0.744382
0.744383
0.744383
0.744383
0.744383
0.744383
0.744383
0.744383
0.744383
0.744383
0.744383
0.744383
0.744383
0.744383
0.744384
0.744384
0.744384
0.744384
0.744384
0.744384
0.744384
0.744384
0.744385
0.744385
0.744385
0.744385
0.744385
0.744385
0.744385
0.744386
0.744386
0.744386
0.744386
0.744386
0.744387
0.744387
0.744387
0.744387
0.744387
0.744388
0.744388
0.744388
0.744388
0.744388
0.744389
0.744389
0.744389
0.744389
0.74439
0.74439
0.74439
0.74439
0.744391
0.744391
0.744391
0.744391
0.744392
0.744392
0.744392
0.744393
0.744393
0.744393
0.744393
0.744394
0.744394
0.744394
0.744395
0.744395
0.744395
0.744396
0.744396
0.744396
0.744397
0.744397
0.744398
0.744398
0.744398
0.744398
0.744399
0.744399
0.744399
0.7444
0.7444
0.744401
0.744401
0.744401
0.744402
0.744402
0.744403
0.744403
0.744403
0.744404
0.744404
0.744405
0.744406
0.744406
0.744406
0.744407
0.744407
0.744408
0.744408
0.744408
0.744409
0.74441
0.74441
0.74441
0.744411
0.744411
0.744412
0.744413
0.744413
0.744413
0.744414
0.744415
0.744415
0.744415
0.744416
0.744417
0.744417
0.744418
0.744418
0.744419
0.744419
0.74442
0.744421
0.744421
0.744422
0.744422
0.744423
0.744424
0.744424
0.744424
0.744425
0.744426
0.744427
0.744427
0.744428
0.744428
0.744429
0.74443
0.74443
0.744431
0.744431
0.744432
0.744433
0.744433
0.744434
0.744435
0.744436
0.744436
0.744436
0.744437
0.744438
0.744439
0.74444
0.74444
0.744441
0.744442
0.744443
0.744443
0.744443
0.744444
0.744445
0.744446
0.744447
0.744447
0.744448
0.744449
0.74445
0.744451
0.744451
0.744452
0.744453
0.744454
0.744455
0.744455
0.744456
0.744457
0.744458
0.744459
0.744459
0.74446
0.744461
0.744462
0.744463
0.744463
0.744464
0.744465
0.744466
0.744467
0.744467
0.744468
0.744469
0.74447
0.744471
0.744471
0.744472
0.744473
0.744474
0.744476
0.744476
0.744477
0.744478
0.744479
0.74448
0.74448
0.744481
0.744482
0.744484
0.744485
0.744485
0.744486
0.744487
0.744488
0.744489
0.744489
0.744491
0.744492
0.744493
0.744494
0.744494
0.744495
0.744497
0.744498
0.744499
0.744499
0.7445
0.744502
0.744503
0.744504
0.744504
0.744505
0.744507
0.744508
0.744509
0.744509
0.744511
0.744512
0.744513
0.744515
0.744515
0.744516
0.744517
0.744519
0.74452
0.74452
0.744521
0.744523
0.744524
0.744525
0.744525
0.744527
0.744528
0.744529
0.744531
0.744531
0.744532
0.744534
0.744535
0.744537
0.744537
0.744538
0.744539
0.744541
0.744542
0.744542
0.744544
0.744545
0.744547
0.744548
0.744548
0.74455
0.744551
0.744553
0.744554
0.744554
0.744556
0.744557
0.744559
0.74456
0.74456
0.744562
0.744563
0.744565
0.744566
0.744566
0.744568
0.74457
0.744571
0.744573
0.744573
0.744574
0.744576
0.744577
0.744579
0.744579
0.744581
0.744582
0.744584
0.744586
0.744586
0.744587
0.744589
0.744591
0.744592
0.744592
0.744594
0.744596
0.744597
0.744599
0.744599
0.744601
0.744602
0.744604
0.744606
0.744606
0.744607
0.744609
0.744611
0.744613
0.744613
0.744614
0.744616
0.744618
0.74462
0.74462
0.744622
0.744623
0.744625
0.744627
0.744627
0.744629
0.74463
0.744632
0.744634
0.744634
0.744636
0.744638
0.74464
0.744641
0.744641
0.744643
0.744645
0.744647
0.744649
0.744649
0.744651
0.744653
0.744655
0.744657
0.744657
0.744658
0.74466
0.744662
0.744664
0.744664
0.744666
0.744668
0.74467
0.744672
0.744672
0.744674
0.744676
0.744678
0.74468
0.74468
0.744682
0.744684
0.744686
0.744688
0.744688
0.74469
0.744692
0.744694
0.744696
0.744696
0.744698
0.7447
0.744702
0.744704
0.744704
0.744706
0.744708
0.74471
0.744712
0.744712
0.744715
0.744717
0.744719
0.744721
0.744721
0.744723
0.744725
0.744727
0.744729
0.744729
0.744732
0.744734
0.744736
0.744738
0.744738
0.74474
0.744742
0.744745
0.744747
0.744747
0.744749
0.744751
0.744753
0.744756
0.744756
0.744758
0.74476
0.744762
0.744765
0.744765
0.744767
0.744769
0.744771
0.744774
0.744774
0.744776
0.744778
0.74478
0.744783
0.744783
0.744785
0.744787
0.74479
0.744792
0.744792
0.744794
0.744797
0.744799
0.744801
0.744801
0.744804
0.744806
0.744808
0.744811
0.744811
0.744813
0.744816
0.744818
0.74482
0.74482
0.744823
0.744825
0.744828
0.74483
0.74483
0.744832
0.744835
0.744837
0.74484
0.74484
0.744842
0.744845
0.744847
0.74485
0.74485
0.744852
0.744855
0.744857
0.74486
0.74486
0.744862
0.744865
0.744867
0.74487
0.74487
0.744872
0.744875
0.744877
0.74488
0.74488
0.744882
0.744885
0.744888
0.74489
0.74489
0.744893
0.744895
0.744898
0.744901
0.744901
0.744903
0.744906
0.744908
0.744911
0.744911
0.744914
0.744916
0.744919
0.744922
0.744922
0.744924
0.744927
0.74493
0.744933
0.744933
0.744935
0.744938
0.744941
0.744943
0.744943
0.744946
0.744949
0.744952
0.744954
0.744954
0.744957
0.74496
0.744963
0.744966
0.744966
0.744968
0.744971
0.744974
0.744977
0.744977
0.74498
0.744982
0.744985
0.744988
0.744988
0.744991
0.744994
0.744997
0.744999
0.744999
0.745002
0.745005
0.745008
0.745011
0.745011
0.745014
0.745017
0.74502
0.745023
0.745023
0.745025
0.745028
0.745031
0.745034
0.745034
0.745037
0.74504
0.745043
0.745046
0.745046
0.745049
0.745052
0.745055
0.745058
0.745058
0.745061
0.745064
0.745067
0.74507
0.74507
0.745073
0.745076
0.745079
0.745082
0.745082
0.745085
0.745088
0.745091
0.745094
0.745094
0.745097
0.745101
0.745104
0.745107
0.745107
0.74511
0.745113
0.745116
0.745119
0.745119
0.745122
0.745125
0.745129
0.745132
0.745132
0.745135
0.745138
0.745141
0.745144
0.745144
0.745148
0.745151
0.745154
0.745157
0.745157
0.74516
0.745164
0.745167
0.74517
0.74517
0.745173
0.745176
0.74518
0.745183
0.745183
0.745186
0.745189
0.745193
0.745196
0.745196
0.745199
0.745203
0.745206
0.745209
0.745209
0.745213
0.745216
0.745219
0.745223
0.745223
0.745226
0.745229
0.745233
0.745236
0.745236
0.745239
0.745243
0.745246
0.745249
0.745249
0.745253
0.745256
0.74526
0.745263
0.745263
0.745266
0.74527
0.745273
0.745277
0.745277
0.74528
0.745284
0.745287
0.745291
0.745291
0.745294
0.745298
0.745301
0.745305
0.745305
0.745308
0.745312
0.745315
0.745319
0.745319
0.745322
0.745326
0.745329
0.745333
0.745333
0.745336
0.74534
0.745343
0.745347
0.745347
0.745351
0.745354
0.745358
0.745361
0.745361
0.745365
0.745369
0.745372
0.745376
0.745376
0.745379
0.745383
0.745387
0.74539
0.74539
0.745394
0.745398
0.745401
0.745405
0.745405
0.745409
0.745412
0.745416
0.74542
0.74542
0.745423
0.745427
0.745431
0.745435
0.745435
0.745438
0.745442
0.745446
0.74545
0.74545
0.745453
0.745457
0.745461
0.745465
0.745465
0.745469
0.745472
0.745476
0.74548
0.74548
0.745484
0.745488
0.745491
0.745495
0.745495
0.745499
0.745503
0.745507
0.745511
0.745511
0.745515
0.745518
0.745522
0.745526
0.745526
0.74553
0.745534
0.745538
0.745542
0.745542
0.745546
0.74555
0.745554
0.745558
0.745558
0.745562
0.745566
0.745569
0.745573
0.745573
0.745577
0.745581
0.745585
0.745589
0.745589
0.745593
0.745597
0.745601
0.745605
0.745605
0.745609
0.745614
0.745618
0.745622
0.745622
0.745626
0.74563
0.745634
0.745638
0.745638
0.745642
0.745646
0.74565
0.745654
0.745654
0.745658
0.745662
0.745667
0.745671
0.745671
0.745675
0.745679
0.745683
0.745687
0.745687
0.745691
0.745696
0.7457
0.745704
0.745704
0.745708
0.745712
0.745716
0.745721
0.745721
0.745725
0.745729
0.745733
0.745738
0.745738
0.745742
0.745746
0.74575
0.745755
0.745755
0.745759
0.745763
0.745767
0.745772
0.745772
0.745776
0.74578
0.745784
0.745789
0.745789
0.745793
0.745797
0.745802
0.745806
0.745806
0.74581
0.745815
0.745819
0.745823
0.745823
0.745828
0.745832
0.745837
0.745841
0.745841
0.745845
0.74585
0.745854
0.745859
0.745859
0.745863
0.745868
0.745872
0.745877
0.745877
0.745881
0.745886
0.74589
0.745895
0.745895
0.745899
0.745904
0.745908
0.745913
0.745913
0.745917
0.745922
0.745926
0.745931
0.745931
0.745935
0.74594
0.745944
0.745949
0.745949
0.745953
0.745958
0.745963
0.745967
0.745967
0.745972
0.745976
0.745981
0.745986
0.745986
0.74599
0.745995
0.745999
0.746004
0.746004
0.746009
0.746013
0.746018
0.746023
0.746023
0.746027
0.746032
0.746037
0.746041
0.746041
0.746046
0.746051
0.746056
0.74606
0.74606
0.746065
0.74607
0.746075
0.746079
0.746079
0.746084
0.746089
0.746094
0.746098
0.746098
0.746103
0.746108
0.746113
0.746117
0.746117
0.746122
0.746127
0.746132
0.746137
0.746137
0.746142
0.746146
0.746151
0.746156
0.746156
0.746161
0.746166
0.746171
0.746176
0.746176
0.74618
0.746185
0.74619
0.746195
0.746195
0.7462
0.746205
0.74621
0.746215
0.746215
0.74622
0.746225
0.74623
0.746235
0.746235
0.74624
0.746245
0.746249
0.746254
0.746254
0.746259
0.746264
0.746269
0.746274
0.746274
0.74628
0.746285
0.74629
0.746295
0.746295
0.7463
0.746305
0.74631
0.746315
0.746315
0.74632
0.746325
0.74633
0.746335
0.746335
0.74634
0.746345
0.74635
0.746356
0.746356
0.746361
0.746366
0.746371
0.746376
0.746376
0.746381
0.746386
0.746392
0.746397
0.746397
0.746402
0.746407
0.746412
0.746417
0.746417
0.746423
0.746428
0.746433
0.746438
0.746438
0.746444
0.746449
0.746454
0.746459
0.746459
0.746465
0.74647
0.746475
0.74648
0.74648
0.746486
0.746491
0.746496
0.746502
0.746502
0.746507
0.746512
0.746517
0.746523
0.746523
0.746528
0.746533
0.746539
0.746544
0.746544
0.74655
0.746555
0.74656
0.746566
0.746566
0.746571
0.746576
0.746582
0.746587
0.746587
0.746593
0.746598
0.746603
0.746609
0.746609
0.746614
0.74662
0.746625
0.746631
0.746631
0.746636
0.746642
0.746647
0.746653
0.746653
0.746658
0.746664
0.746669
0.746675
0.746675
0.74668
0.746686
0.746691
0.746697
0.746697
0.746702
0.746708
0.746713
0.746719
0.746719
0.746724
0.74673
0.746735
0.746741
0.746741
0.746747
0.746752
0.746758
0.746764
0.746764
0.746769
0.746775
0.74678
0.746786
0.746786
0.746792
0.746797
0.746803
0.746809
0.746809
0.746815
0.74682
0.746826
0.746832
0.746832
0.746837
0.746843
0.746849
0.746855
0.746855
0.74686
0.746866
0.746872
0.746878
0.746878
0.746883
0.746889
0.746895
0.746901
0.746901
0.746907
0.746912
0.746918
0.746924
0.746924
0.74693
0.746936
0.746942
0.746947
0.746947
0.746953
0.746959
0.746965
0.746971
0.746971
0.746977
0.746983
0.746989
0.746994
0.746994
0.747
0.747006
0.747012
0.747018
0.747018
0.747024
0.74703
0.747036
0.747042
0.747042
0.747048
0.747054
0.74706
0.747066
0.747066
0.747072
0.747078
0.747084
0.74709
0.74709
0.747096
0.747102
0.747108
0.747114
0.747114
0.74712
0.747126
0.747132
0.747138
0.747138
0.747144
0.74715
0.747156
0.747162
0.747162
0.747168
0.747174
0.747181
0.747187
0.747187
0.747193
0.747199
0.747205
0.747211
0.747211
0.747217
0.747223
0.74723
0.747236
0.747236
0.747242
0.747248
0.747254
0.74726
0.74726
0.747267
0.747273
0.747279
0.747285
0.747285
0.747291
0.747298
0.747304
0.74731
0.74731
0.747316
0.747323
0.747329
0.747335
0.747335
0.747341
0.747348
0.747354
0.74736
0.74736
0.747367
0.747373
0.747379
0.747386
0.747386
0.747392
0.747398
0.747405
0.747411
0.747411
0.747417
0.747424
0.74743
0.747436
0.747436
0.747443
0.747449
0.747456
0.747462
0.747462
0.747468
0.747475
0.747481
0.747488
0.747488
0.747494
0.7475
0.747507
0.747513
0.747513
0.74752
0.747526
0.747533
0.747539
0.747539
0.747546
0.747552
0.747559
0.747565
0.747565
0.747572
0.747578
0.747585
0.747591
0.747591
0.747598
0.747604
0.747611
0.747617
0.747617
0.747624
0.74763
0.747637
0.747644
0.747644
0.74765
0.747657
0.747663
0.74767
0.74767
0.747677
0.747683
0.74769
0.747696
0.747696
0.747703
0.74771
0.747716
0.747723
0.747723
0.74773
0.747736
0.747743
0.74775
0.74775
0.747757
0.747763
0.74777
0.747777
0.747777
0.747783
0.74779
0.747797
0.747804
0.747804
0.747811
0.747817
0.747824
0.747831
0.747831
0.747838
0.747845
0.747851
0.747858
0.747858
0.747865
0.747872
0.747879
0.747886
0.747886
0.747892
0.747899
0.747906
0.747913
0.747913
0.74792
0.747927
0.747934
0.747941
0.747941
0.747947
0.747954
0.747961
0.747968
0.747968
0.747975
0.747982
0.747989
0.747996
0.747996
0.748003
0.74801
0.748017
0.748024
0.748024
0.748031
0.748038
0.748045
0.748052
0.748052
0.748059
0.748066
0.748073
0.74808
0.74808
0.748087
0.748094
0.748101
0.748108
0.748108
0.748115
0.748122
0.748129
0.748136
0.748136
0.748143
0.74815
0.748157
0.748165
0.748165
0.748172
0.748179
0.748186
0.748193
0.748193
0.7482
0.748207
0.748214
0.748222
0.748222
0.748229
0.748236
0.748243
0.74825
0.74825
0.748257
0.748265
0.748272
0.748279
0.748279
0.748286
0.748293
0.748301
0.748308
0.748308
0.748315
0.748322
0.74833
0.748337
0.748337
0.748344
0.748352
0.748359
0.748366
0.748366
0.748373
0.748381
0.748388
0.748395
0.748395
0.748403
0.74841
0.748417
0.748425
0.748425
0.748432
0.748439
0.748447
0.748454
0.748454
0.748461
0.748469
0.748476
0.748484
0.748484
0.748491
0.748498
0.748506
0.748513
0.748513
0.748521
0.748528
0.748535
0.748543
0.748543
0.74855
0.748558
0.748565
0.748573
0.748573
0.74858
0.748588
0.748595
0.748603
0.748603
0.74861
0.748618
0.748625
0.748633
0.748633
0.74864
0.748648
0.748655
0.748663
0.748663
0.74867
0.748678
0.748685
0.748693
0.748693
0.748701
0.748708
0.748716
0.748723
0.748723
0.748731
0.748739
0.748746
0.748754
0.748754
0.748762
0.748769
0.748777
0.748785
0.748785
0.748792
0.7488
0.748808
0.748816
0.748816
0.748823
0.748831
0.748839
0.748846
0.748846
0.748854
0.748862
0.74887
0.748877
0.748877
0.748885
0.748893
0.748901
0.748909
0.748909
0.748916
0.748924
0.748932
0.74894
0.74894
0.748948
0.748955
0.748963
0.748971
0.748971
0.748979
0.748987
0.748995
0.749003
0.749003
0.74901
0.749018
0.749026
0.749034
0.749034
0.749042
0.74905
0.749058
0.749066
0.749066
0.749074
0.749082
0.749089
0.749097
0.749097
0.749105
0.749113
0.749121
0.749129
0.749129
0.749137
0.749145
0.749153
0.749161
0.749161
0.749169
0.749177
0.749185
0.749193
0.749193
0.749201
0.749209
0.749217
0.749225
0.749225
0.749233
0.749241
0.74925
0.749258
0.749258
0.749266
0.749274
0.749282
0.74929
0.74929
0.749298
0.749306
0.749314
0.749322
0.749322
0.749331
0.749339
0.749347
0.749355
0.749355
0.749363
0.749371
0.749379
0.749388
0.749388
0.749396
0.749404
0.749412
0.74942
0.74942
0.749429
0.749437
0.749445
0.749453
0.749453
0.749461
0.74947
0.749478
0.749486
0.749486
0.749494
0.749503
0.749511
0.749519
0.749519
0.749528
0.749536
0.749544
0.749552
0.749552
0.749561
0.749569
0.749577
0.749586
0.749586
0.749594
0.749602
0.749611
0.749619
0.749619
0.749627
0.749636
0.749644
0.749653
0.749653
0.749661
0.749669
0.749678
0.749686
0.749686
0.749695
0.749703
0.749711
0.74972
0.74972
0.749728
0.749737
0.749745
0.749754
0.749754
0.749762
0.749771
0.749779
0.749788
0.749788
0.749797
0.749805
0.749814
0.749822
0.749822
0.749831
0.749839
0.749848
0.749856
0.749856
0.749865
0.749874
0.749882
0.749891
0.749891
0.749899
0.749908
0.749917
0.749925
0.749925
0.749934
0.749943
0.749951
0.74996
0.74996
0.749969
0.749977
0.749986
0.749995
0.749995
0.750003
0.750012
0.750021
0.750029
0.750029
0.750038
0.750047
0.750056
0.750064
0.750064
0.750073
0.750082
0.75009
0.750099
0.750099
0.750108
0.750117
0.750126
0.750134
0.750134
0.750143
0.750152
0.750161
0.750169
0.750169
0.750178
0.750187
0.750196
0.750205
0.750205
0.750214
0.750222
0.750231
0.75024
0.75024
0.750249
0.750258
0.750267
0.750276
0.750276
0.750285
0.750293
0.750302
0.750311
0.750311
0.75032
0.750329
0.750338
0.750347
0.750347
0.750356
0.750365
0.750374
0.750383
0.750383
0.750392
0.750401
0.75041
0.750419
0.750419
0.750428
0.750437
0.750446
0.750455
0.750455
0.750464
0.750473
0.750482
0.750491
0.750491
0.7505
0.750509
0.750518
0.750527
0.750527
0.750536
0.750545
0.750554
0.750563
0.750563
0.750572
0.750581
0.750591
0.7506
0.7506
0.750609
0.750618
0.750627
0.750636
0.750636
0.750645
0.750655
0.750664
0.750673
0.750673
0.750682
0.750691
0.7507
0.75071
0.75071
0.750719
0.750728
0.750737
0.750747
0.750747
0.750756
0.750765
0.750775
0.750784
0.750784
0.750793
0.750802
0.750812
0.750821
0.750821
0.75083
0.75084
0.750849
0.750858
0.750858
0.750868
0.750877
0.750886
0.750896
0.750896
0.750905
0.750915
0.750924
0.750933
0.750933
0.750943
0.750952
0.750962
0.750971
0.750971
0.75098
0.75099
0.750999
0.751009
0.751009
0.751018
0.751028
0.751037
0.751047
0.751047
0.751056
0.751066
0.751075
0.751085
0.751085
0.751094
0.751104
0.751113
0.751123
0.751123
0.751132
0.751142
0.751151
0.751161
0.751161
0.75117
0.75118
0.751189
0.751199
0.751199
0.751209
0.751218
0.751228
0.751237
0.751237
0.751247
0.751256
0.751266
0.751276
0.751276
0.751285
0.751295
0.751305
0.751314
0.751314
0.751324
0.751334
0.751343
0.751353
0.751353
0.751363
0.751372
0.751382
0.751392
0.751392
0.751401
0.751411
0.751421
0.751431
0.751431
0.75144
0.75145
0.75146
0.751469
0.751469
0.751479
0.751489
0.751499
0.751508
0.751508
0.751518
0.751528
0.751538
0.751548
0.751548
0.751557
0.751567
0.751577
0.751587
0.751587
0.751597
0.751607
0.751616
0.751626
0.751626
0.751636
0.751646
0.751656
0.751666
0.751666
0.751676
0.751685
0.751695
0.751705
0.751705
0.751715
0.751725
0.751735
0.751745
0.751745
0.751755
0.751765
0.751775
0.751785
0.751785
0.751795
0.751805
0.751815
0.751825
0.751825
0.751835
0.751845
0.751855
0.751865
0.751865
0.751875
0.751886
0.751896
0.751906
0.751906
0.751916
0.751926
0.751936
0.751946
0.751946
0.751956
0.751966
0.751976
0.751987
0.751987
0.751997
0.752007
0.752017
0.752027
0.752027
0.752037
0.752047
0.752058
0.752068
0.752068
0.752078
0.752088
0.752098
0.752109
0.752109
0.752119
0.752129
0.752139
0.75215
0.75215
0.75216
0.75217
0.75218
0.75219
0.75219
0.752201
0.752211
0.752221
0.752232
0.752232
0.752242
0.752252
0.752262
0.752273
0.752273
0.752283
0.752293
0.752304
0.752314
0.752314
0.752324
0.752335
0.752345
0.752355
0.752355
0.752366
0.752376
0.752387
0.752397
0.752397
0.752407
0.752418
0.752428
0.752438
0.752438
0.752449
0.752459
0.75247
0.75248
0.75248
0.752491
0.752501
0.752511
0.752522
0.752522
0.752532
0.752543
0.752553
0.752564
0.752564
0.752574
0.752585
0.752595
0.752606
0.752606
0.752616
0.752627
0.752637
0.752648
0.752648
0.752658
0.752669
0.75268
0.75269
0.75269
0.752701
0.752711
0.752722
0.752733
0.752733
0.752743
0.752754
0.752764
0.752775
0.752775
0.752786
0.752796
0.752807
0.752818
0.752818
0.752829
0.752839
0.75285
0.752861
0.752861
0.752871
0.752882
0.752893
0.752904
0.752904
0.752914
0.752925
0.752936
0.752947
0.752947
0.752957
0.752968
0.752979
0.75299
0.75299
0.753001
0.753011
0.753022
0.753033
0.753033
0.753044
0.753055
0.753066
0.753076
0.753076
0.753087
0.753098
0.753109
0.75312
0.75312
0.753131
0.753142
0.753152
0.753163
0.753163
0.753174
0.753185
0.753196
0.753207
0.753207
0.753218
0.753229
0.75324
0.753251
0.753251
0.753262
0.753273
0.753284
0.753295
0.753295
0.753305
0.753316
0.753327
0.753338
0.753338
0.753349
0.75336
0.753371
0.753382
0.753382
0.753393
0.753404
0.753416
0.753427
0.753427
0.753438
0.753449
0.75346
0.753471
0.753471
0.753482
0.753493
0.753504
0.753515
0.753515
0.753526
0.753537
0.753548
0.75356
0.75356
0.753571
0.753582
0.753593
0.753604
0.753604
0.753615
0.753626
0.753637
0.753649
0.753649
0.75366
0.753671
0.753682
0.753693
0.753693
0.753705
0.753716
0.753727
0.753738
0.753738
0.75375
0.753761
0.753772
0.753783
0.753783
0.753795
0.753806
0.753817
0.753829
0.753829
0.75384
0.753851
0.753863
0.753874
0.753874
0.753885
0.753897
0.753908
0.75392
0.75392
0.753931
0.753942
0.753954
0.753965
0.753965
0.753977
0.753988
0.753999
0.754011
0.754011
0.754022
0.754034
0.754045
0.754057
0.754057
0.754068
0.75408
0.754091
0.754102
0.754102
0.754114
0.754125
0.754137
0.754148
0.754148
0.75416
0.754171
0.754183
0.754195
0.754195
0.754206
0.754218
0.754229
0.754241
0.754241
0.754252
0.754264
0.754275
0.754287
0.754287
0.754299
0.75431
0.754322
0.754333
0.754333
0.754345
0.754357
0.754368
0.75438
0.75438
0.754391
0.754403
0.754415
0.754426
0.754426
0.754438
0.75445
0.754461
0.754473
0.754473
0.754485
0.754496
0.754508
0.75452
0.75452
0.754531
0.754543
0.754555
0.754567
0.754567
0.754578
0.75459
0.754602
0.754614
0.754614
0.754625
0.754637
0.754649
0.754661
0.754661
0.754672
0.754684
0.754696
0.754708
0.754708
0.75472
0.754731
0.754743
0.754755
0.754755
0.754767
0.754779
0.754791
0.754803
0.754803
0.754815
0.754826
0.754838
0.75485
0.75485
0.754862
0.754874
0.754886
0.754898
0.754898
0.75491
0.754922
0.754934
0.754946
0.754946
0.754958
0.75497
0.754982
0.754994
0.754994
0.755006
0.755018
0.75503
0.755042
0.755042
0.755054
0.755066
0.755078
0.75509
0.75509
0.755103
0.755115
0.755127
0.755139
0.755139
0.755151
0.755163
0.755175
0.755187
0.755187
0.755199
0.755211
0.755224
0.755236
0.755236
0.755248
0.75526
0.755272
0.755284
0.755284
0.755296
0.755309
0.755321
0.755333
0.755333
0.755345
0.755357
0.75537
0.755382
0.755382
0.755394
0.755406
0.755418
0.755431
0.755431
0.755443
0.755455
0.755467
0.75548
0.75548
0.755492
0.755504
0.755517
0.755529
0.755529
0.755541
0.755553
0.755566
0.755578
0.755578
0.75559
0.755603
0.755615
0.755627
0.755627
0.75564
0.755652
0.755664
0.755677
0.755677
0.755689
0.755701
0.755714
0.755726
0.755726
0.755739
0.755751
0.755763
0.755776
0.755776
0.755788
0.755801
0.755813
0.755826
0.755826
0.755838
0.755851
0.755863
0.755876
0.755876
0.755888
0.755901
0.755913
0.755926
0.755926
0.755938
0.755951
0.755964
0.755976
0.755976
0.755989
0.756001
0.756014
0.756026
0.756026
0.756039
0.756052
0.756064
0.756077
0.756077
0.75609
0.756102
0.756115
0.756128
0.756128
0.75614
0.756153
0.756166
0.756178
0.756178
0.756191
0.756204
0.756216
0.756229
0.756229
0.756242
0.756254
0.756267
0.75628
0.75628
0.756293
0.756305
0.756318
0.756331
0.756331
0.756344
0.756356
0.756369
0.756382
0.756382
0.756395
0.756407
0.75642
0.756433
0.756433
0.756446
0.756459
0.756471
0.756484
0.756484
0.756497
0.75651
0.756523
0.756536
0.756536
0.756548
0.756561
0.756574
0.756587
0.756587
0.7566
0.756613
0.756626
0.756638
0.756638
0.756651
0.756664
0.756677
0.75669
0.75669
0.756703
0.756716
0.756729
0.756742
0.756742
0.756755
0.756768
0.756781
0.756794
0.756794
0.756807
0.75682
0.756833
0.756846
0.756846
0.756859
0.756872
0.756885
0.756898
0.756898
0.756911
0.756924
0.756937
0.75695
0.75695
0.756963
0.756977
0.75699
0.757003
0.757003
0.757016
0.757029
0.757042
0.757055
0.757055
0.757069
0.757082
0.757095
0.757108
0.757108
0.757121
0.757135
0.757148
0.757161
0.757161
0.757174
0.757187
0.757201
0.757214
0.757214
0.757227
0.75724
0.757254
0.757267
0.757267
0.75728
0.757293
0.757307
0.75732
0.75732
0.757333
0.757347
0.75736
0.757373
0.757373
0.757387
0.7574
0.757413
0.757427
0.757427
0.75744
0.757453
0.757467
0.75748
0.75748
0.757493
0.757507
0.75752
0.757533
0.757533
0.757547
0.75756
0.757574
0.757587
0.757587
0.7576
0.757614
0.757627
0.757641
0.757641
0.757654
0.757668
0.757681
0.757694
0.757694
0.757708
0.757721
0.757735
0.757748
0.757748
0.757762
0.757775
0.757789
0.757802
0.757802
0.757816
0.757829
0.757843
0.757856
0.757856
0.75787
0.757884
0.757897
0.757911
0.757911
0.757924
0.757938
0.757952
0.757965
0.757965
0.757979
0.757992
0.758006
0.75802
0.75802
0.758034
0.758047
0.758061
0.758075
0.758075
0.758088
0.758102
0.758116
0.758129
0.758129
0.758143
0.758157
0.758171
0.758184
0.758184
0.758198
0.758212
0.758226
0.758239
0.758239
0.758253
0.758267
0.758281
0.758295
0.758295
0.758308
0.758322
0.758336
0.75835
0.75835
0.758364
0.758378
0.758391
0.758405
0.758405
0.758419
0.758433
0.758447
0.758461
0.758461
0.758475
0.758488
0.758502
0.758516
0.758516
0.75853
0.758544
0.758558
0.758572
0.758572
0.758586
0.7586
0.758614
0.758628
0.758628
0.758641
0.758655
0.758669
0.758683
0.758683
0.758697
0.758711
0.758725
0.758739
0.758739
0.758753
0.758767
0.758781
0.758795
0.758795
0.758809
0.758823
0.758837
0.758851
0.758851
0.758865
0.758879
0.758894
0.758908
0.758908
0.758922
0.758936
0.75895
0.758964
0.758964
0.758978
0.758992
0.759007
0.759021
0.759021
0.759035
0.759049
0.759063
0.759078
0.759078
0.759092
0.759106
0.75912
0.759134
0.759134
0.759149
0.759163
0.759177
0.759191
0.759191
0.759206
0.75922
0.759234
0.759249
0.759249
0.759263
0.759277
0.759291
0.759306
0.759306
0.75932
0.759334
0.759349
0.759363
0.759363
0.759377
0.759392
0.759406
0.75942
0.75942
0.759435
0.759449
0.759464
0.759478
0.759478
0.759492
0.759507
0.759521
0.759536
0.759536
0.75955
0.759564
0.759579
0.759593
0.759593
0.759608
0.759622
0.759636
0.759651
0.759651
0.759665
0.75968
0.759694
0.759709
0.759709
0.759723
0.759738
0.759752
0.759767
0.759767
0.759781
0.759796
0.75981
0.759825
0.759825
0.759839
0.759854
0.759868
0.759883
0.759883
0.759898
0.759912
0.759927
0.759941
0.759941
0.759956
0.75997
0.759985
0.76
0.76
0.760014
0.760029
0.760044
0.760058
0.760058
0.760073
0.760088
0.760102
0.760117
0.760117
0.760132
0.760147
0.760161
0.760176
0.760176
0.760191
0.760206
0.76022
0.760235
0.760235
0.76025
0.760265
0.76028
0.760294
0.760294
0.760309
0.760324
0.760339
0.760354
0.760354
0.760368
0.760383
0.760398
0.760413
0.760413
0.760428
0.760443
0.760458
0.760472
0.760472
0.760487
0.760502
0.760517
0.760532
0.760532
0.760547
0.760562
0.760577
0.760592
0.760592
0.760606
0.760621
0.760636
0.760651
0.760651
0.760666
0.760681
0.760696
0.760711
0.760711
0.760726
0.760741
0.760756
0.760771
0.760771
0.760786
0.760801
0.760816
0.760831
0.760831
0.760846
0.760861
0.760876
0.760891
0.760891
0.760906
0.760921
0.760936
0.760951
0.760951
0.760966
0.760981
0.760997
0.761012
0.761012
0.761027
0.761042
0.761057
0.761072
0.761072
0.761087
0.761102
0.761118
0.761133
0.761133
0.761148
0.761163
0.761178
0.761194
0.761194
0.761209
0.761224
0.761239
0.761255
0.761255
0.76127
0.761285
0.761301
0.761316
0.761316
0.761331
0.761346
0.761362
0.761377
0.761377
0.761392
0.761408
0.761423
0.761438
0.761438
0.761454
0.761469
0.761484
0.7615
0.7615
0.761515
0.76153
0.761546
0.761561
0.761561
0.761577
0.761592
0.761607
0.761623
0.761623
0.761638
0.761654
0.761669
0.761684
0.761684
0.7617
0.761715
0.761731
0.761746
0.761746
0.761762
0.761777
0.761793
0.761808
0.761808
0.761824
0.761839
0.761855
0.76187
0.76187
0.761885
0.761901
0.761917
0.761932
0.761932
0.761948
0.761963
0.761979
0.761994
0.761994
0.76201
0.762025
0.762041
0.762056
0.762056
0.762072
0.762088
0.762103
0.762119
0.762119
0.762135
0.76215
0.762166
0.762182
0.762182
0.762197
0.762213
0.762229
0.762244
0.762244
0.76226
0.762276
0.762292
0.762307
0.762307
0.762323
0.762339
0.762355
0.76237
0.76237
0.762386
0.762402
0.762418
0.762434
0.762434
0.762449
0.762465
0.762481
0.762497
0.762497
0.762513
0.762528
0.762544
0.76256
0.76256
0.762576
0.762592
0.762608
0.762624
0.762624
0.762639
0.762655
0.762671
0.762687
0.762687
0.762703
0.762719
0.762735
0.762751
0.762751
0.762767
0.762783
0.762798
0.762814
0.762814
0.76283
0.762846
0.762862
0.762878
0.762878
0.762894
0.76291
0.762926
0.762942
0.762942
0.762958
0.762974
0.76299
0.763006
0.763006
0.763022
0.763038
0.763054
0.76307
0.76307
0.763086
0.763102
0.763118
0.763134
0.763134
0.76315
0.763167
0.763183
0.763199
0.763199
0.763215
0.763231
0.763247
0.763263
0.763263
0.76328
0.763296
0.763312
0.763328
0.763328
0.763344
0.763361
0.763377
0.763393
0.763393
0.763409
0.763426
0.763442
0.763458
0.763458
0.763474
0.763491
0.763507
0.763523
0.763523
0.763539
0.763556
0.763572
0.763588
0.763588
0.763605
0.763621
0.763637
0.763654
0.763654
0.76367
0.763686
0.763703
0.763719
0.763719
0.763735
0.763752
0.763768
0.763785
0.763785
0.763801
0.763817
0.763834
0.76385
0.76385
0.763866
0.763883
0.763899
0.763916
0.763916
0.763932
0.763949
0.763965
0.763981
0.763981
0.763998
0.764014
0.764031
0.764047
0.764047
0.764064
0.76408
0.764097
0.764113
0.764113
0.76413
0.764146
0.764163
0.764179
0.764179
0.764196
0.764212
0.764229
0.764246
0.764246
0.764262
0.764279
0.764295
0.764312
0.764312
0.764329
0.764345
0.764362
0.764379
0.764379
0.764395
0.764412
0.764429
0.764445
0.764445
0.764462
0.764479
0.764495
0.764512
0.764512
0.764529
0.764546
0.764562
0.764579
0.764579
0.764596
0.764613
0.764629
0.764646
0.764646
0.764663
0.76468
0.764697
0.764713
0.764713
0.76473
0.764747
0.764764
0.764781
0.764781
0.764797
0.764814
0.764831
0.764848
0.764848
0.764865
0.764882
0.764898
0.764915
0.764915
0.764932
0.764949
0.764966
0.764983
0.764983
0.765
0.765017
0.765033
0.76505
0.76505
0.765067
0.765084
0.765101
0.765118
0.765118
0.765135
0.765152
0.765169
0.765186
0.765186
0.765203
0.76522
0.765237
0.765254
0.765254
0.765271
0.765288
0.765305
0.765322
0.765322
0.765339
0.765356
0.765373
0.76539
0.76539
0.765407
0.765424
0.765441
0.765459
0.765459
0.765476
0.765493
0.76551
0.765527
0.765527
0.765544
0.765562
0.765579
0.765596
0.765596
0.765613
0.76563
0.765648
0.765665
0.765665
0.765682
0.765699
0.765716
0.765734
0.765734
0.765751
0.765768
0.765785
0.765803
0.765803
0.76582
0.765837
0.765854
0.765872
0.765872
0.765889
0.765906
0.765924
0.765941
0.765941
0.765958
0.765975
0.765993
0.76601
0.76601
0.766027
0.766045
0.766062
0.766079
0.766079
0.766097
0.766114
0.766131
0.766149
0.766149
0.766166
0.766184
0.766201
0.766218
0.766218
0.766236
0.766253
0.766271
0.766288
0.766288
0.766305
0.766323
0.76634
0.766358
0.766358
0.766375
0.766393
0.76641
0.766428
0.766428
0.766445
0.766463
0.766481
0.766498
0.766498
0.766516
0.766533
0.766551
0.766568
0.766568
0.766586
0.766604
0.766621
0.766639
0.766639
0.766657
0.766674
0.766692
0.766709
0.766709
0.766727
0.766745
0.766762
0.76678
0.76678
0.766798
0.766815
0.766833
0.766851
0.766851
0.766869
0.766886
0.766904
0.766922
0.766922
0.766939
0.766957
0.766975
0.766993
0.766993
0.76701
0.767028
0.767046
0.767064
0.767064
0.767081
0.767099
0.767117
0.767135
0.767135
0.767152
0.76717
0.767188
0.767206
0.767206
0.767224
0.767241
0.767259
0.767277
0.767277
0.767295
0.767313
0.767331
0.767349
0.767349
0.767366
0.767384
0.767402
0.76742
0.76742
0.767438
0.767456
0.767474
0.767492
0.767492
0.76751
0.767528
0.767546
0.767564
0.767564
0.767582
0.7676
0.767618
0.767636
0.767636
0.767654
0.767672
0.76769
0.767708
0.767708
0.767726
0.767744
0.767762
0.76778
0.76778
0.767798
0.767817
0.767835
0.767853
0.767853
0.767871
0.767889
0.767907
0.767925
0.767925
0.767943
0.767962
0.76798
0.767998
0.767998
0.768016
0.768034
0.768052
0.768071
0.768071
0.768089
0.768107
0.768125
0.768143
0.768143
0.768161
0.76818
0.768198
0.768216
0.768216
0.768234
0.768253
0.768271
0.768289
0.768289
0.768307
0.768326
0.768344
0.768362
0.768362
0.76838
0.768399
0.768417
0.768435
0.768435
0.768454
0.768472
0.76849
0.768509
0.768509
0.768527