<?xml version="1.0"?>
<VTKFile type="UnstructuredGrid" version="0.1" byte_order="LittleEndian">
<UnstructuredGrid>
<Piece NumberOfPoints="5000" NumberOfCells="4000">
<PointData Scalars="Reaction 0">
<DataArray type="Float32" Name="Reaction 0" format="ascii">
0.637214
0.637214
0.637214
0.637214
0.637214
0.637214
0.637214
0.637214
0.637214
0.637214
0.637214
0.637214
0.637214
0.637214
0.637214
0.637214
0.637214
0.637214
0.637214
0.637214
0.637214
0.637214
0.637214
0.637214
0.637214
0.637214
0.637215
0.637215
0.637215
0.637215
0.637215
0.637215
0.637215
0.637215
0.637215
0.637215
0.637215
0.637215
0.637215
0.637216
0.637216
0.637216
0.637216
0.637216
0.637216
0.637216
0.637216
0.637216
0.637216
0.637217
0.637217
0.637217
0.637217
0.637217
0.637217
0.637217
0.637217
0.637218
0.637218
0.637218
0.637218
0.637218
0.637218
0.637218
0.637219
0.637219
0.637219
0.637219
0.637219
0.637219
0.637219
0.63722
0.63722
0.63722
0.63722
0.63722
0.637221
0.637221
0.637221
0.637221
0.637221
0.637221
0.637222
0.637222
0.637222
0.637222
0.637222
0.637223
0.637223
0.637223
0.637223
0.637223
0.637224
0.637224
0.637224
0.637224
0.637225
0.637225
0.637225
0.637225
0.637225
0.637226
0.637226
0.637226
0.637227
0.637227
0.637227
0.637227
0.637228
0.637228
0.637228
0.637228
0.637229
0.637229
0.637229
0.637229
0.63723
0.63723
0.63723
0.637231
0.637231
0.637231
0.637231
0.637232
0.637232
0.637232
0.637232
0.637233
0.637233
0.637234
0.637234
0.637234
0.637234
0.637235
0.637235
0.637235
0.637235
0.637236
0.637236
0.637237
0.637237
0.637237
0.637237
0.637238
0.637238
0.637238
0.637239
0.637239
0.63724
0.63724
0.63724
0.637241
0.637241
0.637241
0.637242
0.637242
0.637242
0.637243
0.637243
0.637244
0.637244
0.637244
0.637245
0.637245
0.637246
0.637246
0.637246
0.637247
0.637247
0.637248
0.637248
0.637248
0.637249
0.637249
0.63725
0.63725
0.63725
0.637251
0.637251
0.637252
0.637252
0.637252
0.637253
0.637253
0.637254
0.637254
0.637254
0.637255
0.637255
0.637256
0.637256
0.637257
0.637257
0.637258
0.637258
0.637258
0.637259
0.637259
0.63726
0.637261
0.637261
0.637261
0.637262
0.637262
0.637263
0.637263
0.637264
0.637264
0.637265
0.637265
0.637265
0.637266
0.637267
0.637267
0.637268
0.637268
0.637268
0.637269
0.63727
0.63727
0.63727
0.637271
0.637272
0.637272
0.637273
0.637273
0.637274
0.637274
0.637275
0.637276
0.637276
0.637276
0.637277
0.637278
0.637278
0.637278
0.637279
0.63728
0.63728
0.637281
0.637281
0.637282
0.637283
0.637283
0.637284
0.637284
0.637285
0.637285
0.637286
0.637287
0.637287
0.637288
0.637288
0.637289
0.63729
0.63729
0.637291
0.637291
0.637292
0.637293
0.637293
0.637294
0.637294
0.637295
0.637296
0.637296
0.637297
0.637298
0.637298
0.637299
0.637299
0.6373
0.637301
0.637302
0.637302
0.637302
0.637303
0.637304
0.637305
0.637306
0.637306
0.637306
0.637307
0.637308
0.637309
0.637309
0.63731
0.637311
0.637311
0.637312
0.637312
0.637313
0.637314
0.637315
0.637316
0.637316
0.637317
0.637317
0.637318
0.637319
0.637319
0.63732
0.637321
0.637322
0.637323
0.637323
0.637324
0.637325
0.637325
0.637326
0.637326
0.637327
0.637328
0.637329
0.63733
0.63733
0.637331
0.637332
0.637333
0.637334
0.637334
0.637335
0.637336
0.637337
0.637337
0.637337
0.637338
0.637339
0.63734
0.637341
0.637341
0.637342
0.637343
0.637344
0.637345
0.637345
0.637346
0.637347
0.637348
0.637349
0.637349
0.63735
0.637351
0.637352
0.637353
0.637353
0.637354
0.637355
0.637356
0.637357
0.637357
0.637358
0.637359
0.63736
0.637361
0.637361
0.637362
0.637364
0.637365
0.637366
0.637366
0.637367
0.637368
0.637369
0.63737
0.63737
0.637371
0.637372
0.637373
0.637374
0.637374
0.637375
0.637376
0.637377
0.637379
0.637379
0.63738
0.637381
0.637382
0.637383
0.637383
0.637384
0.637385
0.637386
0.637387
0.637387
0.637389
0.63739
0.637391
0.637392
0.637392
0.637393
0.637394
0.637395
0.637397
0.637397
0.637398
0.637399
0.6374
0.637401
0.637401
0.637402
0.637404
0.637405
0.637406
0.637406
0.637407
0.637408
0.63741
0.637411
0.637411
0.637412
0.637413
0.637414
0.637416
0.637416
0.637417
0.637418
0.637419
0.637421
0.637421
0.637422
0.637423
0.637424
0.637426
0.637426
0.637427
0.637428
0.637429
0.637431
0.637431
0.637432
0.637433
0.637434
0.637436
0.637436
0.637437
0.637438
0.637439
0.637441
0.637441
0.637442
0.637443
0.637445
0.637446
0.637446
0.637447
0.637449
0.63745
0.637451
0.637451
0.637453
0.637454
0.637455
0.637457
0.637457
0.637458
0.637459
0.637461
0.637462
0.637462
0.637463
0.637465
0.637466
0.637467
0.637467
0.637469
0.63747
0.637471
0.637473
0.637473
0.637474
0.637476
0.637477
0.637478
0.637478
0.63748
0.637481
0.637483
0.637484
0.637484
0.637485
0.637487
0.637488
0.63749
0.63749
0.637491
0.637492
0.637494
0.637495
0.637495
0.637497
0.637498
0.6375
0.637501
0.637501
0.637503
0.637504
0.637505
0.637507
0.637507
0.637508
0.63751
0.637511
0.637513
0.637513
0.637514
0.637516
0.637517
0.637519
0.637519
0.63752
0.637522
0.637523
0.637525
0.637525
0.637526
0.637528
0.637529
0.637531
0.637531
0.637533
0.637534
0.637536
0.637537
0.637537
0.637539
0.63754
0.637542
0.637543
0.637543
0.637545
0.637547
0.637548
0.63755
0.63755
0.637551
0.637553
0.637554
0.637556
0.637556
0.637558
0.637559
0.637561
0.637562
0.637562
0.637564
0.637566
0.637567
0.637569
0.637569
0.63757
0.637572
0.637574
0.637575
0.637575
0.637577
0.637579
0.63758
0.637582
0.637582
0.637584
0.637585
0.637587
0.637589
0.637589
0.63759
0.637592
0.637594
0.637595
0.637595
0.637597
0.637599
0.6376
0.637602
0.637602
0.637604
0.637605
0.637607
0.637609
0.637609
0.63761
0.637612
0.637614
0.637616
0.637616
0.637617
0.637619
0.637621
0.637623
0.637623
0.637624
0.637626
0.637628
0.63763
0.63763
0.637631
0.637633
0.637635
0.637637
0.637637
0.637638
0.63764
0.637642
0.637644
0.637644
0.637645
0.637647
0.637649
0.637651
0.637651
0.637653
0.637654
0.637656
0.637658
0.637658
0.63766
0.637662
0.637664
0.637665
0.637665
0.637667
0.637669
0.637671
0.637673
0.637673
0.637675
0.637676
0.637678
0.63768
0.63768
0.637682
0.637684
0.637686
0.637688
0.637688
0.637689
0.637691
0.637693
0.637695
0.637695
0.637697
0.637699
0.637701
0.637703
0.637703
0.637705
0.637706
0.637708
0.63771
0.63771
0.637712
0.637714
0.637716
0.637718
0.637718
0.63772
0.637722
0.637724
0.637726
0.637726
0.637728
0.63773
0.637732
0.637734
0.637734
0.637736
0.637737
0.637739
0.637741
0.637741
0.637743
0.637745
0.637747
0.637749
0.637749
0.637751
0.637753
0.637755
0.637757
0.637757
0.637759
0.637761
0.637763
0.637765
0.637765
0.637767
0.637769
0.637772
0.637774
0.637774
0.637776
0.637778
0.63778
0.637782
0.637782
0.637784
0.637786
0.637788
0.63779
0.63779
0.637792
0.637794
0.637796
0.637798
0.637798
0.6378
0.637802
0.637805
0.637807
0.637807
0.637809
0.637811
0.637813
0.637815
0.637815
0.637817
0.637819
0.637821
0.637824
0.637824
0.637826
0.637828
0.63783
0.637832
0.637832
0.637834
0.637836
0.637839
0.637841
0.637841
0.637843
0.637845
0.637847
0.637849
0.637849
0.637852
0.637854
0.637856
0.637858
0.637858
0.63786
0.637862
0.637865
0.637867
0.637867
0.637869
0.637871
0.637873
0.637876
0.637876
0.637878
0.63788
0.637882
0.637885
0.637885
0.637887
0.637889
0.637891
0.637894
0.637894
0.637896
0.637898
0.6379
0.637903
0.637903
0.637905
0.637907
0.637909
0.637912
0.637912
0.637914
0.637916
0.637919
0.637921
0.637921
0.637923
0.637925
0.637928
0.63793
0.63793
0.637932
0.637935
0.637937
0.637939
0.637939
0.637942
0.637944
0.637946
0.637949
0.637949
0.637951
0.637953
0.637956
0.637958
0.637958
0.63796
0.637963
0.637965
0.637967
0.637967
0.63797
0.637972
0.637974
0.637977
0.637977
0.637979
0.637982
0.637984
0.637986
0.637986
0.637989
0.637991
0.637994
0.637996
0.637996
0.637998
0.638001
0.638003
0.638006
0.638006
0.638008
0.63801
0.638013
0.638015
0.638015
0.638018
0.63802
0.638023
0.638025
0.638025
0.638028
0.63803
0.638033
0.638035
0.638035
0.638038
0.63804
0.638043
0.638045
0.638045
0.638048
0.63805
0.638053
0.638055
0.638055
0.638058
0.63806
0.638063
0.638065
0.638065
0.638068
0.63807
0.638073
0.638075
0.638075
0.638078
0.63808
0.638083
0.638086
0.638086
0.638088
0.638091
0.638093
0.638096
0.638096
0.638098
0.638101
0.638104
0.638106
0.638106
0.638109
0.638111
0.638114
0.638116
0.638116
0.638119
0.638122
0.638124
0.638127
0.638127
0.638129
0.638132
0.638135
0.638137
0.638137
0.63814
0.638143
0.638145
0.638148
0.638148
0.638151
0.638153
0.638156
0.638159
0.638159
0.638161
0.638164
0.638167
0.638169
0.638169
0.638172
0.638175
0.638177
0.63818
0.63818
0.638183
0.638185
0.638188
0.638191
0.638191
0.638193
0.638196
0.638199
0.638202
0.638202
0.638204
0.638207
0.63821
0.638212
0.638212
0.638215
0.638218
0.638221
0.638223
0.638223
0.638226
0.638229
0.638232
0.638234
0.638234
0.638237
0.63824
0.638243
0.638246
0.638246
0.638248
0.638251
0.638254
0.638257
0.638257
0.63826
0.638262
0.638265
0.638268
0.638268
0.638271
0.638274
0.638276
0.638279
0.638279
0.638282
0.638285
0.638288
0.638291
0.638291
0.638293
0.638296
0.638299
0.638302
0.638302
0.638305
0.638308
0.638311
0.638313
0.638313
0.638316
0.638319
0.638322
0.638325
0.638325
0.638328
0.638331
0.638334
0.638337
0.638337
0.638339
0.638342
0.638345
0.638348
0.638348
0.638351
0.638354
0.638357
0.63836
0.63836
0.638363
0.638366
0.638369
0.638372
0.638372
0.638375
0.638378
0.638381
0.638384
0.638384
0.638386
0.638389
0.638392
0.638395
0.638395
0.638398
0.638401
0.638404
0.638407
0.638407
0.63841
0.638413
0.638416
0.638419
0.638419
0.638422
0.638425
0.638428
0.638431
0.638431
0.638434
0.638438
0.638441
0.638444
0.638444
0.638447
0.63845
0.638453
0.638456
0.638456
0.638459
0.638462
0.638465
0.638468
0.638468
0.638471
0.638474
0.638477
0.63848
0.63848
0.638483
0.638487
0.63849
0.638493
0.638493
0.638496
0.638499
0.638502
0.638505
0.638505
0.638508
0.638511
0.638514
0.638518
0.638518
0.638521
0.638524
0.638527
0.63853
0.63853
0.638533
0.638536
0.63854
0.638543
0.638543
0.638546
0.638549
0.638552
0.638555
0.638555
0.638559
0.638562
0.638565
0.638568
0.638568
0.638572
0.638575
0.638578
0.638581
0.638581
0.638584
0.638588
0.638591
0.638594
0.638594
0.638597
0.638601
0.638604
0.638607
0.638607
0.63861
0.638614
0.638617
0.63862
0.63862
0.638623
0.638627
0.63863
0.638633
0.638633
0.638637
0.63864
0.638643
0.638646
0.638646
0.63865
0.638653
0.638656
0.63866
0.63866
0.638663
0.638666
0.63867
0.638673
0.638673
0.638676
0.63868
0.638683
0.638686
0.638686
0.63869
0.638693
0.638696
0.6387
0.6387
0.638703
0.638706
0.63871
0.638713
0.638713
0.638716
0.63872
0.638723
0.638727
0.638727
0.63873
0.638733
0.638737
0.63874
0.63874
0.638744
0.638747
0.63875
0.638754
0.638754
0.638757
0.638761
0.638764
0.638767
0.638767
0.638771
0.638774
0.638778
0.638781
0.638781
0.638785
0.638788
0.638792
0.638795
0.638795
0.638799
0.638802
0.638805
0.638809
0.638809
0.638812
0.638816
0.638819
0.638823
0.638823
0.638826
0.63883
0.638833
0.638837
0.638837
0.63884
0.638844
0.638847
0.638851
0.638851
0.638855
0.638858
0.638862
0.638865
0.638865
0.638869
0.638872
0.638876
0.638879
0.638879
0.638883
0.638887
0.63889
0.638894
0.638894
0.638897
0.638901
0.638904
0.638908
0.638908
0.638912
0.638915
0.638919
0.638922
0.638922
0.638926
0.63893
0.638933
0.638937
0.638937
0.63894
0.638944
0.638948
0.638951
0.638951
0.638955
0.638959
0.638962
0.638966
0.638966
0.63897
0.638973
0.638977
0.638981
0.638981
0.638984
0.638988
0.638992
0.638995
0.638995
0.638999
0.639003
0.639006
0.63901
0.63901
0.639014
0.639017
0.639021
0.639025
0.639025
0.639029
0.639032
0.639036
0.63904
0.63904
0.639043
0.639047
0.639051
0.639055
0.639055
0.639058
0.639062
0.639066
0.63907
0.63907
0.639073
0.639077
0.639081
0.639085
0.639085
0.639088
0.639092
0.639096
0.6391
0.6391
0.639104
0.639107
0.639111
0.639115
0.639115
0.639119
0.639123
0.639127
0.63913
0.63913
0.639134
0.639138
0.639142
0.639146
0.639146
0.63915
0.639154
0.639157
0.639161
0.639161
0.639165
0.639169
0.639173
0.639177
0.639177
0.639181
0.639185
0.639189
0.639192
0.639192
0.639196
0.6392
0.639204
0.639208
0.639208
0.639212
0.639216
0.63922
0.639224
0.639224
0.639228
0.639232
0.639236
0.639239
0.639239
0.639243
0.639247
0.639251
0.639255
0.639255
0.639259
0.639263
0.639267
0.639271
0.639271
0.639275
0.639279
0.639283
0.639287
0.639287
0.639291
0.639295
0.639299
0.639303
0.639303
0.639307
0.639311
0.639315
0.639319
0.639319
0.639323
0.639327
0.639331
0.639335
0.639335
0.639339
0.639343
0.639347
0.639351
0.639351
0.639355
0.63936
0.639364
0.639368
0.639368
0.639372
0.639376
0.63938
0.639384
0.639384
0.639388
0.639392
0.639396
0.6394
0.6394
0.639404
0.639409
0.639413
0.639417
0.639417
0.639421
0.639425
0.639429
0.639433
0.639433
0.639437
0.639442
0.639446
0.63945
0.63945
0.639454
0.639458
0.639462
0.639467
0.639467
0.639471
0.639475
0.639479
0.639483
0.639483
0.639487
0.639492
0.639496
0.6395
0.6395
0.639504
0.639508
0.639513
0.639517
0.639517
0.639521
0.639525
0.63953
0.639534
0.639534
0.639538
0.639542
0.639546
0.639551
0.639551
0.639555
0.639559
0.639563
0.639568
0.639568
0.639572
0.639576
0.63958
0.639585
0.639585
0.639589
0.639593
0.639597
0.639602
0.639602
0.639606
0.63961
0.639615
0.639619
0.639619
0.639623
0.639628
0.639632
0.639636
0.639636
0.63964
0.639645
0.639649
0.639654
0.639654
0.639658
0.639662
0.639667
0.639671
0.639671
0.639675
0.63968
0.639684
0.639689
0.639689
0.639693
0.639697
0.639702
0.639706
0.639706
0.639711
0.639715
0.639719
0.639724
0.639724
0.639728
0.639733
0.639737
0.639742
0.639742
0.639746
0.639751
0.639755
0.639759
0.639759
0.639764
0.639768
0.639773
0.639777
0.639777
0.639782
0.639786
0.639791
0.639795
0.639795
0.6398
0.639804
0.639809
0.639813
0.639813
0.639818
0.639822
0.639827
0.639831
0.639831
0.639836
0.63984
0.639845
0.639849
0.639849
0.639854
0.639858
0.639863
0.639867
0.639867
0.639872
0.639876
0.639881
0.639886
0.639886
0.63989
0.639895
0.639899
0.639904
0.639904
0.639908
0.639913
0.639918
0.639922
0.639922
0.639927
0.639931
0.639936
0.639941
0.639941
0.639945
0.63995
0.639954
0.639959
0.639959
0.639964
0.639968
0.639973
0.639978
0.639978
0.639982
0.639987
0.639992
0.639996
0.639996
0.640001
0.640006
0.64001
0.640015
0.640015
0.64002
0.640024
0.640029
0.640034
0.640034
0.640038
0.640043
0.640048
0.640052
0.640052
0.640057
0.640062
0.640067
0.640071
0.640071
0.640076
0.640081
0.640085
0.64009
0.64009
0.640095
0.6401
0.640104
0.640109
0.640109
0.640114
0.640119
0.640123
0.640128
0.640128
0.640133
0.640138
0.640142
0.640147
0.640147
0.640152
0.640157
0.640162
0.640166
0.640166
0.640171
0.640176
0.640181
0.640186
0.640186
0.64019
0.640195
0.6402
0.640205
0.640205
0.64021
0.640215
0.640219
0.640224
0.640224
0.640229
0.640234
0.640239
0.640244
0.640244
0.640249
0.640254
0.640259
0.640263
0.640263
0.640268
0.640273
0.640278
0.640283
0.640283
0.640288
0.640293
0.640298
0.640303
0.640303
0.640308
0.640313
0.640318
0.640323
0.640323
0.640328
0.640333
0.640338
0.640342
0.640342
0.640347
0.640352
0.640357
0.640362
0.640362
0.640367
0.640372
0.640377
0.640382
0.640382
0.640387
0.640392
0.640397
0.640402
0.640402
0.640407
0.640412
0.640417
0.640422
0.640422
0.640427
0.640433
0.640438
0.640443
0.640443
0.640448
0.640453
0.640458
0.640463
0.640463
0.640468
0.640473
0.640478
0.640483
0.640483
0.640488
0.640493
0.640498
0.640503
0.640503
0.640509
0.640514
0.640519
0.640524
0.640524
0.640529
0.640534
0.640539
0.640544
0.640544
0.640549
0.640555
0.64056
0.640565
0.640565
0.64057
0.640575
0.64058
0.640586
0.640586
0.640591
0.640596
0.640601
0.640606
0.640606
0.640611
0.640617
0.640622
0.640627
0.640627
0.640632
0.640637
0.640643
0.640648
0.640648
0.640653
0.640658
0.640663
0.640669
0.640669
0.640674
0.640679
0.640684
0.64069
0.64069
0.640695
0.6407
0.640705
0.64071
0.64071
0.640716
0.640721
0.640726
0.640731
0.640731
0.640737
0.640742
0.640747
0.640753
0.640753
0.640758
0.640763
0.640768
0.640774
0.640774
0.640779
0.640784
0.64079
0.640795
0.640795
0.6408
0.640806
0.640811
0.640817
0.640817
0.640822
0.640827
0.640833
0.640838
0.640838
0.640843
0.640849
0.640854
0.64086
0.64086
0.640865
0.64087
0.640876
0.640881
0.640881
0.640887
0.640892
0.640898
0.640903
0.640903
0.640908
0.640914
0.640919
0.640925
0.640925
0.64093
0.640936
0.640941
0.640947
0.640947
0.640952
0.640957
0.640963
0.640968
0.640968
0.640974
0.640979
0.640985
0.64099
0.64099
0.640996
0.641001
0.641007
0.641012
0.641012
0.641018
0.641023
0.641029
0.641034
0.641034
0.64104
0.641045
0.641051
0.641056
0.641056
0.641062
0.641068
0.641073
0.641079
0.641079
0.641084
0.64109
0.641095
0.641101
0.641101
0.641107
0.641112
0.641118
0.641123
0.641123
0.641129
0.641134
0.64114
0.641146
0.641146
0.641151
0.641157
0.641163
0.641168
0.641168
0.641174
0.641179
0.641185
0.641191
0.641191
0.641196
0.641202
0.641208
0.641213
0.641213
0.641219
0.641225
0.64123
0.641236
0.641236
0.641242
0.641247
0.641253
0.641259
0.641259
0.641264
0.64127
0.641276
0.641281
0.641281
0.641287
0.641293
0.641299
0.641304
0.641304
0.64131
0.641316
0.641321
0.641327
0.641327
0.641333
0.641339
0.641344
0.64135
0.64135
0.641356
0.641362
0.641367
0.641373
0.641373
0.641379
0.641385
0.641391
0.641396
0.641396
0.641402
0.641408
0.641414
0.64142
0.64142
0.641426
0.641431
0.641437
0.641443
0.641443
0.641449
0.641455
0.641461
0.641467
0.641467
0.641472
0.641478
0.641484
0.64149
0.64149
0.641496
0.641502
0.641508
0.641514
0.641514
0.64152
0.641525
0.641531
0.641537
0.641537
0.641543
0.641549
0.641555
0.641561
0.641561
0.641567
0.641573
0.641579
0.641585
0.641585
0.641591
0.641597
0.641603
0.641609
0.641609
0.641615
0.64162
0.641626
0.641632
0.641632
0.641638
0.641644
0.64165
0.641656
0.641656
0.641662
0.641668
0.641674
0.64168
0.64168
0.641686
0.641692
0.641698
0.641704
0.641704
0.641711
0.641717
0.641723
0.641729
0.641729
0.641735
0.641741
0.641747
0.641753
0.641753
0.641759
0.641765
0.641771
0.641777
0.641777
0.641783
0.641789
0.641795
0.641802
0.641802
0.641808
0.641814
0.64182
0.641826
0.641826
0.641832
0.641838
0.641844
0.64185
0.64185
0.641857
0.641863
0.641869
0.641875
0.641875
0.641881
0.641887
0.641893
0.6419
0.6419
0.641906
0.641912
0.641918
0.641924
0.641924
0.64193
0.641936
0.641943
0.641949
0.641949
0.641955
0.641961
0.641968
0.641974
0.641974
0.64198
0.641986
0.641993
0.641999
0.641999
0.642005
0.642011
0.642018
0.642024
0.642024
0.64203
0.642037
0.642043
0.642049
0.642049
0.642055
0.642062
0.642068
0.642074
0.642074
0.642081
0.642087
0.642093
0.6421
0.6421
0.642106
0.642112
0.642119
0.642125
0.642125
0.642131
0.642138
0.642144
0.64215
0.64215
0.642157
0.642163
0.642169
0.642176
0.642176
0.642182
0.642189
0.642195
0.642201
0.642201
0.642208
0.642214
0.642221
0.642227
0.642227
0.642233
0.64224
0.642246
0.642253
0.642253
0.642259
0.642266
0.642272
0.642278
0.642278
0.642285
0.642291
0.642298
0.642304
0.642304
0.642311
0.642317
0.642324
0.64233
0.64233
0.642337
0.642343
0.64235
0.642356
0.642356
0.642363
0.642369
0.642376
0.642382
0.642382
0.642389
0.642395
0.642402
0.642408
0.642408
0.642415
0.642421
0.642428
0.642434
0.642434
0.642441
0.642447
0.642454
0.64246
0.64246
0.642467
0.642474
0.64248
0.642487
0.642487
0.642493
0.6425
0.642506
0.642513
0.642513
0.64252
0.642526
0.642533
0.642539
0.642539
0.642546
0.642553
0.642559
0.642566
0.642566
0.642573
0.642579
0.642586
0.642593
0.642593
0.642599
0.642606
0.642613
0.642619
0.642619
0.642626
0.642633
0.64264
0.642646
0.642646
0.642653
0.64266
0.642666
0.642673
0.642673
0.64268
0.642687
0.642693
0.6427
0.6427
0.642707
0.642714
0.64272
0.642727
0.642727
0.642734
0.642741
0.642747
0.642754
0.642754
0.642761
0.642768
0.642775
0.642781
0.642781
0.642788
0.642795
0.642802
0.642809
0.642809
0.642815
0.642822
0.642829
0.642836
0.642836
0.642843
0.64285
0.642856
0.642863
0.642863
0.64287
0.642877
0.642884
0.642891
0.642891
0.642898
0.642904
0.642911
0.642918
0.642918
0.642925
0.642932
0.642939
0.642946
0.642946
0.642953
0.64296
0.642967
0.642973
0.642973
0.64298
0.642987
0.642994
0.643001
0.643001
0.643008
0.643015
0.643022
0.643029
0.643029
0.643036
0.643043
0.64305
0.643057
0.643057
0.643064
0.643071
0.643078
0.643085
0.643085
0.643092
0.643099
0.643106
0.643113
0.643113
0.64312
0.643127
0.643134
0.643141
0.643141
0.643148
0.643155
0.643162
0.643169
0.643169
0.643176
0.643183
0.64319
0.643197
0.643197
0.643204
0.643211
0.643218
0.643225
0.643225
0.643232
0.64324
0.643247
0.643254
0.643254
0.643261
0.643268
0.643275
0.643282
0.643282
0.64329
0.643297
0.643304
0.643311
0.643311
0.643318
0.643325
0.643333
0.64334
0.64334
0.643347
0.643354
0.643361
0.643368
0.643368
0.643376
0.643383
0.64339
0.643397
0.643397
0.643405
0.643412
0.643419
0.643426
0.643426
0.643433
0.643441
0.643448
0.643455
0.643455
0.643462
0.64347
0.643477
0.643484
0.643484
0.643491
0.643499
0.643506
0.643513
0.643513
0.64352
0.643528
0.643535
0.643542
0.643542
0.64355
0.643557
0.643564
0.643572
0.643572
0.643579
0.643586
0.643594
0.643601
0.643601
0.643608
0.643616
0.643623
0.64363
0.64363
0.643638
0.643645
0.643652
0.64366
0.64366
0.643667
0.643674
0.643682
0.643689
0.643689
0.643696
0.643704
0.643711
0.643719
0.643719
0.643726
0.643733
0.643741
0.643748
0.643748
0.643756
0.643763
0.64377
0.643778
0.643778
0.643785
0.643793
0.6438
0.643808
0.643808
0.643815
0.643823
0.64383
0.643838
0.643838
0.643845
0.643853
0.64386
0.643868
0.643868
0.643875
0.643883
0.643891
0.643898
0.643898
0.643906
0.643913
0.643921
0.643928
0.643928
0.643936
0.643943
0.643951
0.643959
0.643959
0.643966
0.643974
0.643981
0.643989
0.643989
0.643997
0.644004
0.644012
0.644019
0.644019
0.644027
0.644035
0.644042
0.64405
0.64405
0.644057
0.644065
0.644073
0.64408
0.64408
0.644088
0.644096
0.644103
0.644111
0.644111
0.644119
0.644126
0.644134
0.644142
0.644142
0.644149
0.644157
0.644165
0.644172
0.644172
0.64418
0.644188
0.644196
0.644203
0.644203
0.644211
0.644219
0.644226
0.644234
0.644234
0.644242
0.64425
0.644257
0.644265
0.644265
0.644273
0.644281
0.644288
0.644296
0.644296
0.644304
0.644312
0.644319
0.644327
0.644327
0.644335
0.644343
0.644351
0.644358
0.644358
0.644366
0.644374
0.644382
0.64439
0.64439
0.644397
0.644405
0.644413
0.644421
0.644421
0.644429
0.644437
0.644445
0.644452
0.644452
0.64446
0.644468
0.644476
0.644484
0.644484
0.644492
0.6445
0.644508
0.644516
0.644516
0.644524
0.644532
0.64454
0.644548
0.644548
0.644556
0.644564
0.644572
0.64458
0.64458
0.644588
0.644596
0.644604
0.644611
0.644611
0.644619
0.644627
0.644635
0.644643
0.644643
0.644651
0.644659
0.644668
0.644676
0.644676
0.644684
0.644692
0.6447
0.644708
0.644708
0.644716
0.644724
0.644732
0.64474
0.64474
0.644748
0.644756
0.644764
0.644772
0.644772
0.64478
0.644788
0.644796
0.644804
0.644804
0.644813
0.644821
0.644829
0.644837
0.644837
0.644845
0.644853
0.644861
0.644869
0.644869
0.644877
0.644886
0.644894
0.644902
0.644902
0.64491
0.644918
0.644926
0.644934
0.644934
0.644943
0.644951
0.644959
0.644967
0.644967
0.644975
0.644983
0.644992
0.645
0.645
0.645008
0.645016
0.645024
0.645033
0.645033
0.645041
0.645049
0.645057
0.645066
0.645066
0.645074
0.645082
0.64509
0.645099
0.645099
0.645107
0.645115
0.645124
0.645132
0.645132
0.64514
0.645149
0.645157
0.645165
0.645165
0.645174
0.645182
0.64519
0.645199
0.645199
0.645207
0.645215
0.645224
0.645232
0.645232
0.645241
0.645249
0.645257
0.645266
0.645266
0.645274
0.645282
0.645291
0.645299
0.645299
0.645308
0.645316
0.645324
0.645333
0.645333
0.645341
0.64535
0.645358
0.645367
0.645367
0.645375
0.645383
0.645392
0.6454
0.6454
0.645409
0.645417
0.645426
0.645434
0.645434
0.645443
0.645451
0.64546
0.645468
0.645468
0.645477
0.645485
0.645494
0.645502
0.645502
0.645511
0.645519
0.645528
0.645536
0.645536
0.645545
0.645553
0.645562
0.64557
0.64557
0.645579
0.645587
0.645596
0.645605
0.645605
0.645613
0.645622
0.64563
0.645639
0.645639
0.645647
0.645656
0.645665
0.645673
0.645673
0.645682
0.64569
0.645699
0.645708
0.645708
0.645716
0.645725
0.645734
0.645742
0.645742
0.645751
0.64576
0.645768
0.645777
0.645777
0.645786
0.645795
0.645803
0.645812
0.645812
0.645821
0.645829
0.645838
0.645847
0.645847
0.645856
0.645864
0.645873
0.645882
0.645882
0.645891
0.645899
0.645908
0.645917
0.645917
0.645926
0.645935
0.645943
0.645952
0.645952
0.645961
0.64597
0.645979
0.645987
0.645987
0.645996
0.646005
0.646014
0.646023
0.646023
0.646031
0.64604
0.646049
0.646058
0.646058
0.646067
0.646076
0.646085
0.646093
0.646093
0.646102
0.646111
0.64612
0.646129
0.646129
0.646138
0.646147
0.646156
0.646164
0.646164
0.646173
0.646182
0.646191
0.6462
0.6462
0.646209
0.646218
0.646227
0.646236
0.646236
0.646245
0.646254
0.646262
0.646271
0.646271
0.64628
0.646289
0.646298
0.646307
0.646307
0.646316
0.646325
0.646334
0.646343
0.646343
0.646352
0.646361
0.64637
0.646379
0.646379
0.646388
0.646397
0.646407
0.646416
0.646416
0.646425
0.646434
0.646443
0.646452
0.646452
0.646461
0.64647
0.646479
0.646488
0.646488
0.646498
0.646507
0.646516
0.646525
0.646525
0.646534
0.646543
0.646552
0.646562
0.646562
0.646571
0.64658
0.646589
0.646598
0.646598
0.646607
0.646617
0.646626
0.646635
0.646635
0.646644
0.646653
0.646662
0.646672
0.646672
0.646681
0.64669
0.646699
0.646709
0.646709
0.646718
0.646727
0.646736
0.646745
0.646745
0.646755
0.646764
0.646773
0.646782
0.646782
0.646792
0.646801
0.64681
0.646819
0.646819
0.646829
0.646838
0.646847
0.646857
0.646857
0.646866
0.646875
0.646884
0.646894
0.646894
0.646903
0.646912
0.646922
0.646931
0.646931
0.64694
0.64695
0.646959
0.646968
0.646968
0.646978
0.646987
0.646996
0.647006
0.647006
0.647015
0.647025
0.647034
0.647044
0.647044
0.647053
0.647062
0.647072
0.647081
0.647081
0.647091
0.6471
0.64711
0.647119
0.647119
0.647129
0.647138
0.647148
0.647157
0.647157
0.647167
0.647176
0.647186
0.647195
0.647195
0.647205
0.647214
0.647224
0.647233
0.647233
0.647243
0.647252
0.647262
0.647272
0.647272
0.647281
0.647291
0.6473
0.64731
0.64731
0.647319
0.647329
0.647338
0.647348
0.647348
0.647358
0.647367
0.647377
0.647386
0.647386
0.647396
0.647406
0.647415
0.647425
0.647425
0.647435
0.647444
0.647454
0.647463
0.647463
0.647473
0.647483
0.647492
0.647502
0.647502
0.647512
0.647521
0.647531
0.647541
0.647541
0.64755
0.64756
0.64757
0.647579
0.647579
0.647589
0.647599
0.647608
0.647618
0.647618
0.647628
0.647638
0.647647
0.647657
0.647657
0.647667
0.647677
0.647686
0.647696
0.647696
0.647706
0.647716
0.647726
0.647735
0.647735
0.647745
0.647755
0.647765
0.647775
0.647775
0.647785
0.647795
0.647804
0.647814
0.647814
0.647824
0.647834
0.647844
0.647854
0.647854
0.647864
0.647874
0.647884
0.647893
0.647893
0.647903
0.647913
0.647923
0.647933
0.647933
0.647943
0.647953
0.647963
0.647973
0.647973
0.647983
0.647993
0.648003
0.648013
0.648013
0.648023
0.648032
0.648042
0.648052
0.648052
0.648062
0.648072
0.648082
0.648092
0.648092
0.648102
0.648112
0.648122
0.648132
0.648132
0.648142
0.648152
0.648162
0.648172
0.648172
0.648182
0.648192
0.648202
0.648213
0.648213
0.648223
0.648233
0.648243
0.648253
0.648253
0.648263
0.648273
0.648283
0.648293
0.648293
0.648303
0.648313
0.648323
0.648333
0.648333
0.648344
0.648354
0.648364
0.648374
0.648374
0.648384
0.648394
0.648405
0.648415
0.648415
0.648425
0.648435
0.648446
0.648456
0.648456
0.648466
0.648476
0.648487
0.648497
0.648497
0.648507
0.648517
0.648528
0.648538
0.648538
0.648548
0.648558
0.648569
0.648579
0.648579
0.648589
0.648599
0.64861
0.64862
0.64862
0.64863
0.648641
0.648651
0.648661
0.648661
0.648672
0.648682
0.648692
0.648702
0.648702
0.648713
0.648723
0.648733
0.648744
0.648744
0.648754
0.648765
0.648775
0.648785
0.648785
0.648796
0.648806
0.648816
0.648827
0.648827
0.648837
0.648848
0.648858
0.648868
0.648868
0.648879
0.648889
0.6489
0.64891
0.64891
0.64892
0.648931
0.648941
0.648952
0.648952
0.648962
0.648973
0.648983
0.648993
0.648993
0.649004
0.649014
0.649025
0.649036
0.649036
0.649046
0.649057
0.649067
0.649078
0.649078
0.649088
0.649099
0.64911
0.64912
0.64912
0.649131
0.649141
0.649152
0.649163
0.649163
0.649173
0.649184
0.649194
0.649205
0.649205
0.649216
0.649226
0.649237
0.649248
0.649248
0.649258
0.649269
0.649279
0.64929
0.64929
0.649301
0.649311
0.649322
0.649333
0.649333
0.649343
0.649354
0.649365
0.649376
0.649376
0.649386
0.649397
0.649408
0.649418
0.649418
0.649429
0.64944
0.64945
0.649461
0.649461
0.649472
0.649483
0.649493
0.649504
0.649504
0.649515
0.649526
0.649536
0.649547
0.649547
0.649558
0.649569
0.649579
0.64959
0.64959
0.649601
0.649612
0.649623
0.649633
0.649633
0.649644
0.649655
0.649666
0.649677
0.649677
0.649688
0.649698
0.649709
0.64972
0.64972
0.649731
0.649742
0.649753
0.649764
0.649764
0.649775
0.649786
0.649797
0.649808
0.649808
0.649819
0.64983
0.649841
0.649852
0.649852
0.649863
0.649874
0.649885
0.649896
0.649896
0.649907
0.649918
0.649929
0.64994
0.64994
0.649951
0.649962
0.649973
0.649984
0.649984
0.649995
0.650006
0.650017
0.650028
0.650028
0.650039
0.65005
0.650061
0.650072
0.650072
0.650083
0.650094
0.650105
0.650116
0.650116
0.650127
0.650138
0.65015
0.650161
0.650161
0.650172
0.650183
0.650194
0.650205
0.650205
0.650216
0.650227
0.650238
0.65025
0.65025
0.650261
0.650272
0.650283
0.650294
0.650294
0.650305
0.650316
0.650328
0.650339
0.650339
0.65035
0.650361
0.650372
0.650384
0.650384
0.650395
0.650406
0.650417
0.650429
0.650429
0.65044
0.650451
0.650463
0.650474
0.650474
0.650485
0.650497
0.650508
0.650519
0.650519
0.650531
0.650542
0.650553
0.650565
0.650565
0.650576
0.650587
0.650599
0.65061
0.65061
0.650621
0.650633
0.650644
0.650656
0.650656
0.650667
0.650678
0.65069
0.650701
0.650701
0.650712
0.650724
0.650735
0.650747
0.650747
0.650758
0.65077
0.650781
0.650792
0.650792
0.650804
0.650815
0.650827
0.650838
0.650838
0.65085
0.650861
0.650873
0.650884
0.650884
0.650895
0.650907
0.650918
0.65093
0.65093
0.650941
0.650953
0.650964
0.650976
0.650976
0.650987
0.650999
0.65101
0.651022
0.651022
0.651034
0.651045
0.651057
0.651068
0.651068
0.65108
0.651092
0.651103
0.651115
0.651115
0.651126
0.651138
0.65115
0.651161
0.651161
0.651173
0.651185
0.651196
0.651208
0.651208
0.65122
0.651232
0.651243
0.651255
0.651255
0.651267
0.651278
0.65129
0.651302
0.651302
0.651314
0.651325
0.651337
0.651349
0.651349
0.65136
0.651372
0.651384
0.651396
0.651396
0.651407
0.651419
0.651431
0.651443
0.651443
0.651455
0.651466
0.651478
0.65149
0.65149
0.651502
0.651514
0.651525
0.651537
0.651537
0.651549
0.651561
0.651573
0.651584
0.651584
0.651596
0.651608
0.65162
0.651632
0.651632
0.651644
0.651655
0.651667
0.651679
0.651679
0.651691
0.651703
0.651715
0.651727
0.651727
0.651739