<?xml version="1.0"?>
<VTKFile type="UnstructuredGrid" version="0.1" byte_order="LittleEndian">
<UnstructuredGrid>
<Piece NumberOfPoints="5000" NumberOfCells="4000">
<PointData Scalars="Reaction 0">
<DataArray type="Float32" Name="Reaction 0" format="ascii">
0.649075
0.649075
0.649075
0.649075
0.649075
0.649075
0.649075
0.649075
0.649075
0.649075
0.649075
0.649075
0.649075
0.649075
0.649075
0.649075
0.649075
0.649075
0.649076
0.649076
0.649076
0.649076
0.649076
0.649076
0.649076
0.649076
0.649076
0.649076
0.649076
0.649076
0.649076
0.649076
0.649077
0.649077
0.649077
0.649077
0.649077
0.649077
0.649077
0.649077
0.649077
0.649077
0.649078
0.649078
0.649078
0.649078
0.649078
0.649078
0.649078
0.649079
0.649079
0.649079
0.649079
0.649079
0.649079
0.649079
0.64908
0.64908
0.64908
0.64908
0.64908
0.64908
0.649081
0.649081
0.649081
0.649081
0.649081
0.649081
0.649082
0.649082
0.649082
0.649082
0.649082
0.649083
0.649083
0.649083
0.649083
0.649084
0.649084
0.649084
0.649084
0.649084
0.649085
0.649085
0.649085
0.649085
0.649086
0.649086
0.649086
0.649087
0.649087
0.649087
0.649087
0.649088
0.649088
0.649088
0.649088
0.649089
0.649089
0.649089
0.649089
0.64909
0.64909
0.64909
0.649091
0.649091
0.649091
0.649091
0.649092
0.649092
0.649092
0.649093
0.649093
0.649093
0.649094
0.649094
0.649094
0.649095
0.649095
0.649095
0.649095
0.649096
0.649096
0.649097
0.649097
0.649097
0.649098
0.649098
0.649099
0.649099
0.649099
0.649099
0.6491
0.6491
0.649101
0.649101
0.649101
0.649102
0.649102
0.649103
0.649103
0.649103
0.649104
0.649104
0.649105
0.649105
0.649105
0.649106
0.649106
0.649107
0.649107
0.649108
0.649108
0.649109
0.649109
0.649109
0.64911
0.64911
0.649111
0.649111
0.649111
0.649112
0.649113
0.649113
0.649114
0.649114
0.649114
0.649115
0.649115
0.649116
0.649116
0.649117
0.649117
0.649118
0.649119
0.649119
0.649119
0.64912
0.64912
0.649121
0.649121
0.649122
0.649122
0.649123
0.649124
0.649124
0.649124
0.649125
0.649126
0.649126
0.649126
0.649127
0.649128
0.649128
0.649129
0.649129
0.64913
0.64913
0.649131
0.649132
0.649132
0.649133
0.649133
0.649134
0.649135
0.649135
0.649135
0.649136
0.649137
0.649138
0.649138
0.649138
0.649139
0.64914
0.649141
0.649141
0.649141
0.649142
0.649143
0.649144
0.649144
0.649145
0.649145
0.649146
0.649147
0.649147
0.649148
0.649149
0.649149
0.64915
0.64915
0.649151
0.649152
0.649153
0.649154
0.649154
0.649154
0.649155
0.649156
0.649157
0.649157
0.649158
0.649159
0.649159
0.64916
0.64916
0.649161
0.649162
0.649163
0.649164
0.649164
0.649165
0.649166
0.649167
0.649167
0.649167
0.649168
0.649169
0.64917
0.649171
0.649171
0.649172
0.649173
0.649174
0.649175
0.649175
0.649176
0.649177
0.649178
0.649179
0.649179
0.64918
0.649181
0.649182
0.649183
0.649183
0.649183
0.649184
0.649185
0.649186
0.649186
0.649187
0.649188
0.649189
0.64919
0.64919
0.649191
0.649193
0.649194
0.649195
0.649195
0.649196
0.649197
0.649198
0.649199
0.649199
0.6492
0.649201
0.649202
0.649203
0.649203
0.649204
0.649205
0.649206
0.649207
0.649207
0.649208
0.649209
0.649211
0.649212
0.649212
0.649213
0.649214
0.649215
0.649216
0.649216
0.649217
0.649218
0.649219
0.649221
0.649221
0.649222
0.649223
0.649224
0.649225
0.649225
0.649226
0.649228
0.649229
0.64923
0.64923
0.649231
0.649232
0.649233
0.649235
0.649235
0.649236
0.649237
0.649238
0.649239
0.649239
0.649241
0.649242
0.649243
0.649244
0.649244
0.649245
0.649247
0.649248
0.649249
0.649249
0.64925
0.649252
0.649253
0.649254
0.649254
0.649255
0.649257
0.649258
0.649259
0.649259
0.649261
0.649262
0.649263
0.649264
0.649264
0.649266
0.649267
0.649268
0.64927
0.64927
0.649271
0.649272
0.649274
0.649275
0.649275
0.649276
0.649278
0.649279
0.64928
0.64928
0.649282
0.649283
0.649284
0.649286
0.649286
0.649287
0.649289
0.64929
0.649291
0.649291
0.649293
0.649294
0.649296
0.649297
0.649297
0.649298
0.6493
0.649301
0.649303
0.649303
0.649304
0.649305
0.649307
0.649308
0.649308
0.64931
0.649311
0.649313
0.649314
0.649314
0.649316
0.649317
0.649319
0.64932
0.64932
0.649321
0.649323
0.649324
0.649326
0.649326
0.649327
0.649329
0.64933
0.649332
0.649332
0.649333
0.649335
0.649337
0.649338
0.649338
0.64934
0.649341
0.649343
0.649344
0.649344
0.649346
0.649347
0.649349
0.64935
0.64935
0.649352
0.649354
0.649355
0.649357
0.649357
0.649358
0.64936
0.649362
0.649363
0.649363
0.649365
0.649366
0.649368
0.64937
0.64937
0.649371
0.649373
0.649374
0.649376
0.649376
0.649378
0.649379
0.649381
0.649383
0.649383
0.649384
0.649386
0.649388
0.649389
0.649389
0.649391
0.649393
0.649394
0.649396
0.649396
0.649398
0.649399
0.649401
0.649403
0.649403
0.649405
0.649406
0.649408
0.64941
0.64941
0.649411
0.649413
0.649415
0.649417
0.649417
0.649418
0.64942
0.649422
0.649424
0.649424
0.649425
0.649427
0.649429
0.649431
0.649431
0.649433
0.649434
0.649436
0.649438
0.649438
0.64944
0.649442
0.649443
0.649445
0.649445
0.649447
0.649449
0.649451
0.649453
0.649453
0.649454
0.649456
0.649458
0.64946
0.64946
0.649462
0.649464
0.649466
0.649467
0.649467
0.649469
0.649471
0.649473
0.649475
0.649475
0.649477
0.649479
0.649481
0.649483
0.649483
0.649484
0.649486
0.649488
0.64949
0.64949
0.649492
0.649494
0.649496
0.649498
0.649498
0.6495
0.649502
0.649504
0.649506
0.649506
0.649508
0.64951
0.649512
0.649514
0.649514
0.649516
0.649518
0.64952
0.649522
0.649522
0.649524
0.649526
0.649528
0.64953
0.64953
0.649532
0.649534
0.649536
0.649538
0.649538
0.64954
0.649542
0.649544
0.649546
0.649546
0.649548
0.64955
0.649552
0.649554
0.649554
0.649556
0.649558
0.64956
0.649563
0.649563
0.649565
0.649567
0.649569
0.649571
0.649571
0.649573
0.649575
0.649577
0.649579
0.649579
0.649582
0.649584
0.649586
0.649588
0.649588
0.64959
0.649592
0.649594
0.649597
0.649597
0.649599
0.649601
0.649603
0.649605
0.649605
0.649607
0.64961
0.649612
0.649614
0.649614
0.649616
0.649618
0.649621
0.649623
0.649623
0.649625
0.649627
0.649629
0.649632
0.649632
0.649634
0.649636
0.649638
0.649641
0.649641
0.649643
0.649645
0.649647
0.64965
0.64965
0.649652
0.649654
0.649657
0.649659
0.649659
0.649661
0.649663
0.649666
0.649668
0.649668
0.64967
0.649673
0.649675
0.649677
0.649677
0.64968
0.649682
0.649684
0.649687
0.649687
0.649689
0.649691
0.649694
0.649696
0.649696
0.649698
0.649701
0.649703
0.649706
0.649706
0.649708
0.64971
0.649713
0.649715
0.649715
0.649717
0.64972
0.649722
0.649725
0.649725
0.649727
0.64973
0.649732
0.649734
0.649734
0.649737
0.649739
0.649742
0.649744
0.649744
0.649747
0.649749
0.649752
0.649754
0.649754
0.649756
0.649759
0.649761
0.649764
0.649764
0.649766
0.649769
0.649771
0.649774
0.649774
0.649776
0.649779
0.649781
0.649784
0.649784
0.649787
0.649789
0.649792
0.649794
0.649794
0.649797
0.649799
0.649802
0.649804
0.649804
0.649807
0.649809
0.649812
0.649815
0.649815
0.649817
0.64982
0.649822
0.649825
0.649825
0.649828
0.64983
0.649833
0.649835
0.649835
0.649838
0.649841
0.649843
0.649846
0.649846
0.649849
0.649851
0.649854
0.649856
0.649856
0.649859
0.649862
0.649864
0.649867
0.649867
0.64987
0.649872
0.649875
0.649878
0.649878
0.649881
0.649883
0.649886
0.649889
0.649889
0.649891
0.649894
0.649897
0.649899
0.649899
0.649902
0.649905
0.649908
0.64991
0.64991
0.649913
0.649916
0.649919
0.649921
0.649921
0.649924
0.649927
0.64993
0.649933
0.649933
0.649935
0.649938
0.649941
0.649944
0.649944
0.649946
0.649949
0.649952
0.649955
0.649955
0.649958
0.649961
0.649963
0.649966
0.649966
0.649969
0.649972
0.649975
0.649978
0.649978
0.64998
0.649983
0.649986
0.649989
0.649989
0.649992
0.649995
0.649998
0.65
0.65
0.650003
0.650006
0.650009
0.650012
0.650012
0.650015
0.650018
0.650021
0.650024
0.650024
0.650027
0.650029
0.650032
0.650035
0.650035
0.650038
0.650041
0.650044
0.650047
0.650047
0.65005
0.650053
0.650056
0.650059
0.650059
0.650062
0.650065
0.650068
0.650071
0.650071
0.650074
0.650077
0.65008
0.650083
0.650083
0.650086
0.650089
0.650092
0.650095
0.650095
0.650098
0.650101
0.650104
0.650108
0.650108
0.650111
0.650114
0.650117
0.65012
0.65012
0.650123
0.650126
0.650129
0.650132
0.650132
0.650135
0.650138
0.650141
0.650145
0.650145
0.650148
0.650151
0.650154
0.650157
0.650157
0.65016
0.650163
0.650166
0.65017
0.65017
0.650173
0.650176
0.650179
0.650182
0.650182
0.650185
0.650189
0.650192
0.650195
0.650195
0.650198
0.650201
0.650205
0.650208
0.650208
0.650211
0.650214
0.650217
0.650221
0.650221
0.650224
0.650227
0.65023
0.650233
0.650233
0.650237
0.65024
0.650243
0.650246
0.650246
0.65025
0.650253
0.650256
0.65026
0.65026
0.650263
0.650266
0.650269
0.650273
0.650273
0.650276
0.650279
0.650283
0.650286
0.650286
0.650289
0.650293
0.650296
0.650299
0.650299
0.650303
0.650306
0.650309
0.650313
0.650313
0.650316
0.650319
0.650323
0.650326
0.650326
0.650329
0.650333
0.650336
0.65034
0.65034
0.650343
0.650346
0.65035
0.650353
0.650353
0.650357
0.65036
0.650363
0.650367
0.650367
0.65037
0.650374
0.650377
0.650381
0.650381
0.650384
0.650387
0.650391
0.650394
0.650394
0.650398
0.650401
0.650405
0.650408
0.650408
0.650412
0.650415
0.650419
0.650422
0.650422
0.650426
0.650429
0.650433
0.650436
0.650436
0.65044
0.650443
0.650447
0.65045
0.65045
0.650454
0.650457
0.650461
0.650465
0.650465
0.650468
0.650472
0.650475
0.650479
0.650479
0.650482
0.650486
0.65049
0.650493
0.650493
0.650497
0.6505
0.650504
0.650508
0.650508
0.650511
0.650515
0.650518
0.650522
0.650522
0.650526
0.650529
0.650533
0.650537
0.650537
0.65054
0.650544
0.650548
0.650551
0.650551
0.650555
0.650559
0.650562
0.650566
0.650566
0.65057
0.650573
0.650577
0.650581
0.650581
0.650584
0.650588
0.650592
0.650596
0.650596
0.650599
0.650603
0.650607
0.65061
0.65061
0.650614
0.650618
0.650622
0.650625
0.650625
0.650629
0.650633
0.650637
0.65064
0.65064
0.650644
0.650648
0.650652
0.650655
0.650655
0.650659
0.650663
0.650667
0.650671
0.650671
0.650674
0.650678
0.650682
0.650686
0.650686
0.65069
0.650694
0.650698
0.650701
0.650701
0.650705
0.650709
0.650713
0.650717
0.650717
0.650721
0.650725
0.650729
0.650733
0.650733
0.650736
0.65074
0.650744
0.650748
0.650748
0.650752
0.650756
0.65076
0.650764
0.650764
0.650768
0.650772
0.650776
0.65078
0.65078
0.650784
0.650788
0.650792
0.650796
0.650796
0.6508
0.650803
0.650807
0.650811
0.650811
0.650815
0.650819
0.650823
0.650827
0.650827
0.650831
0.650835
0.650839
0.650844
0.650844
0.650848
0.650852
0.650856
0.65086
0.65086
0.650864
0.650868
0.650872
0.650876
0.650876
0.65088
0.650884
0.650888
0.650892
0.650892
0.650896
0.6509
0.650904
0.650909
0.650909
0.650913
0.650917
0.650921
0.650925
0.650925
0.650929
0.650933
0.650937
0.650941
0.650941
0.650946
0.65095
0.650954
0.650958
0.650958
0.650962
0.650966
0.650971
0.650975
0.650975
0.650979
0.650983
0.650987
0.650991
0.650991
0.650996
0.651
0.651004
0.651008
0.651008
0.651013
0.651017
0.651021
0.651025
0.651025
0.651029
0.651034
0.651038
0.651042
0.651042
0.651046
0.651051
0.651055
0.651059
0.651059
0.651063
0.651068
0.651072
0.651076
0.651076
0.651081
0.651085
0.651089
0.651094
0.651094
0.651098
0.651102
0.651106
0.651111
0.651111
0.651115
0.651119
0.651124
0.651128
0.651128
0.651133
0.651137
0.651141
0.651146
0.651146
0.65115
0.651154
0.651159
0.651163
0.651163
0.651167
0.651172
0.651176
0.651181
0.651181
0.651185
0.651189
0.651194
0.651198
0.651198
0.651203
0.651207
0.651212
0.651216
0.651216
0.65122
0.651225
0.651229
0.651234
0.651234
0.651238
0.651243
0.651247
0.651252
0.651252
0.651256
0.651261
0.651265
0.65127
0.65127
0.651274
0.651279
0.651283
0.651288
0.651288
0.651292
0.651297
0.651301
0.651306
0.651306
0.65131
0.651315
0.651319
0.651324
0.651324
0.651328
0.651333
0.651337
0.651342
0.651342
0.651347
0.651351
0.651356
0.65136
0.65136
0.651365
0.65137
0.651374
0.651379
0.651379
0.651383
0.651388
0.651393
0.651397
0.651397
0.651402
0.651407
0.651411
0.651416
0.651416
0.651421
0.651425
0.65143
0.651435
0.651435
0.651439
0.651444
0.651449
0.651454
0.651454
0.651458
0.651463
0.651468
0.651472
0.651472
0.651477
0.651482
0.651487
0.651491
0.651491
0.651496
0.651501
0.651505
0.65151
0.65151
0.651515
0.65152
0.651524
0.651529
0.651529
0.651534
0.651539
0.651544
0.651548
0.651548
0.651553
0.651558
0.651563
0.651568
0.651568
0.651572
0.651577
0.651582
0.651587
0.651587
0.651592
0.651597
0.651601
0.651606
0.651606
0.651611
0.651616
0.651621
0.651626
0.651626
0.651631
0.651635
0.65164
0.651645
0.651645
0.65165
0.651655
0.65166
0.651665
0.651665
0.65167
0.651675
0.651679
0.651684
0.651684
0.651689
0.651694
0.651699
0.651704
0.651704
0.651709
0.651714
0.651719
0.651724
0.651724
0.651729
0.651734
0.651739
0.651744
0.651744
0.651749
0.651754
0.651759
0.651764
0.651764
0.651769
0.651774
0.651779
0.651784
0.651784
0.651789
0.651794
0.651799
0.651804
0.651804
0.651809
0.651814
0.651819
0.651824
0.651824
0.651829
0.651834
0.651839
0.651844
0.651844
0.65185
0.651855
0.65186
0.651865
0.651865
0.65187
0.651875
0.65188
0.651885
0.651885
0.65189
0.651895
0.651901
0.651906
0.651906
0.651911
0.651916
0.651921
0.651926
0.651926
0.651931
0.651937
0.651942
0.651947
0.651947
0.651952
0.651957
0.651962
0.651967
0.651967
0.651973
0.651978
0.651983
0.651988
0.651988
0.651993
0.651999
0.652004
0.652009
0.652009
0.652014
0.65202
0.652025
0.65203
0.65203
0.652035
0.652041
0.652046
0.652051
0.652051
0.652057
0.652062
0.652067
0.652073
0.652073
0.652078
0.652083
0.652088
0.652094
0.652094
0.652099
0.652104
0.65211
0.652115
0.652115
0.652121
0.652126
0.652131
0.652137
0.652137
0.652142
0.652147
0.652153
0.652158
0.652158
0.652163
0.652169
0.652174
0.65218
0.65218
0.652185
0.65219
0.652196
0.652201
0.652201
0.652207
0.652212
0.652218
0.652223
0.652223
0.652228
0.652234
0.652239
0.652245
0.652245
0.65225
0.652256
0.652261
0.652267
0.652267
0.652272
0.652278
0.652283
0.652289
0.652289
0.652294
0.6523
0.652305
0.652311
0.652311
0.652316
0.652322
0.652327
0.652333
0.652333
0.652338
0.652344
0.652349
0.652355
0.652355
0.65236
0.652366
0.652371
0.652377
0.652377
0.652383
0.652388
0.652394
0.652399
0.652399
0.652405
0.652411
0.652416
0.652422
0.652422
0.652427
0.652433
0.652439
0.652444
0.652444
0.65245
0.652456
0.652461
0.652467
0.652467
0.652473
0.652478
0.652484
0.652489
0.652489
0.652495
0.652501
0.652507
0.652512
0.652512
0.652518
0.652524
0.652529
0.652535
0.652535
0.652541
0.652546
0.652552
0.652558
0.652558
0.652564
0.652569
0.652575
0.652581
0.652581
0.652587
0.652592
0.652598
0.652604
0.652604
0.65261
0.652615
0.652621
0.652627
0.652627
0.652633
0.652638
0.652644
0.65265
0.65265
0.652656
0.652662
0.652667
0.652673
0.652673
0.652679
0.652685
0.652691
0.652696
0.652696
0.652702
0.652708
0.652714
0.65272
0.65272
0.652726
0.652732
0.652738
0.652744
0.652744
0.65275
0.652755
0.652761
0.652767
0.652767
0.652773
0.652779
0.652785
0.652791
0.652791
0.652797
0.652803
0.652809
0.652815
0.652815
0.652821
0.652827
0.652833
0.652839
0.652839
0.652845
0.652851
0.652857
0.652863
0.652863
0.652869
0.652875
0.652881
0.652887
0.652887
0.652893
0.652899
0.652905
0.652911
0.652911
0.652917
0.652923
0.652929
0.652935
0.652935
0.652941
0.652947
0.652953
0.652959
0.652959
0.652965
0.652971
0.652978
0.652984
0.652984
0.65299
0.652996
0.653002
0.653008
0.653008
0.653014
0.65302
0.653026
0.653033
0.653033
0.653039
0.653045
0.653051
0.653057
0.653057
0.653063
0.653069
0.653076
0.653082
0.653082
0.653088
0.653094
0.6531
0.653107
0.653107
0.653113
0.653119
0.653125
0.653131
0.653131
0.653138
0.653144
0.65315
0.653156
0.653156
0.653162
0.653169
0.653175
0.653181
0.653181
0.653187
0.653194
0.6532
0.653206
0.653206
0.653213
0.653219
0.653225
0.653231
0.653231
0.653238
0.653244
0.65325
0.653257
0.653257
0.653263
0.653269
0.653276
0.653282
0.653282
0.653288
0.653295
0.653301
0.653307
0.653307
0.653314
0.65332
0.653326
0.653333
0.653333
0.653339
0.653345
0.653352
0.653358
0.653358
0.653364
0.653371
0.653377
0.653384
0.653384
0.65339
0.653396
0.653403
0.653409
0.653409
0.653416
0.653422
0.653429
0.653435
0.653435
0.653442
0.653448
0.653455
0.653461
0.653461
0.653468
0.653474
0.653481
0.653487
0.653487
0.653494
0.6535
0.653507
0.653513
0.653513
0.65352
0.653526
0.653533
0.65354
0.65354
0.653546
0.653553
0.653559
0.653566
0.653566
0.653572
0.653579
0.653586
0.653592
0.653592
0.653599
0.653605
0.653612
0.653619
0.653619
0.653625
0.653632
0.653638
0.653645
0.653645
0.653652
0.653658
0.653665
0.653672
0.653672
0.653678
0.653685
0.653692
0.653698
0.653698
0.653705
0.653712
0.653718
0.653725
0.653725
0.653732
0.653738
0.653745
0.653752
0.653752
0.653758
0.653765
0.653772
0.653779
0.653779
0.653785
0.653792
0.653799
0.653806
0.653806
0.653812
0.653819
0.653826
0.653833
0.653833
0.653839
0.653846
0.653853
0.65386
0.65386
0.653866
0.653873
0.65388
0.653887
0.653887
0.653894
0.6539
0.653907
0.653914
0.653914
0.653921
0.653928
0.653935
0.653941
0.653941
0.653948
0.653955
0.653962
0.653969
0.653969
0.653976
0.653983
0.653989
0.653996
0.653996
0.654003
0.65401
0.654017
0.654024
0.654024
0.654031
0.654038
0.654045
0.654051
0.654051
0.654058
0.654065
0.654072
0.654079
0.654079
0.654086
0.654093
0.6541
0.654107
0.654107
0.654114
0.654121
0.654128
0.654135
0.654135
0.654142
0.654149
0.654156
0.654163
0.654163
0.65417
0.654177
0.654184
0.654191
0.654191
0.654199
0.654206
0.654213
0.65422
0.65422
0.654227
0.654234
0.654241
0.654248
0.654248
0.654255
0.654262
0.654269
0.654277
0.654277
0.654284
0.654291
0.654298
0.654305
0.654305
0.654312
0.654319
0.654326
0.654334
0.654334
0.654341
0.654348
0.654355
0.654362
0.654362
0.654369
0.654377
0.654384
0.654391
0.654391
0.654398
0.654405
0.654413
0.65442
0.65442
0.654427
0.654434
0.654441
0.654449
0.654449
0.654456
0.654463
0.65447
0.654478
0.654478
0.654485
0.654492
0.654499
0.654507
0.654507
0.654514
0.654521
0.654529
0.654536
0.654536
0.654543
0.65455
0.654558
0.654565
0.654565
0.654572
0.65458
0.654587
0.654594
0.654594
0.654602
0.654609
0.654616
0.654624
0.654624
0.654631
0.654638
0.654646
0.654653
0.654653
0.654661
0.654668
0.654675
0.654683
0.654683
0.65469
0.654697
0.654705
0.654712
0.654712
0.65472
0.654727
0.654734
0.654742
0.654742
0.654749
0.654757
0.654764
0.654772
0.654772
0.654779
0.654787
0.654794
0.654801
0.654801
0.654809
0.654816
0.654824
0.654831
0.654831
0.654839
0.654847
0.654854
0.654862
0.654862
0.654869
0.654877
0.654884
0.654892
0.654892
0.654899
0.654907
0.654915
0.654922
0.654922
0.65493
0.654937
0.654945
0.654953
0.654953
0.65496
0.654968
0.654975
0.654983
0.654983
0.654991
0.654998
0.655006
0.655014
0.655014
0.655021
0.655029
0.655037
0.655044
0.655044
0.655052
0.65506
0.655067
0.655075
0.655075
0.655083
0.65509
0.655098
0.655106
0.655106
0.655113
0.655121
0.655129
0.655137
0.655137
0.655144
0.655152
0.65516
0.655168
0.655168
0.655175
0.655183
0.655191
0.655199
0.655199
0.655206
0.655214
0.655222
0.65523
0.65523
0.655238
0.655245
0.655253
0.655261
0.655261
0.655269
0.655277
0.655284
0.655292
0.655292
0.6553
0.655308
0.655316
0.655324
0.655324
0.655331
0.655339
0.655347
0.655355
0.655355
0.655363
0.655371
0.655379
0.655386
0.655386
0.655394
0.655402
0.65541
0.655418
0.655418
0.655426
0.655434
0.655442
0.65545
0.65545
0.655458
0.655466
0.655473
0.655481
0.655481
0.655489
0.655497
0.655505
0.655513
0.655513
0.655521
0.655529
0.655537
0.655545
0.655545
0.655553
0.655561
0.655569
0.655577
0.655577
0.655585
0.655593
0.655601
0.65561
0.65561
0.655618
0.655626
0.655634
0.655642
0.655642
0.65565
0.655658
0.655666
0.655674
0.655674
0.655682
0.655691
0.655699
0.655707
0.655707
0.655715
0.655723
0.655731
0.655739
0.655739
0.655747
0.655756
0.655764
0.655772
0.655772
0.65578
0.655788
0.655796
0.655805
0.655805
0.655813
0.655821
0.655829
0.655837
0.655837
0.655846
0.655854
0.655862
0.65587
0.65587
0.655879
0.655887
0.655895
0.655903
0.655903
0.655912
0.65592
0.655928
0.655936
0.655936
0.655945
0.655953
0.655961
0.655969
0.655969
0.655978
0.655986
0.655994
0.656003
0.656003
0.656011
0.656019
0.656028
0.656036
0.656036
0.656044
0.656053
0.656061
0.656069
0.656069
0.656078
0.656086
0.656094
0.656103
0.656103
0.656111
0.656119
0.656128
0.656136
0.656136
0.656145
0.656153
0.656161
0.65617
0.65617
0.656178
0.656187
0.656195
0.656203
0.656203
0.656212
0.65622
0.656229
0.656237
0.656237
0.656246
0.656254
0.656263
0.656271
0.656271
0.65628
0.656288
0.656297
0.656305
0.656305
0.656314
0.656322
0.656331
0.656339
0.656339
0.656348
0.656356
0.656365
0.656374
0.656374
0.656382
0.656391
0.656399
0.656408
0.656408
0.656417
0.656425
0.656434
0.656442
0.656442
0.656451
0.65646
0.656468
0.656477
0.656477
0.656486
0.656494
0.656503
0.656512
0.656512
0.65652
0.656529
0.656538
0.656546
0.656546
0.656555
0.656564
0.656572
0.656581
0.656581
0.65659
0.656598
0.656607
0.656616
0.656616
0.656625
0.656633
0.656642
0.656651
0.656651
0.65666
0.656668
0.656677
0.656686
0.656686
0.656695
0.656703
0.656712
0.656721
0.656721
0.65673
0.656738
0.656747
0.656756
0.656756
0.656765
0.656774
0.656782
0.656791
0.656791
0.6568
0.656809
0.656818
0.656827
0.656827
0.656835
0.656844
0.656853
0.656862
0.656862
0.656871
0.65688
0.656889
0.656897
0.656897
0.656906
0.656915
0.656924
0.656933
0.656933
0.656942
0.656951
0.65696
0.656969
0.656969
0.656978
0.656986
0.656995
0.657004
0.657004
0.657013
0.657022
0.657031
0.65704
0.65704
0.657049
0.657058
0.657067
0.657076
0.657076
0.657085
0.657094
0.657104
0.657113
0.657113
0.657122
0.657131
0.65714
0.657149
0.657149
0.657158
0.657167
0.657176
0.657185
0.657185
0.657194
0.657203
0.657213
0.657222
0.657222
0.657231
0.65724
0.657249
0.657258
0.657258
0.657267
0.657276
0.657286
0.657295
0.657295
0.657304
0.657313
0.657322
0.657331
0.657331
0.657341
0.65735
0.657359
0.657368
0.657368
0.657377
0.657387
0.657396
0.657405
0.657405
0.657414
0.657423
0.657433
0.657442
0.657442
0.657451
0.65746
0.65747
0.657479
0.657479
0.657488
0.657497
0.657507
0.657516
0.657516
0.657525
0.657535
0.657544
0.657553
0.657553
0.657562
0.657572
0.657581
0.65759
0.65759
0.6576
0.657609
0.657618
0.657628
0.657628
0.657637
0.657646
0.657656
0.657665
0.657665
0.657674
0.657684
0.657693
0.657703
0.657703
0.657712
0.657721
0.657731
0.65774
0.65774
0.65775
0.657759
0.657768
0.657778
0.657778
0.657787
0.657797
0.657806
0.657816
0.657816
0.657825
0.657835
0.657844
0.657854
0.657854
0.657863
0.657873
0.657882
0.657892
0.657892
0.657901
0.657911
0.657921
0.65793
0.65793
0.65794
0.657949
0.657959
0.657968
0.657968
0.657978
0.657988
0.657997
0.658007
0.658007
0.658016
0.658026
0.658036
0.658045
0.658045
0.658055
0.658065
0.658074
0.658084
0.658084
0.658093
0.658103
0.658113
0.658122
0.658122
0.658132
0.658142
0.658151
0.658161
0.658161
0.658171
0.65818
0.65819
0.6582
0.6582
0.65821
0.658219
0.658229
0.658239
0.658239
0.658248
0.658258
0.658268
0.658278
0.658278
0.658287
0.658297
0.658307
0.658317
0.658317
0.658326
0.658336
0.658346
0.658356
0.658356
0.658366
0.658375
0.658385
0.658395
0.658395
0.658405
0.658415
0.658424
0.658434
0.658434
0.658444
0.658454
0.658464
0.658474
0.658474
0.658483
0.658493
0.658503
0.658513
0.658513
0.658523
0.658533
0.658543
0.658553
0.658553
0.658563
0.658573
0.658582
0.658592
0.658592
0.658602
0.658612
0.658622
0.658632
0.658632
0.658642
0.658652
0.658662
0.658672
0.658672
0.658682
0.658692
0.658703
0.658713
0.658713
0.658723
0.658733
0.658743
0.658753
0.658753
0.658763
0.658773
0.658783
0.658793
0.658793
0.658803
0.658813
0.658823
0.658833
0.658833
0.658843
0.658854
0.658864
0.658874
0.658874
0.658884
0.658894
0.658904
0.658914
0.658914
0.658924
0.658935
0.658945
0.658955
0.658955
0.658965
0.658975
0.658985
0.658995
0.658995
0.659006
0.659016
0.659026
0.659036
0.659036
0.659046
0.659057
0.659067
0.659077
0.659077
0.659087
0.659098
0.659108
0.659118
0.659118
0.659128
0.659138
0.659149
0.659159
0.659159
0.659169
0.65918
0.65919
0.6592
0.6592
0.65921
0.659221
0.659231
0.659241
0.659241
0.659251
0.659262
0.659272
0.659282
0.659282
0.659293
0.659303
0.659314
0.659324
0.659324
0.659334
0.659345
0.659355
0.659366
0.659366
0.659376
0.659386
0.659397
0.659407
0.659407
0.659418
0.659428
0.659439
0.659449
0.659449
0.65946
0.65947
0.659481
0.659491
0.659491
0.659502
0.659512
0.659523
0.659533
0.659533
0.659544
0.659554
0.659565
0.659575
0.659575
0.659586
0.659596
0.659607
0.659617
0.659617
0.659628
0.659639
0.659649
0.65966
0.65966
0.65967
0.659681
0.659691
0.659702
0.659702
0.659713
0.659723
0.659734
0.659744
0.659744
0.659755
0.659766
0.659776
0.659787
0.659787
0.659798
0.659808
0.659819
0.65983
0.65983
0.65984
0.659851
0.659862
0.659872
0.659872
0.659883
0.659894
0.659904
0.659915
0.659915
0.659926
0.659936
0.659947
0.659958
0.659958
0.659968
0.659979
0.65999
0.660001
0.660001
0.660011
0.660022
0.660033
0.660044
0.660044
0.660054
0.660065
0.660076
0.660087
0.660087
0.660098
0.660108
0.660119
0.66013
0.66013
0.660141
0.660152
0.660163
0.660174
0.660174
0.660185
0.660196
0.660206
0.660217
0.660217
0.660228
0.660239
0.66025
0.660261
0.660261
0.660272
0.660283
0.660294
0.660305
0.660305
0.660316
0.660327
0.660338
0.660349
0.660349
0.66036
0.660371
0.660382
0.660393
0.660393
0.660404
0.660415
0.660426
0.660437
0.660437
0.660448
0.660459
0.66047
0.660481
0.660481
0.660492
0.660503
0.660514
0.660525
0.660525
0.660536
0.660547
0.660558
0.660569
0.660569
0.66058
0.660592
0.660603
0.660614
0.660614
0.660625
0.660636
0.660647
0.660658
0.660658
0.660669
0.66068
0.660692
0.660703
0.660703
0.660714
0.660725
0.660736
0.660747
0.660747
0.660758
0.66077
0.660781
0.660792
0.660792
0.660803
0.660814
0.660826
0.660837
0.660837
0.660848
0.660859
0.660871
0.660882
0.660882
0.660893
0.660904
0.660916
0.660927
0.660927
0.660938
0.66095
0.660961
0.660972
0.660972
0.660984
0.660995
0.661006
0.661018
0.661018
0.661029
0.661041
0.661052
0.661063
0.661063
0.661075
0.661086
0.661097
0.661109
0.661109
0.66112
0.661132
0.661143
0.661155
0.661155
0.661166
0.661177
0.661189
0.6612
0.6612
0.661212
0.661223
0.661235
0.661246
0.661246
0.661258
0.661269
0.661281
0.661292
0.661292
0.661304
0.661315
0.661327
0.661338
0.661338
0.66135
0.661361
0.661373
0.661384
0.661384
0.661396
0.661407
0.661419
0.66143
0.66143
0.661442
0.661453
0.661465
0.661477
0.661477
0.661488
0.6615
0.661511
0.661523
0.661523
0.661535
0.661546
0.661558
0.661569
0.661569
0.661581
0.661593
0.661604
0.661616
0.661616
0.661628
0.661639
0.661651
0.661663
0.661663
0.661674
0.661686
0.661698
0.661709
0.661709
0.661721
0.661733
0.661745
0.661757
0.661757
0.661768
0.66178
0.661792
0.661804
0.661804
0.661816
0.661827
0.661839
0.661851
0.661851
0.661863
0.661875
0.661886
0.661898
0.661898
0.66191
0.661922
0.661934
0.661946
0.661946
0.661958
0.661969
0.661981
0.661993
0.661993
0.662005
0.662017
0.662029
0.662041
0.662041
0.662053
0.662065
0.662077
0.662089
0.662089
0.6621
0.662112
0.662124
0.662136
0.662136
0.662148
0.66216
0.662172
0.662184
0.662184
0.662196
0.662208
0.66222
0.662232
0.662232
0.662244
0.662256
0.662268
0.66228
0.66228
0.662292
0.662304
0.662316
0.662328
0.662328
0.66234
0.662352
0.662364
0.662376
0.662376
0.662388
0.6624
0.662412
0.662425
0.662425
0.662437
0.662449
0.662461
0.662473
0.662473
0.662485
0.662497
0.66251
0.662522
0.662522
0.662534
0.662546
0.662558
0.662571
0.662571
0.662583
0.662595
0.662607
0.66262
0.66262
0.662632
0.662644
0.662656
0.662669
0.662669
0.662681
0.662693
0.662705
0.662718
0.662718
0.66273
0.662742
0.662755
0.662767
0.662767
0.662779
0.662791
0.662804
0.662816
0.662816
0.662828
0.662841
0.662853
0.662865
0.662865
0.662878
0.66289
0.662903
0.662915
0.662915
0.662927
0.66294
0.662952
0.662964
0.662964
0.662977
0.662989
0.663002
0.663014
0.663014
0.663026
0.663039
0.663051
0.663064
0.663064
0.663076
0.663089
0.663101
0.663113
0.663113
0.663126
0.663138
0.663151
0.663163
0.663163
0.663176
0.663188
0.663201
0.663213
0.663213
0.663226
0.663238
0.663251
0.663263
0.663263
0.663276
0.663289
0.663301
0.663314
0.663314
0.663326
0.663339
0.663352
0.663364
0.663364
0.663377
0.66339
0.663402
0.663415
0.663415
0.663428
0.66344
0.663453
0.663466
0.663466
0.663478
0.663491
0.663504
0.663517
0.663517
0.663529
0.663542
0.663555
0.663567
0.663567
0.66358
0.663593
0.663606
0.663618
0.663618
0.663631
0.663644
0.663657
0.663669
0.663669
0.663682
0.663695
0.663708
0.663721
0.663721
0.663733
0.663746
0.663759
0.663772
0.663772
0.663785
0.663797
0.66381
0.663823
0.663823
0.663836
0.663849
0.663862
0.663875
0.663875
0.663887
0.6639
0.663913
0.663926
0.663926
0.663939
0.663952
0.663965
0.663978
0.663978
0.663991
0.664003
0.664016
0.664029
0.664029
0.664042
0.664055
0.664068
0.664081
0.664081
0.664094
0.664107
0.66412
0.664133
0.664133
0.664146
0.664159
0.664172
0.664185
0.664185
0.664199
0.664212
0.664225
0.664238
0.664238
0.664251
0.664264
0.664277
0.66429
0.66429
0.664303
0.664317
0.66433
0.664343
0.664343
0.664356
0.664369
0.664382
0.664395
0.664395
0.664409
0.664422
0.664435
0.664448
0.664448
0.664461
0.664475
0.664488
0.664501
0.664501
0.664514
0.664527
0.664541
0.664554
0.664554
0.664567
0.66458
0.664594
0.664607
0.664607
0.66462
0.664633
0.664647
0.66466
0.66466
0.664673
0.664686
0.6647
0.664713
0.664713
0.664726
0.66474
0.664753
0.664766
0.664766
0.66478
0.664793
0.664806
0.66482
0.66482
0.664833
0.664846
0.66486
0.664873
0.664873
0.664886
0.6649
0.664913
0.664927
0.664927
0.66494
0.664954
0.664967
0.664981
0.664981
0.664994
0.665008
0.665021
0.665035
0.665035
0.665048
0.665062
0.665075
0.665089
0.665089
0.665102
0.665116
0.665129
0.665143
0.665143
0.665156
0.66517
0.665184
0.665197
0.665197
0.665211
0.665224
0.665238
0.665252
0.665252
0.665265
0.665279
0.665292
0.665306
0.665306
0.66532
0.665333
0.665347
0.665361
0.665361
0.665374
0.665388
0.665402
0.665415
0.665415
0.665429
0.665443
0.665456
0.66547
0.66547
0.665484
0.665497
0.665511
0.665525
0.665525
0.665538
0.665552
0.665566
0.66558
0.66558
0.665593
0.665607
0.665621
0.665635
0.665635
0.665648
0.665662
0.665676
0.66569
0.66569
0.665703
0.665717
0.665731
0.665745
0.665745
0.665759
0.665773
0.665787
0.665801
0.665801
0.665815
0.665828
0.665842
0.665856
0.665856
0.66587
0.665884
0.665898
0.665912
0.665912
0.665926
0.66594
0.665954
0.665968
0.665968
0.665982
0.665996
0.66601
0.666024
0.666024
0.666038
0.666052
0.666066
0.66608
0.66608
0.666094
0.666108
0.666122
0.666136
0.666136
0.66615
0.666164
0.666178
0.666192
0.666192
0.666206
0.666221
0.666235
0.666249
0.666249
0.666263
0.666277
0.666291
0.666305
0.666305
0.666319
0.666333
0.666347
0.666362
0.666362
0.666376
0.66639
0.666404
0.666418
0.666418
0.666432
0.666446
0.666461
0.666475
0.666475
0.666489
0.666503
0.666517