<?xml version="1.0"?>
<VTKFile type="UnstructuredGrid" version="0.1" byte_order="LittleEndian">
<UnstructuredGrid>
<Piece NumberOfPoints="5000" NumberOfCells="4000">
<PointData Scalars="Reaction 0">
<DataArray type="Float32" Name="Reaction 0" format="ascii">
0.5703
0.5703
0.5703
0.5703
0.5703
0.5703
0.5703
0.570301
0.570301
0.570301
0.570301
0.570302
0.570302
0.570302
0.570303
0.570303
0.570303
0.570304
0.570304
0.570305
0.570305
0.570306
0.570306
0.570307
0.570308
0.570308
0.570309
0.57031
0.570311
0.570312
0.570312
0.570313
0.570314
0.570315
0.570316
0.570316
0.570317
0.570318
0.570319
0.570321
0.570321
0.570322
0.570323
0.570325
0.570326
0.570326
0.570328
0.570329
0.570331
0.570332
0.570332
0.570334
0.570336
0.570337
0.570339
0.570339
0.570341
0.570343
0.570345
0.570346
0.570346
0.570348
0.57035
0.570352
0.570354
0.570354
0.570357
0.570359
0.570361
0.570363
0.570363
0.570365
0.570368
0.57037
0.570373
0.570373
0.570375
0.570377
0.57038
0.570383
0.570383
0.570385
0.570388
0.57039
0.570393
0.570393
0.570396
0.570399
0.570402
0.570404
0.570404
0.570407
0.57041
0.570413
0.570416
0.570416
0.57042
0.570423
0.570426
0.570429
0.570429
0.570432
0.570436
0.570439
0.570442
0.570442
0.570446
0.570449
0.570453
0.570456
0.570456
0.57046
0.570463
0.570467
0.570471
0.570471
0.570474
0.570478
0.570482
0.570486
0.570486
0.57049
0.570494
0.570497
0.570501
0.570501
0.570506
0.57051
0.570514
0.570518
0.570518
0.570522
0.570526
0.570531
0.570535
0.570535
0.570539
0.570544
0.570548
0.570553
0.570553
0.570557
0.570562
0.570566
0.570571
0.570571
0.570576
0.57058
0.570585
0.57059
0.57059
0.570595
0.5706
0.570605
0.57061
0.57061
0.570615
0.57062
0.570625
0.57063
0.57063
0.570635
0.57064
0.570645
0.570651
0.570651
0.570656
0.570661
0.570667
0.570672
0.570672
0.570678
0.570683
0.570689
0.570694
0.570694
0.5707
0.570706
0.570711
0.570717
0.570717
0.570723
0.570729
0.570735
0.570741
0.570741
0.570747
0.570753
0.570759
0.570765
0.570765
0.570771
0.570777
0.570783
0.570789
0.570789
0.570796
0.570802
0.570808
0.570815
0.570815
0.570821
0.570828
0.570834
0.570841
0.570841
0.570847
0.570854
0.570861
0.570867
0.570867
0.570874
0.570881
0.570888
0.570895
0.570895
0.570901
0.570908
0.570915
0.570922
0.570922
0.570929
0.570937
0.570944
0.570951
0.570951
0.570958
0.570965
0.570973
0.57098
0.57098
0.570987
0.570995
0.571002
0.57101
0.57101
0.571017
0.571025
0.571032
0.57104
0.57104
0.571048
0.571056
0.571063
0.571071
0.571071
0.571079
0.571087
0.571095
0.571103
0.571103
0.571111
0.571119
0.571127
0.571135
0.571135
0.571143
0.571151
0.57116
0.571168
0.571168
0.571176
0.571184
0.571193
0.571201
0.571201
0.57121
0.571218
0.571227
0.571235
0.571235
0.571244
0.571253
0.571261
0.57127
0.57127
0.571279
0.571288
0.571297
0.571305
0.571305
0.571314
0.571323
0.571332
0.571341
0.571341
0.571351
0.57136
0.571369
0.571378
0.571378
0.571387
0.571397
0.571406
0.571415
0.571415
0.571425
0.571434
0.571444
0.571453
0.571453
0.571463
0.571472
0.571482
0.571492
0.571492
0.571501
0.571511
0.571521
0.571531
0.571531
0.57154
0.57155
0.57156
0.57157
0.57157
0.57158
0.57159
0.5716
0.57161
0.57161
0.571621
0.571631
0.571641
0.571651
0.571651
0.571662
0.571672
0.571682
0.571693
0.571693
0.571703
0.571714
0.571724
0.571735
0.571735
0.571746
0.571756
0.571767
0.571778
0.571778
0.571788
0.571799
0.57181
0.571821
0.571821
0.571832
0.571843
0.571854
0.571865
0.571865
0.571876
0.571887
0.571898
0.571909
0.571909
0.571921
0.571932
0.571943
0.571955
0.571955
0.571966
0.571977
0.571989
0.572
0.572
0.572012
0.572023
0.572035
0.572047
0.572047
0.572058
0.57207
0.572082
0.572094
0.572094
0.572105
0.572117
0.572129
0.572141
0.572141
0.572153
0.572165
0.572177
0.572189
0.572189
0.572201
0.572213
0.572226
0.572238
0.572238
0.57225
0.572263
0.572275
0.572287
0.572287
0.5723
0.572312
0.572325
0.572337
0.572337
0.57235
0.572362
0.572375
0.572388
0.572388
0.5724
0.572413
0.572426
0.572439
0.572439
0.572452
0.572464
0.572477
0.57249
0.57249
0.572503
0.572516
0.57253
0.572543
0.572543
0.572556
0.572569
0.572582
0.572596
0.572596
0.572609
0.572622
0.572636
0.572649
0.572649
0.572662
0.572676
0.572689
0.572703
0.572703
0.572717
0.57273
0.572744
0.572758
0.572758
0.572771
0.572785
0.572799
0.572813
0.572813
0.572827
0.572841
0.572855
0.572869
0.572869
0.572883
0.572897
0.572911
0.572925
0.572925
0.572939
0.572953
0.572967
0.572982
0.572982
0.572996
0.57301
0.573025
0.573039
0.573039
0.573054
0.573068
0.573083
0.573097
0.573097
0.573112
0.573127
0.573141
0.573156
0.573156
0.573171
0.573185
0.5732
0.573215
0.573215
0.57323
0.573245
0.573259
0.573274
0.573274
0.573289
0.573304
0.573318
0.573333
0.573333
0.573347
0.573361
0.573375
0.573388
0.573388
0.573401
0.573414
0.573427
0.57344
0.57344
0.573452
0.573464
0.573477
0.573489
0.573489
0.573501
0.573513
0.573525
0.573537
0.573537
0.57355
0.573562
0.573574
0.573586
0.573586
0.573599
0.573611
0.573623
0.573636
0.573636
0.573648
0.573661
0.573673
0.573685
0.573685
0.573698
0.57371
0.573723
0.573736
0.573736
0.573748
0.573761
0.573773
0.573786
0.573786
0.573799
0.573812
0.573824
0.573837
0.573837
0.57385
0.573863
0.573876
0.573888
0.573888
0.573901
0.573914
0.573927
0.57394
0.57394
0.573953
0.573966
0.573979
0.573992
0.573992
0.574005
0.574019
0.574032
0.574045
0.574045
0.574058
0.574071
0.574085
0.574098
0.574098
0.574111
0.574125
0.574138
0.574151
0.574151
0.574165
0.574178
0.574192
0.574205
0.574205
0.574219
0.574232
0.574246
0.574259
0.574259
0.574273
0.574287
0.5743
0.574314
0.574314
0.574328
0.574341
0.574355
0.574369
0.574369
0.574383
0.574397
0.57441
0.574424
0.574424
0.574438
0.574452
0.574466
0.57448
0.57448
0.574494
0.574508
0.574522
0.574536
0.574536
0.57455
0.574564
0.574579
0.574593
0.574593
0.574607
0.574621
0.574636
0.57465
0.57465
0.574664
0.574678
0.574693
0.574707
0.574707
0.574722
0.574736
0.57475
0.574765
0.574765
0.574779
0.574794
0.574809
0.574823
0.574823
0.574838
0.574852
0.574867
0.574882
0.574882
0.574896
0.574911
0.574926
0.574941
0.574941
0.574955
0.57497
0.574985
0.575
0.575
0.575015
0.57503
0.575045
0.57506
0.57506
0.575075
0.57509
0.575105
0.57512
0.57512
0.575135
0.57515
0.575165
0.57518
0.57518
0.575195
0.57521
0.575226
0.575241
0.575241
0.575256
0.575272
0.575287
0.575302
0.575302
0.575318
0.575333
0.575348
0.575364
0.575364
0.575379
0.575395
0.57541
0.575426
0.575426
0.575441
0.575457
0.575472
0.575488
0.575488
0.575504
0.575519
0.575535
0.575551
0.575551
0.575567
0.575582
0.575598
0.575614
0.575614
0.57563
0.575646
0.575662
0.575677
0.575677
0.575693
0.575709
0.575725
0.575741
0.575741
0.575757
0.575773
0.575789
0.575805
0.575805
0.575822
0.575838
0.575854
0.57587
0.57587
0.575886
0.575903
0.575919
0.575935
0.575935
0.575951
0.575968
0.575984
0.576
0.576
0.576017
0.576033
0.57605
0.576066
0.576066
0.576082
0.576099
0.576116
0.576132
0.576132
0.576149
0.576165
0.576182
0.576198
0.576198
0.576215
0.576232
0.576249
0.576265
0.576265
0.576282
0.576299
0.576316
0.576332
0.576332
0.576349
0.576366
0.576383
0.5764
0.5764
0.576417
0.576434
0.576451
0.576468
0.576468
0.576485
0.576502
0.576519
0.576536
0.576536
0.576553
0.57657
0.576587
0.576604
0.576604
0.576622
0.576639
0.576656
0.576673
0.576673
0.576691
0.576708
0.576725
0.576743
0.576743
0.57676
0.576777
0.576795
0.576812
0.576812
0.57683
0.576847
0.576865
0.576882
0.576882
0.5769
0.576917
0.576935
0.576952
0.576952
0.57697
0.576988
0.577005
0.577023
0.577023
0.577041
0.577058
0.577076
0.577094
0.577094
0.577112
0.577129
0.577147
0.577165
0.577165
0.577182
0.5772
0.577218
0.577235
0.577235
0.577252
0.577269
0.577286
0.577303
0.577303
0.577319
0.577335
0.577351
0.577367
0.577367
0.577382
0.577397
0.577412
0.577426
0.577426
0.577441
0.577455
0.57747
0.577484
0.577484
0.577498
0.577512
0.577526
0.57754
0.57754
0.577554
0.577568
0.577583
0.577597
0.577597
0.577611
0.577625
0.577639
0.577653
0.577653
0.577667
0.577682
0.577696
0.57771
0.57771
0.577724
0.577738
0.577753
0.577767
0.577767
0.577781
0.577795
0.57781
0.577824
0.577824
0.577838
0.577853
0.577867
0.577881
0.577881
0.577896
0.57791
0.577925
0.577939
0.577939
0.577954
0.577968
0.577982
0.577997
0.577997
0.578011
0.578026
0.578041
0.578055
0.578055
0.57807
0.578084
0.578099
0.578113
0.578113
0.578128
0.578143
0.578157
0.578172
0.578172
0.578187
0.578201
0.578216
0.578231
0.578231
0.578245
0.57826
0.578275
0.57829
0.57829
0.578304
0.578319
0.578334
0.578349
0.578349
0.578364
0.578378
0.578393
0.578408
0.578408
0.578423
0.578438
0.578453
0.578468
0.578468
0.578483
0.578498
0.578513
0.578528
0.578528
0.578543
0.578558
0.578573
0.578588
0.578588
0.578603
0.578618
0.578633
0.578648
0.578648
0.578663
0.578678
0.578693
0.578708
0.578708
0.578723
0.578739
0.578754
0.578769
0.578769
0.578784
0.578799
0.578815
0.57883
0.57883
0.578845
0.57886
0.578876
0.578891
0.578891
0.578906
0.578922
0.578937
0.578952
0.578952
0.578968
0.578983
0.578998
0.579014
0.579014
0.579029
0.579045
0.57906
0.579075
0.579075
0.579091
0.579106
0.579122
0.579137
0.579137
0.579153
0.579168
0.579184
0.579199
0.579199
0.579215
0.579231
0.579246
0.579262
0.579262
0.579277
0.579293
0.579309
0.579324
0.579324
0.57934
0.579356
0.579371
0.579387
0.579387
0.579403
0.579418
0.579434
0.57945
0.57945
0.579466
0.579482
0.579497
0.579513
0.579513
0.579529
0.579545
0.579561
0.579576
0.579576
0.579592
0.579608
0.579624
0.57964
0.57964
0.579656
0.579672
0.579688
0.579704
0.579704
0.57972
0.579736
0.579752
0.579768
0.579768
0.579784
0.5798
0.579816
0.579832
0.579832
0.579848
0.579864
0.57988
0.579896
0.579896
0.579912
0.579928
0.579944
0.579961
0.579961
0.579977
0.579993
0.580009
0.580025
0.580025
0.580041
0.580057
0.580072
0.580088
0.580088
0.580104
0.580119
0.580134
0.580149
0.580149
0.580164
0.580178
0.580193
0.580207
0.580207
0.580221
0.580235
0.580248
0.580262
0.580262
0.580275
0.580288
0.580301
0.580314
0.580314
0.580326
0.580339
0.580352
0.580364
0.580364
0.580377
0.58039
0.580402
0.580415
0.580415
0.580427
0.58044
0.580452
0.580465
0.580465
0.580477
0.58049
0.580502
0.580515
0.580515
0.580528
0.58054
0.580553
0.580565
0.580565
0.580578
0.580591
0.580603
0.580616
0.580616
0.580628
0.580641
0.580654
0.580666
0.580666
0.580679
0.580692
0.580704
0.580717
0.580717
0.58073
0.580742
0.580755
0.580768
0.580768
0.580781
0.580793
0.580806
0.580819
0.580819
0.580832
0.580844
0.580857
0.58087
0.58087
0.580883
0.580895
0.580908
0.580921
0.580921
0.580934
0.580947
0.580959
0.580972
0.580972
0.580985
0.580998
0.581011
0.581024
0.581024
0.581036
0.581049
0.581062
0.581075
0.581075
0.581088
0.581101
0.581114
0.581127
0.581127
0.58114
0.581153
0.581166
0.581178
0.581178
0.581191
0.581204
0.581217
0.58123
0.58123
0.581243
0.581256
0.581269
0.581282
0.581282
0.581295
0.581308
0.581321
0.581334
0.581334
0.581347
0.58136
0.581373
0.581386
0.581386
0.5814
0.581413
0.581426
0.581439
0.581439
0.581452
0.581465
0.581478
0.581491
0.581491
0.581504
0.581517
0.581531
0.581544
0.581544
0.581557
0.58157
0.581583
0.581596
0.581596
0.581609
0.581623
0.581636
0.581649
0.581649
0.581662
0.581675
0.581689
0.581702
0.581702
0.581715
0.581728
0.581742
0.581755
0.581755
0.581768
0.581781
0.581795
0.581808
0.581808
0.581821
0.581834
0.581848
0.581861
0.581861
0.581874
0.581888
0.581901
0.581914
0.581914
0.581928
0.581941
0.581954
0.581968
0.581968
0.581981
0.581994
0.582008
0.582021
0.582021
0.582034
0.582048
0.582061
0.582074
0.582074
0.582087
0.5821
0.582113
0.582126
0.582126
0.582139
0.582151
0.582164
0.582176
0.582176
0.582188
0.5822
0.582212
0.582224
0.582224
0.582236
0.582247
0.582258
0.582269
0.582269
0.58228
0.582291
0.582302
0.582313
0.582313
0.582323
0.582334
0.582344
0.582354
0.582354
0.582365
0.582375
0.582385
0.582396
0.582396
0.582406
0.582416
0.582426
0.582436
0.582436
0.582447
0.582457
0.582467
0.582477
0.582477
0.582488
0.582498
0.582508
0.582518
0.582518
0.582529
0.582539
0.582549
0.582559
0.582559
0.58257
0.58258
0.58259
0.5826
0.5826
0.582611
0.582621
0.582631
0.582642
0.582642
0.582652
0.582662
0.582672
0.582683
0.582683
0.582693
0.582703
0.582714
0.582724
0.582724
0.582734
0.582745
0.582755
0.582765
0.582765
0.582776
0.582786
0.582796
0.582807
0.582807
0.582817
0.582827
0.582838
0.582848
0.582848
0.582859
0.582869
0.582879
0.58289
0.58289
0.5829
0.58291
0.582921
0.582931
0.582931
0.582942
0.582952
0.582962
0.582973
0.582973
0.582983
0.582994
0.583004
0.583014
0.583014
0.583025
0.583035
0.583046
0.583056
0.583056
0.583067
0.583077
0.583088
0.583098
0.583098
0.583109
0.583119
0.583129
0.58314
0.58314
0.58315
0.583161
0.583171
0.583182
0.583182
0.583192
0.583203
0.583213
0.583224
0.583224
0.583234
0.583245
0.583255
0.583266
0.583266
0.583276
0.583287
0.583298
0.583308
0.583308
0.583319
0.583329
0.58334
0.58335
0.58335
0.583361
0.583371
0.583382
0.583393
0.583393
0.583403
0.583414
0.583424
0.583435
0.583435
0.583445
0.583456
0.583466
0.583477
0.583477
0.583487
0.583498
0.583508
0.583519
0.583519
0.583529
0.583539
0.58355
0.58356
0.58356
0.58357
0.58358
0.58359
0.5836
0.5836
0.583609
0.583619
0.583628
0.583638
0.583638
0.583647
0.583656
0.583665
0.583674
0.583674
0.583683
0.583691
0.5837
0.583708
0.583708
0.583717
0.583725
0.583733
0.583742
0.583742
0.58375
0.583758
0.583766
0.583774
0.583774
0.583782
0.58379
0.583798
0.583806
0.583806
0.583814
0.583822
0.58383
0.583838
0.583838
0.583846
0.583854
0.583862
0.58387
0.58387
0.583878
0.583886
0.583894
0.583902
0.583902
0.58391
0.583918
0.583926
0.583934
0.583934
0.583942
0.58395
0.583958
0.583966
0.583966
0.583974
0.583982
0.58399
0.583998
0.583998
0.584006
0.584014
0.584022
0.58403
0.58403
0.584038
0.584046
0.584055
0.584063
0.584063
0.584071
0.584079
0.584087
0.584095
0.584095
0.584103
0.584111
0.584119
0.584127
0.584127
0.584135
0.584143
0.584151
0.584159
0.584159
0.584167
0.584175
0.584184
0.584192
0.584192
0.5842
0.584208
0.584216
0.584224
0.584224
0.584232
0.58424
0.584248
0.584256
0.584256
0.584264
0.584273
0.584281
0.584289
0.584289
0.584297
0.584305
0.584313
0.584321
0.584321
0.584329
0.584338
0.584346
0.584354
0.584354
0.584362
0.58437
0.584378
0.584386
0.584386
0.584395
0.584403
0.584411
0.584419
0.584419
0.584427
0.584435
0.584443
0.584452
0.584452
0.58446
0.584468
0.584476
0.584484
0.584484
0.584492
0.584501
0.584509
0.584517
0.584517
0.584525
0.584533
0.584541
0.584549
0.584549
0.584557
0.584565
0.584572
0.58458
0.58458
0.584588
0.584595
0.584603
0.58461
0.58461
0.584618
0.584625
0.584632
0.584639
0.584639
0.584646
0.584653
0.58466
0.584667
0.584667
0.584674
0.58468
0.584687
0.584693
0.584693
0.5847
0.584706
0.584713
0.584719
0.584719
0.584725
0.584731
0.584738
0.584744
0.584744
0.58475
0.584756
0.584762
0.584768
0.584768
0.584774
0.584781
0.584787
0.584793
0.584793
0.584799
0.584805
0.584811
0.584817
0.584817
0.584823
0.584829
0.584836
0.584842
0.584842
0.584848
0.584854
0.58486
0.584866
0.584866
0.584872
0.584878
0.584884
0.584891
0.584891
0.584897
0.584903
0.584909
0.584915
0.584915
0.584921
0.584927
0.584933
0.58494
0.58494
0.584946
0.584952
0.584958
0.584964
0.584964
0.58497
0.584976
0.584983
0.584989
0.584989
0.584995
0.585001
0.585007
0.585013
0.585013
0.585019
0.585026
0.585032
0.585038
0.585038
0.585044
0.58505
0.585056
0.585063
0.585063
0.585069
0.585075
0.585081
0.585087
0.585087
0.585094
0.5851
0.585106
0.585112
0.585112
0.585118
0.585124
0.585131
0.585137
0.585137
0.585143
0.585149
0.585155
0.585162
0.585162
0.585168
0.585174
0.58518
0.585186
0.585186
0.585193
0.585199
0.585205
0.585211
0.585211
0.585217
0.585224
0.58523
0.585236
0.585236
0.585242
0.585248
0.585254
0.58526
0.58526
0.585266
0.585272
0.585278
0.585284
0.585284
0.58529
0.585296
0.585302
0.585307
0.585307
0.585313
0.585319
0.585324
0.58533
0.58533
0.585335
0.58534
0.585346
0.585351
0.585351
0.585356
0.585361
0.585366
0.585371
0.585371
0.585376
0.585381
0.585386
0.585391
0.585391
0.585396
0.585401
0.585405
0.58541
0.58541
0.585415
0.585419
0.585424
0.585429
0.585429
0.585433
0.585438
0.585443
0.585447
0.585447
0.585452
0.585456
0.585461
0.585466
0.585466
0.58547
0.585475
0.58548
0.585484
0.585484
0.585489
0.585493
0.585498
0.585503
0.585503
0.585507
0.585512
0.585516
0.585521
0.585521
0.585526
0.58553
0.585535
0.58554
0.58554
0.585544
0.585549
0.585553
0.585558
0.585558
0.585563
0.585567
0.585572
0.585577
0.585577
0.585581
0.585586
0.58559
0.585595
0.585595
0.5856
0.585604
0.585609
0.585614
0.585614
0.585618
0.585623
0.585628
0.585632
0.585632
0.585637
0.585642
0.585646
0.585651
0.585651
0.585656
0.58566
0.585665
0.58567
0.58567
0.585674
0.585679
0.585684
0.585688
0.585688
0.585693
0.585698
0.585702
0.585707
0.585707
0.585712
0.585716
0.585721
0.585726
0.585726
0.58573
0.585735
0.58574
0.585744
0.585744
0.585749
0.585754
0.585758
0.585763
0.585763
0.585768
0.585772
0.585777
0.585781
0.585781
0.585786
0.58579
0.585794
0.585799
0.585799
0.585803
0.585807
0.585812
0.585816
0.585816
0.58582
0.585824
0.585828
0.585832
0.585832
0.585836
0.58584
0.585844
0.585848
0.585848
0.585852
0.585855
0.585859
0.585863
0.585863
0.585867
0.58587
0.585874
0.585877
0.585877
0.585881
0.585885
0.585888
0.585892
0.585892
0.585895
0.585899
0.585902
0.585906
0.585906
0.585909
0.585913
0.585916
0.58592
0.58592
0.585923
0.585926
0.58593
0.585933
0.585933
0.585937
0.58594
0.585944
0.585947
0.585947
0.585951
0.585954
0.585958
0.585961
0.585961
0.585965
0.585968
0.585972
0.585975
0.585975
0.585979
0.585982
0.585986
0.585989
0.585989
0.585993
0.585996
0.586
0.586003
0.586003
0.586007
0.58601
0.586014
0.586017
0.586017
0.586021
0.586024
0.586028
0.586031
0.586031
0.586035
0.586038
0.586042
0.586045
0.586045
0.586049
0.586052
0.586056
0.586059
0.586059
0.586063
0.586066
0.58607
0.586073
0.586073
0.586077
0.58608
0.586084
0.586087
0.586087
0.586091
0.586095
0.586098
0.586102
0.586102
0.586105
0.586109
0.586112
0.586116
0.586116
0.586119
0.586123
0.586126
0.586129
0.586129
0.586133
0.586136
0.58614
0.586143
0.586143
0.586146
0.58615
0.586153
0.586156
0.586156
0.586159
0.586163
0.586166
0.586169
0.586169
0.586172
0.586175
0.586178
0.586181
0.586181
0.586184
0.586187
0.58619
0.586193
0.586193
0.586196
0.586199
0.586202
0.586204
0.586204
0.586207
0.58621
0.586213
0.586215
0.586215
0.586218
0.586221
0.586224
0.586226
0.586226
0.586229
0.586231
0.586234
0.586237
0.586237
0.586239
0.586242
0.586245
0.586247
0.586247
0.58625
0.586253
0.586255
0.586258
0.586258
0.58626
0.586263
0.586266
0.586268
0.586268
0.586271
0.586274
0.586276
0.586279
0.586279
0.586282
0.586284
0.586287
0.586289
0.586289
0.586292
0.586295
0.586297
0.5863
0.5863
0.586303
0.586305
0.586308
0.586311
0.586311
0.586313
0.586316
0.586319
0.586321
0.586321
0.586324
0.586327
0.586329
0.586332
0.586332
0.586335
0.586337
0.58634
0.586343
0.586343
0.586345
0.586348
0.586351
0.586354
0.586354
0.586356
0.586359
0.586362
0.586364
0.586364
0.586367
0.58637
0.586372
0.586375
0.586375
0.586378
0.58638
0.586383
0.586386
0.586386
0.586388
0.586391
0.586393
0.586396
0.586396
0.586399
0.586401
0.586404
0.586406
0.586406
0.586409
0.586411
0.586414
0.586416
0.586416
0.586418
0.586421
0.586423
0.586426
0.586426
0.586428
0.58643
0.586433
0.586435
0.586435
0.586437
0.586439
0.586442
0.586444
0.586444
0.586446
0.586448
0.58645
0.586452
0.586452
0.586454
0.586457
0.586459
0.586461
0.586461
0.586463
0.586465
0.586467
0.586469
0.586469
0.586471
0.586473
0.586475
0.586477
0.586477
0.586479
0.586481
0.586483
0.586485
0.586485
0.586487
0.586489
0.586491
0.586493
0.586493
0.586495
0.586497
0.586499
0.586501
0.586501
0.586503
0.586506
0.586508
0.58651
0.58651
0.586512
0.586514
0.586516
0.586518
0.586518
0.58652
0.586522
0.586524
0.586526
0.586526
0.586528
0.58653
0.586532
0.586534
0.586534
0.586536
0.586538
0.58654
0.586543
0.586543
0.586545
0.586547
0.586549
0.586551
0.586551
0.586553
0.586555
0.586557
0.586559
0.586559
0.586561
0.586563
0.586565
0.586568
0.586568
0.58657
0.586572
0.586574
0.586576
0.586576
0.586578
0.58658
0.586582
0.586584
0.586584
0.586586
0.586588
0.58659
0.586592
0.586592
0.586594
0.586596
0.586598
0.5866
0.5866
0.586602
0.586603
0.586605
0.586607
0.586607
0.586609
0.586611
0.586613
0.586614
0.586614
0.586616
0.586618
0.58662
0.586622
0.586622
0.586623
0.586625
0.586627
0.586628
0.586628
0.58663
0.586632
0.586633
0.586635
0.586635
0.586637
0.586638
0.58664
0.586642
0.586642
0.586643
0.586645
0.586647
0.586648
0.586648
0.58665
0.586651
0.586653
0.586655
0.586655
0.586656
0.586658
0.586659
0.586661
0.586661
0.586663
0.586664
0.586666
0.586668
0.586668
0.586669
0.586671
0.586672
0.586674
0.586674
0.586676
0.586677
0.586679
0.586681
0.586681
0.586682
0.586684
0.586685
0.586687
0.586687
0.586689
0.58669
0.586692
0.586694
0.586694
0.586695
0.586697
0.586699
0.5867
0.5867
0.586702
0.586704
0.586705
0.586707
0.586707
0.586709
0.58671
0.586712
0.586714
0.586714
0.586715
0.586717
0.586719
0.58672
0.58672
0.586722
0.586724
0.586725
0.586727
0.586727
0.586728
0.58673
0.586732
0.586733
0.586733
0.586735
0.586736
0.586738
0.58674
0.58674
0.586741
0.586743
0.586744
0.586746
0.586746
0.586747
0.586749
0.58675
0.586752
0.586752
0.586753
0.586755
0.586756
0.586758
0.586758
0.586759
0.58676
0.586762
0.586763
0.586763
0.586765
0.586766
0.586767
0.586769
0.586769
0.58677
0.586772
0.586773
0.586774
0.586774
0.586776
0.586777
0.586778
0.58678
0.58678
0.586781
0.586782
0.586784
0.586785
0.586785
0.586786
0.586788
0.586789
0.58679
0.58679
0.586792
0.586793
0.586794
0.586796
0.586796
0.586797
0.586798
0.5868
0.586801
0.586801
0.586802
0.586804
0.586805
0.586806
0.586806
0.586808
0.586809
0.586811
0.586812
0.586812
0.586813
0.586815
0.586816
0.586817
0.586817
0.586819
0.58682
0.586822
0.586823
0.586823
0.586824
0.586826
0.586827
0.586828
0.586828
0.58683
0.586831
0.586833
0.586834
0.586834
0.586835
0.586837
0.586838
0.586839
0.586839
0.586841
0.586842
0.586844
0.586845
0.586845
0.586846
0.586848
0.586849
0.58685
0.58685
0.586852
0.586853
0.586854
0.586855
0.586855
0.586857
0.586858
0.586859
0.586861
0.586861
0.586862
0.586863
0.586864
0.586866
0.586866
0.586867
0.586868
0.586869
0.586871
0.586871
0.586872
0.586873
0.586874
0.586876
0.586876
0.586877
0.586878
0.586879
0.58688
0.58688
0.586882
0.586883
0.586884
0.586885
0.586885
0.586886
0.586887
0.586889
0.58689
0.58689
0.586891
0.586892
0.586893
0.586894
0.586894
0.586896
0.586897
0.586898
0.586899
0.586899
0.5869
0.586901
0.586903
0.586904
0.586904
0.586905
0.586906
0.586907
0.586909
0.586909
0.58691
0.586911
0.586912
0.586913
0.586913
0.586914
0.586916
0.586917
0.586918
0.586918
0.586919
0.586921
0.586922
0.586923
0.586923
0.586924
0.586925
0.586927
0.586928
0.586928
0.586929
0.58693
0.586931
0.586933
0.586933
0.586934
0.586935
0.586936
0.586937
0.586937
0.586939
0.58694
0.586941
0.586942
0.586942
0.586943
0.586945
0.586946
0.586947
0.586947
0.586948
0.586949
0.58695
0.586952
0.586952
0.586953
0.586954
0.586955
0.586956
0.586956
0.586957
0.586958
0.58696
0.586961
0.586961
0.586962
0.586963
0.586964
0.586965
0.586965
0.586966
0.586967
0.586969
0.58697
0.58697
0.586971
0.586972
0.586973
0.586974
0.586974
0.586975
0.586976
0.586977
0.586978
0.586978
0.586979
0.58698
0.586982
0.586983
0.586983
0.586984
0.586985
0.586986
0.586987
0.586987
0.586988
0.586989
0.58699
0.586991
0.586991
0.586992
0.586993
0.586995
0.586996
0.586996
0.586997
0.586998
0.586999
0.587
0.587
0.587001
0.587002
0.587003
0.587005
0.587005
0.587006
0.587007
0.587008
0.587009
0.587009
0.58701
0.587011
0.587012
0.587013
0.587013
0.587015
0.587016
0.587017
0.587018
0.587018
0.587019
0.58702
0.587021
0.587022
0.587022
0.587024
0.587025
0.587026
0.587027
0.587027
0.587028
0.587029
0.58703
0.587031
0.587031
0.587032
0.587033
0.587035
0.587036
0.587036
0.587037
0.587038
0.587039
0.58704
0.58704
0.587041
0.587042
0.587043
0.587044
0.587044
0.587045
0.587046
0.587048
0.587049
0.587049
0.58705
0.587051
0.587052
0.587053
0.587053
0.587054
0.587055
0.587056
0.587057
0.587057
0.587058
0.587059
0.58706
0.587061
0.587061
0.587062
0.587063
0.587064
0.587066
0.587066
0.587067
0.587068
0.587069
0.58707
0.58707
0.587071
0.587072
0.587073
0.587074
0.587074
0.587075
0.587076
0.587077
0.587078
0.587078
0.587079
0.58708
0.587081
0.587083
0.587083
0.587084
0.587085
0.587086
0.587087
0.587087
0.587088
0.587089
0.58709
0.587091
0.587091
0.587092
0.587093
0.587095
0.587096
0.587096
0.587097
0.587098
0.587099
0.5871
0.5871
0.587101
0.587102
0.587103
0.587104
0.587104
0.587105
0.587106
0.587108
0.587109
0.587109
0.58711
0.587111
0.587112
0.587113
0.587113
0.587114
0.587115
0.587116
0.587117
0.587117
0.587118
0.587119
0.58712
0.587122
0.587122
0.587123
0.587124
0.587125
0.587126
0.587126
0.587127
0.587128
0.587129
0.58713
0.58713
0.587131
0.587132
0.587133
0.587135
0.587135
0.587136
0.587137
0.587138
0.587139
0.587139
0.58714
0.587141
0.587142
0.587143
0.587143
0.587144
0.587145
0.587146
0.587147
0.587147
0.587148
0.587149
0.587151
0.587152
0.587152
0.587153
0.587154
0.587155
0.587156
0.587156
0.587157
0.587158
0.587159
0.58716
0.58716
0.587161
0.587162
0.587164
0.587165
0.587165
0.587166
0.587167
0.587168
0.587169
0.587169
0.58717
0.587171
0.587172
0.587174
0.587174
0.587175
0.587176
0.587177
0.587178
0.587178
0.587179
0.58718
0.587181
0.587182
0.587182
0.587183
0.587185
0.587186
0.587187
0.587187
0.587188
0.587189
0.58719
0.587191
0.587191
0.587192
0.587193
0.587194
0.587196
0.587196
0.587197
0.587198
0.587199
0.5872
0.5872
0.587201
0.587202
0.587203
0.587205
0.587205
0.587206
0.587207
0.587208
0.587209
0.587209
0.58721
0.587211
0.587212
0.587213
0.587213
0.587215
0.587216
0.587217
0.587218
0.587218
0.587219
0.58722
0.587221
0.587222
0.587222
0.587223
0.587225
0.587226
0.587227
0.587227
0.587228
0.587229
0.58723
0.587231
0.587231
0.587232
0.587234
0.587235
0.587236
0.587236
0.587237
0.587238
0.587239
0.58724
0.58724
0.587242
0.587243
0.587244
0.587245
0.587245
0.587246
0.587247
0.587248
0.58725
0.58725
0.587251
0.587252
0.587253
0.587254
0.587254
0.587255
0.587257
0.587258
0.587259
0.587259
0.58726
0.587261
0.587262
0.587264
0.587264
0.587265
0.587266
0.587267
0.587268
0.587268
0.587269
0.58727
0.587272
0.587273
0.587273
0.587274
0.587275
0.587276
0.587277
0.587277
0.587279
0.58728
0.587281
0.587282
0.587282
0.587283
0.587285
0.587286
0.587287
0.587287
0.587288
0.587289
0.58729
0.587292
0.587292
0.587293
0.587294
0.587295
0.587296
0.587296
0.587298
0.587299
0.5873
0.587301
0.587301
0.587302
0.587304
0.587305
0.587306
0.587306
0.587307
0.587308
0.58731
0.587311
0.587311
0.587312
0.587313
0.587314
0.587316
0.587316
0.587317
0.587318
0.587319
0.58732
0.58732
0.587322
0.587323
0.587324
0.587325
0.587325
0.587326
0.587328
0.587329
0.58733
0.58733
0.587331
0.587333
0.587334
0.587335
0.587335
0.587336
0.587338
0.587339
0.58734
0.58734
0.587341
0.587342
0.587344
0.587345
0.587345
0.587346
0.587347
0.587349
0.58735
0.58735
0.587351
0.587352
0.587353
0.587355
0.587355
0.587356
0.587357
0.587359
0.58736
0.58736
0.587361
0.587362
0.587364
0.587365
0.587365
0.587366
0.587367
0.587369
0.58737
0.58737
0.587371
0.587373
0.587374
0.587375
0.587375
0.587376
0.587378
0.587379
0.58738
0.58738
0.587381
0.587383
0.587384
0.587385
0.587385
0.587387
0.587388
0.587389
0.58739
0.58739
0.587392
0.587393
0.587394
0.587396
0.587396
0.587397
0.587398
0.587399
0.587401
0.587401
0.587402
0.587403
0.587405
0.587406
0.587406
0.587407
0.587409
0.58741
0.587411
0.587411
0.587413
0.587414
0.587415
0.587416
0.587416
0.587418
0.587419
0.58742
0.587422
0.587422
0.587423
0.587424
0.587426
0.587427
0.587427
0.587428
0.58743
0.587431
0.587432
0.587432
0.587434
0.587435
0.587436
0.587438
0.587438
0.587439
0.58744
0.587442
0.587443
0.587443
0.587444
0.587446
0.587447
0.587449
0.587449
0.58745
0.587451
0.587453
0.587454
0.587454
0.587455
0.587457
0.587458
0.587459
0.587459
0.587461
0.587462
0.587464
0.587465
0.587465
0.587466
0.587468
0.587469
0.58747
0.58747
0.587472
0.587473
0.587475
0.587476
0.587476
0.587477
0.587479
0.58748
0.587482
0.587482
0.587483
0.587484
0.587486
0.587487
0.587487
0.587489
0.58749
0.587491
0.587493
0.587493
0.587494
0.587496
0.587497
0.587498
0.587498
0.5875
0.587501
0.587503
0.587504
0.587504
0.587506
0.587507
0.587508
0.58751
0.58751
0.587511
0.587513
0.587514
0.587515
0.587515
0.587517
0.587518
0.58752
0.587521
0.587521
0.587523
0.587524
0.587525
0.587527
0.587527
0.587528
0.58753
0.587531
0.587533
0.587533
0.587534
0.587536
0.587537
0.587539
0.587539
0.58754
0.587542
0.587543
0.587545
0.587545
0.587546
0.587548
0.587549
0.587551
0.587551
0.587552
0.587554
0.587555
0.587557
0.587557
0.587558
0.58756
0.587561
0.587562
0.587562
0.587564
0.587565
0.587567
0.587568
0.587568
0.58757
0.587571
0.587573
0.587574
0.587574
0.587576
0.587578
0.587579
0.587581
0.587581
0.587582
0.587584
0.587585
0.587587
0.587587
0.587588
0.58759
0.587591
0.587593
0.587593
0.587594
0.587596
0.587597
0.587599
0.587599
0.5876
0.587602
0.587603
0.587605
0.587605
0.587606
0.587608
0.58761
0.587611
0.587611
0.587613
0.587614
0.587616
0.587617
0.587617
0.587619
0.58762
0.587622
0.587624
0.587624
0.587625
0.587627
0.587628
0.58763
0.58763
0.587632
0.587633
0.587635
0.587636
0.587636
0.587638
0.587639
0.587641
0.587643
0.587643
0.587644
0.587646
0.587647
0.587649
0.587649
0.587651
0.587652
0.587654
0.587656
0.587656
0.587657
0.587659
0.58766
0.587662
0.587662
0.587664
0.587665
0.587667
0.587668
0.587668
0.58767
0.587672
0.587673
0.587675
0.587675
0.587677
0.587678
0.58768
0.587682
0.587682
0.587683
0.587685
0.587686
0.587688
0.587688
0.58769
0.587691
0.587693
0.587695
0.587695
0.587696
0.587698
0.5877
0.587701
0.587701
0.587703
0.587705
0.587706
0.587708
0.587708
0.58771
0.587711
0.587713
0.587714
0.587714
0.587716
0.587718
0.58772
0.587721
0.587721
0.587723
0.587725
0.587726
0.587728
0.587728
0.58773
0.587732
0.587733
0.587735
0.587735
0.587737
0.587738
0.58774
0.587742
0.587742
0.587744
0.587745
0.587747
0.587749
0.587749
0.58775
0.587752
0.587754
0.587756
0.587756
0.587757
0.587759
0.587761
0.587763
0.587763
0.587764
0.587766
0.587768
0.58777
0.58777
0.587771
0.587773
0.587775
0.587777
0.587777
0.587778
0.58778
0.587782
0.587784
0.587784
0.587785
0.587787
0.587789
0.587791
0.587791
0.587792
0.587794
0.587796
0.587798
0.587798
0.587799
0.587801
0.587803
0.587805
0.587805
0.587807
0.587808
0.58781
0.587812
0.587812
0.587814
0.587815
0.587817
0.587819
0.587819
0.587821
0.587823
0.587824
0.587826
0.587826
0.587828
0.58783
0.587832
0.587834