<?xml version="1.0"?>
<VTKFile type="UnstructuredGrid" version="0.1" byte_order="LittleEndian">
<UnstructuredGrid>
<Piece NumberOfPoints="5000" NumberOfCells="4000">
<PointData Scalars="Reaction 0">
<DataArray type="Float32" Name="Reaction 0" format="ascii">
0.340774
0.340774
0.340774
0.340774
0.340774
0.340774
0.340774
0.340775
0.340775
0.340775
0.340775
0.340775
0.340776
0.340776
0.340776
0.340776
0.340777
0.340777
0.340777
0.340778
0.340778
0.340778
0.340779
0.340779
0.34078
0.34078
0.340781
0.340781
0.340782
0.340783
0.340783
0.340784
0.340784
0.340785
0.340786
0.340786
0.340787
0.340788
0.340789
0.34079
0.34079
0.340791
0.340792
0.340793
0.340794
0.340794
0.340795
0.340796
0.340797
0.340798
0.340798
0.3408
0.340801
0.340802
0.340803
0.340803
0.340805
0.340806
0.340808
0.340809
0.340809
0.34081
0.340812
0.340814
0.340815
0.340815
0.340817
0.340818
0.34082
0.340822
0.340822
0.340823
0.340825
0.340827
0.340829
0.340829
0.340831
0.340832
0.340834
0.340836
0.340836
0.340838
0.34084
0.340842
0.340844
0.340844
0.340846
0.340848
0.340851
0.340853
0.340853
0.340855
0.340857
0.340859
0.340862
0.340862
0.340864
0.340866
0.340869
0.340871
0.340871
0.340874
0.340876
0.340879
0.340881
0.340881
0.340884
0.340886
0.340889
0.340892
0.340892
0.340894
0.340897
0.3409
0.340903
0.340903
0.340905
0.340908
0.340911
0.340914
0.340914
0.340917
0.34092
0.340923
0.340926
0.340926
0.340929
0.340932
0.340935
0.340938
0.340938
0.340941
0.340945
0.340948
0.340951
0.340951
0.340955
0.340958
0.340961
0.340965
0.340965
0.340968
0.340971
0.340975
0.340978
0.340978
0.340982
0.340986
0.340989
0.340993
0.340993
0.340996
0.341
0.341004
0.341008
0.341008
0.341011
0.341015
0.341019
0.341023
0.341023
0.341027
0.341031
0.341035
0.341039
0.341039
0.341043
0.341047
0.341051
0.341055
0.341055
0.341059
0.341063
0.341068
0.341072
0.341072
0.341076
0.34108
0.341085
0.341089
0.341089
0.341093
0.341098
0.341102
0.341107
0.341107
0.341111
0.341116
0.34112
0.341125
0.341125
0.34113
0.341134
0.341139
0.341144
0.341144
0.341148
0.341153
0.341158
0.341163
0.341163
0.341168
0.341173
0.341178
0.341183
0.341183
0.341188
0.341193
0.341198
0.341203
0.341203
0.341208
0.341213
0.341218
0.341223
0.341223
0.341229
0.341234
0.341239
0.341245
0.341245
0.34125
0.341255
0.341261
0.341266
0.341266
0.341272
0.341277
0.341283
0.341288
0.341288
0.341294
0.3413
0.341305
0.341311
0.341311
0.341317
0.341322
0.341328
0.341334
0.341334
0.34134
0.341346
0.341352
0.341358
0.341358
0.341364
0.34137
0.341376
0.341382
0.341382
0.341388
0.341394
0.3414
0.341406
0.341406
0.341412
0.341419
0.341425
0.341431
0.341431
0.341438
0.341444
0.34145
0.341457
0.341457
0.341463
0.34147
0.341476
0.341483
0.341483
0.341489
0.341496
0.341503
0.341509
0.341509
0.341516
0.341523
0.341529
0.341536
0.341536
0.341543
0.34155
0.341557
0.341564
0.341564
0.341571
0.341578
0.341585
0.341592
0.341592
0.341599
0.341606
0.341613
0.34162
0.34162
0.341627
0.341634
0.341642
0.341649
0.341649
0.341656
0.341664
0.341671
0.341678
0.341678
0.341686
0.341693
0.341701
0.341708
0.341708
0.341716
0.341723
0.341731
0.341739
0.341739
0.341746
0.341754
0.341762
0.341769
0.341769
0.341777
0.341785
0.341793
0.341801
0.341801
0.341809
0.341817
0.341825
0.341833
0.341833
0.341841
0.341849
0.341857
0.341865
0.341865
0.341873
0.341881
0.341889
0.341898
0.341898
0.341906
0.341914
0.341923
0.341931
0.341931
0.341939
0.341948
0.341956
0.341965
0.341965
0.341973
0.341982
0.34199
0.341999
0.341999
0.342008
0.342016
0.342025
0.342034
0.342034
0.342043
0.342051
0.34206
0.342069
0.342069
0.342078
0.342087
0.342096
0.342105
0.342105
0.342114
0.342123
0.342132
0.342141
0.342141
0.34215
0.342159
0.342168
0.342178
0.342178
0.342187
0.342196
0.342205
0.342215
0.342215
0.342224
0.342233
0.342243
0.342252
0.342252
0.342262
0.342271
0.342281
0.342291
0.342291
0.3423
0.34231
0.342319
0.342329
0.342329
0.342339
0.342349
0.342358
0.342368
0.342368
0.342378
0.342388
0.342398
0.342408
0.342408
0.342418
0.342428
0.342438
0.342448
0.342448
0.342458
0.342468
0.342478
0.342488
0.342488
0.342499
0.342509
0.342519
0.34253
0.34253
0.34254
0.34255
0.342561
0.342571
0.342571
0.342581
0.342592
0.342603
0.342613
0.342613
0.342624
0.342634
0.342645
0.342656
0.342656
0.342666
0.342677
0.342688
0.342699
0.342699
0.342709
0.34272
0.342731
0.342742
0.342742
0.342753
0.342764
0.342775
0.342786
0.342786
0.342797
0.342808
0.342819
0.34283
0.34283
0.342842
0.342853
0.342864
0.342875
0.342875
0.342887
0.342898
0.342909
0.342921
0.342921
0.342932
0.342944
0.342955
0.342967
0.342967
0.342978
0.34299
0.343001
0.343013
0.343013
0.343025
0.343036
0.343048
0.34306
0.34306
0.343072
0.343083
0.343095
0.343107
0.343107
0.343119
0.343131
0.343143
0.343155
0.343155
0.343167
0.343179
0.343191
0.343203
0.343203
0.343216
0.343228
0.34324
0.343252
0.343252
0.343264
0.343277
0.343289
0.343301
0.343301
0.343314
0.343326
0.343339
0.343351
0.343351
0.343364
0.343376
0.343389
0.343401
0.343401
0.343414
0.343427
0.343439
0.343452
0.343452
0.343465
0.343478
0.343491
0.343503
0.343503
0.343516
0.343529
0.343542
0.343555
0.343555
0.343568
0.343581
0.343594
0.343607
0.343607
0.34362
0.343634
0.343647
0.34366
0.34366
0.343673
0.343687
0.3437
0.343713
0.343713
0.343727
0.34374
0.343753
0.343767
0.343767
0.34378
0.343794
0.343807
0.343821
0.343821
0.343835
0.343848
0.343862
0.343876
0.343876
0.343889
0.343903
0.343917
0.343931
0.343931
0.343945
0.343958
0.343972
0.343986
0.343986
0.344
0.344014
0.344028
0.344042
0.344042
0.344056
0.344071
0.344085
0.344099
0.344099
0.344113
0.344127
0.344142
0.344156
0.344156
0.34417
0.344185
0.344199
0.344213
0.344213
0.344228
0.344242
0.344257
0.344271
0.344271
0.344286
0.344301
0.344315
0.34433
0.34433
0.344345
0.344359
0.344374
0.344389
0.344389
0.344404
0.344419
0.344433
0.344448
0.344448
0.344463
0.344478
0.344493
0.344508
0.344508
0.344523
0.344538
0.344554
0.344569
0.344569
0.344584
0.344599
0.344614
0.34463
0.34463
0.344645
0.34466
0.344676
0.344691
0.344691
0.344706
0.344722
0.344737
0.344753
0.344753
0.344768
0.344784
0.3448
0.344815
0.344815
0.344831
0.344847
0.344862
0.344878
0.344878
0.344894
0.34491
0.344925
0.344941
0.344941
0.344957
0.344973
0.344989
0.345005
0.345005
0.345021
0.345037
0.345053
0.345069
0.345069
0.345086
0.345102
0.345118
0.345134
0.345134
0.34515
0.345167
0.345183
0.345199
0.345199
0.345216
0.345232
0.345249
0.345265
0.345265
0.345282
0.345298
0.345315
0.345331
0.345331
0.345348
0.345365
0.345381
0.345398
0.345398
0.345415
0.345432
0.345448
0.345465
0.345465
0.345482
0.345499
0.345516
0.345533
0.345533
0.34555
0.345567
0.345584
0.345601
0.345601
0.345618
0.345635
0.345652
0.34567
0.34567
0.345687
0.345704
0.345721
0.345739
0.345739
0.345756
0.345774
0.345791
0.345808
0.345808
0.345826
0.345843
0.345861
0.345878
0.345878
0.345896
0.345914
0.345931
0.345949
0.345949
0.345967
0.345985
0.346002
0.34602
0.34602
0.346038
0.346056
0.346074
0.346092
0.346092
0.34611
0.346128
0.346146
0.346164
0.346164
0.346182
0.3462
0.346218
0.346236
0.346236
0.346254
0.346273
0.346291
0.346309
0.346309
0.346327
0.346346
0.346364
0.346383
0.346383
0.346401
0.346419
0.346438
0.346456
0.346456
0.346475
0.346494
0.346512
0.346531
0.346531
0.34655
0.346568
0.346587
0.346606
0.346606
0.346625
0.346643
0.346662
0.346681
0.346681
0.3467
0.346719
0.346738
0.346757
0.346757
0.346776
0.346795
0.346814
0.346833
0.346833
0.346853
0.346872
0.346891
0.34691
0.34691
0.34693
0.346949
0.346968
0.346988
0.346988
0.347007
0.347026
0.347046
0.347065
0.347065
0.347085
0.347104
0.347124
0.347144
0.347144
0.347163
0.347183
0.347203
0.347222
0.347222
0.347242
0.347262
0.347282
0.347302
0.347302
0.347322
0.347341
0.347361
0.347381
0.347381
0.347401
0.347421
0.347441
0.347462
0.347462
0.347482
0.347502
0.347522
0.347542
0.347542
0.347562
0.347583
0.347603
0.347623
0.347623
0.347644
0.347664
0.347685
0.347705
0.347705
0.347726
0.347746
0.347767
0.347787
0.347787
0.347808
0.347828
0.347849
0.34787
0.34787
0.347891
0.347911
0.347932
0.347953
0.347953
0.347974
0.347995
0.348016
0.348036
0.348036
0.348057
0.348078
0.348099
0.348121
0.348121
0.348142
0.348163
0.348184
0.348205
0.348205
0.348226
0.348247
0.348269
0.34829
0.34829
0.348311
0.348333
0.348354
0.348376
0.348376
0.348397
0.348418
0.34844
0.348462
0.348462
0.348483
0.348505
0.348526
0.348548
0.348548
0.34857
0.348591
0.348613
0.348635
0.348635
0.348657
0.348679
0.3487
0.348722
0.348722
0.348744
0.348766
0.348788
0.34881
0.34881
0.348832
0.348854
0.348876
0.348899
0.348899
0.348921
0.348943
0.348965
0.348987
0.348987
0.34901
0.349032
0.349054
0.349077
0.349077
0.349099
0.349122
0.349144
0.349167
0.349167
0.349189
0.349212
0.349234
0.349257
0.349257
0.34928
0.349302
0.349325
0.349348
0.349348
0.349371
0.349393
0.349416
0.349439
0.349439
0.349462
0.349485
0.349508
0.349531
0.349531
0.349554
0.349577
0.3496
0.349623
0.349623
0.349646
0.349669
0.349692
0.349716
0.349716
0.349739
0.349762
0.349786
0.349809
0.349809
0.349832
0.349856
0.349879
0.349903
0.349903
0.349926
0.34995
0.349973
0.349997
0.349997
0.35002
0.350044
0.350068
0.350091
0.350091
0.350115
0.350139
0.350163
0.350186
0.350186
0.35021
0.350234
0.350258
0.350282
0.350282
0.350306
0.35033
0.350354
0.350378
0.350378
0.350402
0.350426
0.35045
0.350475
0.350475
0.350499
0.350523
0.350547
0.350572
0.350572
0.350596
0.35062
0.350645
0.350669
0.350669
0.350694
0.350718
0.350743
0.350767
0.350767
0.350792
0.350816
0.350841
0.350866
0.350866
0.35089
0.350915
0.35094
0.350964
0.350964
0.350989
0.351014
0.351039
0.351064
0.351064
0.351089
0.351114
0.351139
0.351164
0.351164
0.351189
0.351214
0.351239
0.351264
0.351264
0.351289
0.351315
0.35134
0.351365
0.351365
0.35139
0.351416
0.351441
0.351466
0.351466
0.351492
0.351517
0.351543
0.351568
0.351568
0.351594
0.351619
0.351645
0.35167
0.35167
0.351696
0.351722
0.351747
0.351773
0.351773
0.351799
0.351825
0.351851
0.351876
0.351876
0.351902
0.351928
0.351954
0.35198
0.35198
0.352006
0.352032
0.352058
0.352084
0.352084
0.35211
0.352137
0.352163
0.352189
0.352189
0.352215
0.352242
0.352268
0.352294
0.352294
0.352321
0.352347
0.352373
0.3524
0.3524
0.352426
0.352453
0.352479
0.352506
0.352506
0.352533
0.352559
0.352586
0.352613
0.352613
0.352639
0.352666
0.352693
0.35272
0.35272
0.352746
0.352773
0.3528
0.352827
0.352827
0.352854
0.352881
0.352908
0.352935
0.352935
0.352962
0.352989
0.353017
0.353044
0.353044
0.353071
0.353098
0.353125
0.353153
0.353153
0.35318
0.353207
0.353235
0.353262
0.353262
0.35329
0.353317
0.353345
0.353372
0.353372
0.3534
0.353427
0.353455
0.353482
0.353482
0.35351
0.353538
0.353566
0.353593
0.353593
0.353621
0.353649
0.353677
0.353705
0.353705
0.353733
0.353761
0.353789
0.353817
0.353817
0.353845
0.353873
0.353901
0.353929
0.353929
0.353957
0.353985
0.354013
0.354042
0.354042
0.35407
0.354098
0.354127
0.354155
0.354155
0.354183
0.354212
0.35424
0.354269
0.354269
0.354297
0.354326
0.354354
0.354383
0.354383
0.354412
0.35444
0.354469
0.354498
0.354498
0.354526
0.354555
0.354584
0.354613
0.354613
0.354642
0.354671
0.3547
0.354729
0.354729
0.354758
0.354787
0.354816
0.354845
0.354845
0.354874
0.354903
0.354932
0.354961
0.354961
0.354991
0.35502
0.355049
0.355078
0.355078
0.355108
0.355137
0.355167
0.355196
0.355196
0.355225
0.355255
0.355284
0.355314
0.355314
0.355344
0.355373
0.355403
0.355432
0.355432
0.355462
0.355492
0.355522
0.355551
0.355551
0.355581
0.355611
0.355641
0.355671
0.355671
0.355701
0.355731
0.355761
0.355791
0.355791
0.355821
0.355851
0.355881
0.355911
0.355911
0.355942
0.355972
0.356002
0.356032
0.356032
0.356063
0.356093
0.356123
0.356154
0.356154
0.356184
0.356214
0.356245
0.356275
0.356275
0.356306
0.356337
0.356367
0.356398
0.356398
0.356428
0.356459
0.35649
0.356521
0.356521
0.356551
0.356582
0.356613
0.356644
0.356644
0.356675
0.356706
0.356737
0.356768
0.356768
0.356799
0.35683
0.356861
0.356892
0.356892
0.356923
0.356954
0.356985
0.357017
0.357017
0.357048
0.357079
0.35711
0.357142
0.357142
0.357173
0.357204
0.357236
0.357267
0.357267
0.357299
0.35733
0.357362
0.357393
0.357393
0.357425
0.357457
0.357488
0.35752
0.35752
0.357552
0.357584
0.357615
0.357647
0.357647
0.357679
0.357711
0.357743
0.357775
0.357775
0.357807
0.357839
0.357871
0.357903
0.357903
0.357935
0.357967
0.357999
0.358031
0.358031
0.358063
0.358096
0.358128
0.35816
0.35816
0.358192
0.358225
0.358257
0.35829
0.35829
0.358322
0.358354
0.358387
0.358419
0.358419
0.358452
0.358485
0.358517
0.35855
0.35855
0.358583
0.358615
0.358648
0.358681
0.358681
0.358714
0.358746
0.358779
0.358812
0.358812
0.358845
0.358878
0.358911
0.358944
0.358944
0.358977
0.35901
0.359043
0.359076
0.359076
0.359109
0.359143
0.359176
0.359209
0.359209
0.359242
0.359276
0.359309
0.359342
0.359342
0.359376
0.359409
0.359442
0.359476
0.359476
0.359509
0.359543
0.359576
0.35961
0.35961
0.359644
0.359677
0.359711
0.359745
0.359745
0.359778
0.359812
0.359846
0.35988
0.35988
0.359914
0.359948
0.359981
0.360015
0.360015
0.360049
0.360083
0.360117
0.360151
0.360151
0.360186
0.36022
0.360254
0.360288
0.360288
0.360322
0.360356
0.360391
0.360425
0.360425
0.360459
0.360494
0.360528
0.360563
0.360563
0.360597
0.360631
0.360666
0.3607
0.3607
0.360735
0.36077
0.360804
0.360839
0.360839
0.360874
0.360908
0.360943
0.360978
0.360978
0.361013
0.361047
0.361082
0.361117
0.361117
0.361152
0.361187
0.361222
0.361257
0.361257
0.361292
0.361327
0.361362
0.361397
0.361397
0.361433
0.361468
0.361503
0.361538
0.361538
0.361573
0.361609
0.361644
0.361679
0.361679
0.361715
0.36175
0.361786
0.361821
0.361821
0.361857
0.361892
0.361928
0.361963
0.361963
0.361999
0.362035
0.36207
0.362106
0.362106
0.362142
0.362178
0.362213
0.362249
0.362249
0.362285
0.362321
0.362357
0.362393
0.362393
0.362429
0.362465
0.362501
0.362537
0.362537
0.362573
0.362609
0.362645
0.362681
0.362681
0.362718
0.362754
0.36279
0.362827
0.362827
0.362863
0.362899
0.362936
0.362972
0.362972
0.363008
0.363045
0.363081
0.363118
0.363118
0.363155
0.363191
0.363228
0.363264
0.363264
0.363301
0.363338
0.363375
0.363411
0.363411
0.363448
0.363485
0.363522
0.363559
0.363559
0.363596
0.363633
0.36367
0.363707
0.363707
0.363744
0.363781
0.363818
0.363855
0.363855
0.363892
0.363929
0.363966
0.364004
0.364004
0.364041
0.364078
0.364116
0.364153
0.364153
0.36419
0.364228
0.364265
0.364303
0.364303
0.36434
0.364378
0.364415
0.364453
0.364453
0.364491
0.364528
0.364566
0.364604
0.364604
0.364641
0.364679
0.364717
0.364755
0.364755
0.364793
0.36483
0.364868
0.364906
0.364906
0.364944
0.364982
0.36502
0.365058
0.365058
0.365097
0.365135
0.365173
0.365211
0.365211
0.365249
0.365287
0.365326
0.365364
0.365364
0.365402
0.365441
0.365479
0.365517
0.365517
0.365556
0.365594
0.365633
0.365671
0.365671
0.36571
0.365749
0.365787
0.365826
0.365826
0.365865
0.365903
0.365942
0.365981
0.365981
0.36602
0.366058
0.366097
0.366136
0.366136
0.366175
0.366214
0.366253
0.366292
0.366292
0.366331
0.36637
0.366409
0.366448
0.366448
0.366487
0.366527
0.366566
0.366605
0.366605
0.366644
0.366684
0.366723
0.366762
0.366762
0.366802
0.366841
0.366881
0.36692
0.36692
0.366959
0.366999
0.367039
0.367078
0.367078
0.367118
0.367157
0.367197
0.367237
0.367237
0.367277
0.367316
0.367356
0.367396
0.367396
0.367436
0.367476
0.367516
0.367555
0.367555
0.367595
0.367635
0.367675
0.367716
0.367716
0.367756
0.367796
0.367836
0.367876
0.367876
0.367916
0.367956
0.367997
0.368037
0.368037
0.368077
0.368118
0.368158
0.368198
0.368198
0.368239
0.368279
0.36832
0.36836
0.36836
0.368401
0.368442
0.368482
0.368523
0.368523
0.368563
0.368604
0.368645
0.368686
0.368686
0.368726
0.368767
0.368808
0.368849
0.368849
0.36889
0.368931
0.368972
0.369013
0.369013
0.369054
0.369095
0.369136
0.369177
0.369177
0.369218
0.369259
0.3693
0.369342
0.369342
0.369383
0.369424
0.369466
0.369507
0.369507
0.369548
0.36959
0.369631
0.369672
0.369672
0.369714
0.369755
0.369797
0.369839
0.369839
0.36988
0.369922
0.369963
0.370005
0.370005
0.370047
0.370089
0.37013
0.370172
0.370172
0.370214
0.370256
0.370298
0.37034
0.37034
0.370382
0.370424
0.370466
0.370508
0.370508
0.37055
0.370592
0.370634
0.370676
0.370676
0.370718
0.370761
0.370803
0.370845
0.370845
0.370887
0.37093
0.370972
0.371014
0.371014
0.371057
0.371099
0.371142
0.371184
0.371184
0.371227
0.371269
0.371312
0.371355
0.371355
0.371397
0.37144
0.371483
0.371525
0.371525
0.371568
0.371611
0.371654
0.371697
0.371697
0.371739
0.371782
0.371825
0.371868
0.371868
0.371911
0.371954
0.371997
0.37204
0.37204
0.372084
0.372127
0.37217
0.372213
0.372213
0.372256
0.3723
0.372343
0.372386
0.372386
0.372429
0.372473
0.372516
0.37256
0.37256
0.372603
0.372647
0.37269
0.372734
0.372734
0.372777
0.372821
0.372865
0.372908
0.372908
0.372952
0.372996
0.373039
0.373083
0.373083
0.373127
0.373171
0.373215
0.373259
0.373259
0.373302
0.373346
0.37339
0.373434
0.373434
0.373478
0.373522
0.373567
0.373611
0.373611
0.373655
0.373699
0.373743
0.373788
0.373788
0.373832
0.373876
0.37392
0.373965
0.373965
0.374009
0.374054
0.374098
0.374142
0.374142
0.374187
0.374232
0.374276
0.374321
0.374321
0.374365
0.37441
0.374455
0.374499
0.374499
0.374544
0.374589
0.374634
0.374678
0.374678
0.374723
0.374768
0.374813
0.374858
0.374858
0.374903
0.374948
0.374993
0.375038
0.375038
0.375083
0.375128
0.375173
0.375219
0.375219
0.375264
0.375309
0.375354
0.3754
0.3754
0.375445
0.37549
0.375536
0.375581
0.375581
0.375626
0.375672
0.375717
0.375763
0.375763
0.375808
0.375854
0.3759
0.375945
0.375945
0.375991
0.376037
0.376082
0.376128
0.376128
0.376174
0.37622
0.376265
0.376311
0.376311
0.376357
0.376403
0.376449
0.376495
0.376495
0.376541
0.376587
0.376633
0.376679
0.376679
0.376725
0.376771
0.376818
0.376864
0.376864
0.37691
0.376956
0.377003
0.377049
0.377049
0.377095
0.377142
0.377188
0.377234
0.377234
0.377281
0.377327
0.377374
0.377421
0.377421
0.377467
0.377514
0.37756
0.377607
0.377607
0.377654
0.3777
0.377747
0.377794
0.377794
0.377841
0.377888
0.377934
0.377981
0.377981
0.378028
0.378075
0.378122
0.378169
0.378169
0.378216
0.378263
0.37831
0.378358
0.378358
0.378405
0.378452
0.378499
0.378546
0.378546
0.378594
0.378641
0.378688
0.378736
0.378736
0.378783
0.37883
0.378878
0.378925
0.378925
0.378973
0.37902
0.379068
0.379116
0.379116
0.379163
0.379211
0.379258
0.379306
0.379306
0.379354
0.379402
0.379449
0.379497
0.379497
0.379545
0.379593
0.379641
0.379689
0.379689
0.379737
0.379785
0.379833
0.379881
0.379881
0.379929
0.379977
0.380025
0.380073
0.380073
0.380121
0.38017
0.380218
0.380266
0.380266
0.380315
0.380363
0.380411
0.38046
0.38046
0.380508
0.380556
0.380605
0.380653
0.380653
0.380702
0.380751
0.380799
0.380848
0.380848
0.380896
0.380945
0.380994
0.381043
0.381043
0.381091
0.38114
0.381189
0.381238
0.381238
0.381287
0.381336
0.381384
0.381433
0.381433
0.381482
0.381531
0.38158
0.38163
0.38163
0.381679
0.381728
0.381777
0.381826
0.381826
0.381875
0.381925
0.381974
0.382023
0.382023
0.382073
0.382122
0.382171
0.382221
0.382221
0.38227
0.38232
0.382369
0.382419
0.382419
0.382468
0.382518
0.382567
0.382617
0.382617
0.382667
0.382716
0.382766
0.382816
0.382816
0.382866
0.382916
0.382965
0.383015
0.383015
0.383065
0.383115
0.383165
0.383215
0.383215
0.383265
0.383315
0.383365
0.383415
0.383415
0.383466
0.383516
0.383566
0.383616
0.383616
0.383666
0.383717
0.383767
0.383817
0.383817
0.383868
0.383918
0.383968
0.384019
0.384019
0.384069
0.38412
0.38417
0.384221
0.384221
0.384272
0.384322
0.384373
0.384423
0.384423
0.384474
0.384525
0.384576
0.384626
0.384626
0.384677
0.384728
0.384779
0.38483
0.38483
0.384881
0.384932
0.384983
0.385034
0.385034
0.385085
0.385136
0.385187
0.385238
0.385238
0.385289
0.38534
0.385392
0.385443
0.385443
0.385494
0.385546
0.385597
0.385648
0.385648
0.3857
0.385751
0.385802
0.385854
0.385854
0.385905
0.385957
0.386009
0.38606
0.38606
0.386112
0.386163
0.386215
0.386267
0.386267
0.386318
0.38637
0.386422
0.386474
0.386474
0.386526
0.386578
0.386629
0.386681
0.386681
0.386733
0.386785
0.386837
0.386889
0.386889
0.386941
0.386993
0.387046
0.387098
0.387098
0.38715
0.387202
0.387254
0.387307
0.387307
0.387359
0.387411
0.387464
0.387516
0.387516
0.387568
0.387621
0.387673
0.387726
0.387726
0.387778
0.387831
0.387883
0.387936
0.387936
0.387989
0.388041
0.388094
0.388147
0.388147
0.3882
0.388252
0.388305
0.388358
0.388358
0.388411
0.388464
0.388517
0.38857
0.38857
0.388623
0.388676
0.388729
0.388782
0.388782
0.388835
0.388888
0.388941
0.388994
0.388994
0.389047
0.389101
0.389154
0.389207
0.389207
0.38926
0.389314
0.389367
0.389421
0.389421
0.389474
0.389527
0.389581
0.389634
0.389634
0.389688
0.389742
0.389795
0.389849
0.389849
0.389902
0.389956
0.39001
0.390064
0.390064
0.390117
0.390171
0.390225
0.390279
0.390279
0.390333
0.390387
0.390441
0.390494
0.390494
0.390548
0.390602
0.390657
0.390711
0.390711
0.390765
0.390819
0.390873
0.390927
0.390927
0.390981
0.391036
0.39109
0.391144
0.391144
0.391199
0.391253
0.391307
0.391362
0.391362
0.391416
0.391471
0.391525
0.39158
0.39158
0.391634
0.391689
0.391743
0.391798
0.391798
0.391853
0.391907
0.391962
0.392017
0.392017
0.392072
0.392127
0.392181
0.392236
0.392236
0.392291
0.392346
0.392401
0.392456
0.392456
0.392511
0.392566
0.392621
0.392676
0.392676
0.392731
0.392786
0.392842
0.392897
0.392897
0.392952
0.393007
0.393063
0.393118
0.393118
0.393173
0.393229
0.393284
0.393339
0.393339
0.393395
0.39345
0.393506
0.393561
0.393561
0.393617
0.393673
0.393728
0.393784
0.393784
0.39384
0.393895
0.393951
0.394007
0.394007
0.394063
0.394118
0.394174
0.39423
0.39423
0.394286
0.394342
0.394398
0.394454
0.394454
0.39451
0.394566
0.394622
0.394678
0.394678
0.394734
0.39479
0.394847
0.394903
0.394903
0.394959
0.395015
0.395072
0.395128
0.395128
0.395184
0.395241
0.395297
0.395354
0.395354
0.39541
0.395466
0.395523
0.39558
0.39558
0.395636
0.395693
0.395749
0.395806
0.395806
0.395863
0.395919
0.395976
0.396033
0.396033
0.39609
0.396147
0.396203
0.39626
0.39626
0.396317
0.396374
0.396431
0.396488
0.396488
0.396545
0.396602
0.396659
0.396716
0.396716
0.396774
0.396831
0.396888
0.396945
0.396945
0.397002
0.39706
0.397117
0.397174
0.397174
0.397232
0.397289
0.397346
0.397404
0.397404
0.397461
0.397519
0.397576
0.397634
0.397634
0.397692
0.397749
0.397807
0.397864
0.397864
0.397922
0.39798
0.398038
0.398095
0.398095
0.398153
0.398211
0.398269
0.398327
0.398327
0.398385
0.398443
0.398501
0.398559
0.398559
0.398617
0.398675
0.398733
0.398791
0.398791
0.398849
0.398907
0.398965
0.399024
0.399024
0.399082
0.39914
0.399199
0.399257
0.399257
0.399315
0.399374
0.399432
0.39949
0.39949
0.399549
0.399607
0.399666
0.399725
0.399725
0.399783
0.399842
0.3999
0.399959
0.399959
0.400018
0.400076
0.400135
0.400194
0.400194
0.400253
0.400312
0.400371
0.400429
0.400429
0.400488
0.400547
0.400606
0.400665
0.400665
0.400724
0.400783
0.400842
0.400902
0.400902
0.400961
0.40102
0.401079
0.401138
0.401138
0.401198
0.401257
0.401316
0.401375
0.401375
0.401435
0.401494
0.401554
0.401613
0.401613
0.401673
0.401732
0.401792
0.401851
0.401851
0.401911
0.40197
0.40203
0.40209
0.40209
0.402149
0.402209
0.402269
0.402329
0.402329
0.402388
0.402448
0.402508
0.402568
0.402568
0.402628
0.402688
0.402748
0.402808
0.402808
0.402868
0.402928
0.402988
0.403048
0.403048
0.403108
0.403168
0.403229
0.403289
0.403289
0.403349
0.403409
0.40347
0.40353
0.40353
0.40359
0.403651
0.403711
0.403772
0.403772
0.403832
0.403893
0.403953
0.404014
0.404014
0.404074
0.404135
0.404196
0.404256
0.404256
0.404317
0.404378
0.404438
0.404499
0.404499
0.40456
0.404621
0.404682
0.404743
0.404743
0.404803
0.404864
0.404925
0.404986
0.404986
0.405047
0.405108
0.40517
0.405231
0.405231
0.405292
0.405353
0.405414
0.405475
0.405475
0.405537
0.405598
0.405659
0.40572
0.40572
0.405782
0.405843
0.405905
0.405966
0.405966
0.406028
0.406089
0.406151
0.406212
0.406212
0.406274
0.406335
0.406397
0.406459
0.406459
0.40652
0.406582
0.406644
0.406705
0.406705
0.406767
0.406829
0.406891
0.406953
0.406953
0.407015
0.407077
0.407139
0.407201
0.407201
0.407263
0.407325
0.407387
0.407449
0.407449
0.407511
0.407573
0.407635
0.407697
0.407697
0.40776
0.407822
0.407884
0.407947
0.407947
0.408009
0.408071
0.408134
0.408196
0.408196
0.408259
0.408321
0.408384
0.408446
0.408446
0.408509
0.408571
0.408634
0.408697
0.408697
0.408759
0.408822
0.408885
0.408947
0.408947
0.40901
0.409073
0.409136
0.409199
0.409199
0.409262
0.409325
0.409387
0.40945
0.40945
0.409513
0.409576
0.40964
0.409703
0.409703
0.409766
0.409829
0.409892
0.409955
0.409955
0.410018
0.410082
0.410145
0.410208
0.410208
0.410272
0.410335
0.410398
0.410462
0.410462
0.410525
0.410589
0.410652
0.410716
0.410716
0.410779
0.410843
0.410906
0.41097
0.41097
0.411034
0.411097
0.411161
0.411225
0.411225
0.411289
0.411352
0.411416
0.41148
0.41148
0.411544
0.411608
0.411672
0.411736
0.411736
0.4118
0.411864
0.411928
0.411992
0.411992
0.412056
0.41212
0.412184
0.412248
0.412248
0.412313
0.412377
0.412441
0.412505
0.412505
0.41257
0.412634
0.412699
0.412763
0.412763
0.412827
0.412892
0.412956
0.413021
0.413021
0.413085
0.41315
0.413214
0.413279
0.413279
0.413344
0.413408
0.413473
0.413538
0.413538
0.413603
0.413667
0.413732
0.413797
0.413797
0.413862
0.413927
0.413992
0.414057
0.414057
0.414122
0.414187
0.414252
0.414317
0.414317
0.414382
0.414447
0.414512
0.414577
0.414577
0.414642
0.414707
0.414773
0.414838
0.414838
0.414903
0.414969
0.415034
0.415099
0.415099
0.415165
0.41523
0.415296
0.415361
0.415361
0.415427
0.415492
0.415558
0.415623
0.415623
0.415689
0.415755
0.41582
0.415886
0.415886
0.415952
0.416017
0.416083
0.416149
0.416149
0.416215
0.416281
0.416347
0.416413
0.416413
0.416479
0.416544
0.41661
0.416677
0.416677
0.416743
0.416809
0.416875
0.416941
0.416941
0.417007
0.417073
0.417139
0.417206
0.417206
0.417272
0.417338
0.417405
0.417471
0.417471
0.417537
0.417604
0.41767
0.417737
0.417737
0.417803
0.41787
0.417936
0.418003
0.418003
0.418069
0.418136
0.418203
0.418269
0.418269
0.418336
0.418403
0.418469
0.418536
0.418536
0.418603
0.41867
0.418737
0.418804
0.418804
0.418871
0.418938
0.419005
0.419072
0.419072
0.419139
0.419206
0.419273
0.41934
0.41934
0.419407
0.419474
0.419541
0.419608
0.419608
0.419676
0.419743
0.41981
0.419878
0.419878
0.419945
0.420012
0.42008
0.420147
0.420147
0.420215
0.420282
0.42035
0.420417
0.420417
0.420485
0.420552
0.42062
0.420688
0.420688
0.420755
0.420823
0.420891
0.420958
0.420958
0.421026
0.421094
0.421162
0.42123
0.42123
0.421298
0.421366
0.421434
0.421502
0.421502
0.421569
0.421638
0.421706
0.421774
0.421774
0.421842
0.42191
0.421978
0.422046
0.422046
0.422114
0.422183
0.422251
0.422319
0.422319
0.422388
0.422456
0.422524
0.422593
0.422593
0.422661
0.42273
0.422798
0.422867
0.422867
0.422935
0.423004
0.423072
0.423141
0.423141
0.423209
0.423278
0.423347
0.423416
0.423416
0.423484
0.423553
0.423622
0.423691
0.423691
0.42376
0.423828
0.423897
0.423966
0.423966
0.424035
0.424104
0.424173
0.424242
0.424242
0.424311
0.424381
0.42445
0.424519
0.424519
0.424588
0.424657
0.424726
0.424796
0.424796
0.424865
0.424934
0.425004
0.425073
0.425073
0.425142
0.425212
0.425281
0.425351
0.425351
0.42542
0.42549
0.425559
0.425629
0.425629
0.425698
0.425768
0.425838
0.425907
0.425907
0.425977
0.426047
0.426117
0.426186
0.426186
0.426256
0.426326
0.426396
0.426466
0.426466
0.426536
0.426606
0.426676
0.426746
0.426746
0.426816
0.426886
0.426956
0.427026
0.427026
0.427096
0.427166
0.427236
0.427307
0.427307
0.427377
0.427447
0.427518
0.427588
0.427588
0.427658
0.427729
0.427799
0.427869
0.427869
0.42794
0.42801
0.428081
0.428151
0.428151
0.428222
0.428293
0.428363
0.428434
0.428434
0.428505
0.428575
0.428646
0.428717
0.428717
0.428787
0.428858
0.428929
0.429
0.429
0.429071
0.429142
0.429213
0.429284
0.429284
0.429355
0.429426
0.429497
0.429568
0.429568
0.429639
0.42971
0.429781
0.429852
0.429852
0.429924
0.429995
0.430066
0.430137
0.430137
0.430209
0.43028
0.430351
0.430423
0.430423
0.430494
0.430566
0.430637
0.430708
0.430708
0.43078
0.430852
0.430923
0.430995
0.430995
0.431066
0.431138
0.43121
0.431281
0.431281
0.431353
0.431425
0.431497
0.431568
0.431568
0.43164
0.431712
0.431784
0.431856
0.431856
0.431928
0.432
0.432072
0.432144
0.432144
0.432216
0.432288
0.43236
0.432432
0.432432
0.432504
0.432577
0.432649
0.432721
0.432721
0.432793
0.432866
0.432938
0.43301
0.43301
0.433083
0.433155
0.433227
0.4333
0.4333
0.433372
0.433445
0.433517
0.43359
0.43359
0.433663
0.433735
0.433808
0.43388
0.43388
0.433953
0.434026
0.434099
0.434171
0.434171
0.434244
0.434317
0.43439
0.434463
0.434463
0.434535
0.434608
0.434681
0.434754
0.434754
0.434827
0.4349
0.434973
0.435046
0.435046
0.43512
0.435193
0.435266
0.435339
0.435339
0.435412
0.435486
0.435559
0.435632
0.435632
0.435705
0.435779
0.435852
0.435925
0.435925
0.435999
0.436072
0.436146
0.436219
0.436219
0.436293
0.436366
0.43644
0.436514
0.436514
0.436587
0.436661
0.436735
0.436808
0.436808
0.436882
0.436956
0.43703
0.437103
0.437103
0.437177
0.437251
0.437325
0.437399
0.437399
0.437473
0.437547
0.437621
0.437695
0.437695
0.437769
0.437843
0.437917
0.437991
0.437991
0.438065
0.43814
0.438214
0.438288
0.438288
0.438362
0.438437
0.438511
0.438585
0.438585
0.43866
0.438734
0.438808
0.438883
0.438883
0.438957
0.439032
0.439106
0.439181
0.439181
0.439255
0.43933
0.439405
0.439479
0.439479
0.439554
0.439629
0.439703
0.439778
0.439778
0.439853
0.439928
0.440003
0.440077
0.440077
0.440152
0.440227
0.440302
0.440377
0.440377
0.440452
0.440527
0.440602
0.440677
0.440677
0.440752
0.440827
0.440903
0.440978
0.440978
0.441053
0.441128
0.441203
0.441279
0.441279
0.441354
0.441429
0.441505
0.44158
0.44158
0.441656
0.441731
0.441806
0.441882
0.441882
0.441957
0.442033
0.442109
0.442184
0.442184
0.44226
0.442335
0.442411
0.442487
0.442487
0.442562
0.442638
0.442714
0.44279
0.44279
0.442866
0.442941
0.443017
0.443093
0.443093
0.443169
0.443245
0.443321
0.443397
0.443397
0.443473
0.443549
0.443625
0.443701
0.443701
0.443778
0.443854
0.44393
0.444006
0.444006
0.444082
0.444159
0.444235
0.444311
0.444311
0.444388
0.444464
0.44454
0.444617
0.444617
0.444693
0.44477
0.444846
0.444923
0.444923
0.444999
0.445076
0.445152
0.445229
0.445229
0.445306
0.445382
0.445459
0.445536
0.445536
0.445613
0.445689
0.445766
0.445843
0.445843
0.44592
0.445997
0.446074
0.446151
0.446151
0.446228
0.446305
0.446382
0.446459
0.446459
0.446536
0.446613