<?xml version="1.0"?>
<VTKFile type="UnstructuredGrid" version="0.1" byte_order="LittleEndian">
<UnstructuredGrid>
<Piece NumberOfPoints="5000" NumberOfCells="4000">
<PointData Scalars="Reaction 0">
<DataArray type="Float32" Name="Reaction 0" format="ascii">
0.131438
0.131438
0.131438
0.131438
0.131438
0.131438
0.131438
0.131438
0.131439
0.131439
0.131439
0.131439
0.131439
0.13144
0.13144
0.13144
0.13144
0.131441
0.131441
0.131442
0.131442
0.131442
0.131442
0.131443
0.131444
0.131444
0.131444
0.131445
0.131445
0.131446
0.131446
0.131447
0.131447
0.131448
0.131449
0.131449
0.13145
0.131451
0.131451
0.131452
0.131452
0.131453
0.131454
0.131455
0.131456
0.131456
0.131457
0.131458
0.131459
0.13146
0.13146
0.131461
0.131463
0.131464
0.131465
0.131465
0.131466
0.131467
0.131469
0.13147
0.13147
0.131471
0.131473
0.131474
0.131476
0.131476
0.131477
0.131479
0.13148
0.131482
0.131482
0.131483
0.131485
0.131486
0.131488
0.131488
0.13149
0.131491
0.131493
0.131495
0.131495
0.131497
0.131499
0.1315
0.131502
0.131502
0.131504
0.131506
0.131508
0.13151
0.13151
0.131512
0.131514
0.131516
0.131518
0.131518
0.131521
0.131523
0.131525
0.131527
0.131527
0.131529
0.131532
0.131534
0.131536
0.131536
0.131539
0.131541
0.131543
0.131546
0.131546
0.131548
0.131551
0.131553
0.131556
0.131556
0.131558
0.131561
0.131564
0.131566
0.131566
0.131569
0.131572
0.131574
0.131577
0.131577
0.13158
0.131583
0.131586
0.131589
0.131589
0.131591
0.131594
0.131597
0.1316
0.1316
0.131603
0.131606
0.13161
0.131613
0.131613
0.131616
0.131619
0.131622
0.131625
0.131625
0.131629
0.131632
0.131635
0.131638
0.131638
0.131642
0.131645
0.131649
0.131652
0.131652
0.131656
0.131659
0.131663
0.131666
0.131666
0.13167
0.131673
0.131677
0.131681
0.131681
0.131684
0.131688
0.131692
0.131696
0.131696
0.131699
0.131703
0.131707
0.131711
0.131711
0.131715
0.131719
0.131723
0.131727
0.131727
0.131731
0.131735
0.131739
0.131743
0.131743
0.131747
0.131751
0.131755
0.13176
0.13176
0.131764
0.131768
0.131773
0.131777
0.131777
0.131781
0.131786
0.13179
0.131794
0.131794
0.131799
0.131803
0.131808
0.131813
0.131813
0.131817
0.131822
0.131826
0.131831
0.131831
0.131836
0.13184
0.131845
0.13185
0.13185
0.131855
0.13186
0.131865
0.131869
0.131869
0.131874
0.131879
0.131884
0.131889
0.131889
0.131894
0.131899
0.131904
0.13191
0.13191
0.131915
0.13192
0.131925
0.13193
0.13193
0.131936
0.131941
0.131946
0.131951
0.131951
0.131957
0.131962
0.131968
0.131973
0.131973
0.131979
0.131984
0.13199
0.131995
0.131995
0.132001
0.132006
0.132012
0.132018
0.132018
0.132023
0.132029
0.132035
0.132041
0.132041
0.132047
0.132052
0.132058
0.132064
0.132064
0.13207
0.132076
0.132082
0.132088
0.132088
0.132094
0.1321
0.132106
0.132112
0.132112
0.132119
0.132125
0.132131
0.132137
0.132137
0.132143
0.13215
0.132156
0.132162
0.132162
0.132169
0.132175
0.132182
0.132188
0.132188
0.132195
0.132201
0.132208
0.132214
0.132214
0.132221
0.132227
0.132234
0.132241
0.132241
0.132247
0.132254
0.132261
0.132268
0.132268
0.132275
0.132281
0.132288
0.132295
0.132295
0.132302
0.132309
0.132316
0.132323
0.132323
0.13233
0.132337
0.132344
0.132351
0.132351
0.132359
0.132366
0.132373
0.13238
0.13238
0.132388
0.132395
0.132402
0.13241
0.13241
0.132417
0.132424
0.132432
0.132439
0.132439
0.132447
0.132454
0.132462
0.132469
0.132469
0.132477
0.132485
0.132492
0.1325
0.1325
0.132508
0.132516
0.132523
0.132531
0.132531
0.132539
0.132547
0.132555
0.132563
0.132563
0.132571
0.132579
0.132587
0.132595
0.132595
0.132603
0.132611
0.132619
0.132627
0.132627
0.132635
0.132643
0.132652
0.13266
0.13266
0.132668
0.132676
0.132685
0.132693
0.132693
0.132702
0.13271
0.132718
0.132727
0.132727
0.132735
0.132744
0.132753
0.132761
0.132761
0.13277
0.132778
0.132787
0.132796
0.132796
0.132805
0.132813
0.132822
0.132831
0.132831
0.13284
0.132849
0.132858
0.132867
0.132867
0.132875
0.132884
0.132894
0.132903
0.132903
0.132912
0.132921
0.13293
0.132939
0.132939
0.132948
0.132957
0.132967
0.132976
0.132976
0.132985
0.132995
0.133004
0.133013
0.133013
0.133023
0.133032
0.133042
0.133051
0.133051
0.133061
0.13307
0.13308
0.133089
0.133089
0.133099
0.133109
0.133118
0.133128
0.133128
0.133138
0.133148
0.133158
0.133167
0.133167
0.133177
0.133187
0.133197
0.133207
0.133207
0.133217
0.133227
0.133237
0.133247
0.133247
0.133257
0.133267
0.133277
0.133288
0.133288
0.133298
0.133308
0.133318
0.133329
0.133329
0.133339
0.133349
0.13336
0.13337
0.13337
0.133381
0.133391
0.133401
0.133412
0.133412
0.133423
0.133433
0.133444
0.133454
0.133454
0.133465
0.133476
0.133486
0.133497
0.133497
0.133508
0.133519
0.13353
0.13354
0.13354
0.133551
0.133562
0.133573
0.133584
0.133584
0.133595
0.133606
0.133617
0.133628
0.133628
0.133639
0.133651
0.133662
0.133673
0.133673
0.133684
0.133695
0.133707
0.133718
0.133718
0.133729
0.133741
0.133752
0.133764
0.133764
0.133775
0.133787
0.133798
0.13381
0.13381
0.133821
0.133833
0.133844
0.133856
0.133856
0.133868
0.133879
0.133891
0.133903
0.133903
0.133915
0.133927
0.133938
0.13395
0.13395
0.133962
0.133974
0.133986
0.133998
0.133998
0.13401
0.134022
0.134034
0.134046
0.134046
0.134059
0.134071
0.134083
0.134095
0.134095
0.134107
0.13412
0.134132
0.134144
0.134144
0.134157
0.134169
0.134182
0.134194
0.134194
0.134207
0.134219
0.134232
0.134244
0.134244
0.134257
0.134269
0.134282
0.134295
0.134295
0.134307
0.13432
0.134333
0.134346
0.134346
0.134359
0.134371
0.134384
0.134397
0.134397
0.13441
0.134423
0.134436
0.134449
0.134449
0.134462
0.134475
0.134488
0.134502
0.134502
0.134515
0.134528
0.134541
0.134554
0.134554
0.134568
0.134581
0.134594
0.134608
0.134608
0.134621
0.134635
0.134648
0.134662
0.134662
0.134675
0.134689
0.134702
0.134716
0.134716
0.134729
0.134743
0.134757
0.13477
0.13477
0.134784
0.134798
0.134812
0.134826
0.134826
0.134839
0.134853
0.134867
0.134881
0.134881
0.134895
0.134909
0.134923
0.134937
0.134937
0.134951
0.134966
0.13498
0.134994
0.134994
0.135008
0.135022
0.135037
0.135051
0.135051
0.135065
0.135079
0.135094
0.135108
0.135108
0.135123
0.135137
0.135152
0.135166
0.135166
0.135181
0.135195
0.13521
0.135225
0.135225
0.135239
0.135254
0.135269
0.135283
0.135283
0.135298
0.135313
0.135328
0.135343
0.135343
0.135358
0.135373
0.135387
0.135402
0.135402
0.135417
0.135433
0.135448
0.135463
0.135463
0.135478
0.135493
0.135508
0.135523
0.135523
0.135539
0.135554
0.135569
0.135585
0.135585
0.1356
0.135615
0.135631
0.135646
0.135646
0.135662
0.135677
0.135693
0.135708
0.135708
0.135724
0.135739
0.135755
0.135771
0.135771
0.135786
0.135802
0.135818
0.135834
0.135834
0.13585
0.135865
0.135881
0.135897
0.135897
0.135913
0.135929
0.135945
0.135961
0.135961
0.135977
0.135993
0.136009
0.136026
0.136026
0.136042
0.136058
0.136074
0.13609
0.13609
0.136107
0.136123
0.136139
0.136156
0.136156
0.136172
0.136189
0.136205
0.136222
0.136222
0.136238
0.136255
0.136271
0.136288
0.136288
0.136304
0.136321
0.136338
0.136355
0.136355
0.136371
0.136388
0.136405
0.136422
0.136422
0.136439
0.136455
0.136472
0.136489
0.136489
0.136506
0.136523
0.13654
0.136558
0.136558
0.136575
0.136592
0.136609
0.136626
0.136626
0.136643
0.136661
0.136678
0.136695
0.136695
0.136713
0.13673
0.136747
0.136765
0.136765
0.136782
0.1368
0.136817
0.136835
0.136835
0.136852
0.13687
0.136887
0.136905
0.136905
0.136923
0.136941
0.136958
0.136976
0.136976
0.136994
0.137012
0.13703
0.137047
0.137047
0.137065
0.137083
0.137101
0.137119
0.137119
0.137137
0.137155
0.137174
0.137192
0.137192
0.13721
0.137228
0.137246
0.137264
0.137264
0.137283
0.137301
0.137319
0.137338
0.137338
0.137356
0.137375
0.137393
0.137412
0.137412
0.13743
0.137449
0.137467
0.137486
0.137486
0.137504
0.137523
0.137542
0.13756
0.13756
0.137579
0.137598
0.137617
0.137636
0.137636
0.137654
0.137673
0.137692
0.137711
0.137711
0.13773
0.137749
0.137768
0.137787
0.137787
0.137806
0.137826
0.137845
0.137864
0.137864
0.137883
0.137902
0.137922
0.137941
0.137941
0.13796
0.13798
0.137999
0.138018
0.138018
0.138038
0.138057
0.138077
0.138096
0.138096
0.138116
0.138136
0.138155
0.138175
0.138175
0.138195
0.138214
0.138234
0.138254
0.138254
0.138274
0.138294
0.138313
0.138333
0.138333
0.138353
0.138373
0.138393
0.138413
0.138413
0.138433
0.138453
0.138473
0.138494
0.138494
0.138514
0.138534
0.138554
0.138574
0.138574
0.138595
0.138615
0.138635
0.138656
0.138656
0.138676
0.138697
0.138717
0.138738
0.138738
0.138758
0.138779
0.138799
0.13882
0.13882
0.13884
0.138861
0.138882
0.138903
0.138903
0.138923
0.138944
0.138965
0.138986
0.138986
0.139007
0.139028
0.139048
0.139069
0.139069
0.13909
0.139111
0.139133
0.139154
0.139154
0.139175
0.139196
0.139217
0.139238
0.139238
0.13926
0.139281
0.139302
0.139323
0.139323
0.139345
0.139366
0.139388
0.139409
0.139409
0.13943
0.139452
0.139474
0.139495
0.139495
0.139517
0.139538
0.13956
0.139582
0.139582
0.139603
0.139625
0.139647
0.139669
0.139669
0.139691
0.139712
0.139734
0.139756
0.139756
0.139778
0.1398
0.139822
0.139844
0.139844
0.139866
0.139888
0.139911
0.139933
0.139933
0.139955
0.139977
0.139999
0.140022
0.140022
0.140044
0.140066
0.140089
0.140111
0.140111
0.140134
0.140156
0.140179
0.140201
0.140201
0.140224
0.140246
0.140269
0.140291
0.140291
0.140314
0.140337
0.14036
0.140382
0.140382
0.140405
0.140428
0.140451
0.140474
0.140474
0.140497
0.14052
0.140543
0.140566
0.140566
0.140589
0.140612
0.140635
0.140658
0.140658
0.140681
0.140704
0.140727
0.140751
0.140751
0.140774
0.140797
0.140821
0.140844
0.140844
0.140867
0.140891
0.140914
0.140938
0.140938
0.140961
0.140985
0.141009
0.141032
0.141032
0.141056
0.141079
0.141103
0.141127
0.141127
0.141151
0.141174
0.141198
0.141222
0.141222
0.141246
0.14127
0.141294
0.141318
0.141318
0.141342
0.141366
0.14139
0.141414
0.141414
0.141438
0.141462
0.141487
0.141511
0.141511
0.141535
0.141559
0.141584
0.141608
0.141608
0.141632
0.141657
0.141681
0.141706
0.141706
0.14173
0.141755
0.141779
0.141804
0.141804
0.141828
0.141853
0.141878
0.141902
0.141902
0.141927
0.141952
0.141977
0.142002
0.142002
0.142026
0.142051
0.142076
0.142101
0.142101
0.142126
0.142151
0.142176
0.142201
0.142201
0.142226
0.142252
0.142277
0.142302
0.142302
0.142327
0.142352
0.142378
0.142403
0.142403
0.142428
0.142454
0.142479
0.142505
0.142505
0.14253
0.142556
0.142581
0.142607
0.142607
0.142632
0.142658
0.142684
0.142709
0.142709
0.142735
0.142761
0.142787
0.142812
0.142812
0.142838
0.142864
0.14289
0.142916
0.142916
0.142942
0.142968
0.142994
0.14302
0.14302
0.143046
0.143072
0.143098
0.143124
0.143124
0.143151
0.143177
0.143203
0.14323
0.14323
0.143256
0.143282
0.143309
0.143335
0.143335
0.143362
0.143388
0.143415
0.143441
0.143441
0.143468
0.143494
0.143521
0.143548
0.143548
0.143574
0.143601
0.143628
0.143655
0.143655
0.143681
0.143708
0.143735
0.143762
0.143762
0.143789
0.143816
0.143843
0.14387
0.14387
0.143897
0.143924
0.143951
0.143979
0.143979
0.144006
0.144033
0.14406
0.144088
0.144088
0.144115
0.144142
0.14417
0.144197
0.144197
0.144224
0.144252
0.144279
0.144307
0.144307
0.144335
0.144362
0.14439
0.144417
0.144417
0.144445
0.144473
0.144501
0.144528
0.144528
0.144556
0.144584
0.144612
0.14464
0.14464
0.144668
0.144696
0.144724
0.144752
0.144752
0.14478
0.144808
0.144836
0.144864
0.144864
0.144893
0.144921
0.144949
0.144977
0.144977
0.145006
0.145034
0.145062
0.145091
0.145091
0.145119
0.145148
0.145176
0.145205
0.145205
0.145233
0.145262
0.145291
0.145319
0.145319
0.145348
0.145377
0.145405
0.145434
0.145434
0.145463
0.145492
0.145521
0.14555
0.14555
0.145579
0.145608
0.145637
0.145666
0.145666
0.145695
0.145724
0.145753
0.145782
0.145782
0.145811
0.145841
0.14587
0.145899
0.145899
0.145928
0.145958
0.145987
0.146017
0.146017
0.146046
0.146076
0.146105
0.146135
0.146135
0.146164
0.146194
0.146223
0.146253
0.146253
0.146283
0.146313
0.146342
0.146372
0.146372
0.146402
0.146432
0.146462
0.146492
0.146492
0.146522
0.146552
0.146582
0.146612
0.146612
0.146642
0.146672
0.146702
0.146732
0.146732
0.146762
0.146793
0.146823
0.146853
0.146853
0.146883
0.146914
0.146944
0.146975
0.146975
0.147005
0.147036
0.147066
0.147097
0.147097
0.147127
0.147158
0.147189
0.147219
0.147219
0.14725
0.147281
0.147311
0.147342
0.147342
0.147373
0.147404
0.147435
0.147466
0.147466
0.147497
0.147528
0.147559
0.14759
0.14759
0.147621
0.147652
0.147683
0.147714
0.147714
0.147746
0.147777
0.147808
0.14784
0.14784
0.147871
0.147902
0.147934
0.147965
0.147965
0.147997
0.148028
0.14806
0.148091
0.148091
0.148123
0.148154
0.148186
0.148218
0.148218
0.14825
0.148281
0.148313
0.148345
0.148345
0.148377
0.148409
0.148441
0.148473
0.148473
0.148505
0.148537
0.148569
0.148601
0.148601
0.148633
0.148665
0.148697
0.148729
0.148729
0.148762
0.148794
0.148826
0.148859
0.148859
0.148891
0.148923
0.148956
0.148988
0.148988
0.149021
0.149053
0.149086
0.149118
0.149118
0.149151
0.149184
0.149216
0.149249
0.149249
0.149282
0.149315
0.149348
0.14938
0.14938
0.149413
0.149446
0.149479
0.149512
0.149512
0.149545
0.149578
0.149611
0.149644
0.149644
0.149678
0.149711
0.149744
0.149777
0.149777
0.14981
0.149844
0.149877
0.149911
0.149911
0.149944
0.149977
0.150011
0.150044
0.150044
0.150078
0.150111
0.150145
0.150179
0.150179
0.150212
0.150246
0.15028
0.150313
0.150313
0.150347
0.150381
0.150415
0.150449
0.150449
0.150483
0.150517
0.150551
0.150585
0.150585
0.150619
0.150653
0.150687
0.150721
0.150721
0.150755
0.15079
0.150824
0.150858
0.150858
0.150892
0.150927
0.150961
0.150996
0.150996
0.15103
0.151064
0.151099
0.151133
0.151133
0.151168
0.151203
0.151237
0.151272
0.151272
0.151307
0.151341
0.151376
0.151411
0.151411
0.151446
0.151481
0.151516
0.151551
0.151551
0.151585
0.15162
0.151656
0.151691
0.151691
0.151726
0.151761
0.151796
0.151831
0.151831
0.151866
0.151902
0.151937
0.151972
0.151972
0.152008
0.152043
0.152078
0.152114
0.152114
0.152149
0.152185
0.15222
0.152256
0.152256
0.152292
0.152327
0.152363
0.152399
0.152399
0.152434
0.15247
0.152506
0.152542
0.152542
0.152578
0.152614
0.15265
0.152686
0.152686
0.152722
0.152758
0.152794
0.15283
0.15283
0.152866
0.152902
0.152938
0.152975
0.152975
0.153011
0.153047
0.153084
0.15312
0.15312
0.153156
0.153193
0.153229
0.153266
0.153266
0.153302
0.153339
0.153376
0.153412
0.153412
0.153449
0.153486
0.153522
0.153559
0.153559
0.153596
0.153633
0.15367
0.153706
0.153706
0.153743
0.15378
0.153817
0.153854
0.153854
0.153892
0.153929
0.153966
0.154003
0.154003
0.15404
0.154077
0.154115
0.154152
0.154152
0.154189
0.154227
0.154264
0.154301
0.154301
0.154339
0.154376
0.154414
0.154452
0.154452
0.154489
0.154527
0.154564
0.154602
0.154602
0.15464
0.154678
0.154715
0.154753
0.154753
0.154791
0.154829
0.154867
0.154905
0.154905
0.154943
0.154981
0.155019
0.155057
0.155057
0.155095
0.155133
0.155172
0.15521
0.15521
0.155248
0.155286
0.155325
0.155363
0.155363
0.155402
0.15544
0.155479
0.155517
0.155517
0.155556
0.155594
0.155633
0.155671
0.155671
0.15571
0.155749
0.155787
0.155826
0.155826
0.155865
0.155904
0.155943
0.155982
0.155982
0.156021
0.15606
0.156099
0.156138
0.156138
0.156177
0.156216
0.156255
0.156294
0.156294
0.156333
0.156373
0.156412
0.156451
0.156451
0.15649
0.15653
0.156569
0.156609
0.156609
0.156648
0.156688
0.156727
0.156767
0.156767
0.156806
0.156846
0.156886
0.156925
0.156925
0.156965
0.157005
0.157045
0.157085
0.157085
0.157125
0.157164
0.157204
0.157244
0.157244
0.157284
0.157324
0.157365
0.157405
0.157405
0.157445
0.157485
0.157525
0.157565
0.157565
0.157606
0.157646
0.157686
0.157727
0.157727
0.157767
0.157808
0.157848
0.157889
0.157889
0.157929
0.15797
0.158011
0.158051
0.158051
0.158092
0.158133
0.158173
0.158214
0.158214
0.158255
0.158296
0.158337
0.158378
0.158378
0.158419
0.15846
0.158501
0.158542
0.158542
0.158583
0.158624
0.158665
0.158706
0.158706
0.158748
0.158789
0.15883
0.158872
0.158872
0.158913
0.158954
0.158996
0.159037
0.159037
0.159079
0.15912
0.159162
0.159204
0.159204
0.159245
0.159287
0.159329
0.15937
0.15937
0.159412
0.159454
0.159496
0.159538
0.159538
0.15958
0.159622
0.159664
0.159706
0.159706
0.159748
0.15979
0.159832
0.159874
0.159874
0.159916
0.159958
0.160001
0.160043
0.160043
0.160085
0.160128
0.16017
0.160213
0.160213
0.160255
0.160298
0.16034
0.160383
0.160383
0.160425
0.160468
0.160511
0.160553
0.160553
0.160596
0.160639
0.160682
0.160725
0.160725
0.160767
0.16081
0.160853
0.160896
0.160896
0.160939
0.160982
0.161025
0.161069
0.161069
0.161112
0.161155
0.161198
0.161241
0.161241
0.161285
0.161328
0.161371
0.161415
0.161415
0.161458
0.161502
0.161545
0.161589
0.161589
0.161632
0.161676
0.16172
0.161763
0.161763
0.161807
0.161851
0.161895
0.161938
0.161938
0.161982
0.162026
0.16207
0.162114
0.162114
0.162158
0.162202
0.162246
0.16229
0.16229
0.162334
0.162378
0.162423
0.162467
0.162467
0.162511
0.162556
0.1626
0.162644
0.162644
0.162689
0.162733
0.162778
0.162822
0.162822
0.162867
0.162911
0.162956
0.163
0.163
0.163045
0.16309
0.163135
0.163179
0.163179
0.163224
0.163269
0.163314
0.163359
0.163359
0.163404
0.163449
0.163494
0.163539
0.163539
0.163584
0.163629
0.163674
0.16372
0.16372
0.163765
0.16381
0.163856
0.163901
0.163901
0.163946
0.163992
0.164037
0.164083
0.164083
0.164128
0.164174
0.164219
0.164265
0.164265
0.164311
0.164356
0.164402
0.164448
0.164448
0.164494
0.16454
0.164585
0.164631
0.164631
0.164677
0.164723
0.164769
0.164815
0.164815
0.164861
0.164908
0.164954
0.165
0.165
0.165046
0.165092
0.165139
0.165185
0.165185
0.165231
0.165278
0.165324
0.165371
0.165371
0.165417
0.165464
0.16551
0.165557
0.165557
0.165604
0.16565
0.165697
0.165744
0.165744
0.165791
0.165838
0.165884
0.165931
0.165931
0.165978
0.166025
0.166072
0.166119
0.166119
0.166166
0.166213
0.166261
0.166308
0.166308
0.166355
0.166402
0.16645
0.166497
0.166497
0.166544
0.166592
0.166639
0.166687
0.166687
0.166734
0.166782
0.166829
0.166877
0.166877
0.166924
0.166972
0.16702
0.167068
0.167068
0.167115
0.167163
0.167211
0.167259
0.167259
0.167307
0.167355
0.167403
0.167451
0.167451
0.167499
0.167547
0.167595
0.167643
0.167643
0.167692
0.16774
0.167788
0.167837
0.167837
0.167885
0.167933
0.167982
0.16803
0.16803
0.168079
0.168127
0.168176
0.168224
0.168224
0.168273
0.168322
0.16837
0.168419
0.168419
0.168468
0.168517
0.168566
0.168615
0.168615
0.168664
0.168713
0.168762
0.168811
0.168811
0.16886
0.168909
0.168958
0.169007
0.169007
0.169056
0.169106
0.169155
0.169204
0.169204
0.169254
0.169303
0.169352
0.169402
0.169402
0.169451
0.169501
0.16955
0.1696
0.1696
0.16965
0.169699
0.169749
0.169799
0.169799
0.169849
0.169899
0.169948
0.169998
0.169998
0.170048
0.170098
0.170148
0.170198
0.170198
0.170248
0.170299
0.170349
0.170399
0.170399
0.170449
0.170499
0.17055
0.1706
0.1706
0.17065
0.170701
0.170751
0.170802
0.170802
0.170852
0.170903
0.170953
0.171004
0.171004
0.171055
0.171105
0.171156
0.171207
0.171207
0.171258
0.171309
0.171359
0.17141
0.17141
0.171461
0.171512
0.171563
0.171614
0.171614
0.171666
0.171717
0.171768
0.171819
0.171819
0.17187
0.171922
0.171973
0.172024
0.172024
0.172076
0.172127
0.172179
0.17223
0.17223
0.172282
0.172333
0.172385
0.172436
0.172436
0.172488
0.17254
0.172592
0.172643
0.172643
0.172695
0.172747
0.172799
0.172851
0.172851
0.172903
0.172955
0.173007
0.173059
0.173059
0.173111
0.173163
0.173215
0.173268
0.173268
0.17332
0.173372
0.173425
0.173477
0.173477
0.173529
0.173582
0.173634
0.173687
0.173687
0.173739
0.173792
0.173845
0.173897
0.173897
0.17395
0.174003
0.174056
0.174108
0.174108
0.174161
0.174214
0.174267
0.17432
0.17432
0.174373
0.174426
0.174479
0.174532
0.174532
0.174585
0.174639
0.174692
0.174745
0.174745
0.174798
0.174852
0.174905
0.174958
0.174958
0.175012
0.175065
0.175119
0.175172
0.175172
0.175226
0.17528
0.175333
0.175387
0.175387
0.175441
0.175494
0.175548
0.175602
0.175602
0.175656
0.17571
0.175764
0.175818
0.175818
0.175872
0.175926
0.17598
0.176034
0.176034
0.176088
0.176143
0.176197
0.176251
0.176251
0.176306
0.17636
0.176414
0.176469
0.176469
0.176523
0.176578
0.176632
0.176687
0.176687
0.176742
0.176796
0.176851
0.176906
0.176906
0.17696
0.177015
0.17707
0.177125
0.177125
0.17718
0.177235
0.17729
0.177345
0.177345
0.1774
0.177455
0.17751
0.177565
0.177565
0.177621
0.177676
0.177731
0.177786
0.177786
0.177842
0.177897
0.177953
0.178008
0.178008
0.178064
0.178119
0.178175
0.17823
0.17823
0.178286
0.178342
0.178398
0.178453
0.178453
0.178509
0.178565
0.178621
0.178677
0.178677
0.178733
0.178789
0.178845
0.178901
0.178901
0.178957
0.179013
0.179069
0.179126
0.179126
0.179182
0.179238
0.179295
0.179351
0.179351
0.179407
0.179464
0.17952
0.179577
0.179577
0.179633
0.17969
0.179747
0.179803
0.179803
0.17986
0.179917
0.179974
0.18003
0.18003
0.180087
0.180144
0.180201
0.180258
0.180258
0.180315
0.180372
0.180429
0.180486
0.180486
0.180544
0.180601
0.180658
0.180715
0.180715
0.180773
0.18083
0.180887
0.180945
0.180945
0.181002
0.18106
0.181117
0.181175
0.181175
0.181233
0.18129
0.181348
0.181406
0.181406
0.181463
0.181521
0.181579
0.181637
0.181637
0.181695
0.181753
0.181811
0.181869
0.181869
0.181927
0.181985
0.182043
0.182101
0.182101
0.18216
0.182218
0.182276
0.182335
0.182335
0.182393
0.182451
0.18251
0.182568
0.182568
0.182627
0.182685
0.182744
0.182803
0.182803
0.182861
0.18292
0.182979
0.183038
0.183038
0.183096
0.183155
0.183214
0.183273
0.183273
0.183332
0.183391
0.18345
0.183509
0.183509
0.183568
0.183628
0.183687
0.183746
0.183746
0.183805
0.183865
0.183924
0.183983
0.183983
0.184043
0.184102
0.184162
0.184221
0.184221
0.184281
0.184341
0.1844
0.18446
0.18446
0.18452
0.18458
0.184639
0.184699
0.184699
0.184759
0.184819
0.184879
0.184939
0.184939
0.184999
0.185059
0.185119
0.18518
0.18518
0.18524
0.1853
0.18536
0.185421
0.185421
0.185481
0.185541
0.185602
0.185662
0.185662
0.185723
0.185783
0.185844
0.185905
0.185905
0.185965
0.186026
0.186087
0.186147
0.186147
0.186208
0.186269
0.18633
0.186391
0.186391
0.186452
0.186513
0.186574
0.186635
0.186635
0.186696
0.186757
0.186819
0.18688
0.18688
0.186941
0.187002
0.187064
0.187125
0.187125
0.187187
0.187248
0.18731
0.187371
0.187371
0.187433
0.187494
0.187556
0.187618
0.187618
0.187679
0.187741
0.187803
0.187865
0.187865
0.187927
0.187989
0.188051
0.188113
0.188113
0.188175
0.188237
0.188299
0.188361
0.188361
0.188423
0.188486
0.188548
0.18861
0.18861
0.188673
0.188735
0.188798
0.18886
0.18886
0.188922
0.188985
0.189048
0.18911
0.18911
0.189173
0.189236
0.189298
0.189361
0.189361
0.189424
0.189487
0.18955
0.189613
0.189613
0.189676
0.189739
0.189802
0.189865
0.189865
0.189928
0.189991
0.190054
0.190118
0.190118
0.190181
0.190244
0.190308
0.190371
0.190371
0.190435
0.190498
0.190562
0.190625
0.190625
0.190689
0.190752
0.190816
0.19088
0.19088
0.190944
0.191007
0.191071
0.191135
0.191135
0.191199
0.191263
0.191327
0.191391
0.191391
0.191455
0.191519
0.191583
0.191648
0.191648
0.191712
0.191776
0.19184
0.191905
0.191905
0.191969
0.192034
0.192098
0.192162
0.192162
0.192227
0.192292
0.192356
0.192421
0.192421
0.192486
0.19255
0.192615
0.19268
0.19268
0.192745
0.19281
0.192875
0.19294
0.19294
0.193005
0.19307
0.193135
0.1932
0.1932
0.193265
0.19333
0.193396
0.193461
0.193461
0.193526
0.193591
0.193657
0.193722
0.193722
0.193788
0.193853
0.193919
0.193985
0.193985
0.19405
0.194116
0.194182
0.194247
0.194247
0.194313
0.194379
0.194445
0.194511
0.194511
0.194577
0.194643
0.194709
0.194775
0.194775
0.194841
0.194907
0.194973
0.19504
0.19504
0.195106
0.195172
0.195238
0.195305
0.195305
0.195371
0.195438
0.195504
0.195571
0.195571
0.195637
0.195704
0.195771
0.195837
0.195837
0.195904
0.195971
0.196038
0.196105
0.196105
0.196172
0.196238
0.196305
0.196373
0.196373
0.19644
0.196507
0.196574
0.196641
0.196641
0.196708
0.196775
0.196843
0.19691
0.19691
0.196978
0.197045
0.197112
0.19718
0.19718
0.197247
0.197315
0.197383
0.19745
0.19745
0.197518
0.197586
0.197654
0.197721
0.197721
0.197789
0.197857
0.197925
0.197993
0.197993
0.198061
0.198129
0.198197
0.198265
0.198265
0.198333
0.198402
0.19847
0.198538
0.198538
0.198607
0.198675
0.198743
0.198812
0.198812
0.19888
0.198949
0.199017
0.199086
0.199086
0.199155
0.199223
0.199292
0.199361
0.199361
0.19943
0.199499
0.199567
0.199636
0.199636
0.199705
0.199774
0.199843
0.199913
0.199913
0.199982
0.200051
0.20012
0.200189
0.200189
0.200259
0.200328
0.200397
0.200467
0.200467
0.200536
0.200606
0.200675
0.200745
0.200745
0.200814
0.200884
0.200954
0.201024
0.201024
0.201093
0.201163
0.201233
0.201303
0.201303
0.201373
0.201443
0.201513
0.201583
0.201583
0.201653
0.201723
0.201793
0.201863
0.201863
0.201934
0.202004
0.202074
0.202145
0.202145
0.202215
0.202286
0.202356
0.202427
0.202427
0.202497
0.202568
0.202639
0.202709
0.202709
0.20278
0.202851
0.202922
0.202992
0.202992
0.203063
0.203134
0.203205
0.203276
0.203276
0.203347
0.203418
0.20349
0.203561
0.203561
0.203632
0.203703
0.203775
0.203846
0.203846
0.203917
0.203989
0.20406
0.204132
0.204132
0.204203
0.204275
0.204346
0.204418
0.204418
0.20449
0.204562
0.204633
0.204705
0.204705
0.204777
0.204849
0.204921
0.204993
0.204993
0.205065
0.205137
0.205209
0.205281
0.205281
0.205354
0.205426
0.205498
0.20557
0.20557
0.205643
0.205715
0.205788
0.20586
0.20586
0.205933
0.206005
0.206078
0.20615
0.20615
0.206223
0.206296
0.206369
0.206441
0.206441
0.206514
0.206587
0.20666
0.206733
0.206733
0.206806
0.206879
0.206952
0.207025
0.207025
0.207098
0.207172
0.207245
0.207318
0.207318
0.207391
0.207465
0.207538
0.207612
0.207612
0.207685
0.207759
0.207832
0.207906
0.207906
0.20798
0.208053
0.208127
0.208201
0.208201
0.208275
0.208349
0.208422
0.208496
0.208496
0.20857
0.208644
0.208718
0.208793
0.208793
0.208867
0.208941
0.209015
0.209089
0.209089
0.209164
0.209238
0.209312
0.209387
0.209387
0.209461
0.209536
0.20961
0.209685
0.209685
0.20976
0.209834
0.209909
0.209984
0.209984
0.210059
0.210133
0.210208
0.210283
0.210283
0.210358
0.210433
0.210508
0.210583
0.210583
0.210659
0.210734
0.210809
0.210884
0.210884
0.210959
0.211035
0.21111
0.211186
0.211186
0.211261
0.211337
0.211412
0.211488
0.211488
0.211563
0.211639
0.211715
0.21179
0.21179
0.211866
0.211942
0.212018
0.212094
0.212094
0.21217
0.212246
0.212322
0.212398
0.212398
0.212474
0.21255
0.212626
0.212703
0.212703
0.212779
0.212855
0.212932
0.213008
0.213008
0.213084
0.213161
0.213237
0.213314
0.213314
0.213391
0.213467
0.213544
0.213621
0.213621
0.213697
0.213774
0.213851
0.213928
0.213928
0.214005
0.214082
0.214159
0.214236
0.214236
0.214313
0.21439
0.214468
0.214545
0.214545
0.214622
0.214699
0.214777
0.214854
0.214854
0.214932
0.215009
0.215087
0.215164
0.215164
0.215242
0.215319
0.215397
0.215475
0.215475
0.215553
0.21563
0.215708
0.215786
0.215786
0.215864
0.215942
0.21602
0.216098
0.216098
0.216176
0.216254
0.216332
0.216411
0.216411
0.216489
0.216567
0.216646
0.216724
0.216724
0.216802
0.216881
0.216959
0.217038
0.217038
0.217117
0.217195
0.217274
0.217353
0.217353
0.217431
0.21751
0.217589
0.217668
0.217668
0.217747
0.217826
0.217905
0.217984
0.217984
0.218063
0.218142
0.218221
0.218301
0.218301
0.21838
0.218459
0.218538
0.218618
0.218618
0.218697
0.218777
0.218856
0.218936
0.218936
0.219015
0.219095
0.219175
0.219254
0.219254
0.219334
0.219414
0.219494
0.219574
0.219574
0.219654
0.219734
0.219814
0.219894
0.219894
0.219974
0.220054
0.220134
0.220214
0.220214
0.220295
0.220375
0.220455
0.220536
0.220536
0.220616
0.220697
0.220777
0.220858
0.220858
0.220938
0.221019
0.2211
0.22118
0.22118
0.221261
0.221342
0.221423
0.221504
0.221504
0.221585
0.221666
0.221747
0.221828
0.221828
0.221909
0.22199
0.222071
0.222152
0.222152
0.222234
0.222315
0.222396
0.222478
0.222478
0.222559
0.222641
0.222722
0.222804
0.222804
0.222885
0.222967
0.223049
0.22313
0.22313
0.223212
0.223294
0.223376
0.223458
0.223458
0.22354
0.223622
0.223704
0.223786
0.223786
0.223868
0.22395
0.224032
0.224114
0.224114
0.224197
0.224279
0.224361
0.224444
0.224444
0.224526
0.224609
0.224691
0.224774
0.224774
0.224856
0.224939
0.225022
0.225104
0.225104
0.225187
0.22527
0.225353
0.225436
0.225436
0.225519
0.225602
0.225685
0.225768
0.225768
0.225851
0.225934
0.226017
0.226101
0.226101
0.226184
0.226267
0.226351
0.226434
0.226434
0.226517
0.226601
0.226684
0.226768
0.226768
0.226852
0.226935
0.227019
0.227103
0.227103
0.227187
0.22727
0.227354
0.227438
0.227438
0.227522
0.227606
0.22769
0.227774
0.227774
0.227858
0.227943
0.228027
0.228111
0.228111
0.228195
0.22828
0.228364
0.228449
0.228449
0.228533
0.228617
0.228702
0.228787
0.228787
0.228871
0.228956
0.229041
0.229125
0.229125
0.22921
0.229295
0.22938
0.229465
0.229465
0.22955
0.229635
0.22972
0.229805
0.229805
0.22989
0.229975
0.230061
0.230146
0.230146
0.230231
0.230317
0.230402
0.230487
0.230487
0.230573
0.230658
0.230744
0.23083
0.23083
0.230915
0.231001
0.231087
0.231173
0.231173
0.231258
0.231344
0.23143
0.231516
0.231516
0.231602
0.231688
0.231774
0.23186
0.23186
0.231946
0.232033
0.232119
0.232205
0.232205
0.232292
0.232378
0.232464
0.232551
0.232551
0.232637
0.232724
0.23281
0.232897
0.232897
0.232984
0.233071
0.233157
0.233244
0.233244
0.233331
0.233418
0.233505
0.233592
0.233592
0.233679
0.233766
0.233853
0.23394
0.23394
0.234027
0.234114
0.234202
0.234289
0.234289
0.234376
0.234464
0.234551
0.234639
0.234639
0.234726
0.234814
0.234901
0.234989
0.234989
0.235077
0.235165
0.235252
0.23534
0.23534
0.235428
0.235516
0.235604
0.235692
0.235692
0.23578
0.235868
0.235956
0.236044
0.236044
0.236133
0.236221
0.236309
0.236397
0.236397
0.236486
0.236574
0.236663
0.236751
0.236751
0.23684
0.236928
0.237017
0.237106
0.237106
0.237194
0.237283
0.237372
0.237461
0.237461
0.23755
0.237639
0.237728
0.237817
0.237817
0.237906
0.237995
0.238084
0.238173
0.238173
0.238262
0.238352
0.238441
0.23853
0.23853
0.23862
0.238709
0.238799
0.238888
0.238888
0.238978
0.239068
0.239157
0.239247
0.239247
0.239337
0.239426
0.239516
0.239606
0.239606
0.239696
0.239786
0.239876
0.239966
0.239966
0.240056
0.240146
0.240237
0.240327
0.240327
0.240417
0.240507
0.240598
0.240688
0.240688
0.240779
0.240869
0.24096
0.24105
0.24105
0.241141
0.241231
0.241322
0.241413
0.241413
0.241504
0.241594
0.241685
0.241776
0.241776
0.241867
0.241958
0.242049
0.24214
0.24214
0.242231
0.242323
0.242414
0.242505
0.242505
0.242596
0.242688
0.242779
0.242871
0.242871
0.242962
0.243054
0.243145
0.243237
0.243237
0.243328
0.24342
0.243512
0.243604
0.243604
0.243695
0.243787
0.243879
0.243971
0.243971
0.244063
0.244155
0.244247