<?xml version="1.0"?>
<VTKFile type="UnstructuredGrid" version="0.1" byte_order="LittleEndian">
<UnstructuredGrid>
<Piece NumberOfPoints="5000" NumberOfCells="4000">
<PointData Scalars="Reaction 0">
<DataArray type="Float32" Name="Reaction 0" format="ascii">
0.596726
0.596726
0.596726
0.596726
0.596726
0.596726
0.596726
0.596726
0.596726
0.596726
0.596726
0.596726
0.596726
0.596726
0.596726
0.596726
0.596726
0.596726
0.596726
0.596727
0.596727
0.596727
0.596727
0.596727
0.596727
0.596727
0.596727
0.596727
0.596727
0.596727
0.596727
0.596727
0.596727
0.596728
0.596728
0.596728
0.596728
0.596728
0.596728
0.596728
0.596728
0.596728
0.596729
0.596729
0.596729
0.596729
0.596729
0.596729
0.596729
0.596729
0.596729
0.59673
0.59673
0.59673
0.59673
0.59673
0.59673
0.596731
0.596731
0.596731
0.596731
0.596731
0.596731
0.596732
0.596732
0.596732
0.596732
0.596732
0.596733
0.596733
0.596733
0.596733
0.596733
0.596734
0.596734
0.596734
0.596734
0.596734
0.596735
0.596735
0.596735
0.596735
0.596736
0.596736
0.596736
0.596736
0.596736
0.596737
0.596737
0.596737
0.596737
0.596738
0.596738
0.596738
0.596739
0.596739
0.596739
0.596739
0.59674
0.59674
0.59674
0.59674
0.596741
0.596741
0.596742
0.596742
0.596742
0.596742
0.596743
0.596743
0.596743
0.596743
0.596744
0.596744
0.596745
0.596745
0.596745
0.596745
0.596746
0.596746
0.596746
0.596747
0.596747
0.596748
0.596748
0.596748
0.596748
0.596749
0.596749
0.59675
0.59675
0.59675
0.596751
0.596751
0.596752
0.596752
0.596752
0.596753
0.596753
0.596754
0.596754
0.596754
0.596755
0.596755
0.596756
0.596756
0.596756
0.596757
0.596757
0.596758
0.596758
0.596758
0.596759
0.596759
0.59676
0.59676
0.59676
0.596761
0.596762
0.596762
0.596762
0.596763
0.596763
0.596764
0.596764
0.596764
0.596765
0.596766
0.596766
0.596767
0.596767
0.596767
0.596768
0.596769
0.596769
0.596769
0.59677
0.59677
0.596771
0.596772
0.596772
0.596772
0.596773
0.596774
0.596774
0.596774
0.596775
0.596776
0.596776
0.596777
0.596777
0.596778
0.596778
0.596779
0.59678
0.59678
0.59678
0.596781
0.596782
0.596782
0.596782
0.596783
0.596784
0.596785
0.596785
0.596785
0.596786
0.596787
0.596788
0.596788
0.596788
0.596789
0.59679
0.596791
0.596791
0.596791
0.596792
0.596793
0.596794
0.596794
0.596794
0.596795
0.596796
0.596797
0.596798
0.596798
0.596798
0.596799
0.5968
0.596801
0.596801
0.596802
0.596802
0.596803
0.596804
0.596804
0.596805
0.596806
0.596807
0.596807
0.596807
0.596808
0.596809
0.59681
0.596811
0.596811
0.596812
0.596813
0.596813
0.596814
0.596814
0.596815
0.596816
0.596817
0.596818
0.596818
0.596819
0.59682
0.596821
0.596822
0.596822
0.596822
0.596823
0.596824
0.596825
0.596825
0.596826
0.596827
0.596828
0.596829
0.596829
0.59683
0.596831
0.596832
0.596833
0.596833
0.596834
0.596835
0.596836
0.596837
0.596837
0.596838
0.596839
0.59684
0.596841
0.596841
0.596842
0.596843
0.596844
0.596845
0.596845
0.596846
0.596847
0.596848
0.596849
0.596849
0.59685
0.596851
0.596852
0.596853
0.596853
0.596854
0.596855
0.596856
0.596857
0.596857
0.596859
0.59686
0.596861
0.596862
0.596862
0.596863
0.596864
0.596865
0.596866
0.596866
0.596867
0.596869
0.59687
0.596871
0.596871
0.596872
0.596873
0.596874
0.596875
0.596875
0.596877
0.596878
0.596879
0.59688
0.59688
0.596881
0.596882
0.596884
0.596885
0.596885
0.596886
0.596887
0.596888
0.59689
0.59689
0.596891
0.596892
0.596893
0.596894
0.596894
0.596896
0.596897
0.596898
0.596899
0.596899
0.596901
0.596902
0.596903
0.596904
0.596904
0.596906
0.596907
0.596908
0.596909
0.596909
0.596911
0.596912
0.596913
0.596915
0.596915
0.596916
0.596917
0.596919
0.59692
0.59692
0.596921
0.596923
0.596924
0.596925
0.596925
0.596926
0.596928
0.596929
0.596931
0.596931
0.596932
0.596933
0.596935
0.596936
0.596936
0.596937
0.596939
0.59694
0.596941
0.596941
0.596943
0.596944
0.596946
0.596947
0.596947
0.596948
0.59695
0.596951
0.596953
0.596953
0.596954
0.596956
0.596957
0.596958
0.596958
0.59696
0.596961
0.596963
0.596964
0.596964
0.596966
0.596967
0.596969
0.59697
0.59697
0.596972
0.596973
0.596975
0.596976
0.596976
0.596978
0.596979
0.596981
0.596982
0.596982
0.596984
0.596985
0.596987
0.596988
0.596988
0.59699
0.596991
0.596993
0.596994
0.596994
0.596996
0.596997
0.596999
0.597001
0.597001
0.597002
0.597004
0.597005
0.597007
0.597007
0.597008
0.59701
0.597012
0.597013
0.597013
0.597015
0.597016
0.597018
0.59702
0.59702
0.597021
0.597023
0.597025
0.597026
0.597026
0.597028
0.597029
0.597031
0.597033
0.597033
0.597034
0.597036
0.597038
0.597039
0.597039
0.597041
0.597043
0.597044
0.597046
0.597046
0.597048
0.59705
0.597051
0.597053
0.597053
0.597055
0.597056
0.597058
0.59706
0.59706
0.597062
0.597063
0.597065
0.597067
0.597067
0.597069
0.59707
0.597072
0.597074
0.597074
0.597076
0.597077
0.597079
0.597081
0.597081
0.597083
0.597085
0.597086
0.597088
0.597088
0.59709
0.597092
0.597094
0.597095
0.597095
0.597097
0.597099
0.597101
0.597103
0.597103
0.597105
0.597106
0.597108
0.59711
0.59711
0.597112
0.597114
0.597116
0.597118
0.597118
0.597119
0.597121
0.597123
0.597125
0.597125
0.597127
0.597129
0.597131
0.597133
0.597133
0.597135
0.597137
0.597138
0.59714
0.59714
0.597142
0.597144
0.597146
0.597148
0.597148
0.59715
0.597152
0.597154
0.597156
0.597156
0.597158
0.59716
0.597162
0.597164
0.597164
0.597166
0.597168
0.59717
0.597172
0.597172
0.597174
0.597176
0.597178
0.59718
0.59718
0.597182
0.597184
0.597186
0.597188
0.597188
0.59719
0.597192
0.597194
0.597196
0.597196
0.597198
0.5972
0.597202
0.597204
0.597204
0.597207
0.597209
0.597211
0.597213
0.597213
0.597215
0.597217
0.597219
0.597221
0.597221
0.597223
0.597226
0.597228
0.59723
0.59723
0.597232
0.597234
0.597236
0.597238
0.597238
0.597241
0.597243
0.597245
0.597247
0.597247
0.597249
0.597251
0.597254
0.597256
0.597256
0.597258
0.59726
0.597262
0.597265
0.597265
0.597267
0.597269
0.597271
0.597273
0.597273
0.597276
0.597278
0.59728
0.597282
0.597282
0.597285
0.597287
0.597289
0.597291
0.597291
0.597294
0.597296
0.597298
0.5973
0.5973
0.597303
0.597305
0.597307
0.59731
0.59731
0.597312
0.597314
0.597317
0.597319
0.597319
0.597321
0.597324
0.597326
0.597328
0.597328
0.597331
0.597333
0.597335
0.597338
0.597338
0.59734
0.597342
0.597345
0.597347
0.597347
0.597349
0.597352
0.597354
0.597357
0.597357
0.597359
0.597361
0.597364
0.597366
0.597366
0.597369
0.597371
0.597373
0.597376
0.597376
0.597378
0.597381
0.597383
0.597386
0.597386
0.597388
0.597391
0.597393
0.597395
0.597395
0.597398
0.5974
0.597403
0.597405
0.597405
0.597408
0.59741
0.597413
0.597415
0.597415
0.597418
0.59742
0.597423
0.597425
0.597425
0.597428
0.59743
0.597433
0.597436
0.597436
0.597438
0.597441
0.597443
0.597446
0.597446
0.597448
0.597451
0.597453
0.597456
0.597456
0.597459
0.597461
0.597464
0.597466
0.597466
0.597469
0.597472
0.597474
0.597477
0.597477
0.597479
0.597482
0.597485
0.597487
0.597487
0.59749
0.597493
0.597495
0.597498
0.597498
0.5975
0.597503
0.597506
0.597508
0.597508
0.597511
0.597514
0.597517
0.597519
0.597519
0.597522
0.597525
0.597527
0.59753
0.59753
0.597533
0.597536
0.597538
0.597541
0.597541
0.597544
0.597547
0.597549
0.597552
0.597552
0.597555
0.597558
0.59756
0.597563
0.597563
0.597566
0.597569
0.597571
0.597574
0.597574
0.597577
0.59758
0.597583
0.597585
0.597585
0.597588
0.597591
0.597594
0.597597
0.597597
0.5976
0.597602
0.597605
0.597608
0.597608
0.597611
0.597614
0.597617
0.59762
0.59762
0.597622
0.597625
0.597628
0.597631
0.597631
0.597634
0.597637
0.59764
0.597643
0.597643
0.597646
0.597648
0.597651
0.597654
0.597654
0.597657
0.59766
0.597663
0.597666
0.597666
0.597669
0.597672
0.597675
0.597678
0.597678
0.597681
0.597684
0.597687
0.59769
0.59769
0.597693
0.597696
0.597699
0.597702
0.597702
0.597705
0.597708
0.597711
0.597714
0.597714
0.597717
0.59772
0.597723
0.597726
0.597726
0.597729
0.597732
0.597735
0.597738
0.597738
0.597741
0.597744
0.597747
0.59775
0.59775
0.597753
0.597756
0.59776
0.597763
0.597763
0.597766
0.597769
0.597772
0.597775
0.597775
0.597778
0.597781
0.597784
0.597788
0.597788
0.597791
0.597794
0.597797
0.5978
0.5978
0.597803
0.597806
0.59781
0.597813
0.597813
0.597816
0.597819
0.597822
0.597825
0.597825
0.597829
0.597832
0.597835
0.597838
0.597838
0.597841
0.597845
0.597848
0.597851
0.597851
0.597854
0.597858
0.597861
0.597864
0.597864
0.597867
0.597871
0.597874
0.597877
0.597877
0.59788
0.597884
0.597887
0.59789
0.59789
0.597894
0.597897
0.5979
0.597904
0.597904
0.597907
0.59791
0.597914
0.597917
0.597917
0.59792
0.597924
0.597927
0.59793
0.59793
0.597934
0.597937
0.59794
0.597944
0.597944
0.597947
0.597951
0.597954
0.597957
0.597957
0.597961
0.597964
0.597967
0.597971
0.597971
0.597974
0.597978
0.597981
0.597985
0.597985
0.597988
0.597991
0.597995
0.597998
0.597998
0.598002
0.598005
0.598009
0.598012
0.598012
0.598016
0.598019
0.598023
0.598026
0.598026
0.59803
0.598033
0.598037
0.59804
0.59804
0.598044
0.598047
0.598051
0.598054
0.598054
0.598058
0.598061
0.598065
0.598068
0.598068
0.598072
0.598075
0.598079
0.598083
0.598083
0.598086
0.59809
0.598093
0.598097
0.598097
0.5981
0.598104
0.598108
0.598111
0.598111
0.598115
0.598118
0.598122
0.598126
0.598126
0.598129
0.598133
0.598137
0.59814
0.59814
0.598144
0.598148
0.598151
0.598155
0.598155
0.598158
0.598162
0.598166
0.598169
0.598169
0.598173
0.598177
0.598181
0.598184
0.598184
0.598188
0.598192
0.598195
0.598199
0.598199
0.598203
0.598207
0.59821
0.598214
0.598214
0.598218
0.598222
0.598225
0.598229
0.598229
0.598233
0.598237
0.598241
0.598244
0.598244
0.598248
0.598252
0.598256
0.59826
0.59826
0.598263
0.598267
0.598271
0.598275
0.598275
0.598279
0.598283
0.598286
0.59829
0.59829
0.598294
0.598298
0.598302
0.598306
0.598306
0.59831
0.598313
0.598317
0.598321
0.598321
0.598325
0.598329
0.598333
0.598337
0.598337
0.598341
0.598345
0.598349
0.598353
0.598353
0.598357
0.59836
0.598364
0.598368
0.598368
0.598372
0.598376
0.59838
0.598384
0.598384
0.598388
0.598392
0.598396
0.5984
0.5984
0.598404
0.598408
0.598412
0.598416
0.598416
0.59842
0.598424
0.598428
0.598432
0.598432
0.598436
0.59844
0.598444
0.598448
0.598448
0.598452
0.598456
0.598461
0.598465
0.598465
0.598469
0.598473
0.598477
0.598481
0.598481
0.598485
0.598489
0.598493
0.598497
0.598497
0.598501
0.598506
0.59851
0.598514
0.598514
0.598518
0.598522
0.598526
0.59853
0.59853
0.598534
0.598539
0.598543
0.598547
0.598547
0.598551
0.598555
0.59856
0.598564
0.598564
0.598568
0.598572
0.598576
0.598581
0.598581
0.598585
0.598589
0.598593
0.598598
0.598598
0.598602
0.598606
0.59861
0.598615
0.598615
0.598619
0.598623
0.598627
0.598632
0.598632
0.598636
0.59864
0.598645
0.598649
0.598649
0.598653
0.598658
0.598662
0.598666
0.598666
0.598671
0.598675
0.598679
0.598684
0.598684
0.598688
0.598692
0.598697
0.598701
0.598701
0.598705
0.59871
0.598714
0.598718
0.598718
0.598723
0.598727
0.598732
0.598736
0.598736
0.59874
0.598745
0.598749
0.598754
0.598754
0.598758
0.598763
0.598767
0.598771
0.598771
0.598776
0.59878
0.598785
0.598789
0.598789
0.598794
0.598798
0.598803
0.598807
0.598807
0.598812
0.598816
0.598821
0.598825
0.598825
0.59883
0.598834
0.598839
0.598843
0.598843
0.598848
0.598852
0.598857
0.598861
0.598861
0.598866
0.59887
0.598875
0.59888
0.59888
0.598884
0.598889
0.598893
0.598898
0.598898
0.598902
0.598907
0.598912
0.598916
0.598916
0.598921
0.598926
0.59893
0.598935
0.598935
0.59894
0.598944
0.598949
0.598954
0.598954
0.598958
0.598963
0.598968
0.598972
0.598972
0.598977
0.598982
0.598986
0.598991
0.598991
0.598996
0.599001
0.599005
0.59901
0.59901
0.599015
0.599019
0.599024
0.599029
0.599029
0.599034
0.599038
0.599043
0.599048
0.599048
0.599053
0.599058
0.599062
0.599067
0.599067
0.599072
0.599077
0.599082
0.599086
0.599086
0.599091
0.599096
0.599101
0.599106
0.599106
0.59911
0.599115
0.59912
0.599125
0.599125
0.59913
0.599135
0.59914
0.599144
0.599144
0.599149
0.599154
0.599159
0.599164
0.599164
0.599169
0.599174
0.599179
0.599184
0.599184
0.599189
0.599193
0.599198
0.599203
0.599203
0.599208
0.599213
0.599218
0.599223
0.599223
0.599228
0.599233
0.599238
0.599243
0.599243
0.599248
0.599253
0.599258
0.599263
0.599263
0.599268
0.599273
0.599278
0.599283
0.599283
0.599288
0.599293
0.599298
0.599303
0.599303
0.599308
0.599313
0.599318
0.599323
0.599323
0.599329
0.599334
0.599339
0.599344
0.599344
0.599349
0.599354
0.599359
0.599364
0.599364
0.599369
0.599375
0.59938
0.599385
0.599385
0.59939
0.599395
0.5994
0.599405
0.599405
0.599411
0.599416
0.599421
0.599426
0.599426
0.599431
0.599437
0.599442
0.599447
0.599447
0.599452
0.599457
0.599463
0.599468
0.599468
0.599473
0.599478
0.599484
0.599489
0.599489
0.599494
0.599499
0.599505
0.59951
0.59951
0.599515
0.59952
0.599526
0.599531
0.599531
0.599536
0.599542
0.599547
0.599552
0.599552
0.599557
0.599563
0.599568
0.599573
0.599573
0.599579
0.599584
0.599589
0.599595
0.599595
0.5996
0.599606
0.599611
0.599616
0.599616
0.599622
0.599627
0.599632
0.599638
0.599638
0.599643
0.599649
0.599654
0.599659
0.599659
0.599665
0.59967
0.599676
0.599681
0.599681
0.599687
0.599692
0.599698
0.599703
0.599703
0.599709
0.599714
0.59972
0.599725
0.599725
0.599731
0.599736
0.599742
0.599747
0.599747
0.599753
0.599758
0.599764
0.599769
0.599769
0.599775
0.599781
0.599786
0.599792
0.599792
0.599797
0.599803
0.599808
0.599814
0.599814
0.59982
0.599825
0.599831
0.599836
0.599836
0.599842
0.599848
0.599853
0.599859
0.599859
0.599865
0.59987
0.599876
0.599882
0.599882
0.599887
0.599893
0.599898
0.599904
0.599904
0.59991
0.599916
0.599921
0.599927
0.599927
0.599933
0.599938
0.599944
0.59995
0.59995
0.599955
0.599961
0.599967
0.599973
0.599973
0.599978
0.599984
0.59999
0.599996
0.599996
0.600001
0.600007
0.600013
0.600019
0.600019
0.600025
0.60003
0.600036
0.600042
0.600042
0.600048
0.600054
0.600059
0.600065
0.600065
0.600071
0.600077
0.600083
0.600089
0.600089
0.600095
0.600101
0.600106
0.600112
0.600112
0.600118
0.600124
0.60013
0.600136
0.600136
0.600142
0.600148
0.600154
0.60016
0.60016
0.600166
0.600172
0.600178
0.600184
0.600184
0.60019
0.600196
0.600202
0.600207
0.600207
0.600213
0.600219
0.600225
0.600231
0.600231
0.600237
0.600244
0.60025
0.600256
0.600256
0.600262
0.600268
0.600274
0.60028
0.60028
0.600286
0.600292
0.600298
0.600304
0.600304
0.60031
0.600316
0.600322
0.600328
0.600328
0.600334
0.60034
0.600347
0.600353
0.600353
0.600359
0.600365
0.600371
0.600377
0.600377
0.600383
0.600389
0.600396
0.600402
0.600402
0.600408
0.600414
0.60042
0.600427
0.600427
0.600433
0.600439
0.600445
0.600451
0.600451
0.600458
0.600464
0.60047
0.600476
0.600476
0.600483
0.600489
0.600495
0.600501
0.600501
0.600508
0.600514
0.60052
0.600527
0.600527
0.600533
0.600539
0.600546
0.600552
0.600552
0.600558
0.600565
0.600571
0.600577
0.600577
0.600584
0.60059
0.600596
0.600603
0.600603
0.600609
0.600615
0.600622
0.600628
0.600628
0.600635
0.600641
0.600647
0.600654
0.600654
0.60066
0.600667
0.600673
0.600679
0.600679
0.600686
0.600692
0.600699
0.600705
0.600705
0.600712
0.600718
0.600725
0.600731
0.600731
0.600738
0.600744
0.600751
0.600757
0.600757
0.600764
0.60077
0.600777
0.600783
0.600783
0.60079
0.600796
0.600803
0.600809
0.600809
0.600816
0.600822
0.600829
0.600836
0.600836
0.600842
0.600849
0.600855
0.600862
0.600862
0.600869
0.600875
0.600882
0.600889
0.600889
0.600895
0.600902
0.600909
0.600915
0.600915
0.600922
0.600929
0.600935
0.600942
0.600942
0.600949
0.600955
0.600962
0.600969
0.600969
0.600975
0.600982
0.600989
0.600996
0.600996
0.601002
0.601009
0.601016
0.601023
0.601023
0.601029
0.601036
0.601043
0.60105
0.60105
0.601057
0.601063
0.60107
0.601077
0.601077
0.601084
0.601091
0.601097
0.601104
0.601104
0.601111
0.601118
0.601125
0.601131
0.601131
0.601138
0.601145
0.601152
0.601159
0.601159
0.601166
0.601173
0.60118
0.601186
0.601186
0.601193
0.6012
0.601207
0.601214
0.601214
0.601221
0.601228
0.601235
0.601242
0.601242
0.601249
0.601256
0.601263
0.60127
0.60127
0.601277
0.601284
0.601291
0.601298
0.601298
0.601305
0.601312
0.601319
0.601326
0.601326
0.601333
0.60134
0.601347
0.601354
0.601354
0.601361
0.601368
0.601376
0.601383
0.601383
0.60139
0.601397
0.601404
0.601411
0.601411
0.601418
0.601425
0.601432
0.60144
0.60144
0.601447
0.601454
0.601461
0.601468
0.601468
0.601475
0.601482
0.60149
0.601497
0.601497
0.601504
0.601511
0.601518
0.601526
0.601526
0.601533
0.60154
0.601547
0.601554
0.601554
0.601562
0.601569
0.601576
0.601583
0.601583
0.601591
0.601598
0.601605
0.601612
0.601612
0.60162
0.601627
0.601634
0.601642
0.601642
0.601649
0.601656
0.601664
0.601671
0.601671
0.601678
0.601686
0.601693
0.601701
0.601701
0.601708
0.601715
0.601723
0.60173
0.60173
0.601738
0.601745
0.601752
0.60176
0.60176
0.601767
0.601775
0.601782
0.60179
0.60179
0.601797
0.601805
0.601812
0.60182
0.60182
0.601827
0.601835
0.601842
0.601849
0.601849
0.601857
0.601865
0.601872
0.60188
0.60188
0.601887
0.601895
0.601902
0.60191
0.60191
0.601917
0.601925
0.601932
0.60194
0.60194
0.601947
0.601955
0.601963
0.60197
0.60197
0.601978
0.601985
0.601993
0.602001
0.602001
0.602008
0.602016
0.602024
0.602031
0.602031
0.602039
0.602047
0.602054
0.602062
0.602062
0.60207
0.602077
0.602085
0.602093
0.602093
0.602101
0.602108
0.602116
0.602124
0.602124
0.602132
0.602139
0.602147
0.602155
0.602155
0.602163
0.60217
0.602178
0.602186
0.602186
0.602194
0.602202
0.60221
0.602217
0.602217
0.602225
0.602233
0.602241
0.602249
0.602249
0.602257
0.602264
0.602272
0.60228
0.60228
0.602288
0.602296
0.602304
0.602312
0.602312
0.60232
0.602327
0.602335
0.602343
0.602343
0.602351
0.602359
0.602367
0.602375
0.602375
0.602383
0.602391
0.602399
0.602407
0.602407
0.602415
0.602423
0.602431
0.602439
0.602439
0.602447
0.602455
0.602463
0.602471
0.602471
0.602479
0.602487
0.602495
0.602503
0.602503
0.602511
0.602519
0.602528
0.602536
0.602536
0.602544
0.602552
0.60256
0.602568
0.602568
0.602576
0.602584
0.602593
0.602601
0.602601
0.602609
0.602617
0.602625
0.602633
0.602633
0.602642
0.60265
0.602658
0.602666
0.602666
0.602674
0.602683
0.602691
0.602699
0.602699
0.602707
0.602716
0.602724
0.602732
0.602732
0.60274
0.602749
0.602757
0.602765
0.602765
0.602773
0.602782
0.60279
0.602798
0.602798
0.602807
0.602815
0.602823
0.602832
0.602832
0.60284
0.602848
0.602857
0.602865
0.602865
0.602873
0.602882
0.60289
0.602898
0.602898
0.602907
0.602915
0.602924
0.602932
0.602932
0.602941
0.602949
0.602958
0.602966
0.602966
0.602975
0.602983
0.602992
0.603
0.603
0.603009
0.603017
0.603026
0.603034
0.603034
0.603043
0.603051
0.60306
0.603068
0.603068
0.603077
0.603085
0.603094
0.603102
0.603102
0.603111
0.60312
0.603128
0.603137
0.603137
0.603145
0.603154
0.603163
0.603171
0.603171
0.60318
0.603188
0.603197
0.603206
0.603206
0.603214
0.603223
0.603232
0.60324
0.60324
0.603249
0.603258
0.603266
0.603275
0.603275
0.603284
0.603293
0.603301
0.60331
0.60331
0.603319
0.603328
0.603336
0.603345
0.603345
0.603354
0.603363
0.603372
0.60338
0.60338
0.603389
0.603398
0.603407
0.603416
0.603416
0.603425
0.603433
0.603442
0.603451
0.603451
0.60346
0.603469
0.603478
0.603487
0.603487
0.603496
0.603505
0.603513
0.603522
0.603522
0.603531
0.60354
0.603549
0.603558
0.603558
0.603567
0.603576
0.603585
0.603594
0.603594
0.603603
0.603612
0.603621
0.60363
0.60363
0.603639
0.603648
0.603657
0.603666
0.603666
0.603675
0.603684
0.603693
0.603702
0.603702
0.603711
0.60372
0.603729
0.603738
0.603738
0.603747
0.603757
0.603766
0.603775
0.603775
0.603784
0.603793
0.603802
0.603811
0.603811
0.603821
0.60383
0.603839
0.603848
0.603848
0.603857
0.603867
0.603876
0.603885
0.603885
0.603894
0.603904
0.603913
0.603922
0.603922
0.603931
0.603941
0.60395
0.603959
0.603959
0.603968
0.603978
0.603987
0.603996
0.603996
0.604006
0.604015
0.604024
0.604034
0.604034
0.604043
0.604052
0.604062
0.604071
0.604071
0.60408
0.60409
0.604099
0.604108
0.604108
0.604118
0.604127
0.604137
0.604146
0.604146
0.604155
0.604165
0.604174
0.604184
0.604184
0.604193
0.604203
0.604212
0.604222
0.604222
0.604231
0.604241
0.60425
0.60426
0.60426
0.604269
0.604279
0.604288
0.604298
0.604298
0.604308
0.604317
0.604327
0.604336
0.604336
0.604346
0.604355
0.604365
0.604375
0.604375
0.604384
0.604394
0.604404
0.604413
0.604413
0.604423
0.604432
0.604442
0.604452
0.604452
0.604461
0.604471
0.604481
0.604491
0.604491
0.6045
0.60451
0.60452
0.604529
0.604529
0.604539
0.604549
0.604559
0.604568
0.604568
0.604578
0.604588
0.604598
0.604607
0.604607
0.604617
0.604627
0.604637
0.604647
0.604647
0.604657
0.604666
0.604676
0.604686
0.604686
0.604696
0.604706
0.604716
0.604726
0.604726
0.604736
0.604746
0.604755
0.604765
0.604765
0.604775
0.604785
0.604795
0.604805
0.604805
0.604815
0.604825
0.604835
0.604845
0.604845
0.604855
0.604865
0.604875
0.604885
0.604885
0.604895
0.604905
0.604915
0.604925
0.604925
0.604935
0.604945
0.604955
0.604965
0.604965
0.604975
0.604986
0.604996
0.605006
0.605006
0.605016
0.605026
0.605036
0.605046
0.605046
0.605056
0.605066
0.605077
0.605087
0.605087
0.605097
0.605107
0.605117
0.605128
0.605128
0.605138
0.605148
0.605158
0.605169
0.605169
0.605179
0.605189
0.605199
0.60521
0.60521
0.60522
0.60523
0.605241
0.605251
0.605251
0.605261
0.605272
0.605282
0.605292
0.605292
0.605303
0.605313
0.605323
0.605334
0.605334
0.605344
0.605354
0.605365
0.605375
0.605375
0.605386
0.605396
0.605406
0.605417
0.605417
0.605427
0.605438
0.605448
0.605459
0.605459
0.605469
0.60548
0.60549
0.6055
0.6055
0.605511
0.605522
0.605532
0.605543
0.605543
0.605553
0.605564
0.605574
0.605585
0.605585
0.605595
0.605606
0.605617
0.605627
0.605627
0.605638
0.605648
0.605659
0.60567
0.60567
0.60568
0.605691
0.605702
0.605712
0.605712
0.605723
0.605734
0.605744
0.605755
0.605755
0.605766
0.605777
0.605787
0.605798
0.605798
0.605809
0.60582
0.60583
0.605841
0.605841
0.605852
0.605863
0.605873
0.605884
0.605884
0.605895
0.605906
0.605917
0.605927
0.605927
0.605938
0.605949
0.60596
0.605971
0.605971
0.605982
0.605992
0.606003
0.606014
0.606014
0.606025
0.606036
0.606047
0.606058
0.606058
0.606069
0.60608
0.606091
0.606102
0.606102
0.606113
0.606124
0.606135
0.606146
0.606146
0.606157
0.606168
0.606179
0.60619
0.60619
0.606201
0.606212
0.606223
0.606234
0.606234
0.606245
0.606256
0.606267
0.606279
0.606279
0.60629
0.606301
0.606312
0.606323
0.606323
0.606334
0.606345
0.606356
0.606368
0.606368
0.606379
0.60639
0.606401
0.606412
0.606412
0.606423
0.606435
0.606446
0.606457
0.606457
0.606468
0.60648
0.606491
0.606502
0.606502
0.606514
0.606525
0.606536
0.606547
0.606547
0.606559
0.60657
0.606582
0.606593
0.606593
0.606604
0.606616
0.606627
0.606638
0.606638
0.60665
0.606661
0.606673
0.606684
0.606684
0.606695
0.606707
0.606718
0.60673
0.60673
0.606741
0.606753
0.606764
0.606776
0.606776
0.606787
0.606799
0.60681
0.606822
0.606822
0.606833
0.606845
0.606856
0.606868
0.606868
0.606879
0.606891
0.606902
0.606914
0.606914
0.606925
0.606937
0.606949
0.60696
0.60696
0.606972
0.606984
0.606995
0.607007
0.607007
0.607019
0.60703
0.607042
0.607054
0.607054
0.607066
0.607077
0.607089
0.607101
0.607101
0.607112
0.607124
0.607136
0.607148
0.607148
0.60716
0.607171
0.607183
0.607195
0.607195
0.607207
0.607219
0.60723
0.607242
0.607242
0.607254
0.607266
0.607278
0.60729
0.60729
0.607301
0.607313
0.607325
0.607337
0.607337
0.607349
0.607361
0.607373
0.607385
0.607385
0.607397
0.607409
0.607421
0.607433
0.607433
0.607445
0.607457
0.607469
0.607481
0.607481
0.607493
0.607505
0.607517
0.607529
0.607529
0.607541
0.607553
0.607565
0.607577
0.607577
0.607589
0.607602
0.607614
0.607626
0.607626
0.607638
0.60765
0.607662
0.607674
0.607674
0.607687
0.607699
0.607711
0.607723
0.607723
0.607735
0.607748
0.60776
0.607772
0.607772
0.607784
0.607797
0.607809
0.607821
0.607821
0.607833
0.607846
0.607858
0.60787
0.60787
0.607882
0.607895
0.607907
0.60792
0.60792
0.607932
0.607944
0.607957
0.607969
0.607969
0.607981
0.607994
0.608006
0.608019
0.608019
0.608031
0.608044
0.608056
0.608069
0.608069
0.608081
0.608094
0.608106
0.608119
0.608119
0.608131
0.608144
0.608156
0.608169
0.608169
0.608181
0.608194
0.608206
0.608219
0.608219
0.608231
0.608244
0.608257
0.608269
0.608269
0.608282
0.608294
0.608307
0.60832
0.60832
0.608332
0.608345
0.608358
0.60837
0.60837
0.608383
0.608396
0.608408
0.608421
0.608421
0.608434
0.608447
0.608459
0.608472
0.608472
0.608485
0.608498
0.608511
0.608523
0.608523
0.608536
0.608549
0.608562
0.608575
0.608575
0.608588
0.608601
0.608613
0.608626
0.608626
0.608639
0.608652
0.608665
0.608678
0.608678
0.608691
0.608704
0.608717
0.60873
0.60873
0.608743
0.608756
0.608769
0.608782
0.608782
0.608795
0.608808
0.608821
0.608834
0.608834
0.608847
0.60886
0.608873
0.608886
0.608886
0.608899
0.608912
0.608925
0.608938
0.608938
0.608951
0.608964
0.608978
0.608991
0.608991
0.609004
0.609017
0.60903
0.609044
0.609044
0.609057
0.60907
0.609083
0.609096
0.609096
0.60911
0.609123
0.609136
0.609149
0.609149
0.609163
0.609176
0.609189
0.609203
0.609203
0.609216
0.609229
0.609243
0.609256
0.609256
0.609269
0.609283
0.609296
0.609309
0.609309
0.609323
0.609336
0.609349
0.609363
0.609363
0.609376
0.60939
0.609403
0.609417
0.609417
0.60943
0.609444
0.609457
0.609471
0.609471
0.609484
0.609498
0.609511
0.609525
0.609525
0.609538
0.609552
0.609566
0.609579
0.609579
0.609593
0.609606
0.60962
0.609634
0.609634
0.609647
0.609661
0.609675
0.609688
0.609688
0.609702
0.609716
0.609729
0.609743
0.609743
0.609757
0.60977
0.609784
0.609798
0.609798
0.609812
0.609825
0.609839
0.609853
0.609853
0.609867
0.60988
0.609894
0.609908
0.609908
0.609922
0.609936
0.60995
0.609964
0.609964
0.609977
0.609991
0.610005
0.610019
0.610019
0.610033
0.610047
0.610061
0.610075
0.610075
0.610089
0.610103
0.610117
0.610131
0.610131
0.610145
0.610159
0.610173
0.610187
0.610187
0.610201
0.610215
0.610229
0.610243
0.610243
0.610257
0.610271
0.610285
0.6103
0.6103
0.610314
0.610328
0.610342
0.610356
0.610356
0.61037
0.610384
0.610399
0.610413
0.610413
0.610427
0.610441
0.610455
0.61047
0.61047
0.610484
0.610498
0.610513
0.610527
0.610527
0.610541
0.610555
0.61057
0.610584
0.610584
0.610598
0.610613
0.610627
0.610642
0.610642
0.610656
0.61067
0.610685
0.610699
0.610699
0.610713
0.610728
0.610742
0.610757
0.610757
0.610771
0.610786
0.6108
0.610815
0.610815
0.610829
0.610844
0.610858
0.610873
0.610873
0.610887
0.610902
0.610916
0.610931
0.610931
0.610945
0.61096
0.610975
0.610989
0.610989
0.611004
0.611019
0.611033
0.611048
0.611048
0.611063
0.611077
0.611092
0.611107
0.611107
0.611121
0.611136
0.611151
0.611166
0.611166
0.61118
0.611195
0.61121
0.611225
0.611225
0.61124
0.611254
0.611269
0.611284
0.611284
0.611299
0.611314
0.611329
0.611343
0.611343
0.611358
0.611373
0.611388
0.611403
0.611403
0.611418
0.611433
0.611448
0.611463
0.611463
0.611478
0.611493
0.611508
0.611523
0.611523
0.611538
0.611553
0.611568
0.611583
0.611583
0.611598
0.611613
0.611628
0.611643
0.611643
0.611658
0.611674
0.611689
0.611704
0.611704
0.611719
0.611734
0.611749
0.611765
0.611765
0.61178
0.611795
0.61181
0.611825
0.611825
0.611841
0.611856
0.611871
0.611886
0.611886
0.611902
0.611917
0.611932
0.611947
0.611947
0.611963
0.611978
0.611993
0.612009
0.612009
0.612024
0.61204
0.612055
0.61207
0.61207
0.612086
0.612101
0.612117
0.612132
0.612132
0.612148
0.612163
0.612179
0.612194
0.612194
0.61221
0.612225
0.612241
0.612256
0.612256
0.612272
0.612287
0.612303
0.612318
0.612318
0.612334
0.61235
0.612365
0.612381
0.612381
0.612396
0.612412
0.612428
0.612443
0.612443
0.612459
0.612475
0.61249
0.612506
0.612506
0.612522
0.612538
0.612553
0.612569
0.612569
0.612585
0.612601
0.612617
0.612632
0.612632
0.612648
0.612664
0.61268
0.612696
0.612696
0.612712
0.612728
0.612743
0.612759
0.612759
0.612775
0.612791
0.612807
0.612823
0.612823
0.612839
0.612855
0.612871
0.612887
0.612887
0.612903
0.612919
0.612935
0.612951
0.612951
0.612967
0.612983
0.612999
0.613015
0.613015
0.613031
0.613047
0.613064
0.61308
0.61308
0.613096
0.613112
0.613128
0.613144
0.613144
0.613161
0.613177
0.613193
0.613209
0.613209
0.613225
0.613242
0.613258
0.613274
0.613274
0.613291
0.613307
0.613323
0.61334
0.61334
0.613356
0.613372
0.613389
0.613405
0.613405
0.613421
0.613438
0.613454
0.61347
0.61347
0.613487
0.613503
0.61352
0.613536
0.613536
0.613553
0.613569
0.613586
0.613602
0.613602
0.613619
0.613635
0.613652
0.613668
0.613668
0.613685
0.613701
0.613718
0.613735
0.613735
0.613751
0.613768
0.613785
0.613801
0.613801
0.613818
0.613835
0.613851
0.613868
0.613868
0.613885
0.613901
0.613918
0.613935
0.613935
0.613952
0.613968
0.613985
0.614002
0.614002
0.614019
0.614035
0.614052
0.614069
0.614069
0.614086
0.614103
0.61412
0.614137
0.614137
0.614153
0.61417
0.614187
0.614204
0.614204
0.614221
0.614238
0.614255
0.614272
0.614272
0.614289
0.614306
0.614323
0.61434
0.61434
0.614357
0.614374
0.614391
0.614409
0.614409
0.614426
0.614443
0.61446
0.614477
0.614477
0.614494
0.614511
0.614528
0.614546
0.614546
0.614563
0.61458
0.614597
0.614614
0.614614
0.614632
0.614649
0.614666
0.614683
0.614683
0.614701
0.614718
0.614735
0.614753
0.614753
0.61477
0.614787
0.614805
0.614822
0.614822
0.614839
0.614857
0.614874
0.614892
0.614892
0.614909
0.614927
0.614944
0.614962
0.614962
0.614979
0.614997
0.615014
0.615032
0.615032
0.615049
0.615067
0.615084
0.615102
0.615102
0.615119
0.615137
0.615155
0.615172
0.615172
0.61519
0.615208
0.615225
0.615243
0.615243
0.61526
0.615278
0.615296
0.615314
0.615314
0.615331
0.615349
0.615367
0.615385
0.615385
0.615403
0.61542
0.615438
0.615456
0.615456
0.615474
0.615492
0.61551
0.615527
0.615527
0.615545
0.615563
0.615581
0.615599
0.615599
0.615617
0.615635
0.615653
0.615671
0.615671
0.615689
0.615707
0.615725
0.615743
0.615743
0.615761
0.615779
0.615797
0.615815
0.615815
0.615833
0.615851
0.615869
0.615888
0.615888
0.615906
0.615924
0.615942
0.61596
0.61596
0.615978
0.615997
0.616015
0.616033
0.616033
0.616051
0.61607
0.616088
0.616106
0.616106
0.616125
0.616143
0.616161
0.61618
0.61618
0.616198
0.616216
0.616235
0.616253
0.616253
0.616271
0.61629
0.616308
0.616327
0.616327
0.616345
0.616364
0.616382
0.616401
0.616401
0.616419
0.616438
0.616456
0.616475
0.616475
0.616493
0.616512
0.61653
0.616549
0.616549
0.616568
0.616586
0.616605
0.616624
0.616624
0.616642
0.616661
0.61668
0.616698
0.616698
0.616717
0.616736
0.616755
0.616773
0.616773
0.616792
0.616811
0.61683
0.616848
0.616848
0.616867
0.616886
0.616905
0.616924
0.616924
0.616943
0.616962
0.61698
0.616999