<?xml version="1.0"?>
<VTKFile type="UnstructuredGrid" version="0.1" byte_order="LittleEndian">
<UnstructuredGrid>
<Piece NumberOfPoints="5000" NumberOfCells="4000">
<PointData Scalars="Reaction 0">
<DataArray type="Float32" Name="Reaction 0" format="ascii">
0.580503
0.580503
0.580503
0.580503
0.580503
0.580503
0.580503
0.580503
0.580503
0.580503
0.580503
0.580503
0.580503
0.580503
0.580503
0.580503
0.580503
0.580503
0.580503
0.580503
0.580503
0.580503
0.580503
0.580503
0.580503
0.580503
0.580503
0.580503
0.580503
0.580503
0.580503
0.580503
0.580503
0.580503
0.580503
0.580503
0.580504
0.580504
0.580504
0.580504
0.580504
0.580504
0.580504
0.580504
0.580504
0.580504
0.580504
0.580504
0.580504
0.580504
0.580504
0.580504
0.580504
0.580504
0.580504
0.580504
0.580504
0.580504
0.580505
0.580505
0.580505
0.580505
0.580505
0.580505
0.580505
0.580505
0.580505
0.580505
0.580505
0.580505
0.580505
0.580505
0.580505
0.580506
0.580506
0.580506
0.580506
0.580506
0.580506
0.580506
0.580506
0.580506
0.580506
0.580506
0.580506
0.580506
0.580507
0.580507
0.580507
0.580507
0.580507
0.580507
0.580507
0.580507
0.580507
0.580507
0.580507
0.580508
0.580508
0.580508
0.580508
0.580508
0.580508
0.580508
0.580508
0.580508
0.580508
0.580509
0.580509
0.580509
0.580509
0.580509
0.580509
0.580509
0.580509
0.580509
0.580509
0.58051
0.58051
0.58051
0.58051
0.58051
0.58051
0.58051
0.58051
0.58051
0.580511
0.580511
0.580511
0.580511
0.580511
0.580511
0.580511
0.580512
0.580512
0.580512
0.580512
0.580512
0.580512
0.580512
0.580512
0.580513
0.580513
0.580513
0.580513
0.580513
0.580513
0.580513
0.580514
0.580514
0.580514
0.580514
0.580514
0.580514
0.580515
0.580515
0.580515
0.580515
0.580515
0.580515
0.580515
0.580516
0.580516
0.580516
0.580516
0.580516
0.580516
0.580517
0.580517
0.580517
0.580517
0.580517
0.580517
0.580518
0.580518
0.580518
0.580518
0.580518
0.580518
0.580519
0.580519
0.580519
0.580519
0.580519
0.58052
0.58052
0.58052
0.58052
0.58052
0.58052
0.58052
0.580521
0.580521
0.580521
0.580521
0.580521
0.580522
0.580522
0.580522
0.580522
0.580522
0.580523
0.580523
0.580523
0.580523
0.580523
0.580524
0.580524
0.580524
0.580524
0.580524
0.580525
0.580525
0.580525
0.580525
0.580525
0.580526
0.580526
0.580526
0.580526
0.580526
0.580527
0.580527
0.580527
0.580528
0.580528
0.580528
0.580528
0.580528
0.580529
0.580529
0.580529
0.580529
0.58053
0.58053
0.58053
0.58053
0.58053
0.580531
0.580531
0.580531
0.580531
0.580532
0.580532
0.580532
0.580532
0.580532
0.580533
0.580533
0.580533
0.580533
0.580534
0.580534
0.580534
0.580535
0.580535
0.580535
0.580535
0.580536
0.580536
0.580536
0.580536
0.580536
0.580537
0.580537
0.580537
0.580537
0.580538
0.580538
0.580538
0.580538
0.580539
0.580539
0.580539
0.58054
0.58054
0.58054
0.58054
0.580541
0.580541
0.580541
0.580541
0.580542
0.580542
0.580542
0.580542
0.580543
0.580543
0.580544
0.580544
0.580544
0.580544
0.580545
0.580545
0.580545
0.580545
0.580546
0.580546
0.580546
0.580547
0.580547
0.580547
0.580547
0.580548
0.580548
0.580548
0.580549
0.580549
0.580549
0.58055
0.58055
0.58055
0.58055
0.580551
0.580551
0.580551
0.580552
0.580552
0.580552
0.580553
0.580553
0.580553
0.580554
0.580554
0.580554
0.580554
0.580555
0.580555
0.580556
0.580556
0.580556
0.580556
0.580557
0.580557
0.580558
0.580558
0.580558
0.580558
0.580559
0.580559
0.580559
0.58056
0.58056
0.580561
0.580561
0.580561
0.580561
0.580562
0.580562
0.580563
0.580563
0.580563
0.580564
0.580564
0.580564
0.580564
0.580565
0.580565
0.580566
0.580566
0.580566
0.580567
0.580567
0.580567
0.580568
0.580568
0.580568
0.580569
0.580569
0.58057
0.58057
0.58057
0.580571
0.580571
0.580572
0.580572
0.580572
0.580572
0.580573
0.580573
0.580573
0.580574
0.580574
0.580575
0.580575
0.580575
0.580576
0.580576
0.580577
0.580577
0.580577
0.580578
0.580578
0.580579
0.580579
0.580579
0.58058
0.58058
0.580581
0.580581
0.580581
0.580582
0.580582
0.580582
0.580583
0.580583
0.580583
0.580584
0.580584
0.580585
0.580585
0.580585
0.580586
0.580586
0.580587
0.580587
0.580588
0.580588
0.580589
0.580589
0.580589
0.58059
0.58059
0.580591
0.580591
0.580591
0.580592
0.580592
0.580593
0.580593
0.580593
0.580594
0.580594
0.580595
0.580595
0.580595
0.580596
0.580596
0.580597
0.580597
0.580597
0.580598
0.580599
0.580599
0.5806
0.5806
0.5806
0.580601
0.580601
0.580602
0.580602
0.580602
0.580603
0.580604
0.580604
0.580604
0.580605
0.580605
0.580606
0.580606
0.580606
0.580607
0.580607
0.580608
0.580609
0.580609
0.580609
0.58061
0.58061
0.580611
0.580611
0.580611
0.580612
0.580613
0.580613
0.580613
0.580614
0.580614
0.580615
0.580616
0.580616
0.580616
0.580617
0.580617
0.580618
0.580618
0.580619
0.580619
0.58062
0.58062
0.58062
0.580621
0.580622
0.580622
0.580623
0.580623
0.580623
0.580624
0.580625
0.580625
0.580625
0.580626
0.580626
0.580627
0.580628
0.580628
0.580628
0.580629
0.58063
0.58063
0.58063
0.580631
0.580631
0.580632
0.580633
0.580633
0.580633
0.580634
0.580635
0.580635
0.580635
0.580636
0.580636
0.580637
0.580638
0.580638
0.580638
0.580639
0.58064
0.58064
0.58064
0.580641
0.580642
0.580642
0.580643
0.580643
0.580644
0.580644
0.580645
0.580646
0.580646
0.580646
0.580647
0.580648
0.580648
0.580648
0.580649
0.58065
0.58065
0.580651
0.580651
0.580652
0.580652
0.580653
0.580654
0.580654
0.580654
0.580655
0.580656
0.580656
0.580656
0.580657
0.580658
0.580658
0.580659
0.580659
0.58066
0.580661
0.580661
0.580662
0.580662
0.580663
0.580663
0.580664
0.580665
0.580665
0.580666
0.580666
0.580667
0.580668
0.580668
0.580668
0.580669
0.58067
0.580671
0.580671
0.580671
0.580672
0.580673
0.580673
0.580673
0.580674
0.580675
0.580676
0.580676
0.580676
0.580677
0.580678
0.580679
0.580679
0.580679
0.58068
0.580681
0.580682
0.580682
0.580682
0.580683
0.580684
0.580685
0.580685
0.580685
0.580686
0.580687
0.580688
0.580688
0.580688
0.580689
0.58069
0.580691
0.580691
0.580691
0.580692
0.580693
0.580694
0.580694
0.580694
0.580695
0.580696
0.580697
0.580698
0.580698
0.580698
0.580699
0.5807
0.580701
0.580701
0.580701
0.580702
0.580703
0.580704
0.580704
0.580705
0.580705
0.580706
0.580707
0.580707
0.580708
0.580709
0.580709
0.58071
0.58071
0.580711
0.580712
0.580713
0.580713
0.580713
0.580714
0.580715
0.580716
0.580717
0.580717
0.580718
0.580718
0.580719
0.58072
0.58072
0.580721
0.580722
0.580722
0.580723
0.580723
0.580724
0.580725
0.580726
0.580727
0.580727
0.580727
0.580728
0.580729
0.58073
0.58073
0.580731
0.580732
0.580733
0.580733
0.580733
0.580734
0.580735
0.580736
0.580737
0.580737
0.580738
0.580739
0.580739
0.58074
0.58074
0.580741
0.580742
0.580743
0.580744
0.580744
0.580745
0.580745
0.580746
0.580747
0.580747
0.580748
0.580749
0.58075
0.580751
0.580751
0.580752
0.580752
0.580753
0.580754
0.580754
0.580755
0.580756
0.580757
0.580758
0.580758
0.580759
0.58076
0.58076
0.580761
0.580761
0.580762
0.580763
0.580764
0.580765
0.580765
0.580766
0.580767
0.580768
0.580769
0.580769
0.580769
0.58077
0.580771
0.580772
0.580772
0.580773
0.580774
0.580775
0.580776
0.580776
0.580777
0.580778
0.580779
0.58078
0.58078
0.580781
0.580782
0.580782
0.580783
0.580783
0.580784
0.580785
0.580786
0.580787
0.580787
0.580788
0.580789
0.58079
0.580791
0.580791
0.580792
0.580793
0.580794
0.580795
0.580795
0.580796
0.580797
0.580798
0.580799
0.580799
0.5808
0.580801
0.580802
0.580803
0.580803
0.580804
0.580804
0.580805
0.580806
0.580806
0.580807
0.580808
0.580809
0.58081
0.58081
0.580811
0.580812
0.580813
0.580814
0.580814
0.580815
0.580816
0.580817
0.580818
0.580818
0.580819
0.58082
0.580821
0.580822
0.580822
0.580823
0.580824
0.580825
0.580826
0.580826
0.580827
0.580828
0.580829
0.58083
0.58083
0.580831
0.580832
0.580833
0.580834
0.580834
0.580836
0.580837
0.580838
0.580839
0.580839
0.58084
0.580841
0.580842
0.580843
0.580843
0.580844
0.580845
0.580846
0.580847
0.580847
0.580848
0.580849
0.58085
0.580851
0.580851
0.580852
0.580853
0.580854
0.580855
0.580855
0.580856
0.580857
0.580858
0.58086
0.58086
0.580861
0.580862
0.580863
0.580864
0.580864
0.580865
0.580866
0.580867
0.580868
0.580868
0.580869
0.58087
0.580871
0.580872
0.580872
0.580873
0.580875
0.580876
0.580877
0.580877
0.580878
0.580879
0.58088
0.580881
0.580881
0.580882
0.580883
0.580884
0.580885
0.580885
0.580886
0.580888
0.580889
0.58089
0.58089
0.580891
0.580892
0.580893
0.580894
0.580894
0.580895
0.580897
0.580898
0.580899
0.580899
0.5809
0.580901
0.580902
0.580903
0.580903
0.580905
0.580906
0.580907
0.580908
0.580908
0.580909
0.58091
0.580911
0.580912
0.580912
0.580914
0.580915
0.580916
0.580917
0.580917
0.580918
0.580919
0.580921
0.580922
0.580922
0.580923
0.580924
0.580925
0.580926
0.580926
0.580928
0.580929
0.58093
0.580931
0.580931
0.580932
0.580933
0.580935
0.580936
0.580936
0.580937
0.580938
0.580939
0.58094
0.58094
0.580942
0.580943
0.580944
0.580945
0.580945
0.580946
0.580948
0.580949
0.58095
0.58095
0.580951
0.580952
0.580954
0.580955
0.580955
0.580956
0.580957
0.580958
0.58096
0.58096
0.580961
0.580962
0.580963
0.580964
0.580964
0.580966
0.580967
0.580968
0.580969
0.580969
0.580971
0.580972
0.580973
0.580974
0.580974
0.580975
0.580977
0.580978
0.580979
0.580979
0.58098
0.580982
0.580983
0.580984
0.580984
0.580985
0.580987
0.580988
0.580989
0.580989
0.58099
0.580992
0.580993
0.580994
0.580994
0.580995
0.580997
0.580998
0.580999
0.580999
0.581
0.581002
0.581003
0.581004
0.581004
0.581005
0.581007
0.581008
0.581009
0.581009
0.58101
0.581012
0.581013
0.581014
0.581014
0.581016
0.581017
0.581018
0.58102
0.58102
0.581021
0.581022
0.581023
0.581025
0.581025
0.581026
0.581027
0.581029
0.58103
0.58103
0.581031
0.581033
0.581034
0.581035
0.581035
0.581037
0.581038
0.581039
0.581041
0.581041
0.581042
0.581043
0.581044
0.581046
0.581046
0.581047
0.581048
0.58105
0.581051
0.581051
0.581052
0.581054
0.581055
0.581056
0.581056
0.581058
0.581059
0.581061
0.581062
0.581062
0.581063
0.581065
0.581066
0.581067
0.581067
0.581069
0.58107
0.581071
0.581073
0.581073
0.581074
0.581075
0.581077
0.581078
0.581078
0.58108
0.581081
0.581082
0.581084
0.581084
0.581085
0.581086
0.581088
0.581089
0.581089
0.581091
0.581092
0.581093
0.581095
0.581095
0.581096
0.581097
0.581099
0.5811
0.5811
0.581102
0.581103
0.581104
0.581106
0.581106
0.581107
0.581109
0.58111
0.581111
0.581111
0.581113
0.581114
0.581116
0.581117
0.581117
0.581118
0.58112
0.581121
0.581123
0.581123
0.581124
0.581126
0.581127
0.581128
0.581128
0.58113
0.581131
0.581133
0.581134
0.581134
0.581136
0.581137
0.581138
0.58114
0.58114
0.581141
0.581143
0.581144
0.581146
0.581146
0.581147
0.581149
0.58115
0.581152
0.581152
0.581153
0.581155
0.581156
0.581157
0.581157
0.581159
0.58116
0.581162
0.581163
0.581163
0.581165
0.581166
0.581168
0.581169
0.581169
0.581171
0.581172
0.581174
0.581175
0.581175
0.581177
0.581178
0.58118
0.581181
0.581181
0.581183
0.581184
0.581186
0.581187
0.581187
0.581189
0.58119
0.581192
0.581193
0.581193
0.581195
0.581196
0.581198
0.581199
0.581199
0.581201
0.581202
0.581204
0.581205
0.581205
0.581207
0.581208
0.58121
0.581211
0.581211
0.581213
0.581214
0.581216
0.581218
0.581218
0.581219
0.581221
0.581222
0.581224
0.581224
0.581225
0.581227
0.581228
0.58123
0.58123
0.581231
0.581233
0.581234
0.581236
0.581236
0.581238
0.581239
0.581241
0.581242
0.581242
0.581244
0.581245
0.581247
0.581248
0.581248
0.58125
0.581252
0.581253
0.581255
0.581255
0.581256
0.581258
0.58126
0.581261
0.581261
0.581263
0.581264
0.581266
0.581268
0.581268
0.581269
0.581271
0.581272
0.581274
0.581274
0.581276
0.581277
0.581279
0.58128
0.58128
0.581282
0.581284
0.581285
0.581287
0.581287
0.581288
0.58129
0.581292
0.581293
0.581293
0.581295
0.581297
0.581298
0.5813
0.5813
0.581301
0.581303
0.581305
0.581306
0.581306
0.581308
0.58131
0.581311
0.581313
0.581313
0.581315
0.581316
0.581318
0.58132
0.58132
0.581321
0.581323
0.581325
0.581326
0.581326
0.581328
0.58133
0.581331
0.581333
0.581333
0.581335
0.581336
0.581338
0.58134
0.58134
0.581341
0.581343
0.581345
0.581346
0.581346
0.581348
0.58135
0.581351
0.581353
0.581353
0.581355
0.581356
0.581358
0.58136
0.58136
0.581361
0.581363
0.581365
0.581366
0.581366
0.581368
0.58137
0.581372
0.581373
0.581373
0.581375
0.581377
0.581378
0.58138
0.58138
0.581382
0.581383
0.581385
0.581387
0.581387
0.581389
0.58139
0.581392
0.581394
0.581394
0.581396
0.581397
0.581399
0.581401
0.581401
0.581403
0.581404
0.581406
0.581408
0.581408
0.58141
0.581411
0.581413
0.581415
0.581415
0.581417
0.581418
0.58142
0.581422
0.581422
0.581424
0.581426
0.581427
0.581429
0.581429
0.581431
0.581433
0.581434
0.581436
0.581436
0.581438
0.58144
0.581442
0.581443
0.581443
0.581445
0.581447
0.581449
0.58145
0.58145
0.581452
0.581454
0.581456
0.581458
0.581458
0.581459
0.581461
0.581463
0.581465
0.581465
0.581467
0.581468
0.58147
0.581472
0.581472
0.581474
0.581476
0.581478
0.581479
0.581479
0.581481
0.581483
0.581485
0.581487
0.581487
0.581488
0.58149
0.581492
0.581494
0.581494
0.581496
0.581498
0.581499
0.581501
0.581501
0.581503
0.581505
0.581507
0.581509
0.581509
0.58151
0.581512
0.581514
0.581516
0.581516
0.581518
0.58152
0.581522
0.581524
0.581524
0.581525
0.581527
0.581529
0.581531
0.581531
0.581533
0.581535
0.581537
0.581539
0.581539
0.581541
0.581542
0.581544
0.581546
0.581546
0.581548
0.58155
0.581552
0.581554
0.581554
0.581556
0.581558
0.58156
0.581561
0.581561
0.581563
0.581565
0.581567
0.581569
0.581569
0.581571
0.581573
0.581575
0.581577
0.581577
0.581579
0.581581
0.581583
0.581584
0.581584
0.581586
0.581588
0.58159
0.581592
0.581592
0.581594
0.581596
0.581598
0.5816
0.5816
0.581602
0.581604
0.581606
0.581608
0.581608
0.58161
0.581612
0.581614
0.581615
0.581615
0.581617
0.581619
0.581621
0.581623
0.581623
0.581625
0.581627
0.581629
0.581631
0.581631
0.581633
0.581635
0.581637
0.581639
0.581639
0.581641
0.581643
0.581645
0.581647
0.581647
0.581649
0.581651
0.581653
0.581655
0.581655
0.581657
0.581659
0.581661
0.581663
0.581663
0.581665
0.581667
0.581669
0.581671
0.581671
0.581673
0.581675
0.581677
0.581679
0.581679
0.581681
0.581683
0.581685
0.581687
0.581687
0.581689
0.581691
0.581693
0.581696
0.581696
0.581698
0.5817
0.581702
0.581704
0.581704
0.581706
0.581708
0.58171
0.581712
0.581712
0.581714
0.581716
0.581718
0.58172
0.58172
0.581722
0.581724
0.581726
0.581728
0.581728
0.58173
0.581733
0.581735
0.581737
0.581737
0.581739
0.581741
0.581743
0.581745
0.581745
0.581747
0.581749
0.581751
0.581753
0.581753
0.581755
0.581757
0.58176
0.581762
0.581762
0.581764
0.581766
0.581768
0.58177
0.58177
0.581772
0.581774
0.581776
0.581778
0.581778
0.581781
0.581783
0.581785
0.581787
0.581787
0.581789
0.581791
0.581793
0.581796
0.581796
0.581798
0.5818
0.581802
0.581804
0.581804
0.581806
0.581808
0.581811
0.581813
0.581813
0.581815
0.581817
0.581819
0.581821
0.581821
0.581824
0.581826
0.581828
0.58183
0.58183
0.581832
0.581834
0.581837
0.581839
0.581839
0.581841
0.581843
0.581845
0.581847
0.581847
0.58185
0.581852
0.581854
0.581856
0.581856
0.581858
0.581861
0.581863
0.581865
0.581865
0.581867
0.581869
0.581872
0.581874
0.581874
0.581876
0.581878
0.58188
0.581883
0.581883
0.581885
0.581887
0.581889
0.581891
0.581891
0.581894
0.581896
0.581898
0.5819
0.5819
0.581902
0.581905
0.581907
0.581909
0.581909
0.581911
0.581914
0.581916
0.581918
0.581918
0.581921
0.581923
0.581925
0.581927
0.581927
0.58193
0.581932
0.581934
0.581936
0.581936
0.581939
0.581941
0.581943
0.581945
0.581945
0.581948
0.58195
0.581952
0.581955
0.581955
0.581957
0.581959
0.581961
0.581964
0.581964
0.581966
0.581968
0.581971
0.581973
0.581973
0.581975
0.581978
0.58198
0.581982
0.581982
0.581984
0.581987
0.581989
0.581991
0.581991
0.581994
0.581996
0.581998
0.582001
0.582001
0.582003
0.582005
0.582008
0.58201
0.58201
0.582012
0.582015
0.582017
0.582019
0.582019
0.582022
0.582024
0.582026
0.582028
0.582028
0.582031
0.582033
0.582036
0.582038
0.582038
0.58204
0.582043
0.582045
0.582047
0.582047
0.58205
0.582052
0.582054
0.582057
0.582057
0.582059
0.582062
0.582064
0.582066
0.582066
0.582069
0.582071
0.582074
0.582076
0.582076
0.582078
0.582081
0.582083
0.582086
0.582086
0.582088
0.58209
0.582093
0.582095
0.582095
0.582098
0.5821
0.582102
0.582105
0.582105
0.582107
0.58211
0.582112
0.582115
0.582115
0.582117
0.582119
0.582122
0.582124
0.582124
0.582127
0.582129
0.582132
0.582134
0.582134
0.582136
0.582139
0.582141
0.582144
0.582144
0.582146
0.582149
0.582151
0.582154
0.582154
0.582156
0.582158
0.582161
0.582163
0.582163
0.582166
0.582168
0.582171
0.582173
0.582173
0.582176
0.582178
0.582181
0.582183
0.582183
0.582186
0.582188
0.582191
0.582193
0.582193
0.582196
0.582198
0.582201
0.582203
0.582203
0.582206
0.582208
0.582211
0.582213
0.582213
0.582216
0.582218
0.582221
0.582223
0.582223
0.582226
0.582228
0.582231
0.582233
0.582233
0.582236
0.582238
0.582241
0.582244
0.582244
0.582246
0.582249
0.582251
0.582254
0.582254
0.582256
0.582259
0.582261
0.582264
0.582264
0.582266
0.582269
0.582272
0.582274
0.582274
0.582277
0.582279
0.582282
0.582284
0.582284
0.582287
0.582289
0.582292
0.582295
0.582295
0.582297
0.5823
0.582302
0.582305
0.582305
0.582307
0.58231
0.582313
0.582315
0.582315
0.582318
0.58232
0.582323
0.582326
0.582326
0.582328
0.582331
0.582334
0.582336
0.582336
0.582339
0.582341
0.582344
0.582347
0.582347
0.582349
0.582352
0.582355
0.582357
0.582357
0.58236
0.582363
0.582365
0.582368
0.582368
0.582371
0.582373
0.582376
0.582378
0.582378
0.582381
0.582384
0.582386
0.582389
0.582389
0.582392
0.582394
0.582397
0.5824
0.5824
0.582402
0.582405
0.582408
0.58241
0.58241
0.582413
0.582416
0.582418
0.582421
0.582421
0.582424
0.582427
0.582429
0.582432
0.582432
0.582435
0.582437
0.58244
0.582443
0.582443
0.582445
0.582448
0.582451
0.582453
0.582453
0.582456
0.582459
0.582462
0.582464
0.582464
0.582467
0.58247
0.582473
0.582475
0.582475
0.582478
0.582481
0.582484
0.582486
0.582486
0.582489
0.582492
0.582495
0.582497
0.582497
0.5825
0.582503
0.582506
0.582508
0.582508
0.582511
0.582514
0.582517
0.582519
0.582519
0.582522
0.582525
0.582528
0.582531
0.582531
0.582533
0.582536
0.582539
0.582542
0.582542
0.582544
0.582547
0.58255
0.582553
0.582553
0.582556
0.582558
0.582561
0.582564
0.582564
0.582567
0.58257
0.582572
0.582575
0.582575
0.582578
0.582581
0.582584
0.582586
0.582586
0.582589
0.582592
0.582595
0.582598
0.582598
0.582601
0.582603
0.582606
0.582609
0.582609
0.582612
0.582615
0.582618
0.582621
0.582621
0.582623
0.582626
0.582629
0.582632
0.582632
0.582635
0.582638
0.582641
0.582644
0.582644
0.582646
0.582649
0.582652
0.582655
0.582655
0.582658
0.582661
0.582664
0.582667
0.582667
0.58267
0.582672
0.582675
0.582678
0.582678
0.582681
0.582684
0.582687
0.58269
0.58269
0.582693
0.582696
0.582699
0.582702
0.582702
0.582704
0.582707
0.58271
0.582713
0.582713
0.582716
0.582719
0.582722
0.582725
0.582725
0.582728
0.582731
0.582734
0.582737
0.582737
0.582739
0.582742
0.582745
0.582748
0.582748
0.582751
0.582754
0.582757
0.58276
0.58276
0.582763
0.582766
0.582769
0.582772
0.582772
0.582775
0.582778
0.582781
0.582784
0.582784
0.582787
0.58279
0.582793
0.582796
0.582796
0.582799
0.582802
0.582805
0.582808
0.582808
0.582811
0.582814
0.582817
0.58282
0.58282
0.582823
0.582826
0.582829
0.582832
0.582832
0.582835
0.582838
0.582841
0.582844
0.582844
0.582848
0.582851
0.582854
0.582857
0.582857
0.58286
0.582863
0.582866
0.582869
0.582869
0.582872
0.582875
0.582878
0.582881
0.582881
0.582884
0.582887
0.58289
0.582893
0.582893
0.582896
0.582899
0.582902
0.582906
0.582906
0.582909
0.582912
0.582915
0.582918
0.582918
0.582921
0.582924
0.582927
0.58293
0.58293
0.582934
0.582937
0.58294
0.582943
0.582943
0.582946
0.582949
0.582952
0.582955
0.582955
0.582959
0.582962
0.582965
0.582968
0.582968
0.582971
0.582974
0.582977
0.58298
0.58298
0.582984
0.582987
0.58299
0.582993
0.582993
0.582996
0.582999
0.583003
0.583006
0.583006
0.583009
0.583012
0.583015
0.583018
0.583018
0.583021
0.583025
0.583028
0.583031
0.583031
0.583034
0.583037
0.58304
0.583044
0.583044
0.583047
0.58305
0.583053
0.583057
0.583057
0.58306
0.583063
0.583066
0.583069
0.583069
0.583073
0.583076
0.583079
0.583082
0.583082
0.583086
0.583089
0.583092
0.583095
0.583095
0.583099
0.583102
0.583105
0.583108
0.583108
0.583112
0.583115
0.583118
0.583121
0.583121
0.583125
0.583128
0.583131
0.583134
0.583134
0.583138
0.583141
0.583144
0.583147
0.583147
0.583151
0.583154
0.583157
0.58316
0.58316
0.583164
0.583167
0.58317
0.583174
0.583174
0.583177
0.58318
0.583183
0.583187
0.583187
0.58319
0.583193
0.583197
0.5832
0.5832
0.583203
0.583207
0.58321
0.583213
0.583213
0.583217
0.58322
0.583223
0.583227
0.583227
0.58323
0.583233
0.583237
0.58324
0.58324
0.583244
0.583247
0.58325
0.583254
0.583254
0.583257
0.58326
0.583264
0.583267
0.583267
0.58327
0.583274
0.583277
0.583281
0.583281
0.583284
0.583287
0.583291
0.583294
0.583294
0.583297
0.583301
0.583304
0.583308
0.583308
0.583311
0.583314
0.583318
0.583321
0.583321
0.583325
0.583328
0.583331
0.583335
0.583335
0.583338
0.583342
0.583345
0.583349
0.583349
0.583352
0.583355
0.583359
0.583362
0.583362
0.583366
0.583369
0.583373
0.583376
0.583376
0.58338
0.583383
0.583387
0.58339
0.58339
0.583394
0.583397
0.583401
0.583404
0.583404
0.583408
0.583411
0.583414
0.583418
0.583418
0.583421
0.583425
0.583428
0.583432
0.583432
0.583435
0.583439
0.583442
0.583446
0.583446
0.583449
0.583453
0.583456
0.58346
0.58346
0.583463
0.583467
0.58347
0.583474
0.583474
0.583477
0.583481
0.583485
0.583488
0.583488
0.583492
0.583495
0.583499
0.583502
0.583502
0.583506
0.583509
0.583513
0.583517
0.583517
0.58352
0.583524
0.583527
0.583531
0.583531
0.583534
0.583538
0.583542
0.583545
0.583545
0.583549
0.583552
0.583556
0.58356
0.58356
0.583563
0.583567
0.58357
0.583574
0.583574
0.583578
0.583581
0.583585
0.583588
0.583588
0.583592
0.583596
0.583599
0.583603
0.583603
0.583607
0.58361
0.583614
0.583617
0.583617
0.583621
0.583625
0.583628
0.583632
0.583632
0.583636
0.583639
0.583643
0.583647
0.583647
0.58365
0.583654
0.583658
0.583661
0.583661
0.583665
0.583669
0.583672
0.583676
0.583676
0.58368
0.583683
0.583687
0.583691
0.583691
0.583695
0.583698
0.583702
0.583706
0.583706
0.583709
0.583713
0.583717
0.583721
0.583721
0.583724
0.583728
0.583732
0.583735
0.583735
0.583739
0.583743
0.583747
0.58375
0.58375
0.583754
0.583758
0.583762
0.583765
0.583765
0.583769
0.583773
0.583777
0.58378
0.58378
0.583784
0.583788
0.583792
0.583795
0.583795
0.583799
0.583803
0.583807
0.58381
0.58381
0.583814
0.583818
0.583822
0.583826
0.583826
0.583829
0.583833
0.583837
0.583841
0.583841
0.583845
0.583849
0.583852
0.583856
0.583856
0.58386
0.583864
0.583868
0.583872
0.583872
0.583875
0.583879
0.583883
0.583887
0.583887
0.583891
0.583895
0.583899
0.583902
0.583902
0.583906
0.58391
0.583914
0.583918
0.583918
0.583922
0.583926
0.583929
0.583933
0.583933
0.583937
0.583941
0.583945
0.583949
0.583949
0.583953
0.583956
0.58396
0.583964
0.583964
0.583968
0.583972
0.583976
0.58398
0.58398
0.583984
0.583988
0.583992
0.583996
0.583996
0.584
0.584004
0.584007
0.584011
0.584011
0.584015
0.584019
0.584023
0.584027
0.584027
0.584031
0.584035
0.584039
0.584043
0.584043
0.584047
0.584051
0.584055
0.584059
0.584059
0.584063
0.584067
0.584071
0.584075
0.584075
0.584079
0.584083
0.584087
0.584091
0.584091
0.584095
0.584099
0.584103
0.584107
0.584107
0.584111
0.584115
0.584119
0.584123
0.584123
0.584127
0.584131
0.584135
0.584139
0.584139
0.584143
0.584147
0.584151
0.584155
0.584155
0.584159
0.584163
0.584167
0.584171
0.584171
0.584175
0.58418
0.584184
0.584188
0.584188
0.584192
0.584196
0.5842
0.584204
0.584204
0.584208
0.584212
0.584216
0.58422
0.58422
0.584224
0.584229
0.584233
0.584237
0.584237
0.584241
0.584245
0.584249
0.584253
0.584253
0.584257
0.584261
0.584265
0.58427
0.58427
0.584274
0.584278
0.584282
0.584286
0.584286
0.58429
0.584294
0.584299
0.584303
0.584303
0.584307
0.584311
0.584315
0.584319
0.584319
0.584324
0.584328
0.584332
0.584336
0.584336
0.58434
0.584345
0.584349
0.584353
0.584353
0.584357
0.584361
0.584366
0.58437
0.58437
0.584374
0.584378
0.584382
0.584387
0.584387
0.584391
0.584395
0.584399
0.584404
0.584404
0.584408
0.584412
0.584416
0.58442
0.58442
0.584425
0.584429
0.584433
0.584437
0.584437
0.584442
0.584446
0.58445
0.584454
0.584454
0.584459
0.584463
0.584467
0.584471
0.584471
0.584476
0.58448
0.584484
0.584489
0.584489
0.584493
0.584497
0.584502
0.584506
0.584506
0.58451
0.584515
0.584519
0.584523
0.584523
0.584528
0.584532
0.584536
0.584541
0.584541
0.584545
0.584549
0.584554
0.584558
0.584558
0.584562
0.584567
0.584571
0.584575
0.584575
0.58458
0.584584
0.584588
0.584593
0.584593
0.584597
0.584601
0.584606
0.58461
0.58461
0.584615
0.584619
0.584623
0.584628
0.584628
0.584632
0.584636
0.584641
0.584645
0.584645
0.58465
0.584654
0.584659
0.584663
0.584663
0.584668
0.584672
0.584676
0.584681
0.584681
0.584685
0.58469
0.584694
0.584699
0.584699
0.584703
0.584708
0.584712
0.584716
0.584716
0.584721
0.584725
0.58473
0.584734
0.584734
0.584739
0.584743
0.584748
0.584752
0.584752
0.584757
0.584761
0.584766
0.58477
0.58477
0.584775
0.584779
0.584784
0.584788
0.584788
0.584793
0.584797
0.584802
0.584806
0.584806
0.584811
0.584815
0.58482
0.584824
0.584824
0.584829
0.584834
0.584838
0.584843
0.584843
0.584847
0.584852
0.584856
0.584861
0.584861
0.584866
0.58487
0.584875
0.584879
0.584879
0.584884
0.584888
0.584893
0.584898
0.584898
0.584902
0.584907
0.584911
0.584916
0.584916
0.584921
0.584925
0.58493
0.584934
0.584934
0.584939
0.584944
0.584948
0.584953
0.584953
0.584957
0.584962
0.584967
0.584971
0.584971
0.584976
0.584981
0.584985
0.58499
0.58499
0.584995
0.584999
0.585004
0.585009
0.585009
0.585014
0.585018
0.585023
0.585028
0.585028
0.585032
0.585037
0.585042
0.585046
0.585046
0.585051
0.585056
0.585061
0.585065
0.585065
0.58507
0.585075
0.585079
0.585084
0.585084
0.585089
0.585094
0.585098
0.585103
0.585103
0.585108
0.585113
0.585117
0.585122
0.585122
0.585127
0.585132
0.585136
0.585141
0.585141
0.585146
0.585151
0.585155
0.58516
0.58516
0.585165
0.58517
0.585175
0.585179
0.585179
0.585184
0.585189
0.585194
0.585199
0.585199
0.585204
0.585208
0.585213
0.585218
0.585218
0.585223
0.585228
0.585233
0.585237
0.585237
0.585242
0.585247
0.585252
0.585257
0.585257
0.585262
0.585267
0.585271
0.585276
0.585276
0.585281
0.585286
0.585291
0.585296
0.585296
0.585301
0.585305
0.58531
0.585315
0.585315
0.58532
0.585325
0.58533
0.585335
0.585335
0.58534
0.585345
0.58535
0.585355
0.585355
0.58536
0.585365
0.58537
0.585374
0.585374
0.585379
0.585384
0.585389
0.585394
0.585394
0.585399
0.585404
0.585409
0.585414
0.585414
0.585419
0.585424
0.585429
0.585434
0.585434
0.585439
0.585444
0.585449
0.585454
0.585454
0.585459
0.585464
0.585469
0.585474
0.585474
0.585479
0.585484
0.585489
0.585494
0.585494
0.585499
0.585504
0.585509
0.585514
0.585514
0.585519
0.585524
0.585529
0.585535
0.585535
0.58554
0.585545
0.58555
0.585555
0.585555
0.58556
0.585565
0.58557
0.585575
0.585575
0.58558
0.585585
0.585591
0.585596
0.585596
0.585601
0.585606
0.585611
0.585616
0.585616
0.585621
0.585626
0.585631
0.585636
0.585636
0.585642
0.585647
0.585652
0.585657
0.585657
0.585662
0.585667
0.585672
0.585678
0.585678
0.585683
0.585688
0.585693
0.585698
0.585698
0.585704
0.585709
0.585714
0.585719
0.585719
0.585724
0.58573
0.585735
0.58574
0.58574
0.585745
0.58575
0.585756
0.585761
0.585761
0.585766
0.585771
0.585777
0.585782
0.585782
0.585787
0.585792
0.585798
0.585803
0.585803
0.585808
0.585813
0.585819
0.585824
0.585824
0.585829
0.585834
0.58584
0.585845
0.585845
0.58585
0.585855
0.585861
0.585866
0.585866
0.585871
0.585877
0.585882
0.585887
0.585887
0.585893
0.585898
0.585903
0.585909
0.585909
0.585914
0.585919
0.585925
0.58593
0.58593
0.585935
0.585941
0.585946
0.585952
0.585952
0.585957
0.585962
0.585968
0.585973
0.585973
0.585978
0.585984
0.585989
0.585995
0.585995
0.586
0.586005
0.586011
0.586016
0.586016
0.586021
0.586027
0.586032
0.586038
0.586038
0.586043
0.586049
0.586054
0.58606
0.58606
0.586065
0.58607
0.586076
0.586081
0.586081
0.586087
0.586092
0.586098
0.586103
0.586103
0.586109
0.586114
0.58612
0.586125
0.586125
0.586131
0.586136
0.586142
0.586147
0.586147
0.586153
0.586158
0.586164
0.586169
0.586169
0.586175
0.58618
0.586186
0.586191
0.586191
0.586197
0.586202
0.586208
0.586213
0.586213
0.586219
0.586225
0.58623
0.586236
0.586236
0.586241
0.586247
0.586252
0.586258
0.586258
0.586264
0.586269
0.586275
0.586281
0.586281
0.586286
0.586292
0.586297
0.586303
0.586303
0.586309
0.586314
0.58632
0.586326
0.586326
0.586331
0.586337
0.586342
0.586348
0.586348
0.586354
0.586359
0.586365
0.586371
0.586371
0.586376
0.586382
0.586388
0.586393
0.586393
0.586399
0.586405
0.58641
0.586416
0.586416
0.586422
0.586427
0.586433
0.586439
0.586439
0.586445
0.58645
0.586456
0.586462
0.586462
0.586468
0.586473
0.586479
0.586485
0.586485
0.586491
0.586496
0.586502
0.586508
0.586508
0.586514
0.58652
0.586525
0.586531
0.586531
0.586537
0.586543
0.586548
0.586554
0.586554
0.58656
0.586566
0.586572
0.586577
0.586577
0.586583
0.586589
0.586595
0.586601
0.586601
0.586606
0.586612
0.586618
0.586624
0.586624
0.58663
0.586636
0.586642
0.586648
0.586648
0.586653
0.586659
0.586665
0.586671
0.586671
0.586677
0.586683
0.586689
0.586695
0.586695
0.586701
0.586707
0.586712
0.586718
0.586718
0.586724
0.58673
0.586736
0.586742
0.586742
0.586748
0.586754
0.58676
0.586766
0.586766
0.586772
0.586778
0.586784
0.58679
0.58679
0.586796
0.586802
0.586808
0.586814
0.586814
0.58682
0.586826
0.586832
0.586838
0.586838
0.586844
0.58685
0.586856
0.586862
0.586862
0.586868
0.586874
0.58688
0.586886
0.586886
0.586892
0.586898
0.586904
0.58691
0.58691
0.586916
0.586922
0.586928
0.586934
0.586934
0.58694
0.586946
0.586952
0.586958
0.586958
0.586965
0.586971
0.586977
0.586983
0.586983
0.586989
0.586995
0.587001
0.587007
0.587007
0.587014
0.58702
0.587026
0.587032
0.587032
0.587038
0.587044
0.587051
0.587057
0.587057
0.587063
0.587069
0.587075
0.587081
0.587081
0.587088
0.587094
0.5871
0.587106
0.587106
0.587112
0.587119
0.587125
0.587131
0.587131
0.587137
0.587143
0.58715
0.587156
0.587156
0.587162
0.587168
0.587175
0.587181
0.587181
0.587187
0.587193
0.5872
0.587206
0.587206
0.587212
0.587219
0.587225
0.587231
0.587231
0.587237
0.587244
0.58725
0.587256
0.587256
0.587263
0.587269
0.587275
0.587282
0.587282
0.587288
0.587294
0.587301
0.587307
0.587307
0.587313
0.58732
0.587326
0.587332
0.587332
0.587339
0.587345
0.587351
0.587358