<?xml version="1.0"?>
<VTKFile type="UnstructuredGrid" version="0.1" byte_order="LittleEndian">
<UnstructuredGrid>
<Piece NumberOfPoints="5000" NumberOfCells="4000">
<PointData Scalars="Reaction 0">
<DataArray type="Float32" Name="Reaction 0" format="ascii">
0.588777
0.588777
0.588777
0.588777
0.588777
0.588777
0.588777
0.588777
0.588777
0.588777
0.588777
0.588777
0.588777
0.588777
0.588777
0.588777
0.588777
0.588778
0.588778
0.588778
0.588778
0.588778
0.588778
0.588778
0.588778
0.588778
0.588778
0.588778
0.588778
0.588778
0.588778
0.588778
0.588778
0.588778
0.588778
0.588778
0.588778
0.588779
0.588779
0.588779
0.588779
0.588779
0.588779
0.588779
0.588779
0.588779
0.588779
0.588779
0.588779
0.58878
0.58878
0.58878
0.58878
0.58878
0.58878
0.58878
0.58878
0.58878
0.588781
0.588781
0.588781
0.588781
0.588781
0.588781
0.588781
0.588781
0.588781
0.588782
0.588782
0.588782
0.588782
0.588782
0.588782
0.588782
0.588783
0.588783
0.588783
0.588783
0.588783
0.588783
0.588783
0.588784
0.588784
0.588784
0.588784
0.588784
0.588784
0.588785
0.588785
0.588785
0.588785
0.588785
0.588785
0.588786
0.588786
0.588786
0.588786
0.588786
0.588787
0.588787
0.588787
0.588787
0.588787
0.588788
0.588788
0.588788
0.588788
0.588788
0.588789
0.588789
0.588789
0.588789
0.588789
0.58879
0.58879
0.58879
0.58879
0.58879
0.588791
0.588791
0.588791
0.588791
0.588792
0.588792
0.588792
0.588792
0.588792
0.588793
0.588793
0.588793
0.588793
0.588794
0.588794
0.588794
0.588795
0.588795
0.588795
0.588795
0.588796
0.588796
0.588796
0.588796
0.588797
0.588797
0.588797
0.588797
0.588798
0.588798
0.588798
0.588799
0.588799
0.588799
0.5888
0.5888
0.5888
0.5888
0.588801
0.588801
0.588801
0.588802
0.588802
0.588802
0.588803
0.588803
0.588803
0.588803
0.588804
0.588804
0.588805
0.588805
0.588805
0.588805
0.588806
0.588806
0.588807
0.588807
0.588807
0.588807
0.588808
0.588808
0.588808
0.588809
0.588809
0.58881
0.58881
0.58881
0.58881
0.588811
0.588811
0.588812
0.588812
0.588812
0.588813
0.588813
0.588814
0.588814
0.588814
0.588815
0.588815
0.588816
0.588816
0.588816
0.588817
0.588817
0.588818
0.588818
0.588818
0.588819
0.588819
0.58882
0.58882
0.58882
0.588821
0.588821
0.588822
0.588822
0.588822
0.588823
0.588823
0.588824
0.588824
0.588824
0.588825
0.588825
0.588826
0.588826
0.588826
0.588827
0.588827
0.588828
0.588828
0.588829
0.588829
0.58883
0.58883
0.58883
0.588831
0.588831
0.588832
0.588832
0.588832
0.588833
0.588834
0.588834
0.588835
0.588835
0.588835
0.588836
0.588837
0.588837
0.588837
0.588838
0.588838
0.588839
0.58884
0.58884
0.58884
0.588841
0.588841
0.588842
0.588842
0.588843
0.588843
0.588844
0.588845
0.588845
0.588845
0.588846
0.588847
0.588847
0.588847
0.588848
0.588848
0.588849
0.58885
0.58885
0.58885
0.588851
0.588852
0.588852
0.588852
0.588853
0.588854
0.588854
0.588855
0.588855
0.588856
0.588857
0.588857
0.588858
0.588858
0.588859
0.588859
0.58886
0.588861
0.588861
0.588861
0.588862
0.588863
0.588864
0.588864
0.588864
0.588865
0.588866
0.588866
0.588866
0.588867
0.588868
0.588869
0.588869
0.588869
0.58887
0.588871
0.588872
0.588872
0.588872
0.588873
0.588874
0.588875
0.588876
0.588876
0.588876
0.588877
0.588878
0.588879
0.588879
0.588879
0.58888
0.588881
0.588882
0.588882
0.588883
0.588883
0.588884
0.588885
0.588885
0.588886
0.588887
0.588887
0.588888
0.588888
0.588889
0.58889
0.588891
0.588892
0.588892
0.588892
0.588893
0.588894
0.588895
0.588895
0.588896
0.588897
0.588897
0.588898
0.588898
0.588899
0.5889
0.588901
0.588902
0.588902
0.588903
0.588903
0.588904
0.588905
0.588905
0.588906
0.588907
0.588908
0.588909
0.588909
0.58891
0.588911
0.588911
0.588912
0.588912
0.588913
0.588914
0.588915
0.588916
0.588916
0.588917
0.588918
0.588919
0.58892
0.58892
0.588921
0.588922
0.588922
0.588923
0.588923
0.588924
0.588925
0.588926
0.588927
0.588927
0.588928
0.588929
0.58893
0.588931
0.588931
0.588932
0.588933
0.588934
0.588935
0.588935
0.588936
0.588937
0.588938
0.588939
0.588939
0.58894
0.588941
0.588942
0.588943
0.588943
0.588944
0.588945
0.588946
0.588947
0.588947
0.588948
0.588949
0.58895
0.588951
0.588951
0.588952
0.588953
0.588954
0.588955
0.588955
0.588956
0.588957
0.588958
0.588959
0.588959
0.58896
0.588961
0.588962
0.588963
0.588963
0.588965
0.588966
0.588967
0.588968
0.588968
0.588969
0.58897
0.588971
0.588972
0.588972
0.588973
0.588974
0.588975
0.588976
0.588976
0.588978
0.588979
0.58898
0.588981
0.588981
0.588982
0.588983
0.588984
0.588985
0.588985
0.588986
0.588988
0.588989
0.58899
0.58899
0.588991
0.588992
0.588993
0.588994
0.588994
0.588996
0.588997
0.588998
0.588999
0.588999
0.589
0.589001
0.589003
0.589004
0.589004
0.589005
0.589006
0.589007
0.589008
0.589008
0.58901
0.589011
0.589012
0.589013
0.589013
0.589014
0.589016
0.589017
0.589018
0.589018
0.589019
0.58902
0.589022
0.589023
0.589023
0.589024
0.589025
0.589027
0.589028
0.589028
0.589029
0.58903
0.589032
0.589033
0.589033
0.589034
0.589035
0.589037
0.589038
0.589038
0.589039
0.58904
0.589042
0.589043
0.589043
0.589044
0.589045
0.589047
0.589048
0.589048
0.589049
0.589051
0.589052
0.589053
0.589053
0.589054
0.589056
0.589057
0.589058
0.589058
0.58906
0.589061
0.589062
0.589064
0.589064
0.589065
0.589066
0.589068
0.589069
0.589069
0.58907
0.589072
0.589073
0.589074
0.589074
0.589076
0.589077
0.589078
0.58908
0.58908
0.589081
0.589082
0.589084
0.589085
0.589085
0.589086
0.589088
0.589089
0.589091
0.589091
0.589092
0.589093
0.589095
0.589096
0.589096
0.589098
0.589099
0.5891
0.589102
0.589102
0.589103
0.589105
0.589106
0.589108
0.589108
0.589109
0.58911
0.589112
0.589113
0.589113
0.589115
0.589116
0.589118
0.589119
0.589119
0.589121
0.589122
0.589123
0.589125
0.589125
0.589126
0.589128
0.589129
0.589131
0.589131
0.589132
0.589134
0.589135
0.589137
0.589137
0.589138
0.58914
0.589141
0.589143
0.589143
0.589144
0.589146
0.589147
0.589149
0.589149
0.58915
0.589152
0.589153
0.589155
0.589155
0.589156
0.589158
0.589159
0.589161
0.589161
0.589162
0.589164
0.589165
0.589167
0.589167
0.589169
0.58917
0.589172
0.589173
0.589173
0.589175
0.589176
0.589178
0.58918
0.58918
0.589181
0.589183
0.589184
0.589186
0.589186
0.589187
0.589189
0.589191
0.589192
0.589192
0.589194
0.589195
0.589197
0.589199
0.589199
0.5892
0.589202
0.589203
0.589205
0.589205
0.589207
0.589208
0.58921
0.589212
0.589212
0.589213
0.589215
0.589217
0.589218
0.589218
0.58922
0.589222
0.589223
0.589225
0.589225
0.589226
0.589228
0.58923
0.589231
0.589231
0.589233
0.589235
0.589237
0.589238
0.589238
0.58924
0.589242
0.589243
0.589245
0.589245
0.589247
0.589248
0.58925
0.589252
0.589252
0.589254
0.589255
0.589257
0.589259
0.589259
0.58926
0.589262
0.589264
0.589266
0.589266
0.589267
0.589269
0.589271
0.589273
0.589273
0.589274
0.589276
0.589278
0.58928
0.58928
0.589281
0.589283
0.589285
0.589287
0.589287
0.589288
0.58929
0.589292
0.589294
0.589294
0.589296
0.589297
0.589299
0.589301
0.589301
0.589303
0.589305
0.589306
0.589308
0.589308
0.58931
0.589312
0.589314
0.589315
0.589315
0.589317
0.589319
0.589321
0.589323
0.589323
0.589325
0.589327
0.589328
0.58933
0.58933
0.589332
0.589334
0.589336
0.589338
0.589338
0.58934
0.589341
0.589343
0.589345
0.589345
0.589347
0.589349
0.589351
0.589353
0.589353
0.589355
0.589357
0.589359
0.58936
0.58936
0.589362
0.589364
0.589366
0.589368
0.589368
0.58937
0.589372
0.589374
0.589376
0.589376
0.589378
0.58938
0.589382
0.589384
0.589384
0.589385
0.589387
0.589389
0.589391
0.589391
0.589393
0.589395
0.589397
0.589399
0.589399
0.589401
0.589403
0.589405
0.589407
0.589407
0.589409
0.589411
0.589413
0.589415
0.589415
0.589417
0.589419
0.589421
0.589423
0.589423
0.589425
0.589427
0.589429
0.589431
0.589431
0.589433
0.589435
0.589437
0.589439
0.589439
0.589441
0.589443
0.589445
0.589447
0.589447
0.58945
0.589452
0.589454
0.589456
0.589456
0.589458
0.58946
0.589462
0.589464
0.589464
0.589466
0.589468
0.58947
0.589472
0.589472
0.589474
0.589476
0.589479
0.589481
0.589481
0.589483
0.589485
0.589487
0.589489
0.589489
0.589491
0.589493
0.589495
0.589498
0.589498
0.5895
0.589502
0.589504
0.589506
0.589506
0.589508
0.58951
0.589513
0.589515
0.589515
0.589517
0.589519
0.589521
0.589523
0.589523
0.589525
0.589528
0.58953
0.589532
0.589532
0.589534
0.589536
0.589538
0.589541
0.589541
0.589543
0.589545
0.589547
0.58955
0.58955
0.589552
0.589554
0.589556
0.589558
0.589558
0.589561
0.589563
0.589565
0.589567
0.589567
0.58957
0.589572
0.589574
0.589576
0.589576
0.589579
0.589581
0.589583
0.589585
0.589585
0.589588
0.58959
0.589592
0.589594
0.589594
0.589597
0.589599
0.589601
0.589604
0.589604
0.589606
0.589608
0.589611
0.589613
0.589613
0.589615
0.589617
0.58962
0.589622
0.589622
0.589624
0.589627
0.589629
0.589631
0.589631
0.589634
0.589636
0.589638
0.589641
0.589641
0.589643
0.589645
0.589648
0.58965
0.58965
0.589652
0.589655
0.589657
0.58966
0.58966
0.589662
0.589664
0.589667
0.589669
0.589669
0.589671
0.589674
0.589676
0.589679
0.589679
0.589681
0.589683
0.589686
0.589688
0.589688
0.589691
0.589693
0.589695
0.589698
0.589698
0.5897
0.589703
0.589705
0.589708
0.589708
0.58971
0.589712
0.589715
0.589717
0.589717
0.58972
0.589722
0.589725
0.589727
0.589727
0.58973
0.589732
0.589735
0.589737
0.589737
0.589739
0.589742
0.589744
0.589747
0.589747
0.589749
0.589752
0.589754
0.589757
0.589757
0.589759
0.589762
0.589764
0.589767
0.589767
0.589769
0.589772
0.589774
0.589777
0.589777
0.589779
0.589782
0.589785
0.589787
0.589787
0.58979
0.589792
0.589795
0.589797
0.589797
0.5898
0.589803
0.589805
0.589808
0.589808
0.58981
0.589813
0.589815
0.589818
0.589818
0.589821
0.589823
0.589826
0.589828
0.589828
0.589831
0.589834
0.589836
0.589839
0.589839
0.589842
0.589844
0.589847
0.589849
0.589849
0.589852
0.589855
0.589857
0.58986
0.58986
0.589863
0.589865
0.589868
0.589871
0.589871
0.589873
0.589876
0.589879
0.589881
0.589881
0.589884
0.589887
0.589889
0.589892
0.589892
0.589895
0.589897
0.5899
0.589903
0.589903
0.589905
0.589908
0.589911
0.589913
0.589913
0.589916
0.589919
0.589922
0.589924
0.589924
0.589927
0.58993
0.589933
0.589935
0.589935
0.589938
0.589941
0.589943
0.589946
0.589946
0.589949
0.589952
0.589954
0.589957
0.589957
0.58996
0.589963
0.589966
0.589968
0.589968
0.589971
0.589974
0.589977
0.589979
0.589979
0.589982
0.589985
0.589988
0.589991
0.589991
0.589993
0.589996
0.589999
0.590002
0.590002
0.590005
0.590007
0.59001
0.590013
0.590013
0.590016
0.590019
0.590022
0.590025
0.590025
0.590027
0.59003
0.590033
0.590036
0.590036
0.590039
0.590042
0.590045
0.590048
0.590048
0.59005
0.590053
0.590056
0.590059
0.590059
0.590062
0.590065
0.590068
0.590071
0.590071
0.590074
0.590077
0.59008
0.590082
0.590082
0.590085
0.590088
0.590091
0.590094
0.590094
0.590097
0.5901
0.590103
0.590106
0.590106
0.590109
0.590112
0.590115
0.590118
0.590118
0.590121
0.590124
0.590127
0.59013
0.59013
0.590133
0.590136
0.590139
0.590142
0.590142
0.590145
0.590148
0.590151
0.590154
0.590154
0.590157
0.59016
0.590163
0.590166
0.590166
0.590169
0.590172
0.590175
0.590178
0.590178
0.590181
0.590184
0.590187
0.59019
0.59019
0.590193
0.590196
0.590199
0.590202
0.590202
0.590205
0.590208
0.590211
0.590214
0.590214
0.590217
0.590221
0.590224
0.590227
0.590227
0.59023
0.590233
0.590236
0.590239
0.590239
0.590242
0.590245
0.590248
0.590252
0.590252
0.590255
0.590258
0.590261
0.590264
0.590264
0.590267
0.59027
0.590273
0.590277
0.590277
0.59028
0.590283
0.590286
0.590289
0.590289
0.590293
0.590296
0.590299
0.590302
0.590302
0.590305
0.590308
0.590312
0.590315
0.590315
0.590318
0.590321
0.590324
0.590328
0.590328
0.590331
0.590334
0.590337
0.590341
0.590341
0.590344
0.590347
0.59035
0.590354
0.590354
0.590357
0.59036
0.590363
0.590367
0.590367
0.59037
0.590373
0.590376
0.59038
0.59038
0.590383
0.590386
0.590389
0.590393
0.590393
0.590396
0.590399
0.590403
0.590406
0.590406
0.590409
0.590412
0.590416
0.590419
0.590419
0.590422
0.590426
0.590429
0.590432
0.590432
0.590436
0.590439
0.590442
0.590446
0.590446
0.590449
0.590452
0.590456
0.590459
0.590459
0.590462
0.590466
0.590469
0.590472
0.590472
0.590476
0.590479
0.590483
0.590486
0.590486
0.590489
0.590493
0.590496
0.590499
0.590499
0.590503
0.590506
0.59051
0.590513
0.590513
0.590517
0.59052
0.590523
0.590527
0.590527
0.59053
0.590534
0.590537
0.590541
0.590541
0.590544
0.590548
0.590551
0.590555
0.590555
0.590558
0.590561
0.590565
0.590568
0.590568
0.590572
0.590575
0.590579
0.590582
0.590582
0.590586
0.590589
0.590593
0.590596
0.590596
0.5906
0.590603
0.590607
0.590611
0.590611
0.590614
0.590618
0.590621
0.590625
0.590625
0.590628
0.590632
0.590635
0.590639
0.590639
0.590642
0.590646
0.590649
0.590653
0.590653
0.590657
0.59066
0.590664
0.590667
0.590667
0.590671
0.590675
0.590678
0.590682
0.590682
0.590685
0.590689
0.590693
0.590696
0.590696
0.5907
0.590703
0.590707
0.590711
0.590711
0.590714
0.590718
0.590721
0.590725
0.590725
0.590729
0.590732
0.590736
0.59074
0.59074
0.590743
0.590747
0.590751
0.590754
0.590754
0.590758
0.590762
0.590765
0.590769
0.590769
0.590773
0.590776
0.59078
0.590784
0.590784
0.590788
0.590791
0.590795
0.590799
0.590799
0.590802
0.590806
0.59081
0.590814
0.590814
0.590817
0.590821
0.590825
0.590829
0.590829
0.590833
0.590836
0.59084
0.590844
0.590844
0.590848
0.590851
0.590855
0.590859
0.590859
0.590863
0.590867
0.59087
0.590874
0.590874
0.590878
0.590882
0.590886
0.590889
0.590889
0.590893
0.590897
0.590901
0.590905
0.590905
0.590908
0.590912
0.590916
0.59092
0.59092
0.590924
0.590928
0.590932
0.590935
0.590935
0.590939
0.590943
0.590947
0.590951
0.590951
0.590955
0.590959
0.590963
0.590966
0.590966
0.59097
0.590974
0.590978
0.590982
0.590982
0.590986
0.59099
0.590994
0.590998
0.590998
0.591001
0.591005
0.591009
0.591013
0.591013
0.591017
0.591021
0.591025
0.591029
0.591029
0.591033
0.591037
0.591041
0.591045
0.591045
0.591049
0.591053
0.591057
0.591061
0.591061
0.591065
0.591069
0.591073
0.591077
0.591077
0.591081
0.591085
0.591089
0.591093
0.591093
0.591097
0.591101
0.591105
0.591109
0.591109
0.591113
0.591117
0.591121
0.591125
0.591125
0.591129
0.591134
0.591138
0.591142
0.591142
0.591146
0.59115
0.591154
0.591158
0.591158
0.591162
0.591166
0.59117
0.591174
0.591174
0.591178
0.591183
0.591187
0.591191
0.591191
0.591195
0.591199
0.591203
0.591207
0.591207
0.591211
0.591216
0.59122
0.591224
0.591224
0.591228
0.591232
0.591236
0.59124
0.59124
0.591245
0.591249
0.591253
0.591257
0.591257
0.591261
0.591265
0.59127
0.591274
0.591274
0.591278
0.591282
0.591286
0.591291
0.591291
0.591295
0.591299
0.591303
0.591307
0.591307
0.591312
0.591316
0.59132
0.591325
0.591325
0.591329
0.591333
0.591337
0.591342
0.591342
0.591346
0.59135
0.591354
0.591359
0.591359
0.591363
0.591367
0.591372
0.591376
0.591376
0.59138
0.591385
0.591389
0.591393
0.591393
0.591397
0.591402
0.591406
0.59141
0.59141
0.591415
0.591419
0.591423
0.591428
0.591428
0.591432
0.591437
0.591441
0.591445
0.591445
0.59145
0.591454
0.591458
0.591463
0.591463
0.591467
0.591471
0.591476
0.59148
0.59148
0.591485
0.591489
0.591493
0.591498
0.591498
0.591502
0.591507
0.591511
0.591515
0.591515
0.59152
0.591524
0.591529
0.591533
0.591533
0.591538
0.591542
0.591547
0.591551
0.591551
0.591555
0.59156
0.591564
0.591569
0.591569
0.591573
0.591578
0.591582
0.591587
0.591587
0.591591
0.591596
0.5916
0.591605
0.591605
0.59161
0.591614
0.591619
0.591623
0.591623
0.591628
0.591632
0.591637
0.591641
0.591641
0.591646
0.59165
0.591655
0.59166
0.59166
0.591664
0.591669
0.591673
0.591678
0.591678
0.591682
0.591687
0.591692
0.591696
0.591696
0.591701
0.591705
0.59171
0.591715
0.591715
0.591719
0.591724
0.591729
0.591733
0.591733
0.591738
0.591742
0.591747
0.591752
0.591752
0.591756
0.591761
0.591766
0.59177
0.59177
0.591775
0.59178
0.591784
0.591789
0.591789
0.591794
0.591798
0.591803
0.591808
0.591808
0.591812
0.591817
0.591822
0.591827
0.591827
0.591831
0.591836
0.591841
0.591845
0.591845
0.59185
0.591855
0.59186
0.591865
0.591865
0.591869
0.591874
0.591879
0.591884
0.591884
0.591888
0.591893
0.591898
0.591903
0.591903
0.591908
0.591912
0.591917
0.591922
0.591922
0.591927
0.591932
0.591936
0.591941
0.591941
0.591946
0.591951
0.591956
0.591961
0.591961
0.591966
0.59197
0.591975
0.59198
0.59198
0.591985
0.59199
0.591995
0.592
0.592
0.592004
0.592009
0.592014
0.592019
0.592019
0.592024
0.592029
0.592034
0.592039
0.592039
0.592044
0.592048
0.592053
0.592058
0.592058
0.592063
0.592068
0.592073
0.592078
0.592078
0.592083
0.592088
0.592093
0.592098
0.592098
0.592103
0.592108
0.592113
0.592118
0.592118
0.592123
0.592128
0.592133
0.592138
0.592138
0.592143
0.592148
0.592153
0.592158
0.592158
0.592163
0.592168
0.592173
0.592178
0.592178
0.592183
0.592188
0.592193
0.592198
0.592198
0.592203
0.592208
0.592213
0.592219
0.592219
0.592224
0.592229
0.592234
0.592239
0.592239
0.592244
0.592249
0.592254
0.592259
0.592259
0.592264
0.59227
0.592275
0.59228
0.59228
0.592285
0.59229
0.592295
0.5923
0.5923
0.592305
0.592311
0.592316
0.592321
0.592321
0.592326
0.592331
0.592336
0.592342
0.592342
0.592347
0.592352
0.592357
0.592362
0.592362
0.592367
0.592373
0.592378
0.592383
0.592383
0.592388
0.592393
0.592399
0.592404
0.592404
0.592409
0.592415
0.59242
0.592425
0.592425
0.59243
0.592436
0.592441
0.592446
0.592446
0.592451
0.592457
0.592462
0.592467
0.592467
0.592473
0.592478
0.592483
0.592489
0.592489
0.592494
0.592499
0.592505
0.59251
0.59251
0.592515
0.592521
0.592526
0.592531
0.592531
0.592537
0.592542
0.592547
0.592553
0.592553
0.592558
0.592563
0.592569
0.592574
0.592574
0.59258
0.592585
0.59259
0.592596
0.592596
0.592601
0.592607
0.592612
0.592617
0.592617
0.592623
0.592628
0.592634
0.592639
0.592639
0.592644
0.59265
0.592655
0.592661
0.592661
0.592666
0.592672
0.592677
0.592683
0.592683
0.592688
0.592694
0.592699
0.592705
0.592705
0.59271
0.592716
0.592721
0.592727
0.592727
0.592732
0.592738
0.592743
0.592749
0.592749
0.592755
0.59276
0.592766
0.592771
0.592771
0.592777
0.592782
0.592788
0.592794
0.592794
0.592799
0.592805
0.59281
0.592816
0.592816
0.592822
0.592827
0.592833
0.592838
0.592838
0.592844
0.59285
0.592855
0.592861
0.592861
0.592866
0.592872
0.592878
0.592883
0.592883
0.592889
0.592895
0.5929
0.592906
0.592906
0.592912
0.592917
0.592923
0.592929
0.592929
0.592934
0.59294
0.592946
0.592951
0.592951
0.592957
0.592963
0.592969
0.592974
0.592974
0.59298
0.592986
0.592992
0.592997
0.592997
0.593003
0.593009
0.593015
0.59302
0.59302
0.593026
0.593032
0.593038
0.593044
0.593044
0.593049
0.593055
0.593061
0.593067
0.593067
0.593073
0.593078
0.593084
0.59309
0.59309
0.593096
0.593102
0.593108
0.593113
0.593113
0.593119
0.593125
0.593131
0.593137
0.593137
0.593143
0.593149
0.593155
0.59316
0.59316
0.593166
0.593172
0.593178
0.593184
0.593184
0.59319
0.593196
0.593202
0.593208
0.593208
0.593213
0.593219
0.593225
0.593231
0.593231
0.593237
0.593243
0.593249
0.593255
0.593255
0.593261
0.593267
0.593273
0.593279
0.593279
0.593285
0.593291
0.593297
0.593303
0.593303
0.593309
0.593315
0.593321
0.593327
0.593327
0.593333
0.593339
0.593345
0.593351
0.593351
0.593358
0.593364
0.59337
0.593376
0.593376
0.593382
0.593388
0.593394
0.5934
0.5934
0.593406
0.593412
0.593418
0.593424
0.593424
0.593431
0.593437
0.593443
0.593449
0.593449
0.593455
0.593461
0.593467
0.593473
0.593473
0.59348
0.593486
0.593492
0.593498
0.593498
0.593504
0.59351
0.593516
0.593523
0.593523
0.593529
0.593535
0.593541
0.593547
0.593547
0.593554
0.59356
0.593566
0.593572
0.593572
0.593579
0.593585
0.593591
0.593597
0.593597
0.593604
0.59361
0.593616
0.593623
0.593623
0.593629
0.593635
0.593641
0.593648
0.593648
0.593654
0.59366
0.593667
0.593673
0.593673
0.593679
0.593686
0.593692
0.593698
0.593698
0.593705
0.593711
0.593717
0.593724
0.593724
0.59373
0.593736
0.593743
0.593749
0.593749
0.593755
0.593762
0.593768
0.593775
0.593775
0.593781
0.593787
0.593794
0.5938
0.5938
0.593807
0.593813
0.593819
0.593826
0.593826
0.593832
0.593839
0.593845
0.593852
0.593852
0.593858
0.593865
0.593871
0.593878
0.593878
0.593884
0.593891
0.593897
0.593904
0.593904
0.59391
0.593917
0.593923
0.59393
0.59393
0.593936
0.593943
0.593949
0.593956
0.593956
0.593962
0.593969
0.593976
0.593982
0.593982
0.593989
0.593995
0.594002
0.594009
0.594009
0.594015
0.594022
0.594028
0.594035
0.594035
0.594042
0.594048
0.594055
0.594061
0.594061
0.594068
0.594075
0.594081
0.594088
0.594088
0.594095
0.594101
0.594108
0.594114
0.594114
0.594121
0.594128
0.594135
0.594141
0.594141
0.594148
0.594155
0.594161
0.594168
0.594168
0.594175
0.594182
0.594188
0.594195
0.594195
0.594202
0.594209
0.594215
0.594222
0.594222
0.594229
0.594236
0.594242
0.594249
0.594249
0.594256
0.594263
0.59427
0.594276
0.594276
0.594283
0.59429
0.594297
0.594304
0.594304
0.594311
0.594317
0.594324
0.594331
0.594331
0.594338
0.594345
0.594352
0.594359
0.594359
0.594365
0.594372
0.594379
0.594386
0.594386
0.594393
0.5944
0.594407
0.594414
0.594414
0.594421
0.594427
0.594434
0.594441
0.594441
0.594448
0.594455
0.594462
0.594469
0.594469
0.594476
0.594483
0.59449
0.594497
0.594497
0.594504
0.594511
0.594518
0.594525
0.594525
0.594532
0.594539
0.594546
0.594553
0.594553
0.59456
0.594567
0.594574
0.594581
0.594581
0.594588
0.594596
0.594603
0.59461
0.59461
0.594617
0.594624
0.594631
0.594638
0.594638
0.594645
0.594652
0.594659
0.594666
0.594666
0.594674
0.594681
0.594688
0.594695
0.594695
0.594702
0.594709
0.594716
0.594723
0.594723
0.594731
0.594738
0.594745
0.594752
0.594752
0.594759
0.594767
0.594774
0.594781
0.594781
0.594788
0.594795
0.594803
0.59481
0.59481
0.594817
0.594824
0.594832
0.594839
0.594839
0.594846
0.594854
0.594861
0.594868
0.594868
0.594875
0.594883
0.59489
0.594897
0.594897
0.594905
0.594912
0.594919
0.594927
0.594927
0.594934
0.594941
0.594949
0.594956
0.594956
0.594963
0.594971
0.594978
0.594985
0.594985
0.594993
0.595
0.595007
0.595015
0.595015
0.595022
0.59503
0.595037
0.595044
0.595044
0.595052
0.595059
0.595067
0.595074
0.595074
0.595082
0.595089
0.595096
0.595104
0.595104
0.595111
0.595119
0.595126
0.595134
0.595134
0.595141
0.595149
0.595156
0.595164
0.595164
0.595172
0.595179
0.595187
0.595194
0.595194
0.595202
0.595209
0.595217
0.595224
0.595224
0.595232
0.59524
0.595247
0.595255
0.595255
0.595262
0.59527
0.595277
0.595285
0.595285
0.595293
0.5953
0.595308
0.595316
0.595316
0.595323
0.595331
0.595338
0.595346
0.595346
0.595354
0.595361
0.595369
0.595377
0.595377
0.595384
0.595392
0.5954
0.595407
0.595407
0.595415
0.595423
0.595431
0.595438
0.595438
0.595446
0.595454
0.595462
0.595469
0.595469
0.595477
0.595485
0.595493
0.595501
0.595501
0.595508
0.595516
0.595524
0.595532
0.595532
0.59554
0.595547
0.595555
0.595563
0.595563
0.595571
0.595579
0.595587
0.595594
0.595594
0.595602
0.59561
0.595618
0.595626
0.595626
0.595634
0.595642
0.595649
0.595657
0.595657
0.595665
0.595673
0.595681
0.595689
0.595689
0.595697
0.595705
0.595713
0.595721
0.595721
0.595729
0.595737
0.595745
0.595753
0.595753
0.595761
0.595769
0.595777
0.595785
0.595785
0.595793
0.595801
0.595809
0.595817
0.595817
0.595825
0.595833
0.595841
0.595849
0.595849
0.595857
0.595865
0.595873
0.595881
0.595881
0.595889
0.595897
0.595905
0.595914
0.595914
0.595922
0.59593
0.595938
0.595946
0.595946
0.595954
0.595962
0.59597
0.595979
0.595979
0.595987
0.595995
0.596003
0.596011
0.596011
0.596019
0.596027
0.596036
0.596044
0.596044
0.596052
0.59606
0.596068
0.596077
0.596077
0.596085
0.596093
0.596101
0.59611
0.59611
0.596118
0.596126
0.596135
0.596143
0.596143
0.596151
0.596159
0.596168
0.596176
0.596176
0.596184
0.596193
0.596201
0.596209
0.596209
0.596218
0.596226
0.596234
0.596243
0.596243
0.596251
0.59626
0.596268
0.596276
0.596276
0.596285
0.596293
0.596301
0.59631
0.59631
0.596318
0.596327
0.596335
0.596343
0.596343
0.596352
0.59636
0.596369
0.596377
0.596377
0.596386
0.596394
0.596403
0.596411
0.596411
0.59642
0.596428
0.596437
0.596445
0.596445
0.596454
0.596462
0.596471
0.596479
0.596479
0.596488
0.596496
0.596505
0.596514
0.596514
0.596522
0.596531
0.596539
0.596548
0.596548
0.596557
0.596565
0.596574
0.596582
0.596582
0.596591
0.5966
0.596608
0.596617
0.596617
0.596626
0.596634
0.596643
0.596651
0.596651
0.59666
0.596669
0.596677
0.596686
0.596686
0.596695
0.596704
0.596712
0.596721
0.596721
0.59673
0.596738
0.596747
0.596756
0.596756
0.596765
0.596773
0.596782
0.596791
0.596791
0.5968
0.596809
0.596817
0.596826
0.596826
0.596835
0.596844
0.596853
0.596862
0.596862
0.59687
0.596879
0.596888
0.596897
0.596897
0.596906
0.596915
0.596924
0.596933
0.596933
0.596941
0.59695
0.596959
0.596968
0.596968
0.596977
0.596986
0.596995
0.597004
0.597004
0.597013
0.597022
0.597031
0.59704
0.59704
0.597049
0.597058
0.597066
0.597075
0.597075
0.597084
0.597094
0.597103
0.597112
0.597112
0.597121
0.59713
0.597139
0.597148
0.597148
0.597157
0.597166
0.597175
0.597184
0.597184
0.597193
0.597202
0.597211
0.597221
0.597221
0.59723
0.597239
0.597248
0.597257
0.597257
0.597266
0.597275
0.597285
0.597294
0.597294
0.597303
0.597312
0.597321
0.59733
0.59733
0.59734
0.597349
0.597358
0.597367
0.597367
0.597376
0.597386
0.597395
0.597404
0.597404
0.597413
0.597422
0.597432
0.597441
0.597441
0.59745
0.59746
0.597469
0.597478
0.597478
0.597488
0.597497
0.597506
0.597516
0.597516
0.597525
0.597534
0.597544
0.597553
0.597553
0.597562
0.597572
0.597581
0.597591
0.597591
0.5976
0.597609
0.597619
0.597628
0.597628
0.597638
0.597647
0.597657
0.597666
0.597666
0.597675
0.597685
0.597694
0.597704
0.597704
0.597713
0.597723
0.597732
0.597742
0.597742
0.597751
0.597761
0.59777
0.59778
0.59778
0.597789
0.597799
0.597808
0.597818
0.597818
0.597828
0.597837
0.597847
0.597856
0.597856
0.597866
0.597876
0.597885
0.597895
0.597895
0.597905
0.597914
0.597924
0.597933
0.597933
0.597943
0.597953
0.597962
0.597972
0.597972
0.597982
0.597992
0.598001
0.598011
0.598011
0.598021
0.59803
0.59804
0.59805
0.59805
0.598059
0.598069
0.598079
0.598089
0.598089
0.598098
0.598108
0.598118
0.598128
0.598128
0.598138
0.598147
0.598157
0.598167
0.598167
0.598177
0.598187
0.598197
0.598207
0.598207
0.598216
0.598226
0.598236
0.598246
0.598246
0.598256
0.598266
0.598276
0.598286
0.598286
0.598296
0.598306
0.598316
0.598326
0.598326
0.598335
0.598345
0.598355
0.598365
0.598365
0.598375
0.598385
0.598395
0.598405
0.598405
0.598415
0.598425
0.598435
0.598445
0.598445
0.598455
0.598465
0.598475
0.598486
0.598486
0.598496
0.598506
0.598516
0.598526
0.598526
0.598536
0.598546
0.598556
0.598566
0.598566
0.598577
0.598587
0.598597
0.598607
0.598607
0.598617
0.598627
0.598638
0.598648
0.598648
0.598658
0.598668
0.598678
0.598689
0.598689
0.598699
0.598709
0.598719
0.59873
0.59873
0.59874
0.59875
0.59876
0.598771
0.598771
0.598781
0.598791
0.598802
0.598812
0.598812
0.598822
0.598832
0.598843
0.598853
0.598853
0.598863
0.598874
0.598884
0.598895
0.598895
0.598905
0.598915
0.598926
0.598936
0.598936
0.598947
0.598957
0.598968
0.598978
0.598978
0.598989
0.598999
0.599009
0.59902
0.59902
0.59903
0.599041
0.599051
0.599062
0.599062
0.599072
0.599083
0.599093
0.599104
0.599104
0.599114
0.599125
0.599136
0.599146
0.599146
0.599157
0.599167
0.599178
0.599188
0.599188
0.599199
0.59921
0.59922
0.599231
0.599231
0.599241
0.599252
0.599263
0.599273
0.599273
0.599284
0.599295
0.599306
0.599316
0.599316
0.599327
0.599338
0.599348
0.599359
0.599359
0.59937
0.599381
0.599391
0.599402
0.599402
0.599413
0.599424
0.599435
0.599445
0.599445
0.599456
0.599467
0.599478
0.599489
0.599489
0.599499
0.59951
0.599521
0.599532
0.599532
0.599543
0.599554
0.599564
0.599575
0.599575
0.599586
0.599597
0.599608
0.599619
0.599619
0.59963
0.599641
0.599652
0.599663
0.599663
0.599674
0.599685
0.599696
0.599707
0.599707
0.599718
0.599729
0.59974
0.599751
0.599751
0.599762
0.599773
0.599784
0.599795
0.599795
0.599806
0.599817
0.599828
0.599839
0.599839
0.59985
0.599861
0.599873
0.599884
0.599884
0.599895
0.599906
0.599917
0.599928
0.599928
0.599939
0.59995
0.599962
0.599973
0.599973
0.599984
0.599995
0.600006
0.600018
0.600018
0.600029
0.60004
0.600051
0.600063
0.600063
0.600074
0.600085
0.600097
0.600108
0.600108
0.600119
0.600131
0.600142
0.600153
0.600153
0.600164
0.600176
0.600187
0.600199
0.600199
0.60021
0.600221
0.600233
0.600244
0.600244
0.600255
0.600267
0.600278
0.60029
0.60029
0.600301
0.600312
0.600324
0.600335
0.600335
0.600347
0.600358
0.60037
0.600381
0.600381
0.600393
0.600404
0.600416
0.600427
0.600427
0.600439
0.60045
0.600462
0.600474
0.600474
0.600485
0.600497
0.600508
0.60052
0.60052
0.600532
0.600543
0.600555
0.600566
0.600566
0.600578
0.60059
0.600601
0.600613
0.600613
0.600625
0.600636
0.600648
0.60066
0.60066
0.600671
0.600683
0.600695
0.600707
0.600707
0.600718
0.60073
0.600742
0.600754
0.600754
0.600765
0.600777
0.600789
0.600801
0.600801
0.600813
0.600825
0.600836
0.600848
0.600848
0.60086
0.600872
0.600884
0.600896
0.600896
0.600908
0.60092
0.600931
0.600943
0.600943
0.600955
0.600967
0.600979
0.600991
0.600991
0.601003
0.601015
0.601027
0.601039
0.601039
0.601051
0.601063
0.601075
0.601087
0.601087
0.601099
0.601111
0.601123
0.601135
0.601135
0.601147
0.601159
0.601171
0.601183
0.601183
0.601196
0.601208
0.60122
0.601232
0.601232
0.601244
0.601256
0.601268
0.601281
0.601281
0.601293
0.601305
0.601317
0.601329
0.601329
0.601342
0.601354
0.601366
0.601378
0.601378
0.60139
0.601403
0.601415
0.601427
0.601427
0.601439
0.601452
0.601464
0.601476
0.601476
0.601489
0.601501
0.601513
0.601526
0.601526
0.601538
0.60155
0.601563
0.601575
0.601575
0.601588
0.6016
0.601612
0.601625
0.601625
0.601637
0.60165
0.601662
0.601675
0.601675
0.601687
0.6017
0.601712
0.601725
0.601725
0.601737
0.60175
0.601762
0.601775
0.601775
0.601787
0.6018
0.601812
0.601825
0.601825
0.601838
0.60185
0.601863
0.601875
0.601875
0.601888
0.6019
0.601913
0.601926
0.601926
0.601938
0.601951
0.601964
0.601977
0.601977
0.601989
0.602002
0.602015
0.602027
0.602027
0.60204
0.602053
0.602066
0.602078
0.602078
0.602091
0.602104
0.602117
0.60213
0.60213
0.602142
0.602155
0.602168
0.602181
0.602181
0.602194
0.602207
0.602219
0.602232
0.602232
0.602245
0.602258
0.602271
0.602284
0.602284
0.602297
0.60231
0.602323
0.602336
0.602336
0.602349
0.602362
0.602375
0.602388
0.602388
0.602401
0.602414
0.602427
0.60244
0.60244
0.602453
0.602466
0.602479
0.602492
0.602492
0.602505
0.602518
0.602531
0.602544
0.602544
0.602557
0.60257
0.602584
0.602597
0.602597
0.60261
0.602623
0.602636
0.602649
0.602649
0.602663
0.602676
0.602689