<?xml version="1.0"?>
<VTKFile type="UnstructuredGrid" version="0.1" byte_order="LittleEndian">
<UnstructuredGrid>
<Piece NumberOfPoints="5000" NumberOfCells="4000">
<PointData Scalars="Reaction 0">
<DataArray type="Float32" Name="Reaction 0" format="ascii">
0.375787
0.375787
0.375787
0.375787
0.375787
0.375787
0.375787
0.375788
0.375788
0.375788
0.375788
0.375788
0.375789
0.375789
0.375789
0.375789
0.37579
0.37579
0.37579
0.375791
0.375791
0.375791
0.375792
0.375792
0.375793
0.375793
0.375794
0.375794
0.375795
0.375795
0.375795
0.375796
0.375797
0.375798
0.375799
0.375799
0.375799
0.3758
0.375801
0.375802
0.375802
0.375803
0.375804
0.375805
0.375806
0.375806
0.375807
0.375808
0.375809
0.37581
0.37581
0.375812
0.375813
0.375814
0.375815
0.375815
0.375817
0.375818
0.375819
0.375821
0.375821
0.375822
0.375823
0.375825
0.375826
0.375826
0.375828
0.37583
0.375831
0.375833
0.375833
0.375834
0.375836
0.375838
0.37584
0.37584
0.375841
0.375843
0.375845
0.375847
0.375847
0.375849
0.375851
0.375852
0.375854
0.375854
0.375856
0.375858
0.37586
0.375863
0.375863
0.375865
0.375867
0.375869
0.375871
0.375871
0.375873
0.375876
0.375878
0.37588
0.37588
0.375883
0.375885
0.375887
0.37589
0.37589
0.375892
0.375895
0.375897
0.3759
0.3759
0.375902
0.375905
0.375908
0.37591
0.37591
0.375913
0.375916
0.375918
0.375921
0.375921
0.375924
0.375927
0.37593
0.375933
0.375933
0.375936
0.375939
0.375941
0.375945
0.375945
0.375948
0.375951
0.375954
0.375957
0.375957
0.37596
0.375963
0.375966
0.37597
0.37597
0.375973
0.375976
0.37598
0.375983
0.375983
0.375986
0.37599
0.375993
0.375997
0.375997
0.376
0.376004
0.376007
0.376011
0.376011
0.376014
0.376018
0.376022
0.376026
0.376026
0.376029
0.376033
0.376037
0.376041
0.376041
0.376045
0.376048
0.376052
0.376056
0.376056
0.37606
0.376064
0.376068
0.376072
0.376072
0.376076
0.376081
0.376085
0.376089
0.376089
0.376093
0.376097
0.376102
0.376106
0.376106
0.37611
0.376115
0.376119
0.376123
0.376123
0.376128
0.376132
0.376137
0.376141
0.376141
0.376146
0.37615
0.376155
0.37616
0.37616
0.376164
0.376169
0.376174
0.376178
0.376178
0.376183
0.376188
0.376193
0.376198
0.376198
0.376203
0.376208
0.376213
0.376218
0.376218
0.376223
0.376228
0.376233
0.376238
0.376238
0.376243
0.376248
0.376253
0.376259
0.376259
0.376264
0.376269
0.376274
0.37628
0.37628
0.376285
0.376291
0.376296
0.376301
0.376301
0.376307
0.376312
0.376318
0.376324
0.376324
0.376329
0.376335
0.37634
0.376346
0.376346
0.376352
0.376358
0.376363
0.376369
0.376369
0.376375
0.376381
0.376387
0.376393
0.376393
0.376399
0.376405
0.376411
0.376417
0.376417
0.376423
0.376429
0.376435
0.376441
0.376441
0.376447
0.376454
0.37646
0.376466
0.376466
0.376472
0.376479
0.376485
0.376491
0.376491
0.376498
0.376504
0.376511
0.376517
0.376517
0.376524
0.37653
0.376537
0.376544
0.376544
0.37655
0.376557
0.376564
0.37657
0.37657
0.376577
0.376584
0.376591
0.376598
0.376598
0.376604
0.376611
0.376618
0.376625
0.376625
0.376632
0.376639
0.376646
0.376653
0.376653
0.376661
0.376668
0.376675
0.376682
0.376682
0.376689
0.376697
0.376704
0.376711
0.376711
0.376718
0.376726
0.376733
0.376741
0.376741
0.376748
0.376756
0.376763
0.376771
0.376771
0.376778
0.376786
0.376794
0.376801
0.376801
0.376809
0.376817
0.376824
0.376832
0.376832
0.37684
0.376848
0.376856
0.376864
0.376864
0.376872
0.37688
0.376887
0.376896
0.376896
0.376904
0.376912
0.37692
0.376928
0.376928
0.376936
0.376944
0.376952
0.376961
0.376961
0.376969
0.376977
0.376986
0.376994
0.376994
0.377002
0.377011
0.377019
0.377028
0.377028
0.377036
0.377045
0.377053
0.377062
0.377062
0.377071
0.377079
0.377088
0.377097
0.377097
0.377105
0.377114
0.377123
0.377132
0.377132
0.377141
0.37715
0.377158
0.377167
0.377167
0.377176
0.377185
0.377194
0.377203
0.377203
0.377213
0.377222
0.377231
0.37724
0.37724
0.377249
0.377258
0.377268
0.377277
0.377277
0.377286
0.377296
0.377305
0.377314
0.377314
0.377324
0.377333
0.377343
0.377352
0.377352
0.377362
0.377372
0.377381
0.377391
0.377391
0.377401
0.37741
0.37742
0.37743
0.37743
0.377439
0.377449
0.377459
0.377469
0.377469
0.377479
0.377489
0.377499
0.377509
0.377509
0.377519
0.377529
0.377539
0.377549
0.377549
0.377559
0.377569
0.37758
0.37759
0.37759
0.3776
0.37761
0.377621
0.377631
0.377631
0.377641
0.377652
0.377662
0.377673
0.377673
0.377683
0.377694
0.377704
0.377715
0.377715
0.377725
0.377736
0.377747
0.377757
0.377757
0.377768
0.377779
0.37779
0.3778
0.3778
0.377811
0.377822
0.377833
0.377844
0.377844
0.377855
0.377866
0.377877
0.377888
0.377888
0.377899
0.37791
0.377921
0.377932
0.377932
0.377944
0.377955
0.377966
0.377977
0.377977
0.377989
0.378
0.378011
0.378023
0.378023
0.378034
0.378046
0.378057
0.378069
0.378069
0.37808
0.378092
0.378103
0.378115
0.378115
0.378127
0.378138
0.37815
0.378162
0.378162
0.378173
0.378185
0.378197
0.378209
0.378209
0.378221
0.378233
0.378245
0.378257
0.378257
0.378269
0.378281
0.378293
0.378305
0.378305
0.378317
0.378329
0.378341
0.378353
0.378353
0.378366
0.378378
0.37839
0.378402
0.378402
0.378415
0.378427
0.37844
0.378452
0.378452
0.378465
0.378477
0.37849
0.378502
0.378502
0.378515
0.378527
0.37854
0.378553
0.378553
0.378565
0.378578
0.378591
0.378604
0.378604
0.378616
0.378629
0.378642
0.378655
0.378655
0.378668
0.378681
0.378694
0.378707
0.378707
0.37872
0.378733
0.378746
0.378759
0.378759
0.378772
0.378786
0.378799
0.378812
0.378812
0.378825
0.378839
0.378852
0.378865
0.378865
0.378879
0.378892
0.378906
0.378919
0.378919
0.378933
0.378946
0.37896
0.378973
0.378973
0.378987
0.379001
0.379014
0.379028
0.379028
0.379042
0.379055
0.379069
0.379083
0.379083
0.379097
0.379111
0.379125
0.379139
0.379139
0.379153
0.379167
0.379181
0.379195
0.379195
0.379209
0.379223
0.379237
0.379251
0.379251
0.379265
0.37928
0.379294
0.379308
0.379308
0.379323
0.379337
0.379351
0.379366
0.379366
0.37938
0.379395
0.379409
0.379424
0.379424
0.379438
0.379453
0.379467
0.379482
0.379482
0.379497
0.379511
0.379526
0.379541
0.379541
0.379556
0.379571
0.379585
0.3796
0.3796
0.379615
0.37963
0.379645
0.37966
0.37966
0.379675
0.37969
0.379705
0.37972
0.37972
0.379735
0.379751
0.379766
0.379781
0.379781
0.379796
0.379812
0.379827
0.379842
0.379842
0.379858
0.379873
0.379888
0.379904
0.379904
0.379919
0.379935
0.37995
0.379966
0.379966
0.379982
0.379997
0.380013
0.380029
0.380029
0.380044
0.38006
0.380076
0.380092
0.380092
0.380107
0.380123
0.380139
0.380155
0.380155
0.380171
0.380187
0.380203
0.380219
0.380219
0.380235
0.380251
0.380267
0.380283
0.380283
0.3803
0.380316
0.380332
0.380348
0.380348
0.380365
0.380381
0.380397
0.380414
0.380414
0.38043
0.380447
0.380463
0.38048
0.38048
0.380496
0.380513
0.380529
0.380546
0.380546
0.380562
0.380579
0.380596
0.380613
0.380613
0.380629
0.380646
0.380663
0.38068
0.38068
0.380697
0.380714
0.38073
0.380747
0.380747
0.380764
0.380781
0.380799
0.380816
0.380816
0.380833
0.38085
0.380867
0.380884
0.380884
0.380901
0.380919
0.380936
0.380953
0.380953
0.380971
0.380988
0.381005
0.381023
0.381023
0.38104
0.381058
0.381075
0.381093
0.381093
0.38111
0.381128
0.381146
0.381163
0.381163
0.381181
0.381199
0.381216
0.381234
0.381234
0.381252
0.38127
0.381288
0.381306
0.381306
0.381324
0.381341
0.381359
0.381377
0.381377
0.381395
0.381414
0.381432
0.38145
0.38145
0.381468
0.381486
0.381504
0.381523
0.381523
0.381541
0.381559
0.381577
0.381596
0.381596
0.381614
0.381633
0.381651
0.38167
0.38167
0.381688
0.381707
0.381725
0.381744
0.381744
0.381762
0.381781
0.3818
0.381818
0.381818
0.381837
0.381856
0.381875
0.381893
0.381893
0.381912
0.381931
0.38195
0.381969
0.381969
0.381988
0.382007
0.382026
0.382045
0.382045
0.382064
0.382083
0.382102
0.382122
0.382122
0.382141
0.38216
0.382179
0.382198
0.382198
0.382218
0.382237
0.382257
0.382276
0.382276
0.382295
0.382315
0.382334
0.382354
0.382354
0.382373
0.382393
0.382413
0.382432
0.382432
0.382452
0.382471
0.382491
0.382511
0.382511
0.382531
0.382551
0.38257
0.38259
0.38259
0.38261
0.38263
0.38265
0.38267
0.38267
0.38269
0.38271
0.38273
0.38275
0.38275
0.38277
0.38279
0.382811
0.382831
0.382831
0.382851
0.382871
0.382892
0.382912
0.382912
0.382932
0.382953
0.382973
0.382994
0.382994
0.383014
0.383035
0.383055
0.383076
0.383076
0.383096
0.383117
0.383137
0.383158
0.383158
0.383179
0.3832
0.38322
0.383241
0.383241
0.383262
0.383283
0.383304
0.383325
0.383325
0.383346
0.383366
0.383387
0.383408
0.383408
0.38343
0.383451
0.383472
0.383493
0.383493
0.383514
0.383535
0.383556
0.383578
0.383578
0.383599
0.38362
0.383642
0.383663
0.383663
0.383684
0.383706
0.383727
0.383749
0.383749
0.38377
0.383792
0.383813
0.383835
0.383835
0.383857
0.383878
0.3839
0.383922
0.383922
0.383943
0.383965
0.383987
0.384009
0.384009
0.384031
0.384053
0.384075
0.384096
0.384096
0.384118
0.38414
0.384162
0.384185
0.384185
0.384207
0.384229
0.384251
0.384273
0.384273
0.384295
0.384318
0.38434
0.384362
0.384362
0.384384
0.384407
0.384429
0.384452
0.384452
0.384474
0.384496
0.384519
0.384541
0.384541
0.384564
0.384587
0.384609
0.384632
0.384632
0.384655
0.384677
0.3847
0.384723
0.384723
0.384746
0.384768
0.384791
0.384814
0.384814
0.384837
0.38486
0.384883
0.384906
0.384906
0.384929
0.384952
0.384975
0.384998
0.384998
0.385021
0.385044
0.385068
0.385091
0.385091
0.385114
0.385137
0.385161
0.385184
0.385184
0.385207
0.385231
0.385254
0.385278
0.385278
0.385301
0.385325
0.385348
0.385372
0.385372
0.385395
0.385419
0.385443
0.385466
0.385466
0.38549
0.385514
0.385538
0.385561
0.385561
0.385585
0.385609
0.385633
0.385657
0.385657
0.385681
0.385705
0.385729
0.385753
0.385753
0.385777
0.385801
0.385825
0.385849
0.385849
0.385873
0.385898
0.385922
0.385946
0.385946
0.38597
0.385995
0.386019
0.386043
0.386043
0.386068
0.386092
0.386117
0.386141
0.386141
0.386166
0.38619
0.386215
0.386239
0.386239
0.386264
0.386289
0.386313
0.386338
0.386338
0.386363
0.386388
0.386413
0.386437
0.386437
0.386462
0.386487
0.386512
0.386537
0.386537
0.386562
0.386587
0.386612
0.386637
0.386637
0.386662
0.386687
0.386713
0.386738
0.386738
0.386763
0.386788
0.386813
0.386839
0.386839
0.386864
0.386889
0.386915
0.38694
0.38694
0.386966
0.386991
0.387017
0.387042
0.387042
0.387068
0.387093
0.387119
0.387145
0.387145
0.38717
0.387196
0.387222
0.387248
0.387248
0.387273
0.387299
0.387325
0.387351
0.387351
0.387377
0.387403
0.387429
0.387455
0.387455
0.387481
0.387507
0.387533
0.387559
0.387559
0.387585
0.387611
0.387637
0.387664
0.387664
0.38769
0.387716
0.387743
0.387769
0.387769
0.387795
0.387822
0.387848
0.387875
0.387875
0.387901
0.387928
0.387954
0.387981
0.387981
0.388007
0.388034
0.388061
0.388087
0.388087
0.388114
0.388141
0.388168
0.388194
0.388194
0.388221
0.388248
0.388275
0.388302
0.388302
0.388329
0.388356
0.388383
0.38841
0.38841
0.388437
0.388464
0.388491
0.388518
0.388518
0.388545
0.388573
0.3886
0.388627
0.388627
0.388654
0.388682
0.388709
0.388737
0.388737
0.388764
0.388791
0.388819
0.388846
0.388846
0.388874
0.388901
0.388929
0.388957
0.388957
0.388984
0.389012
0.38904
0.389067
0.389067
0.389095
0.389123
0.389151
0.389179
0.389179
0.389206
0.389234
0.389262
0.38929
0.38929
0.389318
0.389346
0.389374
0.389402
0.389402
0.38943
0.389459
0.389487
0.389515
0.389515
0.389543
0.389571
0.3896
0.389628
0.389628
0.389656
0.389685
0.389713
0.389742
0.389742
0.38977
0.389798
0.389827
0.389856
0.389856
0.389884
0.389913
0.389941
0.38997
0.38997
0.389999
0.390027
0.390056
0.390085
0.390085
0.390114
0.390142
0.390171
0.3902
0.3902
0.390229
0.390258
0.390287
0.390316
0.390316
0.390345
0.390374
0.390403
0.390432
0.390432
0.390461
0.390491
0.39052
0.390549
0.390549
0.390578
0.390608
0.390637
0.390666
0.390666
0.390696
0.390725
0.390755
0.390784
0.390784
0.390813
0.390843
0.390873
0.390902
0.390902
0.390932
0.390961
0.390991
0.391021
0.391021
0.39105
0.39108
0.39111
0.39114
0.39114
0.39117
0.391199
0.391229
0.391259
0.391259
0.391289
0.391319
0.391349
0.391379
0.391379
0.391409
0.391439
0.39147
0.3915
0.3915
0.39153
0.39156
0.39159
0.391621
0.391621
0.391651
0.391681
0.391712
0.391742
0.391742
0.391772
0.391803
0.391833
0.391864
0.391864
0.391894
0.391925
0.391955
0.391986
0.391986
0.392017
0.392047
0.392078
0.392109
0.392109
0.39214
0.39217
0.392201
0.392232
0.392232
0.392263
0.392294
0.392325
0.392356
0.392356
0.392387
0.392418
0.392449
0.39248
0.39248
0.392511
0.392542
0.392573
0.392604
0.392604
0.392636
0.392667
0.392698
0.392729
0.392729
0.392761
0.392792
0.392824
0.392855
0.392855
0.392886
0.392918
0.392949
0.392981
0.392981
0.393013
0.393044
0.393076
0.393107
0.393107
0.393139
0.393171
0.393203
0.393234
0.393234
0.393266
0.393298
0.39333
0.393362
0.393362
0.393394
0.393425
0.393457
0.393489
0.393489
0.393521
0.393554
0.393586
0.393618
0.393618
0.39365
0.393682
0.393714
0.393746
0.393746
0.393779
0.393811
0.393843
0.393876
0.393876
0.393908
0.39394
0.393973
0.394005
0.394005
0.394038
0.39407
0.394103
0.394135
0.394135
0.394168
0.394201
0.394233
0.394266
0.394266
0.394299
0.394332
0.394364
0.394397
0.394397
0.39443
0.394463
0.394496
0.394529
0.394529
0.394562
0.394595
0.394628
0.394661
0.394661
0.394694
0.394727
0.39476
0.394793
0.394793
0.394826
0.394859
0.394893
0.394926
0.394926
0.394959
0.394992
0.395026
0.395059
0.395059
0.395093
0.395126
0.39516
0.395193
0.395193
0.395227
0.39526
0.395294
0.395327
0.395327
0.395361
0.395395
0.395428
0.395462
0.395462
0.395496
0.39553
0.395563
0.395597
0.395597
0.395631
0.395665
0.395699
0.395733
0.395733
0.395767
0.395801
0.395835
0.395869
0.395869
0.395903
0.395937
0.395971
0.396006
0.396006
0.39604
0.396074
0.396108
0.396143
0.396143
0.396177
0.396211
0.396246
0.39628
0.39628
0.396315
0.396349
0.396384
0.396418
0.396418
0.396453
0.396487
0.396522
0.396556
0.396556
0.396591
0.396626
0.396661
0.396695
0.396695
0.39673
0.396765
0.3968
0.396835
0.396835
0.39687
0.396905
0.396939
0.396974
0.396974
0.397009
0.397045
0.39708
0.397115
0.397115
0.39715
0.397185
0.39722
0.397255
0.397255
0.397291
0.397326
0.397361
0.397397
0.397397
0.397432
0.397467
0.397503
0.397538
0.397538
0.397574
0.397609
0.397645
0.39768
0.39768
0.397716
0.397752
0.397787
0.397823
0.397823
0.397859
0.397894
0.39793
0.397966
0.397966
0.398002
0.398038
0.398073
0.398109
0.398109
0.398145
0.398181
0.398217
0.398253
0.398253
0.398289
0.398325
0.398362
0.398398
0.398398
0.398434
0.39847
0.398506
0.398543
0.398543
0.398579
0.398615
0.398652
0.398688
0.398688
0.398724
0.398761
0.398797
0.398834
0.398834
0.39887
0.398907
0.398943
0.39898
0.39898
0.399017
0.399053
0.39909
0.399127
0.399127
0.399163
0.3992
0.399237
0.399274
0.399274
0.399311
0.399348
0.399384
0.399421
0.399421
0.399458
0.399495
0.399532
0.399569
0.399569
0.399607
0.399644
0.399681
0.399718
0.399718
0.399755
0.399792
0.39983
0.399867
0.399867
0.399904
0.399942
0.399979
0.400016
0.400016
0.400054
0.400091
0.400129
0.400166
0.400166
0.400204
0.400242
0.400279
0.400317
0.400317
0.400354
0.400392
0.40043
0.400468
0.400468
0.400505
0.400543
0.400581
0.400619
0.400619
0.400657
0.400695
0.400733
0.400771
0.400771
0.400809
0.400847
0.400885
0.400923
0.400923
0.400961
0.400999
0.401037
0.401076
0.401076
0.401114
0.401152
0.40119
0.401229
0.401229
0.401267
0.401305
0.401344
0.401382
0.401382
0.401421
0.401459
0.401498
0.401536
0.401536
0.401575
0.401614
0.401652
0.401691
0.401691
0.40173
0.401768
0.401807
0.401846
0.401846
0.401885
0.401923
0.401962
0.402001
0.402001
0.40204
0.402079
0.402118
0.402157
0.402157
0.402196
0.402235
0.402274
0.402313
0.402313
0.402353
0.402392
0.402431
0.40247
0.40247
0.40251
0.402549
0.402588
0.402628
0.402628
0.402667
0.402706
0.402746
0.402785
0.402785
0.402825
0.402864
0.402904
0.402943
0.402943
0.402983
0.403023
0.403062
0.403102
0.403102
0.403142
0.403182
0.403221
0.403261
0.403261
0.403301
0.403341
0.403381
0.403421
0.403421
0.403461
0.403501
0.403541
0.403581
0.403581
0.403621
0.403661
0.403701
0.403741
0.403741
0.403781
0.403822
0.403862
0.403902
0.403902
0.403943
0.403983
0.404023
0.404064
0.404064
0.404104
0.404145
0.404185
0.404226
0.404226
0.404266
0.404307
0.404347
0.404388
0.404388
0.404428
0.404469
0.40451
0.404551
0.404551
0.404591
0.404632
0.404673
0.404714
0.404714
0.404755
0.404796
0.404837
0.404878
0.404878
0.404919
0.40496
0.405001
0.405042
0.405042
0.405083
0.405124
0.405165
0.405206
0.405206
0.405248
0.405289
0.40533
0.405371
0.405371
0.405413
0.405454
0.405496
0.405537
0.405537
0.405578
0.40562
0.405661
0.405703
0.405703
0.405744
0.405786
0.405828
0.405869
0.405869
0.405911
0.405953
0.405995
0.406036
0.406036
0.406078
0.40612
0.406162
0.406204
0.406204
0.406246
0.406288
0.406329
0.406371
0.406371
0.406414
0.406456
0.406498
0.40654
0.40654
0.406582
0.406624
0.406666
0.406709
0.406709
0.406751
0.406793
0.406835
0.406878
0.406878
0.40692
0.406963
0.407005
0.407047
0.407047
0.40709
0.407132
0.407175
0.407218
0.407218
0.40726
0.407303
0.407345
0.407388
0.407388
0.407431
0.407474
0.407516
0.407559
0.407559
0.407602
0.407645
0.407688
0.407731
0.407731
0.407774
0.407817
0.40786
0.407903
0.407903
0.407946
0.407989
0.408032
0.408075
0.408075
0.408118
0.408161
0.408205
0.408248
0.408248
0.408291
0.408335
0.408378
0.408421
0.408421
0.408465
0.408508
0.408552
0.408595
0.408595
0.408639
0.408682
0.408726
0.408769
0.408769
0.408813
0.408857
0.4089
0.408944
0.408944
0.408988
0.409032
0.409075
0.409119
0.409119
0.409163
0.409207
0.409251
0.409295
0.409295
0.409339
0.409383
0.409427
0.409471
0.409471
0.409515
0.409559
0.409603
0.409647
0.409647
0.409692
0.409736
0.40978
0.409824
0.409824
0.409869
0.409913
0.409958
0.410002
0.410002
0.410046
0.410091
0.410135
0.41018
0.41018
0.410224
0.410269
0.410314
0.410358
0.410358
0.410403
0.410448
0.410492
0.410537
0.410537
0.410582
0.410627
0.410672
0.410716
0.410716
0.410761
0.410806
0.410851
0.410896
0.410896
0.410941
0.410986
0.411031
0.411076
0.411076
0.411121
0.411167
0.411212
0.411257
0.411257
0.411302
0.411348
0.411393
0.411438
0.411438
0.411484
0.411529
0.411574
0.41162
0.41162
0.411665
0.411711
0.411756
0.411802
0.411802
0.411847
0.411893
0.411939
0.411984
0.411984
0.41203
0.412076
0.412122
0.412167
0.412167
0.412213
0.412259
0.412305
0.412351
0.412351
0.412397
0.412443
0.412489
0.412535
0.412535
0.412581
0.412627
0.412673
0.412719
0.412719
0.412765
0.412811
0.412858
0.412904
0.412904
0.41295
0.412996
0.413043
0.413089
0.413089
0.413135
0.413182
0.413228
0.413275
0.413275
0.413321
0.413368
0.413414
0.413461
0.413461
0.413508
0.413554
0.413601
0.413648
0.413648
0.413694
0.413741
0.413788
0.413835
0.413835
0.413882
0.413928
0.413975
0.414022
0.414022
0.414069
0.414116
0.414163
0.41421
0.41421
0.414257
0.414304
0.414352
0.414399
0.414399
0.414446
0.414493
0.41454
0.414588
0.414588
0.414635
0.414682
0.41473
0.414777
0.414777
0.414824
0.414872
0.414919
0.414967
0.414967
0.415014
0.415062
0.41511
0.415157
0.415157
0.415205
0.415252
0.4153
0.415348
0.415348
0.415396
0.415443
0.415491
0.415539
0.415539
0.415587
0.415635
0.415683
0.415731
0.415731
0.415779
0.415827
0.415875
0.415923
0.415923
0.415971
0.416019
0.416067
0.416116
0.416116
0.416164
0.416212
0.41626
0.416309
0.416309
0.416357
0.416405
0.416454
0.416502
0.416502
0.416551
0.416599
0.416648
0.416696
0.416696
0.416745
0.416793
0.416842
0.416891
0.416891
0.416939
0.416988
0.417037
0.417085
0.417085
0.417134
0.417183
0.417232
0.417281
0.417281
0.41733
0.417379
0.417428
0.417477
0.417477
0.417526
0.417575
0.417624
0.417673
0.417673
0.417722
0.417771
0.41782
0.41787
0.41787
0.417919
0.417968
0.418017
0.418067
0.418067
0.418116
0.418165
0.418215
0.418264
0.418264
0.418314
0.418363
0.418413
0.418462
0.418462
0.418512
0.418562
0.418611
0.418661
0.418661
0.418711
0.41876
0.41881
0.41886
0.41886
0.41891
0.41896
0.41901
0.419059
0.419059
0.419109
0.419159
0.419209
0.419259
0.419259
0.419309
0.41936
0.41941
0.41946
0.41946
0.41951
0.41956
0.41961
0.419661
0.419661
0.419711
0.419761
0.419812
0.419862
0.419862
0.419912
0.419963
0.420013
0.420064
0.420064
0.420114
0.420165
0.420215
0.420266
0.420266
0.420317
0.420367
0.420418
0.420469
0.420469
0.420519
0.42057
0.420621
0.420672
0.420672
0.420723
0.420773
0.420824
0.420875
0.420875
0.420926
0.420977
0.421028
0.421079
0.421079
0.42113
0.421182
0.421233
0.421284
0.421284
0.421335
0.421386
0.421438
0.421489
0.421489
0.42154
0.421592
0.421643
0.421694
0.421694
0.421746
0.421797
0.421849
0.4219
0.4219
0.421952
0.422003
0.422055
0.422107
0.422107
0.422158
0.42221
0.422262
0.422313
0.422313
0.422365
0.422417
0.422469
0.422521
0.422521
0.422572
0.422624
0.422676
0.422728
0.422728
0.42278
0.422832
0.422884
0.422936
0.422936
0.422989
0.423041
0.423093
0.423145
0.423145
0.423197
0.42325
0.423302
0.423354
0.423354
0.423407
0.423459
0.423511
0.423564
0.423564
0.423616
0.423669
0.423721
0.423774
0.423774
0.423826
0.423879
0.423932
0.423984
0.423984
0.424037
0.42409
0.424142
0.424195
0.424195
0.424248
0.424301
0.424354
0.424407
0.424407
0.424459
0.424512
0.424565
0.424618
0.424618
0.424671
0.424724
0.424778
0.424831
0.424831
0.424884
0.424937
0.42499
0.425043
0.425043
0.425097
0.42515
0.425203
0.425257
0.425257
0.42531
0.425363
0.425417
0.42547
0.42547
0.425524
0.425577
0.425631
0.425684
0.425684
0.425738
0.425792
0.425845
0.425899
0.425899
0.425953
0.426007
0.42606
0.426114
0.426114
0.426168
0.426222
0.426276
0.42633
0.42633
0.426384
0.426438
0.426492
0.426546
0.426546
0.4266
0.426654
0.426708
0.426762
0.426762
0.426816
0.42687
0.426925
0.426979
0.426979
0.427033
0.427088
0.427142
0.427196
0.427196
0.427251
0.427305
0.42736
0.427414
0.427414
0.427469
0.427523
0.427578
0.427632
0.427632
0.427687
0.427742
0.427796
0.427851
0.427851
0.427906
0.427961
0.428015
0.42807
0.42807
0.428125
0.42818
0.428235
0.42829
0.42829
0.428345
0.4284
0.428455
0.42851
0.42851
0.428565
0.42862
0.428675
0.428731
0.428731
0.428786
0.428841
0.428896
0.428952
0.428952
0.429007
0.429062
0.429118
0.429173
0.429173
0.429228
0.429284
0.429339
0.429395
0.429395
0.42945
0.429506
0.429562
0.429617
0.429617
0.429673
0.429729
0.429784
0.42984
0.42984
0.429896
0.429952
0.430008
0.430063
0.430063
0.430119
0.430175
0.430231
0.430287
0.430287
0.430343
0.430399
0.430455
0.430511
0.430511
0.430568
0.430624
0.43068
0.430736
0.430736
0.430792
0.430849
0.430905
0.430961
0.430961
0.431018
0.431074
0.43113
0.431187
0.431187
0.431243
0.4313
0.431356
0.431413
0.431413
0.43147
0.431526
0.431583
0.431639
0.431639
0.431696
0.431753
0.43181
0.431866
0.431866
0.431923
0.43198
0.432037
0.432094
0.432094
0.432151
0.432208
0.432265
0.432322
0.432322
0.432379
0.432436
0.432493
0.43255
0.43255
0.432607
0.432664
0.432722
0.432779
0.432779
0.432836
0.432894
0.432951
0.433008
0.433008
0.433066
0.433123
0.43318
0.433238
0.433238
0.433295
0.433353
0.433411
0.433468
0.433468
0.433526
0.433583
0.433641
0.433699
0.433699
0.433757
0.433814
0.433872
0.43393
0.43393
0.433988
0.434046
0.434104
0.434161
0.434161
0.434219
0.434277
0.434335
0.434393
0.434393
0.434452
0.43451
0.434568
0.434626
0.434626
0.434684
0.434742
0.434801
0.434859
0.434859
0.434917
0.434976
0.435034
0.435092
0.435092
0.435151
0.435209
0.435268
0.435326
0.435326
0.435385
0.435443
0.435502
0.43556
0.43556
0.435619
0.435678
0.435737
0.435795
0.435795
0.435854
0.435913
0.435972
0.436031
0.436031
0.436089
0.436148
0.436207
0.436266
0.436266
0.436325
0.436384
0.436443
0.436502
0.436502
0.436561
0.436621
0.43668
0.436739
0.436739
0.436798
0.436857
0.436917
0.436976
0.436976
0.437035
0.437095
0.437154
0.437214
0.437214
0.437273
0.437333
0.437392
0.437452
0.437452
0.437511
0.437571
0.43763
0.43769
0.43769
0.43775
0.437809
0.437869
0.437929
0.437929
0.437989
0.438049
0.438108
0.438168
0.438168
0.438228
0.438288
0.438348
0.438408
0.438408
0.438468
0.438528
0.438588
0.438648
0.438648
0.438709
0.438769
0.438829
0.438889
0.438889
0.438949
0.43901
0.43907
0.43913
0.43913
0.439191
0.439251
0.439312
0.439372
0.439372
0.439433
0.439493
0.439554
0.439614
0.439614
0.439675
0.439735
0.439796
0.439857
0.439857
0.439918
0.439978
0.440039
0.4401
0.4401
0.440161
0.440222
0.440282
0.440343
0.440343
0.440404
0.440465
0.440526
0.440587
0.440587
0.440648
0.44071
0.440771
0.440832
0.440832
0.440893
0.440954
0.441015
0.441077
0.441077
0.441138
0.441199
0.441261
0.441322
0.441322
0.441383
0.441445
0.441506
0.441568
0.441568
0.441629
0.441691
0.441753
0.441814
0.441814
0.441876
0.441937
0.441999
0.442061
0.442061
0.442123
0.442184
0.442246
0.442308
0.442308
0.44237
0.442432
0.442494
0.442556
0.442556
0.442618
0.44268
0.442742
0.442804
0.442804
0.442866
0.442928
0.44299
0.443052
0.443052
0.443115
0.443177
0.443239
0.443301
0.443301
0.443364
0.443426
0.443489
0.443551
0.443551
0.443613
0.443676
0.443738
0.443801
0.443801
0.443863
0.443926
0.443989
0.444051
0.444051
0.444114
0.444177
0.444239
0.444302
0.444302
0.444365
0.444428
0.444491
0.444554
0.444554
0.444616
0.444679
0.444742
0.444805
0.444805
0.444868
0.444931
0.444995
0.445058
0.445058
0.445121
0.445184
0.445247
0.44531
0.44531
0.445374
0.445437
0.4455
0.445564
0.445564
0.445627
0.44569
0.445754
0.445817
0.445817
0.445881
0.445944
0.446008
0.446071
0.446071
0.446135
0.446198
0.446262
0.446326
0.446326
0.44639
0.446453
0.446517
0.446581
0.446581
0.446645
0.446709
0.446772
0.446836
0.446836
0.4469
0.446964
0.447028
0.447092
0.447092
0.447156
0.44722
0.447285
0.447349
0.447349
0.447413
0.447477
0.447541
0.447606
0.447606
0.44767
0.447734
0.447799
0.447863
0.447863
0.447927
0.447992
0.448056
0.448121
0.448121
0.448185
0.44825
0.448314
0.448379
0.448379
0.448444
0.448508
0.448573
0.448638
0.448638
0.448702
0.448767
0.448832
0.448897
0.448897
0.448962
0.449027
0.449092
0.449156
0.449156
0.449221
0.449286
0.449352
0.449417
0.449417
0.449482
0.449547
0.449612
0.449677
0.449677
0.449742
0.449808
0.449873
0.449938
0.449938
0.450004
0.450069
0.450134
0.4502
0.4502
0.450265
0.450331
0.450396
0.450462
0.450462
0.450527
0.450593
0.450658
0.450724
0.450724
0.45079
0.450855
0.450921
0.450987
0.450987
0.451053
0.451119
0.451184
0.45125
0.45125
0.451316
0.451382
0.451448
0.451514
0.451514
0.45158
0.451646
0.451712
0.451778
0.451778
0.451844
0.451911
0.451977
0.452043
0.452043
0.452109
0.452176
0.452242
0.452308
0.452308
0.452375
0.452441
0.452507
0.452574
0.452574
0.45264
0.452707
0.452773
0.45284
0.45284
0.452907
0.452973
0.45304
0.453107
0.453107
0.453173
0.45324
0.453307
0.453374
0.453374
0.45344
0.453507
0.453574
0.453641
0.453641
0.453708
0.453775
0.453842
0.453909
0.453909
0.453976
0.454043
0.45411
0.454177
0.454177
0.454245
0.454312
0.454379
0.454446
0.454446
0.454514
0.454581
0.454648
0.454716
0.454716
0.454783
0.454851
0.454918
0.454986
0.454986
0.455053
0.455121
0.455188
0.455256
0.455256
0.455323
0.455391
0.455459
0.455527
0.455527
0.455594
0.455662
0.45573
0.455798
0.455798
0.455866
0.455934
0.456001
0.456069
0.456069
0.456137
0.456205
0.456273
0.456342
0.456342
0.45641
0.456478
0.456546
0.456614
0.456614
0.456682
0.456751
0.456819
0.456887
0.456887
0.456956
0.457024
0.457092
0.457161
0.457161
0.457229
0.457298
0.457366
0.457435
0.457435
0.457503
0.457572
0.457641
0.457709
0.457709
0.457778
0.457847
0.457915
0.457984
0.457984
0.458053
0.458122
0.458191
0.458259
0.458259
0.458328
0.458397
0.458466
0.458535
0.458535
0.458604
0.458673
0.458743
0.458812
0.458812
0.458881
0.45895
0.459019
0.459088
0.459088
0.459158
0.459227
0.459296
0.459366
0.459366
0.459435
0.459504
0.459574
0.459643
0.459643
0.459713
0.459782
0.459852
0.459922
0.459922
0.459991
0.460061
0.46013
0.4602
0.4602
0.46027
0.46034
0.460409
0.460479
0.460479
0.460549
0.460619
0.460689
0.460759
0.460759
0.460829
0.460899
0.460969
0.461039
0.461039
0.461109
0.461179
0.461249
0.461319
0.461319
0.46139
0.46146
0.46153
0.4616
0.4616
0.461671
0.461741
0.461811
0.461882
0.461882
0.461952
0.462023
0.462093
0.462164
0.462164
0.462234
0.462305
0.462375
0.462446
0.462446
0.462517
0.462587
0.462658
0.462729
0.462729
0.4628
0.46287
0.462941
0.463012
0.463012
0.463083
0.463154
0.463225
0.463296
0.463296
0.463367
0.463438
0.463509
0.46358
0.46358
0.463651
0.463722
0.463794
0.463865
0.463865
0.463936
0.464007
0.464079
0.46415
0.46415
0.464221
0.464293
0.464364
0.464435
0.464435
0.464507
0.464578
0.46465
0.464722
0.464722
0.464793
0.464865
0.464936
0.465008
0.465008
0.46508
0.465152
0.465223
0.465295
0.465295
0.465367
0.465439
0.465511
0.465583
0.465583
0.465655
0.465727
0.465799
0.465871
0.465871
0.465943
0.466015
0.466087
0.466159
0.466159
0.466231
0.466303
0.466376
0.466448
0.466448
0.46652
0.466592
0.466665
0.466737
0.466737
0.46681
0.466882
0.466955
0.467027
0.467027
0.4671
0.467172
0.467245
0.467317
0.467317
0.46739
0.467463
0.467535
0.467608
0.467608
0.467681
0.467754
0.467826
0.467899
0.467899
0.467972
0.468045
0.468118
0.468191
0.468191
0.468264
0.468337
0.46841
0.468483
0.468483
0.468556
0.468629
0.468703
0.468776
0.468776
0.468849
0.468922
0.468996
0.469069
0.469069
0.469142
0.469216
0.469289
0.469362
0.469362
0.469436
0.469509
0.469583
0.469656
0.469656
0.46973
0.469804
0.469877
0.469951
0.469951
0.470025
0.470098
0.470172
0.470246
0.470246
0.47032
0.470394
0.470467
0.470541
0.470541
0.470615
0.470689
0.470763
0.470837
0.470837
0.470911
0.470985
0.471059
0.471134
0.471134
0.471208
0.471282
0.471356
0.47143
0.47143
0.471505
0.471579
0.471653
0.471728
0.471728
0.471802
0.471877
0.471951
0.472026
0.472026
0.4721
0.472175
0.472249
0.472324
0.472324
0.472398
0.472473
0.472548
0.472623
0.472623
0.472697
0.472772
0.472847
0.472922
0.472922
0.472997
0.473071
0.473146
0.473221
0.473221
0.473296
0.473371
0.473446
0.473521
0.473521
0.473597
0.473672
0.473747
0.473822
0.473822
0.473897
0.473973
0.474048
0.474123
0.474123
0.474198
0.474274
0.474349
0.474425
0.474425
0.4745
0.474576
0.474651
0.474727
0.474727
0.474802
0.474878
0.474953
0.475029
0.475029
0.475105
0.475181
0.475256
0.475332
0.475332
0.475408
0.475484
0.47556
0.475636
0.475636
0.475711
0.475787
0.475863
0.475939
0.475939
0.476015
0.476092
0.476168
0.476244
0.476244
0.47632
0.476396
0.476472
0.476549
0.476549
0.476625
0.476701
0.476778
0.476854
0.476854
0.47693
0.477007
0.477083
0.47716
0.47716
0.477236
0.477313
0.477389
0.477466
0.477466
0.477543
0.477619
0.477696
0.477773
0.477773
0.477849
0.477926
0.478003
0.47808
0.47808
0.478157
0.478234
0.478311
0.478388
0.478388
0.478465
0.478542
0.478619
0.478696
0.478696
0.478773
0.47885
0.478927
0.479004
0.479004
0.479081
0.479159
0.479236
0.479313
0.479313
0.479391
0.479468
0.479545