<?xml version="1.0"?>
<VTKFile type="UnstructuredGrid" version="0.1" byte_order="LittleEndian">
<UnstructuredGrid>
<Piece NumberOfPoints="5000" NumberOfCells="4000">
<PointData Scalars="Reaction 0">
<DataArray type="Float32" Name="Reaction 0" format="ascii">
0.76121
0.76121
0.76121
0.76121
0.76121
0.76121
0.761211
0.761211
0.761211
0.761211
0.761211
0.761211
0.761211
0.761211
0.761212
0.761212
0.761212
0.761212
0.761212
0.761213
0.761213
0.761213
0.761213
0.761214
0.761214
0.761214
0.761214
0.761215
0.761215
0.761215
0.761215
0.761216
0.761216
0.761217
0.761217
0.761217
0.761218
0.761218
0.761219
0.761219
0.761219
0.76122
0.761221
0.761221
0.761222
0.761222
0.761222
0.761223
0.761224
0.761224
0.761224
0.761225
0.761226
0.761227
0.761227
0.761227
0.761228
0.761229
0.76123
0.761231
0.761231
0.761232
0.761232
0.761233
0.761234
0.761234
0.761235
0.761236
0.761237
0.761238
0.761238
0.761239
0.76124
0.761241
0.761242
0.761242
0.761243
0.761244
0.761245
0.761247
0.761247
0.761248
0.761249
0.76125
0.761251
0.761251
0.761252
0.761254
0.761255
0.761256
0.761256
0.761257
0.761259
0.76126
0.761261
0.761261
0.761263
0.761264
0.761266
0.761267
0.761267
0.761268
0.76127
0.761271
0.761273
0.761273
0.761274
0.761276
0.761277
0.761279
0.761279
0.76128
0.761282
0.761284
0.761285
0.761285
0.761287
0.761289
0.76129
0.761292
0.761292
0.761294
0.761295
0.761297
0.761299
0.761299
0.761301
0.761302
0.761304
0.761306
0.761306
0.761308
0.76131
0.761312
0.761314
0.761314
0.761315
0.761317
0.761319
0.761321
0.761321
0.761323
0.761325
0.761327
0.761329
0.761329
0.761331
0.761334
0.761336
0.761338
0.761338
0.76134
0.761342
0.761344
0.761346
0.761346
0.761349
0.761351
0.761353
0.761355
0.761355
0.761358
0.76136
0.761362
0.761365
0.761365
0.761367
0.761369
0.761372
0.761374
0.761374
0.761376
0.761379
0.761381
0.761384
0.761384
0.761386
0.761389
0.761391
0.761394
0.761394
0.761396
0.761399
0.761402
0.761404
0.761404
0.761407
0.761409
0.761412
0.761415
0.761415
0.761417
0.76142
0.761423
0.761426
0.761426
0.761428
0.761431
0.761434
0.761437
0.761437
0.76144
0.761442
0.761445
0.761448
0.761448
0.761451
0.761454
0.761457
0.76146
0.76146
0.761463
0.761466
0.761469
0.761472
0.761472
0.761475
0.761478
0.761481
0.761484
0.761484
0.761487
0.761491
0.761494
0.761497
0.761497
0.7615
0.761503
0.761507
0.76151
0.76151
0.761513
0.761516
0.76152
0.761523
0.761523
0.761526
0.76153
0.761533
0.761536
0.761536
0.76154
0.761543
0.761547
0.76155
0.76155
0.761554
0.761557
0.761561
0.761564
0.761564
0.761568
0.761571
0.761575
0.761578
0.761578
0.761582
0.761586
0.761589
0.761593
0.761593
0.761597
0.7616
0.761604
0.761608
0.761608
0.761611
0.761615
0.761619
0.761623
0.761623
0.761627
0.76163
0.761634
0.761638
0.761638
0.761642
0.761646
0.76165
0.761654
0.761654
0.761658
0.761662
0.761666
0.76167
0.76167
0.761674
0.761678
0.761682
0.761686
0.761686
0.76169
0.761694
0.761698
0.761703
0.761703
0.761707
0.761711
0.761715
0.761719
0.761719
0.761724
0.761728
0.761732
0.761736
0.761736
0.761741
0.761745
0.761749
0.761754
0.761754
0.761758
0.761763
0.761767
0.761772
0.761772
0.761776
0.76178
0.761785
0.761789
0.761789
0.761794
0.761798
0.761803
0.761808
0.761808
0.761812
0.761817
0.761821
0.761826
0.761826
0.761831
0.761835
0.76184
0.761845
0.761845
0.76185
0.761854
0.761859
0.761864
0.761864
0.761869
0.761874
0.761878
0.761883
0.761883
0.761888
0.761893
0.761898
0.761903
0.761903
0.761908
0.761913
0.761918
0.761923
0.761923
0.761928
0.761933
0.761938
0.761943
0.761943
0.761948
0.761953
0.761958
0.761963
0.761963
0.761968
0.761974
0.761979
0.761984
0.761984
0.761989
0.761994
0.762
0.762005
0.762005
0.76201
0.762016
0.762021
0.762026
0.762026
0.762032
0.762037
0.762042
0.762048
0.762048
0.762053
0.762059
0.762064
0.76207
0.76207
0.762075
0.762081
0.762086
0.762092
0.762092
0.762097
0.762103
0.762109
0.762114
0.762114
0.76212
0.762125
0.762131
0.762137
0.762137
0.762143
0.762148
0.762154
0.76216
0.76216
0.762166
0.762171
0.762177
0.762183
0.762183
0.762189
0.762195
0.762201
0.762207
0.762207
0.762212
0.762218
0.762224
0.76223
0.76223
0.762236
0.762242
0.762248
0.762254
0.762254
0.76226
0.762266
0.762273
0.762279
0.762279
0.762285
0.762291
0.762297
0.762303
0.762303
0.76231
0.762316
0.762322
0.762328
0.762328
0.762334
0.762341
0.762347
0.762353
0.762353
0.76236
0.762366
0.762372
0.762379
0.762379
0.762385
0.762392
0.762398
0.762405
0.762405
0.762411
0.762417
0.762424
0.762431
0.762431
0.762437
0.762444
0.76245
0.762457
0.762457
0.762463
0.76247
0.762477
0.762483
0.762483
0.76249
0.762497
0.762503
0.76251
0.76251
0.762517
0.762524
0.76253
0.762537
0.762537
0.762544
0.762551
0.762558
0.762565
0.762565
0.762572
0.762578
0.762585
0.762592
0.762592
0.762599
0.762606
0.762613
0.76262
0.76262
0.762627
0.762634
0.762641
0.762648
0.762648
0.762656
0.762663
0.76267
0.762677
0.762677
0.762684
0.762691
0.762698
0.762706
0.762706
0.762713
0.76272
0.762727
0.762735
0.762735
0.762742
0.762749
0.762757
0.762764
0.762764
0.762771
0.762779
0.762786
0.762794
0.762794
0.762801
0.762808
0.762816
0.762823
0.762823
0.762831
0.762838
0.762846
0.762854
0.762854
0.762861
0.762869
0.762876
0.762884
0.762884
0.762892
0.762899
0.762907
0.762915
0.762915
0.762922
0.76293
0.762938
0.762946
0.762946
0.762953
0.762961
0.762969
0.762977
0.762977
0.762985
0.762993
0.763
0.763008
0.763008
0.763016
0.763024
0.763032
0.76304
0.76304
0.763048
0.763056
0.763064
0.763072
0.763072
0.76308
0.763088
0.763096
0.763104
0.763104
0.763113
0.763121
0.763129
0.763137
0.763137
0.763145
0.763153
0.763162
0.76317
0.76317
0.763178
0.763186
0.763195
0.763203
0.763203
0.763211
0.76322
0.763228
0.763236
0.763236
0.763245
0.763253
0.763262
0.76327
0.76327
0.763279
0.763287
0.763296
0.763304
0.763304
0.763313
0.763321
0.76333
0.763338
0.763338
0.763347
0.763355
0.763364
0.763373
0.763373
0.763381
0.76339
0.763399
0.763408
0.763408
0.763416
0.763425
0.763434
0.763443
0.763443
0.763451
0.76346
0.763469
0.763478
0.763478
0.763487
0.763496
0.763505
0.763513
0.763513
0.763522
0.763531
0.76354
0.763549
0.763549
0.763558
0.763567
0.763576
0.763585
0.763585
0.763594
0.763604
0.763613
0.763622
0.763622
0.763631
0.76364
0.763649
0.763658
0.763658
0.763668
0.763677
0.763686
0.763695
0.763695
0.763705
0.763714
0.763723
0.763733
0.763733
0.763742
0.763751
0.763761
0.76377
0.76377
0.763779
0.763789
0.763798
0.763808
0.763808
0.763817
0.763827
0.763836
0.763846
0.763846
0.763855
0.763865
0.763874
0.763884
0.763884
0.763894
0.763903
0.763913
0.763923
0.763923
0.763932
0.763942
0.763952
0.763961
0.763961
0.763971
0.763981
0.763991
0.764
0.764
0.76401
0.76402
0.76403
0.76404
0.76404
0.76405
0.76406
0.764069
0.764079
0.764079
0.764089
0.764099
0.764109
0.764119
0.764119
0.764129
0.764139
0.764149
0.764159
0.764159
0.76417
0.76418
0.76419
0.7642
0.7642
0.76421
0.76422
0.76423
0.764241
0.764241
0.764251
0.764261
0.764271
0.764281
0.764281
0.764292
0.764302
0.764312
0.764323
0.764323
0.764333
0.764343
0.764354
0.764364
0.764364
0.764375
0.764385
0.764395
0.764406
0.764406
0.764416
0.764427
0.764437
0.764448
0.764448
0.764458
0.764469
0.76448
0.76449
0.76449
0.764501
0.764511
0.764522
0.764533
0.764533
0.764543
0.764554
0.764565
0.764576
0.764576
0.764586
0.764597
0.764608
0.764619
0.764619
0.764629
0.76464
0.764651
0.764662
0.764662
0.764673
0.764684
0.764695
0.764706
0.764706
0.764716
0.764727
0.764738
0.764749
0.764749
0.76476
0.764771
0.764782
0.764794
0.764794
0.764805
0.764816
0.764827
0.764838
0.764838
0.764849
0.76486
0.764871
0.764883
0.764883
0.764894
0.764905
0.764916
0.764927
0.764927
0.764939
0.76495
0.764961
0.764973
0.764973
0.764984
0.764995
0.765007
0.765018
0.765018
0.765029
0.765041
0.765052
0.765064
0.765064
0.765075
0.765087
0.765098
0.76511
0.76511
0.765121
0.765133
0.765144
0.765156
0.765156
0.765168
0.765179
0.765191
0.765202
0.765202
0.765214
0.765226
0.765238
0.765249
0.765249
0.765261
0.765273
0.765284
0.765296
0.765296
0.765308
0.76532
0.765332
0.765343
0.765343
0.765355
0.765367
0.765379
0.765391
0.765391
0.765403
0.765415
0.765427
0.765439
0.765439
0.765451
0.765463
0.765475
0.765487
0.765487
0.765499
0.765511
0.765523
0.765535
0.765535
0.765547
0.765559
0.765572
0.765584
0.765584
0.765596
0.765608
0.76562
0.765633
0.765633
0.765645
0.765657
0.765669
0.765682
0.765682
0.765694
0.765706
0.765719
0.765731
0.765731
0.765743
0.765756
0.765768
0.765781
0.765781
0.765793
0.765806
0.765818
0.76583
0.76583
0.765843
0.765856
0.765868
0.765881
0.765881
0.765893
0.765906
0.765918
0.765931
0.765931
0.765944
0.765956
0.765969
0.765982
0.765982
0.765994
0.766007
0.76602
0.766033
0.766033
0.766045
0.766058
0.766071
0.766084
0.766084
0.766096
0.766109
0.766122
0.766135
0.766135
0.766148
0.766161
0.766174
0.766187
0.766187
0.7662
0.766213
0.766226
0.766239
0.766239
0.766252
0.766265
0.766278
0.766291
0.766291
0.766304
0.766317
0.76633
0.766343
0.766343
0.766356
0.76637
0.766383
0.766396
0.766396
0.766409
0.766422
0.766436
0.766449
0.766449
0.766462
0.766475
0.766489
0.766502
0.766502
0.766515
0.766529
0.766542
0.766556
0.766556
0.766569
0.766582
0.766596
0.766609
0.766609
0.766623
0.766636
0.76665
0.766663
0.766663
0.766677
0.76669
0.766704
0.766717
0.766717
0.766731
0.766745
0.766758
0.766772
0.766772
0.766785
0.766799
0.766813
0.766827
0.766827
0.76684
0.766854
0.766868
0.766882
0.766882
0.766895
0.766909
0.766923
0.766937
0.766937
0.766951
0.766964
0.766978
0.766992
0.766992
0.767006
0.76702
0.767034
0.767048
0.767048
0.767062
0.767076
0.76709
0.767104
0.767104
0.767118
0.767132
0.767146
0.76716
0.76716
0.767174
0.767188
0.767202
0.767217
0.767217
0.767231
0.767245
0.767259
0.767273
0.767273
0.767288
0.767302
0.767316
0.76733
0.76733
0.767345
0.767359
0.767373
0.767388
0.767388
0.767402
0.767416
0.767431
0.767445
0.767445
0.767459
0.767474
0.767488
0.767503
0.767503
0.767517
0.767532
0.767546
0.767561
0.767561
0.767575
0.76759
0.767604
0.767619
0.767619
0.767634
0.767648
0.767663
0.767677
0.767677
0.767692
0.767707
0.767721
0.767736
0.767736
0.767751
0.767766
0.76778
0.767795
0.767795
0.76781
0.767825
0.767839
0.767854
0.767854
0.767869
0.767884
0.767899
0.767914
0.767914
0.767929
0.767944
0.767958
0.767973
0.767973
0.767988
0.768003
0.768018
0.768033
0.768033
0.768048
0.768063
0.768079
0.768094
0.768094
0.768109
0.768124
0.768139
0.768154
0.768154
0.768169
0.768184
0.7682
0.768215
0.768215
0.76823
0.768245
0.76826
0.768276
0.768276
0.768291
0.768306
0.768322
0.768337
0.768337
0.768352
0.768368
0.768383
0.768398
0.768398
0.768414
0.768429
0.768444
0.76846
0.76846
0.768475
0.768491
0.768506
0.768522
0.768522
0.768537
0.768553
0.768568
0.768584
0.768584
0.7686
0.768615
0.768631
0.768646
0.768646
0.768662
0.768678
0.768693
0.768709
0.768709
0.768725
0.76874
0.768756
0.768772
0.768772
0.768788
0.768803
0.768819
0.768835
0.768835
0.768851
0.768867
0.768883
0.768898
0.768898
0.768914
0.76893
0.768946
0.768962
0.768962
0.768978
0.768994
0.76901
0.769026
0.769026
0.769042
0.769058
0.769074
0.76909
0.76909
0.769106
0.769122
0.769138
0.769154
0.769154
0.76917
0.769187
0.769203
0.769219
0.769219
0.769235
0.769251
0.769267
0.769284
0.769284
0.7693
0.769316
0.769332
0.769349
0.769349
0.769365
0.769381
0.769398
0.769414
0.769414
0.76943
0.769447
0.769463
0.76948
0.76948
0.769496
0.769512
0.769529
0.769545
0.769545
0.769562
0.769578
0.769595
0.769611
0.769611
0.769628
0.769644
0.769661
0.769678
0.769678
0.769694
0.769711
0.769727
0.769744
0.769744
0.769761
0.769777
0.769794
0.769811
0.769811
0.769828
0.769844
0.769861
0.769878
0.769878
0.769895
0.769911
0.769928
0.769945
0.769945
0.769962
0.769979
0.769995
0.770012
0.770012
0.770029
0.770046
0.770063
0.77008
0.77008
0.770097
0.770114
0.770131
0.770148
0.770148
0.770165
0.770182
0.770199
0.770216
0.770216
0.770233
0.77025
0.770267
0.770284
0.770284
0.770302
0.770319
0.770336
0.770353
0.770353
0.77037
0.770387
0.770405
0.770422
0.770422
0.770439
0.770456
0.770474
0.770491
0.770491
0.770508
0.770526
0.770543
0.77056
0.77056
0.770578
0.770595
0.770612
0.77063
0.77063
0.770647
0.770665
0.770682
0.7707
0.7707
0.770717
0.770735
0.770752
0.77077
0.77077
0.770787
0.770805
0.770822
0.77084
0.77084
0.770857
0.770875
0.770893
0.77091
0.77091
0.770928
0.770946
0.770963
0.770981
0.770981
0.770999
0.771016
0.771034
0.771052
0.771052
0.77107
0.771087
0.771105
0.771123
0.771123
0.771141
0.771159
0.771177
0.771194
0.771194
0.771212
0.77123
0.771248
0.771266
0.771266
0.771284
0.771302
0.77132
0.771338
0.771338
0.771356
0.771374
0.771392
0.77141
0.77141
0.771428
0.771446
0.771464
0.771482
0.771482
0.7715
0.771519
0.771537
0.771555
0.771555
0.771573
0.771591
0.771609
0.771628
0.771628
0.771646
0.771664
0.771682
0.771701
0.771701
0.771719
0.771737
0.771755
0.771774
0.771774
0.771792
0.77181
0.771829
0.771847
0.771847
0.771866
0.771884
0.771902
0.771921
0.771921
0.771939
0.771958
0.771976
0.771995
0.771995
0.772013
0.772032
0.77205
0.772069
0.772069
0.772087
0.772106
0.772125
0.772143
0.772143
0.772162
0.772181
0.772199
0.772218
0.772218
0.772237
0.772255
0.772274
0.772293
0.772293
0.772311
0.77233
0.772349
0.772368
0.772368
0.772386
0.772405
0.772424
0.772443
0.772443
0.772462
0.772481
0.772499
0.772518
0.772518
0.772537
0.772556
0.772575
0.772594
0.772594
0.772613
0.772632
0.772651
0.77267
0.77267
0.772689
0.772708
0.772727
0.772746
0.772746
0.772765
0.772784
0.772803
0.772822
0.772822
0.772842
0.772861
0.77288
0.772899
0.772899
0.772918
0.772937
0.772957
0.772976
0.772976
0.772995
0.773014
0.773034
0.773053
0.773053
0.773072
0.773091
0.773111
0.77313
0.77313
0.773149
0.773169
0.773188
0.773208
0.773208
0.773227
0.773246
0.773266
0.773285
0.773285
0.773305
0.773324
0.773344
0.773363
0.773363
0.773383
0.773402
0.773422
0.773441
0.773441
0.773461
0.77348
0.7735
0.77352
0.77352
0.773539
0.773559
0.773578
0.773598
0.773598
0.773618
0.773638
0.773657
0.773677
0.773677
0.773697
0.773716
0.773736
0.773756
0.773756
0.773776
0.773795
0.773815
0.773835
0.773835
0.773855
0.773875
0.773895
0.773915
0.773915
0.773934
0.773954
0.773974
0.773994
0.773994
0.774014
0.774034
0.774054
0.774074
0.774074
0.774094
0.774114
0.774134
0.774154
0.774154
0.774174
0.774194
0.774214
0.774234
0.774234
0.774255
0.774275
0.774295
0.774315
0.774315
0.774335
0.774355
0.774375
0.774396
0.774396
0.774416
0.774436
0.774456
0.774477
0.774477
0.774497
0.774517
0.774537
0.774558
0.774558
0.774578
0.774598
0.774619
0.774639
0.774639
0.774659
0.77468
0.7747
0.774721
0.774721
0.774741
0.774761
0.774782
0.774802
0.774802
0.774823
0.774843
0.774864
0.774884
0.774884
0.774905
0.774925
0.774946
0.774967
0.774967
0.774987
0.775008
0.775028
0.775049
0.775049
0.77507
0.77509
0.775111
0.775132
0.775132
0.775152
0.775173
0.775194
0.775214
0.775214
0.775235
0.775256
0.775277
0.775297
0.775297
0.775318
0.775339
0.77536
0.775381
0.775381
0.775402
0.775422
0.775443
0.775464
0.775464
0.775485
0.775506
0.775527
0.775548
0.775548
0.775569
0.77559
0.775611
0.775632
0.775632
0.775653
0.775674
0.775695
0.775716
0.775716
0.775737
0.775758
0.775779
0.7758
0.7758
0.775821
0.775842
0.775863
0.775885
0.775885
0.775906
0.775927
0.775948
0.775969
0.775969
0.775991
0.776012
0.776033
0.776054
0.776054
0.776076
0.776097
0.776118
0.776139
0.776139
0.776161
0.776182
0.776203
0.776225
0.776225
0.776246
0.776267
0.776289
0.77631
0.77631
0.776332
0.776353
0.776374
0.776396
0.776396
0.776417
0.776439
0.77646
0.776482
0.776482
0.776503
0.776525
0.776546
0.776568
0.776568
0.77659
0.776611
0.776633
0.776654
0.776654
0.776676
0.776698
0.776719
0.776741
0.776741
0.776763
0.776784
0.776806
0.776828
0.776828
0.776849
0.776871
0.776893
0.776915
0.776915
0.776936
0.776958
0.77698
0.777002
0.777002
0.777024
0.777045
0.777067
0.777089
0.777089
0.777111
0.777133
0.777155
0.777177
0.777177
0.777199
0.777221
0.777242
0.777264
0.777264
0.777286
0.777308
0.77733
0.777352
0.777352
0.777374
0.777396
0.777418
0.777441
0.777441
0.777463
0.777485
0.777507
0.777529
0.777529
0.777551
0.777573
0.777595
0.777617
0.777617
0.77764
0.777662
0.777684
0.777706
0.777706
0.777728
0.777751
0.777773
0.777795
0.777795
0.777817
0.77784
0.777862
0.777884
0.777884
0.777907
0.777929
0.777951
0.777974
0.777974
0.777996
0.778018
0.778041
0.778063
0.778063
0.778086
0.778108
0.77813
0.778153
0.778153
0.778175
0.778198
0.77822
0.778243
0.778243
0.778265
0.778288
0.77831
0.778333
0.778333
0.778356
0.778378
0.778401
0.778423
0.778423
0.778446
0.778469
0.778491
0.778514
0.778514
0.778536
0.778559
0.778582
0.778605
0.778605
0.778627
0.77865
0.778673
0.778695
0.778695
0.778718
0.778741
0.778764
0.778787
0.778787
0.778809
0.778832
0.778855
0.778878
0.778878
0.778901
0.778924
0.778946
0.778969
0.778969
0.778992
0.779015
0.779038
0.779061
0.779061
0.779084
0.779107
0.77913
0.779153
0.779153
0.779176
0.779199
0.779222
0.779245
0.779245
0.779268
0.779291
0.779314
0.779337
0.779337
0.77936
0.779383
0.779406
0.77943
0.77943
0.779453
0.779476
0.779499
0.779522
0.779522
0.779545
0.779569
0.779592
0.779615
0.779615
0.779638
0.779661
0.779685
0.779708
0.779708
0.779731
0.779755
0.779778
0.779801
0.779801
0.779825
0.779848
0.779871
0.779895
0.779895
0.779918
0.779941
0.779965
0.779988
0.779988
0.780012
0.780035
0.780058
0.780082
0.780082
0.780105
0.780129
0.780152
0.780176
0.780176
0.780199
0.780223
0.780246
0.78027
0.78027
0.780294
0.780317
0.780341
0.780364
0.780364
0.780388
0.780412
0.780435
0.780459
0.780459
0.780482
0.780506
0.78053
0.780553
0.780553
0.780577
0.780601
0.780625
0.780648
0.780648
0.780672
0.780696
0.78072
0.780743
0.780743
0.780767
0.780791
0.780815
0.780839
0.780839
0.780862
0.780886
0.78091
0.780934
0.780934
0.780958
0.780982
0.781006
0.78103
0.78103
0.781054
0.781078
0.781102
0.781125
0.781125
0.781149
0.781173
0.781197
0.781221
0.781221
0.781245
0.78127
0.781294
0.781318
0.781318
0.781342
0.781366
0.78139
0.781414
0.781414
0.781438
0.781462
0.781486
0.78151
0.78151
0.781535
0.781559
0.781583
0.781607
0.781607
0.781631
0.781656
0.78168
0.781704
0.781704
0.781728
0.781753
0.781777
0.781801
0.781801
0.781825
0.78185
0.781874
0.781898
0.781898
0.781923
0.781947
0.781971
0.781996
0.781996
0.78202
0.782044
0.782069
0.782093
0.782093
0.782118
0.782142
0.782167
0.782191
0.782191
0.782216
0.78224
0.782265
0.782289
0.782289
0.782314
0.782338
0.782363
0.782387
0.782387
0.782412
0.782436
0.782461
0.782485
0.782485
0.78251
0.782535
0.782559
0.782584
0.782584
0.782609
0.782633
0.782658
0.782683
0.782683
0.782707
0.782732
0.782757
0.782781
0.782781
0.782806
0.782831
0.782856
0.78288
0.78288
0.782905
0.78293
0.782955
0.78298
0.78298
0.783004
0.783029
0.783054
0.783079
0.783079
0.783104
0.783129
0.783154
0.783178
0.783178
0.783203
0.783228
0.783253
0.783278
0.783278
0.783303
0.783328
0.783353
0.783378
0.783378
0.783403
0.783428
0.783453
0.783478
0.783478
0.783503
0.783528
0.783553
0.783578
0.783578
0.783603
0.783628
0.783654
0.783679
0.783679
0.783704
0.783729
0.783754
0.783779
0.783779
0.783804
0.78383
0.783855
0.78388
0.78388
0.783905
0.78393
0.783956
0.783981
0.783981
0.784006
0.784031
0.784057
0.784082
0.784082
0.784107
0.784132
0.784158
0.784183
0.784183
0.784208
0.784234
0.784259
0.784285
0.784285
0.78431
0.784335
0.784361
0.784386
0.784386
0.784412
0.784437
0.784462
0.784488
0.784488
0.784513
0.784539
0.784564
0.78459
0.78459
0.784615
0.784641
0.784666
0.784692
0.784692
0.784717
0.784743
0.784768
0.784794
0.784794
0.78482
0.784845
0.784871
0.784896
0.784896
0.784922
0.784948
0.784973
0.784999
0.784999
0.785025
0.78505
0.785076
0.785102
0.785102
0.785127
0.785153
0.785179
0.785205
0.785205
0.78523
0.785256
0.785282
0.785308
0.785308
0.785334
0.785359
0.785385
0.785411
0.785411
0.785437
0.785463
0.785489
0.785514
0.785514
0.78554
0.785566
0.785592
0.785618
0.785618
0.785644
0.78567
0.785696
0.785722
0.785722
0.785748
0.785774
0.7858
0.785826
0.785826
0.785852
0.785878
0.785904
0.78593
0.78593
0.785956
0.785982
0.786008
0.786034
0.786034
0.78606
0.786086
0.786112
0.786138
0.786138
0.786164
0.78619
0.786217
0.786243
0.786243
0.786269
0.786295
0.786321
0.786347
0.786347
0.786374
0.7864
0.786426
0.786452
0.786452
0.786478
0.786505
0.786531
0.786557
0.786557
0.786583
0.78661
0.786636
0.786662
0.786662
0.786689
0.786715
0.786741
0.786768
0.786768
0.786794
0.78682
0.786847
0.786873
0.786873
0.7869
0.786926
0.786952
0.786979
0.786979
0.787005
0.787032
0.787058
0.787085
0.787085
0.787111
0.787138
0.787164
0.787191
0.787191
0.787217
0.787244
0.78727
0.787297
0.787297
0.787323
0.78735
0.787376
0.787403
0.787403
0.787429
0.787456
0.787483
0.787509
0.787509
0.787536
0.787563
0.787589
0.787616
0.787616
0.787643
0.787669
0.787696
0.787723
0.787723
0.787749
0.787776
0.787803
0.787829
0.787829
0.787856
0.787883
0.78791
0.787937
0.787937
0.787963
0.78799
0.788017
0.788044
0.788044
0.788071
0.788097
0.788124
0.788151
0.788151
0.788178
0.788205
0.788232
0.788259
0.788259
0.788285
0.788312
0.788339
0.788366
0.788366
0.788393
0.78842
0.788447
0.788474
0.788474
0.788501
0.788528
0.788555
0.788582
0.788582
0.788609
0.788636
0.788663
0.78869
0.78869
0.788717
0.788744
0.788771
0.788798
0.788798
0.788825
0.788852
0.78888
0.788907
0.788907
0.788934
0.788961
0.788988
0.789015
0.789015
0.789042
0.78907
0.789097
0.789124
0.789124
0.789151
0.789178
0.789206
0.789233
0.789233
0.78926
0.789287
0.789314
0.789342
0.789342
0.789369
0.789396
0.789424
0.789451
0.789451
0.789478
0.789505
0.789533
0.78956
0.78956
0.789587
0.789615
0.789642
0.78967
0.78967
0.789697
0.789724
0.789752
0.789779
0.789779
0.789807
0.789834
0.789861
0.789889
0.789889
0.789916
0.789944
0.789971
0.789999
0.789999
0.790026
0.790054
0.790081
0.790109
0.790109
0.790136
0.790164
0.790191
0.790219
0.790219
0.790246
0.790274
0.790302
0.790329
0.790329
0.790357
0.790384
0.790412
0.79044
0.79044
0.790467
0.790495
0.790523
0.79055
0.79055
0.790578
0.790606
0.790633
0.790661
0.790661
0.790689
0.790716
0.790744
0.790772
0.790772
0.7908
0.790827
0.790855
0.790883
0.790883
0.790911
0.790938
0.790966
0.790994
0.790994
0.791022
0.79105
0.791077
0.791105
0.791105
0.791133
0.791161
0.791189
0.791217
0.791217
0.791245
0.791272
0.7913
0.791328
0.791328
0.791356
0.791384
0.791412
0.79144
0.79144
0.791468
0.791496
0.791524
0.791552
0.791552
0.79158
0.791608
0.791636
0.791664
0.791664
0.791692
0.79172
0.791748
0.791776
0.791776
0.791804
0.791832
0.79186
0.791888
0.791888
0.791916
0.791944
0.791973
0.792001
0.792001
0.792029
0.792057
0.792085
0.792113
0.792113
0.792141
0.792169
0.792198
0.792226
0.792226
0.792254
0.792282
0.79231
0.792339
0.792339
0.792367
0.792395
0.792423
0.792452
0.792452
0.79248
0.792508
0.792536
0.792565
0.792565
0.792593
0.792621
0.79265
0.792678
0.792678
0.792706
0.792735
0.792763
0.792791
0.792791
0.79282
0.792848
0.792876
0.792905
0.792905
0.792933
0.792962
0.79299
0.793018
0.793018
0.793047
0.793075
0.793104
0.793132
0.793132
0.793161
0.793189
0.793218
0.793246
0.793246
0.793275
0.793303
0.793332
0.79336
0.79336
0.793389
0.793417
0.793446
0.793474
0.793474
0.793503
0.793531
0.79356
0.793588
0.793588
0.793617
0.793646
0.793674
0.793703
0.793703
0.793732
0.79376
0.793789
0.793817
0.793817
0.793846
0.793875
0.793903
0.793932
0.793932
0.793961
0.79399
0.794018
0.794047
0.794047
0.794076
0.794104
0.794133
0.794162
0.794162
0.794191
0.794219
0.794248
0.794277
0.794277
0.794306
0.794335
0.794363
0.794392
0.794392
0.794421
0.79445
0.794479
0.794507
0.794507
0.794536
0.794565
0.794594
0.794623
0.794623
0.794652
0.794681
0.79471
0.794738
0.794738
0.794767
0.794796
0.794825
0.794854
0.794854
0.794883
0.794912
0.794941
0.79497
0.79497
0.794999
0.795028
0.795057
0.795086
0.795086
0.795115
0.795144
0.795173
0.795202
0.795202
0.795231
0.79526
0.795289
0.795318
0.795318
0.795347
0.795376
0.795405
0.795435
0.795435
0.795464
0.795493
0.795522
0.795551
0.795551
0.79558
0.795609
0.795638
0.795668
0.795668
0.795697
0.795726
0.795755
0.795784
0.795784
0.795814
0.795843
0.795872
0.795901
0.795901
0.79593
0.79596
0.795989
0.796018
0.796018
0.796047
0.796077
0.796106
0.796135
0.796135
0.796164
0.796194
0.796223
0.796252
0.796252
0.796282
0.796311
0.79634
0.79637
0.79637
0.796399
0.796428
0.796458
0.796487
0.796487
0.796516
0.796546
0.796575
0.796605
0.796605
0.796634
0.796663
0.796693
0.796722
0.796722
0.796752
0.796781
0.796811
0.79684
0.79684
0.79687
0.796899
0.796929
0.796958
0.796958
0.796988
0.797017
0.797047
0.797076
0.797076
0.797106
0.797135
0.797165
0.797194
0.797194
0.797224
0.797253
0.797283
0.797312
0.797312
0.797342
0.797372
0.797401
0.797431
0.797431
0.79746
0.79749
0.79752
0.797549
0.797549
0.797579
0.797609
0.797638
0.797668
0.797668
0.797698
0.797727
0.797757
0.797787
0.797787
0.797816
0.797846
0.797876
0.797906
0.797906
0.797935
0.797965
0.797995
0.798025
0.798025
0.798054
0.798084
0.798114
0.798144
0.798144
0.798173
0.798203
0.798233
0.798263
0.798263
0.798293
0.798322
0.798352
0.798382
0.798382
0.798412
0.798442
0.798472
0.798502
0.798502
0.798531
0.798561
0.798591
0.798621
0.798621
0.798651
0.798681
0.798711
0.798741
0.798741
0.798771
0.798801
0.798831
0.798861
0.798861
0.798891
0.79892
0.79895
0.79898
0.79898
0.79901
0.79904
0.79907
0.7991
0.7991
0.79913
0.79916
0.79919
0.799221
0.799221
0.799251
0.799281
0.799311
0.799341
0.799341
0.799371
0.799401
0.799431
0.799461
0.799461
0.799491
0.799521
0.799551
0.799581
0.799581
0.799612
0.799642
0.799672
0.799702
0.799702
0.799732
0.799762
0.799793
0.799823
0.799823
0.799853
0.799883
0.799913
0.799943
0.799943
0.799974
0.800004
0.800034
0.800064
0.800064
0.800095
0.800125
0.800155
0.800185
0.800185
0.800216
0.800246
0.800276
0.800306
0.800306
0.800337
0.800367
0.800397
0.800428
0.800428
0.800458
0.800488
0.800519
0.800549
0.800549
0.800579
0.80061
0.80064
0.80067
0.80067
0.800701
0.800731
0.800761
0.800792
0.800792
0.800822
0.800853
0.800883
0.800913
0.800913
0.800944
0.800974
0.801005
0.801035
0.801035
0.801066
0.801096
0.801127
0.801157
0.801157
0.801187
0.801218
0.801248
0.801279
0.801279
0.801309
0.80134
0.80137
0.801401
0.801401
0.801432
0.801462
0.801493
0.801523
0.801523
0.801554
0.801584
0.801615
0.801645
0.801645
0.801676
0.801707
0.801737
0.801768
0.801768
0.801798
0.801829
0.80186
0.80189
0.80189
0.801921
0.801951
0.801982
0.802013
0.802013
0.802043
0.802074
0.802105
0.802135
0.802135
0.802166
0.802197
0.802227
0.802258
0.802258
0.802289
0.80232
0.80235
0.802381
0.802381
0.802412
0.802443
0.802473
0.802504
0.802504
0.802535
0.802566
0.802596
0.802627
0.802627
0.802658
0.802689
0.802719
0.80275
0.80275
0.802781
0.802812
0.802843
0.802874
0.802874
0.802904
0.802935
0.802966
0.802997
0.802997
0.803028
0.803059
0.803089
0.80312
0.80312
0.803151
0.803182
0.803213
0.803244
0.803244
0.803275
0.803306
0.803337
0.803368
0.803368
0.803399
0.803429
0.80346
0.803491
0.803491
0.803522
0.803553
0.803584
0.803615
0.803615
0.803646
0.803677
0.803708
0.803739
0.803739
0.80377
0.803801
0.803832
0.803863
0.803863
0.803894
0.803925
0.803956
0.803987
0.803987
0.804018
0.804049
0.804081
0.804112
0.804112
0.804143
0.804174
0.804205
0.804236
0.804236
0.804267
0.804298
0.804329
0.80436
0.80436
0.804391
0.804423
0.804454
0.804485
0.804485
0.804516
0.804547
0.804578
0.80461
0.80461
0.804641
0.804672
0.804703
0.804734
0.804734
0.804765
0.804797
0.804828
0.804859
0.804859
0.80489
0.804921
0.804953
0.804984
0.804984
0.805015
0.805046
0.805078
0.805109
0.805109
0.80514
0.805171
0.805203
0.805234
0.805234
0.805265
0.805297
0.805328
0.805359
0.805359
0.805391
0.805422
0.805453
0.805484
0.805484
0.805516
0.805547
0.805578
0.80561
0.80561
0.805641
0.805673
0.805704
0.805735
0.805735
0.805767
0.805798
0.805829
0.805861
0.805861
0.805892
0.805924
0.805955
0.805986
0.805986
0.806018
0.806049
0.806081
0.806112
0.806112
0.806144
0.806175
0.806207
0.806238
0.806238
0.806269
0.806301
0.806332
0.806364
0.806364
0.806395
0.806427
0.806458
0.80649
0.80649
0.806521
0.806553
0.806584
0.806616
0.806616
0.806648
0.806679
0.806711
0.806742
0.806742
0.806774
0.806805
0.806837
0.806868
0.806868
0.8069
0.806932
0.806963
0.806995
0.806995
0.807026
0.807058
0.80709
0.807121
0.807121
0.807153
0.807184
0.807216
0.807248
0.807248
0.807279
0.807311
0.807343
0.807374
0.807374
0.807406
0.807438
0.807469
0.807501
0.807501
0.807533
0.807564
0.807596
0.807628
0.807628
0.807659
0.807691
0.807723
0.807755
0.807755
0.807786
0.807818
0.80785
0.807882
0.807882
0.807913
0.807945
0.807977
0.808009
0.808009
0.80804
0.808072
0.808104
0.808136
0.808136
0.808168
0.808199
0.808231
0.808263
0.808263
0.808295
0.808327
0.808358
0.80839
0.80839
0.808422
0.808454
0.808486
0.808518
0.808518
0.808549
0.808581
0.808613
0.808645
0.808645
0.808677
0.808709
0.808741
0.808773
0.808773
0.808804
0.808836
0.808868
0.8089
0.8089
0.808932
0.808964
0.808996
0.809028
0.809028
0.80906
0.809092
0.809124
0.809156
0.809156
0.809188
0.80922
0.809252
0.809284
0.809284
0.809315
0.809347
0.809379
0.809411
0.809411
0.809443
0.809475
0.809507
0.809539
0.809539
0.809571
0.809603
0.809636
0.809668
0.809668
0.8097
0.809732
0.809764
0.809796
0.809796
0.809828
0.80986
0.809892
0.809924
0.809924
0.809956
0.809988
0.81002
0.810052
0.810052
0.810084
0.810117
0.810149
0.810181
0.810181
0.810213
0.810245
0.810277
0.810309
0.810309
0.810341
0.810374
0.810406
0.810438
0.810438
0.81047
0.810502
0.810534
0.810566
0.810566
0.810599
0.810631
0.810663
0.810695
0.810695
0.810727
0.81076
0.810792
0.810824
0.810824
0.810856
0.810888
0.810921
0.810953
0.810953
0.810985
0.811017
0.81105
0.811082
0.811082
0.811114
0.811146
0.811179
0.811211
0.811211
0.811243
0.811275
0.811308
0.81134
0.81134
0.811372
0.811405
0.811437
0.811469
0.811469
0.811501
0.811534
0.811566
0.811598
0.811598
0.811631
0.811663
0.811695
0.811728
0.811728
0.81176
0.811792
0.811825
0.811857
0.811857
0.811889
0.811922
0.811954
0.811987
0.811987
0.812019
0.812051
0.812084
0.812116
0.812116
0.812149
0.812181
0.812213
0.812246
0.812246
0.812278
0.812311
0.812343
0.812375
0.812375
0.812408
0.81244
0.812473
0.812505
0.812505
0.812538
0.81257
0.812603
0.812635
0.812635
0.812668
0.8127
0.812733
0.812765
0.812765
0.812797
0.81283
0.812862
0.812895
0.812895
0.812927
0.81296
0.812993
0.813025
0.813025
0.813058
0.81309
0.813123
0.813155
0.813155
0.813188
0.81322
0.813253
0.813285
0.813285
0.813318
0.81335
0.813383
0.813416
0.813416
0.813448
0.813481
0.813513
0.813546
0.813546
0.813579
0.813611
0.813644
0.813676
0.813676
0.813709
0.813742