<?xml version="1.0"?>
<VTKFile type="UnstructuredGrid" version="0.1" byte_order="LittleEndian">
<UnstructuredGrid>
<Piece NumberOfPoints="5000" NumberOfCells="4000">
<PointData Scalars="Reaction 0">
<DataArray type="Float32" Name="Reaction 0" format="ascii">
0.585219
0.585219
0.585219
0.585219
0.585219
0.585219
0.585219
0.585219
0.585219
0.585219
0.585219
0.585219
0.58522
0.58522
0.58522
0.58522
0.58522
0.58522
0.58522
0.585221
0.585221
0.585221
0.585221
0.585221
0.585221
0.585221
0.585222
0.585222
0.585222
0.585223
0.585223
0.585223
0.585223
0.585224
0.585224
0.585224
0.585224
0.585225
0.585225
0.585225
0.585225
0.585226
0.585226
0.585227
0.585227
0.585227
0.585228
0.585228
0.585229
0.585229
0.585229
0.58523
0.58523
0.585231
0.585231
0.585231
0.585232
0.585232
0.585233
0.585233
0.585233
0.585234
0.585235
0.585235
0.585236
0.585236
0.585237
0.585237
0.585238
0.585239
0.585239
0.585239
0.58524
0.585241
0.585242
0.585242
0.585242
0.585243
0.585244
0.585245
0.585245
0.585246
0.585246
0.585247
0.585248
0.585248
0.585249
0.58525
0.585251
0.585252
0.585252
0.585253
0.585254
0.585254
0.585255
0.585255
0.585256
0.585257
0.585258
0.585259
0.585259
0.58526
0.585261
0.585262
0.585264
0.585264
0.585265
0.585266
0.585267
0.585268
0.585268
0.585269
0.58527
0.585271
0.585272
0.585272
0.585274
0.585275
0.585276
0.585277
0.585277
0.585278
0.58528
0.585281
0.585282
0.585282
0.585283
0.585285
0.585286
0.585287
0.585287
0.585289
0.58529
0.585291
0.585293
0.585293
0.585294
0.585295
0.585297
0.585298
0.585298
0.5853
0.585301
0.585303
0.585304
0.585304
0.585306
0.585307
0.585309
0.58531
0.58531
0.585312
0.585313
0.585315
0.585316
0.585316
0.585318
0.585319
0.585321
0.585323
0.585323
0.585324
0.585326
0.585328
0.585329
0.585329
0.585331
0.585333
0.585334
0.585336
0.585336
0.585338
0.585339
0.585341
0.585343
0.585343
0.585345
0.585347
0.585348
0.58535
0.58535
0.585352
0.585354
0.585356
0.585358
0.585358
0.585359
0.585361
0.585363
0.585365
0.585365
0.585367
0.585369
0.585371
0.585373
0.585373
0.585375
0.585377
0.585379
0.585381
0.585381
0.585383
0.585385
0.585387
0.585389
0.585389
0.585391
0.585393
0.585396
0.585398
0.585398
0.5854
0.585402
0.585404
0.585406
0.585406
0.585408
0.585411
0.585413
0.585415
0.585415
0.585417
0.58542
0.585422
0.585424
0.585424
0.585426
0.585429
0.585431
0.585433
0.585433
0.585436
0.585438
0.58544
0.585443
0.585443
0.585445
0.585448
0.58545
0.585452
0.585452
0.585455
0.585457
0.58546
0.585462
0.585462
0.585465
0.585467
0.58547
0.585472
0.585472
0.585475
0.585477
0.58548
0.585483
0.585483
0.585485
0.585488
0.58549
0.585493
0.585493
0.585496
0.585498
0.585501
0.585504
0.585504
0.585506
0.585509
0.585512
0.585515
0.585515
0.585517
0.58552
0.585523
0.585526
0.585526
0.585528
0.585531
0.585534
0.585537
0.585537
0.58554
0.585543
0.585545
0.585548
0.585548
0.585551
0.585554
0.585557
0.58556
0.58556
0.585563
0.585566
0.585569
0.585572
0.585572
0.585575
0.585578
0.585581
0.585584
0.585584
0.585587
0.58559
0.585593
0.585596
0.585596
0.585599
0.585602
0.585606
0.585609
0.585609
0.585612
0.585615
0.585618
0.585621
0.585621
0.585625
0.585628
0.585631
0.585634
0.585634
0.585638
0.585641
0.585644
0.585647
0.585647
0.585651
0.585654
0.585657
0.585661
0.585661
0.585664
0.585668
0.585671
0.585674
0.585674
0.585678
0.585681
0.585685
0.585688
0.585688
0.585691
0.585695
0.585698
0.585702
0.585702
0.585705
0.585709
0.585713
0.585716
0.585716
0.58572
0.585723
0.585727
0.58573
0.58573
0.585734
0.585738
0.585741
0.585745
0.585745
0.585749
0.585752
0.585756
0.58576
0.58576
0.585763
0.585767
0.585771
0.585775
0.585775
0.585778
0.585782
0.585786
0.58579
0.58579
0.585794
0.585797
0.585801
0.585805
0.585805
0.585809
0.585813
0.585817
0.585821
0.585821
0.585825
0.585829
0.585833
0.585837
0.585837
0.585841
0.585845
0.585849
0.585853
0.585853
0.585857
0.585861
0.585865
0.585869
0.585869
0.585873
0.585877
0.585881
0.585885
0.585885
0.585889
0.585893
0.585898
0.585902
0.585902
0.585906
0.58591
0.585914
0.585919
0.585919
0.585923
0.585927
0.585931
0.585936
0.585936
0.58594
0.585944
0.585948
0.585953
0.585953
0.585957
0.585961
0.585966
0.58597
0.58597
0.585975
0.585979
0.585983
0.585988
0.585988
0.585992
0.585997
0.586001
0.586006
0.586006
0.58601
0.586015
0.586019
0.586024
0.586024
0.586028
0.586033
0.586037
0.586042
0.586042
0.586047
0.586051
0.586056
0.58606
0.58606
0.586065
0.58607
0.586074
0.586079
0.586079
0.586084
0.586088
0.586093
0.586098
0.586098
0.586103
0.586107
0.586112
0.586117
0.586117
0.586122
0.586127
0.586131
0.586136
0.586136
0.586141
0.586146
0.586151
0.586156
0.586156
0.586161
0.586166
0.586171
0.586175
0.586175
0.58618
0.586185
0.58619
0.586195
0.586195
0.5862
0.586205
0.58621
0.586216
0.586216
0.586221
0.586226
0.586231
0.586236
0.586236
0.586241
0.586246
0.586251
0.586256
0.586256
0.586262
0.586267
0.586272
0.586277
0.586277
0.586282
0.586288
0.586293
0.586298
0.586298
0.586303
0.586309
0.586314
0.586319
0.586319
0.586325
0.58633
0.586335
0.586341
0.586341
0.586346
0.586351
0.586357
0.586362
0.586362
0.586368
0.586373
0.586378
0.586384
0.586384
0.586389
0.586395
0.5864
0.586406
0.586406
0.586411
0.586417
0.586423
0.586428
0.586428
0.586434
0.586439
0.586445
0.586451
0.586451
0.586456
0.586462
0.586467
0.586473
0.586473
0.586479
0.586485
0.58649
0.586496
0.586496
0.586502
0.586507
0.586513
0.586519
0.586519
0.586525
0.586531
0.586536
0.586542
0.586542
0.586548
0.586554
0.58656
0.586566
0.586566
0.586572
0.586578
0.586583
0.586589
0.586589
0.586595
0.586601
0.586607
0.586613
0.586613
0.586619
0.586625
0.586631
0.586637
0.586637
0.586643
0.586649
0.586656
0.586662
0.586662
0.586668
0.586674
0.58668
0.586686
0.586686
0.586692
0.586698
0.586705
0.586711
0.586711
0.586717
0.586723
0.58673
0.586736
0.586736
0.586742
0.586748
0.586755
0.586761
0.586761
0.586767
0.586774
0.58678
0.586786
0.586786
0.586793
0.586799
0.586805
0.586812
0.586812
0.586818
0.586825
0.586831
0.586838
0.586838
0.586844
0.586851
0.586857
0.586864
0.586864
0.58687
0.586877
0.586883
0.58689
0.58689
0.586896
0.586903
0.58691
0.586916
0.586916
0.586923
0.586929
0.586936
0.586943
0.586943
0.586949
0.586956
0.586963
0.58697
0.58697
0.586976
0.586983
0.58699
0.586997
0.586997
0.587003
0.58701
0.587017
0.587024
0.587024
0.587031
0.587038
0.587044
0.587051
0.587051
0.587058
0.587065
0.587072
0.587079
0.587079
0.587086
0.587093
0.5871
0.587107
0.587107
0.587114
0.587121
0.587128
0.587135
0.587135
0.587142
0.587149
0.587156
0.587163
0.587163
0.58717
0.587178
0.587185
0.587192
0.587192
0.587199
0.587206
0.587213
0.587221
0.587221
0.587228
0.587235
0.587242
0.58725
0.58725
0.587257
0.587264
0.587271
0.587279
0.587279
0.587286
0.587293
0.587301
0.587308
0.587308
0.587315
0.587323
0.58733
0.587338
0.587338
0.587345
0.587352
0.58736
0.587367
0.587367
0.587375
0.587382
0.58739
0.587397
0.587397
0.587405
0.587413
0.58742
0.587428
0.587428
0.587435
0.587443
0.58745
0.587458
0.587458
0.587466
0.587473
0.587481
0.587489
0.587489
0.587496
0.587504
0.587512
0.58752
0.58752
0.587527
0.587535
0.587543
0.587551
0.587551
0.587559
0.587566
0.587574
0.587582
0.587582
0.58759
0.587598
0.587606
0.587614
0.587614
0.587621
0.587629
0.587637
0.587645
0.587645
0.587653
0.587661
0.587669
0.587677
0.587677
0.587685
0.587693
0.587701
0.587709
0.587709
0.587717
0.587726
0.587734
0.587742
0.587742
0.58775
0.587758
0.587766
0.587774
0.587774
0.587783
0.587791
0.587799
0.587807
0.587807
0.587815
0.587824
0.587832
0.58784
0.58784
0.587848
0.587857
0.587865
0.587873
0.587873
0.587882
0.58789
0.587898
0.587907
0.587907
0.587915
0.587924
0.587932
0.587941
0.587941
0.587949
0.587957
0.587966
0.587974
0.587974
0.587983
0.587991
0.588
0.588009
0.588009
0.588017
0.588026
0.588034
0.588043
0.588043
0.588051
0.58806
0.588069
0.588077
0.588077
0.588086
0.588095
0.588103
0.588112
0.588112
0.588121
0.58813
0.588138
0.588147
0.588147
0.588156
0.588165
0.588174
0.588182
0.588182
0.588191
0.5882
0.588209
0.588218
0.588218
0.588227
0.588236
0.588244
0.588253
0.588253
0.588262
0.588271
0.58828
0.588289
0.588289
0.588298
0.588307
0.588316
0.588325
0.588325
0.588334
0.588343
0.588352
0.588362
0.588362
0.588371
0.58838
0.588389
0.588398
0.588398
0.588407
0.588416
0.588426
0.588435
0.588435
0.588444
0.588453
0.588462
0.588472
0.588472
0.588481
0.58849
0.5885
0.588509
0.588509
0.588518
0.588528
0.588537
0.588546
0.588546
0.588556
0.588565
0.588574
0.588584
0.588584
0.588593
0.588603
0.588612
0.588622
0.588622
0.588631
0.588641
0.58865
0.58866
0.58866
0.588669
0.588679
0.588688
0.588698
0.588698
0.588708
0.588717
0.588727
0.588736
0.588736
0.588746
0.588756
0.588765
0.588775
0.588775
0.588785
0.588795
0.588804
0.588814
0.588814
0.588824
0.588834
0.588843
0.588853
0.588853
0.588863
0.588873
0.588883
0.588893
0.588893
0.588902
0.588912
0.588922
0.588932
0.588932
0.588942
0.588952
0.588962
0.588972
0.588972
0.588982
0.588992
0.589002
0.589012
0.589012
0.589022
0.589032
0.589042
0.589052
0.589052
0.589062
0.589072
0.589083
0.589093
0.589093
0.589103
0.589113
0.589123
0.589133
0.589133
0.589144
0.589154
0.589164
0.589174
0.589174
0.589185
0.589195
0.589205
0.589216
0.589216
0.589226
0.589236
0.589247
0.589257
0.589257
0.589267
0.589278
0.589288
0.589298
0.589298
0.589309
0.589319
0.58933
0.58934
0.58934
0.589351
0.589361
0.589372
0.589382
0.589382
0.589393
0.589403
0.589414
0.589425
0.589425
0.589435
0.589446
0.589456
0.589467
0.589467
0.589478
0.589488
0.589499
0.58951
0.58951
0.58952
0.589531
0.589542
0.589553
0.589553
0.589563
0.589574
0.589585
0.589596
0.589596
0.589607
0.589618
0.589628
0.589639
0.589639
0.58965
0.589661
0.589672
0.589683
0.589683
0.589694
0.589705
0.589716
0.589727
0.589727
0.589738
0.589749
0.58976
0.589771
0.589771
0.589782
0.589793
0.589804
0.589815
0.589815
0.589826
0.589837
0.589848
0.58986
0.58986
0.589871
0.589882
0.589893
0.589904
0.589904
0.589916
0.589927
0.589938
0.589949
0.589949
0.589961
0.589972
0.589983
0.589994
0.589994
0.590006
0.590017
0.590028
0.59004
0.59004
0.590051
0.590063
0.590074
0.590086
0.590086
0.590097
0.590108
0.59012
0.590131
0.590131
0.590143
0.590154
0.590166
0.590177
0.590177
0.590189
0.590201
0.590212
0.590224
0.590224
0.590235
0.590247
0.590259
0.59027
0.59027
0.590282
0.590294
0.590305
0.590317
0.590317
0.590329
0.590341
0.590352
0.590364
0.590364
0.590376
0.590388
0.5904
0.590411
0.590411
0.590423
0.590435
0.590447
0.590459
0.590459
0.590471
0.590483
0.590495
0.590507
0.590507
0.590519
0.590531
0.590542
0.590554
0.590554
0.590567
0.590579
0.590591
0.590603
0.590603
0.590615
0.590627
0.590639
0.590651
0.590651
0.590663
0.590675
0.590687
0.5907
0.5907
0.590712
0.590724
0.590736
0.590749
0.590749
0.590761
0.590773
0.590785
0.590798
0.590798
0.59081
0.590822
0.590835
0.590847
0.590847
0.590859
0.590872
0.590884
0.590896
0.590896
0.590909
0.590921
0.590934
0.590946
0.590946
0.590959
0.590971
0.590984
0.590996
0.590996
0.591009
0.591021
0.591034
0.591046
0.591046
0.591059
0.591072
0.591084
0.591097
0.591097
0.59111
0.591122
0.591135
0.591148
0.591148
0.59116
0.591173
0.591186
0.591199
0.591199
0.591211
0.591224
0.591237
0.59125
0.59125
0.591263
0.591275
0.591288
0.591301
0.591301
0.591314
0.591327
0.59134
0.591353
0.591353
0.591366
0.591379
0.591392
0.591405
0.591405
0.591418
0.591431
0.591444
0.591457
0.591457
0.59147
0.591483
0.591496
0.591509
0.591509
0.591522
0.591535
0.591548
0.591562
0.591562
0.591575
0.591588
0.591601
0.591614
0.591614
0.591628
0.591641
0.591654
0.591667
0.591667
0.591681
0.591694
0.591707
0.591721
0.591721
0.591734
0.591747
0.591761
0.591774
0.591774
0.591788
0.591801
0.591815
0.591828
0.591828
0.591841
0.591855
0.591868
0.591882
0.591882
0.591896
0.591909
0.591923
0.591936
0.591936
0.59195
0.591963
0.591977
0.591991
0.591991
0.592004
0.592018
0.592032
0.592045
0.592045
0.592059
0.592073
0.592087
0.5921
0.5921
0.592114
0.592128
0.592142
0.592155
0.592155
0.592169
0.592183
0.592197
0.592211
0.592211
0.592225
0.592239
0.592253
0.592266
0.592266
0.59228
0.592294
0.592308
0.592322
0.592322
0.592336
0.59235
0.592364
0.592378
0.592378
0.592393
0.592407
0.592421
0.592435
0.592435
0.592449
0.592463
0.592477
0.592491
0.592491
0.592506
0.59252
0.592534
0.592548
0.592548
0.592562
0.592577
0.592591
0.592605
0.592605
0.59262
0.592634
0.592648
0.592663
0.592663
0.592677
0.592691
0.592706
0.59272
0.59272
0.592735
0.592749
0.592763
0.592778
0.592778
0.592792
0.592807
0.592821
0.592836
0.592836
0.592851
0.592865
0.59288
0.592894
0.592894
0.592909
0.592923
0.592938
0.592953
0.592953
0.592967
0.592982
0.592997
0.593011
0.593011
0.593026
0.593041
0.593056
0.59307
0.59307
0.593085
0.5931
0.593115
0.59313
0.59313
0.593145
0.593159
0.593174
0.593189
0.593189
0.593204
0.593219
0.593234
0.593249
0.593249
0.593264
0.593279
0.593294
0.593309
0.593309
0.593324
0.593339
0.593354
0.593369
0.593369
0.593384
0.593399
0.593414
0.59343
0.59343
0.593445
0.59346
0.593475
0.59349
0.59349
0.593505
0.593521
0.593536
0.593551
0.593551
0.593566
0.593582
0.593597
0.593612
0.593612
0.593628
0.593643
0.593658
0.593674
0.593674
0.593689
0.593705
0.59372
0.593735
0.593735
0.593751
0.593766
0.593782
0.593797
0.593797
0.593813
0.593828
0.593844
0.593859
0.593859
0.593875
0.593891
0.593906
0.593922
0.593922
0.593938
0.593953
0.593969
0.593985
0.593985
0.594
0.594016
0.594032
0.594047
0.594047
0.594063
0.594079
0.594095
0.594111
0.594111
0.594126
0.594142
0.594158
0.594174
0.594174
0.59419
0.594206
0.594222
0.594238
0.594238
0.594253
0.594269
0.594285
0.594301
0.594301
0.594317
0.594333
0.594349
0.594366
0.594366
0.594382
0.594398
0.594414
0.59443
0.59443
0.594446
0.594462
0.594478
0.594495
0.594495
0.594511
0.594527
0.594543
0.594559
0.594559
0.594576
0.594592
0.594608
0.594625
0.594625
0.594641
0.594657
0.594674
0.59469
0.59469
0.594706
0.594723
0.594739
0.594756
0.594756
0.594772
0.594788
0.594805
0.594821
0.594821
0.594838
0.594854
0.594871
0.594887
0.594887
0.594904
0.594921
0.594937
0.594954
0.594954
0.59497
0.594987
0.595004
0.59502
0.59502
0.595037
0.595054
0.595071
0.595087
0.595087
0.595104
0.595121
0.595138
0.595154
0.595154
0.595171
0.595188
0.595205
0.595222
0.595222
0.595239
0.595256
0.595272
0.595289
0.595289
0.595306
0.595323
0.59534
0.595357
0.595357
0.595374
0.595391
0.595408
0.595425
0.595425
0.595442
0.59546
0.595477
0.595494
0.595494
0.595511
0.595528
0.595545
0.595562
0.595562
0.59558
0.595597
0.595614
0.595631
0.595631
0.595649
0.595666
0.595683
0.5957
0.5957
0.595718
0.595735
0.595752
0.59577
0.59577
0.595787
0.595805
0.595822
0.595839
0.595839
0.595857
0.595874
0.595892
0.595909
0.595909
0.595927
0.595944
0.595962
0.595979
0.595979
0.595997
0.596015
0.596032
0.59605
0.59605
0.596068
0.596085
0.596103
0.596121
0.596121
0.596138
0.596156
0.596174
0.596191
0.596191
0.596209
0.596227
0.596245
0.596263
0.596263
0.59628
0.596298
0.596316
0.596334
0.596334
0.596352
0.59637
0.596388
0.596406
0.596406
0.596424
0.596442
0.59646
0.596478
0.596478
0.596496
0.596514
0.596532
0.59655
0.59655
0.596568
0.596586
0.596604
0.596622
0.596622
0.59664
0.596659
0.596677
0.596695
0.596695
0.596713
0.596731
0.59675
0.596768
0.596768
0.596786
0.596805
0.596823
0.596841
0.596841
0.59686
0.596878
0.596896
0.596915
0.596915
0.596933
0.596952
0.59697
0.596988
0.596988
0.597007
0.597025
0.597044
0.597062
0.597062
0.597081
0.5971
0.597118
0.597137
0.597137
0.597155
0.597174
0.597193
0.597211
0.597211
0.59723
0.597249
0.597267
0.597286
0.597286
0.597305
0.597323
0.597342
0.597361
0.597361
0.59738
0.597399
0.597417
0.597436
0.597436
0.597455
0.597474
0.597493
0.597512
0.597512
0.597531
0.59755
0.597569
0.597588
0.597588
0.597607
0.597626
0.597645
0.597664
0.597664
0.597683
0.597702
0.597721
0.59774
0.59774
0.597759
0.597778
0.597798
0.597817
0.597817
0.597836
0.597855
0.597874
0.597894
0.597894
0.597913
0.597932
0.597951
0.597971
0.597971
0.59799
0.598009
0.598029
0.598048
0.598048
0.598068
0.598087
0.598106
0.598126
0.598126
0.598145
0.598165
0.598184
0.598204
0.598204
0.598223
0.598243
0.598262
0.598282
0.598282
0.598301
0.598321
0.598341
0.59836
0.59836
0.59838
0.5984
0.598419
0.598439
0.598439
0.598459
0.598479
0.598498
0.598518
0.598518
0.598538
0.598558
0.598577
0.598597
0.598597
0.598617
0.598637
0.598657
0.598677
0.598677
0.598697
0.598717
0.598737
0.598757
0.598757
0.598777
0.598797
0.598817
0.598837
0.598837
0.598857
0.598877
0.598897
0.598917
0.598917
0.598937
0.598957
0.598977
0.598998
0.598998
0.599018
0.599038
0.599058
0.599078
0.599078
0.599099
0.599119
0.599139
0.599159
0.599159
0.59918
0.5992
0.59922
0.599241
0.599241
0.599261
0.599282
0.599302
0.599323
0.599323
0.599343
0.599363
0.599384
0.599404
0.599404
0.599425
0.599445
0.599466
0.599487
0.599487
0.599507
0.599528
0.599548
0.599569
0.599569
0.59959
0.59961
0.599631
0.599652
0.599652
0.599673
0.599693
0.599714
0.599735
0.599735
0.599756
0.599776
0.599797
0.599818
0.599818
0.599839
0.59986
0.599881
0.599902
0.599902
0.599923
0.599943
0.599964
0.599985
0.599985
0.600006
0.600027
0.600048
0.60007
0.60007
0.600091
0.600112
0.600133
0.600154
0.600154
0.600175
0.600196
0.600217
0.600238
0.600238
0.60026
0.600281
0.600302
0.600323
0.600323
0.600345
0.600366
0.600387
0.600409
0.600409
0.60043
0.600451
0.600473
0.600494
0.600494
0.600515
0.600537
0.600558
0.60058
0.60058
0.600601
0.600623
0.600644
0.600666
0.600666
0.600687
0.600709
0.60073
0.600752
0.600752
0.600774
0.600795
0.600817
0.600839
0.600839
0.60086
0.600882
0.600904
0.600925
0.600925
0.600947
0.600969
0.600991
0.601012
0.601012
0.601034
0.601056
0.601078
0.6011
0.6011
0.601122
0.601144
0.601165
0.601187
0.601187
0.601209
0.601231
0.601253
0.601275
0.601275
0.601297
0.601319
0.601341
0.601364
0.601364
0.601386
0.601408
0.60143
0.601452
0.601452
0.601474
0.601496
0.601519
0.601541
0.601541
0.601563
0.601585
0.601607
0.60163
0.60163
0.601652
0.601674
0.601697
0.601719
0.601719
0.601741
0.601764
0.601786
0.601809
0.601809
0.601831
0.601854
0.601876
0.601899
0.601899
0.601921
0.601944
0.601966
0.601989
0.601989
0.602011
0.602034
0.602056
0.602079
0.602079
0.602102
0.602124
0.602147
0.60217
0.60217
0.602192
0.602215
0.602238
0.602261
0.602261
0.602284
0.602306
0.602329
0.602352
0.602352
0.602375
0.602398
0.602421
0.602444
0.602444
0.602466
0.602489
0.602512
0.602535
0.602535
0.602558
0.602581
0.602604
0.602627
0.602627
0.602651
0.602674
0.602697
0.60272
0.60272
0.602743
0.602766
0.602789
0.602812
0.602812
0.602836
0.602859
0.602882
0.602905
0.602905
0.602929
0.602952
0.602975
0.602999
0.602999
0.603022
0.603045
0.603069
0.603092
0.603092
0.603116
0.603139
0.603162
0.603186
0.603186
0.603209
0.603233
0.603256
0.60328
0.60328
0.603304
0.603327
0.603351
0.603374
0.603374
0.603398
0.603422
0.603445
0.603469
0.603469
0.603493
0.603516
0.60354
0.603564
0.603564
0.603588
0.603612
0.603635
0.603659
0.603659
0.603683
0.603707
0.603731
0.603755
0.603755
0.603779
0.603803
0.603827
0.60385
0.60385
0.603874
0.603898
0.603923
0.603947
0.603947
0.603971
0.603995
0.604019
0.604043
0.604043
0.604067
0.604091
0.604115
0.60414
0.60414
0.604164
0.604188
0.604212
0.604236
0.604236
0.604261
0.604285
0.604309
0.604334
0.604334
0.604358
0.604382
0.604407
0.604431
0.604431
0.604456
0.60448
0.604505
0.604529
0.604529
0.604554
0.604578
0.604603
0.604627
0.604627
0.604652
0.604676
0.604701
0.604725
0.604725
0.60475
0.604775
0.604799
0.604824
0.604824
0.604849
0.604874
0.604898
0.604923
0.604923
0.604948
0.604973
0.604997
0.605022
0.605022
0.605047
0.605072
0.605097
0.605122
0.605122
0.605147
0.605172
0.605197
0.605222
0.605222
0.605247
0.605272
0.605297
0.605322
0.605322
0.605347
0.605372
0.605397
0.605422
0.605422
0.605447
0.605473
0.605498
0.605523
0.605523
0.605548
0.605573
0.605599
0.605624
0.605624
0.605649
0.605674
0.6057
0.605725
0.605725
0.605751
0.605776
0.605801
0.605827
0.605827
0.605852
0.605878
0.605903
0.605929
0.605929
0.605954
0.60598
0.606005
0.606031
0.606031
0.606056
0.606082
0.606108
0.606133
0.606133
0.606159
0.606185
0.60621
0.606236
0.606236
0.606262
0.606287
0.606313
0.606339
0.606339
0.606365
0.606391
0.606416
0.606442
0.606442
0.606468
0.606494
0.60652
0.606546
0.606546
0.606572
0.606598
0.606624
0.60665
0.60665
0.606676
0.606702
0.606728
0.606754
0.606754
0.60678
0.606806
0.606832
0.606859
0.606859
0.606885
0.606911
0.606937
0.606963
0.606963
0.60699
0.607016
0.607042
0.607069
0.607069
0.607095
0.607121
0.607148
0.607174
0.607174
0.6072
0.607227
0.607253
0.60728
0.60728
0.607306
0.607333
0.607359
0.607386
0.607386
0.607412
0.607439
0.607465
0.607492
0.607492
0.607519
0.607545
0.607572
0.607599
0.607599
0.607625
0.607652
0.607679
0.607706
0.607706
0.607732
0.607759
0.607786
0.607813
0.607813
0.60784
0.607866
0.607893
0.60792
0.60792
0.607947
0.607974
0.608001
0.608028
0.608028
0.608055
0.608082
0.608109
0.608136
0.608136
0.608163
0.60819
0.608217
0.608245
0.608245
0.608272
0.608299
0.608326
0.608353
0.608353
0.60838
0.608408
0.608435
0.608462
0.608462
0.60849
0.608517
0.608544
0.608572
0.608572
0.608599
0.608626
0.608654
0.608681
0.608681
0.608709
0.608736
0.608764
0.608791
0.608791
0.608819
0.608846
0.608874
0.608901
0.608901
0.608929
0.608956
0.608984
0.609012
0.609012
0.609039
0.609067
0.609095
0.609123
0.609123
0.60915
0.609178
0.609206
0.609234
0.609234
0.609262
0.609289
0.609317
0.609345
0.609345
0.609373
0.609401
0.609429
0.609457
0.609457
0.609485
0.609513
0.609541
0.609569
0.609569
0.609597
0.609625
0.609653
0.609681
0.609681
0.609709
0.609738
0.609766
0.609794
0.609794
0.609822
0.60985
0.609879
0.609907
0.609907
0.609935
0.609963
0.609992
0.61002
0.61002
0.610048
0.610077
0.610105
0.610134
0.610134
0.610162
0.610191
0.610219
0.610248
0.610248
0.610276
0.610305
0.610333
0.610362
0.610362
0.61039
0.610419
0.610448
0.610476
0.610476
0.610505
0.610534
0.610562
0.610591
0.610591
0.61062
0.610649
0.610677
0.610706
0.610706
0.610735
0.610764
0.610793
0.610822
0.610822
0.61085
0.610879
0.610908
0.610937
0.610937
0.610966
0.610995
0.611024
0.611053
0.611053
0.611082
0.611111
0.611141
0.61117
0.61117
0.611199
0.611228
0.611257
0.611286
0.611286
0.611316
0.611345
0.611374
0.611403
0.611403
0.611433
0.611462
0.611491
0.611521
0.611521
0.61155
0.611579
0.611609
0.611638
0.611638
0.611668
0.611697
0.611727
0.611756
0.611756
0.611786
0.611815
0.611845
0.611874
0.611874
0.611904
0.611933
0.611963
0.611993
0.611993
0.612022
0.612052
0.612082
0.612112
0.612112
0.612141
0.612171
0.612201
0.612231
0.612231
0.612261
0.61229
0.61232
0.61235
0.61235
0.61238
0.61241
0.61244
0.61247
0.61247
0.6125
0.61253
0.61256
0.61259
0.61259
0.61262
0.61265
0.61268
0.61271
0.61271
0.612741
0.612771
0.612801
0.612831
0.612831
0.612861
0.612892
0.612922
0.612952
0.612952
0.612982
0.613013
0.613043
0.613073
0.613073
0.613104
0.613134
0.613165
0.613195
0.613195
0.613226
0.613256
0.613287
0.613317
0.613317
0.613348
0.613378
0.613409
0.613439
0.613439
0.61347
0.613501
0.613531
0.613562
0.613562
0.613593
0.613623
0.613654
0.613685
0.613685
0.613716
0.613747
0.613777
0.613808
0.613808
0.613839
0.61387
0.613901
0.613932
0.613932
0.613963
0.613994
0.614025
0.614056
0.614056
0.614087
0.614118
0.614149
0.61418
0.61418
0.614211
0.614242
0.614273
0.614304
0.614304
0.614335
0.614367
0.614398
0.614429
0.614429
0.61446
0.614492
0.614523
0.614554
0.614554
0.614586
0.614617
0.614648
0.61468
0.61468
0.614711
0.614743
0.614774
0.614806
0.614806
0.614837
0.614869
0.6149
0.614932
0.614932
0.614963
0.614995
0.615026
0.615058
0.615058
0.61509
0.615121
0.615153
0.615185
0.615185
0.615217
0.615248
0.61528
0.615312
0.615312
0.615344
0.615376
0.615407
0.615439
0.615439
0.615471
0.615503
0.615535
0.615567
0.615567
0.615599
0.615631
0.615663
0.615695
0.615695
0.615727
0.615759
0.615791
0.615823
0.615823
0.615856
0.615888
0.61592
0.615952
0.615952
0.615984
0.616017
0.616049
0.616081
0.616081
0.616113
0.616146
0.616178
0.61621
0.61621
0.616243
0.616275
0.616308
0.61634
0.61634
0.616373
0.616405
0.616437
0.61647
0.61647
0.616503
0.616535
0.616568
0.6166
0.6166
0.616633
0.616666
0.616698
0.616731
0.616731
0.616764
0.616796
0.616829
0.616862
0.616862
0.616895
0.616927
0.61696
0.616993
0.616993
0.617026
0.617059
0.617092
0.617125
0.617125
0.617158
0.617191
0.617224
0.617257
0.617257
0.61729
0.617323
0.617356
0.617389
0.617389
0.617422
0.617455
0.617488
0.617522
0.617522
0.617555
0.617588
0.617621
0.617654
0.617654
0.617688
0.617721
0.617754
0.617788
0.617788
0.617821
0.617854
0.617888
0.617921
0.617921
0.617955
0.617988
0.618022
0.618055
0.618055
0.618089
0.618122
0.618156
0.618189
0.618189
0.618223
0.618257
0.61829
0.618324
0.618324
0.618358
0.618391
0.618425
0.618459
0.618459
0.618492
0.618526
0.61856
0.618594
0.618594
0.618628
0.618662
0.618696
0.618729
0.618729
0.618763
0.618797
0.618831
0.618865
0.618865
0.618899
0.618933
0.618967
0.619001
0.619001
0.619036
0.61907
0.619104
0.619138
0.619138
0.619172
0.619206
0.619241
0.619275
0.619275
0.619309
0.619343
0.619378
0.619412
0.619412
0.619446
0.619481
0.619515
0.61955
0.61955
0.619584
0.619618
0.619653
0.619687
0.619687
0.619722
0.619756
0.619791
0.619826
0.619826
0.61986
0.619895
0.619929
0.619964
0.619964
0.619999
0.620033
0.620068
0.620103
0.620103
0.620138
0.620172
0.620207
0.620242
0.620242
0.620277
0.620312
0.620347
0.620382
0.620382
0.620416
0.620451
0.620486
0.620521
0.620521
0.620556
0.620591
0.620626
0.620662
0.620662
0.620697
0.620732
0.620767
0.620802
0.620802
0.620837
0.620872
0.620908
0.620943
0.620943
0.620978
0.621013
0.621049
0.621084
0.621084
0.621119
0.621155
0.62119
0.621226
0.621226
0.621261
0.621296
0.621332
0.621367
0.621367
0.621403
0.621438
0.621474
0.62151
0.62151
0.621545
0.621581
0.621616
0.621652
0.621652
0.621688
0.621723
0.621759
0.621795
0.621795
0.621831
0.621866
0.621902
0.621938
0.621938
0.621974
0.62201
0.622046
0.622082
0.622082
0.622117
0.622153
0.622189
0.622225
0.622225
0.622261
0.622297
0.622334
0.62237
0.62237
0.622406
0.622442
0.622478
0.622514
0.622514
0.62255
0.622587
0.622623
0.622659
0.622659
0.622695
0.622732
0.622768
0.622804
0.622804
0.622841
0.622877
0.622913
0.62295
0.62295
0.622986
0.623023
0.623059
0.623096
0.623096
0.623132
0.623169
0.623205
0.623242
0.623242
0.623278
0.623315
0.623352
0.623388
0.623388
0.623425
0.623462
0.623498
0.623535
0.623535
0.623572
0.623609
0.623646
0.623682
0.623682
0.623719
0.623756
0.623793
0.62383
0.62383
0.623867
0.623904
0.623941
0.623978
0.623978
0.624015
0.624052
0.624089
0.624126
0.624126
0.624163
0.6242
0.624238
0.624275
0.624275
0.624312
0.624349
0.624386
0.624424
0.624424
0.624461
0.624498
0.624536
0.624573
0.624573
0.62461
0.624648
0.624685
0.624723
0.624723
0.62476
0.624798
0.624835
0.624873
0.624873
0.62491
0.624948
0.624985
0.625023
0.625023
0.62506
0.625098
0.625136
0.625173
0.625173
0.625211
0.625249
0.625287
0.625324
0.625324
0.625362
0.6254
0.625438
0.625476
0.625476
0.625514
0.625552
0.625589
0.625627
0.625627
0.625665
0.625703
0.625741
0.625779
0.625779
0.625817
0.625856
0.625894
0.625932
0.625932
0.62597
0.626008
0.626046
0.626084
0.626084
0.626123
0.626161
0.626199
0.626237
0.626237
0.626276
0.626314
0.626352
0.626391
0.626391
0.626429
0.626468
0.626506
0.626545
0.626545
0.626583
0.626622
0.62666
0.626699
0.626699
0.626737
0.626776
0.626814
0.626853
0.626853
0.626892
0.62693
0.626969
0.627008
0.627008
0.627047
0.627085
0.627124
0.627163
0.627163
0.627202
0.627241
0.627279
0.627318
0.627318
0.627357
0.627396
0.627435
0.627474
0.627474
0.627513
0.627552
0.627591
0.62763
0.62763
0.627669
0.627708
0.627748
0.627787
0.627787
0.627826
0.627865
0.627904
0.627944
0.627944
0.627983
0.628022
0.628061
0.628101
0.628101
0.62814
0.628179
0.628219
0.628258
0.628258
0.628298
0.628337
0.628377
0.628416
0.628416
0.628456
0.628495
0.628535
0.628574
0.628574
0.628614
0.628654
0.628693
0.628733
0.628733
0.628773
0.628812
0.628852
0.628892
0.628892
0.628932
0.628971
0.629011
0.629051
0.629051
0.629091
0.629131
0.629171
0.629211
0.629211
0.629251
0.62929
0.62933
0.629371
0.629371
0.629411
0.629451
0.629491
0.629531
0.629531
0.629571
0.629611
0.629651
0.629691
0.629691
0.629732
0.629772
0.629812
0.629852
0.629852
0.629893
0.629933
0.629973
0.630014
0.630014
0.630054
0.630095
0.630135
0.630175
0.630175
0.630216
0.630256
0.630297
0.630337
0.630337
0.630378
0.630419
0.630459
0.6305
0.6305
0.630541
0.630581
0.630622
0.630663
0.630663
0.630703
0.630744
0.630785
0.630826
0.630826
0.630867
0.630907
0.630948
0.630989
0.630989
0.63103
0.631071
0.631112
0.631153
0.631153
0.631194
0.631235
0.631276
0.631317
0.631317
0.631358
0.631399
0.63144
0.631482
0.631482
0.631523
0.631564
0.631605
0.631646
0.631646
0.631688
0.631729
0.63177
0.631812
0.631812
0.631853
0.631894
0.631936
0.631977
0.631977
0.632018
0.63206
0.632101
0.632143
0.632143
0.632184
0.632226
0.632268
0.632309
0.632309
0.632351
0.632392
0.632434
0.632476
0.632476
0.632517
0.632559
0.632601
0.632643
0.632643
0.632684
0.632726
0.632768
0.63281
0.63281
0.632852
0.632894
0.632936
0.632978
0.632978
0.63302
0.633062
0.633104
0.633146
0.633146
0.633188
0.63323
0.633272
0.633314
0.633314
0.633356
0.633398
0.63344
0.633483
0.633483
0.633525
0.633567
0.633609
0.633652
0.633652
0.633694
0.633736
0.633779
0.633821
0.633821
0.633864
0.633906
0.633948
0.633991
0.633991
0.634033
0.634076
0.634118
0.634161
0.634161
0.634204
0.634246
0.634289
0.634331
0.634331
0.634374
0.634417
0.63446
0.634502
0.634502
0.634545
0.634588
0.634631
0.634673
0.634673
0.634716
0.634759
0.634802
0.634845
0.634845
0.634888
0.634931
0.634974
0.635017
0.635017
0.63506
0.635103
0.635146
0.635189
0.635189
0.635232
0.635275
0.635318
0.635362
0.635362
0.635405
0.635448
0.635491
0.635535
0.635535
0.635578
0.635621
0.635664
0.635708
0.635708
0.635751
0.635795
0.635838
0.635881
0.635881
0.635925
0.635968
0.636012
0.636055
0.636055
0.636099
0.636143
0.636186
0.63623
0.63623
0.636273
0.636317
0.636361
0.636405
0.636405
0.636448
0.636492
0.636536
0.63658
0.63658
0.636623
0.636667
0.636711
0.636755
0.636755
0.636799
0.636843
0.636887
0.636931
0.636931
0.636975
0.637019
0.637063
0.637107
0.637107
0.637151
0.637195
0.637239
0.637283
0.637283
0.637328
0.637372
0.637416
0.63746
0.63746
0.637504
0.637549
0.637593
0.637637
0.637637
0.637682
0.637726
0.637771
0.637815
0.637815
0.637859
0.637904
0.637948
0.637993
0.637993
0.638037
0.638082
0.638127
0.638171
0.638171
0.638216
0.63826
0.638305
0.63835
0.63835
0.638394
0.638439
0.638484
0.638529