<?xml version="1.0"?>
<VTKFile type="UnstructuredGrid" version="0.1" byte_order="LittleEndian">
<UnstructuredGrid>
<Piece NumberOfPoints="5000" NumberOfCells="4000">
<PointData Scalars="Reaction 0">
<DataArray type="Float32" Name="Reaction 0" format="ascii">
0.619829
0.619829
0.619829
0.619829
0.619829
0.619829
0.619829
0.619829
0.619829
0.619829
0.619829
0.619829
0.61983
0.61983
0.61983
0.61983
0.61983
0.61983
0.619831
0.619831
0.619831
0.619831
0.619832
0.619832
0.619832
0.619832
0.619833
0.619833
0.619834
0.619834
0.619834
0.619834
0.619835
0.619835
0.619836
0.619836
0.619836
0.619837
0.619837
0.619838
0.619838
0.619839
0.619839
0.61984
0.619841
0.619841
0.619841
0.619842
0.619843
0.619843
0.619843
0.619844
0.619845
0.619846
0.619846
0.619846
0.619847
0.619848
0.619849
0.61985
0.61985
0.619851
0.619852
0.619852
0.619853
0.619853
0.619854
0.619855
0.619856
0.619857
0.619857
0.619858
0.619859
0.61986
0.619862
0.619862
0.619863
0.619864
0.619865
0.619866
0.619866
0.619867
0.619868
0.61987
0.619871
0.619871
0.619872
0.619873
0.619875
0.619876
0.619876
0.619877
0.619879
0.61988
0.619881
0.619881
0.619883
0.619884
0.619886
0.619887
0.619887
0.619889
0.61989
0.619892
0.619893
0.619893
0.619895
0.619896
0.619898
0.619899
0.619899
0.619901
0.619903
0.619904
0.619906
0.619906
0.619908
0.619909
0.619911
0.619913
0.619913
0.619915
0.619916
0.619918
0.61992
0.61992
0.619922
0.619924
0.619926
0.619928
0.619928
0.619929
0.619931
0.619933
0.619935
0.619935
0.619937
0.619939
0.619941
0.619943
0.619943
0.619945
0.619947
0.61995
0.619952
0.619952
0.619954
0.619956
0.619958
0.61996
0.61996
0.619962
0.619965
0.619967
0.619969
0.619969
0.619971
0.619974
0.619976
0.619978
0.619978
0.619981
0.619983
0.619986
0.619988
0.619988
0.61999
0.619993
0.619995
0.619998
0.619998
0.62
0.620003
0.620005
0.620008
0.620008
0.62001
0.620013
0.620016
0.620018
0.620018
0.620021
0.620024
0.620026
0.620029
0.620029
0.620032
0.620034
0.620037
0.62004
0.62004
0.620043
0.620045
0.620048
0.620051
0.620051
0.620054
0.620057
0.62006
0.620063
0.620063
0.620066
0.620069
0.620072
0.620075
0.620075
0.620078
0.620081
0.620084
0.620087
0.620087
0.62009
0.620093
0.620096
0.620099
0.620099
0.620102
0.620105
0.620109
0.620112
0.620112
0.620115
0.620118
0.620122
0.620125
0.620125
0.620128
0.620131
0.620135
0.620138
0.620138
0.620142
0.620145
0.620148
0.620152
0.620152
0.620155
0.620159
0.620162
0.620166
0.620166
0.620169
0.620173
0.620176
0.62018
0.62018
0.620183
0.620187
0.620191
0.620194
0.620194
0.620198
0.620202
0.620205
0.620209
0.620209
0.620213
0.620217
0.62022
0.620224
0.620224
0.620228
0.620232
0.620236
0.62024
0.62024
0.620243
0.620247
0.620251
0.620255
0.620255
0.620259
0.620263
0.620267
0.620271
0.620271
0.620275
0.620279
0.620283
0.620287
0.620287
0.620291
0.620296
0.6203
0.620304
0.620304
0.620308
0.620312
0.620316
0.620321
0.620321
0.620325
0.620329
0.620334
0.620338
0.620338
0.620342
0.620347
0.620351
0.620355
0.620355
0.62036
0.620364
0.620369
0.620373
0.620373
0.620377
0.620382
0.620386
0.620391
0.620391
0.620396
0.6204
0.620405
0.620409
0.620409
0.620414
0.620419
0.620423
0.620428
0.620428
0.620433
0.620437
0.620442
0.620447
0.620447
0.620451
0.620456
0.620461
0.620466
0.620466
0.620471
0.620476
0.62048
0.620485
0.620485
0.62049
0.620495
0.6205
0.620505
0.620505
0.62051
0.620515
0.62052
0.620525
0.620525
0.62053
0.620535
0.62054
0.620545
0.620545
0.620551
0.620556
0.620561
0.620566
0.620566
0.620571
0.620577
0.620582
0.620587
0.620587
0.620592
0.620598
0.620603
0.620608
0.620608
0.620614
0.620619
0.620624
0.62063
0.62063
0.620635
0.620641
0.620646
0.620652
0.620652
0.620657
0.620663
0.620668
0.620674
0.620674
0.620679
0.620685
0.62069
0.620696
0.620696
0.620702
0.620707
0.620713
0.620719
0.620719
0.620725
0.62073
0.620736
0.620742
0.620742
0.620748
0.620753
0.620759
0.620765
0.620765
0.620771
0.620777
0.620783
0.620789
0.620789
0.620795
0.620801
0.620806
0.620812
0.620812
0.620819
0.620825
0.620831
0.620837
0.620837
0.620843
0.620849
0.620855
0.620861
0.620861
0.620867
0.620873
0.62088
0.620886
0.620886
0.620892
0.620898
0.620905
0.620911
0.620911
0.620917
0.620924
0.62093
0.620936
0.620936
0.620943
0.620949
0.620955
0.620962
0.620962
0.620968
0.620975
0.620981
0.620988
0.620988
0.620994
0.621001
0.621007
0.621014
0.621014
0.621021
0.621027
0.621034
0.62104
0.62104
0.621047
0.621054
0.621061
0.621067
0.621067
0.621074
0.621081
0.621088
0.621094
0.621094
0.621101
0.621108
0.621115
0.621122
0.621122
0.621129
0.621136
0.621142
0.621149
0.621149
0.621156
0.621163
0.62117
0.621177
0.621177
0.621184
0.621192
0.621199
0.621206
0.621206
0.621213
0.62122
0.621227
0.621234
0.621234
0.621241
0.621249
0.621256
0.621263
0.621263
0.62127
0.621278
0.621285
0.621292
0.621292
0.6213
0.621307
0.621314
0.621322
0.621322
0.621329
0.621337
0.621344
0.621351
0.621351
0.621359
0.621366
0.621374
0.621381
0.621381
0.621389
0.621397
0.621404
0.621412
0.621412
0.621419
0.621427
0.621435
0.621442
0.621442
0.62145
0.621458
0.621466
0.621473
0.621473
0.621481
0.621489
0.621497
0.621505
0.621505
0.621512
0.62152
0.621528
0.621536
0.621536
0.621544
0.621552
0.62156
0.621568
0.621568
0.621576
0.621584
0.621592
0.6216
0.6216
0.621608
0.621616
0.621624
0.621632
0.621632
0.62164
0.621649
0.621657
0.621665
0.621665
0.621673
0.621681
0.62169
0.621698
0.621698
0.621706
0.621715
0.621723
0.621731
0.621731
0.62174
0.621748
0.621756
0.621765
0.621765
0.621773
0.621782
0.62179
0.621799
0.621799
0.621807
0.621816
0.621824
0.621833
0.621833
0.621841
0.62185
0.621859
0.621867
0.621867
0.621876
0.621885
0.621893
0.621902
0.621902
0.621911
0.62192
0.621928
0.621937
0.621937
0.621946
0.621955
0.621964
0.621972
0.621972
0.621981
0.62199
0.621999
0.622008
0.622008
0.622017
0.622026
0.622035
0.622044
0.622044
0.622053
0.622062
0.622071
0.62208
0.62208
0.622089
0.622098
0.622108
0.622117
0.622117
0.622126
0.622135
0.622144
0.622154
0.622154
0.622163
0.622172
0.622181
0.622191
0.622191
0.6222
0.622209
0.622219
0.622228
0.622228
0.622237
0.622247
0.622256
0.622266
0.622266
0.622275
0.622285
0.622294
0.622304
0.622304
0.622313
0.622323
0.622332
0.622342
0.622342
0.622352
0.622361
0.622371
0.622381
0.622381
0.62239
0.6224
0.62241
0.622419
0.622419
0.622429
0.622439
0.622449
0.622459
0.622459
0.622468
0.622478
0.622488
0.622498
0.622498
0.622508
0.622518
0.622528
0.622538
0.622538
0.622548
0.622558
0.622568
0.622578
0.622578
0.622588
0.622598
0.622608
0.622618
0.622618
0.622628
0.622638
0.622649
0.622659
0.622659
0.622669
0.622679
0.62269
0.6227
0.6227
0.62271
0.62272
0.622731
0.622741
0.622741
0.622751
0.622762
0.622772
0.622783
0.622783
0.622793
0.622803
0.622814
0.622824
0.622824
0.622835
0.622845
0.622856
0.622867
0.622867
0.622877
0.622888
0.622898
0.622909
0.622909
0.62292
0.62293
0.622941
0.622952
0.622952
0.622962
0.622973
0.622984
0.622995
0.622995
0.623005
0.623016
0.623027
0.623038
0.623038
0.623049
0.62306
0.623071
0.623082
0.623082
0.623092
0.623103
0.623114
0.623125
0.623125
0.623136
0.623147
0.623159
0.62317
0.62317
0.623181
0.623192
0.623203
0.623214
0.623214
0.623225
0.623236
0.623248
0.623259
0.623259
0.62327
0.623281
0.623293
0.623304
0.623304
0.623315
0.623327
0.623338
0.623349
0.623349
0.623361
0.623372
0.623384
0.623395
0.623395
0.623406
0.623418
0.623429
0.623441
0.623441
0.623453
0.623464
0.623476
0.623487
0.623487
0.623499
0.62351
0.623522
0.623534
0.623534
0.623545
0.623557
0.623569
0.623581
0.623581
0.623592
0.623604
0.623616
0.623628
0.623628
0.62364
0.623652
0.623663
0.623675
0.623675
0.623687
0.623699
0.623711
0.623723
0.623723
0.623735
0.623747
0.623759
0.623771
0.623771
0.623783
0.623795
0.623807
0.623819
0.623819
0.623832
0.623844
0.623856
0.623868
0.623868
0.62388
0.623892
0.623905
0.623917
0.623917
0.623929
0.623942
0.623954
0.623966
0.623966
0.623979
0.623991
0.624003
0.624016
0.624016
0.624028
0.624041
0.624053
0.624066
0.624066
0.624078
0.624091
0.624103
0.624116
0.624116
0.624128
0.624141
0.624153
0.624166
0.624166
0.624179
0.624191
0.624204
0.624217
0.624217
0.624229
0.624242
0.624255
0.624268
0.624268
0.624281
0.624293
0.624306
0.624319
0.624319
0.624332
0.624345
0.624358
0.624371
0.624371
0.624384
0.624397
0.62441
0.624423
0.624423
0.624436
0.624449
0.624462
0.624475
0.624475
0.624488
0.624501
0.624514
0.624527
0.624527
0.62454
0.624554
0.624567
0.62458
0.62458
0.624593
0.624607
0.62462
0.624633
0.624633
0.624646
0.62466
0.624673
0.624686
0.624686
0.6247
0.624713
0.624727
0.62474
0.62474
0.624754
0.624767
0.624781
0.624794
0.624794
0.624808
0.624821
0.624835
0.624848
0.624848
0.624862
0.624876
0.624889
0.624903
0.624903
0.624917
0.62493
0.624944
0.624958
0.624958
0.624972
0.624985
0.624999
0.625013
0.625013
0.625027
0.625041
0.625055
0.625068
0.625068
0.625082
0.625096
0.62511
0.625124
0.625124
0.625138
0.625152
0.625166
0.62518
0.62518
0.625194
0.625208
0.625223
0.625237
0.625237
0.625251
0.625265
0.625279
0.625293
0.625293
0.625307
0.625322
0.625336
0.62535
0.62535
0.625365
0.625379
0.625393
0.625407
0.625407
0.625422
0.625436
0.625451
0.625465
0.625465
0.625479
0.625494
0.625508
0.625523
0.625523
0.625537
0.625552
0.625566
0.625581
0.625581
0.625596
0.62561
0.625625
0.625639
0.625639
0.625654
0.625669
0.625683
0.625698
0.625698
0.625713
0.625728
0.625742
0.625757
0.625757
0.625772
0.625787
0.625802
0.625817
0.625817
0.625831
0.625846
0.625861
0.625876
0.625876
0.625891
0.625906
0.625921
0.625936
0.625936
0.625951
0.625966
0.625981
0.625996
0.625996
0.626011
0.626027
0.626042
0.626057
0.626057
0.626072
0.626087
0.626102
0.626118
0.626118
0.626133
0.626148
0.626163
0.626179
0.626179
0.626194
0.626209
0.626225
0.62624
0.62624
0.626256
0.626271
0.626286
0.626302
0.626302
0.626317
0.626333
0.626348
0.626364
0.626364
0.626379
0.626395
0.626411
0.626426
0.626426
0.626442
0.626457
0.626473
0.626489
0.626489
0.626505
0.62652
0.626536
0.626552
0.626552
0.626568
0.626583
0.626599
0.626615
0.626615
0.626631
0.626647
0.626663
0.626678
0.626678
0.626694
0.62671
0.626726
0.626742
0.626742
0.626758
0.626774
0.62679
0.626806
0.626806
0.626822
0.626839
0.626855
0.626871
0.626871
0.626887
0.626903
0.626919
0.626935
0.626935
0.626952
0.626968
0.626984
0.627
0.627
0.627017
0.627033
0.627049
0.627066
0.627066
0.627082
0.627099
0.627115
0.627131
0.627131
0.627148
0.627164
0.627181
0.627197
0.627197
0.627214
0.62723
0.627247
0.627263
0.627263
0.62728
0.627297
0.627313
0.62733
0.62733
0.627347
0.627363
0.62738
0.627397
0.627397
0.627413
0.62743
0.627447
0.627464
0.627464
0.627481
0.627497
0.627514
0.627531
0.627531
0.627548
0.627565
0.627582
0.627599
0.627599
0.627616
0.627633
0.62765
0.627667
0.627667
0.627684
0.627701
0.627718
0.627735
0.627735
0.627752
0.627769
0.627787
0.627804
0.627804
0.627821
0.627838
0.627855
0.627873
0.627873
0.62789
0.627907
0.627924
0.627942
0.627942
0.627959
0.627976
0.627994
0.628011
0.628011
0.628029
0.628046
0.628064
0.628081
0.628081
0.628099
0.628116
0.628134
0.628151
0.628151
0.628169
0.628186
0.628204
0.628221
0.628221
0.628239
0.628257
0.628274
0.628292
0.628292
0.62831
0.628328
0.628345
0.628363
0.628363
0.628381
0.628399
0.628417
0.628434
0.628434
0.628452
0.62847
0.628488
0.628506
0.628506
0.628524
0.628542
0.62856
0.628578
0.628578
0.628596
0.628614
0.628632
0.62865
0.62865
0.628668
0.628686
0.628704
0.628723
0.628723
0.628741
0.628759
0.628777
0.628795
0.628795
0.628814
0.628832
0.62885
0.628868
0.628868
0.628887
0.628905
0.628923
0.628942
0.628942
0.62896
0.628979
0.628997
0.629015
0.629015
0.629034
0.629052
0.629071
0.629089
0.629089
0.629108
0.629126
0.629145
0.629164
0.629164
0.629182
0.629201
0.62922
0.629238
0.629238
0.629257
0.629276
0.629294
0.629313
0.629313
0.629332
0.629351
0.629369
0.629388
0.629388
0.629407
0.629426
0.629445
0.629464
0.629464
0.629483
0.629502
0.629521
0.629539
0.629539
0.629558
0.629577
0.629596
0.629616
0.629616
0.629635
0.629654
0.629673
0.629692
0.629692
0.629711
0.62973
0.629749
0.629769
0.629769
0.629788
0.629807
0.629826
0.629846
0.629846
0.629865
0.629884
0.629903
0.629923
0.629923
0.629942
0.629962
0.629981
0.63
0.63
0.63002
0.630039
0.630059
0.630078
0.630078
0.630098
0.630117
0.630137
0.630156
0.630156
0.630176
0.630196
0.630215
0.630235
0.630235
0.630255
0.630274
0.630294
0.630314
0.630314
0.630333
0.630353
0.630373
0.630393
0.630393
0.630413
0.630432
0.630452
0.630472
0.630472
0.630492
0.630512
0.630532
0.630552
0.630552
0.630572
0.630592
0.630612
0.630632
0.630632
0.630652
0.630672
0.630692
0.630712
0.630712
0.630732
0.630752
0.630772
0.630793
0.630793
0.630813
0.630833
0.630853
0.630873
0.630873
0.630894
0.630914
0.630934
0.630955
0.630955
0.630975
0.630995
0.631016
0.631036
0.631036
0.631056
0.631077
0.631097
0.631118
0.631118
0.631138
0.631159
0.631179
0.6312
0.6312
0.63122
0.631241
0.631262
0.631282
0.631282
0.631303
0.631324
0.631344
0.631365
0.631365
0.631386
0.631406
0.631427
0.631448
0.631448
0.631469
0.63149
0.63151
0.631531
0.631531
0.631552
0.631573
0.631594
0.631615
0.631615
0.631636
0.631657
0.631678
0.631699
0.631699
0.63172
0.631741
0.631762
0.631783
0.631783
0.631804
0.631825
0.631846
0.631867
0.631867
0.631888
0.63191
0.631931
0.631952
0.631952
0.631973
0.631995
0.632016
0.632037
0.632037
0.632058
0.63208
0.632101
0.632123
0.632123
0.632144
0.632165
0.632187
0.632208
0.632208
0.63223
0.632251
0.632273
0.632294
0.632294
0.632316
0.632337
0.632359
0.63238
0.63238
0.632402
0.632424
0.632445
0.632467
0.632467
0.632489
0.63251
0.632532
0.632554
0.632554
0.632576
0.632597
0.632619
0.632641
0.632641
0.632663
0.632685
0.632707
0.632729
0.632729
0.63275
0.632772
0.632794
0.632816
0.632816
0.632838
0.63286
0.632882
0.632904
0.632904
0.632926
0.632949
0.632971
0.632993
0.632993
0.633015
0.633037
0.633059
0.633081
0.633081
0.633104
0.633126
0.633148
0.63317
0.63317
0.633193
0.633215
0.633237
0.63326
0.63326
0.633282
0.633304
0.633327
0.633349
0.633349
0.633372
0.633394
0.633417
0.633439
0.633439
0.633462
0.633484
0.633507
0.633529
0.633529
0.633552
0.633575
0.633597
0.63362
0.63362
0.633643
0.633665
0.633688
0.633711
0.633711
0.633733
0.633756
0.633779
0.633802
0.633802
0.633825
0.633847
0.63387
0.633893
0.633893
0.633916
0.633939
0.633962
0.633985
0.633985
0.634008
0.634031
0.634054
0.634077
0.634077
0.6341
0.634123
0.634146
0.634169
0.634169
0.634192
0.634215
0.634239
0.634262
0.634262
0.634285
0.634308
0.634331
0.634355
0.634355
0.634378
0.634401
0.634424
0.634448
0.634448
0.634471
0.634494
0.634518
0.634541
0.634541
0.634565
0.634588
0.634612
0.634635
0.634635
0.634659
0.634682
0.634706
0.634729
0.634729
0.634753
0.634776
0.6348
0.634824
0.634824
0.634847
0.634871
0.634895
0.634918
0.634918
0.634942
0.634966
0.634989
0.635013
0.635013
0.635037
0.635061
0.635085
0.635109
0.635109
0.635132
0.635156
0.63518
0.635204
0.635204
0.635228
0.635252
0.635276
0.6353
0.6353
0.635324
0.635348
0.635372
0.635396
0.635396
0.63542
0.635444
0.635469
0.635493
0.635493
0.635517
0.635541
0.635565
0.63559
0.63559
0.635614
0.635638
0.635662
0.635687
0.635687
0.635711
0.635735
0.63576
0.635784
0.635784
0.635808
0.635833
0.635857
0.635882
0.635882
0.635906
0.635931
0.635955
0.63598
0.63598
0.636004
0.636029
0.636053
0.636078
0.636078
0.636103
0.636127
0.636152
0.636177
0.636177
0.636201
0.636226
0.636251
0.636276
0.636276
0.6363
0.636325
0.63635
0.636375
0.636375
0.6364
0.636424
0.636449
0.636474
0.636474
0.636499
0.636524
0.636549
0.636574
0.636574
0.636599
0.636624
0.636649
0.636674
0.636674
0.636699
0.636724
0.636749
0.636775
0.636775
0.6368
0.636825
0.63685
0.636875
0.636875
0.636901
0.636926
0.636951
0.636976
0.636976
0.637002
0.637027
0.637052
0.637078
0.637078
0.637103
0.637128
0.637154
0.637179
0.637179
0.637205
0.63723
0.637256
0.637281
0.637281
0.637307
0.637332
0.637358
0.637383
0.637383
0.637409
0.637435
0.63746
0.637486
0.637486
0.637512
0.637537
0.637563
0.637589
0.637589
0.637614
0.63764
0.637666
0.637692
0.637692
0.637718
0.637743
0.637769
0.637795
0.637795
0.637821
0.637847
0.637873
0.637899
0.637899
0.637925
0.637951
0.637977
0.638003
0.638003
0.638029
0.638055
0.638081
0.638107
0.638107
0.638133
0.63816
0.638186
0.638212
0.638212
0.638238
0.638264
0.638291
0.638317
0.638317
0.638343
0.638369
0.638396
0.638422
0.638422
0.638448
0.638475
0.638501
0.638528
0.638528
0.638554
0.63858
0.638607
0.638633
0.638633
0.63866
0.638686
0.638713
0.638739
0.638739
0.638766
0.638793
0.638819
0.638846
0.638846
0.638873
0.638899
0.638926
0.638953
0.638953
0.638979
0.639006
0.639033
0.63906
0.63906
0.639086
0.639113
0.63914
0.639167
0.639167
0.639194
0.639221
0.639248
0.639275
0.639275
0.639302
0.639328
0.639355
0.639382
0.639382
0.63941
0.639437
0.639464
0.639491
0.639491
0.639518
0.639545
0.639572
0.639599
0.639599
0.639626
0.639654
0.639681
0.639708
0.639708
0.639735
0.639763
0.63979
0.639817
0.639817
0.639844
0.639872
0.639899
0.639927
0.639927
0.639954
0.639981
0.640009
0.640036
0.640036
0.640064
0.640091
0.640119
0.640146
0.640146
0.640174
0.640201
0.640229
0.640257
0.640257
0.640284
0.640312
0.64034
0.640367
0.640367
0.640395
0.640423
0.64045
0.640478
0.640478
0.640506
0.640534
0.640562
0.640589
0.640589
0.640617
0.640645
0.640673
0.640701
0.640701
0.640729
0.640757
0.640785
0.640813
0.640813
0.640841
0.640869
0.640897
0.640925
0.640925
0.640953
0.640981
0.641009
0.641037
0.641037
0.641065
0.641094
0.641122
0.64115
0.64115
0.641178
0.641206
0.641235
0.641263
0.641263
0.641291
0.64132
0.641348
0.641376
0.641376
0.641405
0.641433
0.641461
0.64149
0.64149
0.641518
0.641547
0.641575
0.641604
0.641604
0.641632
0.641661
0.641689
0.641718
0.641718
0.641747
0.641775
0.641804
0.641833
0.641833
0.641861
0.64189
0.641919
0.641947
0.641947
0.641976
0.642005
0.642034
0.642062
0.642062
0.642091
0.64212
0.642149
0.642178
0.642178
0.642207
0.642236
0.642265
0.642294
0.642294
0.642323
0.642352
0.642381
0.64241
0.64241
0.642439
0.642468
0.642497
0.642526
0.642526
0.642555
0.642584
0.642613
0.642642
0.642642
0.642672
0.642701
0.64273
0.642759
0.642759
0.642789
0.642818
0.642847
0.642877
0.642877
0.642906
0.642935
0.642965
0.642994
0.642994
0.643023
0.643053
0.643082
0.643112
0.643112
0.643141
0.643171
0.6432
0.64323
0.64323
0.643259
0.643289
0.643319
0.643348
0.643348
0.643378
0.643408
0.643437
0.643467
0.643467
0.643497
0.643526
0.643556
0.643586
0.643586
0.643616
0.643646
0.643675
0.643705
0.643705
0.643735
0.643765
0.643795
0.643825
0.643825
0.643855
0.643885
0.643915
0.643945
0.643945
0.643975
0.644005
0.644035
0.644065
0.644065
0.644095
0.644125
0.644155
0.644185
0.644185
0.644216
0.644246
0.644276
0.644306
0.644306
0.644336
0.644367
0.644397
0.644427
0.644427
0.644458
0.644488
0.644518
0.644549
0.644549
0.644579
0.644609
0.64464
0.64467
0.64467
0.644701
0.644731
0.644762
0.644792
0.644792
0.644823
0.644853
0.644884
0.644915
0.644915
0.644945
0.644976
0.645006
0.645037
0.645037
0.645068
0.645098
0.645129
0.64516
0.64516
0.645191
0.645221
0.645252
0.645283
0.645283
0.645314
0.645345
0.645376
0.645407
0.645407
0.645437
0.645468
0.645499
0.64553
0.64553
0.645561
0.645592
0.645623
0.645654
0.645654
0.645685
0.645716
0.645748
0.645779
0.645779
0.64581
0.645841
0.645872
0.645903
0.645903
0.645934
0.645966
0.645997
0.646028
0.646028
0.64606
0.646091
0.646122
0.646153
0.646153
0.646185
0.646216
0.646248
0.646279
0.646279
0.64631
0.646342
0.646373
0.646405
0.646405
0.646436
0.646468
0.646499
0.646531
0.646531
0.646562
0.646594
0.646626
0.646657
0.646657
0.646689
0.646721
0.646752
0.646784
0.646784
0.646816
0.646848
0.646879
0.646911
0.646911
0.646943
0.646975
0.647006
0.647038
0.647038
0.64707
0.647102
0.647134
0.647166
0.647166
0.647198
0.64723
0.647262
0.647294
0.647294
0.647326
0.647358
0.64739
0.647422
0.647422
0.647454
0.647486
0.647518
0.647551
0.647551
0.647583
0.647615
0.647647
0.647679
0.647679
0.647712
0.647744
0.647776
0.647808
0.647808
0.647841
0.647873
0.647905
0.647938
0.647938
0.64797
0.648003
0.648035
0.648067
0.648067
0.6481
0.648132
0.648165
0.648197
0.648197
0.64823
0.648262
0.648295
0.648328
0.648328
0.64836
0.648393
0.648425
0.648458
0.648458
0.648491
0.648524
0.648556
0.648589
0.648589
0.648622
0.648655
0.648687
0.64872
0.64872
0.648753
0.648786
0.648819
0.648852
0.648852
0.648884
0.648917
0.64895
0.648983
0.648983
0.649016
0.649049
0.649082
0.649115
0.649115
0.649148
0.649181
0.649215
0.649248
0.649248
0.649281
0.649314
0.649347
0.64938
0.64938
0.649413
0.649447
0.64948
0.649513
0.649513
0.649546
0.64958
0.649613
0.649646
0.649646
0.64968
0.649713
0.649746
0.64978
0.64978
0.649813
0.649847
0.64988
0.649914
0.649914
0.649947
0.649981
0.650014
0.650048
0.650048
0.650081
0.650115
0.650148
0.650182
0.650182
0.650216
0.650249
0.650283
0.650317
0.650317
0.65035
0.650384
0.650418
0.650452
0.650452
0.650485
0.650519
0.650553
0.650587
0.650587
0.650621
0.650655
0.650689
0.650722
0.650722
0.650756
0.65079
0.650824
0.650858
0.650858
0.650892
0.650926
0.65096
0.650994
0.650994
0.651028
0.651063
0.651097
0.651131
0.651131
0.651165
0.651199
0.651233
0.651267
0.651267
0.651302
0.651336
0.65137
0.651404
0.651404
0.651439
0.651473
0.651507
0.651542
0.651542
0.651576
0.651611
0.651645
0.651679
0.651679
0.651714
0.651748
0.651783
0.651817
0.651817
0.651852
0.651886
0.651921
0.651955
0.651955
0.65199
0.652025
0.652059
0.652094
0.652094
0.652128
0.652163
0.652198
0.652233
0.652233
0.652267
0.652302
0.652337
0.652372
0.652372
0.652406
0.652441
0.652476
0.652511
0.652511
0.652546
0.652581
0.652616
0.652651
0.652651
0.652685
0.65272
0.652755
0.65279
0.65279
0.652825
0.652861
0.652896
0.652931
0.652931
0.652966
0.653001
0.653036
0.653071
0.653071
0.653106
0.653141
0.653177
0.653212
0.653212
0.653247
0.653282
0.653318
0.653353
0.653353
0.653388
0.653424
0.653459
0.653494
0.653494
0.65353
0.653565
0.653601
0.653636
0.653636
0.653671
0.653707
0.653742
0.653778
0.653778
0.653813
0.653849
0.653885
0.65392
0.65392
0.653956
0.653991
0.654027
0.654063
0.654063
0.654098
0.654134
0.65417
0.654205
0.654205
0.654241
0.654277
0.654313
0.654349
0.654349
0.654384
0.65442
0.654456
0.654492
0.654492
0.654528
0.654564
0.6546
0.654636
0.654636
0.654672
0.654708
0.654744
0.65478
0.65478
0.654816
0.654852
0.654888
0.654924
0.654924
0.65496
0.654996
0.655032
0.655068
0.655068
0.655104
0.655141
0.655177
0.655213
0.655213
0.655249
0.655286
0.655322
0.655358
0.655358
0.655395
0.655431
0.655467
0.655504
0.655504
0.65554
0.655576
0.655613
0.655649
0.655649
0.655686
0.655722
0.655759
0.655795
0.655795
0.655832
0.655868
0.655905
0.655941
0.655941
0.655978
0.656015
0.656051
0.656088
0.656088
0.656125
0.656161
0.656198
0.656235
0.656235
0.656272
0.656308
0.656345
0.656382
0.656382
0.656419
0.656456
0.656492
0.656529
0.656529
0.656566
0.656603
0.65664
0.656677
0.656677
0.656714
0.656751
0.656788
0.656825
0.656825
0.656862
0.656899
0.656936
0.656973
0.656973
0.65701
0.657047
0.657085
0.657122
0.657122
0.657159
0.657196
0.657233
0.657271
0.657271
0.657308
0.657345
0.657382
0.65742
0.65742
0.657457
0.657494
0.657532
0.657569
0.657569
0.657606
0.657644
0.657681
0.657719
0.657719
0.657756
0.657794
0.657831
0.657869
0.657869
0.657906
0.657944
0.657981
0.658019
0.658019
0.658057
0.658094
0.658132
0.658169
0.658169
0.658207
0.658245
0.658283
0.65832
0.65832
0.658358
0.658396
0.658434
0.658471
0.658471
0.658509
0.658547
0.658585
0.658623
0.658623
0.658661
0.658699
0.658736
0.658774
0.658774
0.658812
0.65885
0.658888
0.658926
0.658926
0.658964
0.659002
0.65904
0.659079
0.659079
0.659117
0.659155
0.659193
0.659231
0.659231
0.659269
0.659307
0.659346
0.659384
0.659384
0.659422
0.65946
0.659499
0.659537
0.659537
0.659575
0.659614
0.659652
0.65969
0.65969
0.659729
0.659767
0.659805
0.659844
0.659844
0.659882
0.659921
0.659959
0.659998
0.659998
0.660036
0.660075
0.660113
0.660152
0.660152
0.660191
0.660229
0.660268
0.660306
0.660306
0.660345
0.660384
0.660422
0.660461
0.660461
0.6605
0.660539
0.660577
0.660616
0.660616
0.660655
0.660694
0.660733
0.660772
0.660772
0.66081
0.660849
0.660888
0.660927
0.660927
0.660966
0.661005
0.661044
0.661083
0.661083
0.661122
0.661161
0.6612
0.661239
0.661239
0.661278
0.661317
0.661356
0.661396
0.661396
0.661435
0.661474
0.661513
0.661552
0.661552
0.661591
0.661631
0.66167
0.661709
0.661709
0.661749
0.661788
0.661827
0.661866
0.661866
0.661906
0.661945
0.661985
0.662024
0.662024
0.662063
0.662103
0.662142
0.662182
0.662182
0.662221
0.662261
0.6623
0.66234
0.66234
0.66238
0.662419
0.662459
0.662498
0.662498
0.662538
0.662578
0.662617
0.662657
0.662657
0.662697
0.662736
0.662776
0.662816
0.662816
0.662856
0.662895
0.662935
0.662975
0.662975
0.663015
0.663055
0.663095
0.663135
0.663135
0.663174
0.663214
0.663254
0.663294
0.663294
0.663334
0.663374
0.663414
0.663454
0.663454
0.663494
0.663534
0.663575
0.663615
0.663615
0.663655
0.663695
0.663735
0.663775
0.663775
0.663815
0.663856
0.663896
0.663936
0.663936
0.663976
0.664017
0.664057
0.664097
0.664097
0.664138
0.664178
0.664218
0.664259
0.664259
0.664299
0.664339
0.66438
0.66442
0.66442
0.664461
0.664501
0.664542
0.664582
0.664582
0.664623
0.664663
0.664704
0.664744
0.664744
0.664785
0.664826
0.664866
0.664907
0.664907
0.664948
0.664988
0.665029
0.66507
0.66507
0.66511
0.665151
0.665192
0.665233
0.665233
0.665274
0.665314
0.665355
0.665396
0.665396
0.665437
0.665478
0.665519
0.66556
0.66556
0.665601
0.665642
0.665683
0.665724
0.665724
0.665765
0.665806
0.665847
0.665888
0.665888
0.665929
0.66597
0.666011
0.666052
0.666052
0.666093
0.666134
0.666176
0.666217
0.666217
0.666258
0.666299
0.66634
0.666382
0.666382
0.666423
0.666464
0.666506
0.666547
0.666547
0.666588
0.66663
0.666671
0.666712
0.666712
0.666754
0.666795
0.666837
0.666878
0.666878
0.66692
0.666961
0.667003
0.667044
0.667044
0.667086
0.667127
0.667169
0.66721
0.66721
0.667252
0.667294
0.667335
0.667377
0.667377
0.667419
0.66746
0.667502
0.667544
0.667544
0.667586
0.667627
0.667669
0.667711
0.667711
0.667753
0.667795
0.667836
0.667878
0.667878
0.66792
0.667962
0.668004
0.668046
0.668046
0.668088
0.66813
0.668172
0.668214
0.668214
0.668256
0.668298
0.66834
0.668382
0.668382
0.668424
0.668466
0.668508
0.66855
0.66855
0.668593
0.668635
0.668677
0.668719
0.668719
0.668761
0.668804
0.668846
0.668888
0.668888
0.66893
0.668973
0.669015
0.669057
0.669057
0.6691
0.669142
0.669184
0.669227
0.669227
0.669269
0.669312
0.669354
0.669397
0.669397
0.669439
0.669482
0.669524
0.669567
0.669567
0.669609
0.669652
0.669694
0.669737
0.669737
0.66978
0.669822
0.669865
0.669908
0.669908
0.66995
0.669993
0.670036
0.670078
0.670078
0.670121
0.670164
0.670207
0.670249
0.670249
0.670292
0.670335
0.670378
0.670421
0.670421
0.670464
0.670507
0.67055
0.670592
0.670592
0.670635
0.670678
0.670721
0.670764
0.670764
0.670807
0.67085
0.670893
0.670936
0.670936
0.67098
0.671023
0.671066
0.671109
0.671109
0.671152
0.671195
0.671238
0.671282
0.671282
0.671325
0.671368
0.671411
0.671454
0.671454
0.671498
0.671541
0.671584
0.671628
0.671628
0.671671
0.671714
0.671758
0.671801
0.671801
0.671844
0.671888
0.671931
0.671975
0.671975
0.672018
0.672062
0.672105
0.672149
0.672149
0.672192
0.672236
0.672279
0.672323
0.672323
0.672367
0.67241
0.672454
0.672497
0.672497
0.672541
0.672585
0.672629
0.672672
0.672672
0.672716
0.67276
0.672803
0.672847
0.672847
0.672891
0.672935
0.672979
0.673022
0.673022
0.673066
0.67311
0.673154
0.673198
0.673198
0.673242
0.673286
0.67333
0.673374
0.673374
0.673418
0.673462
0.673506
0.67355
0.67355
0.673594
0.673638
0.673682
0.673726
0.673726
0.67377
0.673814
0.673859
0.673903
0.673903
0.673947
0.673991
0.674035
0.674079
0.674079
0.674124
0.674168
0.674212
0.674257
0.674257
0.674301
0.674345
0.67439
0.674434
0.674434
0.674478
0.674523
0.674567
0.674611
0.674611
0.674656
0.6747
0.674745
0.674789
0.674789
0.674834
0.674878
0.674923
0.674967
0.674967
0.675012
0.675056
0.675101
0.675146
0.675146
0.67519
0.675235
0.67528
0.675324
0.675324
0.675369
0.675414
0.675458
0.675503
0.675503
0.675548
0.675593
0.675637
0.675682
0.675682
0.675727
0.675772
0.675817
0.675862
0.675862
0.675906
0.675951
0.675996
0.676041
0.676041
0.676086
0.676131
0.676176
0.676221
0.676221
0.676266
0.676311
0.676356
0.676401
0.676401
0.676446
0.676491
0.676536
0.676582
0.676582
0.676627
0.676672
0.676717
0.676762
0.676762
0.676807
0.676853
0.676898
0.676943
0.676943
0.676988
0.677034
0.677079
0.677124
0.677124
0.677169
0.677215
0.67726
0.677305
0.677305
0.677351
0.677396
0.677442
0.677487
0.677487
0.677533
0.677578
0.677623
0.677669
0.677669
0.677714
0.67776
0.677805
0.677851
0.677851
0.677897
0.677942
0.677988
0.678033
0.678033
0.678079
0.678125
0.67817
0.678216
0.678216
0.678262
0.678307
0.678353
0.678399
0.678399
0.678445
0.67849
0.678536
0.678582
0.678582
0.678628
0.678674
0.678719
0.678765
0.678765
0.678811
0.678857
0.678903
0.678949
0.678949
0.678995
0.679041
0.679087
0.679133
0.679133
0.679179
0.679225
0.679271
0.679317
0.679317
0.679363
0.679409
0.679455
0.679501
0.679501
0.679547
0.679593
0.67964
0.679686
0.679686
0.679732
0.679778
0.679824
0.679871
0.679871
0.679917
0.679963
0.680009
0.680056
0.680056
0.680102
0.680148
0.680195
0.680241
0.680241
0.680287
0.680334
0.68038
0.680426
0.680426
0.680473
0.680519
0.680566
0.680612
0.680612
0.680659
0.680705
0.680752
0.680798
0.680798
0.680845
0.680891
0.680938
0.680985
0.680985
0.681031
0.681078
0.681124
0.681171
0.681171
0.681218
0.681264
0.681311
0.681358
0.681358
0.681405
0.681451
0.681498
0.681545
0.681545
0.681592
0.681638
0.681685
0.681732
0.681732
0.681779
0.681826
0.681873
0.68192
0.68192
0.681966
0.682013
0.68206
0.682107
0.682107
0.682154
0.682201
0.682248
0.682295
0.682295
0.682342
0.682389
0.682436
0.682483
0.682483
0.68253
0.682578
0.682625
0.682672
0.682672
0.682719
0.682766
0.682813
0.68286
0.68286
0.682908
0.682955
0.683002
0.683049
0.683049
0.683097
0.683144
0.683191
0.683239
0.683239
0.683286
0.683333
0.683381
0.683428
0.683428
0.683475
0.683523
0.68357
0.683618
0.683618
0.683665
0.683712
0.68376
0.683807
0.683807
0.683855
0.683902
0.68395
0.683997
0.683997
0.684045
0.684093
0.68414
0.684188
0.684188
0.684235
0.684283
0.684331
0.684378
0.684378
0.684426
0.684474
0.684521
0.684569
0.684569
0.684617
0.684665
0.684712
0.68476
0.68476
0.684808
0.684856
0.684904
0.684951
0.684951
0.684999
0.685047
0.685095
0.685143
0.685143
0.685191
0.685239
0.685287
0.685335
0.685335
0.685383
0.685431
0.685479
0.685527
0.685527
0.685575
0.685623