<?xml version="1.0"?>
<VTKFile type="UnstructuredGrid" version="0.1" byte_order="LittleEndian">
<UnstructuredGrid>
<Piece NumberOfPoints="5000" NumberOfCells="4000">
<PointData Scalars="Reaction 0">
<DataArray type="Float32" Name="Reaction 0" format="ascii">
0.96513
0.96513
0.96513
0.96513
0.96513
0.96513
0.96513
0.96513
0.96513
0.96513
0.96513
0.96513
0.96513
0.96513
0.96513
0.96513
0.96513
0.96513
0.96513
0.96513
0.96513
0.96513
0.96513
0.96513
0.96513
0.96513
0.96513
0.96513
0.96513
0.96513
0.96513
0.96513
0.96513
0.96513
0.96513
0.96513
0.96513
0.96513
0.96513
0.96513
0.96513
0.96513
0.96513
0.96513
0.96513
0.96513
0.96513
0.96513
0.96513
0.96513
0.96513
0.96513
0.96513
0.96513
0.96513
0.96513
0.96513
0.96513
0.96513
0.96513
0.96513
0.96513
0.96513
0.96513
0.96513
0.96513
0.96513
0.96513
0.96513
0.96513
0.96513
0.96513
0.96513
0.96513
0.96513
0.96513
0.96513
0.96513
0.96513
0.96513
0.96513
0.96513
0.96513
0.96513
0.96513
0.96513
0.96513
0.96513
0.96513
0.96513
0.96513
0.96513
0.96513
0.96513
0.96513
0.96513
0.96513
0.96513
0.96513
0.965129
0.965129
0.965129
0.965129
0.965129
0.965129
0.965129
0.965129
0.965129
0.965129
0.965129
0.965129
0.965129
0.965129
0.965129
0.965129
0.965129
0.965129
0.965129
0.965129
0.965129
0.965129
0.965129
0.965129
0.965129
0.965129
0.965129
0.965129
0.965129
0.965129
0.965129
0.965129
0.965129
0.965129
0.965129
0.965129
0.965129
0.965129
0.965129
0.965129
0.965129
0.965129
0.965129
0.965129
0.965129
0.965129
0.965129
0.965129
0.965129
0.965129
0.965129
0.965129
0.965129
0.965129
0.965129
0.965129
0.965129
0.965129
0.965129
0.965129
0.965129
0.965129
0.965129
0.965129
0.965129
0.965128
0.965128
0.965128
0.965128
0.965128
0.965128
0.965128
0.965128
0.965128
0.965128
0.965128
0.965128
0.965128
0.965128
0.965128
0.965128
0.965128
0.965128
0.965128
0.965128
0.965128
0.965128
0.965128
0.965128
0.965128
0.965128
0.965128
0.965128
0.965128
0.965128
0.965128
0.965128
0.965128
0.965128
0.965128
0.965128
0.965128
0.965128
0.965128
0.965128
0.965128
0.965128
0.965128
0.965128
0.965128
0.965128
0.965128
0.965128
0.965127
0.965127
0.965127
0.965127
0.965127
0.965127
0.965127
0.965127
0.965127
0.965127
0.965127
0.965127
0.965127
0.965127
0.965127
0.965127
0.965127
0.965127
0.965127
0.965127
0.965127
0.965127
0.965127
0.965127
0.965127
0.965127
0.965127
0.965127
0.965127
0.965127
0.965127
0.965127
0.965127
0.965127
0.965127
0.965127
0.965127
0.965126
0.965126
0.965126
0.965126
0.965126
0.965126
0.965126
0.965126
0.965126
0.965126
0.965126
0.965126
0.965126
0.965126
0.965126
0.965126
0.965126
0.965126
0.965126
0.965126
0.965126
0.965126
0.965126
0.965126
0.965126
0.965126
0.965126
0.965126
0.965126
0.965126
0.965126
0.965126
0.965126
0.965125
0.965125
0.965125
0.965125
0.965125
0.965125
0.965125
0.965125
0.965125
0.965125
0.965125
0.965125
0.965125
0.965125
0.965125
0.965125
0.965125
0.965125
0.965125
0.965125
0.965125
0.965125
0.965125
0.965125
0.965125
0.965125
0.965125
0.965125
0.965125
0.965124
0.965124
0.965124
0.965124
0.965124
0.965124
0.965124
0.965124
0.965124
0.965124
0.965124
0.965124
0.965124
0.965124
0.965124
0.965124
0.965124
0.965124
0.965124
0.965124
0.965124
0.965124
0.965124
0.965124
0.965124
0.965124
0.965124
0.965123
0.965123
0.965123
0.965123
0.965123
0.965123
0.965123
0.965123
0.965123
0.965123
0.965123
0.965123
0.965123
0.965123
0.965123
0.965123
0.965123
0.965123
0.965123
0.965123
0.965123
0.965123
0.965123
0.965123
0.965123
0.965122
0.965122
0.965122
0.965122
0.965122
0.965122
0.965122
0.965122
0.965122
0.965122
0.965122
0.965122
0.965122
0.965122
0.965122
0.965122
0.965122
0.965122
0.965122
0.965122
0.965122
0.965122
0.965122
0.965121
0.965121
0.965121
0.965121
0.965121
0.965121
0.965121
0.965121
0.965121
0.965121
0.965121
0.965121
0.965121
0.965121
0.965121
0.965121
0.965121
0.965121
0.965121
0.965121
0.965121
0.965121
0.96512
0.96512
0.96512
0.96512
0.96512
0.96512
0.96512
0.96512
0.96512
0.96512
0.96512
0.96512
0.96512
0.96512
0.96512
0.96512
0.96512
0.96512
0.96512
0.96512
0.965119
0.965119
0.965119
0.965119
0.965119
0.965119
0.965119
0.965119
0.965119
0.965119
0.965119
0.965119
0.965119
0.965119
0.965119
0.965119
0.965119
0.965119
0.965119
0.965118
0.965118
0.965118
0.965118
0.965118
0.965118
0.965118
0.965118
0.965118
0.965118
0.965118
0.965118
0.965118
0.965118
0.965118
0.965118
0.965118
0.965118
0.965118
0.965117
0.965117
0.965117
0.965117
0.965117
0.965117
0.965117
0.965117
0.965117
0.965117
0.965117
0.965117
0.965117
0.965117
0.965117
0.965117
0.965116
0.965116
0.965116
0.965116
0.965116
0.965116
0.965116
0.965116
0.965116
0.965116
0.965116
0.965116
0.965116
0.965116
0.965116
0.965116
0.965116
0.965115
0.965115
0.965115
0.965115
0.965115
0.965115
0.965115
0.965115
0.965115
0.965115
0.965115
0.965115
0.965115
0.965115
0.965115
0.965115
0.965115
0.965115
0.965115
0.965114
0.965114
0.965114
0.965114
0.965114
0.965114
0.965114
0.965114
0.965114
0.965114
0.965114
0.965114
0.965114
0.965114
0.965114
0.965114
0.965114
0.965114
0.965113
0.965113
0.965113
0.965113
0.965113
0.965113
0.965113
0.965113
0.965113
0.965113
0.965113
0.965113
0.965113
0.965113
0.965113
0.965113
0.965112
0.965112
0.965112
0.965112
0.965112
0.965112
0.965112
0.965112
0.965112
0.965112
0.965112
0.965112
0.965112
0.965112
0.965112
0.965111
0.965111
0.965111
0.965111
0.965111
0.965111
0.965111
0.965111
0.965111
0.965111
0.965111
0.965111
0.965111
0.965111
0.965111
0.96511
0.96511
0.96511
0.96511
0.96511
0.96511
0.96511
0.96511
0.96511
0.96511
0.96511
0.96511
0.96511
0.96511
0.96511
0.965109
0.965109
0.965109
0.965109
0.965109
0.965109
0.965109
0.965109
0.965109
0.965109
0.965109
0.965109
0.965109
0.965109
0.965108
0.965108
0.965108
0.965108
0.965108
0.965108
0.965108
0.965108
0.965108
0.965108
0.965108
0.965108
0.965108
0.965108
0.965108
0.965107
0.965107
0.965107
0.965107
0.965107
0.965107
0.965107
0.965107
0.965107
0.965107
0.965107
0.965107
0.965106
0.965106
0.965106
0.965106
0.965106
0.965106
0.965106
0.965106
0.965106
0.965106
0.965106
0.965106
0.965106
0.965106
0.965105
0.965105
0.965105
0.965105
0.965105
0.965105
0.965105
0.965105
0.965105
0.965105
0.965105
0.965105
0.965105
0.965105
0.965104
0.965104
0.965104
0.965104
0.965104
0.965104
0.965104
0.965104
0.965104
0.965104
0.965104
0.965104
0.965103
0.965103
0.965103
0.965103
0.965103
0.965103
0.965103
0.965103
0.965103
0.965103
0.965103
0.965103
0.965103
0.965102
0.965102
0.965102
0.965102
0.965102
0.965102
0.965102
0.965102
0.965102
0.965102
0.965102
0.965102
0.965101
0.965101
0.965101
0.965101
0.965101
0.965101
0.965101
0.965101
0.965101
0.965101
0.965101
0.9651
0.9651
0.9651
0.9651
0.9651
0.9651
0.9651
0.9651
0.9651
0.9651
0.9651
0.9651
0.9651
0.965099
0.965099
0.965099
0.965099
0.965099
0.965099
0.965099
0.965099
0.965099
0.965099
0.965099
0.965098
0.965098
0.965098
0.965098
0.965098
0.965098
0.965098
0.965098
0.965098
0.965098
0.965098
0.965098
0.965098
0.965097
0.965097
0.965097
0.965097
0.965097
0.965097
0.965097
0.965097
0.965097
0.965097
0.965097
0.965096
0.965096
0.965096
0.965096
0.965096
0.965096
0.965096
0.965096
0.965096
0.965096
0.965096
0.965095
0.965095
0.965095
0.965095
0.965095
0.965095
0.965095
0.965095
0.965095
0.965095
0.965094
0.965094
0.965094
0.965094
0.965094
0.965094
0.965094
0.965094
0.965094
0.965094
0.965094
0.965093
0.965093
0.965093
0.965093
0.965093
0.965093
0.965093
0.965093
0.965093
0.965093
0.965093
0.965093
0.965092
0.965092
0.965092
0.965092
0.965092
0.965092
0.965092
0.965092
0.965092
0.965092
0.965091
0.965091
0.965091
0.965091
0.965091
0.965091
0.965091
0.965091
0.965091
0.965091
0.965091
0.96509
0.96509
0.96509
0.96509
0.96509
0.96509
0.96509
0.96509
0.96509
0.96509
0.965089
0.965089
0.965089
0.965089
0.965089
0.965089
0.965089
0.965089
0.965089
0.965089
0.965088
0.965088
0.965088
0.965088
0.965088
0.965088
0.965088
0.965088
0.965088
0.965088
0.965087
0.965087
0.965087
0.965087
0.965087
0.965087
0.965087
0.965087
0.965087
0.965087
0.965086
0.965086
0.965086
0.965086
0.965086
0.965086
0.965086
0.965086
0.965086
0.965086
0.965085
0.965085
0.965085
0.965085
0.965085
0.965085
0.965085
0.965085
0.965085
0.965085
0.965084
0.965084
0.965084
0.965084
0.965084
0.965084
0.965084
0.965084
0.965084
0.965083
0.965083
0.965083
0.965083
0.965083
0.965083
0.965083
0.965083
0.965083
0.965083
0.965082
0.965082
0.965082
0.965082
0.965082
0.965082
0.965082
0.965082
0.965081
0.965081
0.965081
0.965081
0.965081
0.965081
0.965081
0.965081
0.965081
0.965081
0.96508
0.96508
0.96508
0.96508
0.96508
0.96508
0.96508
0.96508
0.96508
0.965079
0.965079
0.965079
0.965079
0.965079
0.965079
0.965079
0.965079
0.965079
0.965078
0.965078
0.965078
0.965078
0.965078
0.965078
0.965078
0.965078
0.965078
0.965078
0.965077
0.965077
0.965077
0.965077
0.965077
0.965077
0.965077
0.965077
0.965077
0.965076
0.965076
0.965076
0.965076
0.965076
0.965076
0.965076
0.965076
0.965075
0.965075
0.965075
0.965075
0.965075
0.965075
0.965075
0.965075
0.965075
0.965074
0.965074
0.965074
0.965074
0.965074
0.965074
0.965074
0.965074
0.965074
0.965073
0.965073
0.965073
0.965073
0.965073
0.965073
0.965073
0.965073
0.965073
0.965072
0.965072
0.965072
0.965072
0.965072
0.965072
0.965072
0.965072
0.965071
0.965071
0.965071
0.965071
0.965071
0.965071
0.965071
0.965071
0.96507
0.96507
0.96507
0.96507
0.96507
0.96507
0.96507
0.96507
0.96507
0.965069
0.965069
0.965069
0.965069
0.965069
0.965069
0.965069
0.965069
0.965068
0.965068
0.965068
0.965068
0.965068
0.965068
0.965068
0.965068
0.965067
0.965067
0.965067
0.965067
0.965067
0.965067
0.965067
0.965067
0.965067
0.965066
0.965066
0.965066
0.965066
0.965066
0.965066
0.965066
0.965065
0.965065
0.965065
0.965065
0.965065
0.965065
0.965065
0.965065
0.965065
0.965064
0.965064
0.965064
0.965064
0.965064
0.965064
0.965064
0.965063
0.965063
0.965063
0.965063
0.965063
0.965063
0.965063
0.965063
0.965062
0.965062
0.965062
0.965062
0.965062
0.965062
0.965062
0.965061
0.965061
0.965061
0.965061
0.965061
0.965061
0.965061
0.965061
0.96506
0.96506
0.96506
0.96506
0.96506
0.96506
0.96506
0.965059
0.965059
0.965059
0.965059
0.965059
0.965059
0.965059
0.965059
0.965058
0.965058
0.965058
0.965058
0.965058
0.965058
0.965057
0.965057
0.965057
0.965057
0.965057
0.965057
0.965057
0.965057
0.965056
0.965056
0.965056
0.965056
0.965056
0.965056
0.965056
0.965055
0.965055
0.965055
0.965055
0.965055
0.965055
0.965055
0.965055
0.965054
0.965054
0.965054
0.965054
0.965054
0.965054
0.965054
0.965053
0.965053
0.965053
0.965053
0.965053
0.965053
0.965053
0.965053
0.965053
0.965052
0.965052
0.965052
0.965052
0.965052
0.965052
0.965052
0.965051
0.965051
0.965051
0.965051
0.965051
0.965051
0.965051
0.965051
0.96505
0.96505
0.96505
0.96505
0.96505
0.96505
0.96505
0.965049
0.965049
0.965049
0.965049
0.965049
0.965049
0.965049
0.965049
0.965048
0.965048
0.965048
0.965048
0.965048
0.965048
0.965048
0.965047
0.965047
0.965047
0.965047
0.965047
0.965047
0.965047
0.965046
0.965046
0.965046
0.965046
0.965046
0.965046
0.965046
0.965045
0.965045
0.965045
0.965045
0.965045
0.965045
0.965045
0.965045
0.965044
0.965044
0.965044
0.965044
0.965044
0.965044
0.965043
0.965043
0.965043
0.965043
0.965043
0.965043
0.965043
0.965042
0.965042
0.965042
0.965042
0.965042
0.965042
0.965042
0.965041
0.965041
0.965041
0.965041
0.965041
0.965041
0.965041
0.96504
0.96504
0.96504
0.96504
0.96504
0.96504
0.965039
0.965039
0.965039
0.965039
0.965039
0.965039
0.965039
0.965039
0.965038
0.965038
0.965038
0.965038
0.965038
0.965038
0.965037
0.965037
0.965037
0.965037
0.965037
0.965037
0.965036
0.965036
0.965036
0.965036
0.965036
0.965036
0.965036
0.965036
0.965035
0.965035
0.965035
0.965035
0.965035
0.965035
0.965034
0.965034
0.965034
0.965034
0.965034
0.965034
0.965033
0.965033
0.965033
0.965033
0.965033
0.965033
0.965033
0.965032
0.965032
0.965032
0.965032
0.965032
0.965032
0.965031
0.965031
0.965031
0.965031
0.965031
0.965031
0.965031
0.96503
0.96503
0.96503
0.96503
0.96503
0.96503
0.96503
0.965029
0.965029
0.965029
0.965029
0.965029
0.965029
0.965028
0.965028
0.965028
0.965028
0.965028
0.965028
0.965027
0.965027
0.965027
0.965027
0.965027
0.965027
0.965026
0.965026
0.965026
0.965026
0.965026
0.965026
0.965026
0.965025
0.965025
0.965025
0.965025
0.965025
0.965025
0.965024
0.965024
0.965024
0.965024
0.965024
0.965024
0.965023
0.965023
0.965023
0.965023
0.965023
0.965023
0.965022
0.965022
0.965022
0.965022
0.965022
0.965022
0.965022
0.965021
0.965021
0.965021
0.965021
0.965021
0.965021
0.96502
0.96502
0.96502
0.96502
0.96502
0.96502
0.965019
0.965019
0.965019
0.965019
0.965019
0.965019
0.965018
0.965018
0.965018
0.965018
0.965018
0.965017
0.965017
0.965017
0.965017
0.965017
0.965017
0.965017
0.965016
0.965016
0.965016
0.965016
0.965016
0.965016
0.965015
0.965015
0.965015
0.965015
0.965015
0.965015
0.965014
0.965014
0.965014
0.965014
0.965014
0.965013
0.965013
0.965013
0.965013
0.965013
0.965013
0.965012
0.965012
0.965012
0.965012
0.965012
0.965012
0.965012
0.965011
0.965011
0.965011
0.965011
0.965011
0.965011
0.96501
0.96501
0.96501
0.96501
0.96501
0.965009
0.965009
0.965009
0.965009
0.965009
0.965009
0.965008
0.965008
0.965008
0.965008
0.965008
0.965007
0.965007
0.965007
0.965007
0.965007
0.965007
0.965006
0.965006
0.965006
0.965006
0.965006
0.965006
0.965006
0.965005
0.965005
0.965005
0.965005
0.965005
0.965004
0.965004
0.965004
0.965004
0.965004
0.965004
0.965003
0.965003
0.965003
0.965003
0.965003
0.965002
0.965002
0.965002
0.965002
0.965002
0.965001
0.965001
0.965001
0.965001
0.965001
0.965001
0.965
0.965
0.965
0.965
0.965
0.964999
0.964999
0.964999
0.964999
0.964999
0.964998
0.964998
0.964998
0.964998
0.964998
0.964997
0.964997
0.964997
0.964997
0.964997
0.964996
0.964996
0.964996
0.964996
0.964996
0.964996
0.964995
0.964995
0.964995
0.964995
0.964995
0.964994
0.964994
0.964994
0.964994
0.964994
0.964993
0.964993
0.964993
0.964993
0.964993
0.964992
0.964992
0.964992
0.964992
0.964992
0.964991
0.964991
0.964991
0.964991
0.964991
0.964991
0.964991
0.96499
0.96499
0.96499
0.96499
0.96499
0.96499
0.964989
0.964989
0.964989
0.964989
0.964989
0.964988
0.964988
0.964988
0.964988
0.964988
0.964988
0.964987
0.964987
0.964987
0.964987
0.964987
0.964986
0.964986
0.964986
0.964986
0.964986
0.964986
0.964985
0.964985
0.964985
0.964985
0.964985
0.964984
0.964984
0.964984
0.964984
0.964984
0.964983
0.964983
0.964983
0.964983
0.964983
0.964983
0.964983
0.964982
0.964982
0.964982
0.964982
0.964982
0.964981
0.964981
0.964981
0.964981
0.964981
0.96498
0.96498
0.96498
0.96498
0.96498
0.964979
0.964979
0.964979
0.964979
0.964979
0.964979
0.964978
0.964978
0.964978
0.964978
0.964978
0.964977
0.964977
0.964977
0.964977
0.964977
0.964976
0.964976
0.964976
0.964976
0.964976
0.964975
0.964975
0.964975
0.964975
0.964975
0.964974
0.964974
0.964974
0.964974
0.964974
0.964973
0.964973
0.964973
0.964973
0.964973
0.964972
0.964972
0.964972
0.964972
0.964972
0.964971
0.964971
0.964971
0.964971
0.964971
0.96497
0.96497
0.96497
0.96497
0.96497
0.964969
0.964969
0.964969
0.964969
0.964969
0.964968
0.964968
0.964968
0.964968
0.964968
0.964967
0.964967
0.964967
0.964967
0.964967
0.964966
0.964966
0.964966
0.964966
0.964966
0.964965
0.964965
0.964965
0.964965
0.964965
0.964964
0.964964
0.964964
0.964964
0.964964
0.964963
0.964963
0.964963
0.964963
0.964963
0.964962
0.964962
0.964962
0.964962
0.964962
0.964961
0.964961
0.964961
0.964961
0.96496
0.96496
0.96496
0.96496
0.96496
0.964959
0.964959
0.964959
0.964959
0.964959
0.964958
0.964958
0.964958
0.964958
0.964958
0.964957
0.964957
0.964957
0.964957
0.964957
0.964956
0.964956
0.964956
0.964956
0.964956
0.964955
0.964955
0.964955
0.964954
0.964954
0.964954
0.964954
0.964954
0.964953
0.964953
0.964953
0.964953
0.964953
0.964952
0.964952
0.964952
0.964952
0.964952
0.964951
0.964951
0.964951
0.964951
0.964951
0.96495
0.96495
0.96495
0.96495
0.964949
0.964949
0.964949
0.964949
0.964949
0.964948
0.964948
0.964948
0.964948
0.964948
0.964947
0.964947
0.964947
0.964947
0.964946
0.964946
0.964946
0.964946
0.964946
0.964945
0.964945
0.964945
0.964945
0.964945
0.964944
0.964944
0.964944
0.964944
0.964943
0.964943
0.964943
0.964943
0.964943
0.964942
0.964942
0.964942
0.964942
0.964942
0.964941
0.964941
0.964941
0.96494
0.96494
0.96494
0.96494
0.96494
0.964939
0.964939
0.964939
0.964939
0.964938
0.964938
0.964938
0.964938
0.964938
0.964937
0.964937
0.964937
0.964937
0.964936
0.964936
0.964936
0.964936
0.964936
0.964935
0.964935
0.964935
0.964935
0.964934
0.964934
0.964934
0.964934
0.964934
0.964933
0.964933
0.964933
0.964932
0.964932
0.964932
0.964932
0.964931
0.964931
0.964931
0.964931
0.96493
0.96493
0.96493
0.96493
0.96493
0.964929
0.964929
0.964929
0.964929
0.964928
0.964928
0.964928
0.964928
0.964928
0.964927
0.964927
0.964927
0.964926
0.964926
0.964926
0.964926
0.964926
0.964925
0.964925
0.964925
0.964925
0.964925
0.964924
0.964924
0.964924
0.964924
0.964923
0.964923
0.964923
0.964923
0.964923
0.964922
0.964922
0.964922
0.964922
0.964922
0.964921
0.964921
0.964921
0.964921
0.96492
0.96492
0.96492
0.96492
0.96492
0.964919
0.964919
0.964919
0.964919
0.964919
0.964918
0.964918
0.964918
0.964918
0.964917
0.964917
0.964917
0.964917
0.964917
0.964916
0.964916
0.964916
0.964915
0.964915
0.964915
0.964915
0.964915
0.964914
0.964914
0.964914
0.964914
0.964913
0.964913
0.964913
0.964913
0.964913
0.964912
0.964912
0.964912
0.964912
0.964911
0.964911
0.964911
0.964911
0.96491
0.96491
0.96491
0.96491
0.96491
0.964909
0.964909
0.964909
0.964908
0.964908
0.964908
0.964908
0.964907
0.964907
0.964907
0.964907
0.964907
0.964906
0.964906
0.964906
0.964906
0.964905
0.964905
0.964905
0.964905
0.964904
0.964904
0.964904
0.964904
0.964904
0.964903
0.964903
0.964903
0.964902
0.964902
0.964902
0.964902
0.964901
0.964901
0.964901
0.964901
0.964901
0.9649
0.9649
0.9649
0.9649
0.964899
0.964899
0.964899
0.964899
0.964898
0.964898
0.964898
0.964897
0.964897
0.964897
0.964897
0.964897
0.964896
0.964896
0.964896
0.964896
0.964895
0.964895
0.964895
0.964895
0.964894
0.964894
0.964894
0.964894
0.964893
0.964893
0.964893
0.964893
0.964893
0.964892
0.964892
0.964892
0.964891
0.964891
0.964891
0.964891
0.96489
0.96489
0.96489
0.96489
0.964889
0.964889
0.964889
0.964889
0.964888
0.964888
0.964888
0.964888
0.964888
0.964887
0.964887
0.964887
0.964886
0.964886
0.964886
0.964886
0.964885
0.964885
0.964885
0.964885
0.964884
0.964884
0.964884
0.964884
0.964883
0.964883
0.964883
0.964882
0.964882
0.964882
0.964882
0.964882
0.964881
0.964881
0.964881
0.964881
0.96488
0.96488
0.96488
0.96488
0.964879
0.964879
0.964879
0.964879
0.964878
0.964878
0.964878
0.964877
0.964877
0.964877
0.964877
0.964876
0.964876
0.964876
0.964876
0.964875
0.964875
0.964875
0.964875
0.964874
0.964874
0.964874
0.964873
0.964873
0.964873
0.964873
0.964872
0.964872
0.964872
0.964872
0.964871
0.964871
0.964871
0.964871
0.96487
0.96487
0.96487
0.964869
0.964869
0.964869
0.964869
0.964868
0.964868
0.964868
0.964868
0.964867
0.964867
0.964866
0.964866
0.964866
0.964866
0.964865
0.964865
0.964865
0.964865
0.964864
0.964864
0.964864
0.964864
0.964863
0.964863
0.964863
0.964862
0.964862
0.964862
0.964862
0.964861
0.964861
0.964861
0.964861
0.96486
0.96486
0.96486
0.96486
0.964859
0.964859
0.964859
0.964858
0.964858
0.964858
0.964858
0.964857
0.964857
0.964857
0.964857
0.964856
0.964856
0.964856
0.964856
0.964855
0.964855
0.964855
0.964855
0.964855
0.964854
0.964854
0.964854
0.964853
0.964853
0.964853
0.964853
0.964852
0.964852
0.964852
0.964852
0.964851
0.964851
0.964851
0.964851
0.96485
0.96485
0.96485
0.964849
0.964849
0.964849
0.964849
0.964848
0.964848
0.964848
0.964848
0.964847
0.964847
0.964847
0.964847
0.964846
0.964846
0.964846
0.964845
0.964845
0.964845
0.964845
0.964844
0.964844
0.964844
0.964844
0.964843
0.964843
0.964843
0.964843
0.964842
0.964842
0.964842
0.964841
0.964841
0.964841
0.964841
0.96484
0.96484
0.96484
0.96484
0.964839
0.964839
0.964838
0.964838
0.964838
0.964838
0.964837
0.964837
0.964837
0.964837
0.964836
0.964836
0.964836
0.964836
0.964835
0.964835
0.964835
0.964834
0.964834
0.964834
0.964834
0.964833
0.964833
0.964833
0.964833
0.964832
0.964832
0.964831
0.964831
0.964831
0.964831
0.96483
0.96483
0.96483
0.96483
0.964829
0.964829
0.964829
0.964829
0.964828
0.964828
0.964828
0.964827
0.964827
0.964827
0.964826
0.964826
0.964826
0.964826
0.964825
0.964825
0.964825
0.964824
0.964824
0.964824
0.964824
0.964823
0.964823
0.964823
0.964823
0.964822
0.964822
0.964821
0.964821
0.964821
0.964821
0.96482
0.96482
0.96482
0.96482
0.964819
0.964819
0.964819
0.964819
0.964818
0.964818
0.964817
0.964817
0.964817
0.964817
0.964816
0.964816
0.964816
0.964816
0.964815
0.964815
0.964815
0.964814
0.964814
0.964814
0.964813
0.964813
0.964813
0.964813
0.964812
0.964812
0.964812
0.964811
0.964811
0.964811
0.96481
0.96481
0.96481
0.96481
0.964809
0.964809
0.964809
0.964808
0.964808
0.964808
0.964807
0.964807
0.964807
0.964807
0.964806
0.964806
0.964806
0.964805
0.964805
0.964805
0.964804
0.964804
0.964804
0.964804
0.964803
0.964803
0.964802
0.964802
0.964802
0.964802
0.964801
0.964801
0.9648
0.9648
0.9648
0.9648
0.964799
0.964799
0.964799
0.964798
0.964798
0.964798
0.964797
0.964797
0.964797
0.964796
0.964796
0.964796
0.964796
0.964795
0.964795
0.964794
0.964794
0.964794
0.964794
0.964793
0.964793
0.964793
0.964793
0.964792
0.964792
0.964791
0.964791
0.964791
0.964791
0.96479
0.96479
0.96479
0.96479
0.964789
0.964789
0.964788
0.964788
0.964788
0.964788
0.964787
0.964787
0.964787
0.964787
0.964786
0.964786
0.964786
0.964785
0.964785
0.964785
0.964785
0.964784
0.964784
0.964784
0.964783
0.964783
0.964783
0.964782
0.964782
0.964782
0.964782
0.964781
0.964781
0.964781
0.964781
0.96478
0.96478
0.964779
0.964779
0.964779
0.964779
0.964778
0.964778
0.964778
0.964778
0.964777
0.964777
0.964776
0.964776
0.964776
0.964776
0.964775
0.964775
0.964775
0.964774
0.964774
0.964774
0.964773
0.964773
0.964773
0.964773
0.964772
0.964772
0.964772
0.964771
0.964771
0.964771
0.96477
0.96477
0.96477
0.964769
0.964769
0.964769
0.964769
0.964768
0.964768
0.964767
0.964767
0.964767
0.964767
0.964766
0.964766
0.964765
0.964765
0.964765
0.964765
0.964764
0.964764
0.964764
0.964763
0.964763
0.964763
0.964762
0.964762
0.964762
0.964761
0.964761
0.964761
0.964761
0.96476
0.96476
0.964759
0.964759
0.964759
0.964759
0.964758
0.964758
0.964757
0.964757
0.964757
0.964757
0.964756
0.964756
0.964756
0.964755
0.964755
0.964755
0.964754
0.964754
0.964754
0.964753
0.964753
0.964753
0.964753
0.964752
0.964752
0.964751
0.964751
0.964751
0.964751
0.96475
0.96475
0.964749
0.964749
0.964749
0.964749
0.964748
0.964748
0.964748
0.964747
0.964747
0.964747
0.964746
0.964746
0.964746
0.964745
0.964745
0.964744
0.964744
0.964744
0.964744
0.964743
0.964743
0.964743
0.964742
0.964742
0.964742
0.964741
0.964741
0.964741
0.96474
0.96474
0.964739
0.964739
0.964739
0.964739
0.964738
0.964738
0.964738
0.964737
0.964737
0.964736
0.964736
0.964736
0.964736
0.964735
0.964735
0.964734
0.964734
0.964734
0.964733
0.964733
0.964733
0.964733
0.964732
0.964732
0.964731
0.964731
0.964731
0.96473
0.96473
0.964729
0.964729
0.964729
0.964729
0.964728
0.964728
0.964727
0.964727
0.964727
0.964726
0.964726
0.964725
0.964725
0.964725
0.964725
0.964724
0.964724
0.964724
0.964723
0.964723
0.964722
0.964722
0.964722
0.964722
0.964721
0.964721
0.96472
0.96472
0.96472
0.964719
0.964719
0.964719
0.964719
0.964718
0.964718
0.964717
0.964717
0.964717
0.964717
0.964716
0.964716
0.964715
0.964715
0.964715
0.964715
0.964714
0.964714
0.964714
0.964713
0.964713
0.964713
0.964712
0.964712
0.964712
0.964711
0.964711
0.964711
0.964711
0.96471
0.96471
0.964709
0.964709
0.964709
0.964709
0.964708
0.964708
0.964707
0.964707
0.964707
0.964706
0.964706
0.964706
0.964706
0.964705
0.964705
0.964704
0.964704
0.964704
0.964703
0.964703
0.964703
0.964702
0.964702
0.964702
0.964701
0.964701
0.9647
0.9647
0.9647
0.9647
0.964699
0.964699
0.964699
0.964698
0.964698
0.964697
0.964697
0.964697
0.964697
0.964696
0.964696
0.964695
0.964695
0.964695
0.964694
0.964694
0.964693
0.964693
0.964693
0.964693
0.964692
0.964692
0.964692
0.964691
0.964691
0.96469
0.96469
0.96469
0.964689
0.964689
0.964689
0.964688
0.964688
0.964688
0.964687
0.964687
0.964686
0.964686
0.964686
0.964685
0.964685
0.964685
0.964685
0.964684
0.964684
0.964683
0.964683
0.964683
0.964682
0.964682
0.964681
0.964681
0.964681
0.964681
0.96468
0.96468
0.964679
0.964679
0.964679
0.964678
0.964678
0.964677
0.964677
0.964677
0.964676
0.964676
0.964676
0.964676
0.964675
0.964675
0.964674
0.964674
0.964674
0.964673
0.964673
0.964672
0.964672
0.964672
0.964671
0.964671
0.96467
0.96467
0.96467
0.96467
0.964669
0.964669
0.964668
0.964668
0.964668
0.964667
0.964667
0.964666
0.964666
0.964666
0.964665
0.964665
0.964664
0.964664
0.964664
0.964663
0.964663
0.964662
0.964662
0.964662
0.964661
0.964661
0.96466
0.96466
0.96466
0.96466
0.964659
0.964659
0.964659
0.964658
0.964658
0.964657
0.964657
0.964657
0.964656
0.964656
0.964655
0.964655
0.964655
0.964654
0.964654
0.964653
0.964653
0.964653
0.964652
0.964652
0.964651
0.964651
0.964651
0.96465
0.96465
0.964649
0.964649
0.964649
0.964649
0.964648
0.964648
0.964647
0.964647
0.964647
0.964646
0.964646
0.964645
0.964645
0.964645
0.964645
0.964644
0.964644
0.964644
0.964643
0.964643
0.964642
0.964642
0.964642
0.964641
0.964641
0.964641
0.96464
0.96464
0.96464
0.964639
0.964639
0.964638
0.964638
0.964638
0.964637
0.964637
0.964636
0.964636
0.964636
0.964636
0.964635
0.964635
0.964635
0.964634
0.964634
0.964633
0.964633
0.964633
0.964632
0.964632
0.964631
0.964631
0.964631
0.96463
0.96463
0.96463
0.964629
0.964629
0.964629
0.964628
0.964628
0.964627
0.964627
0.964627
0.964626
0.964626
0.964625
0.964625
0.964625
0.964624
0.964624
0.964623
0.964623
0.964623
0.964622
0.964622
0.964621
0.964621
0.964621
0.96462
0.96462
0.964619
0.964619
0.964619
0.964619
0.964618
0.964618
0.964618
0.964617
0.964617
0.964616
0.964616
0.964616
0.964615
0.964615
0.964614
0.964614
0.964614
0.964613
0.964613
0.964612
0.964612
0.964612
0.964611
0.964611
0.96461
0.96461
0.96461
0.964609
0.964609
0.964608
0.964608
0.964608
0.964607
0.964607
0.964606
0.964606
0.964606
0.964605
0.964605
0.964604
0.964604
0.964604
0.964603
0.964603
0.964602
0.964602
0.964602
0.964601
0.964601
0.9646
0.9646
0.9646
0.964599
0.964599
0.964598
0.964598
0.964598
0.964597
0.964597
0.964596
0.964596
0.964596
0.964595
0.964595
0.964594
0.964594
0.964594
0.964593
0.964593
0.964592
0.964591
0.964591
0.964591
0.96459
0.96459
0.964589
0.964589
0.964589
0.964588
0.964588
0.964587
0.964587
0.964587
0.964586
0.964586
0.964585
0.964585
0.964585
0.964584
0.964584
0.964583
0.964583
0.964582
0.964582
0.964581
0.964581
0.964581
0.96458
0.96458
0.964579
0.964579
0.964579
0.964578
0.964578
0.964577
0.964577
0.964577
0.964576
0.964576
0.964575
0.964575
0.964575
0.964574
0.964574
0.964573
0.964573
0.964573
0.964572
0.964572
0.964571
0.964571
0.964571
0.964571
0.96457
0.96457
0.964569
0.964569
0.964569
0.964568
0.964568
0.964567
0.964567
0.964567
0.964566
0.964566
0.964565
0.964565
0.964565
0.964564
0.964564
0.964563
0.964563
0.964563
0.964562
0.964562
0.964561
0.964561
0.964561
0.96456
0.96456
0.964559
0.964559
0.964559
0.964558
0.964558
0.964557
0.964557
0.964557
0.964556
0.964556
0.964555
0.964555
0.964555
0.964554
0.964554
0.964553
0.964553
0.964553
0.964552
0.964551
0.964551
0.964551
0.96455
0.96455
0.964549
0.964549
0.964549
0.964548
0.964548
0.964547
0.964547
0.964547
0.964546
0.964546
0.964545
0.964545
0.964545
0.964544
0.964544
0.964543
0.964543
0.964543
0.964542
0.964542
0.964541
0.96454
0.96454
0.96454
0.964539
0.964539
0.964538
0.964538
0.964538
0.964537
0.964537
0.964536
0.964536
0.964536
0.964535
0.964535
0.964534
0.964534
0.964534
0.964533
0.964532
0.964532
0.964532
0.964531
0.964531
0.96453
0.96453
0.96453
0.964529
0.964529
0.964528
0.964528
0.964528
0.964527
0.964526
0.964526
0.964525
0.964525
0.964525
0.964524
0.964524
0.964523
0.964523
0.964523
0.964522
0.964521
0.964521
0.964521
0.96452
0.96452
0.964519
0.964519
0.964519
0.964518
0.964517
0.964517
0.964516
0.964516
0.964516
0.964515
0.964515
0.964514
0.964514
0.964513
0.964513
0.964512
0.964512
0.964512
0.964511
0.964511
0.96451
0.964509
0.964509
0.964509
0.964508
0.964508
0.964507
0.964507
0.964507
0.964506
0.964505
0.964505
0.964505
0.964504
0.964504
0.964503
0.964503
0.964503
0.964502
0.964502
0.964501
0.964501
0.964501
0.9645
0.9645
0.964499
0.964499
0.964499
0.964498
0.964498
0.964497
0.964497
0.964497
0.964496
0.964495
0.964495
0.964494
0.964494
0.964494
0.964493
0.964493
0.964492
0.964492
0.964492
0.964491
0.964491
0.96449
0.96449
0.96449
0.964489
0.964489
0.964488
0.964488
0.964488
0.964487
0.964486
0.964486
0.964486
0.964485
0.964485
0.964484
0.964484
0.964484
0.964483
0.964483
0.964482
0.964482
0.964482
0.964481
0.96448
0.96448
0.964479
0.964479
0.964479
0.964478
0.964478
0.964477
0.964477
0.964477
0.964476
0.964475
0.964475
0.964475
0.964474
0.964474
0.964473
0.964473
0.964473
0.964472
0.964471
0.964471
0.96447
0.96447
0.96447
0.964469
0.964469
0.964468
0.964468
0.964467
0.964467
0.964466
0.964466
0.964466
0.964465
0.964465
0.964464
0.964463
0.964463
0.964463
0.964462
0.964462
0.964461
0.964461
0.964461
0.96446
0.964459
0.964459
0.964459
0.964458
0.964458
0.964457
0.964457
0.964457
0.964456
0.964455
0.964455
0.964454
0.964454
0.964454
0.964453
0.964452
0.964452
0.964452
0.964451
0.964451
0.96445
0.964449
0.964449
0.964449
0.964448
0.964448
0.964447
0.964447
0.964446
0.964446
0.964445
0.964445
0.964445
0.964444
0.964443
0.964443
0.964442
0.964442
0.964442
0.964441
0.96444
0.96444
0.96444
0.964439
0.964438
0.964438
0.964437
0.964437
0.964437
0.964436
0.964435
0.964435
0.964435
0.964434
0.964434
0.964433
0.964432
0.964432
0.964432
0.964431
0.964431
0.96443
0.96443
0.964429
0.964429
0.964428
0.964428
0.964428
0.964427
0.964427
0.964426
0.964425
0.964425
0.964425
0.964424
0.964424
0.964423
0.964423
0.964423
0.964422
0.964421
0.964421
0.964421
0.96442
0.96442
0.964419
0.964419
0.964419
0.964418
0.964418
0.964417
0.964416
0.964416
0.964416
0.964415
0.964415
0.964414
0.964414
0.964414
0.964413
0.964412
0.964412
0.964412
0.964411
0.964411
0.96441
0.964409
0.964409
0.964409
0.964408
0.964408
0.964407
0.964407
0.964407
0.964406
0.964405
0.964405
0.964405
0.964404
0.964404