<?xml version="1.0"?>
<VTKFile type="UnstructuredGrid" version="0.1" byte_order="LittleEndian">
<UnstructuredGrid>
<Piece NumberOfPoints="5000" NumberOfCells="4000">
<PointData Scalars="Reaction 0">
<DataArray type="Float32" Name="Reaction 0" format="ascii">
0.979912
0.979912
0.979912
0.979912
0.979912
0.979912
0.979912
0.979912
0.979912
0.979912
0.979912
0.979912
0.979912
0.979912
0.979912
0.979912
0.979912
0.979912
0.979912
0.979912
0.979912
0.979912
0.979912
0.979912
0.979912
0.979912
0.979912
0.979912
0.979912
0.979912
0.979912
0.979912
0.979912
0.979912
0.979912
0.979912
0.979912
0.979912
0.979912
0.979912
0.979912
0.979912
0.979912
0.979912
0.979912
0.979912
0.979912
0.979912
0.979912
0.979912
0.979912
0.979912
0.979912
0.979912
0.979912
0.979912
0.979912
0.979912
0.979912
0.979911
0.979911
0.979911
0.979911
0.979911
0.979911
0.979911
0.979911
0.979911
0.979911
0.979911
0.979911
0.979911
0.979911
0.979911
0.979911
0.979911
0.979911
0.979911
0.979911
0.979911
0.979911
0.979911
0.979911
0.979911
0.979911
0.979911
0.979911
0.979911
0.979911
0.979911
0.979911
0.979911
0.979911
0.979911
0.979911
0.979911
0.979911
0.979911
0.97991
0.97991
0.97991
0.97991
0.97991
0.97991
0.97991
0.97991
0.97991
0.97991
0.97991
0.97991
0.97991
0.97991
0.97991
0.97991
0.97991
0.97991
0.97991
0.97991
0.97991
0.97991
0.97991
0.97991
0.97991
0.97991
0.979909
0.979909
0.979909
0.979909
0.979909
0.979909
0.979909
0.979909
0.979909
0.979909
0.979909
0.979909
0.979909
0.979909
0.979909
0.979909
0.979909
0.979909
0.979909
0.979909
0.979909
0.979909
0.979909
0.979908
0.979908
0.979908
0.979908
0.979908
0.979908
0.979908
0.979908
0.979908
0.979908
0.979908
0.979908
0.979908
0.979908
0.979908
0.979908
0.979908
0.979908
0.979908
0.979908
0.979907
0.979907
0.979907
0.979907
0.979907
0.979907
0.979907
0.979907
0.979907
0.979907
0.979907
0.979907
0.979907
0.979907
0.979907
0.979907
0.979906
0.979906
0.979906
0.979906
0.979906
0.979906
0.979906
0.979906
0.979906
0.979906
0.979906
0.979906
0.979906
0.979906
0.979906
0.979906
0.979905
0.979905
0.979905
0.979905
0.979905
0.979905
0.979905
0.979905
0.979905
0.979905
0.979905
0.979905
0.979905
0.979905
0.979905
0.979904
0.979904
0.979904
0.979904
0.979904
0.979904
0.979904
0.979904
0.979904
0.979904
0.979904
0.979904
0.979904
0.979904
0.979903
0.979903
0.979903
0.979903
0.979903
0.979903
0.979903
0.979903
0.979903
0.979903
0.979903
0.979903
0.979903
0.979902
0.979902
0.979902
0.979902
0.979902
0.979902
0.979902
0.979902
0.979902
0.979902
0.979902
0.979902
0.979901
0.979901
0.979901
0.979901
0.979901
0.979901
0.979901
0.979901
0.979901
0.979901
0.979901
0.9799
0.9799
0.9799
0.9799
0.9799
0.9799
0.9799
0.9799
0.9799
0.9799
0.9799
0.9799
0.979899
0.979899
0.979899
0.979899
0.979899
0.979899
0.979899
0.979899
0.979899
0.979899
0.979899
0.979898
0.979898
0.979898
0.979898
0.979898
0.979898
0.979898
0.979898
0.979898
0.979898
0.979897
0.979897
0.979897
0.979897
0.979897
0.979897
0.979897
0.979897
0.979897
0.979897
0.979896
0.979896
0.979896
0.979896
0.979896
0.979896
0.979896
0.979896
0.979896
0.979896
0.979895
0.979895
0.979895
0.979895
0.979895
0.979895
0.979895
0.979895
0.979895
0.979894
0.979894
0.979894
0.979894
0.979894
0.979894
0.979894
0.979894
0.979894
0.979894
0.979893
0.979893
0.979893
0.979893
0.979893
0.979893
0.979893
0.979893
0.979892
0.979892
0.979892
0.979892
0.979892
0.979892
0.979892
0.979892
0.979892
0.979891
0.979891
0.979891
0.979891
0.979891
0.979891
0.979891
0.979891
0.979891
0.97989
0.97989
0.97989
0.97989
0.97989
0.97989
0.97989
0.979889
0.979889
0.979889
0.979889
0.979889
0.979889
0.979889
0.979889
0.979889
0.979888
0.979888
0.979888
0.979888
0.979888
0.979888
0.979888
0.979888
0.979887
0.979887
0.979887
0.979887
0.979887
0.979887
0.979887
0.979886
0.979886
0.979886
0.979886
0.979886
0.979886
0.979886
0.979886
0.979885
0.979885
0.979885
0.979885
0.979885
0.979885
0.979885
0.979884
0.979884
0.979884
0.979884
0.979884
0.979884
0.979884
0.979884
0.979883
0.979883
0.979883
0.979883
0.979883
0.979883
0.979883
0.979882
0.979882
0.979882
0.979882
0.979882
0.979882
0.979881
0.979881
0.979881
0.979881
0.979881
0.979881
0.979881
0.979881
0.97988
0.97988
0.97988
0.97988
0.97988
0.97988
0.979879
0.979879
0.979879
0.979879
0.979879
0.979879
0.979879
0.979879
0.979878
0.979878
0.979878
0.979878
0.979878
0.979878
0.979877
0.979877
0.979877
0.979877
0.979877
0.979877
0.979876
0.979876
0.979876
0.979876
0.979876
0.979876
0.979875
0.979875
0.979875
0.979875
0.979875
0.979875
0.979875
0.979874
0.979874
0.979874
0.979874
0.979874
0.979874
0.979873
0.979873
0.979873
0.979873
0.979873
0.979873
0.979872
0.979872
0.979872
0.979872
0.979872
0.979872
0.979871
0.979871
0.979871
0.979871
0.979871
0.979871
0.979871
0.97987
0.97987
0.97987
0.97987
0.97987
0.97987
0.979869
0.979869
0.979869
0.979869
0.979869
0.979868
0.979868
0.979868
0.979868
0.979868
0.979868
0.979867
0.979867
0.979867
0.979867
0.979867
0.979867
0.979866
0.979866
0.979866
0.979866
0.979866
0.979866
0.979866
0.979865
0.979865
0.979865
0.979865
0.979865
0.979864
0.979864
0.979864
0.979864
0.979864
0.979864
0.979863
0.979863
0.979863
0.979863
0.979863
0.979862
0.979862
0.979862
0.979862
0.979862
0.979862
0.979861
0.979861
0.979861
0.979861
0.979861
0.97986
0.97986
0.97986
0.97986
0.97986
0.979859
0.979859
0.979859
0.979859
0.979859
0.979859
0.979858
0.979858
0.979858
0.979858
0.979858
0.979857
0.979857
0.979857
0.979857
0.979857
0.979856
0.979856
0.979856
0.979856
0.979856
0.979855
0.979855
0.979855
0.979855
0.979855
0.979854
0.979854
0.979854
0.979854
0.979854
0.979853
0.979853
0.979853
0.979853
0.979853
0.979852
0.979852
0.979852
0.979852
0.979852
0.979851
0.979851
0.979851
0.979851
0.979851
0.97985
0.97985
0.97985
0.97985
0.97985
0.979849
0.979849
0.979849
0.979849
0.979849
0.979848
0.979848
0.979848
0.979848
0.979848
0.979847
0.979847
0.979847
0.979847
0.979847
0.979846
0.979846
0.979846
0.979846
0.979846
0.979845
0.979845
0.979845
0.979845
0.979845
0.979844
0.979844
0.979844
0.979844
0.979843
0.979843
0.979843
0.979843
0.979843
0.979842
0.979842
0.979842
0.979842
0.979842
0.979841
0.979841
0.979841
0.979841
0.97984
0.97984
0.97984
0.97984
0.97984
0.979839
0.979839
0.979839
0.979839
0.979839
0.979838
0.979838
0.979838
0.979838
0.979837
0.979837
0.979837
0.979837
0.979837
0.979836
0.979836
0.979836
0.979836
0.979836
0.979835
0.979835
0.979835
0.979834
0.979834
0.979834
0.979834
0.979834
0.979833
0.979833
0.979833
0.979833
0.979832
0.979832
0.979832
0.979832
0.979832
0.979831
0.979831
0.979831
0.979831
0.97983
0.97983
0.97983
0.97983
0.979829
0.979829
0.979829
0.979829
0.979829
0.979828
0.979828
0.979828
0.979827
0.979827
0.979827
0.979827
0.979827
0.979826
0.979826
0.979826
0.979826
0.979825
0.979825
0.979825
0.979825
0.979824
0.979824
0.979824
0.979824
0.979824
0.979823
0.979823
0.979823
0.979823
0.979822
0.979822
0.979822
0.979821
0.979821
0.979821
0.979821
0.97982
0.97982
0.97982
0.97982
0.97982
0.979819
0.979819
0.979819
0.979819
0.979818
0.979818
0.979818
0.979818
0.979817
0.979817
0.979817
0.979816
0.979816
0.979816
0.979816
0.979815
0.979815
0.979815
0.979815
0.979814
0.979814
0.979814
0.979814
0.979814
0.979813
0.979813
0.979813
0.979813
0.979812
0.979812
0.979812
0.979811
0.979811
0.979811
0.979811
0.97981
0.97981
0.97981
0.97981
0.979809
0.979809
0.979809
0.979809
0.979808
0.979808
0.979808
0.979807
0.979807
0.979807
0.979807
0.979806
0.979806
0.979806
0.979806
0.979805
0.979805
0.979805
0.979805
0.979804
0.979804
0.979804
0.979803
0.979803
0.979803
0.979803
0.979802
0.979802
0.979802
0.979802
0.979801
0.979801
0.979801
0.979801
0.9798
0.9798
0.9798
0.979799
0.979799
0.979799
0.979799
0.979798
0.979798
0.979798
0.979798
0.979797
0.979797
0.979797
0.979797
0.979796
0.979796
0.979796
0.979795
0.979795
0.979795
0.979794
0.979794
0.979794
0.979794
0.979793
0.979793
0.979793
0.979792
0.979792
0.979792
0.979792
0.979791
0.979791
0.979791
0.979791
0.97979
0.97979
0.97979
0.97979
0.979789
0.979789
0.979788
0.979788
0.979788
0.979788
0.979787
0.979787
0.979787
0.979787
0.979786
0.979786
0.979786
0.979785
0.979785
0.979785
0.979784
0.979784
0.979784
0.979784
0.979783
0.979783
0.979783
0.979782
0.979782
0.979782
0.979782
0.979781
0.979781
0.979781
0.97978
0.97978
0.97978
0.979779
0.979779
0.979779
0.979779
0.979778
0.979778
0.979778
0.979777
0.979777
0.979777
0.979776
0.979776
0.979776
0.979776
0.979775
0.979775
0.979775
0.979774
0.979774
0.979774
0.979773
0.979773
0.979773
0.979773
0.979772
0.979772
0.979772
0.979771
0.979771
0.979771
0.97977
0.97977
0.97977
0.97977
0.979769
0.979769
0.979769
0.979768
0.979768
0.979768
0.979767
0.979767
0.979767
0.979766
0.979766
0.979766
0.979766
0.979765
0.979765
0.979764
0.979764
0.979764
0.979764
0.979763
0.979763
0.979762
0.979762
0.979762
0.979762
0.979761
0.979761
0.979761
0.979761
0.97976
0.97976
0.979759
0.979759
0.979759
0.979759
0.979758
0.979758
0.979758
0.979757
0.979757
0.979757
0.979756
0.979756
0.979756
0.979755
0.979755
0.979755
0.979755
0.979754
0.979754
0.979753
0.979753
0.979753
0.979752
0.979752
0.979752
0.979751
0.979751
0.979751
0.97975
0.97975
0.97975
0.97975
0.979749
0.979749
0.979748
0.979748
0.979748
0.979748
0.979747
0.979747
0.979746
0.979746
0.979746
0.979745
0.979745
0.979745
0.979745
0.979744
0.979744
0.979743
0.979743
0.979743
0.979743
0.979742
0.979742
0.979741
0.979741
0.979741
0.97974
0.97974
0.97974
0.97974
0.979739
0.979739
0.979738
0.979738
0.979738
0.979737
0.979737
0.979737
0.979736
0.979736
0.979736
0.979735
0.979735
0.979734
0.979734
0.979734
0.979734
0.979733
0.979733
0.979733
0.979732
0.979732
0.979731
0.979731
0.979731
0.979731
0.97973
0.97973
0.979729
0.979729
0.979729
0.979728
0.979728
0.979728
0.979728
0.979727
0.979727
0.979726
0.979726
0.979726
0.979725
0.979725
0.979724
0.979724
0.979724
0.979724
0.979723
0.979723
0.979722
0.979722
0.979722
0.979721
0.979721
0.97972
0.97972
0.97972
0.979719
0.979719
0.979719
0.979719
0.979718
0.979718
0.979717
0.979717
0.979717
0.979716
0.979716
0.979715
0.979715
0.979715
0.979714
0.979714
0.979714
0.979713
0.979713
0.979713
0.979712
0.979712
0.979711
0.979711
0.979711
0.97971
0.97971
0.979709
0.979709
0.979709
0.979708
0.979708
0.979707
0.979707
0.979707
0.979706
0.979706
0.979706
0.979706
0.979705
0.979705
0.979704
0.979704
0.979704
0.979703
0.979703
0.979702
0.979702
0.979702
0.979701
0.979701
0.9797
0.9797
0.9797
0.979699
0.979699
0.979698
0.979698
0.979698
0.979698
0.979697
0.979697
0.979696
0.979696
0.979696
0.979695
0.979695
0.979694
0.979694
0.979694
0.979693
0.979693
0.979692
0.979692
0.979692
0.979691
0.979691
0.979691
0.979691
0.97969
0.97969
0.979689
0.979689
0.979689
0.979688
0.979688
0.979687
0.979687
0.979687
0.979686
0.979686
0.979685
0.979685
0.979685
0.979684
0.979684
0.979683
0.979683
0.979683
0.979682
0.979682
0.979681
0.979681
0.979681
0.979681
0.97968
0.97968
0.979679
0.979679
0.979679
0.979678
0.979678
0.979677
0.979677
0.979677
0.979676
0.979676
0.979675
0.979675
0.979675
0.979674
0.979674
0.979673
0.979673
0.979673
0.979672
0.979672
0.979671
0.979671
0.979671
0.97967
0.97967
0.979669
0.979669
0.979669
0.979668
0.979668
0.979667
0.979667
0.979667
0.979666
0.979666
0.979665
0.979665
0.979665
0.979664
0.979664
0.979663
0.979663
0.979663
0.979662
0.979662
0.979661
0.979661
0.979661
0.97966
0.979659
0.979659
0.979659
0.979658
0.979658
0.979657
0.979657
0.979657
0.979656
0.979656
0.979655
0.979655
0.979655
0.979654
0.979654
0.979653
0.979653
0.979653
0.979652
0.979652
0.979651
0.979651
0.979651
0.97965
0.97965
0.979649
0.979649
0.979649
0.979648
0.979648
0.979647
0.979646
0.979646
0.979646
0.979645
0.979645
0.979644
0.979644
0.979644
0.979643
0.979643
0.979642
0.979642
0.979642
0.979641
0.979641
0.97964
0.97964
0.97964
0.979639
0.979639
0.979638
0.979638
0.979637
0.979637
0.979636
0.979636
0.979636
0.979635
0.979635
0.979634
0.979634
0.979634
0.979633
0.979633
0.979632
0.979632
0.979632
0.979631
0.97963
0.97963
0.979629
0.979629
0.979629
0.979628
0.979628
0.979627
0.979627
0.979627
0.979626
0.979626
0.979625
0.979625
0.979624
0.979624
0.979623
0.979623
0.979623
0.979622
0.979622
0.979621
0.979621
0.979621
0.97962
0.979619
0.979619
0.979618
0.979618
0.979618
0.979617
0.979617
0.979616
0.979616
0.979616
0.979615
0.979614
0.979614
0.979614
0.979613
0.979613
0.979612
0.979612
0.979612
0.979611
0.979611
0.97961
0.979609
0.979609
0.979609
0.979608
0.979608
0.979607
0.979607
0.979607
0.979606
0.979606
0.979605
0.979605
0.979604
0.979604
0.979603
0.979603
0.979603
0.979602
0.979602
0.979601
0.9796
0.9796
0.9796
0.979599
0.979599
0.979598
0.979598
0.979598
0.979597
0.979596
0.979596
0.979596
0.979595
0.979595
0.979594
0.979594
0.979594
0.979593
0.979592
0.979592
0.979591
0.979591
0.979591
0.97959
0.979589
0.979589
0.979589
0.979588
0.979588
0.979587
0.979587
0.979587
0.979586
0.979585
0.979585
0.979584
0.979584
0.979584
0.979583
0.979582
0.979582
0.979582
0.979581
0.979581
0.97958
0.97958
0.97958
0.979579
0.979578
0.979578
0.979577
0.979577
0.979577
0.979576
0.979575
0.979575
0.979575
0.979574
0.979574
0.979573
0.979572
0.979572
0.979572
0.979571
0.979571
0.97957
0.97957
0.979569
0.979569
0.979568
0.979568
0.979568
0.979567
0.979566
0.979566
0.979565
0.979565
0.979565
0.979564
0.979563
0.979563
0.979563
0.979562
0.979562
0.979561
0.97956
0.97956
0.97956
0.979559
0.979558
0.979558
0.979558
0.979557
0.979557
0.979556
0.979555
0.979555
0.979555
0.979554
0.979554
0.979553
0.979553
0.979552
0.979552
0.979551
0.97955
0.97955
0.97955
0.979549
0.979549
0.979548
0.979548
0.979547
0.979547
0.979546
0.979545
0.979545
0.979545
0.979544
0.979544
0.979543
0.979543
0.979542
0.979542
0.979541
0.97954
0.97954
0.97954
0.979539
0.979538
0.979538
0.979538
0.979537
0.979537
0.979536
0.979535
0.979535
0.979535
0.979534
0.979533
0.979533
0.979533
0.979532
0.979531
0.979531
0.97953
0.97953
0.979529
0.979529
0.979528
0.979527
0.979527
0.979527
0.979526
0.979526
0.979525
0.979525
0.979524
0.979524
0.979523
0.979522
0.979522
0.979522
0.979521
0.979521
0.97952
0.97952
0.979519
0.979519
0.979518
0.979517
0.979517
0.979517
0.979516
0.979516
0.979515
0.979515
0.979514
0.979514
0.979513
0.979512
0.979512
0.979512
0.979511
0.97951
0.97951
0.97951
0.979509
0.979509
0.979508
0.979507
0.979507
0.979507
0.979506
0.979505
0.979505
0.979505
0.979504
0.979503
0.979503
0.979502
0.979502
0.979501
0.979501
0.9795
0.9795
0.9795
0.979499
0.979498
0.979498
0.979497
0.979497
0.979496
0.979496
0.979495
0.979494
0.979494
0.979494
0.979493
0.979492
0.979492
0.979492
0.979491
0.97949
0.97949
0.979489
0.979489
0.979488
0.979488
0.979487
0.979486
0.979486
0.979486
0.979485
0.979484
0.979484
0.979484
0.979483
0.979482
0.979482
0.979481
0.979481
0.97948
0.97948
0.979479
0.979478
0.979478
0.979478
0.979477
0.979476
0.979476
0.979476
0.979475
0.979474
0.979474
0.979473
0.979473
0.979472
0.979472
0.979471
0.97947
0.97947
0.979469
0.979469
0.979468
0.979467
0.979467
0.979467
0.979466
0.979465
0.979465
0.979465
0.979464
0.979463
0.979463
0.979462
0.979462
0.979461
0.979461
0.97946
0.979459
0.979459
0.979459
0.979458
0.979457
0.979456
0.979456
0.979456
0.979455
0.979454
0.979454
0.979454
0.979453
0.979452
0.979452
0.979451
0.979451
0.97945
0.979449
0.979449
0.979448
0.979448
0.979447
0.979447
0.979446
0.979445
0.979445
0.979445
0.979444
0.979443
0.979442
0.979442
0.979442
0.979441
0.97944
0.97944
0.97944
0.979439
0.979438
0.979438
0.979437
0.979437
0.979436
0.979435
0.979435
0.979434
0.979434
0.979433
0.979433
0.979432
0.979431
0.979431
0.97943
0.97943
0.979429
0.979428
0.979428
0.979428
0.979427
0.979426
0.979425
0.979425
0.979425
0.979424
0.979423
0.979423
0.979423
0.979422
0.979421
0.97942
0.97942
0.97942
0.979419
0.979418
0.979418
0.979417
0.979417
0.979416
0.979415
0.979415
0.979414
0.979414
0.979413
0.979413
0.979412
0.979411
0.979411
0.97941
0.97941
0.979409
0.979408
0.979408
0.979407
0.979407
0.979406
0.979405
0.979405
0.979404
0.979404
0.979403
0.979402
0.979402
0.979402
0.979401
0.9794
0.979399
0.979399
0.979399
0.979398
0.979397
0.979396
0.979396
0.979396
0.979395
0.979394
0.979393
0.979393
0.979393
0.979392
0.979391
0.97939
0.97939
0.97939
0.979389
0.979388
0.979387
0.979387
0.979387
0.979386
0.979385
0.979384
0.979384
0.979384
0.979383
0.979382
0.979381
0.979381
0.979381
0.97938
0.979379
0.979378
0.979378
0.979378
0.979377
0.979376
0.979375
0.979375
0.979375
0.979374
0.979373
0.979372
0.979372
0.979372
0.979371
0.97937
0.979369
0.979369
0.979369
0.979368
0.979367
0.979366
0.979366
0.979365
0.979365
0.979364
0.979363
0.979363
0.979362
0.979362
0.979361
0.97936
0.97936
0.979359
0.979358
0.979358
0.979357
0.979357
0.979356
0.979355
0.979354
0.979354
0.979354
0.979353
0.979352
0.979351
0.979351
0.979351
0.97935
0.979349
0.979348
0.979347
0.979347
0.979347
0.979346
0.979345
0.979344
0.979344
0.979344
0.979343
0.979342
0.979341
0.979341
0.979341
0.97934
0.979339
0.979338
0.979338
0.979338
0.979337
0.979336
0.979335
0.979335
0.979335
0.979334
0.979333
0.979332
0.979332
0.979331
0.979331
0.97933
0.979329
0.979329
0.979328
0.979328
0.979327
0.979326
0.979326
0.979325
0.979325
0.979324
0.979323
0.979323
0.979322
0.979321
0.979321
0.97932
0.97932
0.979319
0.979318
0.979318
0.979317
0.979317
0.979316
0.979315
0.979314
0.979314
0.979314
0.979313
0.979312
0.979311
0.97931
0.97931
0.97931
0.979309
0.979308
0.979307
0.979307
0.979306
0.979306
0.979305
0.979304
0.979304
0.979303
0.979302
0.979302
0.979301
0.979301
0.9793
0.979299
0.979298
0.979298
0.979298
0.979297
0.979296
0.979295
0.979294
0.979294
0.979294
0.979293
0.979292
0.979291
0.979291
0.97929
0.97929
0.979289
0.979288
0.979288
0.979287
0.979286
0.979286
0.979285
0.979285
0.979284
0.979283
0.979282
0.979281
0.979281
0.979281
0.97928
0.979279
0.979278
0.979278
0.979277
0.979277
0.979276
0.979275
0.979275
0.979274
0.979273
0.979272
0.979272
0.979272
0.979271
0.97927
0.979269
0.979268
0.979268
0.979267
0.979267
0.979266
0.979265
0.979265
0.979264
0.979263
0.979263
0.979262
0.979262
0.979261
0.97926
0.979259
0.979258
0.979258
0.979258
0.979257
0.979256
0.979255
0.979255
0.979254
0.979253
0.979253
0.979252
0.979252
0.979251
0.97925
0.979249
0.979248
0.979248
0.979248
0.979247
0.979246
0.979245
0.979245
0.979244
0.979243
0.979242
0.979242
0.979242
0.979241
0.97924
0.979239
0.979238
0.979238
0.979237
0.979237
0.979236
0.979235
0.979235
0.979234
0.979233
0.979232
0.979231
0.979231
0.979231
0.97923
0.979229
0.979228
0.979228
0.979227
0.979226
0.979225
0.979225
0.979225
0.979224
0.979223
0.979222
0.979221
0.979221
0.97922
0.979219
0.979219
0.979218
0.979218
0.979217
0.979216
0.979215
0.979214
0.979214
0.979213
0.979213
0.979212
0.979211
0.979211
0.97921
0.979209
0.979208
0.979207
0.979207
0.979207
0.979206
0.979205
0.979204
0.979204
0.979203
0.979202
0.979201
0.9792
0.9792
0.979199
0.979199
0.979198
0.979197
0.979197
0.979196
0.979195
0.979194
0.979193
0.979193
0.979192
0.979192
0.979191
0.97919
0.97919
0.979189
0.979188
0.979187
0.979186
0.979186
0.979185
0.979184
0.979183
0.979183
0.979183
0.979182
0.979181
0.97918
0.979179
0.979179
0.979178
0.979177
0.979176
0.979175
0.979175
0.979174
0.979174
0.979173
0.979172
0.979172
0.979171
0.97917
0.979169
0.979168
0.979168
0.979167
0.979166
0.979165
0.979165
0.979165
0.979164
0.979163
0.979162
0.979161
0.979161
0.97916
0.979159
0.979158
0.979158
0.979158
0.979157
0.979156
0.979155
0.979154
0.979154
0.979153
0.979152
0.979151
0.979151
0.979151
0.97915
0.979149
0.979148
0.979147
0.979147
0.979146
0.979145
0.979144
0.979144
0.979144
0.979143
0.979142
0.979141
0.97914
0.97914
0.979139
0.979138
0.979137
0.979136
0.979136
0.979135
0.979135
0.979134
0.979133
0.979133
0.979132
0.979131
0.97913
0.979129
0.979129
0.979128
0.979127
0.979126
0.979126
0.979126
0.979125
0.979124
0.979123
0.979122
0.979122
0.979121
0.97912
0.979119
0.979118
0.979118
0.979117
0.979116
0.979116
0.979115
0.979115
0.979114
0.979113
0.979112
0.979111
0.979111
0.97911
0.979109
0.979108
0.979107
0.979107
0.979106
0.979105
0.979104
0.979104
0.979104
0.979103
0.979102
0.979101
0.9791
0.9791
0.979099
0.979098
0.979097
0.979096
0.979096
0.979095
0.979094
0.979093
0.979092
0.979092
0.979091
0.97909
0.97909
0.979089
0.979089
0.979088
0.979087
0.979086
0.979085
0.979085
0.979084
0.979083
0.979082
0.979081
0.979081
0.97908
0.979079
0.979078
0.979077
0.979077
0.979076
0.979075
0.979075
0.979074
0.979074
0.979073
0.979072
0.979071
0.97907
0.97907
0.979069
0.979068
0.979067
0.979066
0.979066
0.979065
0.979064
0.979063
0.979062
0.979062
0.979061
0.97906
0.979059
0.979058
0.979058
0.979057
0.979056
0.979055
0.979055
0.979055
0.979054
0.979053
0.979052
0.979051
0.979051
0.97905
0.979049
0.979048
0.979047
0.979047
0.979046
0.979045
0.979044
0.979043
0.979043
0.979042
0.979041
0.97904
0.979039
0.979039
0.979038
0.979037
0.979036
0.979035
0.979035
0.979034
0.979033
0.979032
0.979031
0.979031
0.97903
0.979029
0.979028
0.979027
0.979027
0.979026
0.979025
0.979024
0.979023
0.979023
0.979022
0.979021
0.979021
0.97902
0.97902
0.979019
0.979018
0.979017
0.979016
0.979016
0.979015
0.979014
0.979013
0.979012
0.979012
0.979011
0.97901
0.979009
0.979008
0.979008
0.979007
0.979006
0.979005
0.979004
0.979004
0.979002
0.979001
0.979
0.978999
0.978999
0.978998
0.978997
0.978996
0.978995
0.978995
0.978994
0.978993
0.978992
0.978991
0.978991
0.97899
0.978989
0.978988
0.978987
0.978987
0.978986
0.978985
0.978984
0.978983
0.978983
0.978982
0.978981
0.97898
0.978979
0.978979
0.978979
0.978978
0.978977
0.978976
0.978976
0.978975
0.978974
0.978973
0.978972
0.978972
0.978971
0.97897
0.978969
0.978968
0.978968
0.978967
0.978966
0.978965
0.978964
0.978964
0.978963
0.978962
0.978961
0.97896
0.97896
0.978959
0.978958
0.978957
0.978956
0.978956
0.978955
0.978954
0.978953
0.978952
0.978952
0.978951
0.97895
0.978949
0.978948
0.978948
0.978947
0.978946
0.978945
0.978944
0.978944
0.978943
0.978942
0.978941
0.97894
0.97894
0.978939
0.978938
0.978937
0.978936
0.978936
0.978935
0.978934
0.978933
0.978932
0.978932
0.978931
0.97893
0.978929
0.978928
0.978928
0.978927
0.978926
0.978924
0.978923
0.978923
0.978922
0.978921
0.97892
0.978919
0.978919
0.978918
0.978917
0.978916
0.978915
0.978915
0.978914
0.978913
0.978912
0.978911
0.978911
0.97891
0.978909
0.978908
0.978907
0.978907
0.978906
0.978905
0.978904
0.978903
0.978903
0.978902
0.978901
0.9789
0.978899
0.978899
0.978898
0.978897
0.978896
0.978894
0.978894
0.978893
0.978892
0.978891
0.97889
0.97889
0.978889
0.978888
0.978887
0.978886
0.978886
0.978885
0.978884
0.978883
0.978882
0.978882
0.978881
0.97888
0.978879
0.978878
0.978878
0.978877
0.978876
0.978874
0.978873
0.978873
0.978872
0.978871
0.97887
0.978869
0.978869
0.978868
0.978867
0.978866
0.978865
0.978865
0.978864
0.978863
0.978862
0.978861
0.978861
0.97886
0.978859
0.978857
0.978856
0.978856
0.978855
0.978854
0.978853
0.978852
0.978852
0.978851
0.97885
0.978849
0.978848
0.978848
0.978847
0.978846
0.978845
0.978843
0.978843
0.978842
0.978841
0.97884
0.978839
0.978839
0.978838
0.978837
0.978836
0.978835
0.978835
0.978834
0.978833
0.978831
0.97883
0.97883
0.978829
0.978828
0.978827
0.978826
0.978826
0.978825
0.978824
0.978823
0.978821
0.978821
0.97882
0.978819
0.978818
0.978817
0.978817
0.978816
0.978815
0.978814
0.978813
0.978813
0.978811
0.97881
0.978809
0.978808
0.978808
0.978807
0.978806
0.978805
0.978804
0.978804
0.978803
0.978802
0.978801
0.978799
0.978799
0.978798
0.978797
0.978796
0.978795
0.978795
0.978794
0.978793
0.978792
0.978791
0.978791
0.97879
0.978789
0.978788
0.978787
0.978787
0.978786
0.978784
0.978783
0.978782
0.978782
0.978781
0.97878
0.978779
0.978778
0.978778
0.978777
0.978776
0.978775
0.978774
0.978774
0.978773
0.978771
0.97877
0.978769
0.978769
0.978768
0.978767
0.978766
0.978765
0.978765
0.978764
0.978763
0.978762
0.97876
0.97876
0.978759
0.978758
0.978757
0.978756
0.978756
0.978755
0.978754
0.978753
0.978752
0.978752
0.97875
0.978749
0.978748
0.978747
0.978747
0.978746
0.978745
0.978744
0.978743
0.978743
0.978742
0.97874
0.978739
0.978738
0.978738
0.978737
0.978736
0.978735
0.978734
0.978734
0.978733
0.978731
0.97873
0.978729
0.978729
0.978728
0.978727
0.978726
0.978725
0.978725
0.978724
0.978722
0.978721
0.97872
0.97872
0.978719
0.978718
0.978717
0.978716
0.978716
0.978714
0.978713
0.978712
0.978711
0.978711
0.97871
0.978709
0.978708
0.978706
0.978706
0.978705
0.978704
0.978703
0.978702
0.978702
0.978701
0.9787
0.978698
0.978697
0.978697
0.978696
0.978695
0.978694
0.978693
0.978693
0.978692
0.97869
0.978689
0.978688
0.978688
0.978687
0.978686
0.978685
0.978683
0.978683
0.978682
0.978681
0.97868
0.978679
0.978679
0.978678
0.978677
0.978675
0.978674
0.978674
0.978673
0.978672
0.978671
0.978669
0.978669
0.978668
0.978667
0.978666
0.978665
0.978665
0.978664
0.978662
0.978661
0.97866
0.97866
0.978659
0.978658
0.978657
0.978655
0.978655
0.978654
0.978653
0.978652
0.978651
0.978651
0.978649
0.978648
0.978647
0.978646
0.978646
0.978645
0.978643
0.978642
0.978641
0.978641
0.97864
0.978639
0.978637
0.978636
0.978636
0.978635
0.978634
0.978633
0.978631
0.978631
0.97863
0.978629
0.978628
0.978627
0.978627
0.978625
0.978624
0.978623
0.978622
0.978622
0.978621
0.97862
0.978618
0.978617
0.978617
0.978616
0.978615
0.978614
0.978613
0.978613
0.978611
0.97861
0.978609
0.978608
0.978608
0.978607
0.978606
0.978604
0.978603
0.978603
0.978602
0.978601
0.9786
0.978599
0.978599
0.978597
0.978596
0.978595
0.978594
0.978594
0.978593
0.978592
0.97859
0.978589
0.978589
0.978588
0.978587
0.978586
0.978584
0.978584
0.978583
0.978582
0.978581
0.97858
0.97858
0.978579
0.978577
0.978576
0.978575
0.978575
0.978574
0.978573
0.978571
0.97857
0.97857
0.978569
0.978568
0.978567
0.978565
0.978565
0.978564
0.978563
0.978562
0.978561
0.978561
0.978559
0.978558
0.978557
0.978556
0.978556
0.978555
0.978553
0.978552
0.978551
0.978551
0.97855
0.978548
0.978547
0.978546
0.978546
0.978545
0.978544
0.978542
0.978541
0.978541
0.97854
0.978539
0.978537
0.978536
0.978536
0.978535
0.978534
0.978533
0.978531
0.978531
0.97853
0.978529
0.978528
0.978526
0.978526
0.978525
0.978524
0.978523
0.978522
0.978522
0.97852
0.978519
0.978518
0.978517
0.978517
0.978515
0.978514
0.978513
0.978512
0.978512
0.97851
0.978509
0.978508
0.978507
0.978507
0.978505
0.978504
0.978503
0.978502
0.978502
0.9785
0.978499
0.978498
0.978497
0.978497
0.978495
0.978494
0.978493
0.978492
0.978492
0.97849
0.978489
0.978488
0.978487
0.978487
0.978485
0.978484
0.978483
0.978482
0.978482
0.97848
0.978479
0.978478
0.978477
0.978477
0.978475
0.978474
0.978473
0.978471
0.978471
0.97847
0.978469
0.978468
0.978466
0.978466
0.978465
0.978464
0.978462
0.978461
0.978461
0.97846
0.978459
0.978457
0.978456
0.978456
0.978455
0.978453
0.978452
0.978451
0.978451
0.97845
0.978448
0.978447
0.978446
0.978446
0.978444
0.978443
0.978442
0.978441
0.978441
0.978439
0.978438
0.978437
0.978436
0.978436
0.978434
0.978433
0.978432
0.978431
0.978431
0.978429
0.978428
0.978427
0.978426
0.978426
0.978424
0.978423
0.978422
0.978421
0.978421
0.978419
0.978418
0.978417
0.978416
0.978416
0.978414
0.978413
0.978412
0.978411
0.978411
0.978409
0.978408
0.978407
0.978406
0.978406
0.978404
0.978403
0.978402
0.978401
0.978401
0.978399
0.978398
0.978397
0.978395
0.978395
0.978394
0.978393
0.978392
0.97839
0.97839
0.978389
0.978388
0.978387
0.978385
0.978385
0.978384
0.978383
0.978381
0.97838
0.97838
0.978379
0.978378
0.978376
0.978375
0.978375
0.978374
0.978372
0.978371
0.97837
0.97837
0.978368
0.978367
0.978366
0.978365
0.978365
0.978363
0.978362
0.978361
0.978359
0.978359
0.978358
0.978357
0.978355
0.978354
0.978354
0.978353
0.978352
0.97835
0.978349
0.978349
0.978348
0.978346
0.978345
0.978344
0.978344
0.978342
0.978341
0.97834
0.978338
0.978338
0.978337
0.978336
0.978335
0.978333
0.978333
0.978332
0.978331
0.978329
0.978328
0.978328
0.978327
0.978325
0.978324
0.978323
0.978323
0.978321
0.97832
0.978319
0.978317
0.978317
0.978316
0.978315
0.978313
0.978312
0.978312
0.978311
0.978309
0.978308
0.978307
0.978307
0.978305
0.978304
0.978303
0.978301
0.978301
0.9783
0.978299
0.978297
0.978296
0.978296
0.978294
0.978293
0.978292
0.97829
0.97829
0.978289
0.978288
0.978286
0.978285
0.978285
0.978284
0.978282
0.978281
0.978279
0.978279
0.978278
0.978277
0.978275
0.978274
0.978274
0.978273
0.978271
0.97827
0.978269
0.978269
0.978267
0.978266
0.978264
0.978263
0.978263
0.978262
0.97826
0.978259
0.978258
0.978258
0.978256
0.978255
0.978254
0.978252
0.978252
0.978251
0.97825
0.978248
0.978247
0.978247
0.978246
0.978244
0.978243
0.978242
0.978242
0.97824
0.978239
0.978238
0.978236
0.978236
0.978235
0.978234
0.978232
0.978231
0.978231
0.97823
0.978228
0.978227
0.978226
0.978226
0.978224
0.978223
0.978222
0.97822
0.97822
0.978219
0.978218
0.978216
0.978215
0.978215
0.978214
0.978212
0.978211
0.97821
0.97821
0.978208
0.978207
0.978206
0.978204
0.978204
0.978203
0.978201
0.9782
0.978199
0.978199
0.978197
0.978196
0.978195
0.978193
0.978193
0.978192
0.978191
0.978189
0.978188
0.978188
0.978186
0.978185
0.978184
0.978182
0.978182
0.978181
0.97818
0.978178
0.978177
0.978177
0.978175
0.978174
0.978173
0.978171
0.978171
0.97817
0.978168
0.978167
0.978166
0.978166
0.978164
0.978163
0.978162
0.97816
0.97816
0.978159
0.978157
0.978156
0.978155
0.978155
0.978153
0.978152
0.97815
0.978149
0.978149
0.978148
0.978146
0.978145
0.978143
0.978143
0.978142
0.978141
0.978139
0.978138
0.978138
0.978136
0.978135
0.978133
0.978132
0.978132
0.978131
0.978129
0.978128
0.978126
0.978126
0.978125
0.978124
0.978122
0.978121
0.978121
0.978119
0.978118
0.978116
0.978115
0.978115
0.978114
0.978112
0.978111
0.978109
0.978109
0.978108
0.978106
0.978105
0.978103
0.978103
0.978102
0.978101
0.978099
0.978098
0.978098
0.978096
0.978095
0.978093
0.978092
0.978092
0.97809
0.978089
0.978088
0.978086
0.978086
0.978085
0.978083
0.978082
0.97808
0.97808
0.978079
0.978077
0.978076
0.978075
0.978075
0.978073
0.978072
0.97807
0.978069
0.978069
0.978068
0.978066
0.978065
0.978063
0.978063
0.978062
0.978061
0.978059
0.978058
0.978058
0.978056
0.978055
0.978054
0.978052
0.978052
0.978051
0.978049
0.978048
0.978047
0.978047
0.978045
0.978044
0.978042
0.978041
0.978041
0.978039
0.978038
0.978037
0.978035
0.978035
0.978034
0.978032
0.978031
0.97803
0.97803
0.978028
0.978027
0.978025
0.978024
0.978024
0.978022
0.978021
0.978019
0.978018