<?xml version="1.0"?>
<VTKFile type="UnstructuredGrid" version="0.1" byte_order="LittleEndian">
<UnstructuredGrid>
<Piece NumberOfPoints="5000" NumberOfCells="4000">
<PointData Scalars="Reaction 0">
<DataArray type="Float32" Name="Reaction 0" format="ascii">
0.832008
0.832008
0.832008
0.832008
0.832008
0.832008
0.832008
0.832008
0.832008
0.832008
0.832008
0.832008
0.832008
0.832008
0.832008
0.832008
0.832008
0.832008
0.832008
0.832008
0.832008
0.832008
0.832008
0.832008
0.832008
0.832008
0.832008
0.832008
0.832008
0.832008
0.832008
0.832008
0.832009
0.832009
0.832009
0.832009
0.832009
0.832009
0.832009
0.832009
0.832009
0.832009
0.832009
0.832009
0.832009
0.832009
0.832009
0.832009
0.832009
0.832009
0.832009
0.832009
0.83201
0.83201
0.83201
0.83201
0.83201
0.83201
0.83201
0.83201
0.83201
0.83201
0.83201
0.83201
0.83201
0.83201
0.83201
0.832011
0.832011
0.832011
0.832011
0.832011
0.832011
0.832011
0.832011
0.832011
0.832011
0.832011
0.832011
0.832012
0.832012
0.832012
0.832012
0.832012
0.832012
0.832012
0.832012
0.832012
0.832012
0.832013
0.832013
0.832013
0.832013
0.832013
0.832013
0.832013
0.832013
0.832013
0.832013
0.832014
0.832014
0.832014
0.832014
0.832014
0.832014
0.832014
0.832014
0.832015
0.832015
0.832015
0.832015
0.832015
0.832015
0.832015
0.832015
0.832015
0.832016
0.832016
0.832016
0.832016
0.832016
0.832016
0.832016
0.832017
0.832017
0.832017
0.832017
0.832017
0.832017
0.832018
0.832018
0.832018
0.832018
0.832018
0.832018
0.832018
0.832019
0.832019
0.832019
0.832019
0.832019
0.832019
0.83202
0.83202
0.83202
0.83202
0.83202
0.83202
0.832021
0.832021
0.832021
0.832021
0.832021
0.832021
0.832022
0.832022
0.832022
0.832022
0.832022
0.832023
0.832023
0.832023
0.832023
0.832023
0.832023
0.832023
0.832024
0.832024
0.832024
0.832024
0.832024
0.832025
0.832025
0.832025
0.832025
0.832025
0.832026
0.832026
0.832026
0.832026
0.832026
0.832027
0.832027
0.832027
0.832027
0.832027
0.832028
0.832028
0.832028
0.832029
0.832029
0.832029
0.832029
0.832029
0.83203
0.83203
0.83203
0.83203
0.83203
0.832031
0.832031
0.832031
0.832031
0.832032
0.832032
0.832032
0.832032
0.832032
0.832033
0.832033
0.832033
0.832033
0.832034
0.832034
0.832034
0.832034
0.832035
0.832035
0.832035
0.832036
0.832036
0.832036
0.832036
0.832036
0.832037
0.832037
0.832037
0.832037
0.832038
0.832038
0.832038
0.832038
0.832039
0.832039
0.832039
0.832039
0.83204
0.83204
0.83204
0.832041
0.832041
0.832041
0.832041
0.832042
0.832042
0.832042
0.832043
0.832043
0.832043
0.832044
0.832044
0.832044
0.832044
0.832045
0.832045
0.832045
0.832045
0.832046
0.832046
0.832046
0.832046
0.832047
0.832047
0.832048
0.832048
0.832048
0.832048
0.832049
0.832049
0.83205
0.83205
0.83205
0.83205
0.832051
0.832051
0.832051
0.832051
0.832052
0.832052
0.832053
0.832053
0.832053
0.832053
0.832054
0.832054
0.832054
0.832055
0.832055
0.832055
0.832056
0.832056
0.832056
0.832057
0.832057
0.832058
0.832058
0.832058
0.832058
0.832059
0.832059
0.832059
0.83206
0.83206
0.832061
0.832061
0.832061
0.832061
0.832062
0.832062
0.832063
0.832063
0.832063
0.832064
0.832064
0.832065
0.832065
0.832065
0.832065
0.832066
0.832066
0.832066
0.832067
0.832067
0.832068
0.832068
0.832068
0.832069
0.832069
0.83207
0.83207
0.83207
0.832071
0.832071
0.832071
0.832072
0.832072
0.832072
0.832073
0.832073
0.832074
0.832074
0.832074
0.832075
0.832075
0.832076
0.832076
0.832076
0.832077
0.832077
0.832078
0.832078
0.832078
0.832079
0.832079
0.83208
0.83208
0.83208
0.832081
0.832081
0.832082
0.832082
0.832082
0.832083
0.832083
0.832084
0.832084
0.832084
0.832085
0.832085
0.832086
0.832086
0.832087
0.832087
0.832088
0.832088
0.832088
0.832089
0.832089
0.83209
0.83209
0.83209
0.832091
0.832091
0.832092
0.832092
0.832092
0.832093
0.832094
0.832094
0.832095
0.832095
0.832095
0.832096
0.832096
0.832097
0.832097
0.832097
0.832098
0.832099
0.832099
0.832099
0.8321
0.8321
0.832101
0.832101
0.832101
0.832102
0.832103
0.832103
0.832104
0.832104
0.832104
0.832105
0.832106
0.832106
0.832106
0.832107
0.832107
0.832108
0.832109
0.832109
0.832109
0.83211
0.83211
0.832111
0.832111
0.832112
0.832112
0.832113
0.832113
0.832113
0.832114
0.832115
0.832115
0.832116
0.832116
0.832116
0.832117
0.832118
0.832118
0.832118
0.832119
0.83212
0.83212
0.832121
0.832121
0.832121
0.832122
0.832123
0.832123
0.832123
0.832124
0.832125
0.832125
0.832126
0.832126
0.832127
0.832127
0.832128
0.832129
0.832129
0.832129
0.83213
0.832131
0.832131
0.832131
0.832132
0.832132
0.832133
0.832134
0.832134
0.832134
0.832135
0.832136
0.832136
0.832136
0.832137
0.832138
0.832138
0.832139
0.832139
0.83214
0.83214
0.832141
0.832142
0.832142
0.832143
0.832143
0.832144
0.832145
0.832145
0.832145
0.832146
0.832147
0.832147
0.832147
0.832148
0.832149
0.83215
0.83215
0.83215
0.832151
0.832152
0.832152
0.832153
0.832153
0.832154
0.832155
0.832155
0.832156
0.832156
0.832157
0.832158
0.832158
0.832159
0.832159
0.83216
0.83216
0.832161
0.832162
0.832162
0.832163
0.832163
0.832164
0.832165
0.832165
0.832166
0.832166
0.832167
0.832168
0.832168
0.832169
0.832169
0.83217
0.832171
0.832171
0.832172
0.832172
0.832173
0.832174
0.832174
0.832175
0.832176
0.832176
0.832177
0.832177
0.832178
0.832179
0.832179
0.83218
0.83218
0.832181
0.832182
0.832183
0.832183
0.832183
0.832184
0.832185
0.832186
0.832186
0.832186
0.832187
0.832188
0.832189
0.83219
0.83219
0.83219
0.832191
0.832192
0.832193
0.832193
0.832194
0.832195
0.832195
0.832196
0.832196
0.832197
0.832198
0.832199
0.832199
0.832199
0.8322
0.832201
0.832202
0.832203
0.832203
0.832204
0.832204
0.832205
0.832206
0.832206
0.832207
0.832208
0.832209
0.832209
0.832209
0.83221
0.832211
0.832212
0.832213
0.832213
0.832214
0.832214
0.832215
0.832216
0.832216
0.832217
0.832218
0.832219
0.83222
0.83222
0.83222
0.832221
0.832222
0.832223
0.832223
0.832224
0.832225
0.832226
0.832227
0.832227
0.832227
0.832228
0.832229
0.83223
0.83223
0.832231
0.832232
0.832233
0.832234
0.832234
0.832235
0.832235
0.832236
0.832237
0.832237
0.832238
0.832239
0.83224
0.832241
0.832241
0.832242
0.832243
0.832244
0.832244
0.832244
0.832245
0.832246
0.832247
0.832248
0.832248
0.832249
0.83225
0.832251
0.832252
0.832252
0.832253
0.832254
0.832255
0.832256
0.832256
0.832257
0.832257
0.832258
0.832259
0.832259
0.83226
0.832261
0.832262
0.832263
0.832263
0.832264
0.832265
0.832266
0.832267
0.832267
0.832268
0.832269
0.83227
0.832271
0.832271
0.832272
0.832273
0.832274
0.832275
0.832275
0.832276
0.832277
0.832278
0.832279
0.832279
0.832279
0.83228
0.832281
0.832282
0.832282
0.832283
0.832284
0.832285
0.832286
0.832286
0.832287
0.832288
0.832289
0.83229
0.83229
0.832291
0.832292
0.832293
0.832294
0.832294
0.832295
0.832296
0.832297
0.832298
0.832298
0.832299
0.8323
0.832301
0.832302
0.832302
0.832303
0.832305
0.832306
0.832307
0.832307
0.832308
0.832309
0.83231
0.832311
0.832311
0.832312
0.832313
0.832314
0.832315
0.832315
0.832316
0.832317
0.832318
0.832319
0.832319
0.83232
0.832321
0.832322
0.832323
0.832323
0.832324
0.832325
0.832326
0.832327
0.832327
0.832328
0.83233
0.832331
0.832332
0.832332
0.832333
0.832334
0.832335
0.832336
0.832336
0.832337
0.832338
0.832339
0.83234
0.83234
0.832341
0.832342
0.832344
0.832345
0.832345
0.832346
0.832347
0.832348
0.832349
0.832349
0.83235
0.832351
0.832352
0.832353
0.832353
0.832355
0.832356
0.832357
0.832358
0.832358
0.832359
0.83236
0.832361
0.832362
0.832362
0.832363
0.832365
0.832366
0.832367
0.832367
0.832368
0.832369
0.83237
0.832371
0.832371
0.832372
0.832374
0.832375
0.832376
0.832376
0.832377
0.832378
0.832379
0.83238
0.83238
0.832382
0.832383
0.832384
0.832385
0.832385
0.832386
0.832387
0.832388
0.83239
0.83239
0.832391
0.832392
0.832393
0.832394
0.832394
0.832395
0.832397
0.832398
0.832399
0.832399
0.8324
0.832401
0.832402
0.832404
0.832404
0.832405
0.832406
0.832407
0.832408
0.832408
0.83241
0.832411
0.832412
0.832413
0.832413
0.832414
0.832416
0.832417
0.832418
0.832418
0.832419
0.83242
0.832422
0.832423
0.832423
0.832424
0.832425
0.832426
0.832428
0.832428
0.832429
0.83243
0.832431
0.832433
0.832433
0.832434
0.832435
0.832436
0.832437
0.832437
0.832439
0.83244
0.832441
0.832442
0.832442
0.832444
0.832445
0.832446
0.832447
0.832447
0.832449
0.83245
0.832451
0.832452
0.832452
0.832454
0.832455
0.832456
0.832457
0.832457
0.832459
0.83246
0.832461
0.832462
0.832462
0.832464
0.832465
0.832466
0.832467
0.832467
0.832469
0.83247
0.832471
0.832473
0.832473
0.832474
0.832475
0.832476
0.832478
0.832478
0.832479
0.83248
0.832482
0.832483
0.832483
0.832484
0.832485
0.832487
0.832488
0.832488
0.832489
0.832491
0.832492
0.832493
0.832493
0.832495
0.832496
0.832497
0.832498
0.832498
0.8325
0.832501
0.832502
0.832504
0.832504
0.832505
0.832506
0.832508
0.832509
0.832509
0.83251
0.832512
0.832513
0.832514
0.832514
0.832516
0.832517
0.832518
0.83252
0.83252
0.832521
0.832522
0.832524
0.832525
0.832525
0.832526
0.832528
0.832529
0.832531
0.832531
0.832532
0.832533
0.832535
0.832536
0.832536
0.832537
0.832539
0.83254
0.832541
0.832541
0.832543
0.832544
0.832546
0.832547
0.832547
0.832548
0.83255
0.832551
0.832552
0.832552
0.832554
0.832555
0.832557
0.832558
0.832558
0.832559
0.832561
0.832562
0.832564
0.832564
0.832565
0.832566
0.832568
0.832569
0.832569
0.832571
0.832572
0.832573
0.832575
0.832575
0.832576
0.832578
0.832579
0.832581
0.832581
0.832582
0.832583
0.832585
0.832586
0.832586
0.832588
0.832589
0.83259
0.832592
0.832592
0.832593
0.832595
0.832596
0.832598
0.832598
0.832599
0.832601
0.832602
0.832603
0.832603
0.832605
0.832606
0.832608
0.832609
0.832609
0.832611
0.832612
0.832614
0.832615
0.832615
0.832617
0.832618
0.832619
0.832621
0.832621
0.832622
0.832624
0.832625
0.832627
0.832627
0.832628
0.83263
0.832631
0.832633
0.832633
0.832634
0.832636
0.832637
0.832639
0.832639
0.83264
0.832642
0.832643
0.832645
0.832645
0.832646
0.832648
0.832649
0.832651
0.832651
0.832652
0.832654
0.832655
0.832657
0.832657
0.832658
0.83266
0.832661
0.832663
0.832663
0.832664
0.832666
0.832667
0.832669
0.832669
0.83267
0.832672
0.832673
0.832675
0.832675
0.832676
0.832678
0.832679
0.832681
0.832681
0.832683
0.832684
0.832686
0.832687
0.832687
0.832689
0.83269
0.832692
0.832693
0.832693
0.832695
0.832696
0.832698
0.832699
0.832699
0.832701
0.832703
0.832704
0.832706
0.832706
0.832707
0.832709
0.83271
0.832712
0.832712
0.832713
0.832715
0.832717
0.832718
0.832718
0.83272
0.832721
0.832723
0.832724
0.832724
0.832726
0.832728
0.832729
0.832731
0.832731
0.832732
0.832734
0.832736
0.832737
0.832737
0.832739
0.83274
0.832742
0.832744
0.832744
0.832745
0.832747
0.832748
0.83275
0.83275
0.832752
0.832753
0.832755
0.832757
0.832757
0.832758
0.83276
0.832761
0.832763
0.832763
0.832765
0.832766
0.832768
0.83277
0.83277
0.832771
0.832773
0.832775
0.832776
0.832776
0.832778
0.83278
0.832781
0.832783
0.832783
0.832784
0.832786
0.832788
0.832789
0.832789
0.832791
0.832793
0.832794
0.832796
0.832796
0.832798
0.832799
0.832801
0.832803
0.832803
0.832804
0.832806
0.832808
0.832809
0.832809
0.832811
0.832813
0.832814
0.832816
0.832816
0.832818
0.832819
0.832821
0.832823
0.832823
0.832824
0.832826
0.832828
0.832829
0.832829
0.832831
0.832833
0.832835
0.832836
0.832836
0.832838
0.83284
0.832841
0.832843
0.832843
0.832845
0.832846
0.832848
0.83285
0.83285
0.832852
0.832853
0.832855
0.832857
0.832857
0.832858
0.83286
0.832862
0.832864
0.832864
0.832865
0.832867
0.832869
0.832871
0.832871
0.832872
0.832874
0.832876
0.832877
0.832877
0.832879
0.832881
0.832883
0.832884
0.832884
0.832886
0.832888
0.83289
0.832891
0.832891
0.832893
0.832895
0.832897
0.832898
0.832898
0.8329
0.832902
0.832904
0.832906
0.832906
0.832907
0.832909
0.832911
0.832913
0.832913
0.832914
0.832916
0.832918
0.83292
0.83292
0.832922
0.832923
0.832925
0.832927
0.832927
0.832929
0.83293
0.832932
0.832934
0.832934
0.832936
0.832938
0.832939
0.832941
0.832941
0.832943
0.832945
0.832947
0.832948
0.832948
0.83295
0.832952
0.832954
0.832956
0.832956
0.832957
0.832959
0.832961
0.832963
0.832963
0.832965
0.832967
0.832968
0.83297
0.83297
0.832972
0.832974
0.832976
0.832978
0.832978
0.832979
0.832981
0.832983
0.832985
0.832985
0.832987
0.832989
0.83299
0.832992
0.832992
0.832994
0.832996
0.832998
0.833
0.833
0.833002
0.833003
0.833005
0.833007
0.833007
0.833009
0.833011
0.833013
0.833015
0.833015
0.833017
0.833018
0.83302
0.833022
0.833022
0.833024
0.833026
0.833028
0.83303
0.83303
0.833032
0.833033
0.833035
0.833037
0.833037
0.833039
0.833041
0.833043
0.833045
0.833045
0.833047
0.833049
0.83305
0.833052
0.833052
0.833054
0.833056
0.833058
0.83306
0.83306
0.833062
0.833064
0.833066
0.833068
0.833068
0.83307
0.833072
0.833073
0.833075
0.833075
0.833077
0.833079
0.833081
0.833083
0.833083
0.833085
0.833087
0.833089
0.833091
0.833091
0.833093
0.833095
0.833097
0.833099
0.833099
0.833101
0.833102
0.833104
0.833106
0.833106
0.833108
0.83311
0.833112
0.833114
0.833114
0.833116
0.833118
0.83312
0.833122
0.833122
0.833124
0.833126
0.833128
0.83313
0.83313
0.833132
0.833134
0.833136
0.833138
0.833138
0.83314
0.833142
0.833144
0.833146
0.833146
0.833148
0.83315
0.833152
0.833154
0.833154
0.833156
0.833158
0.83316
0.833162
0.833162
0.833164
0.833166
0.833168
0.83317
0.83317
0.833172
0.833174
0.833176
0.833178
0.833178
0.83318
0.833182
0.833184
0.833186
0.833186
0.833188
0.83319
0.833192
0.833194
0.833194
0.833196
0.833198
0.8332
0.833202
0.833202
0.833204
0.833206
0.833208
0.83321
0.83321
0.833212
0.833214
0.833216
0.833218
0.833218
0.83322
0.833223
0.833225
0.833227
0.833227
0.833229
0.833231
0.833233
0.833235
0.833235
0.833237
0.833239
0.833241
0.833243
0.833243
0.833245
0.833247
0.833249
0.833251
0.833251
0.833253
0.833255
0.833258
0.83326
0.83326
0.833262
0.833264
0.833266
0.833268
0.833268
0.83327
0.833272
0.833274
0.833276
0.833276
0.833278
0.83328
0.833282
0.833285
0.833285
0.833287
0.833289
0.833291
0.833293
0.833293
0.833295
0.833297
0.833299
0.833301
0.833301
0.833303
0.833305
0.833308
0.83331
0.83331
0.833312
0.833314
0.833316
0.833318
0.833318
0.83332
0.833322
0.833325
0.833327
0.833327
0.833329
0.833331
0.833333
0.833335
0.833335
0.833337
0.83334
0.833342
0.833344
0.833344
0.833346
0.833348
0.83335
0.833353
0.833353
0.833355
0.833357
0.833359
0.833361
0.833361
0.833363
0.833366
0.833368
0.83337
0.83337
0.833372
0.833374
0.833377
0.833379
0.833379
0.833381
0.833383
0.833385
0.833387
0.833387
0.83339
0.833392
0.833394
0.833396
0.833396
0.833398
0.833401
0.833403
0.833405
0.833405
0.833407
0.833409
0.833411
0.833414
0.833414
0.833416
0.833418
0.83342
0.833423
0.833423
0.833425
0.833427
0.833429
0.833431
0.833431
0.833434
0.833436
0.833438
0.83344
0.83344
0.833442
0.833445
0.833447
0.833449
0.833449
0.833451
0.833454
0.833456
0.833458
0.833458
0.83346
0.833462
0.833465
0.833467
0.833467
0.833469
0.833471
0.833474
0.833476
0.833476
0.833478
0.83348
0.833483
0.833485
0.833485
0.833487
0.833489
0.833492
0.833494
0.833494
0.833496
0.833498
0.833501
0.833503
0.833503
0.833505
0.833507
0.83351
0.833512
0.833512
0.833514
0.833517
0.833519
0.833521
0.833521
0.833523
0.833526
0.833528
0.83353
0.83353
0.833532
0.833535
0.833537
0.833539
0.833539
0.833542
0.833544
0.833546
0.833549
0.833549
0.833551
0.833553
0.833555
0.833558
0.833558
0.83356
0.833562
0.833565
0.833567
0.833567
0.833569
0.833572
0.833574
0.833576
0.833576
0.833579
0.833581
0.833583
0.833586
0.833586
0.833588
0.83359
0.833592
0.833595
0.833595
0.833597
0.833599
0.833602
0.833604
0.833604
0.833607
0.833609
0.833611
0.833614
0.833614
0.833616
0.833618
0.833621
0.833623
0.833623
0.833625
0.833628
0.83363
0.833632
0.833632
0.833635
0.833637
0.833639
0.833642
0.833642
0.833644
0.833647
0.833649
0.833651
0.833651
0.833654
0.833656
0.833658
0.833661
0.833661
0.833663
0.833666
0.833668
0.83367
0.83367
0.833673
0.833675
0.833677
0.83368
0.83368
0.833682
0.833685
0.833687
0.833689
0.833689
0.833692
0.833694
0.833697
0.833699
0.833699
0.833701
0.833704
0.833706
0.833709
0.833709
0.833711
0.833714
0.833716
0.833718
0.833718
0.833721
0.833723
0.833726
0.833728
0.833728
0.83373
0.833733
0.833735
0.833738
0.833738
0.83374
0.833743
0.833745
0.833748
0.833748
0.83375
0.833752
0.833755
0.833757
0.833757
0.83376
0.833762
0.833765
0.833767
0.833767
0.83377
0.833772
0.833774
0.833777
0.833777
0.833779
0.833782
0.833784
0.833787
0.833787
0.833789
0.833792
0.833794
0.833797
0.833797
0.833799
0.833802
0.833804
0.833807
0.833807
0.833809
0.833811
0.833814
0.833816
0.833816
0.833819
0.833821
0.833824
0.833826
0.833826
0.833829
0.833831
0.833834
0.833836
0.833836
0.833839
0.833841
0.833844
0.833846
0.833846
0.833849
0.833851
0.833854
0.833856
0.833856
0.833859
0.833861
0.833864
0.833866
0.833866
0.833869
0.833871
0.833874
0.833876
0.833876
0.833879
0.833881
0.833884
0.833886
0.833886
0.833889
0.833891
0.833894
0.833896
0.833896
0.833899
0.833901
0.833904
0.833906
0.833906
0.833909
0.833911
0.833914
0.833917
0.833917
0.833919
0.833922
0.833924
0.833927
0.833927
0.833929
0.833932
0.833935
0.833937
0.833937
0.83394
0.833942
0.833945
0.833948
0.833948
0.83395
0.833953
0.833955
0.833958
0.833958
0.83396
0.833963
0.833966
0.833968
0.833968
0.833971
0.833973
0.833976
0.833979
0.833979
0.833981
0.833984
0.833986
0.833989
0.833989
0.833992
0.833994
0.833997
0.833999
0.833999
0.834002
0.834005
0.834007
0.83401
0.83401
0.834012
0.834015
0.834018
0.83402
0.83402
0.834023
0.834025
0.834028
0.834031
0.834031
0.834033
0.834036
0.834039
0.834041
0.834041
0.834044
0.834046
0.834049
0.834052
0.834052
0.834054
0.834057
0.83406
0.834062
0.834062
0.834065
0.834068
0.83407
0.834073
0.834073
0.834075
0.834078
0.834081
0.834083
0.834083
0.834086
0.834089
0.834091
0.834094
0.834094
0.834097
0.834099
0.834102
0.834105
0.834105
0.834107
0.83411
0.834113
0.834115
0.834115
0.834118
0.834121
0.834123
0.834126
0.834126
0.834129
0.834131
0.834134
0.834137
0.834137
0.834139
0.834142
0.834145
0.834147
0.834147
0.83415
0.834153
0.834156
0.834158
0.834158
0.834161
0.834164
0.834166
0.834169
0.834169
0.834172
0.834174
0.834177
0.83418
0.83418
0.834183
0.834185
0.834188
0.834191
0.834191
0.834193
0.834196
0.834199
0.834202
0.834202
0.834204
0.834207
0.83421
0.834212
0.834212
0.834215
0.834218
0.834221
0.834223
0.834223
0.834226
0.834229
0.834232
0.834234
0.834234
0.834237
0.83424
0.834243
0.834245
0.834245
0.834248
0.834251
0.834254
0.834256
0.834256
0.834259
0.834262
0.834265
0.834267
0.834267
0.83427
0.834273
0.834276
0.834278
0.834278
0.834281
0.834284
0.834287
0.83429
0.83429
0.834292
0.834295
0.834298
0.834301
0.834301
0.834303
0.834306
0.834309
0.834312
0.834312
0.834315
0.834317
0.83432
0.834323
0.834323
0.834326
0.834329
0.834331
0.834334
0.834334
0.834337
0.83434
0.834343
0.834345
0.834345
0.834348
0.834351
0.834354
0.834357
0.834357
0.834359
0.834362
0.834365
0.834368
0.834368
0.834371
0.834374
0.834376
0.834379
0.834379
0.834382
0.834385
0.834388
0.83439
0.83439
0.834393
0.834396
0.834399
0.834402
0.834402
0.834405
0.834407
0.83441
0.834413
0.834413
0.834416
0.834419
0.834422
0.834424
0.834424
0.834427
0.83443
0.834433
0.834436
0.834436
0.834439
0.834442
0.834444
0.834447
0.834447
0.83445
0.834453
0.834456
0.834459
0.834459
0.834461
0.834464
0.834467
0.83447
0.83447
0.834473
0.834476
0.834478
0.834481
0.834481
0.834484
0.834487
0.83449
0.834493
0.834493
0.834496
0.834499
0.834502
0.834504
0.834504
0.834507
0.83451
0.834513
0.834516
0.834516
0.834519
0.834522
0.834525
0.834528
0.834528
0.834531
0.834534
0.834537
0.83454
0.83454
0.834543
0.834545
0.834548
0.834551
0.834551
0.834554
0.834557
0.83456
0.834563
0.834563
0.834566
0.834569
0.834572
0.834575
0.834575
0.834578
0.834581
0.834584
0.834587
0.834587
0.83459
0.834592
0.834595
0.834598
0.834598
0.834601
0.834604
0.834607
0.83461
0.83461
0.834613
0.834616
0.834619
0.834622
0.834622
0.834625
0.834628
0.834631
0.834634
0.834634
0.834637
0.83464
0.834643
0.834646
0.834646
0.834649
0.834652
0.834655
0.834658
0.834658
0.834661
0.834664
0.834667
0.83467
0.83467
0.834673
0.834675
0.834678
0.834681
0.834681
0.834684
0.834687
0.83469
0.834693
0.834693
0.834696
0.834699
0.834702
0.834705
0.834705
0.834708
0.834711
0.834714
0.834717
0.834717
0.83472
0.834723
0.834726
0.834729
0.834729
0.834732
0.834735
0.834738
0.834742
0.834742
0.834745
0.834748
0.834751
0.834754
0.834754
0.834757
0.83476
0.834763
0.834766
0.834766
0.834769
0.834772
0.834775
0.834778
0.834778
0.834781
0.834784
0.834787
0.83479
0.83479
0.834793
0.834796
0.834799
0.834802
0.834802
0.834805
0.834808
0.834811
0.834814
0.834814
0.834818
0.834821
0.834824
0.834827
0.834827
0.83483
0.834833
0.834836
0.834839
0.834839
0.834842
0.834845
0.834848
0.834851
0.834851
0.834854
0.834857
0.83486
0.834864
0.834864
0.834867
0.83487
0.834873
0.834876
0.834876
0.834879
0.834882
0.834885
0.834888
0.834888
0.834891
0.834894
0.834898
0.834901
0.834901
0.834904
0.834907
0.83491
0.834913
0.834913
0.834916
0.834919
0.834922
0.834926
0.834926
0.834929
0.834932
0.834935
0.834938
0.834938
0.834941
0.834944
0.834947
0.834951
0.834951
0.834954
0.834957
0.83496
0.834963
0.834963
0.834966
0.834969
0.834972
0.834976
0.834976
0.834979
0.834982
0.834985
0.834988
0.834988
0.834991
0.834994
0.834997
0.835001
0.835001
0.835004
0.835007
0.83501
0.835013
0.835013
0.835016
0.835019
0.835023
0.835026
0.835026
0.835029
0.835032
0.835035
0.835038
0.835038
0.835041
0.835045
0.835048
0.835051
0.835051
0.835054
0.835057
0.83506
0.835063
0.835063
0.835067
0.83507
0.835073
0.835076
0.835076
0.835079
0.835083
0.835086
0.835089
0.835089
0.835092
0.835095
0.835099
0.835102
0.835102
0.835105
0.835108
0.835112
0.835115
0.835115
0.835118
0.835121
0.835124
0.835128
0.835128
0.835131
0.835134
0.835137
0.835141
0.835141
0.835144
0.835147
0.83515
0.835154
0.835154
0.835157
0.83516
0.835163
0.835167
0.835167
0.83517
0.835173
0.835176
0.83518
0.83518
0.835183
0.835186
0.835189
0.835193
0.835193
0.835196
0.835199
0.835202
0.835206
0.835206
0.835209
0.835212
0.835215
0.835219
0.835219
0.835222
0.835225
0.835228
0.835232
0.835232
0.835235
0.835238
0.835241
0.835245
0.835245
0.835248
0.835251
0.835254
0.835258
0.835258
0.835261
0.835264
0.835268
0.835271
0.835271
0.835274
0.835277
0.835281
0.835284
0.835284
0.835287
0.83529
0.835294
0.835297
0.835297
0.8353
0.835304
0.835307
0.83531
0.83531
0.835314
0.835317
0.83532
0.835323
0.835323
0.835327
0.83533
0.835333
0.835337
0.835337
0.83534
0.835343
0.835347
0.83535
0.83535
0.835353
0.835357
0.83536
0.835363
0.835363
0.835367
0.83537
0.835373
0.835376
0.835376
0.83538
0.835383
0.835386
0.83539
0.83539
0.835393
0.835396
0.8354
0.835403
0.835403
0.835407
0.83541
0.835413
0.835417
0.835417
0.83542
0.835423
0.835427
0.83543
0.83543
0.835433
0.835437
0.83544
0.835443
0.835443
0.835447
0.83545
0.835453
0.835457
0.835457
0.83546
0.835464
0.835467
0.83547
0.83547
0.835474
0.835477
0.83548
0.835484
0.835484
0.835487
0.835491
0.835494
0.835497
0.835497
0.835501
0.835504
0.835507
0.835511
0.835511
0.835514
0.835518
0.835521
0.835524
0.835524
0.835528
0.835531
0.835535
0.835538
0.835538
0.835541
0.835545
0.835548
0.835552
0.835552
0.835555
0.835558
0.835562
0.835565
0.835565
0.835569
0.835572
0.835575
0.835579
0.835579
0.835582
0.835586
0.835589
0.835592
0.835592
0.835596
0.835599
0.835603
0.835606
0.835606
0.835609
0.835613
0.835616
0.83562
0.83562
0.835623
0.835626
0.83563
0.835633
0.835633
0.835637
0.83564
0.835643
0.835647
0.835647
0.83565
0.835654
0.835657
0.835661
0.835661
0.835664
0.835668
0.835671
0.835675
0.835675
0.835678
0.835682
0.835685
0.835689
0.835689
0.835692
0.835696
0.835699
0.835703
0.835703
0.835706
0.83571
0.835713
0.835717
0.835717
0.83572
0.835724
0.835727
0.835731
0.835731
0.835734
0.835738
0.835741
0.835745
0.835745
0.835748
0.835752
0.835755
0.835759
0.835759
0.835762
0.835766
0.835769
0.835773
0.835773
0.835776
0.83578
0.835783
0.835787
0.835787
0.83579
0.835794
0.835797
0.835801
0.835801
0.835804
0.835808
0.835811
0.835815
0.835815
0.835818
0.835822
0.835825
0.835829
0.835829
0.835832
0.835836
0.83584
0.835843
0.835843
0.835847
0.83585
0.835854
0.835857
0.835857
0.835861
0.835864
0.835868
0.835871
0.835871
0.835875
0.835878
0.835882
0.835886
0.835886
0.835889
0.835893
0.835896
0.8359
0.8359
0.835903
0.835907
0.83591
0.835914
0.835914
0.835918
0.835921
0.835925
0.835928
0.835928
0.835932
0.835935
0.835939
0.835943
0.835943
0.835946
0.83595
0.835953
0.835957
0.835957
0.83596
0.835964
0.835968
0.835971
0.835971
0.835975
0.835978
0.835982
0.835986
0.835986
0.835989
0.835993
0.835996
0.836
0.836
0.836004
0.836007
0.836011
0.836014
0.836014
0.836018
0.836022
0.836025
0.836029
0.836029
0.836032
0.836036
0.83604
0.836043
0.836043
0.836047
0.83605
0.836054
0.836058
0.836058
0.836061
0.836065
0.836069
0.836072
0.836072
0.836076
0.836079
0.836083
0.836087
0.836087
0.83609
0.836094
0.836098
0.836101
0.836101
0.836105
0.836108
0.836112
0.836116
0.836116
0.836119
0.836123
0.836127
0.83613
0.83613
0.836134
0.836138
0.836141
0.836145
0.836145
0.836148
0.836152
0.836156
0.836159
0.836159
0.836163
0.836167
0.83617
0.836174
0.836174
0.836178
0.836181
0.836185
0.836188
0.836188
0.836192
0.836196
0.836199
0.836203
0.836203
0.836207
0.83621
0.836214
0.836218
0.836218
0.836221
0.836225
0.836229
0.836232
0.836232
0.836236
0.83624
0.836243
0.836247
0.836247
0.836251
0.836255
0.836258
0.836262
0.836262
0.836266
0.83627
0.836273
0.836277
0.836277
0.836281
0.836285
0.836288
0.836292
0.836292
0.836296
0.8363
0.836303
0.836307
0.836307
0.836311
0.836315
0.836318
0.836322
0.836322
0.836326
0.836329
0.836333
0.836337
0.836337
0.836341
0.836344
0.836348
0.836352
0.836352
0.836356
0.836359
0.836363
0.836367
0.836367
0.836371
0.836374
0.836378
0.836382
0.836382
0.836386
0.836389
0.836393
0.836397
0.836397
0.836401
0.836404
0.836408
0.836412
0.836412
0.836416
0.83642
0.836423
0.836427
0.836427
0.836431
0.836435
0.836438
0.836442
0.836442
0.836446
0.83645
0.836453
0.836457
0.836457
0.836461
0.836465
0.836469
0.836472
0.836472
0.836476
0.83648
0.836484
0.836487
0.836487
0.836491
0.836495
0.836499
0.836503
0.836503
0.836506
0.83651
0.836514
0.836518
0.836518
0.836522
0.836525
0.836529
0.836533
0.836533
0.836537
0.836541
0.836544
0.836548
0.836548
0.836552
0.836556
0.83656
0.836564
0.836564
0.836567
0.836571
0.836575
0.836579
0.836579
0.836583
0.836586
0.83659
0.836594
0.836594
0.836598
0.836602
0.836606
0.836609
0.836609
0.836613
0.836617
0.836621
0.836625
0.836625
0.836629
0.836633
0.836636
0.83664
0.83664
0.836644
0.836648
0.836652
0.836656
0.836656
0.836659
0.836663
0.836667
0.836671
0.836671
0.836675
0.836679
0.836683
0.836686
0.836686
0.83669
0.836694
0.836698
0.836702
0.836702
0.836706
0.836709
0.836713
0.836717
0.836717
0.836721
0.836725
0.836729
0.836733
0.836733
0.836736
0.83674
0.836744
0.836748
0.836748
0.836752
0.836756
0.83676
0.836763
0.836763
0.836767
0.836771
0.836775
0.836779
0.836779
0.836783
0.836787
0.83679
0.836794
0.836794
0.836798
0.836802
0.836806
0.83681
0.83681
0.836814
0.836818
0.836822
0.836826
0.836826
0.83683
0.836834
0.836838
0.836842
0.836842
0.836846
0.83685
0.836854
0.836857
0.836857
0.836861
0.836865
0.836869
0.836873
0.836873
0.836877
0.836881
0.836885
0.836889
0.836889
0.836893
0.836897
0.836901
0.836905
0.836905
0.836909
0.836913
0.836917
0.836921
0.836921
0.836925
0.836929
0.836933
0.836937
0.836937
0.836941
0.836945
0.836949
0.836952
0.836952
0.836956
0.83696
0.836964
0.836968
0.836968
0.836972
0.836976
0.83698
0.836984
0.836984
0.836988
0.836992
0.836996
0.837
0.837
0.837004
0.837008
0.837012
0.837016
0.837016
0.83702
0.837024
0.837028
0.837032
0.837032
0.837036
0.83704
0.837044
0.837048
0.837048
0.837052
0.837056
0.83706
0.837064
0.837064
0.837068
0.837072
0.837076
0.83708
0.83708
0.837084
0.837088
0.837092
0.837096
0.837096
0.8371
0.837104
0.837108
0.837112
0.837112
0.837116
0.83712
0.837124
0.837128
0.837128
0.837132
0.837136
0.83714
0.837144
0.837144
0.837148
0.837152
0.837156
0.83716
0.83716
0.837164
0.837168
0.837172
0.837176
0.837176
0.83718
0.837185
0.837189
0.837193
0.837193
0.837197
0.837201
0.837205
0.837209
0.837209
0.837213
0.837217
0.837221
0.837225
0.837225
0.837229
0.837233
0.837237
0.837241
0.837241
0.837245
0.837249
0.837253
0.837257
0.837257
0.837261
0.837265
0.837269
0.837274
0.837274
0.837278
0.837282
0.837286
0.83729
0.83729
0.837294
0.837298
0.837302
0.837306
0.837306
0.83731
0.837314
0.837318
0.837322
0.837322
0.837326
0.83733
0.837334
0.837338
0.837338
0.837342
0.837346
0.837351
0.837355
0.837355
0.837359
0.837363
0.837367
0.837371
0.837371
0.837375
0.837379
0.837384
0.837388
0.837388
0.837392
0.837396
0.8374
0.837404
0.837404
0.837408
0.837413
0.837417
0.837421
0.837421
0.837425
0.837429
0.837433
0.837437
0.837437
0.837442
0.837446
0.83745
0.837454
0.837454
0.837458
0.837462
0.837467
0.837471
0.837471
0.837475
0.837479
0.837483
0.837487
0.837487
0.837491
0.837496
0.8375
0.837504
0.837504
0.837508
0.837512
0.837516
0.837521
0.837521
0.837525
0.837529
0.837533
0.837537
0.837537
0.837541
0.837546
0.83755
0.837554
0.837554
0.837558
0.837562
0.837566
0.837571
0.837571
0.837575
0.837579
0.837583
0.837587
0.837587
0.837591
0.837596
0.8376
0.837604
0.837604
0.837608
0.837612
0.837617
0.837621
0.837621
0.837625
0.837629
0.837633
0.837637
0.837637
0.837642
0.837646
0.83765
0.837654
0.837654
0.837658
0.837663
0.837667
0.837671
0.837671
0.837675
0.837679
0.837684
0.837688
0.837688
0.837692
0.837696
0.837701
0.837705
0.837705
0.837709
0.837713
0.837717
0.837722
0.837722
0.837726
0.83773
0.837734
0.837738
0.837738
0.837743
0.837747
0.837751
0.837755
0.837755
0.83776
0.837764
0.837768
0.837772
0.837772
0.837776
0.837781
0.837785
0.837789
0.837789
0.837793
0.837798
0.837802
0.837806
0.837806
0.83781
0.837814
0.837819
0.837823
0.837823
0.837827
0.837831
0.837836
0.83784
0.83784
0.837844
0.837848
0.837852
0.837857
0.837857
0.837861
0.837865
0.837869
0.837874
0.837874
0.837878
0.837882
0.837886
0.837891
0.837891
0.837895
0.837899
0.837903
0.837908
0.837908
0.837912
0.837916
0.837921
0.837925
0.837925
0.837929
0.837934
0.837938
0.837942
0.837942
0.837946
0.837951
0.837955
0.837959
0.837959
0.837964
0.837968
0.837972
0.837977
0.837977
0.837981
0.837985
0.83799
0.837994
0.837994
0.837998
0.838003
0.838007
0.838011
0.838011
0.838016
0.83802
0.838024
0.838029
0.838029
0.838033
0.838037
0.838042
0.838046
0.838046
0.83805
0.838055
0.838059
0.838063
0.838063
0.838068
0.838072
0.838076
0.838081
0.838081