<?xml version="1.0"?>
<VTKFile type="UnstructuredGrid" version="0.1" byte_order="LittleEndian">
<UnstructuredGrid>
<Piece NumberOfPoints="5000" NumberOfCells="4000">
<PointData Scalars="Reaction 0">
<DataArray type="Float32" Name="Reaction 0" format="ascii">
0.474916
0.474916
0.474916
0.474916
0.474916
0.474916
0.474916
0.474917
0.474917
0.474917
0.474917
0.474917
0.474917
0.474918
0.474918
0.474918
0.474918
0.474919
0.474919
0.474919
0.474919
0.47492
0.47492
0.474921
0.474921
0.474921
0.474922
0.474923
0.474923
0.474924
0.474924
0.474924
0.474925
0.474926
0.474927
0.474927
0.474927
0.474928
0.474929
0.47493
0.47493
0.474931
0.474932
0.474933
0.474933
0.474933
0.474934
0.474935
0.474937
0.474938
0.474938
0.474939
0.47494
0.474941
0.474942
0.474942
0.474943
0.474945
0.474946
0.474947
0.474947
0.474948
0.47495
0.474951
0.474952
0.474952
0.474954
0.474955
0.474957
0.474958
0.474958
0.47496
0.474961
0.474963
0.474964
0.474964
0.474966
0.474968
0.474969
0.474971
0.474971
0.474973
0.474975
0.474976
0.474978
0.474978
0.47498
0.474982
0.474984
0.474986
0.474986
0.474988
0.47499
0.474992
0.474994
0.474994
0.474996
0.474998
0.475
0.475002
0.475002
0.475004
0.475007
0.475009
0.475011
0.475011
0.475013
0.475016
0.475018
0.47502
0.47502
0.475023
0.475025
0.475027
0.47503
0.47503
0.475032
0.475035
0.475037
0.47504
0.47504
0.475043
0.475045
0.475048
0.475051
0.475051
0.475053
0.475056
0.475059
0.475062
0.475062
0.475064
0.475067
0.47507
0.475073
0.475073
0.475076
0.475079
0.475082
0.475085
0.475085
0.475088
0.475091
0.475094
0.475097
0.475097
0.4751
0.475103
0.475107
0.47511
0.47511
0.475113
0.475116
0.47512
0.475123
0.475123
0.475126
0.47513
0.475133
0.475137
0.475137
0.47514
0.475143
0.475147
0.47515
0.47515
0.475154
0.475158
0.475161
0.475165
0.475165
0.475169
0.475172
0.475176
0.47518
0.47518
0.475184
0.475187
0.475191
0.475195
0.475195
0.475199
0.475203
0.475207
0.475211
0.475211
0.475215
0.475219
0.475223
0.475227
0.475227
0.475231
0.475235
0.475239
0.475244
0.475244
0.475248
0.475252
0.475256
0.475261
0.475261
0.475265
0.475269
0.475274
0.475278
0.475278
0.475282
0.475287
0.475291
0.475296
0.475296
0.4753
0.475305
0.47531
0.475314
0.475314
0.475319
0.475323
0.475328
0.475333
0.475333
0.475338
0.475342
0.475347
0.475352
0.475352
0.475357
0.475362
0.475367
0.475372
0.475372
0.475377
0.475382
0.475387
0.475392
0.475392
0.475397
0.475402
0.475407
0.475412
0.475412
0.475417
0.475422
0.475428
0.475433
0.475433
0.475438
0.475444
0.475449
0.475454
0.475454
0.47546
0.475465
0.475471
0.475476
0.475476
0.475482
0.475487
0.475493
0.475498
0.475498
0.475504
0.475509
0.475515
0.475521
0.475521
0.475527
0.475532
0.475538
0.475544
0.475544
0.47555
0.475556
0.475561
0.475567
0.475567
0.475573
0.475579
0.475585
0.475591
0.475591
0.475597
0.475603
0.475609
0.475616
0.475616
0.475622
0.475628
0.475634
0.47564
0.47564
0.475647
0.475653
0.475659
0.475665
0.475665
0.475672
0.475678
0.475685
0.475691
0.475691
0.475698
0.475704
0.475711
0.475717
0.475717
0.475724
0.47573
0.475737
0.475744
0.475744
0.47575
0.475757
0.475764
0.475771
0.475771
0.475777
0.475784
0.475791
0.475798
0.475798
0.475805
0.475812
0.475819
0.475826
0.475826
0.475833
0.47584
0.475847
0.475854
0.475854
0.475861
0.475868
0.475875
0.475883
0.475883
0.47589
0.475897
0.475904
0.475912
0.475912
0.475919
0.475926
0.475934
0.475941
0.475941
0.475949
0.475956
0.475963
0.475971
0.475971
0.475979
0.475986
0.475994
0.476001
0.476001
0.476009
0.476017
0.476024
0.476032
0.476032
0.47604
0.476048
0.476056
0.476063
0.476063
0.476071
0.476079
0.476087
0.476095
0.476095
0.476103
0.476111
0.476119
0.476127
0.476127
0.476135
0.476143
0.476151
0.47616
0.47616
0.476168
0.476176
0.476184
0.476193
0.476193
0.476201
0.476209
0.476218
0.476226
0.476226
0.476234
0.476243
0.476251
0.47626
0.47626
0.476268
0.476277
0.476285
0.476294
0.476294
0.476303
0.476311
0.47632
0.476329
0.476329
0.476337
0.476346
0.476355
0.476364
0.476364
0.476373
0.476381
0.47639
0.476399
0.476399
0.476408
0.476417
0.476426
0.476435
0.476435
0.476444
0.476453
0.476463
0.476472
0.476472
0.476481
0.47649
0.476499
0.476508
0.476508
0.476518
0.476527
0.476536
0.476546
0.476546
0.476555
0.476565
0.476574
0.476583
0.476583
0.476593
0.476602
0.476612
0.476622
0.476622
0.476631
0.476641
0.47665
0.47666
0.47666
0.47667
0.476679
0.476689
0.476699
0.476699
0.476709
0.476719
0.476729
0.476738
0.476738
0.476748
0.476758
0.476768
0.476778
0.476778
0.476788
0.476798
0.476808
0.476819
0.476819
0.476829
0.476839
0.476849
0.476859
0.476859
0.476869
0.47688
0.47689
0.4769
0.4769
0.476911
0.476921
0.476932
0.476942
0.476942
0.476952
0.476963
0.476973
0.476984
0.476984
0.476995
0.477005
0.477016
0.477026
0.477026
0.477037
0.477048
0.477058
0.477069
0.477069
0.47708
0.477091
0.477102
0.477113
0.477113
0.477123
0.477134
0.477145
0.477156
0.477156
0.477167
0.477178
0.477189
0.4772
0.4772
0.477211
0.477223
0.477234
0.477245
0.477245
0.477256
0.477267
0.477279
0.47729
0.47729
0.477301
0.477313
0.477324
0.477335
0.477335
0.477347
0.477358
0.47737
0.477381
0.477381
0.477393
0.477404
0.477416
0.477428
0.477428
0.477439
0.477451
0.477463
0.477474
0.477474
0.477486
0.477498
0.47751
0.477521
0.477521
0.477533
0.477545
0.477557
0.477569
0.477569
0.477581
0.477593
0.477605
0.477617
0.477617
0.477629
0.477641
0.477653
0.477666
0.477666
0.477678
0.47769
0.477702
0.477714
0.477714
0.477727
0.477739
0.477751
0.477764
0.477764
0.477776
0.477789
0.477801
0.477814
0.477814
0.477826
0.477839
0.477851
0.477864
0.477864
0.477876
0.477889
0.477902
0.477914
0.477914
0.477927
0.47794
0.477953
0.477965
0.477965
0.477978
0.477991
0.478004
0.478017
0.478017
0.47803
0.478043
0.478056
0.478069
0.478069
0.478082
0.478095
0.478108
0.478121
0.478121
0.478134
0.478147
0.478161
0.478174
0.478174
0.478187
0.4782
0.478214
0.478227
0.478227
0.47824
0.478254
0.478267
0.478281
0.478281
0.478294
0.478308
0.478321
0.478335
0.478335
0.478348
0.478362
0.478376
0.478389
0.478389
0.478403
0.478417
0.47843
0.478444
0.478444
0.478458
0.478472
0.478486
0.4785
0.4785
0.478513
0.478527
0.478541
0.478555
0.478555
0.478569
0.478583
0.478597
0.478612
0.478612
0.478626
0.47864
0.478654
0.478668
0.478668
0.478682
0.478697
0.478711
0.478725
0.478725
0.47874
0.478754
0.478768
0.478783
0.478783
0.478797
0.478812
0.478826
0.478841
0.478841
0.478855
0.47887
0.478884
0.478899
0.478899
0.478914
0.478928
0.478943
0.478958
0.478958
0.478973
0.478987
0.479002
0.479017
0.479017
0.479032
0.479047
0.479062
0.479077
0.479077
0.479092
0.479107
0.479122
0.479137
0.479137
0.479152
0.479167
0.479182
0.479197
0.479197
0.479213
0.479228
0.479243
0.479258
0.479258
0.479274
0.479289
0.479304
0.47932
0.47932
0.479335
0.479351
0.479366
0.479382
0.479382
0.479397
0.479413
0.479428
0.479444
0.479444
0.47946
0.479475
0.479491
0.479507
0.479507
0.479522
0.479538
0.479554
0.47957
0.47957
0.479586
0.479601
0.479617
0.479633
0.479633
0.479649
0.479665
0.479681
0.479697
0.479697
0.479713
0.479729
0.479746
0.479762
0.479762
0.479778
0.479794
0.47981
0.479827
0.479827
0.479843
0.479859
0.479875
0.479892
0.479892
0.479908
0.479925
0.479941
0.479958
0.479958
0.479974
0.479991
0.480007
0.480024
0.480024
0.48004
0.480057
0.480074
0.48009
0.48009
0.480107
0.480124
0.48014
0.480157
0.480157
0.480174
0.480191
0.480208
0.480225
0.480225
0.480242
0.480259
0.480276
0.480293
0.480293
0.48031
0.480327
0.480344
0.480361
0.480361
0.480378
0.480395
0.480412
0.48043
0.48043
0.480447
0.480464
0.480481
0.480499
0.480499
0.480516
0.480533
0.480551
0.480568
0.480568
0.480586
0.480603
0.480621
0.480638
0.480638
0.480656
0.480674
0.480691
0.480709
0.480709
0.480726
0.480744
0.480762
0.48078
0.48078
0.480797
0.480815
0.480833
0.480851
0.480851
0.480869
0.480887
0.480905
0.480923
0.480923
0.480941
0.480959
0.480977
0.480995
0.480995
0.481013
0.481031
0.481049
0.481068
0.481068
0.481086
0.481104
0.481122
0.481141
0.481141
0.481159
0.481177
0.481196
0.481214
0.481214
0.481233
0.481251
0.48127
0.481288
0.481288
0.481307
0.481325
0.481344
0.481362
0.481362
0.481381
0.4814
0.481418
0.481437
0.481437
0.481456
0.481475
0.481494
0.481512
0.481512
0.481531
0.48155
0.481569
0.481588
0.481588
0.481607
0.481626
0.481645
0.481664
0.481664
0.481683
0.481702
0.481721
0.481741
0.481741
0.48176
0.481779
0.481798
0.481818
0.481818
0.481837
0.481856
0.481876
0.481895
0.481895
0.481914
0.481934
0.481953
0.481973
0.481973
0.481992
0.482012
0.482031
0.482051
0.482051
0.482071
0.48209
0.48211
0.48213
0.48213
0.482149
0.482169
0.482189
0.482209
0.482209
0.482229
0.482248
0.482268
0.482288
0.482288
0.482308
0.482328
0.482348
0.482368
0.482368
0.482388
0.482408
0.482428
0.482449
0.482449
0.482469
0.482489
0.482509
0.482529
0.482529
0.48255
0.48257
0.48259
0.482611
0.482611
0.482631
0.482651
0.482672
0.482692
0.482692
0.482713
0.482733
0.482754
0.482774
0.482774
0.482795
0.482816
0.482836
0.482857
0.482857
0.482878
0.482898
0.482919
0.48294
0.48294
0.482961
0.482982
0.483003
0.483023
0.483023
0.483044
0.483065
0.483086
0.483107
0.483107
0.483128
0.483149
0.48317
0.483192
0.483192
0.483213
0.483234
0.483255
0.483276
0.483276
0.483298
0.483319
0.48334
0.483361
0.483361
0.483383
0.483404
0.483426
0.483447
0.483447
0.483468
0.48349
0.483511
0.483533
0.483533
0.483555
0.483576
0.483598
0.483619
0.483619
0.483641
0.483663
0.483685
0.483706
0.483706
0.483728
0.48375
0.483772
0.483794
0.483794
0.483816
0.483837
0.483859
0.483881
0.483881
0.483903
0.483925
0.483947
0.48397
0.48397
0.483992
0.484014
0.484036
0.484058
0.484058
0.48408
0.484103
0.484125
0.484147
0.484147
0.48417
0.484192
0.484214
0.484237
0.484237
0.484259
0.484282
0.484304
0.484327
0.484327
0.484349
0.484372
0.484394
0.484417
0.484417
0.48444
0.484462
0.484485
0.484508
0.484508
0.48453
0.484553
0.484576
0.484599
0.484599
0.484622
0.484645
0.484668
0.484691
0.484691
0.484714
0.484737
0.48476
0.484783
0.484783
0.484806
0.484829
0.484852
0.484875
0.484875
0.484898
0.484922
0.484945
0.484968
0.484968
0.484991
0.485015
0.485038
0.485061
0.485061
0.485085
0.485108
0.485132
0.485155
0.485155
0.485179
0.485202
0.485226
0.485249
0.485249
0.485273
0.485297
0.48532
0.485344
0.485344
0.485368
0.485392
0.485415
0.485439
0.485439
0.485463
0.485487
0.485511
0.485535
0.485535
0.485559
0.485583
0.485607
0.485631
0.485631
0.485655
0.485679
0.485703
0.485727
0.485727
0.485751
0.485775
0.4858
0.485824
0.485824
0.485848
0.485872
0.485897
0.485921
0.485921
0.485946
0.48597
0.485994
0.486019
0.486019
0.486043
0.486068
0.486092
0.486117
0.486117
0.486142
0.486166
0.486191
0.486216
0.486216
0.48624
0.486265
0.48629
0.486315
0.486315
0.486339
0.486364
0.486389
0.486414
0.486414
0.486439
0.486464
0.486489
0.486514
0.486514
0.486539
0.486564
0.486589
0.486614
0.486614
0.486639
0.486664
0.48669
0.486715
0.486715
0.48674
0.486765
0.486791
0.486816
0.486816
0.486841
0.486867
0.486892
0.486918
0.486918
0.486943
0.486969
0.486994
0.48702
0.48702
0.487045
0.487071
0.487096
0.487122
0.487122
0.487148
0.487173
0.487199
0.487225
0.487225
0.487251
0.487277
0.487302
0.487328
0.487328
0.487354
0.48738
0.487406
0.487432
0.487432
0.487458
0.487484
0.48751
0.487536
0.487536
0.487562
0.487588
0.487615
0.487641
0.487641
0.487667
0.487693
0.48772
0.487746
0.487746
0.487772
0.487799
0.487825
0.487851
0.487851
0.487878
0.487904
0.487931
0.487957
0.487957
0.487984
0.48801
0.488037
0.488064
0.488064
0.48809
0.488117
0.488144
0.48817
0.48817
0.488197
0.488224
0.488251
0.488278
0.488278
0.488305
0.488331
0.488358
0.488385
0.488385
0.488412
0.488439
0.488466
0.488493
0.488493
0.488521
0.488548
0.488575
0.488602
0.488602
0.488629
0.488656
0.488684
0.488711
0.488711
0.488738
0.488766
0.488793
0.48882
0.48882
0.488848
0.488875
0.488903
0.48893
0.48893
0.488958
0.488985
0.489013
0.48904
0.48904
0.489068
0.489096
0.489123
0.489151
0.489151
0.489179
0.489207
0.489234
0.489262
0.489262
0.48929
0.489318
0.489346
0.489374
0.489374
0.489402
0.48943
0.489458
0.489486
0.489486
0.489514
0.489542
0.48957
0.489598
0.489598
0.489626
0.489655
0.489683
0.489711
0.489711
0.489739
0.489768
0.489796
0.489824
0.489824
0.489853
0.489881
0.48991
0.489938
0.489938
0.489967
0.489995
0.490024
0.490052
0.490052
0.490081
0.49011
0.490138
0.490167
0.490167
0.490196
0.490224
0.490253
0.490282
0.490282
0.490311
0.49034
0.490368
0.490397
0.490397
0.490426
0.490455
0.490484
0.490513
0.490513
0.490542
0.490571
0.4906
0.49063
0.49063
0.490659
0.490688
0.490717
0.490746
0.490746
0.490776
0.490805
0.490834
0.490864
0.490864
0.490893
0.490922
0.490952
0.490981
0.490981
0.491011
0.49104
0.49107
0.491099
0.491099
0.491129
0.491158
0.491188
0.491218
0.491218
0.491247
0.491277
0.491307
0.491337
0.491337
0.491367
0.491396
0.491426
0.491456
0.491456
0.491486
0.491516
0.491546
0.491576
0.491576
0.491606
0.491636
0.491666
0.491696
0.491696
0.491726
0.491756
0.491787
0.491817
0.491817
0.491847
0.491877
0.491908
0.491938
0.491938
0.491968
0.491999
0.492029
0.492059
0.492059
0.49209
0.49212
0.492151
0.492181
0.492181
0.492212
0.492243
0.492273
0.492304
0.492304
0.492335
0.492365
0.492396
0.492427
0.492427
0.492458
0.492488
0.492519
0.49255
0.49255
0.492581
0.492612
0.492643
0.492674
0.492674
0.492705
0.492736
0.492767
0.492798
0.492798
0.492829
0.49286
0.492891
0.492922
0.492922
0.492954
0.492985
0.493016
0.493047
0.493047
0.493079
0.49311
0.493142
0.493173
0.493173
0.493204
0.493236
0.493267
0.493299
0.493299
0.49333
0.493362
0.493394
0.493425
0.493425
0.493457
0.493488
0.49352
0.493552
0.493552
0.493584
0.493615
0.493647
0.493679
0.493679
0.493711
0.493743
0.493775
0.493807
0.493807
0.493839
0.493871
0.493903
0.493935
0.493935
0.493967
0.493999
0.494031
0.494063
0.494063
0.494096
0.494128
0.49416
0.494192
0.494192
0.494225
0.494257
0.494289
0.494322
0.494322
0.494354
0.494386
0.494419
0.494451
0.494451
0.494484
0.494516
0.494549
0.494582
0.494582
0.494614
0.494647
0.49468
0.494712
0.494712
0.494745
0.494778
0.494811
0.494843
0.494843
0.494876
0.494909
0.494942
0.494975
0.494975
0.495008
0.495041
0.495074
0.495107
0.495107
0.49514
0.495173
0.495206
0.495239
0.495239
0.495273
0.495306
0.495339
0.495372
0.495372
0.495406
0.495439
0.495472
0.495506
0.495506
0.495539
0.495572
0.495606
0.495639
0.495639
0.495673
0.495706
0.49574
0.495773
0.495773
0.495807
0.495841
0.495874
0.495908
0.495908
0.495942
0.495975
0.496009
0.496043
0.496043
0.496077
0.496111
0.496145
0.496179
0.496179
0.496212
0.496246
0.49628
0.496314
0.496314
0.496348
0.496383
0.496417
0.496451
0.496451
0.496485
0.496519
0.496553
0.496588
0.496588
0.496622
0.496656
0.49669
0.496725
0.496725
0.496759
0.496794
0.496828
0.496862
0.496862
0.496897
0.496931
0.496966
0.497
0.497
0.497035
0.49707
0.497104
0.497139
0.497139
0.497174
0.497208
0.497243
0.497278
0.497278
0.497313
0.497348
0.497382
0.497417
0.497417
0.497452
0.497487
0.497522
0.497557
0.497557
0.497592
0.497627
0.497662
0.497697
0.497697
0.497733
0.497768
0.497803
0.497838
0.497838
0.497873
0.497909
0.497944
0.497979
0.497979
0.498015
0.49805
0.498085
0.498121
0.498121
0.498156
0.498192
0.498227
0.498263
0.498263
0.498298
0.498334
0.49837
0.498405
0.498405
0.498441
0.498477
0.498512
0.498548
0.498548
0.498584
0.49862
0.498656
0.498691
0.498691
0.498727
0.498763
0.498799
0.498835
0.498835
0.498871
0.498907
0.498943
0.498979
0.498979
0.499015
0.499052
0.499088
0.499124
0.499124
0.49916
0.499196
0.499233
0.499269
0.499269
0.499305
0.499342
0.499378
0.499415
0.499415
0.499451
0.499487
0.499524
0.49956
0.49956
0.499597
0.499634
0.49967
0.499707
0.499707
0.499743
0.49978
0.499817
0.499854
0.499854
0.49989
0.499927
0.499964
0.500001
0.500001
0.500038
0.500075
0.500112
0.500149
0.500149
0.500186
0.500223
0.50026
0.500297
0.500297
0.500334
0.500371
0.500408
0.500445
0.500445
0.500482
0.50052
0.500557
0.500594
0.500594
0.500632
0.500669
0.500706
0.500744
0.500744
0.500781
0.500819
0.500856
0.500894
0.500894
0.500931
0.500969
0.501006
0.501044
0.501044
0.501081
0.501119
0.501157
0.501195
0.501195
0.501232
0.50127
0.501308
0.501346
0.501346
0.501384
0.501421
0.501459
0.501497
0.501497
0.501535
0.501573
0.501611
0.501649
0.501649
0.501687
0.501726
0.501764
0.501802
0.501802
0.50184
0.501878
0.501917
0.501955
0.501955
0.501993
0.502031
0.50207
0.502108
0.502108
0.502147
0.502185
0.502223
0.502262
0.502262
0.5023
0.502339
0.502378
0.502416
0.502416
0.502455
0.502493
0.502532
0.502571
0.502571
0.50261
0.502648
0.502687
0.502726
0.502726
0.502765
0.502804
0.502843
0.502882
0.502882
0.50292
0.502959
0.502998
0.503037
0.503037
0.503077
0.503116
0.503155
0.503194
0.503194
0.503233
0.503272
0.503312
0.503351
0.503351
0.50339
0.503429
0.503469
0.503508
0.503508
0.503547
0.503587
0.503626
0.503666
0.503666
0.503705
0.503745
0.503784
0.503824
0.503824
0.503864
0.503903
0.503943
0.503983
0.503983
0.504022
0.504062
0.504102
0.504142
0.504142
0.504181
0.504221
0.504261
0.504301
0.504301
0.504341
0.504381
0.504421
0.504461
0.504461
0.504501
0.504541
0.504581
0.504621
0.504621
0.504662
0.504702
0.504742
0.504782
0.504782
0.504822
0.504863
0.504903
0.504943
0.504943
0.504984
0.505024
0.505065
0.505105
0.505105
0.505146
0.505186
0.505227
0.505267
0.505267
0.505308
0.505348
0.505389
0.50543
0.50543
0.505471
0.505511
0.505552
0.505593
0.505593
0.505634
0.505674
0.505715
0.505756
0.505756
0.505797
0.505838
0.505879
0.50592
0.50592
0.505961
0.506002
0.506043
0.506084
0.506084
0.506126
0.506167
0.506208
0.506249
0.506249
0.50629
0.506332
0.506373
0.506414
0.506414
0.506456
0.506497
0.506539
0.50658
0.50658
0.506621
0.506663
0.506704
0.506746
0.506746
0.506788
0.506829
0.506871
0.506913
0.506913
0.506954
0.506996
0.507038
0.507079
0.507079
0.507121
0.507163
0.507205
0.507247
0.507247
0.507289
0.507331
0.507373
0.507415
0.507415
0.507457
0.507499
0.507541
0.507583
0.507583
0.507625
0.507667
0.507709
0.507752
0.507752
0.507794
0.507836
0.507878
0.507921
0.507921
0.507963
0.508006
0.508048
0.50809
0.50809
0.508133
0.508175
0.508218
0.50826
0.50826
0.508303
0.508346
0.508388
0.508431
0.508431
0.508474
0.508516
0.508559
0.508602
0.508602
0.508645
0.508687
0.50873
0.508773
0.508773
0.508816
0.508859
0.508902
0.508945
0.508945
0.508988
0.509031
0.509074
0.509117
0.509117
0.50916
0.509203
0.509247
0.50929
0.50929
0.509333
0.509376
0.509419
0.509463
0.509463
0.509506
0.50955
0.509593
0.509636
0.509636
0.50968
0.509723
0.509767
0.50981
0.50981
0.509854
0.509897
0.509941
0.509985
0.509985
0.510028
0.510072
0.510116
0.51016
0.51016
0.510203
0.510247
0.510291
0.510335
0.510335
0.510379
0.510423
0.510467
0.510511
0.510511
0.510555
0.510599
0.510643
0.510687
0.510687
0.510731
0.510775
0.510819
0.510863
0.510863
0.510908
0.510952
0.510996
0.51104
0.51104
0.511085
0.511129
0.511174
0.511218
0.511218
0.511262
0.511307
0.511351
0.511396
0.511396
0.51144
0.511485
0.51153
0.511574
0.511574
0.511619
0.511664
0.511708
0.511753
0.511753
0.511798
0.511843
0.511887
0.511932
0.511932
0.511977
0.512022
0.512067
0.512112
0.512112
0.512157
0.512202
0.512247
0.512292
0.512292
0.512337
0.512382
0.512428
0.512473
0.512473
0.512518
0.512563
0.512608
0.512654
0.512654
0.512699
0.512744
0.51279
0.512835
0.512835
0.512881
0.512926
0.512972
0.513017
0.513017
0.513063
0.513108
0.513154
0.513199
0.513199
0.513245
0.513291
0.513337
0.513382
0.513382
0.513428
0.513474
0.51352
0.513565
0.513565
0.513611
0.513657
0.513703
0.513749
0.513749
0.513795
0.513841
0.513887
0.513933
0.513933
0.513979
0.514025
0.514072
0.514118
0.514118
0.514164
0.51421
0.514256
0.514303
0.514303
0.514349
0.514395
0.514442
0.514488
0.514488
0.514535
0.514581
0.514628
0.514674
0.514674
0.514721
0.514767
0.514814
0.51486
0.51486
0.514907
0.514954
0.515
0.515047
0.515047
0.515094
0.515141
0.515188
0.515234
0.515234
0.515281
0.515328
0.515375
0.515422
0.515422
0.515469
0.515516
0.515563
0.51561
0.51561
0.515657
0.515704
0.515751
0.515799
0.515799
0.515846
0.515893
0.51594
0.515988
0.515988
0.516035
0.516082
0.51613
0.516177
0.516177
0.516224
0.516272
0.516319
0.516367
0.516367
0.516414
0.516462
0.51651
0.516557
0.516557
0.516605
0.516652
0.5167
0.516748
0.516748
0.516796
0.516843
0.516891
0.516939
0.516939
0.516987
0.517035
0.517083
0.517131
0.517131
0.517179
0.517227
0.517275
0.517323
0.517323
0.517371
0.517419
0.517467
0.517515
0.517515
0.517563
0.517612
0.51766
0.517708
0.517708
0.517756
0.517805
0.517853
0.517902
0.517902
0.51795
0.517998
0.518047
0.518095
0.518095
0.518144
0.518192
0.518241
0.51829
0.51829
0.518338
0.518387
0.518436
0.518484
0.518484
0.518533
0.518582
0.518631
0.51868
0.51868
0.518728
0.518777
0.518826
0.518875
0.518875
0.518924
0.518973
0.519022
0.519071
0.519071
0.51912
0.519169
0.519219
0.519268
0.519268
0.519317
0.519366
0.519415
0.519465
0.519465
0.519514
0.519563
0.519613
0.519662
0.519662
0.519711
0.519761
0.51981
0.51986
0.51986
0.519909
0.519959
0.520009
0.520058
0.520058
0.520108
0.520157
0.520207
0.520257
0.520257
0.520307
0.520356
0.520406
0.520456
0.520456
0.520506
0.520556
0.520606
0.520656
0.520656
0.520706
0.520756
0.520806
0.520856
0.520856
0.520906
0.520956
0.521006
0.521056
0.521056
0.521106
0.521157
0.521207
0.521257
0.521257
0.521307
0.521358
0.521408
0.521458
0.521458
0.521509
0.521559
0.52161
0.52166
0.52166
0.521711
0.521761
0.521812
0.521862
0.521862
0.521913
0.521964
0.522014
0.522065
0.522065
0.522116
0.522167
0.522218
0.522268
0.522268
0.522319
0.52237
0.522421
0.522472
0.522472
0.522523
0.522574
0.522625
0.522676
0.522676
0.522727
0.522778
0.522829
0.52288
0.52288
0.522932
0.522983
0.523034
0.523085
0.523085
0.523137
0.523188
0.523239
0.523291
0.523291
0.523342
0.523394
0.523445
0.523497
0.523497
0.523548
0.5236
0.523651
0.523703
0.523703
0.523755
0.523806
0.523858
0.52391
0.52391
0.523961
0.524013
0.524065
0.524117
0.524117
0.524169
0.52422
0.524272
0.524324
0.524324
0.524376
0.524428
0.52448
0.524532
0.524532
0.524584
0.524637
0.524689
0.524741
0.524741
0.524793
0.524845
0.524898
0.52495
0.52495
0.525002
0.525054
0.525107
0.525159
0.525159
0.525212
0.525264
0.525317
0.525369
0.525369
0.525422
0.525474
0.525527
0.525579
0.525579
0.525632
0.525685
0.525737
0.52579
0.52579
0.525843
0.525896
0.525948
0.526001
0.526001
0.526054
0.526107
0.52616
0.526213
0.526213
0.526266
0.526319
0.526372
0.526425
0.526425
0.526478
0.526531
0.526584
0.526637
0.526637
0.526691
0.526744
0.526797
0.52685
0.52685
0.526904
0.526957
0.52701
0.527064
0.527064
0.527117
0.527171
0.527224
0.527278
0.527278
0.527331
0.527385
0.527438
0.527492
0.527492
0.527546
0.527599
0.527653
0.527707
0.527707
0.52776
0.527814
0.527868
0.527922
0.527922
0.527976
0.52803
0.528083
0.528137
0.528137
0.528191
0.528245
0.528299
0.528354
0.528354
0.528408
0.528462
0.528516
0.52857
0.52857
0.528624
0.528678
0.528733
0.528787
0.528787
0.528841
0.528896
0.52895
0.529004
0.529004
0.529059
0.529113
0.529168
0.529222
0.529222
0.529277
0.529331
0.529386
0.529441
0.529441
0.529495
0.52955
0.529605
0.529659
0.529659
0.529714
0.529769
0.529824
0.529879
0.529879
0.529933
0.529988
0.530043
0.530098
0.530098
0.530153
0.530208
0.530263
0.530318
0.530318
0.530373
0.530429
0.530484
0.530539
0.530539
0.530594
0.530649
0.530705
0.53076
0.53076
0.530815
0.530871
0.530926
0.530981
0.530981
0.531037
0.531092
0.531148
0.531203
0.531203
0.531259
0.531314
0.53137
0.531426
0.531426
0.531481
0.531537
0.531593
0.531648
0.531648
0.531704
0.53176
0.531816
0.531872
0.531872
0.531928
0.531983
0.532039
0.532095
0.532095
0.532151
0.532207
0.532263
0.53232
0.53232
0.532376
0.532432
0.532488
0.532544
0.532544
0.5326
0.532657
0.532713
0.532769
0.532769
0.532826
0.532882
0.532938
0.532995
0.532995
0.533051
0.533108
0.533164
0.533221
0.533221
0.533277
0.533334
0.53339
0.533447
0.533447
0.533504
0.53356
0.533617
0.533674
0.533674
0.533731
0.533787
0.533844
0.533901
0.533901
0.533958
0.534015
0.534072
0.534129
0.534129
0.534186
0.534243
0.5343
0.534357
0.534357
0.534414
0.534471
0.534528
0.534586
0.534586
0.534643
0.5347
0.534757
0.534815
0.534815
0.534872
0.53493
0.534987
0.535044
0.535044
0.535102
0.535159
0.535217
0.535274
0.535274
0.535332
0.535389
0.535447
0.535505
0.535505
0.535562
0.53562
0.535678
0.535736
0.535736
0.535793
0.535851
0.535909
0.535967
0.535967
0.536025
0.536083
0.536141
0.536199
0.536199
0.536257
0.536315
0.536373
0.536431
0.536431
0.536489
0.536547
0.536605
0.536664
0.536664
0.536722
0.53678
0.536839
0.536897
0.536897
0.536955
0.537014
0.537072
0.53713
0.53713
0.537189
0.537247
0.537306
0.537364
0.537364
0.537423
0.537482
0.53754
0.537599
0.537599
0.537658
0.537716
0.537775
0.537834
0.537834
0.537893
0.537952
0.53801
0.538069
0.538069
0.538128
0.538187
0.538246
0.538305
0.538305
0.538364
0.538423
0.538482
0.538541
0.538541
0.538601
0.53866
0.538719
0.538778
0.538778
0.538837
0.538897
0.538956
0.539015
0.539015
0.539075
0.539134
0.539194
0.539253
0.539253
0.539313
0.539372
0.539432
0.539491
0.539491
0.539551
0.53961
0.53967
0.53973
0.53973
0.539789
0.539849
0.539909
0.539969
0.539969
0.540029
0.540088
0.540148
0.540208
0.540208
0.540268
0.540328
0.540388
0.540448
0.540448
0.540508
0.540568
0.540628
0.540689
0.540689
0.540749
0.540809
0.540869
0.540929
0.540929
0.54099
0.54105
0.54111
0.541171
0.541171
0.541231
0.541291
0.541352
0.541412
0.541412
0.541473
0.541533
0.541594
0.541655
0.541655
0.541715
0.541776
0.541837
0.541897
0.541897
0.541958
0.542019
0.542079
0.54214
0.54214
0.542201
0.542262
0.542323
0.542384
0.542384
0.542445
0.542506
0.542567
0.542628
0.542628
0.542689
0.54275
0.542811
0.542872
0.542872
0.542933
0.542995
0.543056
0.543117
0.543117
0.543179
0.54324
0.543301
0.543363
0.543363
0.543424
0.543485
0.543547
0.543608
0.543608
0.54367
0.543731
0.543793
0.543855
0.543855
0.543916
0.543978
0.54404
0.544101
0.544101
0.544163
0.544225
0.544287
0.544349
0.544349
0.54441
0.544472
0.544534
0.544596
0.544596
0.544658
0.54472
0.544782
0.544844
0.544844
0.544906
0.544968
0.545031
0.545093
0.545093
0.545155
0.545217
0.54528
0.545342
0.545342
0.545404
0.545466
0.545529
0.545591
0.545591
0.545654
0.545716
0.545779
0.545841
0.545841
0.545904
0.545966
0.546029
0.546092
0.546092
0.546154
0.546217
0.54628
0.546342
0.546342
0.546405
0.546468
0.546531
0.546594
0.546594
0.546657
0.546719
0.546782
0.546845
0.546845
0.546908
0.546971
0.547034
0.547098
0.547098
0.547161
0.547224
0.547287
0.54735
0.54735
0.547413
0.547477
0.54754
0.547603
0.547603
0.547667
0.54773
0.547793
0.547857
0.547857
0.54792
0.547984
0.548047
0.548111
0.548111
0.548174
0.548238
0.548302
0.548365
0.548365
0.548429
0.548493
0.548556
0.54862
0.54862
0.548684
0.548748
0.548812
0.548876
0.548876
0.54894
0.549004
0.549067
0.549131
0.549131
0.549196
0.54926
0.549324
0.549388
0.549388
0.549452
0.549516
0.54958
0.549645
0.549645
0.549709
0.549773
0.549837
0.549902
0.549902
0.549966
0.550031
0.550095
0.550159
0.550159
0.550224
0.550288
0.550353
0.550418
0.550418
0.550482
0.550547
0.550611
0.550676
0.550676
0.550741
0.550806
0.55087
0.550935
0.550935
0.551
0.551065
0.55113
0.551195
0.551195
0.55126
0.551325
0.55139
0.551455
0.551455
0.55152
0.551585
0.55165
0.551715
0.551715
0.55178
0.551845
0.551911
0.551976
0.551976
0.552041
0.552107
0.552172
0.552237
0.552237
0.552303
0.552368
0.552434
0.552499
0.552499
0.552565
0.55263
0.552696
0.552761
0.552761
0.552827
0.552893
0.552958
0.553024
0.553024
0.55309
0.553156
0.553221
0.553287
0.553287
0.553353
0.553419
0.553485
0.553551
0.553551
0.553617
0.553683
0.553749
0.553815
0.553815
0.553881
0.553947
0.554013
0.554079
0.554079
0.554146
0.554212
0.554278
0.554344
0.554344
0.554411
0.554477
0.554544
0.55461
0.55461
0.554676
0.554743
0.554809
0.554876
0.554876
0.554942
0.555009
0.555076
0.555142
0.555142
0.555209
0.555276
0.555342
0.555409
0.555409
0.555476
0.555543
0.55561
0.555676
0.555676
0.555743
0.55581
0.555877
0.555944
0.555944
0.556011
0.556078
0.556145
0.556212
0.556212
0.55628
0.556347
0.556414
0.556481
0.556481
0.556548
0.556616
0.556683
0.55675
0.55675
0.556818
0.556885
0.556952
0.55702
0.55702
0.557087
0.557155
0.557222
0.55729
0.55729
0.557358
0.557425
0.557493
0.557561
0.557561
0.557628
0.557696
0.557764
0.557832
0.557832
0.557899
0.557967
0.558035
0.558103
0.558103
0.558171
0.558239
0.558307
0.558375
0.558375
0.558443
0.558511
0.558579
0.558647
0.558647
0.558716
0.558784
0.558852
0.55892
0.55892
0.558988
0.559057
0.559125
0.559193
0.559193
0.559262
0.55933
0.559399
0.559467
0.559467
0.559536
0.559604
0.559672
0.559741
0.559741
0.559809
0.559877
0.559944
0.560011
0.560011
0.560076
0.560141
0.560206
0.56027
0.56027
0.560334
0.560398
0.560462
0.560526
0.560526
0.560591
0.560655
0.560719
0.560783
0.560783
0.560847
0.560911
0.560975
0.56104
0.56104
0.561104
0.561168
0.561233
0.561297
0.561297
0.561361
0.561426
0.56149
0.561554
0.561554
0.561619
0.561683
0.561748
0.561813
0.561813
0.561877
0.561942
0.562006
0.562071
0.562071
0.562136
0.5622
0.562265
0.56233
0.56233
0.562395
0.562459
0.562524
0.562589
0.562589
0.562654
0.562719
0.562784
0.562849
0.562849
0.562914
0.562979
0.563044
0.563109
0.563109
0.563174
0.563239
0.563304
0.563369
0.563369
0.563435
0.5635
0.563565
0.56363
0.56363
0.563696
0.563761
0.563826
0.563892
0.563892
0.563957
0.564023
0.564088
0.564153
0.564153
0.564219
0.564284
0.56435
0.564416
0.564416
0.564481
0.564547
0.564612
0.564678
0.564678
0.564744
0.56481
0.564875
0.564941
0.564941
0.565007
0.565073
0.565139
0.565204
0.565204
0.56527
0.565336
0.565402
0.565468
0.565468
0.565534
0.5656
0.565666
0.565732
0.565732
0.565798
0.565865
0.565931
0.565997
0.565997
0.566063
0.566129
0.566196
0.566262
0.566262
0.566328
0.566394
0.566461
0.566527
0.566527
0.566594
0.56666
0.566726
0.566793
0.566793
0.566859
0.566926
0.566993
0.567059
0.567059
0.567126
0.567192
0.567259
0.567326
0.567326
0.567392
0.567459
0.567526
0.567593
0.567593
0.567659
0.567726
0.567793
0.56786
0.56786
0.567927
0.567993
0.56806
0.568127
0.568127
0.568194
0.56826
0.568326
0.568392
0.568392
0.568458
0.568522
0.568587
0.56865
0.56865
0.568713
0.568775
0.568837
0.568898
0.568898
0.56896
0.569021
0.569082
0.569143
0.569143
0.569204
0.569265
0.569326
0.569387
0.569387
0.569448
0.569509
0.56957
0.569631
0.569631
0.569692
0.569753
0.569815
0.569876
0.569876
0.569937
0.569998
0.570059
0.570121
0.570121
0.570182
0.570243
0.570304
0.570366
0.570366
0.570427
0.570488
0.57055
0.570611
0.570611
0.570673
0.570734
0.570796
0.570857
0.570857
0.570919
0.57098
0.571042
0.571103
0.571103