<?xml version="1.0"?>
<VTKFile type="UnstructuredGrid" version="0.1" byte_order="LittleEndian">
<UnstructuredGrid>
<Piece NumberOfPoints="5000" NumberOfCells="4000">
<PointData Scalars="Reaction 0">
<DataArray type="Float32" Name="Reaction 0" format="ascii">
0.695116
0.695116
0.695116
0.695116
0.695116
0.695116
0.695116
0.695116
0.695116
0.695116
0.695116
0.695116
0.695116
0.695117
0.695117
0.695117
0.695117
0.695117
0.695117
0.695117
0.695117
0.695118
0.695118
0.695118
0.695118
0.695118
0.695119
0.695119
0.695119
0.69512
0.69512
0.69512
0.69512
0.695121
0.695121
0.695121
0.695122
0.695122
0.695122
0.695123
0.695123
0.695123
0.695124
0.695124
0.695125
0.695125
0.695125
0.695126
0.695126
0.695127
0.695127
0.695127
0.695128
0.695128
0.695129
0.695129
0.69513
0.69513
0.695131
0.695132
0.695132
0.695132
0.695133
0.695134
0.695134
0.695134
0.695135
0.695136
0.695137
0.695137
0.695137
0.695138
0.695139
0.69514
0.695141
0.695141
0.695141
0.695142
0.695143
0.695144
0.695144
0.695145
0.695146
0.695147
0.695148
0.695148
0.695149
0.69515
0.695151
0.695152
0.695152
0.695153
0.695154
0.695155
0.695156
0.695156
0.695157
0.695158
0.695159
0.69516
0.69516
0.695161
0.695162
0.695163
0.695164
0.695164
0.695166
0.695167
0.695168
0.695169
0.695169
0.69517
0.695172
0.695173
0.695174
0.695174
0.695175
0.695177
0.695178
0.695179
0.695179
0.695181
0.695182
0.695183
0.695185
0.695185
0.695186
0.695188
0.695189
0.69519
0.69519
0.695192
0.695193
0.695195
0.695196
0.695196
0.695198
0.695199
0.695201
0.695202
0.695202
0.695204
0.695205
0.695207
0.695209
0.695209
0.69521
0.695212
0.695214
0.695215
0.695215
0.695217
0.695219
0.69522
0.695222
0.695222
0.695224
0.695225
0.695227
0.695229
0.695229
0.695231
0.695232
0.695234
0.695236
0.695236
0.695238
0.69524
0.695242
0.695243
0.695243
0.695245
0.695247
0.695249
0.695251
0.695251
0.695253
0.695255
0.695257
0.695259
0.695259
0.695261
0.695263
0.695265
0.695267
0.695267
0.695269
0.695271
0.695273
0.695275
0.695275
0.695277
0.69528
0.695282
0.695284
0.695284
0.695286
0.695288
0.69529
0.695293
0.695293
0.695295
0.695297
0.695299
0.695302
0.695302
0.695304
0.695306
0.695308
0.695311
0.695311
0.695313
0.695315
0.695318
0.69532
0.69532
0.695322
0.695325
0.695327
0.69533
0.69533
0.695332
0.695335
0.695337
0.69534
0.69534
0.695342
0.695345
0.695347
0.69535
0.69535
0.695352
0.695355
0.695357
0.69536
0.69536
0.695362
0.695365
0.695368
0.69537
0.69537
0.695373
0.695376
0.695378
0.695381
0.695381
0.695384
0.695387
0.695389
0.695392
0.695392
0.695395
0.695398
0.6954
0.695403
0.695403
0.695406
0.695409
0.695412
0.695415
0.695415
0.695417
0.69542
0.695423
0.695426
0.695426
0.695429
0.695432
0.695435
0.695438
0.695438
0.695441
0.695444
0.695447
0.69545
0.69545
0.695453
0.695456
0.695459
0.695462
0.695462
0.695465
0.695469
0.695472
0.695475
0.695475
0.695478
0.695481
0.695484
0.695487
0.695487
0.695491
0.695494
0.695497
0.6955
0.6955
0.695504
0.695507
0.69551
0.695514
0.695514
0.695517
0.69552
0.695524
0.695527
0.695527
0.69553
0.695534
0.695537
0.695541
0.695541
0.695544
0.695547
0.695551
0.695554
0.695554
0.695558
0.695561
0.695565
0.695568
0.695568
0.695572
0.695575
0.695579
0.695583
0.695583
0.695586
0.69559
0.695593
0.695597
0.695597
0.695601
0.695604
0.695608
0.695612
0.695612
0.695616
0.695619
0.695623
0.695627
0.695627
0.69563
0.695634
0.695638
0.695642
0.695642
0.695646
0.69565
0.695653
0.695657
0.695657
0.695661
0.695665
0.695669
0.695673
0.695673
0.695677
0.695681
0.695685
0.695689
0.695689
0.695693
0.695697
0.695701
0.695705
0.695705
0.695709
0.695713
0.695717
0.695721
0.695721
0.695725
0.695729
0.695733
0.695737
0.695737
0.695741
0.695746
0.69575
0.695754
0.695754
0.695758
0.695762
0.695767
0.695771
0.695771
0.695775
0.695779
0.695784
0.695788
0.695788
0.695792
0.695797
0.695801
0.695805
0.695805
0.69581
0.695814
0.695819
0.695823
0.695823
0.695827
0.695832
0.695836
0.695841
0.695841
0.695845
0.69585
0.695854
0.695859
0.695859
0.695863
0.695868
0.695872
0.695877
0.695877
0.695882
0.695886
0.695891
0.695895
0.695895
0.6959
0.695905
0.695909
0.695914
0.695914
0.695919
0.695924
0.695928
0.695933
0.695933
0.695938
0.695943
0.695947
0.695952
0.695952
0.695957
0.695962
0.695967
0.695971
0.695971
0.695976
0.695981
0.695986
0.695991
0.695991
0.695996
0.696001
0.696006
0.696011
0.696011
0.696016
0.696021
0.696026
0.696031
0.696031
0.696036
0.696041
0.696046
0.696051
0.696051
0.696056
0.696061
0.696066
0.696071
0.696071
0.696077
0.696082
0.696087
0.696092
0.696092
0.696097
0.696103
0.696108
0.696113
0.696113
0.696118
0.696123
0.696129
0.696134
0.696134
0.696139
0.696145
0.69615
0.696155
0.696155
0.696161
0.696166
0.696172
0.696177
0.696177
0.696182
0.696188
0.696193
0.696199
0.696199
0.696204
0.69621
0.696215
0.696221
0.696221
0.696226
0.696232
0.696237
0.696243
0.696243
0.696248
0.696254
0.69626
0.696265
0.696265
0.696271
0.696277
0.696282
0.696288
0.696288
0.696294
0.696299
0.696305
0.696311
0.696311
0.696317
0.696322
0.696328
0.696334
0.696334
0.69634
0.696346
0.696351
0.696357
0.696357
0.696363
0.696369
0.696375
0.696381
0.696381
0.696387
0.696393
0.696399
0.696404
0.696404
0.69641
0.696416
0.696422
0.696428
0.696428
0.696434
0.696441
0.696447
0.696453
0.696453
0.696459
0.696465
0.696471
0.696477
0.696477
0.696483
0.696489
0.696495
0.696502
0.696502
0.696508
0.696514
0.69652
0.696527
0.696527
0.696533
0.696539
0.696545
0.696552
0.696552
0.696558
0.696564
0.696571
0.696577
0.696577
0.696583
0.69659
0.696596
0.696602
0.696602
0.696609
0.696615
0.696622
0.696628
0.696628
0.696635
0.696641
0.696648
0.696654
0.696654
0.696661
0.696667
0.696674
0.69668
0.69668
0.696687
0.696693
0.6967
0.696707
0.696707
0.696713
0.69672
0.696727
0.696733
0.696733
0.69674
0.696747
0.696753
0.69676
0.69676
0.696767
0.696774
0.69678
0.696787
0.696787
0.696794
0.696801
0.696808
0.696814
0.696814
0.696821
0.696828
0.696835
0.696842
0.696842
0.696849
0.696856
0.696863
0.69687
0.69687
0.696877
0.696884
0.696891
0.696898
0.696898
0.696905
0.696912
0.696919
0.696926
0.696926
0.696933
0.69694
0.696947
0.696954
0.696954
0.696961
0.696968
0.696976
0.696983
0.696983
0.69699
0.696997
0.697004
0.697012
0.697012
0.697019
0.697026
0.697033
0.697041
0.697041
0.697048
0.697055
0.697062
0.69707
0.69707
0.697077
0.697085
0.697092
0.697099
0.697099
0.697107
0.697114
0.697122
0.697129
0.697129
0.697136
0.697144
0.697151
0.697159
0.697159
0.697166
0.697174
0.697181
0.697189
0.697189
0.697197
0.697204
0.697212
0.697219
0.697219
0.697227
0.697235
0.697242
0.69725
0.69725
0.697258
0.697265
0.697273
0.697281
0.697281
0.697289
0.697296
0.697304
0.697312
0.697312
0.69732
0.697327
0.697335
0.697343
0.697343
0.697351
0.697359
0.697367
0.697375
0.697375
0.697382
0.69739
0.697398
0.697406
0.697406
0.697414
0.697422
0.69743
0.697438
0.697438
0.697446
0.697454
0.697462
0.69747
0.69747
0.697478
0.697486
0.697494
0.697503
0.697503
0.697511
0.697519
0.697527
0.697535
0.697535
0.697543
0.697551
0.69756
0.697568
0.697568
0.697576
0.697584
0.697593
0.697601
0.697601
0.697609
0.697617
0.697626
0.697634
0.697634
0.697642
0.697651
0.697659
0.697668
0.697668
0.697676
0.697684
0.697693
0.697701
0.697701
0.69771
0.697718
0.697727
0.697735
0.697735
0.697744
0.697752
0.697761
0.697769
0.697769
0.697778
0.697786
0.697795
0.697804
0.697804
0.697812
0.697821
0.697829
0.697838
0.697838
0.697847
0.697855
0.697864
0.697873
0.697873
0.697882
0.69789
0.697899
0.697908
0.697908
0.697917
0.697925
0.697934
0.697943
0.697943
0.697952
0.697961
0.69797
0.697978
0.697978
0.697987
0.697996
0.698005
0.698014
0.698014
0.698023
0.698032
0.698041
0.69805
0.69805
0.698059
0.698068
0.698077
0.698086
0.698086
0.698095
0.698104
0.698113
0.698122
0.698122
0.698131
0.698141
0.69815
0.698159
0.698159
0.698168
0.698177
0.698186
0.698196
0.698196
0.698205
0.698214
0.698223
0.698233
0.698233
0.698242
0.698251
0.69826
0.69827
0.69827
0.698279
0.698288
0.698298
0.698307
0.698307
0.698317
0.698326
0.698335
0.698345
0.698345
0.698354
0.698364
0.698373
0.698383
0.698383
0.698392
0.698402
0.698411
0.698421
0.698421
0.69843
0.69844
0.698449
0.698459
0.698459
0.698469
0.698478
0.698488
0.698497
0.698497
0.698507
0.698517
0.698526
0.698536
0.698536
0.698546
0.698556
0.698565
0.698575
0.698575
0.698585
0.698595
0.698604
0.698614
0.698614
0.698624
0.698634
0.698644
0.698654
0.698654
0.698664
0.698673
0.698683
0.698693
0.698693
0.698703
0.698713
0.698723
0.698733
0.698733
0.698743
0.698753
0.698763
0.698773
0.698773
0.698783
0.698793
0.698803
0.698813
0.698813
0.698823
0.698834
0.698844
0.698854
0.698854
0.698864
0.698874
0.698884
0.698895
0.698895
0.698905
0.698915
0.698925
0.698935
0.698935
0.698946
0.698956
0.698966
0.698977
0.698977
0.698987
0.698997
0.699008
0.699018
0.699018
0.699028
0.699039
0.699049
0.69906
0.69906
0.69907
0.69908
0.699091
0.699101
0.699101
0.699112
0.699122
0.699133
0.699143
0.699143
0.699154
0.699164
0.699175
0.699186
0.699186
0.699196
0.699207
0.699217
0.699228
0.699228
0.699239
0.699249
0.69926
0.699271
0.699271
0.699281
0.699292
0.699303
0.699314
0.699314
0.699324
0.699335
0.699346
0.699357
0.699357
0.699368
0.699378
0.699389
0.6994
0.6994
0.699411
0.699422
0.699433
0.699444
0.699444
0.699455
0.699465
0.699476
0.699487
0.699487
0.699498
0.699509
0.69952
0.699531
0.699531
0.699542
0.699553
0.699565
0.699576
0.699576
0.699587
0.699598
0.699609
0.69962
0.69962
0.699631
0.699642
0.699653
0.699665
0.699665
0.699676
0.699687
0.699698
0.69971
0.69971
0.699721
0.699732
0.699743
0.699755
0.699755
0.699766
0.699777
0.699789
0.6998
0.6998
0.699811
0.699823
0.699834
0.699845
0.699845
0.699857
0.699868
0.69988
0.699891
0.699891
0.699903
0.699914
0.699926
0.699937
0.699937
0.699949
0.69996
0.699972
0.699983
0.699983
0.699995
0.700007
0.700018
0.70003
0.70003
0.700041
0.700053
0.700065
0.700076
0.700076
0.700088
0.7001
0.700111
0.700123
0.700123
0.700135
0.700147
0.700158
0.70017
0.70017
0.700182
0.700194
0.700206
0.700218
0.700218
0.700229
0.700241
0.700253
0.700265
0.700265
0.700277
0.700289
0.700301
0.700313
0.700313
0.700325
0.700337
0.700349
0.700361
0.700361
0.700373
0.700385
0.700397
0.700409
0.700409
0.700421
0.700433
0.700445
0.700457
0.700457
0.700469
0.700482
0.700494
0.700506
0.700506
0.700518
0.70053
0.700542
0.700555
0.700555
0.700567
0.700579
0.700591
0.700604
0.700604
0.700616
0.700628
0.700641
0.700653
0.700653
0.700665
0.700678
0.70069
0.700702
0.700702
0.700715
0.700727
0.70074
0.700752
0.700752
0.700765
0.700777
0.700789
0.700802
0.700802
0.700815
0.700827
0.70084
0.700852
0.700852
0.700865
0.700877
0.70089
0.700902
0.700902
0.700915
0.700928
0.70094
0.700953
0.700953
0.700966
0.700978
0.700991
0.701004
0.701004
0.701017
0.701029
0.701042
0.701055
0.701055
0.701068
0.70108
0.701093
0.701106
0.701106
0.701119
0.701132
0.701145
0.701157
0.701157
0.70117
0.701183
0.701196
0.701209
0.701209
0.701222
0.701235
0.701248
0.701261
0.701261
0.701274
0.701287
0.7013
0.701313
0.701313
0.701326
0.701339
0.701352
0.701365
0.701365
0.701379
0.701392
0.701405
0.701418
0.701418
0.701431
0.701444
0.701457
0.701471
0.701471
0.701484
0.701497
0.70151
0.701524
0.701524
0.701537
0.70155
0.701564
0.701577
0.701577
0.70159
0.701604
0.701617
0.70163
0.70163
0.701644
0.701657
0.70167
0.701684
0.701684
0.701697
0.701711
0.701724
0.701738
0.701738
0.701751
0.701765
0.701778
0.701792
0.701792
0.701805
0.701819
0.701832
0.701846
0.701846
0.70186
0.701873
0.701887
0.701901
0.701901
0.701914
0.701928
0.701942
0.701955
0.701955
0.701969
0.701983
0.701996
0.70201
0.70201
0.702024
0.702038
0.702052
0.702065
0.702065
0.702079
0.702093
0.702107
0.702121
0.702121
0.702135
0.702148
0.702162
0.702176
0.702176
0.70219
0.702204
0.702218
0.702232
0.702232
0.702246
0.70226
0.702274
0.702288
0.702288
0.702302
0.702316
0.70233
0.702344
0.702344
0.702358
0.702373
0.702387
0.702401
0.702401
0.702415
0.702429
0.702443
0.702458
0.702458
0.702472
0.702486
0.7025
0.702514
0.702514
0.702529
0.702543
0.702557
0.702572
0.702572
0.702586
0.7026
0.702615
0.702629
0.702629
0.702643
0.702658
0.702672
0.702686
0.702686
0.702701
0.702715
0.70273
0.702744
0.702744
0.702759
0.702773
0.702788
0.702802
0.702802
0.702817
0.702831
0.702846
0.70286
0.70286
0.702875
0.70289
0.702904
0.702919
0.702919
0.702933
0.702948
0.702963
0.702977
0.702977
0.702992
0.703007
0.703022
0.703036
0.703036
0.703051
0.703066
0.703081
0.703095
0.703095
0.70311
0.703125
0.70314
0.703155
0.703155
0.70317
0.703184
0.703199
0.703214
0.703214
0.703229
0.703244
0.703259
0.703274
0.703274
0.703289
0.703304
0.703319
0.703334
0.703334
0.703349
0.703364
0.703379
0.703394
0.703394
0.703409
0.703424
0.703439
0.703454
0.703454
0.70347
0.703485
0.7035
0.703515
0.703515
0.70353
0.703545
0.703561
0.703576
0.703576
0.703591
0.703606
0.703622
0.703637
0.703637
0.703652
0.703668
0.703683
0.703698
0.703698
0.703714
0.703729
0.703744
0.70376
0.70376
0.703775
0.70379
0.703806
0.703821
0.703821
0.703837
0.703852
0.703868
0.703883
0.703883
0.703899
0.703914
0.70393
0.703945
0.703945
0.703961
0.703977
0.703992
0.704008
0.704008
0.704023
0.704039
0.704055
0.70407
0.70407
0.704086
0.704102
0.704117
0.704133
0.704133
0.704149
0.704165
0.70418
0.704196
0.704196
0.704212
0.704228
0.704243
0.704259
0.704259
0.704275
0.704291
0.704307
0.704323
0.704323
0.704339
0.704355
0.70437
0.704386
0.704386
0.704402
0.704418
0.704434
0.70445
0.70445
0.704466
0.704482
0.704498
0.704514
0.704514
0.70453
0.704546
0.704563
0.704579
0.704579
0.704595
0.704611
0.704627
0.704643
0.704643
0.704659
0.704675
0.704692
0.704708
0.704708
0.704724
0.70474
0.704757
0.704773
0.704773
0.704789
0.704805
0.704822
0.704838
0.704838
0.704854
0.704871
0.704887
0.704903
0.704903
0.70492
0.704936
0.704953
0.704969
0.704969
0.704985
0.705002
0.705018
0.705035
0.705035
0.705051
0.705068
0.705084
0.705101
0.705101
0.705117
0.705134
0.705151
0.705167
0.705167
0.705184
0.7052
0.705217
0.705234
0.705234
0.70525
0.705267
0.705284
0.7053
0.7053
0.705317
0.705334
0.70535
0.705367
0.705367
0.705384
0.705401
0.705417
0.705434
0.705434
0.705451
0.705468
0.705485
0.705502
0.705502
0.705518
0.705535
0.705552
0.705569
0.705569
0.705586
0.705603
0.70562
0.705637
0.705637
0.705654
0.705671
0.705688
0.705705
0.705705
0.705722
0.705739
0.705756
0.705773
0.705773
0.70579
0.705807
0.705824
0.705842
0.705842
0.705859
0.705876
0.705893
0.70591
0.70591
0.705927
0.705945
0.705962
0.705979
0.705979
0.705996
0.706014
0.706031
0.706048
0.706048
0.706065
0.706083
0.7061
0.706117
0.706117
0.706135
0.706152
0.70617
0.706187
0.706187
0.706204
0.706222
0.706239
0.706257
0.706257
0.706274
0.706292
0.706309
0.706327
0.706327
0.706344
0.706362
0.706379
0.706397
0.706397
0.706414
0.706432
0.706449
0.706467
0.706467
0.706485
0.706502
0.70652
0.706538
0.706538
0.706555
0.706573
0.706591
0.706608
0.706608
0.706626
0.706644
0.706662
0.70668
0.70668
0.706697
0.706715
0.706733
0.706751
0.706751
0.706769
0.706786
0.706804
0.706822
0.706822
0.70684
0.706858
0.706876
0.706894
0.706894
0.706912
0.70693
0.706948
0.706966
0.706966
0.706984
0.707002
0.70702
0.707038
0.707038
0.707056
0.707074
0.707092
0.70711
0.70711
0.707128
0.707146
0.707165
0.707183
0.707183
0.707201
0.707219
0.707237
0.707255
0.707255
0.707274
0.707292
0.70731
0.707328
0.707328
0.707347
0.707365
0.707383
0.707402
0.707402
0.70742
0.707438
0.707457
0.707475
0.707475
0.707493
0.707512
0.70753
0.707549
0.707549
0.707567
0.707585
0.707604
0.707622
0.707622
0.707641
0.707659
0.707678
0.707696
0.707696
0.707715
0.707734
0.707752
0.707771
0.707771
0.707789
0.707808
0.707827
0.707845
0.707845
0.707864
0.707883
0.707901
0.70792
0.70792
0.707939
0.707957
0.707976
0.707995
0.707995
0.708014
0.708032
0.708051
0.70807
0.70807
0.708089
0.708108
0.708126
0.708145
0.708145
0.708164
0.708183
0.708202
0.708221
0.708221
0.70824
0.708259
0.708278
0.708297
0.708297
0.708316
0.708335
0.708354
0.708373
0.708373
0.708392
0.708411
0.70843
0.708449
0.708449
0.708468
0.708487
0.708506
0.708525
0.708525
0.708544
0.708563
0.708583
0.708602
0.708602
0.708621
0.70864
0.708659
0.708679
0.708679
0.708698
0.708717
0.708736
0.708756
0.708756
0.708775
0.708794
0.708814
0.708833
0.708833
0.708852
0.708872
0.708891
0.708911
0.708911
0.70893
0.708949
0.708969
0.708988
0.708988
0.709008
0.709027
0.709047
0.709066
0.709066
0.709086
0.709105
0.709125
0.709144
0.709144
0.709164
0.709183
0.709203
0.709223
0.709223
0.709242
0.709262
0.709282
0.709301
0.709301
0.709321
0.709341
0.70936
0.70938
0.70938
0.7094
0.709419
0.709439
0.709459
0.709459
0.709479
0.709499
0.709518
0.709538
0.709538
0.709558
0.709578
0.709598
0.709618
0.709618
0.709638
0.709657
0.709677
0.709697
0.709697
0.709717
0.709737
0.709757
0.709777
0.709777
0.709797
0.709817
0.709837
0.709857
0.709857
0.709877
0.709897
0.709917
0.709938
0.709938
0.709958
0.709978
0.709998
0.710018
0.710018
0.710038
0.710058
0.710079
0.710099
0.710099
0.710119
0.710139
0.710159
0.71018
0.71018
0.7102
0.71022
0.71024
0.710261
0.710261
0.710281
0.710301
0.710322
0.710342
0.710342
0.710363
0.710383
0.710403
0.710424
0.710424
0.710444
0.710465
0.710485
0.710506
0.710506
0.710526
0.710546
0.710567
0.710588
0.710588
0.710608
0.710629
0.710649
0.71067
0.71067
0.71069
0.710711
0.710732
0.710752
0.710752
0.710773
0.710793
0.710814
0.710835
0.710835
0.710856
0.710876
0.710897
0.710918
0.710918
0.710938
0.710959
0.71098
0.711001
0.711001
0.711022
0.711042
0.711063
0.711084
0.711084
0.711105
0.711126
0.711147
0.711168
0.711168
0.711188
0.711209
0.71123
0.711251
0.711251
0.711272
0.711293
0.711314
0.711335
0.711335
0.711356
0.711377
0.711398
0.711419
0.711419
0.71144
0.711462
0.711483
0.711504
0.711504
0.711525
0.711546
0.711567
0.711588
0.711588
0.711609
0.711631
0.711652
0.711673
0.711673
0.711694
0.711716
0.711737
0.711758
0.711758
0.711779
0.711801
0.711822
0.711843
0.711843
0.711865
0.711886
0.711907
0.711929
0.711929
0.71195
0.711972
0.711993
0.712014
0.712014
0.712036
0.712057
0.712079
0.7121
0.7121
0.712122
0.712143
0.712165
0.712186
0.712186
0.712208
0.712229
0.712251
0.712273
0.712273
0.712294
0.712316
0.712337
0.712359
0.712359
0.712381
0.712402
0.712424
0.712446
0.712446
0.712468
0.712489
0.712511
0.712533
0.712533
0.712554
0.712576
0.712598
0.71262
0.71262
0.712642
0.712664
0.712685
0.712707
0.712707
0.712729
0.712751
0.712773
0.712795
0.712795
0.712817
0.712839
0.712861
0.712883
0.712883
0.712905
0.712927
0.712949
0.712971
0.712971
0.712993
0.713015
0.713037
0.713059
0.713059
0.713081
0.713103
0.713125
0.713147
0.713147
0.713169
0.713191
0.713214
0.713236
0.713236
0.713258
0.71328
0.713302
0.713325
0.713325
0.713347
0.713369
0.713391
0.713414
0.713414
0.713436
0.713458
0.713481
0.713503
0.713503
0.713525
0.713548
0.71357
0.713592
0.713592
0.713615
0.713637
0.71366
0.713682
0.713682
0.713705
0.713727
0.71375
0.713772
0.713772
0.713795
0.713817
0.71384
0.713862
0.713862
0.713885
0.713907
0.71393
0.713953
0.713953
0.713975
0.713998
0.71402
0.714043
0.714043
0.714066
0.714088
0.714111
0.714134
0.714134
0.714157
0.714179
0.714202
0.714225
0.714225
0.714248
0.71427
0.714293
0.714316
0.714316
0.714339
0.714362
0.714384
0.714407
0.714407
0.71443
0.714453
0.714476
0.714499
0.714499
0.714522
0.714545
0.714568
0.714591
0.714591
0.714614
0.714637
0.71466
0.714683
0.714683
0.714706
0.714729
0.714752
0.714775
0.714775
0.714798
0.714821
0.714844
0.714868
0.714868
0.714891
0.714914
0.714937
0.71496
0.71496
0.714983
0.715007
0.71503
0.715053
0.715053
0.715076
0.7151
0.715123
0.715146
0.715146
0.715169
0.715193
0.715216
0.715239
0.715239
0.715263
0.715286
0.71531
0.715333
0.715333
0.715356
0.71538
0.715403
0.715427
0.715427
0.71545
0.715474
0.715497
0.715521
0.715521
0.715544
0.715568
0.715591
0.715615
0.715615
0.715638
0.715662
0.715686
0.715709
0.715709
0.715733
0.715756
0.71578
0.715804
0.715804
0.715827
0.715851
0.715875
0.715899
0.715899
0.715922
0.715946
0.71597
0.715994
0.715994
0.716017
0.716041
0.716065
0.716089
0.716089
0.716113
0.716136
0.71616
0.716184
0.716184
0.716208
0.716232
0.716256
0.71628
0.71628
0.716304
0.716328
0.716352
0.716376
0.716376
0.7164
0.716424
0.716448
0.716472
0.716472
0.716496
0.71652
0.716544
0.716568
0.716568
0.716592
0.716616
0.71664
0.716665
0.716665
0.716689
0.716713
0.716737
0.716761
0.716761
0.716785
0.71681
0.716834
0.716858
0.716858
0.716882
0.716907
0.716931
0.716955
0.716955
0.71698
0.717004
0.717028
0.717053
0.717053
0.717077
0.717101
0.717126
0.71715
0.71715
0.717175
0.717199
0.717223
0.717248
0.717248
0.717272
0.717297
0.717321
0.717346
0.717346
0.71737
0.717395
0.717419
0.717444
0.717444
0.717469
0.717493
0.717518
0.717542
0.717542
0.717567
0.717592
0.717616
0.717641
0.717641
0.717666
0.71769
0.717715
0.71774
0.71774
0.717764
0.717789
0.717814
0.717839
0.717839
0.717864
0.717888
0.717913
0.717938
0.717938
0.717963
0.717988
0.718013
0.718037
0.718037
0.718062
0.718087
0.718112
0.718137
0.718137
0.718162
0.718187
0.718212
0.718237
0.718237
0.718262
0.718287
0.718312
0.718337
0.718337
0.718362
0.718387
0.718412
0.718437
0.718437
0.718462
0.718487
0.718513
0.718538
0.718538
0.718563
0.718588
0.718613
0.718638
0.718638
0.718664
0.718689
0.718714
0.718739
0.718739
0.718765
0.71879
0.718815
0.71884
0.71884
0.718866
0.718891
0.718916
0.718942
0.718942
0.718967
0.718993
0.719018
0.719043
0.719043
0.719069
0.719094
0.71912
0.719145
0.719145
0.719171
0.719196
0.719222
0.719247
0.719247
0.719273
0.719298
0.719324
0.719349
0.719349
0.719375
0.7194
0.719426
0.719452
0.719452
0.719477
0.719503
0.719529
0.719554
0.719554
0.71958
0.719606
0.719631
0.719657
0.719657
0.719683
0.719708
0.719734
0.71976
0.71976
0.719786
0.719812
0.719837
0.719863
0.719863
0.719889
0.719915
0.719941
0.719967
0.719967
0.719992
0.720018
0.720044
0.72007
0.72007
0.720096
0.720122
0.720148
0.720174
0.720174
0.7202
0.720226
0.720252
0.720278
0.720278
0.720304
0.72033
0.720356
0.720382
0.720382
0.720409
0.720435
0.720461
0.720487
0.720487
0.720513
0.720539
0.720565
0.720592
0.720592
0.720618
0.720644
0.72067
0.720696
0.720696
0.720723
0.720749
0.720775
0.720802
0.720802
0.720828
0.720854
0.720881
0.720907
0.720907
0.720933
0.72096
0.720986
0.721012
0.721012
0.721039
0.721065
0.721092
0.721118
0.721118
0.721145
0.721171
0.721198
0.721224
0.721224
0.721251
0.721277
0.721304
0.72133
0.72133
0.721357
0.721383
0.72141
0.721437
0.721437
0.721463
0.72149
0.721516
0.721543
0.721543
0.72157
0.721596
0.721623
0.72165
0.72165
0.721677
0.721703
0.72173
0.721757
0.721757
0.721784
0.72181
0.721837
0.721864
0.721864
0.721891
0.721918
0.721945
0.721971
0.721971
0.721998
0.722025
0.722052
0.722079
0.722079
0.722106
0.722133
0.72216
0.722187
0.722187
0.722214
0.722241
0.722268
0.722295
0.722295
0.722322
0.722349
0.722376
0.722403
0.722403
0.72243
0.722457
0.722484
0.722511
0.722511
0.722539
0.722566
0.722593
0.72262
0.72262
0.722647
0.722675
0.722702
0.722729
0.722729
0.722756
0.722783
0.722811
0.722838
0.722838
0.722865
0.722893
0.72292
0.722947
0.722947
0.722975
0.723002
0.723029
0.723057
0.723057
0.723084
0.723112
0.723139
0.723166
0.723166
0.723194
0.723221
0.723249
0.723276
0.723276
0.723304
0.723331
0.723359
0.723386
0.723386
0.723414
0.723442
0.723469
0.723497
0.723497
0.723524
0.723552
0.72358
0.723607
0.723607
0.723635
0.723663
0.72369
0.723718
0.723718
0.723746
0.723773
0.723801
0.723829
0.723829
0.723857
0.723884
0.723912
0.72394
0.72394
0.723968
0.723996
0.724024
0.724051
0.724051
0.724079
0.724107
0.724135
0.724163
0.724163
0.724191
0.724219
0.724247
0.724275
0.724275
0.724303
0.724331
0.724359
0.724387
0.724387
0.724415
0.724443
0.724471
0.724499
0.724499
0.724527
0.724555
0.724583
0.724611
0.724611
0.724639
0.724667
0.724696
0.724724
0.724724
0.724752
0.72478
0.724808
0.724837
0.724837
0.724865
0.724893
0.724921
0.72495
0.72495
0.724978
0.725006
0.725034
0.725063
0.725063
0.725091
0.725119
0.725148
0.725176
0.725176
0.725205
0.725233
0.725261
0.72529
0.72529
0.725318
0.725347
0.725375
0.725404
0.725404
0.725432
0.725461
0.725489
0.725518
0.725518
0.725546
0.725575
0.725603
0.725632
0.725632
0.72566
0.725689
0.725718
0.725746
0.725746
0.725775
0.725804
0.725832
0.725861
0.725861
0.72589
0.725918
0.725947
0.725976
0.725976
0.726004
0.726033
0.726062
0.726091
0.726091
0.72612
0.726148
0.726177
0.726206
0.726206
0.726235
0.726264
0.726293
0.726322
0.726322
0.72635
0.726379
0.726408
0.726437
0.726437
0.726466
0.726495
0.726524
0.726553
0.726553
0.726582
0.726611
0.72664
0.726669
0.726669
0.726698
0.726727
0.726756
0.726785
0.726785
0.726815
0.726844
0.726873
0.726902
0.726902
0.726931
0.72696
0.726989
0.727019
0.727019
0.727048
0.727077
0.727106
0.727136
0.727136
0.727165
0.727194
0.727223
0.727253
0.727253
0.727282
0.727311
0.727341
0.72737
0.72737
0.727399
0.727429
0.727458
0.727488
0.727488
0.727517
0.727546
0.727576
0.727605
0.727605
0.727635
0.727664
0.727694
0.727723
0.727723
0.727753
0.727782
0.727812
0.727841
0.727841
0.727871
0.7279
0.72793
0.72796
0.72796
0.727989
0.728019
0.728049
0.728078
0.728078
0.728108
0.728138
0.728167
0.728197
0.728197
0.728227
0.728256
0.728286
0.728316
0.728316
0.728346
0.728375
0.728405
0.728435
0.728435
0.728465
0.728495
0.728525
0.728554
0.728554
0.728584
0.728614
0.728644
0.728674
0.728674
0.728704
0.728734
0.728764
0.728794
0.728794
0.728824
0.728854
0.728884
0.728914
0.728914
0.728944
0.728974
0.729004
0.729034
0.729034
0.729064
0.729094
0.729124
0.729154
0.729154
0.729184
0.729215
0.729245
0.729275
0.729275
0.729305
0.729335
0.729365
0.729396
0.729396
0.729426
0.729456
0.729486
0.729517
0.729517
0.729547
0.729577
0.729608
0.729638
0.729638
0.729668
0.729699
0.729729
0.729759
0.729759
0.72979
0.72982
0.72985
0.729881
0.729881
0.729911
0.729942
0.729972
0.730003
0.730003
0.730033
0.730064
0.730094
0.730125
0.730125
0.730155
0.730186
0.730216
0.730247
0.730247
0.730277
0.730308
0.730339
0.730369
0.730369
0.7304
0.730431
0.730461
0.730492
0.730492
0.730523
0.730553
0.730584
0.730615
0.730615
0.730645
0.730676
0.730707
0.730738
0.730738
0.730769
0.730799
0.73083
0.730861
0.730861
0.730892
0.730923
0.730954
0.730984
0.730984
0.731015
0.731046
0.731077
0.731108
0.731108
0.731139
0.73117
0.731201
0.731232
0.731232
0.731263
0.731294
0.731325
0.731356
0.731356
0.731387
0.731418
0.731449
0.73148
0.73148
0.731511
0.731542
0.731574
0.731605
0.731605
0.731636
0.731667
0.731698
0.731729
0.731729
0.73176
0.731792
0.731823
0.731854
0.731854
0.731885
0.731917
0.731948
0.731979
0.731979
0.73201
0.732042
0.732073
0.732104
0.732104
0.732136
0.732167
0.732199
0.73223
0.73223
0.732261
0.732293
0.732324
0.732356
0.732356
0.732387
0.732418
0.73245
0.732481
0.732481
0.732513
0.732544
0.732576
0.732607
0.732607
0.732639
0.732671
0.732702
0.732734
0.732734
0.732765
0.732797
0.732829
0.73286
0.73286
0.732892
0.732924
0.732955
0.732987
0.732987
0.733019
0.73305
0.733082
0.733114
0.733114
0.733145
0.733177
0.733209
0.733241
0.733241
0.733273
0.733304
0.733336
0.733368
0.733368
0.7334
0.733432
0.733464
0.733496
0.733496
0.733527
0.733559
0.733591
0.733623
0.733623
0.733655
0.733687
0.733719
0.733751
0.733751
0.733783
0.733815
0.733847
0.733879
0.733879
0.733911
0.733943
0.733975
0.734007
0.734007
0.73404
0.734072
0.734104
0.734136
0.734136
0.734168
0.7342
0.734232
0.734265
0.734265
0.734297
0.734329
0.734361
0.734393
0.734393
0.734426
0.734458
0.73449
0.734523
0.734523
0.734555
0.734587
0.73462
0.734652
0.734652
0.734684
0.734717
0.734749
0.734781
0.734781
0.734814
0.734846
0.734879
0.734911
0.734911
0.734943
0.734976
0.735008
0.735041
0.735041
0.735073
0.735106
0.735138
0.735171
0.735171
0.735204
0.735236
0.735269
0.735301
0.735301
0.735334
0.735366
0.735399
0.735432
0.735432
0.735464
0.735497
0.73553
0.735562
0.735562
0.735595
0.735628
0.735661
0.735693
0.735693
0.735726
0.735759
0.735792
0.735824
0.735824
0.735857
0.73589
0.735923
0.735956
0.735956
0.735988
0.736021
0.736054
0.736087
0.736087
0.73612
0.736153
0.736186
0.736219
0.736219
0.736252
0.736285
0.736318
0.736351
0.736351
0.736384
0.736417
0.73645
0.736483
0.736483
0.736516
0.736549
0.736582
0.736615
0.736615
0.736648
0.736681
0.736714
0.736747
0.736747
0.736781
0.736814
0.736847
0.73688
0.73688
0.736913
0.736947
0.73698
0.737013
0.737013
0.737046
0.73708
0.737113
0.737146
0.737146
0.737179
0.737213
0.737246
0.737279
0.737279
0.737313
0.737346
0.737379
0.737413
0.737413
0.737446
0.73748
0.737513
0.737546
0.737546
0.73758
0.737613
0.737647
0.73768
0.73768
0.737714
0.737747
0.737781
0.737814
0.737814
0.737848
0.737881
0.737915
0.737949
0.737949
0.737982
0.738016
0.738049
0.738083
0.738083
0.738117
0.73815
0.738184
0.738218
0.738218
0.738251
0.738285
0.738319
0.738353
0.738353
0.738386
0.73842
0.738454
0.738488
0.738488
0.738521
0.738555
0.738589
0.738623
0.738623
0.738657
0.738691
0.738724
0.738758
0.738758
0.738792
0.738826
0.73886
0.738894
0.738894
0.738928
0.738962
0.738996
0.73903
0.73903
0.739064
0.739098
0.739132
0.739166
0.739166
0.7392
0.739234
0.739268
0.739302
0.739302
0.739336
0.73937
0.739404
0.739439
0.739439
0.739473
0.739507
0.739541
0.739575
0.739575
0.739609
0.739644
0.739678
0.739712
0.739712
0.739746
0.73978
0.739815
0.739849
0.739849
0.739883
0.739918
0.739952
0.739986
0.739986
0.740021
0.740055
0.740089
0.740124
0.740124
0.740158
0.740192
0.740227
0.740261
0.740261
0.740296
0.74033
0.740365
0.740399
0.740399
0.740434
0.740468
0.740503
0.740537
0.740537
0.740572
0.740606
0.740641
0.740675
0.740675
0.74071
0.740744
0.740779
0.740814
0.740814
0.740848
0.740883
0.740918
0.740952
0.740952
0.740987
0.741022
0.741056
0.741091
0.741091
0.741126
0.741161
0.741195
0.74123
0.74123
0.741265
0.7413
0.741334
0.741369
0.741369
0.741404
0.741439
0.741474
0.741509
0.741509
0.741543
0.741578
0.741613
0.741648
0.741648
0.741683
0.741718
0.741753
0.741788
0.741788
0.741823
0.741858
0.741893
0.741928
0.741928
0.741963
0.741998
0.742033
0.742068
0.742068
0.742103
0.742138
0.742173
0.742208
0.742208
0.742244
0.742279
0.742314
0.742349
0.742349
0.742384
0.742419
0.742454
0.74249
0.74249
0.742525
0.74256
0.742595
0.742631
0.742631
0.742666
0.742701
0.742736
0.742772
0.742772
0.742807
0.742842
0.742878
0.742913
0.742913
0.742948
0.742984
0.743019
0.743055
0.743055
0.74309
0.743125
0.743161
0.743196
0.743196
0.743232
0.743267
0.743303
0.743338
0.743338
0.743374
0.743409
0.743445
0.74348
0.74348
0.743516
0.743551
0.743587
0.743623
0.743623
0.743658
0.743694
0.743729
0.743765