<?xml version="1.0"?>
<VTKFile type="UnstructuredGrid" version="0.1" byte_order="LittleEndian">
<UnstructuredGrid>
<Piece NumberOfPoints="5000" NumberOfCells="4000">
<PointData Scalars="Reaction 0">
<DataArray type="Float32" Name="Reaction 0" format="ascii">
0.771478
0.771478
0.771478
0.771478
0.771478
0.771478
0.771478
0.771478
0.771478
0.771478
0.771478
0.771478
0.771478
0.771479
0.771479
0.771479
0.771479
0.771479
0.771479
0.771479
0.771479
0.771479
0.77148
0.77148
0.77148
0.77148
0.77148
0.771481
0.771481
0.771481
0.771481
0.771481
0.771482
0.771482
0.771482
0.771482
0.771483
0.771483
0.771483
0.771484
0.771484
0.771484
0.771484
0.771485
0.771485
0.771485
0.771485
0.771486
0.771486
0.771487
0.771487
0.771487
0.771488
0.771488
0.771489
0.771489
0.771489
0.77149
0.77149
0.771491
0.771491
0.771491
0.771492
0.771492
0.771493
0.771493
0.771493
0.771494
0.771495
0.771495
0.771495
0.771496
0.771496
0.771497
0.771498
0.771498
0.771498
0.771499
0.7715
0.7715
0.7715
0.771501
0.771502
0.771503
0.771503
0.771503
0.771504
0.771505
0.771506
0.771506
0.771506
0.771507
0.771508
0.771509
0.77151
0.77151
0.771511
0.771511
0.771512
0.771513
0.771513
0.771514
0.771515
0.771516
0.771517
0.771517
0.771518
0.771519
0.77152
0.771521
0.771521
0.771522
0.771523
0.771524
0.771525
0.771525
0.771526
0.771527
0.771528
0.771529
0.771529
0.77153
0.771531
0.771532
0.771533
0.771533
0.771534
0.771535
0.771536
0.771538
0.771538
0.771539
0.77154
0.771541
0.771542
0.771542
0.771543
0.771545
0.771546
0.771547
0.771547
0.771548
0.77155
0.771551
0.771552
0.771552
0.771553
0.771555
0.771556
0.771557
0.771557
0.771559
0.77156
0.771561
0.771563
0.771563
0.771564
0.771565
0.771567
0.771568
0.771568
0.77157
0.771571
0.771573
0.771574
0.771574
0.771575
0.771577
0.771578
0.77158
0.77158
0.771581
0.771583
0.771584
0.771586
0.771586
0.771588
0.771589
0.771591
0.771592
0.771592
0.771594
0.771595
0.771597
0.771599
0.771599
0.7716
0.771602
0.771604
0.771605
0.771605
0.771607
0.771609
0.77161
0.771612
0.771612
0.771614
0.771616
0.771617
0.771619
0.771619
0.771621
0.771623
0.771624
0.771626
0.771626
0.771628
0.77163
0.771632
0.771634
0.771634
0.771635
0.771637
0.771639
0.771641
0.771641
0.771643
0.771645
0.771647
0.771649
0.771649
0.771651
0.771653
0.771655
0.771657
0.771657
0.771659
0.771661
0.771663
0.771665
0.771665
0.771667
0.771669
0.771671
0.771673
0.771673
0.771675
0.771677
0.771679
0.771681
0.771681
0.771683
0.771685
0.771688
0.77169
0.77169
0.771692
0.771694
0.771696
0.771698
0.771698
0.771701
0.771703
0.771705
0.771707
0.771707
0.77171
0.771712
0.771714
0.771716
0.771716
0.771719
0.771721
0.771723
0.771726
0.771726
0.771728
0.77173
0.771733
0.771735
0.771735
0.771738
0.77174
0.771742
0.771745
0.771745
0.771747
0.77175
0.771752
0.771755
0.771755
0.771757
0.77176
0.771762
0.771765
0.771765
0.771767
0.77177
0.771772
0.771775
0.771775
0.771777
0.77178
0.771782
0.771785
0.771785
0.771788
0.77179
0.771793
0.771795
0.771795
0.771798
0.771801
0.771803
0.771806
0.771806
0.771809
0.771812
0.771814
0.771817
0.771817
0.77182
0.771822
0.771825
0.771828
0.771828
0.771831
0.771834
0.771836
0.771839
0.771839
0.771842
0.771845
0.771848
0.771851
0.771851
0.771853
0.771856
0.771859
0.771862
0.771862
0.771865
0.771868
0.771871
0.771874
0.771874
0.771877
0.77188
0.771883
0.771886
0.771886
0.771889
0.771892
0.771895
0.771898
0.771898
0.771901
0.771904
0.771907
0.77191
0.77191
0.771913
0.771916
0.771919
0.771923
0.771923
0.771926
0.771929
0.771932
0.771935
0.771935
0.771938
0.771942
0.771945
0.771948
0.771948
0.771951
0.771954
0.771958
0.771961
0.771961
0.771964
0.771967
0.771971
0.771974
0.771974
0.771977
0.771981
0.771984
0.771987
0.771987
0.771991
0.771994
0.771997
0.772001
0.772001
0.772004
0.772008
0.772011
0.772014
0.772014
0.772018
0.772021
0.772025
0.772028
0.772028
0.772032
0.772035
0.772039
0.772042
0.772042
0.772046
0.772049
0.772053
0.772057
0.772057
0.77206
0.772064
0.772067
0.772071
0.772071
0.772075
0.772078
0.772082
0.772085
0.772085
0.772089
0.772093
0.772096
0.7721
0.7721
0.772104
0.772108
0.772111
0.772115
0.772115
0.772119
0.772123
0.772126
0.77213
0.77213
0.772134
0.772138
0.772142
0.772145
0.772145
0.772149
0.772153
0.772157
0.772161
0.772161
0.772165
0.772169
0.772173
0.772176
0.772176
0.77218
0.772184
0.772188
0.772192
0.772192
0.772196
0.7722
0.772204
0.772208
0.772208
0.772212
0.772216
0.77222
0.772224
0.772224
0.772228
0.772232
0.772236
0.772241
0.772241
0.772245
0.772249
0.772253
0.772257
0.772257
0.772261
0.772265
0.77227
0.772274
0.772274
0.772278
0.772282
0.772286
0.772291
0.772291
0.772295
0.772299
0.772303
0.772308
0.772308
0.772312
0.772316
0.77232
0.772325
0.772325
0.772329
0.772333
0.772338
0.772342
0.772342
0.772346
0.772351
0.772355
0.77236
0.77236
0.772364
0.772368
0.772373
0.772377
0.772377
0.772382
0.772386
0.772391
0.772395
0.772395
0.7724
0.772404
0.772409
0.772413
0.772413
0.772418
0.772422
0.772427
0.772432
0.772432
0.772436
0.772441
0.772445
0.77245
0.77245
0.772455
0.772459
0.772464
0.772469
0.772469
0.772473
0.772478
0.772483
0.772487
0.772487
0.772492
0.772497
0.772501
0.772506
0.772506
0.772511
0.772516
0.772521
0.772525
0.772525
0.77253
0.772535
0.77254
0.772545
0.772545
0.772549
0.772554
0.772559
0.772564
0.772564
0.772569
0.772574
0.772579
0.772584
0.772584
0.772589
0.772594
0.772599
0.772604
0.772604
0.772609
0.772613
0.772619
0.772624
0.772624
0.772629
0.772634
0.772639
0.772644
0.772644
0.772649
0.772654
0.772659
0.772664
0.772664
0.772669
0.772674
0.772679
0.772685
0.772685
0.77269
0.772695
0.7727
0.772705
0.772705
0.77271
0.772716
0.772721
0.772726
0.772726
0.772731
0.772737
0.772742
0.772747
0.772747
0.772752
0.772758
0.772763
0.772768
0.772768
0.772774
0.772779
0.772784
0.77279
0.77279
0.772795
0.772801
0.772806
0.772811
0.772811
0.772817
0.772822
0.772828
0.772833
0.772833
0.772839
0.772844
0.772849
0.772855
0.772855
0.77286
0.772866
0.772872
0.772877
0.772877
0.772883
0.772888
0.772894
0.772899
0.772899
0.772905
0.772911
0.772916
0.772922
0.772922
0.772927
0.772933
0.772939
0.772944
0.772944
0.77295
0.772956
0.772961
0.772967
0.772967
0.772973
0.772979
0.772984
0.77299
0.77299
0.772996
0.773002
0.773008
0.773013
0.773013
0.773019
0.773025
0.773031
0.773037
0.773037
0.773042
0.773048
0.773054
0.77306
0.77306
0.773066
0.773072
0.773078
0.773084
0.773084
0.77309
0.773096
0.773102
0.773108
0.773108
0.773114
0.77312
0.773126
0.773132
0.773132
0.773138
0.773144
0.77315
0.773156
0.773156
0.773162
0.773168
0.773174
0.77318
0.77318
0.773186
0.773192
0.773199
0.773205
0.773205
0.773211
0.773217
0.773223
0.773229
0.773229
0.773236
0.773242
0.773248
0.773254
0.773254
0.773261
0.773267
0.773273
0.773279
0.773279
0.773286
0.773292
0.773298
0.773305
0.773305
0.773311
0.773317
0.773324
0.77333
0.77333
0.773336
0.773343
0.773349
0.773356
0.773356
0.773362
0.773369
0.773375
0.773381
0.773381
0.773388
0.773394
0.773401
0.773407
0.773407
0.773414
0.77342
0.773427
0.773434
0.773434
0.77344
0.773447
0.773453
0.77346
0.77346
0.773466
0.773473
0.77348
0.773486
0.773486
0.773493
0.7735
0.773506
0.773513
0.773513
0.77352
0.773526
0.773533
0.77354
0.77354
0.773546
0.773553
0.77356
0.773567
0.773567
0.773574
0.77358
0.773587
0.773594
0.773594
0.773601
0.773608
0.773614
0.773621
0.773621
0.773628
0.773635
0.773642
0.773649
0.773649
0.773656
0.773663
0.77367
0.773676
0.773676
0.773683
0.77369
0.773697
0.773704
0.773704
0.773711
0.773718
0.773725
0.773732
0.773732
0.773739
0.773746
0.773753
0.773761
0.773761
0.773768
0.773775
0.773782
0.773789
0.773789
0.773796
0.773803
0.77381
0.773817
0.773817
0.773825
0.773832
0.773839
0.773846
0.773846
0.773853
0.773861
0.773868
0.773875
0.773875
0.773882
0.77389
0.773897
0.773904
0.773904
0.773912
0.773919
0.773926
0.773933
0.773933
0.773941
0.773948
0.773956
0.773963
0.773963
0.77397
0.773978
0.773985
0.773993
0.773993
0.774
0.774007
0.774015
0.774022
0.774022
0.77403
0.774037
0.774045
0.774052
0.774052
0.77406
0.774067
0.774075
0.774082
0.774082
0.77409
0.774097
0.774105
0.774113
0.774113
0.77412
0.774128
0.774136
0.774143
0.774143
0.774151
0.774158
0.774166
0.774174
0.774174
0.774181
0.774189
0.774197
0.774205
0.774205
0.774212
0.77422
0.774228
0.774236
0.774236
0.774243
0.774251
0.774259
0.774267
0.774267
0.774275
0.774282
0.77429
0.774298
0.774298
0.774306
0.774314
0.774322
0.77433
0.77433
0.774338
0.774345
0.774353
0.774361
0.774361
0.774369
0.774377
0.774385
0.774393
0.774393
0.774401
0.774409
0.774417
0.774425
0.774425
0.774433
0.774441
0.774449
0.774457
0.774457
0.774466
0.774474
0.774482
0.77449
0.77449
0.774498
0.774506
0.774514
0.774522
0.774522
0.774531
0.774539
0.774547
0.774555
0.774555
0.774563
0.774572
0.77458
0.774588
0.774588
0.774596
0.774605
0.774613
0.774621
0.774621
0.774629
0.774638
0.774646
0.774654
0.774654
0.774663
0.774671
0.774679
0.774688
0.774688
0.774696
0.774705
0.774713
0.774721
0.774721
0.77473
0.774738
0.774747
0.774755
0.774755
0.774764
0.774772
0.774781
0.774789
0.774789
0.774798
0.774806
0.774815
0.774823
0.774823
0.774832
0.77484
0.774849
0.774858
0.774858
0.774866
0.774875
0.774883
0.774892
0.774892
0.774901
0.774909
0.774918
0.774927
0.774927
0.774935
0.774944
0.774953
0.774961
0.774961
0.77497
0.774979
0.774988
0.774996
0.774996
0.775005
0.775014
0.775023
0.775032
0.775032
0.77504
0.775049
0.775058
0.775067
0.775067
0.775076
0.775085
0.775094
0.775102
0.775102
0.775111
0.77512
0.775129
0.775138
0.775138
0.775147
0.775156
0.775165
0.775174
0.775174
0.775183
0.775192
0.775201
0.77521
0.77521
0.775219
0.775228
0.775237
0.775246
0.775246
0.775255
0.775264
0.775273
0.775283
0.775283
0.775292
0.775301
0.77531
0.775319
0.775319
0.775328
0.775337
0.775347
0.775356
0.775356
0.775365
0.775374
0.775383
0.775393
0.775393
0.775402
0.775411
0.77542
0.77543
0.77543
0.775439
0.775448
0.775458
0.775467
0.775467
0.775476
0.775486
0.775495
0.775504
0.775504
0.775514
0.775523
0.775533
0.775542
0.775542
0.775551
0.775561
0.77557
0.77558
0.77558
0.775589
0.775599
0.775608
0.775618
0.775618
0.775627
0.775637
0.775646
0.775656
0.775656
0.775665
0.775675
0.775684
0.775694
0.775694
0.775704
0.775713
0.775723
0.775732
0.775732
0.775742
0.775752
0.775761
0.775771
0.775771
0.775781
0.77579
0.7758
0.77581
0.77581
0.77582
0.775829
0.775839
0.775849
0.775849
0.775859
0.775868
0.775878
0.775888
0.775888
0.775898
0.775908
0.775917
0.775927
0.775927
0.775937
0.775947
0.775957
0.775967
0.775967
0.775977
0.775987
0.775996
0.776006
0.776006
0.776016
0.776026
0.776036
0.776046
0.776046
0.776056
0.776066
0.776076
0.776086
0.776086
0.776096
0.776106
0.776116
0.776126
0.776126
0.776136
0.776147
0.776157
0.776167
0.776167
0.776177
0.776187
0.776197
0.776207
0.776207
0.776217
0.776228
0.776238
0.776248
0.776248
0.776258
0.776268
0.776279
0.776289
0.776289
0.776299
0.776309
0.77632
0.77633
0.77633
0.77634
0.77635
0.776361
0.776371
0.776371
0.776381
0.776392
0.776402
0.776412
0.776412
0.776423
0.776433
0.776443
0.776454
0.776454
0.776464
0.776475
0.776485
0.776496
0.776496
0.776506
0.776517
0.776527
0.776537
0.776537
0.776548
0.776558
0.776569
0.77658
0.77658
0.77659
0.776601
0.776611
0.776622
0.776622
0.776632
0.776643
0.776654
0.776664
0.776664
0.776675
0.776685
0.776696
0.776707
0.776707
0.776717
0.776728
0.776739
0.776749
0.776749
0.77676
0.776771
0.776782
0.776792
0.776792
0.776803
0.776814
0.776825
0.776835
0.776835
0.776846
0.776857
0.776868
0.776879
0.776879
0.77689
0.7769
0.776911
0.776922
0.776922
0.776933
0.776944
0.776955
0.776966
0.776966
0.776977
0.776988
0.776999
0.77701
0.77701
0.77702
0.777031
0.777042
0.777053
0.777053
0.777064
0.777075
0.777087
0.777098
0.777098
0.777109
0.77712
0.777131
0.777142
0.777142
0.777153
0.777164
0.777175
0.777186
0.777186
0.777197
0.777209
0.77722
0.777231
0.777231
0.777242
0.777253
0.777265
0.777276
0.777276
0.777287
0.777298
0.777309
0.777321
0.777321
0.777332
0.777343
0.777355
0.777366
0.777366
0.777377
0.777388
0.7774
0.777411
0.777411
0.777422
0.777434
0.777445
0.777457
0.777457
0.777468
0.777479
0.777491
0.777502
0.777502
0.777514
0.777525
0.777537
0.777548
0.777548
0.77756
0.777571
0.777583
0.777594
0.777594
0.777606
0.777617
0.777629
0.77764
0.77764
0.777652
0.777663
0.777675
0.777687
0.777687
0.777698
0.77771
0.777721
0.777733
0.777733
0.777745
0.777756
0.777768
0.77778
0.77778
0.777791
0.777803
0.777815
0.777827
0.777827
0.777838
0.77785
0.777862
0.777874
0.777874
0.777885
0.777897
0.777909
0.777921
0.777921
0.777933
0.777944
0.777956
0.777968
0.777968
0.77798
0.777992
0.778004
0.778016
0.778016
0.778028
0.778039
0.778051
0.778063
0.778063
0.778075
0.778087
0.778099
0.778111
0.778111
0.778123
0.778135
0.778147
0.778159
0.778159
0.778171
0.778183
0.778195
0.778207
0.778207
0.77822
0.778232
0.778244
0.778256
0.778256
0.778268
0.77828
0.778292
0.778304
0.778304
0.778317
0.778329
0.778341
0.778353
0.778353
0.778365
0.778377
0.77839
0.778402
0.778402
0.778414
0.778426
0.778439
0.778451
0.778451
0.778463
0.778476
0.778488
0.7785
0.7785
0.778513
0.778525
0.778537
0.77855
0.77855
0.778562
0.778574
0.778587
0.778599
0.778599
0.778612
0.778624
0.778636
0.778649
0.778649
0.778661
0.778674
0.778686
0.778699
0.778699
0.778711
0.778724
0.778736
0.778749
0.778749
0.778761
0.778774
0.778787
0.778799
0.778799
0.778812
0.778824
0.778837
0.77885
0.77885
0.778862
0.778875
0.778887
0.7789
0.7789
0.778913
0.778925
0.778938
0.778951
0.778951
0.778964
0.778976
0.778989
0.779002
0.779002
0.779015
0.779027
0.77904
0.779053
0.779053
0.779066
0.779078
0.779091
0.779104
0.779104
0.779117
0.77913
0.779143
0.779156
0.779156
0.779168
0.779181
0.779194
0.779207
0.779207
0.77922
0.779233
0.779246
0.779259
0.779259
0.779272
0.779285
0.779298
0.779311
0.779311
0.779324
0.779337
0.77935
0.779363
0.779363
0.779376
0.779389
0.779402
0.779415
0.779415
0.779428
0.779441
0.779455
0.779468
0.779468
0.779481
0.779494
0.779507
0.77952
0.77952
0.779533
0.779547
0.77956
0.779573
0.779573
0.779586
0.7796
0.779613
0.779626
0.779626
0.779639
0.779653
0.779666
0.779679
0.779679
0.779692
0.779706
0.779719
0.779732
0.779732
0.779746
0.779759
0.779772
0.779786
0.779786
0.779799
0.779813
0.779826
0.779839
0.779839
0.779853
0.779866
0.77988
0.779893
0.779893
0.779907
0.77992
0.779934
0.779947
0.779947
0.779961
0.779974
0.779988
0.780001
0.780001
0.780015
0.780028
0.780042
0.780056
0.780056
0.780069
0.780083
0.780096
0.78011
0.78011
0.780124
0.780137
0.780151
0.780165
0.780165
0.780178
0.780192
0.780206
0.78022
0.78022
0.780233
0.780247
0.780261
0.780274
0.780274
0.780288
0.780302
0.780316
0.78033
0.78033
0.780343
0.780357
0.780371
0.780385
0.780385
0.780399
0.780413
0.780427
0.78044
0.78044
0.780454
0.780468
0.780482
0.780496
0.780496
0.78051
0.780524
0.780538
0.780552
0.780552
0.780566
0.78058
0.780594
0.780608
0.780608
0.780622
0.780636
0.78065
0.780664
0.780664
0.780678
0.780692
0.780706
0.78072
0.78072
0.780734
0.780748
0.780763
0.780777
0.780777
0.780791
0.780805
0.780819
0.780833
0.780833
0.780848
0.780862
0.780876
0.78089
0.78089
0.780904
0.780919
0.780933
0.780947
0.780947
0.780961
0.780976
0.78099
0.781004
0.781004
0.781019
0.781033
0.781047
0.781062
0.781062
0.781076
0.78109
0.781105
0.781119
0.781119
0.781133
0.781148
0.781162
0.781177
0.781177
0.781191
0.781206
0.78122
0.781235
0.781235
0.781249
0.781264
0.781278
0.781293
0.781293
0.781307
0.781322
0.781336
0.781351
0.781351
0.781365
0.78138
0.781394
0.781409
0.781409
0.781424
0.781438
0.781453
0.781467
0.781467
0.781482
0.781497
0.781511
0.781526
0.781526
0.781541
0.781555
0.78157
0.781585
0.781585
0.7816
0.781614
0.781629
0.781644
0.781644
0.781659
0.781673
0.781688
0.781703
0.781703
0.781718
0.781733
0.781748
0.781762
0.781762
0.781777
0.781792
0.781807
0.781822
0.781822
0.781837
0.781852
0.781867
0.781881
0.781881
0.781896
0.781911
0.781926
0.781941
0.781941
0.781956
0.781971
0.781986
0.782001
0.782001
0.782016
0.782031
0.782046
0.782061
0.782061
0.782076
0.782092
0.782107
0.782122
0.782122
0.782137
0.782152
0.782167
0.782182
0.782182
0.782197
0.782213
0.782228
0.782243
0.782243
0.782258
0.782273
0.782288
0.782304
0.782304
0.782319
0.782334
0.782349
0.782365
0.782365
0.78238
0.782395
0.78241
0.782426
0.782426
0.782441
0.782456
0.782472
0.782487
0.782487
0.782502
0.782518
0.782533
0.782549
0.782549
0.782564
0.782579
0.782595
0.78261
0.78261
0.782626
0.782641
0.782657
0.782672
0.782672
0.782687
0.782703
0.782718
0.782734
0.782734
0.782749
0.782765
0.782781
0.782796
0.782796
0.782812
0.782827
0.782843
0.782858
0.782858
0.782874
0.78289
0.782905
0.782921
0.782921
0.782937
0.782952
0.782968
0.782984
0.782984
0.782999
0.783015
0.783031
0.783046
0.783046
0.783062
0.783078
0.783094
0.783109
0.783109
0.783125
0.783141
0.783157
0.783172
0.783172
0.783188
0.783204
0.78322
0.783236
0.783236
0.783252
0.783267
0.783283
0.783299
0.783299
0.783315
0.783331
0.783347
0.783363
0.783363
0.783379
0.783395
0.783411
0.783427
0.783427
0.783443
0.783459
0.783474
0.783491
0.783491
0.783507
0.783523
0.783539
0.783555
0.783555
0.783571
0.783587
0.783603
0.783619
0.783619
0.783635
0.783651
0.783667
0.783683
0.783683
0.783699
0.783716
0.783732
0.783748
0.783748
0.783764
0.78378
0.783797
0.783813
0.783813
0.783829
0.783845
0.783861
0.783878
0.783878
0.783894
0.78391
0.783926
0.783943
0.783943
0.783959
0.783975
0.783992
0.784008
0.784008
0.784024
0.784041
0.784057
0.784073
0.784073
0.78409
0.784106
0.784123
0.784139
0.784139
0.784155
0.784172
0.784188
0.784205
0.784205
0.784221
0.784238
0.784254
0.784271
0.784271
0.784287
0.784304
0.78432
0.784337
0.784337
0.784353
0.78437
0.784387
0.784403
0.784403
0.78442
0.784436
0.784453
0.78447
0.78447
0.784486
0.784503
0.784519
0.784536
0.784536
0.784553
0.784569
0.784586
0.784603
0.784603
0.78462
0.784636
0.784653
0.78467
0.78467
0.784686
0.784703
0.78472
0.784737
0.784737
0.784754
0.78477
0.784787
0.784804
0.784804
0.784821
0.784838
0.784855
0.784871
0.784871
0.784888
0.784905
0.784922
0.784939
0.784939
0.784956
0.784973
0.78499
0.785007
0.785007
0.785024
0.785041
0.785058
0.785075
0.785075
0.785092
0.785109
0.785126
0.785143
0.785143
0.78516
0.785177
0.785194
0.785211
0.785211
0.785228
0.785245
0.785262
0.785279
0.785279
0.785296
0.785313
0.785331
0.785348
0.785348
0.785365
0.785382
0.785399
0.785416
0.785416
0.785434
0.785451
0.785468
0.785485
0.785485
0.785503
0.78552
0.785537
0.785554
0.785554
0.785572
0.785589
0.785606
0.785624
0.785624
0.785641
0.785658
0.785676
0.785693
0.785693
0.78571
0.785728
0.785745
0.785762
0.785762
0.78578
0.785797
0.785815
0.785832
0.785832
0.78585
0.785867
0.785884
0.785902
0.785902
0.785919
0.785937
0.785954
0.785972
0.785972
0.785989
0.786007
0.786025
0.786042
0.786042
0.78606
0.786077
0.786095
0.786112
0.786112
0.78613
0.786148
0.786165
0.786183
0.786183
0.786201
0.786218
0.786236
0.786254
0.786254
0.786271
0.786289
0.786307
0.786324
0.786324
0.786342
0.78636
0.786378
0.786395
0.786395
0.786413
0.786431
0.786449
0.786467
0.786467
0.786484
0.786502
0.78652
0.786538
0.786538
0.786556
0.786574
0.786591
0.786609
0.786609
0.786627
0.786645
0.786663
0.786681
0.786681
0.786699
0.786717
0.786735
0.786753
0.786753
0.786771
0.786789
0.786807
0.786825
0.786825
0.786843
0.786861
0.786879
0.786897
0.786897
0.786915
0.786933
0.786951
0.786969
0.786969
0.786987
0.787005
0.787023
0.787041
0.787041
0.78706
0.787078
0.787096
0.787114
0.787114
0.787132
0.78715
0.787169
0.787187
0.787187
0.787205
0.787223
0.787241
0.78726
0.78726
0.787278
0.787296
0.787314
0.787333
0.787333
0.787351
0.787369
0.787388
0.787406
0.787406
0.787424
0.787443
0.787461
0.787479
0.787479
0.787498
0.787516
0.787535
0.787553
0.787553
0.787571
0.78759
0.787608
0.787627
0.787627
0.787645
0.787664
0.787682
0.787701
0.787701
0.787719
0.787738
0.787756
0.787775
0.787775
0.787793
0.787812
0.78783
0.787849
0.787849
0.787867
0.787886
0.787905
0.787923
0.787923
0.787942
0.78796
0.787979
0.787998
0.787998
0.788016
0.788035
0.788054
0.788072
0.788072
0.788091
0.78811
0.788128
0.788147
0.788147
0.788166
0.788185
0.788203
0.788222
0.788222
0.788241
0.78826
0.788279
0.788297
0.788297
0.788316
0.788335
0.788354
0.788373
0.788373
0.788391
0.78841
0.788429
0.788448
0.788448
0.788467
0.788486
0.788505
0.788524
0.788524
0.788543
0.788562
0.788581
0.7886
0.7886
0.788619
0.788638
0.788656
0.788676
0.788676
0.788695
0.788714
0.788733
0.788752
0.788752
0.788771
0.78879
0.788809
0.788828
0.788828
0.788847
0.788866
0.788885
0.788904
0.788904
0.788923
0.788943
0.788962
0.788981
0.788981
0.789
0.789019
0.789038
0.789058
0.789058
0.789077
0.789096
0.789115
0.789135
0.789135
0.789154
0.789173
0.789192
0.789212
0.789212
0.789231
0.78925
0.78927
0.789289
0.789289
0.789308
0.789328
0.789347
0.789366
0.789366
0.789386
0.789405
0.789424
0.789444
0.789444
0.789463
0.789483
0.789502
0.789522
0.789522
0.789541
0.78956
0.78958
0.789599
0.789599
0.789619
0.789638
0.789658
0.789677
0.789677
0.789697
0.789716
0.789736
0.789756
0.789756
0.789775
0.789795
0.789814
0.789834
0.789834
0.789854
0.789873
0.789893
0.789912
0.789912
0.789932
0.789952
0.789971
0.789991
0.789991
0.790011
0.79003
0.79005
0.79007
0.79007
0.79009
0.790109
0.790129
0.790149
0.790149
0.790169
0.790188
0.790208
0.790228
0.790228
0.790248
0.790268
0.790287
0.790307
0.790307
0.790327
0.790347
0.790367
0.790387
0.790387
0.790407
0.790427
0.790446
0.790466
0.790466
0.790486
0.790506
0.790526
0.790546
0.790546
0.790566
0.790586
0.790606
0.790626
0.790626
0.790646
0.790666
0.790686
0.790706
0.790706
0.790726
0.790746
0.790766
0.790786
0.790786
0.790806
0.790827
0.790847
0.790867
0.790867
0.790887
0.790907
0.790927
0.790947
0.790947
0.790967
0.790988
0.791008
0.791028
0.791028
0.791048
0.791068
0.791089
0.791109
0.791109
0.791129
0.791149
0.79117
0.79119
0.79119
0.79121
0.79123
0.791251
0.791271
0.791271
0.791291
0.791312
0.791332
0.791352
0.791352
0.791373
0.791393
0.791414
0.791434
0.791434
0.791454
0.791475
0.791495
0.791516
0.791516
0.791536
0.791556
0.791577
0.791597
0.791597
0.791618
0.791638
0.791659
0.791679
0.791679
0.7917
0.79172
0.791741
0.791761
0.791761
0.791782
0.791803
0.791823
0.791844
0.791844
0.791864
0.791885
0.791906
0.791926
0.791926
0.791947
0.791967
0.791988
0.792009
0.792009
0.792029
0.79205
0.792071
0.792091
0.792091
0.792112
0.792133
0.792154
0.792174
0.792174
0.792195
0.792216
0.792237
0.792257
0.792257
0.792278
0.792299
0.79232
0.792341
0.792341
0.792361
0.792382
0.792403
0.792424
0.792424
0.792445
0.792466
0.792487
0.792507
0.792507
0.792528
0.792549
0.79257
0.792591
0.792591
0.792612
0.792633
0.792654
0.792675
0.792675
0.792696
0.792717
0.792738
0.792759
0.792759
0.79278
0.792801
0.792822
0.792843
0.792843
0.792864
0.792885
0.792906
0.792927
0.792927
0.792949
0.79297
0.792991
0.793012
0.793012
0.793033
0.793054
0.793075
0.793096
0.793096
0.793118
0.793139
0.79316
0.793181
0.793181
0.793202
0.793224
0.793245
0.793266
0.793266
0.793287
0.793309
0.79333
0.793351
0.793351
0.793373
0.793394
0.793415
0.793436
0.793436
0.793458
0.793479
0.7935
0.793522
0.793522
0.793543
0.793565
0.793586
0.793607
0.793607
0.793629
0.79365
0.793672
0.793693
0.793693
0.793715
0.793736
0.793757
0.793779
0.793779
0.7938
0.793822
0.793843
0.793865
0.793865
0.793886
0.793908
0.79393
0.793951
0.793951
0.793973
0.793994
0.794016
0.794037
0.794037
0.794059
0.794081
0.794102
0.794124
0.794124
0.794145
0.794167
0.794189
0.79421
0.79421
0.794232
0.794254
0.794276
0.794297
0.794297
0.794319
0.794341
0.794362
0.794384
0.794384
0.794406
0.794428
0.794449
0.794471
0.794471
0.794493
0.794515
0.794537
0.794558
0.794558
0.79458
0.794602
0.794624
0.794646
0.794646
0.794668
0.79469
0.794711
0.794733
0.794733
0.794755
0.794777
0.794799
0.794821
0.794821
0.794843
0.794865
0.794887
0.794909
0.794909
0.794931
0.794953
0.794975
0.794997
0.794997
0.795019
0.795041
0.795063
0.795085
0.795085
0.795107
0.795129
0.795151
0.795173
0.795173
0.795195
0.795218
0.79524
0.795262
0.795262
0.795284
0.795306
0.795328
0.79535
0.79535
0.795373
0.795395
0.795417
0.795439
0.795439
0.795461
0.795484
0.795506
0.795528
0.795528
0.79555
0.795573
0.795595
0.795617
0.795617
0.795639
0.795662
0.795684
0.795706
0.795706
0.795729
0.795751
0.795773
0.795796
0.795796
0.795818
0.79584
0.795863
0.795885
0.795885
0.795908
0.79593
0.795952
0.795975
0.795975
0.795997
0.79602
0.796042
0.796065
0.796065
0.796087
0.79611
0.796132
0.796155
0.796155
0.796177
0.7962
0.796222
0.796245
0.796245
0.796267
0.79629
0.796313
0.796335
0.796335
0.796358
0.79638
0.796403
0.796426
0.796426
0.796448
0.796471
0.796493
0.796516
0.796516
0.796539
0.796561
0.796584
0.796607
0.796607
0.79663
0.796652
0.796675
0.796698
0.796698
0.796721
0.796743
0.796766
0.796789
0.796789
0.796812
0.796834
0.796857
0.79688
0.79688
0.796903
0.796926
0.796948
0.796971
0.796971
0.796994
0.797017
0.79704
0.797063
0.797063
0.797086
0.797109
0.797132
0.797154
0.797154
0.797177
0.7972
0.797223
0.797246
0.797246
0.797269
0.797292
0.797315
0.797338
0.797338
0.797361
0.797384
0.797407
0.79743
0.79743
0.797453
0.797476
0.797499
0.797523
0.797523
0.797546
0.797569
0.797592
0.797615
0.797615
0.797638
0.797661
0.797684
0.797707
0.797707
0.797731
0.797754
0.797777
0.7978
0.7978
0.797823
0.797847
0.79787
0.797893
0.797893
0.797916
0.797939
0.797963
0.797986
0.797986
0.798009
0.798033
0.798056
0.798079
0.798079
0.798102
0.798126
0.798149
0.798172
0.798172
0.798196
0.798219
0.798242
0.798266
0.798266
0.798289
0.798313
0.798336
0.798359
0.798359
0.798383
0.798406
0.79843
0.798453
0.798453
0.798477
0.7985
0.798524
0.798547
0.798547
0.798571
0.798594
0.798618
0.798641
0.798641
0.798665
0.798688
0.798712
0.798735
0.798735
0.798759
0.798782
0.798806
0.79883
0.79883
0.798853
0.798877
0.7989
0.798924
0.798924
0.798948
0.798971
0.798995
0.799019
0.799019
0.799042
0.799066
0.79909
0.799114
0.799114
0.799137
0.799161
0.799185
0.799208
0.799208
0.799232
0.799256
0.79928
0.799304
0.799304
0.799327
0.799351
0.799375
0.799399
0.799399
0.799423
0.799446
0.79947
0.799494
0.799494
0.799518
0.799542
0.799566
0.79959
0.79959
0.799614
0.799638
0.799661
0.799685
0.799685
0.799709
0.799733
0.799757
0.799781
0.799781
0.799805
0.799829
0.799853
0.799877
0.799877
0.799901
0.799925
0.799949
0.799973
0.799973
0.799997
0.800021
0.800045
0.80007
0.80007
0.800094
0.800118
0.800142
0.800166
0.800166
0.80019
0.800214
0.800238
0.800263
0.800263
0.800287
0.800311
0.800335
0.800359
0.800359
0.800383
0.800408
0.800432
0.800456
0.800456
0.80048
0.800505
0.800529
0.800553
0.800553
0.800577
0.800602
0.800626
0.80065
0.80065
0.800675
0.800699
0.800723
0.800748
0.800748
0.800772
0.800796
0.800821
0.800845
0.800845
0.800869
0.800894
0.800918
0.800943
0.800943
0.800967
0.800991
0.801016
0.80104
0.80104
0.801065
0.801089
0.801114
0.801138
0.801138
0.801163
0.801187
0.801212
0.801236
0.801236
0.801261
0.801285
0.80131
0.801334
0.801334
0.801359
0.801384
0.801408
0.801433
0.801433
0.801457
0.801482
0.801507
0.801531
0.801531
0.801556
0.80158
0.801605
0.80163
0.80163
0.801654
0.801679
0.801704
0.801729
0.801729
0.801753
0.801778
0.801803
0.801827
0.801827
0.801852
0.801877
0.801902
0.801926
0.801926
0.801951
0.801976
0.802001
0.802026
0.802026
0.802051
0.802075
0.8021
0.802125
0.802125
0.80215
0.802175
0.8022
0.802225
0.802225
0.802249
0.802274
0.802299
0.802324
0.802324
0.802349
0.802374
0.802399
0.802424
0.802424
0.802449
0.802474
0.802499
0.802524
0.802524
0.802549
0.802574
0.802599
0.802624
0.802624
0.802649
0.802674
0.802699
0.802724
0.802724
0.802749
0.802774
0.802799
0.802825
0.802825
0.80285
0.802875
0.8029
0.802925
0.802925
0.80295
0.802975
0.803
0.803026
0.803026
0.803051
0.803076
0.803101
0.803126
0.803126
0.803152
0.803177
0.803202
0.803227
0.803227
0.803253
0.803278
0.803303
0.803328
0.803328
0.803354
0.803379
0.803404
0.80343
0.80343
0.803455
0.80348
0.803506
0.803531
0.803531
0.803556
0.803582
0.803607
0.803633
0.803633
0.803658
0.803683
0.803709
0.803734
0.803734
0.80376
0.803785
0.803811
0.803836
0.803836
0.803861
0.803887
0.803912
0.803938
0.803938
0.803963
0.803989
0.804015
0.80404
0.80404
0.804066
0.804091
0.804117
0.804142
0.804142
0.804168
0.804193
0.804219
0.804245
0.804245
0.80427
0.804296
0.804322
0.804347
0.804347
0.804373
0.804398
0.804424
0.80445
0.80445
0.804476
0.804501
0.804527
0.804553
0.804553
0.804578
0.804604
0.80463
0.804656
0.804656
0.804681
0.804707
0.804733
0.804759
0.804759
0.804784
0.80481
0.804836
0.804862
0.804862
0.804888
0.804914
0.804939
0.804965
0.804965
0.804991
0.805017
0.805043
0.805069
0.805069
0.805095
0.805121
0.805147
0.805172
0.805172
0.805198
0.805224
0.80525
0.805276
0.805276
0.805302
0.805328
0.805354
0.80538
0.80538
0.805406
0.805432
0.805458
0.805484
0.805484
0.80551
0.805536
0.805562
0.805589
0.805589
0.805615
0.805641
0.805667
0.805693
0.805693
0.805719
0.805745
0.805771
0.805797
0.805797
0.805824
0.80585
0.805876
0.805902
0.805902
0.805928
0.805954
0.805981
0.806007
0.806007
0.806033
0.806059
0.806086
0.806112
0.806112
0.806138
0.806164
0.806191
0.806217
0.806217
0.806243
0.806269
0.806296
0.806322
0.806322
0.806348
0.806375
0.806401
0.806427
0.806427
0.806454
0.80648
0.806507
0.806533
0.806533
0.806559
0.806586
0.806612
0.806639
0.806639
0.806665
0.806691
0.806718
0.806744
0.806744
0.806771
0.806797
0.806824
0.80685
0.80685
0.806877
0.806903
0.80693
0.806956
0.806956
0.806983
0.807009
0.807036
0.807062
0.807062
0.807089
0.807116
0.807142
0.807169
0.807169
0.807195
0.807222
0.807249
0.807275
0.807275
0.807302
0.807329
0.807355
0.807382
0.807382
0.807409
0.807435
0.807462
0.807489
0.807489
0.807515
0.807542
0.807569
0.807596
0.807596
0.807622
0.807649
0.807676
0.807703
0.807703
0.807729
0.807756
0.807783
0.80781
0.80781
0.807837
0.807863
0.80789
0.807917
0.807917
0.807944
0.807971
0.807998
0.808025
0.808025
0.808051
0.808078
0.808105
0.808132
0.808132
0.808159
0.808186
0.808213
0.80824
0.80824
0.808267
0.808294
0.808321
0.808348
0.808348
0.808375
0.808402
0.808429
0.808456
0.808456
0.808483
0.80851
0.808537
0.808564
0.808564
0.808591
0.808618
0.808645
0.808672
0.808672
0.808699
0.808726
0.808754
0.808781
0.808781
0.808808
0.808835
0.808862
0.808889
0.808889
0.808916
0.808944
0.808971
0.808998
0.808998
0.809025
0.809052
0.80908
0.809107
0.809107
0.809134
0.809161
0.809188
0.809216
0.809216
0.809243
0.80927
0.809298
0.809325
0.809325
0.809352
0.809379
0.809407
0.809434
0.809434
0.809461
0.809489
0.809516
0.809544
0.809544