<?xml version="1.0"?>
<VTKFile type="UnstructuredGrid" version="0.1" byte_order="LittleEndian">
<UnstructuredGrid>
<Piece NumberOfPoints="5000" NumberOfCells="4000">
<PointData Scalars="Reaction 0">
<DataArray type="Float32" Name="Reaction 0" format="ascii">
0.64819
0.64819
0.64819
0.64819
0.64819
0.64819
0.648191
0.648191
0.648191
0.648191
0.648191
0.648191
0.648191
0.648191
0.648191
0.648191
0.648192
0.648192
0.648192
0.648192
0.648192
0.648193
0.648193
0.648193
0.648193
0.648193
0.648194
0.648194
0.648194
0.648195
0.648195
0.648195
0.648196
0.648196
0.648196
0.648196
0.648197
0.648197
0.648198
0.648198
0.648198
0.648199
0.648199
0.6482
0.6482
0.6482
0.648201
0.648201
0.648202
0.648203
0.648203
0.648203
0.648204
0.648205
0.648205
0.648205
0.648206
0.648207
0.648207
0.648208
0.648208
0.648209
0.64821
0.64821
0.648211
0.648211
0.648212
0.648213
0.648214
0.648214
0.648214
0.648215
0.648216
0.648217
0.648218
0.648218
0.648219
0.64822
0.648221
0.648222
0.648222
0.648223
0.648224
0.648225
0.648226
0.648226
0.648227
0.648228
0.648229
0.64823
0.64823
0.648231
0.648232
0.648233
0.648235
0.648235
0.648236
0.648237
0.648238
0.648239
0.648239
0.648241
0.648242
0.648243
0.648244
0.648244
0.648246
0.648247
0.648248
0.64825
0.64825
0.648251
0.648252
0.648254
0.648255
0.648255
0.648257
0.648258
0.648259
0.648261
0.648261
0.648262
0.648264
0.648265
0.648267
0.648267
0.648268
0.64827
0.648272
0.648273
0.648273
0.648275
0.648276
0.648278
0.64828
0.64828
0.648281
0.648283
0.648285
0.648286
0.648286
0.648288
0.64829
0.648292
0.648293
0.648293
0.648295
0.648297
0.648299
0.648301
0.648301
0.648302
0.648304
0.648306
0.648308
0.648308
0.64831
0.648312
0.648314
0.648316
0.648316
0.648318
0.64832
0.648322
0.648324
0.648324
0.648326
0.648328
0.64833
0.648332
0.648332
0.648334
0.648336
0.648338
0.64834
0.64834
0.648343
0.648345
0.648347
0.648349
0.648349
0.648351
0.648354
0.648356
0.648358
0.648358
0.64836
0.648363
0.648365
0.648367
0.648367
0.64837
0.648372
0.648374
0.648377
0.648377
0.648379
0.648381
0.648384
0.648386
0.648386
0.648389
0.648391
0.648394
0.648396
0.648396
0.648399
0.648401
0.648404
0.648406
0.648406
0.648409
0.648412
0.648414
0.648417
0.648417
0.64842
0.648422
0.648425
0.648428
0.648428
0.64843
0.648433
0.648436
0.648438
0.648438
0.648441
0.648444
0.648447
0.64845
0.64845
0.648452
0.648455
0.648458
0.648461
0.648461
0.648464
0.648467
0.64847
0.648473
0.648473
0.648476
0.648479
0.648481
0.648484
0.648484
0.648487
0.648491
0.648494
0.648497
0.648497
0.6485
0.648503
0.648506
0.648509
0.648509
0.648512
0.648515
0.648518
0.648522
0.648522
0.648525
0.648528
0.648531
0.648534
0.648534
0.648538
0.648541
0.648544
0.648548
0.648548
0.648551
0.648554
0.648558
0.648561
0.648561
0.648564
0.648568
0.648571
0.648575
0.648575
0.648578
0.648581
0.648585
0.648588
0.648588
0.648592
0.648595
0.648599
0.648602
0.648602
0.648606
0.64861
0.648613
0.648617
0.648617
0.64862
0.648624
0.648628
0.648631
0.648631
0.648635
0.648639
0.648642
0.648646
0.648646
0.64865
0.648654
0.648657
0.648661
0.648661
0.648665
0.648669
0.648673
0.648677
0.648677
0.64868
0.648684
0.648688
0.648692
0.648692
0.648696
0.6487
0.648704
0.648708
0.648708
0.648712
0.648716
0.64872
0.648724
0.648724
0.648728
0.648732
0.648736
0.64874
0.64874
0.648744
0.648748
0.648753
0.648757
0.648757
0.648761
0.648765
0.648769
0.648774
0.648774
0.648778
0.648782
0.648786
0.648791
0.648791
0.648795
0.648799
0.648804
0.648808
0.648808
0.648812
0.648817
0.648821
0.648825
0.648825
0.64883
0.648834
0.648839
0.648843
0.648843
0.648848
0.648852
0.648857
0.648861
0.648861
0.648866
0.64887
0.648875
0.648879
0.648879
0.648884
0.648889
0.648893
0.648898
0.648898
0.648903
0.648907
0.648912
0.648917
0.648917
0.648921
0.648926
0.648931
0.648936
0.648936
0.64894
0.648945
0.64895
0.648955
0.648955
0.64896
0.648965
0.648969
0.648974
0.648974
0.648979
0.648984
0.648989
0.648994
0.648994
0.648999
0.649004
0.649009
0.649014
0.649014
0.649019
0.649024
0.649029
0.649034
0.649034
0.649039
0.649044
0.64905
0.649055
0.649055
0.64906
0.649065
0.64907
0.649075
0.649075
0.649081
0.649086
0.649091
0.649096
0.649096
0.649102
0.649107
0.649112
0.649118
0.649118
0.649123
0.649128
0.649134
0.649139
0.649139
0.649144
0.64915
0.649155
0.649161
0.649161
0.649166
0.649172
0.649177
0.649183
0.649183
0.649188
0.649194
0.649199
0.649205
0.649205
0.64921
0.649216
0.649222
0.649227
0.649227
0.649233
0.649238
0.649244
0.64925
0.64925
0.649256
0.649261
0.649267
0.649273
0.649273
0.649279
0.649284
0.64929
0.649296
0.649296
0.649302
0.649308
0.649313
0.649319
0.649319
0.649325
0.649331
0.649337
0.649343
0.649343
0.649349
0.649355
0.649361
0.649367
0.649367
0.649373
0.649379
0.649385
0.649391
0.649391
0.649397
0.649403
0.649409
0.649415
0.649415
0.649421
0.649428
0.649434
0.64944
0.64944
0.649446
0.649452
0.649459
0.649465
0.649465
0.649471
0.649477
0.649484
0.64949
0.64949
0.649496
0.649503
0.649509
0.649515
0.649515
0.649522
0.649528
0.649534
0.649541
0.649541
0.649547
0.649554
0.64956
0.649567
0.649567
0.649573
0.64958
0.649586
0.649593
0.649593
0.649599
0.649606
0.649613
0.649619
0.649619
0.649626
0.649632
0.649639
0.649646
0.649646
0.649652
0.649659
0.649666
0.649673
0.649673
0.649679
0.649686
0.649693
0.6497
0.6497
0.649706
0.649713
0.64972
0.649727
0.649727
0.649734
0.649741
0.649748
0.649755
0.649755
0.649761
0.649768
0.649775
0.649782
0.649782
0.649789
0.649796
0.649803
0.64981
0.64981
0.649817
0.649824
0.649832
0.649839
0.649839
0.649846
0.649853
0.64986
0.649867
0.649867
0.649874
0.649882
0.649889
0.649896
0.649896
0.649903
0.64991
0.649918
0.649925
0.649925
0.649932
0.64994
0.649947
0.649954
0.649954
0.649962
0.649969
0.649976
0.649984
0.649984
0.649991
0.649999
0.650006
0.650014
0.650014
0.650021
0.650029
0.650036
0.650044
0.650044
0.650051
0.650059
0.650066
0.650074
0.650074
0.650081
0.650089
0.650097
0.650104
0.650104
0.650112
0.65012
0.650127
0.650135
0.650135
0.650143
0.650151
0.650158
0.650166
0.650166
0.650174
0.650182
0.65019
0.650197
0.650197
0.650205
0.650213
0.650221
0.650229
0.650229
0.650237
0.650245
0.650253
0.650261
0.650261
0.650269
0.650276
0.650284
0.650293
0.650293
0.650301
0.650309
0.650317
0.650325
0.650325
0.650333
0.650341
0.650349
0.650357
0.650357
0.650365
0.650374
0.650382
0.65039
0.65039
0.650398
0.650406
0.650415
0.650423
0.650423
0.650431
0.650439
0.650448
0.650456
0.650456
0.650464
0.650473
0.650481
0.650489
0.650489
0.650498
0.650506
0.650515
0.650523
0.650523
0.650532
0.65054
0.650549
0.650557
0.650557
0.650566
0.650574
0.650583
0.650591
0.650591
0.6506
0.650608
0.650617
0.650626
0.650626
0.650634
0.650643
0.650652
0.65066
0.65066
0.650669
0.650678
0.650687
0.650695
0.650695
0.650704
0.650713
0.650722
0.65073
0.65073
0.650739
0.650748
0.650757
0.650766
0.650766
0.650775
0.650784
0.650793
0.650801
0.650801
0.65081
0.650819
0.650828
0.650837
0.650837
0.650846
0.650855
0.650864
0.650873
0.650873
0.650883
0.650892
0.650901
0.65091
0.65091
0.650919
0.650928
0.650937
0.650946
0.650946
0.650956
0.650965
0.650974
0.650983
0.650983
0.650993
0.651002
0.651011
0.65102
0.65102
0.65103
0.651039
0.651048
0.651058
0.651058
0.651067
0.651077
0.651086
0.651095
0.651095
0.651105
0.651114
0.651124
0.651133
0.651133
0.651143
0.651152
0.651162
0.651171
0.651171
0.651181
0.651191
0.6512
0.65121
0.65121
0.651219
0.651229
0.651239
0.651248
0.651248
0.651258
0.651268
0.651277
0.651287
0.651287
0.651297
0.651307
0.651316
0.651326
0.651326
0.651336
0.651346
0.651356
0.651366
0.651366
0.651375
0.651385
0.651395
0.651405
0.651405
0.651415
0.651425
0.651435
0.651445
0.651445
0.651455
0.651465
0.651475
0.651485
0.651485
0.651495
0.651505
0.651515
0.651525
0.651525
0.651535
0.651545
0.651556
0.651566
0.651566
0.651576
0.651586
0.651596
0.651607
0.651607
0.651617
0.651627
0.651637
0.651648
0.651648
0.651658
0.651668
0.651679
0.651689
0.651689
0.651699
0.65171
0.65172
0.65173
0.65173
0.651741
0.651751
0.651762
0.651772
0.651772
0.651783
0.651793
0.651804
0.651814
0.651814
0.651825
0.651835
0.651846
0.651856
0.651856
0.651867
0.651878
0.651888
0.651899
0.651899
0.65191
0.65192
0.651931
0.651942
0.651942
0.651952
0.651963
0.651974
0.651985
0.651985
0.651995
0.652006
0.652017
0.652028
0.652028
0.652039
0.65205
0.65206
0.652071
0.652071
0.652082
0.652093
0.652104
0.652115
0.652115
0.652126
0.652137
0.652148
0.652159
0.652159
0.65217
0.652181
0.652192
0.652203
0.652203
0.652214
0.652225
0.652237
0.652248
0.652248
0.652259
0.65227
0.652281
0.652292
0.652292
0.652304
0.652315
0.652326
0.652337
0.652337
0.652349
0.65236
0.652371
0.652383
0.652383
0.652394
0.652405
0.652417
0.652428
0.652428
0.652439
0.652451
0.652462
0.652474
0.652474
0.652485
0.652497
0.652508
0.65252
0.65252
0.652531
0.652543
0.652554
0.652566
0.652566
0.652577
0.652589
0.652601
0.652612
0.652612
0.652624
0.652636
0.652647
0.652659
0.652659
0.652671
0.652682
0.652694
0.652706
0.652706
0.652718
0.652729
0.652741
0.652753
0.652753
0.652765
0.652777
0.652789
0.6528
0.6528
0.652812
0.652824
0.652836
0.652848
0.652848
0.65286
0.652872
0.652884
0.652896
0.652896
0.652908
0.65292
0.652932
0.652944
0.652944
0.652956
0.652968
0.65298
0.652992
0.652992
0.653005
0.653017
0.653029
0.653041
0.653041
0.653053
0.653065
0.653078
0.65309
0.65309
0.653102
0.653114
0.653127
0.653139
0.653139
0.653151
0.653164
0.653176
0.653188
0.653188
0.653201
0.653213
0.653226
0.653238
0.653238
0.65325
0.653263
0.653275
0.653288
0.653288
0.6533
0.653313
0.653325
0.653338
0.653338
0.65335
0.653363
0.653376
0.653388
0.653388
0.653401
0.653414
0.653426
0.653439
0.653439
0.653452
0.653464
0.653477
0.65349
0.65349
0.653502
0.653515
0.653528
0.653541
0.653541
0.653554
0.653566
0.653579
0.653592
0.653592
0.653605
0.653618
0.653631
0.653644
0.653644
0.653657
0.653669
0.653682
0.653695
0.653695
0.653708
0.653721
0.653734
0.653747
0.653747
0.653761
0.653774
0.653787
0.6538
0.6538
0.653813
0.653826
0.653839
0.653852
0.653852
0.653865
0.653879
0.653892
0.653905
0.653905
0.653918
0.653932
0.653945
0.653958
0.653958
0.653971
0.653985
0.653998
0.654011
0.654011
0.654025
0.654038
0.654052
0.654065
0.654065
0.654078
0.654092
0.654105
0.654119
0.654119
0.654132
0.654146
0.654159
0.654173
0.654173
0.654186
0.6542
0.654213
0.654227
0.654227
0.654241
0.654254
0.654268
0.654281
0.654281
0.654295
0.654309
0.654322
0.654336
0.654336
0.65435
0.654364
0.654377
0.654391
0.654391
0.654405
0.654419
0.654433
0.654446
0.654446
0.65446
0.654474
0.654488
0.654502
0.654502
0.654516
0.65453
0.654544
0.654558
0.654558
0.654572
0.654586
0.6546
0.654614
0.654614
0.654628
0.654642
0.654656
0.65467
0.65467
0.654684
0.654698
0.654712
0.654726
0.654726
0.65474
0.654755
0.654769
0.654783
0.654783
0.654797
0.654811
0.654826
0.65484
0.65484
0.654854
0.654868
0.654883
0.654897
0.654897
0.654911
0.654926
0.65494
0.654954
0.654954
0.654969
0.654983
0.654998
0.655012
0.655012
0.655027
0.655041
0.655056
0.65507
0.65507
0.655085
0.655099
0.655114
0.655128
0.655128
0.655143
0.655157
0.655172
0.655187
0.655187
0.655201
0.655216
0.655231
0.655245
0.655245
0.65526
0.655275
0.655289
0.655304
0.655304
0.655319
0.655334
0.655349
0.655363
0.655363
0.655378
0.655393
0.655408
0.655423
0.655423
0.655438
0.655453
0.655467
0.655482
0.655482
0.655497
0.655512
0.655527
0.655542
0.655542
0.655557
0.655572
0.655587
0.655602
0.655602
0.655617
0.655633
0.655648
0.655663
0.655663
0.655678
0.655693
0.655708
0.655723
0.655723
0.655739
0.655754
0.655769
0.655784
0.655784
0.6558
0.655815
0.65583
0.655845
0.655845
0.655861
0.655876
0.655891
0.655907
0.655907
0.655922
0.655937
0.655953
0.655968
0.655968
0.655984
0.655999
0.656015
0.65603
0.65603
0.656046
0.656061
0.656077
0.656092
0.656092
0.656108
0.656123
0.656139
0.656155
0.656155
0.65617
0.656186
0.656201
0.656217
0.656217
0.656233
0.656248
0.656264
0.65628
0.65628
0.656296
0.656311
0.656327
0.656343
0.656343
0.656359
0.656375
0.65639
0.656406
0.656406
0.656422
0.656438
0.656454
0.65647
0.65647
0.656486
0.656502
0.656518
0.656534
0.656534
0.65655
0.656566
0.656582
0.656598
0.656598
0.656614
0.65663
0.656646
0.656662
0.656662
0.656678
0.656694
0.65671
0.656726
0.656726
0.656743
0.656759
0.656775
0.656791
0.656791
0.656807
0.656824
0.65684
0.656856
0.656856
0.656873
0.656889
0.656905
0.656922
0.656922
0.656938
0.656954
0.656971
0.656987
0.656987
0.657003
0.65702
0.657036
0.657053
0.657053
0.657069
0.657086
0.657102
0.657119
0.657119
0.657135
0.657152
0.657168
0.657185
0.657185
0.657202
0.657218
0.657235
0.657252
0.657252
0.657268
0.657285
0.657302
0.657318
0.657318
0.657335
0.657352
0.657368
0.657385
0.657385
0.657402
0.657419
0.657436
0.657452
0.657452
0.657469
0.657486
0.657503
0.65752
0.65752
0.657537
0.657554
0.657571
0.657588
0.657588
0.657605
0.657622
0.657639
0.657656
0.657656
0.657673
0.65769
0.657707
0.657724
0.657724
0.657741
0.657758
0.657775
0.657792
0.657792
0.657809
0.657827
0.657844
0.657861
0.657861
0.657878
0.657895
0.657913
0.65793
0.65793
0.657947
0.657964
0.657982
0.657999
0.657999
0.658016
0.658034
0.658051
0.658068
0.658068
0.658086
0.658103
0.658121
0.658138
0.658138
0.658156
0.658173
0.65819
0.658208
0.658208
0.658225
0.658243
0.658261
0.658278
0.658278
0.658296
0.658313
0.658331
0.658349
0.658349
0.658366
0.658384
0.658401
0.658419
0.658419
0.658437
0.658455
0.658472
0.65849
0.65849
0.658508
0.658526
0.658543
0.658561
0.658561
0.658579
0.658597
0.658615
0.658633
0.658633
0.65865
0.658668
0.658686
0.658704
0.658704
0.658722
0.65874
0.658758
0.658776
0.658776
0.658794
0.658812
0.65883
0.658848
0.658848
0.658866
0.658884
0.658902
0.65892
0.65892
0.658939
0.658957
0.658975
0.658993
0.658993
0.659011
0.659029
0.659048
0.659066
0.659066
0.659084
0.659102
0.659121
0.659139
0.659139
0.659157
0.659176
0.659194
0.659212
0.659212
0.659231
0.659249
0.659267
0.659286
0.659286
0.659304
0.659323
0.659341
0.65936
0.65936
0.659378
0.659397
0.659415
0.659434
0.659434
0.659452
0.659471
0.659489
0.659508
0.659508
0.659527
0.659545
0.659564
0.659583
0.659583
0.659601
0.65962
0.659639
0.659657
0.659657
0.659676
0.659695
0.659714
0.659732
0.659732
0.659751
0.65977
0.659789
0.659808
0.659808
0.659827
0.659845
0.659864
0.659883
0.659883
0.659902
0.659921
0.65994
0.659959
0.659959
0.659978
0.659997
0.660016
0.660035
0.660035
0.660054
0.660073
0.660092
0.660111
0.660111
0.66013
0.660149
0.660169
0.660188
0.660188
0.660207
0.660226
0.660245
0.660265
0.660265
0.660284
0.660303
0.660322
0.660342
0.660342
0.660361
0.66038
0.660399
0.660419
0.660419
0.660438
0.660457
0.660477
0.660496
0.660496
0.660516
0.660535
0.660554
0.660574
0.660574
0.660593
0.660613
0.660632
0.660652
0.660652
0.660671
0.660691
0.660711
0.66073
0.66073
0.66075
0.660769
0.660789
0.660809
0.660809
0.660828
0.660848
0.660868
0.660887
0.660887
0.660907
0.660927
0.660946
0.660966
0.660966
0.660986
0.661006
0.661026
0.661045
0.661045
0.661065
0.661085
0.661105
0.661125
0.661125
0.661145
0.661165
0.661185
0.661205
0.661205
0.661224
0.661244
0.661264
0.661284
0.661284
0.661304
0.661324
0.661345
0.661365
0.661365
0.661385
0.661405
0.661425
0.661445
0.661445
0.661465
0.661485
0.661505
0.661526
0.661526
0.661546
0.661566
0.661586
0.661607
0.661607
0.661627
0.661647
0.661667
0.661688
0.661688
0.661708
0.661728
0.661749
0.661769
0.661769
0.661789
0.66181
0.66183
0.661851
0.661851
0.661871
0.661892
0.661912
0.661933
0.661933
0.661953
0.661974
0.661994
0.662015
0.662015
0.662035
0.662056
0.662076
0.662097
0.662097
0.662118
0.662138
0.662159
0.66218
0.66218
0.6622
0.662221
0.662242
0.662262
0.662262
0.662283
0.662304
0.662325
0.662346
0.662346
0.662366
0.662387
0.662408
0.662429
0.662429
0.66245
0.662471
0.662492
0.662512
0.662512
0.662533
0.662554
0.662575
0.662596
0.662596
0.662617
0.662638
0.662659
0.66268
0.66268
0.662701
0.662723
0.662744
0.662765
0.662765
0.662786
0.662807
0.662828
0.662849
0.662849
0.66287
0.662892
0.662913
0.662934
0.662934
0.662955
0.662977
0.662998
0.663019
0.663019
0.66304
0.663062
0.663083
0.663104
0.663104
0.663126
0.663147
0.663168
0.66319
0.66319
0.663211
0.663233
0.663254
0.663276
0.663276
0.663297
0.663319
0.66334
0.663362
0.663362
0.663383
0.663405
0.663426
0.663448
0.663448
0.66347
0.663491
0.663513
0.663534
0.663534
0.663556
0.663578
0.663599
0.663621
0.663621
0.663643
0.663665
0.663686
0.663708
0.663708
0.66373
0.663752
0.663774
0.663795
0.663795
0.663817
0.663839
0.663861
0.663883
0.663883
0.663905
0.663927
0.663949
0.663971
0.663971
0.663993
0.664015
0.664037
0.664059
0.664059
0.664081
0.664103
0.664125
0.664147
0.664147
0.664169
0.664191
0.664213
0.664235
0.664235
0.664257
0.66428
0.664302
0.664324
0.664324
0.664346
0.664368
0.664391
0.664413
0.664413
0.664435
0.664457
0.66448
0.664502
0.664502
0.664524
0.664547
0.664569
0.664591
0.664591
0.664614
0.664636
0.664659
0.664681
0.664681
0.664704
0.664726
0.664749
0.664771
0.664771
0.664794
0.664816
0.664839
0.664861
0.664861
0.664884
0.664906
0.664929
0.664952
0.664952
0.664974
0.664997
0.66502
0.665042
0.665042
0.665065
0.665088
0.66511
0.665133
0.665133
0.665156
0.665179
0.665201
0.665224
0.665224
0.665247
0.66527
0.665293
0.665316
0.665316
0.665339
0.665361
0.665384
0.665407
0.665407
0.66543
0.665453
0.665476
0.665499
0.665499
0.665522
0.665545
0.665568
0.665591
0.665591
0.665614
0.665637
0.66566
0.665684
0.665684
0.665707
0.66573
0.665753
0.665776
0.665776
0.665799
0.665823
0.665846
0.665869
0.665869
0.665892
0.665916
0.665939
0.665962
0.665962
0.665985
0.666009
0.666032
0.666055
0.666055
0.666079
0.666102
0.666126
0.666149
0.666149
0.666172
0.666196
0.666219
0.666243
0.666243
0.666266
0.66629
0.666313
0.666337
0.666337
0.66636
0.666384
0.666408
0.666431
0.666431
0.666455
0.666478
0.666502
0.666526
0.666526
0.666549
0.666573
0.666597
0.66662
0.66662
0.666644
0.666668
0.666692
0.666715
0.666715
0.666739
0.666763
0.666787
0.666811
0.666811
0.666835
0.666858
0.666882
0.666906
0.666906
0.66693
0.666954
0.666978
0.667002
0.667002
0.667026
0.66705
0.667074
0.667098
0.667098
0.667122
0.667146
0.66717
0.667194
0.667194
0.667218
0.667242
0.667267
0.667291
0.667291
0.667315
0.667339
0.667363
0.667387
0.667387
0.667412
0.667436
0.66746
0.667484
0.667484
0.667509
0.667533
0.667557
0.667582
0.667582
0.667606
0.66763
0.667655
0.667679
0.667679
0.667703
0.667728
0.667752
0.667777
0.667777
0.667801
0.667826
0.66785
0.667875
0.667875
0.667899
0.667924
0.667948
0.667973
0.667973
0.667997
0.668022
0.668047
0.668071
0.668071
0.668096
0.668121
0.668145
0.66817
0.66817
0.668195
0.668219
0.668244
0.668269
0.668269
0.668294
0.668318
0.668343
0.668368
0.668368
0.668393
0.668418
0.668443
0.668467
0.668467
0.668492
0.668517
0.668542
0.668567
0.668567
0.668592
0.668617
0.668642
0.668667
0.668667
0.668692
0.668717
0.668742
0.668767
0.668767
0.668792
0.668817
0.668842
0.668867
0.668867
0.668893
0.668918
0.668943
0.668968
0.668968
0.668993
0.669018
0.669044
0.669069
0.669069
0.669094
0.669119
0.669145
0.66917
0.66917
0.669195
0.669221
0.669246
0.669271
0.669271
0.669297
0.669322
0.669348
0.669373
0.669373
0.669398
0.669424
0.669449
0.669475
0.669475
0.6695
0.669526
0.669551
0.669577
0.669577
0.669602
0.669628
0.669654
0.669679
0.669679
0.669705
0.66973
0.669756
0.669782
0.669782
0.669807
0.669833
0.669859
0.669885
0.669885
0.66991
0.669936
0.669962
0.669988
0.669988
0.670013
0.670039
0.670065
0.670091
0.670091
0.670117
0.670143
0.670168
0.670194
0.670194
0.67022
0.670246
0.670272
0.670298
0.670298
0.670324
0.67035
0.670376
0.670402
0.670402
0.670428
0.670454
0.67048
0.670506
0.670506
0.670532
0.670559
0.670585
0.670611
0.670611
0.670637
0.670663
0.670689
0.670716
0.670716
0.670742
0.670768
0.670794
0.670821
0.670821
0.670847
0.670873
0.670899
0.670926
0.670926
0.670952
0.670978
0.671005
0.671031
0.671031
0.671058
0.671084
0.671111
0.671137
0.671137
0.671163
0.67119
0.671216
0.671243
0.671243
0.671269
0.671296
0.671323
0.671349
0.671349
0.671376
0.671402
0.671429
0.671456
0.671456
0.671482
0.671509
0.671536
0.671562
0.671562
0.671589
0.671616
0.671642
0.671669
0.671669
0.671696
0.671723
0.671749
0.671776
0.671776
0.671803
0.67183
0.671857
0.671884
0.671884
0.671911
0.671937
0.671964
0.671991
0.671991
0.672018
0.672045
0.672072
0.672099
0.672099
0.672126
0.672153
0.67218
0.672207
0.672207
0.672234
0.672261
0.672289
0.672316
0.672316
0.672343
0.67237
0.672397
0.672424
0.672424
0.672451
0.672479
0.672506
0.672533
0.672533
0.67256
0.672588
0.672615
0.672642
0.672642
0.67267
0.672697
0.672724
0.672752
0.672752
0.672779
0.672806
0.672834
0.672861
0.672861
0.672889
0.672916
0.672943
0.672971
0.672971
0.672998
0.673026
0.673053
0.673081
0.673081
0.673109
0.673136
0.673164
0.673191
0.673191
0.673219
0.673247
0.673274
0.673302
0.673302
0.67333
0.673357
0.673385
0.673413
0.673413
0.67344
0.673468
0.673496
0.673524
0.673524
0.673551
0.673579
0.673607
0.673635
0.673635
0.673663
0.673691
0.673719
0.673746
0.673746
0.673774
0.673802
0.67383
0.673858
0.673858
0.673886
0.673914
0.673942
0.67397
0.67397
0.673998
0.674026
0.674054
0.674082
0.674082
0.674111
0.674139
0.674167
0.674195
0.674195
0.674223
0.674251
0.674279
0.674308
0.674308
0.674336
0.674364
0.674392
0.674421
0.674421
0.674449
0.674477
0.674505
0.674534
0.674534
0.674562
0.674591
0.674619
0.674647
0.674647
0.674676
0.674704
0.674733
0.674761
0.674761
0.674789
0.674818
0.674846
0.674875
0.674875
0.674903
0.674932
0.67496
0.674989
0.674989
0.675018
0.675046
0.675075
0.675103
0.675103
0.675132
0.675161
0.675189
0.675218
0.675218
0.675247
0.675276
0.675304
0.675333
0.675333
0.675362
0.675391
0.675419
0.675448
0.675448
0.675477
0.675506
0.675535
0.675564
0.675564
0.675592
0.675621
0.67565
0.675679
0.675679
0.675708
0.675737
0.675766
0.675795
0.675795
0.675824
0.675853
0.675882
0.675911
0.675911
0.67594
0.675969
0.675998
0.676027
0.676027
0.676057
0.676086
0.676115
0.676144
0.676144
0.676173
0.676202
0.676232
0.676261
0.676261
0.67629
0.676319
0.676349
0.676378
0.676378
0.676407
0.676436
0.676466
0.676495
0.676495
0.676525
0.676554
0.676583
0.676613
0.676613
0.676642
0.676672
0.676701
0.676731
0.676731
0.67676
0.676789
0.676819
0.676849
0.676849
0.676878
0.676908
0.676937
0.676967
0.676967
0.676996
0.677026
0.677056
0.677085
0.677085
0.677115
0.677145
0.677174
0.677204
0.677204
0.677234
0.677264
0.677293
0.677323
0.677323
0.677353
0.677383
0.677412
0.677442
0.677442
0.677472
0.677502
0.677532
0.677562
0.677562
0.677592
0.677622
0.677652
0.677681
0.677681
0.677711
0.677741
0.677771
0.677801
0.677801
0.677831
0.677861
0.677892
0.677922
0.677922
0.677952
0.677982
0.678012
0.678042
0.678042
0.678072
0.678102
0.678133
0.678163
0.678163
0.678193
0.678223
0.678253
0.678284
0.678284
0.678314
0.678344
0.678374
0.678405
0.678405
0.678435
0.678465
0.678496
0.678526
0.678526
0.678557
0.678587
0.678617
0.678648
0.678648
0.678678
0.678709
0.678739
0.67877
0.67877
0.6788
0.678831
0.678861
0.678892
0.678892
0.678922
0.678953
0.678984
0.679014
0.679014
0.679045
0.679075
0.679106
0.679137
0.679137
0.679167
0.679198
0.679229
0.67926
0.67926
0.67929
0.679321
0.679352
0.679383
0.679383
0.679413
0.679444
0.679475
0.679506
0.679506
0.679537
0.679568
0.679599
0.67963
0.67963
0.67966
0.679691
0.679722
0.679753
0.679753
0.679784
0.679815
0.679846
0.679877
0.679877
0.679908
0.679939
0.679971
0.680002
0.680002
0.680033
0.680064
0.680095
0.680126
0.680126
0.680157
0.680188
0.68022
0.680251
0.680251
0.680282
0.680313
0.680345
0.680376
0.680376
0.680407
0.680438
0.68047
0.680501
0.680501
0.680532
0.680564
0.680595
0.680627
0.680627
0.680658
0.680689
0.680721
0.680752
0.680752
0.680784
0.680815
0.680847
0.680878
0.680878
0.68091
0.680941
0.680973
0.681004
0.681004
0.681036
0.681068
0.681099
0.681131
0.681131
0.681163
0.681194
0.681226
0.681258
0.681258
0.681289
0.681321
0.681353
0.681384
0.681384
0.681416
0.681448
0.68148
0.681512
0.681512
0.681543
0.681575
0.681607
0.681639
0.681639
0.681671
0.681703
0.681735
0.681767
0.681767
0.681799
0.681831
0.681863
0.681895
0.681895
0.681927
0.681959
0.681991
0.682023
0.682023
0.682055
0.682087
0.682119
0.682151
0.682151
0.682183
0.682215
0.682247
0.68228
0.68228
0.682312
0.682344
0.682376
0.682408
0.682408
0.682441
0.682473
0.682505
0.682537
0.682537
0.68257
0.682602
0.682634
0.682667
0.682667
0.682699
0.682732
0.682764
0.682796
0.682796
0.682829
0.682861
0.682894
0.682926
0.682926
0.682959
0.682991
0.683024
0.683056
0.683056
0.683089
0.683121
0.683154
0.683186
0.683186
0.683219
0.683252
0.683284
0.683317
0.683317
0.68335
0.683382
0.683415
0.683448
0.683448
0.68348
0.683513
0.683546
0.683579
0.683579
0.683611
0.683644
0.683677
0.68371
0.68371
0.683743
0.683776
0.683808
0.683841
0.683841
0.683874
0.683907
0.68394
0.683973
0.683973
0.684006
0.684039
0.684072
0.684105
0.684105
0.684138
0.684171
0.684204
0.684237
0.684237
0.68427
0.684303
0.684336
0.68437
0.68437
0.684403
0.684436
0.684469
0.684502
0.684502
0.684535
0.684569
0.684602
0.684635
0.684635
0.684668
0.684702
0.684735
0.684768
0.684768
0.684802
0.684835
0.684868
0.684902
0.684902
0.684935
0.684968
0.685002
0.685035
0.685035
0.685069
0.685102
0.685136
0.685169
0.685169
0.685203
0.685236
0.68527
0.685303
0.685303
0.685337
0.68537
0.685404
0.685437
0.685437
0.685471
0.685505
0.685538
0.685572
0.685572
0.685606
0.685639
0.685673
0.685707
0.685707
0.685741
0.685774
0.685808
0.685842
0.685842
0.685876
0.685909
0.685943
0.685977
0.685977
0.686011
0.686045
0.686079
0.686113
0.686113
0.686146
0.68618
0.686214
0.686248
0.686248
0.686282
0.686316
0.68635
0.686384
0.686384
0.686418
0.686452
0.686486
0.686521
0.686521
0.686555
0.686589
0.686623
0.686657
0.686657
0.686691
0.686725
0.686759
0.686794
0.686794
0.686828
0.686862
0.686896
0.686931
0.686931
0.686965
0.686999
0.687033
0.687068
0.687068
0.687102
0.687136
0.687171
0.687205
0.687205
0.68724
0.687274
0.687308
0.687343
0.687343
0.687377
0.687412
0.687446
0.687481
0.687481
0.687515
0.68755
0.687584
0.687619
0.687619
0.687653
0.687688
0.687723
0.687757
0.687757
0.687792
0.687827
0.687861
0.687896
0.687896
0.687931
0.687965
0.688
0.688035
0.688035
0.688069
0.688104
0.688139
0.688174
0.688174
0.688209
0.688243
0.688278
0.688313
0.688313
0.688348
0.688383
0.688418
0.688453
0.688453
0.688488
0.688522
0.688557
0.688592
0.688592
0.688627
0.688662
0.688697
0.688732
0.688732
0.688767
0.688803
0.688838
0.688873
0.688873
0.688908
0.688943
0.688978
0.689013
0.689013
0.689048
0.689084
0.689119
0.689154
0.689154
0.689189
0.689224
0.68926
0.689295
0.689295
0.68933
0.689365
0.689401
0.689436
0.689436
0.689471
0.689507
0.689542
0.689578
0.689578
0.689613
0.689648
0.689684
0.689719
0.689719
0.689755
0.68979
0.689826
0.689861
0.689861
0.689897
0.689932
0.689968
0.690003
0.690003
0.690039
0.690074
0.69011
0.690146
0.690146
0.690181
0.690217
0.690253
0.690288
0.690288
0.690324
0.69036
0.690395
0.690431
0.690431
0.690467
0.690503
0.690538
0.690574
0.690574
0.69061
0.690646
0.690682
0.690718
0.690718
0.690753
0.690789
0.690825
0.690861
0.690861
0.690897
0.690933
0.690969
0.691005
0.691005
0.691041
0.691077
0.691113
0.691149
0.691149
0.691185
0.691221
0.691257
0.691293
0.691293
0.691329
0.691366
0.691402
0.691438
0.691438
0.691474
0.69151
0.691546
0.691583
0.691583
0.691619
0.691655
0.691691
0.691728
0.691728
0.691764
0.6918
0.691836
0.691873
0.691873
0.691909
0.691945
0.691982
0.692018
0.692018
0.692055
0.692091
0.692127
0.692164
0.692164
0.6922
0.692237
0.692273
0.69231
0.69231
0.692346
0.692383
0.692419
0.692456
0.692456
0.692493
0.692529
0.692566
0.692602
0.692602
0.692639
0.692676
0.692712
0.692749
0.692749
0.692786
0.692822
0.692859
0.692896
0.692896
0.692933
0.692969
0.693006
0.693043
0.693043
0.69308
0.693117
0.693153
0.69319
0.69319
0.693227
0.693264
0.693301
0.693338
0.693338
0.693375
0.693412
0.693449
0.693486
0.693486
0.693523
0.69356
0.693597
0.693634
0.693634
0.693671
0.693708
0.693745
0.693782
0.693782
0.693819
0.693856
0.693893
0.693931
0.693931
0.693968
0.694005
0.694042
0.694079
0.694079
0.694117
0.694154
0.694191
0.694228
0.694228
0.694266
0.694303
0.69434
0.694378
0.694378
0.694415
0.694452
0.69449
0.694527
0.694527
0.694564
0.694602
0.694639
0.694677
0.694677
0.694714
0.694752
0.694789
0.694827
0.694827
0.694864
0.694902
0.694939
0.694977
0.694977
0.695014
0.695052
0.69509
0.695127
0.695127
0.695165
0.695202
0.69524
0.695278
0.695278
0.695316
0.695353
0.695391
0.695429
0.695429
0.695466
0.695504
0.695542
0.69558
0.69558
0.695618
0.695655
0.695693
0.695731
0.695731
0.695769
0.695807
0.695845
0.695883
0.695883
0.695921
0.695959
0.695997
0.696034
0.696034
0.696072
0.69611
0.696148
0.696187
0.696187
0.696225
0.696263
0.696301
0.696339
0.696339
0.696377
0.696415
0.696453
0.696491
0.696491
0.696529
0.696568
0.696606
0.696644
0.696644
0.696682
0.69672
0.696759
0.696797
0.696797
0.696835
0.696874
0.696912
0.69695
0.69695
0.696989
0.697027
0.697065
0.697104
0.697104
0.697142
0.69718
0.697219
0.697257
0.697257
0.697296
0.697334
0.697373
0.697411
0.697411
0.69745
0.697488
0.697527
0.697565
0.697565
0.697604
0.697643
0.697681
0.69772
0.69772
0.697758
0.697797
0.697836
0.697874
0.697874
0.697913
0.697952
0.69799
0.698029
0.698029
0.698068
0.698107
0.698145
0.698184
0.698184
0.698223
0.698262
0.698301
0.69834
0.69834
0.698378
0.698417
0.698456
0.698495
0.698495
0.698534
0.698573
0.698612
0.698651
0.698651
0.69869
0.698729
0.698768
0.698807
0.698807
0.698846
0.698885
0.698924
0.698963
0.698963
0.699002
0.699041
0.69908
0.69912
0.69912
0.699159
0.699198
0.699237
0.699276
0.699276
0.699315
0.699355
0.699394
0.699433
0.699433
0.699472
0.699512
0.699551
0.69959
0.69959
0.69963
0.699669
0.699708
0.699748
0.699748
0.699787
0.699827
0.699866
0.699905
0.699905
0.699945
0.699984
0.700024
0.700063
0.700063
0.700103
0.700142
0.700182
0.700221
0.700221
0.700261
0.7003
0.70034
0.70038
0.70038
0.700419
0.700459
0.700499
0.700538
0.700538
0.700578
0.700618
0.700657
0.700697
0.700697
0.700737
0.700777
0.700816
0.700856
0.700856
0.700896
0.700936
0.700975
0.701015
0.701015
0.701055
0.701095
0.701135
0.701175
0.701175
0.701215
0.701255
0.701295
0.701335
0.701335
0.701374
0.701414
0.701454
0.701494
0.701494
0.701534
0.701575
0.701615
0.701655
0.701655
0.701695
0.701735
0.701775
0.701815
0.701815
0.701855
0.701895
0.701936
0.701976
0.701976
0.702016
0.702056
0.702096
0.702137
0.702137
0.702177
0.702217
0.702257
0.702298
0.702298
0.702338
0.702378
0.702419
0.702459
0.702459
0.702499
0.70254
0.70258
0.702621