<?xml version="1.0"?>
<VTKFile type="UnstructuredGrid" version="0.1" byte_order="LittleEndian">
<UnstructuredGrid>
<Piece NumberOfPoints="5000" NumberOfCells="4000">
<PointData Scalars="Reaction 0">
<DataArray type="Float32" Name="Reaction 0" format="ascii">
0.572932
0.572932
0.572932
0.572932
0.572932
0.572932
0.572932
0.572932
0.572932
0.572932
0.572932
0.572932
0.572932
0.572932
0.572932
0.572932
0.572932
0.572932
0.572932
0.572932
0.572932
0.572932
0.572932
0.572932
0.572932
0.572932
0.572932
0.572932
0.572932
0.572933
0.572933
0.572933
0.572933
0.572933
0.572933
0.572933
0.572933
0.572933
0.572933
0.572933
0.572933
0.572933
0.572933
0.572934
0.572934
0.572934
0.572934
0.572934
0.572934
0.572934
0.572934
0.572934
0.572934
0.572935
0.572935
0.572935
0.572935
0.572935
0.572935
0.572935
0.572935
0.572935
0.572936
0.572936
0.572936
0.572936
0.572936
0.572936
0.572936
0.572937
0.572937
0.572937
0.572937
0.572937
0.572937
0.572937
0.572938
0.572938
0.572938
0.572938
0.572938
0.572938
0.572939
0.572939
0.572939
0.572939
0.572939
0.572939
0.57294
0.57294
0.57294
0.57294
0.57294
0.572941
0.572941
0.572941
0.572941
0.572941
0.572942
0.572942
0.572942
0.572942
0.572942
0.572943
0.572943
0.572943
0.572943
0.572943
0.572944
0.572944
0.572944
0.572944
0.572944
0.572945
0.572945
0.572945
0.572945
0.572946
0.572946
0.572946
0.572946
0.572947
0.572947
0.572947
0.572947
0.572947
0.572948
0.572948
0.572948
0.572949
0.572949
0.572949
0.572949
0.57295
0.57295
0.57295
0.57295
0.572951
0.572951
0.572952
0.572952
0.572952
0.572952
0.572953
0.572953
0.572953
0.572953
0.572954
0.572954
0.572954
0.572954
0.572955
0.572955
0.572956
0.572956
0.572956
0.572956
0.572957
0.572957
0.572958
0.572958
0.572958
0.572958
0.572959
0.572959
0.572959
0.57296
0.57296
0.572961
0.572961
0.572961
0.572961
0.572962
0.572962
0.572963
0.572963
0.572963
0.572964
0.572964
0.572965
0.572965
0.572965
0.572965
0.572966
0.572966
0.572966
0.572967
0.572967
0.572968
0.572968
0.572968
0.572969
0.572969
0.57297
0.57297
0.57297
0.572971
0.572971
0.572972
0.572972
0.572972
0.572973
0.572973
0.572974
0.572974
0.572974
0.572975
0.572975
0.572976
0.572976
0.572976
0.572977
0.572977
0.572978
0.572979
0.572979
0.572979
0.57298
0.57298
0.572981
0.572981
0.572981
0.572982
0.572983
0.572983
0.572983
0.572984
0.572984
0.572985
0.572985
0.572985
0.572986
0.572987
0.572987
0.572988
0.572988
0.572988
0.572989
0.57299
0.57299
0.57299
0.572991
0.572991
0.572992
0.572993
0.572993
0.572993
0.572994
0.572995
0.572995
0.572995
0.572996
0.572997
0.572997
0.572998
0.572998
0.572998
0.572999
0.573
0.573
0.573
0.573001
0.573002
0.573002
0.573003
0.573003
0.573004
0.573004
0.573005
0.573006
0.573006
0.573007
0.573007
0.573008
0.573009
0.573009
0.573009
0.57301
0.573011
0.573011
0.573011
0.573012
0.573013
0.573014
0.573014
0.573014
0.573015
0.573016
0.573017
0.573017
0.573017
0.573018
0.573019
0.57302
0.57302
0.57302
0.573021
0.573022
0.573023
0.573023
0.573023
0.573024
0.573025
0.573026
0.573026
0.573026
0.573027
0.573028
0.573029
0.57303
0.57303
0.57303
0.573031
0.573032
0.573033
0.573033
0.573034
0.573034
0.573035
0.573036
0.573036
0.573037
0.573038
0.573039
0.573039
0.573039
0.57304
0.573041
0.573042
0.573043
0.573043
0.573044
0.573044
0.573045
0.573046
0.573046
0.573047
0.573048
0.573049
0.57305
0.57305
0.57305
0.573051
0.573052
0.573053
0.573053
0.573054
0.573055
0.573056
0.573057
0.573057
0.573058
0.573059
0.573059
0.57306
0.57306
0.573061
0.573062
0.573063
0.573064
0.573064
0.573065
0.573066
0.573067
0.573068
0.573068
0.573069
0.57307
0.573071
0.573072
0.573072
0.573072
0.573073
0.573074
0.573075
0.573075
0.573076
0.573077
0.573078
0.573079
0.573079
0.57308
0.573081
0.573082
0.573083
0.573083
0.573084
0.573085
0.573086
0.573087
0.573087
0.573088
0.573089
0.57309
0.573091
0.573091
0.573092
0.573093
0.573094
0.573095
0.573095
0.573096
0.573097
0.573098
0.573099
0.573099
0.5731
0.573101
0.573103
0.573104
0.573104
0.573105
0.573106
0.573107
0.573108
0.573108
0.573109
0.57311
0.573111
0.573112
0.573112
0.573113
0.573114
0.573115
0.573117
0.573117
0.573118
0.573119
0.57312
0.573121
0.573121
0.573122
0.573123
0.573124
0.573125
0.573125
0.573127
0.573128
0.573129
0.57313
0.57313
0.573131
0.573132
0.573133
0.573135
0.573135
0.573136
0.573137
0.573138
0.573139
0.573139
0.57314
0.573142
0.573143
0.573144
0.573144
0.573145
0.573146
0.573147
0.573149
0.573149
0.57315
0.573151
0.573152
0.573153
0.573153
0.573155
0.573156
0.573157
0.573158
0.573158
0.57316
0.573161
0.573162
0.573163
0.573163
0.573164
0.573166
0.573167
0.573168
0.573168
0.573169
0.573171
0.573172
0.573173
0.573173
0.573174
0.573176
0.573177
0.573178
0.573178
0.57318
0.573181
0.573182
0.573183
0.573183
0.573185
0.573186
0.573187
0.573189
0.573189
0.57319
0.573191
0.573192
0.573194
0.573194
0.573195
0.573196
0.573198
0.573199
0.573199
0.5732
0.573202
0.573203
0.573204
0.573204
0.573206
0.573207
0.573208
0.57321
0.57321
0.573211
0.573212
0.573214
0.573215
0.573215
0.573217
0.573218
0.573219
0.573221
0.573221
0.573222
0.573223
0.573225
0.573226
0.573226
0.573228
0.573229
0.57323
0.573232
0.573232
0.573233
0.573235
0.573236
0.573238
0.573238
0.573239
0.57324
0.573242
0.573243
0.573243
0.573245
0.573246
0.573248
0.573249
0.573249
0.573251
0.573252
0.573253
0.573255
0.573255
0.573256
0.573258
0.573259
0.573261
0.573261
0.573262
0.573264
0.573265
0.573267
0.573267
0.573268
0.57327
0.573271
0.573273
0.573273
0.573274
0.573276
0.573277
0.573279
0.573279
0.57328
0.573282
0.573283
0.573285
0.573285
0.573287
0.573288
0.57329
0.573291
0.573291
0.573293
0.573294
0.573296
0.573297
0.573297
0.573299
0.573301
0.573302
0.573304
0.573304
0.573305
0.573307
0.573308
0.57331
0.57331
0.573312
0.573313
0.573315
0.573316
0.573316
0.573318
0.57332
0.573321
0.573323
0.573323
0.573324
0.573326
0.573328
0.573329
0.573329
0.573331
0.573333
0.573334
0.573336
0.573336
0.573338
0.573339
0.573341
0.573342
0.573342
0.573344
0.573346
0.573347
0.573349
0.573349
0.573351
0.573353
0.573354
0.573356
0.573356
0.573358
0.573359
0.573361
0.573363
0.573363
0.573364
0.573366
0.573368
0.57337
0.57337
0.573371
0.573373
0.573375
0.573377
0.573377
0.573378
0.57338
0.573382
0.573384
0.573384
0.573385
0.573387
0.573389
0.573391
0.573391
0.573392
0.573394
0.573396
0.573398
0.573398
0.573399
0.573401
0.573403
0.573405
0.573405
0.573407
0.573408
0.57341
0.573412
0.573412
0.573414
0.573416
0.573417
0.573419
0.573419
0.573421
0.573423
0.573425
0.573427
0.573427
0.573428
0.57343
0.573432
0.573434
0.573434
0.573436
0.573438
0.573439
0.573441
0.573441
0.573443
0.573445
0.573447
0.573449
0.573449
0.573451
0.573453
0.573454
0.573456
0.573456
0.573458
0.57346
0.573462
0.573464
0.573464
0.573466
0.573468
0.57347
0.573472
0.573472
0.573474
0.573475
0.573477
0.573479
0.573479
0.573481
0.573483
0.573485
0.573487
0.573487
0.573489
0.573491
0.573493
0.573495
0.573495
0.573497
0.573499
0.573501
0.573503
0.573503
0.573505
0.573507
0.573509
0.573511
0.573511
0.573513
0.573515
0.573517
0.573519
0.573519
0.573521
0.573523
0.573525
0.573527
0.573527
0.573529
0.573531
0.573533
0.573535
0.573535
0.573537
0.573539
0.573541
0.573543
0.573543
0.573545
0.573548
0.57355
0.573552
0.573552
0.573554
0.573556
0.573558
0.57356
0.57356
0.573562
0.573564
0.573566
0.573568
0.573568
0.57357
0.573573
0.573575
0.573577
0.573577
0.573579
0.573581
0.573583
0.573585
0.573585
0.573587
0.57359
0.573592
0.573594
0.573594
0.573596
0.573598
0.5736
0.573602
0.573602
0.573605
0.573607
0.573609
0.573611
0.573611
0.573613
0.573615
0.573618
0.57362
0.57362
0.573622
0.573624
0.573626
0.573629
0.573629
0.573631
0.573633
0.573635
0.573638
0.573638
0.57364
0.573642
0.573644
0.573647
0.573647
0.573649
0.573651
0.573653
0.573656
0.573656
0.573658
0.57366
0.573662
0.573665
0.573665
0.573667
0.573669
0.573671
0.573674
0.573674
0.573676
0.573678
0.573681
0.573683
0.573683
0.573685
0.573688
0.57369
0.573692
0.573692
0.573694
0.573697
0.573699
0.573701
0.573701
0.573704
0.573706
0.573708
0.573711
0.573711
0.573713
0.573716
0.573718
0.57372
0.57372
0.573723
0.573725
0.573727
0.57373
0.57373
0.573732
0.573734
0.573737
0.573739
0.573739
0.573742
0.573744
0.573746
0.573749
0.573749
0.573751
0.573754
0.573756
0.573759
0.573759
0.573761
0.573763
0.573766
0.573768
0.573768
0.573771
0.573773
0.573776
0.573778
0.573778
0.573781
0.573783
0.573786
0.573788
0.573788
0.573791
0.573793
0.573796
0.573798
0.573798
0.573801
0.573803
0.573806
0.573808
0.573808
0.573811
0.573813
0.573816
0.573818
0.573818
0.573821
0.573823
0.573826
0.573828
0.573828
0.573831
0.573833
0.573836
0.573838
0.573838
0.573841
0.573844
0.573846
0.573849
0.573849
0.573851
0.573854
0.573856
0.573859
0.573859
0.573862
0.573864
0.573867
0.573869
0.573869
0.573872
0.573875
0.573877
0.57388
0.57388
0.573882
0.573885
0.573888
0.57389
0.57389
0.573893
0.573896
0.573898
0.573901
0.573901
0.573904
0.573906
0.573909
0.573912
0.573912
0.573914
0.573917
0.57392
0.573922
0.573922
0.573925
0.573928
0.57393
0.573933
0.573933
0.573936
0.573939
0.573941
0.573944
0.573944
0.573947
0.57395
0.573952
0.573955
0.573955
0.573958
0.57396
0.573963
0.573966
0.573966
0.573969
0.573971
0.573974
0.573977
0.573977
0.57398
0.573983
0.573985
0.573988
0.573988
0.573991
0.573994
0.573996
0.573999
0.573999
0.574002
0.574005
0.574008
0.574011
0.574011
0.574013
0.574016
0.574019
0.574022
0.574022
0.574025
0.574028
0.57403
0.574033
0.574033
0.574036
0.574039
0.574042
0.574045
0.574045
0.574048
0.574051
0.574053
0.574056
0.574056
0.574059
0.574062
0.574065
0.574068
0.574068
0.574071
0.574074
0.574077
0.57408
0.57408
0.574083
0.574085
0.574088
0.574091
0.574091
0.574094
0.574097
0.5741
0.574103
0.574103
0.574106
0.574109
0.574112
0.574115
0.574115
0.574118
0.574121
0.574124
0.574127
0.574127
0.57413
0.574133
0.574136
0.574139
0.574139
0.574142
0.574145
0.574148
0.574151
0.574151
0.574154
0.574157
0.57416
0.574163
0.574163
0.574166
0.574169
0.574172
0.574175
0.574175
0.574178
0.574181
0.574185
0.574188
0.574188
0.574191
0.574194
0.574197
0.5742
0.5742
0.574203
0.574206
0.574209
0.574213
0.574213
0.574216
0.574219
0.574222
0.574225
0.574225
0.574228
0.574231
0.574234
0.574238
0.574238
0.574241
0.574244
0.574247
0.57425
0.57425
0.574253
0.574257
0.57426
0.574263
0.574263
0.574266
0.574269
0.574273
0.574276
0.574276
0.574279
0.574282
0.574285
0.574289
0.574289
0.574292
0.574295
0.574298
0.574301
0.574301
0.574305
0.574308
0.574311
0.574314
0.574314
0.574318
0.574321
0.574324
0.574328
0.574328
0.574331
0.574334
0.574337
0.574341
0.574341
0.574344
0.574347
0.574351
0.574354
0.574354
0.574357
0.574361
0.574364
0.574367
0.574367
0.574371
0.574374
0.574377
0.574381
0.574381
0.574384
0.574387
0.574391
0.574394
0.574394
0.574398
0.574401
0.574404
0.574408
0.574408
0.574411
0.574414
0.574418
0.574421
0.574421
0.574425
0.574428
0.574431
0.574435
0.574435
0.574438
0.574442
0.574445
0.574449
0.574449
0.574452
0.574455
0.574459
0.574462
0.574462
0.574466
0.574469
0.574473
0.574476
0.574476
0.57448
0.574483
0.574487
0.57449
0.57449
0.574494
0.574497
0.574501
0.574504
0.574504
0.574508
0.574511
0.574515
0.574519
0.574519
0.574522
0.574526
0.574529
0.574533
0.574533
0.574536
0.57454
0.574543
0.574547
0.574547
0.574551
0.574554
0.574558
0.574561
0.574561
0.574565
0.574569
0.574572
0.574576
0.574576
0.574579
0.574583
0.574587
0.57459
0.57459
0.574594
0.574597
0.574601
0.574605
0.574605
0.574608
0.574612
0.574616
0.574619
0.574619
0.574623
0.574627
0.574631
0.574634
0.574634
0.574638
0.574642
0.574645
0.574649
0.574649
0.574653
0.574657
0.57466
0.574664
0.574664
0.574668
0.574671
0.574675
0.574679
0.574679
0.574683
0.574686
0.57469
0.574694
0.574694
0.574698
0.574702
0.574705
0.574709
0.574709
0.574713
0.574717
0.574721
0.574724
0.574724
0.574728
0.574732
0.574736
0.57474
0.57474
0.574743
0.574747
0.574751
0.574755
0.574755
0.574759
0.574763
0.574766
0.57477
0.57477
0.574774
0.574778
0.574782
0.574786
0.574786
0.57479
0.574794
0.574798
0.574802
0.574802
0.574805
0.574809
0.574813
0.574817
0.574817
0.574821
0.574825
0.574829
0.574833
0.574833
0.574837
0.574841
0.574845
0.574849
0.574849
0.574853
0.574857
0.574861
0.574865
0.574865
0.574869
0.574873
0.574877
0.574881
0.574881
0.574885
0.574889
0.574893
0.574897
0.574897
0.574901
0.574905
0.574909
0.574913
0.574913
0.574917
0.574921
0.574925
0.574929
0.574929
0.574933
0.574937
0.574942
0.574946
0.574946
0.57495
0.574954
0.574958
0.574962
0.574962
0.574966
0.57497
0.574975
0.574979
0.574979
0.574983
0.574987
0.574991
0.574995
0.574995
0.574999
0.575004
0.575008
0.575012
0.575012
0.575016
0.57502
0.575024
0.575029
0.575029
0.575033
0.575037
0.575041
0.575046
0.575046
0.57505
0.575054
0.575058
0.575062
0.575062
0.575067
0.575071
0.575075
0.575079
0.575079
0.575084
0.575088
0.575092
0.575097
0.575097
0.575101
0.575105
0.575109
0.575114
0.575114
0.575118
0.575122
0.575127
0.575131
0.575131
0.575135
0.57514
0.575144
0.575148
0.575148
0.575153
0.575157
0.575162
0.575166
0.575166
0.57517
0.575175
0.575179
0.575183
0.575183
0.575188
0.575192
0.575197
0.575201
0.575201
0.575205
0.57521
0.575214
0.575219
0.575219
0.575223
0.575228
0.575232
0.575237
0.575237
0.575241
0.575245
0.57525
0.575254
0.575254
0.575259
0.575263
0.575268
0.575272
0.575272
0.575277
0.575281
0.575286
0.575291
0.575291
0.575295
0.5753
0.575304
0.575309
0.575309
0.575313
0.575318
0.575322
0.575327
0.575327
0.575331
0.575336
0.575341
0.575345
0.575345
0.57535
0.575354
0.575359
0.575364
0.575364
0.575368
0.575373
0.575377
0.575382
0.575382
0.575387
0.575391
0.575396
0.575401
0.575401
0.575405
0.57541
0.575415
0.575419
0.575419
0.575424
0.575429
0.575434
0.575438
0.575438
0.575443
0.575448
0.575452
0.575457
0.575457
0.575462
0.575467
0.575471
0.575476
0.575476
0.575481
0.575486
0.57549
0.575495
0.575495
0.5755
0.575505
0.57551
0.575514
0.575514
0.575519
0.575524
0.575529
0.575534
0.575534
0.575538
0.575543
0.575548
0.575553
0.575553
0.575558
0.575563
0.575567
0.575572
0.575572
0.575577
0.575582
0.575587
0.575592
0.575592
0.575597
0.575602
0.575607
0.575612
0.575612
0.575616
0.575621
0.575626
0.575631
0.575631
0.575636
0.575641
0.575646
0.575651
0.575651
0.575656
0.575661
0.575666
0.575671
0.575671
0.575676
0.575681
0.575686
0.575691
0.575691
0.575696
0.575701
0.575706
0.575711
0.575711
0.575716
0.575721
0.575726
0.575731
0.575731
0.575736
0.575741
0.575746
0.575752
0.575752
0.575757
0.575762
0.575767
0.575772
0.575772
0.575777
0.575782
0.575787
0.575793
0.575793
0.575798
0.575803
0.575808
0.575813
0.575813
0.575818
0.575823
0.575829
0.575834
0.575834
0.575839
0.575844
0.575849
0.575855
0.575855
0.57586
0.575865
0.57587
0.575875
0.575875
0.575881
0.575886
0.575891
0.575896
0.575896
0.575902
0.575907
0.575912
0.575917
0.575917
0.575923
0.575928
0.575933
0.575939
0.575939
0.575944
0.575949
0.575955
0.57596
0.57596
0.575965
0.575971
0.575976
0.575981
0.575981
0.575987
0.575992
0.575998
0.576003
0.576003
0.576008
0.576014
0.576019
0.576024
0.576024
0.57603
0.576035
0.576041
0.576046
0.576046
0.576052
0.576057
0.576062
0.576068
0.576068
0.576073
0.576079
0.576084
0.57609
0.57609
0.576095
0.576101
0.576106
0.576112
0.576112
0.576117
0.576123
0.576128
0.576134
0.576134
0.57614
0.576145
0.576151
0.576156
0.576156
0.576162
0.576167
0.576173
0.576179
0.576179
0.576184
0.57619
0.576195
0.576201
0.576201
0.576207
0.576212
0.576218
0.576223
0.576223
0.576229
0.576235
0.57624
0.576246
0.576246
0.576252
0.576257
0.576263
0.576269
0.576269
0.576275
0.57628
0.576286
0.576292
0.576292
0.576297
0.576303
0.576309
0.576315
0.576315
0.57632
0.576326
0.576332
0.576338
0.576338
0.576343
0.576349
0.576355
0.576361
0.576361
0.576367
0.576372
0.576378
0.576384
0.576384
0.57639
0.576396
0.576402
0.576407
0.576407
0.576413
0.576419
0.576425
0.576431
0.576431
0.576437
0.576443
0.576449
0.576455
0.576455
0.576461
0.576466
0.576472
0.576478
0.576478
0.576484
0.57649
0.576496
0.576502
0.576502
0.576508
0.576514
0.57652
0.576526
0.576526
0.576532
0.576538
0.576544
0.57655
0.57655
0.576556
0.576562
0.576568
0.576574
0.576574
0.57658
0.576586
0.576592
0.576599
0.576599
0.576605
0.576611
0.576617
0.576623
0.576623
0.576629
0.576635
0.576641
0.576647
0.576647
0.576654
0.57666
0.576666
0.576672
0.576672
0.576678
0.576684
0.576691
0.576697
0.576697
0.576703
0.576709
0.576715
0.576722
0.576722
0.576728
0.576734
0.57674
0.576747
0.576747
0.576753
0.576759
0.576765
0.576772
0.576772
0.576778
0.576784
0.57679
0.576797
0.576797
0.576803
0.576809
0.576816
0.576822
0.576822
0.576828
0.576835
0.576841
0.576848
0.576848
0.576854
0.57686
0.576867
0.576873
0.576873
0.576879
0.576886
0.576892
0.576899
0.576899
0.576905
0.576912
0.576918
0.576924
0.576924
0.576931
0.576937
0.576944
0.57695
0.57695
0.576957
0.576963
0.57697
0.576976
0.576976
0.576983
0.576989
0.576996
0.577003
0.577003
0.577009
0.577016
0.577022
0.577029
0.577029
0.577035
0.577042
0.577049
0.577055
0.577055
0.577062
0.577068
0.577075
0.577082
0.577082
0.577088
0.577095
0.577102
0.577108
0.577108
0.577115
0.577122
0.577128
0.577135
0.577135
0.577142
0.577148
0.577155
0.577162
0.577162
0.577169
0.577175
0.577182
0.577189
0.577189
0.577196
0.577202
0.577209
0.577216
0.577216
0.577223
0.57723
0.577236
0.577243
0.577243
0.57725
0.577257
0.577264
0.57727
0.57727
0.577277
0.577284
0.577291
0.577298
0.577298
0.577305
0.577312
0.577319
0.577326
0.577326
0.577332
0.577339
0.577346
0.577353
0.577353
0.57736
0.577367
0.577374
0.577381
0.577381
0.577388
0.577395
0.577402
0.577409
0.577409
0.577416
0.577423
0.57743
0.577437
0.577437
0.577444
0.577451
0.577458
0.577465
0.577465
0.577473
0.57748
0.577487
0.577494
0.577494
0.577501
0.577508
0.577515
0.577522
0.577522
0.577529
0.577537
0.577544
0.577551
0.577551
0.577558
0.577565
0.577573
0.57758
0.57758
0.577587
0.577594
0.577601
0.577609
0.577609
0.577616
0.577623
0.57763
0.577638
0.577638
0.577645
0.577652
0.577659
0.577667
0.577667
0.577674
0.577681
0.577689
0.577696
0.577696
0.577703
0.577711
0.577718
0.577725
0.577725
0.577733
0.57774
0.577748
0.577755
0.577755
0.577762
0.57777
0.577777
0.577785
0.577785
0.577792
0.5778
0.577807
0.577815
0.577815
0.577822
0.57783
0.577837
0.577844
0.577844
0.577852
0.57786
0.577867
0.577875
0.577875
0.577882
0.57789
0.577897
0.577905
0.577905
0.577912
0.57792
0.577928
0.577935
0.577935
0.577943
0.57795
0.577958
0.577966
0.577966
0.577973
0.577981
0.577989
0.577996
0.577996
0.578004
0.578012
0.578019
0.578027
0.578027
0.578035
0.578043
0.57805
0.578058
0.578058
0.578066
0.578074
0.578081
0.578089
0.578089
0.578097
0.578105
0.578112
0.57812
0.57812
0.578128
0.578136
0.578144
0.578152
0.578152
0.578159
0.578167
0.578175
0.578183
0.578183
0.578191
0.578199
0.578207
0.578215
0.578215
0.578223
0.578231
0.578239
0.578247
0.578247
0.578254
0.578262
0.57827
0.578278
0.578278
0.578286
0.578294
0.578302
0.57831
0.57831
0.578318
0.578327
0.578335
0.578343
0.578343
0.578351
0.578359
0.578367
0.578375
0.578375
0.578383
0.578391
0.578399
0.578408
0.578408
0.578416
0.578424
0.578432
0.57844
0.57844
0.578448
0.578457
0.578465
0.578473
0.578473
0.578481
0.578489
0.578498
0.578506
0.578506
0.578514
0.578522
0.578531
0.578539
0.578539
0.578547
0.578556
0.578564
0.578572
0.578572
0.578581
0.578589
0.578597
0.578606
0.578606
0.578614
0.578622
0.578631
0.578639
0.578639
0.578648
0.578656
0.578664
0.578673
0.578673
0.578681
0.57869
0.578698
0.578707
0.578707
0.578715
0.578724
0.578732
0.578741
0.578741
0.578749
0.578758
0.578766
0.578775
0.578775
0.578783
0.578792
0.578801
0.578809
0.578809
0.578818
0.578826
0.578835
0.578844
0.578844
0.578852
0.578861
0.57887
0.578878
0.578878
0.578887
0.578896
0.578904
0.578913
0.578913
0.578922
0.57893
0.578939
0.578948
0.578948
0.578957
0.578965
0.578974
0.578983
0.578983
0.578992
0.579001
0.579009
0.579018
0.579018
0.579027
0.579036
0.579045
0.579054
0.579054
0.579063
0.579071
0.57908
0.579089
0.579089
0.579098
0.579107
0.579116
0.579125
0.579125
0.579134
0.579143
0.579152
0.579161
0.579161
0.57917
0.579179
0.579188
0.579197
0.579197
0.579206
0.579215
0.579224
0.579233
0.579233
0.579242
0.579251
0.57926
0.579269
0.579269
0.579279
0.579288
0.579297
0.579306
0.579306
0.579315
0.579324
0.579333
0.579343
0.579343
0.579352
0.579361
0.57937
0.579379
0.579379
0.579389
0.579398
0.579407
0.579417
0.579417
0.579426
0.579435
0.579444
0.579454
0.579454
0.579463
0.579472
0.579482
0.579491
0.579491
0.5795
0.57951
0.579519
0.579529
0.579529
0.579538
0.579547
0.579557
0.579566
0.579566
0.579576
0.579585
0.579595
0.579604
0.579604
0.579614
0.579623
0.579633
0.579642
0.579642
0.579652
0.579661
0.579671
0.57968
0.57968
0.57969
0.5797
0.579709
0.579719
0.579719
0.579728
0.579738
0.579748
0.579757
0.579757
0.579767
0.579777
0.579786
0.579796
0.579796
0.579806
0.579815
0.579825
0.579835
0.579835
0.579845
0.579855
0.579864
0.579874
0.579874
0.579884
0.579894
0.579904
0.579913
0.579913
0.579923
0.579933
0.579943
0.579953
0.579953
0.579963
0.579973
0.579982
0.579992
0.579992
0.580002
0.580012
0.580022
0.580032
0.580032
0.580042
0.580052
0.580062
0.580072
0.580072
0.580082
0.580092
0.580102
0.580112
0.580112
0.580122
0.580132
0.580143
0.580153
0.580153
0.580163
0.580173
0.580183
0.580193
0.580193
0.580203
0.580213
0.580224
0.580234
0.580234
0.580244
0.580254
0.580264
0.580275
0.580275
0.580285
0.580295
0.580305
0.580316
0.580316
0.580326
0.580336
0.580347
0.580357
0.580357
0.580367
0.580378
0.580388
0.580398
0.580398
0.580409
0.580419
0.58043
0.58044
0.58044
0.58045
0.580461
0.580471
0.580482
0.580482
0.580492
0.580503
0.580513
0.580524
0.580524
0.580534
0.580545
0.580555
0.580566
0.580566
0.580577
0.580587
0.580598
0.580608
0.580608
0.580619
0.58063
0.58064
0.580651
0.580651
0.580662
0.580672
0.580683
0.580694
0.580694
0.580704
0.580715
0.580726
0.580737
0.580737
0.580747
0.580758
0.580769
0.58078
0.58078
0.580791
0.580801
0.580812
0.580823
0.580823
0.580834
0.580845
0.580856
0.580867
0.580867
0.580878
0.580888
0.580899
0.58091
0.58091
0.580921
0.580932
0.580943
0.580954
0.580954
0.580965
0.580976
0.580987
0.580998
0.580998
0.581009
0.581021
0.581032
0.581043
0.581043
0.581054
0.581065
0.581076
0.581087
0.581087
0.581098
0.58111
0.581121
0.581132
0.581132
0.581143
0.581154
0.581166
0.581177
0.581177
0.581188
0.581199
0.581211
0.581222
0.581222
0.581233
0.581245
0.581256
0.581267
0.581267
0.581279
0.58129
0.581301
0.581313
0.581313
0.581324
0.581336
0.581347
0.581359
0.581359
0.58137
0.581382
0.581393
0.581405
0.581405
0.581416
0.581428
0.581439
0.581451
0.581451
0.581462
0.581474
0.581485
0.581497
0.581497
0.581509
0.58152
0.581532
0.581544
0.581544
0.581555
0.581567
0.581579
0.58159
0.58159
0.581602
0.581614
0.581626
0.581637
0.581637
0.581649
0.581661
0.581673
0.581685
0.581685
0.581696
0.581708
0.58172
0.581732
0.581732
0.581744
0.581756
0.581768
0.58178
0.58178
0.581792
0.581803
0.581815
0.581827
0.581827
0.581839
0.581851
0.581863
0.581875
0.581875
0.581888
0.5819
0.581912
0.581924
0.581924
0.581936
0.581948
0.58196
0.581972
0.581972
0.581984
0.581997
0.582009
0.582021
0.582021
0.582033
0.582045
0.582058
0.58207
0.58207
0.582082
0.582094
0.582107
0.582119
0.582119
0.582131
0.582144
0.582156
0.582168
0.582168
0.582181
0.582193
0.582206
0.582218
0.582218
0.58223
0.582243
0.582255
0.582268
0.582268
0.58228
0.582293
0.582305
0.582318
0.582318
0.58233
0.582343
0.582356
0.582368
0.582368
0.582381
0.582393
0.582406
0.582419
0.582419
0.582431
0.582444
0.582457
0.582469
0.582469
0.582482
0.582495
0.582507
0.58252
0.58252
0.582533
0.582546
0.582559
0.582571
0.582571
0.582584
0.582597
0.58261
0.582623
0.582623
0.582636
0.582649
0.582662
0.582674
0.582674
0.582687
0.5827
0.582713
0.582726
0.582726
0.582739
0.582752
0.582765
0.582778
0.582778
0.582792
0.582805
0.582818
0.582831
0.582831
0.582844
0.582857
0.58287
0.582883
0.582883
0.582897
0.58291
0.582923
0.582936
0.582936
0.582949
0.582963
0.582976
0.582989
0.582989
0.583003
0.583016
0.583029
0.583043
0.583043
0.583056
0.583069
0.583083
0.583096
0.583096
0.58311
0.583123
0.583136
0.58315
0.58315
0.583163
0.583177
0.58319
0.583204
0.583204
0.583217
0.583231
0.583245
0.583258
0.583258
0.583272
0.583285
0.583299
0.583313
0.583313
0.583326
0.58334
0.583354
0.583368
0.583368
0.583381
0.583395
0.583409
0.583423
0.583423
0.583436
0.58345
0.583464
0.583478
0.583478
0.583492
0.583505
0.583519
0.583533
0.583533
0.583547
0.583561
0.583575
0.583589
0.583589
0.583603
0.583617
0.583631
0.583645
0.583645
0.583659
0.583673
0.583687
0.583701
0.583701
0.583715
0.58373
0.583744
0.583758
0.583758
0.583772
0.583786
0.5838
0.583815
0.583815
0.583829
0.583843
0.583857
0.583872
0.583872
0.583886
0.5839
0.583915
0.583929
0.583929
0.583943
0.583958
0.583972
0.583987
0.583987
0.584001
0.584015
0.58403
0.584044
0.584044
0.584059
0.584073
0.584088
0.584102
0.584102
0.584117
0.584132
0.584146
0.584161
0.584161
0.584175
0.58419
0.584205
0.584219
0.584219
0.584234
0.584249
0.584263
0.584278
0.584278
0.584293
0.584308
0.584323
0.584337
0.584337
0.584352
0.584367
0.584382
0.584397
0.584397
0.584412
0.584427
0.584441
0.584456
0.584456
0.584471
0.584486
0.584501
0.584516
0.584516
0.584531
0.584546
0.584562
0.584577
0.584577
0.584592
0.584607
0.584622
0.584637
0.584637
0.584652
0.584667
0.584683
0.584698
0.584698
0.584713
0.584728
0.584744
0.584759
0.584759
0.584774
0.584789
0.584805
0.58482
0.58482
0.584836
0.584851
0.584866
0.584882
0.584882
0.584897
0.584913
0.584928
0.584944
0.584944
0.584959
0.584975
0.58499
0.585006
0.585006
0.585021
0.585037
0.585053
0.585068
0.585068
0.585084
0.5851
0.585115
0.585131
0.585131
0.585147
0.585162
0.585178
0.585194
0.585194
0.58521
0.585226
0.585241
0.585257
0.585257
0.585273
0.585289
0.585305
0.585321
0.585321
0.585337
0.585353
0.585369
0.585385
0.585385
0.585401
0.585417
0.585433
0.585449
0.585449
0.585465
0.585481
0.585497
0.585513
0.585513
0.585529
0.585546
0.585562
0.585578
0.585578
0.585594
0.58561
0.585627
0.585643
0.585643
0.585659
0.585676
0.585692
0.585708
0.585708
0.585725
0.585741
0.585758
0.585774
0.585774
0.58579
0.585807
0.585823
0.58584
0.58584
0.585856
0.585873
0.58589
0.585906
0.585906
0.585923
0.585939
0.585956
0.585973
0.585973
0.585989
0.586006
0.586023
0.586039
0.586039
0.586056
0.586073
0.58609
0.586107
0.586107
0.586123
0.58614
0.586157
0.586174
0.586174
0.586191
0.586208
0.586225
0.586242
0.586242
0.586259
0.586276
0.586293
0.58631
0.58631
0.586327
0.586344
0.586361
0.586378
0.586378
0.586395
0.586412
0.58643
0.586447
0.586447
0.586464
0.586481
0.586499
0.586516
0.586516
0.586533
0.58655
0.586568
0.586585
0.586585
0.586603
0.58662
0.586637
0.586655
0.586655
0.586672
0.58669
0.586707
0.586725
0.586725
0.586742
0.58676
0.586777
0.586795
0.586795
0.586812
0.58683
0.586848
0.586865
0.586865
0.586883
0.586901
0.586919
0.586936
0.586936
0.586954
0.586972
0.58699
0.587008
0.587008
0.587025
0.587043
0.587061
0.587079
0.587079
0.587097
0.587115
0.587133
0.587151
0.587151
0.587169
0.587187
0.587205
0.587223
0.587223
0.587241
0.587259
0.587277
0.587296
0.587296
0.587314
0.587332
0.58735
0.587368
0.587368
0.587387
0.587405
0.587423
0.587442
0.587442
0.58746
0.587478
0.587497
0.587515
0.587515
0.587534
0.587552
0.587571
0.587589
0.587589
0.587608
0.587626
0.587645
0.587663
0.587663
0.587682
0.5877
0.587719
0.587738
0.587738
0.587756
0.587775
0.587794
0.587813
0.587813
0.587831
0.58785
0.587869
0.587888
0.587888
0.587907
0.587925
0.587944
0.587963
0.587963
0.587982
0.588001
0.58802
0.588039
0.588039
0.588058
0.588077
0.588096
0.588115
0.588115
0.588134
0.588154
0.588173
0.588192
0.588192
0.588211
0.58823
0.58825
0.588269
0.588269
0.588288
0.588307
0.588327
0.588346
0.588346
0.588365
0.588385
0.588404
0.588424
0.588424
0.588443
0.588463
0.588482
0.588502
0.588502
0.588521
0.588541
0.58856
0.58858
0.58858
0.5886
0.588619
0.588639
0.588659
0.588659
0.588678
0.588698
0.588718
0.588738
0.588738
0.588758
0.588777
0.588797
0.588817
0.588817
0.588837
0.588857
0.588877
0.588897
0.588897
0.588917
0.588937
0.588957
0.588977
0.588977
0.588997
0.589017
0.589037
0.589058
0.589058
0.589078
0.589098
0.589118
0.589138
0.589138
0.589159
0.589179
0.589199
0.58922
0.58922
0.58924
0.58926
0.589281
0.589301
0.589301
0.589322
0.589342
0.589363
0.589383
0.589383
0.589404
0.589424
0.589445
0.589465
0.589465
0.589486
0.589507
0.589527
0.589548
0.589548
0.589569
0.58959
0.58961
0.589631
0.589631
0.589652
0.589673
0.589694
0.589715
0.589715
0.589736
0.589757
0.589778
0.589799
0.589799
0.58982
0.589841
0.589862
0.589883
0.589883
0.589904
0.589925
0.589946
0.589967
0.589967
0.589989
0.59001
0.590031
0.590052
0.590052
0.590074
0.590095
0.590116
0.590138
0.590138
0.590159
0.590181
0.590202
0.590224
0.590224
0.590245
0.590267
0.590288
0.59031
0.59031
0.590331
0.590353
0.590375
0.590396
0.590396
0.590418
0.59044
0.590461
0.590483
0.590483
0.590505
0.590527
0.590549
0.590571
0.590571
0.590592
0.590614
0.590636
0.590658
0.590658
0.59068
0.590702
0.590724
0.590746
0.590746
0.590768
0.590791
0.590813
0.590835
0.590835
0.590857
0.590879
0.590902
0.590924
0.590924
0.590946
0.590968
0.590991
0.591013
0.591013
0.591036
0.591058
0.59108
0.591103
0.591103
0.591125
0.591148
0.591171
0.591193
0.591193
0.591216
0.591238
0.591261
0.591284
0.591284
0.591306
0.591329
0.591352
0.591375
0.591375
0.591397
0.59142
0.591443
0.591466
0.591466
0.591489
0.591512
0.591535
0.591558
0.591558
0.591581
0.591604
0.591627
0.59165
0.59165
0.591673
0.591696
0.591719
0.591743
0.591743
0.591766
0.591789
0.591812
0.591836
0.591836
0.591859
0.591882
0.591906
0.591929
0.591929
0.591953
0.591976
0.592
0.592023
0.592023
0.592047
0.59207
0.592094
0.592117
0.592117
0.592141
0.592165
0.592188
0.592212
0.592212
0.592236
0.59226
0.592283
0.592307
0.592307
0.592331
0.592355
0.592379
0.592403
0.592403
0.592427
0.592451
0.592475
0.592499
0.592499
0.592523
0.592547
0.592571
0.592595
0.592595
0.59262
0.592644
0.592668
0.592692
0.592692
0.592717
0.592741
0.592765
0.59279
0.59279
0.592814
0.592839
0.592863
0.592888
0.592888
0.592912
0.592937
0.592961
0.592986
0.592986
0.59301
0.593035
0.59306
0.593084
0.593084
0.593109
0.593134
0.593159
0.593184
0.593184
0.593208
0.593233
0.593258
0.593283
0.593283
0.593308
0.593333
0.593358
0.593383
0.593383
0.593408
0.593433
0.593458
0.593484
0.593484
0.593509
0.593534
0.593559
0.593585
0.593585
0.59361
0.593635
0.593661
0.593686
0.593686
0.593711
0.593737
0.593762