<?xml version="1.0"?>
<VTKFile type="UnstructuredGrid" version="0.1" byte_order="LittleEndian">
<UnstructuredGrid>
<Piece NumberOfPoints="5000" NumberOfCells="4000">
<PointData Scalars="Reaction 0">
<DataArray type="Float32" Name="Reaction 0" format="ascii">
0.569654
0.569654
0.569654
0.569654
0.569654
0.569654
0.569654
0.569654
0.569654
0.569654
0.569654
0.569654
0.569654
0.569654
0.569654
0.569654
0.569654
0.569654
0.569654
0.569654
0.569654
0.569654
0.569654
0.569654
0.569654
0.569654
0.569654
0.569654
0.569654
0.569654
0.569654
0.569654
0.569654
0.569654
0.569654
0.569654
0.569654
0.569654
0.569654
0.569654
0.569654
0.569655
0.569655
0.569655
0.569655
0.569655
0.569655
0.569655
0.569655
0.569655
0.569655
0.569655
0.569655
0.569655
0.569655
0.569655
0.569655
0.569655
0.569656
0.569656
0.569656
0.569656
0.569656
0.569656
0.569656
0.569656
0.569656
0.569656
0.569656
0.569656
0.569656
0.569657
0.569657
0.569657
0.569657
0.569657
0.569657
0.569657
0.569657
0.569657
0.569657
0.569657
0.569658
0.569658
0.569658
0.569658
0.569658
0.569658
0.569658
0.569658
0.569658
0.569658
0.569659
0.569659
0.569659
0.569659
0.569659
0.569659
0.569659
0.569659
0.569659
0.569659
0.56966
0.56966
0.56966
0.56966
0.56966
0.56966
0.56966
0.569661
0.569661
0.569661
0.569661
0.569661
0.569661
0.569661
0.569661
0.569662
0.569662
0.569662
0.569662
0.569662
0.569662
0.569662
0.569663
0.569663
0.569663
0.569663
0.569663
0.569663
0.569663
0.569664
0.569664
0.569664
0.569664
0.569664
0.569664
0.569665
0.569665
0.569665
0.569665
0.569665
0.569665
0.569666
0.569666
0.569666
0.569666
0.569666
0.569666
0.569667
0.569667
0.569667
0.569667
0.569667
0.569667
0.569667
0.569668
0.569668
0.569668
0.569668
0.569668
0.569669
0.569669
0.569669
0.569669
0.569669
0.56967
0.56967
0.56967
0.56967
0.56967
0.569671
0.569671
0.569671
0.569671
0.569671
0.569672
0.569672
0.569672
0.569672
0.569672
0.569673
0.569673
0.569673
0.569673
0.569673
0.569674
0.569674
0.569674
0.569674
0.569674
0.569675
0.569675
0.569675
0.569676
0.569676
0.569676
0.569676
0.569676
0.569677
0.569677
0.569677
0.569677
0.569678
0.569678
0.569678
0.569678
0.569678
0.569679
0.569679
0.569679
0.569679
0.56968
0.56968
0.56968
0.56968
0.569681
0.569681
0.569681
0.569682
0.569682
0.569682
0.569682
0.569683
0.569683
0.569683
0.569683
0.569684
0.569684
0.569684
0.569684
0.569685
0.569685
0.569685
0.569686
0.569686
0.569686
0.569686
0.569687
0.569687
0.569687
0.569687
0.569688
0.569688
0.569688
0.569688
0.569689
0.569689
0.569689
0.56969
0.56969
0.56969
0.569691
0.569691
0.569691
0.569691
0.569692
0.569692
0.569692
0.569693
0.569693
0.569693
0.569694
0.569694
0.569694
0.569694
0.569695
0.569695
0.569695
0.569696
0.569696
0.569696
0.569697
0.569697
0.569697
0.569697
0.569698
0.569698
0.569699
0.569699
0.569699
0.569699
0.5697
0.5697
0.569701
0.569701
0.569701
0.569702
0.569702
0.569702
0.569702
0.569703
0.569703
0.569704
0.569704
0.569704
0.569705
0.569705
0.569705
0.569706
0.569706
0.569706
0.569707
0.569707
0.569708
0.569708
0.569708
0.569709
0.569709
0.569709
0.569709
0.56971
0.56971
0.569711
0.569711
0.569711
0.569712
0.569712
0.569713
0.569713
0.569713
0.569714
0.569714
0.569715
0.569715
0.569715
0.569715
0.569716
0.569716
0.569717
0.569717
0.569717
0.569718
0.569718
0.569719
0.569719
0.569719
0.56972
0.56972
0.569721
0.569721
0.569721
0.569722
0.569722
0.569723
0.569723
0.569723
0.569724
0.569724
0.569725
0.569725
0.569725
0.569726
0.569726
0.569727
0.569727
0.569727
0.569728
0.569728
0.569729
0.569729
0.56973
0.56973
0.569731
0.569731
0.569731
0.569732
0.569732
0.569733
0.569733
0.569733
0.569734
0.569734
0.569735
0.569735
0.569735
0.569736
0.569737
0.569737
0.569738
0.569738
0.569738
0.569739
0.569739
0.56974
0.56974
0.56974
0.569741
0.569742
0.569742
0.569742
0.569743
0.569743
0.569744
0.569744
0.569744
0.569745
0.569746
0.569746
0.569747
0.569747
0.569747
0.569748
0.569749
0.569749
0.569749
0.56975
0.56975
0.569751
0.569752
0.569752
0.569752
0.569753
0.569753
0.569754
0.569754
0.569755
0.569755
0.569756
0.569756
0.569756
0.569757
0.569758
0.569758
0.569759
0.569759
0.56976
0.56976
0.569761
0.569761
0.569761
0.569762
0.569763
0.569763
0.569764
0.569764
0.569765
0.569765
0.569766
0.569767
0.569767
0.569767
0.569768
0.569769
0.569769
0.569769
0.56977
0.56977
0.569771
0.569772
0.569772
0.569772
0.569773
0.569774
0.569774
0.569774
0.569775
0.569776
0.569777
0.569777
0.569777
0.569778
0.569779
0.569779
0.56978
0.56978
0.569781
0.569781
0.569782
0.569783
0.569783
0.569783
0.569784
0.569785
0.569785
0.569785
0.569786
0.569787
0.569788
0.569788
0.569788
0.569789
0.56979
0.56979
0.569791
0.569791
0.569792
0.569793
0.569793
0.569794
0.569794
0.569795
0.569795
0.569796
0.569797
0.569797
0.569798
0.569798
0.569799
0.5698
0.5698
0.569801
0.569801
0.569802
0.569803
0.569803
0.569804
0.569804
0.569805
0.569806
0.569806
0.569807
0.569807
0.569808
0.569809
0.569809
0.56981
0.56981
0.569811
0.569812
0.569812
0.569813
0.569813
0.569814
0.569815
0.569815
0.569816
0.569817
0.569817
0.569818
0.569818
0.569819
0.56982
0.56982
0.569821
0.569821
0.569822
0.569823
0.569824
0.569824
0.569824
0.569825
0.569826
0.569827
0.569828
0.569828
0.569829
0.569829
0.56983
0.569831
0.569831
0.569832
0.569833
0.569833
0.569834
0.569834
0.569835
0.569836
0.569837
0.569838
0.569838
0.569838
0.569839
0.56984
0.569841
0.569841
0.569842
0.569843
0.569843
0.569844
0.569844
0.569845
0.569846
0.569847
0.569848
0.569848
0.569849
0.569849
0.56985
0.569851
0.569851
0.569852
0.569853
0.569854
0.569855
0.569855
0.569856
0.569856
0.569857
0.569858
0.569858
0.569859
0.56986
0.569861
0.569862
0.569862
0.569863
0.569863
0.569864
0.569865
0.569865
0.569866
0.569867
0.569868
0.569869
0.569869
0.56987
0.569871
0.569872
0.569873
0.569873
0.569873
0.569874
0.569875
0.569876
0.569876
0.569877
0.569878
0.569879
0.56988
0.56988
0.569881
0.569882
0.569883
0.569884
0.569884
0.569884
0.569885
0.569886
0.569887
0.569887
0.569888
0.569889
0.56989
0.569891
0.569891
0.569892
0.569893
0.569894
0.569895
0.569895
0.569896
0.569897
0.569898
0.569899
0.569899
0.5699
0.569901
0.569902
0.569903
0.569903
0.569904
0.569905
0.569906
0.569907
0.569907
0.569908
0.569909
0.56991
0.569911
0.569911
0.569912
0.569913
0.569914
0.569915
0.569915
0.569916
0.569917
0.569918
0.569919
0.569919
0.56992
0.569921
0.569922
0.569923
0.569923
0.569924
0.569925
0.569926
0.569927
0.569927
0.569928
0.569929
0.56993
0.569931
0.569931
0.569932
0.569933
0.569934
0.569935
0.569935
0.569936
0.569937
0.569938
0.569939
0.569939
0.56994
0.569941
0.569942
0.569943
0.569943
0.569944
0.569946
0.569947
0.569948
0.569948
0.569949
0.56995
0.569951
0.569952
0.569952
0.569953
0.569954
0.569955
0.569956
0.569956
0.569957
0.569958
0.569959
0.569961
0.569961
0.569962
0.569963
0.569964
0.569965
0.569965
0.569966
0.569967
0.569968
0.569969
0.569969
0.56997
0.569972
0.569973
0.569974
0.569974
0.569975
0.569976
0.569977
0.569978
0.569978
0.569979
0.569981
0.569982
0.569983
0.569983
0.569984
0.569985
0.569986
0.569987
0.569987
0.569989
0.56999
0.569991
0.569992
0.569992
0.569993
0.569994
0.569995
0.569997
0.569997
0.569998
0.569999
0.57
0.570001
0.570001
0.570002
0.570004
0.570005
0.570006
0.570006
0.570007
0.570008
0.57001
0.570011
0.570011
0.570012
0.570013
0.570014
0.570015
0.570015
0.570017
0.570018
0.570019
0.57002
0.57002
0.570021
0.570023
0.570024
0.570025
0.570025
0.570026
0.570027
0.570029
0.57003
0.57003
0.570031
0.570032
0.570033
0.570035
0.570035
0.570036
0.570037
0.570038
0.57004
0.57004
0.570041
0.570042
0.570043
0.570045
0.570045
0.570046
0.570047
0.570048
0.57005
0.57005
0.570051
0.570052
0.570053
0.570055
0.570055
0.570056
0.570057
0.570058
0.57006
0.57006
0.570061
0.570062
0.570064
0.570065
0.570065
0.570066
0.570067
0.570069
0.57007
0.57007
0.570071
0.570073
0.570074
0.570075
0.570075
0.570076
0.570078
0.570079
0.57008
0.57008
0.570082
0.570083
0.570084
0.570086
0.570086
0.570087
0.570088
0.57009
0.570091
0.570091
0.570092
0.570093
0.570095
0.570096
0.570096
0.570097
0.570099
0.5701
0.570101
0.570101
0.570103
0.570104
0.570105
0.570107
0.570107
0.570108
0.570109
0.570111
0.570112
0.570112
0.570114
0.570115
0.570116
0.570118
0.570118
0.570119
0.57012
0.570122
0.570123
0.570123
0.570124
0.570126
0.570127
0.570129
0.570129
0.57013
0.570131
0.570133
0.570134
0.570134
0.570136
0.570137
0.570138
0.57014
0.57014
0.570141
0.570143
0.570144
0.570145
0.570145
0.570147
0.570148
0.57015
0.570151
0.570151
0.570153
0.570154
0.570155
0.570157
0.570157
0.570158
0.57016
0.570161
0.570163
0.570163
0.570164
0.570165
0.570167
0.570168
0.570168
0.57017
0.570171
0.570173
0.570174
0.570174
0.570176
0.570177
0.570178
0.57018
0.57018
0.570181
0.570183
0.570184
0.570186
0.570186
0.570187
0.570189
0.57019
0.570192
0.570192
0.570193
0.570195
0.570196
0.570198
0.570198
0.570199
0.570201
0.570202
0.570204
0.570204
0.570205
0.570207
0.570208
0.57021
0.57021
0.570211
0.570213
0.570214
0.570216
0.570216
0.570217
0.570219
0.57022
0.570222
0.570222
0.570223
0.570225
0.570226
0.570228
0.570228
0.570229
0.570231
0.570233
0.570234
0.570234
0.570236
0.570237
0.570239
0.57024
0.57024
0.570242
0.570243
0.570245
0.570247
0.570247
0.570248
0.57025
0.570251
0.570253
0.570253
0.570254
0.570256
0.570258
0.570259
0.570259
0.570261
0.570262
0.570264
0.570265
0.570265
0.570267
0.570269
0.57027
0.570272
0.570272
0.570273
0.570275
0.570277
0.570278
0.570278
0.57028
0.570282
0.570283
0.570285
0.570285
0.570286
0.570288
0.57029
0.570291
0.570291
0.570293
0.570295
0.570296
0.570298
0.570298
0.570299
0.570301
0.570303
0.570304
0.570304
0.570306
0.570308
0.570309
0.570311
0.570311
0.570313
0.570314
0.570316
0.570318
0.570318
0.570319
0.570321
0.570323
0.570324
0.570324
0.570326
0.570328
0.570329
0.570331
0.570331
0.570333
0.570334
0.570336
0.570338
0.570338
0.57034
0.570341
0.570343
0.570345
0.570345
0.570346
0.570348
0.57035
0.570351
0.570351
0.570353
0.570355
0.570357
0.570358
0.570358
0.57036
0.570362
0.570364
0.570365
0.570365
0.570367
0.570369
0.570371
0.570372
0.570372
0.570374
0.570376
0.570378
0.570379
0.570379
0.570381
0.570383
0.570385
0.570386
0.570386
0.570388
0.57039
0.570392
0.570393
0.570393
0.570395
0.570397
0.570399
0.570401
0.570401
0.570402
0.570404
0.570406
0.570408
0.570408
0.57041
0.570411
0.570413
0.570415
0.570415
0.570417
0.570419
0.57042
0.570422
0.570422
0.570424
0.570426
0.570428
0.570429
0.570429
0.570431
0.570433
0.570435
0.570437
0.570437
0.570439
0.57044
0.570442
0.570444
0.570444
0.570446
0.570448
0.57045
0.570452
0.570452
0.570453
0.570455
0.570457
0.570459
0.570459
0.570461
0.570463
0.570465
0.570467
0.570467
0.570468
0.57047
0.570472
0.570474
0.570474
0.570476
0.570478
0.57048
0.570482
0.570482
0.570484
0.570485
0.570487
0.570489
0.570489
0.570491
0.570493
0.570495
0.570497
0.570497
0.570499
0.570501
0.570503
0.570504
0.570504
0.570506
0.570508
0.57051
0.570512
0.570512
0.570514
0.570516
0.570518
0.57052
0.57052
0.570522
0.570524
0.570526
0.570528
0.570528
0.57053
0.570532
0.570534
0.570536
0.570536
0.570538
0.57054
0.570542
0.570544
0.570544
0.570546
0.570548
0.57055
0.570552
0.570552
0.570554
0.570556
0.570558
0.57056
0.57056
0.570562
0.570564
0.570566
0.570568
0.570568
0.57057
0.570572
0.570574
0.570576
0.570576
0.570578
0.57058
0.570582
0.570584
0.570584
0.570586
0.570588
0.57059
0.570592
0.570592
0.570594
0.570596
0.570598
0.5706
0.5706
0.570602
0.570604
0.570606
0.570608
0.570608
0.57061
0.570612
0.570614
0.570617
0.570617
0.570619
0.570621
0.570623
0.570625
0.570625
0.570627
0.570629
0.570631
0.570633
0.570633
0.570635
0.570637
0.57064
0.570642
0.570642
0.570644
0.570646
0.570648
0.57065
0.57065
0.570652
0.570654
0.570656
0.570659
0.570659
0.570661
0.570663
0.570665
0.570667
0.570667
0.570669
0.570671
0.570673
0.570676
0.570676
0.570678
0.57068
0.570682
0.570684
0.570684
0.570686
0.570689
0.570691
0.570693
0.570693
0.570695
0.570697
0.570699
0.570702
0.570702
0.570704
0.570706
0.570708
0.57071
0.57071
0.570713
0.570715
0.570717
0.570719
0.570719
0.570721
0.570724
0.570726
0.570728
0.570728
0.57073
0.570733
0.570735
0.570737
0.570737
0.570739
0.570741
0.570744
0.570746
0.570746
0.570748
0.57075
0.570753
0.570755
0.570755
0.570757
0.570759
0.570762
0.570764
0.570764
0.570766
0.570768
0.570771
0.570773
0.570773
0.570775
0.570777
0.57078
0.570782
0.570782
0.570784
0.570787
0.570789
0.570791
0.570791
0.570793
0.570796
0.570798
0.5708
0.5708
0.570803
0.570805
0.570807
0.57081
0.57081
0.570812
0.570814
0.570817
0.570819
0.570819
0.570821
0.570824
0.570826
0.570828
0.570828
0.570831
0.570833
0.570835
0.570838
0.570838
0.57084
0.570842
0.570845
0.570847
0.570847
0.570849
0.570852
0.570854
0.570857
0.570857
0.570859
0.570861
0.570864
0.570866
0.570866
0.570868
0.570871
0.570873
0.570876
0.570876
0.570878
0.57088
0.570883
0.570885
0.570885
0.570888
0.57089
0.570893
0.570895
0.570895
0.570897
0.5709
0.570902
0.570905
0.570905
0.570907
0.57091
0.570912
0.570914
0.570914
0.570917
0.570919
0.570922
0.570924
0.570924
0.570927
0.570929
0.570932
0.570934
0.570934
0.570937
0.570939
0.570941
0.570944
0.570944
0.570946
0.570949
0.570951
0.570954
0.570954
0.570956
0.570959
0.570961
0.570964
0.570964
0.570966
0.570969
0.570971
0.570974
0.570974
0.570977
0.570979
0.570982
0.570984
0.570984
0.570987
0.570989
0.570992
0.570994
0.570994
0.570997
0.570999
0.571002
0.571004
0.571004
0.571007
0.57101
0.571012
0.571015
0.571015
0.571017
0.57102
0.571022
0.571025
0.571025
0.571028
0.57103
0.571033
0.571035
0.571035
0.571038
0.57104
0.571043
0.571046
0.571046
0.571048
0.571051
0.571053
0.571056
0.571056
0.571059
0.571061
0.571064
0.571067
0.571067
0.571069
0.571072
0.571075
0.571077
0.571077
0.57108
0.571082
0.571085
0.571088
0.571088
0.57109
0.571093
0.571096
0.571098
0.571098
0.571101
0.571104
0.571106
0.571109
0.571109
0.571112
0.571114
0.571117
0.57112
0.57112
0.571122
0.571125
0.571128
0.571131
0.571131
0.571133
0.571136
0.571139
0.571141
0.571141
0.571144
0.571147
0.57115
0.571152
0.571152
0.571155
0.571158
0.571161
0.571163
0.571163
0.571166
0.571169
0.571172
0.571174
0.571174
0.571177
0.57118
0.571183
0.571185
0.571185
0.571188
0.571191
0.571194
0.571196
0.571196
0.571199
0.571202
0.571205
0.571208
0.571208
0.57121
0.571213
0.571216
0.571219
0.571219
0.571222
0.571224
0.571227
0.57123
0.57123
0.571233
0.571236
0.571239
0.571241
0.571241
0.571244
0.571247
0.57125
0.571253
0.571253
0.571256
0.571258
0.571261
0.571264
0.571264
0.571267
0.57127
0.571273
0.571276
0.571276
0.571279
0.571281
0.571284
0.571287
0.571287
0.57129
0.571293
0.571296
0.571299
0.571299
0.571302
0.571304
0.571307
0.57131
0.57131
0.571313
0.571316
0.571319
0.571322
0.571322
0.571325
0.571328
0.571331
0.571334
0.571334
0.571337
0.57134
0.571343
0.571346
0.571346
0.571349
0.571351
0.571354
0.571357
0.571357
0.57136
0.571363
0.571366
0.571369
0.571369
0.571372
0.571375
0.571378
0.571381
0.571381
0.571384
0.571387
0.57139
0.571393
0.571393
0.571396
0.571399
0.571402
0.571405
0.571405
0.571408
0.571411
0.571414
0.571417
0.571417
0.57142
0.571424
0.571427
0.57143
0.57143
0.571433
0.571436
0.571439
0.571442
0.571442
0.571445
0.571448
0.571451
0.571454
0.571454
0.571457
0.57146
0.571463
0.571467
0.571467
0.57147
0.571473
0.571476
0.571479
0.571479
0.571482
0.571485
0.571488
0.571491
0.571491
0.571494
0.571498
0.571501
0.571504
0.571504
0.571507
0.57151
0.571513
0.571516
0.571516
0.57152
0.571523
0.571526
0.571529
0.571529
0.571532
0.571535
0.571539
0.571542
0.571542
0.571545
0.571548
0.571551
0.571555
0.571555
0.571558
0.571561
0.571564
0.571567
0.571567
0.571571
0.571574
0.571577
0.57158
0.57158
0.571583
0.571587
0.57159
0.571593
0.571593
0.571596
0.5716
0.571603
0.571606
0.571606
0.571609
0.571613
0.571616
0.571619
0.571619
0.571622
0.571626
0.571629
0.571632
0.571632
0.571636
0.571639
0.571642
0.571645
0.571645
0.571649
0.571652
0.571655
0.571659
0.571659
0.571662
0.571665
0.571669
0.571672
0.571672
0.571675
0.571679
0.571682
0.571685
0.571685
0.571689
0.571692
0.571695
0.571699
0.571699
0.571702
0.571705
0.571709
0.571712
0.571712
0.571715
0.571719
0.571722
0.571726
0.571726
0.571729
0.571732
0.571736
0.571739
0.571739
0.571743
0.571746
0.571749
0.571753
0.571753
0.571756
0.57176
0.571763
0.571767
0.571767
0.57177
0.571773
0.571777
0.57178
0.57178
0.571784
0.571787
0.571791
0.571794
0.571794
0.571798
0.571801
0.571804
0.571808
0.571808
0.571811
0.571815
0.571818
0.571822
0.571822
0.571825
0.571829
0.571832
0.571836
0.571836
0.571839
0.571843
0.571847
0.57185
0.57185
0.571854
0.571857
0.571861
0.571864
0.571864
0.571868
0.571871
0.571875
0.571878
0.571878
0.571882
0.571885
0.571889
0.571893
0.571893
0.571896
0.5719
0.571903
0.571907
0.571907
0.571911
0.571914
0.571918
0.571921
0.571921
0.571925
0.571929
0.571932
0.571936
0.571936
0.571939
0.571943
0.571947
0.57195
0.57195
0.571954
0.571958
0.571961
0.571965
0.571965
0.571969
0.571972
0.571976
0.57198
0.57198
0.571983
0.571987
0.571991
0.571994
0.571994
0.571998
0.572002
0.572005
0.572009
0.572009
0.572013
0.572016
0.57202
0.572024
0.572024
0.572028
0.572031
0.572035
0.572039
0.572039
0.572043
0.572046
0.57205
0.572054
0.572054
0.572058
0.572061
0.572065
0.572069
0.572069
0.572073
0.572076
0.57208
0.572084
0.572084
0.572088
0.572092
0.572095
0.572099
0.572099
0.572103
0.572107
0.572111
0.572114
0.572114
0.572118
0.572122
0.572126
0.57213
0.57213
0.572134
0.572137
0.572141
0.572145
0.572145
0.572149
0.572153
0.572157
0.572161
0.572161
0.572165
0.572168
0.572172
0.572176
0.572176
0.57218
0.572184
0.572188
0.572192
0.572192
0.572196
0.5722
0.572203
0.572207
0.572207
0.572211
0.572215
0.572219
0.572223
0.572223
0.572227
0.572231
0.572235
0.572239
0.572239
0.572243
0.572247
0.572251
0.572255
0.572255
0.572259
0.572263
0.572267
0.572271
0.572271
0.572275
0.572279
0.572283
0.572287
0.572287
0.572291
0.572295
0.572299
0.572303
0.572303
0.572307
0.572311
0.572315
0.572319
0.572319
0.572323
0.572327
0.572331
0.572335
0.572335
0.572339
0.572343
0.572347
0.572352
0.572352
0.572356
0.57236
0.572364
0.572368
0.572368
0.572372
0.572376
0.57238
0.572384
0.572384
0.572388
0.572393
0.572397
0.572401
0.572401
0.572405
0.572409
0.572413
0.572417
0.572417
0.572422
0.572426
0.57243
0.572434
0.572434
0.572438
0.572442
0.572447
0.572451
0.572451
0.572455
0.572459
0.572463
0.572468
0.572468
0.572472
0.572476
0.57248
0.572485
0.572485
0.572489
0.572493
0.572497
0.572502
0.572502
0.572506
0.57251
0.572514
0.572519
0.572519
0.572523
0.572527
0.572531
0.572536
0.572536
0.57254
0.572544
0.572548
0.572553
0.572553
0.572557
0.572561
0.572566
0.57257
0.57257
0.572574
0.572579
0.572583
0.572587
0.572587
0.572592
0.572596
0.572601
0.572605
0.572605
0.572609
0.572614
0.572618
0.572622
0.572622
0.572627
0.572631
0.572635
0.57264
0.57264
0.572644
0.572649
0.572653
0.572658
0.572658
0.572662
0.572666
0.572671
0.572675
0.572675
0.57268
0.572684
0.572689
0.572693
0.572693
0.572698
0.572702
0.572707
0.572711
0.572711
0.572715
0.57272
0.572724
0.572729
0.572729
0.572733
0.572738
0.572742
0.572747
0.572747
0.572751
0.572756
0.572761
0.572765
0.572765
0.57277
0.572774
0.572779
0.572783
0.572783
0.572788
0.572792
0.572797
0.572802
0.572802
0.572806
0.572811
0.572815
0.57282
0.57282
0.572825
0.572829
0.572834
0.572838
0.572838
0.572843
0.572848
0.572852
0.572857
0.572857
0.572862
0.572866
0.572871
0.572875
0.572875
0.57288
0.572885
0.572889
0.572894
0.572894
0.572899
0.572904
0.572908
0.572913
0.572913
0.572918
0.572922
0.572927
0.572932
0.572932
0.572937
0.572941
0.572946
0.572951
0.572951
0.572955
0.57296
0.572965
0.57297
0.57297
0.572974
0.572979
0.572984
0.572989
0.572989
0.572994
0.572998
0.573003
0.573008
0.573008
0.573013
0.573018
0.573022
0.573027
0.573027
0.573032
0.573037
0.573042
0.573047
0.573047
0.573051
0.573056
0.573061
0.573066
0.573066
0.573071
0.573076
0.573081
0.573086
0.573086
0.57309
0.573095
0.5731
0.573105
0.573105
0.57311
0.573115
0.57312
0.573125
0.573125
0.57313
0.573135
0.57314
0.573145
0.573145
0.57315
0.573155
0.57316
0.573165
0.573165
0.57317
0.573175
0.57318
0.573185
0.573185
0.57319
0.573195
0.5732
0.573205
0.573205
0.57321
0.573215
0.57322
0.573225
0.573225
0.57323
0.573235
0.57324
0.573245
0.573245
0.57325
0.573255
0.57326
0.573265
0.573265
0.57327
0.573275
0.573281
0.573286
0.573286
0.573291
0.573296
0.573301
0.573306
0.573306
0.573311
0.573316
0.573322
0.573327
0.573327
0.573332
0.573337
0.573342
0.573347
0.573347
0.573353
0.573358
0.573363
0.573368
0.573368
0.573373
0.573379
0.573384
0.573389
0.573389
0.573394
0.573399
0.573405
0.57341
0.57341
0.573415
0.57342
0.573426
0.573431
0.573431
0.573436
0.573442
0.573447
0.573452
0.573452
0.573457
0.573463
0.573468
0.573473
0.573473
0.573479
0.573484
0.573489
0.573495
0.573495
0.5735
0.573505
0.573511
0.573516
0.573516
0.573521
0.573527
0.573532
0.573538
0.573538
0.573543
0.573548
0.573554
0.573559
0.573559
0.573565
0.57357
0.573575
0.573581
0.573581
0.573586
0.573592
0.573597
0.573603
0.573603
0.573608
0.573614
0.573619
0.573625
0.573625
0.57363
0.573636
0.573641
0.573647
0.573647
0.573652
0.573658
0.573663
0.573669
0.573669
0.573674
0.57368
0.573685
0.573691
0.573691
0.573696
0.573702
0.573707
0.573713
0.573713
0.573719
0.573724
0.57373
0.573735
0.573735
0.573741
0.573747
0.573752
0.573758
0.573758
0.573764
0.573769
0.573775
0.573781
0.573781
0.573786
0.573792
0.573798
0.573803
0.573803
0.573809
0.573815
0.57382
0.573826
0.573826
0.573832
0.573837
0.573843
0.573849
0.573849
0.573855
0.57386
0.573866
0.573872
0.573872
0.573878
0.573883
0.573889
0.573895
0.573895
0.573901
0.573906
0.573912
0.573918
0.573918
0.573924
0.57393
0.573936
0.573941
0.573941
0.573947
0.573953
0.573959
0.573965
0.573965
0.573971
0.573976
0.573982
0.573988
0.573988
0.573994
0.574
0.574006
0.574012
0.574012
0.574018
0.574024
0.57403
0.574036
0.574036
0.574041
0.574047
0.574053
0.574059
0.574059
0.574065
0.574071
0.574077
0.574083
0.574083
0.574089
0.574095
0.574101
0.574107
0.574107
0.574113
0.574119
0.574125
0.574131
0.574131
0.574137
0.574143
0.57415
0.574156
0.574156
0.574162
0.574168
0.574174
0.57418
0.57418
0.574186
0.574192
0.574198
0.574204
0.574204
0.574211
0.574217
0.574223
0.574229
0.574229
0.574235
0.574241
0.574247
0.574254
0.574254
0.57426
0.574266
0.574272
0.574278
0.574278
0.574285
0.574291
0.574297
0.574303
0.574303
0.57431
0.574316
0.574322
0.574328
0.574328
0.574335
0.574341
0.574347
0.574353
0.574353
0.57436
0.574366
0.574372
0.574379
0.574379
0.574385
0.574391
0.574398
0.574404
0.574404
0.57441
0.574417
0.574423
0.574429
0.574429
0.574436
0.574442
0.574449
0.574455
0.574455
0.574461
0.574468
0.574474
0.574481
0.574481
0.574487
0.574493
0.5745
0.574506
0.574506
0.574513
0.574519
0.574526
0.574532
0.574532
0.574539
0.574545
0.574552
0.574558
0.574558
0.574565
0.574571
0.574578
0.574584
0.574584
0.574591
0.574598
0.574604
0.574611
0.574611
0.574617
0.574624
0.57463
0.574637
0.574637
0.574644
0.57465
0.574657
0.574663
0.574663
0.57467
0.574677
0.574683
0.57469
0.57469
0.574697
0.574703
0.57471
0.574717
0.574717
0.574724
0.57473
0.574737
0.574744
0.574744
0.57475
0.574757
0.574764
0.574771
0.574771
0.574777
0.574784
0.574791
0.574798
0.574798
0.574804
0.574811
0.574818
0.574825
0.574825
0.574832
0.574839
0.574845
0.574852
0.574852
0.574859
0.574866
0.574873
0.57488
0.57488
0.574887
0.574893
0.5749
0.574907
0.574907
0.574914
0.574921
0.574928
0.574935
0.574935
0.574942
0.574949
0.574956
0.574963
0.574963
0.57497
0.574977
0.574984
0.574991
0.574991
0.574998
0.575005
0.575012
0.575019
0.575019
0.575026
0.575033
0.57504
0.575047
0.575047
0.575054
0.575061
0.575068
0.575075
0.575075
0.575082
0.575089
0.575097
0.575104
0.575104
0.575111
0.575118
0.575125
0.575132
0.575132
0.575139
0.575147
0.575154
0.575161
0.575161
0.575168
0.575175
0.575183
0.57519
0.57519
0.575197
0.575204
0.575212
0.575219
0.575219
0.575226
0.575233
0.575241
0.575248
0.575248
0.575255
0.575262
0.57527
0.575277
0.575277
0.575284
0.575292
0.575299
0.575306
0.575306
0.575314
0.575321
0.575329
0.575336
0.575336
0.575343
0.575351
0.575358
0.575366
0.575366
0.575373
0.57538
0.575388
0.575395
0.575395
0.575403
0.57541
0.575418
0.575425
0.575425
0.575433
0.57544
0.575448
0.575455
0.575455
0.575463
0.57547
0.575478
0.575485
0.575485
0.575493
0.5755
0.575508
0.575516
0.575516
0.575523
0.575531
0.575538
0.575546
0.575546
0.575554
0.575561
0.575569
0.575577
0.575577
0.575584
0.575592
0.5756
0.575607
0.575607
0.575615
0.575623
0.57563
0.575638
0.575638
0.575646
0.575654
0.575661
0.575669
0.575669
0.575677
0.575685
0.575693
0.5757
0.5757
0.575708
0.575716
0.575724
0.575732
0.575732
0.575739
0.575747
0.575755
0.575763
0.575763
0.575771
0.575779
0.575787
0.575795
0.575795
0.575802
0.57581
0.575818
0.575826
0.575826
0.575834
0.575842
0.57585
0.575858
0.575858
0.575866
0.575874
0.575882
0.57589
0.57589
0.575898
0.575906
0.575914
0.575922
0.575922
0.57593
0.575938
0.575946
0.575954
0.575954
0.575963
0.575971
0.575979
0.575987
0.575987
0.575995
0.576003
0.576011
0.576019
0.576019
0.576028
0.576036
0.576044
0.576052
0.576052
0.57606
0.576069
0.576077
0.576085
0.576085
0.576093
0.576102
0.57611
0.576118
0.576118
0.576126
0.576135
0.576143
0.576151
0.576151
0.57616
0.576168
0.576176
0.576185
0.576185
0.576193
0.576201
0.57621
0.576218
0.576218
0.576226
0.576235
0.576243
0.576252
0.576252
0.57626
0.576269
0.576277
0.576285
0.576285
0.576294
0.576302
0.576311
0.576319
0.576319
0.576328
0.576336
0.576345
0.576353
0.576353
0.576362
0.576371
0.576379
0.576388
0.576388
0.576396
0.576405
0.576414
0.576422
0.576422
0.576431
0.576439
0.576448
0.576457
0.576457
0.576465
0.576474
0.576483
0.576491
0.576491
0.5765
0.576509
0.576518
0.576526
0.576526
0.576535
0.576544
0.576553
0.576561
0.576561
0.57657
0.576579
0.576588
0.576597
0.576597
0.576605
0.576614
0.576623
0.576632
0.576632
0.576641
0.57665
0.576658
0.576667
0.576667
0.576676
0.576685
0.576694
0.576703
0.576703
0.576712
0.576721
0.57673
0.576739
0.576739
0.576748
0.576757
0.576766
0.576775
0.576775
0.576784
0.576793
0.576802
0.576811
0.576811
0.57682
0.576829
0.576838
0.576847
0.576847
0.576857
0.576866
0.576875
0.576884
0.576884
0.576893
0.576902
0.576911
0.576921
0.576921
0.57693
0.576939
0.576948
0.576958
0.576958
0.576967
0.576976
0.576985
0.576995
0.576995
0.577004
0.577013
0.577022
0.577032
0.577032
0.577041
0.57705
0.57706
0.577069
0.577069
0.577079
0.577088
0.577097
0.577107
0.577107
0.577116
0.577125
0.577135
0.577144
0.577144
0.577154
0.577163
0.577173
0.577182
0.577182
0.577192
0.577201
0.577211
0.57722
0.57722
0.57723
0.577239
0.577249
0.577259
0.577259
0.577268
0.577278
0.577287
0.577297
0.577297
0.577307
0.577316
0.577326
0.577336
0.577336
0.577345
0.577355
0.577365
0.577374
0.577374
0.577384
0.577394
0.577404
0.577413
0.577413
0.577423
0.577433
0.577443
0.577452
0.577452
0.577462
0.577472
0.577482
0.577492
0.577492
0.577502
0.577512
0.577521
0.577531
0.577531
0.577541
0.577551
0.577561
0.577571
0.577571
0.577581
0.577591
0.577601
0.577611
0.577611
0.577621
0.577631
0.577641
0.577651
0.577651
0.577661
0.577671
0.577681
0.577691
0.577691
0.577701
0.577711
0.577721
0.577732
0.577732
0.577742
0.577752
0.577762
0.577772
0.577772
0.577782
0.577793
0.577803
0.577813
0.577813
0.577823
0.577834
0.577844
0.577854
0.577854
0.577864
0.577875
0.577885
0.577895
0.577895
0.577906
0.577916
0.577926
0.577937
0.577937
0.577947
0.577957
0.577968
0.577978
0.577978
0.577989
0.577999
0.57801
0.57802
0.57802
0.57803
0.578041
0.578051
0.578062
0.578062
0.578072
0.578083
0.578094
0.578104
0.578104
0.578115
0.578125
0.578136
0.578147
0.578147
0.578157
0.578168
0.578178
0.578189
0.578189
0.5782
0.57821
0.578221
0.578232
0.578232
0.578243
0.578253
0.578264
0.578275
0.578275
0.578286
0.578296
0.578307
0.578318
0.578318
0.578329
0.57834
0.578351
0.578361
0.578361
0.578372
0.578383
0.578394
0.578405
0.578405
0.578416
0.578427
0.578438
0.578449
0.578449
0.57846
0.578471
0.578482
0.578493
0.578493
0.578504
0.578515
0.578526
0.578537
0.578537
0.578548
0.578559
0.57857
0.578581
0.578581
0.578592
0.578604
0.578615
0.578626
0.578626
0.578637
0.578648
0.57866
0.578671
0.578671
0.578682
0.578693
0.578705
0.578716
0.578716
0.578727
0.578738
0.57875
0.578761
0.578761
0.578772
0.578784
0.578795
0.578807
0.578807
0.578818
0.578829
0.578841
0.578852
0.578852
0.578864
0.578875
0.578887
0.578898
0.578898
0.57891
0.578921
0.578933
0.578944
0.578944
0.578956
0.578967
0.578979
0.578991
0.578991
0.579002
0.579014
0.579026
0.579037
0.579037
0.579049
0.579061
0.579072
0.579084
0.579084
0.579096
0.579107
0.579119
0.579131
0.579131
0.579143
0.579155
0.579166
0.579178
0.579178
0.57919
0.579202
0.579214
0.579226
0.579226
0.579238
0.579249
0.579261
0.579273
0.579273
0.579285
0.579297
0.579309
0.579321
0.579321
0.579333
0.579345
0.579357
0.579369
0.579369
0.579381
0.579393
0.579406
0.579418
0.579418
0.57943
0.579442
0.579454
0.579466
0.579466
0.579478
0.579491
0.579503
0.579515
0.579515
0.579527
0.57954
0.579552
0.579564
0.579564
0.579576
0.579589
0.579601
0.579613
0.579613
0.579626
0.579638
0.579651
0.579663
0.579663
0.579675
0.579688
0.5797
0.579713
0.579713
0.579725
0.579738
0.57975
0.579763
0.579763
0.579775
0.579788
0.5798
0.579813
0.579813
0.579826
0.579838
0.579851
0.579864
0.579864
0.579876
0.579889
0.579902
0.579914
0.579914
0.579927
0.57994
0.579952
0.579965
0.579965
0.579978
0.579991
0.580004
0.580016
0.580016
0.580029
0.580042
0.580055
0.580068
0.580068
0.580081
0.580094
0.580107
0.58012
0.58012
0.580133
0.580146
0.580159
0.580172
0.580172
0.580185
0.580198
0.580211
0.580224
0.580224
0.580237
0.58025
0.580263
0.580276
0.580276
0.580289
0.580303
0.580316
0.580329
0.580329
0.580342
0.580355
0.580369
0.580382
0.580382
0.580395
0.580409
0.580422
0.580435
0.580435
0.580449
0.580462
0.580475
0.580489
0.580489
0.580502
0.580516
0.580529
0.580542
0.580542
0.580556
0.580569
0.580583
0.580596
0.580596
0.58061
0.580623
0.580637
0.580651
0.580651
0.580664
0.580678
0.580692
0.580705
0.580705
0.580719
0.580733
0.580746
0.58076
0.58076
0.580774
0.580787
0.580801
0.580815
0.580815
0.580829
0.580843
0.580856
0.58087
0.58087
0.580884
0.580898
0.580912
0.580926
0.580926
0.58094
0.580954
0.580968
0.580982
0.580982
0.580996
0.58101
0.581024
0.581038
0.581038
0.581052
0.581066
0.58108
0.581094
0.581094
0.581108
0.581123
0.581137
0.581151
0.581151
0.581165
0.581179
0.581194