<?xml version="1.0"?>
<VTKFile type="UnstructuredGrid" version="0.1" byte_order="LittleEndian">
<UnstructuredGrid>
<Piece NumberOfPoints="5000" NumberOfCells="4000">
<PointData Scalars="Reaction 0">
<DataArray type="Float32" Name="Reaction 0" format="ascii">
0.403324
0.403324
0.403324
0.403324
0.403324
0.403324
0.403324
0.403324
0.403324
0.403325
0.403325
0.403325
0.403325
0.403325
0.403326
0.403326
0.403326
0.403326
0.403327
0.403327
0.403327
0.403328
0.403328
0.403329
0.403329
0.403329
0.40333
0.403331
0.403331
0.403332
0.403332
0.403333
0.403333
0.403334
0.403335
0.403335
0.403336
0.403337
0.403338
0.403339
0.403339
0.40334
0.403341
0.403342
0.403343
0.403343
0.403344
0.403345
0.403346
0.403347
0.403347
0.403348
0.403349
0.403351
0.403352
0.403352
0.403353
0.403355
0.403356
0.403357
0.403357
0.403359
0.40336
0.403362
0.403363
0.403363
0.403365
0.403366
0.403368
0.40337
0.40337
0.403371
0.403373
0.403375
0.403376
0.403376
0.403378
0.40338
0.403382
0.403384
0.403384
0.403386
0.403388
0.403389
0.403391
0.403391
0.403393
0.403396
0.403398
0.4034
0.4034
0.403402
0.403404
0.403406
0.403408
0.403408
0.403411
0.403413
0.403415
0.403418
0.403418
0.40342
0.403422
0.403425
0.403427
0.403427
0.40343
0.403432
0.403435
0.403437
0.403437
0.40344
0.403442
0.403445
0.403448
0.403448
0.403451
0.403453
0.403456
0.403459
0.403459
0.403462
0.403465
0.403467
0.40347
0.40347
0.403473
0.403476
0.403479
0.403482
0.403482
0.403485
0.403489
0.403492
0.403495
0.403495
0.403498
0.403501
0.403504
0.403508
0.403508
0.403511
0.403514
0.403518
0.403521
0.403521
0.403525
0.403528
0.403531
0.403535
0.403535
0.403539
0.403542
0.403546
0.403549
0.403549
0.403553
0.403557
0.40356
0.403564
0.403564
0.403568
0.403572
0.403576
0.403579
0.403579
0.403583
0.403587
0.403591
0.403595
0.403595
0.403599
0.403603
0.403607
0.403611
0.403611
0.403615
0.40362
0.403624
0.403628
0.403628
0.403632
0.403637
0.403641
0.403645
0.403645
0.40365
0.403654
0.403658
0.403663
0.403663
0.403667
0.403672
0.403676
0.403681
0.403681
0.403685
0.40369
0.403695
0.403699
0.403699
0.403704
0.403709
0.403714
0.403718
0.403718
0.403723
0.403728
0.403733
0.403738
0.403738
0.403743
0.403748
0.403753
0.403758
0.403758
0.403763
0.403768
0.403773
0.403778
0.403778
0.403784
0.403789
0.403794
0.403799
0.403799
0.403805
0.40381
0.403815
0.403821
0.403821
0.403826
0.403832
0.403837
0.403842
0.403842
0.403848
0.403854
0.403859
0.403865
0.403865
0.40387
0.403876
0.403882
0.403888
0.403888
0.403893
0.403899
0.403905
0.403911
0.403911
0.403917
0.403923
0.403929
0.403935
0.403935
0.403941
0.403947
0.403953
0.403959
0.403959
0.403965
0.403971
0.403977
0.403983
0.403983
0.40399
0.403996
0.404002
0.404009
0.404009
0.404015
0.404021
0.404028
0.404034
0.404034
0.404041
0.404047
0.404054
0.40406
0.40406
0.404067
0.404073
0.40408
0.404087
0.404087
0.404094
0.4041
0.404107
0.404114
0.404114
0.404121
0.404128
0.404134
0.404141
0.404141
0.404148
0.404155
0.404162
0.404169
0.404169
0.404176
0.404183
0.404191
0.404198
0.404198
0.404205
0.404212
0.404219
0.404227
0.404227
0.404234
0.404241
0.404249
0.404256
0.404256
0.404263
0.404271
0.404278
0.404286
0.404286
0.404293
0.404301
0.404309
0.404316
0.404316
0.404324
0.404331
0.404339
0.404347
0.404347
0.404355
0.404362
0.40437
0.404378
0.404378
0.404386
0.404394
0.404402
0.40441
0.40441
0.404418
0.404426
0.404434
0.404442
0.404442
0.40445
0.404458
0.404467
0.404475
0.404475
0.404483
0.404491
0.4045
0.404508
0.404508
0.404516
0.404525
0.404533
0.404541
0.404541
0.40455
0.404558
0.404567
0.404576
0.404576
0.404584
0.404593
0.404601
0.40461
0.40461
0.404619
0.404628
0.404636
0.404645
0.404645
0.404654
0.404663
0.404672
0.404681
0.404681
0.40469
0.404699
0.404708
0.404717
0.404717
0.404726
0.404735
0.404744
0.404753
0.404753
0.404762
0.404771
0.404781
0.40479
0.40479
0.404799
0.404808
0.404818
0.404827
0.404827
0.404837
0.404846
0.404856
0.404865
0.404865
0.404875
0.404884
0.404894
0.404903
0.404903
0.404913
0.404923
0.404932
0.404942
0.404942
0.404952
0.404962
0.404972
0.404981
0.404981
0.404991
0.405001
0.405011
0.405021
0.405021
0.405031
0.405041
0.405051
0.405061
0.405061
0.405071
0.405082
0.405092
0.405102
0.405102
0.405112
0.405122
0.405133
0.405143
0.405143
0.405153
0.405164
0.405174
0.405185
0.405185
0.405195
0.405206
0.405216
0.405227
0.405227
0.405237
0.405248
0.405259
0.405269
0.405269
0.40528
0.405291
0.405302
0.405312
0.405312
0.405323
0.405334
0.405345
0.405356
0.405356
0.405367
0.405378
0.405389
0.4054
0.4054
0.405411
0.405422
0.405433
0.405444
0.405444
0.405455
0.405467
0.405478
0.405489
0.405489
0.4055
0.405512
0.405523
0.405534
0.405534
0.405546
0.405557
0.405569
0.40558
0.40558
0.405592
0.405603
0.405615
0.405627
0.405627
0.405638
0.40565
0.405662
0.405673
0.405673
0.405685
0.405697
0.405709
0.405721
0.405721
0.405733
0.405744
0.405756
0.405768
0.405768
0.40578
0.405792
0.405804
0.405817
0.405817
0.405829
0.405841
0.405853
0.405865
0.405865
0.405877
0.40589
0.405902
0.405914
0.405914
0.405927
0.405939
0.405952
0.405964
0.405964
0.405976
0.405989
0.406001
0.406014
0.406014
0.406027
0.406039
0.406052
0.406065
0.406065
0.406077
0.40609
0.406103
0.406116
0.406116
0.406128
0.406141
0.406154
0.406167
0.406167
0.40618
0.406193
0.406206
0.406219
0.406219
0.406232
0.406245
0.406258
0.406271
0.406271
0.406285
0.406298
0.406311
0.406324
0.406324
0.406338
0.406351
0.406364
0.406378
0.406378
0.406391
0.406405
0.406418
0.406432
0.406432
0.406445
0.406459
0.406472
0.406486
0.406486
0.4065
0.406513
0.406527
0.406541
0.406541
0.406554
0.406568
0.406582
0.406596
0.406596
0.40661
0.406624
0.406638
0.406652
0.406652
0.406666
0.40668
0.406694
0.406708
0.406708
0.406722
0.406736
0.40675
0.406765
0.406765
0.406779
0.406793
0.406807
0.406822
0.406822
0.406836
0.40685
0.406865
0.406879
0.406879
0.406894
0.406908
0.406923
0.406937
0.406937
0.406952
0.406967
0.406981
0.406996
0.406996
0.407011
0.407025
0.40704
0.407055
0.407055
0.40707
0.407085
0.4071
0.407115
0.407115
0.407129
0.407144
0.407159
0.407174
0.407174
0.40719
0.407205
0.40722
0.407235
0.407235
0.40725
0.407265
0.407281
0.407296
0.407296
0.407311
0.407326
0.407342
0.407357
0.407357
0.407373
0.407388
0.407404
0.407419
0.407419
0.407435
0.40745
0.407466
0.407481
0.407481
0.407497
0.407513
0.407528
0.407544
0.407544
0.40756
0.407576
0.407592
0.407607
0.407607
0.407623
0.407639
0.407655
0.407671
0.407671
0.407687
0.407703
0.407719
0.407735
0.407735
0.407752
0.407768
0.407784
0.4078
0.4078
0.407816
0.407833
0.407849
0.407865
0.407865
0.407882
0.407898
0.407915
0.407931
0.407931
0.407947
0.407964
0.40798
0.407997
0.407997
0.408014
0.40803
0.408047
0.408064
0.408064
0.40808
0.408097
0.408114
0.408131
0.408131
0.408148
0.408164
0.408181
0.408198
0.408198
0.408215
0.408232
0.408249
0.408266
0.408266
0.408283
0.4083
0.408318
0.408335
0.408335
0.408352
0.408369
0.408386
0.408404
0.408404
0.408421
0.408438
0.408456
0.408473
0.408473
0.40849
0.408508
0.408525
0.408543
0.408543
0.40856
0.408578
0.408596
0.408613
0.408613
0.408631
0.408649
0.408666
0.408684
0.408684
0.408702
0.40872
0.408738
0.408755
0.408755
0.408773
0.408791
0.408809
0.408827
0.408827
0.408845
0.408863
0.408881
0.408899
0.408899
0.408918
0.408936
0.408954
0.408972
0.408972
0.40899
0.409009
0.409027
0.409045
0.409045
0.409064
0.409082
0.409101
0.409119
0.409119
0.409137
0.409156
0.409175
0.409193
0.409193
0.409212
0.40923
0.409249
0.409268
0.409268
0.409286
0.409305
0.409324
0.409343
0.409343
0.409362
0.409381
0.409399
0.409418
0.409418
0.409437
0.409456
0.409475
0.409494
0.409494
0.409513
0.409533
0.409552
0.409571
0.409571
0.40959
0.409609
0.409629
0.409648
0.409648
0.409667
0.409687
0.409706
0.409725
0.409725
0.409745
0.409764
0.409784
0.409803
0.409803
0.409823
0.409842
0.409862
0.409882
0.409882
0.409901
0.409921
0.409941
0.409961
0.409961
0.40998
0.41
0.41002
0.41004
0.41004
0.41006
0.41008
0.4101
0.41012
0.41012
0.41014
0.41016
0.41018
0.4102
0.4102
0.41022
0.41024
0.41026
0.410281
0.410281
0.410301
0.410321
0.410342
0.410362
0.410362
0.410382
0.410403
0.410423
0.410444
0.410444
0.410464
0.410485
0.410505
0.410526
0.410526
0.410546
0.410567
0.410588
0.410608
0.410608
0.410629
0.41065
0.410671
0.410692
0.410692
0.410712
0.410733
0.410754
0.410775
0.410775
0.410796
0.410817
0.410838
0.410859
0.410859
0.41088
0.410901
0.410923
0.410944
0.410944
0.410965
0.410986
0.411008
0.411029
0.411029
0.41105
0.411072
0.411093
0.411114
0.411114
0.411136
0.411157
0.411179
0.4112
0.4112
0.411222
0.411243
0.411265
0.411287
0.411287
0.411308
0.41133
0.411352
0.411374
0.411374
0.411395
0.411417
0.411439
0.411461
0.411461
0.411483
0.411505
0.411527
0.411549
0.411549
0.411571
0.411593
0.411615
0.411637
0.411637
0.411659
0.411682
0.411704
0.411726
0.411726
0.411748
0.411771
0.411793
0.411815
0.411815
0.411838
0.41186
0.411883
0.411905
0.411905
0.411928
0.41195
0.411973
0.411995
0.411995
0.412018
0.412041
0.412063
0.412086
0.412086
0.412109
0.412132
0.412154
0.412177
0.412177
0.4122
0.412223
0.412246
0.412269
0.412269
0.412292
0.412315
0.412338
0.412361
0.412361
0.412384
0.412407
0.41243
0.412454
0.412454
0.412477
0.4125
0.412523
0.412547
0.412547
0.41257
0.412593
0.412617
0.41264
0.41264
0.412664
0.412687
0.412711
0.412734
0.412734
0.412758
0.412781
0.412805
0.412829
0.412829
0.412852
0.412876
0.4129
0.412924
0.412924
0.412948
0.412971
0.412995
0.413019
0.413019
0.413043
0.413067
0.413091
0.413115
0.413115
0.413139
0.413163
0.413187
0.413211
0.413211
0.413236
0.41326
0.413284
0.413308
0.413308
0.413333
0.413357
0.413381
0.413406
0.413406
0.41343
0.413455
0.413479
0.413504
0.413504
0.413528
0.413553
0.413577
0.413602
0.413602
0.413626
0.413651
0.413676
0.413701
0.413701
0.413725
0.41375
0.413775
0.4138
0.4138
0.413825
0.41385
0.413875
0.4139
0.4139
0.413925
0.41395
0.413975
0.414
0.414
0.414025
0.41405
0.414075
0.4141
0.4141
0.414126
0.414151
0.414176
0.414202
0.414202
0.414227
0.414252
0.414278
0.414303
0.414303
0.414329
0.414354
0.41438
0.414405
0.414405
0.414431
0.414457
0.414482
0.414508
0.414508
0.414534
0.414559
0.414585
0.414611
0.414611
0.414637
0.414663
0.414689
0.414714
0.414714
0.41474
0.414766
0.414792
0.414818
0.414818
0.414845
0.414871
0.414897
0.414923
0.414923
0.414949
0.414975
0.415002
0.415028
0.415028
0.415054
0.415081
0.415107
0.415133
0.415133
0.41516
0.415186
0.415213
0.415239
0.415239
0.415266
0.415292
0.415319
0.415346
0.415346
0.415372
0.415399
0.415426
0.415452
0.415452
0.415479
0.415506
0.415533
0.41556
0.41556
0.415587
0.415614
0.415641
0.415668
0.415668
0.415695
0.415722
0.415749
0.415776
0.415776
0.415803
0.41583
0.415857
0.415885
0.415885
0.415912
0.415939
0.415967
0.415994
0.415994
0.416021
0.416049
0.416076
0.416104
0.416104
0.416131
0.416159
0.416186
0.416214
0.416214
0.416241
0.416269
0.416297
0.416324
0.416324
0.416352
0.41638
0.416408
0.416436
0.416436
0.416463
0.416491
0.416519
0.416547
0.416547
0.416575
0.416603
0.416631
0.416659
0.416659
0.416687
0.416716
0.416744
0.416772
0.416772
0.4168
0.416828
0.416857
0.416885
0.416885
0.416913
0.416942
0.41697
0.416998
0.416998
0.417027
0.417055
0.417084
0.417112
0.417112
0.417141
0.41717
0.417198
0.417227
0.417227
0.417256
0.417284
0.417313
0.417342
0.417342
0.417371
0.4174
0.417428
0.417457
0.417457
0.417486
0.417515
0.417544
0.417573
0.417573
0.417602
0.417631
0.41766
0.41769
0.41769
0.417719
0.417748
0.417777
0.417807
0.417807
0.417836
0.417865
0.417894
0.417924
0.417924
0.417953
0.417983
0.418012
0.418042
0.418042
0.418071
0.418101
0.41813
0.41816
0.41816
0.41819
0.418219
0.418249
0.418279
0.418279
0.418309
0.418338
0.418368
0.418398
0.418398
0.418428
0.418458
0.418488
0.418518
0.418518
0.418548
0.418578
0.418608
0.418638
0.418638
0.418668
0.418698
0.418728
0.418759
0.418759
0.418789
0.418819
0.418849
0.41888
0.41888
0.41891
0.418941
0.418971
0.419001
0.419001
0.419032
0.419062
0.419093
0.419124
0.419124
0.419154
0.419185
0.419215
0.419246
0.419246
0.419277
0.419308
0.419338
0.419369
0.419369
0.4194
0.419431
0.419462
0.419493
0.419493
0.419524
0.419555
0.419586
0.419617
0.419617
0.419648
0.419679
0.41971
0.419741
0.419741
0.419773
0.419804
0.419835
0.419866
0.419866
0.419898
0.419929
0.41996
0.419992
0.419992
0.420023
0.420055
0.420086
0.420118
0.420118
0.420149
0.420181
0.420213
0.420244
0.420244
0.420276
0.420308
0.420339
0.420371
0.420371
0.420403
0.420435
0.420467
0.420499
0.420499
0.42053
0.420562
0.420594
0.420626
0.420626
0.420658
0.42069
0.420723
0.420755
0.420755
0.420787
0.420819
0.420851
0.420884
0.420884
0.420916
0.420948
0.42098
0.421013
0.421013
0.421045
0.421078
0.42111
0.421143
0.421143
0.421175
0.421208
0.42124
0.421273
0.421273
0.421306
0.421338
0.421371
0.421404
0.421404
0.421436
0.421469
0.421502
0.421535
0.421535
0.421568
0.421601
0.421634
0.421667
0.421667
0.4217
0.421733
0.421766
0.421799
0.421799
0.421832
0.421865
0.421898
0.421931
0.421931
0.421965
0.421998
0.422031
0.422065
0.422065
0.422098
0.422131
0.422165
0.422198
0.422198
0.422232
0.422265
0.422299
0.422332
0.422332
0.422366
0.4224
0.422433
0.422467
0.422467
0.422501
0.422534
0.422568
0.422602
0.422602
0.422636
0.42267
0.422704
0.422737
0.422737
0.422771
0.422805
0.422839
0.422874
0.422874
0.422908
0.422942
0.422976
0.42301
0.42301
0.423044
0.423078
0.423113
0.423147
0.423147
0.423181
0.423216
0.42325
0.423284
0.423284
0.423319
0.423353
0.423388
0.423422
0.423422
0.423457
0.423492
0.423526
0.423561
0.423561
0.423596
0.42363
0.423665
0.4237
0.4237
0.423735
0.423769
0.423804
0.423839
0.423839
0.423874
0.423909
0.423944
0.423979
0.423979
0.424014
0.424049
0.424084
0.424119
0.424119
0.424155
0.42419
0.424225
0.42426
0.42426
0.424295
0.424331
0.424366
0.424402
0.424402
0.424437
0.424472
0.424508
0.424543
0.424543
0.424579
0.424614
0.42465
0.424686
0.424686
0.424721
0.424757
0.424793
0.424828
0.424828
0.424864
0.4249
0.424936
0.424972
0.424972
0.425007
0.425043
0.425079
0.425115
0.425115
0.425151
0.425187
0.425223
0.42526
0.42526
0.425296
0.425332
0.425368
0.425404
0.425404
0.42544
0.425477
0.425513
0.425549
0.425549
0.425586
0.425622
0.425659
0.425695
0.425695
0.425732
0.425768
0.425805
0.425841
0.425841
0.425878
0.425914
0.425951
0.425988
0.425988
0.426024
0.426061
0.426098
0.426135
0.426135
0.426172
0.426209
0.426246
0.426282
0.426282
0.426319
0.426356
0.426393
0.426431
0.426431
0.426468
0.426505
0.426542
0.426579
0.426579
0.426616
0.426654
0.426691
0.426728
0.426728
0.426765
0.426803
0.42684
0.426878
0.426878
0.426915
0.426953
0.42699
0.427028
0.427028
0.427065
0.427103
0.42714
0.427178
0.427178
0.427216
0.427254
0.427291
0.427329
0.427329
0.427367
0.427405
0.427443
0.42748
0.42748
0.427518
0.427556
0.427594
0.427632
0.427632
0.42767
0.427709
0.427747
0.427785
0.427785
0.427823
0.427861
0.427899
0.427938
0.427938
0.427976
0.428014
0.428053
0.428091
0.428091
0.42813
0.428168
0.428206
0.428245
0.428245
0.428284
0.428322
0.428361
0.428399
0.428399
0.428438
0.428477
0.428515
0.428554
0.428554
0.428593
0.428632
0.428671
0.428709
0.428709
0.428748
0.428787
0.428826
0.428865
0.428865
0.428904
0.428943
0.428982
0.429022
0.429022
0.429061
0.4291
0.429139
0.429178
0.429178
0.429218
0.429257
0.429296
0.429336
0.429336
0.429375
0.429414
0.429454
0.429493
0.429493
0.429533
0.429572
0.429612
0.429652
0.429652
0.429691
0.429731
0.429771
0.42981
0.42981
0.42985
0.42989
0.42993
0.42997
0.42997
0.430009
0.430049
0.430089
0.430129
0.430129
0.430169
0.430209
0.430249
0.430289
0.430289
0.430329
0.43037
0.43041
0.43045
0.43045
0.43049
0.430531
0.430571
0.430611
0.430611
0.430652
0.430692
0.430732
0.430773
0.430773
0.430813
0.430854
0.430894
0.430935
0.430935
0.430975
0.431016
0.431057
0.431097
0.431097
0.431138
0.431179
0.43122
0.431261
0.431261
0.431301
0.431342
0.431383
0.431424
0.431424
0.431465
0.431506
0.431547
0.431588
0.431588
0.431629
0.43167
0.431712
0.431753
0.431753
0.431794
0.431835
0.431876
0.431918
0.431918
0.431959
0.432
0.432042
0.432083
0.432083
0.432125
0.432166
0.432208
0.432249
0.432249
0.432291
0.432332
0.432374
0.432416
0.432416
0.432457
0.432499
0.432541
0.432583
0.432583
0.432625
0.432666
0.432708
0.43275
0.43275
0.432792
0.432834
0.432876
0.432918
0.432918
0.43296
0.433002
0.433044
0.433087
0.433087
0.433129
0.433171
0.433213
0.433256
0.433256
0.433298
0.43334
0.433383
0.433425
0.433425
0.433467
0.43351
0.433552
0.433595
0.433595
0.433637
0.43368
0.433723
0.433765
0.433765
0.433808
0.433851
0.433893
0.433936
0.433936
0.433979
0.434022
0.434065
0.434107
0.434107
0.43415
0.434193
0.434236
0.434279
0.434279
0.434322
0.434365
0.434409
0.434452
0.434452
0.434495
0.434538
0.434581
0.434625
0.434625
0.434668
0.434711
0.434754
0.434798
0.434798
0.434841
0.434885
0.434928
0.434972
0.434972
0.435015
0.435059
0.435102
0.435146
0.435146
0.43519
0.435233
0.435277
0.435321
0.435321
0.435364
0.435408
0.435452
0.435496
0.435496
0.43554
0.435584
0.435628
0.435672
0.435672
0.435716
0.43576
0.435804
0.435848
0.435848
0.435892
0.435936
0.435981
0.436025
0.436025
0.436069
0.436113
0.436158
0.436202
0.436202
0.436246
0.436291
0.436335
0.43638
0.43638
0.436424
0.436469
0.436513
0.436558
0.436558
0.436603
0.436647
0.436692
0.436737
0.436737
0.436781
0.436826
0.436871
0.436916
0.436916
0.436961
0.437006
0.437051
0.437096
0.437096
0.437141
0.437186
0.437231
0.437276
0.437276
0.437321
0.437366
0.437411
0.437456
0.437456
0.437502
0.437547
0.437592
0.437638
0.437638
0.437683
0.437728
0.437774
0.437819
0.437819
0.437865
0.43791
0.437956
0.438001
0.438001
0.438047
0.438093
0.438138
0.438184
0.438184
0.43823
0.438275
0.438321
0.438367
0.438367
0.438413
0.438459
0.438505
0.438551
0.438551
0.438597
0.438643
0.438689
0.438735
0.438735
0.438781
0.438827
0.438873
0.438919
0.438919
0.438966
0.439012
0.439058
0.439104
0.439104
0.439151
0.439197
0.439244
0.43929
0.43929
0.439337
0.439383
0.43943
0.439476
0.439476
0.439523
0.439569
0.439616
0.439663
0.439663
0.439709
0.439756
0.439803
0.43985
0.43985
0.439897
0.439943
0.43999
0.440037
0.440037
0.440084
0.440131
0.440178
0.440225
0.440225
0.440272
0.44032
0.440367
0.440414
0.440414
0.440461
0.440508
0.440556
0.440603
0.440603
0.44065
0.440698
0.440745
0.440792
0.440792
0.44084
0.440887
0.440935
0.440982
0.440982
0.44103
0.441078
0.441125
0.441173
0.441173
0.441221
0.441268
0.441316
0.441364
0.441364
0.441412
0.44146
0.441508
0.441555
0.441555
0.441603
0.441651
0.441699
0.441747
0.441747
0.441796
0.441844
0.441892
0.44194
0.44194
0.441988
0.442036
0.442085
0.442133
0.442133
0.442181
0.44223
0.442278
0.442326
0.442326
0.442375
0.442423
0.442472
0.44252
0.44252
0.442569
0.442618
0.442666
0.442715
0.442715
0.442764
0.442812
0.442861
0.44291
0.44291
0.442959
0.443007
0.443056
0.443105
0.443105
0.443154
0.443203
0.443252
0.443301
0.443301
0.44335
0.443399
0.443449
0.443498
0.443498
0.443547
0.443596
0.443645
0.443695
0.443695
0.443744
0.443793
0.443843
0.443892
0.443892
0.443941
0.443991
0.44404
0.44409
0.44409
0.44414
0.444189
0.444239
0.444288
0.444288
0.444338
0.444388
0.444438
0.444487
0.444487
0.444537
0.444587
0.444637
0.444687
0.444687
0.444737
0.444787
0.444837
0.444887
0.444887
0.444937
0.444987
0.445037
0.445087
0.445087
0.445137
0.445187
0.445238
0.445288
0.445288
0.445338
0.445389
0.445439
0.445489
0.445489
0.44554
0.44559
0.445641
0.445691
0.445691
0.445742
0.445792
0.445843
0.445894
0.445894
0.445944
0.445995
0.446046
0.446097
0.446097
0.446147
0.446198
0.446249
0.4463
0.4463
0.446351
0.446402
0.446453
0.446504
0.446504
0.446555
0.446606
0.446657
0.446708
0.446708
0.44676
0.446811
0.446862
0.446913
0.446913
0.446965
0.447016
0.447067
0.447119
0.447119
0.44717
0.447222
0.447273
0.447325
0.447325
0.447376
0.447428
0.447479
0.447531
0.447531
0.447583
0.447634
0.447686
0.447738
0.447738
0.44779
0.447841
0.447893
0.447945
0.447945
0.447997
0.448049
0.448101
0.448153
0.448153
0.448205
0.448257
0.448309
0.448361
0.448361
0.448414
0.448466
0.448518
0.44857
0.44857
0.448623
0.448675
0.448727
0.44878
0.44878
0.448832
0.448885
0.448937
0.44899
0.44899
0.449042
0.449095
0.449147
0.4492
0.4492
0.449253
0.449305
0.449358
0.449411
0.449411
0.449464
0.449517
0.449569
0.449622
0.449622
0.449675
0.449728
0.449781
0.449834
0.449834
0.449887
0.44994
0.449993
0.450047
0.450047
0.4501
0.450153
0.450206
0.450259
0.450259
0.450313
0.450366
0.450419
0.450473
0.450473
0.450526
0.45058
0.450633
0.450687
0.450687
0.45074
0.450794
0.450848
0.450901
0.450901
0.450955
0.451009
0.451062
0.451116
0.451116
0.45117
0.451224
0.451278
0.451331
0.451331
0.451385
0.451439
0.451493
0.451547
0.451547
0.451601
0.451656
0.45171
0.451764
0.451764
0.451818
0.451872
0.451926
0.451981
0.451981
0.452035
0.452089
0.452144
0.452198
0.452198
0.452253
0.452307
0.452362
0.452416
0.452416
0.452471
0.452525
0.45258
0.452634
0.452634
0.452689
0.452744
0.452799
0.452853
0.452853
0.452908
0.452963
0.453018
0.453073
0.453073
0.453128
0.453183
0.453238
0.453293
0.453293
0.453348
0.453403
0.453458
0.453513
0.453513
0.453568
0.453624
0.453679
0.453734
0.453734
0.453789
0.453845
0.4539
0.453956
0.453956
0.454011
0.454066
0.454122
0.454178
0.454178
0.454233
0.454289
0.454344
0.4544
0.4544
0.454456
0.454511
0.454567
0.454623
0.454623
0.454679
0.454735
0.45479
0.454846
0.454846
0.454902
0.454958
0.455014
0.45507
0.45507
0.455126
0.455183
0.455239
0.455295
0.455295
0.455351
0.455407
0.455464
0.45552
0.45552
0.455576
0.455633
0.455689
0.455745
0.455745
0.455802
0.455858
0.455915
0.455971
0.455971
0.456028
0.456084
0.456141
0.456198
0.456198
0.456255
0.456311
0.456368
0.456425
0.456425
0.456482
0.456539
0.456595
0.456652
0.456652
0.456709
0.456766
0.456823
0.45688
0.45688
0.456937
0.456995
0.457052
0.457109
0.457109
0.457166
0.457223
0.457281
0.457338
0.457338
0.457395
0.457453
0.45751
0.457567
0.457567
0.457625
0.457682
0.45774
0.457798
0.457798
0.457855
0.457913
0.45797
0.458028
0.458028
0.458086
0.458144
0.458201
0.458259
0.458259
0.458317
0.458375
0.458433
0.458491
0.458491
0.458549
0.458607
0.458665
0.458723
0.458723
0.458781
0.458839
0.458897
0.458955
0.458955
0.459014
0.459072
0.45913
0.459189
0.459189
0.459247
0.459305
0.459364
0.459422
0.459422
0.459481
0.459539
0.459598
0.459656
0.459656
0.459715
0.459774
0.459832
0.459891
0.459891
0.45995
0.460008
0.460067
0.460126
0.460126
0.460185
0.460244
0.460303
0.460362
0.460362
0.460421
0.46048
0.460539
0.460598
0.460598
0.460657
0.460716
0.460775
0.460835
0.460835
0.460894
0.460953
0.461012
0.461072
0.461072
0.461131
0.461191
0.46125
0.461309
0.461309
0.461369
0.461429
0.461488
0.461548
0.461548
0.461607
0.461667
0.461727
0.461786
0.461786
0.461846
0.461906
0.461966
0.462026
0.462026
0.462086
0.462145
0.462205
0.462265
0.462265
0.462325
0.462385
0.462446
0.462506
0.462506
0.462566
0.462626
0.462686
0.462746
0.462746
0.462807
0.462867
0.462927
0.462988
0.462988
0.463048
0.463109
0.463169
0.46323
0.46323
0.46329
0.463351
0.463411
0.463472
0.463472
0.463533
0.463593
0.463654
0.463715
0.463715
0.463776
0.463836
0.463897
0.463958
0.463958
0.464019
0.46408
0.464141
0.464202
0.464202
0.464263
0.464324
0.464385
0.464446
0.464446
0.464507
0.464569
0.46463
0.464691
0.464691
0.464752
0.464814
0.464875
0.464937
0.464937
0.464998
0.465059
0.465121
0.465183
0.465183
0.465244
0.465306
0.465367
0.465429
0.465429
0.465491
0.465552
0.465614
0.465676
0.465676
0.465738
0.4658
0.465861
0.465923
0.465923
0.465985
0.466047
0.466109
0.466171
0.466171
0.466233
0.466296
0.466358
0.46642
0.46642
0.466482
0.466544
0.466607
0.466669
0.466669
0.466731
0.466794
0.466856
0.466918
0.466918
0.466981
0.467043
0.467106
0.467168
0.467168
0.467231
0.467294
0.467356
0.467419
0.467419
0.467482
0.467545
0.467607
0.46767
0.46767
0.467733
0.467796
0.467859
0.467922
0.467922
0.467985
0.468048
0.468111
0.468174
0.468174
0.468237
0.4683
0.468363
0.468427
0.468427
0.46849
0.468553
0.468616
0.46868
0.46868
0.468743
0.468806
0.46887
0.468933
0.468933
0.468997
0.46906
0.469124
0.469188
0.469188
0.469251
0.469315
0.469379
0.469442
0.469442
0.469506
0.46957
0.469634
0.469698
0.469698
0.469761
0.469825
0.469889
0.469953
0.469953
0.470017
0.470081
0.470145
0.47021
0.47021
0.470274
0.470338
0.470402
0.470466
0.470466
0.470531
0.470595
0.470659
0.470724
0.470724
0.470788
0.470853
0.470917
0.470982
0.470982
0.471046
0.471111
0.471175
0.47124
0.47124
0.471305
0.471369
0.471434
0.471499
0.471499
0.471564
0.471628
0.471693
0.471758
0.471758
0.471823
0.471888
0.471953
0.472018
0.472018
0.472083
0.472148
0.472213
0.472279
0.472279
0.472344
0.472409
0.472474
0.47254
0.47254
0.472605
0.47267
0.472736
0.472801
0.472801
0.472867
0.472932
0.472998
0.473063
0.473063
0.473129
0.473194
0.47326
0.473326
0.473326
0.473391
0.473457
0.473523
0.473589
0.473589
0.473655
0.473721
0.473786
0.473852
0.473852
0.473918
0.473984
0.47405
0.474117
0.474117
0.474183
0.474249
0.474315
0.474381
0.474381
0.474447
0.474514
0.47458
0.474646
0.474646
0.474713
0.474779
0.474846
0.474912
0.474912
0.474979
0.475045
0.475112
0.475178
0.475178
0.475245
0.475312
0.475378
0.475445
0.475445
0.475512
0.475579
0.475645
0.475712
0.475712
0.475779
0.475846
0.475913
0.47598
0.47598
0.476047
0.476114
0.476181
0.476248
0.476248
0.476316
0.476383
0.47645
0.476517
0.476517
0.476585
0.476652
0.476719
0.476787
0.476787
0.476854
0.476922
0.476989
0.477057
0.477057
0.477124
0.477192
0.477259
0.477327
0.477327
0.477395
0.477463
0.47753
0.477598
0.477598
0.477666
0.477734
0.477802
0.47787
0.47787
0.477938
0.478006
0.478074
0.478142
0.478142
0.47821
0.478278
0.478346
0.478414
0.478414
0.478482
0.478551
0.478619
0.478687
0.478687
0.478756
0.478824
0.478892
0.478961
0.478961
0.479029
0.479098
0.479166
0.479235
0.479235
0.479304
0.479372
0.479441
0.47951
0.47951
0.479578
0.479647
0.479716
0.479785
0.479785
0.479854
0.479923
0.479992
0.480061
0.480061
0.48013
0.480199
0.480268
0.480337
0.480337
0.480406
0.480475
0.480545
0.480614
0.480614
0.480683
0.480752
0.480822
0.480891
0.480891
0.480961
0.48103
0.481099
0.481169
0.481169
0.481239
0.481308
0.481378
0.481447
0.481447
0.481517
0.481587
0.481657
0.481726
0.481726
0.481796
0.481866
0.481936
0.482006
0.482006
0.482076
0.482146
0.482216
0.482286
0.482286
0.482356
0.482426
0.482496
0.482566
0.482566
0.482637
0.482707
0.482777
0.482847
0.482847
0.482918
0.482988
0.483059
0.483129
0.483129
0.4832
0.48327
0.483341
0.483411
0.483411
0.483482
0.483553
0.483623
0.483694
0.483694
0.483765
0.483835
0.483906
0.483977
0.483977
0.484048
0.484119
0.48419
0.484261
0.484261
0.484332
0.484403
0.484474
0.484545
0.484545
0.484616
0.484688
0.484759
0.48483
0.48483
0.484901
0.484973
0.485044
0.485115
0.485115
0.485187
0.485258
0.48533
0.485401
0.485401
0.485473
0.485545
0.485616
0.485688
0.485688
0.485759
0.485831
0.485903
0.485975
0.485975
0.486047
0.486118
0.48619
0.486262
0.486262
0.486334
0.486406
0.486478
0.48655
0.48655
0.486622
0.486695
0.486767
0.486839
0.486839
0.486911
0.486983
0.487056
0.487128
0.487128
0.4872
0.487273
0.487345
0.487418
0.487418
0.48749
0.487563
0.487635
0.487708
0.487708
0.487781
0.487853
0.487926
0.487999
0.487999
0.488072
0.488144
0.488217
0.48829
0.48829
0.488363
0.488436
0.488509
0.488582
0.488582
0.488655
0.488728
0.488801
0.488874
0.488874
0.488948
0.489021
0.489094
0.489167
0.489167
0.489241
0.489314
0.489387
0.489461
0.489461
0.489534
0.489608
0.489681
0.489755
0.489755
0.489828
0.489902
0.489976
0.490049
0.490049
0.490123
0.490197
0.490271
0.490344
0.490344
0.490418
0.490492
0.490566
0.49064
0.49064
0.490714
0.490788
0.490862
0.490936
0.490936
0.49101
0.491085
0.491159
0.491233
0.491233
0.491307
0.491382
0.491456
0.49153
0.49153
0.491605
0.491679
0.491754
0.491828
0.491828
0.491903
0.491977
0.492052
0.492127
0.492127
0.492201
0.492276
0.492351
0.492425
0.492425
0.4925
0.492575
0.49265
0.492725
0.492725
0.4928
0.492875
0.49295
0.493025
0.493025
0.4931
0.493175
0.49325
0.493325
0.493325
0.493401
0.493476
0.493551
0.493627
0.493627
0.493702
0.493777
0.493853
0.493928
0.493928
0.494004
0.494079
0.494155
0.49423
0.49423
0.494306
0.494382
0.494457
0.494533
0.494533
0.494609
0.494685
0.494761
0.494837
0.494837
0.494912
0.494988
0.495064
0.49514
0.49514
0.495216
0.495293
0.495369
0.495445
0.495445
0.495521
0.495597
0.495673
0.49575
0.49575
0.495826
0.495902
0.495979
0.496055
0.496055
0.496132
0.496208
0.496285
0.496361
0.496361
0.496438
0.496515
0.496591
0.496668
0.496668
0.496745
0.496821
0.496898
0.496975
0.496975
0.497052
0.497129
0.497206
0.497283
0.497283
0.49736
0.497437
0.497514
0.497591
0.497591
0.497668
0.497745
0.497823
0.4979
0.4979
0.497977
0.498055
0.498132
0.498209
0.498209
0.498287
0.498364
0.498442
0.498519
0.498519
0.498597
0.498674
0.498752
0.49883
0.49883
0.498907
0.498985
0.499063
0.499141
0.499141
0.499219
0.499296
0.499374
0.499452
0.499452
0.49953
0.499608
0.499686
0.499764
0.499764
0.499843
0.499921
0.499999
0.500077
0.500077
0.500155
0.500234
0.500312
0.50039
0.50039
0.500469
0.500547
0.500626
0.500704
0.500704
0.500783
0.500861
0.50094
0.501019
0.501019
0.501097
0.501176
0.501255
0.501334
0.501334
0.501412
0.501491
0.50157
0.501649
0.501649
0.501728
0.501807
0.501886
0.501965
0.501965
0.502044
0.502123
0.502203
0.502282
0.502282
0.502361
0.50244
0.50252
0.502599
0.502599
0.502678
0.502758
0.502837
0.502917
0.502917
0.502996
0.503076
0.503155
0.503235
0.503235
0.503315
0.503394
0.503474
0.503554
0.503554
0.503634
0.503713
0.503793
0.503873
0.503873
0.503953
0.504033
0.504113
0.504193
0.504193
0.504273
0.504353
0.504434
0.504514
0.504514
0.504594
0.504674
0.504754
0.504835
0.504835
0.504915
0.504996
0.505076
0.505156
0.505156
0.505237
0.505318
0.505398
0.505479
0.505479
0.505559
0.50564
0.505721
0.505801
0.505801
0.505882
0.505963
0.506044
0.506125
0.506125
0.506206
0.506287
0.506368
0.506449
0.506449
0.50653
0.506611
0.506692
0.506773
0.506773
0.506854
0.506936
0.507017
0.507098
0.507098
0.50718
0.507261
0.507342
0.507424
0.507424
0.507505
0.507587
0.507669
0.50775
0.50775
0.507832
0.507913
0.507995
0.508077
0.508077
0.508159
0.50824
0.508322
0.508404
0.508404
0.508486
0.508568
0.50865
0.508732
0.508732
0.508814
0.508896
0.508978
0.509061
0.509061
0.509143
0.509225
0.509307
0.50939
0.50939
0.509472
0.509554
0.509637
0.509719
0.509719
0.509802
0.509884
0.509967
0.510049
0.510049
0.510132
0.510215
0.510297
0.51038
0.51038
0.510463
0.510546
0.510628
0.510711
0.510711
0.510794
0.510877
0.51096
0.511043
0.511043
0.511126
0.511209
0.511293
0.511376