<?xml version="1.0"?>
<VTKFile type="UnstructuredGrid" version="0.1" byte_order="LittleEndian">
<UnstructuredGrid>
<Piece NumberOfPoints="5000" NumberOfCells="4000">
<PointData Scalars="Reaction 0">
<DataArray type="Float32" Name="Reaction 0" format="ascii">
0.389301
0.389301
0.389301
0.389301
0.389301
0.389301
0.389301
0.389302
0.389302
0.389302
0.389302
0.389302
0.389302
0.389303
0.389303
0.389303
0.389303
0.389304
0.389304
0.389305
0.389305
0.389305
0.389306
0.389306
0.389307
0.389307
0.389307
0.389308
0.389309
0.389309
0.389309
0.38931
0.389311
0.389312
0.389312
0.389312
0.389313
0.389314
0.389315
0.389316
0.389316
0.389317
0.389318
0.389319
0.38932
0.38932
0.389321
0.389322
0.389323
0.389324
0.389324
0.389325
0.389327
0.389328
0.389329
0.389329
0.38933
0.389332
0.389333
0.389335
0.389335
0.389336
0.389337
0.389339
0.38934
0.38934
0.389342
0.389343
0.389345
0.389347
0.389347
0.389348
0.38935
0.389352
0.389353
0.389353
0.389355
0.389357
0.389359
0.389361
0.389361
0.389363
0.389364
0.389366
0.389368
0.389368
0.38937
0.389372
0.389374
0.389376
0.389376
0.389379
0.389381
0.389383
0.389385
0.389385
0.389387
0.38939
0.389392
0.389394
0.389394
0.389397
0.389399
0.389401
0.389404
0.389404
0.389406
0.389409
0.389411
0.389414
0.389414
0.389416
0.389419
0.389422
0.389424
0.389424
0.389427
0.38943
0.389432
0.389435
0.389435
0.389438
0.389441
0.389444
0.389447
0.389447
0.38945
0.389452
0.389455
0.389458
0.389458
0.389462
0.389465
0.389468
0.389471
0.389471
0.389474
0.389477
0.38948
0.389484
0.389484
0.389487
0.38949
0.389494
0.389497
0.389497
0.3895
0.389504
0.389507
0.389511
0.389511
0.389514
0.389518
0.389521
0.389525
0.389525
0.389529
0.389532
0.389536
0.38954
0.38954
0.389543
0.389547
0.389551
0.389555
0.389555
0.389559
0.389562
0.389566
0.38957
0.38957
0.389574
0.389578
0.389582
0.389586
0.389586
0.38959
0.389595
0.389599
0.389603
0.389603
0.389607
0.389611
0.389616
0.38962
0.38962
0.389624
0.389629
0.389633
0.389637
0.389637
0.389642
0.389646
0.389651
0.389655
0.389655
0.38966
0.389664
0.389669
0.389674
0.389674
0.389678
0.389683
0.389688
0.389693
0.389693
0.389697
0.389702
0.389707
0.389712
0.389712
0.389717
0.389722
0.389727
0.389732
0.389732
0.389737
0.389742
0.389747
0.389752
0.389752
0.389757
0.389762
0.389768
0.389773
0.389773
0.389778
0.389783
0.389789
0.389794
0.389794
0.389799
0.389805
0.38981
0.389816
0.389816
0.389821
0.389827
0.389832
0.389838
0.389838
0.389843
0.389849
0.389855
0.38986
0.38986
0.389866
0.389872
0.389878
0.389883
0.389883
0.389889
0.389895
0.389901
0.389907
0.389907
0.389913
0.389919
0.389925
0.389931
0.389931
0.389937
0.389943
0.389949
0.389955
0.389955
0.389962
0.389968
0.389974
0.38998
0.38998
0.389987
0.389993
0.389999
0.390006
0.390006
0.390012
0.390019
0.390025
0.390032
0.390032
0.390038
0.390045
0.390051
0.390058
0.390058
0.390065
0.390071
0.390078
0.390085
0.390085
0.390091
0.390098
0.390105
0.390112
0.390112
0.390119
0.390126
0.390133
0.39014
0.39014
0.390147
0.390154
0.390161
0.390168
0.390168
0.390175
0.390182
0.390189
0.390197
0.390197
0.390204
0.390211
0.390218
0.390226
0.390226
0.390233
0.39024
0.390248
0.390255
0.390255
0.390263
0.39027
0.390278
0.390285
0.390285
0.390293
0.3903
0.390308
0.390316
0.390316
0.390323
0.390331
0.390339
0.390347
0.390347
0.390355
0.390362
0.39037
0.390378
0.390378
0.390386
0.390394
0.390402
0.39041
0.39041
0.390418
0.390426
0.390434
0.390443
0.390443
0.390451
0.390459
0.390467
0.390475
0.390475
0.390484
0.390492
0.3905
0.390509
0.390509
0.390517
0.390526
0.390534
0.390542
0.390542
0.390551
0.39056
0.390568
0.390577
0.390577
0.390585
0.390594
0.390603
0.390611
0.390611
0.39062
0.390629
0.390638
0.390647
0.390647
0.390655
0.390664
0.390673
0.390682
0.390682
0.390691
0.3907
0.390709
0.390718
0.390718
0.390727
0.390737
0.390746
0.390755
0.390755
0.390764
0.390773
0.390783
0.390792
0.390792
0.390801
0.390811
0.39082
0.39083
0.39083
0.390839
0.390848
0.390858
0.390867
0.390867
0.390877
0.390887
0.390896
0.390906
0.390906
0.390916
0.390925
0.390935
0.390945
0.390945
0.390955
0.390964
0.390974
0.390984
0.390984
0.390994
0.391004
0.391014
0.391024
0.391024
0.391034
0.391044
0.391054
0.391064
0.391064
0.391074
0.391085
0.391095
0.391105
0.391105
0.391115
0.391126
0.391136
0.391146
0.391146
0.391157
0.391167
0.391178
0.391188
0.391188
0.391199
0.391209
0.39122
0.39123
0.39123
0.391241
0.391251
0.391262
0.391273
0.391273
0.391284
0.391294
0.391305
0.391316
0.391316
0.391327
0.391338
0.391349
0.39136
0.39136
0.391371
0.391382
0.391393
0.391404
0.391404
0.391415
0.391426
0.391437
0.391448
0.391448
0.391459
0.391471
0.391482
0.391493
0.391493
0.391504
0.391516
0.391527
0.391538
0.391538
0.39155
0.391561
0.391573
0.391584
0.391584
0.391596
0.391608
0.391619
0.391631
0.391631
0.391642
0.391654
0.391666
0.391678
0.391678
0.391689
0.391701
0.391713
0.391725
0.391725
0.391737
0.391749
0.391761
0.391773
0.391773
0.391785
0.391797
0.391809
0.391821
0.391821
0.391833
0.391845
0.391857
0.39187
0.39187
0.391882
0.391894
0.391906
0.391919
0.391919
0.391931
0.391943
0.391956
0.391968
0.391968
0.391981
0.391993
0.392006
0.392018
0.392018
0.392031
0.392044
0.392056
0.392069
0.392069
0.392082
0.392094
0.392107
0.39212
0.39212
0.392133
0.392146
0.392159
0.392172
0.392172
0.392184
0.392197
0.39221
0.392223
0.392223
0.392237
0.39225
0.392263
0.392276
0.392276
0.392289
0.392302
0.392316
0.392329
0.392329
0.392342
0.392355
0.392369
0.392382
0.392382
0.392396
0.392409
0.392422
0.392436
0.392436
0.39245
0.392463
0.392477
0.39249
0.39249
0.392504
0.392518
0.392531
0.392545
0.392545
0.392559
0.392573
0.392586
0.3926
0.3926
0.392614
0.392628
0.392642
0.392656
0.392656
0.39267
0.392684
0.392698
0.392712
0.392712
0.392726
0.39274
0.392755
0.392769
0.392769
0.392783
0.392797
0.392811
0.392826
0.392826
0.39284
0.392855
0.392869
0.392883
0.392883
0.392898
0.392912
0.392927
0.392941
0.392941
0.392956
0.392971
0.392985
0.393
0.393
0.393015
0.393029
0.393044
0.393059
0.393059
0.393074
0.393088
0.393103
0.393118
0.393118
0.393133
0.393148
0.393163
0.393178
0.393178
0.393193
0.393208
0.393223
0.393238
0.393238
0.393254
0.393269
0.393284
0.393299
0.393299
0.393315
0.39333
0.393345
0.393361
0.393361
0.393376
0.393391
0.393407
0.393422
0.393422
0.393438
0.393453
0.393469
0.393485
0.393485
0.3935
0.393516
0.393532
0.393547
0.393547
0.393563
0.393579
0.393595
0.39361
0.39361
0.393626
0.393642
0.393658
0.393674
0.393674
0.39369
0.393706
0.393722
0.393738
0.393738
0.393754
0.39377
0.393786
0.393803
0.393803
0.393819
0.393835
0.393851
0.393868
0.393868
0.393884
0.3939
0.393917
0.393933
0.393933
0.39395
0.393966
0.393983
0.393999
0.393999
0.394016
0.394032
0.394049
0.394066
0.394066
0.394082
0.394099
0.394116
0.394132
0.394132
0.394149
0.394166
0.394183
0.3942
0.3942
0.394217
0.394234
0.394251
0.394268
0.394268
0.394285
0.394302
0.394319
0.394336
0.394336
0.394353
0.39437
0.394387
0.394405
0.394405
0.394422
0.394439
0.394456
0.394474
0.394474
0.394491
0.394509
0.394526
0.394543
0.394543
0.394561
0.394578
0.394596
0.394614
0.394614
0.394631
0.394649
0.394667
0.394684
0.394684
0.394702
0.39472
0.394738
0.394755
0.394755
0.394773
0.394791
0.394809
0.394827
0.394827
0.394845
0.394863
0.394881
0.394899
0.394899
0.394917
0.394935
0.394953
0.394971
0.394971
0.39499
0.395008
0.395026
0.395044
0.395044
0.395063
0.395081
0.395099
0.395118
0.395118
0.395136
0.395155
0.395173
0.395192
0.395192
0.39521
0.395229
0.395247
0.395266
0.395266
0.395285
0.395303
0.395322
0.395341
0.395341
0.39536
0.395378
0.395397
0.395416
0.395416
0.395435
0.395454
0.395473
0.395492
0.395492
0.395511
0.39553
0.395549
0.395568
0.395568
0.395587
0.395606
0.395625
0.395645
0.395645
0.395664
0.395683
0.395702
0.395722
0.395722
0.395741
0.395761
0.39578
0.395799
0.395799
0.395819
0.395838
0.395858
0.395878
0.395878
0.395897
0.395917
0.395936
0.395956
0.395956
0.395976
0.395996
0.396015
0.396035
0.396035
0.396055
0.396075
0.396095
0.396115
0.396115
0.396134
0.396154
0.396174
0.396194
0.396194
0.396215
0.396235
0.396255
0.396275
0.396275
0.396295
0.396315
0.396336
0.396356
0.396356
0.396376
0.396396
0.396417
0.396437
0.396437
0.396458
0.396478
0.396498
0.396519
0.396519
0.396539
0.39656
0.396581
0.396601
0.396601
0.396622
0.396643
0.396663
0.396684
0.396684
0.396705
0.396726
0.396746
0.396767
0.396767
0.396788
0.396809
0.39683
0.396851
0.396851
0.396872
0.396893
0.396914
0.396935
0.396935
0.396956
0.396977
0.396998
0.39702
0.39702
0.397041
0.397062
0.397083
0.397105
0.397105
0.397126
0.397147
0.397169
0.39719
0.39719
0.397212
0.397233
0.397255
0.397276
0.397276
0.397298
0.397319
0.397341
0.397363
0.397363
0.397384
0.397406
0.397428
0.39745
0.39745
0.397472
0.397493
0.397515
0.397537
0.397537
0.397559
0.397581
0.397603
0.397625
0.397625
0.397647
0.397669
0.397691
0.397713
0.397713
0.397736
0.397758
0.39778
0.397802
0.397802
0.397824
0.397847
0.397869
0.397891
0.397891
0.397914
0.397936
0.397959
0.397981
0.397981
0.398004
0.398026
0.398049
0.398071
0.398071
0.398094
0.398117
0.398139
0.398162
0.398162
0.398185
0.398208
0.39823
0.398253
0.398253
0.398276
0.398299
0.398322
0.398345
0.398345
0.398368
0.398391
0.398414
0.398437
0.398437
0.39846
0.398483
0.398506
0.39853
0.39853
0.398553
0.398576
0.398599
0.398623
0.398623
0.398646
0.398669
0.398693
0.398716
0.398716
0.398739
0.398763
0.398786
0.39881
0.39881
0.398834
0.398857
0.398881
0.398904
0.398904
0.398928
0.398952
0.398976
0.398999
0.398999
0.399023
0.399047
0.399071
0.399095
0.399095
0.399119
0.399142
0.399166
0.39919
0.39919
0.399214
0.399239
0.399263
0.399287
0.399287
0.399311
0.399335
0.399359
0.399384
0.399384
0.399408
0.399432
0.399456
0.399481
0.399481
0.399505
0.39953
0.399554
0.399578
0.399578
0.399603
0.399627
0.399652
0.399677
0.399677
0.399701
0.399726
0.399751
0.399775
0.399775
0.3998
0.399825
0.399849
0.399874
0.399874
0.399899
0.399924
0.399949
0.399974
0.399974
0.399999
0.400024
0.400049
0.400074
0.400074
0.400099
0.400124
0.400149
0.400174
0.400174
0.4002
0.400225
0.40025
0.400275
0.400275
0.400301
0.400326
0.400351
0.400377
0.400377
0.400402
0.400428
0.400453
0.400479
0.400479
0.400504
0.40053
0.400555
0.400581
0.400581
0.400607
0.400632
0.400658
0.400684
0.400684
0.40071
0.400735
0.400761
0.400787
0.400787
0.400813
0.400839
0.400865
0.400891
0.400891
0.400917
0.400943
0.400969
0.400995
0.400995
0.401021
0.401047
0.401074
0.4011
0.4011
0.401126
0.401152
0.401179
0.401205
0.401205
0.401231
0.401258
0.401284
0.401311
0.401311
0.401337
0.401364
0.40139
0.401417
0.401417
0.401443
0.40147
0.401497
0.401523
0.401523
0.40155
0.401577
0.401604
0.40163
0.40163
0.401657
0.401684
0.401711
0.401738
0.401738
0.401765
0.401792
0.401819
0.401846
0.401846
0.401873
0.4019
0.401927
0.401954
0.401954
0.401982
0.402009
0.402036
0.402063
0.402063
0.402091
0.402118
0.402145
0.402173
0.402173
0.4022
0.402228
0.402255
0.402283
0.402283
0.40231
0.402338
0.402365
0.402393
0.402393
0.40242
0.402448
0.402476
0.402504
0.402504
0.402531
0.402559
0.402587
0.402615
0.402615
0.402643
0.402671
0.402699
0.402727
0.402727
0.402755
0.402783
0.402811
0.402839
0.402839
0.402867
0.402895
0.402923
0.402951
0.402951
0.40298
0.403008
0.403036
0.403065
0.403065
0.403093
0.403121
0.40315
0.403178
0.403178
0.403207
0.403235
0.403264
0.403292
0.403292
0.403321
0.403349
0.403378
0.403407
0.403407
0.403435
0.403464
0.403493
0.403522
0.403522
0.403551
0.403579
0.403608
0.403637
0.403637
0.403666
0.403695
0.403724
0.403753
0.403753
0.403782
0.403811
0.40384
0.40387
0.40387
0.403899
0.403928
0.403957
0.403986
0.403986
0.404016
0.404045
0.404074
0.404104
0.404104
0.404133
0.404163
0.404192
0.404222
0.404222
0.404251
0.404281
0.40431
0.40434
0.40434
0.404369
0.404399
0.404429
0.404459
0.404459
0.404488
0.404518
0.404548
0.404578
0.404578
0.404608
0.404638
0.404667
0.404697
0.404697
0.404727
0.404757
0.404787
0.404818
0.404818
0.404848
0.404878
0.404908
0.404938
0.404938
0.404968
0.404999
0.405029
0.405059
0.405059
0.40509
0.40512
0.40515
0.405181
0.405181
0.405211
0.405242
0.405272
0.405303
0.405303
0.405333
0.405364
0.405395
0.405425
0.405425
0.405456
0.405487
0.405517
0.405548
0.405548
0.405579
0.40561
0.405641
0.405672
0.405672
0.405703
0.405734
0.405765
0.405796
0.405796
0.405827
0.405858
0.405889
0.40592
0.40592
0.405951
0.405982
0.406014
0.406045
0.406045
0.406076
0.406107
0.406139
0.40617
0.40617
0.406201
0.406233
0.406264
0.406296
0.406296
0.406327
0.406359
0.40639
0.406422
0.406422
0.406454
0.406485
0.406517
0.406549
0.406549
0.406581
0.406612
0.406644
0.406676
0.406676
0.406708
0.40674
0.406772
0.406804
0.406804
0.406836
0.406868
0.4069
0.406932
0.406932
0.406964
0.406996
0.407028
0.40706
0.40706
0.407093
0.407125
0.407157
0.407189
0.407189
0.407222
0.407254
0.407286
0.407319
0.407319
0.407351
0.407384
0.407416
0.407449
0.407449
0.407481
0.407514
0.407547
0.407579
0.407579
0.407612
0.407645
0.407677
0.40771
0.40771
0.407743
0.407776
0.407809
0.407842
0.407842
0.407875
0.407908
0.40794
0.407974
0.407974
0.408007
0.40804
0.408073
0.408106
0.408106
0.408139
0.408172
0.408205
0.408239
0.408239
0.408272
0.408305
0.408339
0.408372
0.408372
0.408405
0.408439
0.408472
0.408506
0.408506
0.408539
0.408573
0.408606
0.40864
0.40864
0.408673
0.408707
0.408741
0.408775
0.408775
0.408808
0.408842
0.408876
0.40891
0.40891
0.408944
0.408977
0.409011
0.409045
0.409045
0.409079
0.409113
0.409147
0.409181
0.409181
0.409215
0.40925
0.409284
0.409318
0.409318
0.409352
0.409386
0.409421
0.409455
0.409455
0.409489
0.409524
0.409558
0.409592
0.409592
0.409627
0.409661
0.409696
0.40973
0.40973
0.409765
0.4098
0.409834
0.409869
0.409869
0.409904
0.409938
0.409973
0.410008
0.410008
0.410043
0.410077
0.410112
0.410147
0.410147
0.410182
0.410217
0.410252
0.410287
0.410287
0.410322
0.410357
0.410392
0.410427
0.410427
0.410462
0.410498
0.410533
0.410568
0.410568
0.410603
0.410639
0.410674
0.410709
0.410709
0.410745
0.41078
0.410816
0.410851
0.410851
0.410887
0.410922
0.410958
0.410993
0.410993
0.411029
0.411065
0.4111
0.411136
0.411136
0.411172
0.411207
0.411243
0.411279
0.411279
0.411315
0.411351
0.411387
0.411423
0.411423
0.411459
0.411495
0.411531
0.411567
0.411567
0.411603
0.411639
0.411675
0.411711
0.411711
0.411747
0.411784
0.41182
0.411856
0.411856
0.411893
0.411929
0.411965
0.412002
0.412002
0.412038
0.412075
0.412111
0.412148
0.412148
0.412184
0.412221
0.412258
0.412294
0.412294
0.412331
0.412368
0.412404
0.412441
0.412441
0.412478
0.412515
0.412552
0.412588
0.412588
0.412625
0.412662
0.412699
0.412736
0.412736
0.412773
0.41281
0.412847
0.412885
0.412885
0.412922
0.412959
0.412996
0.413033
0.413033
0.413071
0.413108
0.413145
0.413183
0.413183
0.41322
0.413257
0.413295
0.413332
0.413332
0.41337
0.413407
0.413445
0.413482
0.413482
0.41352
0.413558
0.413595
0.413633
0.413633
0.413671
0.413709
0.413746
0.413784
0.413784
0.413822
0.41386
0.413898
0.413936
0.413936
0.413974
0.414012
0.41405
0.414088
0.414088
0.414126
0.414164
0.414202
0.41424
0.41424
0.414279
0.414317
0.414355
0.414393
0.414393
0.414432
0.41447
0.414509
0.414547
0.414547
0.414585
0.414624
0.414662
0.414701
0.414701
0.414739
0.414778
0.414817
0.414855
0.414855
0.414894
0.414933
0.414971
0.41501
0.41501
0.415049
0.415088
0.415127
0.415166
0.415166
0.415205
0.415243
0.415282
0.415321
0.415321
0.41536
0.4154
0.415439
0.415478
0.415478
0.415517
0.415556
0.415595
0.415635
0.415635
0.415674
0.415713
0.415752
0.415792
0.415792
0.415831
0.415871
0.41591
0.41595
0.41595
0.415989
0.416029
0.416068
0.416108
0.416108
0.416147
0.416187
0.416227
0.416266
0.416266
0.416306
0.416346
0.416386
0.416426
0.416426
0.416465
0.416505
0.416545
0.416585
0.416585
0.416625
0.416665
0.416705
0.416745
0.416745
0.416785
0.416825
0.416866
0.416906
0.416906
0.416946
0.416986
0.417026
0.417067
0.417067
0.417107
0.417147
0.417188
0.417228
0.417228
0.417269
0.417309
0.41735
0.41739
0.41739
0.417431
0.417471
0.417512
0.417553
0.417553
0.417593
0.417634
0.417675
0.417716
0.417716
0.417756
0.417797
0.417838
0.417879
0.417879
0.41792
0.417961
0.418002
0.418043
0.418043
0.418084
0.418125
0.418166
0.418207
0.418207
0.418248
0.41829
0.418331
0.418372
0.418372
0.418413
0.418455
0.418496
0.418537
0.418537
0.418579
0.41862
0.418661
0.418703
0.418703
0.418744
0.418786
0.418828
0.418869
0.418869
0.418911
0.418952
0.418994
0.419036
0.419036
0.419078
0.419119
0.419161
0.419203
0.419203
0.419245
0.419287
0.419329
0.419371
0.419371
0.419413
0.419455
0.419497
0.419539
0.419539
0.419581
0.419623
0.419665
0.419707
0.419707
0.41975
0.419792
0.419834
0.419876
0.419876
0.419919
0.419961
0.420004
0.420046
0.420046
0.420088
0.420131
0.420173
0.420216
0.420216
0.420259
0.420301
0.420344
0.420386
0.420386
0.420429
0.420472
0.420515
0.420557
0.420557
0.4206
0.420643
0.420686
0.420729
0.420729
0.420772
0.420815
0.420858
0.420901
0.420901
0.420944
0.420987
0.42103
0.421073
0.421073
0.421116
0.421159
0.421203
0.421246
0.421246
0.421289
0.421332
0.421376
0.421419
0.421419
0.421463
0.421506
0.421549
0.421593
0.421593
0.421636
0.42168
0.421724
0.421767
0.421767
0.421811
0.421855
0.421898
0.421942
0.421942
0.421986
0.422029
0.422073
0.422117
0.422117
0.422161
0.422205
0.422249
0.422293
0.422293
0.422337
0.422381
0.422425
0.422469
0.422469
0.422513
0.422557
0.422601
0.422646
0.422646
0.42269
0.422734
0.422778
0.422823
0.422823
0.422867
0.422911
0.422956
0.423
0.423
0.423045
0.423089
0.423134
0.423178
0.423178
0.423223
0.423268
0.423312
0.423357
0.423357
0.423402
0.423446
0.423491
0.423536
0.423536
0.423581
0.423626
0.42367
0.423715
0.423715
0.42376
0.423805
0.42385
0.423895
0.423895
0.42394
0.423985
0.424031
0.424076
0.424076
0.424121
0.424166
0.424211
0.424257
0.424257
0.424302
0.424347
0.424393
0.424438
0.424438
0.424483
0.424529
0.424574
0.42462
0.42462
0.424665
0.424711
0.424756
0.424802
0.424802
0.424848
0.424893
0.424939
0.424985
0.424985
0.425031
0.425076
0.425122
0.425168
0.425168
0.425214
0.42526
0.425306
0.425352
0.425352
0.425398
0.425444
0.42549
0.425536
0.425536
0.425582
0.425628
0.425675
0.425721
0.425721
0.425767
0.425813
0.42586
0.425906
0.425906
0.425952
0.425999
0.426045
0.426092
0.426092
0.426138
0.426185
0.426231
0.426278
0.426278
0.426324
0.426371
0.426418
0.426464
0.426464
0.426511
0.426558
0.426605
0.426651
0.426651
0.426698
0.426745
0.426792
0.426839
0.426839
0.426886
0.426933
0.42698
0.427027
0.427027
0.427074
0.427121
0.427168
0.427215
0.427215
0.427263
0.42731
0.427357
0.427404
0.427404
0.427452
0.427499
0.427546
0.427594
0.427594
0.427641
0.427689
0.427736
0.427784
0.427784
0.427831
0.427879
0.427926
0.427974
0.427974
0.428022
0.428069
0.428117
0.428165
0.428165
0.428213
0.428261
0.428308
0.428356
0.428356
0.428404
0.428452
0.4285
0.428548
0.428548
0.428596
0.428644
0.428692
0.42874
0.42874
0.428789
0.428837
0.428885
0.428933
0.428933
0.428981
0.42903
0.429078
0.429126
0.429126
0.429175
0.429223
0.429272
0.42932
0.42932
0.429369
0.429417
0.429466
0.429514
0.429514
0.429563
0.429612
0.42966
0.429709
0.429709
0.429758
0.429807
0.429855
0.429904
0.429904
0.429953
0.430002
0.430051
0.4301
0.4301
0.430149
0.430198
0.430247
0.430296
0.430296
0.430345
0.430394
0.430443
0.430493
0.430493
0.430542
0.430591
0.43064
0.43069
0.43069
0.430739
0.430788
0.430838
0.430887
0.430887
0.430937
0.430986
0.431036
0.431085
0.431085
0.431135
0.431184
0.431234
0.431284
0.431284
0.431333
0.431383
0.431433
0.431483
0.431483
0.431532
0.431582
0.431632
0.431682
0.431682
0.431732
0.431782
0.431832
0.431882
0.431882
0.431932
0.431982
0.432032
0.432082
0.432082
0.432133
0.432183
0.432233
0.432283
0.432283
0.432334
0.432384
0.432434
0.432485
0.432485
0.432535
0.432586
0.432636
0.432687
0.432687
0.432737
0.432788
0.432838
0.432889
0.432889
0.432939
0.43299
0.433041
0.433092
0.433092
0.433142
0.433193
0.433244
0.433295
0.433295
0.433346
0.433397
0.433448
0.433499
0.433499
0.43355
0.433601
0.433652
0.433703
0.433703
0.433754
0.433805
0.433856
0.433908
0.433908
0.433959
0.43401
0.434061
0.434113
0.434113
0.434164
0.434216
0.434267
0.434318
0.434318
0.43437
0.434421
0.434473
0.434525
0.434525
0.434576
0.434628
0.43468
0.434731
0.434731
0.434783
0.434835
0.434887
0.434938
0.434938
0.43499
0.435042
0.435094
0.435146
0.435146
0.435198
0.43525
0.435302
0.435354
0.435354
0.435406
0.435458
0.43551
0.435563
0.435563
0.435615
0.435667
0.435719
0.435772
0.435772
0.435824
0.435876
0.435929
0.435981
0.435981
0.436033
0.436086
0.436138
0.436191
0.436191
0.436244
0.436296
0.436349
0.436401
0.436401
0.436454
0.436507
0.43656
0.436612
0.436612
0.436665
0.436718
0.436771
0.436824
0.436824
0.436877
0.43693
0.436983
0.437036
0.437036
0.437089
0.437142
0.437195
0.437248
0.437248
0.437301
0.437354
0.437408
0.437461
0.437461
0.437514
0.437568
0.437621
0.437674
0.437674
0.437728
0.437781
0.437835
0.437888
0.437888
0.437942
0.437995
0.438049
0.438102
0.438102
0.438156
0.43821
0.438263
0.438317
0.438317
0.438371
0.438425
0.438479
0.438532
0.438532
0.438586
0.43864
0.438694
0.438748
0.438748
0.438802
0.438856
0.43891
0.438964
0.438964
0.439019
0.439073
0.439127
0.439181
0.439181
0.439235
0.43929
0.439344
0.439398
0.439398
0.439453
0.439507
0.439562
0.439616
0.439616
0.439671
0.439725
0.43978
0.439834
0.439834
0.439889
0.439943
0.439998
0.440053
0.440053
0.440108
0.440162
0.440217
0.440272
0.440272
0.440327
0.440382
0.440437
0.440492
0.440492
0.440546
0.440602
0.440657
0.440712
0.440712
0.440767
0.440822
0.440877
0.440932
0.440932
0.440987
0.441043
0.441098
0.441153
0.441153
0.441209
0.441264
0.441319
0.441375
0.441375
0.44143
0.441486
0.441541
0.441597
0.441597
0.441652
0.441708
0.441764
0.441819
0.441819
0.441875
0.441931
0.441986
0.442042
0.442042
0.442098
0.442154
0.44221
0.442266
0.442266
0.442322
0.442378
0.442434
0.44249
0.44249
0.442546
0.442602
0.442658
0.442714
0.442714
0.44277
0.442826
0.442883
0.442939
0.442939
0.442995
0.443052
0.443108
0.443164
0.443164
0.443221
0.443277
0.443334
0.44339
0.44339
0.443447
0.443503
0.44356
0.443617
0.443617
0.443673
0.44373
0.443787
0.443843
0.443843
0.4439
0.443957
0.444014
0.444071
0.444071
0.444128
0.444185
0.444242
0.444299
0.444299
0.444356
0.444413
0.44447
0.444527
0.444527
0.444584
0.444641
0.444698
0.444756
0.444756
0.444813
0.44487
0.444927
0.444985
0.444985
0.445042
0.4451
0.445157
0.445215
0.445215
0.445272
0.44533
0.445387
0.445445
0.445445
0.445502
0.44556
0.445618
0.445676
0.445676
0.445733
0.445791
0.445849
0.445907
0.445907
0.445965
0.446023
0.44608
0.446138
0.446138
0.446196
0.446254
0.446313
0.446371
0.446371
0.446429
0.446487
0.446545
0.446603
0.446603
0.446661
0.44672
0.446778
0.446836
0.446836
0.446895
0.446953
0.447012
0.44707
0.44707
0.447128
0.447187
0.447246
0.447304
0.447304
0.447363
0.447421
0.44748
0.447539
0.447539
0.447597
0.447656
0.447715
0.447774
0.447774
0.447833
0.447892
0.44795
0.448009
0.448009
0.448068
0.448127
0.448186
0.448245
0.448245
0.448305
0.448364
0.448423
0.448482
0.448482
0.448541
0.4486
0.44866
0.448719
0.448719
0.448778
0.448838
0.448897
0.448957
0.448957
0.449016
0.449075
0.449135
0.449195
0.449195
0.449254
0.449314
0.449373
0.449433
0.449433
0.449493
0.449552
0.449612
0.449672
0.449672
0.449732
0.449792
0.449852
0.449911
0.449911
0.449971
0.450031
0.450091
0.450151
0.450151
0.450211
0.450272
0.450332
0.450392
0.450392
0.450452
0.450512
0.450572
0.450633
0.450633
0.450693
0.450753
0.450814
0.450874
0.450874
0.450935
0.450995
0.451056
0.451116
0.451116
0.451177
0.451237
0.451298
0.451358
0.451358
0.451419
0.45148
0.451541
0.451601
0.451601
0.451662
0.451723
0.451784
0.451845
0.451845
0.451906
0.451967
0.452028
0.452089
0.452089
0.45215
0.452211
0.452272
0.452333
0.452333
0.452394
0.452455
0.452517
0.452578
0.452578
0.452639
0.4527
0.452762
0.452823
0.452823
0.452885
0.452946
0.453007
0.453069
0.453069
0.45313
0.453192
0.453254
0.453315
0.453315
0.453377
0.453439
0.4535
0.453562
0.453562
0.453624
0.453686
0.453747
0.453809
0.453809
0.453871
0.453933
0.453995
0.454057
0.454057
0.454119
0.454181
0.454243
0.454305
0.454305
0.454367
0.45443
0.454492
0.454554
0.454554
0.454616
0.454679
0.454741
0.454803
0.454803
0.454866
0.454928
0.454991
0.455053
0.455053
0.455116
0.455178
0.455241
0.455303
0.455303
0.455366
0.455429
0.455491
0.455554
0.455554
0.455617
0.45568
0.455742
0.455805
0.455805
0.455868
0.455931
0.455994
0.456057
0.456057
0.45612
0.456183
0.456246
0.456309
0.456309
0.456372
0.456435
0.456499
0.456562
0.456562
0.456625
0.456688
0.456752
0.456815
0.456815
0.456878
0.456942
0.457005
0.457069
0.457069
0.457132
0.457196
0.457259
0.457323
0.457323
0.457386
0.45745
0.457514
0.457577
0.457577
0.457641
0.457705
0.457769
0.457833
0.457833
0.457896
0.45796
0.458024
0.458088
0.458088
0.458152
0.458216
0.45828
0.458344
0.458344
0.458408
0.458473
0.458537
0.458601
0.458601
0.458665
0.458729
0.458794
0.458858
0.458858
0.458922
0.458987
0.459051
0.459116
0.459116
0.45918
0.459245
0.459309
0.459374
0.459374
0.459438
0.459503
0.459568
0.459632
0.459632
0.459697
0.459762
0.459827
0.459891
0.459891
0.459956
0.460021
0.460086
0.460151
0.460151
0.460216
0.460281
0.460346
0.460411
0.460411
0.460476
0.460541
0.460606
0.460672
0.460672
0.460737
0.460802
0.460867
0.460933
0.460933
0.460998
0.461063
0.461129
0.461194
0.461194
0.46126
0.461325
0.461391
0.461456
0.461456
0.461522
0.461588
0.461653
0.461719
0.461719
0.461785
0.46185
0.461916
0.461982
0.461982
0.462048
0.462114
0.46218
0.462246
0.462246
0.462311
0.462377
0.462443
0.46251
0.46251
0.462576
0.462642
0.462708
0.462774
0.462774
0.46284
0.462907
0.462973
0.463039
0.463039
0.463105
0.463172
0.463238
0.463305
0.463305
0.463371
0.463438
0.463504
0.463571
0.463571
0.463637
0.463704
0.463771
0.463837
0.463837
0.463904
0.463971
0.464037
0.464104
0.464104
0.464171
0.464238
0.464305
0.464372
0.464372
0.464439
0.464506
0.464573
0.46464
0.46464
0.464707
0.464774
0.464841
0.464908
0.464908
0.464975
0.465043
0.46511
0.465177
0.465177
0.465245
0.465312
0.465379
0.465447
0.465447
0.465514
0.465582
0.465649
0.465717
0.465717
0.465784
0.465852
0.46592
0.465987
0.465987
0.466055
0.466123
0.46619
0.466258
0.466258
0.466326
0.466394
0.466462
0.46653
0.46653
0.466598
0.466666
0.466734
0.466802
0.466802
0.46687
0.466938
0.467006
0.467074
0.467074
0.467142
0.467211
0.467279
0.467347
0.467347
0.467416
0.467484
0.467552
0.467621
0.467621
0.467689
0.467758
0.467826
0.467895
0.467895
0.467963
0.468032
0.468101
0.468169
0.468169
0.468238
0.468307
0.468375
0.468444
0.468444
0.468513
0.468582
0.468651
0.46872
0.46872
0.468789
0.468858
0.468927
0.468996
0.468996
0.469065
0.469134
0.469203
0.469272
0.469272
0.469341
0.469411
0.46948
0.469549
0.469549
0.469619
0.469688
0.469757
0.469827
0.469827
0.469896
0.469966
0.470035
0.470105
0.470105
0.470174
0.470244
0.470314
0.470383
0.470383
0.470453
0.470523
0.470592
0.470662
0.470662
0.470732
0.470802
0.470872
0.470942
0.470942
0.471012
0.471082
0.471152
0.471222
0.471222
0.471292
0.471362
0.471432
0.471502
0.471502
0.471573
0.471643
0.471713
0.471783
0.471783
0.471854
0.471924
0.471994
0.472065
0.472065
0.472135
0.472206
0.472276
0.472347
0.472347
0.472417
0.472488
0.472559
0.472629
0.472629
0.4727
0.472771
0.472842
0.472912
0.472912
0.472983
0.473054
0.473125
0.473196
0.473196
0.473267
0.473338
0.473409
0.47348
0.47348
0.473551
0.473622
0.473693
0.473765
0.473765
0.473836
0.473907
0.473978
0.47405
0.47405
0.474121
0.474192
0.474264
0.474335
0.474335
0.474407
0.474478
0.47455
0.474621
0.474621
0.474693
0.474764
0.474836
0.474908
0.474908
0.47498
0.475051
0.475123
0.475195
0.475195
0.475267
0.475339
0.47541
0.475482
0.475482
0.475554
0.475626
0.475698
0.475771
0.475771
0.475843
0.475915
0.475987
0.476059
0.476059
0.476131
0.476204
0.476276
0.476348
0.476348
0.476421
0.476493
0.476565
0.476638
0.476638
0.47671
0.476783
0.476855
0.476928
0.476928
0.477001
0.477073
0.477146
0.477219
0.477219
0.477291
0.477364
0.477437
0.47751
0.47751
0.477583
0.477655
0.477728
0.477801
0.477801
0.477874
0.477947
0.47802
0.478093
0.478093
0.478167
0.47824
0.478313
0.478386
0.478386
0.478459
0.478533
0.478606
0.478679
0.478679
0.478753
0.478826
0.478899
0.478973
0.478973
0.479046
0.47912
0.479194
0.479267
0.479267
0.479341
0.479414
0.479488
0.479562
0.479562
0.479636
0.479709
0.479783
0.479857
0.479857
0.479931
0.480005
0.480079
0.480153
0.480153
0.480227
0.480301
0.480375
0.480449
0.480449
0.480523
0.480597
0.480671
0.480746
0.480746
0.48082
0.480894
0.480969
0.481043
0.481043
0.481117
0.481192
0.481266
0.481341
0.481341
0.481415
0.48149
0.481564
0.481639
0.481639
0.481714
0.481788
0.481863
0.481938
0.481938
0.482012
0.482087
0.482162
0.482237
0.482237
0.482312
0.482387
0.482462
0.482537
0.482537
0.482612
0.482687
0.482762
0.482837
0.482837
0.482912
0.482987
0.483063
0.483138
0.483138
0.483213
0.483289
0.483364
0.483439
0.483439
0.483515
0.48359
0.483666
0.483741
0.483741
0.483817
0.483892
0.483968
0.484043
0.484043
0.484119
0.484195
0.484271
0.484346
0.484346
0.484422
0.484498
0.484574
0.48465
0.48465
0.484726
0.484802
0.484878
0.484954
0.484954
0.48503
0.485106
0.485182
0.485258
0.485258
0.485334
0.48541
0.485487
0.485563
0.485563
0.485639
0.485716
0.485792
0.485868
0.485868
0.485945
0.486021
0.486098
0.486174
0.486174
0.486251
0.486328
0.486404
0.486481
0.486481
0.486558
0.486634
0.486711
0.486788
0.486788
0.486865
0.486942
0.487018
0.487095
0.487095
0.487172
0.487249
0.487326
0.487403
0.487403
0.487481
0.487558
0.487635
0.487712
0.487712
0.487789
0.487866
0.487944
0.488021
0.488021
0.488098
0.488176
0.488253
0.488331
0.488331
0.488408
0.488486
0.488563
0.488641
0.488641
0.488718
0.488796
0.488874
0.488951
0.488951
0.489029
0.489107
0.489185
0.489262
0.489262
0.48934
0.489418
0.489496
0.489574
0.489574
0.489652
0.48973
0.489808
0.489886
0.489886
0.489964
0.490043
0.490121
0.490199
0.490199
0.490277
0.490356
0.490434
0.490512
0.490512
0.490591
0.490669
0.490747
0.490826
0.490826
0.490904
0.490983
0.491062
0.49114
0.49114
0.491219
0.491298
0.491376
0.491455
0.491455
0.491534
0.491613
0.491691
0.49177
0.49177
0.491849
0.491928
0.492007
0.492086
0.492086
0.492165
0.492244
0.492323
0.492402
0.492402
0.492482
0.492561
0.49264
0.492719
0.492719
0.492799
0.492878
0.492957
0.493037
0.493037
0.493116
0.493196
0.493275
0.493355
0.493355
0.493434
0.493514
0.493593
0.493673
0.493673
0.493753
0.493832
0.493912
0.493992
0.493992
0.494072
0.494152
0.494232
0.494311
0.494311