<?xml version="1.0"?>
<VTKFile type="UnstructuredGrid" version="0.1" byte_order="LittleEndian">
<UnstructuredGrid>
<Piece NumberOfPoints="5000" NumberOfCells="4000">
<PointData Scalars="Reaction 0">
<DataArray type="Float32" Name="Reaction 0" format="ascii">
0.566485
0.566485
0.566485
0.566485
0.566485
0.566485
0.566485
0.566485
0.566485
0.566485
0.566485
0.566485
0.566485
0.566485
0.566485
0.566485
0.566485
0.566485
0.566485
0.566485
0.566485
0.566485
0.566485
0.566485
0.566485
0.566485
0.566485
0.566485
0.566485
0.566485
0.566485
0.566485
0.566485
0.566485
0.566485
0.566485
0.566485
0.566485
0.566485
0.566485
0.566485
0.566485
0.566485
0.566485
0.566485
0.566485
0.566485
0.566485
0.566486
0.566486
0.566486
0.566486
0.566486
0.566486
0.566486
0.566486
0.566486
0.566486
0.566486
0.566486
0.566486
0.566486
0.566486
0.566486
0.566486
0.566486
0.566486
0.566486
0.566486
0.566486
0.566486
0.566486
0.566486
0.566486
0.566486
0.566486
0.566486
0.566486
0.566486
0.566486
0.566486
0.566487
0.566487
0.566487
0.566487
0.566487
0.566487
0.566487
0.566487
0.566487
0.566487
0.566487
0.566487
0.566487
0.566487
0.566487
0.566487
0.566487
0.566487
0.566487
0.566487
0.566487
0.566487
0.566488
0.566488
0.566488
0.566488
0.566488
0.566488
0.566488
0.566488
0.566488
0.566488
0.566488
0.566488
0.566488
0.566488
0.566488
0.566488
0.566488
0.566488
0.566488
0.566489
0.566489
0.566489
0.566489
0.566489
0.566489
0.566489
0.566489
0.566489
0.566489
0.566489
0.566489
0.566489
0.566489
0.566489
0.56649
0.56649
0.56649
0.56649
0.56649
0.56649
0.56649
0.56649
0.56649
0.56649
0.56649
0.56649
0.56649
0.56649
0.56649
0.566491
0.566491
0.566491
0.566491
0.566491
0.566491
0.566491
0.566491
0.566491
0.566491
0.566491
0.566491
0.566492
0.566492
0.566492
0.566492
0.566492
0.566492
0.566492
0.566492
0.566492
0.566492
0.566492
0.566492
0.566492
0.566493
0.566493
0.566493
0.566493
0.566493
0.566493
0.566493
0.566493
0.566493
0.566493
0.566493
0.566494
0.566494
0.566494
0.566494
0.566494
0.566494
0.566494
0.566494
0.566494
0.566494
0.566494
0.566495
0.566495
0.566495
0.566495
0.566495
0.566495
0.566495
0.566495
0.566495
0.566495
0.566496
0.566496
0.566496
0.566496
0.566496
0.566496
0.566496
0.566496
0.566496
0.566496
0.566497
0.566497
0.566497
0.566497
0.566497
0.566497
0.566497
0.566497
0.566497
0.566498
0.566498
0.566498
0.566498
0.566498
0.566498
0.566498
0.566498
0.566498
0.566499
0.566499
0.566499
0.566499
0.566499
0.566499
0.566499
0.566499
0.566499
0.5665
0.5665
0.5665
0.5665
0.5665
0.5665
0.5665
0.566501
0.566501
0.566501
0.566501
0.566501
0.566501
0.566501
0.566501
0.566501
0.566502
0.566502
0.566502
0.566502
0.566502
0.566502
0.566502
0.566503
0.566503
0.566503
0.566503
0.566503
0.566503
0.566503
0.566503
0.566504
0.566504
0.566504
0.566504
0.566504
0.566504
0.566504
0.566505
0.566505
0.566505
0.566505
0.566505
0.566505
0.566505
0.566505
0.566506
0.566506
0.566506
0.566506
0.566506
0.566506
0.566507
0.566507
0.566507
0.566507
0.566507
0.566507
0.566507
0.566507
0.566508
0.566508
0.566508
0.566508
0.566508
0.566508
0.566509
0.566509
0.566509
0.566509
0.566509
0.566509
0.56651
0.56651
0.56651
0.56651
0.56651
0.56651
0.566511
0.566511
0.566511
0.566511
0.566511
0.566511
0.566511
0.566512
0.566512
0.566512
0.566512
0.566512
0.566512
0.566513
0.566513
0.566513
0.566513
0.566513
0.566513
0.566514
0.566514
0.566514
0.566514
0.566514
0.566514
0.566515
0.566515
0.566515
0.566515
0.566515
0.566515
0.566515
0.566516
0.566516
0.566516
0.566516
0.566516
0.566517
0.566517
0.566517
0.566517
0.566517
0.566517
0.566518
0.566518
0.566518
0.566518
0.566518
0.566519
0.566519
0.566519
0.566519
0.566519
0.56652
0.56652
0.56652
0.56652
0.56652
0.56652
0.566521
0.566521
0.566521
0.566521
0.566521
0.566522
0.566522
0.566522
0.566522
0.566522
0.566523
0.566523
0.566523
0.566523
0.566523
0.566523
0.566524
0.566524
0.566524
0.566524
0.566524
0.566525
0.566525
0.566525
0.566525
0.566525
0.566526
0.566526
0.566526
0.566526
0.566526
0.566527
0.566527
0.566527
0.566527
0.566528
0.566528
0.566528
0.566528
0.566528
0.566529
0.566529
0.566529
0.566529
0.566529
0.56653
0.56653
0.56653
0.56653
0.56653
0.566531
0.566531
0.566531
0.566531
0.566531
0.566532
0.566532
0.566532
0.566532
0.566533
0.566533
0.566533
0.566533
0.566533
0.566534
0.566534
0.566534
0.566534
0.566534
0.566535
0.566535
0.566535
0.566535
0.566536
0.566536
0.566536
0.566536
0.566536
0.566537
0.566537
0.566537
0.566538
0.566538
0.566538
0.566538
0.566538
0.566539
0.566539
0.566539
0.566539
0.56654
0.56654
0.56654
0.56654
0.56654
0.566541
0.566541
0.566541
0.566541
0.566542
0.566542
0.566542
0.566542
0.566542
0.566543
0.566543
0.566543
0.566543
0.566544
0.566544
0.566544
0.566545
0.566545
0.566545
0.566545
0.566545
0.566546
0.566546
0.566546
0.566546
0.566547
0.566547
0.566547
0.566547
0.566548
0.566548
0.566548
0.566548
0.566549
0.566549
0.566549
0.56655
0.56655
0.56655
0.56655
0.56655
0.566551
0.566551
0.566551
0.566551
0.566552
0.566552
0.566552
0.566552
0.566553
0.566553
0.566553
0.566553
0.566554
0.566554
0.566554
0.566555
0.566555
0.566555
0.566555
0.566556
0.566556
0.566556
0.566556
0.566557
0.566557
0.566557
0.566557
0.566558
0.566558
0.566558
0.566559
0.566559
0.566559
0.566559
0.56656
0.56656
0.56656
0.56656
0.566561
0.566561
0.566561
0.566561
0.566562
0.566562
0.566562
0.566563
0.566563
0.566563
0.566564
0.566564
0.566564
0.566564
0.566565
0.566565
0.566565
0.566566
0.566566
0.566566
0.566566
0.566567
0.566567
0.566567
0.566567
0.566568
0.566568
0.566568
0.566568
0.566569
0.566569
0.56657
0.56657
0.56657
0.56657
0.566571
0.566571
0.566571
0.566571
0.566572
0.566572
0.566573
0.566573
0.566573
0.566573
0.566574
0.566574
0.566574
0.566574
0.566575
0.566575
0.566575
0.566576
0.566576
0.566576
0.566577
0.566577
0.566577
0.566577
0.566578
0.566578
0.566579
0.566579
0.566579
0.566579
0.56658
0.56658
0.56658
0.56658
0.566581
0.566581
0.566582
0.566582
0.566582
0.566582
0.566583
0.566583
0.566584
0.566584
0.566584
0.566584
0.566585
0.566585
0.566585
0.566586
0.566586
0.566586
0.566587
0.566587
0.566587
0.566588
0.566588
0.566588
0.566588
0.566589
0.566589
0.56659
0.56659
0.56659
0.56659
0.566591
0.566591
0.566592
0.566592
0.566592
0.566592
0.566593
0.566593
0.566593
0.566594
0.566594
0.566594
0.566595
0.566595
0.566595
0.566596
0.566596
0.566597
0.566597
0.566597
0.566597
0.566598
0.566598
0.566598
0.566599
0.566599
0.5666
0.5666
0.5666
0.5666
0.566601
0.566601
0.566602
0.566602
0.566602
0.566603
0.566603
0.566603
0.566603
0.566604
0.566604
0.566605
0.566605
0.566605
0.566606
0.566606
0.566606
0.566607
0.566607
0.566607
0.566608
0.566608
0.566609
0.566609
0.566609
0.56661
0.56661
0.56661
0.56661
0.566611
0.566611
0.566612
0.566612
0.566612
0.566613
0.566613
0.566614
0.566614
0.566614
0.566614
0.566615
0.566615
0.566616
0.566616
0.566616
0.566617
0.566617
0.566618
0.566618
0.566618
0.566619
0.566619
0.56662
0.56662
0.56662
0.56662
0.566621
0.566621
0.566621
0.566622
0.566622
0.566623
0.566623
0.566623
0.566624
0.566624
0.566625
0.566625
0.566625
0.566626
0.566626
0.566627
0.566627
0.566627
0.566628
0.566628
0.566628
0.566629
0.566629
0.566629
0.56663
0.56663
0.566631
0.566631
0.566631
0.566632
0.566632
0.566633
0.566633
0.566633
0.566634
0.566634
0.566635
0.566635
0.566635
0.566636
0.566636
0.566637
0.566637
0.566637
0.566638
0.566638
0.566639
0.566639
0.566639
0.56664
0.56664
0.566641
0.566641
0.566641
0.566642
0.566642
0.566643
0.566643
0.566643
0.566644
0.566644
0.566645
0.566645
0.566645
0.566646
0.566646
0.566647
0.566647
0.566647
0.566648
0.566648
0.566649
0.566649
0.566649
0.56665
0.56665
0.566651
0.566651
0.566651
0.566652
0.566652
0.566653
0.566653
0.566653
0.566654
0.566655
0.566655
0.566655
0.566656
0.566656
0.566657
0.566657
0.566657
0.566658
0.566658
0.566659
0.566659
0.566659
0.56666
0.56666
0.566661
0.566661
0.566661
0.566662
0.566662
0.566663
0.566664
0.566664
0.566664
0.566665
0.566665
0.566666
0.566666
0.566666
0.566667
0.566667
0.566668
0.566668
0.566668
0.566669
0.566669
0.56667
0.56667
0.566671
0.566671
0.566672
0.566672
0.566672
0.566673
0.566673
0.566674
0.566674
0.566674
0.566675
0.566676
0.566676
0.566677
0.566677
0.566677
0.566678
0.566678
0.566679
0.566679
0.566679
0.56668
0.566681
0.566681
0.566681
0.566682
0.566682
0.566683
0.566683
0.566683
0.566684
0.566685
0.566685
0.566686
0.566686
0.566686
0.566687
0.566687
0.566688
0.566688
0.566689
0.566689
0.56669
0.56669
0.56669
0.566691
0.566692
0.566692
0.566693
0.566693
0.566693
0.566694
0.566694
0.566695
0.566695
0.566696
0.566696
0.566697
0.566697
0.566697
0.566698
0.566699
0.566699
0.5667
0.5667
0.5667
0.566701
0.566701
0.566702
0.566702
0.566703
0.566703
0.566704
0.566704
0.566704
0.566705
0.566706
0.566706
0.566707
0.566707
0.566707
0.566708
0.566709
0.566709
0.566709
0.56671
0.566711
0.566711
0.566712
0.566712
0.566712
0.566713
0.566714
0.566714
0.566714
0.566715
0.566715
0.566716
0.566717
0.566717
0.566717
0.566718
0.566719
0.566719
0.566719
0.56672
0.56672
0.566721
0.566722
0.566722
0.566722
0.566723
0.566724
0.566724
0.566724
0.566725
0.566725
0.566726
0.566727
0.566727
0.566727
0.566728
0.566729
0.566729
0.566729
0.56673
0.566731
0.566731
0.566732
0.566732
0.566732
0.566733
0.566734
0.566734
0.566734
0.566735
0.566736
0.566736
0.566737
0.566737
0.566738
0.566738
0.566739
0.56674
0.56674
0.56674
0.566741
0.566741
0.566742
0.566742
0.566743
0.566743
0.566744
0.566745
0.566745
0.566745
0.566746
0.566747
0.566747
0.566747
0.566748
0.566749
0.566749
0.56675
0.56675
0.566751
0.566751
0.566752
0.566753
0.566753
0.566753
0.566754
0.566755
0.566755
0.566755
0.566756
0.566757
0.566758
0.566758
0.566758
0.566759
0.56676
0.56676
0.566761
0.566761
0.566762
0.566762
0.566763
0.566764
0.566764
0.566764
0.566765
0.566766
0.566766
0.566766
0.566767
0.566768
0.566768
0.566769
0.566769
0.56677
0.56677
0.566771
0.566772
0.566772
0.566773
0.566773
0.566774
0.566775
0.566775
0.566775
0.566776
0.566777
0.566777
0.566777
0.566778
0.566779
0.56678
0.56678
0.56678
0.566781
0.566782
0.566782
0.566783
0.566783
0.566784
0.566785
0.566785
0.566786
0.566786
0.566787
0.566787
0.566788
0.566789
0.566789
0.56679
0.56679
0.566791
0.566792
0.566792
0.566792
0.566793
0.566794
0.566795
0.566795
0.566795
0.566796
0.566797
0.566798
0.566798
0.566798
0.566799
0.5668
0.5668
0.5668
0.566801
0.566802
0.566803
0.566803
0.566803
0.566804
0.566805
0.566806
0.566806
0.566806
0.566807
0.566808
0.566809
0.566809
0.566809
0.56681
0.566811
0.566812
0.566812
0.566812
0.566813
0.566814
0.566815
0.566815
0.566815
0.566816
0.566817
0.566818
0.566818
0.566818
0.566819
0.56682
0.566821
0.566821
0.566821
0.566822
0.566823
0.566824
0.566824
0.566824
0.566825
0.566826
0.566827
0.566828
0.566828
0.566828
0.566829
0.56683
0.566831
0.566831
0.566831
0.566832
0.566833
0.566834
0.566834
0.566834
0.566835
0.566836
0.566837
0.566837
0.566838
0.566838
0.566839
0.56684
0.56684
0.566841
0.566841
0.566842
0.566843
0.566843
0.566844
0.566845
0.566845
0.566846
0.566846
0.566847
0.566848
0.566849
0.566849
0.566849
0.56685
0.566851
0.566852
0.566853
0.566853
0.566853
0.566854
0.566855
0.566856
0.566856
0.566857
0.566857
0.566858
0.566859
0.566859
0.56686
0.566861
0.566861
0.566862
0.566862
0.566863
0.566864
0.566865
0.566866
0.566866
0.566866
0.566867
0.566868
0.566869
0.566869
0.56687
0.56687
0.566871
0.566872
0.566872
0.566873
0.566874
0.566875
0.566875
0.566875
0.566876
0.566877
0.566878
0.566879
0.566879
0.56688
0.56688
0.566881
0.566882
0.566882
0.566883
0.566884
0.566885
0.566885
0.566885
0.566886
0.566887
0.566888
0.566889
0.566889
0.56689
0.56689
0.566891
0.566892
0.566892
0.566893
0.566894
0.566895
0.566896
0.566896
0.566896
0.566897
0.566898
0.566899
0.566899
0.5669
0.566901
0.566902
0.566902
0.566902
0.566903
0.566904
0.566905
0.566906
0.566906
0.566907
0.566908
0.566908
0.566909
0.566909
0.56691
0.566911
0.566912
0.566913
0.566913
0.566914
0.566915
0.566915
0.566916
0.566916
0.566917
0.566918
0.566919
0.56692
0.56692
0.566921
0.566922
0.566922
0.566923
0.566923
0.566924
0.566925
0.566926
0.566927
0.566927
0.566928
0.566929
0.56693
0.56693
0.56693
0.566931
0.566932
0.566933
0.566934
0.566934
0.566935
0.566936
0.566937
0.566938
0.566938
0.566938
0.566939
0.56694
0.566941
0.566941
0.566942
0.566943
0.566944
0.566945
0.566945
0.566946
0.566947
0.566948
0.566949
0.566949
0.566949
0.56695
0.566951
0.566952
0.566952
0.566953
0.566954
0.566955
0.566956
0.566956
0.566957
0.566958
0.566959
0.56696
0.56696
0.566961
0.566961
0.566962
0.566963
0.566963
0.566964
0.566965
0.566966
0.566967
0.566967
0.566968
0.566969
0.56697
0.566971
0.566971
0.566972
0.566973
0.566974
0.566974
0.566974
0.566975
0.566976
0.566977
0.566978
0.566978
0.566979
0.56698
0.566981
0.566982
0.566982
0.566983
0.566984
0.566985
0.566986
0.566986
0.566987
0.566988
0.566989
0.56699
0.56699
0.566991
0.566992
0.566993
0.566994
0.566994
0.566995
0.566996
0.566997
0.566998
0.566998
0.566998
0.566999
0.567
0.567001
0.567001
0.567002
0.567003
0.567004
0.567005
0.567005
0.567006
0.567007
0.567008
0.567009
0.567009
0.56701
0.567011
0.567012
0.567013
0.567013
0.567014
0.567015
0.567016
0.567017
0.567017
0.567018
0.567019
0.56702
0.567021
0.567021
0.567022
0.567023
0.567024
0.567025
0.567025
0.567026
0.567027
0.567028
0.567029
0.567029
0.56703
0.567031
0.567032
0.567033
0.567033
0.567034
0.567035
0.567036
0.567037
0.567037
0.567038
0.567039
0.56704
0.567041
0.567041
0.567042
0.567043
0.567044
0.567045
0.567045
0.567046
0.567047
0.567048
0.567049
0.567049
0.56705
0.567051
0.567053
0.567054
0.567054
0.567055
0.567056
0.567057
0.567058
0.567058
0.567059
0.56706
0.567061
0.567062
0.567062
0.567063
0.567064
0.567065
0.567066
0.567066
0.567067
0.567068
0.567069
0.56707
0.56707
0.567071
0.567072
0.567073
0.567074
0.567074
0.567075
0.567077
0.567078
0.567079
0.567079
0.56708
0.567081
0.567082
0.567083
0.567083
0.567084
0.567085
0.567086
0.567087
0.567087
0.567088
0.567089
0.56709
0.567091
0.567091
0.567093
0.567094
0.567095
0.567096
0.567096
0.567097
0.567098
0.567099
0.5671
0.5671
0.567101
0.567102
0.567103
0.567104
0.567104
0.567106
0.567107
0.567108
0.567109
0.567109
0.56711
0.567111
0.567112
0.567113
0.567113
0.567114
0.567115
0.567116
0.567117
0.567117
0.567119
0.56712
0.567121
0.567122
0.567122
0.567123
0.567124
0.567125
0.567126
0.567126
0.567127
0.567129
0.56713
0.567131
0.567131
0.567132
0.567133
0.567134
0.567135
0.567135
0.567136
0.567138
0.567139
0.56714
0.56714
0.567141
0.567142
0.567143
0.567144
0.567144
0.567145
0.567147
0.567148
0.567149
0.567149
0.56715
0.567151
0.567152
0.567153
0.567153
0.567154
0.567156
0.567157
0.567158
0.567158
0.567159
0.56716
0.567161
0.567163
0.567163
0.567164
0.567165
0.567166
0.567167
0.567167
0.567168
0.567169
0.567171
0.567172
0.567172
0.567173
0.567174
0.567175
0.567176
0.567176
0.567178
0.567179
0.56718
0.567181
0.567181
0.567182
0.567183
0.567185
0.567186
0.567186
0.567187
0.567188
0.567189
0.56719
0.56719
0.567192
0.567193
0.567194
0.567195
0.567195
0.567196
0.567198
0.567199
0.5672
0.5672
0.567201
0.567202
0.567203
0.567205
0.567205
0.567206
0.567207
0.567208
0.567209
0.567209
0.567211
0.567212
0.567213
0.567214
0.567214
0.567215
0.567217
0.567218
0.567219
0.567219
0.56722
0.567221
0.567223
0.567224
0.567224
0.567225
0.567226
0.567228
0.567229
0.567229
0.56723
0.567231
0.567232
0.567234
0.567234
0.567235
0.567236
0.567237
0.567239
0.567239
0.56724
0.567241
0.567242
0.567244
0.567244
0.567245
0.567246
0.567247
0.567248
0.567248
0.56725
0.567251
0.567252
0.567253
0.567253
0.567255
0.567256
0.567257
0.567258
0.567258
0.56726
0.567261
0.567262
0.567263
0.567263
0.567265
0.567266
0.567267
0.567268
0.567268
0.56727
0.567271
0.567272
0.567273
0.567273
0.567275
0.567276
0.567277
0.567279
0.567279
0.56728
0.567281
0.567282
0.567284
0.567284
0.567285
0.567286
0.567287
0.567289
0.567289
0.56729
0.567291
0.567293
0.567294
0.567294
0.567295
0.567296
0.567298
0.567299
0.567299
0.5673
0.567302
0.567303
0.567304
0.567304
0.567305
0.567307
0.567308
0.567309
0.567309
0.567311
0.567312
0.567313
0.567315
0.567315
0.567316
0.567317
0.567319
0.56732
0.56732
0.567321
0.567322
0.567324
0.567325
0.567325
0.567326
0.567328
0.567329
0.56733
0.56733
0.567332
0.567333
0.567334
0.567336
0.567336
0.567337
0.567338
0.56734
0.567341
0.567341
0.567342
0.567344
0.567345
0.567346
0.567346
0.567348
0.567349
0.56735
0.567352
0.567352
0.567353
0.567354
0.567356
0.567357
0.567357
0.567358
0.56736
0.567361
0.567362
0.567362
0.567364
0.567365
0.567367
0.567368
0.567368
0.567369
0.567371
0.567372
0.567373
0.567373
0.567375
0.567376
0.567377
0.567379
0.567379
0.56738
0.567381
0.567383
0.567384
0.567384
0.567386
0.567387
0.567388
0.56739
0.56739
0.567391
0.567393
0.567394
0.567395
0.567395
0.567397
0.567398
0.5674
0.567401
0.567401
0.567402
0.567404
0.567405
0.567406
0.567406
0.567408
0.567409
0.567411
0.567412
0.567412
0.567413
0.567415
0.567416
0.567418
0.567418
0.567419
0.56742
0.567422
0.567423
0.567423
0.567425
0.567426
0.567428
0.567429
0.567429
0.56743
0.567432
0.567433
0.567435
0.567435
0.567436
0.567438
0.567439
0.56744
0.56744
0.567442
0.567443
0.567445
0.567446
0.567446
0.567448
0.567449
0.56745
0.567452
0.567452
0.567453
0.567455
0.567456
0.567458
0.567458
0.567459
0.567461
0.567462
0.567463
0.567463
0.567465
0.567466
0.567468
0.567469
0.567469
0.567471
0.567472
0.567474
0.567475
0.567475
0.567477
0.567478
0.56748
0.567481
0.567481
0.567483
0.567484
0.567486
0.567487
0.567487
0.567488
0.56749
0.567491
0.567493
0.567493
0.567494
0.567496
0.567497
0.567499
0.567499
0.5675
0.567502
0.567503
0.567505
0.567505
0.567506
0.567508
0.567509
0.567511
0.567511
0.567512
0.567514
0.567515
0.567517
0.567517
0.567518
0.56752
0.567521
0.567523
0.567523
0.567524
0.567526
0.567527
0.567529
0.567529
0.56753
0.567532
0.567533
0.567535
0.567535
0.567537
0.567538
0.56754
0.567541
0.567541
0.567543
0.567544
0.567546
0.567547
0.567547
0.567549
0.56755
0.567552
0.567553
0.567553
0.567555
0.567557
0.567558
0.56756
0.56756
0.567561
0.567563
0.567564
0.567566
0.567566
0.567567
0.567569
0.567571
0.567572
0.567572
0.567574
0.567575
0.567577
0.567578
0.567578
0.56758
0.567581
0.567583
0.567585
0.567585
0.567586
0.567588
0.567589
0.567591
0.567591
0.567592
0.567594
0.567596
0.567597
0.567597
0.567599
0.5676
0.567602
0.567604
0.567604
0.567605
0.567607
0.567608
0.56761
0.56761
0.567612
0.567613
0.567615
0.567616
0.567616
0.567618
0.56762
0.567621
0.567623
0.567623
0.567624
0.567626
0.567628
0.567629
0.567629
0.567631
0.567632
0.567634
0.567636
0.567636
0.567637
0.567639
0.567641
0.567642
0.567642
0.567644
0.567646
0.567647
0.567649
0.567649
0.56765
0.567652
0.567654
0.567655
0.567655
0.567657
0.567659
0.56766
0.567662
0.567662
0.567664
0.567665
0.567667
0.567668
0.567668
0.56767
0.567672
0.567673
0.567675
0.567675
0.567677
0.567678
0.56768
0.567682
0.567682
0.567684
0.567685
0.567687
0.567689
0.567689
0.56769
0.567692
0.567694
0.567695
0.567695
0.567697
0.567699
0.5677
0.567702
0.567702
0.567704
0.567705
0.567707
0.567709
0.567709
0.56771
0.567712
0.567714
0.567715
0.567715
0.567717
0.567719
0.567721
0.567722
0.567722
0.567724
0.567726
0.567727
0.567729
0.567729
0.567731
0.567733
0.567734
0.567736
0.567736
0.567738
0.567739
0.567741
0.567743
0.567743
0.567745
0.567746
0.567748
0.56775
0.56775
0.567752
0.567753
0.567755
0.567757
0.567757
0.567759
0.56776
0.567762
0.567764
0.567764
0.567766
0.567767
0.567769
0.567771
0.567771
0.567773
0.567774
0.567776
0.567778
0.567778
0.56778
0.567781
0.567783
0.567785
0.567785
0.567787
0.567788
0.56779
0.567792
0.567792
0.567794
0.567795
0.567797
0.567799
0.567799
0.567801
0.567803
0.567804
0.567806
0.567806
0.567808
0.56781
0.567812
0.567813
0.567813
0.567815
0.567817
0.567819
0.567821
0.567821
0.567822
0.567824
0.567826
0.567828
0.567828
0.56783
0.567831
0.567833
0.567835
0.567835
0.567837
0.567839
0.56784
0.567842
0.567842
0.567844
0.567846
0.567848
0.56785
0.56785
0.567851
0.567853
0.567855
0.567857
0.567857
0.567859
0.567861
0.567863
0.567864
0.567864
0.567866
0.567868
0.56787
0.567872
0.567872
0.567874
0.567875
0.567877
0.567879
0.567879
0.567881
0.567883
0.567885
0.567887
0.567887
0.567888
0.56789
0.567892
0.567894
0.567894
0.567896
0.567898
0.5679
0.567902
0.567902
0.567903
0.567905
0.567907
0.567909
0.567909
0.567911
0.567913
0.567915
0.567917
0.567917
0.567919
0.56792
0.567922
0.567924
0.567924
0.567926
0.567928
0.56793
0.567932
0.567932
0.567934
0.567936
0.567938
0.56794
0.56794
0.567941
0.567943
0.567945
0.567947
0.567947
0.567949
0.567951
0.567953
0.567955
0.567955
0.567957
0.567959
0.567961
0.567963
0.567963
0.567965
0.567967
0.567968
0.56797
0.56797
0.567972
0.567974
0.567976
0.567978
0.567978
0.56798
0.567982
0.567984
0.567986
0.567986
0.567988
0.56799
0.567992
0.567994
0.567994
0.567996
0.567998
0.568
0.568002
0.568002
0.568004
0.568006
0.568008
0.56801
0.56801
0.568012
0.568014
0.568016
0.568018
0.568018
0.56802
0.568022
0.568024
0.568026
0.568026
0.568028
0.56803
0.568032
0.568034
0.568034
0.568036
0.568038
0.56804
0.568042
0.568042
0.568044
0.568046
0.568048
0.56805
0.56805
0.568052
0.568054
0.568056
0.568058
0.568058
0.56806
0.568062
0.568064
0.568066
0.568066
0.568068
0.56807
0.568072
0.568074
0.568074
0.568076
0.568078
0.56808
0.568082
0.568082
0.568084
0.568087
0.568089
0.568091
0.568091
0.568093
0.568095
0.568097
0.568099
0.568099
0.568101
0.568103
0.568105
0.568107
0.568107
0.568109
0.568111
0.568113
0.568115
0.568115
0.568118
0.56812
0.568122
0.568124
0.568124
0.568126
0.568128
0.56813
0.568132
0.568132
0.568134
0.568136
0.568139
0.568141
0.568141
0.568143
0.568145
0.568147
0.568149
0.568149
0.568151
0.568153
0.568155
0.568158
0.568158
0.56816
0.568162
0.568164
0.568166
0.568166
0.568168
0.56817
0.568173
0.568175
0.568175
0.568177
0.568179
0.568181
0.568183
0.568183
0.568185
0.568188
0.56819
0.568192
0.568192
0.568194
0.568196
0.568198
0.568201
0.568201
0.568203
0.568205
0.568207
0.568209
0.568209
0.568211
0.568214
0.568216
0.568218
0.568218
0.56822
0.568222
0.568225
0.568227
0.568227
0.568229
0.568231
0.568233
0.568236
0.568236
0.568238
0.56824
0.568242
0.568244
0.568244
0.568246
0.568249
0.568251
0.568253
0.568253
0.568255
0.568258
0.56826
0.568262
0.568262
0.568264
0.568267
0.568269
0.568271
0.568271
0.568273
0.568275
0.568278
0.56828
0.56828
0.568282
0.568284
0.568287
0.568289
0.568289
0.568291
0.568293
0.568296
0.568298
0.568298
0.5683
0.568302
0.568305
0.568307
0.568307
0.568309
0.568312
0.568314
0.568316
0.568316
0.568318
0.568321
0.568323
0.568325
0.568325
0.568328
0.56833
0.568332
0.568334
0.568334
0.568337
0.568339
0.568341
0.568344
0.568344
0.568346
0.568348
0.56835
0.568353
0.568353
0.568355
0.568357
0.56836
0.568362
0.568362
0.568364
0.568367
0.568369
0.568371
0.568371
0.568374
0.568376
0.568378
0.568381
0.568381
0.568383
0.568385
0.568388
0.56839
0.56839
0.568392
0.568395
0.568397
0.568399
0.568399
0.568402
0.568404
0.568407
0.568409
0.568409
0.568411
0.568414
0.568416
0.568418
0.568418
0.568421
0.568423
0.568426
0.568428
0.568428
0.56843
0.568433
0.568435
0.568438
0.568438
0.56844
0.568442
0.568445
0.568447
0.568447
0.56845
0.568452
0.568454
0.568457
0.568457
0.568459
0.568462
0.568464
0.568466
0.568466
0.568469
0.568471
0.568474
0.568476
0.568476
0.568479
0.568481
0.568483
0.568486
0.568486
0.568488
0.568491
0.568493
0.568496
0.568496
0.568498
0.568501
0.568503
0.568505
0.568505
0.568508
0.56851
0.568513
0.568515
0.568515
0.568518
0.56852
0.568523
0.568525
0.568525
0.568528
0.56853
0.568533
0.568535
0.568535
0.568538
0.56854
0.568543
0.568545
0.568545
0.568548
0.56855
0.568553
0.568555
0.568555
0.568558
0.56856
0.568563
0.568565
0.568565
0.568568
0.56857
0.568573
0.568575
0.568575
0.568578
0.56858
0.568583
0.568585
0.568585
0.568588
0.568591
0.568593
0.568596
0.568596
0.568598
0.568601
0.568603
0.568606
0.568606
0.568608
0.568611
0.568614
0.568616
0.568616
0.568619
0.568621
0.568624
0.568626
0.568626
0.568629
0.568632
0.568634
0.568637
0.568637
0.568639
0.568642
0.568644
0.568647
0.568647
0.56865
0.568652
0.568655
0.568657
0.568657
0.56866
0.568663
0.568665
0.568668
0.568668
0.568671
0.568673
0.568676
0.568678
0.568678
0.568681
0.568684
0.568686
0.568689
0.568689
0.568692
0.568694
0.568697
0.568699
0.568699
0.568702
0.568705
0.568707
0.56871
0.56871
0.568713
0.568715
0.568718
0.568721
0.568721
0.568723
0.568726
0.568729
0.568731
0.568731
0.568734
0.568737
0.56874
0.568742
0.568742
0.568745
0.568748
0.56875
0.568753
0.568753
0.568756
0.568758
0.568761
0.568764
0.568764
0.568766
0.568769
0.568772
0.568775
0.568775
0.568777
0.56878
0.568783
0.568786
0.568786
0.568788
0.568791
0.568794
0.568796
0.568796
0.568799
0.568802
0.568805
0.568807
0.568807
0.56881
0.568813
0.568816
0.568819
0.568819
0.568821
0.568824
0.568827
0.56883
0.56883
0.568832
0.568835
0.568838
0.568841
0.568841
0.568844
0.568846
0.568849
0.568852
0.568852
0.568855
0.568857
0.56886
0.568863
0.568863
0.568866
0.568869
0.568871
0.568874
0.568874
0.568877
0.56888
0.568883
0.568886
0.568886
0.568888
0.568891
0.568894
0.568897
0.568897
0.5689
0.568903
0.568905
0.568908
0.568908
0.568911
0.568914
0.568917
0.56892
0.56892
0.568923
0.568925
0.568928
0.568931
0.568931
0.568934
0.568937
0.56894
0.568943
0.568943
0.568946
0.568949
0.568951
0.568954
0.568954
0.568957
0.56896
0.568963
0.568966
0.568966
0.568969
0.568972
0.568975
0.568978
0.568978
0.56898
0.568983
0.568986
0.568989
0.568989
0.568992
0.568995
0.568998
0.569001
0.569001
0.569004
0.569007
0.56901
0.569013
0.569013
0.569016
0.569019
0.569022
0.569025
0.569025
0.569028
0.569031
0.569034
0.569037
0.569037
0.569039
0.569042
0.569045
0.569048
0.569048
0.569051
0.569054
0.569057
0.56906
0.56906
0.569063
0.569066
0.569069
0.569072
0.569072
0.569075
0.569078
0.569081
0.569085
0.569085
0.569088
0.569091
0.569094
0.569097
0.569097
0.5691
0.569103
0.569106
0.569109
0.569109
0.569112
0.569115
0.569118
0.569121
0.569121
0.569124
0.569127
0.56913
0.569133
0.569133
0.569136
0.569139
0.569143
0.569146
0.569146
0.569149
0.569152
0.569155
0.569158
0.569158
0.569161
0.569164
0.569167
0.56917
0.56917
0.569174
0.569177
0.56918
0.569183
0.569183
0.569186
0.569189
0.569192
0.569195
0.569195
0.569198
0.569202
0.569205
0.569208
0.569208
0.569211
0.569214
0.569217
0.569221
0.569221
0.569224
0.569227
0.56923
0.569233
0.569233
0.569236
0.56924
0.569243
0.569246
0.569246
0.569249
0.569252
0.569255
0.569259
0.569259
0.569262
0.569265
0.569268
0.569271
0.569271
0.569275
0.569278
0.569281
0.569284
0.569284
0.569288
0.569291
0.569294
0.569297
0.569297
0.5693
0.569304
0.569307
0.56931
0.56931
0.569313
0.569317
0.56932
0.569323
0.569323
0.569326
0.56933
0.569333
0.569336
0.569336
0.56934
0.569343
0.569346
0.569349
0.569349
0.569353
0.569356
0.569359
0.569363
0.569363
0.569366
0.569369
0.569372
0.569376
0.569376
0.569379
0.569382
0.569386
0.569389
0.569389
0.569392
0.569396
0.569399
0.569402
0.569402
0.569406
0.569409
0.569412
0.569416
0.569416
0.569419
0.569422
0.569426
0.569429
0.569429
0.569433
0.569436
0.569439
0.569443
0.569443
0.569446
0.569449
0.569453
0.569456
0.569456
0.56946
0.569463
0.569466
0.56947
0.56947
0.569473
0.569477
0.56948
0.569484
0.569484
0.569487
0.56949
0.569494
0.569497
0.569497
0.569501
0.569504
0.569508
0.569511
0.569511
0.569514
0.569518
0.569521
0.569525
0.569525
0.569528
0.569532
0.569535
0.569539
0.569539
0.569542
0.569546
0.569549
0.569553
0.569553
0.569556
0.56956
0.569563
0.569567
0.569567
0.56957
0.569574
0.569577
0.569581
0.569581
0.569584
0.569588
0.569591
0.569595
0.569595
0.569598
0.569602
0.569605
0.569609
0.569609
0.569612
0.569616
0.56962
0.569623
0.569623
0.569627
0.56963
0.569634
0.569637
0.569637
0.569641
0.569645
0.569648
0.569652
0.569652
0.569655
0.569659
0.569663
0.569666
0.569666
0.56967
0.569673
0.569677
0.569681
0.569681
0.569684
0.569688
0.569691
0.569695
0.569695
0.569699
0.569702
0.569706
0.56971
0.56971
0.569713
0.569717
0.569721
0.569724
0.569724
0.569728
0.569732
0.569735
0.569739
0.569739
0.569743
0.569746
0.56975
0.569754
0.569754
0.569757
0.569761
0.569765
0.569769
0.569769
0.569772
0.569776
0.56978
0.569783
0.569783
0.569787
0.569791
0.569795
0.569798
0.569798
0.569802
0.569806
0.56981
0.569813
0.569813
0.569817
0.569821
0.569825
0.569828
0.569828
0.569832
0.569836
0.56984
0.569843
0.569843
0.569847
0.569851
0.569855
0.569859
0.569859
0.569862
0.569866
0.56987
0.569874
0.569874
0.569878
0.569882
0.569885
0.569889
0.569889
0.569893
0.569897
0.569901
0.569905
0.569905
0.569908
0.569912
0.569916
0.56992
0.56992
0.569924
0.569928
0.569932
0.569935
0.569935
0.569939
0.569943
0.569947
0.569951
0.569951
0.569955
0.569959
0.569963
0.569967
0.569967
0.569971
0.569974
0.569978
0.569982
0.569982
0.569986
0.56999
0.569994
0.569998
0.569998
0.570002
0.570006
0.57001
0.570014
0.570014
0.570018
0.570022
0.570026
0.57003
0.57003
0.570034
0.570038
0.570042
0.570046
0.570046
0.57005
0.570054
0.570058
0.570062
0.570062
0.570066
0.57007
0.570074
0.570078
0.570078
0.570082
0.570086
0.57009
0.570094
0.570094
0.570098
0.570102
0.570106
0.57011
0.57011
0.570114
0.570118
0.570122
0.570126
0.570126
0.57013
0.570135
0.570139
0.570143
0.570143
0.570147
0.570151
0.570155
0.570159
0.570159
0.570163
0.570167
0.570171
0.570176
0.570176
0.57018
0.570184
0.570188
0.570192
0.570192
0.570196
0.5702
0.570205
0.570209
0.570209
0.570213
0.570217
0.570221
0.570225
0.570225
0.57023
0.570234
0.570238
0.570242
0.570242
0.570246
0.570251
0.570255
0.570259
0.570259
0.570263
0.570267
0.570272
0.570276
0.570276
0.57028
0.570284
0.570289
0.570293
0.570293
0.570297
0.570301
0.570306
0.57031
0.57031
0.570314
0.570318
0.570323
0.570327
0.570327
0.570331
0.570336
0.57034
0.570344
0.570344
0.570348
0.570353
0.570357
0.570361
0.570361
0.570366
0.57037
0.570374
0.570379
0.570379
0.570383
0.570387
0.570392
0.570396
0.570396
0.5704
0.570405
0.570409
0.570414
0.570414
0.570418
0.570422
0.570427
0.570431
0.570431
0.570436
0.57044
0.570444
0.570449
0.570449
0.570453
0.570458
0.570462
0.570466
0.570466
0.570471
0.570475
0.57048
0.570484
0.570484
0.570489
0.570493
0.570498
0.570502
0.570502
0.570507
0.570511
0.570516
0.57052
0.57052
0.570524
0.570529
0.570533
0.570538
0.570538
0.570542
0.570547
0.570552
0.570556
0.570556
0.570561
0.570565
0.57057
0.570574
0.570574
0.570579
0.570583
0.570588
0.570592
0.570592
0.570597