<?xml version="1.0"?>
<VTKFile type="UnstructuredGrid" version="0.1" byte_order="LittleEndian">
<UnstructuredGrid>
<Piece NumberOfPoints="5000" NumberOfCells="4000">
<PointData Scalars="Reaction 0">
<DataArray type="Float32" Name="Reaction 0" format="ascii">
0.101332
0.101332
0.101332
0.101332
0.101332
0.101332
0.101332
0.101332
0.101332
0.101332
0.101332
0.101332
0.101332
0.101332
0.101332
0.101332
0.101332
0.101332
0.101333
0.101333
0.101333
0.101333
0.101333
0.101333
0.101333
0.101333
0.101333
0.101333
0.101333
0.101334
0.101334
0.101334
0.101334
0.101334
0.101334
0.101334
0.101334
0.101334
0.101335
0.101335
0.101335
0.101335
0.101335
0.101335
0.101336
0.101336
0.101336
0.101336
0.101336
0.101336
0.101336
0.101337
0.101337
0.101337
0.101337
0.101337
0.101338
0.101338
0.101338
0.101339
0.101339
0.101339
0.101339
0.101339
0.10134
0.10134
0.10134
0.10134
0.101341
0.101341
0.101341
0.101341
0.101342
0.101342
0.101342
0.101342
0.101343
0.101343
0.101343
0.101344
0.101344
0.101344
0.101344
0.101345
0.101345
0.101345
0.101346
0.101346
0.101346
0.101347
0.101347
0.101347
0.101348
0.101348
0.101348
0.101348
0.101349
0.101349
0.10135
0.10135
0.10135
0.101351
0.101351
0.101352
0.101352
0.101352
0.101353
0.101353
0.101354
0.101354
0.101354
0.101355
0.101355
0.101356
0.101356
0.101356
0.101357
0.101357
0.101358
0.101358
0.101358
0.101359
0.101359
0.10136
0.101361
0.101361
0.101361
0.101362
0.101362
0.101363
0.101363
0.101364
0.101364
0.101365
0.101365
0.101365
0.101366
0.101367
0.101367
0.101368
0.101368
0.101369
0.101369
0.10137
0.101371
0.101371
0.101371
0.101372
0.101373
0.101373
0.101373
0.101374
0.101375
0.101375
0.101376
0.101376
0.101377
0.101378
0.101378
0.101379
0.101379
0.10138
0.10138
0.101381
0.101382
0.101382
0.101383
0.101384
0.101384
0.101385
0.101385
0.101386
0.101387
0.101387
0.101388
0.101388
0.101389
0.10139
0.101391
0.101392
0.101392
0.101392
0.101393
0.101394
0.101395
0.101395
0.101396
0.101397
0.101398
0.101398
0.101398
0.101399
0.1014
0.101401
0.101402
0.101402
0.101403
0.101404
0.101405
0.101406
0.101406
0.101407
0.101408
0.101408
0.101409
0.101409
0.10141
0.101411
0.101412
0.101413
0.101413
0.101414
0.101415
0.101416
0.101417
0.101417
0.101418
0.101419
0.10142
0.101421
0.101421
0.101422
0.101423
0.101424
0.101425
0.101425
0.101426
0.101427
0.101429
0.10143
0.10143
0.101431
0.101432
0.101433
0.101434
0.101434
0.101435
0.101436
0.101437
0.101438
0.101438
0.101439
0.101441
0.101442
0.101443
0.101443
0.101444
0.101445
0.101446
0.101448
0.101448
0.101449
0.10145
0.101451
0.101452
0.101452
0.101453
0.101455
0.101456
0.101457
0.101457
0.101458
0.101459
0.101461
0.101462
0.101462
0.101463
0.101464
0.101466
0.101467
0.101467
0.101468
0.101469
0.101471
0.101472
0.101472
0.101473
0.101475
0.101476
0.101477
0.101477
0.101479
0.10148
0.101481
0.101483
0.101483
0.101484
0.101485
0.101487
0.101488
0.101488
0.101489
0.101491
0.101492
0.101493
0.101493
0.101495
0.101496
0.101498
0.101499
0.101499
0.1015
0.101502
0.101503
0.101505
0.101505
0.101506
0.101508
0.101509
0.101511
0.101511
0.101512
0.101513
0.101515
0.101516
0.101516
0.101518
0.101519
0.101521
0.101522
0.101522
0.101524
0.101525
0.101527
0.101528
0.101528
0.10153
0.101532
0.101533
0.101535
0.101535
0.101536
0.101538
0.101539
0.101541
0.101541
0.101543
0.101544
0.101546
0.101547
0.101547
0.101549
0.101551
0.101552
0.101554
0.101554
0.101555
0.101557
0.101559
0.10156
0.10156
0.101562
0.101564
0.101565
0.101567
0.101567
0.101569
0.101571
0.101572
0.101574
0.101574
0.101576
0.101577
0.101579
0.101581
0.101581
0.101583
0.101584
0.101586
0.101588
0.101588
0.10159
0.101591
0.101593
0.101595
0.101595
0.101597
0.101599
0.1016
0.101602
0.101602
0.101604
0.101606
0.101608
0.101609
0.101609
0.101611
0.101613
0.101615
0.101617
0.101617
0.101619
0.101621
0.101623
0.101624
0.101624
0.101626
0.101628
0.10163
0.101632
0.101632
0.101634
0.101636
0.101638
0.10164
0.10164
0.101642
0.101644
0.101646
0.101648
0.101648
0.10165
0.101652
0.101654
0.101656
0.101656
0.101658
0.10166
0.101662
0.101664
0.101664
0.101666
0.101668
0.10167
0.101672
0.101672
0.101674
0.101676
0.101678
0.10168
0.10168
0.101682
0.101684
0.101686
0.101688
0.101688
0.10169
0.101693
0.101695
0.101697
0.101697
0.101699
0.101701
0.101703
0.101705
0.101705
0.101708
0.10171
0.101712
0.101714
0.101714
0.101716
0.101718
0.101721
0.101723
0.101723
0.101725
0.101727
0.10173
0.101732
0.101732
0.101734
0.101736
0.101738
0.101741
0.101741
0.101743
0.101745
0.101748
0.10175
0.10175
0.101752
0.101754
0.101757
0.101759
0.101759
0.101761
0.101764
0.101766
0.101768
0.101768
0.101771
0.101773
0.101776
0.101778
0.101778
0.10178
0.101783
0.101785
0.101787
0.101787
0.10179
0.101792
0.101795
0.101797
0.101797
0.1018
0.101802
0.101804
0.101807
0.101807
0.101809
0.101812
0.101814
0.101817
0.101817
0.101819
0.101822
0.101824
0.101827
0.101827
0.101829
0.101832
0.101834
0.101837
0.101837
0.101839
0.101842
0.101845
0.101847
0.101847
0.10185
0.101852
0.101855
0.101857
0.101857
0.10186
0.101863
0.101865
0.101868
0.101868
0.101871
0.101873
0.101876
0.101879
0.101879
0.101881
0.101884
0.101887
0.101889
0.101889
0.101892
0.101895
0.101897
0.1019
0.1019
0.101903
0.101905
0.101908
0.101911
0.101911
0.101914
0.101916
0.101919
0.101922
0.101922
0.101925
0.101928
0.10193
0.101933
0.101933
0.101936
0.101939
0.101942
0.101944
0.101944
0.101947
0.10195
0.101953
0.101956
0.101956
0.101959
0.101962
0.101964
0.101967
0.101967
0.10197
0.101973
0.101976
0.101979
0.101979
0.101982
0.101985
0.101988
0.101991
0.101991
0.101994
0.101997
0.102
0.102003
0.102003
0.102005
0.102008
0.102011
0.102014
0.102014
0.102018
0.102021
0.102024
0.102027
0.102027
0.10203
0.102033
0.102036
0.102039
0.102039
0.102042
0.102045
0.102048
0.102051
0.102051
0.102054
0.102057
0.10206
0.102064
0.102064
0.102067
0.10207
0.102073
0.102076
0.102076
0.102079
0.102083
0.102086
0.102089
0.102089
0.102092
0.102095
0.102099
0.102102
0.102102
0.102105
0.102108
0.102111
0.102115
0.102115
0.102118
0.102121
0.102125
0.102128
0.102128
0.102131
0.102134
0.102138
0.102141
0.102141
0.102144
0.102148
0.102151
0.102154
0.102154
0.102158
0.102161
0.102164
0.102168
0.102168
0.102171
0.102175
0.102178
0.102181
0.102181
0.102185
0.102188
0.102192
0.102195
0.102195
0.102199
0.102202
0.102205
0.102209
0.102209
0.102212
0.102216
0.102219
0.102223
0.102223
0.102226
0.10223
0.102233
0.102237
0.102237
0.102241
0.102244
0.102248
0.102251
0.102251
0.102255
0.102258
0.102262
0.102266
0.102266
0.102269
0.102273
0.102276
0.10228
0.10228
0.102284
0.102287
0.102291
0.102295
0.102295
0.102298
0.102302
0.102306
0.102309
0.102309
0.102313
0.102317
0.102321
0.102324
0.102324
0.102328
0.102332
0.102336
0.102339
0.102339
0.102343
0.102347
0.102351
0.102355
0.102355
0.102358
0.102362
0.102366
0.10237
0.10237
0.102374
0.102377
0.102381
0.102385
0.102385
0.102389
0.102393
0.102397
0.102401
0.102401
0.102405
0.102409
0.102413
0.102416
0.102416
0.10242
0.102424
0.102428
0.102432
0.102432
0.102436
0.10244
0.102444
0.102448
0.102448
0.102452
0.102456
0.10246
0.102464
0.102464
0.102468
0.102472
0.102477
0.102481
0.102481
0.102485
0.102489
0.102493
0.102497
0.102497
0.102501
0.102505
0.102509
0.102513
0.102513
0.102518
0.102522
0.102526
0.10253
0.10253
0.102534
0.102539
0.102543
0.102547
0.102547
0.102551
0.102555
0.10256
0.102564
0.102564
0.102568
0.102572
0.102577
0.102581
0.102581
0.102585
0.10259
0.102594
0.102598
0.102598
0.102603
0.102607
0.102611
0.102616
0.102616
0.10262
0.102624
0.102629
0.102633
0.102633
0.102637
0.102642
0.102646
0.102651
0.102651
0.102655
0.10266
0.102664
0.102669
0.102669
0.102673
0.102677
0.102682
0.102686
0.102686
0.102691
0.102696
0.1027
0.102705
0.102705
0.102709
0.102714
0.102718
0.102723
0.102723
0.102727
0.102732
0.102737
0.102741
0.102741
0.102746
0.10275
0.102755
0.10276
0.10276
0.102764
0.102769
0.102774
0.102778
0.102778
0.102783
0.102788
0.102793
0.102797
0.102797
0.102802
0.102807
0.102812
0.102816
0.102816
0.102821
0.102826
0.102831
0.102835
0.102835
0.10284
0.102845
0.10285
0.102855
0.102855
0.10286
0.102864
0.102869
0.102874
0.102874
0.102879
0.102884
0.102889
0.102894
0.102894
0.102899
0.102904
0.102909
0.102914
0.102914
0.102919
0.102923
0.102928
0.102933
0.102933
0.102938
0.102943
0.102949
0.102954
0.102954
0.102959
0.102964
0.102969
0.102974
0.102974
0.102979
0.102984
0.102989
0.102994
0.102994
0.102999
0.103004
0.10301
0.103015
0.103015
0.10302
0.103025
0.10303
0.103035
0.103035
0.103041
0.103046
0.103051
0.103056
0.103056
0.103062
0.103067
0.103072
0.103077
0.103077
0.103083
0.103088
0.103093
0.103098
0.103098
0.103104
0.103109
0.103114
0.10312
0.10312
0.103125
0.103131
0.103136
0.103141
0.103141
0.103147
0.103152
0.103158
0.103163
0.103163
0.103168
0.103174
0.103179
0.103185
0.103185
0.10319
0.103196
0.103201
0.103207
0.103207
0.103212
0.103218
0.103223
0.103229
0.103229
0.103235
0.10324
0.103246
0.103251
0.103251
0.103257
0.103263
0.103268
0.103274
0.103274
0.10328
0.103285
0.103291
0.103297
0.103297
0.103302
0.103308
0.103314
0.103319
0.103319
0.103325
0.103331
0.103337
0.103342
0.103342
0.103348
0.103354
0.10336
0.103366
0.103366
0.103371
0.103377
0.103383
0.103389
0.103389
0.103395
0.103401
0.103407
0.103413
0.103413
0.103418
0.103424
0.10343
0.103436
0.103436
0.103442
0.103448
0.103454
0.10346
0.10346
0.103466
0.103472
0.103478
0.103484
0.103484
0.10349
0.103496
0.103502
0.103508
0.103508
0.103514
0.103521
0.103527
0.103533
0.103533
0.103539
0.103545
0.103551
0.103557
0.103557
0.103564
0.10357
0.103576
0.103582
0.103582
0.103588
0.103595
0.103601
0.103607
0.103607
0.103613
0.10362
0.103626
0.103632
0.103632
0.103639
0.103645
0.103651
0.103658
0.103658
0.103664
0.10367
0.103677
0.103683
0.103683
0.103689
0.103696
0.103702
0.103709
0.103709
0.103715
0.103722
0.103728
0.103735
0.103735
0.103741
0.103748
0.103754
0.103761
0.103761
0.103767
0.103774
0.10378
0.103787
0.103787
0.103793
0.1038
0.103807
0.103813
0.103813
0.10382
0.103827
0.103833
0.10384
0.10384
0.103847
0.103853
0.10386
0.103867
0.103867
0.103873
0.10388
0.103887
0.103894
0.103894
0.1039
0.103907
0.103914
0.103921
0.103921
0.103928
0.103935
0.103941
0.103948
0.103948
0.103955
0.103962
0.103969
0.103976
0.103976
0.103983
0.10399
0.103997
0.104004
0.104004
0.104011
0.104018
0.104025
0.104032
0.104032
0.104039
0.104046
0.104053
0.10406
0.10406
0.104067
0.104074
0.104081
0.104088
0.104088
0.104095
0.104102
0.104109
0.104117
0.104117
0.104124
0.104131
0.104138
0.104145
0.104145
0.104153
0.10416
0.104167
0.104174
0.104174
0.104181
0.104189
0.104196
0.104203
0.104203
0.104211
0.104218
0.104225
0.104233
0.104233
0.10424
0.104247
0.104255
0.104262
0.104262
0.10427
0.104277
0.104285
0.104292
0.104292
0.104299
0.104307
0.104314
0.104322
0.104322
0.104329
0.104337
0.104345
0.104352
0.104352
0.10436
0.104367
0.104375
0.104382
0.104382
0.10439
0.104398
0.104405
0.104413
0.104413
0.104421
0.104428
0.104436
0.104444
0.104444
0.104452
0.104459
0.104467
0.104475
0.104475
0.104483
0.10449
0.104498
0.104506
0.104506
0.104514
0.104522
0.10453
0.104537
0.104537
0.104545
0.104553
0.104561
0.104569
0.104569
0.104577
0.104585
0.104593
0.104601
0.104601
0.104609
0.104617
0.104625
0.104633
0.104633
0.104641
0.104649
0.104657
0.104665
0.104665
0.104673
0.104681
0.10469
0.104698
0.104698
0.104706
0.104714
0.104722
0.10473
0.10473
0.104739
0.104747
0.104755
0.104763
0.104763
0.104772
0.10478
0.104788
0.104796
0.104796
0.104805
0.104813
0.104821
0.10483
0.10483
0.104838
0.104847
0.104855
0.104863
0.104863
0.104872
0.10488
0.104889
0.104897
0.104897
0.104906
0.104914
0.104923
0.104931
0.104931
0.10494
0.104948
0.104957
0.104966
0.104966
0.104974
0.104983
0.104991
0.105
0.105
0.105009
0.105017
0.105026
0.105035
0.105035
0.105043
0.105052
0.105061
0.10507
0.10507
0.105078
0.105087
0.105096
0.105105
0.105105
0.105114
0.105123
0.105131
0.10514
0.10514
0.105149
0.105158
0.105167
0.105176
0.105176
0.105185
0.105194
0.105203
0.105212
0.105212
0.105221
0.10523
0.105239
0.105248
0.105248
0.105257
0.105266
0.105275
0.105284
0.105284
0.105293
0.105303
0.105312
0.105321
0.105321
0.10533
0.105339
0.105348
0.105358
0.105358
0.105367
0.105376
0.105385
0.105395
0.105395
0.105404
0.105413
0.105423
0.105432
0.105432
0.105441
0.105451
0.10546
0.10547
0.10547
0.105479
0.105488
0.105498
0.105507
0.105507
0.105517
0.105526
0.105536
0.105545
0.105545
0.105555
0.105564
0.105574
0.105584
0.105584
0.105593
0.105603
0.105613
0.105622
0.105622
0.105632
0.105642
0.105651
0.105661
0.105661
0.105671
0.10568
0.10569
0.1057
0.1057
0.10571
0.10572
0.105729
0.105739
0.105739
0.105749
0.105759
0.105769
0.105779
0.105779
0.105789
0.105799
0.105809
0.105818
0.105818
0.105828
0.105838
0.105848
0.105859
0.105859
0.105869
0.105879
0.105889
0.105899
0.105899
0.105909
0.105919
0.105929
0.105939
0.105939
0.10595
0.10596
0.10597
0.10598
0.10598
0.10599
0.106001
0.106011
0.106021
0.106021
0.106031
0.106042
0.106052
0.106062
0.106062
0.106073
0.106083
0.106094
0.106104
0.106104
0.106114
0.106125
0.106135
0.106146
0.106146
0.106156
0.106167
0.106177
0.106188
0.106188
0.106199
0.106209
0.10622
0.10623
0.10623
0.106241
0.106252
0.106262
0.106273
0.106273
0.106284
0.106294
0.106305
0.106316
0.106316
0.106327
0.106337
0.106348
0.106359
0.106359
0.10637
0.106381
0.106392
0.106402
0.106402
0.106413
0.106424
0.106435
0.106446
0.106446
0.106457
0.106468
0.106479
0.10649
0.10649
0.106501
0.106512
0.106523
0.106534
0.106534
0.106546
0.106557
0.106568
0.106579
0.106579
0.10659
0.106601
0.106613
0.106624
0.106624
0.106635
0.106646
0.106658
0.106669
0.106669
0.10668
0.106691
0.106703
0.106714
0.106714
0.106726
0.106737
0.106748
0.10676
0.10676
0.106771
0.106783
0.106794
0.106806
0.106806
0.106817
0.106829
0.10684
0.106852
0.106852
0.106864
0.106875
0.106887
0.106898
0.106898
0.10691
0.106922
0.106934
0.106945
0.106945
0.106957
0.106969
0.10698
0.106992
0.106992
0.107004
0.107016
0.107028
0.10704
0.10704
0.107052
0.107063
0.107075
0.107087
0.107087
0.107099
0.107111
0.107123
0.107135
0.107135
0.107147
0.107159
0.107171
0.107183
0.107183
0.107196
0.107208
0.10722
0.107232
0.107232
0.107244
0.107256
0.107269
0.107281
0.107281
0.107293
0.107305
0.107318
0.10733
0.10733
0.107342
0.107355
0.107367
0.107379
0.107379
0.107392
0.107404
0.107417
0.107429
0.107429
0.107442
0.107454
0.107467
0.107479
0.107479
0.107492
0.107504
0.107517
0.107529
0.107529
0.107542
0.107555
0.107567
0.10758
0.10758
0.107593
0.107605
0.107618
0.107631
0.107631
0.107644
0.107656
0.107669
0.107682
0.107682
0.107695
0.107708
0.107721
0.107734
0.107734
0.107747
0.10776
0.107773
0.107786
0.107786
0.107799
0.107812
0.107825
0.107838
0.107838
0.107851
0.107864
0.107877
0.10789
0.10789
0.107903
0.107917
0.10793
0.107943
0.107943
0.107956
0.107969
0.107983
0.107996
0.107996
0.108009
0.108023
0.108036
0.108049
0.108049
0.108063
0.108076
0.10809
0.108103
0.108103
0.108117
0.10813
0.108144
0.108157
0.108157
0.108171
0.108184
0.108198
0.108212
0.108212
0.108225
0.108239
0.108253
0.108266
0.108266
0.10828
0.108294
0.108308
0.108321
0.108321
0.108335
0.108349
0.108363
0.108377
0.108377
0.108391
0.108405
0.108418
0.108432
0.108432
0.108446
0.10846
0.108474
0.108488
0.108488
0.108502
0.108517
0.108531
0.108545
0.108545
0.108559
0.108573
0.108587
0.108601
0.108601
0.108616
0.10863
0.108644
0.108658
0.108658
0.108673
0.108687
0.108701
0.108716
0.108716
0.10873
0.108745
0.108759
0.108773
0.108773
0.108788
0.108802
0.108817
0.108831
0.108831
0.108846
0.108861
0.108875
0.10889
0.10889
0.108904
0.108919
0.108934
0.108948
0.108948
0.108963
0.108978
0.108993
0.109007
0.109007
0.109022
0.109037
0.109052
0.109067
0.109067
0.109082
0.109097
0.109112
0.109127
0.109127
0.109142
0.109157
0.109172
0.109187
0.109187
0.109202
0.109217
0.109232
0.109247
0.109247
0.109262
0.109277
0.109293
0.109308
0.109308
0.109323
0.109338
0.109354
0.109369
0.109369
0.109384
0.1094
0.109415
0.10943
0.10943
0.109446
0.109461
0.109477
0.109492
0.109492
0.109508
0.109523
0.109539
0.109554
0.109554
0.10957
0.109586
0.109601
0.109617
0.109617
0.109633
0.109648
0.109664
0.10968
0.10968
0.109696
0.109711
0.109727
0.109743
0.109743
0.109759
0.109775
0.109791
0.109807
0.109807
0.109823
0.109839
0.109855
0.109871
0.109871
0.109887
0.109903
0.109919
0.109935
0.109935
0.109951
0.109967
0.109984
0.11
0.11
0.110016
0.110032
0.110049
0.110065
0.110065
0.110081
0.110098
0.110114
0.11013
0.11013
0.110147
0.110163
0.11018
0.110196
0.110196
0.110213
0.110229
0.110246
0.110262
0.110262
0.110279
0.110296
0.110312
0.110329
0.110329
0.110346
0.110362
0.110379
0.110396
0.110396
0.110413
0.11043
0.110446
0.110463
0.110463
0.11048
0.110497
0.110514
0.110531
0.110531
0.110548
0.110565
0.110582
0.110599
0.110599
0.110616
0.110633
0.110651
0.110668
0.110668
0.110685
0.110702
0.110719
0.110737
0.110737
0.110754
0.110771
0.110788
0.110806
0.110806
0.110823
0.110841
0.110858
0.110875
0.110875
0.110893
0.11091
0.110928
0.110946
0.110946
0.110963
0.110981
0.110998
0.111016
0.111016
0.111034
0.111051
0.111069
0.111087
0.111087
0.111105
0.111122
0.11114
0.111158
0.111158
0.111176
0.111194
0.111212
0.11123
0.11123
0.111248
0.111266
0.111284
0.111302
0.111302
0.11132
0.111338
0.111356
0.111374
0.111374
0.111392
0.11141
0.111429
0.111447
0.111447
0.111465
0.111483
0.111502
0.11152
0.11152
0.111539
0.111557
0.111575
0.111594
0.111594
0.111612
0.111631
0.111649
0.111668
0.111668
0.111686
0.111705
0.111724
0.111742
0.111742
0.111761
0.11178
0.111798
0.111817
0.111817
0.111836
0.111855
0.111874
0.111892
0.111892
0.111911
0.11193
0.111949
0.111968
0.111968
0.111987
0.112006
0.112025
0.112044
0.112044
0.112063
0.112082
0.112102
0.112121
0.112121
0.11214
0.112159
0.112178
0.112198
0.112198
0.112217
0.112236
0.112256
0.112275
0.112275
0.112294
0.112314
0.112333
0.112353
0.112353
0.112372
0.112392
0.112412
0.112431
0.112431
0.112451
0.11247
0.11249
0.11251
0.11251
0.112529
0.112549
0.112569
0.112589
0.112589
0.112609
0.112629
0.112648
0.112668
0.112668
0.112688
0.112708
0.112728
0.112748
0.112748
0.112768
0.112788
0.112809
0.112829
0.112829
0.112849
0.112869
0.112889
0.112909
0.112909
0.11293
0.11295
0.11297
0.112991
0.112991
0.113011
0.113032
0.113052
0.113072
0.113072
0.113093
0.113113
0.113134
0.113155
0.113155
0.113175
0.113196
0.113216
0.113237
0.113237
0.113258
0.113279
0.113299
0.11332
0.11332
0.113341
0.113362
0.113383
0.113404
0.113404
0.113425
0.113446
0.113467
0.113488
0.113488
0.113509
0.11353
0.113551
0.113572
0.113572
0.113593
0.113614
0.113635
0.113657
0.113657
0.113678
0.113699
0.113721
0.113742
0.113742
0.113763
0.113785
0.113806
0.113828
0.113828
0.113849
0.113871
0.113892
0.113914
0.113914
0.113936
0.113957
0.113979
0.114001
0.114001
0.114022
0.114044
0.114066
0.114088
0.114088
0.11411
0.114131
0.114153
0.114175
0.114175
0.114197
0.114219
0.114241
0.114263
0.114263
0.114285
0.114308
0.11433
0.114352
0.114352
0.114374
0.114396
0.114419
0.114441
0.114441
0.114463
0.114485
0.114508
0.11453
0.11453
0.114553
0.114575
0.114598
0.11462
0.11462
0.114643
0.114665
0.114688
0.114711
0.114711
0.114733
0.114756
0.114779
0.114801
0.114801
0.114824
0.114847
0.11487
0.114893
0.114893
0.114916
0.114939
0.114962
0.114985
0.114985
0.115008
0.115031
0.115054
0.115077
0.115077
0.1151
0.115123
0.115147
0.11517
0.11517
0.115193
0.115216
0.11524
0.115263
0.115263
0.115286
0.11531
0.115333
0.115357
0.115357
0.11538
0.115404
0.115428
0.115451
0.115451
0.115475
0.115498
0.115522
0.115546
0.115546
0.11557
0.115593
0.115617
0.115641
0.115641
0.115665
0.115689
0.115713
0.115737
0.115737
0.115761
0.115785
0.115809
0.115833
0.115833
0.115857
0.115881
0.115906
0.11593
0.11593
0.115954
0.115978
0.116003
0.116027
0.116027
0.116052
0.116076
0.1161
0.116125
0.116125
0.116149
0.116174
0.116199
0.116223
0.116223
0.116248
0.116273
0.116297
0.116322
0.116322
0.116347
0.116372
0.116396
0.116421
0.116421
0.116446
0.116471
0.116496
0.116521
0.116521
0.116546
0.116571
0.116596
0.116621
0.116621
0.116647
0.116672
0.116697
0.116722
0.116722
0.116747
0.116773
0.116798
0.116824
0.116824
0.116849
0.116874
0.1169
0.116925
0.116925
0.116951
0.116977
0.117002
0.117028
0.117028
0.117053
0.117079
0.117105
0.117131
0.117131
0.117157
0.117182
0.117208
0.117234
0.117234
0.11726
0.117286
0.117312
0.117338
0.117338
0.117364
0.11739
0.117416
0.117443
0.117443
0.117469
0.117495
0.117521
0.117548
0.117548
0.117574
0.1176
0.117627
0.117653
0.117653
0.11768
0.117706
0.117733
0.117759
0.117759
0.117786
0.117813
0.117839
0.117866
0.117866
0.117893
0.117919
0.117946
0.117973
0.117973
0.118
0.118027
0.118054
0.118081
0.118081
0.118108
0.118135
0.118162
0.118189
0.118189
0.118216
0.118243
0.118271
0.118298
0.118298
0.118325
0.118352
0.11838
0.118407
0.118407
0.118435
0.118462
0.11849
0.118517
0.118517
0.118545
0.118572
0.1186
0.118628
0.118628
0.118655
0.118683
0.118711
0.118739
0.118739
0.118766
0.118794
0.118822
0.11885
0.11885
0.118878
0.118906
0.118934
0.118962
0.118962
0.11899
0.119019
0.119047
0.119075
0.119075
0.119103
0.119132
0.11916
0.119188
0.119188
0.119217
0.119245
0.119274
0.119302
0.119302
0.119331
0.119359
0.119388
0.119416
0.119416
0.119445
0.119474
0.119503
0.119531
0.119531
0.11956
0.119589
0.119618
0.119647
0.119647
0.119676
0.119705
0.119734
0.119763
0.119763
0.119792
0.119821
0.11985
0.11988
0.11988
0.119909
0.119938
0.119968
0.119997
0.119997
0.120026
0.120056
0.120085
0.120115
0.120115
0.120144
0.120174
0.120204
0.120233
0.120233
0.120263
0.120293
0.120322
0.120352
0.120352
0.120382
0.120412
0.120442
0.120472
0.120472
0.120502
0.120532
0.120562
0.120592
0.120592
0.120622
0.120652
0.120682
0.120713
0.120713
0.120743
0.120773
0.120804
0.120834
0.120834
0.120864
0.120895
0.120925
0.120956
0.120956
0.120987
0.121017
0.121048
0.121078
0.121078
0.121109
0.12114
0.121171
0.121202
0.121202
0.121233
0.121263
0.121294
0.121325
0.121325
0.121356
0.121387
0.121419
0.12145
0.12145
0.121481
0.121512
0.121543
0.121575
0.121575
0.121606
0.121637
0.121669
0.1217
0.1217
0.121732
0.121763
0.121795
0.121826
0.121826
0.121858
0.12189
0.121921
0.121953
0.121953
0.121985
0.122017
0.122049
0.122081
0.122081
0.122112
0.122144
0.122176
0.122209
0.122209
0.122241
0.122273
0.122305
0.122337
0.122337
0.122369
0.122402
0.122434
0.122466
0.122466
0.122499
0.122531
0.122564
0.122596
0.122596
0.122629
0.122661
0.122694
0.122727
0.122727
0.122759
0.122792
0.122825
0.122858
0.122858
0.122891
0.122924
0.122957
0.12299
0.12299
0.123023
0.123056
0.123089
0.123122
0.123122
0.123155
0.123188
0.123222
0.123255
0.123255
0.123288
0.123322
0.123355
0.123389
0.123389
0.123422
0.123456
0.123489
0.123523
0.123523
0.123556
0.12359
0.123624
0.123658
0.123658
0.123692
0.123725
0.123759
0.123793
0.123793
0.123827
0.123861
0.123895
0.123929
0.123929
0.123964
0.123998
0.124032
0.124066
0.124066
0.124101
0.124135
0.124169
0.124204
0.124204
0.124238
0.124273
0.124307
0.124342
0.124342
0.124377
0.124411
0.124446
0.124481
0.124481
0.124516
0.12455
0.124585
0.12462
0.12462
0.124655
0.12469
0.124725
0.12476
0.12476
0.124795
0.124831
0.124866
0.124901
0.124901
0.124936
0.124972
0.125007
0.125042
0.125042
0.125078
0.125113
0.125149
0.125185
0.125185
0.12522
0.125256
0.125292
0.125327
0.125327
0.125363
0.125399
0.125435
0.125471
0.125471
0.125507
0.125543
0.125579
0.125615
0.125615
0.125651
0.125687
0.125723
0.12576
0.12576
0.125796
0.125832
0.125869
0.125905
0.125905
0.125941
0.125978
0.126014
0.126051
0.126051
0.126088
0.126124
0.126161
0.126198
0.126198
0.126235
0.126272
0.126308
0.126345
0.126345
0.126382
0.126419
0.126456
0.126493
0.126493
0.126531
0.126568
0.126605
0.126642
0.126642
0.12668
0.126717
0.126754
0.126792
0.126792
0.126829
0.126867
0.126904
0.126942
0.126942
0.12698
0.127017
0.127055
0.127093
0.127093
0.127131
0.127169
0.127207
0.127245
0.127245
0.127283
0.127321
0.127359
0.127397
0.127397
0.127435
0.127473
0.127512
0.12755
0.12755
0.127588
0.127627
0.127665
0.127704
0.127704
0.127742
0.127781
0.127819
0.127858
0.127858
0.127897
0.127935
0.127974
0.128013
0.128013
0.128052
0.128091
0.12813
0.128169
0.128169
0.128208
0.128247
0.128286
0.128325
0.128325
0.128365
0.128404
0.128443
0.128483
0.128483
0.128522
0.128561
0.128601
0.128641
0.128641
0.12868
0.12872
0.128759
0.128799
0.128799
0.128839
0.128879
0.128919
0.128959
0.128959
0.128999
0.129039
0.129079
0.129119
0.129119
0.129159
0.129199
0.129239
0.12928
0.12928
0.12932
0.12936
0.129401
0.129441
0.129441
0.129482
0.129522
0.129563
0.129603
0.129603
0.129644
0.129685
0.129726
0.129766
0.129766
0.129807
0.129848
0.129889
0.12993
0.12993
0.129971
0.130012
0.130053
0.130095
0.130095
0.130136
0.130177
0.130218
0.13026
0.13026
0.130301
0.130343
0.130384
0.130426
0.130426
0.130467
0.130509
0.130551
0.130592
0.130592
0.130634
0.130676
0.130718
0.13076
0.13076
0.130802
0.130844
0.130886
0.130928
0.130928
0.13097
0.131012
0.131055
0.131097
0.131097
0.131139
0.131182
0.131224
0.131267
0.131267
0.131309
0.131352
0.131394
0.131437
0.131437
0.13148
0.131523
0.131565
0.131608
0.131608
0.131651
0.131694
0.131737
0.13178
0.13178
0.131823
0.131867
0.13191
0.131953
0.131953
0.131996
0.13204
0.132083
0.132126
0.132126
0.13217
0.132213
0.132257
0.132301
0.132301
0.132344
0.132388
0.132432
0.132476
0.132476
0.13252
0.132563
0.132607
0.132651
0.132651
0.132696
0.13274
0.132784
0.132828
0.132828
0.132872
0.132917
0.132961
0.133005
0.133005
0.13305
0.133094
0.133139
0.133183
0.133183
0.133228
0.133273
0.133317
0.133362
0.133362
0.133407
0.133452
0.133497
0.133542
0.133542
0.133587
0.133632
0.133677
0.133722
0.133722
0.133768
0.133813
0.133858
0.133904
0.133904
0.133949
0.133994
0.13404
0.134086
0.134086
0.134131
0.134177
0.134223
0.134268
0.134268
0.134314
0.13436
0.134406
0.134452
0.134452
0.134498
0.134544
0.13459
0.134636
0.134636
0.134682
0.134729
0.134775
0.134821
0.134821
0.134868
0.134914
0.134961
0.135007
0.135007
0.135054
0.135101
0.135147
0.135194
0.135194
0.135241
0.135288
0.135335
0.135382
0.135382
0.135429
0.135476
0.135523
0.13557
0.13557
0.135617
0.135665
0.135712
0.135759
0.135759
0.135807
0.135854
0.135902
0.135949
0.135949
0.135997
0.136045
0.136092
0.13614
0.13614
0.136188
0.136236
0.136284
0.136332
0.136332
0.13638
0.136428
0.136476
0.136524
0.136524
0.136572
0.136621
0.136669
0.136717
0.136717
0.136766
0.136814
0.136863
0.136911
0.136911
0.13696
0.137009
0.137058
0.137106
0.137106
0.137155
0.137204
0.137253
0.137302
0.137302
0.137351
0.1374
0.137449
0.137499
0.137499
0.137548
0.137597
0.137647
0.137696
0.137696
0.137745
0.137795
0.137845
0.137894
0.137894
0.137944
0.137994
0.138043
0.138093
0.138093
0.138143
0.138193
0.138243
0.138293
0.138293
0.138343
0.138393
0.138444
0.138494
0.138494
0.138544
0.138595
0.138645
0.138695
0.138695
0.138746
0.138797
0.138847
0.138898
0.138898
0.138949
0.138999
0.13905
0.139101
0.139101
0.139152
0.139203
0.139254
0.139305
0.139305
0.139356
0.139408
0.139459
0.13951
0.13951
0.139561
0.139613
0.139664
0.139716
0.139716
0.139768
0.139819
0.139871
0.139923
0.139923
0.139974
0.140026
0.140078
0.14013
0.14013
0.140182
0.140234
0.140286
0.140338
0.140338
0.140391
0.140443
0.140495
0.140548
0.140548
0.1406
0.140653
0.140705
0.140758
0.140758
0.14081
0.140863
0.140916
0.140969
0.140969
0.141022
0.141075
0.141128
0.141181
0.141181
0.141234
0.141287
0.14134
0.141393
0.141393
0.141447
0.1415
0.141553
0.141607
0.141607
0.14166
0.141714
0.141768
0.141821
0.141821
0.141875
0.141929
0.141983
0.142037
0.142037
0.142091
0.142145
0.142199
0.142253
0.142253
0.142307
0.142361
0.142416
0.14247
0.14247
0.142524
0.142579
0.142633
0.142688
0.142688
0.142743
0.142797
0.142852
0.142907
0.142907
0.142962
0.143017
0.143072
0.143127
0.143127
0.143182
0.143237
0.143292
0.143347
0.143347
0.143403
0.143458
0.143513
0.143569
0.143569
0.143624
0.14368
0.143736
0.143791
0.143791
0.143847
0.143903
0.143959
0.144015
0.144015
0.144071
0.144127
0.144183
0.144239
0.144239
0.144295
0.144351
0.144408
0.144464
0.144464
0.14452
0.144577
0.144633
0.14469
0.14469
0.144747
0.144803
0.14486
0.144917
0.144917
0.144974
0.145031
0.145088
0.145145
0.145145
0.145202
0.145259
0.145316
0.145374
0.145374
0.145431
0.145488
0.145546
0.145603
0.145603
0.145661
0.145718
0.145776
0.145834
0.145834
0.145892
0.145949
0.146007
0.146065
0.146065
0.146123
0.146181
0.14624
0.146298
0.146298
0.146356
0.146414
0.146473
0.146531
0.146531
0.14659
0.146648
0.146707
0.146765
0.146765
0.146824
0.146883
0.146942
0.147001
0.147001
0.14706
0.147119
0.147178
0.147237
0.147237
0.147296
0.147355
0.147415
0.147474
0.147474
0.147533
0.147593
0.147652
0.147712
0.147712
0.147772
0.147831
0.147891
0.147951
0.147951
0.148011
0.148071
0.148131
0.148191
0.148191
0.148251
0.148311
0.148371
0.148432
0.148432
0.148492
0.148552
0.148613
0.148673
0.148673
0.148734
0.148795
0.148855
0.148916
0.148916
0.148977
0.149038
0.149099
0.14916
0.14916
0.149221
0.149282
0.149343
0.149404
0.149404
0.149466
0.149527
0.149588
0.14965
0.14965
0.149711
0.149773
0.149835
0.149896
0.149896
0.149958
0.15002
0.150082
0.150144
0.150144
0.150206
0.150268
0.15033
0.150392
0.150392
0.150454
0.150517
0.150579
0.150642
0.150642
0.150704
0.150767
0.150829
0.150892
0.150892
0.150955
0.151017
0.15108
0.151143
0.151143
0.151206
0.151269
0.151332
0.151396
0.151396
0.151459
0.151522
0.151585
0.151649
0.151649
0.151712
0.151776
0.151839
0.151903
0.151903
0.151967
0.15203
0.152094
0.152158
0.152158
0.152222
0.152286
0.15235
0.152414
0.152414
0.152479
0.152543
0.152607
0.152671
0.152671
0.152736
0.1528
0.152865
0.15293
0.15293
0.152994
0.153059
0.153124
0.153189
0.153189
0.153254
0.153319
0.153384
0.153449
0.153449
0.153514
0.153579
0.153645
0.15371
0.15371
0.153775
0.153841
0.153906
0.153972
0.153972
0.154038
0.154103
0.154169
0.154235
0.154235
0.154301
0.154367
0.154433
0.154499
0.154499
0.154565
0.154631
0.154698
0.154764
0.154764
0.154831
0.154897
0.154964
0.15503
0.15503
0.155097
0.155164
0.15523
0.155297
0.155297
0.155364
0.155431
0.155498
0.155565
0.155565
0.155632
0.1557
0.155767
0.155834
0.155834
0.155902
0.155969
0.156037
0.156104
0.156104
0.156172
0.15624
0.156308
0.156375
0.156375
0.156443
0.156511
0.156579
0.156647
0.156647
0.156716
0.156784
0.156852
0.156921
0.156921
0.156989
0.157057
0.157126
0.157195
0.157195
0.157263
0.157332
0.157401
0.15747
0.15747
0.157539
0.157608
0.157677
0.157746
0.157746
0.157815
0.157884
0.157954
0.158023