<?xml version="1.0"?>
<VTKFile type="UnstructuredGrid" version="0.1" byte_order="LittleEndian">
<UnstructuredGrid>
<Piece NumberOfPoints="5000" NumberOfCells="4000">
<PointData Scalars="Reaction 0">
<DataArray type="Float32" Name="Reaction 0" format="ascii">
0.33623
0.33623
0.33623
0.33623
0.33623
0.33623
0.336231
0.336231
0.336231
0.336231
0.336231
0.336231
0.336232
0.336232
0.336232
0.336232
0.336233
0.336233
0.336234
0.336234
0.336234
0.336235
0.336235
0.336236
0.336236
0.336236
0.336237
0.336238
0.336238
0.336239
0.336239
0.33624
0.336241
0.336241
0.336242
0.336242
0.336243
0.336244
0.336245
0.336246
0.336246
0.336247
0.336248
0.336249
0.33625
0.33625
0.336251
0.336252
0.336253
0.336255
0.336255
0.336256
0.336257
0.336258
0.33626
0.33626
0.336261
0.336263
0.336264
0.336265
0.336265
0.336267
0.336268
0.33627
0.336272
0.336272
0.336273
0.336275
0.336276
0.336278
0.336278
0.33628
0.336282
0.336283
0.336285
0.336285
0.336287
0.336289
0.336291
0.336293
0.336293
0.336295
0.336297
0.336299
0.336301
0.336301
0.336303
0.336305
0.336307
0.336309
0.336309
0.336312
0.336314
0.336316
0.336319
0.336319
0.336321
0.336323
0.336326
0.336328
0.336328
0.336331
0.336333
0.336336
0.336338
0.336338
0.336341
0.336343
0.336346
0.336349
0.336349
0.336351
0.336354
0.336357
0.33636
0.33636
0.336362
0.336365
0.336368
0.336371
0.336371
0.336374
0.336377
0.33638
0.336383
0.336383
0.336386
0.336389
0.336392
0.336396
0.336396
0.336399
0.336402
0.336405
0.336409
0.336409
0.336412
0.336415
0.336419
0.336422
0.336422
0.336425
0.336429
0.336432
0.336436
0.336436
0.33644
0.336443
0.336447
0.33645
0.33645
0.336454
0.336458
0.336462
0.336465
0.336465
0.336469
0.336473
0.336477
0.336481
0.336481
0.336485
0.336489
0.336493
0.336497
0.336497
0.336501
0.336505
0.336509
0.336513
0.336513
0.336517
0.336521
0.336526
0.33653
0.33653
0.336534
0.336538
0.336543
0.336547
0.336547
0.336552
0.336556
0.336561
0.336565
0.336565
0.33657
0.336574
0.336579
0.336583
0.336583
0.336588
0.336593
0.336598
0.336602
0.336602
0.336607
0.336612
0.336617
0.336622
0.336622
0.336627
0.336631
0.336636
0.336641
0.336641
0.336646
0.336652
0.336657
0.336662
0.336662
0.336667
0.336672
0.336677
0.336683
0.336683
0.336688
0.336693
0.336698
0.336704
0.336704
0.336709
0.336715
0.33672
0.336726
0.336726
0.336731
0.336737
0.336742
0.336748
0.336748
0.336753
0.336759
0.336765
0.336771
0.336771
0.336776
0.336782
0.336788
0.336794
0.336794
0.3368
0.336806
0.336812
0.336818
0.336818
0.336824
0.33683
0.336836
0.336842
0.336842
0.336848
0.336854
0.33686
0.336866
0.336866
0.336873
0.336879
0.336885
0.336892
0.336892
0.336898
0.336904
0.336911
0.336917
0.336917
0.336924
0.33693
0.336937
0.336943
0.336943
0.33695
0.336957
0.336963
0.33697
0.33697
0.336977
0.336984
0.33699
0.336997
0.336997
0.337004
0.337011
0.337018
0.337025
0.337025
0.337032
0.337039
0.337046
0.337053
0.337053
0.33706
0.337067
0.337074
0.337082
0.337082
0.337089
0.337096
0.337103
0.337111
0.337111
0.337118
0.337125
0.337133
0.33714
0.33714
0.337148
0.337155
0.337163
0.33717
0.33717
0.337178
0.337186
0.337193
0.337201
0.337201
0.337209
0.337216
0.337224
0.337232
0.337232
0.33724
0.337248
0.337256
0.337264
0.337264
0.337272
0.33728
0.337288
0.337296
0.337296
0.337304
0.337312
0.33732
0.337328
0.337328
0.337336
0.337345
0.337353
0.337361
0.337361
0.337369
0.337378
0.337386
0.337395
0.337395
0.337403
0.337412
0.33742
0.337429
0.337429
0.337437
0.337446
0.337454
0.337463
0.337463
0.337472
0.337481
0.337489
0.337498
0.337498
0.337507
0.337516
0.337525
0.337533
0.337533
0.337542
0.337551
0.33756
0.337569
0.337569
0.337578
0.337588
0.337597
0.337606
0.337606
0.337615
0.337624
0.337634
0.337643
0.337643
0.337652
0.337661
0.337671
0.33768
0.33768
0.33769
0.337699
0.337709
0.337718
0.337718
0.337728
0.337737
0.337747
0.337756
0.337756
0.337766
0.337776
0.337786
0.337795
0.337795
0.337805
0.337815
0.337825
0.337835
0.337835
0.337845
0.337855
0.337865
0.337875
0.337875
0.337885
0.337895
0.337905
0.337915
0.337915
0.337925
0.337935
0.337945
0.337956
0.337956
0.337966
0.337976
0.337987
0.337997
0.337997
0.338007
0.338018
0.338028
0.338039
0.338039
0.338049
0.33806
0.33807
0.338081
0.338081
0.338092
0.338102
0.338113
0.338124
0.338124
0.338135
0.338145
0.338156
0.338167
0.338167
0.338178
0.338189
0.3382
0.338211
0.338211
0.338222
0.338233
0.338244
0.338255
0.338255
0.338266
0.338277
0.338289
0.3383
0.3383
0.338311
0.338322
0.338334
0.338345
0.338345
0.338356
0.338368
0.338379
0.338391
0.338391
0.338402
0.338414
0.338425
0.338437
0.338437
0.338449
0.33846
0.338472
0.338484
0.338484
0.338495
0.338507
0.338519
0.338531
0.338531
0.338543
0.338555
0.338566
0.338578
0.338578
0.33859
0.338602
0.338614
0.338627
0.338627
0.338639
0.338651
0.338663
0.338675
0.338675
0.338687
0.3387
0.338712
0.338724
0.338724
0.338737
0.338749
0.338761
0.338774
0.338774
0.338786
0.338799
0.338811
0.338824
0.338824
0.338837
0.338849
0.338862
0.338875
0.338875
0.338887
0.3389
0.338913
0.338926
0.338926
0.338938
0.338951
0.338964
0.338977
0.338977
0.33899
0.339003
0.339016
0.339029
0.339029
0.339042
0.339055
0.339069
0.339082
0.339082
0.339095
0.339108
0.339121
0.339135
0.339135
0.339148
0.339161
0.339175
0.339188
0.339188
0.339202
0.339215
0.339229
0.339242
0.339242
0.339256
0.339269
0.339283
0.339297
0.339297
0.33931
0.339324
0.339338
0.339352
0.339352
0.339366
0.339379
0.339393
0.339407
0.339407
0.339421
0.339435
0.339449
0.339463
0.339463
0.339477
0.339491
0.339505
0.33952
0.33952
0.339534
0.339548
0.339562
0.339576
0.339576
0.339591
0.339605
0.339619
0.339634
0.339634
0.339648
0.339663
0.339677
0.339692
0.339692
0.339706
0.339721
0.339735
0.33975
0.33975
0.339765
0.339779
0.339794
0.339809
0.339809
0.339824
0.339839
0.339853
0.339868
0.339868
0.339883
0.339898
0.339913
0.339928
0.339928
0.339943
0.339958
0.339973
0.339988
0.339988
0.340004
0.340019
0.340034
0.340049
0.340049
0.340065
0.34008
0.340095
0.340111
0.340111
0.340126
0.340141
0.340157
0.340172
0.340172
0.340188
0.340203
0.340219
0.340235
0.340235
0.34025
0.340266
0.340282
0.340297
0.340297
0.340313
0.340329
0.340345
0.340361
0.340361
0.340376
0.340392
0.340408
0.340424
0.340424
0.34044
0.340456
0.340472
0.340489
0.340489
0.340505
0.340521
0.340537
0.340553
0.340553
0.340569
0.340586
0.340602
0.340618
0.340618
0.340635
0.340651
0.340668
0.340684
0.340684
0.340701
0.340717
0.340734
0.34075
0.34075
0.340767
0.340783
0.3408
0.340817
0.340817
0.340834
0.34085
0.340867
0.340884
0.340884
0.340901
0.340918
0.340935
0.340952
0.340952
0.340969
0.340986
0.341003
0.34102
0.34102
0.341037
0.341054
0.341071
0.341088
0.341088
0.341106
0.341123
0.34114
0.341157
0.341157
0.341175
0.341192
0.34121
0.341227
0.341227
0.341244
0.341262
0.341279
0.341297
0.341297
0.341315
0.341332
0.34135
0.341368
0.341368
0.341385
0.341403
0.341421
0.341439
0.341439
0.341456
0.341474
0.341492
0.34151
0.34151
0.341528
0.341546
0.341564
0.341582
0.341582
0.3416
0.341618
0.341636
0.341654
0.341654
0.341673
0.341691
0.341709
0.341727
0.341727
0.341746
0.341764
0.341782
0.341801
0.341801
0.341819
0.341838
0.341856
0.341875
0.341875
0.341893
0.341912
0.341931
0.341949
0.341949
0.341968
0.341987
0.342005
0.342024
0.342024
0.342043
0.342062
0.342081
0.3421
0.3421
0.342118
0.342137
0.342156
0.342175
0.342175
0.342194
0.342214
0.342233
0.342252
0.342252
0.342271
0.34229
0.342309
0.342329
0.342329
0.342348
0.342367
0.342387
0.342406
0.342406
0.342425
0.342445
0.342464
0.342484
0.342484
0.342503
0.342523
0.342542
0.342562
0.342562
0.342582
0.342601
0.342621
0.342641
0.342641
0.342661
0.34268
0.3427
0.34272
0.34272
0.34274
0.34276
0.34278
0.3428
0.3428
0.34282
0.34284
0.34286
0.34288
0.34288
0.3429
0.34292
0.342941
0.342961
0.342961
0.342981
0.343001
0.343022
0.343042
0.343042
0.343062
0.343083
0.343103
0.343124
0.343124
0.343144
0.343165
0.343185
0.343206
0.343206
0.343226
0.343247
0.343268
0.343289
0.343289
0.343309
0.34333
0.343351
0.343372
0.343372
0.343393
0.343413
0.343434
0.343455
0.343455
0.343476
0.343497
0.343518
0.343539
0.343539
0.34356
0.343582
0.343603
0.343624
0.343624
0.343645
0.343666
0.343688
0.343709
0.343709
0.34373
0.343752
0.343773
0.343795
0.343795
0.343816
0.343838
0.343859
0.343881
0.343881
0.343902
0.343924
0.343946
0.343967
0.343967
0.343989
0.344011
0.344032
0.344054
0.344054
0.344076
0.344098
0.34412
0.344142
0.344142
0.344164
0.344186
0.344208
0.34423
0.34423
0.344252
0.344274
0.344296
0.344318
0.344318
0.34434
0.344363
0.344385
0.344407
0.344407
0.344429
0.344452
0.344474
0.344497
0.344497
0.344519
0.344541
0.344564
0.344586
0.344586
0.344609
0.344632
0.344654
0.344677
0.344677
0.3447
0.344722
0.344745
0.344768
0.344768
0.344791
0.344813
0.344836
0.344859
0.344859
0.344882
0.344905
0.344928
0.344951
0.344951
0.344974
0.344997
0.34502
0.345043
0.345043
0.345066
0.34509
0.345113
0.345136
0.345136
0.345159
0.345183
0.345206
0.345229
0.345229
0.345253
0.345276
0.3453
0.345323
0.345323
0.345347
0.34537
0.345394
0.345417
0.345417
0.345441
0.345465
0.345488
0.345512
0.345512
0.345536
0.34556
0.345584
0.345607
0.345607
0.345631
0.345655
0.345679
0.345703
0.345703
0.345727
0.345751
0.345775
0.345799
0.345799
0.345824
0.345848
0.345872
0.345896
0.345896
0.34592
0.345945
0.345969
0.345993
0.345993
0.346018
0.346042
0.346066
0.346091
0.346091
0.346115
0.34614
0.346164
0.346189
0.346189
0.346214
0.346238
0.346263
0.346288
0.346288
0.346312
0.346337
0.346362
0.346387
0.346387
0.346412
0.346436
0.346461
0.346486
0.346486
0.346511
0.346536
0.346561
0.346586
0.346586
0.346611
0.346637
0.346662
0.346687
0.346687
0.346712
0.346737
0.346763
0.346788
0.346788
0.346813
0.346839
0.346864
0.346889
0.346889
0.346915
0.34694
0.346966
0.346991
0.346991
0.347017
0.347043
0.347068
0.347094
0.347094
0.34712
0.347145
0.347171
0.347197
0.347197
0.347223
0.347248
0.347274
0.3473
0.3473
0.347326
0.347352
0.347378
0.347404
0.347404
0.34743
0.347456
0.347482
0.347509
0.347509
0.347535
0.347561
0.347587
0.347613
0.347613
0.34764
0.347666
0.347692
0.347719
0.347719
0.347745
0.347772
0.347798
0.347825
0.347825
0.347851
0.347878
0.347904
0.347931
0.347931
0.347958
0.347984
0.348011
0.348038
0.348038
0.348064
0.348091
0.348118
0.348145
0.348145
0.348172
0.348199
0.348226
0.348253
0.348253
0.34828
0.348307
0.348334
0.348361
0.348361
0.348388
0.348415
0.348443
0.34847
0.34847
0.348497
0.348524
0.348552
0.348579
0.348579
0.348606
0.348634
0.348661
0.348689
0.348689
0.348716
0.348744
0.348771
0.348799
0.348799
0.348826
0.348854
0.348882
0.348909
0.348909
0.348937
0.348965
0.348993
0.349021
0.349021
0.349048
0.349076
0.349104
0.349132
0.349132
0.34916
0.349188
0.349216
0.349244
0.349244
0.349272
0.3493
0.349329
0.349357
0.349357
0.349385
0.349413
0.349442
0.34947
0.34947
0.349498
0.349527
0.349555
0.349583
0.349583
0.349612
0.34964
0.349669
0.349697
0.349697
0.349726
0.349755
0.349783
0.349812
0.349812
0.349841
0.349869
0.349898
0.349927
0.349927
0.349956
0.349985
0.350013
0.350042
0.350042
0.350071
0.3501
0.350129
0.350158
0.350158
0.350187
0.350216
0.350246
0.350275
0.350275
0.350304
0.350333
0.350362
0.350392
0.350392
0.350421
0.35045
0.35048
0.350509
0.350509
0.350538
0.350568
0.350597
0.350627
0.350627
0.350656
0.350686
0.350715
0.350745
0.350745
0.350775
0.350804
0.350834
0.350864
0.350864
0.350894
0.350923
0.350953
0.350983
0.350983
0.351013
0.351043
0.351073
0.351103
0.351103
0.351133
0.351163
0.351193
0.351223
0.351223
0.351253
0.351283
0.351314
0.351344
0.351344
0.351374
0.351404
0.351435
0.351465
0.351465
0.351495
0.351526
0.351556
0.351587
0.351587
0.351617
0.351648
0.351678
0.351709
0.351709
0.35174
0.35177
0.351801
0.351832
0.351832
0.351862
0.351893
0.351924
0.351955
0.351955
0.351986
0.352016
0.352047
0.352078
0.352078
0.352109
0.35214
0.352171
0.352202
0.352202
0.352233
0.352265
0.352296
0.352327
0.352327
0.352358
0.352389
0.352421
0.352452
0.352452
0.352483
0.352515
0.352546
0.352577
0.352577
0.352609
0.35264
0.352672
0.352703
0.352703
0.352735
0.352767
0.352798
0.35283
0.35283
0.352862
0.352893
0.352925
0.352957
0.352957
0.352989
0.35302
0.353052
0.353084
0.353084
0.353116
0.353148
0.35318
0.353212
0.353212
0.353244
0.353276
0.353308
0.35334
0.35334
0.353373
0.353405
0.353437
0.353469
0.353469
0.353502
0.353534
0.353566
0.353599
0.353599
0.353631
0.353663
0.353696
0.353728
0.353728
0.353761
0.353794
0.353826
0.353859
0.353859
0.353891
0.353924
0.353957
0.353989
0.353989
0.354022
0.354055
0.354088
0.354121
0.354121
0.354154
0.354187
0.354219
0.354252
0.354252
0.354285
0.354318
0.354352
0.354385
0.354385
0.354418
0.354451
0.354484
0.354517
0.354517
0.354551
0.354584
0.354617
0.35465
0.35465
0.354684
0.354717
0.354751
0.354784
0.354784
0.354818
0.354851
0.354885
0.354918
0.354918
0.354952
0.354985
0.355019
0.355053
0.355053
0.355086
0.35512
0.355154
0.355188
0.355188
0.355222
0.355255
0.355289
0.355323
0.355323
0.355357
0.355391
0.355425
0.355459
0.355459
0.355493
0.355527
0.355562
0.355596
0.355596
0.35563
0.355664
0.355698
0.355733
0.355733
0.355767
0.355801
0.355836
0.35587
0.35587
0.355905
0.355939
0.355973
0.356008
0.356008
0.356043
0.356077
0.356112
0.356146
0.356146
0.356181
0.356216
0.35625
0.356285
0.356285
0.35632
0.356355
0.35639
0.356425
0.356425
0.356459
0.356494
0.356529
0.356564
0.356564
0.356599
0.356634
0.35667
0.356705
0.356705
0.35674
0.356775
0.35681
0.356845
0.356845
0.356881
0.356916
0.356951
0.356987
0.356987
0.357022
0.357057
0.357093
0.357128
0.357128
0.357164
0.357199
0.357235
0.357271
0.357271
0.357306
0.357342
0.357377
0.357413
0.357413
0.357449
0.357485
0.35752
0.357556
0.357556
0.357592
0.357628
0.357664
0.3577
0.3577
0.357736
0.357772
0.357808
0.357844
0.357844
0.35788
0.357916
0.357952
0.357989
0.357989
0.358025
0.358061
0.358097
0.358134
0.358134
0.35817
0.358206
0.358243
0.358279
0.358279
0.358315
0.358352
0.358388
0.358425
0.358425
0.358462
0.358498
0.358535
0.358571
0.358571
0.358608
0.358645
0.358682
0.358718
0.358718
0.358755
0.358792
0.358829
0.358866
0.358866
0.358903
0.35894
0.358977
0.359014
0.359014
0.359051
0.359088
0.359125
0.359162
0.359162
0.359199
0.359236
0.359274
0.359311
0.359311
0.359348
0.359385
0.359423
0.35946
0.35946
0.359497
0.359535
0.359572
0.35961
0.35961
0.359647
0.359685
0.359722
0.35976
0.35976
0.359798
0.359835
0.359873
0.359911
0.359911
0.359949
0.359986
0.360024
0.360062
0.360062
0.3601
0.360138
0.360176
0.360214
0.360214
0.360252
0.36029
0.360328
0.360366
0.360366
0.360404
0.360442
0.36048
0.360518
0.360518
0.360557
0.360595
0.360633
0.360671
0.360671
0.36071
0.360748
0.360787
0.360825
0.360825
0.360863
0.360902
0.36094
0.360979
0.360979
0.361018
0.361056
0.361095
0.361133
0.361133
0.361172
0.361211
0.36125
0.361288
0.361288
0.361327
0.361366
0.361405
0.361444
0.361444
0.361483
0.361522
0.361561
0.3616
0.3616
0.361639
0.361678
0.361717
0.361756
0.361756
0.361795
0.361834
0.361874
0.361913
0.361913
0.361952
0.361992
0.362031
0.36207
0.36207
0.36211
0.362149
0.362189
0.362228
0.362228
0.362268
0.362307
0.362347
0.362386
0.362386
0.362426
0.362466
0.362505
0.362545
0.362545
0.362585
0.362625
0.362664
0.362704
0.362704
0.362744
0.362784
0.362824
0.362864
0.362864
0.362904
0.362944
0.362984
0.363024
0.363024
0.363064
0.363104
0.363144
0.363185
0.363185
0.363225
0.363265
0.363305
0.363346
0.363346
0.363386
0.363426
0.363467
0.363507
0.363507
0.363548
0.363588
0.363629
0.363669
0.363669
0.36371
0.363751
0.363791
0.363832
0.363832
0.363873
0.363913
0.363954
0.363995
0.363995
0.364036
0.364076
0.364117
0.364158
0.364158
0.364199
0.36424
0.364281
0.364322
0.364322
0.364363
0.364404
0.364445
0.364486
0.364486
0.364528
0.364569
0.36461
0.364651
0.364651
0.364693
0.364734
0.364775
0.364817
0.364817
0.364858
0.364899
0.364941
0.364982
0.364982
0.365024
0.365065
0.365107
0.365149
0.365149
0.36519
0.365232
0.365274
0.365315
0.365315
0.365357
0.365399
0.365441
0.365483
0.365483
0.365524
0.365566
0.365608
0.36565
0.36565
0.365692
0.365734
0.365776
0.365818
0.365818
0.36586
0.365903
0.365945
0.365987
0.365987
0.366029
0.366071
0.366114
0.366156
0.366156
0.366198
0.366241
0.366283
0.366326
0.366326
0.366368
0.366411
0.366453
0.366496
0.366496
0.366538
0.366581
0.366623
0.366666
0.366666
0.366709
0.366751
0.366794
0.366837
0.366837
0.36688
0.366923
0.366965
0.367008
0.367008
0.367051
0.367094
0.367137
0.36718
0.36718
0.367223
0.367266
0.367309
0.367353
0.367353
0.367396
0.367439
0.367482
0.367525
0.367525
0.367569
0.367612
0.367655
0.367699
0.367699
0.367742
0.367786
0.367829
0.367872
0.367872
0.367916
0.367959
0.368003
0.368047
0.368047
0.36809
0.368134
0.368178
0.368221
0.368221
0.368265
0.368309
0.368353
0.368396
0.368396
0.36844
0.368484
0.368528
0.368572
0.368572
0.368616
0.36866
0.368704
0.368748
0.368748
0.368792
0.368836
0.368881
0.368925
0.368925
0.368969
0.369013
0.369057
0.369102
0.369102
0.369146
0.36919
0.369235
0.369279
0.369279
0.369324
0.369368
0.369413
0.369457
0.369457
0.369502
0.369546
0.369591
0.369636
0.369636
0.36968
0.369725
0.36977
0.369814
0.369814
0.369859
0.369904
0.369949
0.369994
0.369994
0.370039
0.370084
0.370129
0.370174
0.370174
0.370219
0.370264
0.370309
0.370354
0.370354
0.370399
0.370444
0.370489
0.370535
0.370535
0.37058
0.370625
0.37067
0.370716
0.370716
0.370761
0.370807
0.370852
0.370897
0.370897
0.370943
0.370988
0.371034
0.37108
0.37108
0.371125
0.371171
0.371217
0.371262
0.371262
0.371308
0.371354
0.371399
0.371445
0.371445
0.371491
0.371537
0.371583
0.371629
0.371629
0.371675
0.371721
0.371767
0.371813
0.371813
0.371859
0.371905
0.371951
0.371997
0.371997
0.372043
0.37209
0.372136
0.372182
0.372182
0.372228
0.372275
0.372321
0.372368
0.372368
0.372414
0.37246
0.372507
0.372553
0.372553
0.3726
0.372647
0.372693
0.37274
0.37274
0.372786
0.372833
0.37288
0.372927
0.372927
0.372973
0.37302
0.373067
0.373114
0.373114
0.373161
0.373208
0.373254
0.373301
0.373301
0.373348
0.373395
0.373443
0.37349
0.37349
0.373537
0.373584
0.373631
0.373678
0.373678
0.373726
0.373773
0.37382
0.373867
0.373867
0.373915
0.373962
0.374009
0.374057
0.374057
0.374104
0.374152
0.374199
0.374247
0.374247
0.374295
0.374342
0.37439
0.374437
0.374437
0.374485
0.374533
0.374581
0.374628
0.374628
0.374676
0.374724
0.374772
0.37482
0.37482
0.374868
0.374916
0.374964
0.375012
0.375012
0.37506
0.375108
0.375156
0.375204
0.375204
0.375252
0.3753
0.375349
0.375397
0.375397
0.375445
0.375493
0.375542
0.37559
0.37559
0.375638
0.375687
0.375735
0.375784
0.375784
0.375832
0.375881
0.375929
0.375978
0.375978
0.376027
0.376075
0.376124
0.376173
0.376173
0.376221
0.37627
0.376319
0.376368
0.376368
0.376417
0.376465
0.376514
0.376563
0.376563
0.376612
0.376661
0.37671
0.376759
0.376759
0.376808
0.376858
0.376907
0.376956
0.376956
0.377005
0.377054
0.377103
0.377153
0.377153
0.377202
0.377251
0.377301
0.37735
0.37735
0.3774
0.377449
0.377499
0.377548
0.377548
0.377598
0.377647
0.377697
0.377746
0.377746
0.377796
0.377846
0.377895
0.377945
0.377945
0.377995
0.378045
0.378095
0.378144
0.378144
0.378194
0.378244
0.378294
0.378344
0.378344
0.378394
0.378444
0.378494
0.378544
0.378544
0.378594
0.378645
0.378695
0.378745
0.378745
0.378795
0.378845
0.378896
0.378946
0.378946
0.378996
0.379047
0.379097
0.379148
0.379148
0.379198
0.379249
0.379299
0.37935
0.37935
0.3794
0.379451
0.379501
0.379552
0.379552
0.379603
0.379653
0.379704
0.379755
0.379755
0.379806
0.379857
0.379908
0.379958
0.379958
0.380009
0.38006
0.380111
0.380162
0.380162
0.380213
0.380264
0.380315
0.380367
0.380367
0.380418
0.380469
0.38052
0.380571
0.380571
0.380623
0.380674
0.380725
0.380777
0.380777
0.380828
0.380879
0.380931
0.380982
0.380982
0.381034
0.381085
0.381137
0.381188
0.381188
0.38124
0.381292
0.381343
0.381395
0.381395
0.381447
0.381498
0.38155
0.381602
0.381602
0.381654
0.381706
0.381758
0.38181
0.38181
0.381862
0.381913
0.381965
0.382018
0.382018
0.38207
0.382122
0.382174
0.382226
0.382226
0.382278
0.38233
0.382383
0.382435
0.382435
0.382487
0.382539
0.382592
0.382644
0.382644
0.382697
0.382749
0.382801
0.382854
0.382854
0.382907
0.382959
0.383012
0.383064
0.383064
0.383117
0.38317
0.383222
0.383275
0.383275
0.383328
0.38338
0.383433
0.383486
0.383486
0.383539
0.383592
0.383645
0.383698
0.383698
0.383751
0.383804
0.383857
0.38391
0.38391
0.383963
0.384016
0.384069
0.384122
0.384122
0.384176
0.384229
0.384282
0.384335
0.384335
0.384389
0.384442
0.384495
0.384549
0.384549
0.384602
0.384656
0.384709
0.384763
0.384763
0.384816
0.38487
0.384923
0.384977
0.384977
0.385031
0.385084
0.385138
0.385192
0.385192
0.385246
0.385299
0.385353
0.385407
0.385407
0.385461
0.385515
0.385569
0.385623
0.385623
0.385677
0.385731
0.385785
0.385839
0.385839
0.385893
0.385947
0.386002
0.386056
0.386056
0.38611
0.386164
0.386218
0.386273
0.386273
0.386327
0.386382
0.386436
0.38649
0.38649
0.386545
0.386599
0.386654
0.386708
0.386708
0.386763
0.386818
0.386872
0.386927
0.386927
0.386981
0.387036
0.387091
0.387146
0.387146
0.387201
0.387255
0.38731
0.387365
0.387365
0.38742
0.387475
0.38753
0.387585
0.387585
0.38764
0.387695
0.38775
0.387805
0.387805
0.38786
0.387915
0.387971
0.388026
0.388026
0.388081
0.388136
0.388192
0.388247
0.388247
0.388302
0.388358
0.388413
0.388469
0.388469
0.388524
0.38858
0.388635
0.388691
0.388691
0.388746
0.388802
0.388858
0.388913
0.388913
0.388969
0.389025
0.389081
0.389136
0.389136
0.389192
0.389248
0.389304
0.38936
0.38936
0.389416
0.389472
0.389528
0.389584
0.389584
0.38964
0.389696
0.389752
0.389808
0.389808
0.389864
0.38992
0.389977
0.390033
0.390033
0.390089
0.390145
0.390202
0.390258
0.390258
0.390314
0.390371
0.390427
0.390484
0.390484
0.39054
0.390597
0.390653
0.39071
0.39071
0.390766
0.390823
0.39088
0.390936
0.390936
0.390993
0.39105
0.391107
0.391164
0.391164
0.39122
0.391277
0.391334
0.391391
0.391391
0.391448
0.391505
0.391562
0.391619
0.391619
0.391676
0.391733
0.39179
0.391847
0.391847
0.391905
0.391962
0.392019
0.392076
0.392076
0.392134
0.392191
0.392248
0.392306
0.392306
0.392363
0.39242
0.392478
0.392535
0.392535
0.392593
0.39265
0.392708
0.392766
0.392766
0.392823
0.392881
0.392938
0.392996
0.392996
0.393054
0.393112
0.393169
0.393227
0.393227
0.393285
0.393343
0.393401
0.393459
0.393459
0.393517
0.393575
0.393633
0.393691
0.393691
0.393749
0.393807
0.393865
0.393923
0.393923
0.393981
0.39404
0.394098
0.394156
0.394156
0.394215
0.394273
0.394331
0.39439
0.39439
0.394448
0.394506
0.394565
0.394623
0.394623
0.394682
0.39474
0.394799
0.394858
0.394858
0.394916
0.394975
0.395034
0.395092
0.395092
0.395151
0.39521
0.395269
0.395327
0.395327
0.395386
0.395445
0.395504
0.395563
0.395563
0.395622
0.395681
0.39574
0.395799
0.395799
0.395858
0.395917
0.395976
0.396036
0.396036
0.396095
0.396154
0.396213
0.396273
0.396273
0.396332
0.396391
0.396451
0.39651
0.39651
0.396569
0.396629
0.396688
0.396748
0.396748
0.396807
0.396867
0.396926
0.396986
0.396986
0.397046
0.397105
0.397165
0.397225
0.397225
0.397285
0.397344
0.397404
0.397464
0.397464
0.397524
0.397584
0.397644
0.397704
0.397704
0.397764
0.397824
0.397884
0.397944
0.397944
0.398004
0.398064
0.398124
0.398184
0.398184
0.398244
0.398305
0.398365
0.398425
0.398425
0.398485
0.398546
0.398606
0.398667
0.398667
0.398727
0.398787
0.398848
0.398908
0.398908
0.398969
0.399029
0.39909
0.399151
0.399151
0.399211
0.399272
0.399333
0.399393
0.399393
0.399454
0.399515
0.399576
0.399637
0.399637
0.399697
0.399758
0.399819
0.39988
0.39988
0.399941
0.400002
0.400063
0.400124
0.400124
0.400185
0.400247
0.400308
0.400369
0.400369
0.40043
0.400491
0.400553
0.400614
0.400614
0.400675
0.400736
0.400798
0.400859
0.400859
0.400921
0.400982
0.401044
0.401105
0.401105
0.401167
0.401228
0.40129
0.401351
0.401351
0.401413
0.401475
0.401536
0.401598
0.401598
0.40166
0.401722
0.401783
0.401845
0.401845
0.401907
0.401969
0.402031
0.402093
0.402093
0.402155
0.402217
0.402279
0.402341
0.402341
0.402403
0.402465
0.402527
0.40259
0.40259
0.402652
0.402714
0.402776
0.402839
0.402839
0.402901
0.402963
0.403026
0.403088
0.403088
0.40315
0.403213
0.403275
0.403338
0.403338
0.4034
0.403463
0.403525
0.403588
0.403588
0.403651
0.403713
0.403776
0.403839
0.403839
0.403902
0.403964
0.404027
0.40409
0.40409
0.404153
0.404216
0.404279
0.404342
0.404342
0.404405
0.404468
0.404531
0.404594
0.404594
0.404657
0.40472
0.404783
0.404846
0.404846
0.404909
0.404973
0.405036
0.405099
0.405099
0.405162
0.405226
0.405289
0.405353
0.405353
0.405416
0.405479
0.405543
0.405606
0.405606
0.40567
0.405733
0.405797
0.405861
0.405861
0.405924
0.405988
0.406052
0.406115
0.406115
0.406179
0.406243
0.406307
0.40637
0.40637
0.406434
0.406498
0.406562
0.406626
0.406626
0.40669
0.406754
0.406818
0.406882
0.406882
0.406946
0.40701
0.407074
0.407139
0.407139
0.407203
0.407267
0.407331
0.407395
0.407395
0.40746
0.407524
0.407588
0.407653
0.407653
0.407717
0.407782
0.407846
0.407911
0.407911
0.407975
0.40804
0.408104
0.408169
0.408169
0.408233
0.408298
0.408363
0.408428
0.408428
0.408492
0.408557
0.408622
0.408687
0.408687
0.408752
0.408816
0.408881
0.408946
0.408946
0.409011
0.409076
0.409141
0.409206
0.409206
0.409271
0.409336
0.409401
0.409467
0.409467
0.409532
0.409597
0.409662
0.409727
0.409727
0.409793
0.409858
0.409923
0.409989
0.409989
0.410054
0.41012
0.410185
0.410251
0.410251
0.410316
0.410382
0.410447
0.410513
0.410513
0.410578
0.410644
0.41071
0.410775
0.410775
0.410841
0.410907
0.410973
0.411038
0.411038
0.411104
0.41117
0.411236
0.411302
0.411302
0.411368
0.411434
0.4115
0.411566
0.411566
0.411632
0.411698
0.411764
0.41183
0.41183
0.411896
0.411963
0.412029
0.412095
0.412095
0.412161
0.412228
0.412294
0.41236
0.41236
0.412427
0.412493
0.412559
0.412626
0.412626
0.412692
0.412759
0.412825
0.412892
0.412892
0.412959
0.413025
0.413092
0.413159
0.413159
0.413225
0.413292
0.413359
0.413426
0.413426
0.413492
0.413559
0.413626
0.413693
0.413693
0.41376
0.413827
0.413894
0.413961
0.413961
0.414028
0.414095
0.414162
0.414229
0.414229
0.414296
0.414363
0.414431
0.414498
0.414498
0.414565
0.414632
0.4147
0.414767
0.414767
0.414834
0.414902
0.414969
0.415037
0.415037
0.415104
0.415172
0.415239
0.415307
0.415307
0.415374
0.415442
0.415509
0.415577
0.415577
0.415645
0.415713
0.41578
0.415848
0.415848
0.415916
0.415984
0.416052
0.416119
0.416119
0.416187
0.416255
0.416323
0.416391
0.416391
0.416459
0.416527
0.416595
0.416663
0.416663
0.416731
0.4168
0.416868
0.416936
0.416936
0.417004
0.417072
0.417141
0.417209
0.417209
0.417277
0.417346
0.417414
0.417483
0.417483
0.417551
0.41762
0.417688
0.417757
0.417757
0.417825
0.417894
0.417962
0.418031
0.418031
0.4181
0.418168
0.418237
0.418306
0.418306
0.418374
0.418443
0.418512
0.418581
0.418581
0.41865
0.418719
0.418788
0.418857
0.418857
0.418926
0.418995
0.419064
0.419133
0.419133
0.419202
0.419271
0.41934
0.419409
0.419409
0.419478
0.419548
0.419617
0.419686
0.419686
0.419756
0.419825
0.419894
0.419964
0.419964
0.420033
0.420103
0.420172
0.420241
0.420241
0.420311
0.420381
0.42045
0.42052
0.42052
0.420589
0.420659
0.420729
0.420798
0.420798
0.420868
0.420938
0.421008
0.421078
0.421078
0.421147
0.421217
0.421287
0.421357
0.421357
0.421427
0.421497
0.421567
0.421637
0.421637
0.421707
0.421777
0.421847
0.421918
0.421918
0.421988
0.422058
0.422128
0.422198
0.422198
0.422269
0.422339
0.422409
0.42248
0.42248
0.42255
0.42262
0.422691
0.422761
0.422761
0.422832
0.422902
0.422973
0.423044
0.423044
0.423114
0.423185
0.423255
0.423326
0.423326
0.423397
0.423468
0.423538
0.423609
0.423609
0.42368
0.423751
0.423822
0.423892
0.423892
0.423963
0.424034
0.424105
0.424176
0.424176
0.424247
0.424318
0.42439
0.424461
0.424461
0.424532
0.424603
0.424674
0.424745
0.424745
0.424817
0.424888
0.424959
0.42503
0.42503
0.425102
0.425173
0.425245
0.425316
0.425316
0.425388
0.425459
0.425531
0.425602
0.425602
0.425674
0.425745
0.425817
0.425888
0.425888
0.42596
0.426032
0.426104
0.426175
0.426175
0.426247
0.426319
0.426391
0.426463
0.426463
0.426535
0.426606
0.426678
0.42675
0.42675
0.426822
0.426894
0.426966
0.427038
0.427038
0.427111
0.427183
0.427255
0.427327
0.427327
0.427399
0.427471
0.427544
0.427616
0.427616
0.427688
0.427761
0.427833
0.427905
0.427905
0.427978
0.42805
0.428123
0.428195
0.428195
0.428268
0.42834
0.428413
0.428486
0.428486
0.428558
0.428631
0.428704
0.428776
0.428776
0.428849
0.428922
0.428995
0.429067
0.429067
0.42914
0.429213
0.429286
0.429359
0.429359
0.429432
0.429505
0.429578
0.429651
0.429651
0.429724
0.429797
0.42987
0.429943
0.429943
0.430016
0.43009
0.430163
0.430236
0.430236
0.430309
0.430383
0.430456
0.430529
0.430529
0.430603
0.430676
0.43075
0.430823
0.430823
0.430897
0.43097
0.431044
0.431117
0.431117
0.431191
0.431264
0.431338
0.431412
0.431412
0.431485
0.431559
0.431633
0.431707
0.431707
0.43178
0.431854
0.431928
0.432002
0.432002
0.432076
0.43215
0.432224
0.432298
0.432298
0.432372
0.432446
0.43252
0.432594
0.432594
0.432668
0.432742
0.432816
0.432891
0.432891
0.432965
0.433039
0.433113
0.433188
0.433188
0.433262
0.433336
0.433411
0.433485
0.433485
0.43356
0.433634
0.433709
0.433783
0.433783
0.433858
0.433932
0.434007
0.434082
0.434082
0.434156
0.434231
0.434306
0.43438
0.43438
0.434455
0.43453
0.434605
0.434679
0.434679
0.434754
0.434829
0.434904
0.434979
0.434979
0.435054
0.435129
0.435204
0.435279
0.435279
0.435354
0.435429
0.435504
0.43558
0.43558
0.435655
0.43573
0.435805
0.43588
0.43588
0.435956
0.436031
0.436106
0.436182
0.436182
0.436257
0.436333
0.436408
0.436483
0.436483
0.436559
0.436634
0.43671
0.436786
0.436786
0.436861
0.436937
0.437012
0.437088
0.437088
0.437164
0.43724
0.437315
0.437391
0.437391
0.437467
0.437543
0.437619
0.437695
0.437695
0.43777
0.437846
0.437922
0.437998
0.437998
0.438074
0.43815
0.438226
0.438303
0.438303
0.438379
0.438455
0.438531
0.438607
0.438607
0.438683
0.43876
0.438836
0.438912
0.438912
0.438989
0.439065
0.439141
0.439218
0.439218
0.439294
0.439371
0.439447
0.439524
0.439524
0.4396
0.439677
0.439753
0.43983
0.43983
0.439907
0.439983
0.44006
0.440137
0.440137
0.440214
0.44029
0.440367
0.440444
0.440444
0.440521
0.440598
0.440675
0.440752
0.440752
0.440829
0.440906
0.440983
0.44106
0.44106
0.441137
0.441214
0.441291
0.441368
0.441368
0.441445
0.441522
0.4416
0.441677
0.441677
0.441754
0.441832
0.441909
0.441986
0.441986
0.442064
0.442141
0.442218
0.442296
0.442296
0.442373
0.442451
0.442528
0.442606
0.442606
0.442684
0.442761
0.442839
0.442917
0.442917