<?xml version="1.0"?>
<VTKFile type="UnstructuredGrid" version="0.1" byte_order="LittleEndian">
<UnstructuredGrid>
<Piece NumberOfPoints="5000" NumberOfCells="4000">
<PointData Scalars="Reaction 0">
<DataArray type="Float32" Name="Reaction 0" format="ascii">
0.398636
0.398636
0.398636
0.398636
0.398636
0.398636
0.398636
0.398636
0.398636
0.398636
0.398636
0.398637
0.398637
0.398637
0.398638
0.398638
0.398638
0.398638
0.398639
0.398639
0.398639
0.39864
0.39864
0.398641
0.398641
0.398641
0.398642
0.398643
0.398643
0.398644
0.398644
0.398645
0.398645
0.398646
0.398647
0.398647
0.398648
0.398649
0.39865
0.398651
0.398651
0.398651
0.398652
0.398653
0.398654
0.398654
0.398656
0.398657
0.398658
0.398659
0.398659
0.39866
0.398661
0.398663
0.398664
0.398664
0.398665
0.398666
0.398668
0.398669
0.398669
0.398671
0.398672
0.398674
0.398675
0.398675
0.398677
0.398678
0.39868
0.398681
0.398681
0.398683
0.398685
0.398686
0.398688
0.398688
0.39869
0.398692
0.398694
0.398695
0.398695
0.398697
0.398699
0.398701
0.398703
0.398703
0.398705
0.398707
0.398709
0.398711
0.398711
0.398713
0.398716
0.398718
0.39872
0.39872
0.398722
0.398724
0.398727
0.398729
0.398729
0.398731
0.398734
0.398736
0.398739
0.398739
0.398741
0.398744
0.398746
0.398749
0.398749
0.398751
0.398754
0.398757
0.398759
0.398759
0.398762
0.398765
0.398767
0.39877
0.39877
0.398773
0.398776
0.398779
0.398782
0.398782
0.398785
0.398788
0.398791
0.398794
0.398794
0.398797
0.3988
0.398803
0.398806
0.398806
0.398809
0.398812
0.398816
0.398819
0.398819
0.398822
0.398826
0.398829
0.398832
0.398832
0.398836
0.398839
0.398843
0.398846
0.398846
0.39885
0.398853
0.398857
0.39886
0.39886
0.398864
0.398868
0.398871
0.398875
0.398875
0.398879
0.398883
0.398886
0.39889
0.39889
0.398894
0.398898
0.398902
0.398906
0.398906
0.39891
0.398914
0.398918
0.398922
0.398922
0.398926
0.39893
0.398935
0.398939
0.398939
0.398943
0.398947
0.398952
0.398956
0.398956
0.39896
0.398965
0.398969
0.398973
0.398973
0.398978
0.398982
0.398987
0.398991
0.398991
0.398996
0.399001
0.399005
0.39901
0.39901
0.399015
0.399019
0.399024
0.399029
0.399029
0.399034
0.399038
0.399043
0.399048
0.399048
0.399053
0.399058
0.399063
0.399068
0.399068
0.399073
0.399078
0.399083
0.399088
0.399088
0.399094
0.399099
0.399104
0.399109
0.399109
0.399115
0.39912
0.399125
0.399131
0.399131
0.399136
0.399141
0.399147
0.399152
0.399152
0.399158
0.399163
0.399169
0.399175
0.399175
0.39918
0.399186
0.399192
0.399197
0.399197
0.399203
0.399209
0.399215
0.39922
0.39922
0.399226
0.399232
0.399238
0.399244
0.399244
0.39925
0.399256
0.399262
0.399268
0.399268
0.399274
0.39928
0.399287
0.399293
0.399293
0.399299
0.399305
0.399311
0.399318
0.399318
0.399324
0.39933
0.399337
0.399343
0.399343
0.39935
0.399356
0.399363
0.399369
0.399369
0.399376
0.399382
0.399389
0.399396
0.399396
0.399402
0.399409
0.399416
0.399423
0.399423
0.399429
0.399436
0.399443
0.39945
0.39945
0.399457
0.399464
0.399471
0.399478
0.399478
0.399485
0.399492
0.399499
0.399506
0.399506
0.399513
0.39952
0.399528
0.399535
0.399535
0.399542
0.39955
0.399557
0.399564
0.399564
0.399572
0.399579
0.399586
0.399594
0.399594
0.399601
0.399609
0.399617
0.399624
0.399624
0.399632
0.399639
0.399647
0.399655
0.399655
0.399662
0.39967
0.399678
0.399686
0.399686
0.399694
0.399702
0.39971
0.399717
0.399717
0.399725
0.399733
0.399741
0.39975
0.39975
0.399758
0.399766
0.399774
0.399782
0.399782
0.39979
0.399798
0.399807
0.399815
0.399815
0.399823
0.399832
0.39984
0.399849
0.399849
0.399857
0.399865
0.399874
0.399882
0.399882
0.399891
0.3999
0.399908
0.399917
0.399917
0.399926
0.399934
0.399943
0.399952
0.399952
0.399961
0.399969
0.399978
0.399987
0.399987
0.399996
0.400005
0.400014
0.400023
0.400023
0.400032
0.400041
0.40005
0.400059
0.400059
0.400068
0.400077
0.400087
0.400096
0.400096
0.400105
0.400114
0.400124
0.400133
0.400133
0.400142
0.400152
0.400161
0.400171
0.400171
0.40018
0.40019
0.400199
0.400209
0.400209
0.400219
0.400228
0.400238
0.400248
0.400248
0.400257
0.400267
0.400277
0.400287
0.400287
0.400296
0.400306
0.400316
0.400326
0.400326
0.400336
0.400346
0.400356
0.400366
0.400366
0.400376
0.400386
0.400397
0.400407
0.400407
0.400417
0.400427
0.400437
0.400448
0.400448
0.400458
0.400468
0.400479
0.400489
0.400489
0.4005
0.40051
0.40052
0.400531
0.400531
0.400542
0.400552
0.400563
0.400573
0.400573
0.400584
0.400595
0.400605
0.400616
0.400616
0.400627
0.400638
0.400649
0.400659
0.400659
0.40067
0.400681
0.400692
0.400703
0.400703
0.400714
0.400725
0.400736
0.400747
0.400747
0.400759
0.40077
0.400781
0.400792
0.400792
0.400803
0.400815
0.400826
0.400837
0.400837
0.400849
0.40086
0.400872
0.400883
0.400883
0.400895
0.400906
0.400918
0.400929
0.400929
0.400941
0.400952
0.400964
0.400976
0.400976
0.400987
0.400999
0.401011
0.401023
0.401023
0.401035
0.401046
0.401058
0.40107
0.40107
0.401082
0.401094
0.401106
0.401118
0.401118
0.40113
0.401142
0.401155
0.401167
0.401167
0.401179
0.401191
0.401203
0.401216
0.401216
0.401228
0.40124
0.401253
0.401265
0.401265
0.401277
0.40129
0.401302
0.401315
0.401315
0.401327
0.40134
0.401353
0.401365
0.401365
0.401378
0.401391
0.401403
0.401416
0.401416
0.401429
0.401442
0.401454
0.401467
0.401467
0.40148
0.401493
0.401506
0.401519
0.401519
0.401532
0.401545
0.401558
0.401571
0.401571
0.401584
0.401598
0.401611
0.401624
0.401624
0.401637
0.40165
0.401664
0.401677
0.401677
0.40169
0.401704
0.401717
0.401731
0.401731
0.401744
0.401758
0.401771
0.401785
0.401785
0.401798
0.401812
0.401826
0.401839
0.401839
0.401853
0.401867
0.401881
0.401894
0.401894
0.401908
0.401922
0.401936
0.40195
0.40195
0.401964
0.401978
0.401992
0.402006
0.402006
0.40202
0.402034
0.402048
0.402062
0.402062
0.402076
0.402091
0.402105
0.402119
0.402119
0.402133
0.402148
0.402162
0.402177
0.402177
0.402191
0.402205
0.40222
0.402234
0.402234
0.402249
0.402263
0.402278
0.402293
0.402293
0.402307
0.402322
0.402337
0.402351
0.402351
0.402366
0.402381
0.402396
0.402411
0.402411
0.402426
0.40244
0.402455
0.40247
0.40247
0.402485
0.4025
0.402515
0.402531
0.402531
0.402546
0.402561
0.402576
0.402591
0.402591
0.402606
0.402622
0.402637
0.402652
0.402652
0.402668
0.402683
0.402699
0.402714
0.402714
0.402729
0.402745
0.40276
0.402776
0.402776
0.402792
0.402807
0.402823
0.402839
0.402839
0.402854
0.40287
0.402886
0.402902
0.402902
0.402917
0.402933
0.402949
0.402965
0.402965
0.402981
0.402997
0.403013
0.403029
0.403029
0.403045
0.403061
0.403077
0.403093
0.403093
0.40311
0.403126
0.403142
0.403158
0.403158
0.403175
0.403191
0.403207
0.403224
0.403224
0.40324
0.403256
0.403273
0.403289
0.403289
0.403306
0.403322
0.403339
0.403356
0.403356
0.403372
0.403389
0.403406
0.403422
0.403422
0.403439
0.403456
0.403473
0.40349
0.40349
0.403507
0.403523
0.40354
0.403557
0.403557
0.403574
0.403591
0.403608
0.403626
0.403626
0.403643
0.40366
0.403677
0.403694
0.403694
0.403711
0.403729
0.403746
0.403763
0.403763
0.403781
0.403798
0.403815
0.403833
0.403833
0.40385
0.403868
0.403885
0.403903
0.403903
0.40392
0.403938
0.403956
0.403973
0.403973
0.403991
0.404009
0.404027
0.404044
0.404044
0.404062
0.40408
0.404098
0.404116
0.404116
0.404134
0.404152
0.40417
0.404188
0.404188
0.404206
0.404224
0.404242
0.40426
0.40426
0.404278
0.404297
0.404315
0.404333
0.404333
0.404351
0.40437
0.404388
0.404406
0.404406
0.404425
0.404443
0.404462
0.40448
0.40448
0.404499
0.404517
0.404536
0.404554
0.404554
0.404573
0.404592
0.40461
0.404629
0.404629
0.404648
0.404667
0.404686
0.404704
0.404704
0.404723
0.404742
0.404761
0.40478
0.40478
0.404799
0.404818
0.404837
0.404856
0.404856
0.404875
0.404894
0.404914
0.404933
0.404933
0.404952
0.404971
0.404991
0.40501
0.40501
0.405029
0.405049
0.405068
0.405087
0.405087
0.405107
0.405126
0.405146
0.405166
0.405166
0.405185
0.405205
0.405224
0.405244
0.405244
0.405264
0.405283
0.405303
0.405323
0.405323
0.405343
0.405363
0.405383
0.405402
0.405402
0.405422
0.405442
0.405462
0.405482
0.405482
0.405502
0.405522
0.405543
0.405563
0.405563
0.405583
0.405603
0.405623
0.405644
0.405644
0.405664
0.405684
0.405705
0.405725
0.405725
0.405745
0.405766
0.405786
0.405807
0.405807
0.405827
0.405848
0.405868
0.405889
0.405889
0.40591
0.40593
0.405951
0.405972
0.405972
0.405992
0.406013
0.406034
0.406055
0.406055
0.406076
0.406097
0.406118
0.406139
0.406139
0.40616
0.406181
0.406202
0.406223
0.406223
0.406244
0.406265
0.406286
0.406307
0.406307
0.406329
0.40635
0.406371
0.406392
0.406392
0.406414
0.406435
0.406457
0.406478
0.406478
0.406499
0.406521
0.406543
0.406564
0.406564
0.406586
0.406607
0.406629
0.406651
0.406651
0.406672
0.406694
0.406716
0.406738
0.406738
0.406759
0.406781
0.406803
0.406825
0.406825
0.406847
0.406869
0.406891
0.406913
0.406913
0.406935
0.406957
0.406979
0.407001
0.407001
0.407023
0.407046
0.407068
0.40709
0.40709
0.407112
0.407135
0.407157
0.407179
0.407179
0.407202
0.407224
0.407247
0.407269
0.407269
0.407292
0.407314
0.407337
0.40736
0.40736
0.407382
0.407405
0.407428
0.40745
0.40745
0.407473
0.407496
0.407519
0.407542
0.407542
0.407564
0.407587
0.40761
0.407633
0.407633
0.407656
0.407679
0.407702
0.407725
0.407725
0.407748
0.407772
0.407795
0.407818
0.407818
0.407841
0.407864
0.407888
0.407911
0.407911
0.407934
0.407958
0.407981
0.408005
0.408005
0.408028
0.408052
0.408075
0.408099
0.408099
0.408122
0.408146
0.40817
0.408193
0.408193
0.408217
0.408241
0.408264
0.408288
0.408288
0.408312
0.408336
0.40836
0.408384
0.408384
0.408408
0.408432
0.408456
0.40848
0.40848
0.408504
0.408528
0.408552
0.408576
0.408576
0.4086
0.408624
0.408649
0.408673
0.408673
0.408697
0.408721
0.408746
0.40877
0.40877
0.408795
0.408819
0.408844
0.408868
0.408868
0.408893
0.408917
0.408942
0.408966
0.408966
0.408991
0.409016
0.40904
0.409065
0.409065
0.40909
0.409115
0.409139
0.409164
0.409164
0.409189
0.409214
0.409239
0.409264
0.409264
0.409289
0.409314
0.409339
0.409364
0.409364
0.409389
0.409414
0.40944
0.409465
0.409465
0.40949
0.409515
0.409541
0.409566
0.409566
0.409591
0.409617
0.409642
0.409668
0.409668
0.409693
0.409718
0.409744
0.40977
0.40977
0.409795
0.409821
0.409846
0.409872
0.409872
0.409898
0.409924
0.409949
0.409975
0.409975
0.410001
0.410027
0.410053
0.410079
0.410079
0.410105
0.410131
0.410157
0.410183
0.410183
0.410209
0.410235
0.410261
0.410287
0.410287
0.410313
0.410339
0.410366
0.410392
0.410392
0.410418
0.410445
0.410471
0.410497
0.410497
0.410524
0.41055
0.410577
0.410603
0.410603
0.41063
0.410656
0.410683
0.410709
0.410709
0.410736
0.410763
0.410789
0.410816
0.410816
0.410843
0.41087
0.410897
0.410923
0.410923
0.41095
0.410977
0.411004
0.411031
0.411031
0.411058
0.411085
0.411112
0.411139
0.411139
0.411167
0.411194
0.411221
0.411248
0.411248
0.411275
0.411303
0.41133
0.411357
0.411357
0.411385
0.411412
0.411439
0.411467
0.411467
0.411494
0.411522
0.411549
0.411577
0.411577
0.411605
0.411632
0.41166
0.411688
0.411688
0.411715
0.411743
0.411771
0.411799
0.411799
0.411826
0.411854
0.411882
0.41191
0.41191
0.411938
0.411966
0.411994
0.412022
0.412022
0.41205
0.412078
0.412106
0.412135
0.412135
0.412163
0.412191
0.412219
0.412247
0.412247
0.412276
0.412304
0.412332
0.412361
0.412361
0.412389
0.412418
0.412446
0.412475
0.412475
0.412503
0.412532
0.41256
0.412589
0.412589
0.412618
0.412646
0.412675
0.412704
0.412704
0.412733
0.412762
0.41279
0.412819
0.412819
0.412848
0.412877
0.412906
0.412935
0.412935
0.412964
0.412993
0.413022
0.413051
0.413051
0.41308
0.41311
0.413139
0.413168
0.413168
0.413197
0.413227
0.413256
0.413285
0.413285
0.413315
0.413344
0.413373
0.413403
0.413403
0.413432
0.413462
0.413491
0.413521
0.413521
0.413551
0.41358
0.41361
0.41364
0.41364
0.413669
0.413699
0.413729
0.413759
0.413759
0.413789
0.413818
0.413848
0.413878
0.413878
0.413908
0.413938
0.413968
0.413998
0.413998
0.414028
0.414059
0.414089
0.414119
0.414119
0.414149
0.414179
0.41421
0.41424
0.41424
0.41427
0.414301
0.414331
0.414361
0.414361
0.414392
0.414422
0.414453
0.414483
0.414483
0.414514
0.414544
0.414575
0.414606
0.414606
0.414636
0.414667
0.414698
0.414729
0.414729
0.414759
0.41479
0.414821
0.414852
0.414852
0.414883
0.414914
0.414945
0.414976
0.414976
0.415007
0.415038
0.415069
0.4151
0.4151
0.415131
0.415162
0.415194
0.415225
0.415225
0.415256
0.415287
0.415319
0.41535
0.41535
0.415382
0.415413
0.415444
0.415476
0.415476
0.415507
0.415539
0.41557
0.415602
0.415602
0.415634
0.415665
0.415697
0.415729
0.415729
0.41576
0.415792
0.415824
0.415856
0.415856
0.415888
0.41592
0.415952
0.415984
0.415984
0.416016
0.416048
0.41608
0.416112
0.416112
0.416144
0.416176
0.416208
0.41624
0.41624
0.416272
0.416305
0.416337
0.416369
0.416369
0.416402
0.416434
0.416466
0.416499
0.416499
0.416531
0.416564
0.416596
0.416629
0.416629
0.416661
0.416694
0.416727
0.416759
0.416759
0.416792
0.416825
0.416858
0.41689
0.41689
0.416923
0.416956
0.416989
0.417022
0.417022
0.417055
0.417088
0.417121
0.417154
0.417154
0.417187
0.41722
0.417253
0.417286
0.417286
0.417319
0.417352
0.417386
0.417419
0.417419
0.417452
0.417486
0.417519
0.417552
0.417552
0.417586
0.417619
0.417653
0.417686
0.417686
0.41772
0.417753
0.417787
0.41782
0.41782
0.417854
0.417888
0.417921
0.417955
0.417955
0.417989
0.418023
0.418057
0.41809
0.41809
0.418124
0.418158
0.418192
0.418226
0.418226
0.41826
0.418294
0.418328
0.418362
0.418362
0.418396
0.418431
0.418465
0.418499
0.418499
0.418533
0.418567
0.418602
0.418636
0.418636
0.41867
0.418705
0.418739
0.418774
0.418774
0.418808
0.418843
0.418877
0.418912
0.418912
0.418946
0.418981
0.419016
0.41905
0.41905
0.419085
0.41912
0.419155
0.419189
0.419189
0.419224
0.419259
0.419294
0.419329
0.419329
0.419364
0.419399
0.419434
0.419469
0.419469
0.419504
0.419539
0.419574
0.419609
0.419609
0.419645
0.41968
0.419715
0.41975
0.41975
0.419786
0.419821
0.419856
0.419892
0.419892
0.419927
0.419963
0.419998
0.420034
0.420034
0.420069
0.420105
0.420141
0.420176
0.420176
0.420212
0.420248
0.420283
0.420319
0.420319
0.420355
0.420391
0.420427
0.420462
0.420462
0.420498
0.420534
0.42057
0.420606
0.420606
0.420642
0.420678
0.420714
0.420751
0.420751
0.420787
0.420823
0.420859
0.420895
0.420895
0.420932
0.420968
0.421004
0.421041
0.421041
0.421077
0.421113
0.42115
0.421186
0.421186
0.421223
0.421259
0.421296
0.421333
0.421333
0.421369
0.421406
0.421443
0.421479
0.421479
0.421516
0.421553
0.42159
0.421626
0.421626
0.421663
0.4217
0.421737
0.421774
0.421774
0.421811
0.421848
0.421885
0.421922
0.421922
0.421959
0.421996
0.422034
0.422071
0.422071
0.422108
0.422145
0.422183
0.42222
0.42222
0.422257
0.422295
0.422332
0.422369
0.422369
0.422407
0.422444
0.422482
0.422519
0.422519
0.422557
0.422595
0.422632
0.42267
0.42267
0.422708
0.422745
0.422783
0.422821
0.422821
0.422859
0.422897
0.422935
0.422972
0.422972
0.42301
0.423048
0.423086
0.423124
0.423124
0.423162
0.423201
0.423239
0.423277
0.423277
0.423315
0.423353
0.423391
0.42343
0.42343
0.423468
0.423506
0.423545
0.423583
0.423583
0.423622
0.42366
0.423699
0.423737
0.423737
0.423776
0.423814
0.423853
0.423891
0.423891
0.42393
0.423969
0.424007
0.424046
0.424046
0.424085
0.424124
0.424163
0.424202
0.424202
0.42424
0.424279
0.424318
0.424357
0.424357
0.424396
0.424435
0.424474
0.424514
0.424514
0.424553
0.424592
0.424631
0.42467
0.42467
0.42471
0.424749
0.424788
0.424828
0.424828
0.424867
0.424906
0.424946
0.424985
0.424985
0.425025
0.425064
0.425104
0.425143
0.425143
0.425183
0.425223
0.425262
0.425302
0.425302
0.425342
0.425382
0.425421
0.425461
0.425461
0.425501
0.425541
0.425581
0.425621
0.425621
0.425661
0.425701
0.425741
0.425781
0.425781
0.425821
0.425861
0.425901
0.425942
0.425942
0.425982
0.426022
0.426062
0.426103
0.426103
0.426143
0.426183
0.426224
0.426264
0.426264
0.426305
0.426345
0.426386
0.426426
0.426426
0.426467
0.426507
0.426548
0.426589
0.426589
0.426629
0.42667
0.426711
0.426752
0.426752
0.426793
0.426833
0.426874
0.426915
0.426915
0.426956
0.426997
0.427038
0.427079
0.427079
0.42712
0.427161
0.427202
0.427244
0.427244
0.427285
0.427326
0.427367
0.427408
0.427408
0.42745
0.427491
0.427532
0.427574
0.427574
0.427615
0.427657
0.427698
0.42774
0.42774
0.427781
0.427823
0.427864
0.427906
0.427906
0.427948
0.427989
0.428031
0.428073
0.428073
0.428115
0.428157
0.428198
0.42824
0.42824
0.428282
0.428324
0.428366
0.428408
0.428408
0.42845
0.428492
0.428534
0.428576
0.428576
0.428618
0.428661
0.428703
0.428745
0.428745
0.428787
0.42883
0.428872
0.428914
0.428914
0.428957
0.428999
0.429042
0.429084
0.429084
0.429127
0.429169
0.429212
0.429254
0.429254
0.429297
0.42934
0.429382
0.429425
0.429425
0.429468
0.429511
0.429553
0.429596
0.429596
0.429639
0.429682
0.429725
0.429768
0.429768
0.429811
0.429854
0.429897
0.42994
0.42994
0.429983
0.430026
0.430069
0.430113
0.430113
0.430156
0.430199
0.430242
0.430286
0.430286
0.430329
0.430372
0.430416
0.430459
0.430459
0.430503
0.430546
0.43059
0.430633
0.430633
0.430677
0.430721
0.430764
0.430808
0.430808
0.430852
0.430895
0.430939
0.430983
0.430983
0.431027
0.431071
0.431115
0.431159
0.431159
0.431202
0.431246
0.43129
0.431335
0.431335
0.431379
0.431423
0.431467
0.431511
0.431511
0.431555
0.431599
0.431644
0.431688
0.431688
0.431732
0.431777
0.431821
0.431865
0.431865
0.43191
0.431954
0.431999
0.432043
0.432043
0.432088
0.432133
0.432177
0.432222
0.432222
0.432267
0.432311
0.432356
0.432401
0.432401
0.432446
0.43249
0.432535
0.43258
0.43258
0.432625
0.43267
0.432715
0.43276
0.43276
0.432805
0.43285
0.432895
0.43294
0.43294
0.432986
0.433031
0.433076
0.433121
0.433121
0.433167
0.433212
0.433257
0.433303
0.433303
0.433348
0.433393
0.433439
0.433484
0.433484
0.43353
0.433575
0.433621
0.433667
0.433667
0.433712
0.433758
0.433804
0.433849
0.433849
0.433895
0.433941
0.433987
0.434033
0.434033
0.434079
0.434125
0.434171
0.434217
0.434217
0.434263
0.434309
0.434355
0.434401
0.434401
0.434447
0.434493
0.434539
0.434586
0.434586
0.434632
0.434678
0.434724
0.434771
0.434771
0.434817
0.434864
0.43491
0.434956
0.434956
0.435003
0.435049
0.435096
0.435143
0.435143
0.435189
0.435236
0.435283
0.435329
0.435329
0.435376
0.435423
0.43547
0.435516
0.435516
0.435563
0.43561
0.435657
0.435704
0.435704
0.435751
0.435798
0.435845
0.435892
0.435892
0.435939
0.435987
0.436034
0.436081
0.436081
0.436128
0.436175
0.436223
0.43627
0.43627
0.436317
0.436365
0.436412
0.43646
0.43646
0.436507
0.436555
0.436602
0.43665
0.43665
0.436697
0.436745
0.436793
0.43684
0.43684
0.436888
0.436936
0.436983
0.437031
0.437031
0.437079
0.437127
0.437175
0.437223
0.437223
0.437271
0.437319
0.437367
0.437415
0.437415
0.437463
0.437511
0.437559
0.437607
0.437607
0.437656
0.437704
0.437752
0.4378
0.4378
0.437849
0.437897
0.437945
0.437994
0.437994
0.438042
0.438091
0.438139
0.438188
0.438188
0.438236
0.438285
0.438334
0.438382
0.438382
0.438431
0.43848
0.438529
0.438577
0.438577
0.438626
0.438675
0.438724
0.438773
0.438773
0.438822
0.438871
0.43892
0.438969
0.438969
0.439018
0.439067
0.439116
0.439165
0.439165
0.439214
0.439264
0.439313
0.439362
0.439362
0.439411
0.439461
0.43951
0.439559
0.439559
0.439609
0.439658
0.439708
0.439757
0.439757
0.439807
0.439857
0.439906
0.439956
0.439956
0.440005
0.440055
0.440105
0.440155
0.440155
0.440204
0.440254
0.440304
0.440354
0.440354
0.440404
0.440454
0.440504
0.440554
0.440554
0.440604
0.440654
0.440704
0.440754
0.440754
0.440804
0.440855
0.440905
0.440955
0.440955
0.441005
0.441056
0.441106
0.441156
0.441156
0.441207
0.441257
0.441308
0.441358
0.441358
0.441409
0.441459
0.44151
0.44156
0.44156
0.441611
0.441662
0.441713
0.441763
0.441763
0.441814
0.441865
0.441916
0.441967
0.441967
0.442017
0.442068
0.442119
0.44217
0.44217
0.442221
0.442272
0.442323
0.442375
0.442375
0.442426
0.442477
0.442528
0.442579
0.442579
0.442631
0.442682
0.442733
0.442785
0.442785
0.442836
0.442887
0.442939
0.44299
0.44299
0.443042
0.443093
0.443145
0.443197
0.443197
0.443248
0.4433
0.443352
0.443403
0.443403
0.443455
0.443507
0.443559
0.443611
0.443611
0.443662
0.443714
0.443766
0.443818
0.443818
0.44387
0.443922
0.443974
0.444026
0.444026
0.444079
0.444131
0.444183
0.444235
0.444235
0.444287
0.44434
0.444392
0.444444
0.444444
0.444497
0.444549
0.444602
0.444654
0.444654
0.444706
0.444759
0.444812
0.444864
0.444864
0.444917
0.444969
0.445022
0.445075
0.445075
0.445128
0.44518
0.445233
0.445286
0.445286
0.445339
0.445392
0.445445
0.445498
0.445498
0.445551
0.445604
0.445657
0.44571
0.44571
0.445763
0.445816
0.445869
0.445922
0.445922
0.445976
0.446029
0.446082
0.446136
0.446136
0.446189
0.446242
0.446296
0.446349
0.446349
0.446403
0.446456
0.44651
0.446563
0.446563
0.446617
0.446671
0.446724
0.446778
0.446778
0.446832
0.446885
0.446939
0.446993
0.446993
0.447047
0.447101
0.447155
0.447209
0.447209
0.447263
0.447317
0.447371
0.447425
0.447425
0.447479
0.447533
0.447587
0.447641
0.447641
0.447696
0.44775
0.447804
0.447858
0.447858
0.447913
0.447967
0.448022
0.448076
0.448076
0.44813
0.448185
0.448239
0.448294
0.448294
0.448349
0.448403
0.448458
0.448513
0.448513
0.448567
0.448622
0.448677
0.448732
0.448732
0.448787
0.448841
0.448896
0.448951
0.448951
0.449006
0.449061
0.449116
0.449171
0.449171
0.449226
0.449282
0.449337
0.449392
0.449392
0.449447
0.449502
0.449558
0.449613
0.449613
0.449668
0.449724
0.449779
0.449835
0.449835
0.44989
0.449945
0.450001
0.450057
0.450057
0.450112
0.450168
0.450223
0.450279
0.450279
0.450335
0.450391
0.450446
0.450502
0.450502
0.450558
0.450614
0.45067
0.450726
0.450726
0.450782
0.450838
0.450894
0.45095
0.45095
0.451006
0.451062
0.451118
0.451174
0.451174
0.45123
0.451287
0.451343
0.451399
0.451399
0.451456
0.451512
0.451568
0.451625
0.451625
0.451681
0.451738
0.451794
0.451851
0.451851
0.451907
0.451964
0.452021
0.452077
0.452077
0.452134
0.452191
0.452248
0.452304
0.452304
0.452361
0.452418
0.452475
0.452532
0.452532
0.452589
0.452646
0.452703
0.45276
0.45276
0.452817
0.452874
0.452931
0.452989
0.452989
0.453046
0.453103
0.45316
0.453218
0.453218
0.453275
0.453332
0.45339
0.453447
0.453447
0.453505
0.453562
0.45362
0.453677
0.453677
0.453735
0.453792
0.45385
0.453908
0.453908
0.453965
0.454023
0.454081
0.454139
0.454139
0.454196
0.454254
0.454312
0.45437
0.45437
0.454428
0.454486
0.454544
0.454602
0.454602
0.45466
0.454718
0.454777
0.454835
0.454835
0.454893
0.454951
0.455009
0.455068
0.455068
0.455126
0.455184
0.455243
0.455301
0.455301
0.45536
0.455418
0.455477
0.455535
0.455535
0.455594
0.455652
0.455711
0.45577
0.45577
0.455829
0.455887
0.455946
0.456005
0.456005
0.456064
0.456123
0.456181
0.45624
0.45624
0.456299
0.456358
0.456417
0.456476
0.456476
0.456536
0.456595
0.456654
0.456713
0.456713
0.456772
0.456831
0.456891
0.45695
0.45695
0.457009
0.457069
0.457128
0.457188
0.457188
0.457247
0.457307
0.457366
0.457426
0.457426
0.457485
0.457545
0.457604
0.457664
0.457664
0.457724
0.457784
0.457843
0.457903
0.457903
0.457963
0.458023
0.458083
0.458143
0.458143
0.458203
0.458263
0.458323
0.458383
0.458383
0.458443
0.458503
0.458563
0.458623
0.458623
0.458684
0.458744
0.458804
0.458864
0.458864
0.458925
0.458985
0.459046
0.459106
0.459106
0.459167
0.459227
0.459288
0.459348
0.459348
0.459409
0.459469
0.45953
0.459591
0.459591
0.459651
0.459712
0.459773
0.459834
0.459834
0.459895
0.459956
0.460016
0.460077
0.460077
0.460138
0.460199
0.46026
0.460321
0.460321
0.460383
0.460444
0.460505
0.460566
0.460566
0.460627
0.460689
0.46075
0.460811
0.460811
0.460873
0.460934
0.460995
0.461057
0.461057
0.461118
0.46118
0.461241
0.461303
0.461303
0.461365
0.461426
0.461488
0.46155
0.46155
0.461611
0.461673
0.461735
0.461797
0.461797
0.461859
0.46192
0.461982
0.462044
0.462044
0.462106
0.462168
0.46223
0.462292
0.462292
0.462355
0.462417
0.462479
0.462541
0.462541
0.462603
0.462666
0.462728
0.46279
0.46279
0.462853
0.462915
0.462978
0.46304
0.46304
0.463102
0.463165
0.463228
0.46329
0.46329
0.463353
0.463415
0.463478
0.463541
0.463541
0.463604
0.463666
0.463729
0.463792
0.463792
0.463855
0.463918
0.463981
0.464044
0.464044
0.464107
0.46417
0.464233
0.464296
0.464296
0.464359
0.464422
0.464485
0.464549
0.464549
0.464612
0.464675
0.464739
0.464802
0.464802
0.464865
0.464929
0.464992
0.465056
0.465056
0.465119
0.465183
0.465246
0.46531
0.46531
0.465374
0.465437
0.465501
0.465565
0.465565
0.465628
0.465692
0.465756
0.46582
0.46582
0.465884
0.465948
0.466012
0.466076
0.466076
0.46614
0.466204
0.466268
0.466332
0.466332
0.466396
0.46646
0.466525
0.466589
0.466589
0.466653
0.466717
0.466782
0.466846
0.466846
0.466911
0.466975
0.46704
0.467104
0.467104
0.467169
0.467233
0.467298
0.467362
0.467362
0.467427
0.467492
0.467556
0.467621
0.467621
0.467686
0.467751
0.467816
0.467881
0.467881
0.467946
0.46801
0.468075
0.46814
0.46814
0.468206
0.468271
0.468336
0.468401
0.468401
0.468466
0.468531
0.468597
0.468662
0.468662
0.468727
0.468792
0.468858
0.468923
0.468923
0.468989
0.469054
0.46912
0.469185
0.469185
0.469251
0.469316
0.469382
0.469448
0.469448
0.469513
0.469579
0.469645
0.469711
0.469711
0.469776
0.469842
0.469908
0.469974
0.469974
0.47004
0.470106
0.470172
0.470238
0.470238
0.470304
0.47037
0.470436
0.470503
0.470503
0.470569
0.470635
0.470701
0.470768
0.470768
0.470834
0.4709
0.470967
0.471033
0.471033
0.4711
0.471166
0.471233
0.471299
0.471299
0.471366
0.471432
0.471499
0.471566
0.471566
0.471632
0.471699
0.471766
0.471833
0.471833
0.4719
0.471967
0.472033
0.4721
0.4721
0.472167
0.472234
0.472301
0.472369
0.472369
0.472436
0.472503
0.47257
0.472637
0.472637
0.472704
0.472772
0.472839
0.472906
0.472906
0.472974
0.473041
0.473109
0.473176
0.473176
0.473243
0.473311
0.473379
0.473446
0.473446
0.473514
0.473581
0.473649
0.473717
0.473717
0.473785
0.473852
0.47392
0.473988
0.473988
0.474056
0.474124
0.474192
0.47426
0.47426
0.474328
0.474396
0.474464
0.474532
0.474532
0.4746
0.474668
0.474737
0.474805
0.474805
0.474873
0.474941
0.47501
0.475078
0.475078
0.475147
0.475215
0.475284
0.475352
0.475352
0.475421
0.475489
0.475558
0.475626
0.475626
0.475695
0.475764
0.475832
0.475901
0.475901
0.47597
0.476039
0.476108
0.476177
0.476177
0.476246
0.476314
0.476383
0.476452
0.476452
0.476522
0.476591
0.47666
0.476729
0.476729
0.476798
0.476867
0.476937
0.477006
0.477006
0.477075
0.477145
0.477214
0.477283
0.477283
0.477353
0.477422
0.477492
0.477561
0.477561
0.477631
0.477701
0.47777
0.47784
0.47784
0.47791
0.477979
0.478049
0.478119
0.478119
0.478189
0.478259
0.478328
0.478398
0.478398
0.478468
0.478538
0.478608
0.478678
0.478678
0.478749
0.478819
0.478889
0.478959
0.478959
0.479029
0.4791
0.47917
0.47924
0.47924
0.479311
0.479381
0.479451
0.479522
0.479522
0.479592
0.479663
0.479733
0.479804
0.479804
0.479875
0.479945
0.480016
0.480087
0.480087
0.480158
0.480228
0.480299
0.48037
0.48037
0.480441
0.480512
0.480583
0.480654
0.480654
0.480725
0.480796
0.480867
0.480938
0.480938
0.481009
0.48108
0.481152
0.481223
0.481223
0.481294
0.481365
0.481437
0.481508
0.481508
0.48158
0.481651
0.481722
0.481794
0.481794
0.481866
0.481937
0.482009
0.48208
0.48208
0.482152
0.482224
0.482296
0.482367
0.482367
0.482439
0.482511
0.482583
0.482655
0.482655
0.482727
0.482799
0.482871
0.482943
0.482943
0.483015
0.483087
0.483159
0.483231
0.483231
0.483303
0.483376
0.483448
0.48352
0.48352
0.483593
0.483665
0.483737
0.48381
0.48381
0.483882
0.483955
0.484027
0.4841
0.4841
0.484172
0.484245
0.484318
0.48439
0.48439
0.484463
0.484536
0.484609
0.484682
0.484682
0.484754
0.484827
0.4849
0.484973
0.484973
0.485046
0.485119
0.485192
0.485265
0.485265
0.485339
0.485412
0.485485
0.485558
0.485558
0.485631
0.485705
0.485778
0.485851
0.485851
0.485925
0.485998
0.486072
0.486145
0.486145
0.486219
0.486292
0.486366
0.48644
0.48644
0.486513
0.486587
0.486661
0.486734
0.486734
0.486808
0.486882
0.486956
0.48703
0.48703
0.487104
0.487178
0.487252
0.487326
0.487326
0.4874
0.487474
0.487548
0.487622
0.487622
0.487696
0.487771
0.487845
0.487919
0.487919
0.487993
0.488068
0.488142
0.488217
0.488217
0.488291
0.488366
0.48844
0.488515
0.488515
0.488589
0.488664
0.488739
0.488813
0.488813
0.488888
0.488963
0.489038
0.489112
0.489112
0.489187
0.489262
0.489337
0.489412
0.489412
0.489487
0.489562
0.489637
0.489712
0.489712
0.489787
0.489863
0.489938
0.490013
0.490013
0.490088
0.490164
0.490239
0.490314
0.490314
0.49039
0.490465
0.490541
0.490616
0.490616
0.490692
0.490767
0.490843
0.490918
0.490918
0.490994
0.49107
0.491145
0.491221
0.491221
0.491297
0.491373
0.491449
0.491525
0.491525
0.491601
0.491677
0.491753
0.491829
0.491829
0.491905
0.491981
0.492057
0.492133
0.492133
0.492209
0.492285
0.492362
0.492438
0.492438
0.492514
0.492591
0.492667
0.492744
0.492744
0.49282
0.492897
0.492973
0.49305
0.49305
0.493126
0.493203
0.49328
0.493356
0.493356
0.493433
0.49351
0.493587
0.493664
0.493664
0.49374
0.493817
0.493894
0.493971
0.493971
0.494048
0.494125
0.494202
0.49428
0.49428
0.494357
0.494434
0.494511
0.494588
0.494588
0.494666
0.494743
0.49482
0.494898
0.494898
0.494975
0.495053
0.49513
0.495208
0.495208
0.495285
0.495363
0.49544
0.495518
0.495518
0.495596
0.495673
0.495751
0.495829
0.495829
0.495907
0.495985
0.496063
0.49614
0.49614
0.496218
0.496296
0.496374
0.496453
0.496453
0.496531
0.496609
0.496687
0.496765
0.496765
0.496843
0.496922
0.497
0.497078
0.497078
0.497157
0.497235
0.497313
0.497392
0.497392
0.49747
0.497549
0.497628
0.497706
0.497706
0.497785
0.497863
0.497942
0.498021
0.498021
0.4981
0.498179
0.498257
0.498336
0.498336
0.498415
0.498494
0.498573
0.498652
0.498652
0.498731
0.49881
0.498889
0.498969
0.498969
0.499048
0.499127
0.499206
0.499286
0.499286
0.499365
0.499444
0.499524
0.499603
0.499603
0.499682
0.499762
0.499842
0.499921
0.499921
0.500001
0.50008
0.50016
0.50024
0.50024
0.500319
0.500399
0.500479
0.500559
0.500559
0.500639
0.500719
0.500799
0.500879
0.500879
0.500959
0.501039
0.501119
0.501199
0.501199
0.501279
0.501359
0.501439
0.50152
0.50152
0.5016
0.50168
0.501761
0.501841
0.501841
0.501921
0.502002
0.502082
0.502163
0.502163
0.502243
0.502324
0.502405
0.502485
0.502485
0.502566
0.502647
0.502727
0.502808
0.502808
0.502889
0.50297
0.503051
0.503132
0.503132
0.503213
0.503294
0.503375
0.503456
0.503456
0.503537
0.503618
0.503699
0.503781
0.503781
0.503862
0.503943
0.504024
0.504106
0.504106
0.504187
0.504269
0.50435
0.504432
0.504432
0.504513
0.504595
0.504676
0.504758
0.504758
0.50484
0.504921
0.505003
0.505085
0.505085
0.505167
0.505248
0.50533
0.505412
0.505412
0.505494