<?xml version="1.0"?>
<VTKFile type="UnstructuredGrid" version="0.1" byte_order="LittleEndian">
<UnstructuredGrid>
<Piece NumberOfPoints="5000" NumberOfCells="4000">
<PointData Scalars="Reaction 0">
<DataArray type="Float32" Name="Reaction 0" format="ascii">
0.392098
0.392098
0.392098
0.392098
0.392098
0.392098
0.392098
0.392098
0.392098
0.392098
0.392098
0.392099
0.392099
0.392099
0.3921
0.3921
0.3921
0.3921
0.392101
0.392101
0.392101
0.392102
0.392102
0.392103
0.392103
0.392103
0.392104
0.392105
0.392105
0.392106
0.392106
0.392107
0.392107
0.392108
0.392109
0.392109
0.39211
0.392111
0.392112
0.392112
0.392112
0.392113
0.392114
0.392115
0.392116
0.392116
0.392117
0.392119
0.39212
0.392121
0.392121
0.392122
0.392123
0.392124
0.392126
0.392126
0.392127
0.392128
0.39213
0.392131
0.392131
0.392132
0.392134
0.392135
0.392137
0.392137
0.392138
0.39214
0.392142
0.392143
0.392143
0.392145
0.392147
0.392148
0.39215
0.39215
0.392152
0.392154
0.392155
0.392157
0.392157
0.392159
0.392161
0.392163
0.392165
0.392165
0.392167
0.392169
0.392171
0.392173
0.392173
0.392175
0.392177
0.392179
0.392182
0.392182
0.392184
0.392186
0.392188
0.392191
0.392191
0.392193
0.392195
0.392198
0.3922
0.3922
0.392203
0.392205
0.392208
0.39221
0.39221
0.392213
0.392216
0.392218
0.392221
0.392221
0.392224
0.392226
0.392229
0.392232
0.392232
0.392235
0.392237
0.39224
0.392243
0.392243
0.392246
0.392249
0.392252
0.392255
0.392255
0.392258
0.392261
0.392264
0.392267
0.392267
0.392271
0.392274
0.392277
0.39228
0.39228
0.392284
0.392287
0.39229
0.392294
0.392294
0.392297
0.3923
0.392304
0.392307
0.392307
0.392311
0.392314
0.392318
0.392322
0.392322
0.392325
0.392329
0.392333
0.392336
0.392336
0.39234
0.392344
0.392348
0.392351
0.392351
0.392355
0.392359
0.392363
0.392367
0.392367
0.392371
0.392375
0.392379
0.392383
0.392383
0.392387
0.392391
0.392395
0.3924
0.3924
0.392404
0.392408
0.392412
0.392417
0.392417
0.392421
0.392425
0.39243
0.392434
0.392434
0.392439
0.392443
0.392448
0.392452
0.392452
0.392457
0.392461
0.392466
0.392471
0.392471
0.392475
0.39248
0.392485
0.392489
0.392489
0.392494
0.392499
0.392504
0.392509
0.392509
0.392514
0.392519
0.392524
0.392529
0.392529
0.392534
0.392539
0.392544
0.392549
0.392549
0.392554
0.392559
0.392564
0.39257
0.39257
0.392575
0.39258
0.392585
0.392591
0.392591
0.392596
0.392602
0.392607
0.392613
0.392613
0.392618
0.392624
0.392629
0.392635
0.392635
0.39264
0.392646
0.392652
0.392657
0.392657
0.392663
0.392669
0.392675
0.39268
0.39268
0.392686
0.392692
0.392698
0.392704
0.392704
0.39271
0.392716
0.392722
0.392728
0.392728
0.392734
0.39274
0.392746
0.392752
0.392752
0.392759
0.392765
0.392771
0.392777
0.392777
0.392784
0.39279
0.392796
0.392803
0.392803
0.392809
0.392816
0.392822
0.392829
0.392829
0.392835
0.392842
0.392848
0.392855
0.392855
0.392862
0.392868
0.392875
0.392882
0.392882
0.392889
0.392895
0.392902
0.392909
0.392909
0.392916
0.392923
0.39293
0.392937
0.392937
0.392944
0.392951
0.392958
0.392965
0.392965
0.392972
0.392979
0.392987
0.392994
0.392994
0.393001
0.393008
0.393016
0.393023
0.393023
0.39303
0.393038
0.393045
0.393052
0.393052
0.39306
0.393067
0.393075
0.393083
0.393083
0.39309
0.393098
0.393105
0.393113
0.393113
0.393121
0.393129
0.393136
0.393144
0.393144
0.393152
0.39316
0.393168
0.393176
0.393176
0.393184
0.393191
0.393199
0.393208
0.393208
0.393216
0.393224
0.393232
0.39324
0.39324
0.393248
0.393256
0.393265
0.393273
0.393273
0.393281
0.393289
0.393298
0.393306
0.393306
0.393315
0.393323
0.393331
0.39334
0.39334
0.393348
0.393357
0.393366
0.393374
0.393374
0.393383
0.393392
0.3934
0.393409
0.393409
0.393418
0.393427
0.393435
0.393444
0.393444
0.393453
0.393462
0.393471
0.39348
0.39348
0.393489
0.393498
0.393507
0.393516
0.393516
0.393525
0.393534
0.393543
0.393553
0.393553
0.393562
0.393571
0.39358
0.39359
0.39359
0.393599
0.393608
0.393618
0.393627
0.393627
0.393637
0.393646
0.393656
0.393665
0.393665
0.393675
0.393684
0.393694
0.393704
0.393704
0.393713
0.393723
0.393733
0.393743
0.393743
0.393752
0.393762
0.393772
0.393782
0.393782
0.393792
0.393802
0.393812
0.393822
0.393822
0.393832
0.393842
0.393852
0.393862
0.393862
0.393872
0.393883
0.393893
0.393903
0.393903
0.393913
0.393924
0.393934
0.393944
0.393944
0.393955
0.393965
0.393976
0.393986
0.393986
0.393997
0.394007
0.394018
0.394028
0.394028
0.394039
0.39405
0.39406
0.394071
0.394071
0.394082
0.394092
0.394103
0.394114
0.394114
0.394125
0.394136
0.394147
0.394158
0.394158
0.394169
0.39418
0.394191
0.394202
0.394202
0.394213
0.394224
0.394235
0.394246
0.394246
0.394258
0.394269
0.39428
0.394291
0.394291
0.394303
0.394314
0.394325
0.394337
0.394337
0.394348
0.39436
0.394371
0.394383
0.394383
0.394394
0.394406
0.394418
0.394429
0.394429
0.394441
0.394453
0.394464
0.394476
0.394476
0.394488
0.3945
0.394511
0.394523
0.394523
0.394535
0.394547
0.394559
0.394571
0.394571
0.394583
0.394595
0.394607
0.394619
0.394619
0.394632
0.394644
0.394656
0.394668
0.394668
0.39468
0.394693
0.394705
0.394717
0.394717
0.39473
0.394742
0.394755
0.394767
0.394767
0.39478
0.394792
0.394805
0.394817
0.394817
0.39483
0.394842
0.394855
0.394868
0.394868
0.394881
0.394893
0.394906
0.394919
0.394919
0.394932
0.394945
0.394958
0.39497
0.39497
0.394983
0.394996
0.395009
0.395022
0.395022
0.395036
0.395049
0.395062
0.395075
0.395075
0.395088
0.395101
0.395115
0.395128
0.395128
0.395141
0.395155
0.395168
0.395181
0.395181
0.395195
0.395208
0.395222
0.395235
0.395235
0.395249
0.395262
0.395276
0.395289
0.395289
0.395303
0.395317
0.395331
0.395344
0.395344
0.395358
0.395372
0.395386
0.3954
0.3954
0.395413
0.395427
0.395441
0.395455
0.395455
0.395469
0.395483
0.395497
0.395512
0.395512
0.395526
0.39554
0.395554
0.395568
0.395568
0.395582
0.395597
0.395611
0.395625
0.395625
0.39564
0.395654
0.395668
0.395683
0.395683
0.395697
0.395712
0.395726
0.395741
0.395741
0.395756
0.39577
0.395785
0.3958
0.3958
0.395814
0.395829
0.395844
0.395859
0.395859
0.395873
0.395888
0.395903
0.395918
0.395918
0.395933
0.395948
0.395963
0.395978
0.395978
0.395993
0.396008
0.396023
0.396038
0.396038
0.396054
0.396069
0.396084
0.396099
0.396099
0.396115
0.39613
0.396145
0.396161
0.396161
0.396176
0.396191
0.396207
0.396222
0.396222
0.396238
0.396254
0.396269
0.396285
0.396285
0.3963
0.396316
0.396332
0.396347
0.396347
0.396363
0.396379
0.396395
0.396411
0.396411
0.396427
0.396442
0.396458
0.396474
0.396474
0.39649
0.396506
0.396522
0.396539
0.396539
0.396555
0.396571
0.396587
0.396603
0.396603
0.396619
0.396636
0.396652
0.396668
0.396668
0.396685
0.396701
0.396717
0.396734
0.396734
0.39675
0.396767
0.396783
0.3968
0.3968
0.396816
0.396833
0.39685
0.396866
0.396866
0.396883
0.3969
0.396916
0.396933
0.396933
0.39695
0.396967
0.396984
0.397001
0.397001
0.397018
0.397034
0.397051
0.397068
0.397068
0.397086
0.397103
0.39712
0.397137
0.397137
0.397154
0.397171
0.397188
0.397206
0.397206
0.397223
0.39724
0.397258
0.397275
0.397275
0.397292
0.39731
0.397327
0.397345
0.397345
0.397362
0.39738
0.397397
0.397415
0.397415
0.397433
0.39745
0.397468
0.397486
0.397486
0.397503
0.397521
0.397539
0.397557
0.397557
0.397575
0.397593
0.39761
0.397628
0.397628
0.397646
0.397664
0.397682
0.3977
0.3977
0.397719
0.397737
0.397755
0.397773
0.397773
0.397791
0.397809
0.397828
0.397846
0.397846
0.397864
0.397883
0.397901
0.39792
0.39792
0.397938
0.397956
0.397975
0.397994
0.397994
0.398012
0.398031
0.398049
0.398068
0.398068
0.398087
0.398105
0.398124
0.398143
0.398143
0.398162
0.39818
0.398199
0.398218
0.398218
0.398237
0.398256
0.398275
0.398294
0.398294
0.398313
0.398332
0.398351
0.39837
0.39837
0.398389
0.398409
0.398428
0.398447
0.398447
0.398466
0.398486
0.398505
0.398524
0.398524
0.398544
0.398563
0.398583
0.398602
0.398602
0.398622
0.398641
0.398661
0.39868
0.39868
0.3987
0.398719
0.398739
0.398759
0.398759
0.398779
0.398798
0.398818
0.398838
0.398838
0.398858
0.398878
0.398898
0.398917
0.398917
0.398937
0.398957
0.398977
0.398998
0.398998
0.399018
0.399038
0.399058
0.399078
0.399078
0.399098
0.399118
0.399139
0.399159
0.399159
0.399179
0.3992
0.39922
0.39924
0.39924
0.399261
0.399281
0.399302
0.399322
0.399322
0.399343
0.399363
0.399384
0.399405
0.399405
0.399425
0.399446
0.399467
0.399488
0.399488
0.399508
0.399529
0.39955
0.399571
0.399571
0.399592
0.399613
0.399634
0.399655
0.399655
0.399676
0.399697
0.399718
0.399739
0.399739
0.39976
0.399781
0.399802
0.399824
0.399824
0.399845
0.399866
0.399887
0.399909
0.399909
0.39993
0.399952
0.399973
0.399994
0.399994
0.400016
0.400037
0.400059
0.400081
0.400081
0.400102
0.400124
0.400145
0.400167
0.400167
0.400189
0.400211
0.400232
0.400254
0.400254
0.400276
0.400298
0.40032
0.400342
0.400342
0.400364
0.400386
0.400408
0.40043
0.40043
0.400452
0.400474
0.400496
0.400518
0.400518
0.40054
0.400563
0.400585
0.400607
0.400607
0.400629
0.400652
0.400674
0.400696
0.400696
0.400719
0.400741
0.400764
0.400786
0.400786
0.400809
0.400831
0.400854
0.400877
0.400877
0.400899
0.400922
0.400945
0.400967
0.400967
0.40099
0.401013
0.401036
0.401059
0.401059
0.401082
0.401105
0.401127
0.40115
0.40115
0.401173
0.401196
0.40122
0.401243
0.401243
0.401266
0.401289
0.401312
0.401335
0.401335
0.401359
0.401382
0.401405
0.401428
0.401428
0.401452
0.401475
0.401499
0.401522
0.401522
0.401546
0.401569
0.401593
0.401616
0.401616
0.40164
0.401663
0.401687
0.401711
0.401711
0.401734
0.401758
0.401782
0.401806
0.401806
0.401829
0.401853
0.401877
0.401901
0.401901
0.401925
0.401949
0.401973
0.401997
0.401997
0.402021
0.402045
0.402069
0.402094
0.402094
0.402118
0.402142
0.402166
0.40219
0.40219
0.402215
0.402239
0.402263
0.402288
0.402288
0.402312
0.402337
0.402361
0.402386
0.402386
0.40241
0.402435
0.402459
0.402484
0.402484
0.402508
0.402533
0.402558
0.402583
0.402583
0.402607
0.402632
0.402657
0.402682
0.402682
0.402707
0.402732
0.402757
0.402782
0.402782
0.402807
0.402832
0.402857
0.402882
0.402882
0.402907
0.402932
0.402957
0.402982
0.402982
0.403008
0.403033
0.403058
0.403083
0.403083
0.403109
0.403134
0.40316
0.403185
0.403185
0.40321
0.403236
0.403261
0.403287
0.403287
0.403313
0.403338
0.403364
0.40339
0.40339
0.403415
0.403441
0.403467
0.403492
0.403492
0.403518
0.403544
0.40357
0.403596
0.403596
0.403622
0.403648
0.403674
0.4037
0.4037
0.403726
0.403752
0.403778
0.403804
0.403804
0.40383
0.403857
0.403883
0.403909
0.403909
0.403935
0.403962
0.403988
0.404014
0.404014
0.404041
0.404067
0.404094
0.40412
0.40412
0.404147
0.404173
0.4042
0.404226
0.404226
0.404253
0.40428
0.404306
0.404333
0.404333
0.40436
0.404387
0.404414
0.40444
0.40444
0.404467
0.404494
0.404521
0.404548
0.404548
0.404575
0.404602
0.404629
0.404656
0.404656
0.404683
0.40471
0.404738
0.404765
0.404765
0.404792
0.404819
0.404846
0.404874
0.404874
0.404901
0.404929
0.404956
0.404983
0.404983
0.405011
0.405038
0.405066
0.405093
0.405093
0.405121
0.405149
0.405176
0.405204
0.405204
0.405232
0.405259
0.405287
0.405315
0.405315
0.405343
0.40537
0.405398
0.405426
0.405426
0.405454
0.405482
0.40551
0.405538
0.405538
0.405566
0.405594
0.405622
0.40565
0.40565
0.405679
0.405707
0.405735
0.405763
0.405763
0.405792
0.40582
0.405848
0.405877
0.405877
0.405905
0.405933
0.405962
0.40599
0.40599
0.406019
0.406047
0.406076
0.406105
0.406105
0.406133
0.406162
0.406191
0.406219
0.406219
0.406248
0.406277
0.406306
0.406334
0.406334
0.406363
0.406392
0.406421
0.40645
0.40645
0.406479
0.406508
0.406537
0.406566
0.406566
0.406595
0.406624
0.406654
0.406683
0.406683
0.406712
0.406741
0.40677
0.4068
0.4068
0.406829
0.406858
0.406888
0.406917
0.406917
0.406947
0.406976
0.407006
0.407035
0.407035
0.407065
0.407094
0.407124
0.407154
0.407154
0.407183
0.407213
0.407243
0.407273
0.407273
0.407302
0.407332
0.407362
0.407392
0.407392
0.407422
0.407452
0.407482
0.407512
0.407512
0.407542
0.407572
0.407602
0.407632
0.407632
0.407662
0.407693
0.407723
0.407753
0.407753
0.407783
0.407814
0.407844
0.407874
0.407874
0.407905
0.407935
0.407966
0.407996
0.407996
0.408027
0.408057
0.408088
0.408118
0.408118
0.408149
0.40818
0.40821
0.408241
0.408241
0.408272
0.408302
0.408333
0.408364
0.408364
0.408395
0.408426
0.408457
0.408488
0.408488
0.408519
0.40855
0.408581
0.408612
0.408612
0.408643
0.408674
0.408705
0.408736
0.408736
0.408768
0.408799
0.40883
0.408861
0.408861
0.408893
0.408924
0.408956
0.408987
0.408987
0.409018
0.40905
0.409081
0.409113
0.409113
0.409145
0.409176
0.409208
0.409239
0.409239
0.409271
0.409303
0.409335
0.409366
0.409366
0.409398
0.40943
0.409462
0.409494
0.409494
0.409526
0.409558
0.40959
0.409622
0.409622
0.409654
0.409686
0.409718
0.40975
0.40975
0.409782
0.409814
0.409846
0.409879
0.409879
0.409911
0.409943
0.409976
0.410008
0.410008
0.41004
0.410073
0.410105
0.410138
0.410138
0.41017
0.410203
0.410235
0.410268
0.410268
0.410301
0.410333
0.410366
0.410399
0.410399
0.410431
0.410464
0.410497
0.41053
0.41053
0.410563
0.410595
0.410628
0.410661
0.410661
0.410694
0.410727
0.41076
0.410793
0.410793
0.410827
0.41086
0.410893
0.410926
0.410926
0.410959
0.410992
0.411026
0.411059
0.411059
0.411092
0.411126
0.411159
0.411193
0.411193
0.411226
0.411259
0.411293
0.411327
0.411327
0.41136
0.411394
0.411427
0.411461
0.411461
0.411495
0.411528
0.411562
0.411596
0.411596
0.41163
0.411664
0.411697
0.411731
0.411731
0.411765
0.411799
0.411833
0.411867
0.411867
0.411901
0.411935
0.411969
0.412003
0.412003
0.412038
0.412072
0.412106
0.41214
0.41214
0.412175
0.412209
0.412243
0.412278
0.412278
0.412312
0.412346
0.412381
0.412415
0.412415
0.41245
0.412484
0.412519
0.412554
0.412554
0.412588
0.412623
0.412657
0.412692
0.412692
0.412727
0.412762
0.412797
0.412831
0.412831
0.412866
0.412901
0.412936
0.412971
0.412971
0.413006
0.413041
0.413076
0.413111
0.413111
0.413146
0.413181
0.413216
0.413252
0.413252
0.413287
0.413322
0.413357
0.413393
0.413393
0.413428
0.413463
0.413499
0.413534
0.413534
0.41357
0.413605
0.413641
0.413676
0.413676
0.413712
0.413747
0.413783
0.413819
0.413819
0.413854
0.41389
0.413926
0.413962
0.413962
0.413997
0.414033
0.414069
0.414105
0.414105
0.414141
0.414177
0.414213
0.414249
0.414249
0.414285
0.414321
0.414357
0.414393
0.414393
0.414429
0.414466
0.414502
0.414538
0.414538
0.414574
0.414611
0.414647
0.414683
0.414683
0.41472
0.414756
0.414793
0.414829
0.414829
0.414866
0.414902
0.414939
0.414975
0.414975
0.415012
0.415049
0.415085
0.415122
0.415122
0.415159
0.415196
0.415232
0.415269
0.415269
0.415306
0.415343
0.41538
0.415417
0.415417
0.415454
0.415491
0.415528
0.415565
0.415565
0.415602
0.415639
0.415676
0.415714
0.415714
0.415751
0.415788
0.415825
0.415863
0.415863
0.4159
0.415937
0.415975
0.416012
0.416012
0.41605
0.416087
0.416125
0.416162
0.416162
0.4162
0.416238
0.416275
0.416313
0.416313
0.416351
0.416388
0.416426
0.416464
0.416464
0.416502
0.416539
0.416577
0.416615
0.416615
0.416653
0.416691
0.416729
0.416767
0.416767
0.416805
0.416843
0.416881
0.41692
0.41692
0.416958
0.416996
0.417034
0.417072
0.417072
0.417111
0.417149
0.417187
0.417226
0.417226
0.417264
0.417303
0.417341
0.41738
0.41738
0.417418
0.417457
0.417495
0.417534
0.417534
0.417572
0.417611
0.41765
0.417689
0.417689
0.417727
0.417766
0.417805
0.417844
0.417844
0.417883
0.417922
0.41796
0.417999
0.417999
0.418038
0.418077
0.418117
0.418156
0.418156
0.418195
0.418234
0.418273
0.418312
0.418312
0.418352
0.418391
0.41843
0.418469
0.418469
0.418509
0.418548
0.418588
0.418627
0.418627
0.418666
0.418706
0.418745
0.418785
0.418785
0.418825
0.418864
0.418904
0.418944
0.418944
0.418983
0.419023
0.419063
0.419103
0.419103
0.419142
0.419182
0.419222
0.419262
0.419262
0.419302
0.419342
0.419382
0.419422
0.419422
0.419462
0.419502
0.419542
0.419582
0.419582
0.419623
0.419663
0.419703
0.419743
0.419743
0.419784
0.419824
0.419864
0.419905
0.419905
0.419945
0.419986
0.420026
0.420067
0.420067
0.420107
0.420148
0.420188
0.420229
0.420229
0.42027
0.42031
0.420351
0.420392
0.420392
0.420433
0.420473
0.420514
0.420555
0.420555
0.420596
0.420637
0.420678
0.420719
0.420719
0.42076
0.420801
0.420842
0.420883
0.420883
0.420924
0.420965
0.421007
0.421048
0.421048
0.421089
0.42113
0.421172
0.421213
0.421213
0.421254
0.421296
0.421337
0.421379
0.421379
0.42142
0.421462
0.421503
0.421545
0.421545
0.421586
0.421628
0.42167
0.421711
0.421711
0.421753
0.421795
0.421837
0.421878
0.421878
0.42192
0.421962
0.422004
0.422046
0.422046
0.422088
0.42213
0.422172
0.422214
0.422214
0.422256
0.422298
0.42234
0.422382
0.422382
0.422425
0.422467
0.422509
0.422551
0.422551
0.422594
0.422636
0.422678
0.422721
0.422721
0.422763
0.422806
0.422848
0.422891
0.422891
0.422933
0.422976
0.423019
0.423061
0.423061
0.423104
0.423147
0.423189
0.423232
0.423232
0.423275
0.423318
0.423361
0.423403
0.423403
0.423446
0.423489
0.423532
0.423575
0.423575
0.423618
0.423661
0.423704
0.423748
0.423748
0.423791
0.423834
0.423877
0.42392
0.42392
0.423964
0.424007
0.42405
0.424094
0.424094
0.424137
0.42418
0.424224
0.424267
0.424267
0.424311
0.424354
0.424398
0.424442
0.424442
0.424485
0.424529
0.424573
0.424616
0.424616
0.42466
0.424704
0.424748
0.424791
0.424791
0.424835
0.424879
0.424923
0.424967
0.424967
0.425011
0.425055
0.425099
0.425143
0.425143
0.425187
0.425231
0.425276
0.42532
0.42532
0.425364
0.425408
0.425453
0.425497
0.425497
0.425541
0.425586
0.42563
0.425674
0.425674
0.425719
0.425763
0.425808
0.425852
0.425852
0.425897
0.425942
0.425986
0.426031
0.426031
0.426076
0.42612
0.426165
0.42621
0.42621
0.426255
0.4263
0.426344
0.426389
0.426389
0.426434
0.426479
0.426524
0.426569
0.426569
0.426614
0.426659
0.426705
0.42675
0.42675
0.426795
0.42684
0.426885
0.426931
0.426931
0.426976
0.427021
0.427067
0.427112
0.427112
0.427157
0.427203
0.427248
0.427294
0.427294
0.427339
0.427385
0.42743
0.427476
0.427476
0.427522
0.427567
0.427613
0.427659
0.427659
0.427705
0.42775
0.427796
0.427842
0.427842
0.427888
0.427934
0.42798
0.428026
0.428026
0.428072
0.428118
0.428164
0.42821
0.42821
0.428256
0.428302
0.428349
0.428395
0.428395
0.428441
0.428487
0.428534
0.42858
0.42858
0.428626
0.428673
0.428719
0.428766
0.428766
0.428812
0.428859
0.428905
0.428952
0.428952
0.428998
0.429045
0.429092
0.429138
0.429138
0.429185
0.429232
0.429279
0.429326
0.429326
0.429372
0.429419
0.429466
0.429513
0.429513
0.42956
0.429607
0.429654
0.429701
0.429701
0.429748
0.429795
0.429843
0.42989
0.42989
0.429937
0.429984
0.430031
0.430079
0.430079
0.430126
0.430173
0.430221
0.430268
0.430268
0.430316
0.430363
0.430411
0.430458
0.430458
0.430506
0.430553
0.430601
0.430649
0.430649
0.430696
0.430744
0.430792
0.43084
0.43084
0.430887
0.430935
0.430983
0.431031
0.431031
0.431079
0.431127
0.431175
0.431223
0.431223
0.431271
0.431319
0.431367
0.431415
0.431415
0.431463
0.431512
0.43156
0.431608
0.431608
0.431656
0.431705
0.431753
0.431801
0.431801
0.43185
0.431898
0.431947
0.431995
0.431995
0.432044
0.432092
0.432141
0.432189
0.432189
0.432238
0.432287
0.432335
0.432384
0.432384
0.432433
0.432482
0.432531
0.432579
0.432579
0.432628
0.432677
0.432726
0.432775
0.432775
0.432824
0.432873
0.432922
0.432971
0.432971
0.433021
0.43307
0.433119
0.433168
0.433168
0.433217
0.433267
0.433316
0.433365
0.433365
0.433415
0.433464
0.433513
0.433563
0.433563
0.433612
0.433662
0.433711
0.433761
0.433761
0.433811
0.43386
0.43391
0.43396
0.43396
0.434009
0.434059
0.434109
0.434159
0.434159
0.434209
0.434258
0.434308
0.434358
0.434358
0.434408
0.434458
0.434508
0.434558
0.434558
0.434608
0.434659
0.434709
0.434759
0.434759
0.434809
0.434859
0.43491
0.43496
0.43496
0.43501
0.435061
0.435111
0.435161
0.435161
0.435212
0.435262
0.435313
0.435363
0.435363
0.435414
0.435465
0.435515
0.435566
0.435566
0.435616
0.435667
0.435718
0.435769
0.435769
0.43582
0.43587
0.435921
0.435972
0.435972
0.436023
0.436074
0.436125
0.436176
0.436176
0.436227
0.436278
0.436329
0.43638
0.43638
0.436432
0.436483
0.436534
0.436585
0.436585
0.436637
0.436688
0.436739
0.436791
0.436791
0.436842
0.436893
0.436945
0.436996
0.436996
0.437048
0.4371
0.437151
0.437203
0.437203
0.437254
0.437306
0.437358
0.43741
0.43741
0.437461
0.437513
0.437565
0.437617
0.437617
0.437669
0.437721
0.437773
0.437825
0.437825
0.437877
0.437929
0.437981
0.438033
0.438033
0.438085
0.438137
0.438189
0.438242
0.438242
0.438294
0.438346
0.438398
0.438451
0.438451
0.438503
0.438556
0.438608
0.43866
0.43866
0.438713
0.438766
0.438818
0.438871
0.438871
0.438923
0.438976
0.439029
0.439081
0.439081
0.439134
0.439187
0.43924
0.439292
0.439292
0.439345
0.439398
0.439451
0.439504
0.439504
0.439557
0.43961
0.439663
0.439716
0.439716
0.439769
0.439822
0.439876
0.439929
0.439929
0.439982
0.440035
0.440089
0.440142
0.440142
0.440195
0.440249
0.440302
0.440355
0.440355
0.440409
0.440462
0.440516
0.44057
0.44057
0.440623
0.440677
0.44073
0.440784
0.440784
0.440838
0.440891
0.440945
0.440999
0.440999
0.441053
0.441107
0.441161
0.441215
0.441215
0.441269
0.441322
0.441377
0.441431
0.441431
0.441485
0.441539
0.441593
0.441647
0.441647
0.441701
0.441755
0.44181
0.441864
0.441864
0.441918
0.441973
0.442027
0.442081
0.442081
0.442136
0.44219
0.442245
0.442299
0.442299
0.442354
0.442409
0.442463
0.442518
0.442518
0.442572
0.442627
0.442682
0.442737
0.442737
0.442791
0.442846
0.442901
0.442956
0.442956
0.443011
0.443066
0.443121
0.443176
0.443176
0.443231
0.443286
0.443341
0.443396
0.443396
0.443451
0.443507
0.443562
0.443617
0.443617
0.443672
0.443728
0.443783
0.443838
0.443838
0.443894
0.443949
0.444005
0.44406
0.44406
0.444116
0.444171
0.444227
0.444283
0.444283
0.444338
0.444394
0.44445
0.444505
0.444505
0.444561
0.444617
0.444673
0.444729
0.444729
0.444785
0.44484
0.444896
0.444952
0.444952
0.445008
0.445064
0.445121
0.445177
0.445177
0.445233
0.445289
0.445345
0.445401
0.445401
0.445458
0.445514
0.44557
0.445627
0.445627
0.445683
0.445739
0.445796
0.445852
0.445852
0.445909
0.445965
0.446022
0.446079
0.446079
0.446135
0.446192
0.446249
0.446305
0.446305
0.446362
0.446419
0.446476
0.446532
0.446532
0.446589
0.446646
0.446703
0.44676
0.44676
0.446817
0.446874
0.446931
0.446988
0.446988
0.447045
0.447103
0.44716
0.447217
0.447217
0.447274
0.447331
0.447389
0.447446
0.447446
0.447503
0.447561
0.447618
0.447676
0.447676
0.447733
0.447791
0.447848
0.447906
0.447906
0.447963
0.448021
0.448079
0.448136
0.448136
0.448194
0.448252
0.44831
0.448367
0.448367
0.448425
0.448483
0.448541
0.448599
0.448599
0.448657
0.448715
0.448773
0.448831
0.448831
0.448889
0.448947
0.449005
0.449064
0.449064
0.449122
0.44918
0.449238
0.449297
0.449297
0.449355
0.449413
0.449472
0.44953
0.44953
0.449589
0.449647
0.449706
0.449764
0.449764
0.449823
0.449881
0.44994
0.449999
0.449999
0.450057
0.450116
0.450175
0.450234
0.450234
0.450293
0.450351
0.45041
0.450469
0.450469
0.450528
0.450587
0.450646
0.450705
0.450705
0.450764
0.450823
0.450883
0.450942
0.450942
0.451001
0.45106
0.451119
0.451179
0.451179
0.451238
0.451297
0.451357
0.451416
0.451416
0.451476
0.451535
0.451595
0.451654
0.451654
0.451714
0.451773
0.451833
0.451893
0.451893
0.451952
0.452012
0.452072
0.452132
0.452132
0.452191
0.452251
0.452311
0.452371
0.452371
0.452431
0.452491
0.452551
0.452611
0.452611
0.452671
0.452731
0.452791
0.452851
0.452851
0.452911
0.452972
0.453032
0.453092
0.453092
0.453153
0.453213
0.453273
0.453334
0.453334
0.453394
0.453454
0.453515
0.453575
0.453575
0.453636
0.453697
0.453757
0.453818
0.453818
0.453879
0.453939
0.454
0.454061
0.454061
0.454122
0.454182
0.454243
0.454304
0.454304
0.454365
0.454426
0.454487
0.454548
0.454548
0.454609
0.45467
0.454731
0.454792
0.454792
0.454854
0.454915
0.454976
0.455037
0.455037
0.455098
0.45516
0.455221
0.455283
0.455283
0.455344
0.455405
0.455467
0.455528
0.455528
0.45559
0.455651
0.455713
0.455775
0.455775
0.455836
0.455898
0.45596
0.456022
0.456022
0.456083
0.456145
0.456207
0.456269
0.456269
0.456331
0.456393
0.456455
0.456517
0.456517
0.456579
0.456641
0.456703
0.456765
0.456765
0.456827
0.456889
0.456952
0.457014
0.457014
0.457076
0.457138
0.457201
0.457263
0.457263
0.457326
0.457388
0.45745
0.457513
0.457513
0.457575
0.457638
0.457701
0.457763
0.457763
0.457826
0.457889
0.457951
0.458014
0.458014
0.458077
0.45814
0.458202
0.458265
0.458265
0.458328
0.458391
0.458454
0.458517
0.458517
0.45858
0.458643
0.458706
0.458769
0.458769
0.458833
0.458896
0.458959
0.459022
0.459022
0.459085
0.459149
0.459212
0.459275
0.459275
0.459339
0.459402
0.459466
0.459529
0.459529
0.459593
0.459656
0.45972
0.459783
0.459783
0.459847
0.459911
0.459975
0.460038
0.460038
0.460102
0.460166
0.46023
0.460294
0.460294
0.460357
0.460421
0.460485
0.460549
0.460549
0.460613
0.460677
0.460741
0.460806
0.460806
0.46087
0.460934
0.460998
0.461062
0.461062
0.461127
0.461191
0.461255
0.46132
0.46132
0.461384
0.461448
0.461513
0.461577
0.461577
0.461642
0.461706
0.461771
0.461836
0.461836
0.4619
0.461965
0.46203
0.462094
0.462094
0.462159
0.462224
0.462289
0.462354
0.462354
0.462418
0.462483
0.462548
0.462613
0.462613
0.462678
0.462743
0.462808
0.462874
0.462874
0.462939
0.463004
0.463069
0.463134
0.463134
0.4632
0.463265
0.46333
0.463396
0.463396
0.463461
0.463526
0.463592
0.463657
0.463657
0.463723
0.463788
0.463854
0.46392
0.46392
0.463985
0.464051
0.464117
0.464182
0.464182
0.464248
0.464314
0.46438
0.464446
0.464446
0.464512
0.464577
0.464643
0.464709
0.464709
0.464775
0.464841
0.464908
0.464974
0.464974
0.46504
0.465106
0.465172
0.465238
0.465238
0.465305
0.465371
0.465437
0.465504
0.465504
0.46557
0.465636
0.465703
0.465769
0.465769
0.465836
0.465903
0.465969
0.466036
0.466036
0.466102
0.466169
0.466236
0.466302
0.466302
0.466369
0.466436
0.466503
0.46657
0.46657
0.466637
0.466704
0.466771
0.466838
0.466838
0.466905
0.466972
0.467039
0.467106
0.467106
0.467173
0.46724
0.467307
0.467375
0.467375
0.467442
0.467509
0.467577
0.467644
0.467644
0.467711
0.467779
0.467846
0.467914
0.467914
0.467981
0.468049
0.468116
0.468184
0.468184
0.468252
0.468319
0.468387
0.468455
0.468455
0.468523
0.46859
0.468658
0.468726
0.468726
0.468794
0.468862
0.46893
0.468998
0.468998
0.469066
0.469134
0.469202
0.46927
0.46927
0.469338
0.469407
0.469475
0.469543
0.469543
0.469611
0.46968
0.469748
0.469816
0.469816
0.469885
0.469953
0.470022
0.47009
0.47009
0.470159
0.470227
0.470296
0.470364
0.470364
0.470433
0.470502
0.470571
0.470639
0.470639
0.470708
0.470777
0.470846
0.470915
0.470915
0.470984
0.471053
0.471122
0.471191
0.471191
0.47126
0.471329
0.471398
0.471467
0.471467
0.471536
0.471605
0.471674
0.471744
0.471744
0.471813
0.471882
0.471952
0.472021
0.472021
0.472091
0.47216
0.472229
0.472299
0.472299
0.472369
0.472438
0.472508
0.472577
0.472577
0.472647
0.472717
0.472787
0.472856
0.472856
0.472926
0.472996
0.473066
0.473136
0.473136
0.473206
0.473276
0.473346
0.473416
0.473416
0.473486
0.473556
0.473626
0.473696
0.473696
0.473766
0.473836
0.473907
0.473977
0.473977
0.474047
0.474118
0.474188
0.474258
0.474258
0.474329
0.474399
0.47447
0.47454
0.47454
0.474611
0.474682
0.474752
0.474823
0.474823
0.474894
0.474964
0.475035
0.475106
0.475106
0.475177
0.475247
0.475318
0.475389
0.475389
0.47546
0.475531
0.475602
0.475673
0.475673
0.475744
0.475815
0.475887
0.475958
0.475958
0.476029
0.4761
0.476171
0.476243
0.476243
0.476314
0.476385
0.476457
0.476528
0.476528
0.4766
0.476671
0.476743
0.476814
0.476814
0.476886
0.476958
0.477029
0.477101
0.477101
0.477173
0.477244
0.477316
0.477388
0.477388
0.47746
0.477532
0.477604
0.477675
0.477675
0.477747
0.477819
0.477892
0.477964
0.477964
0.478036
0.478108
0.47818
0.478252
0.478252
0.478324
0.478397
0.478469
0.478541
0.478541
0.478614
0.478686
0.478758
0.478831
0.478831
0.478903
0.478976
0.479048
0.479121
0.479121
0.479194
0.479266
0.479339
0.479412
0.479412
0.479484
0.479557
0.47963
0.479703
0.479703
0.479776
0.479849
0.479922
0.479995
0.479995
0.480068
0.480141
0.480214
0.480287
0.480287
0.48036
0.480433
0.480506
0.480579
0.480579
0.480653
0.480726
0.480799
0.480873
0.480873
0.480946
0.481019
0.481093
0.481166
0.481166
0.48124
0.481313
0.481387
0.481461
0.481461
0.481534
0.481608
0.481682
0.481755
0.481755
0.481829
0.481903
0.481977
0.482051
0.482051
0.482125
0.482199
0.482273
0.482347
0.482347
0.482421
0.482495
0.482569
0.482643
0.482643
0.482717
0.482791
0.482865
0.48294
0.48294
0.483014
0.483088
0.483163
0.483237
0.483237
0.483311
0.483386
0.48346
0.483535
0.483535
0.483609
0.483684
0.483759
0.483833
0.483833
0.483908
0.483983
0.484057
0.484132
0.484132
0.484207
0.484282
0.484357
0.484432
0.484432
0.484507
0.484582
0.484657
0.484732
0.484732
0.484807
0.484882
0.484957
0.485032
0.485032
0.485107
0.485183
0.485258
0.485333
0.485333
0.485408
0.485484
0.485559
0.485635
0.485635
0.48571
0.485786
0.485861
0.485937
0.485937
0.486012
0.486088
0.486163
0.486239
0.486239
0.486315
0.486391
0.486466
0.486542
0.486542
0.486618
0.486694
0.48677
0.486846
0.486846
0.486922
0.486998
0.487074
0.48715
0.48715
0.487226
0.487302
0.487378
0.487455
0.487455
0.487531
0.487607
0.487683
0.48776
0.48776
0.487836
0.487912
0.487989
0.488065
0.488065
0.488142
0.488218
0.488295
0.488372
0.488372
0.488448
0.488525
0.488602
0.488678
0.488678
0.488755
0.488832
0.488909
0.488986
0.488986
0.489062
0.489139
0.489216
0.489293
0.489293
0.48937
0.489447
0.489524
0.489602
0.489602
0.489679
0.489756
0.489833
0.48991
0.48991
0.489988
0.490065
0.490142
0.49022
0.49022
0.490297
0.490375
0.490452
0.49053
0.49053
0.490607
0.490685
0.490762
0.49084
0.49084
0.490918
0.490995
0.491073
0.491151
0.491151
0.491229
0.491307
0.491384
0.491462
0.491462
0.49154
0.491618
0.491696
0.491774
0.491774
0.491852
0.491931
0.492009
0.492087
0.492087
0.492165
0.492243
0.492322
0.4924
0.4924
0.492478
0.492557
0.492635
0.492713
0.492713
0.492792
0.49287
0.492949
0.493027
0.493027
0.493106
0.493185
0.493263
0.493342
0.493342
0.493421
0.4935
0.493578
0.493657
0.493657
0.493736
0.493815
0.493894
0.493973
0.493973
0.494052
0.494131
0.49421
0.494289
0.494289
0.494368
0.494447
0.494527
0.494606
0.494606
0.494685
0.494764
0.494844
0.494923
0.494923
0.495002
0.495082
0.495161
0.495241
0.495241
0.49532
0.4954
0.495479
0.495559
0.495559
0.495639
0.495718
0.495798
0.495878
0.495878
0.495958
0.496038
0.496117
0.496197
0.496197
0.496277
0.496357
0.496437
0.496517
0.496517
0.496597
0.496677
0.496757
0.496838
0.496838
0.496918
0.496998
0.497078
0.497159
0.497159
0.497239
0.497319
0.4974
0.49748
0.49748
0.497561
0.497641
0.497722
0.497802