<?xml version="1.0"?>
<VTKFile type="UnstructuredGrid" version="0.1" byte_order="LittleEndian">
<UnstructuredGrid>
<Piece NumberOfPoints="5000" NumberOfCells="4000">
<PointData Scalars="Reaction 0">
<DataArray type="Float32" Name="Reaction 0" format="ascii">
0.578184
0.578184
0.578184
0.578184
0.578184
0.578184
0.578184
0.578184
0.578184
0.578184
0.578184
0.578184
0.578184
0.578185
0.578185
0.578185
0.578185
0.578185
0.578185
0.578185
0.578185
0.578185
0.578185
0.578185
0.578185
0.578185
0.578185
0.578186
0.578186
0.578186
0.578186
0.578186
0.578186
0.578186
0.578186
0.578186
0.578186
0.578187
0.578187
0.578187
0.578187
0.578187
0.578187
0.578188
0.578188
0.578188
0.578188
0.578188
0.578188
0.578189
0.578189
0.578189
0.578189
0.578189
0.578189
0.578189
0.57819
0.57819
0.57819
0.57819
0.57819
0.578191
0.578191
0.578191
0.578192
0.578192
0.578192
0.578192
0.578192
0.578193
0.578193
0.578193
0.578193
0.578194
0.578194
0.578194
0.578194
0.578195
0.578195
0.578195
0.578195
0.578196
0.578196
0.578196
0.578197
0.578197
0.578197
0.578198
0.578198
0.578198
0.578198
0.578199
0.578199
0.5782
0.5782
0.5782
0.5782
0.578201
0.578201
0.578202
0.578202
0.578202
0.578203
0.578203
0.578203
0.578203
0.578204
0.578204
0.578205
0.578205
0.578205
0.578206
0.578206
0.578207
0.578207
0.578207
0.578208
0.578208
0.578209
0.578209
0.578209
0.57821
0.57821
0.578211
0.578212
0.578212
0.578212
0.578213
0.578213
0.578214
0.578214
0.578214
0.578215
0.578216
0.578216
0.578216
0.578217
0.578217
0.578218
0.578219
0.578219
0.578219
0.57822
0.57822
0.578221
0.578221
0.578222
0.578222
0.578223
0.578224
0.578224
0.578224
0.578225
0.578226
0.578226
0.578226
0.578227
0.578228
0.578228
0.578229
0.578229
0.57823
0.57823
0.578231
0.578232
0.578232
0.578233
0.578233
0.578234
0.578235
0.578235
0.578236
0.578236
0.578237
0.578238
0.578238
0.578239
0.578239
0.57824
0.578241
0.578241
0.578242
0.578243
0.578243
0.578244
0.578244
0.578245
0.578246
0.578247
0.578247
0.578247
0.578248
0.578249
0.57825
0.578251
0.578251
0.578252
0.578253
0.578253
0.578254
0.578254
0.578255
0.578256
0.578257
0.578258
0.578258
0.578259
0.57826
0.578261
0.578261
0.578261
0.578262
0.578263
0.578264
0.578265
0.578265
0.578266
0.578267
0.578268
0.578269
0.578269
0.57827
0.578271
0.578272
0.578273
0.578273
0.578274
0.578275
0.578276
0.578277
0.578277
0.578278
0.578279
0.57828
0.578281
0.578281
0.578282
0.578283
0.578284
0.578285
0.578285
0.578286
0.578287
0.578288
0.578289
0.578289
0.578291
0.578292
0.578293
0.578294
0.578294
0.578295
0.578296
0.578297
0.578298
0.578298
0.578299
0.578301
0.578302
0.578303
0.578303
0.578304
0.578305
0.578306
0.578307
0.578307
0.578309
0.57831
0.578311
0.578312
0.578312
0.578313
0.578315
0.578316
0.578317
0.578317
0.578318
0.578319
0.578321
0.578322
0.578322
0.578323
0.578324
0.578326
0.578327
0.578327
0.578328
0.578329
0.578331
0.578332
0.578332
0.578333
0.578335
0.578336
0.578337
0.578337
0.578338
0.57834
0.578341
0.578342
0.578342
0.578344
0.578345
0.578346
0.578348
0.578348
0.578349
0.57835
0.578352
0.578353
0.578353
0.578355
0.578356
0.578357
0.578359
0.578359
0.57836
0.578361
0.578363
0.578364
0.578364
0.578366
0.578367
0.578369
0.57837
0.57837
0.578371
0.578373
0.578374
0.578376
0.578376
0.578377
0.578379
0.57838
0.578382
0.578382
0.578383
0.578385
0.578386
0.578388
0.578388
0.578389
0.578391
0.578392
0.578394
0.578394
0.578395
0.578397
0.578398
0.5784
0.5784
0.578401
0.578403
0.578405
0.578406
0.578406
0.578408
0.578409
0.578411
0.578412
0.578412
0.578414
0.578416
0.578417
0.578419
0.578419
0.57842
0.578422
0.578424
0.578425
0.578425
0.578427
0.578429
0.57843
0.578432
0.578432
0.578434
0.578435
0.578437
0.578439
0.578439
0.57844
0.578442
0.578444
0.578445
0.578445
0.578447
0.578449
0.578451
0.578452
0.578452
0.578454
0.578456
0.578457
0.578459
0.578459
0.578461
0.578463
0.578465
0.578466
0.578466
0.578468
0.57847
0.578472
0.578473
0.578473
0.578475
0.578477
0.578479
0.578481
0.578481
0.578483
0.578484
0.578486
0.578488
0.578488
0.57849
0.578492
0.578494
0.578496
0.578496
0.578497
0.578499
0.578501
0.578503
0.578503
0.578505
0.578507
0.578509
0.578511
0.578511
0.578513
0.578515
0.578516
0.578518
0.578518
0.57852
0.578522
0.578524
0.578526
0.578526
0.578528
0.57853
0.578532
0.578534
0.578534
0.578536
0.578538
0.57854
0.578542
0.578542
0.578544
0.578546
0.578548
0.57855
0.57855
0.578552
0.578554
0.578556
0.578558
0.578558
0.57856
0.578563
0.578565
0.578567
0.578567
0.578569
0.578571
0.578573
0.578575
0.578575
0.578577
0.578579
0.578581
0.578583
0.578583
0.578586
0.578588
0.57859
0.578592
0.578592
0.578594
0.578596
0.578599
0.578601
0.578601
0.578603
0.578605
0.578607
0.578609
0.578609
0.578612
0.578614
0.578616
0.578618
0.578618
0.57862
0.578623
0.578625
0.578627
0.578627
0.578629
0.578632
0.578634
0.578636
0.578636
0.578638
0.578641
0.578643
0.578645
0.578645
0.578648
0.57865
0.578652
0.578654
0.578654
0.578657
0.578659
0.578661
0.578664
0.578664
0.578666
0.578668
0.578671
0.578673
0.578673
0.578675
0.578678
0.57868
0.578683
0.578683
0.578685
0.578687
0.57869
0.578692
0.578692
0.578695
0.578697
0.578699
0.578702
0.578702
0.578704
0.578707
0.578709
0.578712
0.578712
0.578714
0.578717
0.578719
0.578722
0.578722
0.578724
0.578727
0.578729
0.578732
0.578732
0.578734
0.578737
0.578739
0.578742
0.578742
0.578744
0.578747
0.578749
0.578752
0.578752
0.578754
0.578757
0.57876
0.578762
0.578762
0.578765
0.578767
0.57877
0.578772
0.578772
0.578775
0.578778
0.57878
0.578783
0.578783
0.578786
0.578788
0.578791
0.578793
0.578793
0.578796
0.578799
0.578801
0.578804
0.578804
0.578807
0.578809
0.578812
0.578815
0.578815
0.578818
0.57882
0.578823
0.578826
0.578826
0.578828
0.578831
0.578834
0.578837
0.578837
0.578839
0.578842
0.578845
0.578848
0.578848
0.57885
0.578853
0.578856
0.578859
0.578859
0.578862
0.578864
0.578867
0.57887
0.57887
0.578873
0.578876
0.578878
0.578881
0.578881
0.578884
0.578887
0.57889
0.578893
0.578893
0.578896
0.578898
0.578901
0.578904
0.578904
0.578907
0.57891
0.578913
0.578916
0.578916
0.578919
0.578922
0.578925
0.578928
0.578928
0.578931
0.578933
0.578936
0.578939
0.578939
0.578942
0.578945
0.578948
0.578951
0.578951
0.578954
0.578957
0.57896
0.578963
0.578963
0.578966
0.578969
0.578972
0.578976
0.578976
0.578979
0.578982
0.578985
0.578988
0.578988
0.578991
0.578994
0.578997
0.579
0.579
0.579003
0.579006
0.579009
0.579012
0.579012
0.579016
0.579019
0.579022
0.579025
0.579025
0.579028
0.579031
0.579034
0.579038
0.579038
0.579041
0.579044
0.579047
0.57905
0.57905
0.579054
0.579057
0.57906
0.579063
0.579063
0.579066
0.57907
0.579073
0.579076
0.579076
0.579079
0.579083
0.579086
0.579089
0.579089
0.579092
0.579096
0.579099
0.579102
0.579102
0.579105
0.579109
0.579112
0.579115
0.579115
0.579119
0.579122
0.579125
0.579129
0.579129
0.579132
0.579135
0.579139
0.579142
0.579142
0.579145
0.579149
0.579152
0.579156
0.579156
0.579159
0.579162
0.579166
0.579169
0.579169
0.579173
0.579176
0.57918
0.579183
0.579183
0.579187
0.57919
0.579193
0.579197
0.579197
0.5792
0.579204
0.579207
0.579211
0.579211
0.579214
0.579218
0.579221
0.579225
0.579225
0.579228
0.579232
0.579236
0.579239
0.579239
0.579243
0.579246
0.57925
0.579253
0.579253
0.579257
0.579261
0.579264
0.579268
0.579268
0.579271
0.579275
0.579279
0.579282
0.579282
0.579286
0.579289
0.579293
0.579297
0.579297
0.5793
0.579304
0.579308
0.579311
0.579311
0.579315
0.579319
0.579322
0.579326
0.579326
0.57933
0.579333
0.579337
0.579341
0.579341
0.579345
0.579348
0.579352
0.579356
0.579356
0.57936
0.579363
0.579367
0.579371
0.579371
0.579375
0.579379
0.579382
0.579386
0.579386
0.57939
0.579394
0.579398
0.579402
0.579402
0.579405
0.579409
0.579413
0.579417
0.579417
0.579421
0.579425
0.579429
0.579433
0.579433
0.579436
0.57944
0.579444
0.579448
0.579448
0.579452
0.579456
0.57946
0.579464
0.579464
0.579468
0.579472
0.579476
0.57948
0.57948
0.579484
0.579488
0.579492
0.579496
0.579496
0.5795
0.579504
0.579508
0.579512
0.579512
0.579516
0.57952
0.579524
0.579528
0.579528
0.579532
0.579536
0.57954
0.579544
0.579544
0.579548
0.579552
0.579556
0.57956
0.57956
0.579565
0.579569
0.579573
0.579577
0.579577
0.579581
0.579585
0.579589
0.579594
0.579594
0.579598
0.579602
0.579606
0.57961
0.57961
0.579614
0.579619
0.579623
0.579627
0.579627
0.579631
0.579636
0.57964
0.579644
0.579644
0.579648
0.579653
0.579657
0.579661
0.579661
0.579665
0.57967
0.579674
0.579678
0.579678
0.579683
0.579687
0.579691
0.579696
0.579696
0.5797
0.579704
0.579709
0.579713
0.579713
0.579717
0.579722
0.579726
0.57973
0.57973
0.579735
0.579739
0.579744
0.579748
0.579748
0.579752
0.579757
0.579761
0.579766
0.579766
0.57977
0.579775
0.579779
0.579783
0.579783
0.579788
0.579792
0.579797
0.579801
0.579801
0.579806
0.57981
0.579815
0.579819
0.579819
0.579824
0.579828
0.579833
0.579838
0.579838
0.579842
0.579847
0.579851
0.579856
0.579856
0.57986
0.579865
0.57987
0.579874
0.579874
0.579879
0.579883
0.579888
0.579893
0.579893
0.579897
0.579902
0.579907
0.579911
0.579911
0.579916
0.579921
0.579925
0.57993
0.57993
0.579935
0.57994
0.579944
0.579949
0.579949
0.579954
0.579958
0.579963
0.579968
0.579968
0.579973
0.579977
0.579982
0.579987
0.579987
0.579992
0.579997
0.580001
0.580006
0.580006
0.580011
0.580016
0.580021
0.580025
0.580025
0.58003
0.580035
0.58004
0.580045
0.580045
0.58005
0.580055
0.580059
0.580064
0.580064
0.580069
0.580074
0.580079
0.580084
0.580084
0.580089
0.580094
0.580099
0.580104
0.580104
0.580109
0.580114
0.580119
0.580124
0.580124
0.580129
0.580134
0.580139
0.580144
0.580144
0.580149
0.580154
0.580159
0.580164
0.580164
0.580169
0.580174
0.580179
0.580184
0.580184
0.580189
0.580194
0.580199
0.580204
0.580204
0.58021
0.580215
0.58022
0.580225
0.580225
0.58023
0.580235
0.58024
0.580245
0.580245
0.580251
0.580256
0.580261
0.580266
0.580266
0.580271
0.580277
0.580282
0.580287
0.580287
0.580292
0.580297
0.580303
0.580308
0.580308
0.580313
0.580318
0.580324
0.580329
0.580329
0.580334
0.58034
0.580345
0.58035
0.58035
0.580356
0.580361
0.580366
0.580372
0.580372
0.580377
0.580382
0.580388
0.580393
0.580393
0.580398
0.580404
0.580409
0.580415
0.580415
0.58042
0.580425
0.580431
0.580436
0.580436
0.580442
0.580447
0.580453
0.580458
0.580458
0.580464
0.580469
0.580475
0.58048
0.58048
0.580486
0.580491
0.580497
0.580502
0.580502
0.580508
0.580513
0.580519
0.580524
0.580524
0.58053
0.580535
0.580541
0.580546
0.580546
0.580552
0.580558
0.580563
0.580569
0.580569
0.580575
0.58058
0.580586
0.580591
0.580591
0.580597
0.580603
0.580609
0.580614
0.580614
0.58062
0.580626
0.580631
0.580637
0.580637
0.580643
0.580648
0.580654
0.58066
0.58066
0.580666
0.580671
0.580677
0.580683
0.580683
0.580689
0.580695
0.5807
0.580706
0.580706
0.580712
0.580718
0.580724
0.58073
0.58073
0.580735
0.580741
0.580747
0.580753
0.580753
0.580759
0.580765
0.580771
0.580776
0.580776
0.580782
0.580788
0.580794
0.5808
0.5808
0.580806
0.580812
0.580818
0.580824
0.580824
0.58083
0.580836
0.580842
0.580848
0.580848
0.580854
0.58086
0.580866
0.580872
0.580872
0.580878
0.580884
0.58089
0.580896
0.580896
0.580902
0.580908
0.580915
0.580921
0.580921
0.580927
0.580933
0.580939
0.580945
0.580945
0.580951
0.580957
0.580964
0.58097
0.58097
0.580976
0.580982
0.580988
0.580994
0.580994
0.581001
0.581007
0.581013
0.581019
0.581019
0.581025
0.581032
0.581038
0.581044
0.581044
0.58105
0.581057
0.581063
0.581069
0.581069
0.581076
0.581082
0.581088
0.581095
0.581095
0.581101
0.581107
0.581114
0.58112
0.58112
0.581126
0.581133
0.581139
0.581146
0.581146
0.581152
0.581158
0.581165
0.581171
0.581171
0.581178
0.581184
0.581191
0.581197
0.581197
0.581204
0.58121
0.581217
0.581223
0.581223
0.58123
0.581236
0.581243
0.581249
0.581249
0.581256
0.581262
0.581269
0.581275
0.581275
0.581282
0.581288
0.581295
0.581302
0.581302
0.581308
0.581315
0.581321
0.581328
0.581328
0.581335
0.581341
0.581348
0.581355
0.581355
0.581361
0.581368
0.581375
0.581381
0.581381
0.581388
0.581395
0.581402
0.581408
0.581408
0.581415
0.581422
0.581429
0.581435
0.581435
0.581442
0.581449
0.581456
0.581463
0.581463
0.581469
0.581476
0.581483
0.58149
0.58149
0.581497
0.581504
0.58151
0.581517
0.581517
0.581524
0.581531
0.581538
0.581545
0.581545
0.581552
0.581559
0.581566
0.581573
0.581573
0.58158
0.581587
0.581593
0.5816
0.5816
0.581607
0.581614
0.581621
0.581628
0.581628
0.581636
0.581643
0.58165
0.581657
0.581657
0.581664
0.581671
0.581678
0.581685
0.581685
0.581692
0.581699
0.581706
0.581713
0.581713
0.581721
0.581728
0.581735
0.581742
0.581742
0.581749
0.581756
0.581764
0.581771
0.581771
0.581778
0.581785
0.581792
0.5818
0.5818
0.581807
0.581814
0.581821
0.581829
0.581829
0.581836
0.581843
0.58185
0.581858
0.581858
0.581865
0.581872
0.58188
0.581887
0.581887
0.581894
0.581902
0.581909
0.581917
0.581917
0.581924
0.581931
0.581939
0.581946
0.581946
0.581954
0.581961
0.581968
0.581976
0.581976
0.581983
0.581991
0.581998
0.582006
0.582006
0.582013
0.582021
0.582028
0.582036
0.582036
0.582043
0.582051
0.582059
0.582066
0.582066
0.582074
0.582081
0.582089
0.582096
0.582096
0.582104
0.582112
0.582119
0.582127
0.582127
0.582134
0.582142
0.58215
0.582157
0.582157
0.582165
0.582173
0.582181
0.582188
0.582188
0.582196
0.582204
0.582212
0.582219
0.582219
0.582227
0.582235
0.582243
0.58225
0.58225
0.582258
0.582266
0.582274
0.582282
0.582282
0.582289
0.582297
0.582305
0.582313
0.582313
0.582321
0.582329
0.582337
0.582345
0.582345
0.582352
0.58236
0.582368
0.582376
0.582376
0.582384
0.582392
0.5824
0.582408
0.582408
0.582416
0.582424
0.582432
0.58244
0.58244
0.582448
0.582456
0.582464
0.582472
0.582472
0.58248
0.582489
0.582497
0.582505
0.582505
0.582513
0.582521
0.582529
0.582537
0.582537
0.582545
0.582554
0.582562
0.58257
0.58257
0.582578
0.582586
0.582594
0.582603
0.582603
0.582611
0.582619
0.582627
0.582636
0.582636
0.582644
0.582652
0.58266
0.582669
0.582669
0.582677
0.582685
0.582694
0.582702
0.582702
0.58271
0.582719
0.582727
0.582735
0.582735
0.582744
0.582752
0.582761
0.582769
0.582769
0.582777
0.582786
0.582794
0.582803
0.582803
0.582811
0.58282
0.582828
0.582837
0.582837
0.582845
0.582854
0.582862
0.582871
0.582871
0.582879
0.582888
0.582896
0.582905
0.582905
0.582914
0.582922
0.582931
0.582939
0.582939
0.582948
0.582957
0.582965
0.582974
0.582974
0.582983
0.582991
0.583
0.583009
0.583009
0.583017
0.583026
0.583035
0.583044
0.583044
0.583052
0.583061
0.58307
0.583079
0.583079
0.583088
0.583096
0.583105
0.583114
0.583114
0.583123
0.583132
0.58314
0.583149
0.583149
0.583158
0.583167
0.583176
0.583185
0.583185
0.583194
0.583203
0.583212
0.583221
0.583221
0.58323
0.583239
0.583247
0.583256
0.583256
0.583265
0.583274
0.583284
0.583293
0.583293
0.583302
0.583311
0.58332
0.583329
0.583329
0.583338
0.583347
0.583356
0.583365
0.583365
0.583374
0.583384
0.583393
0.583402
0.583402
0.583411
0.58342
0.583429
0.583439
0.583439
0.583448
0.583457
0.583466
0.583476
0.583476
0.583485
0.583494
0.583503
0.583513
0.583513
0.583522
0.583531
0.58354
0.58355
0.58355
0.583559
0.583569
0.583578
0.583587
0.583587
0.583597
0.583606
0.583615
0.583625
0.583625
0.583634
0.583644
0.583653
0.583663
0.583663
0.583672
0.583682
0.583691
0.583701
0.583701
0.58371
0.58372
0.583729
0.583739
0.583739
0.583748
0.583758
0.583768
0.583777
0.583777
0.583787
0.583796
0.583806
0.583816
0.583816
0.583825
0.583835
0.583845
0.583854
0.583854
0.583864
0.583874
0.583883
0.583893
0.583893
0.583903
0.583913
0.583922
0.583932
0.583932
0.583942
0.583952
0.583962
0.583971
0.583971
0.583981
0.583991
0.584001
0.584011
0.584011
0.584021
0.584031
0.584041
0.58405
0.58405
0.58406
0.58407
0.58408
0.58409
0.58409
0.5841
0.58411
0.58412
0.58413
0.58413
0.58414
0.58415
0.58416
0.58417
0.58417
0.58418
0.58419
0.5842
0.584211
0.584211
0.584221
0.584231
0.584241
0.584251
0.584251
0.584261
0.584271
0.584282
0.584292
0.584292
0.584302
0.584312
0.584322
0.584333
0.584333
0.584343
0.584353
0.584363
0.584374
0.584374
0.584384
0.584394
0.584405
0.584415
0.584415
0.584425
0.584436
0.584446
0.584456
0.584456
0.584467
0.584477
0.584487
0.584498
0.584498
0.584508
0.584519
0.584529
0.58454
0.58454
0.58455
0.584561
0.584571
0.584582
0.584582
0.584592
0.584603
0.584613
0.584624
0.584624
0.584635
0.584645
0.584656
0.584666
0.584666
0.584677
0.584688
0.584698
0.584709
0.584709
0.58472
0.58473
0.584741
0.584752
0.584752
0.584762
0.584773
0.584784
0.584795
0.584795
0.584805
0.584816
0.584827
0.584838
0.584838
0.584849
0.584859
0.58487
0.584881
0.584881
0.584892
0.584903
0.584914
0.584925
0.584925
0.584936
0.584947
0.584957
0.584968
0.584968
0.584979
0.58499
0.585001
0.585012
0.585012
0.585023
0.585034
0.585045
0.585056
0.585056
0.585068
0.585079
0.58509
0.585101
0.585101
0.585112
0.585123
0.585134
0.585145
0.585145
0.585156
0.585168
0.585179
0.58519
0.58519
0.585201
0.585213
0.585224
0.585235
0.585235
0.585246
0.585258
0.585269
0.58528
0.58528
0.585291
0.585303
0.585314
0.585325
0.585325
0.585337
0.585348
0.58536
0.585371
0.585371
0.585382
0.585394
0.585405
0.585417
0.585417
0.585428
0.58544
0.585451
0.585463
0.585463
0.585474
0.585486
0.585497
0.585509
0.585509
0.58552
0.585532
0.585544
0.585555
0.585555
0.585567
0.585579
0.58559
0.585602
0.585602
0.585614
0.585625
0.585637
0.585649
0.585649
0.58566
0.585672
0.585684
0.585696
0.585696
0.585707
0.585719
0.585731
0.585743
0.585743
0.585755
0.585766
0.585778
0.58579
0.58579
0.585802
0.585814
0.585826
0.585838
0.585838
0.58585
0.585862
0.585874
0.585886
0.585886
0.585898
0.58591
0.585922
0.585934
0.585934
0.585946
0.585958
0.58597
0.585982
0.585982
0.585994
0.586006
0.586018
0.58603
0.58603
0.586043
0.586055
0.586067
0.586079
0.586079
0.586091
0.586104
0.586116
0.586128
0.586128
0.58614
0.586153
0.586165
0.586177
0.586177
0.586189
0.586202
0.586214
0.586227
0.586227
0.586239
0.586251
0.586264
0.586276
0.586276
0.586288
0.586301
0.586313
0.586326
0.586326
0.586338
0.586351
0.586363
0.586376
0.586376
0.586388
0.586401
0.586413
0.586426
0.586426
0.586439
0.586451
0.586464
0.586476
0.586476
0.586489
0.586502
0.586514
0.586527
0.586527
0.58654
0.586553
0.586565
0.586578
0.586578
0.586591
0.586604
0.586616
0.586629
0.586629
0.586642
0.586655
0.586668
0.58668
0.58668
0.586693
0.586706
0.586719
0.586732
0.586732
0.586745
0.586758
0.586771
0.586784
0.586784
0.586797
0.58681
0.586823
0.586836
0.586836
0.586849
0.586862
0.586875
0.586888
0.586888
0.586901
0.586914
0.586927
0.586941
0.586941
0.586954
0.586967
0.58698
0.586993
0.586993
0.587006
0.58702
0.587033
0.587046
0.587046
0.587059
0.587073
0.587086
0.587099
0.587099
0.587113
0.587126
0.587139
0.587153
0.587153
0.587166
0.587179
0.587193
0.587206
0.587206
0.58722
0.587233
0.587247
0.58726
0.58726
0.587274
0.587287
0.587301
0.587314
0.587314
0.587328
0.587341
0.587355
0.587369
0.587369
0.587382
0.587396
0.587409
0.587423
0.587423
0.587437
0.587451
0.587464
0.587478
0.587478
0.587492
0.587506
0.587519
0.587533
0.587533
0.587547
0.587561
0.587575
0.587588
0.587588
0.587602
0.587616
0.58763
0.587644
0.587644
0.587658
0.587672
0.587686
0.5877
0.5877
0.587714
0.587728
0.587742
0.587756
0.587756
0.58777
0.587784
0.587798
0.587812
0.587812
0.587826
0.58784
0.587854
0.587868
0.587868
0.587883
0.587897
0.587911
0.587925
0.587925
0.587939
0.587954
0.587968
0.587982
0.587982
0.587996
0.588011
0.588025
0.588039
0.588039
0.588054
0.588068
0.588083
0.588097
0.588097
0.588111
0.588126
0.58814
0.588155
0.588155
0.588169
0.588184
0.588198
0.588213
0.588213
0.588227
0.588242
0.588256
0.588271
0.588271
0.588286
0.5883
0.588315
0.588329
0.588329
0.588344
0.588359
0.588373
0.588388
0.588388
0.588403
0.588418
0.588432
0.588447
0.588447
0.588462
0.588477
0.588492
0.588506
0.588506
0.588521
0.588536
0.588551
0.588566
0.588566
0.588581
0.588596
0.588611
0.588626
0.588626
0.588641
0.588656
0.588671
0.588686
0.588686
0.588701
0.588716
0.588731
0.588746
0.588746
0.588761
0.588776
0.588791
0.588807
0.588807
0.588822
0.588837
0.588852
0.588867
0.588867
0.588883
0.588898
0.588913
0.588928
0.588928
0.588944
0.588959
0.588974
0.58899
0.58899
0.589005
0.589021
0.589036
0.589051
0.589051
0.589067
0.589082
0.589098
0.589113
0.589113
0.589129
0.589144
0.58916
0.589175
0.589175
0.589191
0.589207
0.589222
0.589238
0.589238
0.589253
0.589269
0.589285
0.5893
0.5893
0.589316
0.589332
0.589348
0.589363
0.589363
0.589379
0.589395
0.589411
0.589427
0.589427
0.589442
0.589458
0.589474
0.58949
0.58949
0.589506
0.589522
0.589538
0.589554
0.589554
0.58957
0.589586
0.589602
0.589618
0.589618
0.589634
0.58965
0.589666
0.589682
0.589682
0.589698
0.589714
0.589731
0.589747
0.589747
0.589763
0.589779
0.589795
0.589812
0.589812
0.589828
0.589844
0.58986
0.589877
0.589877
0.589893
0.589909
0.589926
0.589942
0.589942
0.589958
0.589975
0.589991
0.590008
0.590008
0.590024
0.590041
0.590057
0.590074
0.590074
0.59009
0.590107
0.590123
0.59014
0.59014
0.590157
0.590173
0.59019
0.590207
0.590207
0.590223
0.59024
0.590257
0.590273
0.590273
0.59029
0.590307
0.590324
0.59034
0.59034
0.590357
0.590374
0.590391
0.590408
0.590408
0.590425
0.590442
0.590459
0.590476
0.590476
0.590493
0.590509
0.590526
0.590544
0.590544
0.590561
0.590578
0.590595
0.590612
0.590612
0.590629
0.590646
0.590663
0.59068
0.59068
0.590697
0.590715
0.590732
0.590749
0.590749
0.590766
0.590784
0.590801
0.590818
0.590818
0.590836
0.590853
0.59087
0.590888
0.590888
0.590905
0.590923
0.59094
0.590957
0.590957
0.590975
0.590992
0.59101
0.591027
0.591027
0.591045
0.591062
0.59108
0.591098
0.591098
0.591115
0.591133
0.591151
0.591168
0.591168
0.591186
0.591204
0.591221
0.591239
0.591239
0.591257
0.591275
0.591293
0.59131
0.59131
0.591328
0.591346
0.591364
0.591382
0.591382
0.5914
0.591418
0.591436
0.591454
0.591454
0.591472
0.59149
0.591508
0.591526
0.591526
0.591544
0.591562
0.59158
0.591598
0.591598
0.591616
0.591635
0.591653
0.591671
0.591671
0.591689
0.591708
0.591726
0.591744
0.591744
0.591762
0.591781
0.591799
0.591817
0.591817
0.591836
0.591854
0.591873
0.591891
0.591891
0.591909
0.591928
0.591946
0.591965
0.591965
0.591984
0.592002
0.592021
0.592039
0.592039
0.592058
0.592077
0.592095
0.592114
0.592114
0.592133
0.592151
0.59217
0.592189
0.592189
0.592208
0.592226
0.592245
0.592264
0.592264
0.592283
0.592302
0.592321
0.59234
0.59234
0.592358
0.592377
0.592396
0.592415
0.592415
0.592434
0.592453
0.592473
0.592492
0.592492
0.592511
0.59253
0.592549
0.592568
0.592568
0.592587
0.592606
0.592626
0.592645
0.592645
0.592664
0.592683
0.592703
0.592722
0.592722
0.592741
0.592761
0.59278
0.592799
0.592799
0.592819
0.592838
0.592858
0.592877
0.592877
0.592897
0.592916
0.592936
0.592955
0.592955
0.592975
0.592995
0.593014
0.593034
0.593034
0.593054
0.593073
0.593093
0.593113
0.593113
0.593132
0.593152
0.593172
0.593192
0.593192
0.593212
0.593231
0.593251
0.593271
0.593271
0.593291
0.593311
0.593331
0.593351
0.593351
0.593371
0.593391
0.593411
0.593431
0.593431
0.593451
0.593471
0.593491
0.593511
0.593511
0.593532
0.593552
0.593572
0.593592
0.593592
0.593612
0.593633
0.593653
0.593673
0.593673
0.593694
0.593714
0.593734
0.593755
0.593755
0.593775
0.593796
0.593816
0.593837
0.593837
0.593857
0.593878
0.593898
0.593919
0.593919
0.593939
0.59396
0.593981
0.594001
0.594001
0.594022
0.594043
0.594063
0.594084
0.594084
0.594105
0.594126
0.594146
0.594167
0.594167
0.594188
0.594209
0.59423
0.594251
0.594251
0.594272
0.594293
0.594314
0.594335
0.594335
0.594356
0.594377
0.594398
0.594419
0.594419
0.59444
0.594461
0.594482
0.594503
0.594503
0.594525
0.594546
0.594567
0.594588
0.594588
0.59461
0.594631
0.594652
0.594674
0.594674
0.594695
0.594716
0.594738
0.594759
0.594759
0.594781
0.594802
0.594824
0.594845
0.594845
0.594867
0.594888
0.59491
0.594931
0.594931
0.594953
0.594975
0.594996
0.595018
0.595018
0.59504
0.595062
0.595083
0.595105
0.595105
0.595127
0.595149
0.595171
0.595193
0.595193
0.595214
0.595236
0.595258
0.59528
0.59528
0.595302
0.595324
0.595346
0.595368
0.595368
0.595391
0.595413
0.595435
0.595457
0.595457
0.595479
0.595501
0.595524
0.595546
0.595546
0.595568
0.59559
0.595613
0.595635
0.595635
0.595657
0.59568
0.595702
0.595725
0.595725
0.595747
0.59577
0.595792
0.595815
0.595815
0.595837
0.59586
0.595882
0.595905
0.595905
0.595928
0.59595
0.595973
0.595996
0.595996
0.596018
0.596041
0.596064
0.596087
0.596087
0.59611
0.596132
0.596155
0.596178
0.596178
0.596201
0.596224
0.596247
0.59627
0.59627
0.596293
0.596316
0.596339
0.596362
0.596362
0.596385
0.596409
0.596432
0.596455
0.596455
0.596478
0.596501
0.596525
0.596548
0.596548
0.596571
0.596594
0.596618
0.596641
0.596641
0.596665
0.596688
0.596711
0.596735
0.596735
0.596758
0.596782
0.596806
0.596829
0.596829
0.596853
0.596876
0.5969
0.596924
0.596924
0.596947
0.596971
0.596995
0.597019
0.597019
0.597042
0.597066
0.59709
0.597114
0.597114
0.597138
0.597162
0.597186
0.597209
0.597209
0.597233
0.597257
0.597282
0.597306
0.597306
0.59733
0.597354
0.597378
0.597402
0.597402
0.597426
0.59745
0.597475
0.597499
0.597499
0.597523
0.597547
0.597572
0.597596
0.597596
0.597621
0.597645
0.597669
0.597694
0.597694
0.597718
0.597743
0.597767
0.597792
0.597792
0.597816
0.597841
0.597866
0.59789
0.59789
0.597915
0.59794
0.597964
0.597989
0.597989
0.598014
0.598039
0.598064
0.598088
0.598088
0.598113
0.598138
0.598163
0.598188
0.598188
0.598213
0.598238
0.598263
0.598288
0.598288
0.598313
0.598338
0.598363
0.598389
0.598389
0.598414
0.598439
0.598464
0.598489
0.598489
0.598515
0.59854
0.598565
0.598591
0.598591
0.598616
0.598642
0.598667
0.598692
0.598692
0.598718
0.598743
0.598769
0.598795
0.598795
0.59882
0.598846
0.598871
0.598897
0.598897
0.598923
0.598949
0.598974
0.599
0.599
0.599026
0.599052
0.599078
0.599103
0.599103
0.599129
0.599155
0.599181
0.599207
0.599207
0.599233
0.599259
0.599285
0.599311
0.599311
0.599338
0.599364
0.59939
0.599416
0.599416
0.599442
0.599468
0.599495
0.599521
0.599521
0.599547
0.599574
0.5996
0.599627
0.599627
0.599653
0.599679
0.599706
0.599732
0.599732
0.599759
0.599786
0.599812
0.599839
0.599839
0.599865
0.599892
0.599919
0.599945
0.599945
0.599972
0.599999
0.600026
0.600053
0.600053
0.600079
0.600106
0.600133
0.60016
0.60016
0.600187
0.600214
0.600241
0.600268
0.600268
0.600295
0.600322
0.60035
0.600377
0.600377
0.600404
0.600431
0.600458
0.600486
0.600486
0.600513
0.60054
0.600568
0.600595
0.600595
0.600622
0.60065
0.600677
0.600705
0.600705
0.600732
0.60076
0.600787
0.600815
0.600815
0.600843
0.60087
0.600898
0.600926
0.600926
0.600953
0.600981
0.601009
0.601037
0.601037
0.601065
0.601092
0.60112
0.601148
0.601148
0.601176
0.601204
0.601232
0.60126
0.60126
0.601288
0.601316
0.601345
0.601373
0.601373
0.601401
0.601429
0.601457
0.601486
0.601486
0.601514
0.601542
0.60157
0.601599
0.601599
0.601627
0.601656
0.601684
0.601713
0.601713
0.601741
0.60177
0.601798
0.601827
0.601827
0.601856
0.601884
0.601913
0.601942
0.601942
0.60197
0.601999
0.602028
0.602057
0.602057
0.602086
0.602114
0.602143
0.602172
0.602172
0.602201
0.60223
0.602259
0.602288
0.602288
0.602317
0.602347
0.602376
0.602405
0.602405
0.602434
0.602463
0.602493
0.602522
0.602522
0.602551
0.60258
0.60261
0.602639
0.602639
0.602669
0.602698
0.602728
0.602757
0.602757
0.602787
0.602816
0.602846
0.602876
0.602876
0.602905
0.602935
0.602965
0.602994
0.602994
0.603024
0.603054
0.603084
0.603114
0.603114
0.603144
0.603173
0.603203
0.603233
0.603233
0.603263
0.603293
0.603324
0.603354
0.603354
0.603384
0.603414
0.603444
0.603474
0.603474
0.603505
0.603535
0.603565
0.603596
0.603596
0.603626
0.603656
0.603687
0.603717
0.603717
0.603748
0.603778
0.603809
0.603839
0.603839
0.60387
0.603901
0.603931
0.603962
0.603962
0.603993
0.604023
0.604054
0.604085
0.604085
0.604116
0.604147
0.604178
0.604209
0.604209
0.60424
0.604271
0.604302
0.604333
0.604333
0.604364
0.604395
0.604426
0.604457
0.604457
0.604488
0.60452
0.604551
0.604582
0.604582
0.604614
0.604645
0.604676
0.604708
0.604708
0.604739
0.604771
0.604802
0.604834
0.604834
0.604865
0.604897
0.604929
0.60496
0.60496
0.604992
0.605024
0.605055
0.605087
0.605087
0.605119
0.605151
0.605183
0.605215
0.605215
0.605247
0.605279
0.605311
0.605343
0.605343
0.605375
0.605407
0.605439
0.605471
0.605471
0.605503
0.605535
0.605568
0.6056
0.6056
0.605632
0.605665
0.605697
0.605729
0.605729
0.605762
0.605794
0.605827
0.605859
0.605859
0.605892
0.605924
0.605957
0.60599
0.60599
0.606022
0.606055
0.606088
0.606121
0.606121
0.606154
0.606186
0.606219
0.606252
0.606252
0.606285
0.606318
0.606351
0.606384
0.606384
0.606417
0.60645
0.606483
0.606517
0.606517
0.60655
0.606583
0.606616
0.60665
0.60665
0.606683
0.606716
0.60675
0.606783
0.606783
0.606816
0.60685
0.606883
0.606917
0.606917
0.606951
0.606984
0.607018
0.607051
0.607051
0.607085
0.607119
0.607153
0.607186
0.607186
0.60722
0.607254
0.607288
0.607322
0.607322
0.607356
0.60739
0.607424
0.607458
0.607458
0.607492
0.607526
0.60756
0.607594
0.607594
0.607629
0.607663
0.607697
0.607732
0.607732
0.607766
0.6078
0.607835
0.607869
0.607869
0.607904
0.607938
0.607973
0.608007
0.608007
0.608042
0.608076
0.608111
0.608146
0.608146
0.608181
0.608215
0.60825
0.608285
0.608285
0.60832
0.608355
0.60839
0.608425
0.608425
0.60846
0.608495
0.60853
0.608565
0.608565
0.6086
0.608635
0.60867
0.608706
0.608706
0.608741
0.608776
0.608811
0.608847
0.608847
0.608882
0.608918
0.608953
0.608989
0.608989
0.609024
0.60906
0.609095
0.609131
0.609131
0.609166
0.609202
0.609238
0.609274
0.609274
0.609309
0.609345
0.609381
0.609417
0.609417
0.609453
0.609489
0.609525
0.609561
0.609561
0.609597
0.609633
0.609669
0.609705
0.609705
0.609742
0.609778
0.609814
0.60985
0.60985
0.609887
0.609923
0.609959
0.609996
0.609996
0.610032
0.610069
0.610105
0.610142
0.610142
0.610178
0.610215
0.610252
0.610288
0.610288
0.610325
0.610362
0.610399
0.610436
0.610436
0.610472
0.610509
0.610546
0.610583
0.610583
0.61062
0.610657
0.610694
0.610731
0.610731
0.610769
0.610806
0.610843
0.61088
0.61088
0.610918
0.610955
0.610992
0.61103
0.61103
0.611067
0.611104
0.611142
0.611179
0.611179
0.611217
0.611255
0.611292
0.61133
0.61133
0.611367
0.611405
0.611443
0.611481
0.611481
0.611519
0.611556
0.611594
0.611632
0.611632
0.61167
0.611708
0.611746
0.611784
0.611784
0.611822
0.611861
0.611899
0.611937
0.611937
0.611975
0.612013
0.612052
0.61209
0.61209
0.612128
0.612167
0.612205
0.612244
0.612244
0.612282
0.612321
0.612359
0.612398
0.612398
0.612437
0.612475
0.612514
0.612553
0.612553