<?xml version="1.0"?>
<VTKFile type="UnstructuredGrid" version="0.1" byte_order="LittleEndian">
<UnstructuredGrid>
<Piece NumberOfPoints="5000" NumberOfCells="4000">
<PointData Scalars="Reaction 0">
<DataArray type="Float32" Name="Reaction 0" format="ascii">
0.58127
0.58127
0.58127
0.58127
0.58127
0.58127
0.58127
0.58127
0.58127
0.58127
0.58127
0.58127
0.58127
0.58127
0.58127
0.58127
0.58127
0.58127
0.581271
0.581271
0.581271
0.581271
0.581271
0.581271
0.581271
0.581271
0.581271
0.581271
0.581272
0.581272
0.581272
0.581272
0.581272
0.581272
0.581272
0.581272
0.581273
0.581273
0.581273
0.581273
0.581273
0.581273
0.581274
0.581274
0.581274
0.581274
0.581274
0.581275
0.581275
0.581275
0.581275
0.581275
0.581276
0.581276
0.581276
0.581276
0.581277
0.581277
0.581277
0.581278
0.581278
0.581278
0.581278
0.581279
0.581279
0.581279
0.581279
0.58128
0.58128
0.58128
0.58128
0.581281
0.581281
0.581282
0.581282
0.581282
0.581282
0.581283
0.581283
0.581284
0.581284
0.581284
0.581285
0.581285
0.581285
0.581285
0.581286
0.581286
0.581287
0.581287
0.581287
0.581288
0.581288
0.581289
0.581289
0.581289
0.58129
0.58129
0.581291
0.581291
0.581291
0.581292
0.581293
0.581293
0.581294
0.581294
0.581294
0.581295
0.581295
0.581296
0.581296
0.581297
0.581297
0.581298
0.581298
0.581298
0.581299
0.5813
0.5813
0.581301
0.581301
0.581302
0.581302
0.581303
0.581304
0.581304
0.581304
0.581305
0.581306
0.581306
0.581306
0.581307
0.581308
0.581309
0.581309
0.581309
0.58131
0.581311
0.581312
0.581312
0.581312
0.581313
0.581314
0.581315
0.581315
0.581315
0.581316
0.581317
0.581318
0.581319
0.581319
0.581319
0.58132
0.581321
0.581322
0.581322
0.581323
0.581324
0.581324
0.581325
0.581325
0.581326
0.581327
0.581328
0.581329
0.581329
0.58133
0.581331
0.581332
0.581333
0.581333
0.581333
0.581334
0.581335
0.581336
0.581336
0.581337
0.581338
0.581339
0.58134
0.58134
0.581341
0.581342
0.581343
0.581344
0.581344
0.581345
0.581346
0.581347
0.581348
0.581348
0.581349
0.58135
0.581351
0.581352
0.581352
0.581353
0.581354
0.581356
0.581357
0.581357
0.581358
0.581359
0.58136
0.581361
0.581361
0.581362
0.581363
0.581364
0.581366
0.581366
0.581367
0.581368
0.581369
0.58137
0.58137
0.581371
0.581373
0.581374
0.581375
0.581375
0.581376
0.581377
0.581379
0.58138
0.58138
0.581381
0.581382
0.581383
0.581385
0.581385
0.581386
0.581387
0.581389
0.58139
0.58139
0.581391
0.581392
0.581394
0.581395
0.581395
0.581396
0.581398
0.581399
0.5814
0.5814
0.581402
0.581403
0.581404
0.581406
0.581406
0.581407
0.581408
0.58141
0.581411
0.581411
0.581413
0.581414
0.581415
0.581417
0.581417
0.581418
0.58142
0.581421
0.581423
0.581423
0.581424
0.581425
0.581427
0.581428
0.581428
0.58143
0.581431
0.581433
0.581434
0.581434
0.581436
0.581437
0.581439
0.58144
0.58144
0.581442
0.581444
0.581445
0.581447
0.581447
0.581448
0.58145
0.581451
0.581453
0.581453
0.581454
0.581456
0.581458
0.581459
0.581459
0.581461
0.581463
0.581464
0.581466
0.581466
0.581467
0.581469
0.581471
0.581472
0.581472
0.581474
0.581476
0.581477
0.581479
0.581479
0.581481
0.581483
0.581484
0.581486
0.581486
0.581488
0.581489
0.581491
0.581493
0.581493
0.581495
0.581496
0.581498
0.5815
0.5815
0.581502
0.581504
0.581505
0.581507
0.581507
0.581509
0.581511
0.581513
0.581515
0.581515
0.581516
0.581518
0.58152
0.581522
0.581522
0.581524
0.581526
0.581528
0.581529
0.581529
0.581531
0.581533
0.581535
0.581537
0.581537
0.581539
0.581541
0.581543
0.581545
0.581545
0.581547
0.581549
0.581551
0.581553
0.581553
0.581555
0.581557
0.581559
0.581561
0.581561
0.581563
0.581565
0.581567
0.581569
0.581569
0.581571
0.581573
0.581575
0.581577
0.581577
0.581579
0.581581
0.581583
0.581585
0.581585
0.581587
0.581589
0.581591
0.581594
0.581594
0.581596
0.581598
0.5816
0.581602
0.581602
0.581604
0.581606
0.581608
0.581611
0.581611
0.581613
0.581615
0.581617
0.581619
0.581619
0.581622
0.581624
0.581626
0.581628
0.581628
0.581631
0.581633
0.581635
0.581637
0.581637
0.58164
0.581642
0.581644
0.581646
0.581646
0.581649
0.581651
0.581653
0.581656
0.581656
0.581658
0.58166
0.581663
0.581665
0.581665
0.581667
0.58167
0.581672
0.581674
0.581674
0.581677
0.581679
0.581682
0.581684
0.581684
0.581686
0.581689
0.581691
0.581694
0.581694
0.581696
0.581699
0.581701
0.581703
0.581703
0.581706
0.581708
0.581711
0.581713
0.581713
0.581716
0.581718
0.581721
0.581723
0.581723
0.581726
0.581728
0.581731
0.581734
0.581734
0.581736
0.581739
0.581741
0.581744
0.581744
0.581746
0.581749
0.581752
0.581754
0.581754
0.581757
0.581759
0.581762
0.581765
0.581765
0.581767
0.58177
0.581773
0.581775
0.581775
0.581778
0.581781
0.581783
0.581786
0.581786
0.581789
0.581791
0.581794
0.581797
0.581797
0.581799
0.581802
0.581805
0.581808
0.581808
0.58181
0.581813
0.581816
0.581819
0.581819
0.581821
0.581824
0.581827
0.58183
0.58183
0.581833
0.581835
0.581838
0.581841
0.581841
0.581844
0.581847
0.58185
0.581852
0.581852
0.581855
0.581858
0.581861
0.581864
0.581864
0.581867
0.58187
0.581873
0.581876
0.581876
0.581879
0.581881
0.581884
0.581887
0.581887
0.58189
0.581893
0.581896
0.581899
0.581899
0.581902
0.581905
0.581908
0.581911
0.581911
0.581914
0.581917
0.58192
0.581923
0.581923
0.581926
0.58193
0.581933
0.581936
0.581936
0.581939
0.581942
0.581945
0.581948
0.581948
0.581951
0.581954
0.581957
0.58196
0.58196
0.581964
0.581967
0.58197
0.581973
0.581973
0.581976
0.581979
0.581983
0.581986
0.581986
0.581989
0.581992
0.581995
0.581999
0.581999
0.582002
0.582005
0.582008
0.582012
0.582012
0.582015
0.582018
0.582021
0.582025
0.582025
0.582028
0.582031
0.582035
0.582038
0.582038
0.582041
0.582044
0.582048
0.582051
0.582051
0.582054
0.582058
0.582061
0.582065
0.582065
0.582068
0.582071
0.582075
0.582078
0.582078
0.582081
0.582085
0.582088
0.582092
0.582092
0.582095
0.582099
0.582102
0.582105
0.582105
0.582109
0.582112
0.582116
0.582119
0.582119
0.582123
0.582126
0.58213
0.582133
0.582133
0.582137
0.58214
0.582144
0.582147
0.582147
0.582151
0.582155
0.582158
0.582162
0.582162
0.582165
0.582169
0.582173
0.582176
0.582176
0.58218
0.582183
0.582187
0.582191
0.582191
0.582194
0.582198
0.582202
0.582205
0.582205
0.582209
0.582213
0.582216
0.58222
0.58222
0.582224
0.582228
0.582231
0.582235
0.582235
0.582239
0.582243
0.582246
0.58225
0.58225
0.582254
0.582258
0.582261
0.582265
0.582265
0.582269
0.582273
0.582277
0.58228
0.58228
0.582284
0.582288
0.582292
0.582296
0.582296
0.5823
0.582304
0.582307
0.582311
0.582311
0.582315
0.582319
0.582323
0.582327
0.582327
0.582331
0.582335
0.582339
0.582343
0.582343
0.582347
0.582351
0.582354
0.582358
0.582358
0.582362
0.582366
0.58237
0.582374
0.582374
0.582378
0.582382
0.582386
0.582391
0.582391
0.582395
0.582399
0.582403
0.582407
0.582407
0.582411
0.582415
0.582419
0.582423
0.582423
0.582427
0.582431
0.582435
0.58244
0.58244
0.582444
0.582448
0.582452
0.582456
0.582456
0.58246
0.582465
0.582469
0.582473
0.582473
0.582477
0.582481
0.582486
0.58249
0.58249
0.582494
0.582498
0.582503
0.582507
0.582507
0.582511
0.582515
0.58252
0.582524
0.582524
0.582528
0.582533
0.582537
0.582541
0.582541
0.582546
0.58255
0.582554
0.582559
0.582559
0.582563
0.582567
0.582572
0.582576
0.582576
0.582581
0.582585
0.582589
0.582594
0.582594
0.582598
0.582603
0.582607
0.582612
0.582612
0.582616
0.582621
0.582625
0.582629
0.582629
0.582634
0.582638
0.582643
0.582647
0.582647
0.582652
0.582657
0.582661
0.582666
0.582666
0.58267
0.582675
0.582679
0.582684
0.582684
0.582688
0.582693
0.582698
0.582702
0.582702
0.582707
0.582711
0.582716
0.582721
0.582721
0.582725
0.58273
0.582735
0.582739
0.582739
0.582744
0.582749
0.582754
0.582758
0.582758
0.582763
0.582768
0.582772
0.582777
0.582777
0.582782
0.582787
0.582792
0.582796
0.582796
0.582801
0.582806
0.582811
0.582816
0.582816
0.58282
0.582825
0.58283
0.582835
0.582835
0.58284
0.582845
0.582849
0.582854
0.582854
0.582859
0.582864
0.582869
0.582874
0.582874
0.582879
0.582884
0.582889
0.582894
0.582894
0.582899
0.582904
0.582908
0.582913
0.582913
0.582918
0.582923
0.582928
0.582933
0.582933
0.582938
0.582943
0.582948
0.582954
0.582954
0.582959
0.582964
0.582969
0.582974
0.582974
0.582979
0.582984
0.582989
0.582994
0.582994
0.582999
0.583004
0.583009
0.583015
0.583015
0.58302
0.583025
0.58303
0.583035
0.583035
0.58304
0.583046
0.583051
0.583056
0.583056
0.583061
0.583067
0.583072
0.583077
0.583077
0.583082
0.583088
0.583093
0.583098
0.583098
0.583103
0.583109
0.583114
0.583119
0.583119
0.583125
0.58313
0.583135
0.583141
0.583141
0.583146
0.583151
0.583157
0.583162
0.583162
0.583168
0.583173
0.583178
0.583184
0.583184
0.583189
0.583195
0.5832
0.583205
0.583205
0.583211
0.583216
0.583222
0.583227
0.583227
0.583233
0.583238
0.583244
0.583249
0.583249
0.583255
0.58326
0.583266
0.583271
0.583271
0.583277
0.583283
0.583288
0.583294
0.583294
0.583299
0.583305
0.583311
0.583316
0.583316
0.583322
0.583327
0.583333
0.583339
0.583339
0.583344
0.58335
0.583356
0.583362
0.583362
0.583367
0.583373
0.583379
0.583384
0.583384
0.58339
0.583396
0.583402
0.583407
0.583407
0.583413
0.583419
0.583425
0.583431
0.583431
0.583436
0.583442
0.583448
0.583454
0.583454
0.58346
0.583466
0.583471
0.583477
0.583477
0.583483
0.583489
0.583495
0.583501
0.583501
0.583507
0.583513
0.583519
0.583524
0.583524
0.58353
0.583536
0.583542
0.583548
0.583548
0.583554
0.58356
0.583566
0.583572
0.583572
0.583578
0.583584
0.58359
0.583596
0.583596
0.583602
0.583608
0.583615
0.583621
0.583621
0.583627
0.583633
0.583639
0.583645
0.583645
0.583651
0.583657
0.583663
0.58367
0.58367
0.583676
0.583682
0.583688
0.583694
0.583694
0.583701
0.583707
0.583713
0.583719
0.583719
0.583725
0.583732
0.583738
0.583744
0.583744
0.58375
0.583757
0.583763
0.583769
0.583769
0.583776
0.583782
0.583788
0.583795
0.583795
0.583801
0.583807
0.583814
0.58382
0.58382
0.583826
0.583833
0.583839
0.583846
0.583846
0.583852
0.583858
0.583865
0.583871
0.583871
0.583878
0.583884
0.583891
0.583897
0.583897
0.583904
0.58391
0.583917
0.583923
0.583923
0.58393
0.583936
0.583943
0.583949
0.583949
0.583956
0.583962
0.583969
0.583976
0.583976
0.583982
0.583989
0.583996
0.584002
0.584002
0.584009
0.584015
0.584022
0.584029
0.584029
0.584035
0.584042
0.584049
0.584056
0.584056
0.584062
0.584069
0.584076
0.584082
0.584082
0.584089
0.584096
0.584103
0.58411
0.58411
0.584116
0.584123
0.58413
0.584137
0.584137
0.584144
0.58415
0.584157
0.584164
0.584164
0.584171
0.584178
0.584185
0.584192
0.584192
0.584198
0.584205
0.584212
0.584219
0.584219
0.584226
0.584233
0.58424
0.584247
0.584247
0.584254
0.584261
0.584268
0.584275
0.584275
0.584282
0.584289
0.584296
0.584303
0.584303
0.58431
0.584317
0.584324
0.584332
0.584332
0.584339
0.584346
0.584353
0.58436
0.58436
0.584367
0.584374
0.584381
0.584389
0.584389
0.584396
0.584403
0.58441
0.584417
0.584417
0.584424
0.584432
0.584439
0.584446
0.584446
0.584453
0.584461
0.584468
0.584475
0.584475
0.584482
0.58449
0.584497
0.584504
0.584504
0.584512
0.584519
0.584526
0.584534
0.584534
0.584541
0.584548
0.584556
0.584563
0.584563
0.584571
0.584578
0.584586
0.584593
0.584593
0.5846
0.584608
0.584615
0.584623
0.584623
0.58463
0.584638
0.584645
0.584653
0.584653
0.58466
0.584668
0.584676
0.584683
0.584683
0.584691
0.584698
0.584706
0.584713
0.584713
0.584721
0.584729
0.584736
0.584744
0.584744
0.584752
0.584759
0.584767
0.584774
0.584774
0.584782
0.58479
0.584798
0.584805
0.584805
0.584813
0.584821
0.584828
0.584836
0.584836
0.584844
0.584852
0.58486
0.584867
0.584867
0.584875
0.584883
0.584891
0.584899
0.584899
0.584907
0.584914
0.584922
0.58493
0.58493
0.584938
0.584946
0.584954
0.584962
0.584962
0.58497
0.584978
0.584986
0.584994
0.584994
0.585002
0.58501
0.585018
0.585026
0.585026
0.585034
0.585042
0.58505
0.585058
0.585058
0.585066
0.585074
0.585082
0.58509
0.58509
0.585098
0.585106
0.585114
0.585122
0.585122
0.58513
0.585139
0.585147
0.585155
0.585155
0.585163
0.585171
0.585179
0.585188
0.585188
0.585196
0.585204
0.585212
0.585221
0.585221
0.585229
0.585237
0.585246
0.585254
0.585254
0.585262
0.58527
0.585279
0.585287
0.585287
0.585295
0.585304
0.585312
0.585321
0.585321
0.585329
0.585337
0.585346
0.585354
0.585354
0.585363
0.585371
0.58538
0.585388
0.585388
0.585396
0.585405
0.585413
0.585422
0.585422
0.58543
0.585439
0.585447
0.585456
0.585456
0.585465
0.585473
0.585482
0.58549
0.58549
0.585499
0.585508
0.585516
0.585525
0.585525
0.585533
0.585542
0.585551
0.58556
0.58556
0.585568
0.585577
0.585586
0.585594
0.585594
0.585603
0.585612
0.585621
0.585629
0.585629
0.585638
0.585647
0.585656
0.585665
0.585665
0.585673
0.585682
0.585691
0.5857
0.5857
0.585709
0.585718
0.585726
0.585735
0.585735
0.585744
0.585753
0.585762
0.585771
0.585771
0.58578
0.585789
0.585798
0.585807
0.585807
0.585816
0.585825
0.585834
0.585843
0.585843
0.585852
0.585861
0.58587
0.585879
0.585879
0.585888
0.585897
0.585907
0.585916
0.585916
0.585925
0.585934
0.585943
0.585952
0.585952
0.585961
0.585971
0.58598
0.585989
0.585989
0.585998
0.586007
0.586017
0.586026
0.586026
0.586035
0.586044
0.586054
0.586063
0.586063
0.586072
0.586082
0.586091
0.5861
0.5861
0.58611
0.586119
0.586128
0.586138
0.586138
0.586147
0.586157
0.586166
0.586175
0.586175
0.586185
0.586194
0.586204
0.586213
0.586213
0.586223
0.586232
0.586242
0.586251
0.586251
0.586261
0.586271
0.58628
0.58629
0.58629
0.586299
0.586309
0.586318
0.586328
0.586328
0.586338
0.586347
0.586357
0.586367
0.586367
0.586376
0.586386
0.586396
0.586405
0.586405
0.586415
0.586425
0.586435
0.586444
0.586444
0.586454
0.586464
0.586474
0.586483
0.586483
0.586493
0.586503
0.586513
0.586523
0.586523
0.586533
0.586543
0.586552
0.586562
0.586562
0.586572
0.586582
0.586592
0.586602
0.586602
0.586612
0.586622
0.586632
0.586642
0.586642
0.586652
0.586662
0.586672
0.586682
0.586682
0.586692
0.586702
0.586712
0.586722
0.586722
0.586732
0.586743
0.586753
0.586763
0.586763
0.586773
0.586783
0.586793
0.586803
0.586803
0.586814
0.586824
0.586834
0.586844
0.586844
0.586854
0.586865
0.586875
0.586885
0.586885
0.586896
0.586906
0.586916
0.586927
0.586927
0.586937
0.586947
0.586958
0.586968
0.586968
0.586978
0.586989
0.586999
0.58701
0.58701
0.58702
0.587031
0.587041
0.587051
0.587051
0.587062
0.587072
0.587083
0.587093
0.587093
0.587104
0.587115
0.587125
0.587136
0.587136
0.587146
0.587157
0.587167
0.587178
0.587178
0.587189
0.587199
0.58721
0.587221
0.587221
0.587231
0.587242
0.587253
0.587263
0.587263
0.587274
0.587285
0.587296
0.587307
0.587307
0.587317
0.587328
0.587339
0.58735
0.58735
0.587361
0.587371
0.587382
0.587393
0.587393
0.587404
0.587415
0.587426
0.587437
0.587437
0.587448
0.587459
0.58747
0.587481
0.587481
0.587491
0.587502
0.587513
0.587524
0.587524
0.587536
0.587547
0.587558
0.587569
0.587569
0.58758
0.587591
0.587602
0.587613
0.587613
0.587624
0.587635
0.587647
0.587658
0.587658
0.587669
0.58768
0.587691
0.587703
0.587703
0.587714
0.587725
0.587736
0.587748
0.587748
0.587759
0.58777
0.587782
0.587793
0.587793
0.587804
0.587816
0.587827
0.587838
0.587838
0.58785
0.587861
0.587873
0.587884
0.587884
0.587895
0.587907
0.587918
0.58793
0.58793
0.587941
0.587953
0.587964
0.587976
0.587976
0.587987
0.587999
0.588011
0.588022
0.588022
0.588034
0.588045
0.588057
0.588069
0.588069
0.58808
0.588092
0.588104
0.588115
0.588115
0.588127
0.588139
0.588151
0.588162
0.588162
0.588174
0.588186
0.588198
0.588209
0.588209
0.588221
0.588233
0.588245
0.588257
0.588257
0.588269
0.588281
0.588292
0.588304
0.588304
0.588316
0.588328
0.58834
0.588352
0.588352
0.588364
0.588376
0.588388
0.5884
0.5884
0.588412
0.588424
0.588436
0.588448
0.588448
0.58846
0.588473
0.588485
0.588497
0.588497
0.588509
0.588521
0.588533
0.588545
0.588545
0.588558
0.58857
0.588582
0.588594
0.588594
0.588606
0.588619
0.588631
0.588643
0.588643
0.588656
0.588668
0.58868
0.588693
0.588693
0.588705
0.588717
0.58873
0.588742
0.588742
0.588755
0.588767
0.588779
0.588792
0.588792
0.588804
0.588817
0.588829
0.588842
0.588842
0.588854
0.588867
0.588879
0.588892
0.588892
0.588905
0.588917
0.58893
0.588942
0.588942
0.588955
0.588968
0.58898
0.588993
0.588993
0.589006
0.589018
0.589031
0.589044
0.589044
0.589057
0.589069
0.589082
0.589095
0.589095
0.589108
0.589121
0.589133
0.589146
0.589146
0.589159
0.589172
0.589185
0.589198
0.589198
0.589211
0.589224
0.589237
0.58925
0.58925
0.589263
0.589276
0.589289
0.589302
0.589302
0.589315
0.589328
0.589341
0.589354
0.589354
0.589367
0.58938
0.589393
0.589406
0.589406
0.589419
0.589433
0.589446
0.589459
0.589459
0.589472
0.589485
0.589499
0.589512
0.589512
0.589525
0.589538
0.589552
0.589565
0.589565
0.589578
0.589592
0.589605
0.589618
0.589618
0.589632
0.589645
0.589659
0.589672
0.589672
0.589685
0.589699
0.589712
0.589726
0.589726
0.589739
0.589753
0.589766
0.58978
0.58978
0.589794
0.589807
0.589821
0.589834
0.589834
0.589848
0.589862
0.589875
0.589889
0.589889
0.589903
0.589916
0.58993
0.589944
0.589944
0.589957
0.589971
0.589985
0.589999
0.589999
0.590013
0.590026
0.59004
0.590054
0.590054
0.590068
0.590082
0.590096
0.59011
0.59011
0.590123
0.590137
0.590151
0.590165
0.590165
0.590179
0.590193
0.590207
0.590221
0.590221
0.590235
0.590249
0.590264
0.590278
0.590278
0.590292
0.590306
0.59032
0.590334
0.590334
0.590348
0.590362
0.590377
0.590391
0.590391
0.590405
0.590419
0.590434
0.590448
0.590448
0.590462
0.590476
0.590491
0.590505
0.590505
0.590519
0.590534
0.590548
0.590563
0.590563
0.590577
0.590591
0.590606
0.59062
0.59062
0.590635
0.590649
0.590664
0.590678
0.590678
0.590693
0.590707
0.590722
0.590737
0.590737
0.590751
0.590766
0.59078
0.590795
0.590795
0.59081
0.590824
0.590839
0.590854
0.590854
0.590868
0.590883
0.590898
0.590913
0.590913
0.590928
0.590942
0.590957
0.590972
0.590972
0.590987
0.591002
0.591017
0.591031
0.591031
0.591046
0.591061
0.591076
0.591091
0.591091
0.591106
0.591121
0.591136
0.591151
0.591151
0.591166
0.591181
0.591196
0.591212
0.591212
0.591227
0.591242
0.591257
0.591272
0.591272
0.591287
0.591302
0.591318
0.591333
0.591333
0.591348
0.591363
0.591379
0.591394
0.591394
0.591409
0.591425
0.59144
0.591455
0.591455
0.591471
0.591486
0.591501
0.591517
0.591517
0.591532
0.591548
0.591563
0.591579
0.591579
0.591594
0.59161
0.591625
0.591641
0.591641
0.591656
0.591672
0.591687
0.591703
0.591703
0.591719
0.591734
0.59175
0.591766
0.591766
0.591781
0.591797
0.591813
0.591829
0.591829
0.591844
0.59186
0.591876
0.591892
0.591892
0.591908
0.591923
0.591939
0.591955
0.591955
0.591971
0.591987
0.592003
0.592019
0.592019
0.592035
0.592051
0.592067
0.592083
0.592083
0.592099
0.592115
0.592131
0.592147
0.592147
0.592163
0.592179
0.592195
0.592212
0.592212
0.592228
0.592244
0.59226
0.592276
0.592276
0.592293
0.592309
0.592325
0.592342
0.592342
0.592358
0.592374
0.59239
0.592407
0.592407
0.592423
0.59244
0.592456
0.592472
0.592472
0.592489
0.592505
0.592522
0.592538
0.592538
0.592555
0.592571
0.592588
0.592604
0.592604
0.592621
0.592638
0.592654
0.592671
0.592671
0.592688
0.592704
0.592721
0.592738
0.592738
0.592754
0.592771
0.592788
0.592805
0.592805
0.592821
0.592838
0.592855
0.592872
0.592872
0.592889
0.592906
0.592923
0.59294
0.59294
0.592956
0.592973
0.59299
0.593007
0.593007
0.593024
0.593041
0.593058
0.593075
0.593075
0.593093
0.59311
0.593127
0.593144
0.593144
0.593161
0.593178
0.593195
0.593213
0.593213
0.59323
0.593247
0.593264
0.593282
0.593282
0.593299
0.593316
0.593334
0.593351
0.593351
0.593368
0.593386
0.593403
0.59342
0.59342
0.593438
0.593455
0.593473
0.59349
0.59349
0.593508
0.593525
0.593543
0.593561
0.593561
0.593578
0.593596
0.593613
0.593631
0.593631
0.593649
0.593666
0.593684
0.593702
0.593702
0.593719
0.593737
0.593755
0.593773
0.593773
0.593791
0.593808
0.593826
0.593844
0.593844
0.593862
0.59388
0.593898
0.593916
0.593916
0.593934
0.593952
0.59397
0.593988
0.593988
0.594006
0.594024
0.594042
0.59406
0.59406
0.594078
0.594096
0.594114
0.594132
0.594132
0.594151
0.594169
0.594187
0.594205
0.594205
0.594223
0.594242
0.59426
0.594278
0.594278
0.594297
0.594315
0.594333
0.594352
0.594352
0.59437
0.594389
0.594407
0.594426
0.594426
0.594444
0.594462
0.594481
0.5945
0.5945
0.594518
0.594537
0.594555
0.594574
0.594574
0.594593
0.594611
0.59463
0.594649
0.594649
0.594667
0.594686
0.594705
0.594723
0.594723
0.594742
0.594761
0.59478
0.594799
0.594799
0.594818
0.594837
0.594855
0.594874
0.594874
0.594893
0.594912
0.594931
0.59495
0.59495
0.594969
0.594988
0.595007
0.595026
0.595026
0.595046
0.595065
0.595084
0.595103
0.595103
0.595122
0.595141
0.595161
0.59518
0.59518
0.595199
0.595218
0.595238
0.595257
0.595257
0.595276
0.595296
0.595315
0.595334
0.595334
0.595354
0.595373
0.595393
0.595412
0.595412
0.595432
0.595451
0.595471
0.59549
0.59549
0.59551
0.595529
0.595549
0.595569
0.595569
0.595588
0.595608
0.595628
0.595647
0.595647
0.595667
0.595687
0.595707
0.595726
0.595726
0.595746
0.595766
0.595786
0.595806
0.595806
0.595826
0.595846
0.595866
0.595886
0.595886
0.595906
0.595926
0.595946
0.595966
0.595966
0.595986
0.596006
0.596026
0.596046
0.596046
0.596066
0.596086
0.596106
0.596127
0.596127
0.596147
0.596167
0.596187
0.596208
0.596208
0.596228
0.596248
0.596269
0.596289
0.596289
0.596309
0.59633
0.59635
0.596371
0.596371
0.596391
0.596412
0.596432
0.596453
0.596453
0.596473
0.596494
0.596514
0.596535
0.596535
0.596556
0.596576
0.596597
0.596618
0.596618
0.596638
0.596659
0.59668
0.596701
0.596701
0.596721
0.596742
0.596763
0.596784
0.596784
0.596805
0.596826
0.596847
0.596868
0.596868
0.596889
0.59691
0.596931
0.596952
0.596952
0.596973
0.596994
0.597015
0.597036
0.597036
0.597057
0.597078
0.5971
0.597121
0.597121
0.597142
0.597163
0.597184
0.597206
0.597206
0.597227
0.597248
0.59727
0.597291
0.597291
0.597313
0.597334
0.597355
0.597377
0.597377
0.597398
0.59742
0.597441
0.597463
0.597463
0.597484
0.597506
0.597528
0.597549
0.597549
0.597571
0.597593
0.597614
0.597636
0.597636
0.597658
0.59768
0.597701
0.597723
0.597723
0.597745
0.597767
0.597789
0.597811
0.597811
0.597833
0.597855
0.597877
0.597899
0.597899
0.597921
0.597943
0.597965
0.597987
0.597987
0.598009
0.598031
0.598053
0.598075
0.598075
0.598097
0.59812
0.598142
0.598164
0.598164
0.598186
0.598209
0.598231
0.598253
0.598253
0.598276
0.598298
0.59832
0.598343
0.598343
0.598365
0.598388
0.59841
0.598433
0.598433
0.598455
0.598478
0.5985
0.598523
0.598523
0.598546
0.598568
0.598591
0.598614
0.598614
0.598636
0.598659
0.598682
0.598705
0.598705
0.598728
0.59875
0.598773
0.598796
0.598796
0.598819
0.598842
0.598865
0.598888
0.598888
0.598911
0.598934
0.598957
0.59898
0.59898
0.599003
0.599026
0.599049
0.599072
0.599072
0.599096
0.599119
0.599142
0.599165
0.599165
0.599189
0.599212
0.599235
0.599259
0.599259
0.599282
0.599305
0.599329
0.599352
0.599352
0.599376
0.599399
0.599423
0.599446
0.599446
0.59947
0.599493
0.599517
0.59954
0.59954
0.599564
0.599588
0.599611
0.599635
0.599635
0.599659
0.599683
0.599706
0.59973
0.59973
0.599754
0.599778
0.599802
0.599826
0.599826
0.59985
0.599874
0.599897
0.599921
0.599921
0.599945
0.59997
0.599994
0.600018
0.600018
0.600042
0.600066
0.60009
0.600114
0.600114
0.600138
0.600163
0.600187
0.600211
0.600211
0.600236
0.60026
0.600284
0.600309
0.600309
0.600333
0.600357
0.600382
0.600406
0.600406
0.600431
0.600455
0.60048
0.600504
0.600504
0.600529
0.600554
0.600578
0.600603
0.600603
0.600628
0.600652
0.600677
0.600702
0.600702
0.600727
0.600751
0.600776
0.600801
0.600801
0.600826
0.600851
0.600876
0.600901
0.600901
0.600926
0.600951
0.600976
0.601001
0.601001
0.601026
0.601051
0.601076
0.601101
0.601101
0.601126
0.601152
0.601177
0.601202
0.601202
0.601227
0.601253
0.601278
0.601303
0.601303
0.601329
0.601354
0.601379
0.601405
0.601405
0.60143
0.601456
0.601481
0.601507
0.601507
0.601532
0.601558
0.601584
0.601609
0.601609
0.601635
0.601661
0.601686
0.601712
0.601712
0.601738
0.601764
0.601789
0.601815
0.601815
0.601841
0.601867
0.601893
0.601919
0.601919
0.601945
0.601971
0.601997
0.602023
0.602023
0.602049
0.602075
0.602101
0.602127
0.602127
0.602153
0.60218
0.602206
0.602232
0.602232
0.602258
0.602285
0.602311
0.602337
0.602337
0.602364
0.60239
0.602417
0.602443
0.602443
0.602469
0.602496
0.602522
0.602549
0.602549
0.602576
0.602602
0.602629
0.602655
0.602655
0.602682
0.602709
0.602736
0.602762
0.602762
0.602789
0.602816
0.602843
0.60287
0.60287
0.602896
0.602923
0.60295
0.602977
0.602977
0.603004
0.603031
0.603058
0.603085
0.603085
0.603112
0.60314
0.603167
0.603194
0.603194
0.603221
0.603248
0.603276
0.603303
0.603303
0.60333
0.603357
0.603385
0.603412
0.603412
0.60344
0.603467
0.603494
0.603522
0.603522
0.603549
0.603577
0.603604
0.603632
0.603632
0.60366
0.603687
0.603715
0.603743
0.603743
0.60377
0.603798
0.603826
0.603854
0.603854
0.603882
0.603909
0.603937
0.603965
0.603965
0.603993
0.604021
0.604049
0.604077
0.604077
0.604105
0.604133
0.604161
0.604189
0.604189
0.604217
0.604246
0.604274
0.604302
0.604302
0.60433
0.604359
0.604387
0.604415
0.604415
0.604444
0.604472
0.6045
0.604529
0.604529
0.604557
0.604586
0.604614
0.604643
0.604643
0.604671
0.6047
0.604729
0.604757
0.604757
0.604786
0.604815
0.604843
0.604872
0.604872
0.604901
0.60493
0.604959
0.604988
0.604988
0.605016
0.605045
0.605074
0.605103
0.605103
0.605132
0.605161
0.60519
0.605219
0.605219
0.605249
0.605278
0.605307
0.605336
0.605336
0.605365
0.605395
0.605424
0.605453
0.605453
0.605482
0.605512
0.605541
0.605571
0.605571
0.6056
0.60563
0.605659
0.605689
0.605689
0.605718
0.605748
0.605777
0.605807
0.605807
0.605837
0.605866
0.605896
0.605926
0.605926
0.605956
0.605985
0.606015
0.606045
0.606045
0.606075
0.606105
0.606135
0.606165
0.606165
0.606195
0.606225
0.606255
0.606285
0.606285
0.606315
0.606345
0.606375
0.606406
0.606406
0.606436
0.606466
0.606496
0.606527
0.606527
0.606557
0.606587
0.606618
0.606648
0.606648
0.606679
0.606709
0.60674
0.60677
0.60677
0.606801
0.606831
0.606862
0.606893
0.606893
0.606923
0.606954
0.606985
0.607016
0.607016
0.607046
0.607077
0.607108
0.607139
0.607139
0.60717
0.607201
0.607232
0.607263
0.607263
0.607294
0.607325
0.607356
0.607387
0.607387
0.607418
0.607449
0.60748
0.607512
0.607512
0.607543
0.607574
0.607606
0.607637
0.607637
0.607668
0.6077
0.607731
0.607763
0.607763
0.607794
0.607826
0.607857
0.607889
0.607889
0.60792
0.607952
0.607984
0.608015
0.608015
0.608047
0.608079
0.60811
0.608142
0.608142
0.608174
0.608206
0.608238
0.60827
0.60827
0.608302
0.608334
0.608366
0.608398
0.608398
0.60843
0.608462
0.608494
0.608526
0.608526
0.608558
0.608591
0.608623
0.608655
0.608655
0.608687
0.60872
0.608752
0.608784
0.608784
0.608817
0.608849
0.608882
0.608914
0.608914
0.608947
0.608979
0.609012
0.609045
0.609045
0.609077
0.60911
0.609143
0.609176
0.609176
0.609208
0.609241
0.609274
0.609307
0.609307
0.60934
0.609373
0.609406
0.609439
0.609439
0.609472
0.609505
0.609538
0.609571
0.609571
0.609604
0.609637
0.60967
0.609703
0.609703
0.609737
0.60977
0.609803
0.609837
0.609837
0.60987
0.609903
0.609937
0.60997
0.60997
0.610004
0.610037
0.610071
0.610105
0.610105
0.610138
0.610172
0.610205
0.610239
0.610239
0.610273
0.610307
0.61034
0.610374
0.610374
0.610408
0.610442
0.610476
0.61051
0.61051
0.610544
0.610578
0.610612
0.610646
0.610646
0.61068
0.610714
0.610748
0.610783
0.610783
0.610817
0.610851
0.610885
0.61092
0.61092
0.610954
0.610988
0.611023
0.611057
0.611057
0.611092
0.611126
0.611161
0.611195
0.611195
0.61123
0.611265
0.611299
0.611334
0.611334
0.611369
0.611403
0.611438
0.611473
0.611473
0.611508
0.611543
0.611578
0.611612
0.611612
0.611647
0.611682
0.611717
0.611752
0.611752
0.611788
0.611823
0.611858
0.611893
0.611893
0.611928
0.611963
0.611999
0.612034
0.612034
0.612069
0.612105
0.61214
0.612176
0.612176
0.612211
0.612247
0.612282
0.612318
0.612318
0.612353
0.612389
0.612424
0.61246
0.61246
0.612496
0.612532
0.612567
0.612603
0.612603
0.612639
0.612675
0.612711
0.612747
0.612747
0.612783
0.612819
0.612855
0.612891
0.612891
0.612927
0.612963
0.612999
0.613035
0.613035
0.613072
0.613108
0.613144
0.61318
0.61318
0.613217
0.613253
0.613289
0.613326
0.613326
0.613362
0.613399
0.613435
0.613472
0.613472
0.613509
0.613545
0.613582
0.613619
0.613619
0.613655
0.613692
0.613729
0.613766
0.613766
0.613802
0.613839
0.613876
0.613913
0.613913
0.61395
0.613987
0.614024
0.614061
0.614061
0.614098
0.614136
0.614173
0.61421
0.61421
0.614247
0.614284
0.614322
0.614359
0.614359
0.614396
0.614434
0.614471
0.614509
0.614509
0.614546
0.614584
0.614621
0.614659
0.614659
0.614696
0.614734
0.614772
0.61481
0.61481
0.614847
0.614885
0.614923
0.614961
0.614961
0.614999
0.615037
0.615074
0.615112
0.615112
0.61515
0.615189
0.615227
0.615265
0.615265
0.615303
0.615341
0.615379
0.615417
0.615417
0.615456
0.615494
0.615532
0.615571
0.615571
0.615609
0.615648
0.615686
0.615724
0.615724
0.615763
0.615802
0.61584
0.615879
0.615879
0.615917
0.615956
0.615995
0.616034
0.616034
0.616072
0.616111
0.61615
0.616189
0.616189
0.616228
0.616267
0.616306
0.616345
0.616345
0.616384
0.616423
0.616462
0.616501
0.616501
0.61654
0.61658
0.616619
0.616658
0.616658
0.616698
0.616737
0.616776
0.616816
0.616816
0.616855
0.616895
0.616934
0.616974
0.616974
0.617013
0.617053
0.617093
0.617132
0.617132
0.617172
0.617212
0.617251
0.617291
0.617291
0.617331
0.617371
0.617411
0.617451
0.617451
0.617491
0.617531
0.617571
0.617611
0.617611
0.617651
0.617691
0.617731
0.617772
0.617772
0.617812
0.617852
0.617892
0.617933
0.617933
0.617973
0.618014
0.618054
0.618095
0.618095
0.618135
0.618176
0.618216
0.618257
0.618257
0.618297
0.618338
0.618379
0.61842
0.61842
0.61846
0.618501
0.618542
0.618583
0.618583
0.618624
0.618665
0.618706
0.618747
0.618747
0.618788
0.618829
0.61887
0.618911
0.618911
0.618952
0.618994
0.619035
0.619076
0.619076
0.619117
0.619159
0.6192
0.619242
0.619242
0.619283
0.619324
0.619366
0.619408
0.619408
0.619449
0.619491
0.619532
0.619574
0.619574
0.619616
0.619658
0.619699
0.619741
0.619741
0.619783
0.619825
0.619867
0.619909
0.619909
0.619951
0.619993
0.620035
0.620077
0.620077
0.620119
0.620161
0.620203
0.620246
0.620246
0.620288
0.62033
0.620373
0.620415
0.620415
0.620457
0.6205
0.620542
0.620585
0.620585
0.620627
0.62067
0.620712
0.620755
0.620755
0.620798
0.62084
0.620883
0.620926
0.620926
0.620969
0.621012
0.621054
0.621097
0.621097
0.62114
0.621183
0.621226
0.621269
0.621269
0.621312
0.621356
0.621399
0.621442
0.621442
0.621485
0.621528
0.621572
0.621615
0.621615
0.621658
0.621702
0.621745
0.621789
0.621789
0.621832