<?xml version="1.0"?>
<VTKFile type="UnstructuredGrid" version="0.1" byte_order="LittleEndian">
<UnstructuredGrid>
<Piece NumberOfPoints="5000" NumberOfCells="4000">
<PointData Scalars="Reaction 0">
<DataArray type="Float32" Name="Reaction 0" format="ascii">
0.566449
0.566449
0.566449
0.566449
0.566449
0.566449
0.566449
0.566449
0.566449
0.566449
0.566449
0.566449
0.566449
0.566449
0.566449
0.566449
0.566449
0.566449
0.566449
0.566449
0.566449
0.566449
0.566449
0.566449
0.56645
0.56645
0.56645
0.56645
0.56645
0.56645
0.56645
0.56645
0.56645
0.56645
0.56645
0.56645
0.56645
0.56645
0.56645
0.56645
0.56645
0.56645
0.56645
0.56645
0.56645
0.56645
0.56645
0.56645
0.56645
0.56645
0.56645
0.56645
0.56645
0.56645
0.56645
0.56645
0.56645
0.56645
0.56645
0.56645
0.56645
0.56645
0.56645
0.56645
0.56645
0.56645
0.56645
0.56645
0.56645
0.566451
0.566451
0.566451
0.566451
0.566451
0.566451
0.566451
0.566451
0.566451
0.566451
0.566451
0.566451
0.566451
0.566451
0.566451
0.566451
0.566451
0.566451
0.566451
0.566451
0.566451
0.566451
0.566451
0.566451
0.566451
0.566452
0.566452
0.566452
0.566452
0.566452
0.566452
0.566452
0.566452
0.566452
0.566452
0.566452
0.566452
0.566452
0.566452
0.566452
0.566452
0.566452
0.566452
0.566452
0.566452
0.566453
0.566453
0.566453
0.566453
0.566453
0.566453
0.566453
0.566453
0.566453
0.566453
0.566453
0.566453
0.566453
0.566453
0.566453
0.566453
0.566453
0.566453
0.566454
0.566454
0.566454
0.566454
0.566454
0.566454
0.566454
0.566454
0.566454
0.566454
0.566454
0.566454
0.566454
0.566454
0.566454
0.566455
0.566455
0.566455
0.566455
0.566455
0.566455
0.566455
0.566455
0.566455
0.566455
0.566455
0.566455
0.566455
0.566455
0.566456
0.566456
0.566456
0.566456
0.566456
0.566456
0.566456
0.566456
0.566456
0.566456
0.566456
0.566456
0.566457
0.566457
0.566457
0.566457
0.566457
0.566457
0.566457
0.566457
0.566457
0.566457
0.566457
0.566458
0.566458
0.566458
0.566458
0.566458
0.566458
0.566458
0.566458
0.566458
0.566458
0.566458
0.566458
0.566459
0.566459
0.566459
0.566459
0.566459
0.566459
0.566459
0.566459
0.566459
0.566459
0.566459
0.56646
0.56646
0.56646
0.56646
0.56646
0.56646
0.56646
0.56646
0.56646
0.566461
0.566461
0.566461
0.566461
0.566461
0.566461
0.566461
0.566461
0.566461
0.566461
0.566462
0.566462
0.566462
0.566462
0.566462
0.566462
0.566462
0.566462
0.566463
0.566463
0.566463
0.566463
0.566463
0.566463
0.566463
0.566463
0.566463
0.566464
0.566464
0.566464
0.566464
0.566464
0.566464
0.566464
0.566464
0.566464
0.566465
0.566465
0.566465
0.566465
0.566465
0.566465
0.566465
0.566466
0.566466
0.566466
0.566466
0.566466
0.566466
0.566466
0.566466
0.566466
0.566467
0.566467
0.566467
0.566467
0.566467
0.566467
0.566467
0.566467
0.566468
0.566468
0.566468
0.566468
0.566468
0.566468
0.566468
0.566469
0.566469
0.566469
0.566469
0.566469
0.566469
0.566469
0.566469
0.56647
0.56647
0.56647
0.56647
0.56647
0.56647
0.566471
0.566471
0.566471
0.566471
0.566471
0.566471
0.566471
0.566472
0.566472
0.566472
0.566472
0.566472
0.566472
0.566472
0.566473
0.566473
0.566473
0.566473
0.566473
0.566473
0.566473
0.566474
0.566474
0.566474
0.566474
0.566474
0.566474
0.566475
0.566475
0.566475
0.566475
0.566475
0.566475
0.566475
0.566476
0.566476
0.566476
0.566476
0.566476
0.566476
0.566477
0.566477
0.566477
0.566477
0.566477
0.566477
0.566478
0.566478
0.566478
0.566478
0.566478
0.566478
0.566479
0.566479
0.566479
0.566479
0.566479
0.56648
0.56648
0.56648
0.56648
0.56648
0.56648
0.56648
0.566481
0.566481
0.566481
0.566481
0.566481
0.566481
0.566482
0.566482
0.566482
0.566482
0.566482
0.566483
0.566483
0.566483
0.566483
0.566483
0.566483
0.566484
0.566484
0.566484
0.566484
0.566484
0.566485
0.566485
0.566485
0.566485
0.566485
0.566486
0.566486
0.566486
0.566486
0.566486
0.566486
0.566487
0.566487
0.566487
0.566487
0.566487
0.566488
0.566488
0.566488
0.566488
0.566488
0.566489
0.566489
0.566489
0.566489
0.566489
0.56649
0.56649
0.56649
0.56649
0.56649
0.566491
0.566491
0.566491
0.566491
0.566491
0.566492
0.566492
0.566492
0.566492
0.566492
0.566493
0.566493
0.566493
0.566493
0.566493
0.566494
0.566494
0.566494
0.566494
0.566494
0.566495
0.566495
0.566495
0.566495
0.566496
0.566496
0.566496
0.566496
0.566496
0.566497
0.566497
0.566497
0.566497
0.566497
0.566498
0.566498
0.566498
0.566498
0.566499
0.566499
0.566499
0.566499
0.566499
0.5665
0.5665
0.5665
0.5665
0.5665
0.566501
0.566501
0.566501
0.566501
0.566502
0.566502
0.566502
0.566502
0.566502
0.566503
0.566503
0.566503
0.566504
0.566504
0.566504
0.566504
0.566504
0.566505
0.566505
0.566505
0.566505
0.566506
0.566506
0.566506
0.566506
0.566506
0.566507
0.566507
0.566507
0.566507
0.566508
0.566508
0.566508
0.566508
0.566509
0.566509
0.566509
0.566509
0.566509
0.56651
0.56651
0.56651
0.566511
0.566511
0.566511
0.566511
0.566512
0.566512
0.566512
0.566512
0.566513
0.566513
0.566513
0.566513
0.566513
0.566514
0.566514
0.566514
0.566514
0.566515
0.566515
0.566515
0.566516
0.566516
0.566516
0.566516
0.566517
0.566517
0.566517
0.566517
0.566518
0.566518
0.566518
0.566518
0.566519
0.566519
0.566519
0.56652
0.56652
0.56652
0.56652
0.566521
0.566521
0.566521
0.566521
0.566522
0.566522
0.566522
0.566522
0.566523
0.566523
0.566523
0.566524
0.566524
0.566524
0.566524
0.566525
0.566525
0.566525
0.566525
0.566526
0.566526
0.566526
0.566526
0.566527
0.566527
0.566527
0.566528
0.566528
0.566528
0.566528
0.566529
0.566529
0.566529
0.566529
0.56653
0.56653
0.56653
0.56653
0.566531
0.566531
0.566532
0.566532
0.566532
0.566532
0.566533
0.566533
0.566533
0.566533
0.566534
0.566534
0.566534
0.566535
0.566535
0.566535
0.566535
0.566536
0.566536
0.566536
0.566537
0.566537
0.566537
0.566538
0.566538
0.566538
0.566538
0.566539
0.566539
0.566539
0.56654
0.56654
0.56654
0.566541
0.566541
0.566541
0.566541
0.566542
0.566542
0.566542
0.566543
0.566543
0.566543
0.566544
0.566544
0.566544
0.566544
0.566545
0.566545
0.566545
0.566546
0.566546
0.566546
0.566547
0.566547
0.566547
0.566547
0.566548
0.566548
0.566548
0.566549
0.566549
0.566549
0.56655
0.56655
0.56655
0.566551
0.566551
0.566551
0.566551
0.566552
0.566552
0.566553
0.566553
0.566553
0.566553
0.566554
0.566554
0.566555
0.566555
0.566555
0.566555
0.566556
0.566556
0.566556
0.566557
0.566557
0.566558
0.566558
0.566558
0.566558
0.566559
0.566559
0.56656
0.56656
0.56656
0.56656
0.566561
0.566561
0.566561
0.566562
0.566562
0.566563
0.566563
0.566563
0.566563
0.566564
0.566564
0.566565
0.566565
0.566565
0.566565
0.566566
0.566566
0.566566
0.566567
0.566567
0.566568
0.566568
0.566568
0.566568
0.566569
0.566569
0.56657
0.56657
0.56657
0.566571
0.566571
0.566571
0.566571
0.566572
0.566572
0.566573
0.566573
0.566573
0.566574
0.566574
0.566575
0.566575
0.566575
0.566575
0.566576
0.566576
0.566577
0.566577
0.566577
0.566578
0.566578
0.566579
0.566579
0.566579
0.566579
0.56658
0.56658
0.56658
0.566581
0.566581
0.566582
0.566582
0.566582
0.566583
0.566583
0.566584
0.566584
0.566584
0.566585
0.566585
0.566585
0.566586
0.566586
0.566586
0.566587
0.566587
0.566588
0.566588
0.566588
0.566589
0.566589
0.56659
0.56659
0.56659
0.566591
0.566591
0.566592
0.566592
0.566592
0.566592
0.566593
0.566593
0.566593
0.566594
0.566594
0.566595
0.566595
0.566595
0.566596
0.566596
0.566597
0.566597
0.566597
0.566598
0.566598
0.566599
0.566599
0.566599
0.5666
0.5666
0.566601
0.566601
0.566601
0.566602
0.566602
0.566603
0.566603
0.566603
0.566604
0.566604
0.566605
0.566605
0.566605
0.566606
0.566606
0.566607
0.566607
0.566607
0.566608
0.566608
0.566609
0.566609
0.566609
0.56661
0.56661
0.566611
0.566611
0.566611
0.566612
0.566612
0.566613
0.566613
0.566613
0.566614
0.566614
0.566615
0.566615
0.566615
0.566616
0.566616
0.566617
0.566617
0.566617
0.566618
0.566618
0.566619
0.566619
0.566619
0.56662
0.56662
0.566621
0.566621
0.566621
0.566622
0.566623
0.566623
0.566624
0.566624
0.566624
0.566625
0.566625
0.566626
0.566626
0.566626
0.566627
0.566627
0.566628
0.566628
0.566628
0.566629
0.566629
0.56663
0.56663
0.56663
0.566631
0.566632
0.566632
0.566632
0.566633
0.566633
0.566634
0.566634
0.566634
0.566635
0.566635
0.566636
0.566636
0.566636
0.566637
0.566637
0.566638
0.566639
0.566639
0.566639
0.56664
0.56664
0.566641
0.566641
0.566641
0.566642
0.566643
0.566643
0.566643
0.566644
0.566644
0.566645
0.566645
0.566645
0.566646
0.566646
0.566647
0.566648
0.566648
0.566648
0.566649
0.566649
0.56665
0.56665
0.56665
0.566651
0.566652
0.566652
0.566652
0.566653
0.566653
0.566654
0.566654
0.566654
0.566655
0.566656
0.566656
0.566657
0.566657
0.566657
0.566658
0.566658
0.566659
0.566659
0.56666
0.56666
0.566661
0.566661
0.566661
0.566662
0.566663
0.566663
0.566664
0.566664
0.566664
0.566665
0.566665
0.566666
0.566666
0.566667
0.566667
0.566668
0.566668
0.566668
0.566669
0.56667
0.56667
0.566671
0.566671
0.566671
0.566672
0.566673
0.566673
0.566673
0.566674
0.566674
0.566675
0.566676
0.566676
0.566676
0.566677
0.566678
0.566678
0.566678
0.566679
0.566679
0.56668
0.566681
0.566681
0.566681
0.566682
0.566682
0.566683
0.566683
0.566684
0.566684
0.566685
0.566686
0.566686
0.566686
0.566687
0.566687
0.566688
0.566688
0.566689
0.566689
0.56669
0.566691
0.566691
0.566691
0.566692
0.566692
0.566693
0.566693
0.566694
0.566694
0.566695
0.566696
0.566696
0.566696
0.566697
0.566697
0.566698
0.566698
0.566699
0.566699
0.5667
0.566701
0.566701
0.566701
0.566702
0.566703
0.566703
0.566703
0.566704
0.566705
0.566705
0.566706
0.566706
0.566707
0.566707
0.566708
0.566709
0.566709
0.566709
0.56671
0.56671
0.566711
0.566711
0.566712
0.566712
0.566713
0.566714
0.566714
0.566714
0.566715
0.566716
0.566716
0.566716
0.566717
0.566718
0.566718
0.566719
0.566719
0.56672
0.56672
0.566721
0.566722
0.566722
0.566722
0.566723
0.566724
0.566724
0.566724
0.566725
0.566726
0.566726
0.566727
0.566727
0.566728
0.566729
0.566729
0.56673
0.56673
0.566731
0.566731
0.566732
0.566733
0.566733
0.566733
0.566734
0.566735
0.566735
0.566735
0.566736
0.566737
0.566737
0.566738
0.566738
0.566739
0.56674
0.56674
0.566741
0.566741
0.566742
0.566742
0.566743
0.566744
0.566744
0.566744
0.566745
0.566746
0.566747
0.566747
0.566747
0.566748
0.566749
0.566749
0.566749
0.56675
0.566751
0.566752
0.566752
0.566752
0.566753
0.566754
0.566754
0.566755
0.566755
0.566756
0.566757
0.566757
0.566758
0.566758
0.566759
0.566759
0.56676
0.566761
0.566761
0.566762
0.566762
0.566763
0.566764
0.566764
0.566764
0.566765
0.566766
0.566767
0.566767
0.566767
0.566768
0.566769
0.56677
0.56677
0.56677
0.566771
0.566772
0.566773
0.566773
0.566773
0.566774
0.566775
0.566776
0.566776
0.566776
0.566777
0.566778
0.566779
0.566779
0.566779
0.56678
0.566781
0.566782
0.566782
0.566782
0.566783
0.566784
0.566785
0.566785
0.566785
0.566786
0.566787
0.566788
0.566788
0.566788
0.566789
0.56679
0.566791
0.566791
0.566791
0.566792
0.566793
0.566794
0.566794
0.566794
0.566795
0.566796
0.566797
0.566797
0.566797
0.566798
0.566799
0.5668
0.5668
0.566801
0.566801
0.566802
0.566803
0.566803
0.566804
0.566804
0.566805
0.566806
0.566806
0.566807
0.566808
0.566808
0.566809
0.566809
0.56681
0.566811
0.566812
0.566812
0.566812
0.566813
0.566814
0.566815
0.566815
0.566815
0.566816
0.566817
0.566818
0.566819
0.566819
0.566819
0.56682
0.566821
0.566822
0.566822
0.566823
0.566823
0.566824
0.566825
0.566825
0.566826
0.566827
0.566827
0.566828
0.566828
0.566829
0.56683
0.566831
0.566831
0.566831
0.566832
0.566833
0.566834
0.566835
0.566835
0.566836
0.566836
0.566837
0.566838
0.566838
0.566839
0.56684
0.566841
0.566841
0.566841
0.566842
0.566843
0.566844
0.566845
0.566845
0.566846
0.566846
0.566847
0.566848
0.566848
0.566849
0.56685
0.566851
0.566851
0.566851
0.566852
0.566853
0.566854
0.566855
0.566855
0.566856
0.566856
0.566857
0.566858
0.566858
0.566859
0.56686
0.566861
0.566861
0.566861
0.566862
0.566863
0.566864
0.566865
0.566865
0.566866
0.566866
0.566867
0.566868
0.566868
0.566869
0.56687
0.566871
0.566872
0.566872
0.566873
0.566873
0.566874
0.566875
0.566875
0.566876
0.566877
0.566878
0.566879
0.566879
0.566879
0.56688
0.566881
0.566882
0.566882
0.566883
0.566884
0.566885
0.566886
0.566886
0.566886
0.566887
0.566888
0.566889
0.566889
0.56689
0.566891
0.566892
0.566893
0.566893
0.566894
0.566894
0.566895
0.566896
0.566896
0.566897
0.566898
0.566899
0.5669
0.5669
0.566901
0.566902
0.566902
0.566903
0.566903
0.566904
0.566905
0.566906
0.566907
0.566907
0.566908
0.566909
0.56691
0.566911
0.566911
0.566911
0.566912
0.566913
0.566914
0.566914
0.566915
0.566916
0.566917
0.566918
0.566918
0.566919
0.56692
0.566921
0.566922
0.566922
0.566922
0.566923
0.566924
0.566925
0.566925
0.566926
0.566927
0.566928
0.566929
0.566929
0.56693
0.566931
0.566932
0.566933
0.566933
0.566933
0.566934
0.566935
0.566936
0.566936
0.566937
0.566938
0.566939
0.56694
0.56694
0.566941
0.566942
0.566943
0.566944
0.566944
0.566945
0.566946
0.566947
0.566948
0.566948
0.566949
0.56695
0.566951
0.566951
0.566951
0.566952
0.566953
0.566954
0.566955
0.566955
0.566956
0.566957
0.566958
0.566959
0.566959
0.56696
0.566961
0.566962
0.566963
0.566963
0.566964
0.566965
0.566966
0.566967
0.566967
0.566968
0.566969
0.56697
0.566971
0.566971
0.566972
0.566973
0.566974
0.566975
0.566975
0.566976
0.566977
0.566978
0.566979
0.566979
0.56698
0.566981
0.566982
0.566983
0.566983
0.566984
0.566984
0.566985
0.566986
0.566986
0.566987
0.566988
0.566989
0.56699
0.56699
0.566991
0.566992
0.566993
0.566994
0.566994
0.566995
0.566996
0.566997
0.566998
0.566998
0.566999
0.567
0.567001
0.567002
0.567002
0.567003
0.567004
0.567005
0.567006
0.567006
0.567007
0.567009
0.56701
0.567011
0.567011
0.567012
0.567013
0.567014
0.567015
0.567015
0.567016
0.567017
0.567018
0.567019
0.567019
0.56702
0.567021
0.567022
0.567023
0.567023
0.567024
0.567025
0.567026
0.567027
0.567027
0.567028
0.567029
0.56703
0.567031
0.567031
0.567032
0.567033
0.567034
0.567035
0.567035
0.567036
0.567037
0.567038
0.567039
0.567039
0.567041
0.567042
0.567043
0.567044
0.567044
0.567045
0.567046
0.567047
0.567048
0.567048
0.567049
0.56705
0.567051
0.567052
0.567052
0.567053
0.567054
0.567055
0.567056
0.567056
0.567058
0.567059
0.56706
0.567061
0.567061
0.567062
0.567063
0.567064
0.567065
0.567065
0.567066
0.567067
0.567068
0.567069
0.567069
0.56707
0.567071
0.567073
0.567074
0.567074
0.567075
0.567076
0.567077
0.567078
0.567078
0.567079
0.56708
0.567081
0.567082
0.567082
0.567084
0.567085
0.567086
0.567087
0.567087
0.567088
0.567089
0.56709
0.567091
0.567091
0.567092
0.567093
0.567095
0.567096
0.567096
0.567097
0.567098
0.567099
0.5671
0.5671
0.567101
0.567102
0.567103
0.567105
0.567105
0.567106
0.567107
0.567108
0.567109
0.567109
0.56711
0.567111
0.567112
0.567114
0.567114
0.567115
0.567116
0.567117
0.567118
0.567118
0.567119
0.56712
0.567121
0.567123
0.567123
0.567124
0.567125
0.567126
0.567127
0.567127
0.567128
0.567129
0.567131
0.567132
0.567132
0.567133
0.567134
0.567135
0.567136
0.567136
0.567138
0.567139
0.56714
0.567141
0.567141
0.567142
0.567143
0.567144
0.567146
0.567146
0.567147
0.567148
0.567149
0.56715
0.56715
0.567151
0.567153
0.567154
0.567155
0.567155
0.567156
0.567157
0.567158
0.56716
0.56716
0.567161
0.567162
0.567163
0.567164
0.567164
0.567166
0.567167
0.567168
0.567169
0.567169
0.56717
0.567171
0.567173
0.567174
0.567174
0.567175
0.567176
0.567177
0.567179
0.567179
0.56718
0.567181
0.567182
0.567183
0.567183
0.567185
0.567186
0.567187
0.567188
0.567188
0.567189
0.567191
0.567192
0.567193
0.567193
0.567194
0.567196
0.567197
0.567198
0.567198
0.567199
0.5672
0.567202
0.567203
0.567203
0.567204
0.567205
0.567207
0.567208
0.567208
0.567209
0.56721
0.567211
0.567213
0.567213
0.567214
0.567215
0.567216
0.567218
0.567218
0.567219
0.56722
0.567221
0.567222
0.567222
0.567224
0.567225
0.567226
0.567227
0.567227
0.567229
0.56723
0.567231
0.567232
0.567232
0.567234
0.567235
0.567236
0.567238
0.567238
0.567239
0.56724
0.567241
0.567243
0.567243
0.567244
0.567245
0.567246
0.567248
0.567248
0.567249
0.56725
0.567251
0.567253
0.567253
0.567254
0.567255
0.567256
0.567258
0.567258
0.567259
0.56726
0.567262
0.567263
0.567263
0.567264
0.567265
0.567267
0.567268
0.567268
0.567269
0.567271
0.567272
0.567273
0.567273
0.567275
0.567276
0.567277
0.567278
0.567278
0.56728
0.567281
0.567282
0.567284
0.567284
0.567285
0.567286
0.567287
0.567289
0.567289
0.56729
0.567291
0.567293
0.567294
0.567294
0.567295
0.567297
0.567298
0.567299
0.567299
0.567301
0.567302
0.567303
0.567305
0.567305
0.567306
0.567307
0.567309
0.56731
0.56731
0.567311
0.567313
0.567314
0.567315
0.567315
0.567317
0.567318
0.567319
0.567321
0.567321
0.567322
0.567323
0.567325
0.567326
0.567326
0.567327
0.567329
0.56733
0.567331
0.567331
0.567333
0.567334
0.567335
0.567337
0.567337
0.567338
0.567339
0.567341
0.567342
0.567342
0.567344
0.567345
0.567346
0.567348
0.567348
0.567349
0.56735
0.567352
0.567353
0.567353
0.567355
0.567356
0.567357
0.567359
0.567359
0.56736
0.567361
0.567363
0.567364
0.567364
0.567366
0.567367
0.567368
0.56737
0.56737
0.567371
0.567372
0.567374
0.567375
0.567375
0.567377
0.567378
0.567379
0.567381
0.567381
0.567382
0.567384
0.567385
0.567387
0.567387
0.567388
0.567389
0.567391
0.567392
0.567392
0.567394
0.567395
0.567396
0.567398
0.567398
0.567399
0.567401
0.567402
0.567403
0.567403
0.567405
0.567406
0.567408
0.567409
0.567409
0.567411
0.567412
0.567413
0.567415
0.567415
0.567416
0.567418
0.567419
0.567421
0.567421
0.567422
0.567424
0.567425
0.567426
0.567426
0.567428
0.567429
0.567431
0.567432
0.567432
0.567434
0.567435
0.567437
0.567438
0.567438
0.56744
0.567441
0.567442
0.567444
0.567444
0.567445
0.567447
0.567448
0.56745
0.56745
0.567451
0.567453
0.567454
0.567456
0.567456
0.567457
0.567459
0.56746
0.567462
0.567462
0.567463
0.567465
0.567466
0.567467
0.567467
0.567469
0.56747
0.567472
0.567473
0.567473
0.567475
0.567476
0.567478
0.567479
0.567479
0.567481
0.567482
0.567484
0.567485
0.567485
0.567487
0.567488
0.56749
0.567491
0.567491
0.567493
0.567494
0.567496
0.567497
0.567497
0.567499
0.5675
0.567502
0.567504
0.567504
0.567505
0.567507
0.567508
0.56751
0.56751
0.567511
0.567513
0.567514
0.567516
0.567516
0.567517
0.567519
0.56752
0.567522
0.567522
0.567523
0.567525
0.567527
0.567528
0.567528
0.56753
0.567531
0.567533
0.567534
0.567534
0.567536
0.567537
0.567539
0.56754
0.56754
0.567542
0.567544
0.567545
0.567547
0.567547
0.567548
0.56755
0.567551
0.567553
0.567553
0.567555
0.567556
0.567558
0.567559
0.567559
0.567561
0.567562
0.567564
0.567566
0.567566
0.567567
0.567569
0.56757
0.567572
0.567572
0.567573
0.567575
0.567577
0.567578
0.567578
0.56758
0.567581
0.567583
0.567585
0.567585
0.567586
0.567588
0.56759
0.567591
0.567591
0.567593
0.567594
0.567596
0.567598
0.567598
0.567599
0.567601
0.567602
0.567604
0.567604
0.567606
0.567607
0.567609
0.56761
0.56761
0.567612
0.567614
0.567615
0.567617
0.567617
0.567619
0.56762
0.567622
0.567624
0.567624
0.567625
0.567627
0.567628
0.56763
0.56763
0.567632
0.567633
0.567635
0.567637
0.567637
0.567638
0.56764
0.567642
0.567643
0.567643
0.567645
0.567647
0.567648
0.56765
0.56765
0.567652
0.567653
0.567655
0.567657
0.567657
0.567658
0.56766
0.567662
0.567663
0.567663
0.567665
0.567667
0.567668
0.56767
0.56767
0.567672
0.567673
0.567675
0.567677
0.567677
0.567679
0.56768
0.567682
0.567684
0.567684
0.567685
0.567687
0.567689
0.56769
0.56769
0.567692
0.567694
0.567695
0.567697
0.567697
0.567699
0.567701
0.567702
0.567704
0.567704
0.567706
0.567707
0.567709
0.567711
0.567711
0.567713
0.567714
0.567716
0.567718
0.567718
0.56772
0.567721
0.567723
0.567725
0.567725
0.567726
0.567728
0.56773
0.567732
0.567732
0.567733
0.567735
0.567737
0.567739
0.567739
0.56774
0.567742
0.567744
0.567746
0.567746
0.567747
0.567749
0.567751
0.567753
0.567753
0.567754
0.567756
0.567758
0.56776
0.56776
0.567762
0.567763
0.567765
0.567767
0.567767
0.567769
0.56777
0.567772
0.567774
0.567774
0.567776
0.567778
0.567779
0.567781
0.567781
0.567783
0.567785
0.567786
0.567788
0.567788
0.56779
0.567792
0.567794
0.567796
0.567796
0.567797
0.567799
0.567801
0.567803
0.567803
0.567805
0.567806
0.567808
0.56781
0.56781
0.567812
0.567814
0.567815
0.567817
0.567817
0.567819
0.567821
0.567823
0.567825
0.567825
0.567826
0.567828
0.56783
0.567832
0.567832
0.567834
0.567836
0.567837
0.567839
0.567839
0.567841
0.567843
0.567845
0.567847
0.567847
0.567849
0.56785
0.567852
0.567854
0.567854
0.567856
0.567858
0.56786
0.567862
0.567862
0.567863
0.567865
0.567867
0.567869
0.567869
0.567871
0.567873
0.567875
0.567877
0.567877
0.567878
0.56788
0.567882
0.567884
0.567884
0.567886
0.567888
0.56789
0.567892
0.567892
0.567894
0.567896
0.567897
0.567899
0.567899
0.567901
0.567903
0.567905
0.567907
0.567907
0.567909
0.567911
0.567913
0.567915
0.567915
0.567916
0.567918
0.56792
0.567922
0.567922
0.567924
0.567926
0.567928
0.56793
0.56793
0.567932
0.567934
0.567936
0.567938
0.567938
0.56794
0.567942
0.567944
0.567946
0.567946
0.567947
0.567949
0.567951
0.567953
0.567953
0.567955
0.567957
0.567959
0.567961
0.567961
0.567963
0.567965
0.567967
0.567969
0.567969
0.567971
0.567973
0.567975
0.567977
0.567977
0.567979
0.567981
0.567983
0.567985
0.567985
0.567987
0.567989
0.567991
0.567993
0.567993
0.567995
0.567997
0.567999
0.568001
0.568001
0.568003
0.568005
0.568007
0.568009
0.568009
0.568011
0.568013
0.568015
0.568017
0.568017
0.568019
0.568021
0.568023
0.568025
0.568025
0.568027
0.568029
0.568031
0.568033
0.568033
0.568035
0.568037
0.568039
0.568041
0.568041
0.568043
0.568045
0.568047
0.568049
0.568049
0.568051
0.568053
0.568055
0.568057
0.568057
0.56806
0.568062
0.568064
0.568066
0.568066
0.568068
0.56807
0.568072
0.568074
0.568074
0.568076
0.568078
0.56808
0.568082
0.568082
0.568084
0.568086
0.568089
0.568091
0.568091
0.568093
0.568095
0.568097
0.568099
0.568099
0.568101
0.568103
0.568105
0.568107
0.568107
0.568109
0.568112
0.568114
0.568116
0.568116
0.568118
0.56812
0.568122
0.568124
0.568124
0.568126
0.568129
0.568131
0.568133
0.568133
0.568135
0.568137
0.568139
0.568141
0.568141
0.568143
0.568146
0.568148
0.56815
0.56815
0.568152
0.568154
0.568156
0.568158
0.568158
0.568161
0.568163
0.568165
0.568167
0.568167
0.568169
0.568171
0.568174
0.568176
0.568176
0.568178
0.56818
0.568182
0.568184
0.568184
0.568187
0.568189
0.568191
0.568193
0.568193
0.568195
0.568197
0.5682
0.568202
0.568202
0.568204
0.568206
0.568208
0.568211
0.568211
0.568213
0.568215
0.568217
0.568219
0.568219
0.568222
0.568224
0.568226
0.568228
0.568228
0.568231
0.568233
0.568235
0.568237
0.568237
0.568239
0.568242
0.568244
0.568246
0.568246
0.568248
0.568251
0.568253
0.568255
0.568255
0.568257
0.56826
0.568262
0.568264
0.568264
0.568266
0.568269
0.568271
0.568273
0.568273
0.568275
0.568278
0.56828
0.568282
0.568282
0.568284
0.568287
0.568289
0.568291
0.568291
0.568294
0.568296
0.568298
0.5683
0.5683
0.568303
0.568305
0.568307
0.56831
0.56831
0.568312
0.568314
0.568316
0.568319
0.568319
0.568321
0.568323
0.568326
0.568328
0.568328
0.56833
0.568333
0.568335
0.568337
0.568337
0.56834
0.568342
0.568344
0.568347
0.568347
0.568349
0.568351
0.568354
0.568356
0.568356
0.568358
0.568361
0.568363
0.568365
0.568365
0.568368
0.56837
0.568372
0.568375
0.568375
0.568377
0.568379
0.568382
0.568384
0.568384
0.568386
0.568389
0.568391
0.568394
0.568394
0.568396
0.568398
0.568401
0.568403
0.568403
0.568406
0.568408
0.56841
0.568413
0.568413
0.568415
0.568418
0.56842
0.568422
0.568422
0.568425
0.568427
0.568429
0.568432
0.568432
0.568434
0.568437
0.568439
0.568442
0.568442
0.568444
0.568446
0.568449
0.568451
0.568451
0.568454
0.568456
0.568459
0.568461
0.568461
0.568464
0.568466
0.568468
0.568471
0.568471
0.568473
0.568476
0.568478
0.568481
0.568481
0.568483
0.568486
0.568488
0.568491
0.568491
0.568493
0.568495
0.568498
0.5685
0.5685
0.568503
0.568505
0.568508
0.56851
0.56851
0.568513
0.568515
0.568518
0.56852
0.56852
0.568523
0.568525
0.568528
0.56853
0.56853
0.568533
0.568535
0.568538
0.56854
0.56854
0.568543
0.568545
0.568548
0.56855
0.56855
0.568553
0.568556
0.568558
0.568561
0.568561
0.568563
0.568566
0.568568
0.568571
0.568571
0.568573
0.568576
0.568578
0.568581
0.568581
0.568584
0.568586
0.568589
0.568591
0.568591
0.568594
0.568596
0.568599
0.568602
0.568602
0.568604
0.568607
0.568609
0.568612
0.568612
0.568614
0.568617
0.56862
0.568622
0.568622
0.568625
0.568627
0.56863
0.568633
0.568633
0.568635
0.568638
0.56864
0.568643
0.568643
0.568646
0.568648
0.568651
0.568654
0.568654
0.568656
0.568659
0.568661
0.568664
0.568664
0.568667
0.568669
0.568672
0.568675
0.568675
0.568677
0.56868
0.568683
0.568685
0.568685
0.568688
0.568691
0.568693
0.568696
0.568696
0.568699
0.568701
0.568704
0.568707
0.568707
0.568709
0.568712
0.568715
0.568717
0.568717
0.56872
0.568723
0.568725
0.568728
0.568728
0.568731
0.568733
0.568736
0.568739
0.568739
0.568742
0.568744
0.568747
0.56875
0.56875
0.568753
0.568755
0.568758
0.568761
0.568761
0.568763
0.568766
0.568769
0.568772
0.568772
0.568774
0.568777
0.56878
0.568783
0.568783
0.568785
0.568788
0.568791
0.568794
0.568794
0.568796
0.568799
0.568802
0.568805
0.568805
0.568807
0.56881
0.568813
0.568816
0.568816
0.568819
0.568821
0.568824
0.568827
0.568827
0.56883
0.568833
0.568835
0.568838
0.568838
0.568841
0.568844
0.568847
0.568849
0.568849
0.568852
0.568855
0.568858
0.568861
0.568861
0.568864
0.568866
0.568869
0.568872
0.568872
0.568875
0.568878
0.568881
0.568883
0.568883
0.568886
0.568889
0.568892
0.568895
0.568895
0.568898
0.568901
0.568903
0.568906
0.568906
0.568909
0.568912
0.568915
0.568918
0.568918
0.568921
0.568924
0.568927
0.568929
0.568929
0.568932
0.568935
0.568938
0.568941
0.568941
0.568944
0.568947
0.56895
0.568953
0.568953
0.568956
0.568958
0.568961
0.568964
0.568964
0.568967
0.56897
0.568973
0.568976
0.568976
0.568979
0.568982
0.568985
0.568988
0.568988
0.568991
0.568994
0.568997
0.569
0.569
0.569003
0.569006
0.569009
0.569012
0.569012
0.569015
0.569018
0.569021
0.569024
0.569024
0.569027
0.56903
0.569033
0.569036
0.569036
0.569039
0.569042
0.569045
0.569048
0.569048
0.569051
0.569054
0.569057
0.56906
0.56906
0.569063
0.569066
0.569069
0.569072
0.569072
0.569075
0.569078
0.569081
0.569084
0.569084
0.569087
0.56909
0.569093
0.569096
0.569096
0.569099
0.569102
0.569105
0.569108
0.569108
0.569111
0.569114
0.569118
0.569121
0.569121
0.569124
0.569127
0.56913
0.569133
0.569133
0.569136
0.569139
0.569142
0.569145
0.569145
0.569149
0.569152
0.569155
0.569158
0.569158
0.569161
0.569164
0.569167
0.56917
0.56917
0.569173
0.569177
0.56918
0.569183
0.569183
0.569186
0.569189
0.569192
0.569196
0.569196
0.569199
0.569202
0.569205
0.569208
0.569208
0.569211
0.569215
0.569218
0.569221
0.569221
0.569224
0.569227
0.56923
0.569234
0.569234
0.569237
0.56924
0.569243
0.569246
0.569246
0.56925
0.569253
0.569256
0.569259
0.569259
0.569263
0.569266
0.569269
0.569272
0.569272
0.569275
0.569279
0.569282
0.569285
0.569285
0.569288
0.569292
0.569295
0.569298
0.569298
0.569301
0.569305
0.569308
0.569311
0.569311
0.569315
0.569318
0.569321
0.569324
0.569324
0.569328
0.569331
0.569334
0.569338
0.569338
0.569341
0.569344
0.569347
0.569351
0.569351
0.569354
0.569357
0.569361
0.569364
0.569364
0.569367
0.569371
0.569374
0.569377
0.569377
0.569381
0.569384
0.569387
0.569391
0.569391
0.569394
0.569397
0.569401
0.569404
0.569404
0.569408
0.569411
0.569414
0.569418
0.569418
0.569421
0.569424
0.569428
0.569431
0.569431
0.569435
0.569438
0.569441
0.569445
0.569445
0.569448
0.569452
0.569455
0.569458
0.569458
0.569462
0.569465
0.569469
0.569472
0.569472
0.569476
0.569479
0.569482
0.569486
0.569486
0.569489
0.569493
0.569496
0.5695
0.5695
0.569503
0.569507
0.56951
0.569514
0.569514
0.569517
0.569521
0.569524
0.569527
0.569527
0.569531
0.569534
0.569538
0.569541
0.569541
0.569545
0.569548
0.569552
0.569556
0.569556
0.569559
0.569563
0.569566
0.56957
0.56957
0.569573
0.569577
0.56958
0.569584
0.569584
0.569587
0.569591
0.569594
0.569598
0.569598
0.569602
0.569605
0.569609
0.569612
0.569612
0.569616
0.569619
0.569623
0.569627
0.569627
0.56963
0.569634
0.569637
0.569641
0.569641
0.569645
0.569648
0.569652
0.569655
0.569655
0.569659
0.569663
0.569666
0.56967
0.56967
0.569674
0.569677
0.569681
0.569684
0.569684
0.569688
0.569692
0.569695
0.569699
0.569699
0.569703
0.569706
0.56971
0.569714
0.569714
0.569717
0.569721
0.569725
0.569728
0.569728
0.569732
0.569736
0.56974
0.569743
0.569743
0.569747
0.569751
0.569754
0.569758
0.569758
0.569762
0.569766
0.569769
0.569773
0.569773
0.569777
0.569781
0.569784
0.569788
0.569788
0.569792
0.569796
0.569799
0.569803
0.569803
0.569807
0.569811
0.569814
0.569818
0.569818
0.569822
0.569826
0.56983
0.569833
0.569833
0.569837
0.569841
0.569845
0.569849
0.569849
0.569852
0.569856
0.56986
0.569864
0.569864
0.569868
0.569872
0.569875
0.569879
0.569879
0.569883
0.569887
0.569891
0.569895
0.569895
0.569899
0.569902
0.569906
0.56991
0.56991
0.569914
0.569918
0.569922
0.569926
0.569926
0.56993
0.569933
0.569937
0.569941
0.569941
0.569945
0.569949
0.569953
0.569957
0.569957
0.569961
0.569965
0.569969
0.569973
0.569973
0.569977
0.569981
0.569985
0.569988
0.569988
0.569992
0.569996
0.57
0.570004
0.570004
0.570008
0.570012
0.570016
0.57002
0.57002
0.570024
0.570028
0.570032
0.570036
0.570036
0.57004
0.570044
0.570048
0.570052
0.570052
0.570056
0.57006
0.570064
0.570068
0.570068
0.570073
0.570077
0.570081
0.570085
0.570085
0.570089
0.570093
0.570097
0.570101
0.570101
0.570105
0.570109
0.570113
0.570117
0.570117
0.570121
0.570125
0.57013
0.570134
0.570134
0.570138
0.570142
0.570146
0.57015
0.57015
0.570154
0.570158
0.570163
0.570167
0.570167
0.570171
0.570175
0.570179
0.570183
0.570183
0.570187
0.570192
0.570196
0.5702
0.5702
0.570204
0.570208
0.570213
0.570217
0.570217
0.570221
0.570225
0.570229
0.570233
0.570233
0.570238
0.570242
0.570246
0.57025
0.57025
0.570255
0.570259
0.570263
0.570267
0.570267
0.570272
0.570276
0.57028
0.570284
0.570284
0.570289
0.570293
0.570297
0.570301
0.570301
0.570306
0.57031
0.570314
0.570319
0.570319
0.570323
0.570327
0.570332
0.570336
0.570336
0.57034
0.570345
0.570349
0.570353
0.570353
0.570358
0.570362
0.570366
0.570371
0.570371
0.570375
0.570379
0.570384
0.570388
0.570388
0.570392
0.570397
0.570401
0.570406
0.570406
0.57041
0.570414
0.570419
0.570423
0.570423
0.570428
0.570432
0.570436
0.570441
0.570441
0.570445
0.57045
0.570454
0.570459
0.570459
0.570463
0.570468
0.570472
0.570476
0.570476
0.570481
0.570485
0.57049
0.570494
0.570494