<?xml version="1.0"?>
<VTKFile type="UnstructuredGrid" version="0.1" byte_order="LittleEndian">
<UnstructuredGrid>
<Piece NumberOfPoints="5000" NumberOfCells="4000">
<PointData Scalars="Reaction 0">
<DataArray type="Float32" Name="Reaction 0" format="ascii">
0.578599
0.578599
0.578599
0.578599
0.578599
0.578599
0.578599
0.578599
0.578599
0.578599
0.578599
0.5786
0.5786
0.5786
0.5786
0.5786
0.5786
0.5786
0.5786
0.5786
0.5786
0.5786
0.5786
0.5786
0.5786
0.5786
0.578601
0.578601
0.578601
0.578601
0.578601
0.578601
0.578601
0.578601
0.578602
0.578602
0.578602
0.578602
0.578602
0.578602
0.578602
0.578602
0.578603
0.578603
0.578603
0.578603
0.578603
0.578603
0.578604
0.578604
0.578604
0.578604
0.578604
0.578605
0.578605
0.578605
0.578605
0.578605
0.578606
0.578606
0.578606
0.578606
0.578606
0.578607
0.578607
0.578607
0.578607
0.578608
0.578608
0.578608
0.578608
0.578608
0.578609
0.578609
0.578609
0.578609
0.57861
0.57861
0.578611
0.578611
0.578611
0.578611
0.578612
0.578612
0.578612
0.578612
0.578613
0.578613
0.578614
0.578614
0.578614
0.578614
0.578615
0.578615
0.578616
0.578616
0.578616
0.578616
0.578617
0.578617
0.578617
0.578618
0.578618
0.578619
0.578619
0.578619
0.57862
0.57862
0.578621
0.578621
0.578621
0.578622
0.578622
0.578623
0.578623
0.578623
0.578624
0.578624
0.578625
0.578625
0.578625
0.578626
0.578626
0.578627
0.578628
0.578628
0.578628
0.578629
0.578629
0.57863
0.57863
0.57863
0.578631
0.578632
0.578632
0.578632
0.578633
0.578634
0.578634
0.578635
0.578635
0.578635
0.578636
0.578637
0.578637
0.578637
0.578638
0.578639
0.578639
0.57864
0.57864
0.578641
0.578641
0.578642
0.578643
0.578643
0.578643
0.578644
0.578645
0.578646
0.578646
0.578646
0.578647
0.578648
0.578649
0.578649
0.578649
0.57865
0.578651
0.578652
0.578652
0.578652
0.578653
0.578654
0.578655
0.578655
0.578656
0.578656
0.578657
0.578658
0.578658
0.578659
0.57866
0.57866
0.578661
0.578661
0.578662
0.578663
0.578664
0.578665
0.578665
0.578665
0.578666
0.578667
0.578668
0.578668
0.578669
0.57867
0.578671
0.578672
0.578672
0.578673
0.578674
0.578674
0.578675
0.578675
0.578676
0.578677
0.578678
0.578679
0.578679
0.57868
0.578681
0.578682
0.578683
0.578683
0.578684
0.578685
0.578686
0.578687
0.578687
0.578688
0.578689
0.57869
0.578691
0.578691
0.578692
0.578693
0.578694
0.578695
0.578695
0.578696
0.578697
0.578698
0.578699
0.578699
0.5787
0.578701
0.578703
0.578704
0.578704
0.578705
0.578706
0.578707
0.578708
0.578708
0.578709
0.57871
0.578711
0.578713
0.578713
0.578714
0.578715
0.578716
0.578717
0.578717
0.578718
0.57872
0.578721
0.578722
0.578722
0.578723
0.578724
0.578725
0.578727
0.578727
0.578728
0.578729
0.57873
0.578732
0.578732
0.578733
0.578734
0.578735
0.578736
0.578736
0.578738
0.578739
0.57874
0.578742
0.578742
0.578743
0.578744
0.578745
0.578747
0.578747
0.578748
0.578749
0.578751
0.578752
0.578752
0.578753
0.578755
0.578756
0.578757
0.578757
0.578759
0.57876
0.578761
0.578763
0.578763
0.578764
0.578765
0.578767
0.578768
0.578768
0.57877
0.578771
0.578772
0.578774
0.578774
0.578775
0.578777
0.578778
0.578779
0.578779
0.578781
0.578782
0.578784
0.578785
0.578785
0.578787
0.578788
0.57879
0.578791
0.578791
0.578793
0.578794
0.578796
0.578797
0.578797
0.578799
0.5788
0.578802
0.578803
0.578803
0.578805
0.578806
0.578808
0.578809
0.578809
0.578811
0.578813
0.578814
0.578816
0.578816
0.578817
0.578819
0.57882
0.578822
0.578822
0.578824
0.578825
0.578827
0.578828
0.578828
0.57883
0.578832
0.578833
0.578835
0.578835
0.578837
0.578838
0.57884
0.578842
0.578842
0.578843
0.578845
0.578847
0.578848
0.578848
0.57885
0.578852
0.578853
0.578855
0.578855
0.578857
0.578859
0.57886
0.578862
0.578862
0.578864
0.578866
0.578867
0.578869
0.578869
0.578871
0.578873
0.578874
0.578876
0.578876
0.578878
0.57888
0.578882
0.578883
0.578883
0.578885
0.578887
0.578889
0.578891
0.578891
0.578892
0.578894
0.578896
0.578898
0.578898
0.5789
0.578902
0.578904
0.578906
0.578906
0.578907
0.578909
0.578911
0.578913
0.578913
0.578915
0.578917
0.578919
0.578921
0.578921
0.578923
0.578925
0.578927
0.578929
0.578929
0.578931
0.578933
0.578935
0.578937
0.578937
0.578939
0.57894
0.578942
0.578944
0.578944
0.578947
0.578949
0.578951
0.578953
0.578953
0.578955
0.578957
0.578959
0.578961
0.578961
0.578963
0.578965
0.578967
0.578969
0.578969
0.578971
0.578973
0.578975
0.578977
0.578977
0.578979
0.578982
0.578984
0.578986
0.578986
0.578988
0.57899
0.578992
0.578994
0.578994
0.578996
0.578999
0.579001
0.579003
0.579003
0.579005
0.579007
0.579009
0.579012
0.579012
0.579014
0.579016
0.579018
0.579021
0.579021
0.579023
0.579025
0.579027
0.579029
0.579029
0.579032
0.579034
0.579036
0.579038
0.579038
0.579041
0.579043
0.579045
0.579048
0.579048
0.57905
0.579052
0.579054
0.579057
0.579057
0.579059
0.579061
0.579064
0.579066
0.579066
0.579068
0.579071
0.579073
0.579075
0.579075
0.579078
0.57908
0.579083
0.579085
0.579085
0.579087
0.57909
0.579092
0.579095
0.579095
0.579097
0.579099
0.579102
0.579104
0.579104
0.579107
0.579109
0.579112
0.579114
0.579114
0.579116
0.579119
0.579121
0.579124
0.579124
0.579126
0.579129
0.579131
0.579134
0.579134
0.579136
0.579139
0.579142
0.579144
0.579144
0.579147
0.579149
0.579152
0.579154
0.579154
0.579157
0.579159
0.579162
0.579165
0.579165
0.579167
0.57917
0.579172
0.579175
0.579175
0.579178
0.57918
0.579183
0.579186
0.579186
0.579188
0.579191
0.579193
0.579196
0.579196
0.579199
0.579201
0.579204
0.579207
0.579207
0.57921
0.579212
0.579215
0.579218
0.579218
0.57922
0.579223
0.579226
0.579229
0.579229
0.579231
0.579234
0.579237
0.579239
0.579239
0.579242
0.579245
0.579248
0.579251
0.579251
0.579253
0.579256
0.579259
0.579262
0.579262
0.579265
0.579267
0.57927
0.579273
0.579273
0.579276
0.579279
0.579282
0.579284
0.579284
0.579287
0.57929
0.579293
0.579296
0.579296
0.579299
0.579302
0.579305
0.579307
0.579307
0.57931
0.579313
0.579316
0.579319
0.579319
0.579322
0.579325
0.579328
0.579331
0.579331
0.579334
0.579337
0.57934
0.579343
0.579343
0.579346
0.579349
0.579352
0.579355
0.579355
0.579358
0.579361
0.579364
0.579367
0.579367
0.57937
0.579373
0.579376
0.579379
0.579379
0.579382
0.579385
0.579388
0.579392
0.579392
0.579395
0.579398
0.579401
0.579404
0.579404
0.579407
0.57941
0.579413
0.579416
0.579416
0.57942
0.579423
0.579426
0.579429
0.579429
0.579432
0.579435
0.579439
0.579442
0.579442
0.579445
0.579448
0.579451
0.579455
0.579455
0.579458
0.579461
0.579464
0.579468
0.579468
0.579471
0.579474
0.579477
0.579481
0.579481
0.579484
0.579487
0.57949
0.579494
0.579494
0.579497
0.5795
0.579504
0.579507
0.579507
0.57951
0.579514
0.579517
0.57952
0.57952
0.579524
0.579527
0.57953
0.579534
0.579534
0.579537
0.57954
0.579544
0.579547
0.579547
0.579551
0.579554
0.579557
0.579561
0.579561
0.579564
0.579568
0.579571
0.579575
0.579575
0.579578
0.579582
0.579585
0.579589
0.579589
0.579592
0.579596
0.579599
0.579603
0.579603
0.579606
0.57961
0.579613
0.579617
0.579617
0.57962
0.579624
0.579627
0.579631
0.579631
0.579634
0.579638
0.579642
0.579645
0.579645
0.579649
0.579652
0.579656
0.57966
0.57966
0.579663
0.579667
0.57967
0.579674
0.579674
0.579678
0.579681
0.579685
0.579689
0.579689
0.579692
0.579696
0.5797
0.579703
0.579703
0.579707
0.579711
0.579714
0.579718
0.579718
0.579722
0.579726
0.579729
0.579733
0.579733
0.579737
0.579741
0.579744
0.579748
0.579748
0.579752
0.579756
0.579759
0.579763
0.579763
0.579767
0.579771
0.579775
0.579778
0.579778
0.579782
0.579786
0.57979
0.579794
0.579794
0.579798
0.579802
0.579805
0.579809
0.579809
0.579813
0.579817
0.579821
0.579825
0.579825
0.579829
0.579833
0.579837
0.579841
0.579841
0.579845
0.579849
0.579852
0.579856
0.579856
0.57986
0.579864
0.579868
0.579872
0.579872
0.579876
0.57988
0.579884
0.579888
0.579888
0.579892
0.579896
0.579901
0.579905
0.579905
0.579909
0.579913
0.579917
0.579921
0.579921
0.579925
0.579929
0.579933
0.579937
0.579937
0.579941
0.579945
0.57995
0.579954
0.579954
0.579958
0.579962
0.579966
0.57997
0.57997
0.579974
0.579979
0.579983
0.579987
0.579987
0.579991
0.579995
0.579999
0.580004
0.580004
0.580008
0.580012
0.580016
0.580021
0.580021
0.580025
0.580029
0.580033
0.580038
0.580038
0.580042
0.580046
0.58005
0.580055
0.580055
0.580059
0.580063
0.580068
0.580072
0.580072
0.580076
0.580081
0.580085
0.580089
0.580089
0.580094
0.580098
0.580102
0.580107
0.580107
0.580111
0.580116
0.58012
0.580124
0.580124
0.580129
0.580133
0.580138
0.580142
0.580142
0.580147
0.580151
0.580156
0.58016
0.58016
0.580164
0.580169
0.580173
0.580178
0.580178
0.580182
0.580187
0.580191
0.580196
0.580196
0.5802
0.580205
0.58021
0.580214
0.580214
0.580219
0.580223
0.580228
0.580232
0.580232
0.580237
0.580242
0.580246
0.580251
0.580251
0.580255
0.58026
0.580265
0.580269
0.580269
0.580274
0.580278
0.580283
0.580288
0.580288
0.580292
0.580297
0.580302
0.580307
0.580307
0.580311
0.580316
0.580321
0.580325
0.580325
0.58033
0.580335
0.58034
0.580344
0.580344
0.580349
0.580354
0.580359
0.580364
0.580364
0.580368
0.580373
0.580378
0.580383
0.580383
0.580388
0.580392
0.580397
0.580402
0.580402
0.580407
0.580412
0.580417
0.580422
0.580422
0.580426
0.580431
0.580436
0.580441
0.580441
0.580446
0.580451
0.580456
0.580461
0.580461
0.580466
0.580471
0.580476
0.580481
0.580481
0.580486
0.580491
0.580496
0.5805
0.5805
0.580505
0.58051
0.580515
0.580521
0.580521
0.580526
0.580531
0.580536
0.580541
0.580541
0.580546
0.580551
0.580556
0.580561
0.580561
0.580566
0.580571
0.580576
0.580581
0.580581
0.580587
0.580592
0.580597
0.580602
0.580602
0.580607
0.580612
0.580617
0.580623
0.580623
0.580628
0.580633
0.580638
0.580643
0.580643
0.580649
0.580654
0.580659
0.580664
0.580664
0.58067
0.580675
0.58068
0.580685
0.580685
0.580691
0.580696
0.580701
0.580706
0.580706
0.580712
0.580717
0.580722
0.580728
0.580728
0.580733
0.580738
0.580744
0.580749
0.580749
0.580754
0.58076
0.580765
0.580771
0.580771
0.580776
0.580781
0.580787
0.580792
0.580792
0.580798
0.580803
0.580808
0.580814
0.580814
0.580819
0.580825
0.58083
0.580836
0.580836
0.580841
0.580847
0.580852
0.580858
0.580858
0.580863
0.580869
0.580874
0.58088
0.58088
0.580886
0.580891
0.580897
0.580902
0.580902
0.580908
0.580913
0.580919
0.580925
0.580925
0.58093
0.580936
0.580942
0.580947
0.580947
0.580953
0.580958
0.580964
0.58097
0.58097
0.580975
0.580981
0.580987
0.580993
0.580993
0.580998
0.581004
0.58101
0.581015
0.581015
0.581021
0.581027
0.581033
0.581038
0.581038
0.581044
0.58105
0.581056
0.581062
0.581062
0.581067
0.581073
0.581079
0.581085
0.581085
0.581091
0.581097
0.581102
0.581108
0.581108
0.581114
0.58112
0.581126
0.581132
0.581132
0.581138
0.581144
0.58115
0.581156
0.581156
0.581161
0.581167
0.581173
0.581179
0.581179
0.581185
0.581191
0.581197
0.581203
0.581203
0.581209
0.581215
0.581221
0.581227
0.581227
0.581233
0.581239
0.581245
0.581251
0.581251
0.581258
0.581264
0.58127
0.581276
0.581276
0.581282
0.581288
0.581294
0.5813
0.5813
0.581306
0.581312
0.581319
0.581325
0.581325
0.581331
0.581337
0.581343
0.58135
0.58135
0.581356
0.581362
0.581368
0.581374
0.581374
0.581381
0.581387
0.581393
0.581399
0.581399
0.581406
0.581412
0.581418
0.581425
0.581425
0.581431
0.581437
0.581444
0.58145
0.58145
0.581456
0.581463
0.581469
0.581475
0.581475
0.581482
0.581488
0.581494
0.581501
0.581501
0.581507
0.581514
0.58152
0.581526
0.581526
0.581533
0.581539
0.581546
0.581552
0.581552
0.581559
0.581565
0.581572
0.581578
0.581578
0.581585
0.581591
0.581598
0.581604
0.581604
0.581611
0.581617
0.581624
0.58163
0.58163
0.581637
0.581644
0.58165
0.581657
0.581657
0.581663
0.58167
0.581677
0.581683
0.581683
0.58169
0.581697
0.581703
0.58171
0.58171
0.581717
0.581723
0.58173
0.581737
0.581737
0.581743
0.58175
0.581757
0.581764
0.581764
0.58177
0.581777
0.581784
0.581791
0.581791
0.581797
0.581804
0.581811
0.581818
0.581818
0.581825
0.581831
0.581838
0.581845
0.581845
0.581852
0.581859
0.581866
0.581873
0.581873
0.581879
0.581886
0.581893
0.5819
0.5819
0.581907
0.581914
0.581921
0.581928
0.581928
0.581935
0.581942
0.581949
0.581956
0.581956
0.581963
0.58197
0.581977
0.581984
0.581984
0.581991
0.581998
0.582005
0.582012
0.582012
0.582019
0.582026
0.582033
0.58204
0.58204
0.582048
0.582055
0.582062
0.582069
0.582069
0.582076
0.582083
0.58209
0.582097
0.582097
0.582105
0.582112
0.582119
0.582126
0.582126
0.582133
0.582141
0.582148
0.582155
0.582155
0.582162
0.58217
0.582177
0.582184
0.582184
0.582192
0.582199
0.582206
0.582213
0.582213
0.582221
0.582228
0.582235
0.582243
0.582243
0.58225
0.582258
0.582265
0.582272
0.582272
0.58228
0.582287
0.582295
0.582302
0.582302
0.582309
0.582317
0.582324
0.582332
0.582332
0.582339
0.582347
0.582354
0.582362
0.582362
0.582369
0.582377
0.582384
0.582392
0.582392
0.582399
0.582407
0.582414
0.582422
0.582422
0.58243
0.582437
0.582445
0.582452
0.582452
0.58246
0.582468
0.582475
0.582483
0.582483
0.582491
0.582498
0.582506
0.582514
0.582514
0.582521
0.582529
0.582537
0.582545
0.582545
0.582552
0.58256
0.582568
0.582576
0.582576
0.582583
0.582591
0.582599
0.582607
0.582607
0.582614
0.582622
0.58263
0.582638
0.582638
0.582646
0.582654
0.582661
0.582669
0.582669
0.582677
0.582685
0.582693
0.582701
0.582701
0.582709
0.582717
0.582725
0.582733
0.582733
0.582741
0.582749
0.582757
0.582765
0.582765
0.582773
0.582781
0.582789
0.582797
0.582797
0.582805
0.582813
0.582821
0.582829
0.582829
0.582837
0.582845
0.582853
0.582862
0.582862
0.58287
0.582878
0.582886
0.582894
0.582894
0.582902
0.58291
0.582919
0.582927
0.582927
0.582935
0.582943
0.582951
0.58296
0.58296
0.582968
0.582976
0.582984
0.582993
0.582993
0.583001
0.583009
0.583018
0.583026
0.583026
0.583034
0.583043
0.583051
0.583059
0.583059
0.583068
0.583076
0.583084
0.583093
0.583093
0.583101
0.58311
0.583118
0.583126
0.583126
0.583135
0.583143
0.583152
0.58316
0.58316
0.583169
0.583177
0.583186
0.583194
0.583194
0.583203
0.583211
0.58322
0.583228
0.583228
0.583237
0.583246
0.583254
0.583263
0.583263
0.583271
0.58328
0.583289
0.583297
0.583297
0.583306
0.583315
0.583323
0.583332
0.583332
0.583341
0.583349
0.583358
0.583367
0.583367
0.583375
0.583384
0.583393
0.583402
0.583402
0.583411
0.583419
0.583428
0.583437
0.583437
0.583446
0.583455
0.583463
0.583472
0.583472
0.583481
0.58349
0.583499
0.583508
0.583508
0.583517
0.583525
0.583534
0.583543
0.583543
0.583552
0.583561
0.58357
0.583579
0.583579
0.583588
0.583597
0.583606
0.583615
0.583615
0.583624
0.583633
0.583642
0.583651
0.583651
0.58366
0.58367
0.583679
0.583688
0.583688
0.583697
0.583706
0.583715
0.583724
0.583724
0.583733
0.583743
0.583752
0.583761
0.583761
0.58377
0.583779
0.583789
0.583798
0.583798
0.583807
0.583816
0.583825
0.583835
0.583835
0.583844
0.583853
0.583863
0.583872
0.583872
0.583881
0.583891
0.5839
0.583909
0.583909
0.583919
0.583928
0.583938
0.583947
0.583947
0.583956
0.583966
0.583975
0.583985
0.583985
0.583994
0.584004
0.584013
0.584023
0.584023
0.584032
0.584042
0.584051
0.584061
0.584061
0.58407
0.58408
0.584089
0.584099
0.584099
0.584108
0.584118
0.584128
0.584137
0.584137
0.584147
0.584157
0.584166
0.584176
0.584176
0.584186
0.584195
0.584205
0.584215
0.584215
0.584224
0.584234
0.584244
0.584254
0.584254
0.584264
0.584273
0.584283
0.584293
0.584293
0.584303
0.584313
0.584322
0.584332
0.584332
0.584342
0.584352
0.584362
0.584372
0.584372
0.584382
0.584392
0.584402
0.584411
0.584411
0.584421
0.584431
0.584441
0.584451
0.584451
0.584461
0.584471
0.584481
0.584491
0.584491
0.584501
0.584512
0.584522
0.584532
0.584532
0.584542
0.584552
0.584562
0.584572
0.584572
0.584582
0.584592
0.584603
0.584613
0.584613
0.584623
0.584633
0.584643
0.584654
0.584654
0.584664
0.584674
0.584684
0.584695
0.584695
0.584705
0.584715
0.584725
0.584736
0.584736
0.584746
0.584756
0.584767
0.584777
0.584777
0.584787
0.584798
0.584808
0.584819
0.584819
0.584829
0.58484
0.58485
0.58486
0.58486
0.584871
0.584881
0.584892
0.584902
0.584902
0.584913
0.584923
0.584934
0.584945
0.584945
0.584955
0.584966
0.584976
0.584987
0.584987
0.584997
0.585008
0.585019
0.585029
0.585029
0.58504
0.585051
0.585061
0.585072
0.585072
0.585083
0.585093
0.585104
0.585115
0.585115
0.585126
0.585137
0.585147
0.585158
0.585158
0.585169
0.58518
0.585191
0.585201
0.585201
0.585212
0.585223
0.585234
0.585245
0.585245
0.585256
0.585267
0.585278
0.585289
0.585289
0.5853
0.585311
0.585322
0.585333
0.585333
0.585343
0.585355
0.585366
0.585377
0.585377
0.585388
0.585399
0.58541
0.585421
0.585421
0.585432
0.585443
0.585454
0.585465
0.585465
0.585477
0.585488
0.585499
0.58551
0.58551
0.585521
0.585533
0.585544
0.585555
0.585555
0.585566
0.585578
0.585589
0.5856
0.5856
0.585611
0.585623
0.585634
0.585645
0.585645
0.585657
0.585668
0.585679
0.585691
0.585691
0.585702
0.585714
0.585725
0.585737
0.585737
0.585748
0.585759
0.585771
0.585782
0.585782
0.585794
0.585805
0.585817
0.585829
0.585829
0.58584
0.585852
0.585863
0.585875
0.585875
0.585887
0.585898
0.58591
0.585921
0.585921
0.585933
0.585945
0.585956
0.585968
0.585968
0.58598
0.585992
0.586003
0.586015
0.586015
0.586027
0.586039
0.58605
0.586062
0.586062
0.586074
0.586086
0.586098
0.58611
0.58611
0.586121
0.586133
0.586145
0.586157
0.586157
0.586169
0.586181
0.586193
0.586205
0.586205
0.586217
0.586229
0.586241
0.586253
0.586253
0.586265
0.586277
0.586289
0.586301
0.586301
0.586313
0.586325
0.586337
0.58635
0.58635
0.586362
0.586374
0.586386
0.586398
0.586398
0.58641
0.586423
0.586435
0.586447
0.586447
0.586459
0.586472
0.586484
0.586496
0.586496
0.586509
0.586521
0.586533
0.586546
0.586546
0.586558
0.58657
0.586583
0.586595
0.586595
0.586607
0.58662
0.586632
0.586645
0.586645
0.586657
0.58667
0.586682
0.586695
0.586695
0.586707
0.58672
0.586732
0.586745
0.586745
0.586757
0.58677
0.586783
0.586795
0.586795
0.586808
0.586821
0.586833
0.586846
0.586846
0.586859
0.586871
0.586884
0.586897
0.586897
0.58691
0.586922
0.586935
0.586948
0.586948
0.586961
0.586973
0.586986
0.586999
0.586999
0.587012
0.587025
0.587038
0.587051
0.587051
0.587063
0.587076
0.587089
0.587102
0.587102
0.587115
0.587128
0.587141
0.587154
0.587154
0.587167
0.58718
0.587193
0.587207
0.587207
0.58722
0.587233
0.587246
0.587259
0.587259
0.587272
0.587285
0.587298
0.587312
0.587312
0.587325
0.587338
0.587351
0.587364
0.587364
0.587378
0.587391
0.587404
0.587418
0.587418
0.587431
0.587444
0.587458
0.587471
0.587471
0.587484
0.587498
0.587511
0.587525
0.587525
0.587538
0.587551
0.587565
0.587578
0.587578
0.587592
0.587605
0.587619
0.587632
0.587632
0.587646
0.58766
0.587673
0.587687
0.587687
0.5877
0.587714
0.587728
0.587741
0.587741
0.587755
0.587769
0.587782
0.587796
0.587796
0.58781
0.587823
0.587837
0.587851
0.587851
0.587865
0.587879
0.587892
0.587906
0.587906
0.58792
0.587934
0.587948
0.587962
0.587962
0.587976
0.58799
0.588004
0.588017
0.588017
0.588031
0.588045
0.588059
0.588073
0.588073
0.588087
0.588101
0.588116
0.58813
0.58813
0.588144
0.588158
0.588172
0.588186
0.588186
0.5882
0.588214
0.588229
0.588243
0.588243
0.588257
0.588271
0.588286
0.5883
0.5883
0.588314
0.588328
0.588343
0.588357
0.588357
0.588371
0.588386
0.5884
0.588414
0.588414
0.588429
0.588443
0.588458
0.588472
0.588472
0.588487
0.588501
0.588516
0.58853
0.58853
0.588545
0.588559
0.588574
0.588588
0.588588
0.588603
0.588617
0.588632
0.588647
0.588647
0.588661
0.588676
0.588691
0.588705
0.588705
0.58872
0.588735
0.58875
0.588764
0.588764
0.588779
0.588794
0.588809
0.588824
0.588824
0.588838
0.588853
0.588868
0.588883
0.588883
0.588898
0.588913
0.588928
0.588943
0.588943
0.588958
0.588973
0.588988
0.589003
0.589003
0.589018
0.589033
0.589048
0.589063
0.589063
0.589078
0.589093
0.589108
0.589123
0.589123
0.589139
0.589154
0.589169
0.589184
0.589184
0.589199
0.589215
0.58923
0.589245
0.589245
0.58926
0.589276
0.589291
0.589306
0.589306
0.589322
0.589337
0.589353
0.589368
0.589368
0.589383
0.589399
0.589414
0.58943
0.58943
0.589445
0.589461
0.589476
0.589492
0.589492
0.589507
0.589523
0.589539
0.589554
0.589554
0.58957
0.589585
0.589601
0.589617
0.589617
0.589633
0.589648
0.589664
0.58968
0.58968
0.589696
0.589711
0.589727
0.589743
0.589743
0.589759
0.589775
0.58979
0.589806
0.589806
0.589822
0.589838
0.589854
0.58987
0.58987
0.589886
0.589902
0.589918
0.589934
0.589934
0.58995
0.589966
0.589982
0.589998
0.589998
0.590014
0.59003
0.590047
0.590063
0.590063
0.590079
0.590095
0.590111
0.590127
0.590127
0.590144
0.59016
0.590176
0.590193
0.590193
0.590209
0.590225
0.590242
0.590258
0.590258
0.590274
0.590291
0.590307
0.590323
0.590323
0.59034
0.590356
0.590373
0.590389
0.590389
0.590406
0.590422
0.590439
0.590456
0.590456
0.590472
0.590489
0.590505
0.590522
0.590522
0.590539
0.590555
0.590572
0.590589
0.590589
0.590605
0.590622
0.590639
0.590656
0.590656
0.590673
0.590689
0.590706
0.590723
0.590723
0.59074
0.590757
0.590774
0.590791
0.590791
0.590808
0.590825
0.590842
0.590859
0.590859
0.590876
0.590893
0.59091
0.590927
0.590927
0.590944
0.590961
0.590978
0.590995
0.590995
0.591012
0.59103
0.591047
0.591064
0.591064
0.591081
0.591098
0.591116
0.591133
0.591133
0.59115
0.591168
0.591185
0.591202
0.591202
0.59122
0.591237
0.591255
0.591272
0.591272
0.591289
0.591307
0.591324
0.591342
0.591342
0.591359
0.591377
0.591395
0.591412
0.591412
0.59143
0.591447
0.591465
0.591483
0.591483
0.5915
0.591518
0.591536
0.591553
0.591553
0.591571
0.591589
0.591607
0.591625
0.591625
0.591642
0.59166
0.591678
0.591696
0.591696
0.591714
0.591732
0.59175
0.591768
0.591768
0.591786
0.591804
0.591822
0.59184
0.59184
0.591858
0.591876
0.591894
0.591912
0.591912
0.59193
0.591948
0.591966
0.591985
0.591985
0.592003
0.592021
0.592039
0.592058
0.592058
0.592076
0.592094
0.592113
0.592131
0.592131
0.592149
0.592168
0.592186
0.592204
0.592204
0.592223
0.592241
0.59226
0.592278
0.592278
0.592297
0.592315
0.592334
0.592352
0.592352
0.592371
0.59239
0.592408
0.592427
0.592427
0.592446
0.592464
0.592483
0.592502
0.592502
0.59252
0.592539
0.592558
0.592577
0.592577
0.592596
0.592614
0.592633
0.592652
0.592652
0.592671
0.59269
0.592709
0.592728
0.592728
0.592747
0.592766
0.592785
0.592804
0.592804
0.592823
0.592842
0.592861
0.59288
0.59288
0.5929
0.592919
0.592938
0.592957
0.592957
0.592976
0.592996
0.593015
0.593034
0.593034
0.593053
0.593073
0.593092
0.593111
0.593111
0.593131
0.59315
0.59317
0.593189
0.593189
0.593209
0.593228
0.593248
0.593267
0.593267
0.593287
0.593306
0.593326
0.593345
0.593345
0.593365
0.593385
0.593404
0.593424
0.593424
0.593444
0.593464
0.593483
0.593503
0.593503
0.593523
0.593543
0.593562
0.593582
0.593582
0.593602
0.593622
0.593642
0.593662
0.593662
0.593682
0.593702
0.593722
0.593742
0.593742
0.593762
0.593782
0.593802
0.593822
0.593822
0.593842
0.593863
0.593883
0.593903
0.593903
0.593923
0.593943
0.593964
0.593984
0.593984
0.594004
0.594024
0.594045
0.594065
0.594065
0.594086
0.594106
0.594126
0.594147
0.594147
0.594167
0.594188
0.594208
0.594229
0.594229
0.594249
0.59427
0.594291
0.594311
0.594311
0.594332
0.594352
0.594373
0.594394
0.594394
0.594414
0.594435
0.594456
0.594477
0.594477
0.594498
0.594518
0.594539
0.59456
0.59456
0.594581
0.594602
0.594623
0.594644
0.594644
0.594665
0.594686
0.594707
0.594728
0.594728
0.594749
0.59477
0.594791
0.594812
0.594812
0.594833
0.594855
0.594876
0.594897
0.594897
0.594918
0.59494
0.594961
0.594982
0.594982
0.595003
0.595025
0.595046
0.595068
0.595068
0.595089
0.59511
0.595132
0.595153
0.595153
0.595175
0.595196
0.595218
0.59524
0.59524
0.595261
0.595283
0.595304
0.595326
0.595326
0.595348
0.595369
0.595391
0.595413
0.595413
0.595435
0.595456
0.595478
0.5955
0.5955
0.595522
0.595544
0.595566
0.595588
0.595588
0.59561
0.595632
0.595654
0.595676
0.595676
0.595698
0.59572
0.595742
0.595764
0.595764
0.595786
0.595808
0.59583
0.595853
0.595853
0.595875
0.595897
0.595919
0.595942
0.595942
0.595964
0.595986
0.596009
0.596031
0.596031
0.596053
0.596076
0.596098
0.596121
0.596121
0.596143
0.596166
0.596188
0.596211
0.596211
0.596234
0.596256
0.596279
0.596301
0.596301
0.596324
0.596347
0.59637
0.596392
0.596392
0.596415
0.596438
0.596461
0.596484
0.596484
0.596506
0.596529
0.596552
0.596575
0.596575
0.596598
0.596621
0.596644
0.596667
0.596667
0.59669
0.596713
0.596736
0.59676
0.59676
0.596783
0.596806
0.596829
0.596852
0.596852
0.596876
0.596899
0.596922
0.596945
0.596945
0.596969
0.596992
0.597016
0.597039
0.597039
0.597062
0.597086
0.597109
0.597133
0.597133
0.597156
0.59718
0.597204
0.597227
0.597227
0.597251
0.597274
0.597298
0.597322
0.597322
0.597346
0.597369
0.597393
0.597417
0.597417
0.597441
0.597465
0.597488
0.597512
0.597512
0.597536
0.59756
0.597584
0.597608
0.597608
0.597632
0.597656
0.59768
0.597704
0.597704
0.597728
0.597753
0.597777
0.597801
0.597801
0.597825
0.597849
0.597874
0.597898
0.597898
0.597922
0.597947
0.597971
0.597995
0.597995
0.59802
0.598044
0.598069
0.598093
0.598093
0.598118
0.598142
0.598167
0.598191
0.598191
0.598216
0.598241
0.598265
0.59829
0.59829
0.598315
0.598339
0.598364
0.598389
0.598389
0.598414
0.598439
0.598463
0.598488
0.598488
0.598513
0.598538
0.598563
0.598588
0.598588
0.598613
0.598638
0.598663
0.598688
0.598688
0.598713
0.598739
0.598764
0.598789
0.598789
0.598814
0.598839
0.598865
0.59889
0.59889
0.598915
0.598941
0.598966
0.598991
0.598991
0.599017
0.599042
0.599068
0.599093
0.599093
0.599119
0.599144
0.59917
0.599195
0.599195
0.599221
0.599247
0.599272
0.599298
0.599298
0.599324
0.599349
0.599375
0.599401
0.599401
0.599427
0.599453
0.599479
0.599504
0.599504
0.59953
0.599556
0.599582
0.599608
0.599608
0.599634
0.59966
0.599687
0.599713
0.599713
0.599739
0.599765
0.599791
0.599817
0.599817
0.599844
0.59987
0.599896
0.599922
0.599922
0.599949
0.599975
0.600002
0.600028
0.600028
0.600054
0.600081
0.600107
0.600134
0.600134
0.600161
0.600187
0.600214
0.60024
0.60024
0.600267
0.600294
0.600321
0.600347
0.600347
0.600374
0.600401
0.600428
0.600455
0.600455
0.600481
0.600508
0.600535
0.600562
0.600562
0.600589
0.600616
0.600643
0.60067
0.60067
0.600697
0.600725
0.600752
0.600779
0.600779
0.600806
0.600833
0.600861
0.600888
0.600888
0.600915
0.600942
0.60097
0.600997
0.600997
0.601025
0.601052
0.60108
0.601107
0.601107
0.601135
0.601162
0.60119
0.601217
0.601217
0.601245
0.601273
0.6013
0.601328
0.601328
0.601356
0.601384
0.601411
0.601439
0.601439
0.601467
0.601495
0.601523
0.601551
0.601551
0.601579
0.601607
0.601635
0.601663
0.601663
0.601691
0.601719
0.601747
0.601775
0.601775
0.601804
0.601832
0.60186
0.601888
0.601888
0.601917
0.601945
0.601973
0.602002
0.602002
0.60203
0.602059
0.602087
0.602115
0.602115
0.602144
0.602173
0.602201
0.60223
0.60223
0.602258
0.602287
0.602316
0.602345
0.602345
0.602373
0.602402
0.602431
0.60246
0.60246
0.602489
0.602517
0.602546
0.602575
0.602575
0.602604
0.602633
0.602662
0.602691
0.602691
0.60272
0.60275
0.602779
0.602808
0.602808
0.602837
0.602866
0.602896
0.602925
0.602925
0.602954
0.602984
0.603013
0.603042
0.603042
0.603072
0.603101
0.603131
0.60316
0.60316
0.60319
0.603219
0.603249
0.603279
0.603279
0.603308
0.603338
0.603368
0.603398
0.603398
0.603427
0.603457
0.603487
0.603517
0.603517
0.603547
0.603577
0.603607
0.603637
0.603637
0.603667
0.603697
0.603727
0.603757
0.603757
0.603787
0.603817
0.603847
0.603878
0.603878
0.603908
0.603938
0.603968
0.603999
0.603999
0.604029
0.604059
0.60409
0.60412
0.60412
0.604151
0.604181
0.604212
0.604242
0.604242
0.604273
0.604304
0.604334
0.604365
0.604365
0.604396
0.604427
0.604457
0.604488
0.604488
0.604519
0.60455
0.604581
0.604612
0.604612
0.604643
0.604674
0.604705
0.604736
0.604736
0.604767
0.604798
0.604829
0.60486
0.60486
0.604891
0.604923
0.604954
0.604985
0.604985
0.605016
0.605048
0.605079
0.605111
0.605111
0.605142
0.605174
0.605205
0.605237
0.605237
0.605268
0.6053
0.605331
0.605363
0.605363
0.605395
0.605426
0.605458
0.60549
0.60549
0.605522
0.605554
0.605585
0.605617
0.605617
0.605649
0.605681
0.605713
0.605745
0.605745
0.605777
0.605809
0.605841
0.605874
0.605874
0.605906
0.605938
0.60597
0.606002
0.606002
0.606035
0.606067
0.606099
0.606132
0.606132
0.606164
0.606197
0.606229
0.606262
0.606262
0.606294
0.606327
0.606359
0.606392
0.606392
0.606425
0.606457
0.60649
0.606523
0.606523
0.606556
0.606589
0.606621
0.606654
0.606654
0.606687
0.60672
0.606753
0.606786
0.606786
0.606819
0.606852
0.606885
0.606918
0.606918
0.606952
0.606985
0.607018
0.607051
0.607051
0.607085
0.607118
0.607151
0.607185
0.607185
0.607218
0.607252
0.607285
0.607319
0.607319
0.607352
0.607386
0.607419
0.607453
0.607453
0.607487
0.60752
0.607554
0.607588
0.607588
0.607622
0.607655
0.607689
0.607723
0.607723
0.607757
0.607791
0.607825
0.607859
0.607859
0.607893
0.607927
0.607961
0.607995
0.607995
0.60803
0.608064
0.608098
0.608132
0.608132
0.608167
0.608201
0.608235
0.60827
0.60827
0.608304
0.608339
0.608373
0.608408
0.608408
0.608442
0.608477
0.608512
0.608546
0.608546
0.608581
0.608616
0.60865
0.608685
0.608685
0.60872
0.608755
0.60879
0.608825
0.608825
0.60886
0.608895
0.60893
0.608965
0.608965
0.609
0.609035
0.60907
0.609105
0.609105
0.609141
0.609176
0.609211
0.609246
0.609246
0.609282
0.609317
0.609353
0.609388
0.609388
0.609423
0.609459
0.609495
0.60953
0.60953
0.609566
0.609601
0.609637
0.609673
0.609673
0.609708
0.609744
0.60978
0.609816
0.609816
0.609852
0.609888
0.609924
0.60996
0.60996
0.609996
0.610032
0.610068
0.610104
0.610104
0.61014
0.610176
0.610212
0.610249
0.610249
0.610285
0.610321
0.610357
0.610394
0.610394
0.61043
0.610467
0.610503
0.61054
0.61054
0.610576
0.610613
0.610649
0.610686
0.610686
0.610723
0.610759
0.610796
0.610833
0.610833
0.61087
0.610907
0.610943
0.61098
0.61098
0.611017
0.611054
0.611091
0.611128
0.611128
0.611165
0.611203
0.61124
0.611277
0.611277
0.611314
0.611351
0.611389
0.611426
0.611426
0.611463
0.611501
0.611538
0.611575
0.611575
0.611613
0.61165
0.611688
0.611726
0.611726
0.611763
0.611801
0.611839
0.611876
0.611876
0.611914
0.611952
0.61199
0.612028
0.612028
0.612065
0.612103
0.612141
0.612179
0.612179
0.612217
0.612255
0.612293
0.612332
0.612332
0.61237
0.612408
0.612446
0.612485
0.612485
0.612523
0.612561
0.6126
0.612638
0.612638
0.612676
0.612715
0.612753
0.612792
0.612792
0.61283
0.612869
0.612908
0.612946
0.612946
0.612985
0.613024
0.613063
0.613101
0.613101
0.61314
0.613179
0.613218
0.613257
0.613257
0.613296
0.613335
0.613374
0.613413
0.613413
0.613452
0.613492
0.613531
0.61357
0.61357
0.613609
0.613649
0.613688
0.613727
0.613727
0.613767
0.613806
0.613846
0.613885