<?xml version="1.0"?>
<VTKFile type="UnstructuredGrid" version="0.1" byte_order="LittleEndian">
<UnstructuredGrid>
<Piece NumberOfPoints="5000" NumberOfCells="4000">
<PointData Scalars="Reaction 0">
<DataArray type="Float32" Name="Reaction 0" format="ascii">
0.345948
0.345948
0.345948
0.345948
0.345949
0.345949
0.345949
0.345949
0.345949
0.345949
0.345949
0.34595
0.34595
0.34595
0.34595
0.34595
0.345951
0.345951
0.345952
0.345952
0.345952
0.345953
0.345953
0.345954
0.345954
0.345954
0.345955
0.345956
0.345956
0.345957
0.345957
0.345958
0.345958
0.345959
0.34596
0.34596
0.345961
0.345962
0.345963
0.345964
0.345964
0.345965
0.345966
0.345967
0.345968
0.345968
0.345969
0.34597
0.345971
0.345972
0.345972
0.345974
0.345975
0.345976
0.345977
0.345977
0.345979
0.34598
0.345982
0.345983
0.345983
0.345985
0.345986
0.345988
0.345989
0.345989
0.345991
0.345992
0.345994
0.345996
0.345996
0.345997
0.345999
0.346001
0.346003
0.346003
0.346004
0.346006
0.346008
0.34601
0.34601
0.346012
0.346014
0.346016
0.346018
0.346018
0.34602
0.346022
0.346024
0.346026
0.346026
0.346029
0.346031
0.346033
0.346035
0.346035
0.346038
0.34604
0.346042
0.346045
0.346045
0.346047
0.34605
0.346052
0.346055
0.346055
0.346057
0.34606
0.346062
0.346065
0.346065
0.346068
0.34607
0.346073
0.346076
0.346076
0.346079
0.346082
0.346084
0.346087
0.346087
0.34609
0.346093
0.346096
0.346099
0.346099
0.346102
0.346105
0.346108
0.346111
0.346111
0.346115
0.346118
0.346121
0.346124
0.346124
0.346127
0.346131
0.346134
0.346137
0.346137
0.346141
0.346144
0.346148
0.346151
0.346151
0.346155
0.346158
0.346162
0.346165
0.346165
0.346169
0.346173
0.346176
0.34618
0.34618
0.346184
0.346188
0.346191
0.346195
0.346195
0.346199
0.346203
0.346207
0.346211
0.346211
0.346215
0.346219
0.346223
0.346227
0.346227
0.346231
0.346235
0.34624
0.346244
0.346244
0.346248
0.346252
0.346257
0.346261
0.346261
0.346265
0.34627
0.346274
0.346279
0.346279
0.346283
0.346288
0.346292
0.346297
0.346297
0.346301
0.346306
0.346311
0.346315
0.346315
0.34632
0.346325
0.346329
0.346334
0.346334
0.346339
0.346344
0.346349
0.346354
0.346354
0.346359
0.346364
0.346369
0.346374
0.346374
0.346379
0.346384
0.346389
0.346394
0.346394
0.3464
0.346405
0.34641
0.346415
0.346415
0.346421
0.346426
0.346431
0.346437
0.346437
0.346442
0.346448
0.346453
0.346459
0.346459
0.346464
0.34647
0.346476
0.346481
0.346481
0.346487
0.346493
0.346498
0.346504
0.346504
0.34651
0.346516
0.346522
0.346528
0.346528
0.346533
0.346539
0.346545
0.346551
0.346551
0.346557
0.346564
0.34657
0.346576
0.346576
0.346582
0.346588
0.346594
0.346601
0.346601
0.346607
0.346613
0.34662
0.346626
0.346626
0.346632
0.346639
0.346645
0.346652
0.346652
0.346658
0.346665
0.346671
0.346678
0.346678
0.346685
0.346691
0.346698
0.346705
0.346705
0.346712
0.346718
0.346725
0.346732
0.346732
0.346739
0.346746
0.346753
0.34676
0.34676
0.346767
0.346774
0.346781
0.346788
0.346788
0.346795
0.346802
0.346809
0.346817
0.346817
0.346824
0.346831
0.346839
0.346846
0.346846
0.346853
0.346861
0.346868
0.346876
0.346876
0.346883
0.346891
0.346898
0.346906
0.346906
0.346913
0.346921
0.346929
0.346936
0.346936
0.346944
0.346952
0.34696
0.346967
0.346967
0.346975
0.346983
0.346991
0.346999
0.346999
0.347007
0.347015
0.347023
0.347031
0.347031
0.347039
0.347047
0.347055
0.347064
0.347064
0.347072
0.34708
0.347088
0.347097
0.347097
0.347105
0.347113
0.347122
0.34713
0.34713
0.347139
0.347147
0.347156
0.347164
0.347164
0.347173
0.347181
0.34719
0.347199
0.347199
0.347207
0.347216
0.347225
0.347234
0.347234
0.347242
0.347251
0.34726
0.347269
0.347269
0.347278
0.347287
0.347296
0.347305
0.347305
0.347314
0.347323
0.347332
0.347341
0.347341
0.347351
0.34736
0.347369
0.347378
0.347378
0.347388
0.347397
0.347406
0.347416
0.347416
0.347425
0.347435
0.347444
0.347454
0.347454
0.347463
0.347473
0.347482
0.347492
0.347492
0.347502
0.347511
0.347521
0.347531
0.347531
0.34754
0.34755
0.34756
0.34757
0.34757
0.34758
0.34759
0.3476
0.34761
0.34761
0.34762
0.34763
0.34764
0.34765
0.34765
0.34766
0.34767
0.347681
0.347691
0.347691
0.347701
0.347711
0.347722
0.347732
0.347732
0.347742
0.347753
0.347763
0.347774
0.347774
0.347784
0.347795
0.347805
0.347816
0.347816
0.347826
0.347837
0.347848
0.347859
0.347859
0.347869
0.34788
0.347891
0.347902
0.347902
0.347913
0.347923
0.347934
0.347945
0.347945
0.347956
0.347967
0.347978
0.347989
0.347989
0.348001
0.348012
0.348023
0.348034
0.348034
0.348045
0.348056
0.348068
0.348079
0.348079
0.34809
0.348102
0.348113
0.348125
0.348125
0.348136
0.348148
0.348159
0.348171
0.348171
0.348182
0.348194
0.348206
0.348217
0.348217
0.348229
0.348241
0.348252
0.348264
0.348264
0.348276
0.348288
0.3483
0.348312
0.348312
0.348324
0.348336
0.348348
0.34836
0.34836
0.348372
0.348384
0.348396
0.348408
0.348408
0.34842
0.348432
0.348445
0.348457
0.348457
0.348469
0.348482
0.348494
0.348506
0.348506
0.348519
0.348531
0.348544
0.348556
0.348556
0.348569
0.348581
0.348594
0.348607
0.348607
0.348619
0.348632
0.348645
0.348657
0.348657
0.34867
0.348683
0.348696
0.348709
0.348709
0.348722
0.348735
0.348748
0.348761
0.348761
0.348774
0.348787
0.3488
0.348813
0.348813
0.348826
0.348839
0.348852
0.348866
0.348866
0.348879
0.348892
0.348906
0.348919
0.348919
0.348932
0.348946
0.348959
0.348973
0.348973
0.348986
0.349
0.349013
0.349027
0.349027
0.34904
0.349054
0.349068
0.349082
0.349082
0.349095
0.349109
0.349123
0.349137
0.349137
0.349151
0.349164
0.349178
0.349192
0.349192
0.349206
0.34922
0.349234
0.349248
0.349248
0.349263
0.349277
0.349291
0.349305
0.349305
0.349319
0.349334
0.349348
0.349362
0.349362
0.349376
0.349391
0.349405
0.34942
0.34942
0.349434
0.349449
0.349463
0.349478
0.349478
0.349492
0.349507
0.349522
0.349536
0.349536
0.349551
0.349566
0.349581
0.349595
0.349595
0.34961
0.349625
0.34964
0.349655
0.349655
0.34967
0.349685
0.3497
0.349715
0.349715
0.34973
0.349745
0.34976
0.349775
0.349775
0.34979
0.349806
0.349821
0.349836
0.349836
0.349851
0.349867
0.349882
0.349898
0.349898
0.349913
0.349928
0.349944
0.349959
0.349959
0.349975
0.349991
0.350006
0.350022
0.350022
0.350037
0.350053
0.350069
0.350085
0.350085
0.3501
0.350116
0.350132
0.350148
0.350148
0.350164
0.35018
0.350196
0.350212
0.350212
0.350228
0.350244
0.35026
0.350276
0.350276
0.350292
0.350308
0.350325
0.350341
0.350341
0.350357
0.350373
0.35039
0.350406
0.350406
0.350422
0.350439
0.350455
0.350472
0.350472
0.350488
0.350505
0.350521
0.350538
0.350538
0.350555
0.350571
0.350588
0.350605
0.350605
0.350621
0.350638
0.350655
0.350672
0.350672
0.350689
0.350706
0.350723
0.35074
0.35074
0.350756
0.350774
0.350791
0.350808
0.350808
0.350825
0.350842
0.350859
0.350876
0.350876
0.350893
0.350911
0.350928
0.350945
0.350945
0.350963
0.35098
0.350997
0.351015
0.351015
0.351032
0.35105
0.351067
0.351085
0.351085
0.351103
0.35112
0.351138
0.351155
0.351155
0.351173
0.351191
0.351209
0.351226
0.351226
0.351244
0.351262
0.35128
0.351298
0.351298
0.351316
0.351334
0.351352
0.35137
0.35137
0.351388
0.351406
0.351424
0.351442
0.351442
0.35146
0.351479
0.351497
0.351515
0.351515
0.351534
0.351552
0.35157
0.351589
0.351589
0.351607
0.351625
0.351644
0.351662
0.351662
0.351681
0.3517
0.351718
0.351737
0.351737
0.351755
0.351774
0.351793
0.351812
0.351812
0.35183
0.351849
0.351868
0.351887
0.351887
0.351906
0.351925
0.351944
0.351963
0.351963
0.351982
0.352001
0.35202
0.352039
0.352039
0.352058
0.352077
0.352097
0.352116
0.352116
0.352135
0.352154
0.352174
0.352193
0.352193
0.352212
0.352232
0.352251
0.352271
0.352271
0.35229
0.35231
0.352329
0.352349
0.352349
0.352368
0.352388
0.352408
0.352427
0.352427
0.352447
0.352467
0.352487
0.352507
0.352507
0.352526
0.352546
0.352566
0.352586
0.352586
0.352606
0.352626
0.352646
0.352666
0.352666
0.352686
0.352707
0.352727
0.352747
0.352747
0.352767
0.352787
0.352808
0.352828
0.352828
0.352848
0.352869
0.352889
0.352909
0.352909
0.35293
0.35295
0.352971
0.352991
0.352991
0.353012
0.353033
0.353053
0.353074
0.353074
0.353095
0.353115
0.353136
0.353157
0.353157
0.353178
0.353199
0.353219
0.35324
0.35324
0.353261
0.353282
0.353303
0.353324
0.353324
0.353345
0.353366
0.353387
0.353409
0.353409
0.35343
0.353451
0.353472
0.353493
0.353493
0.353515
0.353536
0.353557
0.353579
0.353579
0.3536
0.353622
0.353643
0.353665
0.353665
0.353686
0.353708
0.353729
0.353751
0.353751
0.353773
0.353794
0.353816
0.353838
0.353838
0.353859
0.353881
0.353903
0.353925
0.353925
0.353947
0.353969
0.353991
0.354013
0.354013
0.354035
0.354057
0.354079
0.354101
0.354101
0.354123
0.354145
0.354167
0.35419
0.35419
0.354212
0.354234
0.354256
0.354279
0.354279
0.354301
0.354323
0.354346
0.354368
0.354368
0.354391
0.354413
0.354436
0.354458
0.354458
0.354481
0.354504
0.354526
0.354549
0.354549
0.354572
0.354595
0.354617
0.35464
0.35464
0.354663
0.354686
0.354709
0.354732
0.354732
0.354755
0.354778
0.354801
0.354824
0.354824
0.354847
0.35487
0.354893
0.354916
0.354916
0.354939
0.354963
0.354986
0.355009
0.355009
0.355032
0.355056
0.355079
0.355103
0.355103
0.355126
0.35515
0.355173
0.355197
0.355197
0.35522
0.355244
0.355267
0.355291
0.355291
0.355315
0.355338
0.355362
0.355386
0.355386
0.35541
0.355433
0.355457
0.355481
0.355481
0.355505
0.355529
0.355553
0.355577
0.355577
0.355601
0.355625
0.355649
0.355673
0.355673
0.355697
0.355722
0.355746
0.35577
0.35577
0.355794
0.355819
0.355843
0.355867
0.355867
0.355892
0.355916
0.355941
0.355965
0.355965
0.35599
0.356014
0.356039
0.356063
0.356063
0.356088
0.356113
0.356137
0.356162
0.356162
0.356187
0.356211
0.356236
0.356261
0.356261
0.356286
0.356311
0.356336
0.356361
0.356361
0.356386
0.356411
0.356436
0.356461
0.356461
0.356486
0.356511
0.356536
0.356561
0.356561
0.356587
0.356612
0.356637
0.356663
0.356663
0.356688
0.356713
0.356739
0.356764
0.356764
0.356789
0.356815
0.356841
0.356866
0.356866
0.356892
0.356917
0.356943
0.356969
0.356969
0.356994
0.35702
0.357046
0.357071
0.357071
0.357097
0.357123
0.357149
0.357175
0.357175
0.357201
0.357227
0.357253
0.357279
0.357279
0.357305
0.357331
0.357357
0.357383
0.357383
0.357409
0.357436
0.357462
0.357488
0.357488
0.357514
0.357541
0.357567
0.357593
0.357593
0.35762
0.357646
0.357673
0.357699
0.357699
0.357726
0.357752
0.357779
0.357806
0.357806
0.357832
0.357859
0.357886
0.357912
0.357912
0.357939
0.357966
0.357993
0.35802
0.35802
0.358046
0.358073
0.3581
0.358127
0.358127
0.358154
0.358181
0.358208
0.358235
0.358235
0.358263
0.35829
0.358317
0.358344
0.358344
0.358371
0.358399
0.358426
0.358453
0.358453
0.358481
0.358508
0.358535
0.358563
0.358563
0.35859
0.358618
0.358645
0.358673
0.358673
0.3587
0.358728
0.358756
0.358783
0.358783
0.358811
0.358839
0.358867
0.358894
0.358894
0.358922
0.35895
0.358978
0.359006
0.359006
0.359034
0.359062
0.35909
0.359118
0.359118
0.359146
0.359174
0.359202
0.35923
0.35923
0.359259
0.359287
0.359315
0.359343
0.359343
0.359372
0.3594
0.359428
0.359457
0.359457
0.359485
0.359514
0.359542
0.359571
0.359571
0.359599
0.359628
0.359656
0.359685
0.359685
0.359714
0.359742
0.359771
0.3598
0.3598
0.359828
0.359857
0.359886
0.359915
0.359915
0.359944
0.359973
0.360002
0.360031
0.360031
0.36006
0.360089
0.360118
0.360147
0.360147
0.360176
0.360205
0.360234
0.360264
0.360264
0.360293
0.360322
0.360352
0.360381
0.360381
0.36041
0.36044
0.360469
0.360498
0.360498
0.360528
0.360557
0.360587
0.360617
0.360617
0.360646
0.360676
0.360706
0.360735
0.360735
0.360765
0.360795
0.360824
0.360854
0.360854
0.360884
0.360914
0.360944
0.360974
0.360974
0.361004
0.361034
0.361064
0.361094
0.361094
0.361124
0.361154
0.361184
0.361214
0.361214
0.361245
0.361275
0.361305
0.361335
0.361335
0.361366
0.361396
0.361426
0.361457
0.361457
0.361487
0.361518
0.361548
0.361579
0.361579
0.361609
0.36164
0.36167
0.361701
0.361701
0.361732
0.361762
0.361793
0.361824
0.361824
0.361855
0.361885
0.361916
0.361947
0.361947
0.361978
0.362009
0.36204
0.362071
0.362071
0.362102
0.362133
0.362164
0.362195
0.362195
0.362226
0.362257
0.362289
0.36232
0.36232
0.362351
0.362382
0.362414
0.362445
0.362445
0.362476
0.362508
0.362539
0.362571
0.362571
0.362602
0.362634
0.362665
0.362697
0.362697
0.362729
0.36276
0.362792
0.362824
0.362824
0.362855
0.362887
0.362919
0.362951
0.362951
0.362982
0.363014
0.363046
0.363078
0.363078
0.36311
0.363142
0.363174
0.363206
0.363206
0.363238
0.36327
0.363303
0.363335
0.363335
0.363367
0.363399
0.363431
0.363464
0.363464
0.363496
0.363528
0.363561
0.363593
0.363593
0.363626
0.363658
0.363691
0.363723
0.363723
0.363756
0.363788
0.363821
0.363853
0.363853
0.363886
0.363919
0.363952
0.363984
0.363984
0.364017
0.36405
0.364083
0.364116
0.364116
0.364149
0.364181
0.364214
0.364247
0.364247
0.36428
0.364313
0.364347
0.36438
0.36438
0.364413
0.364446
0.364479
0.364512
0.364512
0.364546
0.364579
0.364612
0.364646
0.364646
0.364679
0.364712
0.364746
0.364779
0.364779
0.364813
0.364846
0.36488
0.364913
0.364913
0.364947
0.364981
0.365014
0.365048
0.365048
0.365082
0.365116
0.365149
0.365183
0.365183
0.365217
0.365251
0.365285
0.365319
0.365319
0.365353
0.365387
0.365421
0.365455
0.365455
0.365489
0.365523
0.365557
0.365591
0.365591
0.365625
0.36566
0.365694
0.365728
0.365728
0.365762
0.365797
0.365831
0.365866
0.365866
0.3659
0.365934
0.365969
0.366003
0.366003
0.366038
0.366073
0.366107
0.366142
0.366142
0.366176
0.366211
0.366246
0.366281
0.366281
0.366315
0.36635
0.366385
0.36642
0.36642
0.366455
0.36649
0.366525
0.36656
0.36656
0.366595
0.36663
0.366665
0.3667
0.3667
0.366735
0.36677
0.366805
0.366841
0.366841
0.366876
0.366911
0.366947
0.366982
0.366982
0.367017
0.367053
0.367088
0.367124
0.367124
0.367159
0.367195
0.36723
0.367266
0.367266
0.367301
0.367337
0.367373
0.367408
0.367408
0.367444
0.36748
0.367515
0.367551
0.367551
0.367587
0.367623
0.367659
0.367695
0.367695
0.367731
0.367767
0.367803
0.367839
0.367839
0.367875
0.367911
0.367947
0.367983
0.367983
0.368019
0.368056
0.368092
0.368128
0.368128
0.368164
0.368201
0.368237
0.368274
0.368274
0.36831
0.368346
0.368383
0.368419
0.368419
0.368456
0.368493
0.368529
0.368566
0.368566
0.368602
0.368639
0.368676
0.368713
0.368713
0.368749
0.368786
0.368823
0.36886
0.36886
0.368897
0.368934
0.368971
0.369008
0.369008
0.369045
0.369082
0.369119
0.369156
0.369156
0.369193
0.36923
0.369267
0.369304
0.369304
0.369342
0.369379
0.369416
0.369453
0.369453
0.369491
0.369528
0.369566
0.369603
0.369603
0.369641
0.369678
0.369716
0.369753
0.369753
0.369791
0.369828
0.369866
0.369904
0.369904
0.369941
0.369979
0.370017
0.370055
0.370055
0.370092
0.37013
0.370168
0.370206
0.370206
0.370244
0.370282
0.37032
0.370358
0.370358
0.370396
0.370434
0.370472
0.37051
0.37051
0.370549
0.370587
0.370625
0.370663
0.370663
0.370702
0.37074
0.370778
0.370817
0.370817
0.370855
0.370893
0.370932
0.37097
0.37097
0.371009
0.371047
0.371086
0.371125
0.371125
0.371163
0.371202
0.371241
0.371279
0.371279
0.371318
0.371357
0.371396
0.371435
0.371435
0.371473
0.371512
0.371551
0.37159
0.37159
0.371629
0.371668
0.371707
0.371746
0.371746
0.371785
0.371825
0.371864
0.371903
0.371903
0.371942
0.371981
0.372021
0.37206
0.37206
0.372099
0.372139
0.372178
0.372217
0.372217
0.372257
0.372296
0.372336
0.372375
0.372375
0.372415
0.372455
0.372494
0.372534
0.372534
0.372574
0.372613
0.372653
0.372693
0.372693
0.372733
0.372772
0.372812
0.372852
0.372852
0.372892
0.372932
0.372972
0.373012
0.373012
0.373052
0.373092
0.373132
0.373172
0.373172
0.373212
0.373253
0.373293
0.373333
0.373333
0.373373
0.373414
0.373454
0.373494
0.373494
0.373535
0.373575
0.373616
0.373656
0.373656
0.373696
0.373737
0.373778
0.373818
0.373818
0.373859
0.373899
0.37394
0.373981
0.373981
0.374022
0.374062
0.374103
0.374144
0.374144
0.374185
0.374226
0.374266
0.374307
0.374307
0.374348
0.374389
0.37443
0.374471
0.374471
0.374512
0.374554
0.374595
0.374636
0.374636
0.374677
0.374718
0.37476
0.374801
0.374801
0.374842
0.374883
0.374925
0.374966
0.374966
0.375008
0.375049
0.375091
0.375132
0.375132
0.375174
0.375215
0.375257
0.375298
0.375298
0.37534
0.375382
0.375423
0.375465
0.375465
0.375507
0.375549
0.375591
0.375632
0.375632
0.375674
0.375716
0.375758
0.3758
0.3758
0.375842
0.375884
0.375926
0.375968
0.375968
0.37601
0.376053
0.376095
0.376137
0.376137
0.376179
0.376222
0.376264
0.376306
0.376306
0.376348
0.376391
0.376433
0.376476
0.376476
0.376518
0.376561
0.376603
0.376646
0.376646
0.376688
0.376731
0.376774
0.376816
0.376816
0.376859
0.376902
0.376944
0.376987
0.376987
0.37703
0.377073
0.377116
0.377159
0.377159
0.377201
0.377244
0.377287
0.37733
0.37733
0.377373
0.377417
0.37746
0.377503
0.377503
0.377546
0.377589
0.377632
0.377676
0.377676
0.377719
0.377762
0.377805
0.377849
0.377849
0.377892
0.377936
0.377979
0.378023
0.378023
0.378066
0.37811
0.378153
0.378197
0.378197
0.37824
0.378284
0.378328
0.378371
0.378371
0.378415
0.378459
0.378503
0.378546
0.378546
0.37859
0.378634
0.378678
0.378722
0.378722
0.378766
0.37881
0.378854
0.378898
0.378898
0.378942
0.378986
0.37903
0.379075
0.379075
0.379119
0.379163
0.379207
0.379252
0.379252
0.379296
0.37934
0.379385
0.379429
0.379429
0.379473
0.379518
0.379562
0.379607
0.379607
0.379651
0.379696
0.37974
0.379785
0.379785
0.37983
0.379874
0.379919
0.379964
0.379964
0.380009
0.380053
0.380098
0.380143
0.380143
0.380188
0.380233
0.380278
0.380323
0.380323
0.380368
0.380413
0.380458
0.380503
0.380503
0.380548
0.380593
0.380638
0.380684
0.380684
0.380729
0.380774
0.380819
0.380865
0.380865
0.38091
0.380955
0.381001
0.381046
0.381046
0.381092
0.381137
0.381183
0.381228
0.381228
0.381274
0.381319
0.381365
0.381411
0.381411
0.381456
0.381502
0.381548
0.381594
0.381594
0.381639
0.381685
0.381731
0.381777
0.381777
0.381823
0.381869
0.381915
0.381961
0.381961
0.382007
0.382053
0.382099
0.382145
0.382145
0.382191
0.382238
0.382284
0.38233
0.38233
0.382376
0.382423
0.382469
0.382515
0.382515
0.382562
0.382608
0.382654
0.382701
0.382701
0.382747
0.382794
0.38284
0.382887
0.382887
0.382934
0.38298
0.383027
0.383074
0.383074
0.38312
0.383167
0.383214
0.383261
0.383261
0.383307
0.383354
0.383401
0.383448
0.383448
0.383495
0.383542
0.383589
0.383636
0.383636
0.383683
0.38373
0.383777
0.383825
0.383825
0.383872
0.383919
0.383966
0.384013
0.384013
0.384061
0.384108
0.384155
0.384203
0.384203
0.38425
0.384298
0.384345
0.384393
0.384393
0.38444
0.384488
0.384535
0.384583
0.384583
0.38463
0.384678
0.384726
0.384774
0.384774
0.384821
0.384869
0.384917
0.384965
0.384965
0.385013
0.38506
0.385108
0.385156
0.385156
0.385204
0.385252
0.3853
0.385348
0.385348
0.385396
0.385445
0.385493
0.385541
0.385541
0.385589
0.385637
0.385686
0.385734
0.385734
0.385782
0.385831
0.385879
0.385927
0.385927
0.385976
0.386024
0.386073
0.386121
0.386121
0.38617
0.386218
0.386267
0.386316
0.386316
0.386364
0.386413
0.386462
0.38651
0.38651
0.386559
0.386608
0.386657
0.386706
0.386706
0.386755
0.386804
0.386852
0.386901
0.386901
0.38695
0.387
0.387049
0.387098
0.387098
0.387147
0.387196
0.387245
0.387294
0.387294
0.387344
0.387393
0.387442
0.387491
0.387491
0.387541
0.38759
0.38764
0.387689
0.387689
0.387738
0.387788
0.387837
0.387887
0.387887
0.387937
0.387986
0.388036
0.388085
0.388085
0.388135
0.388185
0.388235
0.388284
0.388284
0.388334
0.388384
0.388434
0.388484
0.388484
0.388534
0.388584
0.388634
0.388684
0.388684
0.388734
0.388784
0.388834
0.388884
0.388884
0.388934
0.388984
0.389034
0.389085
0.389085
0.389135
0.389185
0.389235
0.389286
0.389286
0.389336
0.389387
0.389437
0.389487
0.389487
0.389538
0.389588
0.389639
0.389689
0.389689
0.38974
0.389791
0.389841
0.389892
0.389892
0.389943
0.389994
0.390044
0.390095
0.390095
0.390146
0.390197
0.390248
0.390299
0.390299
0.390349
0.3904
0.390451
0.390502
0.390502
0.390553
0.390605
0.390656
0.390707
0.390707
0.390758
0.390809
0.39086
0.390912
0.390912
0.390963
0.391014
0.391066
0.391117
0.391117
0.391168
0.39122
0.391271
0.391323
0.391323
0.391374
0.391426
0.391477
0.391529
0.391529
0.39158
0.391632
0.391684
0.391735
0.391735
0.391787
0.391839
0.391891
0.391943
0.391943
0.391994
0.392046
0.392098
0.39215
0.39215
0.392202
0.392254
0.392306
0.392358
0.392358
0.39241
0.392462
0.392514
0.392567
0.392567
0.392619
0.392671
0.392723
0.392775
0.392775
0.392828
0.39288
0.392932
0.392985
0.392985
0.393037
0.39309
0.393142
0.393195
0.393195
0.393247
0.3933
0.393352
0.393405
0.393405
0.393457
0.39351
0.393563
0.393616
0.393616
0.393668
0.393721
0.393774
0.393827
0.393827
0.39388
0.393932
0.393985
0.394038
0.394038
0.394091
0.394144
0.394197
0.39425
0.39425
0.394303
0.394357
0.39441
0.394463
0.394463
0.394516
0.394569
0.394623
0.394676
0.394676
0.394729
0.394782
0.394836
0.394889
0.394889
0.394943
0.394996
0.39505
0.395103
0.395103
0.395157
0.39521
0.395264
0.395317
0.395317
0.395371
0.395425
0.395478
0.395532
0.395532
0.395586
0.39564
0.395694
0.395747
0.395747
0.395801
0.395855
0.395909
0.395963
0.395963
0.396017
0.396071
0.396125
0.396179
0.396179
0.396233
0.396287
0.396342
0.396396
0.396396
0.39645
0.396504
0.396558
0.396613
0.396613
0.396667
0.396721
0.396776
0.39683
0.39683
0.396885
0.396939
0.396994
0.397048
0.397048
0.397103
0.397157
0.397212
0.397267
0.397267
0.397321
0.397376
0.397431
0.397485
0.397485
0.39754
0.397595
0.39765
0.397705
0.397705
0.39776
0.397814
0.397869
0.397924
0.397924
0.397979
0.398034
0.398089
0.398145
0.398145
0.3982
0.398255
0.39831
0.398365
0.398365
0.39842
0.398476
0.398531
0.398586
0.398586
0.398642
0.398697
0.398752
0.398808
0.398808
0.398863
0.398919
0.398974
0.39903
0.39903
0.399085
0.399141
0.399196
0.399252
0.399252
0.399308
0.399363
0.399419
0.399475
0.399475
0.399531
0.399587
0.399642
0.399698
0.399698
0.399754
0.39981
0.399866
0.399922
0.399922
0.399978
0.400034
0.40009
0.400146
0.400146
0.400202
0.400258
0.400315
0.400371
0.400371
0.400427
0.400483
0.40054
0.400596
0.400596
0.400652
0.400709
0.400765
0.400822
0.400822
0.400878
0.400934
0.400991
0.401048
0.401048
0.401104
0.401161
0.401217
0.401274
0.401274
0.401331
0.401387
0.401444
0.401501
0.401501
0.401558
0.401614
0.401671
0.401728
0.401728
0.401785
0.401842
0.401899
0.401956
0.401956
0.402013
0.40207
0.402127
0.402184
0.402184
0.402241
0.402299
0.402356
0.402413
0.402413
0.40247
0.402527
0.402585
0.402642
0.402642
0.402699
0.402757
0.402814
0.402872
0.402872
0.402929
0.402987
0.403044
0.403102
0.403102
0.403159
0.403217
0.403274
0.403332
0.403332
0.40339
0.403447
0.403505
0.403563
0.403563
0.403621
0.403679
0.403736
0.403794
0.403794
0.403852
0.40391
0.403968
0.404026
0.404026
0.404084
0.404142
0.4042
0.404258
0.404258
0.404317
0.404375
0.404433
0.404491
0.404491
0.404549
0.404608
0.404666
0.404724
0.404724
0.404783
0.404841
0.404899
0.404958
0.404958
0.405016
0.405075
0.405133
0.405192
0.405192
0.40525
0.405309
0.405368
0.405426
0.405426
0.405485
0.405544
0.405603
0.405661
0.405661
0.40572
0.405779
0.405838
0.405897
0.405897
0.405956
0.406015
0.406073
0.406132
0.406132
0.406191
0.406251
0.40631
0.406369
0.406369
0.406428
0.406487
0.406546
0.406605
0.406605
0.406665
0.406724
0.406783
0.406843
0.406843
0.406902
0.406961
0.407021
0.40708
0.40708
0.40714
0.407199
0.407259
0.407318
0.407318
0.407378
0.407437
0.407497
0.407557
0.407557
0.407616
0.407676
0.407736
0.407796
0.407796
0.407855
0.407915
0.407975
0.408035
0.408035
0.408095
0.408155
0.408215
0.408275
0.408275
0.408335
0.408395
0.408455
0.408515
0.408515
0.408575
0.408635
0.408696
0.408756
0.408756
0.408816
0.408876
0.408937
0.408997
0.408997
0.409057
0.409118
0.409178
0.409238
0.409238
0.409299
0.409359
0.40942
0.409481
0.409481
0.409541
0.409602
0.409662
0.409723
0.409723
0.409784
0.409844
0.409905
0.409966
0.409966
0.410027
0.410088
0.410148
0.410209
0.410209
0.41027
0.410331
0.410392
0.410453
0.410453
0.410514
0.410575
0.410636
0.410697
0.410697
0.410758
0.41082
0.410881
0.410942
0.410942
0.411003
0.411065
0.411126
0.411187
0.411187
0.411248
0.41131
0.411371
0.411433
0.411433
0.411494
0.411556
0.411617
0.411679
0.411679
0.41174
0.411802
0.411864
0.411925
0.411925
0.411987
0.412049
0.41211
0.412172
0.412172
0.412234
0.412296
0.412358
0.412419
0.412419
0.412481
0.412543
0.412605
0.412667
0.412667
0.412729
0.412791
0.412853
0.412915
0.412915
0.412978
0.41304
0.413102
0.413164
0.413164
0.413226
0.413289
0.413351
0.413413
0.413413
0.413476
0.413538
0.4136
0.413663
0.413663
0.413725
0.413788
0.41385
0.413913
0.413913
0.413975
0.414038
0.414101
0.414163
0.414163
0.414226
0.414289
0.414351
0.414414
0.414414
0.414477
0.41454
0.414602
0.414665
0.414665
0.414728
0.414791
0.414854
0.414917
0.414917
0.41498
0.415043
0.415106
0.415169
0.415169
0.415232
0.415296
0.415359
0.415422
0.415422
0.415485
0.415548
0.415612
0.415675
0.415675
0.415738
0.415802
0.415865
0.415929
0.415929
0.415992
0.416055
0.416119
0.416182
0.416182
0.416246
0.41631
0.416373
0.416437
0.416437
0.416501
0.416564
0.416628
0.416692
0.416692
0.416755
0.416819
0.416883
0.416947
0.416947
0.417011
0.417075
0.417139
0.417203
0.417203
0.417267
0.417331
0.417395
0.417459
0.417459
0.417523
0.417587
0.417651
0.417715
0.417715
0.41778
0.417844
0.417908
0.417972
0.417972
0.418037
0.418101
0.418166
0.41823
0.41823
0.418294
0.418359
0.418423
0.418488
0.418488
0.418552
0.418617
0.418682
0.418746
0.418746
0.418811
0.418876
0.41894
0.419005
0.419005
0.41907
0.419135
0.419199
0.419264
0.419264
0.419329
0.419394
0.419459
0.419524
0.419524
0.419589
0.419654
0.419719
0.419784
0.419784
0.419849
0.419914
0.419979
0.420044
0.420044
0.42011
0.420175
0.42024
0.420305
0.420305
0.420371
0.420436
0.420501
0.420567
0.420567
0.420632
0.420698
0.420763
0.420829
0.420829
0.420894
0.42096
0.421025
0.421091
0.421091
0.421157
0.421222
0.421288
0.421354
0.421354
0.42142
0.421485
0.421551
0.421617
0.421617
0.421683
0.421749
0.421815
0.421881
0.421881
0.421946
0.422012
0.422079
0.422145
0.422145
0.422211
0.422277
0.422343
0.422409
0.422409
0.422475
0.422541
0.422608
0.422674
0.422674
0.42274
0.422807
0.422873
0.422939
0.422939
0.423006
0.423072
0.423139
0.423205
0.423205
0.423272
0.423338
0.423405
0.423471
0.423471
0.423538
0.423605
0.423671
0.423738
0.423738
0.423805
0.423871
0.423938
0.424005
0.424005
0.424072
0.424139
0.424206
0.424273
0.424273
0.42434
0.424407
0.424474
0.424541
0.424541
0.424608
0.424675
0.424742
0.424809
0.424809
0.424876
0.424943
0.425011
0.425078
0.425078
0.425145
0.425212
0.42528
0.425347
0.425347
0.425415
0.425482
0.425549
0.425617
0.425617
0.425684
0.425752
0.425819
0.425887
0.425887
0.425955
0.426022
0.42609
0.426158
0.426158
0.426225
0.426293
0.426361
0.426429
0.426429
0.426496
0.426564
0.426632
0.4267
0.4267
0.426768
0.426836
0.426904
0.426972
0.426972
0.42704
0.427108
0.427176
0.427244
0.427244
0.427312
0.427381
0.427449
0.427517
0.427517
0.427585
0.427654
0.427722
0.42779
0.42779
0.427859
0.427927
0.427995
0.428064
0.428064
0.428132
0.428201
0.428269
0.428338
0.428338
0.428407
0.428475
0.428544
0.428612
0.428612
0.428681
0.42875
0.428819
0.428887
0.428887
0.428956
0.429025
0.429094
0.429163
0.429163
0.429232
0.429301
0.42937
0.429439
0.429439
0.429508
0.429577
0.429646
0.429715
0.429715
0.429784
0.429853
0.429922
0.429991
0.429991
0.430061
0.43013
0.430199
0.430269
0.430269
0.430338
0.430407
0.430477
0.430546
0.430546
0.430616
0.430685
0.430755
0.430824
0.430824
0.430894
0.430963
0.431033
0.431103
0.431103
0.431172
0.431242
0.431312
0.431381
0.431381
0.431451
0.431521
0.431591
0.431661
0.431661
0.431731
0.4318
0.43187
0.43194
0.43194
0.43201
0.43208
0.43215
0.43222
0.43222
0.432291
0.432361
0.432431
0.432501
0.432501
0.432571
0.432642
0.432712
0.432782
0.432782
0.432852
0.432923
0.432993
0.433064
0.433064
0.433134
0.433204
0.433275
0.433345
0.433345
0.433416
0.433486
0.433557
0.433628
0.433628
0.433698
0.433769
0.43384
0.43391
0.43391
0.433981
0.434052
0.434123
0.434194
0.434194
0.434264
0.434335
0.434406
0.434477
0.434477
0.434548
0.434619
0.43469
0.434761
0.434761
0.434832
0.434903
0.434975
0.435046
0.435046
0.435117
0.435188
0.435259
0.435331
0.435331
0.435402
0.435473
0.435545
0.435616
0.435616
0.435687
0.435759
0.43583
0.435902
0.435902
0.435973
0.436045
0.436116
0.436188
0.436188
0.43626
0.436331
0.436403
0.436475
0.436475
0.436546
0.436618
0.43669
0.436762
0.436762
0.436833
0.436905
0.436977
0.437049
0.437049
0.437121
0.437193
0.437265
0.437337
0.437337
0.437409
0.437481
0.437553
0.437625
0.437625
0.437698
0.43777
0.437842
0.437914
0.437914
0.437986
0.438059
0.438131
0.438203
0.438203
0.438276
0.438348
0.438421
0.438493
0.438493
0.438566
0.438638
0.438711
0.438783
0.438783
0.438856
0.438928
0.439001
0.439074
0.439074
0.439146
0.439219
0.439292
0.439365
0.439365
0.439437
0.43951
0.439583
0.439656
0.439656
0.439729
0.439802
0.439875
0.439948
0.439948
0.440021
0.440094
0.440167
0.44024
0.44024
0.440313
0.440386
0.440459
0.440533
0.440533
0.440606
0.440679
0.440752
0.440826
0.440826
0.440899
0.440972
0.441046
0.441119
0.441119
0.441193
0.441266
0.44134
0.441413
0.441413
0.441487
0.44156
0.441634
0.441708
0.441708
0.441781
0.441855
0.441929
0.442002
0.442002
0.442076
0.44215
0.442224
0.442298
0.442298
0.442372
0.442445
0.442519
0.442593
0.442593
0.442667
0.442741
0.442815
0.442889
0.442889
0.442964
0.443038
0.443112
0.443186
0.443186
0.44326
0.443334
0.443409
0.443483
0.443483
0.443557
0.443632
0.443706
0.44378
0.44378
0.443855
0.443929
0.444004
0.444078
0.444078
0.444153
0.444227
0.444302
0.444376
0.444376
0.444451
0.444526
0.4446
0.444675
0.444675
0.44475
0.444825
0.444899
0.444974
0.444974
0.445049
0.445124
0.445199
0.445274
0.445274
0.445349
0.445424
0.445499
0.445574
0.445574
0.445649
0.445724
0.445799
0.445874
0.445874
0.445949
0.446024
0.4461
0.446175
0.446175
0.44625
0.446326
0.446401
0.446476
0.446476
0.446552
0.446627
0.446702
0.446778
0.446778
0.446853
0.446929
0.447004
0.44708
0.44708
0.447156
0.447231
0.447307
0.447383
0.447383
0.447458
0.447534
0.44761
0.447686
0.447686
0.447761
0.447837
0.447913
0.447989
0.447989
0.448065
0.448141
0.448217
0.448293
0.448293
0.448369
0.448445
0.448521
0.448597
0.448597
0.448673
0.448749
0.448825
0.448902
0.448902
0.448978
0.449054
0.44913
0.449207
0.449207
0.449283
0.449359
0.449436
0.449512
0.449512
0.449589
0.449665
0.449742
0.449818
0.449818
0.449895
0.449971
0.450048
0.450125
0.450125
0.450201
0.450278
0.450355
0.450431
0.450431
0.450508
0.450585
0.450662
0.450739
0.450739
0.450816
0.450893
0.450969
0.451046
0.451046
0.451123
0.4512