<?xml version="1.0"?>
<VTKFile type="UnstructuredGrid" version="0.1" byte_order="LittleEndian">
<UnstructuredGrid>
<Piece NumberOfPoints="5000" NumberOfCells="4000">
<PointData Scalars="Reaction 0">
<DataArray type="Float32" Name="Reaction 0" format="ascii">
0.517933
0.517933
0.517933
0.517933
0.517933
0.517933
0.517934
0.517934
0.517934
0.517935
0.517935
0.517935
0.517935
0.517936
0.517936
0.517936
0.517937
0.517938
0.517938
0.517939
0.517939
0.51794
0.517941
0.517942
0.517943
0.517943
0.517944
0.517945
0.517946
0.517947
0.517947
0.517948
0.517949
0.517951
0.517952
0.517952
0.517953
0.517955
0.517956
0.517958
0.517958
0.517959
0.517961
0.517963
0.517964
0.517964
0.517966
0.517968
0.51797
0.517972
0.517972
0.517974
0.517976
0.517978
0.51798
0.51798
0.517982
0.517984
0.517986
0.517989
0.517989
0.517991
0.517993
0.517996
0.517998
0.517998
0.518001
0.518003
0.518006
0.518009
0.518009
0.518011
0.518014
0.518017
0.51802
0.51802
0.518023
0.518026
0.518029
0.518032
0.518032
0.518035
0.518038
0.518041
0.518045
0.518045
0.518048
0.518051
0.518055
0.518058
0.518058
0.518062
0.518065
0.518069
0.518073
0.518073
0.518076
0.51808
0.518084
0.518088
0.518088
0.518091
0.518095
0.518099
0.518103
0.518103
0.518108
0.518112
0.518116
0.51812
0.51812
0.518124
0.518129
0.518133
0.518137
0.518137
0.518142
0.518146
0.518151
0.518156
0.518156
0.51816
0.518165
0.51817
0.518175
0.518175
0.518179
0.518184
0.518189
0.518194
0.518194
0.518199
0.518204
0.51821
0.518215
0.518215
0.51822
0.518225
0.518231
0.518236
0.518236
0.518242
0.518247
0.518253
0.518258
0.518258
0.518264
0.518269
0.518275
0.518281
0.518281
0.518287
0.518293
0.518299
0.518305
0.518305
0.518311
0.518317
0.518323
0.518329
0.518329
0.518335
0.518341
0.518348
0.518354
0.518354
0.518361
0.518367
0.518373
0.51838
0.51838
0.518387
0.518393
0.5184
0.518407
0.518407
0.518414
0.51842
0.518427
0.518434
0.518434
0.518441
0.518448
0.518455
0.518463
0.518463
0.51847
0.518477
0.518484
0.518492
0.518492
0.518499
0.518506
0.518514
0.518521
0.518521
0.518529
0.518537
0.518544
0.518552
0.518552
0.51856
0.518568
0.518575
0.518583
0.518583
0.518591
0.518599
0.518607
0.518615
0.518615
0.518624
0.518632
0.51864
0.518648
0.518648
0.518657
0.518665
0.518674
0.518682
0.518682
0.518691
0.518699
0.518708
0.518717
0.518717
0.518725
0.518734
0.518743
0.518752
0.518752
0.518761
0.51877
0.518779
0.518788
0.518788
0.518797
0.518806
0.518815
0.518825
0.518825
0.518834
0.518843
0.518853
0.518862
0.518862
0.518872
0.518881
0.518891
0.518901
0.518901
0.51891
0.51892
0.51893
0.51894
0.51894
0.51895
0.51896
0.51897
0.51898
0.51898
0.51899
0.519
0.51901
0.51902
0.51902
0.519031
0.519041
0.519051
0.519062
0.519062
0.519072
0.519083
0.519094
0.519104
0.519104
0.519115
0.519126
0.519136
0.519147
0.519147
0.519158
0.519169
0.51918
0.519191
0.519191
0.519202
0.519213
0.519225
0.519236
0.519236
0.519247
0.519258
0.51927
0.519281
0.519281
0.519293
0.519304
0.519316
0.519327
0.519327
0.519339
0.519351
0.519362
0.519374
0.519374
0.519386
0.519398
0.51941
0.519422
0.519422
0.519434
0.519446
0.519458
0.519471
0.519471
0.519483
0.519495
0.519508
0.51952
0.51952
0.519532
0.519545
0.519557
0.51957
0.51957
0.519583
0.519595
0.519608
0.519621
0.519621
0.519634
0.519647
0.51966
0.519673
0.519673
0.519686
0.519699
0.519712
0.519725
0.519725
0.519738
0.519752
0.519765
0.519778
0.519778
0.519792
0.519805
0.519819
0.519832
0.519832
0.519846
0.51986
0.519873
0.519887
0.519887
0.519901
0.519915
0.519929
0.519943
0.519943
0.519957
0.519971
0.519985
0.519999
0.519999
0.520013
0.520028
0.520042
0.520056
0.520056
0.520071
0.520085
0.5201
0.520114
0.520114
0.520129
0.520144
0.520158
0.520173
0.520173
0.520188
0.520203
0.520218
0.520233
0.520233
0.520248
0.520263
0.520278
0.520293
0.520293
0.520308
0.520323
0.520339
0.520354
0.520354
0.520369
0.520385
0.5204
0.520416
0.520416
0.520432
0.520447
0.520463
0.520479
0.520479
0.520494
0.52051
0.520526
0.520542
0.520542
0.520558
0.520574
0.52059
0.520606
0.520606
0.520623
0.520639
0.520655
0.520672
0.520672
0.520688
0.520704
0.520721
0.520737
0.520737
0.520754
0.520771
0.520787
0.520804
0.520804
0.520821
0.520838
0.520855
0.520872
0.520872
0.520889
0.520906
0.520923
0.52094
0.52094
0.520957
0.520974
0.520992
0.521009
0.521009
0.521026
0.521044
0.521061
0.521079
0.521079
0.521096
0.521114
0.521132
0.521149
0.521149
0.521167
0.521185
0.521203
0.521221
0.521221
0.521239
0.521257
0.521275
0.521293
0.521293
0.521311
0.521329
0.521348
0.521366
0.521366
0.521384
0.521403
0.521421
0.52144
0.52144
0.521458
0.521477
0.521496
0.521515
0.521515
0.521533
0.521552
0.521571
0.52159
0.52159
0.521609
0.521628
0.521647
0.521666
0.521666
0.521685
0.521705
0.521724
0.521743
0.521743
0.521763
0.521782
0.521801
0.521821
0.521821
0.521841
0.52186
0.52188
0.5219
0.5219
0.521919
0.521939
0.521959
0.521979
0.521979
0.521999
0.522019
0.522039
0.522059
0.522059
0.52208
0.5221
0.52212
0.52214
0.52214
0.522161
0.522181
0.522202
0.522222
0.522222
0.522243
0.522263
0.522284
0.522305
0.522305
0.522326
0.522346
0.522367
0.522388
0.522388
0.522409
0.52243
0.522451
0.522473
0.522473
0.522494
0.522515
0.522536
0.522558
0.522558
0.522579
0.5226
0.522622
0.522643
0.522643
0.522665
0.522687
0.522708
0.52273
0.52273
0.522752
0.522774
0.522796
0.522818
0.522818
0.52284
0.522862
0.522884
0.522906
0.522906
0.522928
0.52295
0.522973
0.522995
0.522995
0.523017
0.52304
0.523062
0.523085
0.523085
0.523108
0.52313
0.523153
0.523176
0.523176
0.523198
0.523221
0.523244
0.523267
0.523267
0.52329
0.523313
0.523336
0.523359
0.523359
0.523383
0.523406
0.523429
0.523453
0.523453
0.523476
0.5235
0.523523
0.523547
0.523547
0.52357
0.523594
0.523618
0.523641
0.523641
0.523665
0.523689
0.523713
0.523737
0.523737
0.523761
0.523785
0.523809
0.523833
0.523833
0.523858
0.523882
0.523906
0.523931
0.523931
0.523955
0.52398
0.524004
0.524029
0.524029
0.524053
0.524078
0.524103
0.524128
0.524128
0.524152
0.524177
0.524202
0.524227
0.524227
0.524252
0.524277
0.524303
0.524328
0.524328
0.524353
0.524378
0.524404
0.524429
0.524429
0.524454
0.52448
0.524506
0.524531
0.524531
0.524557
0.524583
0.524608
0.524634
0.524634
0.52466
0.524686
0.524712
0.524738
0.524738
0.524764
0.52479
0.524816
0.524843
0.524843
0.524869
0.524895
0.524922
0.524948
0.524948
0.524974
0.525001
0.525028
0.525054
0.525054
0.525081
0.525108
0.525134
0.525161
0.525161
0.525188
0.525215
0.525242
0.525269
0.525269
0.525296
0.525323
0.525351
0.525378
0.525378
0.525405
0.525433
0.52546
0.525487
0.525487
0.525515
0.525543
0.52557
0.525598
0.525598
0.525626
0.525653
0.525681
0.525709
0.525709
0.525737
0.525765
0.525793
0.525821
0.525821
0.525849
0.525877
0.525906
0.525934
0.525934
0.525962
0.525991
0.526019
0.526048
0.526048
0.526076
0.526105
0.526134
0.526162
0.526162
0.526191
0.52622
0.526249
0.526278
0.526278
0.526307
0.526336
0.526365
0.526394
0.526394
0.526423
0.526452
0.526482
0.526511
0.526511
0.52654
0.52657
0.526599
0.526629
0.526629
0.526658
0.526688
0.526718
0.526748
0.526748
0.526777
0.526807
0.526837
0.526867
0.526867
0.526897
0.526927
0.526957
0.526987
0.526987
0.527018
0.527048
0.527078
0.527109
0.527109
0.527139
0.52717
0.5272
0.527231
0.527231
0.527261
0.527292
0.527323
0.527354
0.527354
0.527385
0.527415
0.527446
0.527477
0.527477
0.527509
0.52754
0.527571
0.527602
0.527602
0.527633
0.527665
0.527696
0.527728
0.527728
0.527759
0.527791
0.527822
0.527854
0.527854
0.527886
0.527917
0.527949
0.527981
0.527981
0.528013
0.528045
0.528077
0.528109
0.528109
0.528141
0.528173
0.528206
0.528238
0.528238
0.52827
0.528303
0.528335
0.528368
0.528368
0.5284
0.528433
0.528465
0.528498
0.528498
0.528531
0.528564
0.528597
0.528629
0.528629
0.528662
0.528695
0.528729
0.528762
0.528762
0.528795
0.528828
0.528861
0.528895
0.528895
0.528928
0.528962
0.528995
0.529029
0.529029
0.529062
0.529096
0.52913
0.529164
0.529164
0.529197
0.529231
0.529265
0.529299
0.529299
0.529333
0.529367
0.529402
0.529436
0.529436
0.52947
0.529504
0.529539
0.529573
0.529573
0.529608
0.529642
0.529677
0.529711
0.529711
0.529746
0.529781
0.529816
0.529851
0.529851
0.529885
0.52992
0.529955
0.52999
0.52999
0.530026
0.530061
0.530096
0.530131
0.530131
0.530167
0.530202
0.530238
0.530273
0.530273
0.530309
0.530344
0.53038
0.530416
0.530416
0.530451
0.530487
0.530523
0.530559
0.530559
0.530595
0.530631
0.530667
0.530703
0.530703
0.53074
0.530776
0.530812
0.530848
0.530848
0.530885
0.530921
0.530958
0.530995
0.530995
0.531031
0.531068
0.531105
0.531141
0.531141
0.531178
0.531215
0.531252
0.531289
0.531289
0.531326
0.531363
0.531401
0.531438
0.531438
0.531475
0.531513
0.53155
0.531587
0.531587
0.531625
0.531663
0.5317
0.531738
0.531738
0.531776
0.531813
0.531851
0.531889
0.531889
0.531927
0.531965
0.532003
0.532041
0.532041
0.532079
0.532118
0.532156
0.532194
0.532194
0.532233
0.532271
0.53231
0.532348
0.532348
0.532387
0.532426
0.532464
0.532503
0.532503
0.532542
0.532581
0.53262
0.532659
0.532659
0.532698
0.532737
0.532776
0.532815
0.532815
0.532855
0.532894
0.532933
0.532973
0.532973
0.533012
0.533052
0.533091
0.533131
0.533131
0.533171
0.533211
0.533251
0.53329
0.53329
0.53333
0.53337
0.53341
0.533451
0.533451
0.533491
0.533531
0.533571
0.533612
0.533612
0.533652
0.533692
0.533733
0.533773
0.533773
0.533814
0.533855
0.533896
0.533936
0.533936
0.533977
0.534018
0.534059
0.5341
0.5341
0.534141
0.534182
0.534223
0.534265
0.534265
0.534306
0.534347
0.534389
0.53443
0.53443
0.534472
0.534513
0.534555
0.534597
0.534597
0.534638
0.53468
0.534722
0.534764
0.534764
0.534806
0.534848
0.53489
0.534932
0.534932
0.534974
0.535016
0.535059
0.535101
0.535101
0.535144
0.535186
0.535229
0.535271
0.535271
0.535314
0.535356
0.535399
0.535442
0.535442
0.535485
0.535528
0.535571
0.535614
0.535614
0.535657
0.5357
0.535743
0.535787
0.535787
0.53583
0.535873
0.535917
0.53596
0.53596
0.536004
0.536047
0.536091
0.536135
0.536135
0.536179
0.536222
0.536266
0.53631
0.53631
0.536354
0.536398
0.536443
0.536487
0.536487
0.536531
0.536575
0.53662
0.536664
0.536664
0.536708
0.536753
0.536798
0.536842
0.536842
0.536887
0.536932
0.536977
0.537021
0.537021
0.537066
0.537111
0.537156
0.537201
0.537201
0.537247
0.537292
0.537337
0.537382
0.537382
0.537428
0.537473
0.537519
0.537564
0.537564
0.53761
0.537656
0.537701
0.537747
0.537747
0.537793
0.537839
0.537885
0.537931
0.537931
0.537977
0.538023
0.538069
0.538116
0.538116
0.538162
0.538208
0.538255
0.538301
0.538301
0.538348
0.538394
0.538441
0.538488
0.538488
0.538535
0.538581
0.538628
0.538675
0.538675
0.538722
0.538769
0.538817
0.538864
0.538864
0.538911
0.538958
0.539006
0.539053
0.539053
0.539101
0.539148
0.539196
0.539243
0.539243
0.539291
0.539339
0.539387
0.539435
0.539435
0.539483
0.539531
0.539579
0.539627
0.539627
0.539675
0.539723
0.539772
0.53982
0.53982
0.539868
0.539917
0.539965
0.540014
0.540014
0.540063
0.540111
0.54016
0.540209
0.540209
0.540258
0.540307
0.540356
0.540405
0.540405
0.540454
0.540503
0.540553
0.540602
0.540602
0.540651
0.540701
0.54075
0.5408
0.5408
0.540849
0.540899
0.540949
0.540999
0.540999
0.541049
0.541098
0.541148
0.541198
0.541198
0.541249
0.541299
0.541349
0.541399
0.541399
0.54145
0.5415
0.54155
0.541601
0.541601
0.541652
0.541702
0.541753
0.541804
0.541804
0.541854
0.541905
0.541956
0.542007
0.542007
0.542058
0.542109
0.542161
0.542212
0.542212
0.542263
0.542314
0.542366
0.542417
0.542417
0.542469
0.542521
0.542572
0.542624
0.542624
0.542676
0.542728
0.542779
0.542831
0.542831
0.542883
0.542935
0.542988
0.54304
0.54304
0.543092
0.543144
0.543197
0.543249
0.543249
0.543302
0.543354
0.543407
0.54346
0.54346
0.543512
0.543565
0.543618
0.543671
0.543671
0.543724
0.543777
0.54383
0.543883
0.543883
0.543937
0.54399
0.544043
0.544097
0.544097
0.54415
0.544204
0.544257
0.544311
0.544311
0.544365
0.544419
0.544473
0.544526
0.544526
0.54458
0.544634
0.544689
0.544743
0.544743
0.544797
0.544851
0.544906
0.54496
0.54496
0.545015
0.545069
0.545124
0.545178
0.545178
0.545233
0.545288
0.545343
0.545398
0.545398
0.545453
0.545508
0.545563
0.545618
0.545618
0.545673
0.545728
0.545784
0.545839
0.545839
0.545895
0.54595
0.546006
0.546061
0.546061
0.546117
0.546173
0.546229
0.546285
0.546285
0.546341
0.546397
0.546453
0.546509
0.546509
0.546565
0.546621
0.546678
0.546734
0.546734
0.546791
0.546847
0.546904
0.546961
0.546961
0.547017
0.547074
0.547131
0.547188
0.547188
0.547245
0.547302
0.547359
0.547416
0.547416
0.547473
0.547531
0.547588
0.547645
0.547645
0.547703
0.547761
0.547818
0.547876
0.547876
0.547934
0.547991
0.548049
0.548107
0.548107
0.548165
0.548223
0.548281
0.54834
0.54834
0.548398
0.548456
0.548514
0.548573
0.548573
0.548631
0.54869
0.548749
0.548807
0.548807
0.548866
0.548925
0.548984
0.549043
0.549043
0.549102
0.549161
0.54922
0.549279
0.549279
0.549339
0.549398
0.549457
0.549517
0.549517
0.549576
0.549636
0.549696
0.549755
0.549755
0.549815
0.549875
0.549935
0.549995
0.549995
0.550055
0.550115
0.550175
0.550236
0.550236
0.550296
0.550356
0.550417
0.550477
0.550477
0.550538
0.550598
0.550659
0.55072
0.55072
0.550781
0.550842
0.550903
0.550964
0.550964
0.551025
0.551086
0.551147
0.551208
0.551208
0.55127
0.551331
0.551393
0.551454
0.551454
0.551516
0.551578
0.551639
0.551701
0.551701
0.551763
0.551825
0.551887
0.551949
0.551949
0.552011
0.552073
0.552136
0.552198
0.552198
0.55226
0.552323
0.552385
0.552448
0.552448
0.552511
0.552574
0.552636
0.552699
0.552699
0.552762
0.552825
0.552888
0.552951
0.552951
0.553015
0.553078
0.553141
0.553205
0.553205
0.553268
0.553332
0.553395
0.553459
0.553459
0.553523
0.553587
0.55365
0.553714
0.553714
0.553778
0.553842
0.553907
0.553971
0.553971
0.554035
0.554099
0.554164
0.554228
0.554228
0.554293
0.554358
0.554422
0.554487
0.554487
0.554552
0.554617
0.554682
0.554747
0.554747
0.554812
0.554877
0.554942
0.555007
0.555007
0.555073
0.555138
0.555204
0.555269
0.555269
0.555335
0.555401
0.555466
0.555532
0.555532
0.555598
0.555664
0.55573
0.555796
0.555796
0.555862
0.555929
0.555995
0.556061
0.556061
0.556128
0.556194
0.556261
0.556328
0.556328
0.556394
0.556461
0.556528
0.556595
0.556595
0.556662
0.556729
0.556796
0.556863
0.556863
0.556931
0.556998
0.557065
0.557133
0.557133
0.557201
0.557268
0.557336
0.557404
0.557404
0.557471
0.557539
0.557607
0.557675
0.557675
0.557743
0.557812
0.55788
0.557948
0.557948
0.558017
0.558085
0.558154
0.558222
0.558222
0.558291
0.55836
0.558428
0.558497
0.558497
0.558566
0.558635
0.558704
0.558774
0.558774
0.558843
0.558912
0.558981
0.559051
0.559051
0.55912
0.55919
0.55926
0.559329
0.559329
0.559399
0.559468
0.559538
0.559607
0.559607
0.559676
0.559745
0.559811
0.559877
0.559877
0.55994
0.559997
0.560047
0.560091
0.560091
0.560134
0.560175
0.560216
0.560256
0.560256
0.560297
0.560337
0.560377
0.560417
0.560417
0.560458
0.560498
0.560538
0.560579
0.560579
0.560619
0.560659
0.5607
0.56074
0.56074
0.560781
0.560821
0.560861
0.560902
0.560902
0.560942
0.560982
0.561022
0.561062
0.561062
0.561101
0.561139
0.561176
0.561212
0.561212
0.561244
0.561274
0.5613
0.561323
0.561323
0.561344
0.561364
0.561383
0.561401
0.561401
0.561418
0.561436
0.561454
0.561471
0.561471
0.561489
0.561506
0.561524
0.561541
0.561541
0.561558
0.561576
0.561593
0.561611
0.561611
0.561628
0.561645
0.561662
0.56168
0.56168
0.561697
0.561713
0.56173
0.561746
0.561746
0.561762
0.561776
0.56179
0.561803
0.561803
0.561815
0.561826
0.561835
0.561844
0.561844
0.561851
0.561859
0.561865
0.561871
0.561871
0.561877
0.561883
0.561888
0.561894
0.561894
0.5619
0.561905
0.56191
0.561916
0.561916
0.561921
0.561927
0.561932
0.561938
0.561938
0.561943
0.561948
0.561953
0.561958
0.561958
0.561963
0.561968
0.561972
0.561977
0.561977
0.561981
0.561984
0.561988
0.561991
0.561991
0.561993
0.561996
0.561998
0.562
0.562
0.562002
0.562003
0.562004
0.562005
0.562005
0.562006
0.562007
0.562008
0.562009
0.562009
0.56201
0.56201
0.562011
0.562012
0.562012
0.562013
0.562013
0.562014
0.562015
0.562015
0.562015
0.562016
0.562016
0.562017
0.562017
0.562017
0.562018
0.562018
0.562018
0.562018
0.562018
0.562018
0.562018
0.562019
0.562019
0.562019
0.562019
0.562019
0.562018
0.562018
0.562018
0.562018
0.562018
0.562017
0.562017
0.562017
0.562016
0.562016
0.562016
0.562016
0.562015
0.562015
0.562014
0.562014
0.562014
0.562013
0.562013
0.562012
0.562011
0.562011
0.562011
0.56201
0.56201
0.562009
0.562009
0.562009
0.562008
0.562008
0.562007
0.562007
0.562007
0.562006
0.562006
0.562006
0.562006
0.562005
0.562005
0.562004
0.562004
0.562004
0.562004
0.562003
0.562003
0.562002
0.562002
0.562002
0.562001
0.562001
0.562
0.562
0.562
0.561999
0.561999
0.561998
0.561998
0.561998
0.561997
0.561997
0.561996
0.561996
0.561996
0.561995
0.561995
0.561995
0.561995
0.561994
0.561994
0.561994
0.561993
0.561993
0.561993
0.561993
0.561992
0.561992
0.561992
0.561992
0.561992
0.561991
0.561991
0.561991
0.561991
0.561991
0.56199
0.56199
0.56199
0.56199
0.56199
0.561989
0.561989
0.561989
0.561989
0.561988
0.561988
0.561988
0.561988
0.561988
0.561987
0.561987
0.561987
0.561987
0.561987
0.561987
0.561987
0.561986
0.561986
0.561986
0.561986
0.561986
0.561986
0.561986
0.561986
0.561986
0.561986
0.561986
0.561986
0.561985
0.561985
0.561985
0.561985
0.561985
0.561985
0.561985
0.561985
0.561985
0.561985
0.561985
0.561985
0.561984
0.561984
0.561984
0.561984
0.561984
0.561984
0.561984
0.561984
0.561984
0.561984
0.561984
0.561984
0.561984
0.561984
0.561984
0.561984
0.561984
0.561984
0.561984
0.561984
0.561984
0.561984
0.561984
0.561984
0.561984
0.561984
0.561984
0.561984
0.561984
0.561984
0.561984
0.561984
0.561984
0.561984
0.561984
0.561984
0.561984
0.561984
0.561984
0.561984
0.561984
0.561984
0.561984
0.561984
0.561984
0.561984
0.561984
0.561984
0.561984
0.561984
0.561984
0.561984
0.561984
0.561984
0.561984
0.561984
0.561984
0.561984
0.561984
0.561984
0.561984
0.561984
0.561984
0.561984
0.561984
0.561984
0.561984
0.561984
0.561984
0.561984
0.561984
0.561984
0.561984
0.561984
0.561984
0.561984
0.561984
0.561984
0.561984
0.561984
0.561984
0.561984
0.561984
0.561984
0.561985
0.561985
0.561985
0.561985
0.561985
0.561985
0.561985
0.561985
0.561985
0.561985
0.561985
0.561985
0.561985
0.561985
0.561985
0.561985
0.561985
0.561985
0.561985
0.561985
0.561985
0.561985
0.561985
0.561985
0.561985
0.561985
0.561985
0.561985
0.561985
0.561985
0.561985
0.561986
0.561986
0.561986
0.561986
0.561986
0.561986
0.561986
0.561986
0.561986
0.561986
0.561986
0.561986
0.561986
0.561986
0.561986
0.561986
0.561986
0.561986
0.561986
0.561986
0.561986
0.561986
0.561986
0.561986
0.561986
0.561986
0.561986
0.561986
0.561987
0.561987
0.561987
0.561987
0.561987
0.561987
0.561987
0.561987
0.561987
0.561987
0.561987
0.561987
0.561987
0.561987
0.561987
0.561987
0.561987
0.561987
0.561987
0.561987
0.561987
0.561987
0.561987
0.561987
0.561987
0.561987
0.561988
0.561988
0.561988
0.561988
0.561988
0.561988
0.561988
0.561988
0.561988
0.561988
0.561988
0.561988
0.561988
0.561988
0.561988
0.561988
0.561988
0.561988
0.561988
0.561988
0.561988
0.561988
0.561988
0.561988
0.561989
0.561989
0.561989
0.561989
0.561989
0.561989
0.561989
0.561989
0.561989
0.561989
0.561989
0.561989
0.561989
0.561989
0.561989
0.561989
0.561989
0.561989
0.561989
0.561989
0.561989
0.561989
0.561989
0.56199
0.56199
0.56199
0.56199
0.56199
0.56199
0.56199
0.56199
0.56199
0.56199
0.56199
0.56199
0.56199
0.56199
0.56199
0.56199
0.56199
0.56199
0.56199
0.56199
0.56199
0.56199
0.56199
0.561991
0.561991
0.561991
0.561991
0.561991
0.561991
0.561991
0.561991
0.561991
0.561991
0.561991
0.561991
0.561991
0.561991
0.561991
0.561991
0.561991
0.561991
0.561991
0.561991
0.561991
0.561992
0.561992
0.561992
0.561992
0.561992
0.561992
0.561992
0.561992
0.561992
0.561992
0.561992
0.561992
0.561992
0.561992
0.561992
0.561992
0.561992
0.561992
0.561992
0.561992
0.561993
0.561993
0.561993
0.561993
0.561993
0.561993
0.561993
0.561993
0.561993
0.561993
0.561993
0.561993
0.561993
0.561993
0.561993
0.561993
0.561993
0.561993
0.561993
0.561994
0.561994
0.561994
0.561994
0.561994
0.561994
0.561994
0.561994
0.561994
0.561994
0.561994
0.561994
0.561994
0.561994
0.561994
0.561994
0.561994
0.561994
0.561994
0.561995
0.561995
0.561995
0.561995
0.561995
0.561995
0.561995
0.561995
0.561995
0.561995
0.561995
0.561995
0.561995
0.561995
0.561995
0.561995
0.561995
0.561996
0.561996
0.561996
0.561996
0.561996
0.561996
0.561996
0.561996
0.561996
0.561996
0.561996
0.561996
0.561996
0.561996
0.561996
0.561996
0.561996
0.561996
0.561996
0.561997
0.561997
0.561997
0.561997
0.561997
0.561997
0.561997
0.561997
0.561997
0.561997
0.561997
0.561997
0.561997
0.561997
0.561997
0.561998
0.561998
0.561998
0.561998
0.561998
0.561998
0.561998
0.561998
0.561998
0.561998
0.561998
0.561998
0.561998
0.561998
0.561998
0.561998
0.561998
0.561999
0.561999
0.561999
0.561999
0.561999
0.561999
0.561999
0.561999
0.561999
0.561999
0.561999
0.561999
0.561999
0.561999
0.561999
0.562
0.562
0.562
0.562
0.562
0.562
0.562
0.562
0.562
0.562
0.562
0.562
0.562
0.562
0.562
0.562001
0.562001
0.562001
0.562001
0.562001
0.562001
0.562001
0.562001
0.562001
0.562001
0.562001
0.562001
0.562001
0.562001
0.562001
0.562002
0.562002
0.562002
0.562002
0.562002
0.562002
0.562002
0.562002
0.562002
0.562002
0.562002
0.562002
0.562002
0.562002
0.562002
0.562003
0.562003
0.562003
0.562003
0.562003
0.562003
0.562003
0.562003
0.562003
0.562003
0.562003
0.562003
0.562003
0.562003
0.562004
0.562004
0.562004
0.562004
0.562004
0.562004
0.562004
0.562004
0.562004
0.562004
0.562004
0.562004
0.562004
0.562004
0.562005
0.562005
0.562005
0.562005
0.562005
0.562005
0.562005
0.562005
0.562005
0.562005
0.562005
0.562005
0.562005
0.562005
0.562006
0.562006
0.562006
0.562006
0.562006
0.562006
0.562006
0.562006
0.562006
0.562006
0.562006
0.562006
0.562006
0.562007
0.562007
0.562007
0.562007
0.562007
0.562007
0.562007
0.562007
0.562007
0.562007
0.562007
0.562007
0.562007
0.562008
0.562008
0.562008
0.562008
0.562008
0.562008
0.562008
0.562008
0.562008
0.562008
0.562008
0.562008
0.562009
0.562009
0.562009
0.562009
0.562009
0.562009
0.562009
0.562009
0.562009
0.562009
0.562009
0.562009
0.562009
0.56201
0.56201
0.56201
0.56201
0.56201
0.56201
0.56201
0.56201
0.56201
0.56201
0.56201
0.56201
0.562011
0.562011
0.562011
0.562011
0.562011
0.562011
0.562011
0.562011
0.562011
0.562011
0.562011
0.562011
0.562012
0.562012
0.562012
0.562012
0.562012
0.562012
0.562012
0.562012
0.562012
0.562012
0.562012
0.562012
0.562013
0.562013
0.562013
0.562013
0.562013
0.562013
0.562013
0.562013
0.562013
0.562013
0.562013
0.562014
0.562014
0.562014
0.562014
0.562014
0.562014
0.562014
0.562014
0.562014
0.562014
0.562014
0.562014
0.562015
0.562015
0.562015
0.562015
0.562015
0.562015
0.562015
0.562015
0.562015
0.562015
0.562015
0.562015
0.562016
0.562016
0.562016
0.562016
0.562016
0.562016
0.562016
0.562016
0.562016
0.562016
0.562017
0.562017
0.562017
0.562017
0.562017
0.562017
0.562017
0.562017
0.562017
0.562017
0.562017
0.562018
0.562018
0.562018
0.562018
0.562018
0.562018
0.562018
0.562018
0.562018
0.562018
0.562018
0.562018
0.562019
0.562019
0.562019
0.562019
0.562019
0.562019
0.562019
0.562019
0.562019
0.562019
0.56202
0.56202
0.56202
0.56202
0.56202
0.56202
0.56202
0.56202
0.56202
0.56202
0.56202
0.562021
0.562021
0.562021
0.562021
0.562021
0.562021
0.562021
0.562021
0.562021
0.562021
0.562022
0.562022
0.562022
0.562022
0.562022
0.562022
0.562022
0.562022
0.562022
0.562022
0.562023
0.562023
0.562023
0.562023
0.562023
0.562023
0.562023
0.562023
0.562023
0.562023
0.562024
0.562024
0.562024
0.562024
0.562024
0.562024
0.562024
0.562024
0.562024
0.562024
0.562025
0.562025
0.562025
0.562025
0.562025
0.562025
0.562025
0.562025
0.562025
0.562025
0.562026
0.562026
0.562026
0.562026
0.562026
0.562026
0.562026
0.562026
0.562026
0.562026
0.562027
0.562027
0.562027
0.562027
0.562027
0.562027
0.562027
0.562027
0.562027
0.562027
0.562028
0.562028
0.562028
0.562028
0.562028
0.562028
0.562028
0.562028
0.562028
0.562029
0.562029
0.562029
0.562029
0.562029
0.562029
0.562029
0.562029
0.562029
0.562029
0.56203
0.56203
0.56203
0.56203
0.56203
0.56203
0.56203
0.56203
0.562031
0.562031
0.562031
0.562031
0.562031
0.562031
0.562031
0.562031
0.562031
0.562032
0.562032
0.562032
0.562032
0.562032
0.562032
0.562032
0.562032
0.562032
0.562032
0.562033
0.562033
0.562033
0.562033
0.562033
0.562033
0.562033
0.562033
0.562033
0.562034
0.562034
0.562034
0.562034
0.562034
0.562034
0.562034
0.562034
0.562034
0.562035
0.562035
0.562035
0.562035
0.562035
0.562035
0.562035
0.562035
0.562036
0.562036
0.562036
0.562036
0.562036
0.562036
0.562036
0.562036
0.562036
0.562037
0.562037
0.562037
0.562037
0.562037
0.562037
0.562037
0.562037
0.562037
0.562038
0.562038
0.562038
0.562038
0.562038
0.562038
0.562038
0.562038
0.562038
0.562039
0.562039
0.562039
0.562039
0.562039
0.562039
0.562039
0.562039
0.56204
0.56204
0.56204
0.56204
0.56204
0.56204
0.56204
0.56204
0.562041
0.562041
0.562041
0.562041
0.562041
0.562041
0.562041
0.562041
0.562041
0.562042
0.562042
0.562042
0.562042
0.562042
0.562042
0.562042
0.562042
0.562043
0.562043
0.562043
0.562043
0.562043
0.562043
0.562043
0.562043
0.562044
0.562044
0.562044
0.562044
0.562044
0.562044
0.562044
0.562044
0.562044
0.562045
0.562045
0.562045
0.562045
0.562045
0.562045
0.562045
0.562046
0.562046
0.562046
0.562046
0.562046
0.562046
0.562046
0.562046
0.562046
0.562047
0.562047
0.562047
0.562047
0.562047
0.562047
0.562047
0.562048
0.562048
0.562048
0.562048
0.562048
0.562048
0.562048
0.562048
0.562049
0.562049
0.562049
0.562049
0.562049
0.562049
0.562049
0.56205
0.56205
0.56205
0.56205
0.56205
0.56205
0.56205
0.56205
0.56205
0.562051
0.562051
0.562051
0.562051
0.562051
0.562051
0.562051
0.562051
0.562052
0.562052
0.562052
0.562052
0.562052
0.562052
0.562052
0.562053
0.562053
0.562053
0.562053
0.562053
0.562053
0.562053
0.562053
0.562054
0.562054
0.562054
0.562054
0.562054
0.562054
0.562054
0.562055
0.562055
0.562055
0.562055
0.562055
0.562055
0.562055
0.562055
0.562056
0.562056
0.562056
0.562056
0.562056
0.562056
0.562056
0.562057
0.562057
0.562057
0.562057
0.562057
0.562057
0.562057
0.562057
0.562058
0.562058
0.562058
0.562058
0.562058
0.562058
0.562059
0.562059
0.562059
0.562059
0.562059
0.562059
0.562059
0.56206
0.56206
0.56206
0.56206
0.56206
0.56206
0.56206
0.56206
0.562061
0.562061
0.562061
0.562061
0.562061
0.562061
0.562061
0.562062
0.562062
0.562062
0.562062
0.562062
0.562062
0.562062
0.562063
0.562063
0.562063
0.562063
0.562063
0.562063
0.562063
0.562064
0.562064
0.562064
0.562064
0.562064
0.562064
0.562065
0.562065
0.562065
0.562065
0.562065
0.562065
0.562065
0.562065
0.562066
0.562066
0.562066
0.562066
0.562066
0.562066
0.562066
0.562067
0.562067
0.562067
0.562067
0.562067
0.562067
0.562067
0.562068
0.562068
0.562068
0.562068
0.562068
0.562068
0.562069
0.562069
0.562069
0.562069
0.562069
0.562069
0.562069
0.56207
0.56207
0.56207
0.56207
0.56207
0.56207
0.56207
0.562071
0.562071
0.562071
0.562071
0.562071
0.562071
0.562071
0.562072
0.562072
0.562072
0.562072
0.562072
0.562072
0.562073
0.562073
0.562073
0.562073
0.562073
0.562073
0.562073
0.562074
0.562074
0.562074
0.562074
0.562074
0.562074
0.562075
0.562075
0.562075
0.562075
0.562075
0.562075
0.562075
0.562076
0.562076
0.562076
0.562076
0.562076
0.562076
0.562076
0.562077
0.562077
0.562077
0.562077
0.562077
0.562077
0.562078
0.562078
0.562078
0.562078
0.562078
0.562078
0.562079
0.562079
0.562079
0.562079
0.562079
0.562079
0.56208
0.56208
0.56208
0.56208
0.56208
0.56208
0.56208
0.562081
0.562081
0.562081
0.562081
0.562081
0.562081
0.562082
0.562082
0.562082
0.562082
0.562082
0.562082
0.562083
0.562083
0.562083
0.562083
0.562083
0.562083
0.562084
0.562084
0.562084
0.562084
0.562084
0.562084
0.562084
0.562085
0.562085
0.562085
0.562085
0.562085
0.562085
0.562086
0.562086
0.562086
0.562086
0.562086
0.562086
0.562087
0.562087
0.562087
0.562087
0.562087
0.562087
0.562088
0.562088
0.562088
0.562088
0.562088
0.562088
0.562088
0.562089
0.562089
0.562089
0.562089
0.562089
0.562089
0.56209
0.56209
0.56209
0.56209
0.56209
0.562091
0.562091
0.562091
0.562091
0.562091
0.562091
0.562092
0.562092
0.562092
0.562092
0.562092
0.562092
0.562093
0.562093
0.562093
0.562093
0.562093
0.562093
0.562093
0.562094
0.562094
0.562094
0.562094
0.562094
0.562095
0.562095
0.562095
0.562095
0.562095
0.562095
0.562096
0.562096
0.562096
0.562096
0.562096
0.562096
0.562097
0.562097
0.562097
0.562097
0.562097
0.562098
0.562098
0.562098
0.562098
0.562098
0.562098
0.562099
0.562099
0.562099
0.562099
0.562099
0.5621
0.5621
0.5621
0.5621
0.5621
0.5621
0.5621
0.562101
0.562101
0.562101
0.562101
0.562101
0.562102
0.562102
0.562102
0.562102
0.562102
0.562102
0.562103
0.562103
0.562103
0.562103
0.562103
0.562104
0.562104
0.562104
0.562104
0.562104
0.562104
0.562105
0.562105
0.562105
0.562105
0.562105
0.562106
0.562106
0.562106
0.562106
0.562106
0.562106
0.562107
0.562107
0.562107
0.562107
0.562107
0.562108
0.562108
0.562108
0.562108
0.562108
0.562108
0.562108
0.562109
0.562109
0.562109
0.562109
0.562109
0.56211
0.56211
0.56211
0.56211
0.56211
0.562111
0.562111
0.562111
0.562111
0.562111
0.562111
0.562112
0.562112
0.562112
0.562112
0.562112
0.562113
0.562113
0.562113
0.562113
0.562113
0.562114
0.562114
0.562114
0.562114
0.562114
0.562115
0.562115
0.562115
0.562115
0.562115
0.562115
0.562116
0.562116
0.562116
0.562116
0.562116
0.562117
0.562117
0.562117
0.562117
0.562117
0.562118
0.562118
0.562118
0.562118
0.562118
0.562119
0.562119
0.562119
0.562119
0.562119
0.562119
0.56212
0.56212
0.56212
0.56212
0.56212
0.562121
0.562121
0.562121
0.562121
0.562121
0.562122
0.562122
0.562122
0.562122
0.562122
0.562123
0.562123
0.562123
0.562123
0.562123
0.562124
0.562124
0.562124
0.562124
0.562124
0.562125
0.562125
0.562125
0.562125
0.562125
0.562126
0.562126
0.562126
0.562126
0.562126
0.562127
0.562127
0.562127
0.562127
0.562127
0.562128
0.562128
0.562128
0.562128
0.562128
0.562128
0.562128
0.562129
0.562129
0.562129
0.56213
0.56213
0.56213
0.56213
0.56213
0.562131
0.562131
0.562131
0.562131
0.562131
0.562132
0.562132
0.562132
0.562132
0.562132
0.562133
0.562133
0.562133
0.562133
0.562133
0.562134
0.562134
0.562134
0.562134
0.562134
0.562135
0.562135
0.562135
0.562135
0.562135
0.562136
0.562136
0.562136
0.562136
0.562136
0.562137
0.562137
0.562137
0.562137
0.562137
0.562138
0.562138
0.562138
0.562138
0.562138
0.562139
0.562139
0.562139