<?xml version="1.0"?>
<VTKFile type="UnstructuredGrid" version="0.1" byte_order="LittleEndian">
<UnstructuredGrid>
<Piece NumberOfPoints="5000" NumberOfCells="4000">
<PointData Scalars="Reaction 0">
<DataArray type="Float32" Name="Reaction 0" format="ascii">
0.56689
0.56689
0.56689
0.56689
0.56689
0.56689
0.56689
0.56689
0.56689
0.56689
0.56689
0.56689
0.56689
0.56689
0.56689
0.56689
0.56689
0.56689
0.56689
0.56689
0.56689
0.56689
0.56689
0.56689
0.56689
0.56689
0.56689
0.566891
0.566891
0.566891
0.566891
0.566891
0.566891
0.566891
0.566891
0.566891
0.566891
0.566891
0.566891
0.566891
0.566891
0.566891
0.566891
0.566891
0.566891
0.566891
0.566891
0.566891
0.566891
0.566891
0.566891
0.566891
0.566891
0.566891
0.566891
0.566891
0.566891
0.566891
0.566891
0.566891
0.566891
0.566891
0.566891
0.566891
0.566891
0.566891
0.566892
0.566892
0.566892
0.566892
0.566892
0.566892
0.566892
0.566892
0.566892
0.566892
0.566892
0.566892
0.566892
0.566892
0.566892
0.566892
0.566892
0.566892
0.566892
0.566892
0.566892
0.566892
0.566892
0.566893
0.566893
0.566893
0.566893
0.566893
0.566893
0.566893
0.566893
0.566893
0.566893
0.566893
0.566893
0.566893
0.566893
0.566893
0.566893
0.566893
0.566893
0.566894
0.566894
0.566894
0.566894
0.566894
0.566894
0.566894
0.566894
0.566894
0.566894
0.566894
0.566894
0.566894
0.566894
0.566894
0.566894
0.566895
0.566895
0.566895
0.566895
0.566895
0.566895
0.566895
0.566895
0.566895
0.566895
0.566895
0.566895
0.566895
0.566895
0.566896
0.566896
0.566896
0.566896
0.566896
0.566896
0.566896
0.566896
0.566896
0.566896
0.566896
0.566896
0.566897
0.566897
0.566897
0.566897
0.566897
0.566897
0.566897
0.566897
0.566897
0.566897
0.566897
0.566897
0.566898
0.566898
0.566898
0.566898
0.566898
0.566898
0.566898
0.566898
0.566898
0.566898
0.566898
0.566899
0.566899
0.566899
0.566899
0.566899
0.566899
0.566899
0.566899
0.566899
0.566899
0.5669
0.5669
0.5669
0.5669
0.5669
0.5669
0.5669
0.5669
0.5669
0.5669
0.566901
0.566901
0.566901
0.566901
0.566901
0.566901
0.566901
0.566901
0.566901
0.566902
0.566902
0.566902
0.566902
0.566902
0.566902
0.566902
0.566902
0.566903
0.566903
0.566903
0.566903
0.566903
0.566903
0.566903
0.566903
0.566903
0.566904
0.566904
0.566904
0.566904
0.566904
0.566904
0.566904
0.566904
0.566905
0.566905
0.566905
0.566905
0.566905
0.566905
0.566905
0.566905
0.566906
0.566906
0.566906
0.566906
0.566906
0.566906
0.566906
0.566906
0.566907
0.566907
0.566907
0.566907
0.566907
0.566907
0.566907
0.566908
0.566908
0.566908
0.566908
0.566908
0.566908
0.566908
0.566909
0.566909
0.566909
0.566909
0.566909
0.566909
0.566909
0.56691
0.56691
0.56691
0.56691
0.56691
0.56691
0.566911
0.566911
0.566911
0.566911
0.566911
0.566911
0.566911
0.566912
0.566912
0.566912
0.566912
0.566912
0.566912
0.566912
0.566913
0.566913
0.566913
0.566913
0.566913
0.566913
0.566914
0.566914
0.566914
0.566914
0.566914
0.566914
0.566914
0.566915
0.566915
0.566915
0.566915
0.566915
0.566916
0.566916
0.566916
0.566916
0.566916
0.566916
0.566917
0.566917
0.566917
0.566917
0.566917
0.566917
0.566918
0.566918
0.566918
0.566918
0.566918
0.566919
0.566919
0.566919
0.566919
0.566919
0.566919
0.56692
0.56692
0.56692
0.56692
0.56692
0.566921
0.566921
0.566921
0.566921
0.566921
0.566922
0.566922
0.566922
0.566922
0.566922
0.566922
0.566922
0.566923
0.566923
0.566923
0.566923
0.566923
0.566924
0.566924
0.566924
0.566924
0.566924
0.566925
0.566925
0.566925
0.566925
0.566925
0.566926
0.566926
0.566926
0.566926
0.566926
0.566927
0.566927
0.566927
0.566927
0.566927
0.566928
0.566928
0.566928
0.566928
0.566928
0.566929
0.566929
0.566929
0.566929
0.566929
0.56693
0.56693
0.56693
0.566931
0.566931
0.566931
0.566931
0.566931
0.566932
0.566932
0.566932
0.566932
0.566932
0.566933
0.566933
0.566933
0.566933
0.566933
0.566934
0.566934
0.566934
0.566934
0.566935
0.566935
0.566935
0.566935
0.566935
0.566936
0.566936
0.566936
0.566936
0.566937
0.566937
0.566937
0.566937
0.566937
0.566938
0.566938
0.566938
0.566938
0.566939
0.566939
0.566939
0.566939
0.566939
0.56694
0.56694
0.56694
0.566941
0.566941
0.566941
0.566941
0.566942
0.566942
0.566942
0.566942
0.566942
0.566943
0.566943
0.566943
0.566943
0.566944
0.566944
0.566944
0.566944
0.566945
0.566945
0.566945
0.566946
0.566946
0.566946
0.566946
0.566947
0.566947
0.566947
0.566947
0.566947
0.566948
0.566948
0.566948
0.566948
0.566949
0.566949
0.566949
0.566949
0.56695
0.56695
0.56695
0.566951
0.566951
0.566951
0.566951
0.566952
0.566952
0.566952
0.566952
0.566953
0.566953
0.566953
0.566953
0.566954
0.566954
0.566954
0.566955
0.566955
0.566955
0.566955
0.566956
0.566956
0.566956
0.566956
0.566957
0.566957
0.566957
0.566957
0.566958
0.566958
0.566958
0.566959
0.566959
0.566959
0.56696
0.56696
0.56696
0.56696
0.566961
0.566961
0.566961
0.566962
0.566962
0.566962
0.566962
0.566963
0.566963
0.566963
0.566963
0.566964
0.566964
0.566964
0.566964
0.566965
0.566965
0.566966
0.566966
0.566966
0.566966
0.566967
0.566967
0.566967
0.566967
0.566968
0.566968
0.566969
0.566969
0.566969
0.566969
0.56697
0.56697
0.56697
0.56697
0.566971
0.566971
0.566972
0.566972
0.566972
0.566972
0.566973
0.566973
0.566973
0.566973
0.566974
0.566974
0.566975
0.566975
0.566975
0.566975
0.566976
0.566976
0.566977
0.566977
0.566977
0.566977
0.566978
0.566978
0.566978
0.566979
0.566979
0.566979
0.56698
0.56698
0.56698
0.566981
0.566981
0.566981
0.566981
0.566982
0.566982
0.566983
0.566983
0.566983
0.566983
0.566984
0.566984
0.566985
0.566985
0.566985
0.566985
0.566986
0.566986
0.566986
0.566987
0.566987
0.566988
0.566988
0.566988
0.566988
0.566989
0.566989
0.56699
0.56699
0.56699
0.566991
0.566991
0.566991
0.566991
0.566992
0.566992
0.566993
0.566993
0.566993
0.566994
0.566994
0.566994
0.566995
0.566995
0.566995
0.566996
0.566996
0.566997
0.566997
0.566997
0.566997
0.566998
0.566998
0.566998
0.566999
0.566999
0.567
0.567
0.567
0.567
0.567001
0.567001
0.567002
0.567002
0.567002
0.567003
0.567003
0.567004
0.567004
0.567004
0.567005
0.567005
0.567005
0.567005
0.567006
0.567006
0.567007
0.567007
0.567007
0.567008
0.567008
0.567009
0.567009
0.567009
0.56701
0.56701
0.567011
0.567011
0.567011
0.567012
0.567012
0.567012
0.567013
0.567013
0.567013
0.567014
0.567014
0.567015
0.567015
0.567015
0.567016
0.567016
0.567017
0.567017
0.567017
0.567018
0.567018
0.567019
0.567019
0.567019
0.56702
0.56702
0.567021
0.567021
0.567021
0.567022
0.567022
0.567023
0.567023
0.567023
0.567024
0.567024
0.567025
0.567025
0.567025
0.567025
0.567026
0.567026
0.567026
0.567027
0.567027
0.567028
0.567028
0.567028
0.567029
0.567029
0.56703
0.56703
0.56703
0.567031
0.567032
0.567032
0.567033
0.567033
0.567033
0.567034
0.567034
0.567035
0.567035
0.567035
0.567036
0.567036
0.567037
0.567037
0.567037
0.567038
0.567038
0.567039
0.567039
0.567039
0.56704
0.56704
0.567041
0.567041
0.567041
0.567042
0.567042
0.567043
0.567043
0.567043
0.567044
0.567044
0.567045
0.567045
0.567046
0.567046
0.567047
0.567047
0.567047
0.567048
0.567048
0.567049
0.567049
0.567049
0.56705
0.56705
0.567051
0.567052
0.567052
0.567052
0.567053
0.567053
0.567054
0.567054
0.567054
0.567055
0.567055
0.567056
0.567056
0.567056
0.567057
0.567058
0.567058
0.567058
0.567059
0.567059
0.56706
0.56706
0.56706
0.567061
0.567061
0.567062
0.567063
0.567063
0.567063
0.567064
0.567064
0.567065
0.567065
0.567065
0.567066
0.567067
0.567067
0.567067
0.567068
0.567068
0.567069
0.567069
0.567069
0.56707
0.567071
0.567071
0.567072
0.567072
0.567072
0.567073
0.567073
0.567074
0.567074
0.567075
0.567075
0.567076
0.567076
0.567076
0.567077
0.567078
0.567078
0.567079
0.567079
0.567079
0.56708
0.567081
0.567081
0.567081
0.567082
0.567082
0.567083
0.567084
0.567084
0.567084
0.567085
0.567085
0.567086
0.567086
0.567087
0.567087
0.567088
0.567088
0.567088
0.567089
0.56709
0.56709
0.567091
0.567091
0.567091
0.567092
0.567093
0.567093
0.567093
0.567094
0.567094
0.567095
0.567096
0.567096
0.567096
0.567097
0.567098
0.567098
0.567098
0.567099
0.567099
0.5671
0.567101
0.567101
0.567101
0.567102
0.567103
0.567103
0.567103
0.567104
0.567104
0.567105
0.567106
0.567106
0.567106
0.567107
0.567108
0.567108
0.567108
0.567109
0.56711
0.56711
0.567111
0.567111
0.567111
0.567112
0.567113
0.567113
0.567113
0.567114
0.567115
0.567115
0.567116
0.567116
0.567117
0.567117
0.567118
0.567119
0.567119
0.567119
0.56712
0.567121
0.567121
0.567121
0.567122
0.567123
0.567123
0.567124
0.567124
0.567125
0.567125
0.567126
0.567127
0.567127
0.567127
0.567128
0.567129
0.567129
0.567129
0.56713
0.567131
0.567131
0.567132
0.567132
0.567133
0.567133
0.567134
0.567135
0.567135
0.567135
0.567136
0.567137
0.567137
0.567137
0.567138
0.567139
0.567139
0.56714
0.56714
0.567141
0.567142
0.567142
0.567143
0.567143
0.567144
0.567144
0.567145
0.567146
0.567146
0.567146
0.567147
0.567148
0.567148
0.567148
0.567149
0.56715
0.567151
0.567151
0.567151
0.567152
0.567153
0.567153
0.567154
0.567154
0.567155
0.567156
0.567156
0.567157
0.567157
0.567158
0.567158
0.567159
0.56716
0.56716
0.567161
0.567161
0.567162
0.567163
0.567163
0.567163
0.567164
0.567165
0.567166
0.567166
0.567166
0.567167
0.567168
0.567169
0.567169
0.567169
0.56717
0.567171
0.567171
0.567171
0.567172
0.567173
0.567174
0.567174
0.567174
0.567175
0.567176
0.567177
0.567177
0.567177
0.567178
0.567179
0.56718
0.56718
0.56718
0.567181
0.567182
0.567183
0.567183
0.567183
0.567184
0.567185
0.567186
0.567186
0.567186
0.567187
0.567188
0.567189
0.567189
0.567189
0.56719
0.567191
0.567192
0.567192
0.567192
0.567193
0.567194
0.567195
0.567196
0.567196
0.567196
0.567197
0.567198
0.567199
0.567199
0.567199
0.5672
0.567201
0.567202
0.567202
0.567203
0.567203
0.567204
0.567205
0.567205
0.567206
0.567206
0.567207
0.567208
0.567208
0.567209
0.56721
0.56721
0.567211
0.567211
0.567212
0.567213
0.567213
0.567214
0.567214
0.567215
0.567216
0.567217
0.567217
0.567217
0.567218
0.567219
0.56722
0.567221
0.567221
0.567221
0.567222
0.567223
0.567224
0.567224
0.567225
0.567225
0.567226
0.567227
0.567227
0.567228
0.567229
0.56723
0.56723
0.56723
0.567231
0.567232
0.567233
0.567234
0.567234
0.567234
0.567235
0.567236
0.567237
0.567237
0.567238
0.567239
0.567239
0.56724
0.56724
0.567241
0.567242
0.567243
0.567244
0.567244
0.567244
0.567245
0.567246
0.567247
0.567247
0.567248
0.567249
0.567249
0.56725
0.56725
0.567251
0.567252
0.567253
0.567254
0.567254
0.567254
0.567255
0.567256
0.567257
0.567257
0.567258
0.567259
0.56726
0.56726
0.56726
0.567261
0.567262
0.567263
0.567264
0.567264
0.567265
0.567266
0.567266
0.567267
0.567267
0.567268
0.567269
0.56727
0.567271
0.567271
0.567272
0.567273
0.567273
0.567274
0.567274
0.567275
0.567276
0.567277
0.567278
0.567278
0.567279
0.56728
0.56728
0.567281
0.567281
0.567282
0.567283
0.567284
0.567285
0.567285
0.567286
0.567287
0.567288
0.567288
0.567288
0.567289
0.56729
0.567291
0.567292
0.567292
0.567293
0.567294
0.567295
0.567296
0.567296
0.567296
0.567297
0.567298
0.567299
0.567299
0.5673
0.567301
0.567302
0.567303
0.567303
0.567304
0.567305
0.567306
0.567307
0.567307
0.567307
0.567308
0.567309
0.56731
0.56731
0.567311
0.567312
0.567313
0.567314
0.567314
0.567315
0.567316
0.567317
0.567318
0.567318
0.567319
0.567319
0.56732
0.567321
0.567321
0.567322
0.567323
0.567324
0.567325
0.567325
0.567326
0.567327
0.567328
0.567329
0.567329
0.56733
0.567331
0.567332
0.567333
0.567333
0.567333
0.567334
0.567335
0.567336
0.567336
0.567337
0.567338
0.567339
0.56734
0.56734
0.567341
0.567342
0.567343
0.567344
0.567344
0.567345
0.567346
0.567347
0.567348
0.567348
0.567349
0.56735
0.567351
0.567352
0.567352
0.567353
0.567354
0.567355
0.567356
0.567356
0.567357
0.567358
0.567359
0.56736
0.56736
0.567361
0.567362
0.567363
0.567364
0.567364
0.567365
0.567365
0.567366
0.567367
0.567367
0.567368
0.567369
0.56737
0.567371
0.567371
0.567372
0.567373
0.567374
0.567375
0.567375
0.567376
0.567377
0.567378
0.567379
0.567379
0.56738
0.567381
0.567382
0.567383
0.567383
0.567384
0.567385
0.567386
0.567388
0.567388
0.567389
0.56739
0.567391
0.567392
0.567392
0.567393
0.567394
0.567395
0.567396
0.567396
0.567397
0.567398
0.567399
0.5674
0.5674
0.567401
0.567402
0.567403
0.567404
0.567404
0.567405
0.567406
0.567407
0.567408
0.567408
0.567409
0.56741
0.567411
0.567412
0.567412
0.567413
0.567414
0.567415
0.567416
0.567416
0.567417
0.567418
0.567419
0.567421
0.567421
0.567422
0.567423
0.567424
0.567425
0.567425
0.567426
0.567427
0.567428
0.567429
0.567429
0.56743
0.567431
0.567432
0.567433
0.567433
0.567434
0.567435
0.567437
0.567438
0.567438
0.567439
0.56744
0.567441
0.567442
0.567442
0.567443
0.567444
0.567445
0.567446
0.567446
0.567447
0.567448
0.567449
0.567451
0.567451
0.567452
0.567453
0.567454
0.567455
0.567455
0.567456
0.567457
0.567458
0.567459
0.567459
0.56746
0.567461
0.567463
0.567464
0.567464
0.567465
0.567466
0.567467
0.567468
0.567468
0.567469
0.56747
0.567471
0.567473
0.567473
0.567474
0.567475
0.567476
0.567477
0.567477
0.567478
0.567479
0.56748
0.567482
0.567482
0.567483
0.567484
0.567485
0.567486
0.567486
0.567487
0.567488
0.567489
0.567491
0.567491
0.567492
0.567493
0.567494
0.567495
0.567495
0.567496
0.567497
0.567498
0.5675
0.5675
0.567501
0.567502
0.567503
0.567504
0.567504
0.567505
0.567507
0.567508
0.567509
0.567509
0.56751
0.567511
0.567512
0.567514
0.567514
0.567515
0.567516
0.567517
0.567518
0.567518
0.567519
0.56752
0.567522
0.567523
0.567523
0.567524
0.567525
0.567526
0.567527
0.567527
0.567529
0.56753
0.567531
0.567532
0.567532
0.567533
0.567535
0.567536
0.567537
0.567537
0.567538
0.567539
0.56754
0.567542
0.567542
0.567543
0.567544
0.567545
0.567546
0.567546
0.567548
0.567549
0.56755
0.567551
0.567551
0.567552
0.567554
0.567555
0.567556
0.567556
0.567557
0.567559
0.56756
0.567561
0.567561
0.567562
0.567563
0.567565
0.567566
0.567566
0.567567
0.567568
0.567569
0.567571
0.567571
0.567572
0.567573
0.567574
0.567576
0.567576
0.567577
0.567578
0.567579
0.56758
0.56758
0.567582
0.567583
0.567584
0.567585
0.567585
0.567587
0.567588
0.567589
0.56759
0.56759
0.567592
0.567593
0.567594
0.567595
0.567595
0.567597
0.567598
0.567599
0.5676
0.5676
0.567602
0.567603
0.567604
0.567605
0.567605
0.567607
0.567608
0.567609
0.567611
0.567611
0.567612
0.567613
0.567614
0.567616
0.567616
0.567617
0.567618
0.567619
0.567621
0.567621
0.567622
0.567623
0.567624
0.567626
0.567626
0.567627
0.567628
0.56763
0.567631
0.567631
0.567632
0.567634
0.567635
0.567636
0.567636
0.567637
0.567639
0.56764
0.567641
0.567641
0.567643
0.567644
0.567645
0.567647
0.567647
0.567648
0.567649
0.56765
0.567652
0.567652
0.567653
0.567654
0.567656
0.567657
0.567657
0.567658
0.56766
0.567661
0.567662
0.567662
0.567664
0.567665
0.567666
0.567668
0.567668
0.567669
0.56767
0.567672
0.567673
0.567673
0.567674
0.567676
0.567677
0.567678
0.567678
0.56768
0.567681
0.567682
0.567684
0.567684
0.567685
0.567686
0.567688
0.567689
0.567689
0.56769
0.567692
0.567693
0.567694
0.567694
0.567696
0.567697
0.567699
0.5677
0.5677
0.567701
0.567703
0.567704
0.567705
0.567705
0.567707
0.567708
0.567709
0.567711
0.567711
0.567712
0.567714
0.567715
0.567716
0.567716
0.567718
0.567719
0.567721
0.567722
0.567722
0.567723
0.567725
0.567726
0.567727
0.567727
0.567729
0.56773
0.567732
0.567733
0.567733
0.567734
0.567736
0.567737
0.567739
0.567739
0.56774
0.567741
0.567743
0.567744
0.567744
0.567746
0.567747
0.567748
0.56775
0.56775
0.567751
0.567753
0.567754
0.567756
0.567756
0.567757
0.567758
0.56776
0.567761
0.567761
0.567763
0.567764
0.567766
0.567767
0.567767
0.567768
0.56777
0.567771
0.567773
0.567773
0.567774
0.567776
0.567777
0.567779
0.567779
0.56778
0.567781
0.567783
0.567784
0.567784
0.567786
0.567787
0.567789
0.56779
0.56779
0.567792
0.567793
0.567794
0.567796
0.567796
0.567797
0.567799
0.5678
0.567802
0.567802
0.567803
0.567805
0.567806
0.567808
0.567808
0.567809
0.567811
0.567812
0.567814
0.567814
0.567815
0.567817
0.567818
0.56782
0.56782
0.567821
0.567823
0.567824
0.567826
0.567826
0.567827
0.567829
0.56783
0.567832
0.567832
0.567833
0.567835
0.567836
0.567838
0.567838
0.567839
0.567841
0.567842
0.567844
0.567844
0.567845
0.567847
0.567848
0.56785
0.56785
0.567851
0.567853
0.567854
0.567856
0.567856
0.567857
0.567859
0.56786
0.567862
0.567862
0.567863
0.567865
0.567867
0.567868
0.567868
0.56787
0.567871
0.567873
0.567874
0.567874
0.567876
0.567877
0.567879
0.56788
0.56788
0.567882
0.567883
0.567885
0.567887
0.567887
0.567888
0.56789
0.567891
0.567893
0.567893
0.567894
0.567896
0.567898
0.567899
0.567899
0.567901
0.567902
0.567904
0.567905
0.567905
0.567907
0.567909
0.56791
0.567912
0.567912
0.567913
0.567915
0.567917
0.567918
0.567918
0.56792
0.567921
0.567923
0.567924
0.567924
0.567926
0.567928
0.567929
0.567931
0.567931
0.567932
0.567934
0.567936
0.567937
0.567937
0.567939
0.567941
0.567942
0.567944
0.567944
0.567945
0.567947
0.567949
0.56795
0.56795
0.567952
0.567954
0.567955
0.567957
0.567957
0.567958
0.56796
0.567962
0.567963
0.567963
0.567965
0.567967
0.567968
0.56797
0.56797
0.567971
0.567973
0.567975
0.567976
0.567976
0.567978
0.56798
0.567981
0.567983
0.567983
0.567985
0.567986
0.567988
0.56799
0.56799
0.567991
0.567993
0.567995
0.567996
0.567996
0.567998
0.568
0.568001
0.568003
0.568003
0.568005
0.568006
0.568008
0.56801
0.56801
0.568011
0.568013
0.568015
0.568016
0.568016
0.568018
0.56802
0.568022
0.568023
0.568023
0.568025
0.568027
0.568028
0.56803
0.56803
0.568032
0.568033
0.568035
0.568037
0.568037
0.568039
0.56804
0.568042
0.568044
0.568044
0.568046
0.568047
0.568049
0.568051
0.568051
0.568052
0.568054
0.568056
0.568058
0.568058
0.568059
0.568061
0.568063
0.568064
0.568064
0.568066
0.568068
0.56807
0.568071
0.568071
0.568073
0.568075
0.568077
0.568078
0.568078
0.56808
0.568082
0.568084
0.568086
0.568086
0.568087
0.568089
0.568091
0.568093
0.568093
0.568094
0.568096
0.568098
0.5681
0.5681
0.568101
0.568103
0.568105
0.568107
0.568107
0.568109
0.56811
0.568112
0.568114
0.568114
0.568116
0.568117
0.568119
0.568121
0.568121
0.568123
0.568125
0.568126
0.568128
0.568128
0.56813
0.568132
0.568134
0.568135
0.568135
0.568137
0.568139
0.568141
0.568143
0.568143
0.568145
0.568146
0.568148
0.56815
0.56815
0.568152
0.568154
0.568155
0.568157
0.568157
0.568159
0.568161
0.568163
0.568165
0.568165
0.568166
0.568168
0.56817
0.568172
0.568172
0.568174
0.568176
0.568178
0.568179
0.568179
0.568181
0.568183
0.568185
0.568187
0.568187
0.568189
0.568191
0.568192
0.568194
0.568194
0.568196
0.568198
0.5682
0.568202
0.568202
0.568204
0.568206
0.568207
0.568209
0.568209
0.568211
0.568213
0.568215
0.568217
0.568217
0.568219
0.568221
0.568223
0.568224
0.568224
0.568226
0.568228
0.56823
0.568232
0.568232
0.568234
0.568236
0.568238
0.56824
0.56824
0.568242
0.568244
0.568245
0.568247
0.568247
0.568249
0.568251
0.568253
0.568255
0.568255
0.568257
0.568259
0.568261
0.568263
0.568263
0.568265
0.568267
0.568269
0.568271
0.568271
0.568273
0.568274
0.568276
0.568278
0.568278
0.56828
0.568282
0.568284
0.568286
0.568286
0.568288
0.56829
0.568292
0.568294
0.568294
0.568296
0.568298
0.5683
0.568302
0.568302
0.568304
0.568306
0.568308
0.56831
0.56831
0.568312
0.568314
0.568316
0.568318
0.568318
0.56832
0.568322
0.568324
0.568326
0.568326
0.568328
0.56833
0.568332
0.568334
0.568334
0.568336
0.568338
0.56834
0.568342
0.568342
0.568344
0.568346
0.568348
0.56835
0.56835
0.568352
0.568354
0.568356
0.568358
0.568358
0.56836
0.568362
0.568364
0.568366
0.568366
0.568368
0.56837
0.568372
0.568374
0.568374
0.568376
0.568378
0.568381
0.568383
0.568383
0.568385
0.568387
0.568389
0.568391
0.568391
0.568393
0.568395
0.568397
0.568399
0.568399
0.568401
0.568403
0.568405
0.568407
0.568407
0.568409
0.568412
0.568414
0.568416
0.568416
0.568418
0.56842
0.568422
0.568424
0.568424
0.568426
0.568428
0.56843
0.568433
0.568433
0.568435
0.568437
0.568439
0.568441
0.568441
0.568443
0.568445
0.568447
0.568449
0.568449
0.568452
0.568454
0.568456
0.568458
0.568458
0.56846
0.568462
0.568464
0.568466
0.568466
0.568469
0.568471
0.568473
0.568475
0.568475
0.568477
0.568479
0.568481
0.568484
0.568484
0.568486
0.568488
0.56849
0.568492
0.568492
0.568494
0.568497
0.568499
0.568501
0.568501
0.568503
0.568505
0.568507
0.56851
0.56851
0.568512
0.568514
0.568516
0.568518
0.568518
0.568521
0.568523
0.568525
0.568527
0.568527
0.568529
0.568532
0.568534
0.568536
0.568536
0.568538
0.56854
0.568543
0.568545
0.568545
0.568547
0.568549
0.568551
0.568554
0.568554
0.568556
0.568558
0.56856
0.568563
0.568563
0.568565
0.568567
0.568569
0.568572
0.568572
0.568574
0.568576
0.568578
0.568581
0.568581
0.568583
0.568585
0.568587
0.56859
0.56859
0.568592
0.568594
0.568596
0.568599
0.568599
0.568601
0.568603
0.568605
0.568608
0.568608
0.56861
0.568612
0.568615
0.568617
0.568617
0.568619
0.568621
0.568624
0.568626
0.568626
0.568628
0.568631
0.568633
0.568635
0.568635
0.568638
0.56864
0.568642
0.568644
0.568644
0.568647
0.568649
0.568651
0.568654
0.568654
0.568656
0.568658
0.568661
0.568663
0.568663
0.568665
0.568668
0.56867
0.568672
0.568672
0.568675
0.568677
0.568679
0.568682
0.568682
0.568684
0.568687
0.568689
0.568691
0.568691
0.568694
0.568696
0.568698
0.568701
0.568701
0.568703
0.568705
0.568708
0.56871
0.56871
0.568713
0.568715
0.568717
0.56872
0.56872
0.568722
0.568724
0.568727
0.568729
0.568729
0.568732
0.568734
0.568736
0.568739
0.568739
0.568741
0.568744
0.568746
0.568749
0.568749
0.568751
0.568753
0.568756
0.568758
0.568758
0.568761
0.568763
0.568766
0.568768
0.568768
0.56877
0.568773
0.568775
0.568778
0.568778
0.56878
0.568783
0.568785
0.568787
0.568787
0.56879
0.568792
0.568795
0.568797
0.568797
0.5688
0.568802
0.568805
0.568807
0.568807
0.56881
0.568812
0.568815
0.568817
0.568817
0.56882
0.568822
0.568825
0.568827
0.568827
0.56883
0.568832
0.568835
0.568837
0.568837
0.56884
0.568842
0.568845
0.568847
0.568847
0.56885
0.568852
0.568855
0.568857
0.568857
0.56886
0.568862
0.568865
0.568867
0.568867
0.56887
0.568872
0.568875
0.568877
0.568877
0.56888
0.568883
0.568885
0.568888
0.568888
0.56889
0.568893
0.568895
0.568898
0.568898
0.5689
0.568903
0.568906
0.568908
0.568908
0.568911
0.568913
0.568916
0.568919
0.568919
0.568921
0.568924
0.568926
0.568929
0.568929
0.568931
0.568934
0.568937
0.568939
0.568939
0.568942
0.568944
0.568947
0.56895
0.56895
0.568952
0.568955
0.568958
0.56896
0.56896
0.568963
0.568965
0.568968
0.568971
0.568971
0.568973
0.568976
0.568979
0.568981
0.568981
0.568984
0.568987
0.568989
0.568992
0.568992
0.568995
0.568997
0.569
0.569003
0.569003
0.569005
0.569008
0.569011
0.569013
0.569013
0.569016
0.569019
0.569021
0.569024
0.569024
0.569027
0.569029
0.569032
0.569035
0.569035
0.569037
0.56904
0.569043
0.569046
0.569046
0.569048
0.569051
0.569054
0.569056
0.569056
0.569059
0.569062
0.569065
0.569067
0.569067
0.56907
0.569073
0.569076
0.569078
0.569078
0.569081
0.569084
0.569087
0.569089
0.569089
0.569092
0.569095
0.569098
0.5691
0.5691
0.569103
0.569106
0.569109
0.569111
0.569111
0.569114
0.569117
0.56912
0.569123
0.569123
0.569125
0.569128
0.569131
0.569134
0.569134
0.569137
0.569139
0.569142
0.569145
0.569145
0.569148
0.569151
0.569153
0.569156
0.569156
0.569159
0.569162
0.569165
0.569167
0.569167
0.56917
0.569173
0.569176
0.569179
0.569179
0.569182
0.569184
0.569187
0.56919
0.56919
0.569193
0.569196
0.569199
0.569202
0.569202
0.569205
0.569207
0.56921
0.569213
0.569213
0.569216
0.569219
0.569222
0.569225
0.569225
0.569228
0.56923
0.569233
0.569236
0.569236
0.569239
0.569242
0.569245
0.569248
0.569248
0.569251
0.569254
0.569257
0.56926
0.56926
0.569262
0.569265
0.569268
0.569271
0.569271
0.569274
0.569277
0.56928
0.569283
0.569283
0.569286
0.569289
0.569292
0.569295
0.569295
0.569298
0.569301
0.569304
0.569307
0.569307
0.56931
0.569313
0.569316
0.569319
0.569319
0.569322
0.569325
0.569328
0.569331
0.569331
0.569334
0.569337
0.56934
0.569343
0.569343
0.569346
0.569349
0.569352
0.569355
0.569355
0.569358
0.569361
0.569364
0.569367
0.569367
0.56937
0.569373
0.569376
0.569379
0.569379
0.569382
0.569385
0.569388
0.569391
0.569391
0.569394
0.569397
0.5694
0.569403
0.569403
0.569406
0.569409
0.569412
0.569416
0.569416
0.569419
0.569422
0.569425
0.569428
0.569428
0.569431
0.569434
0.569437
0.56944
0.56944
0.569443
0.569446
0.56945
0.569453
0.569453
0.569456
0.569459
0.569462
0.569465
0.569465
0.569468
0.569471
0.569475
0.569478
0.569478
0.569481
0.569484
0.569487
0.56949
0.56949
0.569493
0.569497
0.5695
0.569503
0.569503
0.569506
0.569509
0.569512
0.569516
0.569516
0.569519
0.569522
0.569525
0.569528
0.569528
0.569532
0.569535
0.569538
0.569541
0.569541
0.569544
0.569548
0.569551
0.569554
0.569554
0.569557
0.56956
0.569564
0.569567
0.569567
0.56957
0.569573
0.569577
0.56958
0.56958
0.569583
0.569586
0.56959
0.569593
0.569593
0.569596
0.569599
0.569603
0.569606
0.569606
0.569609
0.569612
0.569616
0.569619
0.569619
0.569622
0.569626
0.569629
0.569632
0.569632
0.569635
0.569639
0.569642
0.569645
0.569645
0.569649
0.569652
0.569655
0.569659
0.569659
0.569662
0.569665
0.569669
0.569672
0.569672
0.569675
0.569679
0.569682
0.569685
0.569685
0.569689
0.569692
0.569695
0.569699
0.569699
0.569702
0.569706
0.569709
0.569712
0.569712
0.569716
0.569719
0.569722
0.569726
0.569726
0.569729
0.569733
0.569736
0.569739
0.569739
0.569743
0.569746
0.56975
0.569753
0.569753
0.569756
0.56976
0.569763
0.569767
0.569767
0.56977
0.569774
0.569777
0.56978
0.56978
0.569784
0.569787
0.569791
0.569794
0.569794
0.569798
0.569801
0.569805
0.569808
0.569808
0.569812
0.569815
0.569819
0.569822
0.569822
0.569826
0.569829
0.569833
0.569836
0.569836
0.56984
0.569843
0.569847
0.56985
0.56985
0.569854
0.569857
0.569861
0.569864
0.569864
0.569868
0.569871
0.569875
0.569878
0.569878
0.569882
0.569885
0.569889
0.569893
0.569893
0.569896
0.5699
0.569903
0.569907
0.569907
0.56991
0.569914
0.569918
0.569921
0.569921
0.569925
0.569928
0.569932
0.569936
0.569936
0.569939
0.569943
0.569946
0.56995
0.56995
0.569954
0.569957
0.569961
0.569965
0.569965
0.569968
0.569972
0.569975
0.569979
0.569979
0.569983
0.569986
0.56999
0.569994
0.569994
0.569997
0.570001
0.570005
0.570008
0.570008
0.570012
0.570016
0.570019
0.570023
0.570023
0.570027
0.570031
0.570034
0.570038
0.570038
0.570042
0.570045
0.570049
0.570053
0.570053
0.570056
0.57006
0.570064
0.570068
0.570068
0.570071
0.570075
0.570079
0.570083
0.570083
0.570086
0.57009
0.570094
0.570098
0.570098
0.570102
0.570105
0.570109
0.570113
0.570113
0.570117
0.57012
0.570124
0.570128
0.570128
0.570132
0.570136
0.570139
0.570143
0.570143
0.570147
0.570151
0.570155
0.570159
0.570159
0.570162
0.570166
0.57017
0.570174
0.570174
0.570178
0.570182
0.570185
0.570189
0.570189
0.570193
0.570197
0.570201
0.570205
0.570205
0.570209
0.570213
0.570216
0.57022
0.57022
0.570224
0.570228
0.570232
0.570236
0.570236
0.57024
0.570244
0.570248
0.570252
0.570252
0.570256
0.57026
0.570263
0.570267
0.570267
0.570271
0.570275
0.570279
0.570283
0.570283
0.570287
0.570291
0.570295
0.570299
0.570299
0.570303
0.570307
0.570311
0.570315
0.570315
0.570319
0.570323
0.570327
0.570331
0.570331
0.570335
0.570339
0.570343
0.570347
0.570347
0.570351
0.570355
0.570359
0.570363
0.570363
0.570367
0.570371
0.570375
0.57038
0.57038
0.570384
0.570388
0.570392
0.570396
0.570396
0.5704
0.570404
0.570408
0.570412
0.570412
0.570416
0.57042
0.570424
0.570429
0.570429
0.570433
0.570437
0.570441
0.570445
0.570445
0.570449
0.570453
0.570457
0.570462
0.570462
0.570466
0.57047
0.570474
0.570478
0.570478
0.570482
0.570486
0.570491
0.570495
0.570495
0.570499
0.570503
0.570507
0.570512
0.570512
0.570516
0.57052
0.570524
0.570528
0.570528
0.570533
0.570537
0.570541
0.570545
0.570545
0.57055
0.570554
0.570558
0.570562
0.570562
0.570567
0.570571
0.570575
0.570579
0.570579
0.570584
0.570588
0.570592
0.570596
0.570596
0.570601
0.570605
0.570609
0.570614
0.570614
0.570618
0.570622
0.570627
0.570631
0.570631
0.570635
0.57064
0.570644
0.570648
0.570648
0.570653
0.570657
0.570661
0.570666
0.570666
0.57067
0.570674
0.570679
0.570683
0.570683
0.570688
0.570692
0.570696
0.570701
0.570701
0.570705
0.570709
0.570714
0.570718
0.570718
0.570723
0.570727
0.570732
0.570736
0.570736
0.57074
0.570745
0.570749
0.570754
0.570754
0.570758
0.570763
0.570767
0.570772
0.570772
0.570776
0.570781
0.570785
0.57079
0.57079
0.570794
0.570799
0.570803
0.570808
0.570808
0.570812
0.570817
0.570821
0.570826
0.570826
0.57083
0.570835
0.570839
0.570844
0.570844
0.570848
0.570853
0.570857
0.570862
0.570862
0.570867
0.570871
0.570876
0.57088
0.57088
0.570885
0.57089
0.570894
0.570899
0.570899
0.570903
0.570908
0.570913
0.570917
0.570917
0.570922
0.570926
0.570931
0.570936
0.570936
0.57094
0.570945
0.57095
0.570954
0.570954
0.570959
0.570964
0.570968
0.570973
0.570973
0.570978
0.570982
0.570987
0.570992
0.570992
0.570997
0.571001
0.571006
0.571011
0.571011
0.571015
0.57102
0.571025
0.57103
0.57103
0.571034
0.571039
0.571044
0.571049
0.571049
0.571053
0.571058
0.571063
0.571068
0.571068
0.571073
0.571077
0.571082
0.571087
0.571087
0.571092
0.571097
0.571101
0.571106
0.571106
0.571111
0.571116
0.571121
0.571126
0.571126
0.57113
0.571135
0.57114
0.571145
0.571145
0.57115
0.571155
0.57116
0.571165
0.571165
0.571169
0.571174
0.571179
0.571184
0.571184
0.571189
0.571194
0.571199
0.571204
0.571204
0.571209
0.571214
0.571219
0.571224
0.571224
0.571229
0.571234
0.571239
0.571244
0.571244
0.571249
0.571253
0.571258
0.571263
0.571263
0.571268
0.571273
0.571278
0.571284
0.571284
0.571289
0.571294
0.571299
0.571304
0.571304
0.571309
0.571314
0.571319
0.571324
0.571324
0.571329
0.571334
0.571339
0.571344
0.571344
0.571349
0.571354
0.571359
0.571365
0.571365
0.57137
0.571375
0.57138
0.571385
0.571385
0.57139
0.571395
0.5714
0.571406
0.571406
0.571411
0.571416
0.571421
0.571426
0.571426
0.571431
0.571437
0.571442
0.571447
0.571447
0.571452
0.571457
0.571463
0.571468
0.571468
0.571473
0.571478
0.571483
0.571489
0.571489
0.571494
0.571499
0.571504
0.57151
0.57151
0.571515
0.57152
0.571526
0.571531
0.571531
0.571536
0.571541
0.571547
0.571552
0.571552
0.571557
0.571563
0.571568
0.571573
0.571573
0.571579
0.571584
0.571589
0.571595
0.571595
0.5716
0.571605
0.571611
0.571616
0.571616
0.571622
0.571627
0.571632
0.571638
0.571638
0.571643
0.571649
0.571654
0.571659
0.571659
0.571665
0.57167
0.571676
0.571681
0.571681
0.571687
0.571692
0.571698
0.571703
0.571703
0.571709
0.571714
0.57172
0.571725
0.571725
0.571731
0.571736
0.571742
0.571747
0.571747
0.571753
0.571758
0.571764