<?xml version="1.0"?>
<VTKFile type="UnstructuredGrid" version="0.1" byte_order="LittleEndian">
<UnstructuredGrid>
<Piece NumberOfPoints="5000" NumberOfCells="4000">
<PointData Scalars="Reaction 0">
<DataArray type="Float32" Name="Reaction 0" format="ascii">
0.335251
0.335251
0.335251
0.335251
0.335251
0.335251
0.335251
0.335252
0.335252
0.335252
0.335252
0.335252
0.335253
0.335253
0.335253
0.335253
0.335254
0.335254
0.335254
0.335255
0.335255
0.335255
0.335256
0.335257
0.335257
0.335257
0.335258
0.335258
0.335259
0.33526
0.33526
0.335261
0.335261
0.335262
0.335263
0.335263
0.335264
0.335265
0.335266
0.335267
0.335267
0.335268
0.335269
0.33527
0.335271
0.335271
0.335272
0.335273
0.335274
0.335275
0.335275
0.335277
0.335278
0.335279
0.335281
0.335281
0.335282
0.335283
0.335285
0.335286
0.335286
0.335288
0.335289
0.335291
0.335292
0.335292
0.335294
0.335296
0.335297
0.335299
0.335299
0.335301
0.335302
0.335304
0.335306
0.335306
0.335308
0.33531
0.335312
0.335314
0.335314
0.335316
0.335318
0.33532
0.335322
0.335322
0.335324
0.335326
0.335328
0.33533
0.33533
0.335333
0.335335
0.335337
0.335339
0.335339
0.335342
0.335344
0.335347
0.335349
0.335349
0.335351
0.335354
0.335356
0.335359
0.335359
0.335362
0.335364
0.335367
0.33537
0.33537
0.335372
0.335375
0.335378
0.335381
0.335381
0.335383
0.335386
0.335389
0.335392
0.335392
0.335395
0.335398
0.335401
0.335404
0.335404
0.335407
0.33541
0.335413
0.335417
0.335417
0.33542
0.335423
0.335426
0.33543
0.33543
0.335433
0.335436
0.33544
0.335443
0.335443
0.335446
0.33545
0.335453
0.335457
0.335457
0.335461
0.335464
0.335468
0.335471
0.335471
0.335475
0.335479
0.335483
0.335486
0.335486
0.33549
0.335494
0.335498
0.335502
0.335502
0.335506
0.33551
0.335514
0.335518
0.335518
0.335522
0.335526
0.33553
0.335534
0.335534
0.335538
0.335543
0.335547
0.335551
0.335551
0.335555
0.33556
0.335564
0.335568
0.335568
0.335573
0.335577
0.335582
0.335586
0.335586
0.335591
0.335595
0.3356
0.335605
0.335605
0.335609
0.335614
0.335619
0.335624
0.335624
0.335628
0.335633
0.335638
0.335643
0.335643
0.335648
0.335653
0.335658
0.335663
0.335663
0.335668
0.335673
0.335678
0.335683
0.335683
0.335688
0.335693
0.335699
0.335704
0.335704
0.335709
0.335714
0.33572
0.335725
0.335725
0.335731
0.335736
0.335742
0.335747
0.335747
0.335753
0.335758
0.335764
0.335769
0.335769
0.335775
0.335781
0.335786
0.335792
0.335792
0.335798
0.335804
0.335809
0.335815
0.335815
0.335821
0.335827
0.335833
0.335839
0.335839
0.335845
0.335851
0.335857
0.335863
0.335863
0.335869
0.335876
0.335882
0.335888
0.335888
0.335894
0.335901
0.335907
0.335913
0.335913
0.33592
0.335926
0.335933
0.335939
0.335939
0.335946
0.335952
0.335959
0.335965
0.335965
0.335972
0.335978
0.335985
0.335992
0.335992
0.335999
0.336005
0.336012
0.336019
0.336019
0.336026
0.336033
0.33604
0.336047
0.336047
0.336054
0.336061
0.336068
0.336075
0.336075
0.336082
0.336089
0.336096
0.336104
0.336104
0.336111
0.336118
0.336125
0.336133
0.336133
0.33614
0.336147
0.336155
0.336162
0.336162
0.33617
0.336177
0.336185
0.336192
0.336192
0.3362
0.336208
0.336215
0.336223
0.336223
0.336231
0.336239
0.336246
0.336254
0.336254
0.336262
0.33627
0.336278
0.336286
0.336286
0.336294
0.336302
0.33631
0.336318
0.336318
0.336326
0.336334
0.336342
0.33635
0.33635
0.336359
0.336367
0.336375
0.336383
0.336383
0.336392
0.3364
0.336409
0.336417
0.336417
0.336425
0.336434
0.336442
0.336451
0.336451
0.33646
0.336468
0.336477
0.336486
0.336486
0.336494
0.336503
0.336512
0.336521
0.336521
0.336529
0.336538
0.336547
0.336556
0.336556
0.336565
0.336574
0.336583
0.336592
0.336592
0.336601
0.33661
0.336619
0.336629
0.336629
0.336638
0.336647
0.336656
0.336665
0.336665
0.336675
0.336684
0.336694
0.336703
0.336703
0.336712
0.336722
0.336731
0.336741
0.336741
0.33675
0.33676
0.33677
0.336779
0.336779
0.336789
0.336799
0.336808
0.336818
0.336818
0.336828
0.336838
0.336848
0.336858
0.336858
0.336868
0.336878
0.336888
0.336898
0.336898
0.336908
0.336918
0.336928
0.336938
0.336938
0.336948
0.336958
0.336969
0.336979
0.336979
0.336989
0.336999
0.33701
0.33702
0.33702
0.337031
0.337041
0.337052
0.337062
0.337062
0.337073
0.337083
0.337094
0.337104
0.337104
0.337115
0.337126
0.337136
0.337147
0.337147
0.337158
0.337169
0.33718
0.337191
0.337191
0.337201
0.337212
0.337223
0.337234
0.337234
0.337245
0.337256
0.337268
0.337279
0.337279
0.33729
0.337301
0.337312
0.337323
0.337323
0.337335
0.337346
0.337357
0.337369
0.337369
0.33738
0.337392
0.337403
0.337414
0.337414
0.337426
0.337438
0.337449
0.337461
0.337461
0.337472
0.337484
0.337496
0.337507
0.337507
0.337519
0.337531
0.337543
0.337555
0.337555
0.337567
0.337579
0.33759
0.337602
0.337602
0.337614
0.337626
0.337639
0.337651
0.337651
0.337663
0.337675
0.337687
0.337699
0.337699
0.337712
0.337724
0.337736
0.337749
0.337749
0.337761
0.337773
0.337786
0.337798
0.337798
0.337811
0.337823
0.337836
0.337848
0.337848
0.337861
0.337874
0.337886
0.337899
0.337899
0.337912
0.337925
0.337937
0.33795
0.33795
0.337963
0.337976
0.337989
0.338002
0.338002
0.338015
0.338028
0.338041
0.338054
0.338054
0.338067
0.33808
0.338093
0.338106
0.338106
0.33812
0.338133
0.338146
0.33816
0.33816
0.338173
0.338186
0.3382
0.338213
0.338213
0.338227
0.33824
0.338254
0.338267
0.338267
0.338281
0.338294
0.338308
0.338322
0.338322
0.338335
0.338349
0.338363
0.338377
0.338377
0.338391
0.338404
0.338418
0.338432
0.338432
0.338446
0.33846
0.338474
0.338488
0.338488
0.338502
0.338517
0.338531
0.338545
0.338545
0.338559
0.338573
0.338588
0.338602
0.338602
0.338616
0.338631
0.338645
0.338659
0.338659
0.338674
0.338688
0.338703
0.338717
0.338717
0.338732
0.338746
0.338761
0.338776
0.338776
0.33879
0.338805
0.33882
0.338835
0.338835
0.338849
0.338864
0.338879
0.338894
0.338894
0.338909
0.338924
0.338939
0.338954
0.338954
0.338969
0.338984
0.338999
0.339014
0.339014
0.33903
0.339045
0.33906
0.339075
0.339075
0.339091
0.339106
0.339121
0.339137
0.339137
0.339152
0.339168
0.339183
0.339199
0.339199
0.339214
0.33923
0.339245
0.339261
0.339261
0.339277
0.339292
0.339308
0.339324
0.339324
0.33934
0.339355
0.339371
0.339387
0.339387
0.339403
0.339419
0.339435
0.339451
0.339451
0.339467
0.339483
0.339499
0.339515
0.339515
0.339531
0.339548
0.339564
0.33958
0.33958
0.339596
0.339613
0.339629
0.339645
0.339645
0.339662
0.339678
0.339695
0.339711
0.339711
0.339728
0.339744
0.339761
0.339777
0.339777
0.339794
0.339811
0.339827
0.339844
0.339844
0.339861
0.339878
0.339894
0.339911
0.339911
0.339928
0.339945
0.339962
0.339979
0.339979
0.339996
0.340013
0.34003
0.340047
0.340047
0.340064
0.340081
0.340099
0.340116
0.340116
0.340133
0.34015
0.340168
0.340185
0.340185
0.340202
0.34022
0.340237
0.340255
0.340255
0.340272
0.34029
0.340307
0.340325
0.340325
0.340342
0.34036
0.340378
0.340395
0.340395
0.340413
0.340431
0.340449
0.340467
0.340467
0.340484
0.340502
0.34052
0.340538
0.340538
0.340556
0.340574
0.340592
0.34061
0.34061
0.340628
0.340646
0.340665
0.340683
0.340683
0.340701
0.340719
0.340738
0.340756
0.340756
0.340774
0.340793
0.340811
0.340829
0.340829
0.340848
0.340866
0.340885
0.340903
0.340903
0.340922
0.340941
0.340959
0.340978
0.340978
0.340997
0.341015
0.341034
0.341053
0.341053
0.341072
0.341091
0.34111
0.341128
0.341128
0.341147
0.341166
0.341185
0.341204
0.341204
0.341223
0.341243
0.341262
0.341281
0.341281
0.3413
0.341319
0.341339
0.341358
0.341358
0.341377
0.341396
0.341416
0.341435
0.341435
0.341455
0.341474
0.341494
0.341513
0.341513
0.341533
0.341552
0.341572
0.341592
0.341592
0.341611
0.341631
0.341651
0.34167
0.34167
0.34169
0.34171
0.34173
0.34175
0.34175
0.34177
0.34179
0.34181
0.34183
0.34183
0.34185
0.34187
0.34189
0.34191
0.34191
0.34193
0.34195
0.341971
0.341991
0.341991
0.342011
0.342031
0.342052
0.342072
0.342072
0.342093
0.342113
0.342133
0.342154
0.342154
0.342175
0.342195
0.342216
0.342236
0.342236
0.342257
0.342278
0.342298
0.342319
0.342319
0.34234
0.342361
0.342381
0.342402
0.342402
0.342423
0.342444
0.342465
0.342486
0.342486
0.342507
0.342528
0.342549
0.34257
0.34257
0.342591
0.342613
0.342634
0.342655
0.342655
0.342676
0.342698
0.342719
0.34274
0.34274
0.342762
0.342783
0.342804
0.342826
0.342826
0.342847
0.342869
0.34289
0.342912
0.342912
0.342934
0.342955
0.342977
0.342999
0.342999
0.34302
0.343042
0.343064
0.343086
0.343086
0.343108
0.34313
0.343151
0.343173
0.343173
0.343195
0.343217
0.343239
0.343262
0.343262
0.343284
0.343306
0.343328
0.34335
0.34335
0.343372
0.343395
0.343417
0.343439
0.343439
0.343462
0.343484
0.343506
0.343529
0.343529
0.343551
0.343574
0.343596
0.343619
0.343619
0.343641
0.343664
0.343687
0.343709
0.343709
0.343732
0.343755
0.343778
0.3438
0.3438
0.343823
0.343846
0.343869
0.343892
0.343892
0.343915
0.343938
0.343961
0.343984
0.343984
0.344007
0.34403
0.344053
0.344076
0.344076
0.344099
0.344123
0.344146
0.344169
0.344169
0.344193
0.344216
0.344239
0.344263
0.344263
0.344286
0.34431
0.344333
0.344357
0.344357
0.34438
0.344404
0.344427
0.344451
0.344451
0.344475
0.344498
0.344522
0.344546
0.344546
0.34457
0.344593
0.344617
0.344641
0.344641
0.344665
0.344689
0.344713
0.344737
0.344737
0.344761
0.344785
0.344809
0.344833
0.344833
0.344858
0.344882
0.344906
0.34493
0.34493
0.344954
0.344979
0.345003
0.345028
0.345028
0.345052
0.345076
0.345101
0.345125
0.345125
0.34515
0.345174
0.345199
0.345224
0.345224
0.345248
0.345273
0.345298
0.345322
0.345322
0.345347
0.345372
0.345397
0.345422
0.345422
0.345446
0.345471
0.345496
0.345521
0.345521
0.345546
0.345571
0.345596
0.345621
0.345621
0.345647
0.345672
0.345697
0.345722
0.345722
0.345747
0.345773
0.345798
0.345823
0.345823
0.345849
0.345874
0.345899
0.345925
0.345925
0.34595
0.345976
0.346001
0.346027
0.346027
0.346053
0.346078
0.346104
0.34613
0.34613
0.346155
0.346181
0.346207
0.346233
0.346233
0.346259
0.346284
0.34631
0.346336
0.346336
0.346362
0.346388
0.346414
0.34644
0.34644
0.346466
0.346493
0.346519
0.346545
0.346545
0.346571
0.346597
0.346624
0.34665
0.34665
0.346676
0.346703
0.346729
0.346755
0.346755
0.346782
0.346808
0.346835
0.346861
0.346861
0.346888
0.346915
0.346941
0.346968
0.346968
0.346995
0.347021
0.347048
0.347075
0.347075
0.347102
0.347129
0.347155
0.347182
0.347182
0.347209
0.347236
0.347263
0.34729
0.34729
0.347317
0.347344
0.347371
0.347399
0.347399
0.347426
0.347453
0.34748
0.347507
0.347507
0.347535
0.347562
0.347589
0.347617
0.347617
0.347644
0.347672
0.347699
0.347727
0.347727
0.347754
0.347782
0.347809
0.347837
0.347837
0.347865
0.347892
0.34792
0.347948
0.347948
0.347976
0.348003
0.348031
0.348059
0.348059
0.348087
0.348115
0.348143
0.348171
0.348171
0.348199
0.348227
0.348255
0.348283
0.348283
0.348311
0.348339
0.348368
0.348396
0.348396
0.348424
0.348452
0.348481
0.348509
0.348509
0.348537
0.348566
0.348594
0.348623
0.348623
0.348651
0.34868
0.348708
0.348737
0.348737
0.348765
0.348794
0.348823
0.348852
0.348852
0.34888
0.348909
0.348938
0.348967
0.348967
0.348995
0.349024
0.349053
0.349082
0.349082
0.349111
0.34914
0.349169
0.349198
0.349198
0.349227
0.349257
0.349286
0.349315
0.349315
0.349344
0.349373
0.349403
0.349432
0.349432
0.349461
0.349491
0.34952
0.349549
0.349549
0.349579
0.349608
0.349638
0.349667
0.349667
0.349697
0.349727
0.349756
0.349786
0.349786
0.349816
0.349845
0.349875
0.349905
0.349905
0.349935
0.349965
0.349994
0.350024
0.350024
0.350054
0.350084
0.350114
0.350144
0.350144
0.350174
0.350204
0.350235
0.350265
0.350265
0.350295
0.350325
0.350355
0.350386
0.350386
0.350416
0.350446
0.350477
0.350507
0.350507
0.350537
0.350568
0.350598
0.350629
0.350629
0.350659
0.35069
0.350721
0.350751
0.350751
0.350782
0.350813
0.350843
0.350874
0.350874
0.350905
0.350936
0.350966
0.350997
0.350997
0.351028
0.351059
0.35109
0.351121
0.351121
0.351152
0.351183
0.351214
0.351245
0.351245
0.351276
0.351308
0.351339
0.35137
0.35137
0.351401
0.351433
0.351464
0.351495
0.351495
0.351527
0.351558
0.351589
0.351621
0.351621
0.351652
0.351684
0.351715
0.351747
0.351747
0.351779
0.35181
0.351842
0.351874
0.351874
0.351905
0.351937
0.351969
0.352001
0.352001
0.352033
0.352065
0.352096
0.352128
0.352128
0.35216
0.352192
0.352224
0.352256
0.352256
0.352289
0.352321
0.352353
0.352385
0.352385
0.352417
0.352449
0.352482
0.352514
0.352514
0.352546
0.352579
0.352611
0.352644
0.352644
0.352676
0.352708
0.352741
0.352774
0.352774
0.352806
0.352839
0.352871
0.352904
0.352904
0.352937
0.352969
0.353002
0.353035
0.353035
0.353068
0.353101
0.353133
0.353166
0.353166
0.353199
0.353232
0.353265
0.353298
0.353298
0.353331
0.353364
0.353397
0.353431
0.353431
0.353464
0.353497
0.35353
0.353563
0.353563
0.353597
0.35363
0.353663
0.353697
0.353697
0.35373
0.353764
0.353797
0.353831
0.353831
0.353864
0.353898
0.353931
0.353965
0.353965
0.353998
0.354032
0.354066
0.3541
0.3541
0.354133
0.354167
0.354201
0.354235
0.354235
0.354269
0.354303
0.354337
0.354371
0.354371
0.354405
0.354439
0.354473
0.354507
0.354507
0.354541
0.354575
0.354609
0.354643
0.354643
0.354678
0.354712
0.354746
0.354781
0.354781
0.354815
0.354849
0.354884
0.354918
0.354918
0.354953
0.354987
0.355022
0.355056
0.355056
0.355091
0.355125
0.35516
0.355195
0.355195
0.35523
0.355264
0.355299
0.355334
0.355334
0.355369
0.355404
0.355438
0.355473
0.355473
0.355508
0.355543
0.355578
0.355613
0.355613
0.355648
0.355684
0.355719
0.355754
0.355754
0.355789
0.355824
0.35586
0.355895
0.355895
0.35593
0.355965
0.356001
0.356036
0.356036
0.356072
0.356107
0.356143
0.356178
0.356178
0.356214
0.356249
0.356285
0.356321
0.356321
0.356356
0.356392
0.356428
0.356463
0.356463
0.356499
0.356535
0.356571
0.356607
0.356607
0.356643
0.356679
0.356714
0.35675
0.35675
0.356787
0.356823
0.356859
0.356895
0.356895
0.356931
0.356967
0.357003
0.35704
0.35704
0.357076
0.357112
0.357148
0.357185
0.357185
0.357221
0.357258
0.357294
0.35733
0.35733
0.357367
0.357403
0.35744
0.357477
0.357477
0.357513
0.35755
0.357587
0.357623
0.357623
0.35766
0.357697
0.357734
0.35777
0.35777
0.357807
0.357844
0.357881
0.357918
0.357918
0.357955
0.357992
0.358029
0.358066
0.358066
0.358103
0.35814
0.358177
0.358215
0.358215
0.358252
0.358289
0.358326
0.358364
0.358364
0.358401
0.358438
0.358476
0.358513
0.358513
0.358551
0.358588
0.358626
0.358663
0.358663
0.358701
0.358738
0.358776
0.358814
0.358814
0.358851
0.358889
0.358927
0.358964
0.358964
0.359002
0.35904
0.359078
0.359116
0.359116
0.359154
0.359192
0.35923
0.359268
0.359268
0.359306
0.359344
0.359382
0.35942
0.35942
0.359458
0.359496
0.359535
0.359573
0.359573
0.359611
0.359649
0.359688
0.359726
0.359726
0.359765
0.359803
0.359841
0.35988
0.35988
0.359918
0.359957
0.359996
0.360034
0.360034
0.360073
0.360111
0.36015
0.360189
0.360189
0.360228
0.360266
0.360305
0.360344
0.360344
0.360383
0.360422
0.360461
0.3605
0.3605
0.360539
0.360578
0.360617
0.360656
0.360656
0.360695
0.360734
0.360773
0.360812
0.360812
0.360852
0.360891
0.36093
0.360969
0.360969
0.361009
0.361048
0.361088
0.361127
0.361127
0.361166
0.361206
0.361245
0.361285
0.361285
0.361325
0.361364
0.361404
0.361443
0.361443
0.361483
0.361523
0.361563
0.361602
0.361602
0.361642
0.361682
0.361722
0.361762
0.361762
0.361802
0.361842
0.361882
0.361922
0.361922
0.361962
0.362002
0.362042
0.362082
0.362082
0.362122
0.362162
0.362203
0.362243
0.362243
0.362283
0.362324
0.362364
0.362404
0.362404
0.362445
0.362485
0.362526
0.362566
0.362566
0.362607
0.362647
0.362688
0.362728
0.362728
0.362769
0.36281
0.36285
0.362891
0.362891
0.362932
0.362973
0.363013
0.363054
0.363054
0.363095
0.363136
0.363177
0.363218
0.363218
0.363259
0.3633
0.363341
0.363382
0.363382
0.363423
0.363464
0.363505
0.363547
0.363547
0.363588
0.363629
0.36367
0.363712
0.363712
0.363753
0.363794
0.363836
0.363877
0.363877
0.363919
0.36396
0.364002
0.364043
0.364043
0.364085
0.364126
0.364168
0.36421
0.36421
0.364251
0.364293
0.364335
0.364377
0.364377
0.364418
0.36446
0.364502
0.364544
0.364544
0.364586
0.364628
0.36467
0.364712
0.364712
0.364754
0.364796
0.364838
0.36488
0.36488
0.364922
0.364965
0.365007
0.365049
0.365049
0.365091
0.365134
0.365176
0.365218
0.365218
0.365261
0.365303
0.365346
0.365388
0.365388
0.365431
0.365473
0.365516
0.365558
0.365558
0.365601
0.365644
0.365686
0.365729
0.365729
0.365772
0.365815
0.365858
0.3659
0.3659
0.365943
0.365986
0.366029
0.366072
0.366072
0.366115
0.366158
0.366201
0.366244
0.366244
0.366287
0.36633
0.366373
0.366417
0.366417
0.36646
0.366503
0.366546
0.36659
0.36659
0.366633
0.366676
0.36672
0.366763
0.366763
0.366807
0.36685
0.366894
0.366937
0.366937
0.366981
0.367024
0.367068
0.367112
0.367112
0.367155
0.367199
0.367243
0.367287
0.367287
0.36733
0.367374
0.367418
0.367462
0.367462
0.367506
0.36755
0.367594
0.367638
0.367638
0.367682
0.367726
0.36777
0.367814
0.367814
0.367858
0.367903
0.367947
0.367991
0.367991
0.368035
0.36808
0.368124
0.368168
0.368168
0.368213
0.368257
0.368302
0.368346
0.368346
0.36839
0.368435
0.36848
0.368524
0.368524
0.368569
0.368613
0.368658
0.368703
0.368703
0.368748
0.368792
0.368837
0.368882
0.368882
0.368927
0.368972
0.369017
0.369062
0.369062
0.369107
0.369152
0.369197
0.369242
0.369242
0.369287
0.369332
0.369377
0.369422
0.369422
0.369467
0.369513
0.369558
0.369603
0.369603
0.369648
0.369694
0.369739
0.369785
0.369785
0.36983
0.369875
0.369921
0.369967
0.369967
0.370012
0.370058
0.370103
0.370149
0.370149
0.370195
0.37024
0.370286
0.370332
0.370332
0.370378
0.370423
0.370469
0.370515
0.370515
0.370561
0.370607
0.370653
0.370699
0.370699
0.370745
0.370791
0.370837
0.370883
0.370883
0.370929
0.370975
0.371022
0.371068
0.371068
0.371114
0.37116
0.371207
0.371253
0.371253
0.371299
0.371346
0.371392
0.371439
0.371439
0.371485
0.371532
0.371578
0.371625
0.371625
0.371671
0.371718
0.371765
0.371811
0.371811
0.371858
0.371905
0.371952
0.371998
0.371998
0.372045
0.372092
0.372139
0.372186
0.372186
0.372233
0.37228
0.372327
0.372374
0.372374
0.372421
0.372468
0.372515
0.372562
0.372562
0.372609
0.372657
0.372704
0.372751
0.372751
0.372799
0.372846
0.372893
0.372941
0.372941
0.372988
0.373035
0.373083
0.37313
0.37313
0.373178
0.373225
0.373273
0.373321
0.373321
0.373368
0.373416
0.373464
0.373511
0.373511
0.373559
0.373607
0.373655
0.373703
0.373703
0.373751
0.373798
0.373846
0.373894
0.373894
0.373942
0.37399
0.374038
0.374086
0.374086
0.374135
0.374183
0.374231
0.374279
0.374279
0.374327
0.374376
0.374424
0.374472
0.374472
0.37452
0.374569
0.374617
0.374666
0.374666
0.374714
0.374763
0.374811
0.37486
0.37486
0.374908
0.374957
0.375005
0.375054
0.375054
0.375103
0.375152
0.3752
0.375249
0.375249
0.375298
0.375347
0.375396
0.375444
0.375444
0.375493
0.375542
0.375591
0.37564
0.37564
0.375689
0.375738
0.375787
0.375837
0.375837
0.375886
0.375935
0.375984
0.376033
0.376033
0.376083
0.376132
0.376181
0.376231
0.376231
0.37628
0.376329
0.376379
0.376428
0.376428
0.376478
0.376527
0.376577
0.376626
0.376626
0.376676
0.376726
0.376775
0.376825
0.376825
0.376875
0.376924
0.376974
0.377024
0.377024
0.377074
0.377124
0.377174
0.377224
0.377224
0.377274
0.377324
0.377374
0.377424
0.377424
0.377474
0.377524
0.377574
0.377624
0.377624
0.377674
0.377724
0.377775
0.377825
0.377825
0.377875
0.377926
0.377976
0.378026
0.378026
0.378077
0.378127
0.378178
0.378228
0.378228
0.378279
0.378329
0.37838
0.37843
0.37843
0.378481
0.378532
0.378583
0.378633
0.378633
0.378684
0.378735
0.378786
0.378836
0.378836
0.378887
0.378938
0.378989
0.37904
0.37904
0.379091
0.379142
0.379193
0.379244
0.379244
0.379295
0.379346
0.379398
0.379449
0.379449
0.3795
0.379551
0.379603
0.379654
0.379654
0.379705
0.379757
0.379808
0.379859
0.379859
0.379911
0.379962
0.380014
0.380065
0.380065
0.380117
0.380169
0.38022
0.380272
0.380272
0.380323
0.380375
0.380427
0.380479
0.380479
0.38053
0.380582
0.380634
0.380686
0.380686
0.380738
0.38079
0.380842
0.380894
0.380894
0.380946
0.380998
0.38105
0.381102
0.381102
0.381154
0.381206
0.381259
0.381311
0.381311
0.381363
0.381415
0.381468
0.38152
0.38152
0.381572
0.381625
0.381677
0.38173
0.38173
0.381782
0.381835
0.381887
0.38194
0.38194
0.381992
0.382045
0.382098
0.38215
0.38215
0.382203
0.382256
0.382309
0.382361
0.382361
0.382414
0.382467
0.38252
0.382573
0.382573
0.382626
0.382679
0.382732
0.382785
0.382785
0.382838
0.382891
0.382944
0.382997
0.382997
0.38305
0.383103
0.383157
0.38321
0.38321
0.383263
0.383316
0.38337
0.383423
0.383423
0.383477
0.38353
0.383583
0.383637
0.383637
0.38369
0.383744
0.383798
0.383851
0.383851
0.383905
0.383958
0.384012
0.384066
0.384066
0.38412
0.384173
0.384227
0.384281
0.384281
0.384335
0.384389
0.384443
0.384496
0.384496
0.38455
0.384604
0.384658
0.384713
0.384713
0.384767
0.384821
0.384875
0.384929
0.384929
0.384983
0.385037
0.385092
0.385146
0.385146
0.3852
0.385255
0.385309
0.385363
0.385363
0.385418
0.385472
0.385527
0.385581
0.385581
0.385636
0.38569
0.385745
0.385799
0.385799
0.385854
0.385909
0.385964
0.386018
0.386018
0.386073
0.386128
0.386183
0.386237
0.386237
0.386292
0.386347
0.386402
0.386457
0.386457
0.386512
0.386567
0.386622
0.386677
0.386677
0.386732
0.386787
0.386843
0.386898
0.386898
0.386953
0.387008
0.387064
0.387119
0.387119
0.387174
0.38723
0.387285
0.38734
0.38734
0.387396
0.387451
0.387507
0.387562
0.387562
0.387618
0.387673
0.387729
0.387785
0.387785
0.38784
0.387896
0.387952
0.388008
0.388008
0.388063
0.388119
0.388175
0.388231
0.388231
0.388287
0.388343
0.388399
0.388455
0.388455
0.388511
0.388567
0.388623
0.388679
0.388679
0.388735
0.388791
0.388847
0.388903
0.388903
0.38896
0.389016
0.389072
0.389129
0.389129
0.389185
0.389241
0.389298
0.389354
0.389354
0.389411
0.389467
0.389524
0.38958
0.38958
0.389637
0.389693
0.38975
0.389807
0.389807
0.389863
0.38992
0.389977
0.390033
0.390033
0.39009
0.390147
0.390204
0.390261
0.390261
0.390318
0.390375
0.390432
0.390489
0.390489
0.390546
0.390603
0.39066
0.390717
0.390717
0.390774
0.390831
0.390888
0.390946
0.390946
0.391003
0.39106
0.391118
0.391175
0.391175
0.391232
0.39129
0.391347
0.391404
0.391404
0.391462
0.391519
0.391577
0.391635
0.391635
0.391692
0.39175
0.391807
0.391865
0.391865
0.391923
0.391981
0.392038
0.392096
0.392096
0.392154
0.392212
0.39227
0.392327
0.392327
0.392385
0.392443
0.392501
0.392559
0.392559
0.392617
0.392675
0.392734
0.392792
0.392792
0.39285
0.392908
0.392966
0.393024
0.393024
0.393083
0.393141
0.393199
0.393258
0.393258
0.393316
0.393374
0.393433
0.393491
0.393491
0.39355
0.393608
0.393667
0.393725
0.393725
0.393784
0.393843
0.393901
0.39396
0.39396
0.394019
0.394078
0.394136
0.394195
0.394195
0.394254
0.394313
0.394372
0.394431
0.394431
0.39449
0.394548
0.394607
0.394666
0.394666
0.394726
0.394785
0.394844
0.394903
0.394903
0.394962
0.395021
0.39508
0.39514
0.39514
0.395199
0.395258
0.395318
0.395377
0.395377
0.395436
0.395496
0.395555
0.395615
0.395615
0.395674
0.395734
0.395793
0.395853
0.395853
0.395912
0.395972
0.396032
0.396091
0.396091
0.396151
0.396211
0.396271
0.39633
0.39633
0.39639
0.39645
0.39651
0.39657
0.39657
0.39663
0.39669
0.39675
0.39681
0.39681
0.39687
0.39693
0.39699
0.39705
0.39705
0.397111
0.397171
0.397231
0.397291
0.397291
0.397351
0.397412
0.397472
0.397532
0.397532
0.397593
0.397653
0.397714
0.397774
0.397774
0.397835
0.397895
0.397956
0.398016
0.398016
0.398077
0.398138
0.398198
0.398259
0.398259
0.39832
0.398381
0.398441
0.398502
0.398502
0.398563
0.398624
0.398685
0.398746
0.398746
0.398807
0.398868
0.398929
0.39899
0.39899
0.399051
0.399112
0.399173
0.399234
0.399234
0.399295
0.399356
0.399418
0.399479
0.399479
0.39954
0.399602
0.399663
0.399724
0.399724
0.399786
0.399847
0.399908
0.39997
0.39997
0.400031
0.400093
0.400155
0.400216
0.400216
0.400278
0.400339
0.400401
0.400463
0.400463
0.400525
0.400586
0.400648
0.40071
0.40071
0.400772
0.400834
0.400895
0.400957
0.400957
0.401019
0.401081
0.401143
0.401205
0.401205
0.401267
0.40133
0.401392
0.401454
0.401454
0.401516
0.401578
0.40164
0.401703
0.401703
0.401765
0.401827
0.40189
0.401952
0.401952
0.402014
0.402077
0.402139
0.402202
0.402202
0.402264
0.402327
0.402389
0.402452
0.402452
0.402515
0.402577
0.40264
0.402703
0.402703
0.402765
0.402828
0.402891
0.402954
0.402954
0.403016
0.403079
0.403142
0.403205
0.403205
0.403268
0.403331
0.403394
0.403457
0.403457
0.40352
0.403583
0.403646
0.40371
0.40371
0.403773
0.403836
0.403899
0.403962
0.403962
0.404026
0.404089
0.404152
0.404216
0.404216
0.404279
0.404342
0.404406
0.404469
0.404469
0.404533
0.404596
0.40466
0.404724
0.404724
0.404787
0.404851
0.404914
0.404978
0.404978
0.405042
0.405106
0.405169
0.405233
0.405233
0.405297
0.405361
0.405425
0.405489
0.405489
0.405553
0.405617
0.405681
0.405745
0.405745
0.405809
0.405873
0.405937
0.406001
0.406001
0.406065
0.406129
0.406194
0.406258
0.406258
0.406322
0.406386
0.406451
0.406515
0.406515
0.40658
0.406644
0.406708
0.406773
0.406773
0.406837
0.406902
0.406966
0.407031
0.407031
0.407096
0.40716
0.407225
0.40729
0.40729
0.407354
0.407419
0.407484
0.407549
0.407549
0.407613
0.407678
0.407743
0.407808
0.407808
0.407873
0.407938
0.408003
0.408068
0.408068
0.408133
0.408198
0.408263
0.408328
0.408328
0.408393
0.408459
0.408524
0.408589
0.408589
0.408654
0.40872
0.408785
0.40885
0.40885
0.408916
0.408981
0.409047
0.409112
0.409112
0.409177
0.409243
0.409308
0.409374
0.409374
0.40944
0.409505
0.409571
0.409637
0.409637
0.409702
0.409768
0.409834
0.4099
0.4099
0.409965
0.410031
0.410097
0.410163
0.410163
0.410229
0.410295
0.410361
0.410427
0.410427
0.410493
0.410559
0.410625
0.410691
0.410691
0.410757
0.410823
0.41089
0.410956
0.410956
0.411022
0.411088
0.411155
0.411221
0.411221
0.411287
0.411354
0.41142
0.411487
0.411487
0.411553
0.41162
0.411686
0.411753
0.411753
0.411819
0.411886
0.411952
0.412019
0.412019
0.412086
0.412153
0.412219
0.412286
0.412286
0.412353
0.41242
0.412486
0.412553
0.412553
0.41262
0.412687
0.412754
0.412821
0.412821
0.412888
0.412955
0.413022
0.413089
0.413089
0.413156
0.413224
0.413291
0.413358
0.413358
0.413425
0.413492
0.41356
0.413627
0.413627
0.413694
0.413762
0.413829
0.413897
0.413897
0.413964
0.414032
0.414099
0.414167
0.414167
0.414234
0.414302
0.414369
0.414437
0.414437
0.414505
0.414572
0.41464
0.414708
0.414708
0.414776
0.414843
0.414911
0.414979
0.414979
0.415047
0.415115
0.415183
0.415251
0.415251
0.415319
0.415387
0.415455
0.415523
0.415523
0.415591
0.415659
0.415727
0.415795
0.415795
0.415864
0.415932
0.416
0.416068
0.416068
0.416137
0.416205
0.416274
0.416342
0.416342
0.41641
0.416479
0.416547
0.416616
0.416616
0.416684
0.416753
0.416821
0.41689
0.41689
0.416959
0.417027
0.417096
0.417165
0.417165
0.417234
0.417302
0.417371
0.41744
0.41744
0.417509
0.417578
0.417647
0.417716
0.417716
0.417785
0.417854
0.417923
0.417992
0.417992
0.418061
0.41813
0.418199
0.418268
0.418268
0.418337
0.418406
0.418476
0.418545
0.418545
0.418614
0.418684
0.418753
0.418822
0.418822
0.418892
0.418961
0.419031
0.4191
0.4191
0.41917
0.419239
0.419309
0.419378
0.419378
0.419448
0.419518
0.419587
0.419657
0.419657
0.419727
0.419796
0.419866
0.419936
0.419936
0.420006
0.420076
0.420146
0.420215
0.420215
0.420285
0.420355
0.420425
0.420495
0.420495
0.420565
0.420636
0.420706
0.420776
0.420776
0.420846
0.420916
0.420986
0.421057
0.421057
0.421127
0.421197
0.421267
0.421338
0.421338
0.421408
0.421479
0.421549
0.421619
0.421619
0.42169
0.42176
0.421831
0.421901
0.421901
0.421972
0.422043
0.422113
0.422184
0.422184
0.422255
0.422325
0.422396
0.422467
0.422467
0.422538
0.422609
0.422679
0.42275
0.42275
0.422821
0.422892
0.422963
0.423034
0.423034
0.423105
0.423176
0.423247
0.423318
0.423318
0.423389
0.423461
0.423532
0.423603
0.423603
0.423674
0.423745
0.423817
0.423888
0.423888
0.423959
0.424031
0.424102
0.424174
0.424174
0.424245
0.424316
0.424388
0.424459
0.424459
0.424531
0.424603
0.424674
0.424746
0.424746
0.424817
0.424889
0.424961
0.425033
0.425033
0.425104
0.425176
0.425248
0.42532
0.42532
0.425392
0.425464
0.425536
0.425608
0.425608
0.425679
0.425751
0.425824
0.425896
0.425896
0.425968
0.42604
0.426112
0.426184
0.426184
0.426256
0.426329
0.426401
0.426473
0.426473
0.426545
0.426618
0.42669
0.426762
0.426762
0.426835
0.426907
0.42698
0.427052
0.427052
0.427125
0.427197
0.42727
0.427342
0.427342
0.427415
0.427488
0.42756
0.427633
0.427633
0.427706
0.427778
0.427851
0.427924
0.427924
0.427997
0.42807
0.428143
0.428216
0.428216
0.428289
0.428361
0.428434
0.428507
0.428507
0.428581
0.428654
0.428727
0.4288
0.4288
0.428873
0.428946
0.429019
0.429093
0.429093
0.429166
0.429239
0.429312
0.429386
0.429386
0.429459
0.429533
0.429606
0.429679
0.429679
0.429753
0.429826
0.4299
0.429973
0.429973
0.430047
0.430121
0.430194
0.430268
0.430268
0.430342
0.430415
0.430489
0.430563
0.430563
0.430637
0.43071
0.430784
0.430858
0.430858
0.430932
0.431006
0.43108
0.431154
0.431154
0.431228
0.431302
0.431376
0.43145
0.43145
0.431524
0.431598
0.431672
0.431747
0.431747
0.431821
0.431895
0.431969
0.432044
0.432044
0.432118
0.432192
0.432267
0.432341
0.432341
0.432416
0.43249
0.432564
0.432639
0.432639
0.432713
0.432788
0.432863
0.432937
0.432937
0.433012
0.433087
0.433161
0.433236
0.433236
0.433311
0.433385
0.43346
0.433535
0.433535
0.43361
0.433685
0.43376
0.433835
0.433835
0.43391
0.433985
0.43406
0.434135
0.434135
0.43421
0.434285
0.43436
0.434435
0.434435
0.43451
0.434585
0.434661
0.434736
0.434736
0.434811
0.434886
0.434962
0.435037
0.435037
0.435112
0.435188
0.435263
0.435339
0.435339
0.435414
0.43549
0.435565
0.435641
0.435641
0.435716
0.435792
0.435868
0.435943
0.435943
0.436019
0.436095
0.43617
0.436246
0.436246
0.436322
0.436398
0.436474
0.43655
0.43655
0.436625
0.436701
0.436777
0.436853
0.436853
0.436929
0.437005
0.437081
0.437158
0.437158
0.437234
0.43731
0.437386
0.437462
0.437462
0.437538
0.437615
0.437691
0.437767
0.437767
0.437843
0.43792
0.437996
0.438073
0.438073
0.438149
0.438225
0.438302
0.438378
0.438378
0.438455
0.438532
0.438608
0.438685
0.438685
0.438761
0.438838
0.438915
0.438991
0.438991
0.439068
0.439145
0.439222
0.439299
0.439299
0.439375
0.439452
0.439529
0.439606
0.439606
0.439683
0.43976
0.439837
0.439914
0.439914
0.439991
0.440068
0.440145
0.440222
0.440222
0.4403
0.440377
0.440454
0.440531
0.440531
0.440609
0.440686
0.440763
0.44084
0.44084
0.440918
0.440995
0.441073
0.44115
0.44115
0.441228
0.441305
0.441383
0.44146
0.44146
0.441538
0.441615
0.441693
0.441771
0.441771
0.441848
0.441926
0.442004
0.442082
0.442082