<?xml version="1.0"?>
<VTKFile type="UnstructuredGrid" version="0.1" byte_order="LittleEndian">
<UnstructuredGrid>
<Piece NumberOfPoints="5000" NumberOfCells="4000">
<PointData Scalars="Reaction 0">
<DataArray type="Float32" Name="Reaction 0" format="ascii">
0.595916
0.595916
0.595916
0.595916
0.595916
0.595916
0.595916
0.595916
0.595917
0.595917
0.595917
0.595917
0.595917
0.595917
0.595917
0.595917
0.595917
0.595917
0.595918
0.595918
0.595918
0.595918
0.595918
0.595918
0.595919
0.595919
0.595919
0.595919
0.595919
0.59592
0.59592
0.59592
0.59592
0.595921
0.595921
0.595921
0.595921
0.595922
0.595922
0.595922
0.595922
0.595923
0.595923
0.595924
0.595924
0.595924
0.595925
0.595925
0.595925
0.595926
0.595926
0.595926
0.595927
0.595927
0.595928
0.595928
0.595928
0.595929
0.59593
0.59593
0.59593
0.595931
0.595931
0.595932
0.595933
0.595933
0.595933
0.595934
0.595935
0.595935
0.595935
0.595936
0.595937
0.595937
0.595938
0.595938
0.595939
0.595939
0.59594
0.595941
0.595941
0.595942
0.595943
0.595943
0.595944
0.595944
0.595945
0.595946
0.595947
0.595948
0.595948
0.595948
0.595949
0.59595
0.595951
0.595951
0.595952
0.595953
0.595954
0.595955
0.595955
0.595956
0.595957
0.595958
0.595959
0.595959
0.59596
0.595961
0.595962
0.595963
0.595963
0.595964
0.595965
0.595966
0.595967
0.595967
0.595969
0.59597
0.595971
0.595972
0.595972
0.595973
0.595974
0.595975
0.595977
0.595977
0.595978
0.595979
0.59598
0.595982
0.595982
0.595983
0.595984
0.595985
0.595987
0.595987
0.595988
0.595989
0.595991
0.595992
0.595992
0.595993
0.595995
0.595996
0.595998
0.595998
0.595999
0.596
0.596002
0.596003
0.596003
0.596005
0.596006
0.596008
0.596009
0.596009
0.596011
0.596012
0.596014
0.596015
0.596015
0.596017
0.596018
0.59602
0.596022
0.596022
0.596023
0.596025
0.596026
0.596028
0.596028
0.59603
0.596031
0.596033
0.596035
0.596035
0.596036
0.596038
0.59604
0.596042
0.596042
0.596043
0.596045
0.596047
0.596049
0.596049
0.59605
0.596052
0.596054
0.596056
0.596056
0.596058
0.59606
0.596062
0.596063
0.596063
0.596065
0.596067
0.596069
0.596071
0.596071
0.596073
0.596075
0.596077
0.596079
0.596079
0.596081
0.596083
0.596085
0.596087
0.596087
0.596089
0.596091
0.596093
0.596095
0.596095
0.596097
0.596099
0.596101
0.596104
0.596104
0.596106
0.596108
0.59611
0.596112
0.596112
0.596114
0.596117
0.596119
0.596121
0.596121
0.596123
0.596126
0.596128
0.59613
0.59613
0.596132
0.596135
0.596137
0.596139
0.596139
0.596142
0.596144
0.596146
0.596149
0.596149
0.596151
0.596154
0.596156
0.596158
0.596158
0.596161
0.596163
0.596166
0.596168
0.596168
0.596171
0.596173
0.596176
0.596178
0.596178
0.596181
0.596183
0.596186
0.596188
0.596188
0.596191
0.596194
0.596196
0.596199
0.596199
0.596201
0.596204
0.596207
0.596209
0.596209
0.596212
0.596215
0.596217
0.59622
0.59622
0.596223
0.596226
0.596228
0.596231
0.596231
0.596234
0.596237
0.59624
0.596242
0.596242
0.596245
0.596248
0.596251
0.596254
0.596254
0.596257
0.596259
0.596262
0.596265
0.596265
0.596268
0.596271
0.596274
0.596277
0.596277
0.59628
0.596283
0.596286
0.596289
0.596289
0.596292
0.596295
0.596298
0.596301
0.596301
0.596304
0.596307
0.59631
0.596314
0.596314
0.596317
0.59632
0.596323
0.596326
0.596326
0.596329
0.596333
0.596336
0.596339
0.596339
0.596342
0.596345
0.596349
0.596352
0.596352
0.596355
0.596358
0.596362
0.596365
0.596365
0.596368
0.596372
0.596375
0.596378
0.596378
0.596382
0.596385
0.596389
0.596392
0.596392
0.596395
0.596399
0.596402
0.596406
0.596406
0.596409
0.596413
0.596416
0.59642
0.59642
0.596423
0.596427
0.59643
0.596434
0.596434
0.596437
0.596441
0.596444
0.596448
0.596448
0.596452
0.596455
0.596459
0.596463
0.596463
0.596466
0.59647
0.596474
0.596477
0.596477
0.596481
0.596485
0.596489
0.596492
0.596492
0.596496
0.5965
0.596504
0.596507
0.596507
0.596511
0.596515
0.596519
0.596523
0.596523
0.596527
0.59653
0.596534
0.596538
0.596538
0.596542
0.596546
0.59655
0.596554
0.596554
0.596558
0.596562
0.596566
0.59657
0.59657
0.596574
0.596578
0.596582
0.596586
0.596586
0.59659
0.596594
0.596598
0.596602
0.596602
0.596607
0.596611
0.596615
0.596619
0.596619
0.596623
0.596627
0.596632
0.596636
0.596636
0.59664
0.596644
0.596649
0.596653
0.596653
0.596657
0.596661
0.596666
0.59667
0.59667
0.596674
0.596679
0.596683
0.596687
0.596687
0.596692
0.596696
0.5967
0.596705
0.596705
0.596709
0.596714
0.596718
0.596723
0.596723
0.596727
0.596732
0.596736
0.596741
0.596741
0.596745
0.59675
0.596754
0.596759
0.596759
0.596763
0.596768
0.596773
0.596777
0.596777
0.596782
0.596786
0.596791
0.596796
0.596796
0.5968
0.596805
0.59681
0.596814
0.596814
0.596819
0.596824
0.596829
0.596833
0.596833
0.596838
0.596843
0.596848
0.596853
0.596853
0.596857
0.596862
0.596867
0.596872
0.596872
0.596877
0.596882
0.596887
0.596892
0.596892
0.596896
0.596901
0.596906
0.596911
0.596911
0.596916
0.596921
0.596926
0.596931
0.596931
0.596936
0.596941
0.596946
0.596951
0.596951
0.596956
0.596962
0.596967
0.596972
0.596972
0.596977
0.596982
0.596987
0.596992
0.596992
0.596998
0.597003
0.597008
0.597013
0.597013
0.597018
0.597024
0.597029
0.597034
0.597034
0.597039
0.597045
0.59705
0.597055
0.597055
0.597061
0.597066
0.597072
0.597077
0.597077
0.597082
0.597088
0.597093
0.597099
0.597099
0.597104
0.597109
0.597115
0.59712
0.59712
0.597126
0.597131
0.597137
0.597142
0.597142
0.597148
0.597154
0.597159
0.597165
0.597165
0.59717
0.597176
0.597182
0.597187
0.597187
0.597193
0.597199
0.597204
0.59721
0.59721
0.597216
0.597221
0.597227
0.597233
0.597233
0.597239
0.597244
0.59725
0.597256
0.597256
0.597262
0.597267
0.597273
0.597279
0.597279
0.597285
0.597291
0.597297
0.597303
0.597303
0.597309
0.597314
0.59732
0.597326
0.597326
0.597332
0.597338
0.597344
0.59735
0.59735
0.597356
0.597362
0.597368
0.597374
0.597374
0.59738
0.597386
0.597393
0.597399
0.597399
0.597405
0.597411
0.597417
0.597423
0.597423
0.597429
0.597435
0.597442
0.597448
0.597448
0.597454
0.59746
0.597467
0.597473
0.597473
0.597479
0.597485
0.597492
0.597498
0.597498
0.597504
0.597511
0.597517
0.597523
0.597523
0.59753
0.597536
0.597543
0.597549
0.597549
0.597555
0.597562
0.597568
0.597575
0.597575
0.597581
0.597588
0.597594
0.597601
0.597601
0.597607
0.597614
0.597621
0.597627
0.597627
0.597634
0.59764
0.597647
0.597654
0.597654
0.59766
0.597667
0.597674
0.59768
0.59768
0.597687
0.597694
0.5977
0.597707
0.597707
0.597714
0.597721
0.597727
0.597734
0.597734
0.597741
0.597748
0.597755
0.597761
0.597761
0.597768
0.597775
0.597782
0.597789
0.597789
0.597796
0.597803
0.59781
0.597817
0.597817
0.597824
0.597831
0.597838
0.597845
0.597845
0.597852
0.597859
0.597866
0.597873
0.597873
0.59788
0.597887
0.597894
0.597901
0.597901
0.597908
0.597915
0.597922
0.59793
0.59793
0.597937
0.597944
0.597951
0.597958
0.597958
0.597966
0.597973
0.59798
0.597987
0.597987
0.597995
0.598002
0.598009
0.598017
0.598017
0.598024
0.598031
0.598039
0.598046
0.598046
0.598053
0.598061
0.598068
0.598076
0.598076
0.598083
0.598091
0.598098
0.598106
0.598106
0.598113
0.598121
0.598128
0.598136
0.598136
0.598143
0.598151
0.598158
0.598166
0.598166
0.598174
0.598181
0.598189
0.598197
0.598197
0.598204
0.598212
0.59822
0.598227
0.598227
0.598235
0.598243
0.598251
0.598258
0.598258
0.598266
0.598274
0.598282
0.598289
0.598289
0.598297
0.598305
0.598313
0.598321
0.598321
0.598329
0.598337
0.598345
0.598352
0.598352
0.59836
0.598368
0.598376
0.598384
0.598384
0.598392
0.5984
0.598408
0.598416
0.598416
0.598424
0.598432
0.59844
0.598449
0.598449
0.598457
0.598465
0.598473
0.598481
0.598481
0.598489
0.598497
0.598506
0.598514
0.598514
0.598522
0.59853
0.598538
0.598547
0.598547
0.598555
0.598563
0.598572
0.59858
0.59858
0.598588
0.598597
0.598605
0.598613
0.598613
0.598622
0.59863
0.598639
0.598647
0.598647
0.598655
0.598664
0.598672
0.598681
0.598681
0.598689
0.598698
0.598706
0.598715
0.598715
0.598723
0.598732
0.598741
0.598749
0.598749
0.598758
0.598766
0.598775
0.598784
0.598784
0.598792
0.598801
0.59881
0.598818
0.598818
0.598827
0.598836
0.598845
0.598853
0.598853
0.598862
0.598871
0.59888
0.598888
0.598888
0.598897
0.598906
0.598915
0.598924
0.598924
0.598933
0.598942
0.59895
0.598959
0.598959
0.598968
0.598977
0.598986
0.598995
0.598995
0.599004
0.599013
0.599022
0.599031
0.599031
0.59904
0.599049
0.599059
0.599068
0.599068
0.599077
0.599086
0.599095
0.599104
0.599104
0.599113
0.599123
0.599132
0.599141
0.599141
0.59915
0.59916
0.599169
0.599178
0.599178
0.599187
0.599197
0.599206
0.599215
0.599215
0.599225
0.599234
0.599243
0.599253
0.599253
0.599262
0.599272
0.599281
0.59929
0.59929
0.5993
0.599309
0.599319
0.599328
0.599328
0.599338
0.599347
0.599357
0.599366
0.599366
0.599376
0.599386
0.599395
0.599405
0.599405
0.599414
0.599424
0.599434
0.599443
0.599443
0.599453
0.599463
0.599472
0.599482
0.599482
0.599492
0.599502
0.599511
0.599521
0.599521
0.599531
0.599541
0.599551
0.59956
0.59956
0.59957
0.59958
0.59959
0.5996
0.5996
0.59961
0.59962
0.59963
0.59964
0.59964
0.59965
0.59966
0.59967
0.59968
0.59968
0.59969
0.5997
0.59971
0.59972
0.59972
0.59973
0.59974
0.59975
0.599761
0.599761
0.599771
0.599781
0.599791
0.599801
0.599801
0.599811
0.599822
0.599832
0.599842
0.599842
0.599852
0.599863
0.599873
0.599883
0.599883
0.599894
0.599904
0.599914
0.599925
0.599925
0.599935
0.599945
0.599956
0.599966
0.599966
0.599977
0.599987
0.599998
0.600008
0.600008
0.600019
0.600029
0.60004
0.60005
0.60005
0.600061
0.600071
0.600082
0.600093
0.600093
0.600103
0.600114
0.600125
0.600135
0.600135
0.600146
0.600157
0.600167
0.600178
0.600178
0.600189
0.6002
0.60021
0.600221
0.600221
0.600232
0.600243
0.600254
0.600264
0.600264
0.600275
0.600286
0.600297
0.600308
0.600308
0.600319
0.60033
0.600341
0.600352
0.600352
0.600363
0.600374
0.600385
0.600396
0.600396
0.600407
0.600418
0.600429
0.60044
0.60044
0.600451
0.600462
0.600473
0.600484
0.600484
0.600496
0.600507
0.600518
0.600529
0.600529
0.60054
0.600552
0.600563
0.600574
0.600574
0.600585
0.600597
0.600608
0.600619
0.600619
0.600631
0.600642
0.600654
0.600665
0.600665
0.600676
0.600688
0.600699
0.600711
0.600711
0.600722
0.600734
0.600745
0.600757
0.600757
0.600768
0.60078
0.600791
0.600803
0.600803
0.600814
0.600826
0.600838
0.600849
0.600849
0.600861
0.600873
0.600884
0.600896
0.600896
0.600908
0.600919
0.600931
0.600943
0.600943
0.600955
0.600966
0.600978
0.60099
0.60099
0.601002
0.601014
0.601026
0.601037
0.601037
0.601049
0.601061
0.601073
0.601085
0.601085
0.601097
0.601109
0.601121
0.601133
0.601133
0.601145
0.601157
0.601169
0.601181
0.601181
0.601193
0.601206
0.601218
0.60123
0.60123
0.601242
0.601254
0.601266
0.601278
0.601278
0.601291
0.601303
0.601315
0.601327
0.601327
0.60134
0.601352
0.601364
0.601377
0.601377
0.601389
0.601401
0.601414
0.601426
0.601426
0.601438
0.601451
0.601463
0.601476
0.601476
0.601488
0.601501
0.601513
0.601526
0.601526
0.601538
0.601551
0.601563
0.601576
0.601576
0.601588
0.601601
0.601614
0.601626
0.601626
0.601639
0.601652
0.601664
0.601677
0.601677
0.60169
0.601702
0.601715
0.601728
0.601728
0.601741
0.601753
0.601766
0.601779
0.601779
0.601792
0.601805
0.601818
0.601831
0.601831
0.601844
0.601856
0.601869
0.601882
0.601882
0.601895
0.601908
0.601921
0.601934
0.601934
0.601947
0.60196
0.601973
0.601986
0.601986
0.602
0.602013
0.602026
0.602039
0.602039
0.602052
0.602065
0.602078
0.602092
0.602092
0.602105
0.602118
0.602131
0.602145
0.602145
0.602158
0.602171
0.602185
0.602198
0.602198
0.602211
0.602225
0.602238
0.602251
0.602251
0.602265
0.602278
0.602292
0.602305
0.602305
0.602319
0.602332
0.602346
0.602359
0.602359
0.602373
0.602386
0.6024
0.602414
0.602414
0.602427
0.602441
0.602455
0.602468
0.602468
0.602482
0.602496
0.602509
0.602523
0.602523
0.602537
0.60255
0.602564
0.602578
0.602578
0.602592
0.602606
0.60262
0.602633
0.602633
0.602647
0.602661
0.602675
0.602689
0.602689
0.602703
0.602717
0.602731
0.602745
0.602745
0.602759
0.602773
0.602787
0.602801
0.602801
0.602815
0.602829
0.602843
0.602857
0.602857
0.602872
0.602886
0.6029
0.602914
0.602914
0.602928
0.602943
0.602957
0.602971
0.602971
0.602985
0.603
0.603014
0.603028
0.603028
0.603043
0.603057
0.603071
0.603086
0.603086
0.6031
0.603115
0.603129
0.603143
0.603143
0.603158
0.603172
0.603187
0.603201
0.603201
0.603216
0.603231
0.603245
0.60326
0.60326
0.603274
0.603289
0.603304
0.603318
0.603318
0.603333
0.603348
0.603362
0.603377
0.603377
0.603392
0.603407
0.603421
0.603436
0.603436
0.603451
0.603466
0.603481
0.603496
0.603496
0.60351
0.603525
0.60354
0.603555
0.603555
0.60357
0.603585
0.6036
0.603615
0.603615
0.60363
0.603645
0.60366
0.603675
0.603675
0.60369
0.603705
0.603721
0.603736
0.603736
0.603751
0.603766
0.603781
0.603796
0.603796
0.603812
0.603827
0.603842
0.603857
0.603857
0.603873
0.603888
0.603903
0.603919
0.603919
0.603934
0.603949
0.603965
0.60398
0.60398
0.603996
0.604011
0.604027
0.604042
0.604042
0.604058
0.604073
0.604089
0.604104
0.604104
0.60412
0.604135
0.604151
0.604167
0.604167
0.604182
0.604198
0.604214
0.604229
0.604229
0.604245
0.604261
0.604276
0.604292
0.604292
0.604308
0.604324
0.60434
0.604355
0.604355
0.604371
0.604387
0.604403
0.604419
0.604419
0.604435
0.604451
0.604467
0.604483
0.604483
0.604499
0.604515
0.604531
0.604547
0.604547
0.604563
0.604579
0.604595
0.604611
0.604611
0.604627
0.604643
0.60466
0.604676
0.604676
0.604692
0.604708
0.604724
0.604741
0.604741
0.604757
0.604773
0.604789
0.604806
0.604806
0.604822
0.604838
0.604855
0.604871
0.604871
0.604888
0.604904
0.60492
0.604937
0.604937
0.604953
0.60497
0.604986
0.605003
0.605003
0.60502
0.605036
0.605053
0.605069
0.605069
0.605086
0.605103
0.605119
0.605136
0.605136
0.605153
0.605169
0.605186
0.605203
0.605203
0.60522
0.605237
0.605253
0.60527
0.60527
0.605287
0.605304
0.605321
0.605338
0.605338
0.605355
0.605371
0.605388
0.605405
0.605405
0.605422
0.605439
0.605456
0.605473
0.605473
0.60549
0.605507
0.605525
0.605542
0.605542
0.605559
0.605576
0.605593
0.60561
0.60561
0.605628
0.605645
0.605662
0.605679
0.605679
0.605697
0.605714
0.605731
0.605749
0.605749
0.605766
0.605783
0.605801
0.605818
0.605818
0.605836
0.605853
0.60587
0.605888
0.605888
0.605905
0.605923
0.60594
0.605958
0.605958
0.605976
0.605993
0.606011
0.606028
0.606028
0.606046
0.606064
0.606081
0.606099
0.606099
0.606117
0.606134
0.606152
0.60617
0.60617
0.606188
0.606206
0.606223
0.606241
0.606241
0.606259
0.606277
0.606295
0.606313
0.606313
0.606331
0.606349
0.606367
0.606385
0.606385
0.606403
0.606421
0.606439
0.606457
0.606457
0.606475
0.606493
0.606511
0.606529
0.606529
0.606548
0.606566
0.606584
0.606602
0.606602
0.60662
0.606639
0.606657
0.606675
0.606675
0.606694
0.606712
0.60673
0.606749
0.606749
0.606767
0.606785
0.606804
0.606822
0.606822
0.606841
0.606859
0.606878
0.606896
0.606896
0.606915
0.606934
0.606952
0.606971
0.606971
0.606989
0.607008
0.607027
0.607045
0.607045
0.607064
0.607083
0.607101
0.60712
0.60712
0.607139
0.607158
0.607177
0.607195
0.607195
0.607214
0.607233
0.607252
0.607271
0.607271
0.60729
0.607309
0.607328
0.607347
0.607347
0.607366
0.607385
0.607404
0.607423
0.607423
0.607442
0.607461
0.60748
0.607499
0.607499
0.607518
0.607538
0.607557
0.607576
0.607576
0.607595
0.607614
0.607634
0.607653
0.607653
0.607672
0.607692
0.607711
0.60773
0.60773
0.60775
0.607769
0.607789
0.607808
0.607808
0.607827
0.607847
0.607866
0.607886
0.607886
0.607905
0.607925
0.607945
0.607964
0.607964
0.607984
0.608004
0.608023
0.608043
0.608043
0.608063
0.608082
0.608102
0.608122
0.608122
0.608142
0.608161
0.608181
0.608201
0.608201
0.608221
0.608241
0.608261
0.608281
0.608281
0.608301
0.60832
0.60834
0.60836
0.60836
0.60838
0.6084
0.60842
0.608441
0.608441
0.608461
0.608481
0.608501
0.608521
0.608521
0.608541
0.608561
0.608582
0.608602
0.608602
0.608622
0.608642
0.608663
0.608683
0.608683
0.608703
0.608724
0.608744
0.608764
0.608764
0.608785
0.608805
0.608826
0.608846
0.608846
0.608867
0.608887
0.608908
0.608928
0.608928
0.608949
0.608969
0.60899
0.609011
0.609011
0.609031
0.609052
0.609073
0.609093
0.609093
0.609114
0.609135
0.609156
0.609176
0.609176
0.609197
0.609218
0.609239
0.60926
0.60926
0.609281
0.609302
0.609323
0.609343
0.609343
0.609364
0.609385
0.609406
0.609428
0.609428
0.609449
0.60947
0.609491
0.609512
0.609512
0.609533
0.609554
0.609575
0.609596
0.609596
0.609618
0.609639
0.60966
0.609681
0.609681
0.609703
0.609724
0.609745
0.609767
0.609767
0.609788
0.60981
0.609831
0.609852
0.609852
0.609874
0.609895
0.609917
0.609938
0.609938
0.60996
0.609981
0.610003
0.610025
0.610025
0.610046
0.610068
0.61009
0.610111
0.610111
0.610133
0.610155
0.610176
0.610198
0.610198
0.61022
0.610242
0.610264
0.610285
0.610285
0.610307
0.610329
0.610351
0.610373
0.610373
0.610395
0.610417
0.610439
0.610461
0.610461
0.610483
0.610505
0.610527
0.610549
0.610549
0.610572
0.610594
0.610616
0.610638
0.610638
0.61066
0.610682
0.610705
0.610727
0.610727
0.610749
0.610772
0.610794
0.610816
0.610816
0.610839
0.610861
0.610883
0.610906
0.610906
0.610928
0.610951
0.610973
0.610996
0.610996
0.611018
0.611041
0.611063
0.611086
0.611086
0.611109
0.611131
0.611154
0.611177
0.611177
0.611199
0.611222
0.611245
0.611268
0.611268
0.61129
0.611313
0.611336
0.611359
0.611359
0.611382
0.611405
0.611428
0.611451
0.611451
0.611474
0.611497
0.61152
0.611543
0.611543
0.611566
0.611589
0.611612
0.611635
0.611635
0.611658
0.611681
0.611704
0.611728
0.611728
0.611751
0.611774
0.611797
0.611821
0.611821
0.611844
0.611867
0.611891
0.611914
0.611914
0.611937
0.611961
0.611984
0.612008
0.612008
0.612031
0.612055
0.612078
0.612102
0.612102
0.612125
0.612149
0.612172
0.612196
0.612196
0.61222
0.612243
0.612267
0.612291
0.612291
0.612314
0.612338
0.612362
0.612386
0.612386
0.61241
0.612434
0.612457
0.612481
0.612481
0.612505
0.612529
0.612553
0.612577
0.612577
0.612601
0.612625
0.612649
0.612673
0.612673
0.612697
0.612721
0.612745
0.61277
0.61277
0.612794
0.612818
0.612842
0.612866
0.612866
0.612891
0.612915
0.612939
0.612964
0.612964
0.612988
0.613012
0.613037
0.613061
0.613061
0.613086
0.61311
0.613135
0.613159
0.613159
0.613184
0.613208
0.613233
0.613257
0.613257
0.613282
0.613306
0.613331
0.613356
0.613356
0.61338
0.613405
0.61343
0.613455
0.613455
0.613479
0.613504
0.613529
0.613554
0.613554
0.613579
0.613604
0.613629
0.613654
0.613654
0.613679
0.613704
0.613729
0.613754
0.613754
0.613779
0.613804
0.613829
0.613854
0.613854
0.613879
0.613904
0.61393
0.613955
0.613955
0.61398
0.614005
0.61403
0.614056
0.614056
0.614081
0.614106
0.614132
0.614157
0.614157
0.614183
0.614208
0.614233
0.614259
0.614259
0.614284
0.61431
0.614336
0.614361
0.614361
0.614387
0.614412
0.614438
0.614464
0.614464
0.614489
0.614515
0.614541
0.614567
0.614567
0.614592
0.614618
0.614644
0.61467
0.61467
0.614696
0.614722
0.614747
0.614773
0.614773
0.614799
0.614825
0.614851
0.614877
0.614877
0.614903
0.614929
0.614956
0.614982
0.614982
0.615008
0.615034
0.61506
0.615086
0.615086
0.615113
0.615139
0.615165
0.615191
0.615191
0.615218
0.615244
0.61527
0.615297
0.615297
0.615323
0.61535
0.615376
0.615403
0.615403
0.615429
0.615456
0.615482
0.615509
0.615509
0.615535
0.615562
0.615589
0.615615
0.615615
0.615642
0.615669
0.615695
0.615722
0.615722
0.615749
0.615776
0.615803
0.615829
0.615829
0.615856
0.615883
0.61591
0.615937
0.615937
0.615964
0.615991
0.616018
0.616045
0.616045
0.616072
0.616099
0.616126
0.616153
0.616153
0.616181
0.616208
0.616235
0.616262
0.616262
0.616289
0.616317
0.616344
0.616371
0.616371
0.616399
0.616426
0.616453
0.616481
0.616481
0.616508
0.616536
0.616563
0.616591
0.616591
0.616618
0.616646
0.616673
0.616701
0.616701
0.616729
0.616756
0.616784
0.616812
0.616812
0.616839
0.616867
0.616895
0.616922
0.616922
0.61695
0.616978
0.617006
0.617034
0.617034
0.617062
0.61709
0.617118
0.617146
0.617146
0.617174
0.617202
0.61723
0.617258
0.617258
0.617286
0.617314
0.617342
0.61737
0.61737
0.617398
0.617427
0.617455
0.617483
0.617483
0.617511
0.61754
0.617568
0.617596
0.617596
0.617625
0.617653
0.617682
0.61771
0.61771
0.617739
0.617767
0.617796
0.617824
0.617824
0.617853
0.617881
0.61791
0.617939
0.617939
0.617967
0.617996
0.618025
0.618053
0.618053
0.618082
0.618111
0.61814
0.618168
0.618168
0.618197
0.618226
0.618255
0.618284
0.618284
0.618313
0.618342
0.618371
0.6184
0.6184
0.618429
0.618458
0.618487
0.618516
0.618516
0.618546
0.618575
0.618604
0.618633
0.618633
0.618662
0.618692
0.618721
0.61875
0.61875
0.61878
0.618809
0.618838
0.618868
0.618868
0.618897
0.618927
0.618956
0.618986
0.618986
0.619015
0.619045
0.619074
0.619104
0.619104
0.619133
0.619163
0.619193
0.619223
0.619223
0.619252
0.619282
0.619312
0.619342
0.619342
0.619371
0.619401
0.619431
0.619461
0.619461
0.619491
0.619521
0.619551
0.619581
0.619581
0.619611
0.619641
0.619671
0.619701
0.619701
0.619731
0.619761
0.619791
0.619822
0.619822
0.619852
0.619882
0.619912
0.619943
0.619943
0.619973
0.620003
0.620034
0.620064
0.620064
0.620094
0.620125
0.620155
0.620186
0.620186
0.620216
0.620247
0.620277
0.620308
0.620308
0.620339
0.620369
0.6204
0.620431
0.620431
0.620461
0.620492
0.620523
0.620554
0.620554
0.620584
0.620615
0.620646
0.620677
0.620677
0.620708
0.620739
0.62077
0.620801
0.620801
0.620832
0.620863
0.620894
0.620925
0.620925
0.620956
0.620987
0.621018
0.621049
0.621049
0.621081
0.621112
0.621143
0.621174
0.621174
0.621206
0.621237
0.621268
0.6213
0.6213
0.621331
0.621363
0.621394
0.621426
0.621426
0.621457
0.621489
0.62152
0.621552
0.621552
0.621583
0.621615
0.621647
0.621678
0.621678
0.62171
0.621742
0.621774
0.621805
0.621805
0.621837
0.621869
0.621901
0.621933
0.621933
0.621965
0.621997
0.622029
0.622061
0.622061
0.622093
0.622125
0.622157
0.622189
0.622189
0.622221
0.622253
0.622285
0.622317
0.622317
0.622349
0.622382
0.622414
0.622446
0.622446
0.622479
0.622511
0.622543
0.622576
0.622576
0.622608
0.622641
0.622673
0.622705
0.622705
0.622738
0.622771
0.622803
0.622836
0.622836
0.622868
0.622901
0.622934
0.622966
0.622966
0.622999
0.623032
0.623065
0.623097
0.623097
0.62313
0.623163
0.623196
0.623229
0.623229
0.623262
0.623295
0.623328
0.623361
0.623361
0.623394
0.623427
0.62346
0.623493
0.623493
0.623526
0.623559
0.623592
0.623625
0.623625
0.623659
0.623692
0.623725
0.623759
0.623759
0.623792
0.623825
0.623859
0.623892
0.623892
0.623925
0.623959
0.623992
0.624026
0.624026
0.624059
0.624093
0.624127
0.62416
0.62416
0.624194
0.624228
0.624261
0.624295
0.624295
0.624329
0.624362
0.624396
0.62443
0.62443
0.624464
0.624498
0.624532
0.624566
0.624566
0.6246
0.624633
0.624667
0.624702
0.624702
0.624736
0.62477
0.624804
0.624838
0.624838
0.624872
0.624906
0.62494
0.624975
0.624975
0.625009
0.625043
0.625078
0.625112
0.625112
0.625146
0.625181
0.625215
0.625249
0.625249
0.625284
0.625318
0.625353
0.625387
0.625387
0.625422
0.625457
0.625491
0.625526
0.625526
0.625561
0.625595
0.62563
0.625665
0.625665
0.6257
0.625734
0.625769
0.625804
0.625804
0.625839
0.625874
0.625909
0.625944
0.625944
0.625979
0.626014
0.626049
0.626084
0.626084
0.626119
0.626154
0.626189
0.626224
0.626224
0.62626
0.626295
0.62633
0.626365
0.626365
0.626401
0.626436
0.626471
0.626507
0.626507
0.626542
0.626578
0.626613
0.626648
0.626648
0.626684
0.62672
0.626755
0.626791
0.626791
0.626826
0.626862
0.626898
0.626933
0.626933
0.626969
0.627005
0.627041
0.627076
0.627076
0.627112
0.627148
0.627184
0.62722
0.62722
0.627256
0.627292
0.627328
0.627364
0.627364
0.6274
0.627436
0.627472
0.627508
0.627508
0.627544
0.62758
0.627617
0.627653
0.627653
0.627689
0.627725
0.627762
0.627798
0.627798
0.627834
0.627871
0.627907
0.627943
0.627943
0.62798
0.628016
0.628053
0.628089
0.628089
0.628126
0.628163
0.628199
0.628236
0.628236
0.628273
0.628309
0.628346
0.628383
0.628383
0.62842
0.628456
0.628493
0.62853
0.62853
0.628567
0.628604
0.628641
0.628678
0.628678
0.628715
0.628752
0.628789
0.628826
0.628826
0.628863
0.6289
0.628937
0.628974
0.628974
0.629012
0.629049
0.629086
0.629123
0.629123
0.629161
0.629198
0.629235
0.629273
0.629273
0.62931
0.629348
0.629385
0.629423
0.629423
0.62946
0.629498
0.629535
0.629573
0.629573
0.62961
0.629648
0.629686
0.629724
0.629724
0.629761
0.629799
0.629837
0.629875
0.629875
0.629912
0.62995
0.629988
0.630026
0.630026
0.630064
0.630102
0.63014
0.630178
0.630178
0.630216
0.630254
0.630292
0.630331
0.630331
0.630369
0.630407
0.630445
0.630483
0.630483
0.630522
0.63056
0.630598
0.630637
0.630637
0.630675
0.630713
0.630752
0.63079
0.63079
0.630829
0.630867
0.630906
0.630944
0.630944
0.630983
0.631022
0.63106
0.631099
0.631099
0.631138
0.631176
0.631215
0.631254
0.631254
0.631293
0.631332
0.63137
0.631409
0.631409
0.631448
0.631487
0.631526
0.631565
0.631565
0.631604
0.631643
0.631682
0.631721
0.631721
0.63176
0.6318
0.631839
0.631878
0.631878
0.631917
0.631957
0.631996
0.632035
0.632035
0.632074
0.632114
0.632153
0.632193
0.632193
0.632232
0.632272
0.632311
0.632351
0.632351
0.63239
0.63243
0.632469
0.632509
0.632509
0.632549
0.632588
0.632628
0.632668
0.632668
0.632708
0.632748
0.632787
0.632827
0.632827
0.632867
0.632907
0.632947
0.632987
0.632987
0.633027
0.633067
0.633107
0.633147
0.633147
0.633187
0.633227
0.633267
0.633308
0.633308
0.633348
0.633388
0.633428
0.633469
0.633469
0.633509
0.633549
0.63359
0.63363
0.63363
0.63367
0.633711
0.633751
0.633792
0.633792
0.633832
0.633873
0.633914
0.633954
0.633954
0.633995
0.634035
0.634076
0.634117
0.634117
0.634158
0.634198
0.634239
0.63428
0.63428
0.634321
0.634362
0.634403
0.634444
0.634444
0.634485
0.634526
0.634567
0.634608
0.634608
0.634649
0.63469
0.634731
0.634772
0.634772
0.634813
0.634855
0.634896
0.634937
0.634937
0.634978
0.63502
0.635061
0.635102
0.635102
0.635144
0.635185
0.635227
0.635268
0.635268
0.63531
0.635351
0.635393
0.635434
0.635434
0.635476
0.635518
0.635559
0.635601
0.635601
0.635643
0.635684
0.635726
0.635768
0.635768
0.63581
0.635852
0.635894
0.635935
0.635935
0.635977
0.636019
0.636061
0.636103
0.636103
0.636145
0.636187
0.63623
0.636272
0.636272
0.636314
0.636356
0.636398
0.63644
0.63644
0.636483
0.636525
0.636567
0.63661
0.63661
0.636652
0.636694
0.636737
0.636779
0.636779
0.636822
0.636864
0.636907
0.636949
0.636949
0.636992
0.637035
0.637077
0.63712
0.63712
0.637163
0.637205
0.637248
0.637291
0.637291
0.637334
0.637377
0.637419
0.637462
0.637462
0.637505
0.637548
0.637591
0.637634
0.637634
0.637677
0.63772
0.637763
0.637806
0.637806
0.637849
0.637893
0.637936
0.637979
0.637979
0.638022
0.638065
0.638109
0.638152
0.638152
0.638195
0.638239
0.638282
0.638326
0.638326
0.638369
0.638413
0.638456
0.6385
0.6385
0.638543
0.638587
0.63863
0.638674
0.638674
0.638718
0.638761
0.638805
0.638849
0.638849
0.638893
0.638936
0.63898
0.639024
0.639024
0.639068
0.639112
0.639156
0.6392
0.6392
0.639244
0.639288
0.639332
0.639376
0.639376
0.63942
0.639464
0.639508
0.639552
0.639552
0.639597
0.639641
0.639685
0.639729
0.639729
0.639774
0.639818
0.639862
0.639907
0.639907
0.639951
0.639996
0.64004
0.640085
0.640085
0.640129
0.640174
0.640218
0.640263
0.640263
0.640308
0.640352
0.640397
0.640442
0.640442
0.640486
0.640531
0.640576
0.640621
0.640621
0.640666
0.640711
0.640755
0.6408
0.6408
0.640845
0.64089
0.640935
0.64098
0.64098
0.641025
0.641071
0.641116
0.641161
0.641161
0.641206
0.641251
0.641296
0.641342
0.641342
0.641387
0.641432
0.641478
0.641523
0.641523
0.641568
0.641614
0.641659
0.641705
0.641705
0.64175
0.641796
0.641841
0.641887
0.641887
0.641932
0.641978
0.642024
0.642069
0.642069
0.642115
0.642161
0.642206
0.642252
0.642252
0.642298
0.642344
0.64239
0.642436
0.642436
0.642482
0.642528
0.642574
0.64262
0.64262
0.642666
0.642712
0.642758
0.642804
0.642804
0.64285
0.642896
0.642942
0.642988
0.642988
0.643035
0.643081
0.643127
0.643174
0.643174
0.64322
0.643266
0.643313
0.643359
0.643359
0.643406
0.643452
0.643499
0.643545
0.643545
0.643592
0.643638
0.643685
0.643731
0.643731
0.643778
0.643825
0.643871
0.643918
0.643918
0.643965
0.644012
0.644059
0.644105
0.644105
0.644152
0.644199
0.644246
0.644293
0.644293
0.64434
0.644387
0.644434
0.644481
0.644481
0.644528
0.644575
0.644622
0.64467
0.64467
0.644717
0.644764
0.644811
0.644859
0.644859
0.644906
0.644953
0.645
0.645048
0.645048
0.645095
0.645143
0.64519
0.645238
0.645238
0.645285
0.645333
0.64538
0.645428
0.645428
0.645475
0.645523
0.645571
0.645618
0.645618
0.645666
0.645714
0.645762
0.645809
0.645809
0.645857
0.645905
0.645953
0.646001
0.646001
0.646049
0.646097
0.646145
0.646193
0.646193
0.646241
0.646289
0.646337
0.646385
0.646385
0.646433
0.646481
0.646529
0.646578
0.646578
0.646626
0.646674
0.646722
0.646771
0.646771
0.646819
0.646867
0.646916
0.646964
0.646964
0.647013
0.647061
0.647109
0.647158
0.647158
0.647207
0.647255
0.647304
0.647352
0.647352
0.647401
0.64745
0.647498
0.647547
0.647547
0.647596
0.647645
0.647693
0.647742
0.647742
0.647791
0.64784
0.647889
0.647938
0.647938
0.647987
0.648036
0.648085
0.648134
0.648134
0.648183
0.648232
0.648281
0.64833
0.64833
0.648379
0.648428
0.648478
0.648527
0.648527
0.648576
0.648625
0.648675
0.648724
0.648724
0.648773
0.648823
0.648872
0.648922
0.648922
0.648971
0.649021
0.64907
0.64912
0.64912
0.649169
0.649219
0.649268
0.649318
0.649318
0.649368
0.649417
0.649467
0.649517
0.649517
0.649567
0.649616
0.649666
0.649716
0.649716
0.649766
0.649816
0.649866
0.649916
0.649916
0.649966
0.650016
0.650066
0.650116
0.650116
0.650166
0.650216
0.650266
0.650316
0.650316
0.650366
0.650417
0.650467
0.650517
0.650517
0.650567
0.650618
0.650668
0.650718
0.650718
0.650769
0.650819
0.650869
0.65092
0.65092
0.65097
0.651021
0.651071
0.651122
0.651122
0.651172
0.651223
0.651274
0.651324
0.651324
0.651375
0.651426
0.651476
0.651527
0.651527
0.651578
0.651629
0.651679
0.65173
0.65173
0.651781
0.651832
0.651883
0.651934
0.651934
0.651985
0.652036
0.652087
0.652138
0.652138
0.652189
0.65224
0.652291
0.652342
0.652342
0.652393
0.652445
0.652496
0.652547
0.652547
0.652598
0.65265
0.652701
0.652752
0.652752
0.652804
0.652855
0.652906
0.652958
0.652958
0.653009
0.653061
0.653112
0.653164
0.653164
0.653215
0.653267
0.653319
0.65337
0.65337
0.653422
0.653474
0.653525
0.653577
0.653577
0.653629
0.65368
0.653732
0.653784
0.653784
0.653836
0.653888
0.65394
0.653992
0.653992
0.654043
0.654095
0.654147
0.654199
0.654199
0.654251
0.654304
0.654356
0.654408
0.654408
0.65446
0.654512
0.654564
0.654616
0.654616
0.654669
0.654721
0.654773
0.654825
0.654825
0.654878
0.65493
0.654982
0.655035