<?xml version="1.0"?>
<VTKFile type="UnstructuredGrid" version="0.1" byte_order="LittleEndian">
<UnstructuredGrid>
<Piece NumberOfPoints="5000" NumberOfCells="4000">
<PointData Scalars="Reaction 0">
<DataArray type="Float32" Name="Reaction 0" format="ascii">
0.574006
0.574006
0.574006
0.574006
0.574006
0.574006
0.574006
0.574006
0.574006
0.574006
0.574006
0.574007
0.574007
0.574007
0.574007
0.574007
0.574007
0.574007
0.574007
0.574007
0.574007
0.574007
0.574007
0.574007
0.574007
0.574007
0.574007
0.574007
0.574007
0.574007
0.574007
0.574008
0.574008
0.574008
0.574008
0.574008
0.574008
0.574008
0.574008
0.574008
0.574008
0.574008
0.574008
0.574009
0.574009
0.574009
0.574009
0.574009
0.574009
0.574009
0.574009
0.574009
0.57401
0.57401
0.57401
0.57401
0.57401
0.57401
0.57401
0.574011
0.574011
0.574011
0.574011
0.574011
0.574011
0.574011
0.574011
0.574012
0.574012
0.574012
0.574012
0.574012
0.574013
0.574013
0.574013
0.574013
0.574013
0.574013
0.574014
0.574014
0.574014
0.574014
0.574014
0.574015
0.574015
0.574015
0.574015
0.574015
0.574016
0.574016
0.574016
0.574016
0.574016
0.574017
0.574017
0.574017
0.574017
0.574017
0.574018
0.574018
0.574018
0.574018
0.574019
0.574019
0.574019
0.574019
0.57402
0.57402
0.57402
0.57402
0.57402
0.574021
0.574021
0.574021
0.574022
0.574022
0.574022
0.574022
0.574023
0.574023
0.574023
0.574024
0.574024
0.574024
0.574025
0.574025
0.574025
0.574025
0.574026
0.574026
0.574026
0.574026
0.574027
0.574027
0.574028
0.574028
0.574028
0.574028
0.574029
0.574029
0.574029
0.57403
0.57403
0.57403
0.574031
0.574031
0.574031
0.574032
0.574032
0.574033
0.574033
0.574033
0.574034
0.574034
0.574034
0.574034
0.574035
0.574035
0.574036
0.574036
0.574036
0.574037
0.574037
0.574038
0.574038
0.574038
0.574039
0.574039
0.57404
0.57404
0.57404
0.574041
0.574041
0.574042
0.574042
0.574042
0.574043
0.574043
0.574044
0.574044
0.574044
0.574045
0.574045
0.574046
0.574046
0.574046
0.574047
0.574047
0.574048
0.574048
0.574048
0.574049
0.57405
0.57405
0.574051
0.574051
0.574051
0.574052
0.574052
0.574053
0.574053
0.574054
0.574054
0.574055
0.574055
0.574055
0.574056
0.574057
0.574057
0.574058
0.574058
0.574058
0.574059
0.57406
0.57406
0.57406
0.574061
0.574062
0.574062
0.574063
0.574063
0.574063
0.574064
0.574065
0.574065
0.574065
0.574066
0.574067
0.574067
0.574068
0.574068
0.574069
0.574069
0.57407
0.574071
0.574071
0.574072
0.574072
0.574073
0.574074
0.574074
0.574074
0.574075
0.574076
0.574076
0.574076
0.574077
0.574078
0.574079
0.574079
0.574079
0.57408
0.574081
0.574082
0.574082
0.574082
0.574083
0.574084
0.574085
0.574085
0.574085
0.574086
0.574087
0.574088
0.574088
0.574088
0.574089
0.57409
0.574091
0.574092
0.574092
0.574092
0.574093
0.574094
0.574095
0.574095
0.574096
0.574096
0.574097
0.574098
0.574098
0.574099
0.5741
0.574101
0.574101
0.574101
0.574102
0.574103
0.574104
0.574105
0.574105
0.574106
0.574106
0.574107
0.574108
0.574108
0.574109
0.57411
0.574111
0.574112
0.574112
0.574113
0.574113
0.574114
0.574115
0.574115
0.574116
0.574117
0.574118
0.574119
0.574119
0.57412
0.574121
0.574122
0.574123
0.574123
0.574123
0.574124
0.574125
0.574126
0.574126
0.574127
0.574128
0.574129
0.57413
0.57413
0.574131
0.574132
0.574133
0.574134
0.574134
0.574135
0.574136
0.574137
0.574138
0.574138
0.574139
0.57414
0.574141
0.574142
0.574142
0.574143
0.574144
0.574145
0.574146
0.574146
0.574147
0.574148
0.574149
0.57415
0.57415
0.574151
0.574152
0.574153
0.574154
0.574154
0.574155
0.574156
0.574157
0.574158
0.574158
0.574159
0.57416
0.574162
0.574163
0.574163
0.574164
0.574165
0.574166
0.574167
0.574167
0.574168
0.574169
0.57417
0.574171
0.574171
0.574172
0.574174
0.574175
0.574176
0.574176
0.574177
0.574178
0.574179
0.57418
0.57418
0.574181
0.574183
0.574184
0.574185
0.574185
0.574186
0.574187
0.574188
0.574189
0.574189
0.574191
0.574192
0.574193
0.574194
0.574194
0.574195
0.574197
0.574198
0.574199
0.574199
0.5742
0.574201
0.574203
0.574204
0.574204
0.574205
0.574206
0.574207
0.574209
0.574209
0.57421
0.574211
0.574212
0.574214
0.574214
0.574215
0.574216
0.574217
0.574219
0.574219
0.57422
0.574221
0.574222
0.574224
0.574224
0.574225
0.574226
0.574228
0.574229
0.574229
0.57423
0.574232
0.574233
0.574234
0.574234
0.574235
0.574237
0.574238
0.574239
0.574239
0.574241
0.574242
0.574243
0.574245
0.574245
0.574246
0.574247
0.574249
0.57425
0.57425
0.574251
0.574253
0.574254
0.574256
0.574256
0.574257
0.574258
0.57426
0.574261
0.574261
0.574262
0.574264
0.574265
0.574267
0.574267
0.574268
0.574269
0.574271
0.574272
0.574272
0.574274
0.574275
0.574276
0.574278
0.574278
0.574279
0.574281
0.574282
0.574284
0.574284
0.574285
0.574287
0.574288
0.574289
0.574289
0.574291
0.574292
0.574294
0.574295
0.574295
0.574297
0.574298
0.5743
0.574301
0.574301
0.574303
0.574304
0.574306
0.574307
0.574307
0.574309
0.57431
0.574312
0.574313
0.574313
0.574315
0.574316
0.574318
0.574319
0.574319
0.574321
0.574323
0.574324
0.574326
0.574326
0.574327
0.574329
0.57433
0.574332
0.574332
0.574333
0.574335
0.574337
0.574338
0.574338
0.57434
0.574341
0.574343
0.574345
0.574345
0.574346
0.574348
0.574349
0.574351
0.574351
0.574353
0.574354
0.574356
0.574358
0.574358
0.574359
0.574361
0.574363
0.574364
0.574364
0.574366
0.574367
0.574369
0.574371
0.574371
0.574373
0.574374
0.574376
0.574378
0.574378
0.574379
0.574381
0.574383
0.574384
0.574384
0.574386
0.574388
0.574389
0.574391
0.574391
0.574393
0.574395
0.574396
0.574398
0.574398
0.5744
0.574402
0.574403
0.574405
0.574405
0.574407
0.574409
0.57441
0.574412
0.574412
0.574414
0.574416
0.574417
0.574419
0.574419
0.574421
0.574423
0.574424
0.574426
0.574426
0.574428
0.57443
0.574432
0.574433
0.574433
0.574435
0.574437
0.574439
0.574441
0.574441
0.574443
0.574444
0.574446
0.574448
0.574448
0.57445
0.574452
0.574454
0.574455
0.574455
0.574457
0.574459
0.574461
0.574463
0.574463
0.574465
0.574467
0.574469
0.57447
0.57447
0.574472
0.574474
0.574476
0.574478
0.574478
0.57448
0.574482
0.574484
0.574486
0.574486
0.574488
0.57449
0.574492
0.574493
0.574493
0.574495
0.574497
0.574499
0.574501
0.574501
0.574503
0.574505
0.574507
0.574509
0.574509
0.574511
0.574513
0.574515
0.574517
0.574517
0.574519
0.574521
0.574523
0.574525
0.574525
0.574527
0.574529
0.574531
0.574533
0.574533
0.574535
0.574537
0.574539
0.574541
0.574541
0.574543
0.574545
0.574548
0.57455
0.57455
0.574552
0.574554
0.574556
0.574558
0.574558
0.57456
0.574562
0.574564
0.574566
0.574566
0.574568
0.57457
0.574572
0.574575
0.574575
0.574577
0.574579
0.574581
0.574583
0.574583
0.574585
0.574587
0.574589
0.574592
0.574592
0.574594
0.574596
0.574598
0.5746
0.5746
0.574602
0.574604
0.574607
0.574609
0.574609
0.574611
0.574613
0.574615
0.574618
0.574618
0.57462
0.574622
0.574624
0.574626
0.574626
0.574629
0.574631
0.574633
0.574635
0.574635
0.574637
0.57464
0.574642
0.574644
0.574644
0.574646
0.574649
0.574651
0.574653
0.574653
0.574655
0.574658
0.57466
0.574662
0.574662
0.574665
0.574667
0.574669
0.574671
0.574671
0.574674
0.574676
0.574678
0.574681
0.574681
0.574683
0.574685
0.574688
0.57469
0.57469
0.574692
0.574695
0.574697
0.574699
0.574699
0.574702
0.574704
0.574706
0.574709
0.574709
0.574711
0.574714
0.574716
0.574718
0.574718
0.574721
0.574723
0.574725
0.574728
0.574728
0.57473
0.574733
0.574735
0.574737
0.574737
0.57474
0.574742
0.574745
0.574747
0.574747
0.57475
0.574752
0.574754
0.574757
0.574757
0.574759
0.574762
0.574764
0.574767
0.574767
0.574769
0.574772
0.574774
0.574777
0.574777
0.574779
0.574782
0.574784
0.574787
0.574787
0.574789
0.574792
0.574794
0.574797
0.574797
0.574799
0.574802
0.574804
0.574807
0.574807
0.574809
0.574812
0.574814
0.574817
0.574817
0.57482
0.574822
0.574825
0.574827
0.574827
0.57483
0.574832
0.574835
0.574838
0.574838
0.57484
0.574843
0.574845
0.574848
0.574848
0.574851
0.574853
0.574856
0.574859
0.574859
0.574861
0.574864
0.574866
0.574869
0.574869
0.574872
0.574874
0.574877
0.57488
0.57488
0.574882
0.574885
0.574888
0.57489
0.57489
0.574893
0.574896
0.574898
0.574901
0.574901
0.574904
0.574907
0.574909
0.574912
0.574912
0.574915
0.574917
0.57492
0.574923
0.574923
0.574926
0.574928
0.574931
0.574934
0.574934
0.574937
0.574939
0.574942
0.574945
0.574945
0.574948
0.57495
0.574953
0.574956
0.574956
0.574959
0.574962
0.574964
0.574967
0.574967
0.57497
0.574973
0.574976
0.574979
0.574979
0.574981
0.574984
0.574987
0.57499
0.57499
0.574993
0.574996
0.574998
0.575001
0.575001
0.575004
0.575007
0.57501
0.575013
0.575013
0.575016
0.575019
0.575021
0.575024
0.575024
0.575027
0.57503
0.575033
0.575036
0.575036
0.575039
0.575042
0.575045
0.575048
0.575048
0.575051
0.575054
0.575057
0.57506
0.57506
0.575062
0.575065
0.575068
0.575071
0.575071
0.575074
0.575077
0.57508
0.575083
0.575083
0.575086
0.575089
0.575092
0.575095
0.575095
0.575098
0.575101
0.575104
0.575107
0.575107
0.57511
0.575113
0.575117
0.57512
0.57512
0.575123
0.575126
0.575129
0.575132
0.575132
0.575135
0.575138
0.575141
0.575144
0.575144
0.575147
0.57515
0.575153
0.575157
0.575157
0.57516
0.575163
0.575166
0.575169
0.575169
0.575172
0.575175
0.575178
0.575182
0.575182
0.575185
0.575188
0.575191
0.575194
0.575194
0.575197
0.575201
0.575204
0.575207
0.575207
0.57521
0.575213
0.575217
0.57522
0.57522
0.575223
0.575226
0.575229
0.575233
0.575233
0.575236
0.575239
0.575242
0.575245
0.575245
0.575249
0.575252
0.575255
0.575258
0.575258
0.575262
0.575265
0.575268
0.575272
0.575272
0.575275
0.575278
0.575281
0.575285
0.575285
0.575288
0.575291
0.575295
0.575298
0.575298
0.575301
0.575305
0.575308
0.575311
0.575311
0.575315
0.575318
0.575321
0.575325
0.575325
0.575328
0.575332
0.575335
0.575338
0.575338
0.575342
0.575345
0.575348
0.575352
0.575352
0.575355
0.575359
0.575362
0.575365
0.575365
0.575369
0.575372
0.575376
0.575379
0.575379
0.575383
0.575386
0.57539
0.575393
0.575393
0.575396
0.5754
0.575403
0.575407
0.575407
0.57541
0.575414
0.575417
0.575421
0.575421
0.575424
0.575428
0.575431
0.575435
0.575435
0.575438
0.575442
0.575445
0.575449
0.575449
0.575453
0.575456
0.57546
0.575463
0.575463
0.575467
0.57547
0.575474
0.575478
0.575478
0.575481
0.575485
0.575488
0.575492
0.575492
0.575496
0.575499
0.575503
0.575506
0.575506
0.57551
0.575514
0.575517
0.575521
0.575521
0.575525
0.575528
0.575532
0.575536
0.575536
0.575539
0.575543
0.575547
0.57555
0.57555
0.575554
0.575558
0.575561
0.575565
0.575565
0.575569
0.575572
0.575576
0.57558
0.57558
0.575584
0.575587
0.575591
0.575595
0.575595
0.575599
0.575602
0.575606
0.57561
0.57561
0.575614
0.575617
0.575621
0.575625
0.575625
0.575629
0.575633
0.575636
0.57564
0.57564
0.575644
0.575648
0.575652
0.575656
0.575656
0.575659
0.575663
0.575667
0.575671
0.575671
0.575675
0.575679
0.575682
0.575686
0.575686
0.57569
0.575694
0.575698
0.575702
0.575702
0.575706
0.57571
0.575714
0.575717
0.575717
0.575721
0.575725
0.575729
0.575733
0.575733
0.575737
0.575741
0.575745
0.575749
0.575749
0.575753
0.575757
0.575761
0.575765
0.575765
0.575769
0.575773
0.575777
0.575781
0.575781
0.575785
0.575789
0.575793
0.575797
0.575797
0.575801
0.575805
0.575809
0.575813
0.575813
0.575817
0.575821
0.575825
0.575829
0.575829
0.575833
0.575837
0.575842
0.575846
0.575846
0.57585
0.575854
0.575858
0.575862
0.575862
0.575866
0.57587
0.575874
0.575879
0.575879
0.575883
0.575887
0.575891
0.575895
0.575895
0.575899
0.575903
0.575908
0.575912
0.575912
0.575916
0.57592
0.575924
0.575928
0.575928
0.575933
0.575937
0.575941
0.575945
0.575945
0.57595
0.575954
0.575958
0.575962
0.575962
0.575967
0.575971
0.575975
0.575979
0.575979
0.575984
0.575988
0.575992
0.575996
0.575996
0.576001
0.576005
0.576009
0.576014
0.576014
0.576018
0.576022
0.576027
0.576031
0.576031
0.576035
0.57604
0.576044
0.576048
0.576048
0.576053
0.576057
0.576061
0.576066
0.576066
0.57607
0.576075
0.576079
0.576083
0.576083
0.576088
0.576092
0.576097
0.576101
0.576101
0.576105
0.57611
0.576114
0.576119
0.576119
0.576123
0.576128
0.576132
0.576137
0.576137
0.576141
0.576146
0.57615
0.576155
0.576155
0.576159
0.576164
0.576168
0.576173
0.576173
0.576177
0.576182
0.576186
0.576191
0.576191
0.576195
0.5762
0.576205
0.576209
0.576209
0.576214
0.576218
0.576223
0.576227
0.576227
0.576232
0.576237
0.576241
0.576246
0.576246
0.57625
0.576255
0.57626
0.576264
0.576264
0.576269
0.576274
0.576278
0.576283
0.576283
0.576288
0.576292
0.576297
0.576302
0.576302
0.576306
0.576311
0.576316
0.57632
0.57632
0.576325
0.57633
0.576335
0.576339
0.576339
0.576344
0.576349
0.576354
0.576358
0.576358
0.576363
0.576368
0.576373
0.576377
0.576377
0.576382
0.576387
0.576392
0.576397
0.576397
0.576401
0.576406
0.576411
0.576416
0.576416
0.576421
0.576425
0.57643
0.576435
0.576435
0.57644
0.576445
0.57645
0.576455
0.576455
0.576459
0.576464
0.576469
0.576474
0.576474
0.576479
0.576484
0.576489
0.576494
0.576494
0.576499
0.576504
0.576509
0.576514
0.576514
0.576519
0.576524
0.576529
0.576534
0.576534
0.576539
0.576544
0.576549
0.576554
0.576554
0.576559
0.576564
0.576569
0.576574
0.576574
0.576579
0.576584
0.576589
0.576594
0.576594
0.576599
0.576604
0.576609
0.576614
0.576614
0.576619
0.576624
0.576629
0.576634
0.576634
0.576639
0.576645
0.57665
0.576655
0.576655
0.57666
0.576665
0.57667
0.576675
0.576675
0.576681
0.576686
0.576691
0.576696
0.576696
0.576701
0.576706
0.576712
0.576717
0.576717
0.576722
0.576727
0.576733
0.576738
0.576738
0.576743
0.576748
0.576753
0.576759
0.576759
0.576764
0.576769
0.576775
0.57678
0.57678
0.576785
0.57679
0.576796
0.576801
0.576801
0.576806
0.576812
0.576817
0.576822
0.576822
0.576828
0.576833
0.576838
0.576844
0.576844
0.576849
0.576854
0.57686
0.576865
0.576865
0.576871
0.576876
0.576881
0.576887
0.576887
0.576892
0.576898
0.576903
0.576909
0.576909
0.576914
0.576919
0.576925
0.57693
0.57693
0.576936
0.576941
0.576947
0.576952
0.576952
0.576958
0.576963
0.576969
0.576974
0.576974
0.57698
0.576985
0.576991
0.576996
0.576996
0.577002
0.577007
0.577013
0.577019
0.577019
0.577024
0.57703
0.577035
0.577041
0.577041
0.577047
0.577052
0.577058
0.577063
0.577063
0.577069
0.577075
0.57708
0.577086
0.577086
0.577092
0.577097
0.577103
0.577109
0.577109
0.577114
0.57712
0.577126
0.577132
0.577132
0.577137
0.577143
0.577149
0.577154
0.577154
0.57716
0.577166
0.577172
0.577177
0.577177
0.577183
0.577189
0.577195
0.577201
0.577201
0.577206
0.577212
0.577218
0.577224
0.577224
0.57723
0.577235
0.577241
0.577247
0.577247
0.577253
0.577259
0.577265
0.577271
0.577271
0.577277
0.577282
0.577288
0.577294
0.577294
0.5773
0.577306
0.577312
0.577318
0.577318
0.577324
0.57733
0.577336
0.577342
0.577342
0.577348
0.577354
0.57736
0.577366
0.577366
0.577372
0.577378
0.577384
0.57739
0.57739
0.577396
0.577402
0.577408
0.577414
0.577414
0.57742
0.577426
0.577432
0.577438
0.577438
0.577444
0.57745
0.577456
0.577462
0.577462
0.577468
0.577475
0.577481
0.577487
0.577487
0.577493
0.577499
0.577505
0.577511
0.577511
0.577518
0.577524
0.57753
0.577536
0.577536
0.577542
0.577549
0.577555
0.577561
0.577561
0.577567
0.577573
0.57758
0.577586
0.577586
0.577592
0.577598
0.577605
0.577611
0.577611
0.577617
0.577624
0.57763
0.577636
0.577636
0.577643
0.577649
0.577655
0.577662
0.577662
0.577668
0.577674
0.577681
0.577687
0.577687
0.577693
0.5777
0.577706
0.577713
0.577713
0.577719
0.577725
0.577732
0.577738
0.577738
0.577745
0.577751
0.577757
0.577764
0.577764
0.57777
0.577777
0.577783
0.57779
0.57779
0.577796
0.577803
0.577809
0.577816
0.577816
0.577822
0.577829
0.577836
0.577842
0.577842
0.577849
0.577855
0.577862
0.577868
0.577868
0.577875
0.577882
0.577888
0.577895
0.577895
0.577901
0.577908
0.577915
0.577921
0.577921
0.577928
0.577935
0.577941
0.577948
0.577948
0.577955
0.577961
0.577968
0.577975
0.577975
0.577981
0.577988
0.577995
0.578002
0.578002
0.578008
0.578015
0.578022
0.578029
0.578029
0.578035
0.578042
0.578049
0.578056
0.578056
0.578063
0.578069
0.578076
0.578083
0.578083
0.57809
0.578097
0.578104
0.57811
0.57811
0.578117
0.578124
0.578131
0.578138
0.578138
0.578145
0.578152
0.578159
0.578166
0.578166
0.578173
0.578179
0.578186
0.578193
0.578193
0.5782
0.578207
0.578214
0.578221
0.578221
0.578228
0.578235
0.578242
0.578249
0.578249
0.578256
0.578263
0.578271
0.578278
0.578278
0.578285
0.578292
0.578299
0.578306
0.578306
0.578313
0.57832
0.578327
0.578334
0.578334
0.578341
0.578349
0.578356
0.578363
0.578363
0.57837
0.578377
0.578384
0.578392
0.578392
0.578399
0.578406
0.578413
0.57842
0.57842
0.578428
0.578435
0.578442
0.578449
0.578449
0.578457
0.578464
0.578471
0.578479
0.578479
0.578486
0.578493
0.5785
0.578508
0.578508
0.578515
0.578522
0.57853
0.578537
0.578537
0.578544
0.578552
0.578559
0.578567
0.578567
0.578574
0.578581
0.578589
0.578596
0.578596
0.578604
0.578611
0.578619
0.578626
0.578626
0.578633
0.578641
0.578648
0.578656
0.578656
0.578663
0.578671
0.578678
0.578686
0.578686
0.578694
0.578701
0.578709
0.578716
0.578716
0.578724
0.578731
0.578739
0.578747
0.578747
0.578754
0.578762
0.578769
0.578777
0.578777
0.578785
0.578792
0.5788
0.578808
0.578808
0.578815
0.578823
0.578831
0.578838
0.578838
0.578846
0.578854
0.578861
0.578869
0.578869
0.578877
0.578885
0.578893
0.5789
0.5789
0.578908
0.578916
0.578924
0.578931
0.578931
0.578939
0.578947
0.578955
0.578963
0.578963
0.578971
0.578978
0.578986
0.578994
0.578994
0.579002
0.57901
0.579018
0.579026
0.579026
0.579034
0.579042
0.57905
0.579058
0.579058
0.579066
0.579073
0.579081
0.579089
0.579089
0.579097
0.579105
0.579113
0.579122
0.579122
0.57913
0.579138
0.579146
0.579154
0.579154
0.579162
0.57917
0.579178
0.579186
0.579186
0.579194
0.579202
0.57921
0.579219
0.579219
0.579227
0.579235
0.579243
0.579251
0.579251
0.579259
0.579267
0.579276
0.579284
0.579284
0.579292
0.5793
0.579309
0.579317
0.579317
0.579325
0.579333
0.579342
0.57935
0.57935
0.579358
0.579367
0.579375
0.579383
0.579383
0.579391
0.5794
0.579408
0.579417
0.579417
0.579425
0.579433
0.579442
0.57945
0.57945
0.579458
0.579467
0.579475
0.579484
0.579484
0.579492
0.579501
0.579509
0.579518
0.579518
0.579526
0.579535
0.579543
0.579552
0.579552
0.57956
0.579569
0.579577
0.579586
0.579586
0.579594
0.579603
0.579611
0.57962
0.57962
0.579629
0.579637
0.579646
0.579654
0.579654
0.579663
0.579672
0.57968
0.579689
0.579689
0.579698
0.579706
0.579715
0.579724
0.579724
0.579732
0.579741
0.57975
0.579759
0.579759
0.579767
0.579776
0.579785
0.579794
0.579794
0.579803
0.579811
0.57982
0.579829
0.579829
0.579838
0.579847
0.579856
0.579864
0.579864
0.579873
0.579882
0.579891
0.5799
0.5799
0.579909
0.579918
0.579927
0.579936
0.579936
0.579945
0.579954
0.579963
0.579972
0.579972
0.579981
0.57999
0.579999
0.580008
0.580008
0.580017
0.580026
0.580035
0.580044
0.580044
0.580053
0.580062
0.580071
0.58008
0.58008
0.580089
0.580098
0.580108
0.580117
0.580117
0.580126
0.580135
0.580144
0.580153
0.580153
0.580163
0.580172
0.580181
0.58019
0.58019
0.5802
0.580209
0.580218
0.580227
0.580227
0.580237
0.580246
0.580255
0.580265
0.580265
0.580274
0.580283
0.580293
0.580302
0.580302
0.580311
0.580321
0.58033
0.580339
0.580339
0.580349
0.580358
0.580368
0.580377
0.580377
0.580387
0.580396
0.580406
0.580415
0.580415
0.580425
0.580434
0.580444
0.580453
0.580453
0.580463
0.580472
0.580482
0.580491
0.580491
0.580501
0.58051
0.58052
0.58053
0.58053
0.580539
0.580549
0.580559
0.580568
0.580568
0.580578
0.580588
0.580597
0.580607
0.580607
0.580617
0.580626
0.580636
0.580646
0.580646
0.580656
0.580665
0.580675
0.580685
0.580685
0.580695
0.580705
0.580714
0.580724
0.580724
0.580734
0.580744
0.580754
0.580764
0.580764
0.580774
0.580783
0.580793
0.580803
0.580803
0.580813
0.580823
0.580833
0.580843
0.580843
0.580853
0.580863
0.580873
0.580883
0.580883
0.580893
0.580903
0.580913
0.580923
0.580923
0.580933
0.580943
0.580953
0.580964
0.580964
0.580974
0.580984
0.580994
0.581004
0.581004
0.581014
0.581024
0.581035
0.581045
0.581045
0.581055
0.581065
0.581075
0.581086
0.581086
0.581096
0.581106
0.581116
0.581127
0.581127
0.581137
0.581147
0.581158
0.581168
0.581168
0.581178
0.581189
0.581199
0.581209
0.581209
0.58122
0.58123
0.581241
0.581251
0.581251
0.581261
0.581272
0.581282
0.581293
0.581293
0.581303
0.581314
0.581324
0.581335
0.581335
0.581345
0.581356
0.581366
0.581377
0.581377
0.581387
0.581398
0.581409
0.581419
0.581419
0.58143
0.581441
0.581451
0.581462
0.581462
0.581473
0.581483
0.581494
0.581505
0.581505
0.581515
0.581526
0.581537
0.581548
0.581548
0.581558
0.581569
0.58158
0.581591
0.581591
0.581601
0.581612
0.581623
0.581634
0.581634
0.581645
0.581656
0.581667
0.581677
0.581677
0.581688
0.581699
0.58171
0.581721
0.581721
0.581732
0.581743
0.581754
0.581765
0.581765
0.581776
0.581787
0.581798
0.581809
0.581809
0.58182
0.581831
0.581842
0.581854
0.581854
0.581865
0.581876
0.581887
0.581898
0.581898
0.581909
0.58192
0.581932
0.581943
0.581943
0.581954
0.581965
0.581976
0.581988
0.581988
0.581999
0.58201
0.582021
0.582033
0.582033
0.582044
0.582055
0.582067
0.582078
0.582078
0.582089
0.582101
0.582112
0.582124
0.582124
0.582135
0.582146
0.582158
0.582169
0.582169
0.582181
0.582192
0.582204
0.582215
0.582215
0.582227
0.582238
0.58225
0.582261
0.582261
0.582273
0.582284
0.582296
0.582308
0.582308
0.582319
0.582331
0.582343
0.582354
0.582354
0.582366
0.582378
0.582389
0.582401
0.582401
0.582413
0.582424
0.582436
0.582448
0.582448
0.58246
0.582471
0.582483
0.582495
0.582495
0.582507
0.582519
0.582531
0.582542
0.582542
0.582554
0.582566
0.582578
0.58259
0.58259
0.582602
0.582614
0.582626
0.582638
0.582638
0.58265
0.582662
0.582674
0.582686
0.582686
0.582698
0.58271
0.582722
0.582734
0.582734
0.582746
0.582758
0.58277
0.582782
0.582782
0.582795
0.582807
0.582819
0.582831
0.582831
0.582843
0.582856
0.582868
0.58288
0.58288
0.582892
0.582905
0.582917
0.582929
0.582929
0.582941
0.582954
0.582966
0.582978
0.582978
0.582991
0.583003
0.583016
0.583028
0.583028
0.58304
0.583053
0.583065
0.583078
0.583078
0.58309
0.583103
0.583115
0.583128
0.583128
0.58314
0.583153
0.583165
0.583178
0.583178
0.58319
0.583203
0.583216
0.583228
0.583228
0.583241
0.583254
0.583266
0.583279
0.583279
0.583292
0.583304
0.583317
0.58333
0.58333
0.583343
0.583355
0.583368
0.583381
0.583381
0.583394
0.583407
0.583419
0.583432
0.583432
0.583445
0.583458
0.583471
0.583484
0.583484
0.583497
0.58351
0.583523
0.583536
0.583536
0.583549
0.583562
0.583575
0.583588
0.583588
0.583601
0.583614
0.583627
0.58364
0.58364
0.583653
0.583666
0.583679
0.583692
0.583692
0.583706
0.583719
0.583732
0.583745
0.583745
0.583758
0.583772
0.583785
0.583798
0.583798
0.583811
0.583825
0.583838
0.583851
0.583851
0.583865
0.583878
0.583891
0.583905
0.583905
0.583918
0.583932
0.583945
0.583958
0.583958
0.583972
0.583985
0.583999
0.584012
0.584012
0.584026
0.584039
0.584053
0.584066
0.584066
0.58408
0.584094
0.584107
0.584121
0.584121
0.584134
0.584148
0.584162
0.584175
0.584175
0.584189
0.584203
0.584217
0.58423
0.58423
0.584244
0.584258
0.584272
0.584285
0.584285
0.584299
0.584313
0.584327
0.584341
0.584341
0.584355
0.584369
0.584383
0.584396
0.584396
0.58441
0.584424
0.584438
0.584452
0.584452
0.584466
0.58448
0.584494
0.584508
0.584508
0.584523
0.584537
0.584551
0.584565
0.584565
0.584579
0.584593
0.584607
0.584621
0.584621
0.584636
0.58465
0.584664
0.584678
0.584678
0.584693
0.584707
0.584721
0.584735
0.584735
0.58475
0.584764
0.584778
0.584793
0.584793
0.584807
0.584822
0.584836
0.58485
0.58485
0.584865
0.584879
0.584894
0.584908
0.584908
0.584923
0.584937
0.584952
0.584966
0.584966
0.584981
0.584996
0.58501
0.585025
0.585025
0.58504
0.585054
0.585069
0.585084
0.585084
0.585098
0.585113
0.585128
0.585143
0.585143
0.585157
0.585172
0.585187
0.585202
0.585202
0.585217
0.585231
0.585246
0.585261
0.585261
0.585276
0.585291
0.585306
0.585321
0.585321
0.585336
0.585351
0.585366
0.585381
0.585381
0.585396
0.585411
0.585426
0.585441
0.585441
0.585456
0.585471
0.585487
0.585502
0.585502
0.585517
0.585532
0.585547
0.585562
0.585562
0.585578
0.585593
0.585608
0.585624
0.585624
0.585639
0.585654
0.58567
0.585685
0.585685
0.5857
0.585716
0.585731
0.585747
0.585747
0.585762
0.585777
0.585793
0.585808
0.585808
0.585824
0.585839
0.585855
0.585871
0.585871
0.585886
0.585902
0.585917
0.585933
0.585933
0.585949
0.585964
0.58598
0.585996
0.585996
0.586012
0.586027
0.586043
0.586059
0.586059
0.586075
0.58609
0.586106
0.586122
0.586122
0.586138
0.586154
0.58617
0.586186
0.586186
0.586202
0.586218
0.586233
0.586249
0.586249
0.586266
0.586282
0.586298
0.586314
0.586314
0.58633
0.586346
0.586362
0.586378
0.586378
0.586394
0.58641
0.586427
0.586443
0.586443
0.586459
0.586475
0.586491
0.586508
0.586508
0.586524
0.58654
0.586557
0.586573
0.586573
0.586589
0.586606
0.586622
0.586639
0.586639
0.586655
0.586672
0.586688
0.586705
0.586705
0.586721
0.586738
0.586754
0.586771
0.586771
0.586787
0.586804
0.586821
0.586837
0.586837
0.586854
0.58687
0.586887
0.586904
0.586904
0.586921
0.586937
0.586954
0.586971
0.586971
0.586988
0.587005
0.587021
0.587038
0.587038
0.587055
0.587072
0.587089
0.587106
0.587106
0.587123
0.58714
0.587157
0.587174
0.587174
0.587191
0.587208
0.587225
0.587242
0.587242
0.587259
0.587276
0.587294
0.587311
0.587311
0.587328
0.587345
0.587362
0.58738
0.58738
0.587397
0.587414
0.587432
0.587449
0.587449
0.587466
0.587484
0.587501
0.587518
0.587518
0.587536
0.587553
0.587571
0.587588
0.587588
0.587606
0.587623
0.587641
0.587658
0.587658
0.587676
0.587693
0.587711
0.587729
0.587729
0.587746
0.587764
0.587782
0.587799
0.587799
0.587817
0.587835
0.587853
0.58787
0.58787
0.587888
0.587906
0.587924
0.587942
0.587942
0.58796
0.587978
0.587996
0.588014
0.588014
0.588032
0.588049
0.588067
0.588086
0.588086
0.588104
0.588122
0.58814
0.588158
0.588158
0.588176
0.588194
0.588212
0.58823
0.58823
0.588249
0.588267
0.588285
0.588303
0.588303
0.588322
0.58834
0.588358
0.588377
0.588377
0.588395
0.588414
0.588432
0.58845
0.58845
0.588469
0.588487
0.588506
0.588524
0.588524
0.588543
0.588561
0.58858
0.588599
0.588599
0.588617
0.588636
0.588655
0.588673
0.588673
0.588692
0.588711
0.588729
0.588748
0.588748
0.588767
0.588786
0.588805
0.588823
0.588823
0.588842
0.588861
0.58888
0.588899
0.588899
0.588918
0.588937
0.588956
0.588975
0.588975
0.588994
0.589013
0.589032
0.589051
0.589051
0.58907
0.58909
0.589109
0.589128
0.589128
0.589147
0.589166
0.589186
0.589205
0.589205
0.589224
0.589244
0.589263
0.589282
0.589282
0.589302
0.589321
0.58934
0.58936
0.58936
0.589379
0.589399
0.589418
0.589438
0.589438
0.589457
0.589477
0.589497
0.589516
0.589516
0.589536
0.589556
0.589575
0.589595
0.589595
0.589615
0.589634
0.589654
0.589674
0.589674
0.589694
0.589714
0.589734
0.589753
0.589753
0.589773
0.589793
0.589813
0.589833
0.589833
0.589853
0.589873
0.589893
0.589913
0.589913
0.589933
0.589953
0.589974
0.589994
0.589994
0.590014
0.590034
0.590054
0.590075
0.590075
0.590095
0.590115
0.590135
0.590156
0.590156
0.590176
0.590196
0.590217
0.590237
0.590237
0.590258
0.590278
0.590299
0.590319
0.590319
0.59034
0.59036
0.590381
0.590401
0.590401
0.590422
0.590443
0.590463
0.590484
0.590484
0.590505
0.590526
0.590546
0.590567
0.590567
0.590588
0.590609
0.59063
0.59065
0.59065
0.590671
0.590692
0.590713
0.590734
0.590734
0.590755
0.590776
0.590797
0.590818
0.590818
0.590839
0.590861
0.590882
0.590903
0.590903
0.590924
0.590945
0.590966
0.590988
0.590988
0.591009
0.59103
0.591052
0.591073
0.591073
0.591094
0.591116
0.591137
0.591159
0.591159
0.59118
0.591202
0.591223
0.591245
0.591245
0.591266
0.591288
0.591309
0.591331
0.591331
0.591353
0.591374
0.591396
0.591418
0.591418
0.591439
0.591461
0.591483
0.591505
0.591505
0.591527
0.591549
0.59157
0.591592
0.591592
0.591614
0.591636
0.591658
0.59168
0.59168
0.591702
0.591724
0.591746
0.591769
0.591769
0.591791
0.591813
0.591835
0.591857
0.591857
0.59188
0.591902
0.591924
0.591946
0.591946
0.591969
0.591991
0.592014
0.592036
0.592036
0.592058
0.592081
0.592103
0.592126
0.592126
0.592148
0.592171
0.592193
0.592216
0.592216
0.592239
0.592261
0.592284
0.592307
0.592307
0.59233
0.592352
0.592375
0.592398
0.592398
0.592421
0.592444
0.592466
0.592489
0.592489
0.592512
0.592535
0.592558
0.592581
0.592581
0.592604
0.592627
0.59265
0.592674
0.592674
0.592697
0.59272
0.592743
0.592766
0.592766
0.592789
0.592813
0.592836
0.592859
0.592859
0.592883
0.592906
0.592929
0.592953
0.592953
0.592976
0.593
0.593023
0.593047
0.593047
0.59307
0.593094
0.593118
0.593141
0.593141
0.593165
0.593189
0.593212
0.593236
0.593236
0.59326
0.593284
0.593307
0.593331
0.593331
0.593355
0.593379
0.593403
0.593427
0.593427
0.593451
0.593475
0.593499
0.593523
0.593523
0.593547
0.593571
0.593595
0.593619
0.593619
0.593643
0.593668
0.593692
0.593716
0.593716
0.59374
0.593765
0.593789
0.593813
0.593813
0.593838
0.593862
0.593887
0.593911
0.593911
0.593936
0.59396
0.593985
0.594009
0.594009
0.594034
0.594059
0.594083
0.594108
0.594108
0.594133
0.594157
0.594182
0.594207
0.594207
0.594232
0.594257
0.594282
0.594306
0.594306
0.594331
0.594356
0.594381
0.594406
0.594406
0.594431
0.594456
0.594482
0.594507
0.594507
0.594532
0.594557
0.594582
0.594607
0.594607
0.594633
0.594658
0.594683
0.594709
0.594709
0.594734
0.59476
0.594785
0.59481
0.59481
0.594836
0.594861
0.594887
0.594913
0.594913
0.594938
0.594964
0.594989
0.595015
0.595015
0.595041
0.595067
0.595092
0.595118
0.595118
0.595144
0.59517
0.595196
0.595222
0.595222
0.595248
0.595273
0.595299
0.595326
0.595326
0.595352
0.595378
0.595404
0.59543
0.59543
0.595456
0.595482
0.595508
0.595535
0.595535
0.595561
0.595587
0.595614
0.59564
0.59564
0.595666
0.595693
0.595719
0.595746
0.595746
0.595772
0.595799
0.595825
0.595852
0.595852
0.595879
0.595905
0.595932
0.595959
0.595959
0.595985
0.596012
0.596039
0.596066
0.596066
0.596093
0.59612
0.596146
0.596173
0.596173
0.5962
0.596227
0.596254
0.596282
0.596282
0.596309
0.596336
0.596363
0.59639
0.59639
0.596417
0.596445
0.596472
0.596499
0.596499
0.596526
0.596554
0.596581
0.596609
0.596609
0.596636
0.596664
0.596691
0.596719
0.596719
0.596746
0.596774
0.596801
0.596829
0.596829
0.596857
0.596884
0.596912
0.59694
0.59694
0.596968
0.596996
0.597024
0.597051
0.597051
0.597079
0.597107
0.597135
0.597163
0.597163
0.597191
0.597219
0.597248
0.597276
0.597276
0.597304
0.597332
0.59736
0.597389
0.597389
0.597417
0.597445
0.597474
0.597502
0.597502
0.59753
0.597559
0.597587
0.597616
0.597616
0.597644
0.597673
0.597702
0.59773
0.59773
0.597759
0.597788
0.597816
0.597845