<?xml version="1.0"?>
<VTKFile type="UnstructuredGrid" version="0.1" byte_order="LittleEndian">
<UnstructuredGrid>
<Piece NumberOfPoints="5000" NumberOfCells="4000">
<PointData Scalars="Reaction 0">
<DataArray type="Float32" Name="Reaction 0" format="ascii">
0.565771
0.565771
0.565771
0.565771
0.565771
0.565771
0.565771
0.565771
0.565771
0.565771
0.565771
0.565771
0.565771
0.565771
0.565771
0.565771
0.565771
0.565771
0.565771
0.565771
0.565771
0.565771
0.565771
0.565771
0.565771
0.565771
0.565771
0.565771
0.565771
0.565771
0.565771
0.565771
0.565771
0.565771
0.565771
0.565771
0.565771
0.565771
0.565771
0.565771
0.565771
0.565771
0.565771
0.565771
0.565771
0.565771
0.565771
0.565771
0.565771
0.565771
0.565771
0.565771
0.565771
0.565771
0.565771
0.565771
0.565772
0.565772
0.565772
0.565772
0.565772
0.565772
0.565772
0.565772
0.565772
0.565772
0.565772
0.565772
0.565772
0.565772
0.565772
0.565772
0.565772
0.565772
0.565772
0.565772
0.565772
0.565772
0.565772
0.565772
0.565772
0.565772
0.565772
0.565772
0.565772
0.565772
0.565772
0.565772
0.565772
0.565772
0.565772
0.565772
0.565773
0.565773
0.565773
0.565773
0.565773
0.565773
0.565773
0.565773
0.565773
0.565773
0.565773
0.565773
0.565773
0.565773
0.565773
0.565773
0.565773
0.565773
0.565773
0.565773
0.565773
0.565773
0.565773
0.565773
0.565773
0.565773
0.565774
0.565774
0.565774
0.565774
0.565774
0.565774
0.565774
0.565774
0.565774
0.565774
0.565774
0.565774
0.565774
0.565774
0.565774
0.565774
0.565774
0.565774
0.565774
0.565774
0.565774
0.565775
0.565775
0.565775
0.565775
0.565775
0.565775
0.565775
0.565775
0.565775
0.565775
0.565775
0.565775
0.565775
0.565775
0.565775
0.565775
0.565775
0.565775
0.565775
0.565776
0.565776
0.565776
0.565776
0.565776
0.565776
0.565776
0.565776
0.565776
0.565776
0.565776
0.565776
0.565776
0.565776
0.565776
0.565776
0.565777
0.565777
0.565777
0.565777
0.565777
0.565777
0.565777
0.565777
0.565777
0.565777
0.565777
0.565777
0.565777
0.565777
0.565777
0.565778
0.565778
0.565778
0.565778
0.565778
0.565778
0.565778
0.565778
0.565778
0.565778
0.565778
0.565778
0.565778
0.565778
0.565779
0.565779
0.565779
0.565779
0.565779
0.565779
0.565779
0.565779
0.565779
0.565779
0.565779
0.565779
0.565779
0.56578
0.56578
0.56578
0.56578
0.56578
0.56578
0.56578
0.56578
0.56578
0.56578
0.56578
0.56578
0.565781
0.565781
0.565781
0.565781
0.565781
0.565781
0.565781
0.565781
0.565781
0.565781
0.565781
0.565782
0.565782
0.565782
0.565782
0.565782
0.565782
0.565782
0.565782
0.565782
0.565782
0.565782
0.565782
0.565783
0.565783
0.565783
0.565783
0.565783
0.565783
0.565783
0.565783
0.565783
0.565783
0.565783
0.565784
0.565784
0.565784
0.565784
0.565784
0.565784
0.565784
0.565784
0.565784
0.565784
0.565785
0.565785
0.565785
0.565785
0.565785
0.565785
0.565785
0.565785
0.565785
0.565785
0.565786
0.565786
0.565786
0.565786
0.565786
0.565786
0.565786
0.565786
0.565786
0.565787
0.565787
0.565787
0.565787
0.565787
0.565787
0.565787
0.565787
0.565788
0.565788
0.565788
0.565788
0.565788
0.565788
0.565788
0.565788
0.565788
0.565788
0.565789
0.565789
0.565789
0.565789
0.565789
0.565789
0.565789
0.565789
0.565789
0.56579
0.56579
0.56579
0.56579
0.56579
0.56579
0.56579
0.56579
0.565791
0.565791
0.565791
0.565791
0.565791
0.565791
0.565791
0.565791
0.565792
0.565792
0.565792
0.565792
0.565792
0.565792
0.565792
0.565792
0.565793
0.565793
0.565793
0.565793
0.565793
0.565793
0.565793
0.565794
0.565794
0.565794
0.565794
0.565794
0.565794
0.565794
0.565794
0.565794
0.565795
0.565795
0.565795
0.565795
0.565795
0.565795
0.565795
0.565795
0.565796
0.565796
0.565796
0.565796
0.565796
0.565796
0.565797
0.565797
0.565797
0.565797
0.565797
0.565797
0.565797
0.565798
0.565798
0.565798
0.565798
0.565798
0.565798
0.565798
0.565798
0.565799
0.565799
0.565799
0.565799
0.565799
0.565799
0.5658
0.5658
0.5658
0.5658
0.5658
0.5658
0.5658
0.5658
0.565801
0.565801
0.565801
0.565801
0.565801
0.565801
0.565802
0.565802
0.565802
0.565802
0.565802
0.565802
0.565803
0.565803
0.565803
0.565803
0.565803
0.565803
0.565803
0.565803
0.565804
0.565804
0.565804
0.565804
0.565804
0.565804
0.565805
0.565805
0.565805
0.565805
0.565805
0.565805
0.565806
0.565806
0.565806
0.565806
0.565806
0.565806
0.565807
0.565807
0.565807
0.565807
0.565807
0.565807
0.565807
0.565808
0.565808
0.565808
0.565808
0.565808
0.565809
0.565809
0.565809
0.565809
0.565809
0.565809
0.56581
0.56581
0.56581
0.56581
0.56581
0.56581
0.565811
0.565811
0.565811
0.565811
0.565811
0.565812
0.565812
0.565812
0.565812
0.565812
0.565812
0.565813
0.565813
0.565813
0.565813
0.565813
0.565814
0.565814
0.565814
0.565814
0.565814
0.565814
0.565814
0.565815
0.565815
0.565815
0.565815
0.565815
0.565816
0.565816
0.565816
0.565816
0.565816
0.565816
0.565817
0.565817
0.565817
0.565817
0.565817
0.565818
0.565818
0.565818
0.565818
0.565818
0.565819
0.565819
0.565819
0.565819
0.565819
0.56582
0.56582
0.56582
0.56582
0.56582
0.56582
0.565821
0.565821
0.565821
0.565821
0.565821
0.565822
0.565822
0.565822
0.565822
0.565822
0.565823
0.565823
0.565823
0.565823
0.565823
0.565824
0.565824
0.565824
0.565824
0.565824
0.565825
0.565825
0.565825
0.565825
0.565825
0.565826
0.565826
0.565826
0.565826
0.565826
0.565827
0.565827
0.565827
0.565827
0.565827
0.565828
0.565828
0.565828
0.565828
0.565828
0.565829
0.565829
0.565829
0.565829
0.56583
0.56583
0.56583
0.56583
0.56583
0.565831
0.565831
0.565831
0.565831
0.565831
0.565832
0.565832
0.565832
0.565832
0.565832
0.565833
0.565833
0.565833
0.565833
0.565834
0.565834
0.565834
0.565834
0.565834
0.565835
0.565835
0.565835
0.565835
0.565835
0.565836
0.565836
0.565836
0.565837
0.565837
0.565837
0.565837
0.565837
0.565838
0.565838
0.565838
0.565838
0.565839
0.565839
0.565839
0.565839
0.565839
0.56584
0.56584
0.56584
0.56584
0.565841
0.565841
0.565841
0.565841
0.565841
0.565842
0.565842
0.565842
0.565842
0.565843
0.565843
0.565843
0.565843
0.565843
0.565844
0.565844
0.565844
0.565845
0.565845
0.565845
0.565845
0.565845
0.565846
0.565846
0.565846
0.565846
0.565847
0.565847
0.565847
0.565847
0.565848
0.565848
0.565848
0.565848
0.565849
0.565849
0.565849
0.565849
0.565849
0.56585
0.56585
0.56585
0.565851
0.565851
0.565851
0.565851
0.565852
0.565852
0.565852
0.565852
0.565853
0.565853
0.565853
0.565853
0.565853
0.565854
0.565854
0.565854
0.565854
0.565855
0.565855
0.565855
0.565856
0.565856
0.565856
0.565856
0.565857
0.565857
0.565857
0.565857
0.565858
0.565858
0.565858
0.565858
0.565859
0.565859
0.565859
0.56586
0.56586
0.56586
0.56586
0.565861
0.565861
0.565861
0.565861
0.565861
0.565862
0.565862
0.565862
0.565862
0.565863
0.565863
0.565863
0.565863
0.565864
0.565864
0.565864
0.565865
0.565865
0.565865
0.565865
0.565866
0.565866
0.565866
0.565866
0.565867
0.565867
0.565867
0.565867
0.565868
0.565868
0.565868
0.565869
0.565869
0.565869
0.56587
0.56587
0.56587
0.56587
0.565871
0.565871
0.565871
0.565872
0.565872
0.565872
0.565872
0.565873
0.565873
0.565873
0.565873
0.565874
0.565874
0.565874
0.565874
0.565875
0.565875
0.565876
0.565876
0.565876
0.565876
0.565877
0.565877
0.565877
0.565877
0.565878
0.565878
0.565878
0.565879
0.565879
0.565879
0.565879
0.56588
0.56588
0.56588
0.565881
0.565881
0.565881
0.565882
0.565882
0.565882
0.565882
0.565883
0.565883
0.565883
0.565883
0.565884
0.565884
0.565885
0.565885
0.565885
0.565885
0.565886
0.565886
0.565886
0.565886
0.565887
0.565887
0.565888
0.565888
0.565888
0.565888
0.565889
0.565889
0.565889
0.565889
0.56589
0.56589
0.565891
0.565891
0.565891
0.565891
0.565892
0.565892
0.565892
0.565892
0.565893
0.565893
0.565894
0.565894
0.565894
0.565894
0.565895
0.565895
0.565895
0.565896
0.565896
0.565896
0.565897
0.565897
0.565897
0.565898
0.565898
0.565898
0.565898
0.565899
0.565899
0.5659
0.5659
0.5659
0.5659
0.565901
0.565901
0.565901
0.565901
0.565902
0.565902
0.565903
0.565903
0.565903
0.565903
0.565904
0.565904
0.565905
0.565905
0.565905
0.565906
0.565906
0.565906
0.565906
0.565907
0.565907
0.565908
0.565908
0.565908
0.565908
0.565909
0.565909
0.56591
0.56591
0.56591
0.56591
0.565911
0.565911
0.565911
0.565912
0.565912
0.565912
0.565913
0.565913
0.565913
0.565914
0.565914
0.565915
0.565915
0.565915
0.565915
0.565916
0.565916
0.565916
0.565917
0.565917
0.565917
0.565918
0.565918
0.565918
0.565919
0.565919
0.56592
0.56592
0.56592
0.565921
0.565921
0.565921
0.565921
0.565922
0.565922
0.565923
0.565923
0.565923
0.565924
0.565924
0.565924
0.565925
0.565925
0.565925
0.565926
0.565926
0.565927
0.565927
0.565927
0.565927
0.565928
0.565928
0.565928
0.565929
0.565929
0.56593
0.56593
0.56593
0.565931
0.565931
0.565931
0.565932
0.565932
0.565932
0.565933
0.565933
0.565934
0.565934
0.565934
0.565935
0.565935
0.565935
0.565935
0.565936
0.565936
0.565937
0.565937
0.565937
0.565938
0.565938
0.565939
0.565939
0.565939
0.565939
0.56594
0.56594
0.565941
0.565941
0.565941
0.565942
0.565942
0.565943
0.565943
0.565943
0.565944
0.565944
0.565945
0.565945
0.565945
0.565946
0.565946
0.565946
0.565946
0.565947
0.565947
0.565948
0.565948
0.565948
0.565949
0.565949
0.56595
0.56595
0.56595
0.565951
0.565951
0.565952
0.565952
0.565952
0.565953
0.565953
0.565954
0.565954
0.565954
0.565955
0.565955
0.565955
0.565956
0.565956
0.565956
0.565957
0.565957
0.565958
0.565958
0.565958
0.565959
0.565959
0.56596
0.56596
0.56596
0.565961
0.565961
0.565962
0.565962
0.565962
0.565963
0.565963
0.565964
0.565964
0.565964
0.565965
0.565965
0.565966
0.565966
0.565966
0.565967
0.565967
0.565968
0.565968
0.565968
0.565969
0.565969
0.56597
0.56597
0.56597
0.565971
0.565971
0.565972
0.565972
0.565972
0.565973
0.565973
0.565974
0.565974
0.565974
0.565975
0.565975
0.565976
0.565976
0.565976
0.565977
0.565977
0.565978
0.565978
0.565978
0.565979
0.565979
0.56598
0.56598
0.56598
0.565981
0.565981
0.565982
0.565982
0.565982
0.565983
0.565983
0.565984
0.565984
0.565984
0.565985
0.565985
0.565986
0.565986
0.565986
0.565987
0.565988
0.565988
0.565988
0.565989
0.565989
0.56599
0.56599
0.56599
0.565991
0.565991
0.565992
0.565992
0.565992
0.565993
0.565993
0.565994
0.565994
0.565994
0.565995
0.565996
0.565996
0.565997
0.565997
0.565997
0.565998
0.565998
0.565999
0.565999
0.565999
0.566
0.566
0.566001
0.566001
0.566001
0.566002
0.566003
0.566003
0.566003
0.566004
0.566004
0.566005
0.566005
0.566005
0.566006
0.566006
0.566007
0.566007
0.566007
0.566008
0.566008
0.566009
0.56601
0.56601
0.56601
0.566011
0.566011
0.566012
0.566012
0.566012
0.566013
0.566013
0.566014
0.566014
0.566015
0.566015
0.566016
0.566016
0.566016
0.566017
0.566017
0.566018
0.566019
0.566019
0.566019
0.56602
0.56602
0.566021
0.566021
0.566021
0.566022
0.566023
0.566023
0.566023
0.566024
0.566024
0.566025
0.566025
0.566025
0.566026
0.566027
0.566027
0.566028
0.566028
0.566028
0.566029
0.566029
0.56603
0.56603
0.566031
0.566031
0.566032
0.566032
0.566032
0.566033
0.566033
0.566034
0.566035
0.566035
0.566035
0.566036
0.566036
0.566037
0.566037
0.566037
0.566038
0.566039
0.566039
0.566039
0.56604
0.56604
0.566041
0.566042
0.566042
0.566042
0.566043
0.566043
0.566044
0.566044
0.566045
0.566045
0.566046
0.566046
0.566046
0.566047
0.566048
0.566048
0.566049
0.566049
0.566049
0.56605
0.566051
0.566051
0.566051
0.566052
0.566052
0.566053
0.566054
0.566054
0.566054
0.566055
0.566055
0.566056
0.566056
0.566057
0.566057
0.566058
0.566059
0.566059
0.566059
0.56606
0.56606
0.566061
0.566061
0.566062
0.566062
0.566063
0.566063
0.566063
0.566064
0.566065
0.566065
0.566066
0.566066
0.566067
0.566067
0.566068
0.566068
0.566068
0.566069
0.56607
0.56607
0.566071
0.566071
0.566072
0.566072
0.566073
0.566073
0.566073
0.566074
0.566075
0.566075
0.566076
0.566076
0.566077
0.566077
0.566078
0.566079
0.566079
0.566079
0.56608
0.56608
0.566081
0.566081
0.566082
0.566082
0.566083
0.566084
0.566084
0.566084
0.566085
0.566086
0.566086
0.566086
0.566087
0.566087
0.566088
0.566089
0.566089
0.566089
0.56609
0.566091
0.566091
0.566091
0.566092
0.566093
0.566093
0.566094
0.566094
0.566095
0.566095
0.566096
0.566097
0.566097
0.566097
0.566098
0.566099
0.566099
0.566099
0.5661
0.566101
0.566101
0.566102
0.566102
0.566103
0.566103
0.566104
0.566105
0.566105
0.566105
0.566106
0.566107
0.566107
0.566107
0.566108
0.566109
0.566109
0.56611
0.56611
0.566111
0.566111
0.566112
0.566113
0.566113
0.566113
0.566114
0.566115
0.566115
0.566115
0.566116
0.566117
0.566117
0.566118
0.566118
0.566119
0.566119
0.56612
0.566121
0.566121
0.566121
0.566122
0.566123
0.566124
0.566124
0.566124
0.566125
0.566126
0.566126
0.566126
0.566127
0.566128
0.566128
0.566129
0.566129
0.56613
0.56613
0.566131
0.566132
0.566132
0.566133
0.566133
0.566134
0.566135
0.566135
0.566135
0.566136
0.566137
0.566137
0.566137
0.566138
0.566139
0.566139
0.56614
0.56614
0.566141
0.566142
0.566142
0.566143
0.566143
0.566144
0.566144
0.566145
0.566146
0.566146
0.566147
0.566147
0.566148
0.566149
0.566149
0.566149
0.56615
0.566151
0.566152
0.566152
0.566152
0.566153
0.566154
0.566155
0.566155
0.566155
0.566156
0.566157
0.566157
0.566157
0.566158
0.566159
0.56616
0.56616
0.56616
0.566161
0.566162
0.566162
0.566163
0.566163
0.566164
0.566165
0.566165
0.566166
0.566166
0.566167
0.566168
0.566168
0.566169
0.566169
0.56617
0.566171
0.566171
0.566172
0.566172
0.566173
0.566174
0.566174
0.566175
0.566175
0.566176
0.566177
0.566177
0.566178
0.566178
0.566179
0.56618
0.56618
0.566181
0.566181
0.566182
0.566183
0.566183
0.566184
0.566184
0.566185
0.566186
0.566186
0.566187
0.566187
0.566188
0.566189
0.566189
0.56619
0.56619
0.566191
0.566192
0.566192
0.566193
0.566193
0.566194
0.566195
0.566195
0.566196
0.566196
0.566197
0.566198
0.566199
0.566199
0.566199
0.5662
0.566201
0.566202
0.566202
0.566202
0.566203
0.566204
0.566205
0.566206
0.566206
0.566206
0.566207
0.566208
0.566209
0.566209
0.566209
0.56621
0.566211
0.566212
0.566212
0.566213
0.566213
0.566214
0.566215
0.566215
0.566216
0.566216
0.566217
0.566218
0.566218
0.566219
0.56622
0.56622
0.566221
0.566221
0.566222
0.566223
0.566224
0.566224
0.566224
0.566225
0.566226
0.566227
0.566228
0.566228
0.566228
0.566229
0.56623
0.566231
0.566231
0.566232
0.566232
0.566233
0.566234
0.566234
0.566235
0.566236
0.566236
0.566237
0.566237
0.566238
0.566239
0.56624
0.56624
0.56624
0.566241
0.566242
0.566243
0.566244
0.566244
0.566245
0.566245
0.566246
0.566247
0.566247
0.566248
0.566249
0.566249
0.56625
0.56625
0.566251
0.566252
0.566253
0.566254
0.566254
0.566254
0.566255
0.566256
0.566257
0.566257
0.566258
0.566259
0.566259
0.56626
0.56626
0.566261
0.566262
0.566263
0.566264
0.566264
0.566264
0.566265
0.566266
0.566267
0.566267
0.566268
0.566269
0.566269
0.56627
0.56627
0.566271
0.566272
0.566273
0.566274
0.566274
0.566275
0.566275
0.566276
0.566277
0.566277
0.566278
0.566279
0.56628
0.566281
0.566281
0.566281
0.566282
0.566283
0.566284
0.566284
0.566285
0.566286
0.566287
0.566287
0.566287
0.566288
0.566289
0.56629
0.566291
0.566291
0.566292
0.566293
0.566293
0.566294
0.566294
0.566295
0.566296
0.566297
0.566298
0.566298
0.566299
0.5663
0.5663
0.566301
0.566301
0.566302
0.566303
0.566304
0.566305
0.566305
0.566306
0.566307
0.566307
0.566308
0.566308
0.566309
0.56631
0.566311
0.566312
0.566312
0.566313
0.566314
0.566315
0.566315
0.566315
0.566316
0.566317
0.566318
0.566319
0.566319
0.56632
0.566321
0.566322
0.566323
0.566323
0.566323
0.566324
0.566325
0.566326
0.566326
0.566327
0.566328
0.566329
0.56633
0.56633
0.566331
0.566332
0.566332
0.566333
0.566333
0.566334
0.566335
0.566336
0.566337
0.566337
0.566338
0.566339
0.56634
0.566341
0.566341
0.566342
0.566343
0.566343
0.566344
0.566344
0.566345
0.566346
0.566347
0.566348
0.566348
0.566349
0.56635
0.566351
0.566352
0.566352
0.566353
0.566354
0.566355
0.566355
0.566355
0.566356
0.566357
0.566358
0.566359
0.566359
0.56636
0.566361
0.566362
0.566363
0.566363
0.566364
0.566365
0.566366
0.566367
0.566367
0.566368
0.566369
0.56637
0.56637
0.56637
0.566371
0.566372
0.566373
0.566374
0.566374
0.566375
0.566376
0.566377
0.566378
0.566378
0.566379
0.56638
0.566381
0.566382
0.566382
0.566383
0.566384
0.566385
0.566386
0.566386
0.566387
0.566388
0.566389
0.56639
0.56639
0.56639
0.566391
0.566392
0.566393
0.566393
0.566394
0.566395
0.566396
0.566397
0.566397
0.566398
0.566399
0.5664
0.566401
0.566401
0.566402
0.566403
0.566404
0.566405
0.566405
0.566406
0.566407
0.566408
0.566409
0.566409
0.56641
0.566411
0.566412
0.566413
0.566413
0.566414
0.566415
0.566416
0.566417
0.566417
0.566418
0.566419
0.56642
0.566421
0.566421
0.566422
0.566423
0.566424
0.566425
0.566425
0.566426
0.566427
0.566428
0.566429
0.566429
0.56643
0.566431
0.566432
0.566433
0.566433
0.566434
0.566435
0.566436
0.566437
0.566437
0.566438
0.566439
0.56644
0.566441
0.566441
0.566442
0.566443
0.566444
0.566445
0.566445
0.566446
0.566447
0.566448
0.566449
0.566449
0.56645
0.566451
0.566452
0.566453
0.566453
0.566454
0.566455
0.566456
0.566457
0.566457
0.566458
0.566459
0.56646
0.566461
0.566461
0.566462
0.566463
0.566464
0.566466
0.566466
0.566467
0.566468
0.566469
0.56647
0.56647
0.566471
0.566472
0.566473
0.566474
0.566474
0.566475
0.566476
0.566477
0.566478
0.566478
0.566479
0.56648
0.566481
0.566482
0.566482
0.566483
0.566484
0.566485
0.566486
0.566486
0.566488
0.566489
0.56649
0.566491
0.566491
0.566492
0.566493
0.566494
0.566495
0.566495
0.566496
0.566497
0.566498
0.566499
0.566499
0.5665
0.566501
0.566502
0.566503
0.566503
0.566505
0.566506
0.566507
0.566508
0.566508
0.566509
0.56651
0.566511
0.566512
0.566512
0.566513
0.566514
0.566515
0.566516
0.566516
0.566518
0.566519
0.56652
0.566521
0.566521
0.566522
0.566523
0.566524
0.566525
0.566525
0.566526
0.566527
0.566528
0.56653
0.56653
0.566531
0.566532
0.566533
0.566534
0.566534
0.566535
0.566536
0.566537
0.566538
0.566538
0.566539
0.566541
0.566542
0.566543
0.566543
0.566544
0.566545
0.566546
0.566547
0.566547
0.566548
0.566549
0.566551
0.566552
0.566552
0.566553
0.566554
0.566555
0.566556
0.566556
0.566557
0.566558
0.56656
0.566561
0.566561
0.566562
0.566563
0.566564
0.566565
0.566565
0.566566
0.566567
0.566569
0.56657
0.56657
0.566571
0.566572
0.566573
0.566574
0.566574
0.566575
0.566577
0.566578
0.566579
0.566579
0.56658
0.566581
0.566582
0.566583
0.566583
0.566585
0.566586
0.566587
0.566588
0.566588
0.566589
0.56659
0.566591
0.566593
0.566593
0.566594
0.566595
0.566596
0.566597
0.566597
0.566598
0.5666
0.566601
0.566602
0.566602
0.566603
0.566604
0.566605
0.566607
0.566607
0.566608
0.566609
0.56661
0.566611
0.566611
0.566612
0.566614
0.566615
0.566616
0.566616
0.566617
0.566618
0.566619
0.566621
0.566621
0.566622
0.566623
0.566624
0.566625
0.566625
0.566627
0.566628
0.566629
0.56663
0.56663
0.566631
0.566633
0.566634
0.566635
0.566635
0.566636
0.566637
0.566639
0.56664
0.56664
0.566641
0.566642
0.566643
0.566645
0.566645
0.566646
0.566647
0.566648
0.566649
0.566649
0.566651
0.566652
0.566653
0.566654
0.566654
0.566655
0.566657
0.566658
0.566659
0.566659
0.56666
0.566662
0.566663
0.566664
0.566664
0.566665
0.566666
0.566668
0.566669
0.566669
0.56667
0.566671
0.566673
0.566674
0.566674
0.566675
0.566676
0.566678
0.566679
0.566679
0.56668
0.566681
0.566682
0.566684
0.566684
0.566685
0.566686
0.566687
0.566689
0.566689
0.56669
0.566691
0.566692
0.566694
0.566694
0.566695
0.566696
0.566697
0.566699
0.566699
0.5667
0.566701
0.566702
0.566704
0.566704
0.566705
0.566706
0.566707
0.566709
0.566709
0.56671
0.566711
0.566713
0.566714
0.566714
0.566715
0.566716
0.566718
0.566719
0.566719
0.56672
0.566721
0.566723
0.566724
0.566724
0.566725
0.566727
0.566728
0.566729
0.566729
0.56673
0.566732
0.566733
0.566734
0.566734
0.566736
0.566737
0.566738
0.566739
0.566739
0.566741
0.566742
0.566743
0.566745
0.566745
0.566746
0.566747
0.566748
0.56675
0.56675
0.566751
0.566752
0.566754
0.566755
0.566755
0.566756
0.566758
0.566759
0.56676
0.56676
0.566762
0.566763
0.566764
0.566766
0.566766
0.566767
0.566768
0.566769
0.566771
0.566771
0.566772
0.566773
0.566775
0.566776
0.566776
0.566777
0.566779
0.56678
0.566781
0.566781
0.566783
0.566784
0.566785
0.566787
0.566787
0.566788
0.566789
0.566791
0.566792
0.566792
0.566793
0.566795
0.566796
0.566797
0.566797
0.566799
0.5668
0.566801
0.566803
0.566803
0.566804
0.566806
0.566807
0.566808
0.566808
0.56681
0.566811
0.566812
0.566814
0.566814
0.566815
0.566816
0.566818
0.566819
0.566819
0.56682
0.566822
0.566823
0.566825
0.566825
0.566826
0.566827
0.566829
0.56683
0.56683
0.566831
0.566833
0.566834
0.566836
0.566836
0.566837
0.566838
0.56684
0.566841
0.566841
0.566842
0.566844
0.566845
0.566847
0.566847
0.566848
0.566849
0.566851
0.566852
0.566852
0.566854
0.566855
0.566856
0.566858
0.566858
0.566859
0.566861
0.566862
0.566863
0.566863
0.566865
0.566866
0.566868
0.566869
0.566869
0.56687
0.566872
0.566873
0.566875
0.566875
0.566876
0.566877
0.566879
0.56688
0.56688
0.566882
0.566883
0.566885
0.566886
0.566886
0.566887
0.566889
0.56689
0.566892
0.566892
0.566893
0.566895
0.566896
0.566898
0.566898
0.566899
0.5669
0.566902
0.566903
0.566903
0.566905
0.566906
0.566908
0.566909
0.566909
0.56691
0.566912
0.566913
0.566915
0.566915
0.566916
0.566918
0.566919
0.566921
0.566921
0.566922
0.566924
0.566925
0.566926
0.566926
0.566928
0.566929
0.566931
0.566932
0.566932
0.566934
0.566935
0.566937
0.566938
0.566938
0.56694
0.566941
0.566943
0.566944
0.566944
0.566946
0.566947
0.566949
0.56695
0.56695
0.566952
0.566953
0.566955
0.566956
0.566956
0.566957
0.566959
0.56696
0.566962
0.566962
0.566963
0.566965
0.566966
0.566968
0.566968
0.566969
0.566971
0.566972
0.566974
0.566974
0.566975
0.566977
0.566978
0.56698
0.56698
0.566981
0.566983
0.566985
0.566986
0.566986
0.566988
0.566989
0.566991
0.566992
0.566992
0.566994
0.566995
0.566997
0.566998
0.566998
0.567
0.567001
0.567003
0.567004
0.567004
0.567006
0.567007
0.567009
0.56701
0.56701
0.567012
0.567014
0.567015
0.567017
0.567017
0.567018
0.56702
0.567021
0.567023
0.567023
0.567024
0.567026
0.567027
0.567029
0.567029
0.567031
0.567032
0.567034
0.567035
0.567035
0.567037
0.567038
0.56704
0.567041
0.567041
0.567043
0.567045
0.567046
0.567048
0.567048
0.567049
0.567051
0.567052
0.567054
0.567054
0.567056
0.567057
0.567059
0.56706
0.56706
0.567062
0.567064
0.567065
0.567067
0.567067
0.567068
0.56707
0.567071
0.567073
0.567073
0.567075
0.567076
0.567078
0.567079
0.567079
0.567081
0.567083
0.567084
0.567086
0.567086
0.567088
0.567089
0.567091
0.567092
0.567092
0.567094
0.567096
0.567097
0.567099
0.567099
0.5671
0.567102
0.567104
0.567105
0.567105
0.567107
0.567108
0.56711
0.567112
0.567112
0.567113
0.567115
0.567117
0.567118
0.567118
0.56712
0.567122
0.567123
0.567125
0.567125
0.567127
0.567128
0.56713
0.567131
0.567131
0.567133
0.567135
0.567136
0.567138
0.567138
0.56714
0.567141
0.567143
0.567145
0.567145
0.567146
0.567148
0.56715
0.567151
0.567151
0.567153
0.567155
0.567156
0.567158
0.567158
0.56716
0.567161
0.567163
0.567165
0.567165
0.567166
0.567168
0.56717
0.567171
0.567171
0.567173
0.567175
0.567176
0.567178
0.567178
0.56718
0.567181
0.567183
0.567185
0.567185
0.567187
0.567188
0.56719
0.567192
0.567192
0.567193
0.567195
0.567197
0.567199
0.567199
0.5672
0.567202
0.567204
0.567205
0.567205
0.567207
0.567209
0.56721
0.567212
0.567212
0.567214
0.567216
0.567217
0.567219
0.567219
0.567221
0.567223
0.567224
0.567226
0.567226
0.567228
0.56723
0.567231
0.567233
0.567233
0.567235
0.567236
0.567238
0.56724
0.56724
0.567242
0.567243
0.567245
0.567247
0.567247
0.567249
0.56725
0.567252
0.567254
0.567254
0.567256
0.567257
0.567259
0.567261
0.567261
0.567263
0.567265
0.567266
0.567268
0.567268
0.56727
0.567272
0.567273
0.567275
0.567275
0.567277
0.567279
0.56728
0.567282
0.567282
0.567284
0.567286
0.567288
0.567289
0.567289
0.567291
0.567293
0.567295
0.567297
0.567297
0.567298
0.5673
0.567302
0.567304
0.567304
0.567306
0.567307
0.567309
0.567311
0.567311
0.567313
0.567315
0.567316
0.567318
0.567318
0.56732
0.567322
0.567324
0.567325
0.567325
0.567327
0.567329
0.567331
0.567333
0.567333
0.567335
0.567336
0.567338
0.56734
0.56734
0.567342
0.567344
0.567346
0.567348
0.567348
0.567349
0.567351
0.567353
0.567355
0.567355
0.567357
0.567359
0.56736
0.567362
0.567362
0.567364
0.567366
0.567368
0.56737
0.56737
0.567372
0.567373
0.567375
0.567377
0.567377
0.567379
0.567381
0.567383
0.567385
0.567385
0.567387
0.567388
0.56739
0.567392
0.567392
0.567394
0.567396
0.567398
0.5674
0.5674
0.567402
0.567403
0.567405
0.567407
0.567407
0.567409
0.567411
0.567413
0.567415
0.567415
0.567417
0.567419
0.567421
0.567423
0.567423
0.567424
0.567426
0.567428
0.56743
0.56743
0.567432
0.567434
0.567436
0.567438
0.567438
0.56744
0.567442
0.567444
0.567446
0.567446
0.567447
0.567449
0.567451
0.567453
0.567453
0.567455
0.567457
0.567459
0.567461
0.567461
0.567463
0.567465
0.567467
0.567469
0.567469
0.567471
0.567473
0.567475
0.567477
0.567477
0.567479
0.567481
0.567483
0.567485
0.567485
0.567486
0.567488
0.56749
0.567492
0.567492
0.567494
0.567496
0.567498
0.5675
0.5675
0.567502
0.567504
0.567506
0.567508
0.567508
0.56751
0.567512
0.567514
0.567516
0.567516
0.567518
0.56752
0.567522
0.567524
0.567524
0.567526
0.567528
0.56753
0.567532
0.567532
0.567534
0.567536
0.567538
0.56754
0.56754
0.567542
0.567544
0.567546
0.567548
0.567548
0.56755
0.567552
0.567554
0.567556
0.567556
0.567558
0.567561
0.567563
0.567565
0.567565
0.567567
0.567569
0.567571
0.567573
0.567573
0.567575
0.567577
0.567579
0.567581
0.567581
0.567583
0.567585
0.567587
0.567589
0.567589
0.567591
0.567593
0.567595
0.567597
0.567597
0.5676
0.567602
0.567604
0.567606
0.567606
0.567608
0.56761
0.567612
0.567614
0.567614
0.567616
0.567618
0.56762
0.567622
0.567622
0.567625
0.567627
0.567629
0.567631
0.567631
0.567633
0.567635
0.567637
0.567639
0.567639
0.567641
0.567643
0.567646
0.567648
0.567648
0.56765
0.567652
0.567654
0.567656
0.567656
0.567658
0.56766
0.567663
0.567665
0.567665
0.567667
0.567669
0.567671
0.567673
0.567673
0.567675
0.567677
0.56768
0.567682
0.567682
0.567684
0.567686
0.567688
0.56769
0.56769
0.567693
0.567695
0.567697
0.567699
0.567699
0.567701
0.567703
0.567705
0.567708
0.567708
0.56771
0.567712
0.567714
0.567716
0.567716
0.567718
0.567721
0.567723
0.567725
0.567725
0.567727
0.567729
0.567732
0.567734
0.567734
0.567736
0.567738
0.56774
0.567743
0.567743
0.567745
0.567747
0.567749
0.567751
0.567751
0.567754
0.567756
0.567758
0.56776
0.56776
0.567762
0.567765
0.567767
0.567769
0.567769
0.567771
0.567774
0.567776
0.567778
0.567778
0.56778
0.567783
0.567785
0.567787
0.567787
0.567789
0.567791
0.567794
0.567796
0.567796
0.567798
0.567801
0.567803
0.567805
0.567805
0.567807
0.56781
0.567812
0.567814
0.567814
0.567816
0.567819
0.567821
0.567823
0.567823
0.567825
0.567828
0.56783
0.567832
0.567832
0.567835
0.567837
0.567839
0.567841
0.567841
0.567844
0.567846
0.567848
0.567851
0.567851
0.567853
0.567855
0.567858
0.56786
0.56786
0.567862
0.567864
0.567867
0.567869
0.567869
0.567871
0.567874
0.567876
0.567878
0.567878
0.567881
0.567883
0.567885
0.567888
0.567888
0.56789
0.567892
0.567895
0.567897
0.567897
0.567899
0.567902
0.567904
0.567906
0.567906
0.567909
0.567911
0.567914
0.567916
0.567916
0.567918
0.567921
0.567923
0.567925
0.567925
0.567928
0.56793
0.567932
0.567935
0.567935
0.567937
0.56794
0.567942
0.567944
0.567944
0.567947
0.567949
0.567952
0.567954
0.567954
0.567956
0.567959
0.567961
0.567964
0.567964
0.567966
0.567968
0.567971
0.567973
0.567973
0.567976
0.567978
0.56798
0.567983
0.567983
0.567985
0.567988
0.56799
0.567993
0.567993
0.567995
0.567997
0.568
0.568002
0.568002
0.568005
0.568007
0.56801
0.568012
0.568012
0.568015
0.568017
0.568019
0.568022
0.568022
0.568024
0.568027
0.568029
0.568032
0.568032
0.568034
0.568037
0.568039
0.568042
0.568042
0.568044
0.568047
0.568049
0.568052
0.568052
0.568054
0.568057
0.568059
0.568062
0.568062
0.568064
0.568067
0.568069
0.568072
0.568072
0.568074
0.568077
0.568079
0.568082
0.568082
0.568084
0.568087
0.568089
0.568092
0.568092
0.568094
0.568097
0.568099
0.568102
0.568102
0.568104
0.568107
0.568109
0.568112
0.568112
0.568115
0.568117
0.56812
0.568122
0.568122
0.568125
0.568127
0.56813
0.568132
0.568132
0.568135
0.568137
0.56814
0.568143
0.568143
0.568145
0.568148
0.56815
0.568153
0.568153
0.568156
0.568158
0.568161
0.568163
0.568163
0.568166
0.568168
0.568171
0.568174
0.568174
0.568176
0.568179
0.568181
0.568184
0.568184
0.568187
0.568189
0.568192
0.568195
0.568195
0.568197
0.5682
0.568202
0.568205
0.568205
0.568208
0.56821
0.568213
0.568216
0.568216
0.568218
0.568221
0.568224
0.568226
0.568226
0.568229
0.568232
0.568234
0.568237
0.568237
0.56824
0.568242
0.568245
0.568248
0.568248
0.56825
0.568253
0.568256
0.568258
0.568258
0.568261
0.568264
0.568266
0.568269
0.568269
0.568272
0.568274
0.568277
0.56828
0.56828
0.568282
0.568285
0.568288
0.568291
0.568291
0.568293
0.568296
0.568299
0.568301
0.568301
0.568304
0.568307
0.56831
0.568312
0.568312
0.568315
0.568318
0.568321
0.568323
0.568323
0.568326
0.568329
0.568332
0.568334
0.568334
0.568337
0.56834
0.568343
0.568345
0.568345
0.568348
0.568351
0.568354
0.568356
0.568356
0.568359
0.568362
0.568365
0.568367
0.568367
0.56837
0.568373
0.568376
0.568379
0.568379
0.568381
0.568384
0.568387
0.56839
0.56839
0.568393
0.568395
0.568398
0.568401
0.568401
0.568404
0.568407
0.56841
0.568412
0.568412
0.568415
0.568418
0.568421
0.568424
0.568424
0.568427
0.568429
0.568432
0.568435
0.568435
0.568438
0.568441
0.568444
0.568446
0.568446
0.568449
0.568452
0.568455
0.568458
0.568458
0.568461
0.568464
0.568467
0.568469
0.568469
0.568472
0.568475
0.568478
0.568481
0.568481
0.568484
0.568487
0.56849
0.568493
0.568493
0.568495
0.568498
0.568501
0.568504
0.568504
0.568507
0.56851
0.568513
0.568516
0.568516
0.568519
0.568522
0.568525
0.568528
0.568528
0.568531
0.568534
0.568536
0.568539
0.568539
0.568542
0.568545
0.568548
0.568551
0.568551
0.568554
0.568557
0.56856
0.568563
0.568563
0.568566
0.568569
0.568572
0.568575
0.568575
0.568578
0.568581
0.568584
0.568587
0.568587
0.56859
0.568593
0.568596
0.568599
0.568599
0.568602
0.568605
0.568608
0.568611
0.568611
0.568614
0.568617
0.56862
0.568623
0.568623
0.568626
0.568629
0.568632
0.568635
0.568635
0.568638
0.568641
0.568644
0.568647
0.568647
0.56865
0.568654
0.568657
0.56866
0.56866
0.568663
0.568666
0.568669
0.568672
0.568672
0.568675
0.568678
0.568681
0.568684
0.568684
0.568687
0.56869
0.568694
0.568697
0.568697
0.5687
0.568703
0.568706
0.568709
0.568709
0.568712
0.568715
0.568718