<?xml version="1.0"?>
<VTKFile type="UnstructuredGrid" version="0.1" byte_order="LittleEndian">
<UnstructuredGrid>
<Piece NumberOfPoints="5000" NumberOfCells="4000">
<PointData Scalars="Reaction 0">
<DataArray type="Float32" Name="Reaction 0" format="ascii">
0.571326
0.571326
0.571326
0.571326
0.571326
0.571326
0.571326
0.571326
0.571326
0.571326
0.571326
0.571326
0.571326
0.571326
0.571326
0.571326
0.571326
0.571326
0.571326
0.571326
0.571326
0.571326
0.571326
0.571326
0.571326
0.571326
0.571326
0.571326
0.571326
0.571327
0.571327
0.571327
0.571327
0.571327
0.571327
0.571327
0.571327
0.571327
0.571327
0.571327
0.571327
0.571327
0.571327
0.571327
0.571327
0.571327
0.571328
0.571328
0.571328
0.571328
0.571328
0.571328
0.571328
0.571328
0.571328
0.571328
0.571328
0.571328
0.571329
0.571329
0.571329
0.571329
0.571329
0.571329
0.571329
0.571329
0.571329
0.571329
0.57133
0.57133
0.57133
0.57133
0.57133
0.57133
0.57133
0.57133
0.57133
0.571331
0.571331
0.571331
0.571331
0.571331
0.571331
0.571331
0.571332
0.571332
0.571332
0.571332
0.571332
0.571332
0.571332
0.571332
0.571333
0.571333
0.571333
0.571333
0.571333
0.571333
0.571334
0.571334
0.571334
0.571334
0.571334
0.571334
0.571335
0.571335
0.571335
0.571335
0.571335
0.571335
0.571335
0.571336
0.571336
0.571336
0.571336
0.571336
0.571337
0.571337
0.571337
0.571337
0.571337
0.571338
0.571338
0.571338
0.571338
0.571338
0.571338
0.571339
0.571339
0.571339
0.571339
0.57134
0.57134
0.57134
0.57134
0.57134
0.571341
0.571341
0.571341
0.571341
0.571341
0.571342
0.571342
0.571342
0.571343
0.571343
0.571343
0.571343
0.571343
0.571344
0.571344
0.571344
0.571344
0.571345
0.571345
0.571345
0.571345
0.571346
0.571346
0.571346
0.571346
0.571347
0.571347
0.571347
0.571347
0.571347
0.571348
0.571348
0.571348
0.571349
0.571349
0.571349
0.57135
0.57135
0.57135
0.57135
0.571351
0.571351
0.571351
0.571352
0.571352
0.571352
0.571352
0.571353
0.571353
0.571353
0.571353
0.571354
0.571354
0.571355
0.571355
0.571355
0.571355
0.571356
0.571356
0.571356
0.571356
0.571357
0.571357
0.571358
0.571358
0.571358
0.571358
0.571359
0.571359
0.571359
0.57136
0.57136
0.571361
0.571361
0.571361
0.571361
0.571362
0.571362
0.571363
0.571363
0.571363
0.571363
0.571364
0.571364
0.571364
0.571365
0.571365
0.571366
0.571366
0.571366
0.571367
0.571367
0.571368
0.571368
0.571368
0.571368
0.571369
0.571369
0.57137
0.57137
0.57137
0.571371
0.571371
0.571372
0.571372
0.571372
0.571373
0.571373
0.571374
0.571374
0.571374
0.571375
0.571375
0.571376
0.571376
0.571376
0.571377
0.571377
0.571378
0.571378
0.571378
0.571379
0.571379
0.57138
0.57138
0.57138
0.571381
0.571381
0.571382
0.571382
0.571382
0.571383
0.571383
0.571384
0.571384
0.571385
0.571385
0.571386
0.571386
0.571386
0.571387
0.571387
0.571388
0.571388
0.571388
0.571389
0.57139
0.57139
0.571391
0.571391
0.571391
0.571392
0.571392
0.571393
0.571393
0.571394
0.571394
0.571395
0.571395
0.571395
0.571396
0.571397
0.571397
0.571398
0.571398
0.571398
0.571399
0.5714
0.5714
0.5714
0.571401
0.571401
0.571402
0.571403
0.571403
0.571403
0.571404
0.571404
0.571405
0.571405
0.571406
0.571406
0.571407
0.571408
0.571408
0.571408
0.571409
0.57141
0.57141
0.57141
0.571411
0.571412
0.571412
0.571413
0.571413
0.571414
0.571414
0.571415
0.571416
0.571416
0.571416
0.571417
0.571418
0.571418
0.571418
0.571419
0.57142
0.57142
0.571421
0.571421
0.571422
0.571422
0.571423
0.571424
0.571424
0.571425
0.571425
0.571426
0.571427
0.571427
0.571427
0.571428
0.571429
0.57143
0.57143
0.57143
0.571431
0.571432
0.571432
0.571432
0.571433
0.571434
0.571435
0.571435
0.571435
0.571436
0.571437
0.571438
0.571438
0.571438
0.571439
0.57144
0.571441
0.571441
0.571441
0.571442
0.571443
0.571444
0.571445
0.571445
0.571445
0.571446
0.571447
0.571448
0.571448
0.571448
0.571449
0.57145
0.571451
0.571451
0.571452
0.571452
0.571453
0.571454
0.571454
0.571455
0.571456
0.571456
0.571457
0.571457
0.571458
0.571459
0.57146
0.571461
0.571461
0.571461
0.571462
0.571463
0.571464
0.571464
0.571465
0.571466
0.571466
0.571467
0.571467
0.571468
0.571469
0.57147
0.571471
0.571471
0.571472
0.571472
0.571473
0.571474
0.571474
0.571475
0.571476
0.571477
0.571478
0.571478
0.571479
0.571479
0.57148
0.571481
0.571481
0.571482
0.571483
0.571484
0.571485
0.571485
0.571486
0.571487
0.571488
0.571488
0.571488
0.571489
0.57149
0.571491
0.571492
0.571492
0.571493
0.571494
0.571495
0.571496
0.571496
0.571497
0.571498
0.571499
0.5715
0.5715
0.571501
0.571501
0.571502
0.571503
0.571503
0.571504
0.571505
0.571506
0.571507
0.571507
0.571508
0.571509
0.57151
0.571511
0.571511
0.571512
0.571513
0.571514
0.571515
0.571515
0.571516
0.571517
0.571518
0.571519
0.571519
0.57152
0.571521
0.571522
0.571523
0.571523
0.571524
0.571525
0.571526
0.571527
0.571527
0.571528
0.571529
0.57153
0.571531
0.571531
0.571532
0.571533
0.571534
0.571535
0.571535
0.571536
0.571537
0.571538
0.571539
0.571539
0.57154
0.571542
0.571543
0.571544
0.571544
0.571545
0.571546
0.571547
0.571548
0.571548
0.571549
0.57155
0.571551
0.571552
0.571552
0.571553
0.571554
0.571555
0.571557
0.571557
0.571558
0.571559
0.57156
0.571561
0.571561
0.571562
0.571563
0.571564
0.571565
0.571565
0.571567
0.571568
0.571569
0.57157
0.57157
0.571571
0.571572
0.571573
0.571574
0.571574
0.571576
0.571577
0.571578
0.571579
0.571579
0.57158
0.571581
0.571583
0.571584
0.571584
0.571585
0.571586
0.571587
0.571588
0.571588
0.57159
0.571591
0.571592
0.571593
0.571593
0.571594
0.571595
0.571597
0.571598
0.571598
0.571599
0.5716
0.571601
0.571603
0.571603
0.571604
0.571605
0.571606
0.571607
0.571607
0.571609
0.57161
0.571611
0.571612
0.571612
0.571614
0.571615
0.571616
0.571617
0.571617
0.571618
0.57162
0.571621
0.571622
0.571622
0.571623
0.571625
0.571626
0.571627
0.571627
0.571628
0.57163
0.571631
0.571632
0.571632
0.571633
0.571635
0.571636
0.571637
0.571637
0.571639
0.57164
0.571641
0.571642
0.571642
0.571644
0.571645
0.571646
0.571648
0.571648
0.571649
0.57165
0.571651
0.571653
0.571653
0.571654
0.571655
0.571657
0.571658
0.571658
0.571659
0.571661
0.571662
0.571663
0.571663
0.571665
0.571666
0.571667
0.571669
0.571669
0.57167
0.571672
0.571673
0.571674
0.571674
0.571676
0.571677
0.571678
0.57168
0.57168
0.571681
0.571682
0.571684
0.571685
0.571685
0.571687
0.571688
0.571689
0.571691
0.571691
0.571692
0.571694
0.571695
0.571696
0.571696
0.571698
0.571699
0.571701
0.571702
0.571702
0.571703
0.571705
0.571706
0.571708
0.571708
0.571709
0.57171
0.571712
0.571713
0.571713
0.571715
0.571716
0.571718
0.571719
0.571719
0.571721
0.571722
0.571723
0.571725
0.571725
0.571726
0.571728
0.571729
0.571731
0.571731
0.571732
0.571734
0.571735
0.571737
0.571737
0.571738
0.57174
0.571741
0.571743
0.571743
0.571744
0.571746
0.571747
0.571749
0.571749
0.57175
0.571752
0.571753
0.571755
0.571755
0.571756
0.571758
0.571759
0.571761
0.571761
0.571762
0.571764
0.571765
0.571767
0.571767
0.571768
0.57177
0.571772
0.571773
0.571773
0.571775
0.571776
0.571778
0.571779
0.571779
0.571781
0.571782
0.571784
0.571786
0.571786
0.571787
0.571789
0.57179
0.571792
0.571792
0.571794
0.571795
0.571797
0.571798
0.571798
0.5718
0.571802
0.571803
0.571805
0.571805
0.571806
0.571808
0.57181
0.571811
0.571811
0.571813
0.571814
0.571816
0.571818
0.571818
0.571819
0.571821
0.571823
0.571824
0.571824
0.571826
0.571828
0.571829
0.571831
0.571831
0.571833
0.571834
0.571836
0.571837
0.571837
0.571839
0.571841
0.571842
0.571844
0.571844
0.571846
0.571848
0.571849
0.571851
0.571851
0.571853
0.571854
0.571856
0.571858
0.571858
0.571859
0.571861
0.571863
0.571865
0.571865
0.571866
0.571868
0.57187
0.571871
0.571871
0.571873
0.571875
0.571877
0.571878
0.571878
0.57188
0.571882
0.571884
0.571885
0.571885
0.571887
0.571889
0.571891
0.571892
0.571892
0.571894
0.571896
0.571898
0.5719
0.5719
0.571901
0.571903
0.571905
0.571907
0.571907
0.571908
0.57191
0.571912
0.571914
0.571914
0.571916
0.571917
0.571919
0.571921
0.571921
0.571923
0.571925
0.571927
0.571928
0.571928
0.57193
0.571932
0.571934
0.571936
0.571936
0.571938
0.571939
0.571941
0.571943
0.571943
0.571945
0.571947
0.571949
0.57195
0.57195
0.571952
0.571954
0.571956
0.571958
0.571958
0.57196
0.571962
0.571964
0.571965
0.571965
0.571967
0.571969
0.571971
0.571973
0.571973
0.571975
0.571977
0.571979
0.571981
0.571981
0.571983
0.571984
0.571986
0.571988
0.571988
0.57199
0.571992
0.571994
0.571996
0.571996
0.571998
0.572
0.572002
0.572004
0.572004
0.572006
0.572008
0.57201
0.572012
0.572012
0.572014
0.572016
0.572018
0.57202
0.57202
0.572022
0.572023
0.572025
0.572027
0.572027
0.572029
0.572031
0.572033
0.572035
0.572035
0.572037
0.572039
0.572041
0.572043
0.572043
0.572045
0.572047
0.572049
0.572051
0.572051
0.572053
0.572056
0.572058
0.57206
0.57206
0.572062
0.572064
0.572066
0.572068
0.572068
0.57207
0.572072
0.572074
0.572076
0.572076
0.572078
0.57208
0.572082
0.572084
0.572084
0.572086
0.572088
0.572091
0.572093
0.572093
0.572095
0.572097
0.572099
0.572101
0.572101
0.572103
0.572105
0.572107
0.572109
0.572109
0.572112
0.572114
0.572116
0.572118
0.572118
0.57212
0.572122
0.572124
0.572126
0.572126
0.572129
0.572131
0.572133
0.572135
0.572135
0.572137
0.572139
0.572142
0.572144
0.572144
0.572146
0.572148
0.57215
0.572152
0.572152
0.572155
0.572157
0.572159
0.572161
0.572161
0.572163
0.572165
0.572168
0.57217
0.57217
0.572172
0.572174
0.572176
0.572179
0.572179
0.572181
0.572183
0.572185
0.572188
0.572188
0.57219
0.572192
0.572194
0.572197
0.572197
0.572199
0.572201
0.572203
0.572206
0.572206
0.572208
0.57221
0.572212
0.572215
0.572215
0.572217
0.572219
0.572221
0.572224
0.572224
0.572226
0.572228
0.572231
0.572233
0.572233
0.572235
0.572238
0.57224
0.572242
0.572242
0.572244
0.572247
0.572249
0.572251
0.572251
0.572254
0.572256
0.572258
0.572261
0.572261
0.572263
0.572265
0.572268
0.57227
0.57227
0.572272
0.572275
0.572277
0.572279
0.572279
0.572282
0.572284
0.572287
0.572289
0.572289
0.572291
0.572294
0.572296
0.572299
0.572299
0.572301
0.572303
0.572306
0.572308
0.572308
0.572311
0.572313
0.572315
0.572318
0.572318
0.57232
0.572323
0.572325
0.572328
0.572328
0.57233
0.572332
0.572335
0.572337
0.572337
0.57234
0.572342
0.572345
0.572347
0.572347
0.57235
0.572352
0.572355
0.572357
0.572357
0.572359
0.572362
0.572364
0.572367
0.572367
0.572369
0.572372
0.572374
0.572377
0.572377
0.572379
0.572382
0.572384
0.572387
0.572387
0.572389
0.572392
0.572394
0.572397
0.572397
0.572399
0.572402
0.572405
0.572407
0.572407
0.57241
0.572412
0.572415
0.572417
0.572417
0.57242
0.572422
0.572425
0.572428
0.572428
0.57243
0.572433
0.572435
0.572438
0.572438
0.572441
0.572443
0.572446
0.572448
0.572448
0.572451
0.572454
0.572456
0.572459
0.572459
0.572461
0.572464
0.572467
0.572469
0.572469
0.572472
0.572475
0.572477
0.57248
0.57248
0.572482
0.572485
0.572488
0.57249
0.57249
0.572493
0.572496
0.572498
0.572501
0.572501
0.572504
0.572506
0.572509
0.572512
0.572512
0.572514
0.572517
0.57252
0.572523
0.572523
0.572525
0.572528
0.572531
0.572533
0.572533
0.572536
0.572539
0.572542
0.572544
0.572544
0.572547
0.57255
0.572553
0.572555
0.572555
0.572558
0.572561
0.572564
0.572566
0.572566
0.572569
0.572572
0.572575
0.572577
0.572577
0.57258
0.572583
0.572586
0.572589
0.572589
0.572591
0.572594
0.572597
0.5726
0.5726
0.572603
0.572605
0.572608
0.572611
0.572611
0.572614
0.572617
0.572619
0.572622
0.572622
0.572625
0.572628
0.572631
0.572634
0.572634
0.572636
0.572639
0.572642
0.572645
0.572645
0.572648
0.572651
0.572654
0.572657
0.572657
0.572659
0.572662
0.572665
0.572668
0.572668
0.572671
0.572674
0.572677
0.57268
0.57268
0.572683
0.572686
0.572688
0.572691
0.572691
0.572694
0.572697
0.5727
0.572703
0.572703
0.572706
0.572709
0.572712
0.572715
0.572715
0.572718
0.572721
0.572724
0.572727
0.572727
0.57273
0.572733
0.572736
0.572739
0.572739
0.572742
0.572745
0.572748
0.572751
0.572751
0.572754
0.572757
0.57276
0.572763
0.572763
0.572766
0.572769
0.572772
0.572775
0.572775
0.572778
0.572781
0.572784
0.572787
0.572787
0.57279
0.572793
0.572796
0.572799
0.572799
0.572802
0.572805
0.572808
0.572812
0.572812
0.572815
0.572818
0.572821
0.572824
0.572824
0.572827
0.57283
0.572833
0.572836
0.572836
0.572839
0.572842
0.572846
0.572849
0.572849
0.572852
0.572855
0.572858
0.572861
0.572861
0.572864
0.572868
0.572871
0.572874
0.572874
0.572877
0.57288
0.572883
0.572887
0.572887
0.57289
0.572893
0.572896
0.572899
0.572899
0.572903
0.572906
0.572909
0.572912
0.572912
0.572915
0.572919
0.572922
0.572925
0.572925
0.572928
0.572931
0.572935
0.572938
0.572938
0.572941
0.572944
0.572948
0.572951
0.572951
0.572954
0.572957
0.572961
0.572964
0.572964
0.572967
0.57297
0.572974
0.572977
0.572977
0.57298
0.572984
0.572987
0.57299
0.57299
0.572994
0.572997
0.573
0.573003
0.573003
0.573007
0.57301
0.573013
0.573017
0.573017
0.57302
0.573024
0.573027
0.57303
0.57303
0.573034
0.573037
0.57304
0.573044
0.573044
0.573047
0.57305
0.573054
0.573057
0.573057
0.573061
0.573064
0.573067
0.573071
0.573071
0.573074
0.573078
0.573081
0.573084
0.573084
0.573088
0.573091
0.573095
0.573098
0.573098
0.573102
0.573105
0.573108
0.573112
0.573112
0.573115
0.573119
0.573122
0.573126
0.573126
0.573129
0.573133
0.573136
0.57314
0.57314
0.573143
0.573147
0.57315
0.573154
0.573154
0.573157
0.573161
0.573164
0.573168
0.573168
0.573171
0.573175
0.573178
0.573182
0.573182
0.573186
0.573189
0.573193
0.573196
0.573196
0.5732
0.573203
0.573207
0.57321
0.57321
0.573214
0.573218
0.573221
0.573225
0.573225
0.573228
0.573232
0.573236
0.573239
0.573239
0.573243
0.573246
0.57325
0.573254
0.573254
0.573257
0.573261
0.573265
0.573268
0.573268
0.573272
0.573276
0.573279
0.573283
0.573283
0.573287
0.57329
0.573294
0.573298
0.573298
0.573301
0.573305
0.573309
0.573312
0.573312
0.573316
0.57332
0.573323
0.573327
0.573327
0.573331
0.573335
0.573338
0.573342
0.573342
0.573346
0.57335
0.573353
0.573357
0.573357
0.573361
0.573365
0.573368
0.573372
0.573372
0.573376
0.57338
0.573383
0.573387
0.573387
0.573391
0.573395
0.573399
0.573402
0.573402
0.573406
0.57341
0.573414
0.573418
0.573418
0.573422
0.573425
0.573429
0.573433
0.573433
0.573437
0.573441
0.573445
0.573449
0.573449
0.573452
0.573456
0.57346
0.573464
0.573464
0.573468
0.573472
0.573476
0.57348
0.57348
0.573483
0.573487
0.573491
0.573495
0.573495
0.573499
0.573503
0.573507
0.573511
0.573511
0.573515
0.573519
0.573523
0.573527
0.573527
0.573531
0.573535
0.573539
0.573543
0.573543
0.573547
0.573551
0.573555
0.573559
0.573559
0.573563
0.573567
0.573571
0.573575
0.573575
0.573579
0.573583
0.573587
0.573591
0.573591
0.573595
0.573599
0.573603
0.573607
0.573607
0.573611
0.573615
0.573619
0.573623
0.573623
0.573627
0.573631
0.573635
0.573639
0.573639
0.573643
0.573648
0.573652
0.573656
0.573656
0.57366
0.573664
0.573668
0.573672
0.573672
0.573676
0.573681
0.573685
0.573689
0.573689
0.573693
0.573697
0.573701
0.573705
0.573705
0.57371
0.573714
0.573718
0.573722
0.573722
0.573726
0.573731
0.573735
0.573739
0.573739
0.573743
0.573747
0.573752
0.573756
0.573756
0.57376
0.573764
0.573768
0.573773
0.573773
0.573777
0.573781
0.573785
0.57379
0.57379
0.573794
0.573798
0.573803
0.573807
0.573807
0.573811
0.573815
0.57382
0.573824
0.573824
0.573828
0.573833
0.573837
0.573841
0.573841
0.573846
0.57385
0.573854
0.573859
0.573859
0.573863
0.573867
0.573872
0.573876
0.573876
0.57388
0.573885
0.573889
0.573894
0.573894
0.573898
0.573902
0.573907
0.573911
0.573911
0.573916
0.57392
0.573924
0.573929
0.573929
0.573933
0.573938
0.573942
0.573947
0.573947
0.573951
0.573956
0.57396
0.573965
0.573965
0.573969
0.573973
0.573978
0.573982
0.573982
0.573987
0.573991
0.573996
0.574
0.574
0.574005
0.574009
0.574014
0.574018
0.574018
0.574023
0.574028
0.574032
0.574037
0.574037
0.574041
0.574046
0.57405
0.574055
0.574055
0.57406
0.574064
0.574069
0.574073
0.574073
0.574078
0.574082
0.574087
0.574092
0.574092
0.574096
0.574101
0.574106
0.57411
0.57411
0.574115
0.57412
0.574124
0.574129
0.574129
0.574133
0.574138
0.574143
0.574147
0.574147
0.574152
0.574157
0.574162
0.574166
0.574166
0.574171
0.574176
0.57418
0.574185
0.574185
0.57419
0.574195
0.574199
0.574204
0.574204
0.574209
0.574214
0.574218
0.574223
0.574223
0.574228
0.574233
0.574237
0.574242
0.574242
0.574247
0.574252
0.574257
0.574261
0.574261
0.574266
0.574271
0.574276
0.574281
0.574281
0.574286
0.57429
0.574295
0.5743
0.5743
0.574305
0.57431
0.574315
0.57432
0.57432
0.574324
0.574329
0.574334
0.574339
0.574339
0.574344
0.574349
0.574354
0.574359
0.574359
0.574364
0.574369
0.574374
0.574379
0.574379
0.574383
0.574388
0.574393
0.574398
0.574398
0.574403
0.574408
0.574413
0.574418
0.574418
0.574423
0.574428
0.574433
0.574438
0.574438
0.574443
0.574448
0.574453
0.574458
0.574458
0.574463
0.574468
0.574474
0.574479
0.574479
0.574484
0.574489
0.574494
0.574499
0.574499
0.574504
0.574509
0.574514
0.574519
0.574519
0.574524
0.57453
0.574535
0.57454
0.57454
0.574545
0.57455
0.574555
0.57456
0.57456
0.574565
0.574571
0.574576
0.574581
0.574581
0.574586
0.574591
0.574596
0.574602
0.574602
0.574607
0.574612
0.574617
0.574623
0.574623
0.574628
0.574633
0.574638
0.574644
0.574644
0.574649
0.574654
0.574659
0.574665
0.574665
0.57467
0.574675
0.57468
0.574686
0.574686
0.574691
0.574696
0.574702
0.574707
0.574707
0.574712
0.574718
0.574723
0.574728
0.574728
0.574734
0.574739
0.574744
0.57475
0.57475
0.574755
0.57476
0.574766
0.574771
0.574771
0.574777
0.574782
0.574787
0.574793
0.574793
0.574798
0.574804
0.574809
0.574815
0.574815
0.57482
0.574825
0.574831
0.574836
0.574836
0.574842
0.574847
0.574853
0.574858
0.574858
0.574864
0.574869
0.574875
0.57488
0.57488
0.574886
0.574891
0.574897
0.574902
0.574902
0.574908
0.574913
0.574919
0.574925
0.574925
0.57493
0.574936
0.574941
0.574947
0.574947
0.574953
0.574958
0.574964
0.574969
0.574969
0.574975
0.574981
0.574986
0.574992
0.574992
0.574998
0.575003
0.575009
0.575015
0.575015
0.57502
0.575026
0.575032
0.575037
0.575037
0.575043
0.575049
0.575054
0.57506
0.57506
0.575066
0.575072
0.575077
0.575083
0.575083
0.575089
0.575095
0.5751
0.575106
0.575106
0.575112
0.575118
0.575123
0.575129
0.575129
0.575135
0.575141
0.575147
0.575152
0.575152
0.575158
0.575164
0.57517
0.575176
0.575176
0.575182
0.575187
0.575193
0.575199
0.575199
0.575205
0.575211
0.575217
0.575223
0.575223
0.575229
0.575235
0.575241
0.575246
0.575246
0.575252
0.575258
0.575264
0.57527
0.57527
0.575276
0.575282
0.575288
0.575294
0.575294
0.5753
0.575306
0.575312
0.575318
0.575318
0.575324
0.57533
0.575336
0.575342
0.575342
0.575348
0.575354
0.57536
0.575366
0.575366
0.575372
0.575379
0.575385
0.575391
0.575391
0.575397
0.575403
0.575409
0.575415
0.575415
0.575421
0.575427
0.575434
0.57544
0.57544
0.575446
0.575452
0.575458
0.575464
0.575464
0.57547
0.575477
0.575483
0.575489
0.575489
0.575495
0.575501
0.575508
0.575514
0.575514
0.57552
0.575526
0.575533
0.575539
0.575539
0.575545
0.575551
0.575558
0.575564
0.575564
0.57557
0.575577
0.575583
0.575589
0.575589
0.575596
0.575602
0.575608
0.575615
0.575615
0.575621
0.575627
0.575634
0.57564
0.57564
0.575646
0.575653
0.575659
0.575665
0.575665
0.575672
0.575678
0.575685
0.575691
0.575691
0.575698
0.575704
0.57571
0.575717
0.575717
0.575723
0.57573
0.575736
0.575743
0.575743
0.575749
0.575756
0.575762
0.575769
0.575769
0.575775
0.575782
0.575788
0.575795
0.575795
0.575802
0.575808
0.575815
0.575821
0.575821
0.575828
0.575834
0.575841
0.575848
0.575848
0.575854
0.575861
0.575867
0.575874
0.575874
0.575881
0.575887
0.575894
0.575901
0.575901
0.575907
0.575914
0.575921
0.575927
0.575927
0.575934
0.575941
0.575947
0.575954
0.575954
0.575961
0.575968
0.575974
0.575981
0.575981
0.575988
0.575995
0.576001
0.576008
0.576008
0.576015
0.576022
0.576029
0.576035
0.576035
0.576042
0.576049
0.576056
0.576063
0.576063
0.57607
0.576077
0.576083
0.57609
0.57609
0.576097
0.576104
0.576111
0.576118
0.576118
0.576125
0.576132
0.576139
0.576145
0.576145
0.576152
0.576159
0.576166
0.576173
0.576173
0.57618
0.576187
0.576194
0.576201
0.576201
0.576208
0.576215
0.576222
0.576229
0.576229
0.576236
0.576243
0.57625
0.576258
0.576258
0.576265
0.576272
0.576279
0.576286
0.576286
0.576293
0.5763
0.576307
0.576314
0.576314
0.576321
0.576329
0.576336
0.576343
0.576343
0.57635
0.576357
0.576364
0.576372
0.576372
0.576379
0.576386
0.576393
0.5764
0.5764
0.576408
0.576415
0.576422
0.576429
0.576429
0.576437
0.576444
0.576451
0.576458
0.576458
0.576466
0.576473
0.57648
0.576488
0.576488
0.576495
0.576502
0.57651
0.576517
0.576517
0.576524
0.576532
0.576539
0.576547
0.576547
0.576554
0.576561
0.576569
0.576576
0.576576
0.576584
0.576591
0.576599
0.576606
0.576606
0.576613
0.576621
0.576628
0.576636
0.576636
0.576643
0.576651
0.576658
0.576666
0.576666
0.576673
0.576681
0.576688
0.576696
0.576696
0.576704
0.576711
0.576719
0.576726
0.576726
0.576734
0.576742
0.576749
0.576757
0.576757
0.576764
0.576772
0.57678
0.576787
0.576787
0.576795
0.576803
0.57681
0.576818
0.576818
0.576826
0.576833
0.576841
0.576849
0.576849
0.576857
0.576864
0.576872
0.57688
0.57688
0.576888
0.576895
0.576903
0.576911
0.576911
0.576919
0.576927
0.576934
0.576942
0.576942
0.57695
0.576958
0.576966
0.576974
0.576974
0.576982
0.576989
0.576997
0.577005
0.577005
0.577013
0.577021
0.577029
0.577037
0.577037
0.577045
0.577053
0.577061
0.577069
0.577069
0.577077
0.577085
0.577093
0.577101
0.577101
0.577109
0.577117
0.577125
0.577133
0.577133
0.577141
0.577149
0.577157
0.577165
0.577165
0.577173
0.577181
0.577189
0.577197
0.577197
0.577206
0.577214
0.577222
0.57723
0.57723
0.577238
0.577246
0.577255
0.577263
0.577263
0.577271
0.577279
0.577287
0.577296
0.577296
0.577304
0.577312
0.57732
0.577329
0.577329
0.577337
0.577345
0.577353
0.577362
0.577362
0.57737
0.577378
0.577387
0.577395
0.577395
0.577403
0.577412
0.57742
0.577428
0.577428
0.577437
0.577445
0.577454
0.577462
0.577462
0.57747
0.577479
0.577487
0.577496
0.577496
0.577504
0.577513
0.577521
0.57753
0.57753
0.577538
0.577547
0.577555
0.577564
0.577564
0.577572
0.577581
0.577589
0.577598
0.577598
0.577607
0.577615
0.577624
0.577632
0.577632
0.577641
0.57765
0.577658
0.577667
0.577667
0.577676
0.577684
0.577693
0.577702
0.577702
0.57771
0.577719
0.577728
0.577736
0.577736
0.577745
0.577754
0.577763
0.577771
0.577771
0.57778
0.577789
0.577798
0.577806
0.577806
0.577815
0.577824
0.577833
0.577842
0.577842
0.577851
0.57786
0.577868
0.577877
0.577877
0.577886
0.577895
0.577904
0.577913
0.577913
0.577922
0.577931
0.57794
0.577949
0.577949
0.577958
0.577967
0.577976
0.577985
0.577985
0.577994
0.578003
0.578012
0.578021
0.578021
0.57803
0.578039
0.578048
0.578057
0.578057
0.578066
0.578075
0.578084
0.578093
0.578093
0.578103
0.578112
0.578121
0.57813
0.57813
0.578139
0.578148
0.578158
0.578167
0.578167
0.578176
0.578185
0.578194
0.578204
0.578204
0.578213
0.578222
0.578232
0.578241
0.578241
0.57825
0.578259
0.578269
0.578278
0.578278
0.578287
0.578297
0.578306
0.578316
0.578316
0.578325
0.578334
0.578344
0.578353
0.578353
0.578363
0.578372
0.578381
0.578391
0.578391
0.5784
0.57841
0.578419
0.578429
0.578429
0.578438
0.578448
0.578457
0.578467
0.578467
0.578477
0.578486
0.578496
0.578505
0.578505
0.578515
0.578524
0.578534
0.578544
0.578544
0.578553
0.578563
0.578573
0.578582
0.578582
0.578592
0.578602
0.578612
0.578621
0.578621
0.578631
0.578641
0.57865
0.57866
0.57866
0.57867
0.57868
0.57869
0.578699
0.578699
0.578709
0.578719
0.578729
0.578739
0.578739
0.578749
0.578758
0.578768
0.578778
0.578778
0.578788
0.578798
0.578808
0.578818
0.578818
0.578828
0.578838
0.578848
0.578858
0.578858
0.578868
0.578878
0.578888
0.578898
0.578898
0.578908
0.578918
0.578928
0.578938
0.578938
0.578948
0.578958
0.578968
0.578979
0.578979
0.578989
0.578999
0.579009
0.579019
0.579019
0.579029
0.57904
0.57905
0.57906
0.57906
0.57907
0.579081
0.579091
0.579101
0.579101
0.579111
0.579122
0.579132
0.579142
0.579142
0.579153
0.579163
0.579173
0.579184
0.579184
0.579194
0.579204
0.579215
0.579225
0.579225
0.579236
0.579246
0.579256
0.579267
0.579267
0.579277
0.579288
0.579298
0.579309
0.579309
0.579319
0.57933
0.57934
0.579351
0.579351
0.579362
0.579372
0.579383
0.579393
0.579393
0.579404
0.579415
0.579425
0.579436
0.579436
0.579446
0.579457
0.579468
0.579479
0.579479
0.579489
0.5795
0.579511
0.579521
0.579521
0.579532
0.579543
0.579554
0.579565
0.579565
0.579575
0.579586
0.579597
0.579608
0.579608
0.579619
0.57963
0.57964
0.579651
0.579651
0.579662
0.579673
0.579684
0.579695
0.579695
0.579706
0.579717
0.579728
0.579739
0.579739
0.57975
0.579761
0.579772
0.579783
0.579783
0.579794
0.579805
0.579816
0.579827
0.579827
0.579838
0.57985
0.579861
0.579872
0.579872
0.579883
0.579894
0.579905
0.579917
0.579917
0.579928
0.579939
0.57995
0.579961
0.579961
0.579973
0.579984
0.579995
0.580007
0.580007
0.580018
0.580029
0.58004
0.580052
0.580052
0.580063
0.580075
0.580086
0.580097
0.580097
0.580109
0.58012
0.580132
0.580143
0.580143
0.580155
0.580166
0.580178
0.580189
0.580189
0.580201
0.580212
0.580224
0.580235
0.580235
0.580247
0.580258
0.58027
0.580282
0.580282
0.580293
0.580305
0.580317
0.580328
0.580328
0.58034
0.580352
0.580363
0.580375
0.580375
0.580387
0.580398
0.58041
0.580422
0.580422
0.580434
0.580446
0.580457
0.580469
0.580469
0.580481
0.580493
0.580505
0.580517
0.580517
0.580529
0.58054
0.580552
0.580564
0.580564
0.580576
0.580588
0.5806
0.580612
0.580612
0.580624
0.580636
0.580648
0.58066
0.58066
0.580672
0.580684
0.580697
0.580709
0.580709
0.580721
0.580733
0.580745
0.580757
0.580757
0.580769
0.580782
0.580794
0.580806
0.580806
0.580818
0.58083
0.580843
0.580855
0.580855
0.580867
0.58088
0.580892
0.580904
0.580904
0.580917
0.580929
0.580941
0.580954
0.580954
0.580966
0.580978
0.580991
0.581003
0.581003
0.581016
0.581028
0.581041
0.581053
0.581053
0.581066
0.581078
0.581091
0.581103
0.581103
0.581116
0.581129
0.581141
0.581154
0.581154
0.581166
0.581179
0.581192
0.581204
0.581204
0.581217
0.58123
0.581242
0.581255
0.581255
0.581268
0.581281
0.581294
0.581306
0.581306
0.581319
0.581332
0.581345
0.581358
0.581358
0.58137
0.581383
0.581396
0.581409
0.581409
0.581422
0.581435
0.581448
0.581461
0.581461
0.581474
0.581487
0.5815
0.581513
0.581513
0.581526
0.581539
0.581552
0.581565
0.581565
0.581578
0.581591
0.581605
0.581618
0.581618
0.581631
0.581644
0.581657
0.58167
0.58167
0.581684
0.581697
0.58171
0.581724
0.581724
0.581737
0.58175
0.581763
0.581777
0.581777
0.58179
0.581803
0.581817
0.58183
0.58183
0.581844
0.581857
0.58187
0.581884
0.581884
0.581897
0.581911
0.581924
0.581938
0.581938
0.581952
0.581965
0.581979
0.581992
0.581992
0.582006
0.582019
0.582033
0.582047
0.582047
0.58206
0.582074
0.582088
0.582101
0.582101
0.582115
0.582129
0.582143
0.582156
0.582156
0.58217
0.582184
0.582198
0.582212
0.582212
0.582226
0.582239
0.582253
0.582267
0.582267
0.582281
0.582295
0.582309
0.582323
0.582323
0.582337
0.582351
0.582365
0.582379
0.582379
0.582393
0.582407
0.582421
0.582435
0.582435
0.582449
0.582464
0.582478
0.582492
0.582492
0.582506
0.58252
0.582534
0.582549
0.582549
0.582563
0.582577
0.582591
0.582606
0.582606
0.58262
0.582634
0.582649
0.582663
0.582663
0.582677
0.582692
0.582706
0.582721
0.582721
0.582735
0.58275
0.582764
0.582779
0.582779
0.582793
0.582808
0.582822
0.582837
0.582837
0.582851
0.582866
0.582881
0.582895
0.582895
0.58291
0.582924
0.582939
0.582954
0.582954
0.582969
0.582983
0.582998
0.583013
0.583013
0.583028
0.583042
0.583057
0.583072
0.583072
0.583087
0.583102
0.583117
0.583132
0.583132
0.583147
0.583161
0.583176
0.583191
0.583191
0.583206
0.583221
0.583236
0.583252
0.583252
0.583267
0.583282
0.583297
0.583312
0.583312
0.583327
0.583342
0.583357
0.583373
0.583373
0.583388
0.583403
0.583418
0.583433
0.583433
0.583449
0.583464
0.583479
0.583495
0.583495
0.58351
0.583525
0.583541
0.583556
0.583556
0.583572
0.583587
0.583602
0.583618
0.583618
0.583633
0.583649
0.583664
0.58368
0.58368
0.583696
0.583711
0.583727
0.583742
0.583742
0.583758
0.583774
0.583789
0.583805
0.583805
0.583821
0.583837
0.583852
0.583868
0.583868
0.583884
0.5839
0.583915
0.583931
0.583931
0.583947
0.583963
0.583979
0.583995
0.583995
0.584011
0.584027
0.584043
0.584059
0.584059
0.584075
0.584091
0.584107
0.584123
0.584123
0.584139
0.584155
0.584171
0.584187
0.584187
0.584203
0.58422
0.584236
0.584252
0.584252
0.584268
0.584285
0.584301
0.584317
0.584317
0.584333
0.58435
0.584366
0.584382
0.584382
0.584399
0.584415
0.584432
0.584448
0.584448
0.584465
0.584481
0.584498
0.584514
0.584514
0.584531
0.584547
0.584564
0.58458
0.58458
0.584597
0.584614
0.58463
0.584647
0.584647
0.584664
0.58468
0.584697
0.584714
0.584714
0.584731
0.584747
0.584764
0.584781
0.584781
0.584798
0.584815
0.584832
0.584849
0.584849
0.584866
0.584883
0.5849
0.584917
0.584917
0.584934
0.584951
0.584968
0.584985
0.584985
0.585002
0.585019
0.585036
0.585053
0.585053
0.58507
0.585088
0.585105
0.585122
0.585122
0.585139
0.585157
0.585174
0.585191
0.585191
0.585209
0.585226
0.585243
0.585261
0.585261
0.585278
0.585296
0.585313
0.58533
0.58533
0.585348
0.585365
0.585383
0.585401
0.585401
0.585418
0.585436
0.585453
0.585471
0.585471
0.585489
0.585506
0.585524
0.585542
0.585542
0.58556
0.585577
0.585595
0.585613
0.585613
0.585631
0.585649
0.585667
0.585684
0.585684
0.585702
0.58572
0.585738
0.585756
0.585756
0.585774
0.585792
0.58581
0.585828
0.585828
0.585847
0.585865
0.585883
0.585901
0.585901
0.585919
0.585937
0.585955
0.585974
0.585974
0.585992
0.58601
0.586029
0.586047
0.586047
0.586065
0.586084
0.586102
0.58612
0.58612
0.586139
0.586157
0.586176
0.586194
0.586194
0.586213
0.586231
0.58625
0.586268
0.586268
0.586287
0.586306
0.586324
0.586343
0.586343
0.586362
0.58638
0.586399
0.586418
0.586418
0.586437
0.586456
0.586474
0.586493
0.586493
0.586512
0.586531
0.58655
0.586569
0.586569
0.586588
0.586607
0.586626
0.586645
0.586645
0.586664
0.586683
0.586702
0.586721
0.586721
0.58674
0.58676
0.586779
0.586798
0.586798
0.586817
0.586836
0.586856
0.586875
0.586875
0.586894
0.586914
0.586933
0.586952
0.586952
0.586972
0.586991
0.587011
0.58703
0.58703
0.58705
0.587069
0.587089
0.587108
0.587108
0.587128
0.587148
0.587167
0.587187
0.587187
0.587207
0.587226
0.587246
0.587266
0.587266
0.587286
0.587305
0.587325
0.587345
0.587345
0.587365
0.587385
0.587405
0.587425
0.587425
0.587445
0.587465
0.587485
0.587505
0.587505
0.587525
0.587545
0.587565
0.587585
0.587585
0.587605
0.587626