<?xml version="1.0"?>
<VTKFile type="UnstructuredGrid" version="0.1" byte_order="LittleEndian">
<UnstructuredGrid>
<Piece NumberOfPoints="5000" NumberOfCells="4000">
<PointData Scalars="Reaction 0">
<DataArray type="Float32" Name="Reaction 0" format="ascii">
0.570652
0.570652
0.570652
0.570652
0.570652
0.570652
0.570652
0.570652
0.570652
0.570652
0.570652
0.570652
0.570652
0.570652
0.570652
0.570652
0.570652
0.570652
0.570652
0.570652
0.570652
0.570652
0.570652
0.570652
0.570652
0.570652
0.570652
0.570653
0.570653
0.570653
0.570653
0.570653
0.570653
0.570653
0.570653
0.570653
0.570653
0.570653
0.570653
0.570653
0.570653
0.570653
0.570653
0.570653
0.570653
0.570653
0.570654
0.570654
0.570654
0.570654
0.570654
0.570654
0.570654
0.570654
0.570654
0.570654
0.570654
0.570654
0.570654
0.570655
0.570655
0.570655
0.570655
0.570655
0.570655
0.570655
0.570655
0.570655
0.570655
0.570655
0.570655
0.570656
0.570656
0.570656
0.570656
0.570656
0.570656
0.570656
0.570656
0.570657
0.570657
0.570657
0.570657
0.570657
0.570657
0.570657
0.570657
0.570657
0.570658
0.570658
0.570658
0.570658
0.570658
0.570658
0.570658
0.570658
0.570659
0.570659
0.570659
0.570659
0.570659
0.570659
0.570659
0.57066
0.57066
0.57066
0.57066
0.57066
0.57066
0.570661
0.570661
0.570661
0.570661
0.570661
0.570661
0.570661
0.570662
0.570662
0.570662
0.570662
0.570662
0.570662
0.570663
0.570663
0.570663
0.570663
0.570663
0.570663
0.570664
0.570664
0.570664
0.570664
0.570664
0.570665
0.570665
0.570665
0.570665
0.570665
0.570666
0.570666
0.570666
0.570666
0.570666
0.570667
0.570667
0.570667
0.570667
0.570667
0.570668
0.570668
0.570668
0.570668
0.570668
0.570669
0.570669
0.570669
0.570669
0.57067
0.57067
0.57067
0.57067
0.57067
0.570671
0.570671
0.570671
0.570671
0.570672
0.570672
0.570672
0.570672
0.570672
0.570673
0.570673
0.570673
0.570674
0.570674
0.570674
0.570674
0.570675
0.570675
0.570675
0.570675
0.570676
0.570676
0.570676
0.570676
0.570677
0.570677
0.570677
0.570678
0.570678
0.570678
0.570678
0.570679
0.570679
0.570679
0.570679
0.57068
0.57068
0.57068
0.57068
0.570681
0.570681
0.570681
0.570682
0.570682
0.570682
0.570682
0.570683
0.570683
0.570683
0.570684
0.570684
0.570684
0.570685
0.570685
0.570685
0.570685
0.570686
0.570686
0.570686
0.570687
0.570687
0.570687
0.570688
0.570688
0.570688
0.570689
0.570689
0.570689
0.570689
0.57069
0.57069
0.570691
0.570691
0.570691
0.570692
0.570692
0.570692
0.570693
0.570693
0.570693
0.570694
0.570694
0.570695
0.570695
0.570695
0.570695
0.570696
0.570696
0.570696
0.570697
0.570697
0.570698
0.570698
0.570698
0.570699
0.570699
0.570699
0.5707
0.5707
0.5707
0.570701
0.570701
0.570702
0.570702
0.570702
0.570703
0.570703
0.570704
0.570704
0.570704
0.570705
0.570705
0.570706
0.570706
0.570706
0.570707
0.570707
0.570708
0.570708
0.570708
0.570709
0.570709
0.57071
0.57071
0.57071
0.570711
0.570711
0.570712
0.570712
0.570712
0.570713
0.570713
0.570714
0.570714
0.570714
0.570715
0.570715
0.570716
0.570716
0.570716
0.570717
0.570717
0.570718
0.570718
0.570719
0.570719
0.57072
0.57072
0.57072
0.570721
0.570721
0.570722
0.570722
0.570722
0.570723
0.570724
0.570724
0.570725
0.570725
0.570725
0.570726
0.570726
0.570727
0.570727
0.570728
0.570728
0.570729
0.570729
0.570729
0.57073
0.57073
0.570731
0.570732
0.570732
0.570732
0.570733
0.570733
0.570734
0.570734
0.570735
0.570735
0.570736
0.570737
0.570737
0.570737
0.570738
0.570738
0.570739
0.570739
0.57074
0.57074
0.570741
0.570742
0.570742
0.570742
0.570743
0.570743
0.570744
0.570744
0.570745
0.570745
0.570746
0.570747
0.570747
0.570747
0.570748
0.570749
0.570749
0.570749
0.57075
0.570751
0.570751
0.570752
0.570752
0.570753
0.570753
0.570754
0.570755
0.570755
0.570755
0.570756
0.570757
0.570757
0.570757
0.570758
0.570759
0.570759
0.57076
0.57076
0.570761
0.570762
0.570762
0.570763
0.570763
0.570764
0.570764
0.570765
0.570766
0.570766
0.570766
0.570767
0.570768
0.570769
0.570769
0.570769
0.57077
0.570771
0.570772
0.570772
0.570772
0.570773
0.570774
0.570775
0.570775
0.570775
0.570776
0.570777
0.570778
0.570778
0.570778
0.570779
0.57078
0.570781
0.570781
0.570781
0.570782
0.570783
0.570784
0.570784
0.570784
0.570785
0.570786
0.570787
0.570787
0.570788
0.570788
0.570789
0.57079
0.57079
0.570791
0.570792
0.570792
0.570793
0.570793
0.570794
0.570795
0.570796
0.570796
0.570796
0.570797
0.570798
0.570799
0.5708
0.5708
0.5708
0.570801
0.570802
0.570803
0.570803
0.570804
0.570805
0.570805
0.570806
0.570806
0.570807
0.570808
0.570809
0.57081
0.57081
0.57081
0.570811
0.570812
0.570813
0.570813
0.570814
0.570815
0.570816
0.570816
0.570816
0.570817
0.570818
0.570819
0.57082
0.57082
0.570821
0.570822
0.570823
0.570823
0.570823
0.570824
0.570825
0.570826
0.570827
0.570827
0.570828
0.570829
0.57083
0.570831
0.570831
0.570832
0.570832
0.570833
0.570834
0.570834
0.570835
0.570836
0.570837
0.570838
0.570838
0.570839
0.57084
0.570841
0.570842
0.570842
0.570843
0.570843
0.570844
0.570845
0.570845
0.570846
0.570847
0.570848
0.570849
0.570849
0.57085
0.570851
0.570852
0.570853
0.570853
0.570854
0.570855
0.570856
0.570857
0.570857
0.570858
0.570859
0.57086
0.570861
0.570861
0.570862
0.570863
0.570864
0.570865
0.570865
0.570866
0.570867
0.570868
0.570869
0.570869
0.57087
0.570871
0.570872
0.570873
0.570873
0.570874
0.570875
0.570876
0.570877
0.570877
0.570878
0.570879
0.57088
0.570881
0.570881
0.570882
0.570883
0.570884
0.570885
0.570885
0.570886
0.570887
0.570888
0.570889
0.570889
0.57089
0.570891
0.570892
0.570893
0.570893
0.570894
0.570895
0.570897
0.570898
0.570898
0.570899
0.5709
0.570901
0.570902
0.570902
0.570903
0.570904
0.570905
0.570906
0.570906
0.570907
0.570908
0.570909
0.570911
0.570911
0.570912
0.570913
0.570914
0.570915
0.570915
0.570916
0.570917
0.570918
0.570919
0.570919
0.570921
0.570922
0.570923
0.570924
0.570924
0.570925
0.570926
0.570927
0.570928
0.570928
0.57093
0.570931
0.570932
0.570933
0.570933
0.570934
0.570935
0.570936
0.570937
0.570937
0.570939
0.57094
0.570941
0.570942
0.570942
0.570943
0.570944
0.570946
0.570947
0.570947
0.570948
0.570949
0.57095
0.570952
0.570952
0.570953
0.570954
0.570955
0.570956
0.570956
0.570958
0.570959
0.57096
0.570961
0.570961
0.570962
0.570964
0.570965
0.570966
0.570966
0.570967
0.570968
0.57097
0.570971
0.570971
0.570972
0.570973
0.570975
0.570976
0.570976
0.570977
0.570978
0.57098
0.570981
0.570981
0.570982
0.570983
0.570985
0.570986
0.570986
0.570987
0.570988
0.57099
0.570991
0.570991
0.570992
0.570993
0.570995
0.570996
0.570996
0.570997
0.570998
0.571
0.571001
0.571001
0.571002
0.571004
0.571005
0.571006
0.571006
0.571007
0.571009
0.57101
0.571011
0.571011
0.571013
0.571014
0.571015
0.571017
0.571017
0.571018
0.571019
0.57102
0.571022
0.571022
0.571023
0.571024
0.571026
0.571027
0.571027
0.571028
0.57103
0.571031
0.571032
0.571032
0.571034
0.571035
0.571037
0.571038
0.571038
0.571039
0.571041
0.571042
0.571043
0.571043
0.571045
0.571046
0.571047
0.571049
0.571049
0.57105
0.571052
0.571053
0.571054
0.571054
0.571056
0.571057
0.571059
0.57106
0.57106
0.571061
0.571063
0.571064
0.571066
0.571066
0.571067
0.571068
0.57107
0.571071
0.571071
0.571073
0.571074
0.571075
0.571077
0.571077
0.571078
0.57108
0.571081
0.571083
0.571083
0.571084
0.571086
0.571087
0.571088
0.571088
0.57109
0.571091
0.571093
0.571094
0.571094
0.571096
0.571097
0.571099
0.5711
0.5711
0.571102
0.571103
0.571104
0.571106
0.571106
0.571107
0.571109
0.57111
0.571112
0.571112
0.571113
0.571115
0.571116
0.571118
0.571118
0.571119
0.571121
0.571122
0.571124
0.571124
0.571125
0.571127
0.571128
0.57113
0.57113
0.571131
0.571133
0.571134
0.571136
0.571136
0.571138
0.571139
0.571141
0.571142
0.571142
0.571144
0.571145
0.571147
0.571148
0.571148
0.57115
0.571152
0.571153
0.571155
0.571155
0.571156
0.571158
0.571159
0.571161
0.571161
0.571163
0.571164
0.571166
0.571167
0.571167
0.571169
0.57117
0.571172
0.571174
0.571174
0.571175
0.571177
0.571178
0.57118
0.57118
0.571182
0.571183
0.571185
0.571186
0.571186
0.571188
0.57119
0.571191
0.571193
0.571193
0.571195
0.571196
0.571198
0.571199
0.571199
0.571201
0.571203
0.571204
0.571206
0.571206
0.571208
0.571209
0.571211
0.571213
0.571213
0.571214
0.571216
0.571218
0.571219
0.571219
0.571221
0.571223
0.571224
0.571226
0.571226
0.571228
0.571229
0.571231
0.571233
0.571233
0.571234
0.571236
0.571238
0.57124
0.57124
0.571241
0.571243
0.571245
0.571246
0.571246
0.571248
0.57125
0.571252
0.571253
0.571253
0.571255
0.571257
0.571259
0.57126
0.57126
0.571262
0.571264
0.571266
0.571267
0.571267
0.571269
0.571271
0.571273
0.571274
0.571274
0.571276
0.571278
0.57128
0.571281
0.571281
0.571283
0.571285
0.571287
0.571288
0.571288
0.57129
0.571292
0.571294
0.571296
0.571296
0.571297
0.571299
0.571301
0.571303
0.571303
0.571305
0.571306
0.571308
0.57131
0.57131
0.571312
0.571314
0.571315
0.571317
0.571317
0.571319
0.571321
0.571323
0.571325
0.571325
0.571326
0.571328
0.57133
0.571332
0.571332
0.571334
0.571336
0.571338
0.571339
0.571339
0.571341
0.571343
0.571345
0.571347
0.571347
0.571349
0.571351
0.571353
0.571354
0.571354
0.571356
0.571358
0.57136
0.571362
0.571362
0.571364
0.571366
0.571368
0.57137
0.57137
0.571371
0.571373
0.571375
0.571377
0.571377
0.571379
0.571381
0.571383
0.571385
0.571385
0.571387
0.571389
0.571391
0.571393
0.571393
0.571395
0.571397
0.571398
0.5714
0.5714
0.571402
0.571404
0.571406
0.571408
0.571408
0.57141
0.571412
0.571414
0.571416
0.571416
0.571418
0.57142
0.571422
0.571424
0.571424
0.571426
0.571428
0.57143
0.571432
0.571432
0.571434
0.571436
0.571438
0.57144
0.57144
0.571442
0.571444
0.571446
0.571448
0.571448
0.57145
0.571452
0.571454
0.571456
0.571456
0.571458
0.57146
0.571462
0.571464
0.571464
0.571467
0.571469
0.571471
0.571473
0.571473
0.571475
0.571477
0.571479
0.571481
0.571481
0.571483
0.571485
0.571487
0.571489
0.571489
0.571491
0.571493
0.571495
0.571498
0.571498
0.5715
0.571502
0.571504
0.571506
0.571506
0.571508
0.57151
0.571512
0.571514
0.571514
0.571516
0.571519
0.571521
0.571523
0.571523
0.571525
0.571527
0.571529
0.571531
0.571531
0.571534
0.571536
0.571538
0.57154
0.57154
0.571542
0.571544
0.571547
0.571549
0.571549
0.571551
0.571553
0.571555
0.571557
0.571557
0.57156
0.571562
0.571564
0.571566
0.571566
0.571568
0.571571
0.571573
0.571575
0.571575
0.571577
0.571579
0.571582
0.571584
0.571584
0.571586
0.571588
0.57159
0.571593
0.571593
0.571595
0.571597
0.571599
0.571602
0.571602
0.571604
0.571606
0.571608
0.57161
0.57161
0.571613
0.571615
0.571617
0.57162
0.57162
0.571622
0.571624
0.571626
0.571629
0.571629
0.571631
0.571633
0.571636
0.571638
0.571638
0.57164
0.571642
0.571645
0.571647
0.571647
0.571649
0.571652
0.571654
0.571656
0.571656
0.571659
0.571661
0.571663
0.571666
0.571666
0.571668
0.57167
0.571673
0.571675
0.571675
0.571677
0.57168
0.571682
0.571684
0.571684
0.571687
0.571689
0.571691
0.571694
0.571694
0.571696
0.571698
0.571701
0.571703
0.571703
0.571705
0.571708
0.57171
0.571713
0.571713
0.571715
0.571717
0.57172
0.571722
0.571722
0.571725
0.571727
0.57173
0.571732
0.571732
0.571734
0.571737
0.571739
0.571742
0.571742
0.571744
0.571747
0.571749
0.571751
0.571751
0.571754
0.571756
0.571759
0.571761
0.571761
0.571764
0.571766
0.571769
0.571771
0.571771
0.571774
0.571776
0.571778
0.571781
0.571781
0.571783
0.571786
0.571788
0.571791
0.571791
0.571793
0.571796
0.571798
0.571801
0.571801
0.571803
0.571806
0.571808
0.571811
0.571811
0.571813
0.571816
0.571818
0.571821
0.571821
0.571824
0.571826
0.571829
0.571831
0.571831
0.571834
0.571836
0.571839
0.571841
0.571841
0.571844
0.571847
0.571849
0.571852
0.571852
0.571854
0.571857
0.57186
0.571862
0.571862
0.571865
0.571867
0.57187
0.571872
0.571872
0.571875
0.571878
0.57188
0.571883
0.571883
0.571886
0.571888
0.571891
0.571893
0.571893
0.571896
0.571899
0.571901
0.571904
0.571904
0.571907
0.571909
0.571912
0.571914
0.571914
0.571917
0.57192
0.571922
0.571925
0.571925
0.571928
0.57193
0.571933
0.571936
0.571936
0.571939
0.571941
0.571944
0.571947
0.571947
0.571949
0.571952
0.571955
0.571957
0.571957
0.57196
0.571963
0.571966
0.571968
0.571968
0.571971
0.571974
0.571977
0.571979
0.571979
0.571982
0.571985
0.571987
0.57199
0.57199
0.571993
0.571996
0.571998
0.572001
0.572001
0.572004
0.572007
0.57201
0.572012
0.572012
0.572015
0.572018
0.572021
0.572023
0.572023
0.572026
0.572029
0.572032
0.572035
0.572035
0.572037
0.57204
0.572043
0.572046
0.572046
0.572049
0.572052
0.572054
0.572057
0.572057
0.57206
0.572063
0.572066
0.572069
0.572069
0.572072
0.572074
0.572077
0.57208
0.57208
0.572083
0.572086
0.572089
0.572092
0.572092
0.572094
0.572097
0.5721
0.572103
0.572103
0.572106
0.572109
0.572112
0.572115
0.572115
0.572118
0.572121
0.572123
0.572126
0.572126
0.572129
0.572132
0.572135
0.572138
0.572138
0.572141
0.572144
0.572147
0.57215
0.57215
0.572153
0.572156
0.572159
0.572162
0.572162
0.572165
0.572168
0.572171
0.572174
0.572174
0.572177
0.57218
0.572183
0.572186
0.572186
0.572189
0.572192
0.572195
0.572198
0.572198
0.572201
0.572204
0.572207
0.57221
0.57221
0.572213
0.572216
0.572219
0.572222
0.572222
0.572225
0.572228
0.572231
0.572234
0.572234
0.572237
0.57224
0.572243
0.572246
0.572246
0.572249
0.572252
0.572255
0.572259
0.572259
0.572262
0.572265
0.572268
0.572271
0.572271
0.572274
0.572277
0.57228
0.572283
0.572283
0.572287
0.57229
0.572293
0.572296
0.572296
0.572299
0.572302
0.572305
0.572308
0.572308
0.572312
0.572315
0.572318
0.572321
0.572321
0.572324
0.572327
0.57233
0.572334
0.572334
0.572337
0.57234
0.572343
0.572346
0.572346
0.57235
0.572353
0.572356
0.572359
0.572359
0.572362
0.572366
0.572369
0.572372
0.572372
0.572375
0.572379
0.572382
0.572385
0.572385
0.572388
0.572392
0.572395
0.572398
0.572398
0.572401
0.572405
0.572408
0.572411
0.572411
0.572414
0.572418
0.572421
0.572424
0.572424
0.572427
0.572431
0.572434
0.572437
0.572437
0.572441
0.572444
0.572447
0.572451
0.572451
0.572454
0.572457
0.57246
0.572464
0.572464
0.572467
0.57247
0.572474
0.572477
0.572477
0.572481
0.572484
0.572487
0.572491
0.572491
0.572494
0.572497
0.572501
0.572504
0.572504
0.572508
0.572511
0.572514
0.572518
0.572518
0.572521
0.572525
0.572528
0.572531
0.572531
0.572535
0.572538
0.572542
0.572545
0.572545
0.572548
0.572552
0.572555
0.572559
0.572559
0.572562
0.572566
0.572569
0.572573
0.572573
0.572576
0.572579
0.572583
0.572586
0.572586
0.57259
0.572593
0.572597
0.5726
0.5726
0.572604
0.572607
0.572611
0.572614
0.572614
0.572618
0.572621
0.572625
0.572629
0.572629
0.572632
0.572636
0.572639
0.572643
0.572643
0.572646
0.57265
0.572653
0.572657
0.572657
0.57266
0.572664
0.572668
0.572671
0.572671
0.572675
0.572678
0.572682
0.572685
0.572685
0.572689
0.572693
0.572696
0.5727
0.5727
0.572703
0.572707
0.572711
0.572714
0.572714
0.572718
0.572722
0.572725
0.572729
0.572729
0.572733
0.572736
0.57274
0.572744
0.572744
0.572747
0.572751
0.572755
0.572758
0.572758
0.572762
0.572766
0.572769
0.572773
0.572773
0.572777
0.57278
0.572784
0.572788
0.572788
0.572791
0.572795
0.572799
0.572803
0.572803
0.572806
0.57281
0.572814
0.572818
0.572818
0.572821
0.572825
0.572829
0.572833
0.572833
0.572836
0.57284
0.572844
0.572848
0.572848
0.572852
0.572855
0.572859
0.572863
0.572863
0.572867
0.572871
0.572874
0.572878
0.572878
0.572882
0.572886
0.57289
0.572894
0.572894
0.572897
0.572901
0.572905
0.572909
0.572909
0.572913
0.572917
0.57292
0.572924
0.572924
0.572928
0.572932
0.572936
0.57294
0.57294
0.572944
0.572948
0.572952
0.572955
0.572955
0.572959
0.572963
0.572967
0.572971
0.572971
0.572975
0.572979
0.572983
0.572987
0.572987
0.572991
0.572995
0.572999
0.573003
0.573003
0.573007
0.573011
0.573015
0.573019
0.573019
0.573023
0.573027
0.573031
0.573035
0.573035
0.573039
0.573043
0.573047
0.573051
0.573051
0.573055
0.573059
0.573063
0.573067
0.573067
0.573071
0.573075
0.573079
0.573083
0.573083
0.573087
0.573091
0.573095
0.573099
0.573099
0.573103
0.573107
0.573111
0.573116
0.573116
0.57312
0.573124
0.573128
0.573132
0.573132
0.573136
0.57314
0.573144
0.573148
0.573148
0.573152
0.573157
0.573161
0.573165
0.573165
0.573169
0.573173
0.573177
0.573182
0.573182
0.573186
0.57319
0.573194
0.573198
0.573198
0.573202
0.573207
0.573211
0.573215
0.573215
0.573219
0.573224
0.573228
0.573232
0.573232
0.573236
0.57324
0.573245
0.573249
0.573249
0.573253
0.573257
0.573262
0.573266
0.573266
0.57327
0.573274
0.573279
0.573283
0.573283
0.573287
0.573292
0.573296
0.5733
0.5733
0.573304
0.573309
0.573313
0.573317
0.573317
0.573322
0.573326
0.57333
0.573335
0.573335
0.573339
0.573343
0.573348
0.573352
0.573352
0.573357
0.573361
0.573365
0.57337
0.57337
0.573374
0.573378
0.573383
0.573387
0.573387
0.573392
0.573396
0.5734
0.573405
0.573405
0.573409
0.573414
0.573418
0.573423
0.573423
0.573427
0.573431
0.573436
0.57344
0.57344
0.573445
0.573449
0.573454
0.573458
0.573458
0.573463
0.573467
0.573472
0.573476
0.573476
0.573481
0.573485
0.57349
0.573494
0.573494
0.573499
0.573503
0.573508
0.573512
0.573512
0.573517
0.573522
0.573526
0.573531
0.573531
0.573535
0.57354
0.573544
0.573549
0.573549
0.573554
0.573558
0.573563
0.573567
0.573567
0.573572
0.573577
0.573581
0.573586
0.573586
0.57359
0.573595
0.5736
0.573604
0.573604
0.573609
0.573614
0.573618
0.573623
0.573623
0.573628
0.573632
0.573637
0.573642
0.573642
0.573646
0.573651
0.573656
0.573661
0.573661
0.573665
0.57367
0.573675
0.573679
0.573679
0.573684
0.573689
0.573694
0.573698
0.573698
0.573703
0.573708
0.573713
0.573717
0.573717
0.573722
0.573727
0.573732
0.573737
0.573737
0.573741
0.573746
0.573751
0.573756
0.573756
0.573761
0.573766
0.57377
0.573775
0.573775
0.57378
0.573785
0.57379
0.573795
0.573795
0.573799
0.573804
0.573809
0.573814
0.573814
0.573819
0.573824
0.573829
0.573834
0.573834
0.573839
0.573843
0.573848
0.573853
0.573853
0.573858
0.573863
0.573868
0.573873
0.573873
0.573878
0.573883
0.573888
0.573893
0.573893
0.573898
0.573903
0.573908
0.573913
0.573913
0.573918
0.573923
0.573928
0.573933
0.573933
0.573938
0.573943
0.573948
0.573953
0.573953
0.573958
0.573963
0.573968
0.573973
0.573973
0.573978
0.573983
0.573988
0.573994
0.573994
0.573999
0.574004
0.574009
0.574014
0.574014
0.574019
0.574024
0.574029
0.574034
0.574034
0.574039
0.574045
0.57405
0.574055
0.574055
0.57406
0.574065
0.57407
0.574076
0.574076
0.574081
0.574086
0.574091
0.574096
0.574096
0.574102
0.574107
0.574112
0.574117
0.574117
0.574122
0.574128
0.574133
0.574138
0.574138
0.574143
0.574149
0.574154
0.574159
0.574159
0.574164
0.57417
0.574175
0.57418
0.57418
0.574186
0.574191
0.574196
0.574201
0.574201
0.574207
0.574212
0.574217
0.574223
0.574223
0.574228
0.574234
0.574239
0.574244
0.574244
0.57425
0.574255
0.57426
0.574266
0.574266
0.574271
0.574277
0.574282
0.574287
0.574287
0.574293
0.574298
0.574304
0.574309
0.574309
0.574315
0.57432
0.574325
0.574331
0.574331
0.574336
0.574342
0.574347
0.574353
0.574353
0.574358
0.574364
0.574369
0.574375
0.574375
0.57438
0.574386
0.574391
0.574397
0.574397
0.574402
0.574408
0.574414
0.574419
0.574419
0.574425
0.57443
0.574436
0.574441
0.574441
0.574447
0.574453
0.574458
0.574464
0.574464
0.574469
0.574475
0.574481
0.574486
0.574486
0.574492
0.574498
0.574503
0.574509
0.574509
0.574515
0.57452
0.574526
0.574532
0.574532
0.574537
0.574543
0.574549
0.574554
0.574554
0.57456
0.574566
0.574572
0.574577
0.574577
0.574583
0.574589
0.574595
0.5746
0.5746
0.574606
0.574612
0.574618
0.574623
0.574623
0.574629
0.574635
0.574641
0.574647
0.574647
0.574652
0.574658
0.574664
0.57467
0.57467
0.574676
0.574682
0.574687
0.574693
0.574693
0.574699
0.574705
0.574711
0.574717
0.574717
0.574723
0.574729
0.574735
0.57474
0.57474
0.574746
0.574752
0.574758
0.574764
0.574764
0.57477
0.574776
0.574782
0.574788
0.574788
0.574794
0.5748
0.574806
0.574812
0.574812
0.574818
0.574824
0.57483
0.574836
0.574836
0.574842
0.574848
0.574854
0.57486
0.57486
0.574866
0.574872
0.574878
0.574884
0.574884
0.574891
0.574897
0.574903
0.574909
0.574909
0.574915
0.574921
0.574927
0.574933
0.574933
0.574939
0.574946
0.574952
0.574958
0.574958
0.574964
0.57497
0.574976
0.574983
0.574983
0.574989
0.574995
0.575001
0.575007
0.575007
0.575014
0.57502
0.575026
0.575032
0.575032
0.575039
0.575045
0.575051
0.575057
0.575057
0.575064
0.57507
0.575076
0.575083
0.575083
0.575089
0.575095
0.575101
0.575108
0.575108
0.575114
0.575121
0.575127
0.575133
0.575133
0.57514
0.575146
0.575152
0.575159
0.575159
0.575165
0.575171
0.575178
0.575184
0.575184
0.575191
0.575197
0.575204
0.57521
0.57521
0.575216
0.575223
0.575229
0.575236
0.575236
0.575242
0.575249
0.575255
0.575262
0.575262
0.575268
0.575275
0.575281
0.575288
0.575288
0.575294
0.575301
0.575308
0.575314
0.575314
0.575321
0.575327
0.575334
0.57534
0.57534
0.575347
0.575354
0.57536
0.575367
0.575367
0.575373
0.57538
0.575387
0.575393
0.575393
0.5754
0.575407
0.575413
0.57542
0.57542
0.575427
0.575433
0.57544
0.575447
0.575447
0.575453
0.57546
0.575467
0.575474
0.575474
0.57548
0.575487
0.575494
0.575501
0.575501
0.575507
0.575514
0.575521
0.575528
0.575528
0.575535
0.575541
0.575548
0.575555
0.575555
0.575562
0.575569
0.575576
0.575582
0.575582
0.575589
0.575596
0.575603
0.57561
0.57561
0.575617
0.575624
0.575631
0.575638
0.575638
0.575644
0.575651
0.575658
0.575665
0.575665
0.575672
0.575679
0.575686
0.575693
0.575693
0.5757
0.575707
0.575714
0.575721
0.575721
0.575728
0.575735
0.575742
0.575749
0.575749
0.575756
0.575763
0.57577
0.575778
0.575778
0.575785
0.575792
0.575799
0.575806
0.575806
0.575813
0.57582
0.575827
0.575834
0.575834
0.575842
0.575849
0.575856
0.575863
0.575863
0.57587
0.575877
0.575885
0.575892
0.575892
0.575899
0.575906
0.575913
0.575921
0.575921
0.575928
0.575935
0.575942
0.57595
0.57595
0.575957
0.575964
0.575972
0.575979
0.575979
0.575986
0.575993
0.576001
0.576008
0.576008
0.576015
0.576023
0.57603
0.576038
0.576038
0.576045
0.576052
0.57606
0.576067
0.576067
0.576074
0.576082
0.576089
0.576097
0.576097
0.576104
0.576112
0.576119
0.576127
0.576127
0.576134
0.576141
0.576149
0.576156
0.576156
0.576164
0.576171
0.576179
0.576187
0.576187
0.576194
0.576202
0.576209
0.576217
0.576217
0.576224
0.576232
0.57624
0.576247
0.576247
0.576255
0.576262
0.57627
0.576278
0.576278
0.576285
0.576293
0.576301
0.576308
0.576308
0.576316
0.576324
0.576331
0.576339
0.576339
0.576347
0.576354
0.576362
0.57637
0.57637
0.576378
0.576385
0.576393
0.576401
0.576401
0.576409
0.576417
0.576424
0.576432
0.576432
0.57644
0.576448
0.576456
0.576463
0.576463
0.576471
0.576479
0.576487
0.576495
0.576495
0.576503
0.576511
0.576519
0.576526
0.576526
0.576534
0.576542
0.57655
0.576558
0.576558
0.576566
0.576574
0.576582
0.57659
0.57659
0.576598
0.576606
0.576614
0.576622
0.576622
0.57663
0.576638
0.576646
0.576654
0.576654
0.576662
0.57667
0.576679
0.576687
0.576687
0.576695
0.576703
0.576711
0.576719
0.576719
0.576727
0.576735
0.576744
0.576752
0.576752
0.57676
0.576768
0.576776
0.576785
0.576785
0.576793
0.576801
0.576809
0.576817
0.576817
0.576826
0.576834
0.576842
0.57685
0.57685
0.576859
0.576867
0.576875
0.576884
0.576884
0.576892
0.5769
0.576909
0.576917
0.576917
0.576925
0.576934
0.576942
0.576951
0.576951
0.576959
0.576967
0.576976
0.576984
0.576984
0.576993
0.577001
0.57701
0.577018
0.577018
0.577026
0.577035
0.577043
0.577052
0.577052
0.57706
0.577069
0.577078
0.577086
0.577086
0.577095
0.577103
0.577112
0.57712
0.57712
0.577129
0.577138
0.577146
0.577155
0.577155
0.577163
0.577172
0.577181
0.577189
0.577189
0.577198
0.577207
0.577215
0.577224
0.577224
0.577233
0.577242
0.57725
0.577259
0.577259
0.577268
0.577277
0.577285
0.577294
0.577294
0.577303
0.577312
0.57732
0.577329
0.577329
0.577338
0.577347
0.577356
0.577365
0.577365
0.577374
0.577382
0.577391
0.5774
0.5774
0.577409
0.577418
0.577427
0.577436
0.577436
0.577445
0.577454
0.577463
0.577472
0.577472
0.577481
0.57749
0.577499
0.577508
0.577508
0.577517
0.577526
0.577535
0.577544
0.577544
0.577553
0.577562
0.577571
0.57758
0.57758
0.577589
0.577599
0.577608
0.577617
0.577617
0.577626
0.577635
0.577644
0.577654
0.577654
0.577663
0.577672
0.577681
0.57769
0.57769
0.5777
0.577709
0.577718
0.577727
0.577727
0.577737
0.577746
0.577755
0.577765
0.577765
0.577774
0.577783
0.577793
0.577802
0.577802
0.577811
0.577821
0.57783
0.57784
0.57784
0.577849
0.577858
0.577868
0.577877
0.577877
0.577887
0.577896
0.577906
0.577915
0.577915
0.577925
0.577934
0.577944
0.577953
0.577953
0.577963
0.577972
0.577982
0.577991
0.577991
0.578001
0.578011
0.57802
0.57803
0.57803
0.578039
0.578049
0.578059
0.578068
0.578068
0.578078
0.578088
0.578097
0.578107
0.578107
0.578117
0.578127
0.578136
0.578146
0.578146
0.578156
0.578166
0.578175
0.578185
0.578185
0.578195
0.578205
0.578215
0.578224
0.578224
0.578234
0.578244
0.578254
0.578264
0.578264
0.578274
0.578284
0.578294
0.578304
0.578304
0.578313
0.578323
0.578333
0.578343
0.578343
0.578353
0.578363
0.578373
0.578383
0.578383
0.578393
0.578403
0.578414
0.578424
0.578424
0.578434
0.578444
0.578454
0.578464
0.578464
0.578474
0.578484
0.578494
0.578504
0.578504
0.578515
0.578525
0.578535
0.578545
0.578545
0.578555
0.578566
0.578576
0.578586
0.578586
0.578596
0.578607
0.578617
0.578627
0.578627
0.578638
0.578648
0.578658
0.578669
0.578669
0.578679
0.578689
0.5787
0.57871
0.57871
0.578721
0.578731
0.578741
0.578752
0.578752
0.578762
0.578773
0.578783
0.578794
0.578794
0.578804
0.578815
0.578825
0.578836
0.578836
0.578846
0.578857
0.578867
0.578878
0.578878
0.578889
0.578899
0.57891
0.578921
0.578921
0.578931
0.578942
0.578953
0.578963
0.578963
0.578974
0.578985
0.578995
0.579006
0.579006
0.579017
0.579028
0.579038
0.579049
0.579049
0.57906
0.579071
0.579082
0.579092
0.579092
0.579103
0.579114
0.579125
0.579136
0.579136
0.579147
0.579158
0.579169
0.57918
0.57918
0.57919
0.579201
0.579212
0.579223
0.579223
0.579234
0.579245
0.579256
0.579267
0.579267
0.579278
0.57929
0.579301
0.579312
0.579312
0.579323
0.579334
0.579345
0.579356
0.579356
0.579367
0.579378
0.57939
0.579401
0.579401
0.579412
0.579423
0.579434
0.579446
0.579446
0.579457
0.579468
0.57948
0.579491
0.579491
0.579502
0.579513
0.579525
0.579536
0.579536
0.579547
0.579559
0.57957
0.579582
0.579582
0.579593
0.579604
0.579616
0.579627
0.579627
0.579639
0.57965
0.579662
0.579673
0.579673
0.579685
0.579696
0.579708
0.579719
0.579719
0.579731
0.579743
0.579754
0.579766
0.579766
0.579777
0.579789
0.579801
0.579812
0.579812
0.579824
0.579836
0.579847
0.579859
0.579859
0.579871
0.579883
0.579894
0.579906
0.579906
0.579918
0.57993
0.579942
0.579953
0.579953
0.579965
0.579977
0.579989
0.580001
0.580001
0.580013
0.580025
0.580037
0.580049
0.580049
0.580061
0.580073
0.580084
0.580096
0.580096
0.580108
0.58012
0.580133
0.580145
0.580145
0.580157
0.580169
0.580181
0.580193
0.580193
0.580205
0.580217
0.580229
0.580242
0.580242
0.580254
0.580266
0.580278
0.58029
0.58029
0.580303
0.580315
0.580327
0.580339
0.580339
0.580352
0.580364
0.580376
0.580389
0.580389
0.580401
0.580413
0.580426
0.580438
0.580438
0.58045
0.580463
0.580475
0.580488
0.580488
0.5805
0.580513
0.580525
0.580538
0.580538
0.58055
0.580563
0.580575
0.580588
0.580588
0.5806
0.580613
0.580626
0.580638
0.580638
0.580651
0.580664
0.580676
0.580689
0.580689
0.580702
0.580714
0.580727
0.58074
0.58074
0.580753
0.580765
0.580778
0.580791
0.580791
0.580804
0.580817
0.580829
0.580842
0.580842
0.580855
0.580868
0.580881
0.580894
0.580894
0.580907
0.58092
0.580933
0.580946
0.580946
0.580959
0.580972
0.580985
0.580998
0.580998
0.581011
0.581024
0.581037
0.58105
0.58105
0.581063
0.581077
0.58109
0.581103
0.581103
0.581116
0.581129
0.581142
0.581156
0.581156
0.581169
0.581182
0.581196
0.581209
0.581209
0.581222
0.581235
0.581249
0.581262
0.581262
0.581275
0.581289
0.581302
0.581316
0.581316
0.581329
0.581343
0.581356
0.58137
0.58137
0.581383
0.581397
0.58141
0.581424
0.581424
0.581437
0.581451
0.581464
0.581478
0.581478
0.581492
0.581505
0.581519
0.581533
0.581533
0.581546
0.58156
0.581574
0.581587
0.581587
0.581601
0.581615
0.581629
0.581643
0.581643
0.581656
0.58167
0.581684
0.581698
0.581698
0.581712
0.581726
0.58174
0.581754
0.581754
0.581768
0.581781
0.581795
0.581809
0.581809
0.581823
0.581838
0.581852
0.581866
0.581866
0.58188
0.581894
0.581908
0.581922
0.581922
0.581936
0.58195
0.581965
0.581979
0.581979
0.581993
0.582007
0.582021
0.582036
0.582036
0.58205
0.582064
0.582079
0.582093
0.582093
0.582107
0.582122
0.582136
0.58215
0.58215
0.582165
0.582179
0.582194
0.582208
0.582208
0.582223
0.582237
0.582252
0.582266
0.582266
0.582281
0.582295
0.58231
0.582325
0.582325
0.582339
0.582354
0.582369
0.582383
0.582383
0.582398
0.582413
0.582427
0.582442
0.582442
0.582457
0.582472
0.582486
0.582501
0.582501
0.582516
0.582531
0.582546
0.582561
0.582561
0.582576
0.582591
0.582606
0.582621
0.582621
0.582635
0.58265
0.582665
0.582681
0.582681
0.582696
0.582711
0.582726
0.582741
0.582741
0.582756
0.582771
0.582786
0.582801
0.582801
0.582817
0.582832
0.582847
0.582862
0.582862
0.582878
0.582893
0.582908
0.582923
0.582923
0.582939
0.582954
0.582969
0.582985
0.582985
0.583
0.583016
0.583031
0.583047
0.583047
0.583062
0.583078
0.583093
0.583109
0.583109
0.583124
0.58314
0.583155
0.583171
0.583171
0.583187
0.583202
0.583218
0.583234
0.583234
0.583249
0.583265
0.583281
0.583297
0.583297
0.583312
0.583328
0.583344
0.58336
0.58336
0.583376
0.583392
0.583407
0.583423
0.583423
0.583439
0.583455
0.583471
0.583487
0.583487
0.583503
0.583519
0.583535
0.583551
0.583551
0.583567
0.583584
0.5836
0.583616
0.583616
0.583632
0.583648
0.583664
0.583681
0.583681
0.583697
0.583713
0.583729
0.583746
0.583746
0.583762
0.583778
0.583795
0.583811
0.583811
0.583827
0.583844
0.58386
0.583877
0.583877
0.583893
0.58391
0.583926
0.583943
0.583943
0.583959
0.583976
0.583992
0.584009
0.584009
0.584026
0.584042
0.584059
0.584076
0.584076
0.584092
0.584109
0.584126
0.584143
0.584143
0.584159
0.584176
0.584193
0.58421
0.58421
0.584227
0.584244
0.584261
0.584277
0.584277
0.584294
0.584311
0.584328
0.584345
0.584345
0.584362
0.584379
0.584397
0.584414
0.584414
0.584431
0.584448
0.584465
0.584482
0.584482
0.584499
0.584517
0.584534
0.584551
0.584551
0.584568
0.584586
0.584603
0.58462
0.58462
0.584638
0.584655
0.584673
0.58469
0.58469
0.584707
0.584725
0.584742
0.58476
0.58476
0.584777
0.584795
0.584813
0.58483
0.58483
0.584848
0.584865
0.584883
0.584901
0.584901
0.584918
0.584936
0.584954
0.584972
0.584972
0.584989
0.585007
0.585025