<?xml version="1.0"?>
<VTKFile type="UnstructuredGrid" version="0.1" byte_order="LittleEndian">
<UnstructuredGrid>
<Piece NumberOfPoints="5000" NumberOfCells="4000">
<PointData Scalars="Reaction 0">
<DataArray type="Float32" Name="Reaction 0" format="ascii">
0.576201
0.576201
0.576201
0.576201
0.576201
0.576201
0.576201
0.576201
0.576201
0.576201
0.576201
0.576201
0.576201
0.576201
0.576201
0.576201
0.576201
0.576202
0.576202
0.576202
0.576202
0.576202
0.576202
0.576202
0.576202
0.576202
0.576202
0.576202
0.576202
0.576202
0.576202
0.576203
0.576203
0.576203
0.576203
0.576203
0.576203
0.576203
0.576203
0.576203
0.576203
0.576204
0.576204
0.576204
0.576204
0.576204
0.576204
0.576204
0.576205
0.576205
0.576205
0.576205
0.576205
0.576205
0.576206
0.576206
0.576206
0.576206
0.576206
0.576206
0.576206
0.576207
0.576207
0.576207
0.576207
0.576207
0.576208
0.576208
0.576208
0.576208
0.576208
0.576209
0.576209
0.576209
0.576209
0.576209
0.57621
0.57621
0.57621
0.576211
0.576211
0.576211
0.576211
0.576211
0.576212
0.576212
0.576212
0.576212
0.576213
0.576213
0.576213
0.576213
0.576214
0.576214
0.576214
0.576214
0.576215
0.576215
0.576215
0.576216
0.576216
0.576216
0.576217
0.576217
0.576217
0.576217
0.576218
0.576218
0.576219
0.576219
0.576219
0.576219
0.57622
0.57622
0.576221
0.576221
0.576221
0.576221
0.576222
0.576222
0.576222
0.576223
0.576223
0.576224
0.576224
0.576224
0.576225
0.576225
0.576226
0.576226
0.576226
0.576226
0.576227
0.576227
0.576228
0.576228
0.576228
0.576229
0.576229
0.57623
0.57623
0.576231
0.576231
0.576232
0.576232
0.576232
0.576233
0.576233
0.576234
0.576234
0.576234
0.576235
0.576235
0.576236
0.576237
0.576237
0.576237
0.576238
0.576238
0.576239
0.576239
0.576239
0.57624
0.576241
0.576241
0.576241
0.576242
0.576242
0.576243
0.576244
0.576244
0.576244
0.576245
0.576246
0.576246
0.576246
0.576247
0.576248
0.576248
0.576249
0.576249
0.57625
0.57625
0.576251
0.576252
0.576252
0.576252
0.576253
0.576254
0.576254
0.576254
0.576255
0.576256
0.576256
0.576257
0.576257
0.576258
0.576259
0.576259
0.57626
0.57626
0.576261
0.576262
0.576262
0.576263
0.576263
0.576264
0.576265
0.576265
0.576266
0.576266
0.576267
0.576268
0.576268
0.576269
0.576269
0.57627
0.576271
0.576272
0.576273
0.576273
0.576273
0.576274
0.576275
0.576276
0.576276
0.576277
0.576277
0.576278
0.576279
0.576279
0.57628
0.576281
0.576282
0.576283
0.576283
0.576284
0.576284
0.576285
0.576286
0.576286
0.576287
0.576288
0.576289
0.57629
0.57629
0.576291
0.576292
0.576293
0.576293
0.576293
0.576294
0.576295
0.576296
0.576297
0.576297
0.576298
0.576299
0.5763
0.576301
0.576301
0.576302
0.576303
0.576304
0.576305
0.576305
0.576306
0.576307
0.576308
0.576309
0.576309
0.57631
0.576311
0.576312
0.576313
0.576313
0.576314
0.576315
0.576316
0.576317
0.576317
0.576318
0.576319
0.57632
0.576321
0.576321
0.576322
0.576323
0.576324
0.576326
0.576326
0.576327
0.576328
0.576329
0.57633
0.57633
0.576331
0.576332
0.576333
0.576334
0.576334
0.576335
0.576337
0.576338
0.576339
0.576339
0.57634
0.576341
0.576342
0.576343
0.576343
0.576345
0.576346
0.576347
0.576348
0.576348
0.576349
0.57635
0.576352
0.576353
0.576353
0.576354
0.576355
0.576356
0.576358
0.576358
0.576359
0.57636
0.576361
0.576362
0.576362
0.576364
0.576365
0.576366
0.576367
0.576367
0.576369
0.57637
0.576371
0.576372
0.576372
0.576374
0.576375
0.576376
0.576377
0.576377
0.576379
0.57638
0.576381
0.576383
0.576383
0.576384
0.576385
0.576387
0.576388
0.576388
0.576389
0.576391
0.576392
0.576393
0.576393
0.576395
0.576396
0.576397
0.576399
0.576399
0.5764
0.576401
0.576403
0.576404
0.576404
0.576406
0.576407
0.576408
0.57641
0.57641
0.576411
0.576413
0.576414
0.576415
0.576415
0.576417
0.576418
0.57642
0.576421
0.576421
0.576422
0.576424
0.576425
0.576427
0.576427
0.576428
0.57643
0.576431
0.576433
0.576433
0.576434
0.576436
0.576437
0.576439
0.576439
0.57644
0.576442
0.576443
0.576445
0.576445
0.576446
0.576448
0.576449
0.576451
0.576451
0.576452
0.576454
0.576455
0.576457
0.576457
0.576459
0.57646
0.576462
0.576463
0.576463
0.576465
0.576466
0.576468
0.57647
0.57647
0.576471
0.576473
0.576474
0.576476
0.576476
0.576478
0.576479
0.576481
0.576483
0.576483
0.576484
0.576486
0.576487
0.576489
0.576489
0.576491
0.576492
0.576494
0.576496
0.576496
0.576497
0.576499
0.576501
0.576502
0.576502
0.576504
0.576506
0.576508
0.576509
0.576509
0.576511
0.576513
0.576514
0.576516
0.576516
0.576518
0.57652
0.576521
0.576523
0.576523
0.576525
0.576527
0.576528
0.57653
0.57653
0.576532
0.576534
0.576536
0.576537
0.576537
0.576539
0.576541
0.576543
0.576545
0.576545
0.576546
0.576548
0.57655
0.576552
0.576552
0.576554
0.576555
0.576557
0.576559
0.576559
0.576561
0.576563
0.576565
0.576567
0.576567
0.576568
0.57657
0.576572
0.576574
0.576574
0.576576
0.576578
0.57658
0.576582
0.576582
0.576584
0.576585
0.576587
0.576589
0.576589
0.576591
0.576593
0.576595
0.576597
0.576597
0.576599
0.576601
0.576603
0.576605
0.576605
0.576607
0.576609
0.576611
0.576613
0.576613
0.576615
0.576617
0.576619
0.576621
0.576621
0.576623
0.576625
0.576627
0.576629
0.576629
0.576631
0.576633
0.576635
0.576637
0.576637
0.576639
0.576641
0.576643
0.576645
0.576645
0.576647
0.576649
0.576652
0.576654
0.576654
0.576656
0.576658
0.57666
0.576662
0.576662
0.576664
0.576666
0.576668
0.576671
0.576671
0.576673
0.576675
0.576677
0.576679
0.576679
0.576681
0.576683
0.576686
0.576688
0.576688
0.57669
0.576692
0.576694
0.576696
0.576696
0.576699
0.576701
0.576703
0.576705
0.576705
0.576707
0.57671
0.576712
0.576714
0.576714
0.576716
0.576719
0.576721
0.576723
0.576723
0.576725
0.576728
0.57673
0.576732
0.576732
0.576734
0.576737
0.576739
0.576741
0.576741
0.576744
0.576746
0.576748
0.57675
0.57675
0.576753
0.576755
0.576757
0.57676
0.57676
0.576762
0.576764
0.576767
0.576769
0.576769
0.576771
0.576774
0.576776
0.576779
0.576779
0.576781
0.576783
0.576786
0.576788
0.576788
0.57679
0.576793
0.576795
0.576798
0.576798
0.5768
0.576803
0.576805
0.576807
0.576807
0.57681
0.576812
0.576815
0.576817
0.576817
0.57682
0.576822
0.576825
0.576827
0.576827
0.57683
0.576832
0.576835
0.576837
0.576837
0.57684
0.576842
0.576845
0.576847
0.576847
0.57685
0.576852
0.576855
0.576857
0.576857
0.57686
0.576862
0.576865
0.576867
0.576867
0.57687
0.576873
0.576875
0.576878
0.576878
0.57688
0.576883
0.576886
0.576888
0.576888
0.576891
0.576893
0.576896
0.576899
0.576899
0.576901
0.576904
0.576907
0.576909
0.576909
0.576912
0.576914
0.576917
0.57692
0.57692
0.576922
0.576925
0.576928
0.57693
0.57693
0.576933
0.576936
0.576939
0.576941
0.576941
0.576944
0.576947
0.576949
0.576952
0.576952
0.576955
0.576958
0.57696
0.576963
0.576963
0.576966
0.576969
0.576971
0.576974
0.576974
0.576977
0.57698
0.576982
0.576985
0.576985
0.576988
0.576991
0.576994
0.576996
0.576996
0.576999
0.577002
0.577005
0.577008
0.577008
0.577011
0.577013
0.577016
0.577019
0.577019
0.577022
0.577025
0.577028
0.577031
0.577031
0.577034
0.577037
0.577039
0.577042
0.577042
0.577045
0.577048
0.577051
0.577054
0.577054
0.577057
0.57706
0.577063
0.577066
0.577066
0.577069
0.577072
0.577075
0.577078
0.577078
0.577081
0.577084
0.577087
0.57709
0.57709
0.577093
0.577096
0.577099
0.577102
0.577102
0.577105
0.577108
0.577111
0.577114
0.577114
0.577117
0.57712
0.577123
0.577126
0.577126
0.577129
0.577132
0.577135
0.577138
0.577138
0.577141
0.577144
0.577147
0.57715
0.57715
0.577153
0.577157
0.57716
0.577163
0.577163
0.577166
0.577169
0.577172
0.577175
0.577175
0.577178
0.577182
0.577185
0.577188
0.577188
0.577191
0.577194
0.577197
0.577201
0.577201
0.577204
0.577207
0.57721
0.577214
0.577214
0.577217
0.57722
0.577223
0.577226
0.577226
0.57723
0.577233
0.577236
0.577239
0.577239
0.577243
0.577246
0.577249
0.577253
0.577253
0.577256
0.577259
0.577262
0.577266
0.577266
0.577269
0.577272
0.577276
0.577279
0.577279
0.577282
0.577286
0.577289
0.577292
0.577292
0.577296
0.577299
0.577302
0.577306
0.577306
0.577309
0.577312
0.577316
0.577319
0.577319
0.577323
0.577326
0.577329
0.577333
0.577333
0.577336
0.57734
0.577343
0.577347
0.577347
0.57735
0.577353
0.577357
0.57736
0.57736
0.577364
0.577367
0.577371
0.577374
0.577374
0.577378
0.577381
0.577385
0.577388
0.577388
0.577392
0.577395
0.577399
0.577402
0.577402
0.577406
0.577409
0.577413
0.577416
0.577416
0.57742
0.577424
0.577427
0.577431
0.577431
0.577434
0.577438
0.577442
0.577445
0.577445
0.577449
0.577452
0.577456
0.57746
0.57746
0.577463
0.577467
0.577471
0.577474
0.577474
0.577478
0.577481
0.577485
0.577489
0.577489
0.577492
0.577496
0.5775
0.577504
0.577504
0.577507
0.577511
0.577515
0.577518
0.577518
0.577522
0.577526
0.577529
0.577533
0.577533
0.577537
0.577541
0.577544
0.577548
0.577548
0.577552
0.577556
0.57756
0.577563
0.577563
0.577567
0.577571
0.577575
0.577578
0.577578
0.577582
0.577586
0.57759
0.577594
0.577594
0.577598
0.577601
0.577605
0.577609
0.577609
0.577613
0.577617
0.577621
0.577625
0.577625
0.577629
0.577633
0.577636
0.57764
0.57764
0.577644
0.577648
0.577652
0.577656
0.577656
0.57766
0.577664
0.577668
0.577672
0.577672
0.577676
0.57768
0.577684
0.577688
0.577688
0.577692
0.577696
0.5777
0.577704
0.577704
0.577708
0.577712
0.577716
0.57772
0.57772
0.577724
0.577728
0.577732
0.577736
0.577736
0.57774
0.577744
0.577748
0.577752
0.577752
0.577756
0.57776
0.577764
0.577768
0.577768
0.577773
0.577777
0.577781
0.577785
0.577785
0.577789
0.577793
0.577797
0.577802
0.577802
0.577806
0.57781
0.577814
0.577818
0.577818
0.577822
0.577827
0.577831
0.577835
0.577835
0.577839
0.577843
0.577848
0.577852
0.577852
0.577856
0.57786
0.577865
0.577869
0.577869
0.577873
0.577877
0.577882
0.577886
0.577886
0.57789
0.577894
0.577899
0.577903
0.577903
0.577907
0.577912
0.577916
0.57792
0.57792
0.577925
0.577929
0.577933
0.577938
0.577938
0.577942
0.577946
0.577951
0.577955
0.577955
0.577959
0.577964
0.577968
0.577973
0.577973
0.577977
0.577981
0.577986
0.57799
0.57799
0.577995
0.577999
0.578004
0.578008
0.578008
0.578013
0.578017
0.578022
0.578026
0.578026
0.57803
0.578035
0.578039
0.578044
0.578044
0.578049
0.578053
0.578058
0.578062
0.578062
0.578067
0.578071
0.578076
0.57808
0.57808
0.578085
0.578089
0.578094
0.578099
0.578099
0.578103
0.578108
0.578112
0.578117
0.578117
0.578122
0.578126
0.578131
0.578135
0.578135
0.57814
0.578145
0.578149
0.578154
0.578154
0.578159
0.578163
0.578168
0.578173
0.578173
0.578177
0.578182
0.578187
0.578191
0.578191
0.578196
0.578201
0.578206
0.57821
0.57821
0.578215
0.57822
0.578225
0.578229
0.578229
0.578234
0.578239
0.578244
0.578249
0.578249
0.578253
0.578258
0.578263
0.578268
0.578268
0.578273
0.578278
0.578282
0.578287
0.578287
0.578292
0.578297
0.578302
0.578307
0.578307
0.578312
0.578316
0.578321
0.578326
0.578326
0.578331
0.578336
0.578341
0.578346
0.578346
0.578351
0.578356
0.578361
0.578366
0.578366
0.578371
0.578376
0.57838
0.578385
0.578385
0.57839
0.578395
0.5784
0.578405
0.578405
0.57841
0.578415
0.57842
0.578425
0.578425
0.578431
0.578436
0.578441
0.578446
0.578446
0.578451
0.578456
0.578461
0.578466
0.578466
0.578471
0.578476
0.578481
0.578487
0.578487
0.578492
0.578497
0.578502
0.578507
0.578507
0.578512
0.578517
0.578523
0.578528
0.578528
0.578533
0.578538
0.578543
0.578548
0.578548
0.578554
0.578559
0.578564
0.578569
0.578569
0.578575
0.57858
0.578585
0.57859
0.57859
0.578596
0.578601
0.578606
0.578611
0.578611
0.578617
0.578622
0.578627
0.578633
0.578633
0.578638
0.578643
0.578649
0.578654
0.578654
0.578659
0.578665
0.57867
0.578675
0.578675
0.578681
0.578686
0.578691
0.578697
0.578697
0.578702
0.578708
0.578713
0.578719
0.578719
0.578724
0.578729
0.578735
0.57874
0.57874
0.578746
0.578751
0.578757
0.578762
0.578762
0.578768
0.578773
0.578779
0.578784
0.578784
0.57879
0.578795
0.578801
0.578806
0.578806
0.578812
0.578817
0.578823
0.578828
0.578828
0.578834
0.57884
0.578845
0.578851
0.578851
0.578856
0.578862
0.578868
0.578873
0.578873
0.578879
0.578885
0.57889
0.578896
0.578896
0.578902
0.578907
0.578913
0.578919
0.578919
0.578924
0.57893
0.578936
0.578941
0.578941
0.578947
0.578953
0.578959
0.578964
0.578964
0.57897
0.578976
0.578982
0.578987
0.578987
0.578993
0.578999
0.579005
0.579011
0.579011
0.579016
0.579022
0.579028
0.579034
0.579034
0.57904
0.579046
0.579051
0.579057
0.579057
0.579063
0.579069
0.579075
0.579081
0.579081
0.579087
0.579093
0.579098
0.579104
0.579104
0.57911
0.579116
0.579122
0.579128
0.579128
0.579134
0.57914
0.579146
0.579152
0.579152
0.579158
0.579164
0.57917
0.579176
0.579176
0.579182
0.579188
0.579194
0.5792
0.5792
0.579206
0.579212
0.579218
0.579225
0.579225
0.579231
0.579237
0.579243
0.579249
0.579249
0.579255
0.579261
0.579267
0.579273
0.579273
0.57928
0.579286
0.579292
0.579298
0.579298
0.579304
0.57931
0.579317
0.579323
0.579323
0.579329
0.579335
0.579341
0.579348
0.579348
0.579354
0.57936
0.579366
0.579373
0.579373
0.579379
0.579385
0.579392
0.579398
0.579398
0.579404
0.57941
0.579417
0.579423
0.579423
0.579429
0.579436
0.579442
0.579448
0.579448
0.579455
0.579461
0.579468
0.579474
0.579474
0.57948
0.579487
0.579493
0.5795
0.5795
0.579506
0.579512
0.579519
0.579525
0.579525
0.579532
0.579538
0.579545
0.579551
0.579551
0.579558
0.579564
0.579571
0.579577
0.579577
0.579584
0.57959
0.579597
0.579603
0.579603
0.57961
0.579616
0.579623
0.57963
0.57963
0.579636
0.579643
0.579649
0.579656
0.579656
0.579663
0.579669
0.579676
0.579683
0.579683
0.579689
0.579696
0.579703
0.579709
0.579709
0.579716
0.579723
0.579729
0.579736
0.579736
0.579743
0.579749
0.579756
0.579763
0.579763
0.57977
0.579776
0.579783
0.57979
0.57979
0.579797
0.579803
0.57981
0.579817
0.579817
0.579824
0.579831
0.579838
0.579844
0.579844
0.579851
0.579858
0.579865
0.579872
0.579872
0.579879
0.579886
0.579893
0.5799
0.5799
0.579906
0.579913
0.57992
0.579927
0.579927
0.579934
0.579941
0.579948
0.579955
0.579955
0.579962
0.579969
0.579976
0.579983
0.579983
0.57999
0.579997
0.580004
0.580011
0.580011
0.580018
0.580025
0.580032
0.580039
0.580039
0.580047
0.580054
0.580061
0.580068
0.580068
0.580075
0.580082
0.580089
0.580096
0.580096
0.580104
0.580111
0.580118
0.580125
0.580125
0.580132
0.580139
0.580147
0.580154
0.580154
0.580161
0.580168
0.580176
0.580183
0.580183
0.58019
0.580197
0.580205
0.580212
0.580212
0.580219
0.580226
0.580234
0.580241
0.580241
0.580248
0.580256
0.580263
0.58027
0.58027
0.580278
0.580285
0.580293
0.5803
0.5803
0.580307
0.580315
0.580322
0.58033
0.58033
0.580337
0.580345
0.580352
0.580359
0.580359
0.580367
0.580374
0.580382
0.580389
0.580389
0.580397
0.580404
0.580412
0.580419
0.580419
0.580427
0.580435
0.580442
0.58045
0.58045
0.580457
0.580465
0.580472
0.58048
0.58048
0.580488
0.580495
0.580503
0.58051
0.58051
0.580518
0.580526
0.580533
0.580541
0.580541
0.580549
0.580557
0.580564
0.580572
0.580572
0.58058
0.580587
0.580595
0.580603
0.580603
0.580611
0.580618
0.580626
0.580634
0.580634
0.580642
0.58065
0.580657
0.580665
0.580665
0.580673
0.580681
0.580689
0.580697
0.580697
0.580704
0.580712
0.58072
0.580728
0.580728
0.580736
0.580744
0.580752
0.58076
0.58076
0.580768
0.580776
0.580784
0.580792
0.580792
0.5808
0.580808
0.580816
0.580824
0.580824
0.580832
0.58084
0.580848
0.580856
0.580856
0.580864
0.580872
0.58088
0.580888
0.580888
0.580896
0.580904
0.580912
0.58092
0.58092
0.580929
0.580937
0.580945
0.580953
0.580953
0.580961
0.580969
0.580978
0.580986
0.580986
0.580994
0.581002
0.58101
0.581019
0.581019
0.581027
0.581035
0.581043
0.581052
0.581052
0.58106
0.581068
0.581077
0.581085
0.581085
0.581093
0.581102
0.58111
0.581118
0.581118
0.581127
0.581135
0.581143
0.581152
0.581152
0.58116
0.581169
0.581177
0.581185
0.581185
0.581194
0.581202
0.581211
0.581219
0.581219
0.581228
0.581236
0.581245
0.581253
0.581253
0.581262
0.58127
0.581279
0.581287
0.581287
0.581296
0.581304
0.581313
0.581322
0.581322
0.58133
0.581339
0.581347
0.581356
0.581356
0.581365
0.581373
0.581382
0.581391
0.581391
0.581399
0.581408
0.581417
0.581425
0.581425
0.581434
0.581443
0.581452
0.58146
0.58146
0.581469
0.581478
0.581487
0.581495
0.581495
0.581504
0.581513
0.581522
0.581531
0.581531
0.58154
0.581548
0.581557
0.581566
0.581566
0.581575
0.581584
0.581593
0.581602
0.581602
0.581611
0.58162
0.581629
0.581637
0.581637
0.581646
0.581655
0.581664
0.581673
0.581673
0.581682
0.581691
0.5817
0.581709
0.581709
0.581718
0.581728
0.581737
0.581746
0.581746
0.581755
0.581764
0.581773
0.581782
0.581782
0.581791
0.5818
0.581809
0.581819
0.581819
0.581828
0.581837
0.581846
0.581855
0.581855
0.581865
0.581874
0.581883
0.581892
0.581892
0.581902
0.581911
0.58192
0.581929
0.581929
0.581939
0.581948
0.581957
0.581967
0.581967
0.581976
0.581985
0.581995
0.582004
0.582004
0.582013
0.582023
0.582032
0.582042
0.582042
0.582051
0.58206
0.58207
0.582079
0.582079
0.582089
0.582098
0.582108
0.582117
0.582117
0.582127
0.582136
0.582146
0.582155
0.582155
0.582165
0.582175
0.582184
0.582194
0.582194
0.582203
0.582213
0.582222
0.582232
0.582232
0.582242
0.582251
0.582261
0.582271
0.582271
0.58228
0.58229
0.5823
0.582309
0.582309
0.582319
0.582329
0.582339
0.582348
0.582348
0.582358
0.582368
0.582378
0.582388
0.582388
0.582397
0.582407
0.582417
0.582427
0.582427
0.582437
0.582447
0.582457
0.582466
0.582466
0.582476
0.582486
0.582496
0.582506
0.582506
0.582516
0.582526
0.582536
0.582546
0.582546
0.582556
0.582566
0.582576
0.582586
0.582586
0.582596
0.582606
0.582616
0.582626
0.582626
0.582636
0.582646
0.582657
0.582667
0.582667
0.582677
0.582687
0.582697
0.582707
0.582707
0.582717
0.582728
0.582738
0.582748
0.582748
0.582758
0.582769
0.582779
0.582789
0.582789
0.582799
0.58281
0.58282
0.58283
0.58283
0.58284
0.582851
0.582861
0.582871
0.582871
0.582882
0.582892
0.582903
0.582913
0.582913
0.582923
0.582934
0.582944
0.582955
0.582955
0.582965
0.582976
0.582986
0.582997
0.582997
0.583007
0.583018
0.583028
0.583039
0.583039
0.583049
0.58306
0.58307
0.583081
0.583081
0.583092
0.583102
0.583113
0.583123
0.583123
0.583134
0.583145
0.583155
0.583166
0.583166
0.583177
0.583187
0.583198
0.583209
0.583209
0.58322
0.58323
0.583241
0.583252
0.583252
0.583263
0.583274
0.583284
0.583295
0.583295
0.583306
0.583317
0.583328
0.583339
0.583339
0.583349
0.58336
0.583371
0.583382
0.583382
0.583393
0.583404
0.583415
0.583426
0.583426
0.583437
0.583448
0.583459
0.58347
0.58347
0.583481
0.583492
0.583503
0.583514
0.583514
0.583525
0.583536
0.583547
0.583559
0.583559
0.58357
0.583581
0.583592
0.583603
0.583603
0.583614
0.583626
0.583637
0.583648
0.583648
0.583659
0.58367
0.583682
0.583693
0.583693
0.583704
0.583715
0.583727
0.583738
0.583738
0.583749
0.583761
0.583772
0.583784
0.583784
0.583795
0.583806
0.583818
0.583829
0.583829
0.583841
0.583852
0.583863
0.583875
0.583875
0.583886
0.583898
0.583909
0.583921
0.583921
0.583932
0.583944
0.583956
0.583967
0.583967
0.583979
0.58399
0.584002
0.584014
0.584014
0.584025
0.584037
0.584049
0.58406
0.58406
0.584072
0.584084
0.584095
0.584107
0.584107
0.584119
0.584131
0.584142
0.584154
0.584154
0.584166
0.584178
0.58419
0.584201
0.584201
0.584213
0.584225
0.584237
0.584249
0.584249
0.584261
0.584273
0.584284
0.584296
0.584296
0.584308
0.58432
0.584332
0.584344
0.584344
0.584356
0.584368
0.58438
0.584392
0.584392
0.584404
0.584417
0.584429
0.584441
0.584441
0.584453
0.584465
0.584477
0.584489
0.584489
0.584501
0.584514
0.584526
0.584538
0.584538
0.58455
0.584562
0.584575
0.584587
0.584587
0.584599
0.584611
0.584624
0.584636
0.584636
0.584648
0.584661
0.584673
0.584685
0.584685
0.584698
0.58471
0.584723
0.584735
0.584735
0.584748
0.58476
0.584772
0.584785
0.584785
0.584797
0.58481
0.584822
0.584835
0.584835
0.584847
0.58486
0.584873
0.584885
0.584885
0.584898
0.58491
0.584923
0.584936
0.584936
0.584948
0.584961
0.584974
0.584986
0.584986
0.584999
0.585012
0.585025
0.585037
0.585037
0.58505
0.585063
0.585076
0.585089
0.585089
0.585101
0.585114
0.585127
0.58514
0.58514
0.585153
0.585166
0.585179
0.585191
0.585191
0.585204
0.585217
0.58523
0.585243
0.585243
0.585256
0.585269
0.585282
0.585295
0.585295
0.585308
0.585322
0.585335
0.585348
0.585348
0.585361
0.585374
0.585387
0.5854
0.5854
0.585413
0.585427
0.58544
0.585453
0.585453
0.585466
0.585479
0.585493
0.585506
0.585506
0.585519
0.585533
0.585546
0.585559
0.585559
0.585573
0.585586
0.585599
0.585613
0.585613
0.585626
0.58564
0.585653
0.585666
0.585666
0.58568
0.585693
0.585707
0.58572
0.58572
0.585734
0.585747
0.585761
0.585774
0.585774
0.585788
0.585802
0.585815
0.585829
0.585829
0.585842
0.585856
0.58587
0.585883
0.585883
0.585897
0.585911
0.585925
0.585938
0.585938
0.585952
0.585966
0.58598
0.585994
0.585994
0.586007
0.586021
0.586035
0.586049
0.586049
0.586063
0.586077
0.586091
0.586104
0.586104
0.586118
0.586132
0.586146
0.58616
0.58616
0.586174
0.586188
0.586202
0.586216
0.586216
0.586231
0.586245
0.586259
0.586273
0.586273
0.586287
0.586301
0.586315
0.586329
0.586329
0.586344
0.586358
0.586372
0.586386
0.586386
0.5864
0.586415
0.586429
0.586443
0.586443
0.586458
0.586472
0.586486
0.586501
0.586501
0.586515
0.586529
0.586544
0.586558
0.586558
0.586573
0.586587
0.586602
0.586616
0.586616
0.586631
0.586645
0.58666
0.586674
0.586674
0.586689
0.586703
0.586718
0.586733
0.586733
0.586747
0.586762
0.586776
0.586791
0.586791
0.586806
0.586821
0.586835
0.58685
0.58685
0.586865
0.58688
0.586894
0.586909
0.586909
0.586924
0.586939
0.586954
0.586969
0.586969
0.586983
0.586998
0.587013
0.587028
0.587028
0.587043
0.587058
0.587073
0.587088
0.587088
0.587103
0.587118
0.587133
0.587148
0.587148
0.587163
0.587178
0.587193
0.587209
0.587209
0.587224
0.587239
0.587254
0.587269
0.587269
0.587285
0.5873
0.587315
0.58733
0.58733
0.587346
0.587361
0.587376
0.587391
0.587391
0.587407
0.587422
0.587438
0.587453
0.587453
0.587468
0.587484
0.587499
0.587515
0.587515
0.58753
0.587546
0.587561
0.587577
0.587577
0.587592
0.587608
0.587623
0.587639
0.587639
0.587655
0.58767
0.587686
0.587702
0.587702
0.587717
0.587733
0.587749
0.587764
0.587764
0.58778
0.587796
0.587812
0.587827
0.587827
0.587843
0.587859
0.587875
0.587891
0.587891
0.587907
0.587923
0.587939
0.587955
0.587955
0.58797
0.587986
0.588002
0.588018
0.588018
0.588035
0.588051
0.588067
0.588083
0.588083
0.588099
0.588115
0.588131
0.588147
0.588147
0.588163
0.588179
0.588196
0.588212
0.588212
0.588228
0.588244
0.588261
0.588277
0.588277
0.588293
0.58831
0.588326
0.588342
0.588342
0.588359
0.588375
0.588392
0.588408
0.588408
0.588424
0.588441
0.588457
0.588474
0.588474
0.58849
0.588507
0.588523
0.58854
0.58854
0.588557
0.588573
0.58859
0.588607
0.588607
0.588623
0.58864
0.588657
0.588673
0.588673
0.58869
0.588707
0.588724
0.58874
0.58874
0.588757
0.588774
0.588791
0.588808
0.588808
0.588825
0.588841
0.588858
0.588875
0.588875
0.588892
0.588909
0.588926
0.588943
0.588943
0.58896
0.588977
0.588994
0.589011
0.589011
0.589029
0.589046
0.589063
0.58908
0.58908
0.589097
0.589114
0.589132
0.589149
0.589149
0.589166
0.589183
0.589201
0.589218
0.589218
0.589235
0.589253
0.58927
0.589287
0.589287
0.589305
0.589322
0.58934
0.589357
0.589357
0.589375
0.589392
0.58941
0.589427
0.589427
0.589445
0.589462
0.58948
0.589497
0.589497
0.589515
0.589533
0.58955
0.589568
0.589568
0.589586
0.589603
0.589621
0.589639
0.589639
0.589657
0.589675
0.589692
0.58971
0.58971
0.589728
0.589746
0.589764
0.589782
0.589782
0.5898
0.589818
0.589836
0.589854
0.589854
0.589872
0.58989
0.589908
0.589926
0.589926
0.589944
0.589962
0.58998
0.589998
0.589998
0.590016
0.590035
0.590053
0.590071
0.590071
0.590089
0.590108
0.590126
0.590144
0.590144
0.590162
0.590181
0.590199
0.590218
0.590218
0.590236
0.590254
0.590273
0.590291
0.590291
0.59031
0.590328
0.590347
0.590365
0.590365
0.590384
0.590402
0.590421
0.59044
0.59044
0.590458
0.590477
0.590496
0.590514
0.590514
0.590533
0.590552
0.590571
0.590589
0.590589
0.590608
0.590627
0.590646
0.590665
0.590665
0.590684
0.590703
0.590721
0.59074
0.59074
0.590759
0.590778
0.590797
0.590816
0.590816
0.590835
0.590855
0.590874
0.590893
0.590893
0.590912
0.590931
0.59095
0.590969
0.590969
0.590989
0.591008
0.591027
0.591046
0.591046
0.591066
0.591085
0.591104
0.591124
0.591124
0.591143
0.591162
0.591182
0.591201
0.591201
0.591221
0.59124
0.59126
0.591279
0.591279
0.591299
0.591318
0.591338
0.591358
0.591358
0.591377
0.591397
0.591417
0.591436
0.591436
0.591456
0.591476
0.591495
0.591515
0.591515
0.591535
0.591555
0.591575
0.591595
0.591595
0.591614
0.591634
0.591654
0.591674
0.591674
0.591694
0.591714
0.591734
0.591754
0.591754
0.591774
0.591794
0.591814
0.591835
0.591835
0.591855
0.591875
0.591895
0.591915
0.591915
0.591935
0.591956
0.591976
0.591996
0.591996
0.592017
0.592037
0.592057
0.592078
0.592078
0.592098
0.592118
0.592139
0.592159
0.592159
0.59218
0.5922
0.592221
0.592241
0.592241
0.592262
0.592283
0.592303
0.592324
0.592324
0.592345
0.592365
0.592386
0.592407
0.592407
0.592427
0.592448
0.592469
0.59249
0.59249
0.592511
0.592532
0.592552
0.592573
0.592573
0.592594
0.592615
0.592636
0.592657
0.592657
0.592678
0.592699
0.59272
0.592741
0.592741
0.592762
0.592784
0.592805
0.592826
0.592826
0.592847
0.592868
0.59289
0.592911
0.592911
0.592932
0.592953
0.592975
0.592996
0.592996
0.593018
0.593039
0.59306
0.593082
0.593082
0.593103
0.593125
0.593146
0.593168
0.593168
0.593189
0.593211
0.593233
0.593254
0.593254
0.593276
0.593298
0.593319
0.593341
0.593341
0.593363
0.593385
0.593406
0.593428
0.593428
0.59345
0.593472
0.593494
0.593516
0.593516
0.593538
0.593559
0.593581
0.593603
0.593603
0.593626
0.593648
0.59367
0.593692
0.593692
0.593714
0.593736
0.593758
0.59378
0.59378
0.593803
0.593825
0.593847
0.593869
0.593869
0.593892
0.593914
0.593936
0.593959
0.593959
0.593981
0.594004
0.594026
0.594048
0.594048
0.594071
0.594094
0.594116
0.594139
0.594139
0.594161
0.594184
0.594206
0.594229
0.594229
0.594252
0.594275
0.594297
0.59432
0.59432
0.594343
0.594366
0.594388
0.594411
0.594411
0.594434
0.594457
0.59448
0.594503
0.594503
0.594526
0.594549
0.594572
0.594595
0.594595
0.594618
0.594641
0.594664
0.594688
0.594688
0.594711
0.594734
0.594757
0.59478
0.59478
0.594804
0.594827
0.59485
0.594874
0.594874
0.594897
0.59492
0.594944
0.594967
0.594967
0.594991
0.595014
0.595038
0.595061
0.595061
0.595085
0.595108
0.595132
0.595156
0.595156
0.595179
0.595203
0.595227
0.595251
0.595251
0.595274
0.595298
0.595322
0.595346
0.595346
0.59537
0.595394
0.595417
0.595441
0.595441
0.595465
0.595489
0.595513
0.595537
0.595537
0.595562
0.595586
0.59561
0.595634
0.595634
0.595658
0.595682
0.595707
0.595731
0.595731
0.595755
0.595779
0.595804
0.595828
0.595828
0.595852
0.595877
0.595901
0.595926
0.595926
0.59595
0.595975
0.595999
0.596024
0.596024
0.596048
0.596073
0.596098
0.596122
0.596122
0.596147
0.596172
0.596196
0.596221
0.596221
0.596246
0.596271
0.596296
0.596321
0.596321
0.596345
0.59637
0.596395
0.59642
0.59642
0.596445
0.59647
0.596495
0.59652
0.59652
0.596545
0.596571
0.596596
0.596621
0.596621
0.596646
0.596671
0.596697
0.596722
0.596722
0.596747
0.596773
0.596798
0.596823
0.596823
0.596849
0.596874
0.5969
0.596925
0.596925
0.596951
0.596976
0.597002
0.597028
0.597028
0.597053
0.597079
0.597105
0.59713
0.59713
0.597156
0.597182
0.597208
0.597233
0.597233
0.597259
0.597285
0.597311
0.597337
0.597337
0.597363
0.597389
0.597415
0.597441
0.597441
0.597467
0.597493
0.597519
0.597545
0.597545
0.597572
0.597598
0.597624
0.59765
0.59765
0.597677
0.597703
0.597729
0.597756
0.597756
0.597782
0.597808
0.597835
0.597861
0.597861
0.597888
0.597914
0.597941
0.597967
0.597967
0.597994
0.598021
0.598047
0.598074
0.598074
0.598101
0.598128
0.598154
0.598181
0.598181
0.598208
0.598235
0.598262
0.598289
0.598289
0.598316
0.598343
0.59837
0.598397
0.598397
0.598424
0.598451
0.598478
0.598505
0.598505
0.598532
0.598559
0.598587
0.598614
0.598614
0.598641
0.598669
0.598696
0.598723
0.598723
0.598751
0.598778
0.598806
0.598833
0.598833
0.598861
0.598888
0.598916
0.598943
0.598943
0.598971
0.598999
0.599026
0.599054
0.599054
0.599082
0.59911
0.599137
0.599165
0.599165
0.599193
0.599221
0.599249
0.599277
0.599277
0.599305
0.599333
0.599361
0.599389
0.599389
0.599417
0.599445
0.599473
0.599501
0.599501
0.59953
0.599558
0.599586
0.599614
0.599614
0.599643
0.599671
0.599699
0.599728
0.599728
0.599756
0.599785
0.599813
0.599842
0.599842
0.59987
0.599899
0.599927
0.599956
0.599956
0.599985
0.600013
0.600042
0.600071
0.600071
0.6001
0.600129
0.600157
0.600186
0.600186
0.600215
0.600244
0.600273
0.600302
0.600302
0.600331
0.60036
0.600389
0.600418
0.600418
0.600448
0.600477
0.600506
0.600535
0.600535
0.600564
0.600594
0.600623
0.600652
0.600652
0.600682
0.600711
0.600741
0.60077
0.60077
0.6008
0.600829
0.600859
0.600888
0.600888
0.600918
0.600948
0.600977
0.601007
0.601007
0.601037
0.601067
0.601096
0.601126
0.601126
0.601156
0.601186
0.601216
0.601246
0.601246
0.601276
0.601306
0.601336
0.601366
0.601366
0.601396
0.601426
0.601457
0.601487
0.601487
0.601517
0.601547
0.601578
0.601608
0.601608
0.601638
0.601669
0.601699
0.60173
0.60173
0.60176
0.60179
0.601821
0.601852
0.601852
0.601882
0.601913
0.601944
0.601974
0.601974
0.602005
0.602036
0.602067
0.602097
0.602097
0.602128
0.602159
0.60219
0.602221
0.602221
0.602252
0.602283
0.602314
0.602345
0.602345
0.602376
0.602407
0.602439
0.60247
0.60247
0.602501
0.602532
0.602564
0.602595
0.602595
0.602626
0.602658
0.602689
0.602721
0.602721
0.602752
0.602784
0.602815
0.602847
0.602847
0.602878
0.60291
0.602942
0.602973
0.602973
0.603005
0.603037
0.603069
0.6031
0.6031
0.603132
0.603164
0.603196
0.603228
0.603228
0.60326
0.603292
0.603324
0.603356
0.603356
0.603388
0.603421
0.603453
0.603485
0.603485
0.603517
0.60355
0.603582
0.603614
0.603614
0.603647
0.603679
0.603712
0.603744
0.603744
0.603777
0.603809
0.603842
0.603874
0.603874
0.603907
0.60394
0.603972
0.604005
0.604005
0.604038
0.604071
0.604103
0.604136
0.604136
0.604169
0.604202
0.604235
0.604268
0.604268
0.604301
0.604334
0.604367
0.604401
0.604401
0.604434
0.604467
0.6045
0.604533
0.604533
0.604567
0.6046
0.604633
0.604667
0.604667
0.6047
0.604734
0.604767
0.604801
0.604801
0.604834
0.604868
0.604902
0.604935
0.604935
0.604969
0.605003
0.605037
0.60507
0.60507
0.605104
0.605138
0.605172
0.605206
0.605206
0.60524
0.605274
0.605308
0.605342
0.605342
0.605376
0.60541
0.605444
0.605479
0.605479
0.605513
0.605547
0.605581
0.605616
0.605616
0.60565
0.605685
0.605719
0.605753
0.605753
0.605788
0.605823
0.605857
0.605892