<?xml version="1.0"?>
<VTKFile type="UnstructuredGrid" version="0.1" byte_order="LittleEndian">
<UnstructuredGrid>
<Piece NumberOfPoints="5000" NumberOfCells="4000">
<PointData Scalars="Reaction 0">
<DataArray type="Float32" Name="Reaction 0" format="ascii">
0.567596
0.567596
0.567596
0.567596
0.567596
0.567596
0.567596
0.567596
0.567596
0.567596
0.567596
0.567596
0.567596
0.567596
0.567596
0.567596
0.567596
0.567596
0.567596
0.567596
0.567596
0.567596
0.567596
0.567596
0.567596
0.567596
0.567596
0.567597
0.567597
0.567597
0.567597
0.567597
0.567597
0.567597
0.567597
0.567597
0.567597
0.567597
0.567597
0.567597
0.567597
0.567597
0.567597
0.567597
0.567597
0.567597
0.567597
0.567597
0.567597
0.567597
0.567597
0.567597
0.567597
0.567597
0.567597
0.567597
0.567597
0.567597
0.567597
0.567597
0.567597
0.567598
0.567598
0.567598
0.567598
0.567598
0.567598
0.567598
0.567598
0.567598
0.567598
0.567598
0.567598
0.567598
0.567598
0.567598
0.567598
0.567598
0.567598
0.567598
0.567598
0.567599
0.567599
0.567599
0.567599
0.567599
0.567599
0.567599
0.567599
0.567599
0.567599
0.567599
0.567599
0.567599
0.567599
0.567599
0.567599
0.5676
0.5676
0.5676
0.5676
0.5676
0.5676
0.5676
0.5676
0.5676
0.5676
0.5676
0.5676
0.5676
0.5676
0.567601
0.567601
0.567601
0.567601
0.567601
0.567601
0.567601
0.567601
0.567601
0.567601
0.567601
0.567601
0.567602
0.567602
0.567602
0.567602
0.567602
0.567602
0.567602
0.567602
0.567602
0.567602
0.567602
0.567603
0.567603
0.567603
0.567603
0.567603
0.567603
0.567603
0.567603
0.567603
0.567603
0.567604
0.567604
0.567604
0.567604
0.567604
0.567604
0.567604
0.567604
0.567604
0.567604
0.567605
0.567605
0.567605
0.567605
0.567605
0.567605
0.567605
0.567605
0.567605
0.567606
0.567606
0.567606
0.567606
0.567606
0.567606
0.567606
0.567606
0.567606
0.567607
0.567607
0.567607
0.567607
0.567607
0.567607
0.567607
0.567607
0.567607
0.567608
0.567608
0.567608
0.567608
0.567608
0.567608
0.567608
0.567609
0.567609
0.567609
0.567609
0.567609
0.567609
0.567609
0.567609
0.56761
0.56761
0.56761
0.56761
0.56761
0.56761
0.56761
0.567611
0.567611
0.567611
0.567611
0.567611
0.567611
0.567611
0.567611
0.567612
0.567612
0.567612
0.567612
0.567612
0.567612
0.567613
0.567613
0.567613
0.567613
0.567613
0.567613
0.567614
0.567614
0.567614
0.567614
0.567614
0.567614
0.567615
0.567615
0.567615
0.567615
0.567615
0.567615
0.567615
0.567616
0.567616
0.567616
0.567616
0.567616
0.567616
0.567617
0.567617
0.567617
0.567617
0.567617
0.567617
0.567618
0.567618
0.567618
0.567618
0.567618
0.567619
0.567619
0.567619
0.567619
0.567619
0.567619
0.56762
0.56762
0.56762
0.56762
0.56762
0.567621
0.567621
0.567621
0.567621
0.567621
0.567621
0.567621
0.567622
0.567622
0.567622
0.567622
0.567622
0.567623
0.567623
0.567623
0.567623
0.567623
0.567624
0.567624
0.567624
0.567624
0.567624
0.567625
0.567625
0.567625
0.567625
0.567625
0.567626
0.567626
0.567626
0.567626
0.567626
0.567627
0.567627
0.567627
0.567627
0.567627
0.567628
0.567628
0.567628
0.567628
0.567628
0.567629
0.567629
0.567629
0.56763
0.56763
0.56763
0.56763
0.56763
0.567631
0.567631
0.567631
0.567631
0.567631
0.567632
0.567632
0.567632
0.567632
0.567633
0.567633
0.567633
0.567633
0.567633
0.567634
0.567634
0.567634
0.567634
0.567635
0.567635
0.567635
0.567635
0.567635
0.567636
0.567636
0.567636
0.567636
0.567637
0.567637
0.567637
0.567638
0.567638
0.567638
0.567638
0.567638
0.567639
0.567639
0.567639
0.567639
0.56764
0.56764
0.56764
0.56764
0.567641
0.567641
0.567641
0.567641
0.567642
0.567642
0.567642
0.567642
0.567642
0.567643
0.567643
0.567643
0.567644
0.567644
0.567644
0.567644
0.567645
0.567645
0.567645
0.567645
0.567646
0.567646
0.567646
0.567646
0.567647
0.567647
0.567647
0.567648
0.567648
0.567648
0.567648
0.567649
0.567649
0.567649
0.567649
0.56765
0.56765
0.56765
0.56765
0.567651
0.567651
0.567651
0.567652
0.567652
0.567652
0.567652
0.567653
0.567653
0.567653
0.567654
0.567654
0.567654
0.567655
0.567655
0.567655
0.567655
0.567656
0.567656
0.567656
0.567656
0.567657
0.567657
0.567658
0.567658
0.567658
0.567658
0.567659
0.567659
0.567659
0.567659
0.56766
0.56766
0.567661
0.567661
0.567661
0.567661
0.567662
0.567662
0.567662
0.567662
0.567663
0.567663
0.567664
0.567664
0.567664
0.567664
0.567665
0.567665
0.567665
0.567666
0.567666
0.567666
0.567667
0.567667
0.567667
0.567667
0.567668
0.567668
0.567668
0.567669
0.567669
0.567669
0.56767
0.56767
0.56767
0.567671
0.567671
0.567671
0.567671
0.567672
0.567672
0.567673
0.567673
0.567673
0.567674
0.567674
0.567674
0.567675
0.567675
0.567675
0.567676
0.567676
0.567676
0.567676
0.567677
0.567677
0.567678
0.567678
0.567678
0.567679
0.567679
0.567679
0.56768
0.56768
0.56768
0.567681
0.567681
0.567682
0.567682
0.567682
0.567682
0.567683
0.567683
0.567683
0.567684
0.567684
0.567685
0.567685
0.567685
0.567686
0.567686
0.567686
0.567687
0.567687
0.567687
0.567688
0.567688
0.567689
0.567689
0.567689
0.56769
0.56769
0.567691
0.567691
0.567691
0.567691
0.567692
0.567692
0.567692
0.567693
0.567693
0.567694
0.567694
0.567694
0.567695
0.567695
0.567696
0.567696
0.567696
0.567697
0.567697
0.567698
0.567698
0.567698
0.567698
0.567699
0.567699
0.5677
0.5677
0.5677
0.567701
0.567701
0.567702
0.567702
0.567702
0.567703
0.567703
0.567704
0.567704
0.567704
0.567705
0.567705
0.567706
0.567706
0.567706
0.567707
0.567707
0.567708
0.567708
0.567708
0.567709
0.567709
0.56771
0.56771
0.56771
0.567711
0.567711
0.567712
0.567712
0.567712
0.567713
0.567713
0.567714
0.567714
0.567714
0.567715
0.567715
0.567716
0.567716
0.567716
0.567717
0.567717
0.567718
0.567718
0.567719
0.567719
0.56772
0.56772
0.56772
0.567721
0.567721
0.567722
0.567722
0.567722
0.567723
0.567723
0.567724
0.567724
0.567724
0.567725
0.567725
0.567726
0.567727
0.567727
0.567727
0.567728
0.567728
0.567729
0.567729
0.567729
0.56773
0.56773
0.567731
0.567731
0.567731
0.567732
0.567732
0.567733
0.567733
0.567734
0.567734
0.567735
0.567735
0.567735
0.567736
0.567736
0.567737
0.567738
0.567738
0.567738
0.567739
0.567739
0.56774
0.56774
0.56774
0.567741
0.567742
0.567742
0.567742
0.567743
0.567743
0.567744
0.567744
0.567744
0.567745
0.567746
0.567746
0.567747
0.567747
0.567747
0.567748
0.567749
0.567749
0.567749
0.56775
0.56775
0.567751
0.567751
0.567751
0.567752
0.567753
0.567753
0.567754
0.567754
0.567754
0.567755
0.567756
0.567756
0.567756
0.567757
0.567757
0.567758
0.567759
0.567759
0.567759
0.56776
0.567761
0.567761
0.567761
0.567762
0.567762
0.567763
0.567764
0.567764
0.567764
0.567765
0.567765
0.567766
0.567766
0.567767
0.567767
0.567768
0.567769
0.567769
0.567769
0.56777
0.56777
0.567771
0.567771
0.567772
0.567772
0.567773
0.567774
0.567774
0.567774
0.567775
0.567775
0.567776
0.567776
0.567777
0.567777
0.567778
0.567779
0.567779
0.567779
0.56778
0.567781
0.567781
0.567781
0.567782
0.567783
0.567783
0.567784
0.567784
0.567785
0.567785
0.567786
0.567787
0.567787
0.567787
0.567788
0.567789
0.567789
0.567789
0.56779
0.567791
0.567791
0.567792
0.567792
0.567793
0.567793
0.567794
0.567795
0.567795
0.567795
0.567796
0.567797
0.567797
0.567797
0.567798
0.567799
0.567799
0.5678
0.5678
0.567801
0.567801
0.567802
0.567803
0.567803
0.567803
0.567804
0.567805
0.567806
0.567806
0.567806
0.567807
0.567808
0.567808
0.567808
0.567809
0.56781
0.56781
0.567811
0.567811
0.567812
0.567813
0.567813
0.567814
0.567814
0.567815
0.567815
0.567816
0.567817
0.567817
0.567818
0.567818
0.567819
0.56782
0.56782
0.56782
0.567821
0.567822
0.567823
0.567823
0.567823
0.567824
0.567825
0.567825
0.567825
0.567826
0.567827
0.567828
0.567828
0.567828
0.567829
0.56783
0.567831
0.567831
0.567831
0.567832
0.567833
0.567834
0.567834
0.567834
0.567835
0.567836
0.567837
0.567837
0.567837
0.567838
0.567839
0.56784
0.56784
0.56784
0.567841
0.567842
0.567843
0.567843
0.567843
0.567844
0.567845
0.567846
0.567846
0.567846
0.567847
0.567848
0.567849
0.567849
0.567849
0.56785
0.567851
0.567852
0.567853
0.567853
0.567853
0.567854
0.567855
0.567856
0.567856
0.567856
0.567857
0.567858
0.567859
0.567859
0.56786
0.56786
0.567861
0.567862
0.567862
0.567863
0.567864
0.567864
0.567865
0.567865
0.567866
0.567867
0.567867
0.567868
0.567868
0.567869
0.56787
0.567871
0.567871
0.567871
0.567872
0.567873
0.567874
0.567875
0.567875
0.567876
0.567876
0.567877
0.567878
0.567878
0.567879
0.56788
0.56788
0.567881
0.567881
0.567882
0.567883
0.567884
0.567885
0.567885
0.567885
0.567886
0.567887
0.567888
0.567888
0.567889
0.56789
0.56789
0.567891
0.567891
0.567892
0.567893
0.567894
0.567895
0.567895
0.567895
0.567896
0.567897
0.567898
0.567898
0.567899
0.5679
0.5679
0.567901
0.567901
0.567902
0.567903
0.567904
0.567905
0.567905
0.567906
0.567906
0.567907
0.567908
0.567908
0.567909
0.56791
0.567911
0.567912
0.567912
0.567912
0.567913
0.567914
0.567915
0.567915
0.567916
0.567917
0.567918
0.567919
0.567919
0.567919
0.56792
0.567921
0.567922
0.567922
0.567923
0.567924
0.567925
0.567926
0.567926
0.567927
0.567927
0.567928
0.567929
0.567929
0.56793
0.567931
0.567932
0.567933
0.567933
0.567934
0.567935
0.567936
0.567936
0.567936
0.567937
0.567938
0.567939
0.56794
0.56794
0.567941
0.567942
0.567943
0.567944
0.567944
0.567945
0.567946
0.567946
0.567947
0.567947
0.567948
0.567949
0.56795
0.567951
0.567951
0.567952
0.567953
0.567954
0.567955
0.567955
0.567956
0.567957
0.567958
0.567958
0.567958
0.567959
0.56796
0.567961
0.567962
0.567962
0.567963
0.567964
0.567965
0.567966
0.567966
0.567967
0.567968
0.567969
0.56797
0.56797
0.567971
0.567972
0.567973
0.567974
0.567974
0.567975
0.567976
0.567977
0.567978
0.567978
0.567979
0.567979
0.56798
0.567981
0.567981
0.567982
0.567983
0.567984
0.567985
0.567985
0.567986
0.567987
0.567988
0.567989
0.567989
0.56799
0.567991
0.567992
0.567993
0.567993
0.567994
0.567995
0.567996
0.567997
0.567997
0.567998
0.567999
0.568
0.568001
0.568001
0.568002
0.568003
0.568004
0.568005
0.568005
0.568006
0.568007
0.568008
0.568009
0.568009
0.56801
0.568011
0.568012
0.568013
0.568013
0.568014
0.568015
0.568016
0.568017
0.568017
0.568018
0.568019
0.56802
0.568021
0.568021
0.568022
0.568023
0.568024
0.568025
0.568025
0.568026
0.568027
0.568028
0.56803
0.56803
0.568031
0.568032
0.568033
0.568034
0.568034
0.568035
0.568036
0.568037
0.568038
0.568038
0.568039
0.56804
0.568041
0.568042
0.568042
0.568043
0.568044
0.568045
0.568046
0.568046
0.568047
0.568048
0.568049
0.56805
0.56805
0.568052
0.568053
0.568054
0.568055
0.568055
0.568056
0.568057
0.568058
0.568059
0.568059
0.56806
0.568061
0.568062
0.568063
0.568063
0.568064
0.568065
0.568067
0.568068
0.568068
0.568069
0.56807
0.568071
0.568072
0.568072
0.568073
0.568074
0.568075
0.568076
0.568076
0.568078
0.568079
0.56808
0.568081
0.568081
0.568082
0.568083
0.568084
0.568085
0.568085
0.568086
0.568087
0.568089
0.56809
0.56809
0.568091
0.568092
0.568093
0.568094
0.568094
0.568095
0.568096
0.568098
0.568099
0.568099
0.5681
0.568101
0.568102
0.568103
0.568103
0.568104
0.568105
0.568107
0.568108
0.568108
0.568109
0.56811
0.568111
0.568112
0.568112
0.568113
0.568115
0.568116
0.568117
0.568117
0.568118
0.568119
0.56812
0.568121
0.568121
0.568123
0.568124
0.568125
0.568126
0.568126
0.568127
0.568128
0.56813
0.568131
0.568131
0.568132
0.568133
0.568134
0.568135
0.568135
0.568137
0.568138
0.568139
0.56814
0.56814
0.568141
0.568143
0.568144
0.568145
0.568145
0.568146
0.568147
0.568148
0.56815
0.56815
0.568151
0.568152
0.568153
0.568154
0.568154
0.568156
0.568157
0.568158
0.568159
0.568159
0.56816
0.568162
0.568163
0.568164
0.568164
0.568165
0.568166
0.568168
0.568169
0.568169
0.56817
0.568171
0.568173
0.568174
0.568174
0.568175
0.568176
0.568177
0.568179
0.568179
0.56818
0.568181
0.568182
0.568184
0.568184
0.568185
0.568186
0.568187
0.568189
0.568189
0.56819
0.568191
0.568192
0.568194
0.568194
0.568195
0.568196
0.568197
0.568198
0.568198
0.5682
0.568201
0.568202
0.568203
0.568203
0.568205
0.568206
0.568207
0.568209
0.568209
0.56821
0.568211
0.568212
0.568214
0.568214
0.568215
0.568216
0.568217
0.568219
0.568219
0.56822
0.568221
0.568223
0.568224
0.568224
0.568225
0.568226
0.568228
0.568229
0.568229
0.56823
0.568232
0.568233
0.568234
0.568234
0.568235
0.568237
0.568238
0.568239
0.568239
0.568241
0.568242
0.568243
0.568245
0.568245
0.568246
0.568247
0.568248
0.56825
0.56825
0.568251
0.568252
0.568254
0.568255
0.568255
0.568256
0.568258
0.568259
0.56826
0.56826
0.568262
0.568263
0.568264
0.568266
0.568266
0.568267
0.568268
0.56827
0.568271
0.568271
0.568272
0.568274
0.568275
0.568276
0.568276
0.568278
0.568279
0.568281
0.568282
0.568282
0.568283
0.568285
0.568286
0.568287
0.568287
0.568289
0.56829
0.568291
0.568293
0.568293
0.568294
0.568295
0.568297
0.568298
0.568298
0.5683
0.568301
0.568302
0.568304
0.568304
0.568305
0.568306
0.568308
0.568309
0.568309
0.568311
0.568312
0.568313
0.568315
0.568315
0.568316
0.568318
0.568319
0.56832
0.56832
0.568322
0.568323
0.568325
0.568326
0.568326
0.568327
0.568329
0.56833
0.568332
0.568332
0.568333
0.568334
0.568336
0.568337
0.568337
0.568339
0.56834
0.568342
0.568343
0.568343
0.568344
0.568346
0.568347
0.568349
0.568349
0.56835
0.568351
0.568353
0.568354
0.568354
0.568356
0.568357
0.568359
0.56836
0.56836
0.568362
0.568363
0.568364
0.568366
0.568366
0.568367
0.568369
0.56837
0.568372
0.568372
0.568373
0.568375
0.568376
0.568378
0.568378
0.568379
0.568381
0.568382
0.568383
0.568383
0.568385
0.568386
0.568388
0.568389
0.568389
0.568391
0.568392
0.568394
0.568395
0.568395
0.568397
0.568398
0.5684
0.568401
0.568401
0.568403
0.568404
0.568406
0.568407
0.568407
0.568409
0.56841
0.568412
0.568413
0.568413
0.568415
0.568416
0.568418
0.568419
0.568419
0.568421
0.568422
0.568424
0.568425
0.568425
0.568427
0.568428
0.56843
0.568431
0.568431
0.568433
0.568434
0.568436
0.568438
0.568438
0.568439
0.568441
0.568442
0.568444
0.568444
0.568445
0.568447
0.568448
0.56845
0.56845
0.568451
0.568453
0.568454
0.568456
0.568456
0.568458
0.568459
0.568461
0.568462
0.568462
0.568464
0.568465
0.568467
0.568468
0.568468
0.56847
0.568472
0.568473
0.568475
0.568475
0.568476
0.568478
0.56848
0.568481
0.568481
0.568483
0.568484
0.568486
0.568487
0.568487
0.568489
0.568491
0.568492
0.568494
0.568494
0.568495
0.568497
0.568499
0.5685
0.5685
0.568502
0.568503
0.568505
0.568507
0.568507
0.568508
0.56851
0.568511
0.568513
0.568513
0.568515
0.568516
0.568518
0.56852
0.56852
0.568521
0.568523
0.568524
0.568526
0.568526
0.568528
0.568529
0.568531
0.568533
0.568533
0.568534
0.568536
0.568538
0.568539
0.568539
0.568541
0.568543
0.568544
0.568546
0.568546
0.568547
0.568549
0.568551
0.568552
0.568552
0.568554
0.568556
0.568557
0.568559
0.568559
0.568561
0.568562
0.568564
0.568566
0.568566
0.568567
0.568569
0.568571
0.568572
0.568572
0.568574
0.568576
0.568578
0.568579
0.568579
0.568581
0.568583
0.568584
0.568586
0.568586
0.568588
0.568589
0.568591
0.568593
0.568593
0.568595
0.568596
0.568598
0.5686
0.5686
0.568601
0.568603
0.568605
0.568607
0.568607
0.568608
0.56861
0.568612
0.568613
0.568613
0.568615
0.568617
0.568619
0.56862
0.56862
0.568622
0.568624
0.568625
0.568627
0.568627
0.568629
0.568631
0.568633
0.568634
0.568634
0.568636
0.568638
0.56864
0.568641
0.568641
0.568643
0.568645
0.568647
0.568648
0.568648
0.56865
0.568652
0.568654
0.568655
0.568655
0.568657
0.568659
0.568661
0.568663
0.568663
0.568664
0.568666
0.568668
0.56867
0.56867
0.568671
0.568673
0.568675
0.568677
0.568677
0.568679
0.56868
0.568682
0.568684
0.568684
0.568686
0.568688
0.568689
0.568691
0.568691
0.568693
0.568695
0.568697
0.568699
0.568699
0.5687
0.568702
0.568704
0.568706
0.568706
0.568708
0.56871
0.568711
0.568713
0.568713
0.568715
0.568717
0.568719
0.568721
0.568721
0.568722
0.568724
0.568726
0.568728
0.568728
0.56873
0.568732
0.568733
0.568735
0.568735
0.568737
0.568739
0.568741
0.568743
0.568743
0.568745
0.568747
0.568748
0.56875
0.56875
0.568752
0.568754
0.568756
0.568758
0.568758
0.56876
0.568762
0.568763
0.568765
0.568765
0.568767
0.568769
0.568771
0.568773
0.568773
0.568775
0.568777
0.568779
0.568781
0.568781
0.568782
0.568784
0.568786
0.568788
0.568788
0.56879
0.568792
0.568794
0.568796
0.568796
0.568798
0.5688
0.568802
0.568804
0.568804
0.568806
0.568807
0.568809
0.568811
0.568811
0.568813
0.568815
0.568817
0.568819
0.568819
0.568821
0.568823
0.568825
0.568827
0.568827
0.568829
0.568831
0.568833
0.568835
0.568835
0.568837
0.568839
0.568841
0.568843
0.568843
0.568845
0.568847
0.568849
0.568851
0.568851
0.568852
0.568854
0.568856
0.568858
0.568858
0.56886
0.568862
0.568864
0.568866
0.568866
0.568868
0.56887
0.568872
0.568875
0.568875
0.568877
0.568879
0.568881
0.568883
0.568883
0.568885
0.568887
0.568889
0.568891
0.568891
0.568893
0.568895
0.568897
0.568899
0.568899
0.568901
0.568903
0.568905
0.568907
0.568907
0.568909
0.568911
0.568913
0.568915
0.568915
0.568917
0.568919
0.568921
0.568923
0.568923
0.568925
0.568927
0.568929
0.568932
0.568932
0.568934
0.568936
0.568938
0.56894
0.56894
0.568942
0.568944
0.568946
0.568948
0.568948
0.56895
0.568952
0.568954
0.568956
0.568956
0.568959
0.568961
0.568963
0.568965
0.568965
0.568967
0.568969
0.568971
0.568973
0.568973
0.568975
0.568978
0.56898
0.568982
0.568982
0.568984
0.568986
0.568988
0.56899
0.56899
0.568992
0.568995
0.568997
0.568999
0.568999
0.569001
0.569003
0.569005
0.569007
0.569007
0.56901
0.569012
0.569014
0.569016
0.569016
0.569018
0.56902
0.569022
0.569025
0.569025
0.569027
0.569029
0.569031
0.569033
0.569033
0.569035
0.569038
0.56904
0.569042
0.569042
0.569044
0.569046
0.569049
0.569051
0.569051
0.569053
0.569055
0.569057
0.56906
0.56906
0.569062
0.569064
0.569066
0.569068
0.569068
0.569071
0.569073
0.569075
0.569077
0.569077
0.569079
0.569082
0.569084
0.569086
0.569086
0.569088
0.569091
0.569093
0.569095
0.569095
0.569097
0.5691
0.569102
0.569104
0.569104
0.569106
0.569109
0.569111
0.569113
0.569113
0.569115
0.569118
0.56912
0.569122
0.569122
0.569124
0.569127
0.569129
0.569131
0.569131
0.569133
0.569136
0.569138
0.56914
0.56914
0.569143
0.569145
0.569147
0.569149
0.569149
0.569152
0.569154
0.569156
0.569159
0.569159
0.569161
0.569163
0.569166
0.569168
0.569168
0.56917
0.569173
0.569175
0.569177
0.569177
0.56918
0.569182
0.569184
0.569187
0.569187
0.569189
0.569191
0.569194
0.569196
0.569196
0.569198
0.569201
0.569203
0.569205
0.569205
0.569208
0.56921
0.569212
0.569215
0.569215
0.569217
0.569219
0.569222
0.569224
0.569224
0.569227
0.569229
0.569231
0.569234
0.569234
0.569236
0.569238
0.569241
0.569243
0.569243
0.569246
0.569248
0.56925
0.569253
0.569253
0.569255
0.569258
0.56926
0.569262
0.569262
0.569265
0.569267
0.56927
0.569272
0.569272
0.569275
0.569277
0.569279
0.569282
0.569282
0.569284
0.569287
0.569289
0.569292
0.569292
0.569294
0.569296
0.569299
0.569301
0.569301
0.569304
0.569306
0.569309
0.569311
0.569311
0.569314
0.569316
0.569319
0.569321
0.569321
0.569324
0.569326
0.569328
0.569331
0.569331
0.569333
0.569336
0.569338
0.569341
0.569341
0.569343
0.569346
0.569348
0.569351
0.569351
0.569353
0.569356
0.569358
0.569361
0.569361
0.569363
0.569366
0.569369
0.569371
0.569371
0.569374
0.569376
0.569379
0.569381
0.569381
0.569384
0.569386
0.569389
0.569391
0.569391
0.569394
0.569396
0.569399
0.569401
0.569401
0.569404
0.569407
0.569409
0.569412
0.569412
0.569414
0.569417
0.569419
0.569422
0.569422
0.569425
0.569427
0.56943
0.569432
0.569432
0.569435
0.569438
0.56944
0.569443
0.569443
0.569445
0.569448
0.569451
0.569453
0.569453
0.569456
0.569458
0.569461
0.569464
0.569464
0.569466
0.569469
0.569471
0.569474
0.569474
0.569477
0.569479
0.569482
0.569485
0.569485
0.569487
0.56949
0.569493
0.569495
0.569495
0.569498
0.569501
0.569503
0.569506
0.569506
0.569508
0.569511
0.569514
0.569516
0.569516
0.569519
0.569522
0.569525
0.569527
0.569527
0.56953
0.569533
0.569535
0.569538
0.569538
0.569541
0.569543
0.569546
0.569549
0.569549
0.569552
0.569554
0.569557
0.56956
0.56956
0.569562
0.569565
0.569568
0.569571
0.569571
0.569573
0.569576
0.569579
0.569581
0.569581
0.569584
0.569587
0.56959
0.569592
0.569592
0.569595
0.569598
0.569601
0.569603
0.569603
0.569606
0.569609
0.569612
0.569615
0.569615
0.569617
0.56962
0.569623
0.569626
0.569626
0.569628
0.569631
0.569634
0.569637
0.569637
0.56964
0.569642
0.569645
0.569648
0.569648
0.569651
0.569654
0.569656
0.569659
0.569659
0.569662
0.569665
0.569668
0.569671
0.569671
0.569673
0.569676
0.569679
0.569682
0.569682
0.569685
0.569688
0.569691
0.569693
0.569693
0.569696
0.569699
0.569702
0.569705
0.569705
0.569708
0.569711
0.569713
0.569716
0.569716
0.569719
0.569722
0.569725
0.569728
0.569728
0.569731
0.569734
0.569737
0.569739
0.569739
0.569742
0.569745
0.569748
0.569751
0.569751
0.569754
0.569757
0.56976
0.569763
0.569763
0.569766
0.569769
0.569772
0.569774
0.569774
0.569777
0.56978
0.569783
0.569786
0.569786
0.569789
0.569792
0.569795
0.569798
0.569798
0.569801
0.569804
0.569807
0.56981
0.56981
0.569813
0.569816
0.569819
0.569822
0.569822
0.569825
0.569828
0.569831
0.569834
0.569834
0.569837
0.56984
0.569843
0.569846
0.569846
0.569849
0.569852
0.569855
0.569858
0.569858
0.569861
0.569864
0.569867
0.56987
0.56987
0.569873
0.569876
0.569879
0.569882
0.569882
0.569885
0.569888
0.569891
0.569894
0.569894
0.569898
0.569901
0.569904
0.569907
0.569907
0.56991
0.569913
0.569916
0.569919
0.569919
0.569922
0.569925
0.569928
0.569931
0.569931
0.569935
0.569938
0.569941
0.569944
0.569944
0.569947
0.56995
0.569953
0.569956
0.569956
0.569959
0.569963
0.569966
0.569969
0.569969
0.569972
0.569975
0.569978
0.569981
0.569981
0.569985
0.569988
0.569991
0.569994
0.569994
0.569997
0.57
0.570004
0.570007
0.570007
0.57001
0.570013
0.570016
0.570019
0.570019
0.570023
0.570026
0.570029
0.570032
0.570032
0.570035
0.570039
0.570042
0.570045
0.570045
0.570048
0.570052
0.570055
0.570058
0.570058
0.570061
0.570064
0.570068
0.570071
0.570071
0.570074
0.570077
0.570081
0.570084
0.570084
0.570087
0.57009
0.570094
0.570097
0.570097
0.5701
0.570104
0.570107
0.57011
0.57011
0.570113
0.570117
0.57012
0.570123
0.570123
0.570127
0.57013
0.570133
0.570136
0.570136
0.57014
0.570143
0.570146
0.57015
0.57015
0.570153
0.570156
0.57016
0.570163
0.570163
0.570166
0.57017
0.570173
0.570176
0.570176
0.57018
0.570183
0.570187
0.57019
0.57019
0.570193
0.570197
0.5702
0.570203
0.570203
0.570207
0.57021
0.570213
0.570217
0.570217
0.57022
0.570224
0.570227
0.570231
0.570231
0.570234
0.570237
0.570241
0.570244
0.570244
0.570248
0.570251
0.570254
0.570258
0.570258
0.570261
0.570265
0.570268
0.570272
0.570272
0.570275
0.570279
0.570282
0.570285
0.570285
0.570289
0.570292
0.570296
0.570299
0.570299
0.570303
0.570306
0.57031
0.570313
0.570313
0.570317
0.57032
0.570324
0.570327
0.570327
0.570331
0.570334
0.570338
0.570341
0.570341
0.570345
0.570348
0.570352
0.570355
0.570355
0.570359
0.570363
0.570366
0.57037
0.57037
0.570373
0.570377
0.57038
0.570384
0.570384
0.570387
0.570391
0.570395
0.570398
0.570398
0.570402
0.570405
0.570409
0.570413
0.570413
0.570416
0.57042
0.570423
0.570427
0.570427
0.570431
0.570434
0.570438
0.570441
0.570441
0.570445
0.570449
0.570452
0.570456
0.570456
0.57046
0.570463
0.570467
0.570471
0.570471
0.570474
0.570478
0.570482
0.570485
0.570485
0.570489
0.570493
0.570496
0.5705
0.5705
0.570504
0.570507
0.570511
0.570515
0.570515
0.570518
0.570522
0.570526
0.57053
0.57053
0.570533
0.570537
0.570541
0.570544
0.570544
0.570548
0.570552
0.570556
0.570559
0.570559
0.570563
0.570567
0.570571
0.570574
0.570574
0.570578
0.570582
0.570586
0.57059
0.57059
0.570593
0.570597
0.570601
0.570605
0.570605
0.570608
0.570612
0.570616
0.57062
0.57062
0.570624
0.570628
0.570631
0.570635
0.570635
0.570639
0.570643
0.570647
0.570651
0.570651
0.570654
0.570658
0.570662
0.570666
0.570666
0.57067
0.570674
0.570677
0.570681
0.570681
0.570685
0.570689
0.570693
0.570697
0.570697
0.570701
0.570705
0.570709
0.570713
0.570713
0.570716
0.57072
0.570724
0.570728
0.570728
0.570732
0.570736
0.57074
0.570744
0.570744
0.570748
0.570752
0.570756
0.57076
0.57076
0.570764
0.570768
0.570772
0.570776
0.570776
0.57078
0.570784
0.570788
0.570792
0.570792
0.570796
0.5708
0.570804
0.570808
0.570808
0.570812
0.570816
0.57082
0.570824
0.570824
0.570828
0.570832
0.570836
0.57084
0.57084
0.570844
0.570848
0.570852
0.570856
0.570856
0.57086
0.570864
0.570868
0.570872
0.570872
0.570876
0.57088
0.570884
0.570888
0.570888
0.570893
0.570897
0.570901
0.570905
0.570905
0.570909
0.570913
0.570917
0.570921
0.570921
0.570925
0.57093
0.570934
0.570938
0.570938
0.570942
0.570946
0.57095
0.570955
0.570955
0.570959
0.570963
0.570967
0.570971
0.570971
0.570975
0.57098
0.570984
0.570988
0.570988
0.570992
0.570996
0.571001
0.571005
0.571005
0.571009
0.571013
0.571017
0.571022
0.571022
0.571026
0.57103
0.571034
0.571039
0.571039
0.571043
0.571047
0.571051
0.571056
0.571056
0.57106
0.571064
0.571068
0.571073
0.571073
0.571077
0.571081
0.571086
0.57109
0.57109
0.571094
0.571099
0.571103
0.571107
0.571107
0.571112
0.571116
0.57112
0.571125
0.571125
0.571129
0.571133
0.571138
0.571142
0.571142
0.571146
0.571151
0.571155
0.571159
0.571159
0.571164
0.571168
0.571173
0.571177
0.571177
0.571181
0.571186
0.57119
0.571195
0.571195
0.571199
0.571203
0.571208
0.571212
0.571212
0.571217
0.571221
0.571226
0.57123
0.57123
0.571235
0.571239
0.571243
0.571248
0.571248
0.571252
0.571257
0.571261
0.571266
0.571266
0.57127
0.571275
0.571279
0.571284
0.571284
0.571288
0.571293
0.571297
0.571302
0.571302
0.571306
0.571311
0.571316
0.57132
0.57132
0.571325
0.571329
0.571334
0.571338
0.571338
0.571343
0.571347
0.571352
0.571357
0.571357
0.571361
0.571366
0.57137
0.571375
0.571375
0.57138
0.571384
0.571389
0.571393
0.571393
0.571398
0.571403
0.571407
0.571412
0.571412
0.571417
0.571421
0.571426
0.571431
0.571431
0.571435
0.57144
0.571445
0.571449
0.571449
0.571454
0.571459
0.571463
0.571468
0.571468
0.571473
0.571478
0.571482
0.571487
0.571487
0.571492
0.571496
0.571501
0.571506
0.571506
0.571511
0.571515
0.57152
0.571525
0.571525
0.57153
0.571535
0.571539
0.571544
0.571544
0.571549
0.571554
0.571558
0.571563
0.571563
0.571568
0.571573
0.571578
0.571583
0.571583
0.571587
0.571592
0.571597
0.571602
0.571602
0.571607
0.571612
0.571616
0.571621
0.571621
0.571626
0.571631
0.571636
0.571641
0.571641
0.571646
0.571651
0.571656
0.57166
0.57166
0.571665
0.57167
0.571675
0.57168
0.57168
0.571685
0.57169
0.571695
0.5717
0.5717
0.571705
0.57171
0.571715
0.57172
0.57172
0.571725
0.57173
0.571735
0.57174
0.57174
0.571745
0.57175
0.571755
0.57176
0.57176
0.571765
0.57177
0.571775
0.57178
0.57178
0.571785
0.57179
0.571795
0.5718
0.5718
0.571805
0.57181
0.571815
0.57182
0.57182
0.571826
0.571831
0.571836
0.571841
0.571841
0.571846
0.571851
0.571856
0.571861
0.571861
0.571866
0.571872
0.571877
0.571882
0.571882
0.571887
0.571892
0.571897
0.571903
0.571903
0.571908
0.571913
0.571918
0.571923
0.571923
0.571928
0.571934
0.571939
0.571944
0.571944
0.571949
0.571955
0.57196
0.571965
0.571965
0.57197
0.571975
0.571981
0.571986
0.571986
0.571991
0.571997
0.572002
0.572007
0.572007
0.572012
0.572018
0.572023
0.572028
0.572028
0.572034
0.572039
0.572044
0.57205
0.57205
0.572055
0.57206
0.572066
0.572071
0.572071
0.572076
0.572082
0.572087
0.572092
0.572092
0.572098
0.572103
0.572109
0.572114
0.572114
0.572119
0.572125
0.57213
0.572136
0.572136
0.572141
0.572147
0.572152
0.572157
0.572157
0.572163
0.572168
0.572174
0.572179
0.572179
0.572185
0.57219
0.572196
0.572201
0.572201
0.572207
0.572212
0.572218
0.572223
0.572223
0.572229
0.572234
0.57224
0.572245
0.572245
0.572251
0.572257
0.572262
0.572268
0.572268
0.572273
0.572279
0.572284
0.57229
0.57229
0.572296
0.572301
0.572307
0.572313
0.572313
0.572318
0.572324
0.572329
0.572335
0.572335
0.572341
0.572346
0.572352
0.572358
0.572358
0.572363
0.572369
0.572375
0.57238
0.57238
0.572386
0.572392
0.572398
0.572403
0.572403
0.572409
0.572415
0.57242
0.572426
0.572426
0.572432
0.572438
0.572443
0.572449
0.572449
0.572455
0.572461
0.572467
0.572472
0.572472
0.572478
0.572484
0.57249
0.572496
0.572496
0.572501
0.572507
0.572513
0.572519
0.572519
0.572525
0.572531
0.572537
0.572542
0.572542
0.572548
0.572554
0.57256
0.572566
0.572566
0.572572
0.572578
0.572584
0.57259
0.57259
0.572596
0.572602
0.572607
0.572613
0.572613
0.572619
0.572625
0.572631
0.572637
0.572637
0.572643
0.572649
0.572655
0.572661
0.572661
0.572667
0.572673
0.572679
0.572685
0.572685
0.572691
0.572697
0.572703
0.57271
0.57271
0.572716
0.572722
0.572728
0.572734
0.572734
0.57274
0.572746
0.572752
0.572758
0.572758
0.572764
0.572771
0.572777
0.572783
0.572783
0.572789
0.572795
0.572801
0.572807
0.572807
0.572814
0.57282
0.572826
0.572832
0.572832
0.572838
0.572845
0.572851
0.572857
0.572857
0.572863
0.572869
0.572876
0.572882
0.572882
0.572888
0.572895
0.572901
0.572907
0.572907
0.572913
0.57292
0.572926
0.572932
0.572932
0.572939
0.572945
0.572951
0.572958
0.572958
0.572964
0.57297
0.572977
0.572983
0.572983
0.572989
0.572996
0.573002
0.573008
0.573008
0.573015
0.573021
0.573028
0.573034
0.573034
0.573041
0.573047
0.573053
0.57306
0.57306
0.573066
0.573073
0.573079
0.573086
0.573086
0.573092
0.573099
0.573105
0.573112
0.573112
0.573118
0.573125
0.573131
0.573138
0.573138
0.573144
0.573151
0.573158
0.573164
0.573164
0.573171
0.573177
0.573184
0.57319
0.57319
0.573197
0.573204
0.57321
0.573217
0.573217
0.573224
0.57323
0.573237
0.573244
0.573244
0.57325
0.573257
0.573264
0.57327
0.57327
0.573277
0.573284
0.57329
0.573297
0.573297
0.573304
0.573311
0.573317
0.573324
0.573324
0.573331
0.573338
0.573344
0.573351
0.573351
0.573358
0.573365
0.573371
0.573378
0.573378
0.573385
0.573392
0.573399
0.573406
0.573406
0.573412
0.573419
0.573426
0.573433
0.573433
0.57344
0.573447
0.573454
0.573461
0.573461
0.573468
0.573474
0.573481
0.573488
0.573488
0.573495
0.573502
0.573509
0.573516
0.573516
0.573523
0.57353
0.573537
0.573544
0.573544
0.573551
0.573558
0.573565
0.573572
0.573572
0.573579
0.573586
0.573593
0.5736
0.5736
0.573607
0.573615
0.573622
0.573629
0.573629
0.573636
0.573643
0.57365
0.573657
0.573657
0.573664
0.573672
0.573679
0.573686
0.573686
0.573693
0.5737
0.573707
0.573715
0.573715
0.573722
0.573729
0.573736
0.573743
0.573743
0.573751
0.573758
0.573765
0.573772
0.573772
0.57378
0.573787
0.573794
0.573802
0.573802
0.573809
0.573816
0.573824
0.573831
0.573831
0.573838
0.573846
0.573853
0.57386
0.57386
0.573868
0.573875
0.573882
0.57389
0.57389
0.573897
0.573905
0.573912
0.57392
0.57392
0.573927
0.573934
0.573942