<?xml version="1.0"?>
<VTKFile type="UnstructuredGrid" version="0.1" byte_order="LittleEndian">
<UnstructuredGrid>
<Piece NumberOfPoints="5000" NumberOfCells="4000">
<PointData Scalars="Reaction 0">
<DataArray type="Float32" Name="Reaction 0" format="ascii">
0.568558
0.568558
0.568558
0.568558
0.568558
0.568558
0.568558
0.568558
0.568558
0.568558
0.568558
0.568558
0.568558
0.568558
0.568558
0.568558
0.568558
0.568558
0.568558
0.568558
0.568558
0.568558
0.568558
0.568558
0.568558
0.568558
0.568558
0.568558
0.568558
0.568558
0.568558
0.568558
0.568558
0.568558
0.568558
0.568558
0.568558
0.568558
0.568558
0.568559
0.568559
0.568559
0.568559
0.568559
0.568559
0.568559
0.568559
0.568559
0.568559
0.568559
0.568559
0.568559
0.568559
0.568559
0.568559
0.568559
0.568559
0.568559
0.568559
0.568559
0.568559
0.568559
0.56856
0.56856
0.56856
0.56856
0.56856
0.56856
0.56856
0.56856
0.56856
0.56856
0.56856
0.56856
0.56856
0.56856
0.56856
0.56856
0.568561
0.568561
0.568561
0.568561
0.568561
0.568561
0.568561
0.568561
0.568561
0.568561
0.568561
0.568561
0.568561
0.568562
0.568562
0.568562
0.568562
0.568562
0.568562
0.568562
0.568562
0.568562
0.568562
0.568562
0.568563
0.568563
0.568563
0.568563
0.568563
0.568563
0.568563
0.568563
0.568563
0.568563
0.568563
0.568564
0.568564
0.568564
0.568564
0.568564
0.568564
0.568564
0.568564
0.568564
0.568565
0.568565
0.568565
0.568565
0.568565
0.568565
0.568565
0.568565
0.568565
0.568566
0.568566
0.568566
0.568566
0.568566
0.568566
0.568566
0.568566
0.568567
0.568567
0.568567
0.568567
0.568567
0.568567
0.568567
0.568567
0.568568
0.568568
0.568568
0.568568
0.568568
0.568568
0.568568
0.568569
0.568569
0.568569
0.568569
0.568569
0.568569
0.568569
0.568569
0.56857
0.56857
0.56857
0.56857
0.56857
0.56857
0.568571
0.568571
0.568571
0.568571
0.568571
0.568571
0.568572
0.568572
0.568572
0.568572
0.568572
0.568572
0.568572
0.568573
0.568573
0.568573
0.568573
0.568573
0.568573
0.568574
0.568574
0.568574
0.568574
0.568574
0.568574
0.568575
0.568575
0.568575
0.568575
0.568575
0.568576
0.568576
0.568576
0.568576
0.568576
0.568576
0.568577
0.568577
0.568577
0.568577
0.568577
0.568578
0.568578
0.568578
0.568578
0.568578
0.568579
0.568579
0.568579
0.568579
0.568579
0.56858
0.56858
0.56858
0.56858
0.56858
0.568581
0.568581
0.568581
0.568581
0.568581
0.568582
0.568582
0.568582
0.568582
0.568582
0.568583
0.568583
0.568583
0.568583
0.568583
0.568584
0.568584
0.568584
0.568584
0.568584
0.568585
0.568585
0.568585
0.568585
0.568586
0.568586
0.568586
0.568586
0.568586
0.568587
0.568587
0.568587
0.568587
0.568588
0.568588
0.568588
0.568588
0.568588
0.568589
0.568589
0.568589
0.568589
0.56859
0.56859
0.56859
0.568591
0.568591
0.568591
0.568591
0.568591
0.568592
0.568592
0.568592
0.568592
0.568593
0.568593
0.568593
0.568593
0.568594
0.568594
0.568594
0.568594
0.568595
0.568595
0.568595
0.568596
0.568596
0.568596
0.568596
0.568597
0.568597
0.568597
0.568597
0.568598
0.568598
0.568598
0.568598
0.568599
0.568599
0.568599
0.5686
0.5686
0.5686
0.5686
0.568601
0.568601
0.568601
0.568601
0.568602
0.568602
0.568602
0.568602
0.568603
0.568603
0.568604
0.568604
0.568604
0.568604
0.568605
0.568605
0.568605
0.568605
0.568606
0.568606
0.568606
0.568607
0.568607
0.568607
0.568608
0.568608
0.568608
0.568608
0.568609
0.568609
0.568609
0.56861
0.56861
0.56861
0.568611
0.568611
0.568611
0.568611
0.568612
0.568612
0.568613
0.568613
0.568613
0.568613
0.568614
0.568614
0.568615
0.568615
0.568615
0.568615
0.568616
0.568616
0.568616
0.568617
0.568617
0.568617
0.568618
0.568618
0.568618
0.568619
0.568619
0.56862
0.56862
0.56862
0.56862
0.568621
0.568621
0.568621
0.568622
0.568622
0.568622
0.568623
0.568623
0.568623
0.568624
0.568624
0.568625
0.568625
0.568625
0.568626
0.568626
0.568626
0.568626
0.568627
0.568627
0.568628
0.568628
0.568628
0.568629
0.568629
0.568629
0.56863
0.56863
0.56863
0.568631
0.568631
0.568632
0.568632
0.568632
0.568633
0.568633
0.568634
0.568634
0.568634
0.568635
0.568635
0.568636
0.568636
0.568636
0.568636
0.568637
0.568637
0.568637
0.568638
0.568638
0.568639
0.568639
0.568639
0.56864
0.56864
0.568641
0.568641
0.568641
0.568642
0.568642
0.568643
0.568643
0.568643
0.568644
0.568644
0.568645
0.568645
0.568645
0.568646
0.568646
0.568647
0.568647
0.568647
0.568648
0.568648
0.568649
0.568649
0.568649
0.56865
0.56865
0.568651
0.568651
0.568651
0.568652
0.568652
0.568653
0.568653
0.568653
0.568654
0.568655
0.568655
0.568656
0.568656
0.568656
0.568657
0.568657
0.568658
0.568658
0.568658
0.568659
0.568659
0.56866
0.56866
0.56866
0.568661
0.568662
0.568662
0.568662
0.568663
0.568663
0.568664
0.568664
0.568664
0.568665
0.568665
0.568666
0.568667
0.568667
0.568667
0.568668
0.568668
0.568669
0.568669
0.568669
0.56867
0.56867
0.568671
0.568671
0.568672
0.568672
0.568673
0.568673
0.568673
0.568674
0.568674
0.568675
0.568676
0.568676
0.568676
0.568677
0.568677
0.568678
0.568678
0.568679
0.568679
0.56868
0.56868
0.56868
0.568681
0.568682
0.568682
0.568683
0.568683
0.568683
0.568684
0.568685
0.568685
0.568685
0.568686
0.568686
0.568687
0.568688
0.568688
0.568688
0.568689
0.568689
0.56869
0.56869
0.568691
0.568691
0.568692
0.568693
0.568693
0.568693
0.568694
0.568694
0.568695
0.568695
0.568696
0.568696
0.568697
0.568698
0.568698
0.568698
0.568699
0.5687
0.5687
0.5687
0.568701
0.568702
0.568702
0.568703
0.568703
0.568703
0.568704
0.568705
0.568705
0.568705
0.568706
0.568707
0.568707
0.568708
0.568708
0.568709
0.568709
0.56871
0.568711
0.568711
0.568711
0.568712
0.568713
0.568713
0.568713
0.568714
0.568715
0.568715
0.568716
0.568716
0.568717
0.568717
0.568718
0.568719
0.568719
0.56872
0.56872
0.568721
0.568722
0.568722
0.568722
0.568723
0.568724
0.568724
0.568724
0.568725
0.568726
0.568727
0.568727
0.568727
0.568728
0.568729
0.568729
0.56873
0.56873
0.568731
0.568731
0.568732
0.568733
0.568733
0.568734
0.568734
0.568735
0.568736
0.568736
0.568736
0.568737
0.568738
0.568739
0.568739
0.568739
0.56874
0.568741
0.568742
0.568742
0.568742
0.568743
0.568744
0.568745
0.568745
0.568745
0.568746
0.568747
0.568748
0.568748
0.568748
0.568749
0.56875
0.568751
0.568751
0.568751
0.568752
0.568753
0.568754
0.568754
0.568754
0.568755
0.568756
0.568757
0.568757
0.568757
0.568758
0.568759
0.56876
0.56876
0.568761
0.568761
0.568762
0.568763
0.568763
0.568764
0.568764
0.568765
0.568766
0.568766
0.568767
0.568768
0.568768
0.568769
0.568769
0.56877
0.568771
0.568772
0.568772
0.568772
0.568773
0.568774
0.568775
0.568776
0.568776
0.568776
0.568777
0.568778
0.568779
0.568779
0.56878
0.56878
0.568781
0.568782
0.568782
0.568783
0.568784
0.568784
0.568785
0.568785
0.568786
0.568787
0.568788
0.568789
0.568789
0.568789
0.56879
0.568791
0.568792
0.568792
0.568793
0.568794
0.568794
0.568795
0.568795
0.568796
0.568797
0.568798
0.568799
0.568799
0.568799
0.5688
0.568801
0.568802
0.568802
0.568803
0.568804
0.568805
0.568805
0.568805
0.568806
0.568807
0.568808
0.568809
0.568809
0.56881
0.568811
0.568812
0.568812
0.568812
0.568813
0.568814
0.568815
0.568816
0.568816
0.568817
0.568818
0.568819
0.56882
0.56882
0.56882
0.568821
0.568822
0.568823
0.568823
0.568824
0.568825
0.568826
0.568827
0.568827
0.568828
0.568828
0.568829
0.56883
0.56883
0.568831
0.568832
0.568833
0.568834
0.568834
0.568835
0.568836
0.568837
0.568838
0.568838
0.568838
0.568839
0.56884
0.568841
0.568841
0.568842
0.568843
0.568844
0.568845
0.568845
0.568846
0.568847
0.568848
0.568849
0.568849
0.56885
0.568851
0.568851
0.568852
0.568852
0.568853
0.568854
0.568855
0.568856
0.568856
0.568857
0.568858
0.568859
0.56886
0.56886
0.568861
0.568862
0.568863
0.568864
0.568864
0.568865
0.568866
0.568867
0.568868
0.568868
0.568869
0.56887
0.568871
0.568872
0.568872
0.568873
0.568874
0.568875
0.568876
0.568876
0.568877
0.568878
0.568879
0.56888
0.56888
0.568881
0.568882
0.568883
0.568884
0.568884
0.568885
0.568886
0.568887
0.568888
0.568888
0.568889
0.56889
0.568891
0.568892
0.568892
0.568893
0.568894
0.568895
0.568896
0.568896
0.568897
0.568898
0.568899
0.5689
0.5689
0.568901
0.568902
0.568903
0.568904
0.568904
0.568905
0.568906
0.568907
0.568908
0.568908
0.568909
0.56891
0.568911
0.568912
0.568912
0.568913
0.568914
0.568915
0.568916
0.568916
0.568917
0.568918
0.56892
0.568921
0.568921
0.568922
0.568923
0.568924
0.568925
0.568925
0.568926
0.568927
0.568928
0.568929
0.568929
0.56893
0.568931
0.568932
0.568933
0.568933
0.568935
0.568936
0.568937
0.568938
0.568938
0.568939
0.56894
0.568941
0.568942
0.568942
0.568943
0.568944
0.568945
0.568947
0.568947
0.568948
0.568949
0.56895
0.568951
0.568951
0.568952
0.568953
0.568954
0.568955
0.568955
0.568957
0.568958
0.568959
0.56896
0.56896
0.568961
0.568962
0.568963
0.568964
0.568964
0.568965
0.568967
0.568968
0.568969
0.568969
0.56897
0.568971
0.568972
0.568973
0.568973
0.568975
0.568976
0.568977
0.568978
0.568978
0.568979
0.56898
0.568981
0.568983
0.568983
0.568984
0.568985
0.568986
0.568987
0.568987
0.568988
0.56899
0.568991
0.568992
0.568992
0.568993
0.568994
0.568995
0.568997
0.568997
0.568998
0.568999
0.569
0.569001
0.569001
0.569003
0.569004
0.569005
0.569006
0.569006
0.569007
0.569008
0.56901
0.569011
0.569011
0.569012
0.569013
0.569014
0.569016
0.569016
0.569017
0.569018
0.569019
0.56902
0.56902
0.569022
0.569023
0.569024
0.569025
0.569025
0.569027
0.569028
0.569029
0.56903
0.56903
0.569031
0.569033
0.569034
0.569035
0.569035
0.569036
0.569038
0.569039
0.56904
0.56904
0.569041
0.569043
0.569044
0.569045
0.569045
0.569046
0.569048
0.569049
0.56905
0.56905
0.569051
0.569053
0.569054
0.569055
0.569055
0.569056
0.569058
0.569059
0.56906
0.56906
0.569061
0.569063
0.569064
0.569065
0.569065
0.569067
0.569068
0.569069
0.56907
0.56907
0.569072
0.569073
0.569074
0.569076
0.569076
0.569077
0.569078
0.569079
0.569081
0.569081
0.569082
0.569083
0.569085
0.569086
0.569086
0.569087
0.569088
0.56909
0.569091
0.569091
0.569092
0.569094
0.569095
0.569096
0.569096
0.569098
0.569099
0.5691
0.569102
0.569102
0.569103
0.569104
0.569106
0.569107
0.569107
0.569108
0.56911
0.569111
0.569112
0.569112
0.569114
0.569115
0.569116
0.569118
0.569118
0.569119
0.56912
0.569122
0.569123
0.569123
0.569125
0.569126
0.569127
0.569129
0.569129
0.56913
0.569131
0.569133
0.569134
0.569134
0.569135
0.569137
0.569138
0.56914
0.56914
0.569141
0.569142
0.569144
0.569145
0.569145
0.569147
0.569148
0.569149
0.569151
0.569151
0.569152
0.569153
0.569155
0.569156
0.569156
0.569158
0.569159
0.56916
0.569162
0.569162
0.569163
0.569165
0.569166
0.569168
0.569168
0.569169
0.56917
0.569172
0.569173
0.569173
0.569175
0.569176
0.569178
0.569179
0.569179
0.56918
0.569182
0.569183
0.569185
0.569185
0.569186
0.569188
0.569189
0.569191
0.569191
0.569192
0.569193
0.569195
0.569196
0.569196
0.569198
0.569199
0.569201
0.569202
0.569202
0.569204
0.569205
0.569207
0.569208
0.569208
0.569209
0.569211
0.569212
0.569214
0.569214
0.569215
0.569217
0.569218
0.56922
0.56922
0.569221
0.569223
0.569224
0.569226
0.569226
0.569227
0.569229
0.56923
0.569232
0.569232
0.569233
0.569235
0.569236
0.569238
0.569238
0.569239
0.569241
0.569242
0.569244
0.569244
0.569245
0.569247
0.569248
0.56925
0.56925
0.569252
0.569253
0.569255
0.569256
0.569256
0.569258
0.569259
0.569261
0.569262
0.569262
0.569264
0.569265
0.569267
0.569268
0.569268
0.56927
0.569272
0.569273
0.569275
0.569275
0.569276
0.569278
0.569279
0.569281
0.569281
0.569282
0.569284
0.569286
0.569287
0.569287
0.569289
0.56929
0.569292
0.569293
0.569293
0.569295
0.569297
0.569298
0.5693
0.5693
0.569301
0.569303
0.569305
0.569306
0.569306
0.569308
0.569309
0.569311
0.569313
0.569313
0.569314
0.569316
0.569317
0.569319
0.569319
0.569321
0.569322
0.569324
0.569326
0.569326
0.569327
0.569329
0.56933
0.569332
0.569332
0.569334
0.569335
0.569337
0.569339
0.569339
0.56934
0.569342
0.569343
0.569345
0.569345
0.569347
0.569348
0.56935
0.569352
0.569352
0.569353
0.569355
0.569357
0.569358
0.569358
0.56936
0.569362
0.569363
0.569365
0.569365
0.569367
0.569368
0.56937
0.569372
0.569372
0.569373
0.569375
0.569377
0.569379
0.569379
0.56938
0.569382
0.569384
0.569385
0.569385
0.569387
0.569389
0.56939
0.569392
0.569392
0.569394
0.569396
0.569397
0.569399
0.569399
0.569401
0.569402
0.569404
0.569406
0.569406
0.569408
0.569409
0.569411
0.569413
0.569413
0.569414
0.569416
0.569418
0.56942
0.56942
0.569421
0.569423
0.569425
0.569427
0.569427
0.569428
0.56943
0.569432
0.569434
0.569434
0.569435
0.569437
0.569439
0.569441
0.569441
0.569442
0.569444
0.569446
0.569448
0.569448
0.56945
0.569451
0.569453
0.569455
0.569455
0.569457
0.569458
0.56946
0.569462
0.569462
0.569464
0.569466
0.569467
0.569469
0.569469
0.569471
0.569473
0.569475
0.569476
0.569476
0.569478
0.56948
0.569482
0.569484
0.569484
0.569485
0.569487
0.569489
0.569491
0.569491
0.569493
0.569495
0.569496
0.569498
0.569498
0.5695
0.569502
0.569504
0.569506
0.569506
0.569507
0.569509
0.569511
0.569513
0.569513
0.569515
0.569517
0.569519
0.56952
0.56952
0.569522
0.569524
0.569526
0.569528
0.569528
0.56953
0.569532
0.569534
0.569535
0.569535
0.569537
0.569539
0.569541
0.569543
0.569543
0.569545
0.569547
0.569549
0.56955
0.56955
0.569552
0.569554
0.569556
0.569558
0.569558
0.56956
0.569562
0.569564
0.569566
0.569566
0.569568
0.56957
0.569572
0.569573
0.569573
0.569575
0.569577
0.569579
0.569581
0.569581
0.569583
0.569585
0.569587
0.569589
0.569589
0.569591
0.569593
0.569595
0.569597
0.569597
0.569599
0.569601
0.569603
0.569604
0.569604
0.569606
0.569608
0.56961
0.569612
0.569612
0.569614
0.569616
0.569618
0.56962
0.56962
0.569622
0.569624
0.569626
0.569628
0.569628
0.56963
0.569632
0.569634
0.569636
0.569636
0.569638
0.56964
0.569642
0.569644
0.569644
0.569646
0.569648
0.56965
0.569652
0.569652
0.569654
0.569656
0.569658
0.56966
0.56966
0.569662
0.569664
0.569666
0.569668
0.569668
0.56967
0.569672
0.569675
0.569677
0.569677
0.569679
0.569681
0.569683
0.569685
0.569685
0.569687
0.569689
0.569691
0.569693
0.569693
0.569695
0.569697
0.569699
0.569701
0.569701
0.569703
0.569705
0.569707
0.56971
0.56971
0.569712
0.569714
0.569716
0.569718
0.569718
0.56972
0.569722
0.569724
0.569726
0.569726
0.569728
0.569731
0.569733
0.569735
0.569735
0.569737
0.569739
0.569741
0.569743
0.569743
0.569745
0.569747
0.56975
0.569752
0.569752
0.569754
0.569756
0.569758
0.56976
0.56976
0.569762
0.569764
0.569767
0.569769
0.569769
0.569771
0.569773
0.569775
0.569777
0.569777
0.56978
0.569782
0.569784
0.569786
0.569786
0.569788
0.56979
0.569793
0.569795
0.569795
0.569797
0.569799
0.569801
0.569804
0.569804
0.569806
0.569808
0.56981
0.569812
0.569812
0.569815
0.569817
0.569819
0.569821
0.569821
0.569823
0.569826
0.569828
0.56983
0.56983
0.569832
0.569834
0.569837
0.569839
0.569839
0.569841
0.569843
0.569846
0.569848
0.569848
0.56985
0.569852
0.569855
0.569857
0.569857
0.569859
0.569861
0.569864
0.569866
0.569866
0.569868
0.56987
0.569873
0.569875
0.569875
0.569877
0.569879
0.569882
0.569884
0.569884
0.569886
0.569889
0.569891
0.569893
0.569893
0.569895
0.569898
0.5699
0.569902
0.569902
0.569905
0.569907
0.569909
0.569912
0.569912
0.569914
0.569916
0.569918
0.569921
0.569921
0.569923
0.569925
0.569928
0.56993
0.56993
0.569932
0.569935
0.569937
0.56994
0.56994
0.569942
0.569944
0.569947
0.569949
0.569949
0.569951
0.569954
0.569956
0.569958
0.569958
0.569961
0.569963
0.569965
0.569968
0.569968
0.56997
0.569973
0.569975
0.569977
0.569977
0.56998
0.569982
0.569984
0.569987
0.569987
0.569989
0.569992
0.569994
0.569996
0.569996
0.569999
0.570001
0.570004
0.570006
0.570006
0.570009
0.570011
0.570013
0.570016
0.570016
0.570018
0.570021
0.570023
0.570026
0.570026
0.570028
0.57003
0.570033
0.570035
0.570035
0.570038
0.57004
0.570043
0.570045
0.570045
0.570048
0.57005
0.570052
0.570055
0.570055
0.570057
0.57006
0.570062
0.570065
0.570065
0.570067
0.57007
0.570072
0.570075
0.570075
0.570077
0.57008
0.570082
0.570085
0.570085
0.570087
0.57009
0.570092
0.570095
0.570095
0.570097
0.5701
0.570102
0.570105
0.570105
0.570108
0.57011
0.570113
0.570115
0.570115
0.570118
0.57012
0.570123
0.570125
0.570125
0.570128
0.57013
0.570133
0.570135
0.570135
0.570138
0.570141
0.570143
0.570146
0.570146
0.570148
0.570151
0.570153
0.570156
0.570156
0.570159
0.570161
0.570164
0.570166
0.570166
0.570169
0.570172
0.570174
0.570177
0.570177
0.570179
0.570182
0.570185
0.570187
0.570187
0.57019
0.570192
0.570195
0.570198
0.570198
0.5702
0.570203
0.570206
0.570208
0.570208
0.570211
0.570214
0.570216
0.570219
0.570219
0.570222
0.570224
0.570227
0.570229
0.570229
0.570232
0.570235
0.570238
0.57024
0.57024
0.570243
0.570246
0.570248
0.570251
0.570251
0.570254
0.570256
0.570259
0.570262
0.570262
0.570264
0.570267
0.57027
0.570272
0.570272
0.570275
0.570278
0.570281
0.570283
0.570283
0.570286
0.570289
0.570291
0.570294
0.570294
0.570297
0.5703
0.570302
0.570305
0.570305
0.570308
0.570311
0.570313
0.570316
0.570316
0.570319
0.570322
0.570325
0.570327
0.570327
0.57033
0.570333
0.570336
0.570338
0.570338
0.570341
0.570344
0.570347
0.570349
0.570349
0.570352
0.570355
0.570358
0.570361
0.570361
0.570363
0.570366
0.570369
0.570372
0.570372
0.570375
0.570378
0.57038
0.570383
0.570383
0.570386
0.570389
0.570392
0.570395
0.570395
0.570397
0.5704
0.570403
0.570406
0.570406
0.570409
0.570412
0.570415
0.570417
0.570417
0.57042
0.570423
0.570426
0.570429
0.570429
0.570432
0.570435
0.570438
0.57044
0.57044
0.570443
0.570446
0.570449
0.570452
0.570452
0.570455
0.570458
0.570461
0.570464
0.570464
0.570467
0.57047
0.570472
0.570475
0.570475
0.570478
0.570481
0.570484
0.570487
0.570487
0.57049
0.570493
0.570496
0.570499
0.570499
0.570502
0.570505
0.570508
0.570511
0.570511
0.570514
0.570517
0.57052
0.570523
0.570523
0.570526
0.570529
0.570532
0.570535
0.570535
0.570538
0.570541
0.570544
0.570547
0.570547
0.57055
0.570553
0.570556
0.570559
0.570559
0.570562
0.570565
0.570568
0.570571
0.570571
0.570574
0.570577
0.57058
0.570583
0.570583
0.570586
0.570589
0.570592
0.570595
0.570595
0.570598
0.570601
0.570604
0.570607
0.570607
0.57061
0.570614
0.570617
0.57062
0.57062
0.570623
0.570626
0.570629
0.570632
0.570632
0.570635
0.570638
0.570641
0.570645
0.570645
0.570648
0.570651
0.570654
0.570657
0.570657
0.57066
0.570663
0.570666
0.570669
0.570669
0.570673
0.570676
0.570679
0.570682
0.570682
0.570685
0.570688
0.570692
0.570695
0.570695
0.570698
0.570701
0.570704
0.570707
0.570707
0.570711
0.570714
0.570717
0.57072
0.57072
0.570723
0.570727
0.57073
0.570733
0.570733
0.570736
0.570739
0.570743
0.570746
0.570746
0.570749
0.570752
0.570755
0.570759
0.570759
0.570762
0.570765
0.570768
0.570772
0.570772
0.570775
0.570778
0.570781
0.570785
0.570785
0.570788
0.570791
0.570794
0.570798
0.570798
0.570801
0.570804
0.570808
0.570811
0.570811
0.570814
0.570817
0.570821
0.570824
0.570824
0.570827
0.570831
0.570834
0.570837
0.570837
0.570841
0.570844
0.570847
0.570851
0.570851
0.570854
0.570857
0.570861
0.570864
0.570864
0.570867
0.570871
0.570874
0.570877
0.570877
0.570881
0.570884
0.570888
0.570891
0.570891
0.570894
0.570898
0.570901
0.570904
0.570904
0.570908
0.570911
0.570915
0.570918
0.570918
0.570921
0.570925
0.570928
0.570932
0.570932
0.570935
0.570938
0.570942
0.570945
0.570945
0.570949
0.570952
0.570956
0.570959
0.570959
0.570963
0.570966
0.570969
0.570973
0.570973
0.570976
0.57098
0.570983
0.570987
0.570987
0.57099
0.570994
0.570997
0.571001
0.571001
0.571004
0.571008
0.571011
0.571015
0.571015
0.571018
0.571022
0.571025
0.571029
0.571029
0.571032
0.571036
0.571039
0.571043
0.571043
0.571046
0.57105
0.571054
0.571057
0.571057
0.571061
0.571064
0.571068
0.571071
0.571071
0.571075
0.571079
0.571082
0.571086
0.571086
0.571089
0.571093
0.571096
0.5711
0.5711
0.571104
0.571107
0.571111
0.571114
0.571114
0.571118
0.571122
0.571125
0.571129
0.571129
0.571133
0.571136
0.57114
0.571144
0.571144
0.571147
0.571151
0.571154
0.571158
0.571158
0.571162
0.571165
0.571169
0.571173
0.571173
0.571176
0.57118
0.571184
0.571187
0.571187
0.571191
0.571195
0.571199
0.571202
0.571202
0.571206
0.57121
0.571213
0.571217
0.571217
0.571221
0.571225
0.571228
0.571232
0.571232
0.571236
0.57124
0.571243
0.571247
0.571247
0.571251
0.571255
0.571258
0.571262
0.571262
0.571266
0.57127
0.571273
0.571277
0.571277
0.571281
0.571285
0.571289
0.571292
0.571292
0.571296
0.5713
0.571304
0.571308
0.571308
0.571312
0.571315
0.571319
0.571323
0.571323
0.571327
0.571331
0.571335
0.571338
0.571338
0.571342
0.571346
0.57135
0.571354
0.571354
0.571358
0.571362
0.571365
0.571369
0.571369
0.571373
0.571377
0.571381
0.571385
0.571385
0.571389
0.571393
0.571397
0.571401
0.571401
0.571405
0.571408
0.571412
0.571416
0.571416
0.57142
0.571424
0.571428
0.571432
0.571432
0.571436
0.57144
0.571444
0.571448
0.571448
0.571452
0.571456
0.57146
0.571464
0.571464
0.571468
0.571472
0.571476
0.57148
0.57148
0.571484
0.571488
0.571492
0.571496
0.571496
0.5715
0.571504
0.571508
0.571512
0.571512
0.571516
0.57152
0.571524
0.571528
0.571528
0.571532
0.571536
0.57154
0.571544
0.571544
0.571549
0.571553
0.571557
0.571561
0.571561
0.571565
0.571569
0.571573
0.571577
0.571577
0.571581
0.571585
0.57159
0.571594
0.571594
0.571598
0.571602
0.571606
0.57161
0.57161
0.571614
0.571619
0.571623
0.571627
0.571627
0.571631
0.571635
0.571639
0.571643
0.571643
0.571648
0.571652
0.571656
0.57166
0.57166
0.571664
0.571669
0.571673
0.571677
0.571677
0.571681
0.571686
0.57169
0.571694
0.571694
0.571698
0.571702
0.571707
0.571711
0.571711
0.571715
0.571719
0.571724
0.571728
0.571728
0.571732
0.571737
0.571741
0.571745
0.571745
0.571749
0.571754
0.571758
0.571762
0.571762
0.571767
0.571771
0.571775
0.57178
0.57178
0.571784
0.571788
0.571793
0.571797
0.571797
0.571801
0.571806
0.57181
0.571814
0.571814
0.571819
0.571823
0.571827
0.571832
0.571832
0.571836
0.571841
0.571845
0.571849
0.571849
0.571854
0.571858
0.571863
0.571867
0.571867
0.571871
0.571876
0.57188
0.571885
0.571885
0.571889
0.571894
0.571898
0.571903
0.571903
0.571907
0.571911
0.571916
0.57192
0.57192
0.571925
0.571929
0.571934
0.571938
0.571938
0.571943
0.571947
0.571952
0.571956
0.571956
0.571961
0.571965
0.57197
0.571974
0.571974
0.571979
0.571984
0.571988
0.571993
0.571993
0.571997
0.572002
0.572006
0.572011
0.572011
0.572015
0.57202
0.572025
0.572029
0.572029
0.572034
0.572038
0.572043
0.572048
0.572048
0.572052
0.572057
0.572062
0.572066
0.572066
0.572071
0.572075
0.57208
0.572085
0.572085
0.572089
0.572094
0.572099
0.572103
0.572103
0.572108
0.572113
0.572117
0.572122
0.572122
0.572127
0.572131
0.572136
0.572141
0.572141
0.572146
0.57215
0.572155
0.57216
0.57216
0.572165
0.572169
0.572174
0.572179
0.572179
0.572184
0.572188
0.572193
0.572198
0.572198
0.572203
0.572207
0.572212
0.572217
0.572217
0.572222
0.572227
0.572231
0.572236
0.572236
0.572241
0.572246
0.572251
0.572256
0.572256
0.57226
0.572265
0.57227
0.572275
0.572275
0.57228
0.572285
0.57229
0.572294
0.572294
0.572299
0.572304
0.572309
0.572314
0.572314
0.572319
0.572324
0.572329
0.572334
0.572334
0.572339
0.572343
0.572348
0.572353
0.572353
0.572358
0.572363
0.572368
0.572373
0.572373
0.572378
0.572383
0.572388
0.572393
0.572393
0.572398
0.572403
0.572408
0.572413
0.572413
0.572418
0.572423
0.572428
0.572433
0.572433
0.572438
0.572443
0.572448
0.572453
0.572453
0.572458
0.572463
0.572468
0.572474
0.572474
0.572479
0.572484
0.572489
0.572494
0.572494
0.572499
0.572504
0.572509
0.572514
0.572514
0.572519
0.572525
0.57253
0.572535
0.572535
0.57254
0.572545
0.57255
0.572555
0.572555
0.572561
0.572566
0.572571
0.572576
0.572576
0.572581
0.572587
0.572592
0.572597
0.572597
0.572602
0.572607
0.572613
0.572618
0.572618
0.572623
0.572628
0.572634
0.572639
0.572639
0.572644
0.572649
0.572655
0.57266
0.57266
0.572665
0.57267
0.572676
0.572681
0.572681
0.572686
0.572692
0.572697
0.572702
0.572702
0.572708
0.572713
0.572718
0.572724
0.572724
0.572729
0.572734
0.57274
0.572745
0.572745
0.57275
0.572756
0.572761
0.572767
0.572767
0.572772
0.572777
0.572783
0.572788
0.572788
0.572794
0.572799
0.572804
0.57281
0.57281
0.572815
0.572821
0.572826
0.572832
0.572832
0.572837
0.572843
0.572848
0.572854
0.572854
0.572859
0.572865
0.57287
0.572876
0.572876
0.572881
0.572887
0.572892
0.572898
0.572898
0.572903
0.572909
0.572914
0.57292
0.57292
0.572925
0.572931
0.572937
0.572942
0.572942
0.572948
0.572953
0.572959
0.572965
0.572965
0.57297
0.572976
0.572981
0.572987
0.572987
0.572993
0.572998
0.573004
0.57301
0.57301
0.573015
0.573021
0.573027
0.573032
0.573032
0.573038
0.573044
0.573049
0.573055
0.573055
0.573061
0.573067
0.573072
0.573078
0.573078
0.573084
0.573089
0.573095
0.573101
0.573101
0.573107
0.573113
0.573118
0.573124
0.573124
0.57313
0.573136
0.573141
0.573147
0.573147
0.573153
0.573159
0.573165
0.573171
0.573171
0.573176
0.573182
0.573188
0.573194
0.573194
0.5732
0.573206
0.573212
0.573217
0.573217
0.573223
0.573229
0.573235
0.573241
0.573241
0.573247
0.573253
0.573259
0.573265
0.573265
0.573271
0.573277
0.573283
0.573289
0.573289
0.573295
0.573301
0.573307
0.573313
0.573313
0.573318
0.573324
0.57333
0.573337
0.573337
0.573343
0.573349
0.573355
0.573361
0.573361
0.573367
0.573373
0.573379
0.573385
0.573385
0.573391
0.573397
0.573403
0.573409
0.573409
0.573415
0.573421
0.573428
0.573434
0.573434
0.57344
0.573446
0.573452
0.573458
0.573458
0.573464
0.573471
0.573477
0.573483
0.573483
0.573489
0.573495
0.573502
0.573508
0.573508
0.573514
0.57352
0.573526
0.573533
0.573533
0.573539
0.573545
0.573551
0.573558
0.573558
0.573564
0.57357
0.573576
0.573583
0.573583
0.573589
0.573595
0.573602
0.573608
0.573608
0.573614
0.573621
0.573627
0.573633
0.573633
0.57364
0.573646
0.573652
0.573659
0.573659
0.573665
0.573672
0.573678
0.573684
0.573684
0.573691
0.573697
0.573704
0.57371
0.57371
0.573716
0.573723
0.573729
0.573736
0.573736
0.573742
0.573749
0.573755
0.573762
0.573762
0.573768
0.573775
0.573781
0.573788
0.573788
0.573794
0.573801
0.573807
0.573814
0.573814
0.57382
0.573827
0.573834
0.57384
0.57384
0.573847
0.573853
0.57386
0.573867
0.573867
0.573873
0.57388
0.573886
0.573893
0.573893
0.5739
0.573906
0.573913
0.57392
0.57392
0.573926
0.573933
0.57394
0.573946
0.573946
0.573953
0.57396
0.573966
0.573973
0.573973
0.57398
0.573987
0.573993
0.574
0.574
0.574007
0.574014
0.574021
0.574027
0.574027
0.574034
0.574041
0.574048
0.574054
0.574054
0.574061
0.574068
0.574075
0.574082
0.574082
0.574089
0.574096
0.574102
0.574109
0.574109
0.574116
0.574123
0.57413
0.574137
0.574137
0.574144
0.574151
0.574158
0.574165
0.574165
0.574172
0.574179
0.574185
0.574192
0.574192
0.574199
0.574206
0.574213
0.57422
0.57422
0.574227
0.574234
0.574242
0.574249
0.574249
0.574256
0.574263
0.57427
0.574277
0.574277
0.574284
0.574291
0.574298
0.574305
0.574305
0.574312
0.574319
0.574326
0.574334
0.574334
0.574341
0.574348
0.574355
0.574362
0.574362
0.574369
0.574377
0.574384
0.574391
0.574391
0.574398
0.574405
0.574413
0.57442
0.57442
0.574427
0.574434
0.574442
0.574449
0.574449
0.574456
0.574463
0.574471
0.574478
0.574478
0.574485
0.574493
0.5745
0.574507
0.574507
0.574515
0.574522
0.574529
0.574537
0.574537
0.574544
0.574551
0.574559
0.574566
0.574566
0.574573
0.574581
0.574588
0.574596
0.574596
0.574603
0.574611
0.574618
0.574626
0.574626
0.574633
0.574641
0.574648
0.574656
0.574656
0.574663
0.574671
0.574678
0.574686
0.574686
0.574693
0.574701
0.574708
0.574716
0.574716
0.574723
0.574731
0.574739
0.574746
0.574746
0.574754
0.574761
0.574769
0.574777
0.574777
0.574784
0.574792
0.5748
0.574807
0.574807
0.574815
0.574823
0.57483
0.574838
0.574838
0.574846
0.574853
0.574861
0.574869
0.574869
0.574877
0.574884
0.574892
0.5749
0.5749
0.574908
0.574916
0.574923
0.574931
0.574931
0.574939
0.574947
0.574955
0.574963
0.574963
0.57497
0.574978
0.574986
0.574994
0.574994
0.575002
0.57501
0.575018
0.575026
0.575026
0.575034
0.575042
0.575049
0.575057
0.575057
0.575065
0.575073
0.575081
0.575089
0.575089
0.575097
0.575105
0.575113
0.575121
0.575121
0.575129
0.575137
0.575146
0.575154
0.575154
0.575162
0.57517
0.575178
0.575186
0.575186
0.575194
0.575202
0.57521
0.575219
0.575219
0.575227
0.575235
0.575243
0.575251
0.575251
0.575259
0.575268
0.575276
0.575284
0.575284
0.575292
0.5753
0.575309
0.575317
0.575317
0.575325
0.575334
0.575342
0.57535
0.57535
0.575358
0.575367
0.575375
0.575383
0.575383
0.575392
0.5754
0.575408
0.575417
0.575417
0.575425
0.575434
0.575442
0.57545
0.57545
0.575459
0.575467
0.575476
0.575484
0.575484
0.575493
0.575501
0.57551
0.575518
0.575518
0.575527
0.575535
0.575544
0.575552
0.575552
0.575561
0.575569
0.575578
0.575586
0.575586
0.575595
0.575603
0.575612
0.575621
0.575621
0.575629
0.575638
0.575647
0.575655
0.575655
0.575664
0.575673
0.575681
0.57569
0.57569
0.575699
0.575707
0.575716
0.575725
0.575725
0.575734
0.575742
0.575751
0.57576
0.57576
0.575769
0.575777
0.575786
0.575795
0.575795
0.575804
0.575813
0.575821
0.57583
0.57583
0.575839
0.575848
0.575857
0.575866
0.575866
0.575875
0.575884
0.575893
0.575902
0.575902
0.575911
0.575919
0.575928
0.575937
0.575937
0.575946
0.575955
0.575964
0.575973
0.575973
0.575982
0.575991
0.576001
0.57601
0.57601
0.576019
0.576028
0.576037
0.576046
0.576046
0.576055
0.576064
0.576073
0.576083
0.576083
0.576092
0.576101
0.57611
0.576119
0.576119
0.576128
0.576138
0.576147
0.576156
0.576156
0.576165
0.576175
0.576184
0.576193
0.576193
0.576202
0.576212
0.576221
0.57623
0.57623
0.57624
0.576249
0.576258
0.576268
0.576268
0.576277
0.576287
0.576296
0.576305
0.576305
0.576315
0.576324
0.576334
0.576343
0.576343
0.576353
0.576362
0.576372
0.576381
0.576381
0.576391
0.5764
0.57641
0.576419
0.576419
0.576429
0.576438
0.576448
0.576458
0.576458
0.576467
0.576477
0.576486
0.576496
0.576496
0.576506
0.576515
0.576525
0.576535
0.576535
0.576544
0.576554
0.576564
0.576574
0.576574
0.576583
0.576593
0.576603
0.576613
0.576613
0.576622
0.576632
0.576642
0.576652
0.576652
0.576662
0.576671
0.576681
0.576691
0.576691
0.576701
0.576711
0.576721
0.576731
0.576731
0.576741
0.576751
0.576761
0.576771
0.576771
0.576781
0.576791
0.576801
0.576811
0.576811
0.576821
0.576831
0.576841
0.576851
0.576851
0.576861
0.576871
0.576881
0.576891
0.576891
0.576901
0.576911
0.576921
0.576932
0.576932
0.576942
0.576952
0.576962
0.576972
0.576972
0.576983
0.576993
0.577003
0.577013
0.577013
0.577024
0.577034
0.577044
0.577054
0.577054
0.577065
0.577075
0.577085
0.577096
0.577096
0.577106
0.577117
0.577127
0.577137
0.577137
0.577148
0.577158
0.577169
0.577179
0.577179