<?xml version="1.0"?>
<VTKFile type="UnstructuredGrid" version="0.1" byte_order="LittleEndian">
<UnstructuredGrid>
<Piece NumberOfPoints="5000" NumberOfCells="4000">
<PointData Scalars="Reaction 0">
<DataArray type="Float32" Name="Reaction 0" format="ascii">
0.567994
0.567994
0.567994
0.567994
0.567994
0.567994
0.567994
0.567994
0.567994
0.567994
0.567994
0.567994
0.567995
0.567995
0.567995
0.567995
0.567995
0.567995
0.567995
0.567995
0.567995
0.567995
0.567995
0.567995
0.567995
0.567995
0.567995
0.567995
0.567995
0.567995
0.567995
0.567995
0.567995
0.567995
0.567995
0.567995
0.567995
0.567995
0.567995
0.567995
0.567995
0.567995
0.567995
0.567995
0.567995
0.567995
0.567995
0.567995
0.567995
0.567995
0.567995
0.567995
0.567996
0.567996
0.567996
0.567996
0.567996
0.567996
0.567996
0.567996
0.567996
0.567996
0.567996
0.567996
0.567996
0.567996
0.567996
0.567996
0.567996
0.567996
0.567996
0.567996
0.567996
0.567997
0.567997
0.567997
0.567997
0.567997
0.567997
0.567997
0.567997
0.567997
0.567997
0.567997
0.567997
0.567997
0.567997
0.567997
0.567997
0.567998
0.567998
0.567998
0.567998
0.567998
0.567998
0.567998
0.567998
0.567998
0.567998
0.567998
0.567998
0.567998
0.567999
0.567999
0.567999
0.567999
0.567999
0.567999
0.567999
0.567999
0.567999
0.567999
0.567999
0.567999
0.568
0.568
0.568
0.568
0.568
0.568
0.568
0.568
0.568
0.568
0.568
0.568
0.568001
0.568001
0.568001
0.568001
0.568001
0.568001
0.568001
0.568001
0.568001
0.568001
0.568002
0.568002
0.568002
0.568002
0.568002
0.568002
0.568002
0.568002
0.568003
0.568003
0.568003
0.568003
0.568003
0.568003
0.568003
0.568003
0.568003
0.568004
0.568004
0.568004
0.568004
0.568004
0.568004
0.568004
0.568004
0.568005
0.568005
0.568005
0.568005
0.568005
0.568005
0.568005
0.568005
0.568006
0.568006
0.568006
0.568006
0.568006
0.568006
0.568006
0.568006
0.568007
0.568007
0.568007
0.568007
0.568007
0.568007
0.568008
0.568008
0.568008
0.568008
0.568008
0.568008
0.568008
0.568008
0.568009
0.568009
0.568009
0.568009
0.568009
0.568009
0.56801
0.56801
0.56801
0.56801
0.56801
0.56801
0.568011
0.568011
0.568011
0.568011
0.568011
0.568011
0.568011
0.568011
0.568012
0.568012
0.568012
0.568012
0.568012
0.568013
0.568013
0.568013
0.568013
0.568013
0.568013
0.568014
0.568014
0.568014
0.568014
0.568014
0.568014
0.568015
0.568015
0.568015
0.568015
0.568015
0.568016
0.568016
0.568016
0.568016
0.568016
0.568017
0.568017
0.568017
0.568017
0.568017
0.568017
0.568018
0.568018
0.568018
0.568018
0.568018
0.568019
0.568019
0.568019
0.568019
0.568019
0.56802
0.56802
0.56802
0.56802
0.56802
0.568021
0.568021
0.568021
0.568021
0.568021
0.568022
0.568022
0.568022
0.568022
0.568022
0.568023
0.568023
0.568023
0.568023
0.568023
0.568024
0.568024
0.568024
0.568024
0.568025
0.568025
0.568025
0.568025
0.568025
0.568026
0.568026
0.568026
0.568026
0.568026
0.568027
0.568027
0.568027
0.568027
0.568028
0.568028
0.568028
0.568028
0.568028
0.568029
0.568029
0.568029
0.568029
0.56803
0.56803
0.56803
0.568031
0.568031
0.568031
0.568031
0.568031
0.568032
0.568032
0.568032
0.568032
0.568033
0.568033
0.568033
0.568033
0.568034
0.568034
0.568034
0.568034
0.568034
0.568035
0.568035
0.568035
0.568035
0.568036
0.568036
0.568036
0.568037
0.568037
0.568037
0.568037
0.568038
0.568038
0.568038
0.568038
0.568039
0.568039
0.568039
0.568039
0.56804
0.56804
0.56804
0.568041
0.568041
0.568041
0.568041
0.568042
0.568042
0.568042
0.568042
0.568043
0.568043
0.568043
0.568043
0.568044
0.568044
0.568044
0.568045
0.568045
0.568045
0.568045
0.568046
0.568046
0.568046
0.568047
0.568047
0.568047
0.568048
0.568048
0.568048
0.568048
0.568049
0.568049
0.568049
0.568049
0.56805
0.56805
0.568051
0.568051
0.568051
0.568051
0.568052
0.568052
0.568052
0.568052
0.568053
0.568053
0.568054
0.568054
0.568054
0.568054
0.568055
0.568055
0.568055
0.568055
0.568056
0.568056
0.568057
0.568057
0.568057
0.568057
0.568058
0.568058
0.568058
0.568059
0.568059
0.568059
0.56806
0.56806
0.56806
0.568061
0.568061
0.568061
0.568061
0.568062
0.568062
0.568063
0.568063
0.568063
0.568063
0.568064
0.568064
0.568065
0.568065
0.568065
0.568066
0.568066
0.568066
0.568066
0.568067
0.568067
0.568068
0.568068
0.568068
0.568069
0.568069
0.568069
0.56807
0.56807
0.56807
0.568071
0.568071
0.568072
0.568072
0.568072
0.568072
0.568073
0.568073
0.568073
0.568074
0.568074
0.568075
0.568075
0.568075
0.568076
0.568076
0.568076
0.568077
0.568077
0.568077
0.568078
0.568078
0.568079
0.568079
0.568079
0.56808
0.56808
0.568081
0.568081
0.568081
0.568081
0.568082
0.568082
0.568082
0.568083
0.568083
0.568084
0.568084
0.568084
0.568085
0.568085
0.568086
0.568086
0.568086
0.568087
0.568087
0.568088
0.568088
0.568088
0.568089
0.568089
0.56809
0.56809
0.56809
0.568091
0.568091
0.568092
0.568092
0.568092
0.568093
0.568093
0.568093
0.568094
0.568094
0.568094
0.568095
0.568095
0.568096
0.568096
0.568096
0.568097
0.568097
0.568098
0.568098
0.568099
0.568099
0.5681
0.5681
0.5681
0.568101
0.568101
0.568102
0.568102
0.568102
0.568103
0.568103
0.568104
0.568104
0.568104
0.568105
0.568105
0.568106
0.568106
0.568106
0.568107
0.568107
0.568108
0.568108
0.568108
0.568109
0.568109
0.56811
0.568111
0.568111
0.568111
0.568112
0.568112
0.568113
0.568113
0.568113
0.568114
0.568114
0.568115
0.568115
0.568115
0.568116
0.568117
0.568117
0.568117
0.568118
0.568118
0.568119
0.568119
0.568119
0.56812
0.568121
0.568121
0.568122
0.568122
0.568122
0.568123
0.568123
0.568124
0.568124
0.568124
0.568125
0.568126
0.568126
0.568126
0.568127
0.568127
0.568128
0.568129
0.568129
0.568129
0.56813
0.56813
0.568131
0.568131
0.568131
0.568132
0.568133
0.568133
0.568133
0.568134
0.568134
0.568135
0.568136
0.568136
0.568136
0.568137
0.568137
0.568138
0.568138
0.568139
0.568139
0.56814
0.56814
0.56814
0.568141
0.568142
0.568142
0.568143
0.568143
0.568143
0.568144
0.568145
0.568145
0.568145
0.568146
0.568146
0.568147
0.568148
0.568148
0.568148
0.568149
0.56815
0.56815
0.56815
0.568151
0.568151
0.568152
0.568153
0.568153
0.568153
0.568154
0.568155
0.568155
0.568155
0.568156
0.568157
0.568157
0.568158
0.568158
0.568159
0.568159
0.56816
0.56816
0.56816
0.568161
0.568162
0.568162
0.568163
0.568163
0.568164
0.568164
0.568165
0.568166
0.568166
0.568166
0.568167
0.568168
0.568168
0.568168
0.568169
0.56817
0.56817
0.568171
0.568171
0.568172
0.568172
0.568173
0.568174
0.568174
0.568174
0.568175
0.568176
0.568176
0.568176
0.568177
0.568178
0.568178
0.568179
0.568179
0.56818
0.568181
0.568181
0.568182
0.568182
0.568183
0.568183
0.568184
0.568185
0.568185
0.568185
0.568186
0.568187
0.568188
0.568188
0.568188
0.568189
0.56819
0.56819
0.56819
0.568191
0.568192
0.568192
0.568193
0.568193
0.568194
0.568195
0.568195
0.568196
0.568196
0.568197
0.568197
0.568198
0.568199
0.568199
0.5682
0.5682
0.568201
0.568202
0.568202
0.568203
0.568203
0.568204
0.568205
0.568205
0.568205
0.568206
0.568207
0.568208
0.568208
0.568208
0.568209
0.56821
0.568211
0.568211
0.568211
0.568212
0.568213
0.568214
0.568214
0.568214
0.568215
0.568216
0.568217
0.568217
0.568217
0.568218
0.568219
0.56822
0.56822
0.568221
0.568221
0.568222
0.568223
0.568223
0.568224
0.568224
0.568225
0.568226
0.568226
0.568227
0.568227
0.568228
0.568229
0.568229
0.56823
0.568231
0.568231
0.568232
0.568232
0.568233
0.568234
0.568235
0.568235
0.568235
0.568236
0.568237
0.568238
0.568238
0.568238
0.568239
0.56824
0.568241
0.568242
0.568242
0.568242
0.568243
0.568244
0.568245
0.568245
0.568246
0.568246
0.568247
0.568248
0.568248
0.568249
0.56825
0.568251
0.568251
0.568251
0.568252
0.568253
0.568254
0.568255
0.568255
0.568255
0.568256
0.568257
0.568258
0.568258
0.568259
0.56826
0.56826
0.568261
0.568261
0.568262
0.568263
0.568264
0.568265
0.568265
0.568266
0.568266
0.568267
0.568268
0.568268
0.568269
0.56827
0.568271
0.568271
0.568271
0.568272
0.568273
0.568274
0.568275
0.568275
0.568276
0.568277
0.568277
0.568278
0.568278
0.568279
0.56828
0.568281
0.568282
0.568282
0.568283
0.568284
0.568284
0.568285
0.568285
0.568286
0.568287
0.568288
0.568289
0.568289
0.56829
0.568291
0.568291
0.568292
0.568292
0.568293
0.568294
0.568295
0.568296
0.568296
0.568297
0.568298
0.568298
0.568299
0.568299
0.5683
0.568301
0.568302
0.568303
0.568303
0.568304
0.568305
0.568306
0.568307
0.568307
0.568308
0.568308
0.568309
0.56831
0.56831
0.568311
0.568312
0.568313
0.568314
0.568314
0.568315
0.568316
0.568317
0.568318
0.568318
0.568319
0.56832
0.568321
0.568321
0.568321
0.568322
0.568323
0.568324
0.568325
0.568325
0.568326
0.568327
0.568328
0.568329
0.568329
0.56833
0.568331
0.568332
0.568333
0.568333
0.568334
0.568335
0.568336
0.568337
0.568337
0.568337
0.568338
0.568339
0.56834
0.56834
0.568341
0.568342
0.568343
0.568344
0.568344
0.568345
0.568346
0.568347
0.568348
0.568348
0.568349
0.56835
0.568351
0.568352
0.568352
0.568353
0.568354
0.568355
0.568356
0.568356
0.568357
0.568358
0.568359
0.56836
0.56836
0.568361
0.568362
0.568363
0.568364
0.568364
0.568365
0.568366
0.568367
0.568368
0.568368
0.568369
0.56837
0.568371
0.568372
0.568372
0.568373
0.568374
0.568375
0.568376
0.568376
0.568377
0.568378
0.568379
0.56838
0.56838
0.568381
0.568382
0.568383
0.568384
0.568384
0.568385
0.568386
0.568387
0.568388
0.568388
0.568389
0.56839
0.568391
0.568392
0.568392
0.568393
0.568394
0.568396
0.568397
0.568397
0.568398
0.568399
0.5684
0.568401
0.568401
0.568402
0.568403
0.568404
0.568405
0.568405
0.568406
0.568407
0.568408
0.568409
0.568409
0.56841
0.568411
0.568412
0.568413
0.568413
0.568415
0.568416
0.568417
0.568418
0.568418
0.568419
0.56842
0.568421
0.568422
0.568422
0.568423
0.568424
0.568425
0.568426
0.568426
0.568428
0.568429
0.56843
0.568431
0.568431
0.568432
0.568433
0.568434
0.568435
0.568435
0.568436
0.568437
0.568439
0.56844
0.56844
0.568441
0.568442
0.568443
0.568444
0.568444
0.568445
0.568446
0.568447
0.568449
0.568449
0.56845
0.568451
0.568452
0.568453
0.568453
0.568454
0.568455
0.568456
0.568458
0.568458
0.568459
0.56846
0.568461
0.568462
0.568462
0.568463
0.568464
0.568466
0.568467
0.568467
0.568468
0.568469
0.56847
0.568471
0.568471
0.568472
0.568474
0.568475
0.568476
0.568476
0.568477
0.568478
0.568479
0.568481
0.568481
0.568482
0.568483
0.568484
0.568485
0.568485
0.568486
0.568488
0.568489
0.56849
0.56849
0.568491
0.568492
0.568493
0.568495
0.568495
0.568496
0.568497
0.568498
0.568499
0.568499
0.568501
0.568502
0.568503
0.568504
0.568504
0.568505
0.568506
0.568508
0.568509
0.568509
0.56851
0.568511
0.568512
0.568514
0.568514
0.568515
0.568516
0.568517
0.568519
0.568519
0.56852
0.568521
0.568522
0.568523
0.568523
0.568525
0.568526
0.568527
0.568528
0.568528
0.56853
0.568531
0.568532
0.568533
0.568533
0.568535
0.568536
0.568537
0.568538
0.568538
0.56854
0.568541
0.568542
0.568543
0.568543
0.568544
0.568546
0.568547
0.568548
0.568548
0.568549
0.568551
0.568552
0.568553
0.568553
0.568554
0.568556
0.568557
0.568558
0.568558
0.56856
0.568561
0.568562
0.568563
0.568563
0.568565
0.568566
0.568567
0.568568
0.568568
0.56857
0.568571
0.568572
0.568574
0.568574
0.568575
0.568576
0.568577
0.568579
0.568579
0.56858
0.568581
0.568583
0.568584
0.568584
0.568585
0.568587
0.568588
0.568589
0.568589
0.568591
0.568592
0.568593
0.568594
0.568594
0.568596
0.568597
0.568598
0.5686
0.5686
0.568601
0.568602
0.568604
0.568605
0.568605
0.568606
0.568608
0.568609
0.56861
0.56861
0.568612
0.568613
0.568614
0.568616
0.568616
0.568617
0.568618
0.56862
0.568621
0.568621
0.568622
0.568624
0.568625
0.568626
0.568626
0.568628
0.568629
0.568631
0.568632
0.568632
0.568633
0.568635
0.568636
0.568637
0.568637
0.568639
0.56864
0.568641
0.568643
0.568643
0.568644
0.568646
0.568647
0.568648
0.568648
0.56865
0.568651
0.568653
0.568654
0.568654
0.568655
0.568657
0.568658
0.568659
0.568659
0.568661
0.568662
0.568664
0.568665
0.568665
0.568666
0.568668
0.568669
0.568671
0.568671
0.568672
0.568673
0.568675
0.568676
0.568676
0.568678
0.568679
0.568681
0.568682
0.568682
0.568683
0.568685
0.568686
0.568688
0.568688
0.568689
0.568691
0.568692
0.568693
0.568693
0.568695
0.568696
0.568698
0.568699
0.568699
0.568701
0.568702
0.568704
0.568705
0.568705
0.568707
0.568708
0.568709
0.568711
0.568711
0.568712
0.568714
0.568715
0.568717
0.568717
0.568718
0.56872
0.568721
0.568723
0.568723
0.568724
0.568725
0.568727
0.568728
0.568728
0.56873
0.568731
0.568733
0.568734
0.568734
0.568736
0.568737
0.568739
0.56874
0.56874
0.568742
0.568743
0.568745
0.568746
0.568746
0.568748
0.568749
0.568751
0.568752
0.568752
0.568754
0.568755
0.568757
0.568758
0.568758
0.56876
0.568762
0.568763
0.568765
0.568765
0.568766
0.568768
0.568769
0.568771
0.568771
0.568772
0.568774
0.568775
0.568777
0.568777
0.568778
0.56878
0.568781
0.568783
0.568783
0.568784
0.568786
0.568788
0.568789
0.568789
0.568791
0.568792
0.568794
0.568795
0.568795
0.568797
0.568798
0.5688
0.568802
0.568802
0.568803
0.568805
0.568806
0.568808
0.568808
0.56881
0.568811
0.568813
0.568814
0.568814
0.568816
0.568817
0.568819
0.568821
0.568821
0.568822
0.568824
0.568825
0.568827
0.568827
0.568829
0.56883
0.568832
0.568833
0.568833
0.568835
0.568837
0.568838
0.56884
0.56884
0.568841
0.568843
0.568845
0.568846
0.568846
0.568848
0.568849
0.568851
0.568853
0.568853
0.568854
0.568856
0.568858
0.568859
0.568859
0.568861
0.568863
0.568864
0.568866
0.568866
0.568868
0.568869
0.568871
0.568872
0.568872
0.568874
0.568876
0.568877
0.568879
0.568879
0.568881
0.568882
0.568884
0.568886
0.568886
0.568887
0.568889
0.568891
0.568892
0.568892
0.568894
0.568896
0.568897
0.568899
0.568899
0.568901
0.568902
0.568904
0.568906
0.568906
0.568907
0.568909
0.568911
0.568913
0.568913
0.568914
0.568916
0.568918
0.568919
0.568919
0.568921
0.568923
0.568925
0.568926
0.568926
0.568928
0.56893
0.568931
0.568933
0.568933
0.568935
0.568937
0.568938
0.56894
0.56894
0.568942
0.568944
0.568945
0.568947
0.568947
0.568949
0.56895
0.568952
0.568954
0.568954
0.568956
0.568957
0.568959
0.568961
0.568961
0.568963
0.568964
0.568966
0.568968
0.568968
0.56897
0.568971
0.568973
0.568975
0.568975
0.568977
0.568979
0.56898
0.568982
0.568982
0.568984
0.568986
0.568987
0.568989
0.568989
0.568991
0.568993
0.568995
0.568996
0.568996
0.568998
0.569
0.569002
0.569004
0.569004
0.569005
0.569007
0.569009
0.569011
0.569011
0.569013
0.569014
0.569016
0.569018
0.569018
0.56902
0.569022
0.569023
0.569025
0.569025
0.569027
0.569029
0.569031
0.569033
0.569033
0.569034
0.569036
0.569038
0.56904
0.56904
0.569042
0.569044
0.569046
0.569047
0.569047
0.569049
0.569051
0.569053
0.569055
0.569055
0.569057
0.569059
0.56906
0.569062
0.569062
0.569064
0.569066
0.569068
0.56907
0.56907
0.569072
0.569074
0.569075
0.569077
0.569077
0.569079
0.569081
0.569083
0.569085
0.569085
0.569087
0.569089
0.56909
0.569092
0.569092
0.569094
0.569096
0.569098
0.5691
0.5691
0.569102
0.569104
0.569106
0.569108
0.569108
0.56911
0.569112
0.569113
0.569115
0.569115
0.569117
0.569119
0.569121
0.569123
0.569123
0.569125
0.569127
0.569129
0.569131
0.569131
0.569133
0.569135
0.569137
0.569139
0.569139
0.569141
0.569143
0.569144
0.569146
0.569146
0.569148
0.56915
0.569152
0.569154
0.569154
0.569156
0.569158
0.56916
0.569162
0.569162
0.569164
0.569166
0.569168
0.56917
0.56917
0.569172
0.569174
0.569176
0.569178
0.569178
0.56918
0.569182
0.569184
0.569186
0.569186
0.569188
0.56919
0.569192
0.569194
0.569194
0.569196
0.569198
0.5692
0.569202
0.569202
0.569204
0.569206
0.569208
0.56921
0.56921
0.569212
0.569214
0.569216
0.569218
0.569218
0.56922
0.569223
0.569225
0.569227
0.569227
0.569229
0.569231
0.569233
0.569235
0.569235
0.569237
0.569239
0.569241
0.569243
0.569243
0.569245
0.569247
0.569249
0.569251
0.569251
0.569253
0.569256
0.569258
0.56926
0.56926
0.569262
0.569264
0.569266
0.569268
0.569268
0.56927
0.569272
0.569274
0.569276
0.569276
0.569279
0.569281
0.569283
0.569285
0.569285
0.569287
0.569289
0.569291
0.569293
0.569293
0.569296
0.569298
0.5693
0.569302
0.569302
0.569304
0.569306
0.569308
0.56931
0.56931
0.569313
0.569315
0.569317
0.569319
0.569319
0.569321
0.569323
0.569325
0.569328
0.569328
0.56933
0.569332
0.569334
0.569336
0.569336
0.569338
0.569341
0.569343
0.569345
0.569345
0.569347
0.569349
0.569351
0.569354
0.569354
0.569356
0.569358
0.56936
0.569362
0.569362
0.569365
0.569367
0.569369
0.569371
0.569371
0.569373
0.569376
0.569378
0.56938
0.56938
0.569382
0.569385
0.569387
0.569389
0.569389
0.569391
0.569393
0.569396
0.569398
0.569398
0.5694
0.569402
0.569405
0.569407
0.569407
0.569409
0.569411
0.569414
0.569416
0.569416
0.569418
0.56942
0.569423
0.569425
0.569425
0.569427
0.569429
0.569432
0.569434
0.569434
0.569436
0.569439
0.569441
0.569443
0.569443
0.569445
0.569448
0.56945
0.569452
0.569452
0.569454
0.569457
0.569459
0.569461
0.569461
0.569464
0.569466
0.569468
0.569471
0.569471
0.569473
0.569475
0.569478
0.56948
0.56948
0.569482
0.569485
0.569487
0.569489
0.569489
0.569492
0.569494
0.569496
0.569499
0.569499
0.569501
0.569503
0.569506
0.569508
0.569508
0.56951
0.569513
0.569515
0.569517
0.569517
0.56952
0.569522
0.569524
0.569527
0.569527
0.569529
0.569532
0.569534
0.569536
0.569536
0.569539
0.569541
0.569543
0.569546
0.569546
0.569548
0.569551
0.569553
0.569555
0.569555
0.569558
0.56956
0.569563
0.569565
0.569565
0.569568
0.56957
0.569572
0.569575
0.569575
0.569577
0.56958
0.569582
0.569585
0.569585
0.569587
0.569589
0.569592
0.569594
0.569594
0.569597
0.569599
0.569602
0.569604
0.569604
0.569606
0.569609
0.569611
0.569614
0.569614
0.569616
0.569619
0.569621
0.569624
0.569624
0.569626
0.569629
0.569631
0.569634
0.569634
0.569636
0.569639
0.569641
0.569644
0.569644
0.569646
0.569649
0.569651
0.569654
0.569654
0.569656
0.569659
0.569661
0.569664
0.569664
0.569666
0.569669
0.569671
0.569674
0.569674
0.569676
0.569679
0.569681
0.569684
0.569684
0.569686
0.569689
0.569692
0.569694
0.569694
0.569697
0.569699
0.569702
0.569704
0.569704
0.569707
0.569709
0.569712
0.569715
0.569715
0.569717
0.56972
0.569722
0.569725
0.569725
0.569727
0.56973
0.569733
0.569735
0.569735
0.569738
0.56974
0.569743
0.569746
0.569746
0.569748
0.569751
0.569753
0.569756
0.569756
0.569759
0.569761
0.569764
0.569767
0.569767
0.569769
0.569772
0.569774
0.569777
0.569777
0.56978
0.569782
0.569785
0.569788
0.569788
0.56979
0.569793
0.569796
0.569798
0.569798
0.569801
0.569804
0.569806
0.569809
0.569809
0.569812
0.569814
0.569817
0.56982
0.56982
0.569822
0.569825
0.569828
0.56983
0.56983
0.569833
0.569836
0.569839
0.569841
0.569841
0.569844
0.569847
0.569849
0.569852
0.569852
0.569855
0.569857
0.56986
0.569863
0.569863
0.569866
0.569868
0.569871
0.569874
0.569874
0.569877
0.569879
0.569882
0.569885
0.569885
0.569888
0.56989
0.569893
0.569896
0.569896
0.569899
0.569901
0.569904
0.569907
0.569907
0.56991
0.569913
0.569915
0.569918
0.569918
0.569921
0.569924
0.569926
0.569929
0.569929
0.569932
0.569935
0.569938
0.56994
0.56994
0.569943
0.569946
0.569949
0.569952
0.569952
0.569954
0.569957
0.56996
0.569963
0.569963
0.569966
0.569969
0.569972
0.569974
0.569974
0.569977
0.56998
0.569983
0.569986
0.569986
0.569989
0.569991
0.569994
0.569997
0.569997
0.57
0.570003
0.570006
0.570009
0.570009
0.570012
0.570014
0.570017
0.57002
0.57002
0.570023
0.570026
0.570029
0.570032
0.570032
0.570035
0.570038
0.570041
0.570043
0.570043
0.570046
0.570049
0.570052
0.570055
0.570055
0.570058
0.570061
0.570064
0.570067
0.570067
0.57007
0.570073
0.570076
0.570079
0.570079
0.570082
0.570085
0.570088
0.570091
0.570091
0.570093
0.570096
0.570099
0.570102
0.570102
0.570105
0.570108
0.570111
0.570114
0.570114
0.570117
0.57012
0.570123
0.570126
0.570126
0.570129
0.570132
0.570135
0.570138
0.570138
0.570141
0.570144
0.570147
0.57015
0.57015
0.570154
0.570157
0.57016
0.570163
0.570163
0.570166
0.570169
0.570172
0.570175
0.570175
0.570178
0.570181
0.570184
0.570187
0.570187
0.57019
0.570193
0.570196
0.570199
0.570199
0.570202
0.570206
0.570209
0.570212
0.570212
0.570215
0.570218
0.570221
0.570224
0.570224
0.570227
0.57023
0.570233
0.570237
0.570237
0.57024
0.570243
0.570246
0.570249
0.570249
0.570252
0.570255
0.570258
0.570262
0.570262
0.570265
0.570268
0.570271
0.570274
0.570274
0.570277
0.570281
0.570284
0.570287
0.570287
0.57029
0.570293
0.570296
0.5703
0.5703
0.570303
0.570306
0.570309
0.570312
0.570312
0.570316
0.570319
0.570322
0.570325
0.570325
0.570328
0.570332
0.570335
0.570338
0.570338
0.570341
0.570344
0.570348
0.570351
0.570351
0.570354
0.570357
0.570361
0.570364
0.570364
0.570367
0.57037
0.570374
0.570377
0.570377
0.57038
0.570383
0.570387
0.57039
0.57039
0.570393
0.570397
0.5704
0.570403
0.570403
0.570406
0.57041
0.570413
0.570416
0.570416
0.57042
0.570423
0.570426
0.57043
0.57043
0.570433
0.570436
0.57044
0.570443
0.570443
0.570446
0.57045
0.570453
0.570456
0.570456
0.57046
0.570463
0.570466
0.57047
0.57047
0.570473
0.570476
0.57048
0.570483
0.570483
0.570487
0.57049
0.570493
0.570497
0.570497
0.5705
0.570504
0.570507
0.57051
0.57051
0.570514
0.570517
0.570521
0.570524
0.570524
0.570527
0.570531
0.570534
0.570538
0.570538
0.570541
0.570545
0.570548
0.570551
0.570551
0.570555
0.570558
0.570562
0.570565
0.570565
0.570569
0.570572
0.570576
0.570579
0.570579
0.570583
0.570586
0.57059
0.570593
0.570593
0.570597
0.5706
0.570604
0.570607
0.570607
0.570611
0.570614
0.570618
0.570621
0.570621
0.570625
0.570628
0.570632
0.570635
0.570635
0.570639
0.570642
0.570646
0.570649
0.570649
0.570653
0.570657
0.57066
0.570664
0.570664
0.570667
0.570671
0.570674
0.570678
0.570678
0.570682
0.570685
0.570689
0.570692
0.570692
0.570696
0.5707
0.570703
0.570707
0.570707
0.57071
0.570714
0.570718
0.570721
0.570721
0.570725
0.570728
0.570732
0.570736
0.570736
0.570739
0.570743
0.570747
0.57075
0.57075
0.570754
0.570758
0.570761
0.570765
0.570765
0.570769
0.570772
0.570776
0.57078
0.57078
0.570783
0.570787
0.570791
0.570794
0.570794
0.570798
0.570802
0.570806
0.570809
0.570809
0.570813
0.570817
0.570821
0.570824
0.570824
0.570828
0.570832
0.570835
0.570839
0.570839
0.570843
0.570847
0.57085
0.570854
0.570854
0.570858
0.570862
0.570866
0.570869
0.570869
0.570873
0.570877
0.570881
0.570884
0.570884
0.570888
0.570892
0.570896
0.5709
0.5709
0.570904
0.570907
0.570911
0.570915
0.570915
0.570919
0.570923
0.570927
0.57093
0.57093
0.570934
0.570938
0.570942
0.570946
0.570946
0.57095
0.570953
0.570957
0.570961
0.570961
0.570965
0.570969
0.570973
0.570977
0.570977
0.570981
0.570985
0.570988
0.570992
0.570992
0.570996
0.571
0.571004
0.571008
0.571008
0.571012
0.571016
0.57102
0.571024
0.571024
0.571028
0.571032
0.571036
0.57104
0.57104
0.571044
0.571048
0.571051
0.571055
0.571055
0.571059
0.571063
0.571067
0.571071
0.571071
0.571075
0.571079
0.571083
0.571087
0.571087
0.571091
0.571095
0.5711
0.571104
0.571104
0.571108
0.571112
0.571116
0.57112
0.57112
0.571124
0.571128
0.571132
0.571136
0.571136
0.57114
0.571144
0.571148
0.571152
0.571152
0.571156
0.57116
0.571164
0.571169
0.571169
0.571173
0.571177
0.571181
0.571185
0.571185
0.571189
0.571193
0.571197
0.571201
0.571201
0.571206
0.57121
0.571214
0.571218
0.571218
0.571222
0.571226
0.57123
0.571235
0.571235
0.571239
0.571243
0.571247
0.571251
0.571251
0.571256
0.57126
0.571264
0.571268
0.571268
0.571272
0.571277
0.571281
0.571285
0.571285
0.571289
0.571293
0.571298
0.571302
0.571302
0.571306
0.57131
0.571315
0.571319
0.571319
0.571323
0.571327
0.571332
0.571336
0.571336
0.57134
0.571344
0.571349
0.571353
0.571353
0.571357
0.571362
0.571366
0.57137
0.57137
0.571375
0.571379
0.571383
0.571387
0.571387
0.571392
0.571396
0.5714
0.571405
0.571405
0.571409
0.571414
0.571418
0.571422
0.571422
0.571427
0.571431
0.571435
0.57144
0.57144
0.571444
0.571449
0.571453
0.571457
0.571457
0.571462
0.571466
0.571471
0.571475
0.571475
0.571479
0.571484
0.571488
0.571493
0.571493
0.571497
0.571502
0.571506
0.571511
0.571511
0.571515
0.571519
0.571524
0.571528
0.571528
0.571533
0.571537
0.571542
0.571546
0.571546
0.571551
0.571555
0.57156
0.571564
0.571564
0.571569
0.571573
0.571578
0.571582
0.571582
0.571587
0.571592
0.571596
0.571601
0.571601
0.571605
0.57161
0.571614
0.571619
0.571619
0.571624
0.571628
0.571633
0.571637
0.571637
0.571642
0.571646
0.571651
0.571656
0.571656
0.57166
0.571665
0.57167
0.571674
0.571674
0.571679
0.571683
0.571688
0.571693
0.571693
0.571697
0.571702
0.571707
0.571711
0.571711
0.571716
0.571721
0.571725
0.57173
0.57173
0.571735
0.57174
0.571744
0.571749
0.571749
0.571754
0.571758
0.571763
0.571768
0.571768
0.571773
0.571777
0.571782
0.571787
0.571787
0.571792
0.571796
0.571801
0.571806
0.571806
0.571811
0.571816
0.57182
0.571825
0.571825
0.57183
0.571835
0.571839
0.571844
0.571844
0.571849
0.571854
0.571859
0.571864
0.571864
0.571868
0.571873
0.571878
0.571883
0.571883
0.571888
0.571893
0.571898
0.571902
0.571902
0.571907
0.571912
0.571917
0.571922
0.571922
0.571927
0.571932
0.571937
0.571942
0.571942
0.571947
0.571952
0.571956
0.571961
0.571961
0.571966
0.571971
0.571976
0.571981
0.571981
0.571986
0.571991
0.571996
0.572001
0.572001
0.572006
0.572011
0.572016
0.572021
0.572021
0.572026
0.572031
0.572036
0.572041
0.572041
0.572046
0.572051
0.572056
0.572061
0.572061
0.572066
0.572071
0.572077
0.572082
0.572082
0.572087
0.572092
0.572097
0.572102
0.572102
0.572107
0.572112
0.572117
0.572122
0.572122
0.572127
0.572133
0.572138
0.572143
0.572143
0.572148
0.572153
0.572158
0.572163
0.572163
0.572169
0.572174
0.572179
0.572184
0.572184
0.572189
0.572195
0.5722
0.572205
0.572205
0.57221
0.572215
0.572221
0.572226
0.572226
0.572231
0.572236
0.572241
0.572247
0.572247
0.572252
0.572257
0.572263
0.572268
0.572268
0.572273
0.572278
0.572284
0.572289
0.572289
0.572294
0.5723
0.572305
0.57231
0.57231
0.572316
0.572321
0.572326
0.572332
0.572332
0.572337
0.572342
0.572348
0.572353
0.572353
0.572358
0.572364
0.572369
0.572374
0.572374
0.57238
0.572385
0.572391
0.572396
0.572396
0.572402
0.572407
0.572412
0.572418
0.572418
0.572423
0.572429
0.572434
0.57244
0.57244
0.572445
0.572451
0.572456
0.572461
0.572461
0.572467
0.572472
0.572478
0.572484
0.572484
0.572489
0.572495
0.5725
0.572506
0.572506
0.572511
0.572517
0.572522
0.572528
0.572528
0.572533
0.572539
0.572544
0.57255
0.57255
0.572556
0.572561
0.572567
0.572572
0.572572
0.572578
0.572584
0.572589
0.572595
0.572595
0.572601
0.572606
0.572612
0.572617
0.572617
0.572623
0.572629
0.572634
0.57264
0.57264
0.572646
0.572652
0.572657
0.572663
0.572663
0.572669
0.572674
0.57268
0.572686
0.572686
0.572692
0.572697
0.572703
0.572709
0.572709
0.572715
0.57272
0.572726
0.572732
0.572732
0.572738
0.572743
0.572749
0.572755
0.572755
0.572761
0.572767
0.572773
0.572778
0.572778
0.572784
0.57279
0.572796
0.572802
0.572802
0.572808
0.572813
0.572819
0.572825
0.572825
0.572831
0.572837
0.572843
0.572849
0.572849
0.572855
0.572861
0.572867
0.572873
0.572873
0.572878
0.572884
0.57289
0.572896
0.572896
0.572902
0.572908
0.572914
0.57292
0.57292
0.572926
0.572932
0.572938
0.572944
0.572944
0.57295
0.572956
0.572962
0.572968
0.572968
0.572974
0.572981
0.572987
0.572993
0.572993
0.572999
0.573005
0.573011
0.573017
0.573017
0.573023
0.573029
0.573035
0.573041
0.573041
0.573048
0.573054
0.57306
0.573066
0.573066
0.573072
0.573078
0.573084
0.573091
0.573091
0.573097
0.573103
0.573109
0.573115
0.573115
0.573122
0.573128
0.573134
0.57314
0.57314
0.573147
0.573153
0.573159
0.573165
0.573165
0.573172
0.573178
0.573184
0.57319
0.57319
0.573197
0.573203
0.573209
0.573216
0.573216
0.573222
0.573228
0.573235
0.573241
0.573241
0.573247
0.573254
0.57326
0.573266
0.573266
0.573273
0.573279
0.573286
0.573292
0.573292
0.573298
0.573305
0.573311
0.573318
0.573318
0.573324
0.573331
0.573337
0.573344
0.573344
0.57335
0.573356
0.573363
0.573369
0.573369
0.573376
0.573382
0.573389
0.573395
0.573395
0.573402
0.573408
0.573415
0.573422
0.573422
0.573428
0.573435
0.573441
0.573448
0.573448
0.573454
0.573461
0.573468
0.573474
0.573474
0.573481
0.573487
0.573494
0.573501
0.573501
0.573507
0.573514
0.573521
0.573527
0.573527
0.573534
0.573541
0.573547
0.573554
0.573554
0.573561
0.573568
0.573574
0.573581
0.573581
0.573588
0.573594
0.573601
0.573608
0.573608
0.573615
0.573621
0.573628
0.573635
0.573635
0.573642
0.573649
0.573655
0.573662
0.573662
0.573669
0.573676
0.573683
0.57369
0.57369
0.573697
0.573703
0.57371
0.573717
0.573717
0.573724
0.573731
0.573738
0.573745
0.573745
0.573752
0.573759
0.573766
0.573772
0.573772
0.573779
0.573786
0.573793
0.5738
0.5738
0.573807
0.573814
0.573821
0.573828
0.573828
0.573835
0.573842
0.573849
0.573856
0.573856
0.573863
0.573871
0.573878
0.573885
0.573885
0.573892
0.573899
0.573906
0.573913
0.573913
0.57392
0.573927
0.573934
0.573942
0.573942
0.573949
0.573956
0.573963
0.57397
0.57397
0.573977
0.573985
0.573992
0.573999
0.573999
0.574006
0.574013
0.574021
0.574028
0.574028
0.574035
0.574042
0.57405
0.574057
0.574057
0.574064
0.574071
0.574079
0.574086
0.574086
0.574093
0.574101
0.574108
0.574115
0.574115
0.574123
0.57413
0.574137
0.574145
0.574145
0.574152
0.574159
0.574167
0.574174
0.574174
0.574182
0.574189
0.574197
0.574204
0.574204
0.574211
0.574219
0.574226
0.574234
0.574234
0.574241
0.574249
0.574256
0.574264
0.574264
0.574271
0.574279
0.574286
0.574294
0.574294
0.574301
0.574309
0.574317
0.574324
0.574324
0.574332
0.574339
0.574347
0.574355
0.574355
0.574362
0.57437
0.574377
0.574385
0.574385
0.574393
0.5744
0.574408
0.574416
0.574416
0.574423
0.574431
0.574439
0.574447
0.574447
0.574454
0.574462
0.57447
0.574477
0.574477
0.574485
0.574493
0.574501
0.574509
0.574509
0.574516
0.574524
0.574532
0.57454
0.57454
0.574548
0.574556
0.574563
0.574571
0.574571
0.574579
0.574587
0.574595
0.574603
0.574603
0.574611
0.574619
0.574627
0.574634
0.574634
0.574642
0.57465
0.574658
0.574666
0.574666
0.574674
0.574682
0.57469
0.574698
0.574698
0.574706
0.574714
0.574722
0.57473
0.57473
0.574738
0.574747
0.574755
0.574763
0.574763
0.574771
0.574779
0.574787
0.574795
0.574795
0.574803
0.574811
0.57482
0.574828
0.574828
0.574836
0.574844
0.574852
0.57486
0.57486
0.574869
0.574877
0.574885
0.574893
0.574893
0.574902
0.57491
0.574918
0.574926
0.574926
0.574935
0.574943
0.574951
0.57496
0.57496
0.574968
0.574976
0.574985
0.574993
0.574993
0.575001
0.57501
0.575018
0.575026
0.575026
0.575035
0.575043
0.575052
0.57506
0.57506
0.575069
0.575077
0.575085
0.575094
0.575094
0.575102
0.575111
0.575119
0.575128
0.575128
0.575136
0.575145
0.575153
0.575162
0.575162
0.575171
0.575179
0.575188
0.575196
0.575196
0.575205
0.575214
0.575222
0.575231
0.575231
0.575239