<?xml version="1.0"?>
<VTKFile type="UnstructuredGrid" version="0.1" byte_order="LittleEndian">
<UnstructuredGrid>
<Piece NumberOfPoints="5000" NumberOfCells="4000">
<PointData Scalars="Reaction 0">
<DataArray type="Float32" Name="Reaction 0" format="ascii">
0.442165
0.442165
0.442165
0.442165
0.442165
0.442165
0.442165
0.442165
0.442166
0.442166
0.442166
0.442166
0.442166
0.442167
0.442167
0.442167
0.442167
0.442168
0.442168
0.442169
0.442169
0.442169
0.44217
0.442171
0.442171
0.442171
0.442172
0.442172
0.442173
0.442174
0.442174
0.442175
0.442176
0.442176
0.442177
0.442177
0.442178
0.442179
0.44218
0.442181
0.442181
0.442182
0.442183
0.442184
0.442185
0.442185
0.442187
0.442188
0.442189
0.44219
0.44219
0.442192
0.442193
0.442194
0.442196
0.442196
0.442197
0.442198
0.4422
0.442201
0.442201
0.442203
0.442205
0.442206
0.442208
0.442208
0.442209
0.442211
0.442213
0.442215
0.442215
0.442216
0.442218
0.44222
0.442222
0.442222
0.442224
0.442226
0.442228
0.44223
0.44223
0.442232
0.442234
0.442236
0.442238
0.442238
0.44224
0.442243
0.442245
0.442247
0.442247
0.44225
0.442252
0.442254
0.442257
0.442257
0.442259
0.442262
0.442264
0.442267
0.442267
0.442269
0.442272
0.442274
0.442277
0.442277
0.44228
0.442282
0.442285
0.442288
0.442288
0.442291
0.442294
0.442296
0.442299
0.442299
0.442302
0.442305
0.442308
0.442311
0.442311
0.442314
0.442318
0.442321
0.442324
0.442324
0.442327
0.44233
0.442334
0.442337
0.442337
0.44234
0.442344
0.442347
0.44235
0.44235
0.442354
0.442357
0.442361
0.442364
0.442364
0.442368
0.442372
0.442375
0.442379
0.442379
0.442383
0.442386
0.44239
0.442394
0.442394
0.442398
0.442402
0.442405
0.442409
0.442409
0.442413
0.442417
0.442421
0.442425
0.442425
0.442429
0.442434
0.442438
0.442442
0.442442
0.442446
0.44245
0.442455
0.442459
0.442459
0.442463
0.442468
0.442472
0.442477
0.442477
0.442481
0.442486
0.44249
0.442495
0.442495
0.442499
0.442504
0.442509
0.442513
0.442513
0.442518
0.442523
0.442528
0.442532
0.442532
0.442537
0.442542
0.442547
0.442552
0.442552
0.442557
0.442562
0.442567
0.442572
0.442572
0.442577
0.442582
0.442587
0.442593
0.442593
0.442598
0.442603
0.442608
0.442614
0.442614
0.442619
0.442625
0.44263
0.442635
0.442635
0.442641
0.442646
0.442652
0.442658
0.442658
0.442663
0.442669
0.442675
0.44268
0.44268
0.442686
0.442692
0.442698
0.442703
0.442703
0.442709
0.442715
0.442721
0.442727
0.442727
0.442733
0.442739
0.442745
0.442751
0.442751
0.442757
0.442764
0.44277
0.442776
0.442776
0.442782
0.442789
0.442795
0.442801
0.442801
0.442808
0.442814
0.44282
0.442827
0.442827
0.442833
0.44284
0.442847
0.442853
0.442853
0.44286
0.442866
0.442873
0.44288
0.44288
0.442887
0.442893
0.4429
0.442907
0.442907
0.442914
0.442921
0.442928
0.442935
0.442935
0.442942
0.442949
0.442956
0.442963
0.442963
0.44297
0.442978
0.442985
0.442992
0.442992
0.442999
0.443007
0.443014
0.443021
0.443021
0.443029
0.443036
0.443044
0.443051
0.443051
0.443059
0.443066
0.443074
0.443081
0.443081
0.443089
0.443097
0.443104
0.443112
0.443112
0.44312
0.443128
0.443136
0.443144
0.443144
0.443151
0.443159
0.443167
0.443175
0.443175
0.443183
0.443191
0.4432
0.443208
0.443208
0.443216
0.443224
0.443232
0.443241
0.443241
0.443249
0.443257
0.443266
0.443274
0.443274
0.443282
0.443291
0.443299
0.443308
0.443308
0.443316
0.443325
0.443334
0.443342
0.443342
0.443351
0.44336
0.443368
0.443377
0.443377
0.443386
0.443395
0.443404
0.443413
0.443413
0.443422
0.44343
0.443439
0.443449
0.443449
0.443458
0.443467
0.443476
0.443485
0.443485
0.443494
0.443503
0.443513
0.443522
0.443522
0.443531
0.443541
0.44355
0.443559
0.443559
0.443569
0.443578
0.443588
0.443597
0.443597
0.443607
0.443617
0.443626
0.443636
0.443636
0.443646
0.443655
0.443665
0.443675
0.443675
0.443685
0.443695
0.443704
0.443714
0.443714
0.443724
0.443734
0.443744
0.443754
0.443754
0.443764
0.443775
0.443785
0.443795
0.443795
0.443805
0.443815
0.443826
0.443836
0.443836
0.443846
0.443857
0.443867
0.443877
0.443877
0.443888
0.443898
0.443909
0.44392
0.44392
0.44393
0.443941
0.443951
0.443962
0.443962
0.443973
0.443984
0.443994
0.444005
0.444005
0.444016
0.444027
0.444038
0.444049
0.444049
0.44406
0.444071
0.444082
0.444093
0.444093
0.444104
0.444115
0.444126
0.444138
0.444138
0.444149
0.44416
0.444171
0.444183
0.444183
0.444194
0.444205
0.444217
0.444228
0.444228
0.44424
0.444251
0.444263
0.444275
0.444275
0.444286
0.444298
0.444309
0.444321
0.444321
0.444333
0.444345
0.444357
0.444368
0.444368
0.44438
0.444392
0.444404
0.444416
0.444416
0.444428
0.44444
0.444452
0.444464
0.444464
0.444476
0.444489
0.444501
0.444513
0.444513
0.444525
0.444538
0.44455
0.444562
0.444562
0.444575
0.444587
0.4446
0.444612
0.444612
0.444625
0.444637
0.44465
0.444662
0.444662
0.444675
0.444688
0.4447
0.444713
0.444713
0.444726
0.444739
0.444751
0.444764
0.444764
0.444777
0.44479
0.444803
0.444816
0.444816
0.444829
0.444842
0.444855
0.444868
0.444868
0.444882
0.444895
0.444908
0.444921
0.444921
0.444935
0.444948
0.444961
0.444975
0.444975
0.444988
0.445002
0.445015
0.445029
0.445029
0.445042
0.445056
0.445069
0.445083
0.445083
0.445097
0.44511
0.445124
0.445138
0.445138
0.445152
0.445165
0.445179
0.445193
0.445193
0.445207
0.445221
0.445235
0.445249
0.445249
0.445263
0.445277
0.445291
0.445305
0.445305
0.44532
0.445334
0.445348
0.445362
0.445362
0.445377
0.445391
0.445405
0.44542
0.44542
0.445434
0.445449
0.445463
0.445478
0.445478
0.445492
0.445507
0.445522
0.445536
0.445536
0.445551
0.445566
0.445581
0.445595
0.445595
0.44561
0.445625
0.44564
0.445655
0.445655
0.44567
0.445685
0.4457
0.445715
0.445715
0.44573
0.445745
0.44576
0.445775
0.445775
0.445791
0.445806
0.445821
0.445836
0.445836
0.445852
0.445867
0.445883
0.445898
0.445898
0.445914
0.445929
0.445945
0.44596
0.44596
0.445976
0.445991
0.446007
0.446023
0.446023
0.446038
0.446054
0.44607
0.446086
0.446086
0.446102
0.446118
0.446134
0.446149
0.446149
0.446165
0.446181
0.446198
0.446214
0.446214
0.44623
0.446246
0.446262
0.446278
0.446278
0.446295
0.446311
0.446327
0.446343
0.446343
0.44636
0.446376
0.446393
0.446409
0.446409
0.446426
0.446442
0.446459
0.446475
0.446475
0.446492
0.446509
0.446525
0.446542
0.446542
0.446559
0.446576
0.446592
0.446609
0.446609
0.446626
0.446643
0.44666
0.446677
0.446677
0.446694
0.446711
0.446728
0.446745
0.446745
0.446762
0.44678
0.446797
0.446814
0.446814
0.446831
0.446849
0.446866
0.446883
0.446883
0.446901
0.446918
0.446936
0.446953
0.446953
0.446971
0.446988
0.447006
0.447024
0.447024
0.447041
0.447059
0.447077
0.447094
0.447094
0.447112
0.44713
0.447148
0.447166
0.447166
0.447184
0.447202
0.44722
0.447238
0.447238
0.447256
0.447274
0.447292
0.44731
0.44731
0.447328
0.447347
0.447365
0.447383
0.447383
0.447401
0.44742
0.447438
0.447456
0.447456
0.447475
0.447493
0.447512
0.44753
0.44753
0.447549
0.447568
0.447586
0.447605
0.447605
0.447624
0.447642
0.447661
0.44768
0.44768
0.447699
0.447718
0.447737
0.447755
0.447755
0.447774
0.447793
0.447812
0.447831
0.447831
0.447851
0.44787
0.447889
0.447908
0.447908
0.447927
0.447946
0.447966
0.447985
0.447985
0.448004
0.448024
0.448043
0.448063
0.448063
0.448082
0.448102
0.448121
0.448141
0.448141
0.44816
0.44818
0.4482
0.448219
0.448219
0.448239
0.448259
0.448279
0.448299
0.448299
0.448318
0.448338
0.448358
0.448378
0.448378
0.448398
0.448418
0.448438
0.448458
0.448458
0.448478
0.448499
0.448519
0.448539
0.448539
0.448559
0.44858
0.4486
0.44862
0.44862
0.448641
0.448661
0.448682
0.448702
0.448702
0.448723
0.448743
0.448764
0.448784
0.448784
0.448805
0.448826
0.448846
0.448867
0.448867
0.448888
0.448909
0.448929
0.44895
0.44895
0.448971
0.448992
0.449013
0.449034
0.449034
0.449055
0.449076
0.449097
0.449118
0.449118
0.44914
0.449161
0.449182
0.449203
0.449203
0.449225
0.449246
0.449267
0.449289
0.449289
0.44931
0.449332
0.449353
0.449375
0.449375
0.449396
0.449418
0.449439
0.449461
0.449461
0.449483
0.449504
0.449526
0.449548
0.449548
0.44957
0.449592
0.449614
0.449635
0.449635
0.449657
0.449679
0.449701
0.449723
0.449723
0.449746
0.449768
0.44979
0.449812
0.449812
0.449834
0.449856
0.449879
0.449901
0.449901
0.449923
0.449946
0.449968
0.44999
0.44999
0.450013
0.450035
0.450058
0.450081
0.450081
0.450103
0.450126
0.450148
0.450171
0.450171
0.450194
0.450217
0.450239
0.450262
0.450262
0.450285
0.450308
0.450331
0.450354
0.450354
0.450377
0.4504
0.450423
0.450446
0.450446
0.450469
0.450492
0.450516
0.450539
0.450539
0.450562
0.450585
0.450609
0.450632
0.450632
0.450655
0.450679
0.450702
0.450726
0.450726
0.450749
0.450773
0.450796
0.45082
0.45082
0.450844
0.450867
0.450891
0.450915
0.450915
0.450938
0.450962
0.450986
0.45101
0.45101
0.451034
0.451058
0.451082
0.451106
0.451106
0.45113
0.451154
0.451178
0.451202
0.451202
0.451226
0.45125
0.451275
0.451299
0.451299
0.451323
0.451348
0.451372
0.451396
0.451396
0.451421
0.451445
0.45147
0.451494
0.451494
0.451519
0.451543
0.451568
0.451593
0.451593
0.451617
0.451642
0.451667
0.451692
0.451692
0.451716
0.451741
0.451766
0.451791
0.451791
0.451816
0.451841
0.451866
0.451891
0.451891
0.451916
0.451941
0.451967
0.451992
0.451992
0.452017
0.452042
0.452067
0.452093
0.452093
0.452118
0.452143
0.452169
0.452194
0.452194
0.45222
0.452245
0.452271
0.452296
0.452296
0.452322
0.452348
0.452373
0.452399
0.452399
0.452425
0.452451
0.452476
0.452502
0.452502
0.452528
0.452554
0.45258
0.452606
0.452606
0.452632
0.452658
0.452684
0.45271
0.45271
0.452736
0.452762
0.452789
0.452815
0.452815
0.452841
0.452867
0.452894
0.45292
0.45292
0.452947
0.452973
0.452999
0.453026
0.453026
0.453052
0.453079
0.453106
0.453132
0.453132
0.453159
0.453186
0.453212
0.453239
0.453239
0.453266
0.453293
0.45332
0.453346
0.453346
0.453373
0.4534
0.453427
0.453454
0.453454
0.453481
0.453509
0.453536
0.453563
0.453563
0.45359
0.453617
0.453644
0.453672
0.453672
0.453699
0.453726
0.453754
0.453781
0.453781
0.453809
0.453836
0.453864
0.453891
0.453891
0.453919
0.453946
0.453974
0.454002
0.454002
0.45403
0.454057
0.454085
0.454113
0.454113
0.454141
0.454169
0.454197
0.454224
0.454224
0.454252
0.45428
0.454309
0.454337
0.454337
0.454365
0.454393
0.454421
0.454449
0.454449
0.454478
0.454506
0.454534
0.454562
0.454562
0.454591
0.454619
0.454648
0.454676
0.454676
0.454705
0.454733
0.454762
0.45479
0.45479
0.454819
0.454848
0.454876
0.454905
0.454905
0.454934
0.454963
0.454992
0.45502
0.45502
0.455049
0.455078
0.455107
0.455136
0.455136
0.455165
0.455194
0.455224
0.455253
0.455253
0.455282
0.455311
0.45534
0.45537
0.45537
0.455399
0.455428
0.455458
0.455487
0.455487
0.455516
0.455546
0.455575
0.455605
0.455605
0.455635
0.455664
0.455694
0.455723
0.455723
0.455753
0.455783
0.455813
0.455842
0.455842
0.455872
0.455902
0.455932
0.455962
0.455962
0.455992
0.456022
0.456052
0.456082
0.456082
0.456112
0.456142
0.456173
0.456203
0.456203
0.456233
0.456263
0.456294
0.456324
0.456324
0.456354
0.456385
0.456415
0.456446
0.456446
0.456476
0.456507
0.456537
0.456568
0.456568
0.456598
0.456629
0.45666
0.456691
0.456691
0.456721
0.456752
0.456783
0.456814
0.456814
0.456845
0.456876
0.456907
0.456938
0.456938
0.456969
0.457
0.457031
0.457062
0.457062
0.457093
0.457124
0.457156
0.457187
0.457187
0.457218
0.457249
0.457281
0.457312
0.457312
0.457344
0.457375
0.457407
0.457438
0.457438
0.45747
0.457501
0.457533
0.457565
0.457565
0.457596
0.457628
0.45766
0.457692
0.457692
0.457724
0.457755
0.457787
0.457819
0.457819
0.457851
0.457883
0.457915
0.457947
0.457947
0.457979
0.458012
0.458044
0.458076
0.458076
0.458108
0.45814
0.458173
0.458205
0.458205
0.458237
0.45827
0.458302
0.458335
0.458335
0.458367
0.4584
0.458432
0.458465
0.458465
0.458498
0.45853
0.458563
0.458596
0.458596
0.458629
0.458661
0.458694
0.458727
0.458727
0.45876
0.458793
0.458826
0.458859
0.458859
0.458892
0.458925
0.458958
0.458991
0.458991
0.459024
0.459058
0.459091
0.459124
0.459124
0.459158
0.459191
0.459224
0.459258
0.459258
0.459291
0.459325
0.459358
0.459392
0.459392
0.459425
0.459459
0.459493
0.459526
0.459526
0.45956
0.459594
0.459627
0.459661
0.459661
0.459695
0.459729
0.459763
0.459797
0.459797
0.459831
0.459865
0.459899
0.459933
0.459933
0.459967
0.460001
0.460035
0.46007
0.46007
0.460104
0.460138
0.460173
0.460207
0.460207
0.460241
0.460276
0.46031
0.460345
0.460345
0.460379
0.460414
0.460448
0.460483
0.460483
0.460518
0.460552
0.460587
0.460622
0.460622
0.460657
0.460691
0.460726
0.460761
0.460761
0.460796
0.460831
0.460866
0.460901
0.460901
0.460936
0.460971
0.461006
0.461042
0.461042
0.461077
0.461112
0.461147
0.461183
0.461183
0.461218
0.461253
0.461289
0.461324
0.461324
0.46136
0.461395
0.461431
0.461466
0.461466
0.461502
0.461537
0.461573
0.461609
0.461609
0.461645
0.46168
0.461716
0.461752
0.461752
0.461788
0.461824
0.46186
0.461896
0.461896
0.461932
0.461968
0.462004
0.46204
0.46204
0.462076
0.462112
0.462148
0.462185
0.462185
0.462221
0.462257
0.462294
0.46233
0.46233
0.462366
0.462403
0.462439
0.462476
0.462476
0.462512
0.462549
0.462586
0.462622
0.462622
0.462659
0.462696
0.462733
0.462769
0.462769
0.462806
0.462843
0.46288
0.462917
0.462917
0.462954
0.462991
0.463028
0.463065
0.463065
0.463102
0.463139
0.463176
0.463213
0.463213
0.463251
0.463288
0.463325
0.463363
0.463363
0.4634
0.463437
0.463475
0.463512
0.463512
0.46355
0.463587
0.463625
0.463663
0.463663
0.4637
0.463738
0.463776
0.463813
0.463813
0.463851
0.463889
0.463927
0.463965
0.463965
0.464003
0.46404
0.464078
0.464117
0.464117
0.464155
0.464193
0.464231
0.464269
0.464269
0.464307
0.464345
0.464384
0.464422
0.464422
0.46446
0.464499
0.464537
0.464575
0.464575
0.464614
0.464652
0.464691
0.464729
0.464729
0.464768
0.464807
0.464845
0.464884
0.464884
0.464923
0.464962
0.465
0.465039
0.465039
0.465078
0.465117
0.465156
0.465195
0.465195
0.465234
0.465273
0.465312
0.465351
0.465351
0.46539
0.465429
0.465469
0.465508
0.465508
0.465547
0.465587
0.465626
0.465665
0.465665
0.465705
0.465744
0.465784
0.465823
0.465823
0.465863
0.465902
0.465942
0.465982
0.465982
0.466021
0.466061
0.466101
0.466141
0.466141
0.46618
0.46622
0.46626
0.4663
0.4663
0.46634
0.46638
0.46642
0.46646
0.46646
0.4665
0.466541
0.466581
0.466621
0.466621
0.466661
0.466701
0.466742
0.466782
0.466782
0.466823
0.466863
0.466903
0.466944
0.466944
0.466984
0.467025
0.467066
0.467106
0.467106
0.467147
0.467188
0.467228
0.467269
0.467269
0.46731
0.467351
0.467392
0.467432
0.467432
0.467473
0.467514
0.467555
0.467596
0.467596
0.467637
0.467679
0.46772
0.467761
0.467761
0.467802
0.467843
0.467885
0.467926
0.467926
0.467967
0.468009
0.46805
0.468092
0.468092
0.468133
0.468175
0.468216
0.468258
0.468258
0.468299
0.468341
0.468383
0.468424
0.468424
0.468466
0.468508
0.46855
0.468592
0.468592
0.468634
0.468676
0.468718
0.46876
0.46876
0.468802
0.468844
0.468886
0.468928
0.468928
0.46897
0.469012
0.469055
0.469097
0.469097
0.469139
0.469182
0.469224
0.469266
0.469266
0.469309
0.469351
0.469394
0.469436
0.469436
0.469479
0.469522
0.469564
0.469607
0.469607
0.46965
0.469693
0.469735
0.469778
0.469778
0.469821
0.469864
0.469907
0.46995
0.46995
0.469993
0.470036
0.470079
0.470122
0.470122
0.470165
0.470209
0.470252
0.470295
0.470295
0.470338
0.470382
0.470425
0.470468
0.470468
0.470512
0.470555
0.470599
0.470642
0.470642
0.470686
0.47073
0.470773
0.470817
0.470817
0.470861
0.470904
0.470948
0.470992
0.470992
0.471036
0.47108
0.471124
0.471168
0.471168
0.471212
0.471256
0.4713
0.471344
0.471344
0.471388
0.471432
0.471476
0.471521
0.471521
0.471565
0.471609
0.471653
0.471698
0.471698
0.471742
0.471787
0.471831
0.471876
0.471876
0.47192
0.471965
0.472009
0.472054
0.472054
0.472099
0.472144
0.472188
0.472233
0.472233
0.472278
0.472323
0.472368
0.472413
0.472413
0.472458
0.472503
0.472548
0.472593
0.472593
0.472638
0.472683
0.472728
0.472773
0.472773
0.472819
0.472864
0.472909
0.472955
0.472955
0.473
0.473046
0.473091
0.473137
0.473137
0.473182
0.473228
0.473273
0.473319
0.473319
0.473365
0.47341
0.473456
0.473502
0.473502
0.473548
0.473594
0.473639
0.473685
0.473685
0.473731
0.473777
0.473823
0.473869
0.473869
0.473915
0.473962
0.474008
0.474054
0.474054
0.4741
0.474147
0.474193
0.474239
0.474239
0.474286
0.474332
0.474378
0.474425
0.474425
0.474471
0.474518
0.474565
0.474611
0.474611
0.474658
0.474705
0.474751
0.474798
0.474798
0.474845
0.474892
0.474939
0.474986
0.474986
0.475033
0.47508
0.475127
0.475174
0.475174
0.475221
0.475268
0.475315
0.475362
0.475362
0.475409
0.475457
0.475504
0.475551
0.475551
0.475599
0.475646
0.475694
0.475741
0.475741
0.475789
0.475836
0.475884
0.475931
0.475931
0.475979
0.476027
0.476074
0.476122
0.476122
0.47617
0.476218
0.476266
0.476314
0.476314
0.476362
0.47641
0.476458
0.476506
0.476506
0.476554
0.476602
0.47665
0.476698
0.476698
0.476746
0.476795
0.476843
0.476891
0.476891
0.47694
0.476988
0.477037
0.477085
0.477085
0.477134
0.477182
0.477231
0.477279
0.477279
0.477328
0.477377
0.477425
0.477474
0.477474
0.477523
0.477572
0.477621
0.47767
0.47767
0.477719
0.477767
0.477816
0.477866
0.477866
0.477915
0.477964
0.478013
0.478062
0.478062
0.478111
0.478161
0.47821
0.478259
0.478259
0.478309
0.478358
0.478407
0.478457
0.478457
0.478506
0.478556
0.478606
0.478655
0.478655
0.478705
0.478755
0.478804
0.478854
0.478854
0.478904
0.478954
0.479004
0.479054
0.479054
0.479103
0.479153
0.479203
0.479254
0.479254
0.479304
0.479354
0.479404
0.479454
0.479454
0.479504
0.479555
0.479605
0.479655
0.479655
0.479706
0.479756
0.479807
0.479857
0.479857
0.479908
0.479958
0.480009
0.480059
0.480059
0.48011
0.480161
0.480211
0.480262
0.480262
0.480313
0.480364
0.480415
0.480466
0.480466
0.480517
0.480568
0.480619
0.48067
0.48067
0.480721
0.480772
0.480823
0.480874
0.480874
0.480926
0.480977
0.481028
0.481079
0.481079
0.481131
0.481182
0.481234
0.481285
0.481285
0.481337
0.481388
0.48144
0.481492
0.481492
0.481543
0.481595
0.481647
0.481699
0.481699
0.48175
0.481802
0.481854
0.481906
0.481906
0.481958
0.48201
0.482062
0.482114
0.482114
0.482166
0.482218
0.482271
0.482323
0.482323
0.482375
0.482427
0.48248
0.482532
0.482532
0.482585
0.482637
0.482689
0.482742
0.482742
0.482794
0.482847
0.4829
0.482952
0.482952
0.483005
0.483058
0.483111
0.483163
0.483163
0.483216
0.483269
0.483322
0.483375
0.483375
0.483428
0.483481
0.483534
0.483587
0.483587
0.48364
0.483693
0.483747
0.4838
0.4838
0.483853
0.483906
0.48396
0.484013
0.484013
0.484067
0.48412
0.484174
0.484227
0.484227
0.484281
0.484334
0.484388
0.484442
0.484442
0.484495
0.484549
0.484603
0.484657
0.484657
0.484711
0.484764
0.484818
0.484872
0.484872
0.484926
0.48498
0.485035
0.485089
0.485089
0.485143
0.485197
0.485251
0.485306
0.485306
0.48536
0.485414
0.485469
0.485523
0.485523
0.485577
0.485632
0.485686
0.485741
0.485741
0.485796
0.48585
0.485905
0.48596
0.48596
0.486014
0.486069
0.486124
0.486179
0.486179
0.486234
0.486289
0.486344
0.486399
0.486399
0.486454
0.486509
0.486564
0.486619
0.486619
0.486674
0.486729
0.486785
0.48684
0.48684
0.486895
0.486951
0.487006
0.487061
0.487061
0.487117
0.487172
0.487228
0.487284
0.487284
0.487339
0.487395
0.487451
0.487506
0.487506
0.487562
0.487618
0.487674
0.48773
0.48773
0.487786
0.487842
0.487898
0.487954
0.487954
0.48801
0.488066
0.488122
0.488178
0.488178
0.488234
0.488291
0.488347
0.488403
0.488403
0.48846
0.488516
0.488573
0.488629
0.488629
0.488686
0.488742
0.488799
0.488855
0.488855
0.488912
0.488969
0.489025
0.489082
0.489082
0.489139
0.489196
0.489253
0.48931
0.48931
0.489367
0.489424
0.489481
0.489538
0.489538
0.489595
0.489652
0.489709
0.489766
0.489766
0.489824
0.489881
0.489938
0.489996
0.489996
0.490053
0.490111
0.490168
0.490226
0.490226
0.490283
0.490341
0.490398
0.490456
0.490456
0.490514
0.490572
0.490629
0.490687
0.490687
0.490745
0.490803
0.490861
0.490919
0.490919
0.490977
0.491035
0.491093
0.491151
0.491151
0.491209
0.491267
0.491326
0.491384
0.491384
0.491442
0.491501
0.491559
0.491617
0.491617
0.491676
0.491734
0.491793
0.491852
0.491852
0.49191
0.491969
0.492027
0.492086
0.492086
0.492145
0.492204
0.492263
0.492321
0.492321
0.49238
0.492439
0.492498
0.492557
0.492557
0.492616
0.492675
0.492735
0.492794
0.492794
0.492853
0.492912
0.492972
0.493031
0.493031
0.49309
0.49315
0.493209
0.493269
0.493269
0.493328
0.493388
0.493447
0.493507
0.493507
0.493567
0.493626
0.493686
0.493746
0.493746
0.493806
0.493865
0.493925
0.493985
0.493985
0.494045
0.494105
0.494165
0.494225
0.494225
0.494285
0.494346
0.494406
0.494466
0.494466
0.494526
0.494587
0.494647
0.494707
0.494707
0.494768
0.494828
0.494889
0.494949
0.494949
0.49501
0.49507
0.495131
0.495192
0.495192
0.495253
0.495313
0.495374
0.495435
0.495435
0.495496
0.495557
0.495618
0.495679
0.495679
0.49574
0.495801
0.495862
0.495923
0.495923
0.495984
0.496045
0.496107
0.496168
0.496168
0.496229
0.496291
0.496352
0.496414
0.496414
0.496475
0.496537
0.496598
0.49666
0.49666
0.496721
0.496783
0.496845
0.496907
0.496907
0.496968
0.49703
0.497092
0.497154
0.497154
0.497216
0.497278
0.49734
0.497402
0.497402
0.497464
0.497526
0.497588
0.497651
0.497651
0.497713
0.497775
0.497838
0.4979
0.4979
0.497962
0.498025
0.498087
0.49815
0.49815
0.498212
0.498275
0.498338
0.4984
0.4984
0.498463
0.498526
0.498588
0.498651
0.498651
0.498714
0.498777
0.49884
0.498903
0.498903
0.498966
0.499029
0.499092
0.499155
0.499155
0.499219
0.499282
0.499345
0.499408
0.499408
0.499472
0.499535
0.499598
0.499662
0.499662
0.499725
0.499789
0.499852
0.499916
0.499916
0.49998
0.500043
0.500107
0.500171
0.500171
0.500235
0.500298
0.500362
0.500426
0.500426
0.50049
0.500554
0.500618
0.500682
0.500682
0.500746
0.50081
0.500875
0.500939
0.500939
0.501003
0.501067
0.501132
0.501196
0.501196
0.501261
0.501325
0.50139
0.501454
0.501454
0.501519
0.501583
0.501648
0.501713
0.501713
0.501777
0.501842
0.501907
0.501972
0.501972
0.502037
0.502102
0.502166
0.502231
0.502231
0.502297
0.502362
0.502427
0.502492
0.502492
0.502557
0.502622
0.502688
0.502753
0.502753
0.502818
0.502884
0.502949
0.503014
0.503014
0.50308
0.503146
0.503211
0.503277
0.503277
0.503342
0.503408
0.503474
0.50354
0.50354
0.503605
0.503671
0.503737
0.503803
0.503803
0.503869
0.503935
0.504001
0.504067
0.504067
0.504133
0.5042
0.504266
0.504332
0.504332
0.504398
0.504465
0.504531
0.504597
0.504597
0.504664
0.50473
0.504797
0.504863
0.504863
0.50493
0.504997
0.505063
0.50513
0.50513
0.505197
0.505264
0.505331
0.505397
0.505397
0.505464
0.505531
0.505598
0.505665
0.505665
0.505732
0.505799
0.505867
0.505934
0.505934
0.506001
0.506068
0.506136
0.506203
0.506203
0.50627
0.506338
0.506405
0.506473
0.506473
0.50654
0.506608
0.506676
0.506743
0.506743
0.506811
0.506879
0.506947
0.507014
0.507014
0.507082
0.50715
0.507218
0.507286
0.507286
0.507354
0.507422
0.50749
0.507558
0.507558
0.507627
0.507695
0.507763
0.507831
0.507831
0.5079
0.507968
0.508037
0.508105
0.508105
0.508173
0.508242
0.508311
0.508379
0.508379
0.508448
0.508517
0.508585
0.508654
0.508654
0.508723
0.508792
0.508861
0.50893
0.50893
0.508999
0.509068
0.509137
0.509206
0.509206
0.509275
0.509344
0.509413
0.509483
0.509483
0.509552
0.509621
0.509691
0.50976
0.50976
0.50983
0.509899
0.509969
0.510038
0.510038
0.510108
0.510177
0.510247
0.510317
0.510317
0.510387
0.510456
0.510526
0.510596
0.510596
0.510666
0.510736
0.510806
0.510876
0.510876
0.510946
0.511016
0.511087
0.511157
0.511157
0.511227
0.511297
0.511368
0.511438
0.511438
0.511509
0.511579
0.51165
0.51172
0.51172
0.511791
0.511861
0.511932
0.512003
0.512003
0.512073
0.512144
0.512215
0.512286
0.512286
0.512357
0.512428
0.512499
0.51257
0.51257
0.512641
0.512712
0.512783
0.512854
0.512854
0.512926
0.512997
0.513068
0.51314
0.51314
0.513211
0.513282
0.513354
0.513425
0.513425
0.513497
0.513569
0.51364
0.513712
0.513712
0.513784
0.513855
0.513927
0.513999
0.513999
0.514071
0.514143
0.514215
0.514287
0.514287
0.514359
0.514431
0.514503
0.514575
0.514575
0.514647
0.51472
0.514792
0.514864
0.514864
0.514937
0.515009
0.515081
0.515154
0.515154
0.515227
0.515299
0.515372
0.515444
0.515444
0.515517
0.51559
0.515663
0.515735
0.515735
0.515808
0.515881
0.515954
0.516027
0.516027
0.5161
0.516173
0.516246
0.516319
0.516319
0.516393
0.516466
0.516539
0.516612
0.516612
0.516686
0.516759
0.516833
0.516906
0.516906
0.51698
0.517053
0.517127
0.5172
0.5172
0.517274
0.517348
0.517422
0.517495
0.517495
0.517569
0.517643
0.517717
0.517791
0.517791
0.517865
0.517939
0.518013
0.518087
0.518087
0.518161
0.518236
0.51831
0.518384
0.518384
0.518459
0.518533
0.518607
0.518682
0.518682
0.518756
0.518831
0.518906
0.51898
0.51898
0.519055
0.51913
0.519204
0.519279
0.519279
0.519354
0.519429
0.519504
0.519579
0.519579
0.519654
0.519729
0.519804
0.519879
0.519879
0.519954
0.520029
0.520105
0.52018
0.52018
0.520255
0.520331
0.520406
0.520481
0.520481
0.520557
0.520633
0.520708
0.520784
0.520784
0.520859
0.520935
0.521011
0.521087
0.521087
0.521162
0.521238
0.521314
0.52139
0.52139
0.521466
0.521542
0.521618
0.521694
0.521694
0.521771
0.521847
0.521923
0.521999
0.521999
0.522076
0.522152
0.522229
0.522305
0.522305
0.522382
0.522458
0.522535
0.522611
0.522611
0.522688
0.522765
0.522841
0.522918
0.522918
0.522995
0.523072
0.523149
0.523226
0.523226
0.523303
0.52338
0.523457
0.523534
0.523534
0.523611
0.523689
0.523766
0.523843
0.523843
0.52392
0.523998
0.524075
0.524153
0.524153
0.52423
0.524308
0.524385
0.524463
0.524463
0.524541
0.524618
0.524696
0.524774
0.524774
0.524852
0.52493
0.525008
0.525086
0.525086
0.525164
0.525242
0.52532
0.525398
0.525398
0.525476
0.525554
0.525633
0.525711
0.525711
0.525789
0.525868
0.525946
0.526025
0.526025
0.526103
0.526182
0.52626
0.526339
0.526339
0.526418
0.526497
0.526575
0.526654
0.526654
0.526733
0.526812
0.526891
0.52697
0.52697
0.527049
0.527128
0.527207
0.527286
0.527286
0.527366
0.527445
0.527524
0.527603
0.527603
0.527683
0.527762
0.527842
0.527921
0.527921
0.528001
0.52808
0.52816
0.52824
0.52824
0.528319
0.528399
0.528479
0.528559
0.528559
0.528639
0.528719
0.528799
0.528879
0.528879
0.528959
0.529039
0.529119
0.529199
0.529199
0.529279
0.52936
0.52944
0.52952
0.52952
0.529601
0.529681
0.529762
0.529842
0.529842
0.529923
0.530004
0.530084
0.530165
0.530165
0.530246
0.530326
0.530407
0.530488
0.530488
0.530569
0.53065
0.530731
0.530812
0.530812
0.530893
0.530974
0.531056
0.531137
0.531137
0.531218
0.531299
0.531381
0.531462
0.531462
0.531544
0.531625
0.531707
0.531788
0.531788
0.53187
0.531952
0.532033
0.532115
0.532115
0.532197
0.532279
0.532361
0.532442
0.532442
0.532524
0.532606
0.532688
0.532771
0.532771
0.532853
0.532935
0.533017
0.533099
0.533099
0.533182
0.533264
0.533347
0.533429
0.533429
0.533511
0.533594
0.533677
0.533759
0.533759
0.533842
0.533925
0.534007
0.53409
0.53409
0.534173
0.534256
0.534339
0.534422
0.534422
0.534505
0.534588
0.534671
0.534754
0.534754
0.534837
0.534921
0.535004
0.535087
0.535087
0.53517
0.535254
0.535337
0.535421
0.535421
0.535504
0.535588
0.535672
0.535755
0.535755
0.535839
0.535923
0.536007
0.53609
0.53609
0.536174
0.536258
0.536342
0.536426
0.536426
0.53651
0.536594
0.536679
0.536763
0.536763
0.536847
0.536931
0.537016
0.5371
0.5371
0.537185
0.537269
0.537353
0.537438
0.537438
0.537523
0.537607
0.537692
0.537777
0.537777
0.537862
0.537946
0.538031
0.538116
0.538116
0.538201
0.538286
0.538371
0.538456
0.538456
0.538541
0.538627
0.538712
0.538797
0.538797
0.538882
0.538968
0.539053
0.539139
0.539139
0.539224
0.53931
0.539395
0.539481
0.539481
0.539566
0.539652
0.539738
0.539824
0.539824
0.53991
0.539995
0.540081
0.540167
0.540167
0.540253
0.540339
0.540426
0.540512
0.540512
0.540598
0.540684
0.540771
0.540857
0.540857
0.540943
0.54103
0.541116
0.541203
0.541203
0.541289
0.541376
0.541463
0.541549
0.541549
0.541636
0.541723
0.54181
0.541896
0.541896
0.541983
0.54207
0.542157
0.542244
0.542244
0.542332
0.542419
0.542506
0.542593
0.542593
0.54268
0.542768
0.542855
0.542943
0.542943
0.54303
0.543118
0.543205
0.543293
0.543293
0.54338
0.543468
0.543556
0.543644
0.543644
0.543731
0.543819
0.543907
0.543995
0.543995
0.544083
0.544171
0.544259
0.544347
0.544347
0.544436
0.544524
0.544612
0.5447
0.5447
0.544789
0.544877
0.544966
0.545054
0.545054
0.545143
0.545231
0.54532
0.545409
0.545409
0.545497
0.545586
0.545675
0.545764
0.545764
0.545853
0.545942
0.546031
0.54612
0.54612
0.546209
0.546298
0.546387
0.546477
0.546477
0.546566
0.546655
0.546745
0.546834
0.546834
0.546924
0.547013
0.547103
0.547192
0.547192
0.547282
0.547372
0.547461
0.547551
0.547551
0.547641
0.547731
0.547821
0.547911
0.547911
0.548001
0.548091
0.548181
0.548271
0.548271
0.548361
0.548452
0.548542
0.548632
0.548632
0.548723
0.548813
0.548904
0.548994
0.548994
0.549085
0.549175
0.549266
0.549357
0.549357
0.549447
0.549538
0.549629
0.54972
0.54972
0.549811
0.549902
0.549993
0.550084
0.550084
0.550175
0.550266
0.550358
0.550449
0.550449
0.55054
0.550631
0.550723
0.550814
0.550814
0.550906
0.550997
0.551089
0.551181
0.551181
0.551272
0.551364
0.551456
0.551548
0.551548
0.55164
0.551731
0.551823
0.551915
0.551915
0.552008
0.5521
0.552192
0.552284
0.552284
0.552376
0.552469
0.552561
0.552653
0.552653
0.552746
0.552838
0.552931
0.553023
0.553023
0.553116
0.553209
0.553301
0.553394
0.553394
0.553487
0.55358
0.553673
0.553766
0.553766
0.553859
0.553952
0.554045
0.554138
0.554138
0.554231
0.554324
0.554418
0.554511
0.554511
0.554604
0.554698
0.554791
0.554885
0.554885
0.554978
0.555072
0.555166
0.555259
0.555259
0.555353
0.555447
0.555541
0.555635
0.555635
0.555729
0.555823
0.555917
0.556011
0.556011
0.556105
0.556199
0.556293
0.556388
0.556388
0.556482
0.556576
0.556671
0.556765
0.556765
0.55686
0.556954
0.557049
0.557143
0.557143
0.557238
0.557333
0.557428
0.557523
0.557523
0.557617
0.557712
0.557807
0.557902
0.557902
0.557998
0.558093
0.558188
0.558283
0.558283
0.558378
0.558474
0.558569
0.558664
0.558664
0.55876
0.558855
0.558951
0.559046
0.559046
0.559142
0.559237
0.559332
0.559427
0.559427
0.559522
0.559616
0.559708
0.559798
0.559798
0.559886
0.559965
0.560037
0.560101
0.560101
0.56016
0.560218
0.560274
0.560328
0.560328
0.560383
0.560437
0.560491
0.560544
0.560544
0.560597
0.560649
0.560699
0.560748
0.560748
0.560793
0.560834
0.560871
0.560903
0.560903
0.560932
0.560959
0.560985
0.561009
0.561009
0.561033
0.561056
0.561078
0.5611
0.5611
0.561122
0.561143
0.561163
0.561181
0.561181
0.561199
0.561214
0.561229
0.561241
0.561241
0.561252
0.561262
0.561272
0.56128
0.56128
0.561288
0.561295
0.561302