<?xml version="1.0"?>
<VTKFile type="UnstructuredGrid" version="0.1" byte_order="LittleEndian">
<UnstructuredGrid>
<Piece NumberOfPoints="5000" NumberOfCells="4000">
<PointData Scalars="Reaction 0">
<DataArray type="Float32" Name="Reaction 0" format="ascii">
0.570977
0.570977
0.570977
0.570977
0.570977
0.570977
0.570977
0.570977
0.570977
0.570977
0.570977
0.570977
0.570977
0.570977
0.570977
0.570977
0.570977
0.570977
0.570977
0.570977
0.570977
0.570977
0.570977
0.570977
0.570977
0.570977
0.570977
0.570977
0.570977
0.570977
0.570977
0.570977
0.570977
0.570977
0.570977
0.570977
0.570978
0.570978
0.570978
0.570978
0.570978
0.570978
0.570978
0.570978
0.570978
0.570978
0.570978
0.570978
0.570978
0.570978
0.570978
0.570979
0.570979
0.570979
0.570979
0.570979
0.570979
0.570979
0.570979
0.570979
0.570979
0.570979
0.570979
0.57098
0.57098
0.57098
0.57098
0.57098
0.57098
0.57098
0.57098
0.57098
0.57098
0.570981
0.570981
0.570981
0.570981
0.570981
0.570981
0.570981
0.570981
0.570982
0.570982
0.570982
0.570982
0.570982
0.570982
0.570982
0.570982
0.570983
0.570983
0.570983
0.570983
0.570983
0.570983
0.570983
0.570983
0.570984
0.570984
0.570984
0.570984
0.570984
0.570984
0.570985
0.570985
0.570985
0.570985
0.570985
0.570985
0.570986
0.570986
0.570986
0.570986
0.570986
0.570986
0.570986
0.570987
0.570987
0.570987
0.570987
0.570987
0.570988
0.570988
0.570988
0.570988
0.570988
0.570989
0.570989
0.570989
0.570989
0.570989
0.570989
0.57099
0.57099
0.57099
0.57099
0.57099
0.570991
0.570991
0.570991
0.570991
0.570992
0.570992
0.570992
0.570992
0.570992
0.570993
0.570993
0.570993
0.570993
0.570993
0.570994
0.570994
0.570994
0.570995
0.570995
0.570995
0.570995
0.570995
0.570996
0.570996
0.570996
0.570996
0.570997
0.570997
0.570997
0.570997
0.570998
0.570998
0.570998
0.570998
0.570999
0.570999
0.570999
0.571
0.571
0.571
0.571
0.571001
0.571001
0.571001
0.571001
0.571002
0.571002
0.571002
0.571002
0.571003
0.571003
0.571003
0.571004
0.571004
0.571004
0.571004
0.571005
0.571005
0.571005
0.571005
0.571006
0.571006
0.571007
0.571007
0.571007
0.571007
0.571008
0.571008
0.571008
0.571008
0.571009
0.571009
0.57101
0.57101
0.57101
0.57101
0.571011
0.571011
0.571011
0.571012
0.571012
0.571012
0.571013
0.571013
0.571013
0.571014
0.571014
0.571015
0.571015
0.571015
0.571015
0.571016
0.571016
0.571016
0.571017
0.571017
0.571018
0.571018
0.571018
0.571018
0.571019
0.571019
0.57102
0.57102
0.57102
0.571021
0.571021
0.571022
0.571022
0.571022
0.571023
0.571023
0.571023
0.571023
0.571024
0.571024
0.571025
0.571025
0.571025
0.571026
0.571026
0.571027
0.571027
0.571027
0.571028
0.571028
0.571029
0.571029
0.571029
0.57103
0.57103
0.571031
0.571031
0.571031
0.571032
0.571032
0.571033
0.571033
0.571033
0.571034
0.571034
0.571035
0.571035
0.571035
0.571036
0.571037
0.571037
0.571038
0.571038
0.571038
0.571039
0.571039
0.57104
0.57104
0.57104
0.571041
0.571041
0.571042
0.571042
0.571043
0.571043
0.571044
0.571044
0.571044
0.571045
0.571045
0.571046
0.571047
0.571047
0.571047
0.571048
0.571048
0.571049
0.571049
0.571049
0.57105
0.571051
0.571051
0.571051
0.571052
0.571052
0.571053
0.571054
0.571054
0.571054
0.571055
0.571055
0.571056
0.571056
0.571057
0.571057
0.571058
0.571059
0.571059
0.571059
0.57106
0.57106
0.571061
0.571061
0.571062
0.571062
0.571063
0.571064
0.571064
0.571064
0.571065
0.571066
0.571066
0.571066
0.571067
0.571068
0.571068
0.571069
0.571069
0.571069
0.57107
0.571071
0.571071
0.571071
0.571072
0.571073
0.571074
0.571074
0.571074
0.571075
0.571076
0.571076
0.571077
0.571077
0.571078
0.571078
0.571079
0.57108
0.57108
0.57108
0.571081
0.571082
0.571083
0.571083
0.571083
0.571084
0.571085
0.571085
0.571085
0.571086
0.571087
0.571088
0.571088
0.571088
0.571089
0.57109
0.571091
0.571091
0.571091
0.571092
0.571093
0.571093
0.571094
0.571094
0.571095
0.571096
0.571096
0.571097
0.571097
0.571098
0.571099
0.5711
0.5711
0.5711
0.571101
0.571102
0.571103
0.571103
0.571103
0.571104
0.571105
0.571106
0.571107
0.571107
0.571107
0.571108
0.571109
0.57111
0.57111
0.571111
0.571111
0.571112
0.571113
0.571113
0.571114
0.571115
0.571115
0.571116
0.571116
0.571117
0.571118
0.571119
0.57112
0.57112
0.57112
0.571121
0.571122
0.571123
0.571123
0.571124
0.571125
0.571125
0.571126
0.571126
0.571127
0.571128
0.571129
0.57113
0.57113
0.571131
0.571131
0.571132
0.571133
0.571133
0.571134
0.571135
0.571136
0.571137
0.571137
0.571138
0.571138
0.571139
0.57114
0.57114
0.571141
0.571142
0.571143
0.571144
0.571144
0.571145
0.571146
0.571146
0.571147
0.571147
0.571148
0.571149
0.57115
0.571151
0.571151
0.571152
0.571153
0.571154
0.571155
0.571155
0.571156
0.571157
0.571157
0.571158
0.571158
0.571159
0.57116
0.571161
0.571162
0.571162
0.571163
0.571164
0.571165
0.571166
0.571166
0.571167
0.571168
0.571169
0.57117
0.57117
0.571171
0.571172
0.571173
0.571174
0.571174
0.571175
0.571176
0.571177
0.571178
0.571178
0.571179
0.57118
0.571181
0.571182
0.571182
0.571183
0.571184
0.571185
0.571186
0.571186
0.571187
0.571188
0.571189
0.57119
0.57119
0.571191
0.571192
0.571193
0.571194
0.571194
0.571195
0.571196
0.571197
0.571198
0.571198
0.571199
0.5712
0.571201
0.571202
0.571202
0.571203
0.571204
0.571205
0.571206
0.571206
0.571207
0.571208
0.57121
0.571211
0.571211
0.571212
0.571213
0.571214
0.571215
0.571215
0.571216
0.571217
0.571218
0.571219
0.571219
0.57122
0.571221
0.571223
0.571224
0.571224
0.571225
0.571226
0.571227
0.571228
0.571228
0.571229
0.57123
0.571231
0.571233
0.571233
0.571234
0.571235
0.571236
0.571237
0.571237
0.571238
0.571239
0.57124
0.571242
0.571242
0.571243
0.571244
0.571245
0.571246
0.571246
0.571247
0.571249
0.57125
0.571251
0.571251
0.571252
0.571253
0.571254
0.571255
0.571255
0.571257
0.571258
0.571259
0.57126
0.57126
0.571261
0.571263
0.571264
0.571265
0.571265
0.571266
0.571267
0.571269
0.57127
0.57127
0.571271
0.571272
0.571273
0.571275
0.571275
0.571276
0.571277
0.571278
0.571279
0.571279
0.571281
0.571282
0.571283
0.571284
0.571284
0.571286
0.571287
0.571288
0.571289
0.571289
0.571291
0.571292
0.571293
0.571294
0.571294
0.571296
0.571297
0.571298
0.571299
0.571299
0.571301
0.571302
0.571303
0.571304
0.571304
0.571306
0.571307
0.571308
0.57131
0.57131
0.571311
0.571312
0.571314
0.571315
0.571315
0.571316
0.571317
0.571319
0.57132
0.57132
0.571321
0.571323
0.571324
0.571325
0.571325
0.571327
0.571328
0.571329
0.571331
0.571331
0.571332
0.571333
0.571335
0.571336
0.571336
0.571337
0.571339
0.57134
0.571341
0.571341
0.571343
0.571344
0.571345
0.571347
0.571347
0.571348
0.571349
0.571351
0.571352
0.571352
0.571354
0.571355
0.571356
0.571358
0.571358
0.571359
0.57136
0.571362
0.571363
0.571363
0.571365
0.571366
0.571367
0.571369
0.571369
0.57137
0.571372
0.571373
0.571374
0.571374
0.571376
0.571377
0.571379
0.57138
0.57138
0.571382
0.571383
0.571384
0.571386
0.571386
0.571387
0.571389
0.57139
0.571392
0.571392
0.571393
0.571395
0.571396
0.571398
0.571398
0.571399
0.5714
0.571402
0.571403
0.571403
0.571405
0.571406
0.571408
0.571409
0.571409
0.571411
0.571412
0.571414
0.571415
0.571415
0.571417
0.571418
0.57142
0.571421
0.571421
0.571423
0.571424
0.571426
0.571427
0.571427
0.571429
0.57143
0.571432
0.571433
0.571433
0.571435
0.571436
0.571438
0.57144
0.57144
0.571441
0.571443
0.571444
0.571446
0.571446
0.571447
0.571449
0.57145
0.571452
0.571452
0.571453
0.571455
0.571457
0.571458
0.571458
0.57146
0.571461
0.571463
0.571464
0.571464
0.571466
0.571468
0.571469
0.571471
0.571471
0.571472
0.571474
0.571476
0.571477
0.571477
0.571479
0.57148
0.571482
0.571484
0.571484
0.571485
0.571487
0.571488
0.57149
0.57149
0.571492
0.571493
0.571495
0.571497
0.571497
0.571498
0.5715
0.571502
0.571503
0.571503
0.571505
0.571507
0.571508
0.57151
0.57151
0.571512
0.571513
0.571515
0.571517
0.571517
0.571518
0.57152
0.571522
0.571523
0.571523
0.571525
0.571527
0.571528
0.57153
0.57153
0.571532
0.571533
0.571535
0.571537
0.571537
0.571538
0.57154
0.571542
0.571544
0.571544
0.571545
0.571547
0.571549
0.57155
0.57155
0.571552
0.571554
0.571556
0.571557
0.571557
0.571559
0.571561
0.571563
0.571564
0.571564
0.571566
0.571568
0.57157
0.571571
0.571571
0.571573
0.571575
0.571577
0.571578
0.571578
0.57158
0.571582
0.571584
0.571586
0.571586
0.571587
0.571589
0.571591
0.571593
0.571593
0.571595
0.571596
0.571598
0.5716
0.5716
0.571602
0.571604
0.571605
0.571607
0.571607
0.571609
0.571611
0.571613
0.571615
0.571615
0.571616
0.571618
0.57162
0.571622
0.571622
0.571624
0.571626
0.571628
0.571629
0.571629
0.571631
0.571633
0.571635
0.571637
0.571637
0.571639
0.571641
0.571642
0.571644
0.571644
0.571646
0.571648
0.57165
0.571652
0.571652
0.571654
0.571656
0.571658
0.571659
0.571659
0.571661
0.571663
0.571665
0.571667
0.571667
0.571669
0.571671
0.571673
0.571675
0.571675
0.571677
0.571679
0.57168
0.571682
0.571682
0.571684
0.571686
0.571688
0.57169
0.57169
0.571692
0.571694
0.571696
0.571698
0.571698
0.5717
0.571702
0.571704
0.571706
0.571706
0.571708
0.57171
0.571712
0.571714
0.571714
0.571716
0.571718
0.57172
0.571722
0.571722
0.571724
0.571726
0.571728
0.57173
0.57173
0.571732
0.571734
0.571736
0.571738
0.571738
0.57174
0.571742
0.571744
0.571746
0.571746
0.571748
0.57175
0.571752
0.571754
0.571754
0.571756
0.571758
0.57176
0.571762
0.571762
0.571765
0.571767
0.571769
0.571771
0.571771
0.571773
0.571775
0.571777
0.571779
0.571779
0.571781
0.571783
0.571785
0.571787
0.571787
0.57179
0.571792
0.571794
0.571796
0.571796
0.571798
0.5718
0.571802
0.571804
0.571804
0.571806
0.571809
0.571811
0.571813
0.571813
0.571815
0.571817
0.571819
0.571821
0.571821
0.571824
0.571826
0.571828
0.57183
0.57183
0.571832
0.571834
0.571837
0.571839
0.571839
0.571841
0.571843
0.571845
0.571847
0.571847
0.57185
0.571852
0.571854
0.571856
0.571856
0.571858
0.571861
0.571863
0.571865
0.571865
0.571867
0.571869
0.571872
0.571874
0.571874
0.571876
0.571878
0.571881
0.571883
0.571883
0.571885
0.571887
0.571889
0.571892
0.571892
0.571894
0.571896
0.571899
0.571901
0.571901
0.571903
0.571905
0.571908
0.57191
0.57191
0.571912
0.571914
0.571917
0.571919
0.571919
0.571921
0.571924
0.571926
0.571928
0.571928
0.571931
0.571933
0.571935
0.571937
0.571937
0.57194
0.571942
0.571944
0.571947
0.571947
0.571949
0.571951
0.571954
0.571956
0.571956
0.571958
0.571961
0.571963
0.571965
0.571965
0.571968
0.57197
0.571972
0.571975
0.571975
0.571977
0.57198
0.571982
0.571984
0.571984
0.571987
0.571989
0.571991
0.571994
0.571994
0.571996
0.571999
0.572001
0.572003
0.572003
0.572006
0.572008
0.572011
0.572013
0.572013
0.572016
0.572018
0.57202
0.572023
0.572023
0.572025
0.572028
0.57203
0.572033
0.572033
0.572035
0.572038
0.57204
0.572042
0.572042
0.572045
0.572047
0.57205
0.572052
0.572052
0.572055
0.572057
0.57206
0.572062
0.572062
0.572065
0.572067
0.57207
0.572072
0.572072
0.572075
0.572077
0.57208
0.572082
0.572082
0.572085
0.572087
0.57209
0.572092
0.572092
0.572095
0.572097
0.5721
0.572102
0.572102
0.572105
0.572107
0.57211
0.572113
0.572113
0.572115
0.572118
0.57212
0.572123
0.572123
0.572125
0.572128
0.572131
0.572133
0.572133
0.572136
0.572138
0.572141
0.572144
0.572144
0.572146
0.572149
0.572151
0.572154
0.572154
0.572157
0.572159
0.572162
0.572164
0.572164
0.572167
0.57217
0.572172
0.572175
0.572175
0.572178
0.57218
0.572183
0.572185
0.572185
0.572188
0.572191
0.572193
0.572196
0.572196
0.572199
0.572201
0.572204
0.572207
0.572207
0.572209
0.572212
0.572215
0.572217
0.572217
0.57222
0.572223
0.572226
0.572228
0.572228
0.572231
0.572234
0.572236
0.572239
0.572239
0.572242
0.572245
0.572247
0.57225
0.57225
0.572253
0.572256
0.572258
0.572261
0.572261
0.572264
0.572267
0.572269
0.572272
0.572272
0.572275
0.572278
0.57228
0.572283
0.572283
0.572286
0.572289
0.572292
0.572294
0.572294
0.572297
0.5723
0.572303
0.572305
0.572305
0.572308
0.572311
0.572314
0.572317
0.572317
0.57232
0.572322
0.572325
0.572328
0.572328
0.572331
0.572334
0.572337
0.572339
0.572339
0.572342
0.572345
0.572348
0.572351
0.572351
0.572354
0.572357
0.57236
0.572362
0.572362
0.572365
0.572368
0.572371
0.572374
0.572374
0.572377
0.57238
0.572383
0.572386
0.572386
0.572388
0.572391
0.572394
0.572397
0.572397
0.5724
0.572403
0.572406
0.572409
0.572409
0.572412
0.572415
0.572418
0.572421
0.572421
0.572424
0.572427
0.57243
0.572433
0.572433
0.572436
0.572438
0.572441
0.572444
0.572444
0.572447
0.57245
0.572453
0.572456
0.572456
0.572459
0.572462
0.572465
0.572469
0.572469
0.572472
0.572475
0.572478
0.572481
0.572481
0.572484
0.572487
0.57249
0.572493
0.572493
0.572496
0.572499
0.572502
0.572505
0.572505
0.572508
0.572511
0.572514
0.572517
0.572517
0.57252
0.572523
0.572526
0.57253
0.57253
0.572533
0.572536
0.572539
0.572542
0.572542
0.572545
0.572548
0.572551
0.572554
0.572554
0.572557
0.572561
0.572564
0.572567
0.572567
0.57257
0.572573
0.572576
0.57258
0.57258
0.572583
0.572586
0.572589
0.572592
0.572592
0.572595
0.572599
0.572602
0.572605
0.572605
0.572608
0.572611
0.572614
0.572618
0.572618
0.572621
0.572624
0.572627
0.57263
0.57263
0.572634
0.572637
0.57264
0.572643
0.572643
0.572647
0.57265
0.572653
0.572656
0.572656
0.572659
0.572663
0.572666
0.572669
0.572669
0.572673
0.572676
0.572679
0.572682
0.572682
0.572686
0.572689
0.572692
0.572696
0.572696
0.572699
0.572702
0.572705
0.572709
0.572709
0.572712
0.572715
0.572719
0.572722
0.572722
0.572725
0.572729
0.572732
0.572735
0.572735
0.572739
0.572742
0.572745
0.572749
0.572749
0.572752
0.572756
0.572759
0.572762
0.572762
0.572766
0.572769
0.572772
0.572776
0.572776
0.572779
0.572783
0.572786
0.572789
0.572789
0.572793
0.572796
0.5728
0.572803
0.572803
0.572807
0.57281
0.572813
0.572817
0.572817
0.57282
0.572824
0.572827
0.572831
0.572831
0.572834
0.572838
0.572841
0.572845
0.572845
0.572848
0.572851
0.572855
0.572858
0.572858
0.572862
0.572865
0.572869
0.572872
0.572872
0.572876
0.572879
0.572883
0.572886
0.572886
0.57289
0.572894
0.572897
0.572901
0.572901
0.572904
0.572908
0.572911
0.572915
0.572915
0.572918
0.572922
0.572926
0.572929
0.572929
0.572933
0.572936
0.57294
0.572944
0.572944
0.572947
0.572951
0.572954
0.572958
0.572958
0.572962
0.572965
0.572969
0.572972
0.572972
0.572976
0.57298
0.572983
0.572987
0.572987
0.572991
0.572994
0.572998
0.573002
0.573002
0.573005
0.573009
0.573013
0.573016
0.573016
0.57302
0.573024
0.573027
0.573031
0.573031
0.573035
0.573038
0.573042
0.573046
0.573046
0.57305
0.573053
0.573057
0.573061
0.573061
0.573064
0.573068
0.573072
0.573076
0.573076
0.573079
0.573083
0.573087
0.573091
0.573091
0.573095
0.573098
0.573102
0.573106
0.573106
0.57311
0.573113
0.573117
0.573121
0.573121
0.573125
0.573129
0.573132
0.573136
0.573136
0.57314
0.573144
0.573148
0.573152
0.573152
0.573155
0.573159
0.573163
0.573167
0.573167
0.573171
0.573175
0.573179
0.573183
0.573183
0.573186
0.57319
0.573194
0.573198
0.573198
0.573202
0.573206
0.57321
0.573214
0.573214
0.573218
0.573222
0.573225
0.573229
0.573229
0.573233
0.573237
0.573241
0.573245
0.573245
0.573249
0.573253
0.573257
0.573261
0.573261
0.573265
0.573269
0.573273
0.573277
0.573277
0.573281
0.573285
0.573289
0.573293
0.573293
0.573297
0.573301
0.573305
0.573309
0.573309
0.573313
0.573317
0.573321
0.573325
0.573325
0.573329
0.573333
0.573337
0.573341
0.573341
0.573345
0.573349
0.573353
0.573358
0.573358
0.573362
0.573366
0.57337
0.573374
0.573374
0.573378
0.573382
0.573386
0.57339
0.57339
0.573394
0.573399
0.573403
0.573407
0.573407
0.573411
0.573415
0.573419
0.573423
0.573423
0.573428
0.573432
0.573436
0.57344
0.57344
0.573444
0.573449
0.573453
0.573457
0.573457
0.573461
0.573465
0.57347
0.573474
0.573474
0.573478
0.573482
0.573486
0.573491
0.573491
0.573495
0.573499
0.573503
0.573508
0.573508
0.573512
0.573516
0.57352
0.573525
0.573525
0.573529
0.573533
0.573537
0.573542
0.573542
0.573546
0.57355
0.573555
0.573559
0.573559
0.573563
0.573568
0.573572
0.573576
0.573576
0.573581
0.573585
0.573589
0.573594
0.573594
0.573598
0.573602
0.573607
0.573611
0.573611
0.573616
0.57362
0.573624
0.573629
0.573629
0.573633
0.573637
0.573642
0.573646
0.573646
0.573651
0.573655
0.57366
0.573664
0.573664
0.573668
0.573673
0.573677
0.573682
0.573682
0.573686
0.573691
0.573695
0.5737
0.5737
0.573704
0.573709
0.573713
0.573718
0.573718
0.573722
0.573727
0.573731
0.573736
0.573736
0.57374
0.573745
0.573749
0.573754
0.573754
0.573758
0.573763
0.573767
0.573772
0.573772
0.573776
0.573781
0.573786
0.57379
0.57379
0.573795
0.573799
0.573804
0.573809
0.573809
0.573813
0.573818
0.573822
0.573827
0.573827
0.573832
0.573836
0.573841
0.573846
0.573846
0.57385
0.573855
0.573859
0.573864
0.573864
0.573869
0.573873
0.573878
0.573883
0.573883
0.573888
0.573892
0.573897
0.573902
0.573902
0.573906
0.573911
0.573916
0.57392
0.57392
0.573925
0.57393
0.573935
0.573939
0.573939
0.573944
0.573949
0.573954
0.573958
0.573958
0.573963
0.573968
0.573973
0.573978
0.573978
0.573982
0.573987
0.573992
0.573997
0.573997
0.574002
0.574006
0.574011
0.574016
0.574016
0.574021
0.574026
0.574031
0.574035
0.574035
0.57404
0.574045
0.57405
0.574055
0.574055
0.57406
0.574065
0.57407
0.574075
0.574075
0.574079
0.574084
0.574089
0.574094
0.574094
0.574099
0.574104
0.574109
0.574114
0.574114
0.574119
0.574124
0.574129
0.574134
0.574134
0.574139
0.574144
0.574149
0.574154
0.574154
0.574159
0.574164
0.574169
0.574174
0.574174
0.574179
0.574184
0.574189
0.574194
0.574194
0.574199
0.574204
0.574209
0.574214
0.574214
0.574219
0.574224
0.574229
0.574234
0.574234
0.574239
0.574245
0.57425
0.574255
0.574255
0.57426
0.574265
0.57427
0.574275
0.574275
0.57428
0.574285
0.574291
0.574296
0.574296
0.574301
0.574306
0.574311
0.574316
0.574316
0.574322
0.574327
0.574332
0.574337
0.574337
0.574342
0.574348
0.574353
0.574358
0.574358
0.574363
0.574368
0.574374
0.574379
0.574379
0.574384
0.574389
0.574395
0.5744
0.5744
0.574405
0.574411
0.574416
0.574421
0.574421
0.574426
0.574432
0.574437
0.574442
0.574442
0.574448
0.574453
0.574458
0.574464
0.574464
0.574469
0.574474
0.57448
0.574485
0.574485
0.57449
0.574496
0.574501
0.574507
0.574507
0.574512
0.574517
0.574523
0.574528
0.574528
0.574534
0.574539
0.574544
0.57455
0.57455
0.574555
0.574561
0.574566
0.574572
0.574572
0.574577
0.574583
0.574588
0.574594
0.574594
0.574599
0.574605
0.57461
0.574616
0.574616
0.574621
0.574627
0.574632
0.574638
0.574638
0.574643
0.574649
0.574654
0.57466
0.57466
0.574665
0.574671
0.574677
0.574682
0.574682
0.574688
0.574693
0.574699
0.574705
0.574705
0.57471
0.574716
0.574721
0.574727
0.574727
0.574733
0.574738
0.574744
0.57475
0.57475
0.574755
0.574761
0.574767
0.574772
0.574772
0.574778
0.574784
0.574789
0.574795
0.574795
0.574801
0.574807
0.574812
0.574818
0.574818
0.574824
0.57483
0.574835
0.574841
0.574841
0.574847
0.574853
0.574858
0.574864
0.574864
0.57487
0.574876
0.574882
0.574887
0.574887
0.574893
0.574899
0.574905
0.574911
0.574911
0.574917
0.574922
0.574928
0.574934
0.574934
0.57494
0.574946
0.574952
0.574958
0.574958
0.574964
0.57497
0.574975
0.574981
0.574981
0.574987
0.574993
0.574999
0.575005
0.575005
0.575011
0.575017
0.575023
0.575029
0.575029
0.575035
0.575041
0.575047
0.575053
0.575053
0.575059
0.575065
0.575071
0.575077
0.575077
0.575083
0.575089
0.575095
0.575101
0.575101
0.575107
0.575113
0.575119
0.575125
0.575125
0.575132
0.575138
0.575144
0.57515
0.57515
0.575156
0.575162
0.575168
0.575174
0.575174
0.57518
0.575187
0.575193
0.575199
0.575199
0.575205
0.575211
0.575217
0.575224
0.575224
0.57523
0.575236
0.575242
0.575248
0.575248
0.575255
0.575261
0.575267
0.575273
0.575273
0.57528
0.575286
0.575292
0.575298
0.575298
0.575305
0.575311
0.575317
0.575324
0.575324
0.57533
0.575336
0.575343
0.575349
0.575349
0.575355
0.575362
0.575368
0.575374
0.575374
0.575381
0.575387
0.575393
0.5754
0.5754
0.575406
0.575413
0.575419
0.575425
0.575425
0.575432
0.575438
0.575445
0.575451
0.575451
0.575458
0.575464
0.575471
0.575477
0.575477
0.575484
0.57549
0.575496
0.575503
0.575503
0.575509
0.575516
0.575523
0.575529
0.575529
0.575536
0.575542
0.575549
0.575555
0.575555
0.575562
0.575568
0.575575
0.575582
0.575582
0.575588
0.575595
0.575601
0.575608
0.575608
0.575615
0.575621
0.575628
0.575635
0.575635
0.575641
0.575648
0.575655
0.575661
0.575661
0.575668
0.575675
0.575681
0.575688
0.575688
0.575695
0.575701
0.575708
0.575715
0.575715
0.575722
0.575728
0.575735
0.575742
0.575742
0.575749
0.575756
0.575762
0.575769
0.575769
0.575776
0.575783
0.57579
0.575796
0.575796
0.575803
0.57581
0.575817
0.575824
0.575824
0.575831
0.575838
0.575844
0.575851
0.575851
0.575858
0.575865
0.575872
0.575879
0.575879
0.575886
0.575893
0.5759
0.575907
0.575907
0.575914
0.575921
0.575928
0.575935
0.575935
0.575942
0.575949
0.575956
0.575963
0.575963
0.57597
0.575977
0.575984
0.575991
0.575991
0.575998
0.576005
0.576012
0.576019
0.576019
0.576026
0.576033
0.57604
0.576048
0.576048
0.576055
0.576062
0.576069
0.576076
0.576076
0.576083
0.57609
0.576098
0.576105
0.576105
0.576112
0.576119
0.576126
0.576133
0.576133
0.576141
0.576148
0.576155
0.576162
0.576162
0.57617
0.576177
0.576184
0.576191
0.576191
0.576199
0.576206
0.576213
0.576221
0.576221
0.576228
0.576235
0.576243
0.57625
0.57625
0.576257
0.576265
0.576272
0.576279
0.576279
0.576287
0.576294
0.576302
0.576309
0.576309
0.576316
0.576324
0.576331
0.576339
0.576339
0.576346
0.576354
0.576361
0.576368
0.576368
0.576376
0.576383
0.576391
0.576398
0.576398
0.576406
0.576414
0.576421
0.576429
0.576429
0.576436
0.576444
0.576451
0.576459
0.576459
0.576466
0.576474
0.576482
0.576489
0.576489
0.576497
0.576504
0.576512
0.57652
0.57652
0.576527
0.576535
0.576543
0.57655
0.57655
0.576558
0.576566
0.576573
0.576581
0.576581
0.576589
0.576597
0.576604
0.576612
0.576612
0.57662
0.576628
0.576635
0.576643
0.576643
0.576651
0.576659
0.576666
0.576674
0.576674
0.576682
0.57669
0.576698
0.576706
0.576706
0.576714
0.576721
0.576729
0.576737
0.576737
0.576745
0.576753
0.576761
0.576769
0.576769
0.576777
0.576785
0.576793
0.576801
0.576801
0.576809
0.576817
0.576824
0.576832
0.576832
0.57684
0.576848
0.576856
0.576865
0.576865
0.576873
0.576881
0.576889
0.576897
0.576897
0.576905
0.576913
0.576921
0.576929
0.576929
0.576937
0.576945
0.576953
0.576962
0.576962
0.57697
0.576978
0.576986
0.576994
0.576994
0.577002
0.577011
0.577019
0.577027
0.577027
0.577035
0.577043
0.577052
0.57706
0.57706
0.577068
0.577077
0.577085
0.577093
0.577093
0.577101
0.57711
0.577118
0.577126
0.577126
0.577135
0.577143
0.577151
0.57716
0.57716
0.577168
0.577176
0.577185
0.577193
0.577193
0.577202
0.57721
0.577218
0.577227
0.577227
0.577235
0.577244
0.577252
0.577261
0.577261
0.577269
0.577278
0.577286
0.577295
0.577295
0.577303
0.577312
0.57732
0.577329
0.577329
0.577337
0.577346
0.577355
0.577363
0.577363
0.577372
0.57738
0.577389
0.577398
0.577398
0.577406
0.577415
0.577424
0.577432
0.577432
0.577441
0.57745
0.577458
0.577467
0.577467
0.577476
0.577484
0.577493
0.577502
0.577502
0.577511
0.577519
0.577528
0.577537
0.577537
0.577546
0.577555
0.577563
0.577572
0.577572
0.577581
0.57759
0.577599
0.577608
0.577608
0.577617
0.577625
0.577634
0.577643
0.577643
0.577652
0.577661
0.57767
0.577679
0.577679
0.577688
0.577697
0.577706
0.577715
0.577715
0.577724
0.577733
0.577742
0.577751
0.577751
0.57776
0.577769
0.577778
0.577787
0.577787
0.577796
0.577805
0.577814
0.577824
0.577824
0.577833
0.577842
0.577851
0.57786
0.57786
0.577869
0.577878
0.577888
0.577897
0.577897
0.577906
0.577915
0.577924
0.577934
0.577934
0.577943
0.577952
0.577961
0.577971
0.577971
0.57798
0.577989
0.577999
0.578008
0.578008
0.578017
0.578027
0.578036
0.578045
0.578045
0.578055
0.578064
0.578073
0.578083
0.578083
0.578092
0.578102
0.578111
0.57812
0.57812
0.57813
0.578139
0.578149
0.578158
0.578158
0.578168
0.578177
0.578187
0.578196
0.578196
0.578206
0.578216
0.578225
0.578235
0.578235
0.578244
0.578254
0.578264
0.578273
0.578273
0.578283
0.578292
0.578302
0.578312
0.578312
0.578321
0.578331
0.578341
0.57835
0.57835
0.57836
0.57837
0.57838
0.578389
0.578389
0.578399
0.578409
0.578419
0.578429
0.578429
0.578438
0.578448
0.578458
0.578468
0.578468
0.578478
0.578488
0.578497
0.578507
0.578507
0.578517
0.578527
0.578537
0.578547
0.578547
0.578557
0.578567
0.578577
0.578587
0.578587
0.578597
0.578607
0.578617
0.578627
0.578627
0.578637
0.578647
0.578657
0.578667
0.578667
0.578677
0.578687
0.578697
0.578707
0.578707
0.578718
0.578728
0.578738
0.578748
0.578748
0.578758
0.578768
0.578779
0.578789
0.578789
0.578799
0.578809
0.578819
0.57883
0.57883
0.57884
0.57885
0.578861
0.578871
0.578871
0.578881
0.578891
0.578902
0.578912
0.578912
0.578922
0.578933
0.578943
0.578954
0.578954
0.578964
0.578974
0.578985
0.578995
0.578995
0.579006
0.579016
0.579027
0.579037
0.579037
0.579048
0.579058
0.579069
0.579079
0.579079
0.57909
0.5791
0.579111
0.579122
0.579122
0.579132
0.579143
0.579153
0.579164
0.579164
0.579175
0.579185
0.579196
0.579207
0.579207
0.579217
0.579228
0.579239
0.57925
0.57925
0.57926
0.579271
0.579282
0.579293
0.579293
0.579303
0.579314
0.579325
0.579336
0.579336
0.579347
0.579358
0.579368
0.579379
0.579379
0.57939
0.579401
0.579412
0.579423
0.579423
0.579434
0.579445
0.579456
0.579467
0.579467
0.579478
0.579489
0.5795
0.579511
0.579511
0.579522
0.579533
0.579544
0.579555
0.579555
0.579566
0.579577
0.579589
0.5796
0.5796
0.579611
0.579622
0.579633
0.579644
0.579644
0.579656
0.579667
0.579678
0.579689
0.579689
0.5797
0.579712
0.579723
0.579734
0.579734
0.579746
0.579757
0.579768
0.57978
0.57978
0.579791
0.579802
0.579814
0.579825
0.579825
0.579836
0.579848
0.579859
0.579871
0.579871
0.579882
0.579894
0.579905
0.579917
0.579917
0.579928
0.57994
0.579951
0.579963
0.579963
0.579974
0.579986
0.579998
0.580009
0.580009
0.580021
0.580032
0.580044
0.580056
0.580056
0.580067
0.580079
0.580091
0.580102
0.580102
0.580114
0.580126
0.580138
0.580149
0.580149
0.580161
0.580173
0.580185
0.580197
0.580197
0.580208
0.58022
0.580232
0.580244
0.580244
0.580256
0.580268
0.58028
0.580292
0.580292
0.580304
0.580316
0.580328
0.58034
0.58034
0.580352
0.580364
0.580376
0.580388
0.580388
0.5804
0.580412
0.580424
0.580436
0.580436
0.580448
0.58046
0.580472
0.580485
0.580485
0.580497
0.580509
0.580521
0.580533
0.580533
0.580546
0.580558
0.58057
0.580582
0.580582
0.580595
0.580607
0.580619
0.580631
0.580631
0.580644
0.580656
0.580669
0.580681
0.580681
0.580693
0.580706
0.580718
0.580731
0.580731
0.580743
0.580756
0.580768
0.580781
0.580781
0.580793
0.580806
0.580818
0.580831
0.580831
0.580843
0.580856
0.580868
0.580881
0.580881
0.580894
0.580906
0.580919
0.580932
0.580932
0.580944
0.580957
0.58097
0.580982
0.580982
0.580995
0.581008
0.581021
0.581034
0.581034
0.581046
0.581059
0.581072
0.581085
0.581085
0.581098
0.581111
0.581123
0.581136
0.581136
0.581149
0.581162
0.581175
0.581188
0.581188
0.581201
0.581214
0.581227
0.58124
0.58124
0.581253
0.581266
0.581279
0.581292
0.581292
0.581306
0.581319
0.581332
0.581345
0.581345
0.581358
0.581371
0.581385
0.581398
0.581398
0.581411
0.581424
0.581438
0.581451
0.581451
0.581464
0.581477
0.581491
0.581504
0.581504
0.581517
0.581531
0.581544
0.581558
0.581558
0.581571
0.581584
0.581598
0.581611
0.581611
0.581625
0.581638
0.581652
0.581665
0.581665
0.581679
0.581692
0.581706
0.58172
0.58172
0.581733
0.581747
0.58176
0.581774
0.581774
0.581788
0.581801
0.581815
0.581829
0.581829
0.581843
0.581856
0.58187
0.581884
0.581884
0.581898
0.581912
0.581925
0.581939
0.581939
0.581953
0.581967
0.581981
0.581995
0.581995
0.582009
0.582023
0.582037
0.582051
0.582051
0.582065
0.582079
0.582093
0.582107
0.582107
0.582121
0.582135
0.582149
0.582163
0.582163
0.582177
0.582191
0.582205
0.58222
0.58222
0.582234
0.582248
0.582262
0.582276
0.582276
0.582291
0.582305
0.582319
0.582333
0.582333
0.582348
0.582362
0.582377
0.582391
0.582391
0.582405
0.58242
0.582434
0.582449
0.582449
0.582463
0.582478
0.582492
0.582506
0.582506
0.582521
0.582536
0.58255
0.582565
0.582565
0.582579
0.582594
0.582609
0.582623
0.582623
0.582638
0.582653
0.582667
0.582682
0.582682
0.582697
0.582711
0.582726
0.582741
0.582741
0.582756
0.582771
0.582785
0.5828
0.5828
0.582815
0.58283
0.582845
0.58286
0.58286
0.582875
0.58289
0.582905
0.58292
0.58292
0.582935
0.58295
0.582965
0.58298
0.58298
0.582995
0.58301
0.583025
0.58304
0.58304
0.583056
0.583071
0.583086
0.583101
0.583101
0.583116
0.583132
0.583147
0.583162
0.583162
0.583177
0.583193
0.583208
0.583223
0.583223
0.583239
0.583254
0.58327
0.583285
0.583285
0.5833
0.583316
0.583331
0.583347
0.583347
0.583362
0.583378
0.583393
0.583409
0.583409
0.583425
0.58344
0.583456
0.583472
0.583472
0.583487
0.583503
0.583519
0.583534
0.583534
0.58355
0.583566
0.583582
0.583597
0.583597
0.583613
0.583629
0.583645
0.583661
0.583661
0.583677
0.583692
0.583708
0.583724
0.583724
0.58374
0.583756
0.583772
0.583788
0.583788
0.583804
0.58382
0.583836
0.583853
0.583853
0.583869
0.583885
0.583901
0.583917
0.583917
0.583933
0.58395
0.583966
0.583982
0.583982
0.583998
0.584015
0.584031
0.584047
0.584047
0.584064
0.58408
0.584096
0.584113
0.584113
0.584129
0.584146
0.584162
0.584178
0.584178
0.584195
0.584211
0.584228
0.584245
0.584245
0.584261
0.584278
0.584294
0.584311
0.584311
0.584328
0.584344
0.584361
0.584378
0.584378
0.584394
0.584411
0.584428
0.584445
0.584445
0.584462
0.584478
0.584495
0.584512
0.584512
0.584529
0.584546
0.584563
0.58458
0.58458
0.584597
0.584614
0.584631
0.584648
0.584648
0.584665
0.584682
0.584699
0.584716
0.584716
0.584733
0.584751
0.584768
0.584785
0.584785
0.584802
0.584819
0.584837
0.584854
0.584854
0.584871
0.584889
0.584906
0.584923
0.584923
0.584941
0.584958
0.584975
0.584993
0.584993
0.58501
0.585028
0.585045
0.585063
0.585063
0.58508
0.585098
0.585116
0.585133
0.585133
0.585151
0.585168
0.585186
0.585204
0.585204
0.585222
0.585239
0.585257
0.585275
0.585275
0.585293
0.58531
0.585328
0.585346
0.585346
0.585364
0.585382
0.5854
0.585418
0.585418
0.585436
0.585454
0.585472
0.58549
0.58549
0.585508
0.585526
0.585544
0.585562
0.585562
0.58558
0.585598
0.585617
0.585635
0.585635
0.585653
0.585671
0.58569
0.585708
0.585708
0.585726
0.585745
0.585763
0.585781
0.585781
0.5858
0.585818
0.585837
0.585855
0.585855
0.585874
0.585892
0.585911
0.585929
0.585929
0.585948
0.585966
0.585985
0.586004
0.586004
0.586022
0.586041
0.58606
0.586078
0.586078
0.586097
0.586116
0.586135
0.586154
0.586154
0.586172
0.586191
0.58621
0.586229
0.586229
0.586248
0.586267
0.586286
0.586305
0.586305