<?xml version="1.0"?>
<VTKFile type="UnstructuredGrid" version="0.1" byte_order="LittleEndian">
<UnstructuredGrid>
<Piece NumberOfPoints="5000" NumberOfCells="4000">
<PointData Scalars="Reaction 0">
<DataArray type="Float32" Name="Reaction 0" format="ascii">
0.100268
0.100268
0.100268
0.100268
0.100268
0.100268
0.100268
0.100268
0.100268
0.100268
0.100268
0.100268
0.100268
0.100268
0.100268
0.100268
0.100268
0.100268
0.100268
0.100268
0.100268
0.100268
0.100268
0.100268
0.100268
0.100268
0.100268
0.100268
0.100268
0.100268
0.100268
0.100268
0.100268
0.100268
0.100268
0.100268
0.100268
0.100268
0.100268
0.100269
0.100269
0.100269
0.100269
0.100269
0.100269
0.100269
0.100269
0.100269
0.100269
0.100269
0.100269
0.100269
0.100269
0.100269
0.100269
0.100269
0.100269
0.10027
0.10027
0.10027
0.10027
0.10027
0.10027
0.10027
0.10027
0.10027
0.10027
0.10027
0.10027
0.100271
0.100271
0.100271
0.100271
0.100271
0.100271
0.100271
0.100271
0.100271
0.100271
0.100271
0.100271
0.100272
0.100272
0.100272
0.100272
0.100272
0.100272
0.100272
0.100272
0.100273
0.100273
0.100273
0.100273
0.100273
0.100273
0.100273
0.100273
0.100273
0.100274
0.100274
0.100274
0.100274
0.100274
0.100274
0.100274
0.100274
0.100274
0.100275
0.100275
0.100275
0.100275
0.100275
0.100275
0.100276
0.100276
0.100276
0.100276
0.100276
0.100276
0.100276
0.100276
0.100277
0.100277
0.100277
0.100277
0.100277
0.100277
0.100278
0.100278
0.100278
0.100278
0.100278
0.100278
0.100279
0.100279
0.100279
0.100279
0.100279
0.100279
0.10028
0.10028
0.10028
0.10028
0.10028
0.100281
0.100281
0.100281
0.100281
0.100281
0.100281
0.100281
0.100282
0.100282
0.100282
0.100282
0.100282
0.100283
0.100283
0.100283
0.100283
0.100283
0.100284
0.100284
0.100284
0.100284
0.100284
0.100285
0.100285
0.100285
0.100285
0.100285
0.100286
0.100286
0.100286
0.100287
0.100287
0.100287
0.100287
0.100287
0.100288
0.100288
0.100288
0.100288
0.100288
0.100289
0.100289
0.100289
0.100289
0.10029
0.10029
0.10029
0.10029
0.100291
0.100291
0.100291
0.100291
0.100291
0.100292
0.100292
0.100292
0.100292
0.100293
0.100293
0.100293
0.100294
0.100294
0.100294
0.100294
0.100295
0.100295
0.100295
0.100295
0.100296
0.100296
0.100296
0.100296
0.100297
0.100297
0.100297
0.100298
0.100298
0.100298
0.100298
0.100299
0.100299
0.100299
0.100299
0.1003
0.1003
0.100301
0.100301
0.100301
0.100301
0.100302
0.100302
0.100302
0.100302
0.100303
0.100303
0.100304
0.100304
0.100304
0.100304
0.100305
0.100305
0.100305
0.100305
0.100306
0.100306
0.100307
0.100307
0.100307
0.100307
0.100308
0.100308
0.100308
0.100309
0.100309
0.100309
0.10031
0.10031
0.10031
0.100311
0.100311
0.100312
0.100312
0.100312
0.100312
0.100313
0.100313
0.100313
0.100314
0.100314
0.100315
0.100315
0.100315
0.100315
0.100316
0.100316
0.100317
0.100317
0.100317
0.100318
0.100318
0.100319
0.100319
0.100319
0.10032
0.10032
0.10032
0.10032
0.100321
0.100321
0.100322
0.100322
0.100322
0.100323
0.100323
0.100324
0.100324
0.100324
0.100325
0.100325
0.100326
0.100326
0.100326
0.100327
0.100327
0.100328
0.100328
0.100328
0.100329
0.100329
0.10033
0.10033
0.10033
0.100331
0.100331
0.100332
0.100332
0.100332
0.100333
0.100333
0.100334
0.100334
0.100334
0.100335
0.100335
0.100336
0.100337
0.100337
0.100337
0.100338
0.100338
0.100339
0.100339
0.100339
0.10034
0.10034
0.100341
0.100341
0.100341
0.100342
0.100343
0.100343
0.100343
0.100344
0.100344
0.100345
0.100345
0.100345
0.100346
0.100347
0.100347
0.100348
0.100348
0.100348
0.100349
0.10035
0.10035
0.10035
0.100351
0.100351
0.100352
0.100353
0.100353
0.100353
0.100354
0.100354
0.100355
0.100355
0.100356
0.100356
0.100357
0.100357
0.100357
0.100358
0.100359
0.100359
0.10036
0.10036
0.100361
0.100361
0.100362
0.100362
0.100362
0.100363
0.100364
0.100364
0.100365
0.100365
0.100366
0.100366
0.100367
0.100368
0.100368
0.100368
0.100369
0.10037
0.10037
0.10037
0.100371
0.100372
0.100372
0.100373
0.100373
0.100374
0.100374
0.100375
0.100376
0.100376
0.100376
0.100377
0.100378
0.100379
0.100379
0.100379
0.10038
0.100381
0.100381
0.100381
0.100382
0.100383
0.100384
0.100384
0.100384
0.100385
0.100386
0.100386
0.100387
0.100387
0.100388
0.100389
0.100389
0.10039
0.10039
0.100391
0.100392
0.100392
0.100393
0.100393
0.100394
0.100395
0.100395
0.100396
0.100396
0.100397
0.100398
0.100398
0.100399
0.100399
0.1004
0.100401
0.100401
0.100402
0.100402
0.100403
0.100404
0.100405
0.100405
0.100405
0.100406
0.100407
0.100408
0.100409
0.100409
0.100409
0.10041
0.100411
0.100412
0.100412
0.100413
0.100413
0.100414
0.100415
0.100415
0.100416
0.100417
0.100418
0.100418
0.100418
0.100419
0.10042
0.100421
0.100422
0.100422
0.100423
0.100423
0.100424
0.100425
0.100425
0.100426
0.100427
0.100428
0.100429
0.100429
0.100429
0.10043
0.100431
0.100432
0.100432
0.100433
0.100434
0.100435
0.100436
0.100436
0.100437
0.100437
0.100438
0.100439
0.100439
0.10044
0.100441
0.100442
0.100443
0.100443
0.100444
0.100445
0.100446
0.100447
0.100447
0.100447
0.100448
0.100449
0.10045
0.10045
0.100451
0.100452
0.100453
0.100454
0.100454
0.100455
0.100456
0.100457
0.100458
0.100458
0.100459
0.10046
0.100461
0.100462
0.100462
0.100463
0.100464
0.100465
0.100466
0.100466
0.100467
0.100467
0.100468
0.100469
0.100469
0.10047
0.100471
0.100472
0.100473
0.100473
0.100474
0.100475
0.100476
0.100477
0.100477
0.100479
0.10048
0.100481
0.100482
0.100482
0.100483
0.100484
0.100485
0.100486
0.100486
0.100487
0.100488
0.100489
0.10049
0.10049
0.100491
0.100492
0.100493
0.100494
0.100494
0.100495
0.100496
0.100497
0.100498
0.100498
0.100499
0.100501
0.100502
0.100503
0.100503
0.100504
0.100505
0.100506
0.100507
0.100507
0.100508
0.100509
0.10051
0.100512
0.100512
0.100513
0.100514
0.100515
0.100516
0.100516
0.100517
0.100518
0.100519
0.100521
0.100521
0.100522
0.100523
0.100524
0.100525
0.100525
0.100526
0.100527
0.100529
0.10053
0.10053
0.100531
0.100532
0.100533
0.100534
0.100534
0.100536
0.100537
0.100538
0.100539
0.100539
0.10054
0.100542
0.100543
0.100544
0.100544
0.100545
0.100546
0.100548
0.100549
0.100549
0.10055
0.100551
0.100552
0.100554
0.100554
0.100555
0.100556
0.100557
0.100559
0.100559
0.10056
0.100561
0.100562
0.100564
0.100564
0.100565
0.100566
0.100567
0.100569
0.100569
0.10057
0.100571
0.100572
0.100574
0.100574
0.100575
0.100576
0.100578
0.100579
0.100579
0.10058
0.100582
0.100583
0.100584
0.100584
0.100585
0.100587
0.100588
0.100589
0.100589
0.100591
0.100592
0.100593
0.100595
0.100595
0.100596
0.100597
0.100599
0.1006
0.1006
0.100601
0.100603
0.100604
0.100606
0.100606
0.100607
0.100608
0.10061
0.100611
0.100611
0.100612
0.100614
0.100615
0.100617
0.100617
0.100618
0.100619
0.100621
0.100622
0.100622
0.100624
0.100625
0.100626
0.100628
0.100628
0.100629
0.100631
0.100632
0.100634
0.100634
0.100635
0.100637
0.100638
0.100639
0.100639
0.100641
0.100642
0.100644
0.100645
0.100645
0.100647
0.100648
0.10065
0.100651
0.100651
0.100653
0.100654
0.100656
0.100657
0.100657
0.100659
0.10066
0.100662
0.100663
0.100663
0.100665
0.100666
0.100668
0.100669
0.100669
0.100671
0.100672
0.100674
0.100675
0.100675
0.100677
0.100679
0.10068
0.100682
0.100682
0.100683
0.100685
0.100686
0.100688
0.100688
0.10069
0.100691
0.100693
0.100694
0.100694
0.100696
0.100697
0.100699
0.100701
0.100701
0.100702
0.100704
0.100706
0.100707
0.100707
0.100709
0.10071
0.100712
0.100714
0.100714
0.100715
0.100717
0.100719
0.10072
0.10072
0.100722
0.100724
0.100725
0.100727
0.100727
0.100729
0.10073
0.100732
0.100734
0.100734
0.100735
0.100737
0.100739
0.10074
0.10074
0.100742
0.100744
0.100746
0.100747
0.100747
0.100749
0.100751
0.100753
0.100754
0.100754
0.100756
0.100758
0.10076
0.100761
0.100761
0.100763
0.100765
0.100767
0.100768
0.100768
0.10077
0.100772
0.100774
0.100776
0.100776
0.100777
0.100779
0.100781
0.100783
0.100783
0.100785
0.100786
0.100788
0.10079
0.10079
0.100792
0.100794
0.100796
0.100797
0.100797
0.100799
0.100801
0.100803
0.100805
0.100805
0.100807
0.100809
0.10081
0.100812
0.100812
0.100814
0.100816
0.100818
0.10082
0.10082
0.100822
0.100824
0.100826
0.100827
0.100827
0.100829
0.100831
0.100833
0.100835
0.100835
0.100837
0.100839
0.100841
0.100843
0.100843
0.100845
0.100847
0.100849
0.100851
0.100851
0.100853
0.100855
0.100857
0.100859
0.100859
0.100861
0.100863
0.100865
0.100867
0.100867
0.100869
0.100871
0.100873
0.100875
0.100875
0.100877
0.100879
0.100881
0.100883
0.100883
0.100885
0.100887
0.100889
0.100891
0.100891
0.100893
0.100895
0.100897
0.1009
0.1009
0.100902
0.100904
0.100906
0.100908
0.100908
0.10091
0.100912
0.100914
0.100916
0.100916
0.100919
0.100921
0.100923
0.100925
0.100925
0.100927
0.100929
0.100931
0.100934
0.100934
0.100936
0.100938
0.10094
0.100942
0.100942
0.100945
0.100947
0.100949
0.100951
0.100951
0.100953
0.100956
0.100958
0.10096
0.10096
0.100962
0.100964
0.100967
0.100969
0.100969
0.100971
0.100973
0.100976
0.100978
0.100978
0.10098
0.100983
0.100985
0.100987
0.100987
0.100989
0.100992
0.100994
0.100996
0.100996
0.100999
0.101001
0.101003
0.101006
0.101006
0.101008
0.10101
0.101013
0.101015
0.101015
0.101017
0.10102
0.101022
0.101024
0.101024
0.101027
0.101029
0.101032
0.101034
0.101034
0.101036
0.101039
0.101041
0.101044
0.101044
0.101046
0.101048
0.101051
0.101053
0.101053
0.101056
0.101058
0.101061
0.101063
0.101063
0.101066
0.101068
0.101071
0.101073
0.101073
0.101076
0.101078
0.101081
0.101083
0.101083
0.101086
0.101088
0.101091
0.101093
0.101093
0.101096
0.101098
0.101101
0.101103
0.101103
0.101106
0.101108
0.101111
0.101114
0.101114
0.101116
0.101119
0.101121
0.101124
0.101124
0.101127
0.101129
0.101132
0.101134
0.101134
0.101137
0.10114
0.101142
0.101145
0.101145
0.101148
0.10115
0.101153
0.101156
0.101156
0.101158
0.101161
0.101164
0.101166
0.101166
0.101169
0.101172
0.101174
0.101177
0.101177
0.10118
0.101183
0.101185
0.101188
0.101188
0.101191
0.101194
0.101196
0.101199
0.101199
0.101202
0.101205
0.101207
0.10121
0.10121
0.101213
0.101216
0.101219
0.101221
0.101221
0.101224
0.101227
0.10123
0.101233
0.101233
0.101236
0.101239
0.101241
0.101244
0.101244
0.101247
0.10125
0.101253
0.101256
0.101256
0.101259
0.101262
0.101264
0.101267
0.101267
0.10127
0.101273
0.101276
0.101279
0.101279
0.101282
0.101285
0.101288
0.101291
0.101291
0.101294
0.101297
0.1013
0.101303
0.101303
0.101306
0.101309
0.101312
0.101315
0.101315
0.101318
0.101321
0.101324
0.101327
0.101327
0.10133
0.101333
0.101336
0.101339
0.101339
0.101342
0.101345
0.101349
0.101352
0.101352
0.101355
0.101358
0.101361
0.101364
0.101364
0.101367
0.10137
0.101374
0.101377
0.101377
0.10138
0.101383
0.101386
0.101389
0.101389
0.101393
0.101396
0.101399
0.101402
0.101402
0.101405
0.101409
0.101412
0.101415
0.101415
0.101418
0.101422
0.101425
0.101428
0.101428
0.101431
0.101435
0.101438
0.101441
0.101441
0.101445
0.101448
0.101451
0.101455
0.101455
0.101458
0.101461
0.101465
0.101468
0.101468
0.101471
0.101475
0.101478
0.101481
0.101481
0.101485
0.101488
0.101492
0.101495
0.101495
0.101498
0.101502
0.101505
0.101509
0.101509
0.101512
0.101516
0.101519
0.101522
0.101522
0.101526
0.101529
0.101533
0.101536
0.101536
0.10154
0.101543
0.101547
0.10155
0.10155
0.101554
0.101558
0.101561
0.101565
0.101565
0.101568
0.101572
0.101575
0.101579
0.101579
0.101583
0.101586
0.10159
0.101593
0.101593
0.101597
0.101601
0.101604
0.101608
0.101608
0.101612
0.101615
0.101619
0.101623
0.101623
0.101626
0.10163
0.101634
0.101637
0.101637
0.101641
0.101645
0.101649
0.101652
0.101652
0.101656
0.10166
0.101664
0.101667
0.101667
0.101671
0.101675
0.101679
0.101683
0.101683
0.101686
0.10169
0.101694
0.101698
0.101698
0.101702
0.101706
0.101709
0.101713
0.101713
0.101717
0.101721
0.101725
0.101729
0.101729
0.101733
0.101737
0.101741
0.101745
0.101745
0.101748
0.101752
0.101756
0.10176
0.10176
0.101764
0.101768
0.101772
0.101776
0.101776
0.10178
0.101784
0.101788
0.101792
0.101792
0.101796
0.101801
0.101805
0.101809
0.101809
0.101813
0.101817
0.101821
0.101825
0.101825
0.101829
0.101833
0.101837
0.101841
0.101841
0.101846
0.10185
0.101854
0.101858
0.101858
0.101862
0.101866
0.101871
0.101875
0.101875
0.101879
0.101883
0.101888
0.101892
0.101892
0.101896
0.1019
0.101905
0.101909
0.101909
0.101913
0.101917
0.101922
0.101926
0.101926
0.10193
0.101935
0.101939
0.101943
0.101943
0.101948
0.101952
0.101956
0.101961
0.101961
0.101965
0.10197
0.101974
0.101978
0.101978
0.101983
0.101987
0.101992
0.101996
0.101996
0.102001
0.102005
0.10201
0.102014
0.102014
0.102019
0.102023
0.102028
0.102032
0.102032
0.102037
0.102041
0.102046
0.10205
0.10205
0.102055
0.10206
0.102064
0.102069
0.102069
0.102073
0.102078
0.102083
0.102087
0.102087
0.102092
0.102097
0.102101
0.102106
0.102106
0.102111
0.102115
0.10212
0.102125
0.102125
0.10213
0.102134
0.102139
0.102144
0.102144
0.102149
0.102153
0.102158
0.102163
0.102163
0.102168
0.102173
0.102177
0.102182
0.102182
0.102187
0.102192
0.102197
0.102202
0.102202
0.102206
0.102211
0.102216
0.102221
0.102221
0.102226
0.102231
0.102236
0.102241
0.102241
0.102246
0.102251
0.102256
0.102261
0.102261
0.102266
0.102271
0.102276
0.102281
0.102281
0.102286
0.102291
0.102296
0.102301
0.102301
0.102306
0.102311
0.102316
0.102322
0.102322
0.102327
0.102332
0.102337
0.102342
0.102342
0.102347
0.102352
0.102358
0.102363
0.102363
0.102368
0.102373
0.102379
0.102384
0.102384
0.102389
0.102394
0.1024
0.102405
0.102405
0.10241
0.102415
0.102421
0.102426
0.102426
0.102431
0.102437
0.102442
0.102447
0.102447
0.102453
0.102458
0.102464
0.102469
0.102469
0.102474
0.10248
0.102485
0.102491
0.102491
0.102496
0.102502
0.102507
0.102513
0.102513
0.102518
0.102524
0.102529
0.102535
0.102535
0.10254
0.102546
0.102552
0.102557
0.102557
0.102563
0.102568
0.102574
0.10258
0.10258
0.102585
0.102591
0.102596
0.102602
0.102602
0.102608
0.102614
0.102619
0.102625
0.102625
0.102631
0.102636
0.102642
0.102648
0.102648
0.102654
0.10266
0.102665
0.102671
0.102671
0.102677
0.102683
0.102689
0.102694
0.102694
0.1027
0.102706
0.102712
0.102718
0.102718
0.102724
0.10273
0.102736
0.102742
0.102742
0.102748
0.102754
0.10276
0.102766
0.102766
0.102772
0.102778
0.102784
0.10279
0.10279
0.102796
0.102802
0.102808
0.102814
0.102814
0.10282
0.102826
0.102832
0.102839
0.102839
0.102845
0.102851
0.102857
0.102863
0.102863
0.102869
0.102876
0.102882
0.102888
0.102888
0.102894
0.102901
0.102907
0.102913
0.102913
0.102919
0.102926
0.102932
0.102938
0.102938
0.102945
0.102951
0.102957
0.102964
0.102964
0.10297
0.102977
0.102983
0.102989
0.102989
0.102996
0.103002
0.103009
0.103015
0.103015
0.103022
0.103028
0.103035
0.103041
0.103041
0.103048
0.103054
0.103061
0.103068
0.103068
0.103074
0.103081
0.103087
0.103094
0.103094
0.103101
0.103107
0.103114
0.103121
0.103121
0.103127
0.103134
0.103141
0.103148
0.103148
0.103154
0.103161
0.103168
0.103175
0.103175
0.103181
0.103188
0.103195
0.103202
0.103202
0.103209
0.103216
0.103223
0.103229
0.103229
0.103236
0.103243
0.10325
0.103257
0.103257
0.103264
0.103271
0.103278
0.103285
0.103285
0.103292
0.103299
0.103306
0.103313
0.103313
0.10332
0.103327
0.103334
0.103342
0.103342
0.103349
0.103356
0.103363
0.10337
0.10337
0.103377
0.103384
0.103392
0.103399
0.103399
0.103406
0.103413
0.103421
0.103428
0.103428
0.103435
0.103442
0.10345
0.103457
0.103457
0.103464
0.103472
0.103479
0.103487
0.103487
0.103494
0.103501
0.103509
0.103516
0.103516
0.103524
0.103531
0.103539
0.103546
0.103546
0.103554
0.103561
0.103569
0.103576
0.103576
0.103584
0.103591
0.103599
0.103607
0.103607
0.103614
0.103622
0.10363
0.103637
0.103637
0.103645
0.103653
0.10366
0.103668
0.103668
0.103676
0.103684
0.103691
0.103699
0.103699
0.103707
0.103715
0.103723
0.10373
0.10373
0.103738
0.103746
0.103754
0.103762
0.103762
0.10377
0.103778
0.103786
0.103794
0.103794
0.103802
0.10381
0.103818
0.103826
0.103826
0.103834
0.103842
0.10385
0.103858
0.103858
0.103866
0.103874
0.103882
0.10389
0.10389
0.103899
0.103907
0.103915
0.103923
0.103923
0.103931
0.10394
0.103948
0.103956
0.103956
0.103964
0.103973
0.103981
0.103989
0.103989
0.103998
0.104006
0.104014
0.104023
0.104023
0.104031
0.10404
0.104048
0.104056
0.104056
0.104065
0.104073
0.104082
0.10409
0.10409
0.104099
0.104107
0.104116
0.104125
0.104125
0.104133
0.104142
0.10415
0.104159
0.104159
0.104168
0.104176
0.104185
0.104194
0.104194
0.104203
0.104211
0.10422
0.104229
0.104229
0.104238
0.104246
0.104255
0.104264
0.104264
0.104273
0.104282
0.104291
0.1043
0.1043
0.104308
0.104317
0.104326
0.104335
0.104335
0.104344
0.104353
0.104362
0.104371
0.104371
0.10438
0.104389
0.104399
0.104408
0.104408
0.104417
0.104426
0.104435
0.104444
0.104444
0.104453
0.104463
0.104472
0.104481
0.104481
0.10449
0.1045
0.104509
0.104518
0.104518
0.104527
0.104537
0.104546
0.104556
0.104556
0.104565
0.104574
0.104584
0.104593
0.104593
0.104603
0.104612
0.104622
0.104631
0.104631
0.104641
0.10465
0.10466
0.104669
0.104669
0.104679
0.104688
0.104698
0.104708
0.104708
0.104717
0.104727
0.104737
0.104747
0.104747
0.104756
0.104766
0.104776
0.104786
0.104786
0.104795
0.104805
0.104815
0.104825
0.104825
0.104835
0.104845
0.104855
0.104864
0.104864
0.104874
0.104884
0.104894
0.104904
0.104904
0.104914
0.104924
0.104935
0.104945
0.104945
0.104955
0.104965
0.104975
0.104985
0.104985
0.104995
0.105005
0.105016
0.105026
0.105026
0.105036
0.105046
0.105057
0.105067
0.105067
0.105077
0.105088
0.105098
0.105108
0.105108
0.105119
0.105129
0.105139
0.10515
0.10515
0.10516
0.105171
0.105181
0.105192
0.105192
0.105202
0.105213
0.105224
0.105234
0.105234
0.105245
0.105255
0.105266
0.105277
0.105277
0.105287
0.105298
0.105309
0.10532
0.10532
0.10533
0.105341
0.105352
0.105363
0.105363
0.105374
0.105384
0.105395
0.105406
0.105406
0.105417
0.105428
0.105439
0.10545
0.10545
0.105461
0.105472
0.105483
0.105494
0.105494
0.105505
0.105516
0.105527
0.105539
0.105539
0.10555
0.105561
0.105572
0.105583
0.105583
0.105595
0.105606
0.105617
0.105628
0.105628
0.10564
0.105651
0.105662
0.105674
0.105674
0.105685
0.105697
0.105708
0.105719
0.105719
0.105731
0.105742
0.105754
0.105765
0.105765
0.105777
0.105789
0.1058
0.105812
0.105812
0.105823
0.105835
0.105847
0.105858
0.105858
0.10587
0.105882
0.105894
0.105905
0.105905
0.105917
0.105929
0.105941
0.105953
0.105953
0.105965
0.105977
0.105989
0.106
0.106
0.106012
0.106024
0.106036
0.106048
0.106048
0.106061
0.106073
0.106085
0.106097
0.106097
0.106109
0.106121
0.106133
0.106145
0.106145
0.106158
0.10617
0.106182
0.106194
0.106194
0.106207
0.106219
0.106231
0.106244
0.106244
0.106256
0.106269
0.106281
0.106294
0.106294
0.106306
0.106319
0.106331
0.106344
0.106344
0.106356
0.106369
0.106381
0.106394
0.106394
0.106407
0.106419
0.106432
0.106445
0.106445
0.106457
0.10647
0.106483
0.106496
0.106496
0.106509
0.106522
0.106534
0.106547
0.106547
0.10656
0.106573
0.106586
0.106599
0.106599
0.106612
0.106625
0.106638
0.106651
0.106651
0.106664
0.106677
0.106691
0.106704
0.106704
0.106717
0.10673
0.106743
0.106757
0.106757
0.10677
0.106783
0.106797
0.10681
0.10681
0.106823
0.106837
0.10685
0.106864
0.106864
0.106877
0.106891
0.106904
0.106918
0.106918
0.106931
0.106945
0.106958
0.106972
0.106972
0.106986
0.106999
0.107013
0.107027
0.107027
0.10704
0.107054
0.107068
0.107082
0.107082
0.107096
0.107109
0.107123
0.107137
0.107137
0.107151
0.107165
0.107179
0.107193
0.107193
0.107207
0.107221
0.107235
0.107249
0.107249
0.107263
0.107278
0.107292
0.107306
0.107306
0.10732
0.107334
0.107349
0.107363
0.107363
0.107377
0.107392
0.107406
0.10742
0.10742
0.107435
0.107449
0.107464
0.107478
0.107478
0.107493
0.107507
0.107522
0.107536
0.107536
0.107551
0.107566
0.10758
0.107595
0.107595
0.10761
0.107624
0.107639
0.107654
0.107654
0.107669
0.107684
0.107698
0.107713
0.107713
0.107728
0.107743
0.107758
0.107773
0.107773
0.107788
0.107803
0.107818
0.107833
0.107833
0.107848
0.107863
0.107879
0.107894
0.107894
0.107909
0.107924
0.107939
0.107955
0.107955
0.10797
0.107985
0.108001
0.108016
0.108016
0.108032
0.108047
0.108062
0.108078
0.108078
0.108093
0.108109
0.108125
0.10814
0.10814
0.108156
0.108171
0.108187
0.108203
0.108203
0.108219
0.108234
0.10825
0.108266
0.108266
0.108282
0.108298
0.108313
0.108329
0.108329
0.108345
0.108361
0.108377
0.108393
0.108393
0.108409
0.108425
0.108441
0.108458
0.108458
0.108474
0.10849
0.108506
0.108522
0.108522
0.108539
0.108555
0.108571
0.108587
0.108587
0.108604
0.10862
0.108637
0.108653
0.108653
0.10867
0.108686
0.108703
0.108719
0.108719
0.108736
0.108752
0.108769
0.108786
0.108786
0.108802
0.108819
0.108836
0.108852
0.108852
0.108869
0.108886
0.108903
0.10892
0.10892
0.108937
0.108954
0.108971
0.108988
0.108988
0.109005
0.109022
0.109039
0.109056
0.109056
0.109073
0.10909
0.109107
0.109125
0.109125
0.109142
0.109159
0.109176
0.109194
0.109194
0.109211
0.109228
0.109246
0.109263
0.109263
0.109281
0.109298
0.109316
0.109333
0.109333
0.109351
0.109368
0.109386
0.109404
0.109404
0.109421
0.109439
0.109457
0.109475
0.109475
0.109493
0.10951
0.109528
0.109546
0.109546
0.109564
0.109582
0.1096
0.109618
0.109618
0.109636
0.109654
0.109672
0.10969
0.10969
0.109709
0.109727
0.109745
0.109763
0.109763
0.109782
0.1098
0.109818
0.109837
0.109837
0.109855
0.109873
0.109892
0.10991
0.10991
0.109929
0.109947
0.109966
0.109985
0.109985
0.110003
0.110022
0.110041
0.110059
0.110059
0.110078
0.110097
0.110116
0.110134
0.110134
0.110153
0.110172
0.110191
0.11021
0.11021
0.110229
0.110248
0.110267
0.110286
0.110286
0.110305
0.110325
0.110344
0.110363
0.110363
0.110382
0.110401
0.110421
0.11044
0.11044
0.110459
0.110479
0.110498
0.110518
0.110518
0.110537
0.110557
0.110576
0.110596
0.110596
0.110615
0.110635
0.110655
0.110674
0.110674
0.110694
0.110714
0.110734
0.110754
0.110754
0.110773
0.110793
0.110813
0.110833
0.110833
0.110853
0.110873
0.110893
0.110913
0.110913
0.110933
0.110954
0.110974
0.110994
0.110994
0.111014
0.111035
0.111055
0.111075
0.111075
0.111096
0.111116
0.111136
0.111157
0.111157
0.111177
0.111198
0.111218
0.111239
0.111239
0.11126
0.11128
0.111301
0.111322
0.111322
0.111343
0.111363
0.111384
0.111405
0.111405
0.111426
0.111447
0.111468
0.111489
0.111489
0.11151
0.111531
0.111552
0.111573
0.111573
0.111594
0.111615
0.111637
0.111658
0.111658
0.111679
0.1117
0.111722
0.111743
0.111743
0.111765
0.111786
0.111807
0.111829
0.111829
0.111851
0.111872
0.111894
0.111915
0.111915
0.111937
0.111959
0.111981
0.112002
0.112002
0.112024
0.112046
0.112068
0.11209
0.11209
0.112112
0.112134
0.112156
0.112178
0.112178
0.1122
0.112222
0.112244
0.112266
0.112266
0.112289
0.112311
0.112333
0.112356
0.112356
0.112378
0.1124
0.112423
0.112445
0.112445
0.112468
0.11249
0.112513
0.112535
0.112535
0.112558
0.112581
0.112603
0.112626
0.112626
0.112649
0.112672
0.112695
0.112718
0.112718
0.11274
0.112763
0.112786
0.112809
0.112809
0.112833
0.112856
0.112879
0.112902
0.112902
0.112925
0.112948
0.112972
0.112995
0.112995
0.113018
0.113042
0.113065
0.113089
0.113089
0.113112
0.113136
0.113159
0.113183
0.113183
0.113206
0.11323
0.113254
0.113278
0.113278
0.113301
0.113325
0.113349
0.113373
0.113373
0.113397
0.113421
0.113445
0.113469
0.113469
0.113493
0.113517
0.113541
0.113565
0.113565
0.113589
0.113614
0.113638
0.113662
0.113662
0.113687
0.113711
0.113736
0.11376
0.11376
0.113785
0.113809
0.113834
0.113858
0.113858
0.113883
0.113908
0.113932
0.113957
0.113957
0.113982
0.114007
0.114032
0.114057
0.114057
0.114082
0.114107
0.114132
0.114157
0.114157
0.114182
0.114207
0.114232
0.114257
0.114257
0.114283
0.114308
0.114333
0.114359
0.114359
0.114384
0.114409
0.114435
0.11446
0.11446
0.114486
0.114512
0.114537
0.114563
0.114563
0.114589
0.114614
0.11464
0.114666
0.114666
0.114692
0.114718
0.114744
0.11477
0.11477
0.114796
0.114822
0.114848
0.114874
0.114874
0.1149
0.114927
0.114953
0.114979
0.114979
0.115005
0.115032
0.115058
0.115085
0.115085
0.115111
0.115138
0.115164
0.115191
0.115191
0.115218
0.115244
0.115271
0.115298
0.115298
0.115325
0.115351
0.115378
0.115405
0.115405
0.115432
0.115459
0.115486
0.115513
0.115513
0.11554
0.115568
0.115595
0.115622
0.115622
0.115649
0.115677
0.115704
0.115731
0.115731
0.115759
0.115786
0.115814
0.115842
0.115842
0.115869
0.115897
0.115924
0.115952
0.115952
0.11598
0.116008
0.116036
0.116064
0.116064
0.116091
0.116119
0.116147
0.116176
0.116176
0.116204
0.116232
0.11626
0.116288
0.116288
0.116316
0.116345
0.116373
0.116402
0.116402
0.11643
0.116458
0.116487
0.116515
0.116515
0.116544
0.116573
0.116601
0.11663
0.11663
0.116659
0.116688
0.116717
0.116745
0.116745
0.116774
0.116803
0.116832
0.116861
0.116861
0.11689
0.11692
0.116949
0.116978
0.116978
0.117007
0.117037
0.117066
0.117095
0.117095
0.117125
0.117154
0.117184
0.117213
0.117213
0.117243
0.117273
0.117302
0.117332
0.117332
0.117362
0.117392
0.117422
0.117451
0.117451
0.117481
0.117511
0.117541
0.117571
0.117571
0.117602
0.117632
0.117662
0.117692
0.117692
0.117723
0.117753
0.117783
0.117814
0.117814
0.117844
0.117875
0.117905
0.117936
0.117936
0.117966
0.117997
0.118028
0.118059
0.118059
0.118089
0.11812
0.118151
0.118182
0.118182
0.118213
0.118244
0.118275
0.118306
0.118306
0.118338
0.118369
0.1184
0.118431
0.118431
0.118463
0.118494
0.118526
0.118557
0.118557
0.118589
0.11862
0.118652
0.118684
0.118684
0.118715
0.118747
0.118779
0.118811
0.118811
0.118843
0.118874
0.118906
0.118938
0.118938
0.118971
0.119003
0.119035
0.119067
0.119067
0.119099
0.119132
0.119164
0.119196
0.119196
0.119229
0.119261
0.119294
0.119326
0.119326
0.119359
0.119392
0.119424
0.119457
0.119457
0.11949
0.119523
0.119556
0.119589
0.119589
0.119621
0.119655
0.119688
0.119721
0.119721
0.119754
0.119787
0.11982
0.119854
0.119854
0.119887
0.11992
0.119954
0.119987
0.119987
0.120021
0.120055
0.120088
0.120122
0.120122
0.120156
0.120189
0.120223
0.120257
0.120257
0.120291
0.120325
0.120359
0.120393
0.120393
0.120427
0.120461
0.120495
0.12053
0.12053
0.120564
0.120598
0.120633
0.120667
0.120667
0.120702
0.120736
0.120771
0.120805
0.120805
0.12084
0.120875
0.12091
0.120944
0.120944
0.120979
0.121014
0.121049
0.121084
0.121084
0.121119
0.121154
0.12119
0.121225
0.121225
0.12126
0.121295
0.121331
0.121366
0.121366
0.121402
0.121437
0.121473
0.121508
0.121508
0.121544
0.12158
0.121615
0.121651
0.121651
0.121687
0.121723
0.121759
0.121795
0.121795
0.121831
0.121867
0.121903
0.121939
0.121939
0.121975
0.122012
0.122048
0.122084
0.122084
0.122121
0.122157
0.122194
0.12223
0.12223
0.122267
0.122304
0.122341
0.122377
0.122377
0.122414
0.122451
0.122488
0.122525
0.122525
0.122562
0.122599
0.122636
0.122673
0.122673
0.122711
0.122748
0.122785
0.122823
0.122823
0.12286
0.122898
0.122935
0.122973
0.122973
0.12301
0.123048
0.123086
0.123124
0.123124
0.123161
0.123199
0.123237
0.123275
0.123275
0.123313
0.123351
0.12339
0.123428
0.123428
0.123466
0.123504
0.123543
0.123581
0.123581
0.12362
0.123658
0.123697
0.123735
0.123735
0.123774
0.123813
0.123851
0.12389
0.12389
0.123929
0.123968
0.124007
0.124046
0.124046
0.124085
0.124124
0.124163
0.124203
0.124203
0.124242
0.124281
0.124321
0.12436
0.12436
0.1244
0.124439
0.124479
0.124519
0.124519
0.124558
0.124598
0.124638
0.124678
0.124678
0.124718
0.124758
0.124798
0.124838
0.124838
0.124878
0.124918
0.124958
0.124999
0.124999
0.125039
0.125079
0.12512
0.12516
0.12516
0.125201
0.125241
0.125282
0.125323
0.125323
0.125364
0.125405
0.125445
0.125486
0.125486
0.125527
0.125568
0.125609
0.125651
0.125651
0.125692
0.125733
0.125774
0.125816
0.125816
0.125857
0.125899
0.12594
0.125982
0.125982
0.126023
0.126065
0.126107
0.126149
0.126149
0.126191
0.126233
0.126275
0.126317
0.126317
0.126359
0.126401
0.126443
0.126485
0.126485
0.126528
0.12657
0.126612
0.126655
0.126655
0.126697
0.12674
0.126782
0.126825
0.126825
0.126868
0.126911
0.126954
0.126997
0.126997
0.127039
0.127082
0.127126
0.127169
0.127169
0.127212
0.127255
0.127298
0.127342
0.127342
0.127385
0.127429
0.127472
0.127516
0.127516
0.127559
0.127603
0.127647
0.127691
0.127691
0.127735
0.127779
0.127823
0.127867
0.127867
0.127911
0.127955
0.127999
0.128043
0.128043
0.128088
0.128132
0.128176
0.128221
0.128221
0.128265
0.12831
0.128355
0.128399
0.128399
0.128444
0.128489
0.128534
0.128579
0.128579
0.128624
0.128669
0.128714
0.128759
0.128759
0.128805
0.12885
0.128895
0.128941
0.128941
0.128986
0.129032
0.129077
0.129123
0.129123
0.129169
0.129214
0.12926
0.129306
0.129306
0.129352
0.129398
0.129444
0.12949
0.12949
0.129536
0.129582
0.129629
0.129675
0.129675
0.129722
0.129768
0.129814
0.129861
0.129861
0.129908
0.129954
0.130001
0.130048
0.130048
0.130095
0.130142
0.130189
0.130236
0.130236
0.130283
0.13033
0.130377
0.130425
0.130425
0.130472
0.130519
0.130567
0.130614
0.130614
0.130662
0.13071
0.130757
0.130805
0.130805
0.130853
0.130901
0.130949
0.130997
0.130997
0.131045
0.131093
0.131141
0.131189
0.131189
0.131238
0.131286
0.131335
0.131383
0.131383
0.131432
0.13148
0.131529
0.131578
0.131578
0.131626
0.131675
0.131724
0.131773
0.131773
0.131822
0.131871
0.13192
0.13197
0.13197
0.132019
0.132068
0.132118
0.132167
0.132167
0.132217
0.132266
0.132316
0.132366
0.132366
0.132415
0.132465
0.132515
0.132565
0.132565
0.132615
0.132665
0.132715
0.132766
0.132766
0.132816
0.132866
0.132917
0.132967
0.132967
0.133018
0.133068
0.133119
0.133169
0.133169
0.13322
0.133271
0.133322
0.133373
0.133373
0.133424
0.133475
0.133526
0.133577
0.133577
0.133629
0.13368
0.133731
0.133783
0.133783
0.133834
0.133886
0.133938
0.133989
0.133989
0.134041
0.134093
0.134145
0.134197
0.134197
0.134249
0.134301
0.134353
0.134405
0.134405
0.134457
0.13451
0.134562
0.134615
0.134615
0.134667
0.13472
0.134772
0.134825
0.134825
0.134878
0.134931
0.134984
0.135037
0.135037
0.13509
0.135143
0.135196
0.135249
0.135249
0.135303
0.135356
0.135409
0.135463
0.135463
0.135516
0.13557
0.135624
0.135677
0.135677
0.135731
0.135785
0.135839
0.135893
0.135893
0.135947
0.136001
0.136055
0.13611
0.13611
0.136164
0.136218
0.136273
0.136327
0.136327
0.136382
0.136437
0.136491
0.136546
0.136546
0.136601
0.136656
0.136711
0.136766
0.136766
0.136821
0.136876
0.136932
0.136987
0.136987
0.137042
0.137098
0.137153
0.137209
0.137209
0.137265
0.13732
0.137376
0.137432
0.137432
0.137488
0.137544
0.1376
0.137656
0.137656
0.137712
0.137768
0.137825
0.137881
0.137881
0.137938
0.137994
0.138051
0.138107
0.138107
0.138164
0.138221
0.138278
0.138335
0.138335
0.138392
0.138449
0.138506
0.138563
0.138563
0.13862
0.138677
0.138735
0.138792