<?xml version="1.0"?>
<VTKFile type="UnstructuredGrid" version="0.1" byte_order="LittleEndian">
<UnstructuredGrid>
<Piece NumberOfPoints="5000" NumberOfCells="4000">
<PointData Scalars="Reaction 0">
<DataArray type="Float32" Name="Reaction 0" format="ascii">
0.566768
0.566768
0.566768
0.566768
0.566768
0.566768
0.566768
0.566768
0.566768
0.566768
0.566768
0.566768
0.566768
0.566768
0.566768
0.566768
0.566768
0.566768
0.566768
0.566768
0.566768
0.566768
0.566768
0.566768
0.566768
0.566768
0.566768
0.566768
0.566768
0.566768
0.566768
0.566768
0.566768
0.566768
0.566768
0.566768
0.566768
0.566769
0.566769
0.566769
0.566769
0.566769
0.566769
0.566769
0.566769
0.566769
0.566769
0.566769
0.566769
0.566769
0.566769
0.566769
0.566769
0.566769
0.566769
0.566769
0.566769
0.566769
0.566769
0.566769
0.566769
0.566769
0.566769
0.566769
0.566769
0.566769
0.566769
0.566769
0.566769
0.566769
0.566769
0.566769
0.56677
0.56677
0.56677
0.56677
0.56677
0.56677
0.56677
0.56677
0.56677
0.56677
0.56677
0.56677
0.56677
0.56677
0.56677
0.56677
0.56677
0.56677
0.56677
0.56677
0.56677
0.56677
0.566771
0.566771
0.566771
0.566771
0.566771
0.566771
0.566771
0.566771
0.566771
0.566771
0.566771
0.566771
0.566771
0.566771
0.566771
0.566771
0.566771
0.566771
0.566772
0.566772
0.566772
0.566772
0.566772
0.566772
0.566772
0.566772
0.566772
0.566772
0.566772
0.566772
0.566772
0.566772
0.566772
0.566772
0.566773
0.566773
0.566773
0.566773
0.566773
0.566773
0.566773
0.566773
0.566773
0.566773
0.566773
0.566773
0.566773
0.566773
0.566774
0.566774
0.566774
0.566774
0.566774
0.566774
0.566774
0.566774
0.566774
0.566774
0.566774
0.566774
0.566775
0.566775
0.566775
0.566775
0.566775
0.566775
0.566775
0.566775
0.566775
0.566775
0.566775
0.566775
0.566776
0.566776
0.566776
0.566776
0.566776
0.566776
0.566776
0.566776
0.566776
0.566776
0.566776
0.566777
0.566777
0.566777
0.566777
0.566777
0.566777
0.566777
0.566777
0.566777
0.566777
0.566778
0.566778
0.566778
0.566778
0.566778
0.566778
0.566778
0.566778
0.566778
0.566778
0.566779
0.566779
0.566779
0.566779
0.566779
0.566779
0.566779
0.566779
0.566779
0.566779
0.56678
0.56678
0.56678
0.56678
0.56678
0.56678
0.56678
0.56678
0.56678
0.566781
0.566781
0.566781
0.566781
0.566781
0.566781
0.566781
0.566781
0.566782
0.566782
0.566782
0.566782
0.566782
0.566782
0.566782
0.566782
0.566783
0.566783
0.566783
0.566783
0.566783
0.566783
0.566783
0.566783
0.566783
0.566784
0.566784
0.566784
0.566784
0.566784
0.566784
0.566784
0.566785
0.566785
0.566785
0.566785
0.566785
0.566785
0.566785
0.566785
0.566786
0.566786
0.566786
0.566786
0.566786
0.566786
0.566787
0.566787
0.566787
0.566787
0.566787
0.566787
0.566787
0.566788
0.566788
0.566788
0.566788
0.566788
0.566788
0.566788
0.566789
0.566789
0.566789
0.566789
0.566789
0.566789
0.566789
0.56679
0.56679
0.56679
0.56679
0.56679
0.56679
0.566791
0.566791
0.566791
0.566791
0.566791
0.566791
0.566791
0.566792
0.566792
0.566792
0.566792
0.566792
0.566792
0.566793
0.566793
0.566793
0.566793
0.566793
0.566793
0.566794
0.566794
0.566794
0.566794
0.566794
0.566794
0.566795
0.566795
0.566795
0.566795
0.566795
0.566795
0.566795
0.566796
0.566796
0.566796
0.566796
0.566796
0.566797
0.566797
0.566797
0.566797
0.566797
0.566797
0.566798
0.566798
0.566798
0.566798
0.566798
0.566799
0.566799
0.566799
0.566799
0.566799
0.566799
0.5668
0.5668
0.5668
0.5668
0.5668
0.566801
0.566801
0.566801
0.566801
0.566801
0.566802
0.566802
0.566802
0.566802
0.566802
0.566803
0.566803
0.566803
0.566803
0.566803
0.566804
0.566804
0.566804
0.566804
0.566804
0.566805
0.566805
0.566805
0.566805
0.566805
0.566806
0.566806
0.566806
0.566806
0.566806
0.566807
0.566807
0.566807
0.566807
0.566807
0.566808
0.566808
0.566808
0.566808
0.566808
0.566809
0.566809
0.566809
0.566809
0.566809
0.56681
0.56681
0.56681
0.56681
0.56681
0.566811
0.566811
0.566811
0.566811
0.566811
0.566812
0.566812
0.566812
0.566812
0.566813
0.566813
0.566813
0.566813
0.566813
0.566814
0.566814
0.566814
0.566814
0.566815
0.566815
0.566815
0.566815
0.566815
0.566816
0.566816
0.566816
0.566817
0.566817
0.566817
0.566817
0.566817
0.566818
0.566818
0.566818
0.566818
0.566819
0.566819
0.566819
0.566819
0.566819
0.56682
0.56682
0.56682
0.56682
0.566821
0.566821
0.566821
0.566821
0.566822
0.566822
0.566822
0.566822
0.566822
0.566823
0.566823
0.566823
0.566824
0.566824
0.566824
0.566824
0.566825
0.566825
0.566825
0.566825
0.566826
0.566826
0.566826
0.566826
0.566826
0.566827
0.566827
0.566827
0.566827
0.566828
0.566828
0.566828
0.566829
0.566829
0.566829
0.566829
0.56683
0.56683
0.56683
0.56683
0.566831
0.566831
0.566831
0.566831
0.566832
0.566832
0.566832
0.566833
0.566833
0.566833
0.566833
0.566834
0.566834
0.566834
0.566834
0.566835
0.566835
0.566835
0.566835
0.566836
0.566836
0.566836
0.566837
0.566837
0.566837
0.566837
0.566838
0.566838
0.566838
0.566838
0.566839
0.566839
0.566839
0.566839
0.56684
0.56684
0.56684
0.566841
0.566841
0.566841
0.566841
0.566842
0.566842
0.566842
0.566843
0.566843
0.566843
0.566844
0.566844
0.566844
0.566844
0.566845
0.566845
0.566845
0.566845
0.566846
0.566846
0.566847
0.566847
0.566847
0.566847
0.566848
0.566848
0.566848
0.566848
0.566849
0.566849
0.56685
0.56685
0.56685
0.56685
0.566851
0.566851
0.566851
0.566851
0.566852
0.566852
0.566853
0.566853
0.566853
0.566853
0.566854
0.566854
0.566854
0.566854
0.566855
0.566855
0.566856
0.566856
0.566856
0.566856
0.566857
0.566857
0.566857
0.566858
0.566858
0.566858
0.566859
0.566859
0.566859
0.56686
0.56686
0.56686
0.56686
0.566861
0.566861
0.566862
0.566862
0.566862
0.566862
0.566863
0.566863
0.566864
0.566864
0.566864
0.566864
0.566865
0.566865
0.566865
0.566866
0.566866
0.566866
0.566867
0.566867
0.566867
0.566868
0.566868
0.566868
0.566868
0.566869
0.566869
0.56687
0.56687
0.56687
0.566871
0.566871
0.566871
0.566872
0.566872
0.566872
0.566873
0.566873
0.566873
0.566873
0.566874
0.566874
0.566875
0.566875
0.566875
0.566876
0.566876
0.566876
0.566877
0.566877
0.566877
0.566878
0.566878
0.566879
0.566879
0.566879
0.56688
0.56688
0.56688
0.56688
0.566881
0.566881
0.566882
0.566882
0.566882
0.566883
0.566883
0.566884
0.566884
0.566884
0.566884
0.566885
0.566885
0.566886
0.566886
0.566886
0.566887
0.566887
0.566888
0.566888
0.566888
0.566889
0.566889
0.566889
0.566889
0.56689
0.56689
0.566891
0.566891
0.566891
0.566892
0.566892
0.566893
0.566893
0.566893
0.566894
0.566894
0.566895
0.566895
0.566895
0.566896
0.566896
0.566896
0.566897
0.566897
0.566897
0.566898
0.566898
0.566899
0.566899
0.566899
0.5669
0.5669
0.566901
0.566901
0.566901
0.566902
0.566902
0.566903
0.566903
0.566903
0.566904
0.566904
0.566905
0.566905
0.566905
0.566906
0.566906
0.566907
0.566907
0.566907
0.566908
0.566908
0.566909
0.566909
0.566909
0.56691
0.56691
0.566911
0.566911
0.566911
0.566912
0.566912
0.566913
0.566913
0.566913
0.566914
0.566914
0.566915
0.566915
0.566915
0.566916
0.566916
0.566917
0.566917
0.566917
0.566918
0.566918
0.566919
0.566919
0.566919
0.56692
0.56692
0.566921
0.566921
0.566921
0.566922
0.566922
0.566923
0.566923
0.566923
0.566924
0.566924
0.566925
0.566925
0.566926
0.566926
0.566927
0.566927
0.566927
0.566928
0.566928
0.566929
0.566929
0.566929
0.56693
0.56693
0.566931
0.566931
0.566931
0.566932
0.566932
0.566933
0.566934
0.566934
0.566934
0.566935
0.566935
0.566936
0.566936
0.566936
0.566937
0.566937
0.566938
0.566938
0.566938
0.566939
0.566939
0.56694
0.56694
0.566941
0.566941
0.566942
0.566942
0.566942
0.566943
0.566943
0.566944
0.566944
0.566944
0.566945
0.566946
0.566946
0.566947
0.566947
0.566947
0.566948
0.566948
0.566949
0.566949
0.56695
0.56695
0.566951
0.566951
0.566951
0.566952
0.566952
0.566953
0.566954
0.566954
0.566954
0.566955
0.566955
0.566956
0.566956
0.566956
0.566957
0.566958
0.566958
0.566958
0.566959
0.566959
0.56696
0.566961
0.566961
0.566961
0.566962
0.566962
0.566963
0.566963
0.566964
0.566964
0.566965
0.566965
0.566965
0.566966
0.566966
0.566967
0.566968
0.566968
0.566968
0.566969
0.566969
0.56697
0.56697
0.566971
0.566971
0.566972
0.566972
0.566972
0.566973
0.566974
0.566974
0.566975
0.566975
0.566975
0.566976
0.566977
0.566977
0.566977
0.566978
0.566979
0.566979
0.56698
0.56698
0.56698
0.566981
0.566982
0.566982
0.566982
0.566983
0.566984
0.566984
0.566985
0.566985
0.566985
0.566986
0.566987
0.566987
0.566987
0.566988
0.566989
0.566989
0.56699
0.56699
0.56699
0.566991
0.566992
0.566992
0.566992
0.566993
0.566994
0.566994
0.566995
0.566995
0.566996
0.566996
0.566997
0.566998
0.566998
0.566998
0.566999
0.566999
0.567
0.567
0.567001
0.567001
0.567002
0.567003
0.567003
0.567003
0.567004
0.567005
0.567005
0.567005
0.567006
0.567007
0.567007
0.567008
0.567008
0.567009
0.567009
0.56701
0.567011
0.567011
0.567011
0.567012
0.567013
0.567013
0.567013
0.567014
0.567015
0.567015
0.567016
0.567016
0.567017
0.567017
0.567018
0.567019
0.567019
0.567019
0.56702
0.567021
0.567021
0.567021
0.567022
0.567023
0.567023
0.567024
0.567024
0.567025
0.567025
0.567026
0.567027
0.567027
0.567028
0.567028
0.567029
0.56703
0.56703
0.56703
0.567031
0.567032
0.567032
0.567032
0.567033
0.567034
0.567034
0.567035
0.567035
0.567036
0.567037
0.567037
0.567038
0.567038
0.567039
0.567039
0.56704
0.567041
0.567041
0.567041
0.567042
0.567043
0.567044
0.567044
0.567044
0.567045
0.567046
0.567046
0.567046
0.567047
0.567048
0.567049
0.567049
0.567049
0.56705
0.567051
0.567051
0.567052
0.567052
0.567053
0.567054
0.567054
0.567055
0.567055
0.567056
0.567057
0.567057
0.567058
0.567058
0.567059
0.56706
0.56706
0.567061
0.567061
0.567062
0.567063
0.567063
0.567064
0.567064
0.567065
0.567065
0.567066
0.567067
0.567067
0.567068
0.567068
0.567069
0.56707
0.56707
0.567071
0.567071
0.567072
0.567073
0.567073
0.567074
0.567074
0.567075
0.567076
0.567076
0.567077
0.567077
0.567078
0.567079
0.567079
0.56708
0.56708
0.567081
0.567082
0.567082
0.567083
0.567084
0.567084
0.567085
0.567085
0.567086
0.567087
0.567087
0.567088
0.567088
0.567089
0.56709
0.567091
0.567091
0.567091
0.567092
0.567093
0.567094
0.567094
0.567094
0.567095
0.567096
0.567097
0.567098
0.567098
0.567098
0.567099
0.5671
0.567101
0.567101
0.567102
0.567102
0.567103
0.567104
0.567104
0.567105
0.567106
0.567106
0.567107
0.567107
0.567108
0.567109
0.56711
0.56711
0.56711
0.567111
0.567112
0.567113
0.567114
0.567114
0.567114
0.567115
0.567116
0.567117
0.567117
0.567118
0.567118
0.567119
0.56712
0.56712
0.567121
0.567122
0.567122
0.567123
0.567123
0.567124
0.567125
0.567126
0.567127
0.567127
0.567127
0.567128
0.567129
0.56713
0.56713
0.567131
0.567132
0.567132
0.567133
0.567133
0.567134
0.567135
0.567136
0.567137
0.567137
0.567137
0.567138
0.567139
0.56714
0.56714
0.567141
0.567142
0.567142
0.567143
0.567143
0.567144
0.567145
0.567146
0.567147
0.567147
0.567148
0.567148
0.567149
0.56715
0.56715
0.567151
0.567152
0.567153
0.567154
0.567154
0.567154
0.567155
0.567156
0.567157
0.567157
0.567158
0.567159
0.56716
0.56716
0.56716
0.567161
0.567162
0.567163
0.567164
0.567164
0.567165
0.567166
0.567167
0.567167
0.567167
0.567168
0.567169
0.56717
0.567171
0.567171
0.567172
0.567173
0.567174
0.567174
0.567174
0.567175
0.567176
0.567177
0.567178
0.567178
0.567179
0.56718
0.567181
0.567182
0.567182
0.567183
0.567183
0.567184
0.567185
0.567185
0.567186
0.567187
0.567188
0.567189
0.567189
0.56719
0.567191
0.567191
0.567192
0.567192
0.567193
0.567194
0.567195
0.567196
0.567196
0.567197
0.567198
0.567199
0.5672
0.5672
0.567201
0.567202
0.567202
0.567203
0.567203
0.567204
0.567205
0.567206
0.567207
0.567207
0.567208
0.567209
0.56721
0.567211
0.567211
0.567212
0.567213
0.567214
0.567215
0.567215
0.567215
0.567216
0.567217
0.567218
0.567218
0.567219
0.56722
0.567221
0.567222
0.567222
0.567223
0.567224
0.567225
0.567226
0.567226
0.567227
0.567228
0.567229
0.56723
0.56723
0.567231
0.567232
0.567232
0.567233
0.567233
0.567234
0.567235
0.567236
0.567237
0.567237
0.567238
0.567239
0.56724
0.567241
0.567241
0.567242
0.567243
0.567244
0.567245
0.567245
0.567246
0.567247
0.567248
0.567249
0.567249
0.56725
0.567251
0.567252
0.567253
0.567253
0.567254
0.567255
0.567256
0.567257
0.567257
0.567258
0.567259
0.56726
0.567261
0.567261
0.567262
0.567263
0.567264
0.567265
0.567265
0.567266
0.567267
0.567268
0.567269
0.567269
0.56727
0.567271
0.567272
0.567273
0.567273
0.567274
0.567275
0.567276
0.567277
0.567277
0.567278
0.567279
0.56728
0.567281
0.567281
0.567282
0.567283
0.567284
0.567285
0.567285
0.567286
0.567287
0.567288
0.567289
0.567289
0.56729
0.567291
0.567292
0.567293
0.567293
0.567294
0.567295
0.567296
0.567297
0.567297
0.567298
0.567299
0.5673
0.567301
0.567301
0.567302
0.567303
0.567304
0.567305
0.567305
0.567306
0.567307
0.567309
0.56731
0.56731
0.567311
0.567312
0.567313
0.567314
0.567314
0.567315
0.567316
0.567317
0.567318
0.567318
0.567319
0.56732
0.567321
0.567322
0.567322
0.567323
0.567324
0.567325
0.567327
0.567327
0.567328
0.567329
0.56733
0.567331
0.567331
0.567332
0.567333
0.567334
0.567335
0.567335
0.567336
0.567337
0.567338
0.567339
0.567339
0.56734
0.567342
0.567343
0.567344
0.567344
0.567345
0.567346
0.567347
0.567348
0.567348
0.567349
0.56735
0.567351
0.567352
0.567352
0.567354
0.567355
0.567356
0.567357
0.567357
0.567358
0.567359
0.56736
0.567361
0.567361
0.567362
0.567364
0.567365
0.567366
0.567366
0.567367
0.567368
0.567369
0.56737
0.56737
0.567371
0.567372
0.567374
0.567375
0.567375
0.567376
0.567377
0.567378
0.567379
0.567379
0.56738
0.567381
0.567382
0.567384
0.567384
0.567385
0.567386
0.567387
0.567388
0.567388
0.567389
0.56739
0.567392
0.567393
0.567393
0.567394
0.567395
0.567396
0.567397
0.567397
0.567398
0.5674
0.567401
0.567402
0.567402
0.567403
0.567404
0.567405
0.567407
0.567407
0.567408
0.567409
0.56741
0.567411
0.567411
0.567412
0.567413
0.567415
0.567416
0.567416
0.567417
0.567418
0.567419
0.56742
0.56742
0.567422
0.567423
0.567424
0.567425
0.567425
0.567426
0.567427
0.567429
0.56743
0.56743
0.567431
0.567432
0.567433
0.567435
0.567435
0.567436
0.567437
0.567438
0.567439
0.567439
0.567441
0.567442
0.567443
0.567444
0.567444
0.567445
0.567447
0.567448
0.567449
0.567449
0.56745
0.567451
0.567453
0.567454
0.567454
0.567455
0.567456
0.567457
0.567459
0.567459
0.56746
0.567461
0.567462
0.567463
0.567463
0.567465
0.567466
0.567467
0.567468
0.567468
0.56747
0.567471
0.567472
0.567473
0.567473
0.567474
0.567476
0.567477
0.567478
0.567478
0.567479
0.567481
0.567482
0.567483
0.567483
0.567484
0.567486
0.567487
0.567488
0.567488
0.567489
0.567491
0.567492
0.567493
0.567493
0.567494
0.567496
0.567497
0.567498
0.567498
0.567499
0.567501
0.567502
0.567503
0.567503
0.567504
0.567506
0.567507
0.567508
0.567508
0.567509
0.567511
0.567512
0.567513
0.567513
0.567514
0.567516
0.567517
0.567518
0.567518
0.56752
0.567521
0.567522
0.567523
0.567523
0.567525
0.567526
0.567527
0.567529
0.567529
0.56753
0.567531
0.567533
0.567534
0.567534
0.567535
0.567536
0.567538
0.567539
0.567539
0.56754
0.567542
0.567543
0.567544
0.567544
0.567545
0.567547
0.567548
0.567549
0.567549
0.567551
0.567552
0.567553
0.567555
0.567555
0.567556
0.567557
0.567559
0.56756
0.56756
0.567561
0.567563
0.567564
0.567565
0.567565
0.567567
0.567568
0.567569
0.567571
0.567571
0.567572
0.567573
0.567575
0.567576
0.567576
0.567577
0.567579
0.56758
0.567581
0.567581
0.567583
0.567584
0.567585
0.567587
0.567587
0.567588
0.567589
0.567591
0.567592
0.567592
0.567593
0.567595
0.567596
0.567597
0.567597
0.567599
0.5676
0.567602
0.567603
0.567603
0.567604
0.567606
0.567607
0.567608
0.567608
0.56761
0.567611
0.567613
0.567614
0.567614
0.567615
0.567617
0.567618
0.567619
0.567619
0.567621
0.567622
0.567624
0.567625
0.567625
0.567626
0.567628
0.567629
0.56763
0.56763
0.567632
0.567633
0.567635
0.567636
0.567636
0.567637
0.567639
0.56764
0.567642
0.567642
0.567643
0.567645
0.567646
0.567647
0.567647
0.567649
0.56765
0.567652
0.567653
0.567653
0.567654
0.567656
0.567657
0.567659
0.567659
0.56766
0.567662
0.567663
0.567664
0.567664
0.567666
0.567667
0.567669
0.56767
0.56767
0.567672
0.567673
0.567674
0.567676
0.567676
0.567677
0.567679
0.56768
0.567682
0.567682
0.567683
0.567685
0.567686
0.567687
0.567687
0.567689
0.56769
0.567692
0.567693
0.567693
0.567695
0.567696
0.567698
0.567699
0.567699
0.567701
0.567702
0.567704
0.567705
0.567705
0.567707
0.567708
0.567709
0.567711
0.567711
0.567712
0.567714
0.567715
0.567717
0.567717
0.567718
0.56772
0.567721
0.567723
0.567723
0.567724
0.567726
0.567727
0.567729
0.567729
0.56773
0.567732
0.567733
0.567735
0.567735
0.567736
0.567738
0.567739
0.567741
0.567741
0.567742
0.567744
0.567745
0.567747
0.567747
0.567748
0.56775
0.567751
0.567753
0.567753
0.567754
0.567756
0.567757
0.567759
0.567759
0.56776
0.567762
0.567764
0.567765
0.567765
0.567767
0.567768
0.56777
0.567771
0.567771
0.567773
0.567774
0.567776
0.567777
0.567777
0.567779
0.567781
0.567782
0.567784
0.567784
0.567785
0.567787
0.567788
0.56779
0.56779
0.567791
0.567793
0.567795
0.567796
0.567796
0.567798
0.567799
0.567801
0.567802
0.567802
0.567804
0.567805
0.567807
0.567809
0.567809
0.56781
0.567812
0.567813
0.567815
0.567815
0.567817
0.567818
0.56782
0.567821
0.567821
0.567823
0.567825
0.567826
0.567828
0.567828
0.567829
0.567831
0.567832
0.567834
0.567834
0.567836
0.567837
0.567839
0.567841
0.567841
0.567842
0.567844
0.567845
0.567847
0.567847
0.567849
0.56785
0.567852
0.567853
0.567853
0.567855
0.567857
0.567858
0.56786
0.56786
0.567862
0.567863
0.567865
0.567866
0.567866
0.567868
0.56787
0.567871
0.567873
0.567873
0.567875
0.567876
0.567878
0.56788
0.56788
0.567881
0.567883
0.567885
0.567886
0.567886
0.567888
0.567889
0.567891
0.567893
0.567893
0.567894
0.567896
0.567898
0.567899
0.567899
0.567901
0.567903
0.567904
0.567906
0.567906
0.567908
0.56791
0.567911
0.567913
0.567913
0.567915
0.567916
0.567918
0.56792
0.56792
0.567921
0.567923
0.567925
0.567926
0.567926
0.567928
0.56793
0.567931
0.567933
0.567933
0.567935
0.567937
0.567938
0.56794
0.56794
0.567942
0.567943
0.567945
0.567947
0.567947
0.567949
0.56795
0.567952
0.567954
0.567954
0.567955
0.567957
0.567959
0.567961
0.567961
0.567962
0.567964
0.567966
0.567968
0.567968
0.567969
0.567971
0.567973
0.567975
0.567975
0.567976
0.567978
0.56798
0.567981
0.567981
0.567983
0.567985
0.567987
0.567988
0.567988
0.56799
0.567992
0.567994
0.567996
0.567996
0.567997
0.567999
0.568001
0.568003
0.568003
0.568004
0.568006
0.568008
0.56801
0.56801
0.568012
0.568013
0.568015
0.568017
0.568017
0.568019
0.56802
0.568022
0.568024
0.568024
0.568026
0.568028
0.568029
0.568031
0.568031
0.568033
0.568035
0.568037
0.568038
0.568038
0.56804
0.568042
0.568044
0.568046
0.568046
0.568047
0.568049
0.568051
0.568053
0.568053
0.568055
0.568057
0.568058
0.56806
0.56806
0.568062
0.568064
0.568066
0.568068
0.568068
0.568069
0.568071
0.568073
0.568075
0.568075
0.568077
0.568079
0.56808
0.568082
0.568082
0.568084
0.568086
0.568088
0.56809
0.56809
0.568092
0.568093
0.568095
0.568097
0.568097
0.568099
0.568101
0.568103
0.568105
0.568105
0.568106
0.568108
0.56811
0.568112
0.568112
0.568114
0.568116
0.568118
0.56812
0.56812
0.568121
0.568123
0.568125
0.568127
0.568127
0.568129
0.568131
0.568133
0.568135
0.568135
0.568137
0.568139
0.56814
0.568142
0.568142
0.568144
0.568146
0.568148
0.56815
0.56815
0.568152
0.568154
0.568156
0.568158
0.568158
0.56816
0.568162
0.568164
0.568165
0.568165
0.568167
0.568169
0.568171
0.568173
0.568173
0.568175
0.568177
0.568179
0.568181
0.568181
0.568183
0.568185
0.568187
0.568189
0.568189
0.568191
0.568193
0.568195
0.568197
0.568197
0.568199
0.568201
0.568203
0.568204
0.568204
0.568206
0.568208
0.56821
0.568212
0.568212
0.568214
0.568216
0.568218
0.56822
0.56822
0.568222
0.568224
0.568226
0.568228
0.568228
0.56823
0.568232
0.568234
0.568236
0.568236
0.568238
0.56824
0.568242
0.568244
0.568244
0.568246
0.568248
0.56825
0.568252
0.568252
0.568254
0.568256
0.568258
0.56826
0.56826
0.568262
0.568264
0.568266
0.568268
0.568268
0.56827
0.568273
0.568275
0.568277
0.568277
0.568279
0.568281
0.568283
0.568285
0.568285
0.568287
0.568289
0.568291
0.568293
0.568293
0.568295
0.568297
0.568299
0.568301
0.568301
0.568303
0.568305
0.568307
0.56831
0.56831
0.568312
0.568314
0.568316
0.568318
0.568318
0.56832
0.568322
0.568324
0.568326
0.568326
0.568328
0.56833
0.568332
0.568335
0.568335
0.568337
0.568339
0.568341
0.568343
0.568343
0.568345
0.568347
0.568349
0.568351
0.568351
0.568354
0.568356
0.568358
0.56836
0.56836
0.568362
0.568364
0.568366
0.568368
0.568368
0.56837
0.568373
0.568375
0.568377
0.568377
0.568379
0.568381
0.568383
0.568386
0.568386
0.568388
0.56839
0.568392
0.568394
0.568394
0.568396
0.568398
0.568401
0.568403
0.568403
0.568405
0.568407
0.568409
0.568411
0.568411
0.568414
0.568416
0.568418
0.56842
0.56842
0.568422
0.568424
0.568427
0.568429
0.568429
0.568431
0.568433
0.568435
0.568438
0.568438
0.56844
0.568442
0.568444
0.568446
0.568446
0.568449
0.568451
0.568453
0.568455
0.568455
0.568458
0.56846
0.568462
0.568464
0.568464
0.568466
0.568469
0.568471
0.568473
0.568473
0.568475
0.568478
0.56848
0.568482
0.568482
0.568484
0.568487
0.568489
0.568491
0.568491
0.568493
0.568496
0.568498
0.5685
0.5685
0.568502
0.568505
0.568507
0.568509
0.568509
0.568511
0.568514
0.568516
0.568518
0.568518
0.56852
0.568523
0.568525
0.568527
0.568527
0.56853
0.568532
0.568534
0.568537
0.568537
0.568539
0.568541
0.568543
0.568546
0.568546
0.568548
0.56855
0.568553
0.568555
0.568555
0.568557
0.56856
0.568562
0.568564
0.568564
0.568567
0.568569
0.568571
0.568573
0.568573
0.568576
0.568578
0.56858
0.568583
0.568583
0.568585
0.568588
0.56859
0.568592
0.568592
0.568595
0.568597
0.568599
0.568602
0.568602
0.568604
0.568606
0.568609
0.568611
0.568611
0.568613
0.568616
0.568618
0.568621
0.568621
0.568623
0.568625
0.568628
0.56863
0.56863
0.568632
0.568635
0.568637
0.56864
0.56864
0.568642
0.568645
0.568647
0.568649
0.568649
0.568652
0.568654
0.568657
0.568659
0.568659
0.568661
0.568664
0.568666
0.568669
0.568669
0.568671
0.568673
0.568676
0.568678
0.568678
0.568681
0.568683
0.568686
0.568688
0.568688
0.568691
0.568693
0.568695
0.568698
0.568698
0.5687
0.568703
0.568705
0.568708
0.568708
0.56871
0.568713
0.568715
0.568718
0.568718
0.56872
0.568723
0.568725
0.568727
0.568727
0.56873
0.568732
0.568735
0.568737
0.568737
0.56874
0.568742
0.568745
0.568747
0.568747
0.56875
0.568752
0.568755
0.568757
0.568757
0.56876
0.568763
0.568765
0.568768
0.568768
0.56877
0.568773
0.568775
0.568778
0.568778
0.56878
0.568783
0.568785
0.568788
0.568788
0.56879
0.568793
0.568795
0.568798
0.568798
0.5688
0.568803
0.568806
0.568808
0.568808
0.568811
0.568813
0.568816
0.568818
0.568818
0.568821
0.568824
0.568826
0.568829
0.568829
0.568831
0.568834
0.568836
0.568839
0.568839
0.568842
0.568844
0.568847
0.568849
0.568849
0.568852
0.568855
0.568857
0.56886
0.56886
0.568863
0.568865
0.568868
0.56887
0.56887
0.568873
0.568876
0.568878
0.568881
0.568881
0.568884
0.568886
0.568889
0.568891
0.568891
0.568894
0.568897
0.568899
0.568902
0.568902
0.568905
0.568907
0.56891
0.568913
0.568913
0.568915
0.568918
0.568921
0.568923
0.568923
0.568926
0.568929
0.568931
0.568934
0.568934
0.568937
0.568939
0.568942
0.568945
0.568945
0.568947
0.56895
0.568953
0.568956
0.568956
0.568958
0.568961
0.568964
0.568966
0.568966
0.568969
0.568972
0.568975
0.568977
0.568977
0.56898
0.568983
0.568986
0.568988
0.568988
0.568991
0.568994
0.568997
0.568999
0.568999
0.569002
0.569005
0.569007
0.56901
0.56901
0.569013
0.569016
0.569019
0.569021
0.569021
0.569024
0.569027
0.56903
0.569032
0.569032
0.569035
0.569038
0.569041
0.569044
0.569044
0.569046
0.569049
0.569052
0.569055
0.569055
0.569058
0.56906
0.569063
0.569066
0.569066
0.569069
0.569072
0.569074
0.569077
0.569077
0.56908
0.569083
0.569086
0.569089
0.569089
0.569091
0.569094
0.569097
0.5691
0.5691
0.569103
0.569106
0.569109
0.569111
0.569111
0.569114
0.569117
0.56912
0.569123
0.569123
0.569126
0.569129
0.569131
0.569134
0.569134
0.569137
0.56914
0.569143
0.569146
0.569146
0.569149
0.569152
0.569155
0.569158
0.569158
0.56916
0.569163
0.569166
0.569169
0.569169
0.569172
0.569175
0.569178
0.569181
0.569181
0.569184
0.569187
0.56919
0.569193
0.569193
0.569196
0.569199
0.569201
0.569204
0.569204
0.569207
0.56921
0.569213
0.569216
0.569216
0.569219
0.569222
0.569225
0.569228
0.569228
0.569231
0.569234
0.569237
0.56924
0.56924
0.569243
0.569246
0.569249
0.569252
0.569252
0.569255
0.569258
0.569261
0.569264
0.569264
0.569267
0.56927
0.569273
0.569276
0.569276
0.569279
0.569282
0.569285
0.569288
0.569288
0.569291
0.569294
0.569297
0.5693
0.5693
0.569303
0.569306
0.56931
0.569313
0.569313
0.569316
0.569319
0.569322
0.569325
0.569325
0.569328
0.569331
0.569334
0.569337
0.569337
0.56934
0.569343
0.569346
0.56935
0.56935
0.569353
0.569356
0.569359
0.569362
0.569362
0.569365
0.569368
0.569371
0.569374
0.569374
0.569378
0.569381
0.569384
0.569387
0.569387
0.56939
0.569393
0.569396
0.569399
0.569399
0.569403
0.569406
0.569409
0.569412
0.569412
0.569415
0.569418
0.569422
0.569425
0.569425
0.569428
0.569431
0.569434
0.569437
0.569437
0.569441
0.569444
0.569447
0.56945
0.56945
0.569453
0.569457
0.56946
0.569463
0.569463
0.569466
0.569469
0.569473
0.569476
0.569476
0.569479
0.569482
0.569486
0.569489
0.569489
0.569492
0.569495
0.569499
0.569502
0.569502
0.569505
0.569508
0.569512
0.569515
0.569515
0.569518
0.569521
0.569525
0.569528
0.569528
0.569531
0.569534
0.569538
0.569541
0.569541
0.569544
0.569548
0.569551
0.569554
0.569554
0.569557
0.569561
0.569564
0.569567
0.569567
0.569571
0.569574
0.569577
0.569581
0.569581
0.569584
0.569587
0.569591
0.569594
0.569594
0.569597
0.569601
0.569604
0.569607
0.569607
0.569611
0.569614
0.569617
0.569621
0.569621
0.569624
0.569628
0.569631
0.569634
0.569634
0.569638
0.569641
0.569645
0.569648
0.569648
0.569651
0.569655
0.569658
0.569662
0.569662
0.569665
0.569668
0.569672
0.569675
0.569675
0.569679
0.569682
0.569685
0.569689
0.569689
0.569692
0.569696
0.569699
0.569703
0.569703
0.569706
0.56971
0.569713
0.569717
0.569717
0.56972
0.569723
0.569727
0.56973
0.56973
0.569734
0.569737
0.569741
0.569744
0.569744
0.569748
0.569751
0.569755
0.569758
0.569758
0.569762
0.569765
0.569769
0.569772
0.569772
0.569776
0.569779
0.569783
0.569787
0.569787
0.56979
0.569794
0.569797
0.569801
0.569801
0.569804
0.569808
0.569811
0.569815
0.569815
0.569818
0.569822
0.569826
0.569829
0.569829
0.569833
0.569836
0.56984
0.569844
0.569844
0.569847
0.569851
0.569854
0.569858
0.569858
0.569862
0.569865
0.569869
0.569872
0.569872
0.569876
0.56988
0.569883
0.569887
0.569887
0.569891
0.569894
0.569898
0.569902
0.569902
0.569905
0.569909
0.569913
0.569916
0.569916
0.56992
0.569924
0.569927
0.569931
0.569931
0.569935
0.569938
0.569942
0.569946
0.569946
0.569949
0.569953
0.569957
0.56996
0.56996
0.569964
0.569968
0.569972
0.569975
0.569975
0.569979
0.569983
0.569987
0.56999
0.56999
0.569994
0.569998
0.570002
0.570005
0.570005
0.570009
0.570013
0.570017
0.57002
0.57002
0.570024
0.570028
0.570032
0.570035
0.570035
0.570039
0.570043
0.570047
0.570051
0.570051
0.570054
0.570058
0.570062
0.570066
0.570066
0.57007
0.570074
0.570077
0.570081
0.570081
0.570085
0.570089
0.570093
0.570097
0.570097
0.5701
0.570104
0.570108
0.570112
0.570112
0.570116
0.57012
0.570124
0.570128
0.570128
0.570131
0.570135
0.570139
0.570143
0.570143
0.570147
0.570151
0.570155
0.570159
0.570159
0.570163
0.570167
0.570171
0.570174
0.570174
0.570178
0.570182
0.570186
0.57019
0.57019
0.570194
0.570198
0.570202
0.570206
0.570206
0.57021
0.570214
0.570218
0.570222
0.570222
0.570226
0.57023
0.570234
0.570238
0.570238
0.570242
0.570246
0.57025
0.570254
0.570254
0.570258
0.570262
0.570266
0.57027
0.57027
0.570274
0.570278
0.570282
0.570286
0.570286
0.57029
0.570294
0.570298
0.570302
0.570302
0.570307
0.570311
0.570315
0.570319
0.570319
0.570323
0.570327
0.570331
0.570335
0.570335
0.570339
0.570343
0.570347
0.570352
0.570352
0.570356
0.57036
0.570364
0.570368
0.570368
0.570372
0.570376
0.57038
0.570385
0.570385
0.570389
0.570393
0.570397
0.570401
0.570401
0.570405
0.57041
0.570414
0.570418
0.570418
0.570422
0.570426
0.570431
0.570435
0.570435
0.570439
0.570443
0.570447
0.570452
0.570452
0.570456
0.57046
0.570464
0.570468
0.570468
0.570473
0.570477
0.570481
0.570485
0.570485
0.57049
0.570494
0.570498
0.570503
0.570503
0.570507
0.570511
0.570515
0.57052
0.57052
0.570524
0.570528
0.570533
0.570537
0.570537
0.570541
0.570546
0.57055
0.570554
0.570554
0.570558
0.570563
0.570567
0.570571
0.570571
0.570576
0.57058
0.570585
0.570589
0.570589
0.570593
0.570598
0.570602
0.570606
0.570606
0.570611
0.570615
0.57062
0.570624
0.570624
0.570628
0.570633
0.570637
0.570642
0.570642
0.570646
0.57065
0.570655
0.570659
0.570659
0.570664
0.570668
0.570673
0.570677
0.570677
0.570682
0.570686
0.570691
0.570695
0.570695
0.570699
0.570704
0.570708
0.570713
0.570713
0.570717
0.570722
0.570726
0.570731
0.570731
0.570736
0.57074
0.570745
0.570749
0.570749
0.570754
0.570758
0.570763
0.570767
0.570767
0.570772
0.570776
0.570781
0.570785
0.570785
0.57079
0.570795
0.570799
0.570804
0.570804
0.570808
0.570813
0.570818
0.570822
0.570822
0.570827
0.570832
0.570836
0.570841
0.570841
0.570845
0.57085
0.570855
0.570859
0.570859
0.570864
0.570869
0.570873
0.570878
0.570878
0.570883
0.570887
0.570892
0.570897
0.570897
0.570901
0.570906
0.570911
0.570915
0.570915
0.57092
0.570925
0.57093
0.570934
0.570934
0.570939
0.570944
0.570949
0.570953
0.570953
0.570958
0.570963
0.570968
0.570972
0.570972
0.570977
0.570982
0.570987
0.570992
0.570992
0.570996
0.571001
0.571006
0.571011
0.571011
0.571016
0.57102
0.571025
0.57103
0.57103
0.571035
0.57104
0.571045
0.571049
0.571049
0.571054
0.571059
0.571064
0.571069
0.571069
0.571074
0.571079
0.571083
0.571088
0.571088
0.571093
0.571098
0.571103
0.571108
0.571108
0.571113
0.571118
0.571123
0.571128
0.571128
0.571133
0.571138
0.571143
0.571148
0.571148
0.571152
0.571157
0.571162
0.571167
0.571167
0.571172
0.571177
0.571182
0.571187
0.571187
0.571192
0.571197
0.571202
0.571207
0.571207
0.571212
0.571218
0.571223
0.571228
0.571228
0.571233
0.571238
0.571243
0.571248
0.571248
0.571253
0.571258
0.571263
0.571268
0.571268
0.571273
0.571278
0.571283
0.571289
0.571289
0.571294
0.571299
0.571304
0.571309
0.571309
0.571314
0.571319
0.571324
0.57133
0.57133
0.571335
0.57134
0.571345
0.57135
0.57135
0.571355
0.571361
0.571366
0.571371
0.571371
0.571376
0.571381
0.571387
0.571392
0.571392