<?xml version="1.0"?>
<VTKFile type="UnstructuredGrid" version="0.1" byte_order="LittleEndian">
<UnstructuredGrid>
<Piece NumberOfPoints="5000" NumberOfCells="4000">
<PointData Scalars="Reaction 0">
<DataArray type="Float32" Name="Reaction 0" format="ascii">
0.566414
0.566414
0.566414
0.566414
0.566414
0.566414
0.566414
0.566414
0.566414
0.566414
0.566414
0.566414
0.566414
0.566414
0.566414
0.566414
0.566414
0.566414
0.566414
0.566414
0.566414
0.566414
0.566414
0.566414
0.566414
0.566414
0.566414
0.566414
0.566414
0.566414
0.566414
0.566414
0.566415
0.566415
0.566415
0.566415
0.566415
0.566415
0.566415
0.566415
0.566415
0.566415
0.566415
0.566415
0.566415
0.566415
0.566415
0.566415
0.566415
0.566415
0.566415
0.566415
0.566415
0.566415
0.566415
0.566415
0.566415
0.566415
0.566415
0.566415
0.566415
0.566415
0.566415
0.566415
0.566415
0.566415
0.566415
0.566415
0.566415
0.566415
0.566415
0.566415
0.566415
0.566416
0.566416
0.566416
0.566416
0.566416
0.566416
0.566416
0.566416
0.566416
0.566416
0.566416
0.566416
0.566416
0.566416
0.566416
0.566416
0.566416
0.566416
0.566416
0.566416
0.566416
0.566416
0.566416
0.566416
0.566417
0.566417
0.566417
0.566417
0.566417
0.566417
0.566417
0.566417
0.566417
0.566417
0.566417
0.566417
0.566417
0.566417
0.566417
0.566417
0.566417
0.566417
0.566417
0.566417
0.566418
0.566418
0.566418
0.566418
0.566418
0.566418
0.566418
0.566418
0.566418
0.566418
0.566418
0.566418
0.566418
0.566418
0.566418
0.566418
0.566418
0.566419
0.566419
0.566419
0.566419
0.566419
0.566419
0.566419
0.566419
0.566419
0.566419
0.566419
0.566419
0.566419
0.566419
0.566419
0.56642
0.56642
0.56642
0.56642
0.56642
0.56642
0.56642
0.56642
0.56642
0.56642
0.56642
0.56642
0.56642
0.56642
0.566421
0.566421
0.566421
0.566421
0.566421
0.566421
0.566421
0.566421
0.566421
0.566421
0.566421
0.566421
0.566421
0.566422
0.566422
0.566422
0.566422
0.566422
0.566422
0.566422
0.566422
0.566422
0.566422
0.566422
0.566423
0.566423
0.566423
0.566423
0.566423
0.566423
0.566423
0.566423
0.566423
0.566423
0.566423
0.566424
0.566424
0.566424
0.566424
0.566424
0.566424
0.566424
0.566424
0.566424
0.566424
0.566425
0.566425
0.566425
0.566425
0.566425
0.566425
0.566425
0.566425
0.566425
0.566425
0.566426
0.566426
0.566426
0.566426
0.566426
0.566426
0.566426
0.566426
0.566426
0.566426
0.566427
0.566427
0.566427
0.566427
0.566427
0.566427
0.566427
0.566427
0.566427
0.566428
0.566428
0.566428
0.566428
0.566428
0.566428
0.566428
0.566428
0.566428
0.566429
0.566429
0.566429
0.566429
0.566429
0.566429
0.566429
0.566429
0.56643
0.56643
0.56643
0.56643
0.56643
0.56643
0.56643
0.56643
0.566431
0.566431
0.566431
0.566431
0.566431
0.566431
0.566431
0.566431
0.566431
0.566432
0.566432
0.566432
0.566432
0.566432
0.566432
0.566432
0.566433
0.566433
0.566433
0.566433
0.566433
0.566433
0.566433
0.566433
0.566434
0.566434
0.566434
0.566434
0.566434
0.566434
0.566434
0.566435
0.566435
0.566435
0.566435
0.566435
0.566435
0.566436
0.566436
0.566436
0.566436
0.566436
0.566436
0.566436
0.566436
0.566437
0.566437
0.566437
0.566437
0.566437
0.566437
0.566438
0.566438
0.566438
0.566438
0.566438
0.566438
0.566438
0.566438
0.566439
0.566439
0.566439
0.566439
0.566439
0.566439
0.56644
0.56644
0.56644
0.56644
0.56644
0.56644
0.566441
0.566441
0.566441
0.566441
0.566441
0.566441
0.566442
0.566442
0.566442
0.566442
0.566442
0.566442
0.566442
0.566443
0.566443
0.566443
0.566443
0.566443
0.566443
0.566444
0.566444
0.566444
0.566444
0.566444
0.566444
0.566445
0.566445
0.566445
0.566445
0.566445
0.566446
0.566446
0.566446
0.566446
0.566446
0.566446
0.566447
0.566447
0.566447
0.566447
0.566447
0.566448
0.566448
0.566448
0.566448
0.566448
0.566448
0.566448
0.566449
0.566449
0.566449
0.566449
0.566449
0.56645
0.56645
0.56645
0.56645
0.56645
0.56645
0.566451
0.566451
0.566451
0.566451
0.566451
0.566452
0.566452
0.566452
0.566452
0.566452
0.566453
0.566453
0.566453
0.566453
0.566453
0.566454
0.566454
0.566454
0.566454
0.566454
0.566455
0.566455
0.566455
0.566455
0.566455
0.566456
0.566456
0.566456
0.566456
0.566456
0.566457
0.566457
0.566457
0.566457
0.566457
0.566458
0.566458
0.566458
0.566458
0.566458
0.566459
0.566459
0.566459
0.566459
0.566459
0.56646
0.56646
0.56646
0.56646
0.56646
0.566461
0.566461
0.566461
0.566461
0.566461
0.566462
0.566462
0.566462
0.566462
0.566463
0.566463
0.566463
0.566463
0.566463
0.566464
0.566464
0.566464
0.566464
0.566464
0.566465
0.566465
0.566465
0.566466
0.566466
0.566466
0.566466
0.566466
0.566467
0.566467
0.566467
0.566467
0.566467
0.566468
0.566468
0.566468
0.566468
0.566469
0.566469
0.566469
0.566469
0.566469
0.56647
0.56647
0.56647
0.56647
0.566471
0.566471
0.566471
0.566471
0.566472
0.566472
0.566472
0.566472
0.566472
0.566473
0.566473
0.566473
0.566474
0.566474
0.566474
0.566474
0.566474
0.566475
0.566475
0.566475
0.566475
0.566476
0.566476
0.566476
0.566476
0.566477
0.566477
0.566477
0.566477
0.566478
0.566478
0.566478
0.566478
0.566478
0.566479
0.566479
0.566479
0.56648
0.56648
0.56648
0.56648
0.566481
0.566481
0.566481
0.566481
0.566482
0.566482
0.566482
0.566482
0.566483
0.566483
0.566483
0.566484
0.566484
0.566484
0.566484
0.566485
0.566485
0.566485
0.566485
0.566486
0.566486
0.566486
0.566486
0.566486
0.566487
0.566487
0.566487
0.566487
0.566488
0.566488
0.566488
0.566489
0.566489
0.566489
0.56649
0.56649
0.56649
0.56649
0.566491
0.566491
0.566491
0.566492
0.566492
0.566492
0.566492
0.566493
0.566493
0.566493
0.566493
0.566494
0.566494
0.566494
0.566494
0.566495
0.566495
0.566495
0.566496
0.566496
0.566496
0.566496
0.566497
0.566497
0.566497
0.566497
0.566498
0.566498
0.566499
0.566499
0.566499
0.566499
0.5665
0.5665
0.5665
0.5665
0.566501
0.566501
0.566501
0.566501
0.566502
0.566502
0.566503
0.566503
0.566503
0.566503
0.566504
0.566504
0.566504
0.566504
0.566505
0.566505
0.566505
0.566506
0.566506
0.566506
0.566507
0.566507
0.566507
0.566507
0.566508
0.566508
0.566508
0.566509
0.566509
0.566509
0.56651
0.56651
0.56651
0.56651
0.566511
0.566511
0.566512
0.566512
0.566512
0.566512
0.566513
0.566513
0.566513
0.566513
0.566514
0.566514
0.566515
0.566515
0.566515
0.566515
0.566516
0.566516
0.566517
0.566517
0.566517
0.566517
0.566518
0.566518
0.566518
0.566519
0.566519
0.566519
0.56652
0.56652
0.56652
0.566521
0.566521
0.566521
0.566521
0.566522
0.566522
0.566523
0.566523
0.566523
0.566524
0.566524
0.566524
0.566525
0.566525
0.566525
0.566526
0.566526
0.566526
0.566526
0.566527
0.566527
0.566528
0.566528
0.566528
0.566528
0.566529
0.566529
0.56653
0.56653
0.56653
0.566531
0.566531
0.566531
0.566531
0.566532
0.566532
0.566533
0.566533
0.566533
0.566534
0.566534
0.566534
0.566535
0.566535
0.566535
0.566536
0.566536
0.566537
0.566537
0.566537
0.566537
0.566538
0.566538
0.566538
0.566539
0.566539
0.56654
0.56654
0.56654
0.56654
0.566541
0.566541
0.566542
0.566542
0.566542
0.566543
0.566543
0.566544
0.566544
0.566544
0.566545
0.566545
0.566545
0.566545
0.566546
0.566546
0.566547
0.566547
0.566547
0.566548
0.566548
0.566549
0.566549
0.566549
0.56655
0.56655
0.56655
0.566551
0.566551
0.566551
0.566552
0.566552
0.566553
0.566553
0.566553
0.566554
0.566554
0.566555
0.566555
0.566555
0.566556
0.566556
0.566557
0.566557
0.566557
0.566557
0.566558
0.566558
0.566558
0.566559
0.566559
0.56656
0.56656
0.56656
0.566561
0.566561
0.566562
0.566562
0.566562
0.566563
0.566563
0.566564
0.566564
0.566564
0.566565
0.566565
0.566566
0.566566
0.566566
0.566567
0.566567
0.566568
0.566568
0.566568
0.566568
0.566569
0.566569
0.56657
0.56657
0.56657
0.566571
0.566571
0.566572
0.566572
0.566572
0.566573
0.566573
0.566574
0.566574
0.566574
0.566575
0.566575
0.566576
0.566576
0.566577
0.566577
0.566578
0.566578
0.566578
0.566579
0.566579
0.56658
0.56658
0.56658
0.566581
0.566581
0.566582
0.566582
0.566582
0.566583
0.566583
0.566584
0.566584
0.566584
0.566585
0.566585
0.566586
0.566586
0.566586
0.566587
0.566587
0.566588
0.566588
0.566588
0.566589
0.566589
0.56659
0.56659
0.56659
0.566591
0.566592
0.566592
0.566593
0.566593
0.566593
0.566594
0.566594
0.566595
0.566595
0.566595
0.566596
0.566596
0.566597
0.566597
0.566597
0.566598
0.566598
0.566599
0.566599
0.566599
0.5666
0.566601
0.566601
0.566601
0.566602
0.566602
0.566603
0.566603
0.566603
0.566604
0.566604
0.566605
0.566606
0.566606
0.566606
0.566607
0.566607
0.566608
0.566608
0.566608
0.566609
0.566609
0.56661
0.56661
0.566611
0.566611
0.566612
0.566612
0.566612
0.566613
0.566613
0.566614
0.566614
0.566614
0.566615
0.566616
0.566616
0.566617
0.566617
0.566617
0.566618
0.566618
0.566619
0.566619
0.56662
0.56662
0.566621
0.566621
0.566621
0.566622
0.566622
0.566623
0.566624
0.566624
0.566624
0.566625
0.566625
0.566626
0.566626
0.566626
0.566627
0.566628
0.566628
0.566628
0.566629
0.566629
0.56663
0.566631
0.566631
0.566631
0.566632
0.566632
0.566633
0.566633
0.566634
0.566634
0.566635
0.566635
0.566635
0.566636
0.566637
0.566637
0.566638
0.566638
0.566638
0.566639
0.56664
0.56664
0.56664
0.566641
0.566641
0.566642
0.566643
0.566643
0.566643
0.566644
0.566644
0.566645
0.566645
0.566646
0.566646
0.566647
0.566647
0.566647
0.566648
0.566649
0.566649
0.56665
0.56665
0.566651
0.566651
0.566652
0.566652
0.566652
0.566653
0.566654
0.566654
0.566655
0.566655
0.566656
0.566656
0.566657
0.566657
0.566657
0.566658
0.566659
0.566659
0.56666
0.56666
0.56666
0.566661
0.566662
0.566662
0.566662
0.566663
0.566664
0.566664
0.566665
0.566665
0.566666
0.566666
0.566667
0.566668
0.566668
0.566668
0.566669
0.566669
0.56667
0.56667
0.566671
0.566671
0.566672
0.566673
0.566673
0.566673
0.566674
0.566675
0.566675
0.566675
0.566676
0.566677
0.566677
0.566678
0.566678
0.566679
0.566679
0.56668
0.566681
0.566681
0.566681
0.566682
0.566683
0.566683
0.566683
0.566684
0.566685
0.566685
0.566686
0.566686
0.566687
0.566687
0.566688
0.566689
0.566689
0.566689
0.56669
0.566691
0.566691
0.566691
0.566692
0.566693
0.566693
0.566694
0.566694
0.566695
0.566695
0.566696
0.566697
0.566697
0.566697
0.566698
0.566699
0.566699
0.566699
0.5667
0.566701
0.566701
0.566702
0.566702
0.566703
0.566704
0.566704
0.566705
0.566705
0.566706
0.566706
0.566707
0.566708
0.566708
0.566708
0.566709
0.56671
0.56671
0.56671
0.566711
0.566712
0.566713
0.566713
0.566713
0.566714
0.566715
0.566715
0.566716
0.566716
0.566717
0.566718
0.566718
0.566719
0.566719
0.56672
0.56672
0.566721
0.566722
0.566722
0.566722
0.566723
0.566724
0.566725
0.566725
0.566725
0.566726
0.566727
0.566727
0.566727
0.566728
0.566729
0.56673
0.56673
0.56673
0.566731
0.566732
0.566733
0.566733
0.566733
0.566734
0.566735
0.566736
0.566736
0.566736
0.566737
0.566738
0.566738
0.566739
0.566739
0.56674
0.566741
0.566741
0.566742
0.566742
0.566743
0.566744
0.566744
0.566745
0.566745
0.566746
0.566747
0.566747
0.566748
0.566748
0.566749
0.56675
0.56675
0.566751
0.566751
0.566752
0.566753
0.566753
0.566754
0.566754
0.566755
0.566756
0.566756
0.566757
0.566757
0.566758
0.566759
0.566759
0.56676
0.56676
0.566761
0.566762
0.566762
0.566763
0.566763
0.566764
0.566765
0.566766
0.566766
0.566766
0.566767
0.566768
0.566769
0.566769
0.566769
0.56677
0.566771
0.566772
0.566773
0.566773
0.566773
0.566774
0.566775
0.566776
0.566776
0.566776
0.566777
0.566778
0.566779
0.566779
0.56678
0.56678
0.566781
0.566782
0.566782
0.566783
0.566784
0.566784
0.566785
0.566785
0.566786
0.566787
0.566788
0.566788
0.566788
0.566789
0.56679
0.566791
0.566791
0.566791
0.566792
0.566793
0.566794
0.566795
0.566795
0.566796
0.566796
0.566797
0.566798
0.566798
0.566799
0.5668
0.5668
0.566801
0.566801
0.566802
0.566803
0.566804
0.566805
0.566805
0.566805
0.566806
0.566807
0.566808
0.566808
0.566809
0.566809
0.56681
0.566811
0.566811
0.566812
0.566813
0.566814
0.566814
0.566814
0.566815
0.566816
0.566817
0.566818
0.566818
0.566819
0.566819
0.56682
0.566821
0.566821
0.566822
0.566823
0.566824
0.566824
0.566824
0.566825
0.566826
0.566827
0.566828
0.566828
0.566829
0.566829
0.56683
0.566831
0.566831
0.566832
0.566833
0.566834
0.566835
0.566835
0.566835
0.566836
0.566837
0.566838
0.566838
0.566839
0.56684
0.566841
0.566841
0.566841
0.566842
0.566843
0.566844
0.566845
0.566845
0.566846
0.566847
0.566848
0.566848
0.566848
0.566849
0.56685
0.566851
0.566852
0.566852
0.566853
0.566854
0.566854
0.566855
0.566855
0.566856
0.566857
0.566858
0.566859
0.566859
0.56686
0.566861
0.566861
0.566862
0.566862
0.566863
0.566864
0.566865
0.566866
0.566866
0.566867
0.566868
0.566869
0.56687
0.56687
0.56687
0.566871
0.566872
0.566873
0.566873
0.566874
0.566875
0.566876
0.566877
0.566877
0.566878
0.566879
0.566879
0.56688
0.56688
0.566881
0.566882
0.566883
0.566884
0.566884
0.566885
0.566886
0.566887
0.566888
0.566888
0.566889
0.566889
0.56689
0.566891
0.566891
0.566892
0.566893
0.566894
0.566895
0.566895
0.566896
0.566897
0.566898
0.566899
0.566899
0.5669
0.566901
0.566901
0.566902
0.566902
0.566903
0.566904
0.566905
0.566906
0.566906
0.566907
0.566908
0.566909
0.56691
0.56691
0.566911
0.566912
0.566913
0.566914
0.566914
0.566915
0.566916
0.566916
0.566917
0.566917
0.566918
0.566919
0.56692
0.566921
0.566921
0.566922
0.566923
0.566924
0.566925
0.566925
0.566926
0.566927
0.566928
0.566929
0.566929
0.56693
0.566931
0.566932
0.566933
0.566933
0.566934
0.566935
0.566936
0.566937
0.566937
0.566938
0.566939
0.56694
0.566941
0.566941
0.566942
0.566942
0.566943
0.566944
0.566944
0.566945
0.566946
0.566947
0.566948
0.566948
0.566949
0.56695
0.566951
0.566952
0.566952
0.566953
0.566954
0.566955
0.566956
0.566956
0.566957
0.566958
0.566959
0.56696
0.56696
0.566961
0.566962
0.566963
0.566964
0.566964
0.566965
0.566966
0.566967
0.566968
0.566968
0.566969
0.56697
0.566971
0.566972
0.566972
0.566973
0.566974
0.566975
0.566976
0.566976
0.566977
0.566978
0.566979
0.56698
0.56698
0.566981
0.566982
0.566983
0.566984
0.566984
0.566985
0.566986
0.566987
0.566989
0.566989
0.56699
0.566991
0.566992
0.566993
0.566993
0.566994
0.566995
0.566996
0.566997
0.566997
0.566998
0.566999
0.567
0.567001
0.567001
0.567002
0.567003
0.567004
0.567005
0.567005
0.567006
0.567007
0.567008
0.567009
0.567009
0.56701
0.567011
0.567012
0.567014
0.567014
0.567015
0.567016
0.567017
0.567018
0.567018
0.567019
0.56702
0.567021
0.567022
0.567022
0.567023
0.567024
0.567025
0.567026
0.567026
0.567027
0.567028
0.567029
0.56703
0.56703
0.567032
0.567033
0.567034
0.567035
0.567035
0.567036
0.567037
0.567038
0.567039
0.567039
0.56704
0.567041
0.567042
0.567043
0.567043
0.567045
0.567046
0.567047
0.567048
0.567048
0.567049
0.56705
0.567051
0.567052
0.567052
0.567053
0.567054
0.567055
0.567057
0.567057
0.567058
0.567059
0.56706
0.567061
0.567061
0.567062
0.567063
0.567064
0.567065
0.567065
0.567066
0.567068
0.567069
0.56707
0.56707
0.567071
0.567072
0.567073
0.567074
0.567074
0.567075
0.567077
0.567078
0.567079
0.567079
0.56708
0.567081
0.567082
0.567083
0.567083
0.567084
0.567086
0.567087
0.567088
0.567088
0.567089
0.56709
0.567091
0.567092
0.567092
0.567093
0.567095
0.567096
0.567097
0.567097
0.567098
0.567099
0.5671
0.567101
0.567101
0.567103
0.567104
0.567105
0.567106
0.567106
0.567107
0.567108
0.567109
0.567111
0.567111
0.567112
0.567113
0.567114
0.567115
0.567115
0.567116
0.567118
0.567119
0.56712
0.56712
0.567121
0.567122
0.567123
0.567125
0.567125
0.567126
0.567127
0.567128
0.567129
0.567129
0.56713
0.567132
0.567133
0.567134
0.567134
0.567135
0.567136
0.567138
0.567139
0.567139
0.56714
0.567141
0.567142
0.567143
0.567143
0.567145
0.567146
0.567147
0.567148
0.567148
0.567149
0.567151
0.567152
0.567153
0.567153
0.567154
0.567155
0.567157
0.567158
0.567158
0.567159
0.56716
0.567162
0.567163
0.567163
0.567164
0.567165
0.567166
0.567168
0.567168
0.567169
0.56717
0.567171
0.567172
0.567172
0.567174
0.567175
0.567176
0.567177
0.567177
0.567178
0.56718
0.567181
0.567182
0.567182
0.567183
0.567185
0.567186
0.567187
0.567187
0.567188
0.56719
0.567191
0.567192
0.567192
0.567193
0.567195
0.567196
0.567197
0.567197
0.567198
0.5672
0.567201
0.567202
0.567202
0.567203
0.567205
0.567206
0.567207
0.567207
0.567208
0.56721
0.567211
0.567212
0.567212
0.567213
0.567215
0.567216
0.567217
0.567217
0.567218
0.56722
0.567221
0.567222
0.567222
0.567223
0.567225
0.567226
0.567227
0.567227
0.567229
0.56723
0.567231
0.567232
0.567232
0.567234
0.567235
0.567236
0.567238
0.567238
0.567239
0.56724
0.567241
0.567243
0.567243
0.567244
0.567245
0.567247
0.567248
0.567248
0.567249
0.56725
0.567252
0.567253
0.567253
0.567254
0.567256
0.567257
0.567258
0.567258
0.56726
0.567261
0.567262
0.567264
0.567264
0.567265
0.567266
0.567267
0.567269
0.567269
0.56727
0.567271
0.567273
0.567274
0.567274
0.567275
0.567277
0.567278
0.567279
0.567279
0.567281
0.567282
0.567283
0.567285
0.567285
0.567286
0.567287
0.567289
0.56729
0.56729
0.567291
0.567293
0.567294
0.567295
0.567295
0.567297
0.567298
0.567299
0.567301
0.567301
0.567302
0.567303
0.567305
0.567306
0.567306
0.567308
0.567309
0.56731
0.567312
0.567312
0.567313
0.567314
0.567316
0.567317
0.567317
0.567318
0.56732
0.567321
0.567322
0.567322
0.567324
0.567325
0.567327
0.567328
0.567328
0.567329
0.567331
0.567332
0.567333
0.567333
0.567335
0.567336
0.567338
0.567339
0.567339
0.56734
0.567342
0.567343
0.567345
0.567345
0.567346
0.567347
0.567349
0.56735
0.56735
0.567352
0.567353
0.567354
0.567356
0.567356
0.567357
0.567359
0.56736
0.567361
0.567361
0.567363
0.567364
0.567366
0.567367
0.567367
0.567368
0.56737
0.567371
0.567373
0.567373
0.567374
0.567376
0.567377
0.567378
0.567378
0.56738
0.567381
0.567383
0.567384
0.567384
0.567386
0.567387
0.567388
0.56739
0.56739
0.567391
0.567393
0.567394
0.567396
0.567396
0.567397
0.567398
0.5674
0.567401
0.567401
0.567403
0.567404
0.567406
0.567407
0.567407
0.567409
0.56741
0.567412
0.567413
0.567413
0.567414
0.567416
0.567417
0.567419
0.567419
0.56742
0.567422
0.567423
0.567425
0.567425
0.567426
0.567428
0.567429
0.567431
0.567431
0.567432
0.567434
0.567435
0.567437
0.567437
0.567438
0.567439
0.567441
0.567442
0.567442
0.567444
0.567445
0.567447
0.567448
0.567448
0.56745
0.567451
0.567453
0.567454
0.567454
0.567456
0.567457
0.567459
0.56746
0.56746
0.567462
0.567463
0.567465
0.567467
0.567467
0.567468
0.56747
0.567471
0.567473
0.567473
0.567474
0.567476
0.567477
0.567479
0.567479
0.56748
0.567482
0.567483
0.567485
0.567485
0.567486
0.567488
0.567489
0.567491
0.567491
0.567492
0.567494
0.567495
0.567497
0.567497
0.567499
0.5675
0.567502
0.567503
0.567503
0.567505
0.567506
0.567508
0.567509
0.567509
0.567511
0.567513
0.567514
0.567516
0.567516
0.567517
0.567519
0.56752
0.567522
0.567522
0.567523
0.567525
0.567527
0.567528
0.567528
0.56753
0.567531
0.567533
0.567534
0.567534
0.567536
0.567538
0.567539
0.567541
0.567541
0.567542
0.567544
0.567546
0.567547
0.567547
0.567549
0.56755
0.567552
0.567553
0.567553
0.567555
0.567557
0.567558
0.56756
0.56756
0.567561
0.567563
0.567565
0.567566
0.567566
0.567568
0.567569
0.567571
0.567573
0.567573
0.567574
0.567576
0.567578
0.567579
0.567579
0.567581
0.567582
0.567584
0.567586
0.567586
0.567587
0.567589
0.567591
0.567592
0.567592
0.567594
0.567596
0.567597
0.567599
0.567599
0.5676
0.567602
0.567604
0.567605
0.567605
0.567607
0.567609
0.56761
0.567612
0.567612
0.567614
0.567615
0.567617
0.567619
0.567619
0.56762
0.567622
0.567624
0.567625
0.567625
0.567627
0.567629
0.56763
0.567632
0.567632
0.567634
0.567635
0.567637
0.567639
0.567639
0.56764
0.567642
0.567644
0.567645
0.567645
0.567647
0.567649
0.56765
0.567652
0.567652
0.567654
0.567655
0.567657
0.567659
0.567659
0.567661
0.567662
0.567664
0.567666
0.567666
0.567667
0.567669
0.567671
0.567673
0.567673
0.567674
0.567676
0.567678
0.567679
0.567679
0.567681
0.567683
0.567684
0.567686
0.567686
0.567688
0.56769
0.567691
0.567693
0.567693
0.567695
0.567697
0.567698
0.5677
0.5677
0.567702
0.567704
0.567705
0.567707
0.567707
0.567709
0.567711
0.567712
0.567714
0.567714
0.567716
0.567718
0.567719
0.567721
0.567721
0.567723
0.567725
0.567726
0.567728
0.567728
0.56773
0.567732
0.567733
0.567735
0.567735
0.567737
0.567739
0.56774
0.567742
0.567742
0.567744
0.567746
0.567748
0.567749
0.567749
0.567751
0.567753
0.567755
0.567757
0.567757
0.567758
0.56776
0.567762
0.567764
0.567764
0.567766
0.567767
0.567769
0.567771
0.567771
0.567773
0.567774
0.567776
0.567778
0.567778
0.56778
0.567782
0.567784
0.567785
0.567785
0.567787
0.567789
0.567791
0.567793
0.567793
0.567795
0.567796
0.567798
0.5678
0.5678
0.567802
0.567804
0.567806
0.567807
0.567807
0.567809
0.567811
0.567813
0.567815
0.567815
0.567817
0.567818
0.56782
0.567822
0.567822
0.567824
0.567826
0.567828
0.56783
0.56783
0.567831
0.567833
0.567835
0.567837
0.567837
0.567839
0.567841
0.567843
0.567845
0.567845
0.567846
0.567848
0.56785
0.567852
0.567852
0.567854
0.567856
0.567858
0.56786
0.56786
0.567861
0.567863
0.567865
0.567867
0.567867
0.567869
0.567871
0.567873
0.567875
0.567875
0.567877
0.567879
0.56788
0.567882
0.567882
0.567884
0.567886
0.567888
0.56789
0.56789
0.567892
0.567894
0.567896
0.567898
0.567898
0.5679
0.567902
0.567903
0.567905
0.567905
0.567907
0.567909
0.567911
0.567913
0.567913
0.567915
0.567917
0.567919
0.567921
0.567921
0.567923
0.567925
0.567927
0.567929
0.567929
0.567931
0.567933
0.567935
0.567937
0.567937
0.567939
0.567941
0.567943
0.567944
0.567944
0.567946
0.567948
0.56795
0.567952
0.567952
0.567954
0.567956
0.567958
0.56796
0.56796
0.567962
0.567964
0.567966
0.567968
0.567968
0.56797
0.567972
0.567974
0.567976
0.567976
0.567978
0.56798
0.567982
0.567984
0.567984
0.567986
0.567988
0.56799
0.567992
0.567992
0.567994
0.567996
0.567998
0.568
0.568
0.568002
0.568004
0.568007
0.568009
0.568009
0.568011
0.568013
0.568015
0.568017
0.568017
0.568019
0.568021
0.568023
0.568025
0.568025
0.568027
0.568029
0.568031
0.568033
0.568033
0.568035
0.568037
0.568039
0.568041
0.568041
0.568043
0.568045
0.568047
0.56805
0.56805
0.568052
0.568054
0.568056
0.568058
0.568058
0.56806
0.568062
0.568064
0.568066
0.568066
0.568068
0.56807
0.568072
0.568075
0.568075
0.568077
0.568079
0.568081
0.568083
0.568083
0.568085
0.568087
0.568089
0.568091
0.568091
0.568093
0.568096
0.568098
0.5681
0.5681
0.568102
0.568104
0.568106
0.568108
0.568108
0.56811
0.568113
0.568115
0.568117
0.568117
0.568119
0.568121
0.568123
0.568125
0.568125
0.568128
0.56813
0.568132
0.568134
0.568134
0.568136
0.568138
0.56814
0.568143
0.568143
0.568145
0.568147
0.568149
0.568151
0.568151
0.568153
0.568156
0.568158
0.56816
0.56816
0.568162
0.568164
0.568167
0.568169
0.568169
0.568171
0.568173
0.568175
0.568177
0.568177
0.56818
0.568182
0.568184
0.568186
0.568186
0.568188
0.568191
0.568193
0.568195
0.568195
0.568197
0.568199
0.568202
0.568204
0.568204
0.568206
0.568208
0.568211
0.568213
0.568213
0.568215
0.568217
0.568219
0.568222
0.568222
0.568224
0.568226
0.568228
0.568231
0.568231
0.568233
0.568235
0.568237
0.56824
0.56824
0.568242
0.568244
0.568246
0.568249
0.568249
0.568251
0.568253
0.568256
0.568258
0.568258
0.56826
0.568262
0.568265
0.568267
0.568267
0.568269
0.568271
0.568274
0.568276
0.568276
0.568278
0.568281
0.568283
0.568285
0.568285
0.568287
0.56829
0.568292
0.568294
0.568294
0.568297
0.568299
0.568301
0.568304
0.568304
0.568306
0.568308
0.568311
0.568313
0.568313
0.568315
0.568317
0.56832
0.568322
0.568322
0.568324
0.568327
0.568329
0.568332
0.568332
0.568334
0.568336
0.568339
0.568341
0.568341
0.568343
0.568346
0.568348
0.56835
0.56835
0.568353
0.568355
0.568357
0.56836
0.56836
0.568362
0.568364
0.568367
0.568369
0.568369
0.568372
0.568374
0.568376
0.568379
0.568379
0.568381
0.568384
0.568386
0.568388
0.568388
0.568391
0.568393
0.568396
0.568398
0.568398
0.5684
0.568403
0.568405
0.568408
0.568408
0.56841
0.568412
0.568415
0.568417
0.568417
0.56842
0.568422
0.568424
0.568427
0.568427
0.568429
0.568432
0.568434
0.568437
0.568437
0.568439
0.568442
0.568444
0.568446
0.568446
0.568449
0.568451
0.568454
0.568456
0.568456
0.568459
0.568461
0.568464
0.568466
0.568466
0.568469
0.568471
0.568474
0.568476
0.568476
0.568479
0.568481
0.568484
0.568486
0.568486
0.568488
0.568491
0.568493
0.568496
0.568496
0.568498
0.568501
0.568503
0.568506
0.568506
0.568508
0.568511
0.568513
0.568516
0.568516
0.568519
0.568521
0.568524
0.568526
0.568526
0.568529
0.568531
0.568534
0.568536
0.568536
0.568539
0.568541
0.568544
0.568546
0.568546
0.568549
0.568552
0.568554
0.568557
0.568557
0.568559
0.568562
0.568564
0.568567
0.568567
0.568569
0.568572
0.568575
0.568577
0.568577
0.56858
0.568582
0.568585
0.568587
0.568587
0.56859
0.568593
0.568595
0.568598
0.568598
0.5686
0.568603
0.568606
0.568608
0.568608
0.568611
0.568613
0.568616
0.568619
0.568619
0.568621
0.568624
0.568627
0.568629
0.568629
0.568632
0.568634
0.568637
0.56864
0.56864
0.568642
0.568645
0.568648
0.56865
0.56865
0.568653
0.568656
0.568658
0.568661
0.568661
0.568664
0.568666
0.568669
0.568671
0.568671
0.568674
0.568677
0.56868
0.568682
0.568682
0.568685
0.568688
0.56869
0.568693
0.568693
0.568696
0.568698
0.568701
0.568704
0.568704
0.568706
0.568709
0.568712
0.568715
0.568715
0.568717
0.56872
0.568723
0.568725
0.568725
0.568728
0.568731
0.568734
0.568736
0.568736
0.568739
0.568742
0.568745
0.568747
0.568747
0.56875
0.568753
0.568755
0.568758
0.568758
0.568761
0.568764
0.568766
0.568769
0.568769
0.568772
0.568775
0.568778
0.56878
0.56878
0.568783
0.568786
0.568789
0.568791
0.568791
0.568794
0.568797
0.5688
0.568803
0.568803
0.568805
0.568808
0.568811
0.568814
0.568814
0.568817
0.568819
0.568822
0.568825
0.568825
0.568828
0.568831
0.568833
0.568836
0.568836
0.568839
0.568842
0.568845
0.568848
0.568848
0.56885
0.568853
0.568856
0.568859
0.568859
0.568862
0.568865
0.568868
0.56887
0.56887
0.568873
0.568876
0.568879
0.568882
0.568882
0.568885
0.568888
0.568891
0.568893
0.568893
0.568896
0.568899
0.568902
0.568905
0.568905
0.568908
0.568911
0.568914
0.568917
0.568917
0.568919
0.568922
0.568925
0.568928
0.568928
0.568931
0.568934
0.568937
0.56894
0.56894
0.568943
0.568946
0.568949
0.568952
0.568952
0.568955
0.568958
0.568961
0.568963
0.568963
0.568966
0.568969
0.568972
0.568975
0.568975
0.568978
0.568981
0.568984
0.568987
0.568987
0.56899
0.568993
0.568996
0.568999
0.568999
0.569002
0.569005
0.569008
0.569011
0.569011
0.569014
0.569017
0.56902
0.569023
0.569023
0.569026
0.569029
0.569032
0.569035
0.569035
0.569038
0.569041
0.569044
0.569047
0.569047
0.56905
0.569053
0.569056
0.569059
0.569059
0.569062
0.569065
0.569069
0.569072
0.569072
0.569075
0.569078
0.569081
0.569084
0.569084
0.569087
0.56909
0.569093
0.569096
0.569096
0.569099
0.569102
0.569105
0.569108
0.569108
0.569112
0.569115
0.569118
0.569121
0.569121
0.569124
0.569127
0.56913
0.569133
0.569133
0.569137
0.56914
0.569143
0.569146
0.569146
0.569149
0.569152
0.569155
0.569158
0.569158
0.569162
0.569165
0.569168
0.569171
0.569171
0.569174
0.569177
0.569181
0.569184
0.569184
0.569187
0.56919
0.569193
0.569196
0.569196
0.5692
0.569203
0.569206
0.569209
0.569209
0.569212
0.569215
0.569219
0.569222
0.569222
0.569225
0.569228
0.569232
0.569235
0.569235
0.569238
0.569241
0.569244
0.569248
0.569248
0.569251
0.569254
0.569257
0.569261
0.569261
0.569264
0.569267
0.56927
0.569274
0.569274
0.569277
0.56928
0.569283
0.569287
0.569287
0.56929
0.569293
0.569297
0.5693
0.5693
0.569303
0.569306
0.56931
0.569313
0.569313
0.569316
0.56932
0.569323
0.569326
0.569326
0.569329
0.569333
0.569336
0.569339
0.569339
0.569343
0.569346
0.569349
0.569353
0.569353
0.569356
0.569359
0.569363
0.569366
0.569366
0.56937
0.569373
0.569376
0.56938
0.56938
0.569383
0.569386
0.56939
0.569393
0.569393
0.569396
0.5694
0.569403
0.569407
0.569407
0.56941
0.569413
0.569417
0.56942
0.56942
0.569424
0.569427
0.56943
0.569434
0.569434
0.569437
0.569441
0.569444
0.569447
0.569447
0.569451
0.569454
0.569458
0.569461
0.569461
0.569465
0.569468
0.569472
0.569475
0.569475
0.569479
0.569482
0.569485
0.569489
0.569489
0.569492
0.569496
0.569499
0.569503
0.569503
0.569506
0.56951
0.569513
0.569517
0.569517
0.56952
0.569524
0.569527
0.569531
0.569531
0.569534
0.569538
0.569541
0.569545
0.569545
0.569549
0.569552
0.569556
0.569559
0.569559
0.569563
0.569566
0.56957
0.569573
0.569573
0.569577
0.56958
0.569584
0.569588
0.569588
0.569591
0.569595
0.569598
0.569602
0.569602
0.569605
0.569609
0.569613
0.569616
0.569616
0.56962
0.569623
0.569627
0.569631
0.569631
0.569634
0.569638
0.569642
0.569645
0.569645
0.569649
0.569652
0.569656
0.56966
0.56966
0.569663
0.569667
0.569671
0.569674
0.569674
0.569678
0.569682
0.569685
0.569689
0.569689
0.569693
0.569696
0.5697
0.569704
0.569704
0.569707
0.569711
0.569715
0.569719
0.569719
0.569722
0.569726
0.56973
0.569733
0.569733
0.569737
0.569741
0.569745
0.569748
0.569748
0.569752
0.569756
0.56976
0.569763
0.569763
0.569767
0.569771
0.569775
0.569778
0.569778
0.569782
0.569786
0.56979
0.569793
0.569793
0.569797
0.569801
0.569805
0.569809
0.569809
0.569812
0.569816
0.56982
0.569824
0.569824
0.569828
0.569831
0.569835
0.569839
0.569839
0.569843
0.569847
0.569851
0.569854
0.569854
0.569858
0.569862
0.569866
0.56987
0.56987
0.569874
0.569878
0.569881
0.569885
0.569885
0.569889
0.569893
0.569897
0.569901
0.569901
0.569905
0.569909
0.569913
0.569916
0.569916
0.56992
0.569924
0.569928
0.569932
0.569932
0.569936
0.56994
0.569944
0.569948
0.569948
0.569952
0.569956
0.56996
0.569964
0.569964
0.569968
0.569972
0.569976
0.569979
0.569979
0.569983
0.569987
0.569991
0.569995
0.569995
0.569999
0.570003
0.570007
0.570011
0.570011
0.570015
0.570019
0.570023
0.570027
0.570027
0.570031
0.570036
0.57004
0.570044
0.570044
0.570048
0.570052
0.570056
0.57006
0.57006
0.570064
0.570068
0.570072
0.570076
0.570076
0.57008
0.570084
0.570088
0.570092
0.570092
0.570096
0.570101
0.570105
0.570109
0.570109
0.570113
0.570117
0.570121
0.570125
0.570125
0.570129
0.570133
0.570138
0.570142
0.570142
0.570146
0.57015
0.570154
0.570158
0.570158
0.570162
0.570167
0.570171
0.570175
0.570175
0.570179
0.570183
0.570188
0.570192
0.570192
0.570196
0.5702
0.570204
0.570209
0.570209
0.570213
0.570217
0.570221
0.570225
0.570225
0.57023
0.570234
0.570238
0.570242
0.570242
0.570247
0.570251
0.570255
0.570259
0.570259
0.570264
0.570268
0.570272
0.570276
0.570276
0.570281
0.570285
0.570289
0.570294
0.570294
0.570298
0.570302
0.570307
0.570311
0.570311
0.570315
0.570319
0.570324
0.570328
0.570328
0.570332
0.570337
0.570341
0.570345
0.570345
0.57035
0.570354
0.570359
0.570363
0.570363
0.570367
0.570372
0.570376
0.57038
0.57038
0.570385
0.570389
0.570394
0.570398