<?xml version="1.0"?>
<VTKFile type="UnstructuredGrid" version="0.1" byte_order="LittleEndian">
<UnstructuredGrid>
<Piece NumberOfPoints="5000" NumberOfCells="4000">
<PointData Scalars="Reaction 0">
<DataArray type="Float32" Name="Reaction 0" format="ascii">
0.367825
0.367825
0.367825
0.367825
0.367825
0.367825
0.367825
0.367826
0.367826
0.367826
0.367826
0.367826
0.367826
0.367827
0.367827
0.367827
0.367827
0.367828
0.367828
0.367829
0.367829
0.367829
0.36783
0.36783
0.367831
0.367831
0.367831
0.367832
0.367833
0.367833
0.367833
0.367834
0.367835
0.367836
0.367836
0.367836
0.367837
0.367838
0.367839
0.36784
0.36784
0.367841
0.367842
0.367843
0.367844
0.367844
0.367845
0.367846
0.367847
0.367848
0.367848
0.36785
0.367851
0.367852
0.367853
0.367853
0.367855
0.367856
0.367857
0.367859
0.367859
0.36786
0.367862
0.367863
0.367865
0.367865
0.367866
0.367868
0.367869
0.367871
0.367871
0.367873
0.367874
0.367876
0.367878
0.367878
0.36788
0.367881
0.367883
0.367885
0.367885
0.367887
0.367889
0.367891
0.367893
0.367893
0.367895
0.367897
0.367899
0.367901
0.367901
0.367903
0.367905
0.367908
0.36791
0.36791
0.367912
0.367914
0.367917
0.367919
0.367919
0.367921
0.367924
0.367926
0.367929
0.367929
0.367931
0.367934
0.367936
0.367939
0.367939
0.367941
0.367944
0.367947
0.367949
0.367949
0.367952
0.367955
0.367957
0.36796
0.36796
0.367963
0.367966
0.367969
0.367972
0.367972
0.367975
0.367978
0.367981
0.367984
0.367984
0.367987
0.36799
0.367993
0.367996
0.367996
0.367999
0.368003
0.368006
0.368009
0.368009
0.368012
0.368016
0.368019
0.368022
0.368022
0.368026
0.368029
0.368033
0.368036
0.368036
0.36804
0.368043
0.368047
0.368051
0.368051
0.368054
0.368058
0.368062
0.368065
0.368065
0.368069
0.368073
0.368077
0.368081
0.368081
0.368085
0.368089
0.368092
0.368096
0.368096
0.3681
0.368104
0.368109
0.368113
0.368113
0.368117
0.368121
0.368125
0.368129
0.368129
0.368134
0.368138
0.368142
0.368146
0.368146
0.368151
0.368155
0.36816
0.368164
0.368164
0.368169
0.368173
0.368178
0.368182
0.368182
0.368187
0.368191
0.368196
0.368201
0.368201
0.368205
0.36821
0.368215
0.36822
0.36822
0.368225
0.368229
0.368234
0.368239
0.368239
0.368244
0.368249
0.368254
0.368259
0.368259
0.368264
0.368269
0.368274
0.36828
0.36828
0.368285
0.36829
0.368295
0.3683
0.3683
0.368306
0.368311
0.368316
0.368322
0.368322
0.368327
0.368333
0.368338
0.368344
0.368344
0.368349
0.368355
0.36836
0.368366
0.368366
0.368372
0.368377
0.368383
0.368389
0.368389
0.368395
0.3684
0.368406
0.368412
0.368412
0.368418
0.368424
0.36843
0.368436
0.368436
0.368442
0.368448
0.368454
0.36846
0.36846
0.368466
0.368472
0.368478
0.368485
0.368485
0.368491
0.368497
0.368503
0.36851
0.36851
0.368516
0.368522
0.368529
0.368535
0.368535
0.368542
0.368548
0.368555
0.368561
0.368561
0.368568
0.368575
0.368581
0.368588
0.368588
0.368595
0.368601
0.368608
0.368615
0.368615
0.368622
0.368629
0.368635
0.368642
0.368642
0.368649
0.368656
0.368663
0.36867
0.36867
0.368677
0.368684
0.368692
0.368699
0.368699
0.368706
0.368713
0.36872
0.368728
0.368728
0.368735
0.368742
0.36875
0.368757
0.368757
0.368764
0.368772
0.368779
0.368787
0.368787
0.368794
0.368802
0.368809
0.368817
0.368817
0.368825
0.368832
0.36884
0.368848
0.368848
0.368855
0.368863
0.368871
0.368879
0.368879
0.368887
0.368895
0.368903
0.368911
0.368911
0.368919
0.368927
0.368935
0.368943
0.368943
0.368951
0.368959
0.368967
0.368975
0.368975
0.368984
0.368992
0.369
0.369009
0.369009
0.369017
0.369025
0.369034
0.369042
0.369042
0.369051
0.369059
0.369068
0.369076
0.369076
0.369085
0.369093
0.369102
0.369111
0.369111
0.369119
0.369128
0.369137
0.369146
0.369146
0.369154
0.369163
0.369172
0.369181
0.369181
0.36919
0.369199
0.369208
0.369217
0.369217
0.369226
0.369235
0.369244
0.369253
0.369253
0.369263
0.369272
0.369281
0.36929
0.36929
0.3693
0.369309
0.369318
0.369328
0.369328
0.369337
0.369346
0.369356
0.369365
0.369365
0.369375
0.369384
0.369394
0.369404
0.369404
0.369413
0.369423
0.369433
0.369442
0.369442
0.369452
0.369462
0.369472
0.369482
0.369482
0.369491
0.369501
0.369511
0.369521
0.369521
0.369531
0.369541
0.369551
0.369561
0.369561
0.369571
0.369582
0.369592
0.369602
0.369602
0.369612
0.369622
0.369633
0.369643
0.369643
0.369653
0.369664
0.369674
0.369685
0.369685
0.369695
0.369705
0.369716
0.369727
0.369727
0.369737
0.369748
0.369758
0.369769
0.369769
0.36978
0.36979
0.369801
0.369812
0.369812
0.369823
0.369834
0.369845
0.369855
0.369855
0.369866
0.369877
0.369888
0.369899
0.369899
0.36991
0.369921
0.369933
0.369944
0.369944
0.369955
0.369966
0.369977
0.369988
0.369988
0.37
0.370011
0.370022
0.370034
0.370034
0.370045
0.370057
0.370068
0.37008
0.37008
0.370091
0.370103
0.370114
0.370126
0.370126
0.370137
0.370149
0.370161
0.370172
0.370172
0.370184
0.370196
0.370208
0.37022
0.37022
0.370231
0.370243
0.370255
0.370267
0.370267
0.370279
0.370291
0.370303
0.370315
0.370315
0.370327
0.37034
0.370352
0.370364
0.370364
0.370376
0.370388
0.370401
0.370413
0.370413
0.370425
0.370438
0.37045
0.370462
0.370462
0.370475
0.370487
0.3705
0.370512
0.370512
0.370525
0.370538
0.37055
0.370563
0.370563
0.370576
0.370588
0.370601
0.370614
0.370614
0.370627
0.370639
0.370652
0.370665
0.370665
0.370678
0.370691
0.370704
0.370717
0.370717
0.37073
0.370743
0.370756
0.370769
0.370769
0.370783
0.370796
0.370809
0.370822
0.370822
0.370835
0.370849
0.370862
0.370875
0.370875
0.370889
0.370902
0.370916
0.370929
0.370929
0.370943
0.370956
0.37097
0.370983
0.370983
0.370997
0.371011
0.371024
0.371038
0.371038
0.371052
0.371066
0.371079
0.371093
0.371093
0.371107
0.371121
0.371135
0.371149
0.371149
0.371163
0.371177
0.371191
0.371205
0.371205
0.371219
0.371233
0.371247
0.371261
0.371261
0.371276
0.37129
0.371304
0.371318
0.371318
0.371333
0.371347
0.371361
0.371376
0.371376
0.37139
0.371405
0.371419
0.371434
0.371434
0.371448
0.371463
0.371478
0.371492
0.371492
0.371507
0.371522
0.371536
0.371551
0.371551
0.371566
0.371581
0.371596
0.37161
0.37161
0.371625
0.37164
0.371655
0.37167
0.37167
0.371685
0.3717
0.371715
0.371731
0.371731
0.371746
0.371761
0.371776
0.371791
0.371791
0.371807
0.371822
0.371837
0.371852
0.371852
0.371868
0.371883
0.371899
0.371914
0.371914
0.37193
0.371945
0.371961
0.371976
0.371976
0.371992
0.372008
0.372023
0.372039
0.372039
0.372055
0.37207
0.372086
0.372102
0.372102
0.372118
0.372134
0.37215
0.372166
0.372166
0.372182
0.372198
0.372214
0.37223
0.37223
0.372246
0.372262
0.372278
0.372294
0.372294
0.37231
0.372327
0.372343
0.372359
0.372359
0.372375
0.372392
0.372408
0.372425
0.372425
0.372441
0.372457
0.372474
0.37249
0.37249
0.372507
0.372524
0.37254
0.372557
0.372557
0.372573
0.37259
0.372607
0.372624
0.372624
0.37264
0.372657
0.372674
0.372691
0.372691
0.372708
0.372725
0.372742
0.372759
0.372759
0.372776
0.372793
0.37281
0.372827
0.372827
0.372844
0.372861
0.372878
0.372896
0.372896
0.372913
0.37293
0.372947
0.372965
0.372965
0.372982
0.373
0.373017
0.373034
0.373034
0.373052
0.373069
0.373087
0.373105
0.373105
0.373122
0.37314
0.373157
0.373175
0.373175
0.373193
0.373211
0.373228
0.373246
0.373246
0.373264
0.373282
0.3733
0.373318
0.373318
0.373336
0.373354
0.373372
0.37339
0.37339
0.373408
0.373426
0.373444
0.373462
0.373462
0.37348
0.373498
0.373517
0.373535
0.373535
0.373553
0.373572
0.37359
0.373608
0.373608
0.373627
0.373645
0.373664
0.373682
0.373682
0.373701
0.373719
0.373738
0.373757
0.373757
0.373775
0.373794
0.373813
0.373831
0.373831
0.37385
0.373869
0.373888
0.373907
0.373907
0.373925
0.373944
0.373963
0.373982
0.373982
0.374001
0.37402
0.374039
0.374058
0.374058
0.374078
0.374097
0.374116
0.374135
0.374135
0.374154
0.374174
0.374193
0.374212
0.374212
0.374232
0.374251
0.37427
0.37429
0.37429
0.374309
0.374329
0.374348
0.374368
0.374368
0.374387
0.374407
0.374427
0.374446
0.374446
0.374466
0.374486
0.374506
0.374525
0.374525
0.374545
0.374565
0.374585
0.374605
0.374605
0.374625
0.374645
0.374665
0.374685
0.374685
0.374705
0.374725
0.374745
0.374765
0.374765
0.374785
0.374805
0.374826
0.374846
0.374846
0.374866
0.374887
0.374907
0.374927
0.374927
0.374948
0.374968
0.374989
0.375009
0.375009
0.37503
0.37505
0.375071
0.375091
0.375091
0.375112
0.375133
0.375153
0.375174
0.375174
0.375195
0.375216
0.375236
0.375257
0.375257
0.375278
0.375299
0.37532
0.375341
0.375341
0.375362
0.375383
0.375404
0.375425
0.375425
0.375446
0.375467
0.375488
0.37551
0.37551
0.375531
0.375552
0.375573
0.375595
0.375595
0.375616
0.375637
0.375659
0.37568
0.37568
0.375702
0.375723
0.375745
0.375766
0.375766
0.375788
0.375809
0.375831
0.375853
0.375853
0.375874
0.375896
0.375918
0.37594
0.37594
0.375961
0.375983
0.376005
0.376027
0.376027
0.376049
0.376071
0.376093
0.376115
0.376115
0.376137
0.376159
0.376181
0.376203
0.376203
0.376225
0.376247
0.37627
0.376292
0.376292
0.376314
0.376336
0.376359
0.376381
0.376381
0.376404
0.376426
0.376448
0.376471
0.376471
0.376493
0.376516
0.376538
0.376561
0.376561
0.376584
0.376606
0.376629
0.376652
0.376652
0.376674
0.376697
0.37672
0.376743
0.376743
0.376766
0.376789
0.376811
0.376834
0.376834
0.376857
0.37688
0.376903
0.376926
0.376926
0.37695
0.376973
0.376996
0.377019
0.377019
0.377042
0.377065
0.377089
0.377112
0.377112
0.377135
0.377159
0.377182
0.377205
0.377205
0.377229
0.377252
0.377276
0.377299
0.377299
0.377323
0.377346
0.37737
0.377394
0.377394
0.377417
0.377441
0.377465
0.377489
0.377489
0.377512
0.377536
0.37756
0.377584
0.377584
0.377608
0.377632
0.377656
0.37768
0.37768
0.377704
0.377728
0.377752
0.377776
0.377776
0.3778
0.377824
0.377848
0.377873
0.377873
0.377897
0.377921
0.377945
0.37797
0.37797
0.377994
0.378018
0.378043
0.378067
0.378067
0.378092
0.378116
0.378141
0.378165
0.378165
0.37819
0.378215
0.378239
0.378264
0.378264
0.378289
0.378313
0.378338
0.378363
0.378363
0.378388
0.378413
0.378438
0.378463
0.378463
0.378488
0.378513
0.378538
0.378563
0.378563
0.378588
0.378613
0.378638
0.378663
0.378663
0.378688
0.378713
0.378739
0.378764
0.378764
0.378789
0.378815
0.37884
0.378865
0.378865
0.378891
0.378916
0.378942
0.378967
0.378967
0.378993
0.379018
0.379044
0.379069
0.379069
0.379095
0.379121
0.379146
0.379172
0.379172
0.379198
0.379224
0.37925
0.379275
0.379275
0.379301
0.379327
0.379353
0.379379
0.379379
0.379405
0.379431
0.379457
0.379483
0.379483
0.379509
0.379535
0.379562
0.379588
0.379588
0.379614
0.37964
0.379667
0.379693
0.379693
0.379719
0.379746
0.379772
0.379798
0.379798
0.379825
0.379851
0.379878
0.379904
0.379904
0.379931
0.379958
0.379984
0.380011
0.380011
0.380038
0.380064
0.380091
0.380118
0.380118
0.380145
0.380172
0.380198
0.380225
0.380225
0.380252
0.380279
0.380306
0.380333
0.380333
0.38036
0.380387
0.380414
0.380442
0.380442
0.380469
0.380496
0.380523
0.38055
0.38055
0.380578
0.380605
0.380632
0.38066
0.38066
0.380687
0.380714
0.380742
0.380769
0.380769
0.380797
0.380824
0.380852
0.38088
0.38088
0.380907
0.380935
0.380963
0.38099
0.38099
0.381018
0.381046
0.381074
0.381101
0.381101
0.381129
0.381157
0.381185
0.381213
0.381213
0.381241
0.381269
0.381297
0.381325
0.381325
0.381353
0.381381
0.381409
0.381438
0.381438
0.381466
0.381494
0.381522
0.381551
0.381551
0.381579
0.381607
0.381636
0.381664
0.381664
0.381692
0.381721
0.381749
0.381778
0.381778
0.381806
0.381835
0.381864
0.381892
0.381892
0.381921
0.38195
0.381978
0.382007
0.382007
0.382036
0.382065
0.382094
0.382122
0.382122
0.382151
0.38218
0.382209
0.382238
0.382238
0.382267
0.382296
0.382325
0.382354
0.382354
0.382384
0.382413
0.382442
0.382471
0.382471
0.3825
0.38253
0.382559
0.382588
0.382588
0.382618
0.382647
0.382677
0.382706
0.382706
0.382735
0.382765
0.382795
0.382824
0.382824
0.382854
0.382883
0.382913
0.382943
0.382943
0.382972
0.383002
0.383032
0.383062
0.383062
0.383091
0.383121
0.383151
0.383181
0.383181
0.383211
0.383241
0.383271
0.383301
0.383301
0.383331
0.383361
0.383391
0.383422
0.383422
0.383452
0.383482
0.383512
0.383542
0.383542
0.383573
0.383603
0.383633
0.383664
0.383664
0.383694
0.383725
0.383755
0.383786
0.383786
0.383816
0.383847
0.383877
0.383908
0.383908
0.383938
0.383969
0.384
0.384031
0.384031
0.384061
0.384092
0.384123
0.384154
0.384154
0.384185
0.384216
0.384246
0.384277
0.384277
0.384308
0.384339
0.38437
0.384402
0.384402
0.384433
0.384464
0.384495
0.384526
0.384526
0.384557
0.384589
0.38462
0.384651
0.384651
0.384683
0.384714
0.384745
0.384777
0.384777
0.384808
0.38484
0.384871
0.384903
0.384903
0.384934
0.384966
0.384998
0.385029
0.385029
0.385061
0.385093
0.385124
0.385156
0.385156
0.385188
0.38522
0.385252
0.385283
0.385283
0.385315
0.385347
0.385379
0.385411
0.385411
0.385443
0.385475
0.385507
0.38554
0.38554
0.385572
0.385604
0.385636
0.385668
0.385668
0.385701
0.385733
0.385765
0.385798
0.385798
0.38583
0.385862
0.385895
0.385927
0.385927
0.38596
0.385992
0.386025
0.386057
0.386057
0.38609
0.386123
0.386155
0.386188
0.386188
0.386221
0.386254
0.386286
0.386319
0.386319
0.386352
0.386385
0.386418
0.386451
0.386451
0.386484
0.386517
0.38655
0.386583
0.386583
0.386616
0.386649
0.386682
0.386715
0.386715
0.386748
0.386782
0.386815
0.386848
0.386848
0.386881
0.386915
0.386948
0.386981
0.386981
0.387015
0.387048
0.387082
0.387115
0.387115
0.387149
0.387182
0.387216
0.38725
0.38725
0.387283
0.387317
0.387351
0.387384
0.387384
0.387418
0.387452
0.387486
0.38752
0.38752
0.387554
0.387587
0.387621
0.387655
0.387655
0.387689
0.387723
0.387757
0.387792
0.387792
0.387826
0.38786
0.387894
0.387928
0.387928
0.387962
0.387997
0.388031
0.388065
0.388065
0.3881
0.388134
0.388168
0.388203
0.388203
0.388237
0.388272
0.388306
0.388341
0.388341
0.388375
0.38841
0.388445
0.388479
0.388479
0.388514
0.388549
0.388584
0.388618
0.388618
0.388653
0.388688
0.388723
0.388758
0.388758
0.388793
0.388828
0.388863
0.388898
0.388898
0.388933
0.388968
0.389003
0.389038
0.389038
0.389073
0.389108
0.389143
0.389179
0.389179
0.389214
0.389249
0.389285
0.38932
0.38932
0.389355
0.389391
0.389426
0.389462
0.389462
0.389497
0.389533
0.389568
0.389604
0.389604
0.389639
0.389675
0.389711
0.389746
0.389746
0.389782
0.389818
0.389854
0.38989
0.38989
0.389925
0.389961
0.389997
0.390033
0.390033
0.390069
0.390105
0.390141
0.390177
0.390177
0.390213
0.390249
0.390286
0.390322
0.390322
0.390358
0.390394
0.39043
0.390467
0.390467
0.390503
0.390539
0.390576
0.390612
0.390612
0.390648
0.390685
0.390721
0.390758
0.390758
0.390794
0.390831
0.390868
0.390904
0.390904
0.390941
0.390978
0.391014
0.391051
0.391051
0.391088
0.391125
0.391161
0.391198
0.391198
0.391235
0.391272
0.391309
0.391346
0.391346
0.391383
0.39142
0.391457
0.391494
0.391494
0.391531
0.391569
0.391606
0.391643
0.391643
0.39168
0.391717
0.391755
0.391792
0.391792
0.391829
0.391867
0.391904
0.391942
0.391942
0.391979
0.392017
0.392054
0.392092
0.392092
0.392129
0.392167
0.392204
0.392242
0.392242
0.39228
0.392318
0.392355
0.392393
0.392393
0.392431
0.392469
0.392507
0.392545
0.392545
0.392582
0.39262
0.392658
0.392696
0.392696
0.392734
0.392772
0.392811
0.392849
0.392849
0.392887
0.392925
0.392963
0.393002
0.393002
0.39304
0.393078
0.393116
0.393155
0.393155
0.393193
0.393232
0.39327
0.393309
0.393309
0.393347
0.393386
0.393424
0.393463
0.393463
0.393501
0.39354
0.393579
0.393617
0.393617
0.393656
0.393695
0.393734
0.393772
0.393772
0.393811
0.39385
0.393889
0.393928
0.393928
0.393967
0.394006
0.394045
0.394084
0.394084
0.394123
0.394162
0.394201
0.394241
0.394241
0.39428
0.394319
0.394358
0.394398
0.394398
0.394437
0.394476
0.394516
0.394555
0.394555
0.394594
0.394634
0.394673
0.394713
0.394713
0.394752
0.394792
0.394832
0.394871
0.394871
0.394911
0.39495
0.39499
0.39503
0.39503
0.39507
0.395109
0.395149
0.395189
0.395189
0.395229
0.395269
0.395309
0.395349
0.395349
0.395389
0.395429
0.395469
0.395509
0.395509
0.395549
0.395589
0.39563
0.39567
0.39567
0.39571
0.39575
0.395791
0.395831
0.395831
0.395871
0.395912
0.395952
0.395992
0.395992
0.396033
0.396073
0.396114
0.396154
0.396154
0.396195
0.396236
0.396276
0.396317
0.396317
0.396358
0.396398
0.396439
0.39648
0.39648
0.396521
0.396561
0.396602
0.396643
0.396643
0.396684
0.396725
0.396766
0.396807
0.396807
0.396848
0.396889
0.39693
0.396971
0.396971
0.397013
0.397054
0.397095
0.397136
0.397136
0.397177
0.397219
0.39726
0.397301
0.397301
0.397343
0.397384
0.397426
0.397467
0.397467
0.397509
0.39755
0.397592
0.397633
0.397633
0.397675
0.397717
0.397758
0.3978
0.3978
0.397842
0.397883
0.397925
0.397967
0.397967
0.398009
0.398051
0.398093
0.398135
0.398135
0.398177
0.398219
0.398261
0.398303
0.398303
0.398345
0.398387
0.398429
0.398471
0.398471
0.398513
0.398555
0.398598
0.39864
0.39864
0.398682
0.398725
0.398767
0.398809
0.398809
0.398852
0.398894
0.398937
0.398979
0.398979
0.399022
0.399064
0.399107
0.39915
0.39915
0.399192
0.399235
0.399278
0.39932
0.39932
0.399363
0.399406
0.399449
0.399492
0.399492
0.399534
0.399577
0.39962
0.399663
0.399663
0.399706
0.399749
0.399792
0.399835
0.399835
0.399878
0.399922
0.399965
0.400008
0.400008
0.400051
0.400094
0.400138
0.400181
0.400181
0.400224
0.400268
0.400311
0.400355
0.400355
0.400398
0.400441
0.400485
0.400529
0.400529
0.400572
0.400616
0.400659
0.400703
0.400703
0.400747
0.40079
0.400834
0.400878
0.400878
0.400922
0.400966
0.401009
0.401053
0.401053
0.401097
0.401141
0.401185
0.401229
0.401229
0.401273
0.401317
0.401361
0.401405
0.401405
0.40145
0.401494
0.401538
0.401582
0.401582
0.401626
0.401671
0.401715
0.401759
0.401759
0.401804
0.401848
0.401893
0.401937
0.401937
0.401981
0.402026
0.402071
0.402115
0.402115
0.40216
0.402204
0.402249
0.402294
0.402294
0.402338
0.402383
0.402428
0.402473
0.402473
0.402518
0.402562
0.402607
0.402652
0.402652
0.402697
0.402742
0.402787
0.402832
0.402832
0.402877
0.402922
0.402967
0.403013
0.403013
0.403058
0.403103
0.403148
0.403193
0.403193
0.403239
0.403284
0.403329
0.403375
0.403375
0.40342
0.403466
0.403511
0.403557
0.403557
0.403602
0.403648
0.403693
0.403739
0.403739
0.403784
0.40383
0.403876
0.403922
0.403922
0.403967
0.404013
0.404059
0.404105
0.404105
0.404151
0.404197
0.404242
0.404288
0.404288
0.404334
0.40438
0.404426
0.404472
0.404472
0.404519
0.404565
0.404611
0.404657
0.404657
0.404703
0.404749
0.404796
0.404842
0.404842
0.404888
0.404935
0.404981
0.405028
0.405028
0.405074
0.40512
0.405167
0.405213
0.405213
0.40526
0.405307
0.405353
0.4054
0.4054
0.405446
0.405493
0.40554
0.405587
0.405587
0.405633
0.40568
0.405727
0.405774
0.405774
0.405821
0.405868
0.405915
0.405962
0.405962
0.406009
0.406056
0.406103
0.40615
0.40615
0.406197
0.406244
0.406291
0.406339
0.406339
0.406386
0.406433
0.40648
0.406528
0.406528
0.406575
0.406623
0.40667
0.406717
0.406717
0.406765
0.406812
0.40686
0.406907
0.406907
0.406955
0.407003
0.40705
0.407098
0.407098
0.407146
0.407193
0.407241
0.407289
0.407289
0.407337
0.407385
0.407432
0.40748
0.40748
0.407528
0.407576
0.407624
0.407672
0.407672
0.40772
0.407768
0.407816
0.407865
0.407865
0.407913
0.407961
0.408009
0.408057
0.408057
0.408106
0.408154
0.408202
0.408251
0.408251
0.408299
0.408348
0.408396
0.408444
0.408444
0.408493
0.408541
0.40859
0.408639
0.408639
0.408687
0.408736
0.408785
0.408833
0.408833
0.408882
0.408931
0.40898
0.409028
0.409028
0.409077
0.409126
0.409175
0.409224
0.409224
0.409273
0.409322
0.409371
0.40942
0.40942
0.409469
0.409518
0.409567
0.409616
0.409616
0.409666
0.409715
0.409764
0.409813
0.409813
0.409863
0.409912
0.409961
0.410011
0.410011
0.41006
0.41011
0.410159
0.410209
0.410209
0.410258
0.410308
0.410357
0.410407
0.410407
0.410457
0.410506
0.410556
0.410606
0.410606
0.410655
0.410705
0.410755
0.410805
0.410805
0.410855
0.410905
0.410955
0.411005
0.411005
0.411055
0.411105
0.411155
0.411205
0.411205
0.411255
0.411305
0.411355
0.411405
0.411405
0.411456
0.411506
0.411556
0.411606
0.411606
0.411657
0.411707
0.411757
0.411808
0.411808
0.411858
0.411909
0.411959
0.41201
0.41201
0.41206
0.412111
0.412162
0.412212
0.412212
0.412263
0.412314
0.412364
0.412415
0.412415
0.412466
0.412517
0.412568
0.412619
0.412619
0.412669
0.41272
0.412771
0.412822
0.412822
0.412873
0.412924
0.412976
0.413027
0.413027
0.413078
0.413129
0.41318
0.413231
0.413231
0.413283
0.413334
0.413385
0.413437
0.413437
0.413488
0.413539
0.413591
0.413642
0.413642
0.413694
0.413745
0.413797
0.413848
0.413848
0.4139
0.413952
0.414003
0.414055
0.414055
0.414107
0.414158
0.41421
0.414262
0.414262
0.414314
0.414366
0.414417
0.414469
0.414469
0.414521
0.414573
0.414625
0.414677
0.414677
0.414729
0.414781
0.414834
0.414886
0.414886
0.414938
0.41499
0.415042
0.415095
0.415095
0.415147
0.415199
0.415251
0.415304
0.415304
0.415356
0.415409
0.415461
0.415514
0.415514
0.415566
0.415619
0.415671
0.415724
0.415724
0.415776
0.415829
0.415882
0.415935
0.415935
0.415987
0.41604
0.416093
0.416146
0.416146
0.416198
0.416251
0.416304
0.416357
0.416357
0.41641
0.416463
0.416516
0.416569
0.416569
0.416622
0.416675
0.416729
0.416782
0.416782
0.416835
0.416888
0.416941
0.416995
0.416995
0.417048
0.417101
0.417155
0.417208
0.417208
0.417262
0.417315
0.417369
0.417422
0.417422
0.417476
0.417529
0.417583
0.417636
0.417636
0.41769
0.417744
0.417797
0.417851
0.417851
0.417905
0.417959
0.418013
0.418066
0.418066
0.41812
0.418174
0.418228
0.418282
0.418282
0.418336
0.41839
0.418444
0.418498
0.418498
0.418552
0.418607
0.418661
0.418715
0.418715
0.418769
0.418823
0.418878
0.418932
0.418932
0.418986
0.419041
0.419095
0.41915
0.41915
0.419204
0.419259
0.419313
0.419368
0.419368
0.419422
0.419477
0.419531
0.419586
0.419586
0.419641
0.419695
0.41975
0.419805
0.419805
0.41986
0.419915
0.41997
0.420024
0.420024
0.420079
0.420134
0.420189
0.420244
0.420244
0.420299
0.420354
0.420409
0.420465
0.420465
0.42052
0.420575
0.42063
0.420685
0.420685
0.420741
0.420796
0.420851
0.420906
0.420906
0.420962
0.421017
0.421073
0.421128
0.421128
0.421184
0.421239
0.421295
0.42135
0.42135
0.421406
0.421461
0.421517
0.421573
0.421573
0.421629
0.421684
0.42174
0.421796
0.421796
0.421852
0.421908
0.421963
0.422019
0.422019
0.422075
0.422131
0.422187
0.422243
0.422243
0.422299
0.422355
0.422412
0.422468
0.422468
0.422524
0.42258
0.422636
0.422693
0.422693
0.422749
0.422805
0.422862
0.422918
0.422918
0.422974
0.423031
0.423087
0.423144
0.423144
0.4232
0.423257
0.423313
0.42337
0.42337
0.423427
0.423483
0.42354
0.423597
0.423597
0.423653
0.42371
0.423767
0.423824
0.423824
0.423881
0.423938
0.423994
0.424051
0.424051
0.424108
0.424165
0.424222
0.42428
0.42428
0.424337
0.424394
0.424451
0.424508
0.424508
0.424565
0.424622
0.42468
0.424737
0.424737
0.424794
0.424852
0.424909
0.424966
0.424966
0.425024
0.425081
0.425139
0.425196
0.425196
0.425254
0.425312
0.425369
0.425427
0.425427
0.425484
0.425542
0.4256
0.425658
0.425658
0.425715
0.425773
0.425831
0.425889
0.425889
0.425947
0.426005
0.426063
0.426121
0.426121
0.426179
0.426237
0.426295
0.426353
0.426353
0.426411
0.426469
0.426527
0.426585
0.426585
0.426644
0.426702
0.42676
0.426819
0.426819
0.426877
0.426935
0.426994
0.427052
0.427052
0.427111
0.427169
0.427228
0.427286
0.427286
0.427345
0.427403
0.427462
0.427521
0.427521
0.427579
0.427638
0.427697
0.427756
0.427756
0.427814
0.427873
0.427932
0.427991
0.427991
0.42805
0.428109
0.428168
0.428227
0.428227
0.428286
0.428345
0.428404
0.428463
0.428463
0.428522
0.428581
0.428641
0.4287
0.4287
0.428759
0.428818
0.428878
0.428937
0.428937
0.428996
0.429056
0.429115
0.429175
0.429175
0.429234
0.429294
0.429353
0.429413
0.429413
0.429473
0.429532
0.429592
0.429652
0.429652
0.429711
0.429771
0.429831
0.429891
0.429891
0.42995
0.43001
0.43007
0.43013
0.43013
0.43019
0.43025
0.43031
0.43037
0.43037
0.43043
0.43049
0.43055
0.43061
0.43061
0.430671
0.430731
0.430791
0.430851
0.430851
0.430912
0.430972
0.431032
0.431093
0.431093
0.431153
0.431214
0.431274
0.431335
0.431335
0.431395
0.431456
0.431516
0.431577
0.431577
0.431637
0.431698
0.431759
0.43182
0.43182
0.43188
0.431941
0.432002
0.432063
0.432063
0.432124
0.432184
0.432245
0.432306
0.432306
0.432367
0.432428
0.432489
0.43255
0.43255
0.432612
0.432673
0.432734
0.432795
0.432795
0.432856
0.432917
0.432979
0.43304
0.43304
0.433101
0.433163
0.433224
0.433285
0.433285
0.433347
0.433408
0.43347
0.433531
0.433531
0.433593
0.433655
0.433716
0.433778
0.433778
0.433839
0.433901
0.433963
0.434025
0.434025
0.434086
0.434148
0.43421
0.434272
0.434272
0.434334
0.434396
0.434458
0.43452
0.43452
0.434582
0.434644
0.434706
0.434768
0.434768
0.43483
0.434892
0.434954
0.435017
0.435017
0.435079
0.435141
0.435203
0.435266
0.435266
0.435328
0.43539
0.435453
0.435515
0.435515
0.435578
0.43564
0.435703
0.435765
0.435765
0.435828
0.435891
0.435953
0.436016
0.436016
0.436079
0.436141
0.436204
0.436267
0.436267
0.43633
0.436392
0.436455
0.436518
0.436518
0.436581
0.436644
0.436707
0.43677
0.43677
0.436833
0.436896
0.436959
0.437022
0.437022
0.437086
0.437149
0.437212
0.437275
0.437275
0.437339
0.437402
0.437465
0.437529
0.437529
0.437592
0.437655
0.437719
0.437782
0.437782
0.437846
0.437909
0.437973
0.438036
0.438036
0.4381
0.438164
0.438227
0.438291
0.438291
0.438355
0.438419
0.438482
0.438546
0.438546
0.43861
0.438674
0.438738
0.438802
0.438802
0.438866
0.43893
0.438994
0.439058
0.439058
0.439122
0.439186
0.43925
0.439314
0.439314
0.439378
0.439443
0.439507
0.439571
0.439571
0.439635
0.4397
0.439764
0.439829
0.439829
0.439893
0.439957
0.440022
0.440086
0.440086
0.440151
0.440215
0.44028
0.440345
0.440345
0.440409
0.440474
0.440539
0.440603
0.440603
0.440668
0.440733
0.440798
0.440863
0.440863
0.440928
0.440992
0.441057
0.441122
0.441122
0.441187
0.441252
0.441317
0.441382
0.441382
0.441448
0.441513
0.441578
0.441643
0.441643
0.441708
0.441774
0.441839
0.441904
0.441904
0.441969
0.442035
0.4421
0.442166
0.442166
0.442231
0.442297
0.442362
0.442428
0.442428
0.442493
0.442559
0.442624
0.44269
0.44269
0.442756
0.442821
0.442887
0.442953
0.442953
0.443019
0.443085
0.44315
0.443216
0.443216
0.443282
0.443348
0.443414
0.44348
0.44348
0.443546
0.443612
0.443678
0.443744
0.443744
0.443811
0.443877
0.443943
0.444009
0.444009
0.444075
0.444142
0.444208
0.444274
0.444274
0.444341
0.444407
0.444474
0.44454
0.44454
0.444606
0.444673
0.44474
0.444806
0.444806
0.444873
0.444939
0.445006
0.445073
0.445073
0.445139
0.445206
0.445273
0.44534
0.44534
0.445407
0.445473
0.44554
0.445607
0.445607
0.445674
0.445741
0.445808
0.445875
0.445875
0.445942
0.446009
0.446076
0.446144
0.446144
0.446211
0.446278
0.446345
0.446412
0.446412
0.44648
0.446547
0.446614
0.446682
0.446682
0.446749
0.446817
0.446884
0.446952
0.446952
0.447019
0.447087
0.447154
0.447222
0.447222
0.447289
0.447357
0.447425
0.447493
0.447493
0.44756
0.447628
0.447696
0.447764
0.447764
0.447832
0.447899
0.447967
0.448035
0.448035
0.448103
0.448171
0.448239
0.448307
0.448307
0.448375
0.448444
0.448512
0.44858
0.44858
0.448648
0.448716
0.448785
0.448853
0.448853
0.448921
0.44899
0.449058
0.449126
0.449126
0.449195
0.449263
0.449332
0.4494
0.4494
0.449469
0.449538
0.449606
0.449675
0.449675
0.449743
0.449812
0.449881
0.44995
0.44995
0.450018
0.450087
0.450156
0.450225
0.450225
0.450294
0.450363
0.450432
0.450501
0.450501
0.45057
0.450639
0.450708
0.450777
0.450777
0.450846
0.450915
0.450984
0.451054
0.451054
0.451123
0.451192
0.451261
0.451331
0.451331
0.4514
0.45147
0.451539
0.451608
0.451608
0.451678
0.451747
0.451817
0.451887
0.451887
0.451956
0.452026
0.452095
0.452165
0.452165
0.452235
0.452304
0.452374
0.452444
0.452444
0.452514
0.452584
0.452654
0.452724
0.452724
0.452793
0.452863
0.452933
0.453003
0.453003
0.453073
0.453144
0.453214
0.453284
0.453284
0.453354
0.453424
0.453494
0.453565
0.453565
0.453635
0.453705
0.453776
0.453846
0.453846
0.453916
0.453987
0.454057
0.454128
0.454128
0.454198
0.454269
0.454339
0.45441
0.45441
0.454481
0.454551
0.454622
0.454693
0.454693
0.454763
0.454834
0.454905
0.454976
0.454976
0.455047
0.455118
0.455189
0.455259
0.455259
0.45533
0.455401
0.455472
0.455544
0.455544
0.455615
0.455686
0.455757
0.455828
0.455828
0.455899
0.455971
0.456042
0.456113
0.456113
0.456184
0.456256
0.456327
0.456399
0.456399
0.45647
0.456541
0.456613
0.456684
0.456684
0.456756
0.456828
0.456899
0.456971
0.456971
0.457043
0.457114
0.457186
0.457258
0.457258
0.45733
0.457401
0.457473
0.457545
0.457545
0.457617
0.457689
0.457761
0.457833
0.457833
0.457905
0.457977
0.458049
0.458121
0.458121
0.458193
0.458265
0.458338
0.45841
0.45841
0.458482
0.458554
0.458627
0.458699
0.458699
0.458771
0.458844
0.458916
0.458989
0.458989
0.459061
0.459134
0.459206
0.459279
0.459279
0.459351
0.459424
0.459497
0.459569
0.459569
0.459642
0.459715
0.459787
0.45986
0.45986
0.459933
0.460006
0.460079
0.460152
0.460152
0.460225
0.460298
0.460371
0.460444
0.460444
0.460517
0.46059
0.460663
0.460736
0.460736
0.460809
0.460882
0.460956
0.461029
0.461029
0.461102
0.461176
0.461249
0.461322
0.461322
0.461396
0.461469
0.461543
0.461616
0.461616
0.46169
0.461763
0.461837
0.46191
0.46191
0.461984
0.462058
0.462131
0.462205
0.462205
0.462279
0.462353
0.462426
0.4625
0.4625
0.462574
0.462648
0.462722
0.462796
0.462796
0.46287
0.462944
0.463018
0.463092
0.463092
0.463166
0.46324
0.463314
0.463389
0.463389
0.463463
0.463537
0.463611
0.463686
0.463686
0.46376
0.463834
0.463909
0.463983
0.463983
0.464058
0.464132
0.464207
0.464281
0.464281
0.464356
0.46443
0.464505
0.46458
0.46458
0.464654
0.464729
0.464804
0.464879
0.464879
0.464953
0.465028
0.465103
0.465178
0.465178
0.465253
0.465328
0.465403
0.465478
0.465478
0.465553
0.465628
0.465703
0.465778
0.465778
0.465853
0.465928
0.466004
0.466079
0.466079
0.466154
0.466229
0.466305
0.46638
0.46638
0.466456
0.466531
0.466606
0.466682
0.466682
0.466757
0.466833
0.466908
0.466984
0.466984
0.46706
0.467135
0.467211
0.467287
0.467287
0.467362
0.467438
0.467514
0.46759
0.46759
0.467666
0.467741
0.467817
0.467893
0.467893
0.467969
0.468045
0.468121
0.468197
0.468197
0.468273
0.46835
0.468426
0.468502
0.468502
0.468578
0.468654
0.468731
0.468807
0.468807
0.468883
0.468959
0.469036
0.469112
0.469112
0.469189
0.469265
0.469342
0.469418
0.469418
0.469495
0.469571
0.469648
0.469725
0.469725
0.469801
0.469878
0.469955
0.470031
0.470031
0.470108
0.470185
0.470262
0.470339
0.470339
0.470416
0.470492
0.470569
0.470646
0.470646
0.470723
0.4708
0.470878
0.470955
0.470955
0.471032
0.471109
0.471186
0.471263
0.471263
0.471341
0.471418
0.471495
0.471573
0.471573
0.47165
0.471727
0.471805
0.471882
0.471882