<?xml version="1.0"?>
<VTKFile type="UnstructuredGrid" version="0.1" byte_order="LittleEndian">
<UnstructuredGrid>
<Piece NumberOfPoints="5000" NumberOfCells="4000">
<PointData Scalars="Reaction 0">
<DataArray type="Float32" Name="Reaction 0" format="ascii">
0.571254
0.571254
0.571254
0.571254
0.571254
0.571254
0.571254
0.571254
0.571254
0.571254
0.571254
0.571254
0.571254
0.571254
0.571254
0.571254
0.571254
0.571254
0.571254
0.571254
0.571254
0.571254
0.571254
0.571254
0.571254
0.571254
0.571254
0.571254
0.571255
0.571255
0.571255
0.571255
0.571255
0.571255
0.571255
0.571255
0.571255
0.571255
0.571255
0.571255
0.571255
0.571255
0.571255
0.571255
0.571255
0.571255
0.571256
0.571256
0.571256
0.571256
0.571256
0.571256
0.571256
0.571256
0.571256
0.571256
0.571256
0.571256
0.571257
0.571257
0.571257
0.571257
0.571257
0.571257
0.571257
0.571257
0.571257
0.571257
0.571258
0.571258
0.571258
0.571258
0.571258
0.571258
0.571258
0.571258
0.571258
0.571259
0.571259
0.571259
0.571259
0.571259
0.571259
0.571259
0.57126
0.57126
0.57126
0.57126
0.57126
0.57126
0.57126
0.57126
0.571261
0.571261
0.571261
0.571261
0.571261
0.571261
0.571262
0.571262
0.571262
0.571262
0.571262
0.571262
0.571263
0.571263
0.571263
0.571263
0.571263
0.571263
0.571263
0.571264
0.571264
0.571264
0.571264
0.571264
0.571264
0.571265
0.571265
0.571265
0.571265
0.571265
0.571266
0.571266
0.571266
0.571266
0.571266
0.571267
0.571267
0.571267
0.571267
0.571267
0.571268
0.571268
0.571268
0.571268
0.571268
0.571269
0.571269
0.571269
0.571269
0.57127
0.57127
0.57127
0.57127
0.57127
0.571271
0.571271
0.571271
0.571272
0.571272
0.571272
0.571272
0.571272
0.571273
0.571273
0.571273
0.571273
0.571274
0.571274
0.571274
0.571274
0.571275
0.571275
0.571275
0.571275
0.571276
0.571276
0.571276
0.571277
0.571277
0.571277
0.571277
0.571278
0.571278
0.571278
0.571278
0.571279
0.571279
0.571279
0.571279
0.57128
0.57128
0.57128
0.571281
0.571281
0.571281
0.571282
0.571282
0.571282
0.571282
0.571283
0.571283
0.571283
0.571284
0.571284
0.571284
0.571285
0.571285
0.571285
0.571285
0.571286
0.571286
0.571287
0.571287
0.571287
0.571287
0.571288
0.571288
0.571289
0.571289
0.571289
0.571289
0.57129
0.57129
0.57129
0.571291
0.571291
0.571291
0.571292
0.571292
0.571292
0.571293
0.571293
0.571294
0.571294
0.571294
0.571295
0.571295
0.571296
0.571296
0.571296
0.571296
0.571297
0.571297
0.571297
0.571298
0.571298
0.571299
0.571299
0.571299
0.5713
0.5713
0.571301
0.571301
0.571301
0.571302
0.571302
0.571303
0.571303
0.571303
0.571304
0.571304
0.571305
0.571305
0.571305
0.571306
0.571306
0.571307
0.571307
0.571307
0.571308
0.571308
0.571309
0.571309
0.571309
0.57131
0.57131
0.571311
0.571311
0.571311
0.571312
0.571312
0.571313
0.571313
0.571313
0.571314
0.571315
0.571315
0.571316
0.571316
0.571316
0.571317
0.571317
0.571318
0.571318
0.571318
0.571319
0.57132
0.57132
0.57132
0.571321
0.571321
0.571322
0.571323
0.571323
0.571323
0.571324
0.571324
0.571325
0.571325
0.571325
0.571326
0.571327
0.571327
0.571327
0.571328
0.571328
0.571329
0.57133
0.57133
0.57133
0.571331
0.571332
0.571332
0.571332
0.571333
0.571333
0.571334
0.571335
0.571335
0.571335
0.571336
0.571337
0.571337
0.571337
0.571338
0.571339
0.571339
0.57134
0.57134
0.571341
0.571341
0.571342
0.571343
0.571343
0.571343
0.571344
0.571345
0.571345
0.571345
0.571346
0.571347
0.571347
0.571348
0.571348
0.571349
0.571349
0.57135
0.571351
0.571351
0.571351
0.571352
0.571353
0.571353
0.571353
0.571354
0.571355
0.571356
0.571356
0.571356
0.571357
0.571358
0.571358
0.571359
0.571359
0.57136
0.571361
0.571361
0.571362
0.571362
0.571363
0.571364
0.571364
0.571365
0.571365
0.571366
0.571367
0.571367
0.571368
0.571368
0.571369
0.57137
0.57137
0.571371
0.571371
0.571372
0.571373
0.571373
0.571374
0.571374
0.571375
0.571376
0.571377
0.571377
0.571377
0.571378
0.571379
0.57138
0.57138
0.57138
0.571381
0.571382
0.571383
0.571384
0.571384
0.571385
0.571385
0.571386
0.571387
0.571387
0.571388
0.571389
0.571389
0.57139
0.57139
0.571391
0.571392
0.571393
0.571394
0.571394
0.571394
0.571395
0.571396
0.571397
0.571397
0.571398
0.571399
0.5714
0.5714
0.5714
0.571401
0.571402
0.571403
0.571404
0.571404
0.571405
0.571406
0.571407
0.571407
0.571407
0.571408
0.571409
0.57141
0.571411
0.571411
0.571412
0.571413
0.571414
0.571415
0.571415
0.571415
0.571416
0.571417
0.571418
0.571418
0.571419
0.57142
0.571421
0.571422
0.571422
0.571423
0.571424
0.571425
0.571426
0.571426
0.571426
0.571427
0.571428
0.571429
0.571429
0.57143
0.571431
0.571432
0.571433
0.571433
0.571434
0.571435
0.571436
0.571437
0.571437
0.571438
0.571439
0.57144
0.571441
0.571441
0.571442
0.571443
0.571444
0.571445
0.571445
0.571446
0.571447
0.571448
0.571449
0.571449
0.57145
0.571451
0.571452
0.571453
0.571453
0.571454
0.571455
0.571456
0.571457
0.571457
0.571458
0.571459
0.57146
0.571461
0.571461
0.571462
0.571463
0.571464
0.571465
0.571465
0.571466
0.571467
0.571468
0.571469
0.571469
0.57147
0.571471
0.571472
0.571473
0.571473
0.571474
0.571475
0.571476
0.571478
0.571478
0.571479
0.57148
0.571481
0.571482
0.571482
0.571483
0.571484
0.571485
0.571486
0.571486
0.571487
0.571488
0.571489
0.571491
0.571491
0.571492
0.571493
0.571494
0.571495
0.571495
0.571496
0.571497
0.571498
0.5715
0.5715
0.571501
0.571502
0.571503
0.571504
0.571504
0.571505
0.571506
0.571507
0.571509
0.571509
0.57151
0.571511
0.571512
0.571513
0.571513
0.571514
0.571516
0.571517
0.571518
0.571518
0.571519
0.57152
0.571521
0.571523
0.571523
0.571524
0.571525
0.571526
0.571527
0.571527
0.571528
0.57153
0.571531
0.571532
0.571532
0.571533
0.571534
0.571536
0.571537
0.571537
0.571538
0.571539
0.57154
0.571542
0.571542
0.571543
0.571544
0.571545
0.571547
0.571547
0.571548
0.571549
0.57155
0.571552
0.571552
0.571553
0.571554
0.571555
0.571557
0.571557
0.571558
0.571559
0.57156
0.571562
0.571562
0.571563
0.571564
0.571565
0.571567
0.571567
0.571568
0.571569
0.57157
0.571572
0.571572
0.571573
0.571574
0.571576
0.571577
0.571577
0.571578
0.571579
0.571581
0.571582
0.571582
0.571583
0.571585
0.571586
0.571587
0.571587
0.571589
0.57159
0.571591
0.571593
0.571593
0.571594
0.571595
0.571597
0.571598
0.571598
0.571599
0.571601
0.571602
0.571603
0.571603
0.571605
0.571606
0.571608
0.571609
0.571609
0.57161
0.571612
0.571613
0.571614
0.571614
0.571616
0.571617
0.571618
0.57162
0.57162
0.571621
0.571623
0.571624
0.571625
0.571625
0.571627
0.571628
0.57163
0.571631
0.571631
0.571632
0.571634
0.571635
0.571637
0.571637
0.571638
0.57164
0.571641
0.571642
0.571642
0.571644
0.571645
0.571647
0.571648
0.571648
0.57165
0.571651
0.571652
0.571654
0.571654
0.571655
0.571657
0.571658
0.57166
0.57166
0.571661
0.571663
0.571664
0.571666
0.571666
0.571667
0.571669
0.57167
0.571671
0.571671
0.571673
0.571674
0.571676
0.571677
0.571677
0.571679
0.57168
0.571682
0.571683
0.571683
0.571685
0.571687
0.571688
0.57169
0.57169
0.571691
0.571693
0.571694
0.571696
0.571696
0.571697
0.571699
0.5717
0.571702
0.571702
0.571703
0.571705
0.571707
0.571708
0.571708
0.57171
0.571711
0.571713
0.571714
0.571714
0.571716
0.571717
0.571719
0.571721
0.571721
0.571722
0.571724
0.571725
0.571727
0.571727
0.571729
0.57173
0.571732
0.571733
0.571733
0.571735
0.571737
0.571738
0.57174
0.57174
0.571741
0.571743
0.571745
0.571746
0.571746
0.571748
0.571749
0.571751
0.571753
0.571753
0.571754
0.571756
0.571758
0.571759
0.571759
0.571761
0.571763
0.571764
0.571766
0.571766
0.571768
0.571769
0.571771
0.571773
0.571773
0.571774
0.571776
0.571778
0.571779
0.571779
0.571781
0.571783
0.571784
0.571786
0.571786
0.571788
0.571789
0.571791
0.571793
0.571793
0.571795
0.571796
0.571798
0.5718
0.5718
0.571801
0.571803
0.571805
0.571807
0.571807
0.571808
0.57181
0.571812
0.571814
0.571814
0.571815
0.571817
0.571819
0.571821
0.571821
0.571822
0.571824
0.571826
0.571828
0.571828
0.571829
0.571831
0.571833
0.571835
0.571835
0.571837
0.571838
0.57184
0.571842
0.571842
0.571844
0.571845
0.571847
0.571849
0.571849
0.571851
0.571853
0.571854
0.571856
0.571856
0.571858
0.57186
0.571862
0.571864
0.571864
0.571865
0.571867
0.571869
0.571871
0.571871
0.571873
0.571875
0.571876
0.571878
0.571878
0.57188
0.571882
0.571884
0.571886
0.571886
0.571888
0.571889
0.571891
0.571893
0.571893
0.571895
0.571897
0.571899
0.571901
0.571901
0.571903
0.571904
0.571906
0.571908
0.571908
0.57191
0.571912
0.571914
0.571916
0.571916
0.571918
0.57192
0.571922
0.571924
0.571924
0.571926
0.571927
0.571929
0.571931
0.571931
0.571933
0.571935
0.571937
0.571939
0.571939
0.571941
0.571943
0.571945
0.571947
0.571947
0.571949
0.571951
0.571953
0.571955
0.571955
0.571957
0.571959
0.571961
0.571963
0.571963
0.571965
0.571967
0.571969
0.571971
0.571971
0.571973
0.571975
0.571977
0.571979
0.571979
0.571981
0.571983
0.571985
0.571987
0.571987
0.571989
0.571991
0.571993
0.571995
0.571995
0.571997
0.571999
0.572001
0.572003
0.572003
0.572005
0.572007
0.572009
0.572011
0.572011
0.572013
0.572015
0.572018
0.57202
0.57202
0.572022
0.572024
0.572026
0.572028
0.572028
0.57203
0.572032
0.572034
0.572036
0.572036
0.572038
0.572041
0.572043
0.572045
0.572045
0.572047
0.572049
0.572051
0.572053
0.572053
0.572055
0.572057
0.57206
0.572062
0.572062
0.572064
0.572066
0.572068
0.57207
0.57207
0.572072
0.572075
0.572077
0.572079
0.572079
0.572081
0.572083
0.572085
0.572088
0.572088
0.57209
0.572092
0.572094
0.572096
0.572096
0.572098
0.572101
0.572103
0.572105
0.572105
0.572107
0.57211
0.572112
0.572114
0.572114
0.572116
0.572118
0.572121
0.572123
0.572123
0.572125
0.572127
0.57213
0.572132
0.572132
0.572134
0.572136
0.572139
0.572141
0.572141
0.572143
0.572145
0.572148
0.57215
0.57215
0.572152
0.572154
0.572157
0.572159
0.572159
0.572161
0.572164
0.572166
0.572168
0.572168
0.57217
0.572173
0.572175
0.572177
0.572177
0.57218
0.572182
0.572184
0.572187
0.572187
0.572189
0.572191
0.572194
0.572196
0.572196
0.572198
0.572201
0.572203
0.572205
0.572205
0.572208
0.57221
0.572212
0.572215
0.572215
0.572217
0.572219
0.572222
0.572224
0.572224
0.572227
0.572229
0.572231
0.572234
0.572234
0.572236
0.572239
0.572241
0.572243
0.572243
0.572246
0.572248
0.572251
0.572253
0.572253
0.572255
0.572258
0.57226
0.572263
0.572263
0.572265
0.572268
0.57227
0.572272
0.572272
0.572275
0.572277
0.57228
0.572282
0.572282
0.572285
0.572287
0.57229
0.572292
0.572292
0.572295
0.572297
0.572299
0.572302
0.572302
0.572304
0.572307
0.572309
0.572312
0.572312
0.572314
0.572317
0.572319
0.572322
0.572322
0.572324
0.572327
0.572329
0.572332
0.572332
0.572335
0.572337
0.57234
0.572342
0.572342
0.572345
0.572347
0.57235
0.572352
0.572352
0.572355
0.572358
0.57236
0.572363
0.572363
0.572365
0.572368
0.57237
0.572373
0.572373
0.572376
0.572378
0.572381
0.572383
0.572383
0.572386
0.572389
0.572391
0.572394
0.572394
0.572396
0.572399
0.572402
0.572404
0.572404
0.572407
0.572409
0.572412
0.572415
0.572415
0.572417
0.57242
0.572423
0.572425
0.572425
0.572428
0.572431
0.572433
0.572436
0.572436
0.572439
0.572441
0.572444
0.572447
0.572447
0.572449
0.572452
0.572455
0.572457
0.572457
0.57246
0.572463
0.572466
0.572468
0.572468
0.572471
0.572474
0.572476
0.572479
0.572479
0.572482
0.572485
0.572487
0.57249
0.57249
0.572493
0.572496
0.572498
0.572501
0.572501
0.572504
0.572507
0.572509
0.572512
0.572512
0.572515
0.572518
0.57252
0.572523
0.572523
0.572526
0.572529
0.572532
0.572534
0.572534
0.572537
0.57254
0.572543
0.572546
0.572546
0.572548
0.572551
0.572554
0.572557
0.572557
0.57256
0.572563
0.572565
0.572568
0.572568
0.572571
0.572574
0.572577
0.57258
0.57258
0.572583
0.572585
0.572588
0.572591
0.572591
0.572594
0.572597
0.5726
0.572603
0.572603
0.572606
0.572608
0.572611
0.572614
0.572614
0.572617
0.57262
0.572623
0.572626
0.572626
0.572629
0.572632
0.572635
0.572638
0.572638
0.572641
0.572643
0.572646
0.572649
0.572649
0.572652
0.572655
0.572658
0.572661
0.572661
0.572664
0.572667
0.57267
0.572673
0.572673
0.572676
0.572679
0.572682
0.572685
0.572685
0.572688
0.572691
0.572694
0.572697
0.572697
0.5727
0.572703
0.572706
0.572709
0.572709
0.572712
0.572715
0.572718
0.572721
0.572721
0.572724
0.572727
0.57273
0.572733
0.572733
0.572737
0.57274
0.572743
0.572746
0.572746
0.572749
0.572752
0.572755
0.572758
0.572758
0.572761
0.572764
0.572767
0.57277
0.57277
0.572774
0.572777
0.57278
0.572783
0.572783
0.572786
0.572789
0.572792
0.572795
0.572795
0.572799
0.572802
0.572805
0.572808
0.572808
0.572811
0.572814
0.572817
0.572821
0.572821
0.572824
0.572827
0.57283
0.572833
0.572833
0.572837
0.57284
0.572843
0.572846
0.572846
0.572849
0.572853
0.572856
0.572859
0.572859
0.572862
0.572865
0.572869
0.572872
0.572872
0.572875
0.572878
0.572882
0.572885
0.572885
0.572888
0.572891
0.572895
0.572898
0.572898
0.572901
0.572904
0.572908
0.572911
0.572911
0.572914
0.572917
0.572921
0.572924
0.572924
0.572927
0.572931
0.572934
0.572937
0.572937
0.572941
0.572944
0.572947
0.572951
0.572951
0.572954
0.572957
0.572961
0.572964
0.572964
0.572967
0.572971
0.572974
0.572977
0.572977
0.572981
0.572984
0.572987
0.572991
0.572991
0.572994
0.572998
0.573001
0.573004
0.573004
0.573008
0.573011
0.573015
0.573018
0.573018
0.573021
0.573025
0.573028
0.573032
0.573032
0.573035
0.573039
0.573042
0.573045
0.573045
0.573049
0.573052
0.573056
0.573059
0.573059
0.573063
0.573066
0.57307
0.573073
0.573073
0.573077
0.57308
0.573084
0.573087
0.573087
0.573091
0.573094
0.573098
0.573101
0.573101
0.573105
0.573108
0.573112
0.573115
0.573115
0.573119
0.573122
0.573126
0.573129
0.573129
0.573133
0.573136
0.57314
0.573144
0.573144
0.573147
0.573151
0.573154
0.573158
0.573158
0.573162
0.573165
0.573169
0.573172
0.573172
0.573176
0.57318
0.573183
0.573187
0.573187
0.57319
0.573194
0.573198
0.573201
0.573201
0.573205
0.573209
0.573212
0.573216
0.573216
0.57322
0.573223
0.573227
0.573231
0.573231
0.573234
0.573238
0.573242
0.573245
0.573245
0.573249
0.573253
0.573256
0.57326
0.57326
0.573264
0.573267
0.573271
0.573275
0.573275
0.573279
0.573282
0.573286
0.57329
0.57329
0.573294
0.573297
0.573301
0.573305
0.573305
0.573309
0.573312
0.573316
0.57332
0.57332
0.573324
0.573328
0.573331
0.573335
0.573335
0.573339
0.573343
0.573347
0.57335
0.57335
0.573354
0.573358
0.573362
0.573366
0.573366
0.573369
0.573373
0.573377
0.573381
0.573381
0.573385
0.573389
0.573392
0.573396
0.573396
0.5734
0.573404
0.573408
0.573412
0.573412
0.573416
0.57342
0.573424
0.573428
0.573428
0.573431
0.573435
0.573439
0.573443
0.573443
0.573447
0.573451
0.573455
0.573459
0.573459
0.573463
0.573467
0.573471
0.573475
0.573475
0.573479
0.573483
0.573487
0.573491
0.573491
0.573495
0.573499
0.573503
0.573507
0.573507
0.573511
0.573515
0.573519
0.573523
0.573523
0.573527
0.573531
0.573535
0.573539
0.573539
0.573543
0.573547
0.573551
0.573555
0.573555
0.573559
0.573563
0.573567
0.573571
0.573571
0.573575
0.573579
0.573583
0.573588
0.573588
0.573592
0.573596
0.5736
0.573604
0.573604
0.573608
0.573612
0.573616
0.57362
0.57362
0.573625
0.573629
0.573633
0.573637
0.573637
0.573641
0.573645
0.57365
0.573654
0.573654
0.573658
0.573662
0.573666
0.57367
0.57367
0.573675
0.573679
0.573683
0.573687
0.573687
0.573691
0.573696
0.5737
0.573704
0.573704
0.573708
0.573713
0.573717
0.573721
0.573721
0.573725
0.57373
0.573734
0.573738
0.573738
0.573742
0.573747
0.573751
0.573755
0.573755
0.57376
0.573764
0.573768
0.573772
0.573772
0.573777
0.573781
0.573785
0.57379
0.57379
0.573794
0.573798
0.573803
0.573807
0.573807
0.573812
0.573816
0.57382
0.573825
0.573825
0.573829
0.573833
0.573838
0.573842
0.573842
0.573847
0.573851
0.573855
0.57386
0.57386
0.573864
0.573869
0.573873
0.573877
0.573877
0.573882
0.573886
0.573891
0.573895
0.573895
0.5739
0.573904
0.573909
0.573913
0.573913
0.573918
0.573922
0.573927
0.573931
0.573931
0.573936
0.57394
0.573945
0.573949
0.573949
0.573954
0.573958
0.573963
0.573967
0.573967
0.573972
0.573976
0.573981
0.573985
0.573985
0.57399
0.573995
0.573999
0.574004
0.574004
0.574008
0.574013
0.574017
0.574022
0.574022
0.574027
0.574031
0.574036
0.57404
0.57404
0.574045
0.57405
0.574054
0.574059
0.574059
0.574064
0.574068
0.574073
0.574078
0.574078
0.574082
0.574087
0.574092
0.574096
0.574096
0.574101
0.574106
0.57411
0.574115
0.574115
0.57412
0.574125
0.574129
0.574134
0.574134
0.574139
0.574143
0.574148
0.574153
0.574153
0.574158
0.574162
0.574167
0.574172
0.574172
0.574177
0.574182
0.574186
0.574191
0.574191
0.574196
0.574201
0.574205
0.57421
0.57421
0.574215
0.57422
0.574225
0.57423
0.57423
0.574234
0.574239
0.574244
0.574249
0.574249
0.574254
0.574259
0.574264
0.574269
0.574269
0.574273
0.574278
0.574283
0.574288
0.574288
0.574293
0.574298
0.574303
0.574308
0.574308
0.574313
0.574318
0.574323
0.574328
0.574328
0.574332
0.574337
0.574342
0.574347
0.574347
0.574352
0.574357
0.574362
0.574367
0.574367
0.574372
0.574377
0.574382
0.574387
0.574387
0.574392
0.574397
0.574402
0.574408
0.574408
0.574413
0.574418
0.574423
0.574428
0.574428
0.574433
0.574438
0.574443
0.574448
0.574448
0.574453
0.574458
0.574463
0.574468
0.574468
0.574474
0.574479
0.574484
0.574489
0.574489
0.574494
0.574499
0.574504
0.574509
0.574509
0.574515
0.57452
0.574525
0.57453
0.57453
0.574535
0.574541
0.574546
0.574551
0.574551
0.574556
0.574561
0.574567
0.574572
0.574572
0.574577
0.574582
0.574588
0.574593
0.574593
0.574598
0.574603
0.574609
0.574614
0.574614
0.574619
0.574624
0.57463
0.574635
0.574635
0.57464
0.574646
0.574651
0.574656
0.574656
0.574662
0.574667
0.574672
0.574678
0.574678
0.574683
0.574688
0.574694
0.574699
0.574699
0.574704
0.57471
0.574715
0.574721
0.574721
0.574726
0.574731
0.574737
0.574742
0.574742
0.574748
0.574753
0.574758
0.574764
0.574764
0.574769
0.574775
0.57478
0.574786
0.574786
0.574791
0.574797
0.574802
0.574808
0.574808
0.574813
0.574819
0.574824
0.57483
0.57483
0.574835
0.574841
0.574846
0.574852
0.574852
0.574857
0.574863
0.574869
0.574874
0.574874
0.57488
0.574885
0.574891
0.574896
0.574896
0.574902
0.574908
0.574913
0.574919
0.574919
0.574924
0.57493
0.574936
0.574941
0.574941
0.574947
0.574953
0.574958
0.574964
0.574964
0.57497
0.574975
0.574981
0.574987
0.574987
0.574993
0.574998
0.575004
0.57501
0.57501
0.575015
0.575021
0.575027
0.575033
0.575033
0.575038
0.575044
0.57505
0.575056
0.575056
0.575061
0.575067
0.575073
0.575079
0.575079
0.575085
0.57509
0.575096
0.575102
0.575102
0.575108
0.575114
0.57512
0.575125
0.575125
0.575131
0.575137
0.575143
0.575149
0.575149
0.575155
0.575161
0.575167
0.575172
0.575172
0.575178
0.575184
0.57519
0.575196
0.575196
0.575202
0.575208
0.575214
0.57522
0.57522
0.575226
0.575232
0.575238
0.575244
0.575244
0.57525
0.575256
0.575262
0.575268
0.575268
0.575274
0.57528
0.575286
0.575292
0.575292
0.575298
0.575304
0.57531
0.575316
0.575316
0.575322
0.575328
0.575334
0.57534
0.57534
0.575347
0.575353
0.575359
0.575365
0.575365
0.575371
0.575377
0.575383
0.575389
0.575389
0.575396
0.575402
0.575408
0.575414
0.575414
0.57542
0.575426
0.575433
0.575439
0.575439
0.575445
0.575451
0.575458
0.575464
0.575464
0.57547
0.575476
0.575483
0.575489
0.575489
0.575495
0.575501
0.575508
0.575514
0.575514
0.57552
0.575526
0.575533
0.575539
0.575539
0.575545
0.575552
0.575558
0.575564
0.575564
0.575571
0.575577
0.575583
0.57559
0.57559
0.575596
0.575603
0.575609
0.575615
0.575615
0.575622
0.575628
0.575635
0.575641
0.575641
0.575648
0.575654
0.57566
0.575667
0.575667
0.575673
0.57568
0.575686
0.575693
0.575693
0.575699
0.575706
0.575712
0.575719
0.575719
0.575725
0.575732
0.575738
0.575745
0.575745
0.575752
0.575758
0.575765
0.575771
0.575771
0.575778
0.575784
0.575791
0.575798
0.575798
0.575804
0.575811
0.575817
0.575824
0.575824
0.575831
0.575837
0.575844
0.575851
0.575851
0.575857
0.575864
0.575871
0.575877
0.575877
0.575884
0.575891
0.575898
0.575904
0.575904
0.575911
0.575918
0.575925
0.575931
0.575931
0.575938
0.575945
0.575952
0.575958
0.575958
0.575965
0.575972
0.575979
0.575986
0.575986
0.575992
0.575999
0.576006
0.576013
0.576013
0.57602
0.576027
0.576033
0.57604
0.57604
0.576047
0.576054
0.576061
0.576068
0.576068
0.576075
0.576082
0.576089
0.576096
0.576096
0.576103
0.57611
0.576117
0.576124
0.576124
0.57613
0.576137
0.576144
0.576151
0.576151
0.576158
0.576165
0.576172
0.576179
0.576179
0.576187
0.576194
0.576201
0.576208
0.576208
0.576215
0.576222
0.576229
0.576236
0.576236
0.576243
0.57625
0.576257
0.576265
0.576265
0.576272
0.576279
0.576286
0.576293
0.576293
0.5763
0.576307
0.576315
0.576322
0.576322
0.576329
0.576336
0.576343
0.576351
0.576351
0.576358
0.576365
0.576372
0.57638
0.57638
0.576387
0.576394
0.576402
0.576409
0.576409
0.576416
0.576423
0.576431
0.576438
0.576438
0.576445
0.576453
0.57646
0.576467
0.576467
0.576475
0.576482
0.57649
0.576497
0.576497
0.576504
0.576512
0.576519
0.576527
0.576527
0.576534
0.576541
0.576549
0.576556
0.576556
0.576564
0.576571
0.576579
0.576586
0.576586
0.576594
0.576601
0.576609
0.576616
0.576616
0.576624
0.576631
0.576639
0.576646
0.576646
0.576654
0.576662
0.576669
0.576677
0.576677
0.576684
0.576692
0.5767
0.576707
0.576707
0.576715
0.576722
0.57673
0.576738
0.576738
0.576745
0.576753
0.576761
0.576769
0.576769
0.576776
0.576784
0.576792
0.576799
0.576799
0.576807
0.576815
0.576823
0.57683
0.57683
0.576838
0.576846
0.576854
0.576861
0.576861
0.576869
0.576877
0.576885
0.576893
0.576893
0.576901
0.576908
0.576916
0.576924
0.576924
0.576932
0.57694
0.576948
0.576956
0.576956
0.576964
0.576972
0.57698
0.576987
0.576987
0.576995
0.577003
0.577011
0.577019
0.577019
0.577027
0.577035
0.577043
0.577051
0.577051
0.577059
0.577067
0.577075
0.577083
0.577083
0.577091
0.5771
0.577108
0.577116
0.577116
0.577124
0.577132
0.57714
0.577148
0.577148
0.577156
0.577164
0.577173
0.577181
0.577181
0.577189
0.577197
0.577205
0.577213
0.577213
0.577222
0.57723
0.577238
0.577246
0.577246
0.577254
0.577263
0.577271
0.577279
0.577279
0.577288
0.577296
0.577304
0.577312
0.577312
0.577321
0.577329
0.577337
0.577346
0.577346
0.577354
0.577362
0.577371
0.577379
0.577379
0.577388
0.577396
0.577404
0.577413
0.577413
0.577421
0.57743
0.577438
0.577447
0.577447
0.577455
0.577464
0.577472
0.577481
0.577481
0.577489
0.577498
0.577506
0.577515
0.577515
0.577523
0.577532
0.57754
0.577549
0.577549
0.577557
0.577566
0.577575
0.577583
0.577583
0.577592
0.5776
0.577609
0.577618
0.577618
0.577626
0.577635
0.577644
0.577652
0.577652
0.577661
0.57767
0.577679
0.577687
0.577687
0.577696
0.577705
0.577713
0.577722
0.577722
0.577731
0.57774
0.577749
0.577757
0.577757
0.577766
0.577775
0.577784
0.577793
0.577793
0.577802
0.57781
0.577819
0.577828
0.577828
0.577837
0.577846
0.577855
0.577864
0.577864
0.577873
0.577882
0.577891
0.5779
0.5779
0.577909
0.577918
0.577927
0.577936
0.577936
0.577945
0.577954
0.577963
0.577972
0.577972
0.577981
0.57799
0.577999
0.578008
0.578008
0.578017
0.578026
0.578035
0.578044
0.578044
0.578054
0.578063
0.578072
0.578081
0.578081
0.57809
0.578099
0.578109
0.578118
0.578118
0.578127
0.578136
0.578146
0.578155
0.578155
0.578164
0.578173
0.578183
0.578192
0.578192
0.578201
0.578211
0.57822
0.578229
0.578229
0.578239
0.578248
0.578257
0.578267
0.578267
0.578276
0.578286
0.578295
0.578304
0.578304
0.578314
0.578323
0.578333
0.578342
0.578342
0.578352
0.578361
0.578371
0.57838
0.57838
0.57839
0.578399
0.578409
0.578418
0.578418
0.578428
0.578437
0.578447
0.578457
0.578457
0.578466
0.578476
0.578485
0.578495
0.578495
0.578505
0.578514
0.578524
0.578534
0.578534
0.578543
0.578553
0.578563
0.578573
0.578573
0.578582
0.578592
0.578602
0.578612
0.578612
0.578621
0.578631
0.578641
0.578651
0.578651
0.578661
0.57867
0.57868
0.57869
0.57869
0.5787
0.57871
0.57872
0.57873
0.57873
0.57874
0.57875
0.578759
0.578769
0.578769
0.578779
0.578789
0.578799
0.578809
0.578809
0.578819
0.578829
0.578839
0.578849
0.578849
0.57886
0.57887
0.57888
0.57889
0.57889
0.5789
0.57891
0.57892
0.57893
0.57893
0.57894
0.57895
0.578961
0.578971
0.578971
0.578981
0.578991
0.579001
0.579012
0.579012
0.579022
0.579032
0.579042
0.579053
0.579053
0.579063
0.579073
0.579084
0.579094
0.579094
0.579104
0.579115
0.579125
0.579135
0.579135
0.579146
0.579156
0.579166
0.579177
0.579177
0.579187
0.579198
0.579208
0.579219
0.579219
0.579229
0.57924
0.57925
0.579261
0.579261
0.579271
0.579282
0.579292
0.579303
0.579303
0.579313
0.579324
0.579334
0.579345
0.579345
0.579356
0.579366
0.579377
0.579388
0.579388
0.579398
0.579409
0.57942
0.57943
0.57943
0.579441
0.579452
0.579463
0.579473
0.579473
0.579484
0.579495
0.579506
0.579516
0.579516
0.579527
0.579538
0.579549
0.57956
0.57956
0.579571
0.579581
0.579592
0.579603
0.579603
0.579614
0.579625
0.579636
0.579647
0.579647
0.579658
0.579669
0.57968
0.579691
0.579691
0.579702
0.579713
0.579724
0.579735
0.579735
0.579746
0.579757
0.579768
0.579779
0.579779
0.57979
0.579802
0.579813
0.579824
0.579824
0.579835
0.579846
0.579857
0.579869
0.579869
0.57988
0.579891
0.579902
0.579914
0.579914
0.579925
0.579936
0.579947
0.579959
0.579959
0.57997
0.579981
0.579993
0.580004
0.580004
0.580015
0.580027
0.580038
0.58005
0.58005
0.580061
0.580072
0.580084
0.580095
0.580095
0.580107
0.580118
0.58013
0.580141
0.580141
0.580153
0.580164
0.580176
0.580188
0.580188
0.580199
0.580211
0.580222
0.580234
0.580234
0.580246
0.580257
0.580269
0.580281
0.580281
0.580292
0.580304
0.580316
0.580327
0.580327
0.580339
0.580351
0.580363
0.580374
0.580374
0.580386
0.580398
0.58041
0.580422
0.580422
0.580434
0.580445
0.580457
0.580469
0.580469
0.580481
0.580493
0.580505
0.580517
0.580517
0.580529
0.580541
0.580553
0.580565
0.580565
0.580577
0.580589
0.580601
0.580613
0.580613
0.580625
0.580637
0.580649
0.580661
0.580661
0.580673
0.580686
0.580698
0.58071
0.58071
0.580722
0.580734
0.580747
0.580759
0.580759
0.580771
0.580783
0.580796
0.580808
0.580808
0.58082
0.580832
0.580845
0.580857
0.580857
0.580869
0.580882
0.580894
0.580907
0.580907
0.580919
0.580931
0.580944
0.580956
0.580956
0.580969
0.580981
0.580994
0.581006
0.581006
0.581019
0.581031
0.581044
0.581056
0.581056
0.581069
0.581082
0.581094
0.581107
0.581107
0.581119
0.581132
0.581145
0.581157
0.581157
0.58117
0.581183
0.581196
0.581208
0.581208
0.581221
0.581234
0.581247
0.581259
0.581259
0.581272
0.581285
0.581298
0.581311
0.581311
0.581324
0.581337
0.581349
0.581362
0.581362
0.581375
0.581388
0.581401
0.581414
0.581414
0.581427
0.58144
0.581453
0.581466
0.581466
0.581479
0.581492
0.581506
0.581519
0.581519
0.581532
0.581545
0.581558
0.581571
0.581571
0.581584
0.581598
0.581611
0.581624
0.581624
0.581637
0.58165
0.581664
0.581677
0.581677
0.58169
0.581704
0.581717
0.58173
0.58173
0.581744
0.581757
0.58177
0.581784
0.581784
0.581797
0.581811
0.581824
0.581838
0.581838
0.581851
0.581865
0.581878
0.581892
0.581892
0.581905
0.581919
0.581932
0.581946
0.581946
0.58196
0.581973
0.581987
0.582001
0.582001
0.582014
0.582028
0.582042
0.582055
0.582055
0.582069
0.582083
0.582097
0.58211
0.58211
0.582124
0.582138
0.582152
0.582166
0.582166
0.58218
0.582193
0.582207
0.582221
0.582221
0.582235
0.582249
0.582263
0.582277
0.582277
0.582291
0.582305
0.582319
0.582333
0.582333
0.582347
0.582361
0.582375
0.582389
0.582389
0.582404
0.582418
0.582432
0.582446
0.582446
0.58246
0.582475
0.582489
0.582503
0.582503
0.582517
0.582532
0.582546
0.58256
0.58256
0.582574
0.582589
0.582603
0.582618
0.582618
0.582632
0.582646
0.582661
0.582675
0.582675
0.58269
0.582704
0.582719
0.582733
0.582733
0.582748
0.582762
0.582777
0.582791
0.582791
0.582806
0.582821
0.582835
0.58285
0.58285
0.582864
0.582879
0.582894
0.582909
0.582909
0.582923
0.582938
0.582953
0.582968
0.582968
0.582982
0.582997
0.583012
0.583027
0.583027
0.583042
0.583057
0.583072
0.583087
0.583087
0.583101
0.583116
0.583131
0.583146
0.583146
0.583161
0.583176
0.583191
0.583207
0.583207
0.583222
0.583237
0.583252
0.583267
0.583267
0.583282
0.583297
0.583312
0.583328
0.583328
0.583343
0.583358
0.583373
0.583389
0.583389
0.583404
0.583419
0.583435
0.58345
0.58345
0.583465
0.583481
0.583496
0.583512
0.583512
0.583527
0.583542
0.583558
0.583573
0.583573
0.583589
0.583604
0.58362
0.583636
0.583636
0.583651
0.583667
0.583682
0.583698
0.583698
0.583714
0.583729
0.583745
0.583761
0.583761
0.583776
0.583792
0.583808
0.583824
0.583824
0.58384
0.583855
0.583871
0.583887
0.583887
0.583903
0.583919
0.583935
0.583951
0.583951
0.583967
0.583983
0.583999
0.584015
0.584015
0.584031
0.584047
0.584063
0.584079
0.584079
0.584095
0.584111
0.584127
0.584143
0.584143
0.58416
0.584176
0.584192
0.584208
0.584208
0.584224
0.584241
0.584257
0.584273
0.584273
0.58429
0.584306
0.584322
0.584339
0.584339
0.584355
0.584372
0.584388
0.584405
0.584405
0.584421
0.584438
0.584454
0.584471
0.584471
0.584487
0.584504
0.58452
0.584537
0.584537
0.584554
0.58457
0.584587
0.584604
0.584604
0.58462
0.584637
0.584654
0.584671
0.584671
0.584687
0.584704
0.584721
0.584738
0.584738
0.584755
0.584772
0.584789
0.584806
0.584806
0.584823
0.58484
0.584857
0.584874
0.584874
0.584891
0.584908
0.584925
0.584942
0.584942
0.584959
0.584976
0.584993
0.58501
0.58501
0.585028
0.585045
0.585062
0.585079
0.585079
0.585097
0.585114
0.585131
0.585149
0.585149
0.585166
0.585183
0.585201
0.585218
0.585218
0.585236
0.585253
0.585271
0.585288
0.585288
0.585306
0.585323
0.585341
0.585358
0.585358
0.585376
0.585394
0.585411
0.585429
0.585429
0.585447
0.585464
0.585482
0.5855
0.5855
0.585518
0.585535
0.585553
0.585571
0.585571
0.585589
0.585607
0.585625
0.585643
0.585643
0.58566
0.585678
0.585696
0.585714
0.585714
0.585732
0.585751
0.585769
0.585787
0.585787
0.585805
0.585823
0.585841
0.585859
0.585859
0.585877
0.585896
0.585914
0.585932
0.585932
0.585951
0.585969
0.585987
0.586005
0.586005
0.586024
0.586042
0.586061
0.586079
0.586079
0.586098
0.586116
0.586135
0.586153
0.586153
0.586172
0.58619
0.586209
0.586227
0.586227
0.586246
0.586265
0.586283
0.586302
0.586302
0.586321
0.58634
0.586358
0.586377
0.586377
0.586396
0.586415
0.586434
0.586453
0.586453
0.586471
0.58649
0.586509
0.586528
0.586528
0.586547
0.586566
0.586585
0.586604
0.586604
0.586623
0.586643
0.586662
0.586681
0.586681
0.5867
0.586719
0.586738
0.586758
0.586758
0.586777
0.586796
0.586816
0.586835
0.586835
0.586854
0.586874
0.586893
0.586912
0.586912
0.586932
0.586951
0.586971
0.58699
0.58699
0.58701
0.587029
0.587049
0.587069
0.587069
0.587088
0.587108
0.587128
0.587147
0.587147
0.587167
0.587187
0.587207
0.587226
0.587226
0.587246
0.587266
0.587286
0.587306
0.587306
0.587326