<?xml version="1.0"?>
<VTKFile type="UnstructuredGrid" version="0.1" byte_order="LittleEndian">
<UnstructuredGrid>
<Piece NumberOfPoints="5000" NumberOfCells="4000">
<PointData Scalars="Reaction 0">
<DataArray type="Float32" Name="Reaction 0" format="ascii">
0.568668
0.568668
0.568668
0.568668
0.568668
0.568668
0.568668
0.568668
0.568668
0.568668
0.568668
0.568668
0.568668
0.568668
0.568668
0.568668
0.568668
0.568668
0.568668
0.568668
0.568668
0.568668
0.568668
0.568668
0.568668
0.568668
0.568668
0.568668
0.568668
0.568669
0.568669
0.568669
0.568669
0.568669
0.568669
0.568669
0.568669
0.568669
0.568669
0.568669
0.568669
0.568669
0.568669
0.568669
0.568669
0.568669
0.568669
0.568669
0.568669
0.568669
0.568669
0.568669
0.568669
0.568669
0.56867
0.56867
0.56867
0.56867
0.56867
0.56867
0.56867
0.56867
0.56867
0.56867
0.56867
0.56867
0.56867
0.56867
0.56867
0.56867
0.56867
0.56867
0.568671
0.568671
0.568671
0.568671
0.568671
0.568671
0.568671
0.568671
0.568671
0.568671
0.568671
0.568671
0.568671
0.568671
0.568672
0.568672
0.568672
0.568672
0.568672
0.568672
0.568672
0.568672
0.568672
0.568672
0.568672
0.568672
0.568673
0.568673
0.568673
0.568673
0.568673
0.568673
0.568673
0.568673
0.568673
0.568673
0.568674
0.568674
0.568674
0.568674
0.568674
0.568674
0.568674
0.568674
0.568674
0.568674
0.568675
0.568675
0.568675
0.568675
0.568675
0.568675
0.568675
0.568675
0.568675
0.568676
0.568676
0.568676
0.568676
0.568676
0.568676
0.568676
0.568677
0.568677
0.568677
0.568677
0.568677
0.568677
0.568677
0.568677
0.568677
0.568678
0.568678
0.568678
0.568678
0.568678
0.568678
0.568678
0.568678
0.568679
0.568679
0.568679
0.568679
0.568679
0.568679
0.56868
0.56868
0.56868
0.56868
0.56868
0.56868
0.56868
0.568681
0.568681
0.568681
0.568681
0.568681
0.568681
0.568681
0.568682
0.568682
0.568682
0.568682
0.568682
0.568682
0.568683
0.568683
0.568683
0.568683
0.568683
0.568683
0.568684
0.568684
0.568684
0.568684
0.568684
0.568685
0.568685
0.568685
0.568685
0.568685
0.568685
0.568686
0.568686
0.568686
0.568686
0.568686
0.568687
0.568687
0.568687
0.568687
0.568687
0.568687
0.568687
0.568688
0.568688
0.568688
0.568688
0.568688
0.568689
0.568689
0.568689
0.568689
0.568689
0.56869
0.56869
0.56869
0.56869
0.56869
0.568691
0.568691
0.568691
0.568691
0.568691
0.568692
0.568692
0.568692
0.568693
0.568693
0.568693
0.568693
0.568693
0.568694
0.568694
0.568694
0.568694
0.568694
0.568695
0.568695
0.568695
0.568695
0.568696
0.568696
0.568696
0.568696
0.568696
0.568697
0.568697
0.568697
0.568697
0.568698
0.568698
0.568698
0.568698
0.568698
0.568699
0.568699
0.568699
0.568699
0.5687
0.5687
0.5687
0.568701
0.568701
0.568701
0.568701
0.568701
0.568702
0.568702
0.568702
0.568702
0.568703
0.568703
0.568703
0.568703
0.568704
0.568704
0.568704
0.568704
0.568705
0.568705
0.568705
0.568706
0.568706
0.568706
0.568706
0.568707
0.568707
0.568707
0.568707
0.568708
0.568708
0.568708
0.568708
0.568709
0.568709
0.568709
0.56871
0.56871
0.56871
0.56871
0.568711
0.568711
0.568711
0.568712
0.568712
0.568712
0.568713
0.568713
0.568713
0.568713
0.568714
0.568714
0.568714
0.568714
0.568715
0.568715
0.568716
0.568716
0.568716
0.568716
0.568717
0.568717
0.568717
0.568717
0.568718
0.568718
0.568719
0.568719
0.568719
0.568719
0.56872
0.56872
0.56872
0.56872
0.568721
0.568721
0.568722
0.568722
0.568722
0.568722
0.568723
0.568723
0.568723
0.568724
0.568724
0.568724
0.568725
0.568725
0.568725
0.568726
0.568726
0.568726
0.568726
0.568727
0.568727
0.568728
0.568728
0.568728
0.568729
0.568729
0.568729
0.56873
0.56873
0.56873
0.568731
0.568731
0.568732
0.568732
0.568732
0.568732
0.568733
0.568733
0.568733
0.568734
0.568734
0.568735
0.568735
0.568735
0.568735
0.568736
0.568736
0.568737
0.568737
0.568737
0.568738
0.568738
0.568739
0.568739
0.568739
0.56874
0.56874
0.56874
0.56874
0.568741
0.568741
0.568742
0.568742
0.568742
0.568743
0.568743
0.568744
0.568744
0.568744
0.568745
0.568745
0.568746
0.568746
0.568746
0.568747
0.568747
0.568748
0.568748
0.568748
0.568749
0.568749
0.568749
0.56875
0.56875
0.56875
0.568751
0.568751
0.568752
0.568752
0.568752
0.568753
0.568753
0.568754
0.568754
0.568754
0.568755
0.568755
0.568756
0.568756
0.568757
0.568757
0.568758
0.568758
0.568758
0.568759
0.568759
0.56876
0.56876
0.56876
0.568761
0.568761
0.568762
0.568762
0.568762
0.568763
0.568763
0.568764
0.568764
0.568764
0.568765
0.568765
0.568766
0.568767
0.568767
0.568767
0.568768
0.568768
0.568769
0.568769
0.568769
0.56877
0.56877
0.568771
0.568771
0.568771
0.568772
0.568773
0.568773
0.568773
0.568774
0.568774
0.568775
0.568775
0.568775
0.568776
0.568776
0.568777
0.568778
0.568778
0.568778
0.568779
0.568779
0.56878
0.56878
0.56878
0.568781
0.568782
0.568782
0.568782
0.568783
0.568783
0.568784
0.568785
0.568785
0.568785
0.568786
0.568786
0.568787
0.568787
0.568787
0.568788
0.568789
0.568789
0.568789
0.56879
0.56879
0.568791
0.568792
0.568792
0.568792
0.568793
0.568793
0.568794
0.568794
0.568795
0.568795
0.568796
0.568797
0.568797
0.568797
0.568798
0.568798
0.568799
0.568799
0.5688
0.5688
0.568801
0.568802
0.568802
0.568802
0.568803
0.568803
0.568804
0.568804
0.568805
0.568805
0.568806
0.568807
0.568807
0.568807
0.568808
0.568809
0.568809
0.568809
0.56881
0.568811
0.568811
0.568812
0.568812
0.568813
0.568813
0.568814
0.568815
0.568815
0.568815
0.568816
0.568817
0.568817
0.568817
0.568818
0.568819
0.568819
0.56882
0.56882
0.568821
0.568821
0.568822
0.568823
0.568823
0.568823
0.568824
0.568825
0.568825
0.568825
0.568826
0.568827
0.568827
0.568828
0.568828
0.568829
0.56883
0.56883
0.568831
0.568831
0.568832
0.568832
0.568833
0.568834
0.568834
0.568834
0.568835
0.568836
0.568837
0.568837
0.568837
0.568838
0.568839
0.568839
0.568839
0.56884
0.568841
0.568842
0.568842
0.568842
0.568843
0.568844
0.568844
0.568845
0.568845
0.568846
0.568847
0.568847
0.568848
0.568848
0.568849
0.56885
0.56885
0.568851
0.568851
0.568852
0.568853
0.568853
0.568854
0.568854
0.568855
0.568856
0.568856
0.568857
0.568857
0.568858
0.568859
0.568859
0.56886
0.56886
0.568861
0.568862
0.568862
0.568863
0.568863
0.568864
0.568865
0.568866
0.568866
0.568866
0.568867
0.568868
0.568869
0.568869
0.568869
0.56887
0.568871
0.568872
0.568873
0.568873
0.568873
0.568874
0.568875
0.568876
0.568876
0.568877
0.568877
0.568878
0.568879
0.568879
0.56888
0.568881
0.568881
0.568882
0.568882
0.568883
0.568884
0.568885
0.568885
0.568885
0.568886
0.568887
0.568888
0.568889
0.568889
0.56889
0.56889
0.568891
0.568892
0.568892
0.568893
0.568894
0.568894
0.568895
0.568895
0.568896
0.568897
0.568898
0.568899
0.568899
0.568899
0.5689
0.568901
0.568902
0.568902
0.568903
0.568904
0.568905
0.568905
0.568905
0.568906
0.568907
0.568908
0.568909
0.568909
0.56891
0.568911
0.568911
0.568912
0.568912
0.568913
0.568914
0.568915
0.568916
0.568916
0.568917
0.568917
0.568918
0.568919
0.568919
0.56892
0.568921
0.568922
0.568923
0.568923
0.568924
0.568925
0.568925
0.568926
0.568926
0.568927
0.568928
0.568929
0.56893
0.56893
0.568931
0.568932
0.568933
0.568934
0.568934
0.568934
0.568935
0.568936
0.568937
0.568937
0.568938
0.568939
0.56894
0.568941
0.568941
0.568942
0.568943
0.568944
0.568945
0.568945
0.568946
0.568946
0.568947
0.568948
0.568948
0.568949
0.56895
0.568951
0.568952
0.568952
0.568953
0.568954
0.568955
0.568956
0.568956
0.568957
0.568958
0.568959
0.56896
0.56896
0.568961
0.568961
0.568962
0.568963
0.568963
0.568964
0.568965
0.568966
0.568967
0.568967
0.568968
0.568969
0.56897
0.568971
0.568971
0.568972
0.568973
0.568974
0.568975
0.568975
0.568976
0.568977
0.568978
0.568979
0.568979
0.56898
0.568981
0.568982
0.568983
0.568983
0.568984
0.568985
0.568986
0.568987
0.568987
0.568988
0.568989
0.56899
0.568991
0.568991
0.568992
0.568993
0.568994
0.568995
0.568995
0.568996
0.568997
0.568998
0.568999
0.568999
0.569
0.569001
0.569002
0.569003
0.569003
0.569004
0.569005
0.569006
0.569007
0.569007
0.569008
0.569009
0.56901
0.569011
0.569011
0.569012
0.569014
0.569015
0.569016
0.569016
0.569017
0.569018
0.569019
0.56902
0.56902
0.569021
0.569022
0.569023
0.569024
0.569024
0.569025
0.569026
0.569027
0.569028
0.569028
0.569029
0.56903
0.569031
0.569033
0.569033
0.569034
0.569035
0.569036
0.569037
0.569037
0.569038
0.569039
0.56904
0.569041
0.569041
0.569042
0.569043
0.569044
0.569046
0.569046
0.569047
0.569048
0.569049
0.56905
0.56905
0.569051
0.569052
0.569053
0.569054
0.569054
0.569056
0.569057
0.569058
0.569059
0.569059
0.56906
0.569061
0.569062
0.569063
0.569063
0.569065
0.569066
0.569067
0.569068
0.569068
0.569069
0.56907
0.569071
0.569072
0.569072
0.569074
0.569075
0.569076
0.569077
0.569077
0.569078
0.569079
0.56908
0.569082
0.569082
0.569083
0.569084
0.569085
0.569086
0.569086
0.569087
0.569088
0.56909
0.569091
0.569091
0.569092
0.569093
0.569094
0.569095
0.569095
0.569097
0.569098
0.569099
0.5691
0.5691
0.569101
0.569103
0.569104
0.569105
0.569105
0.569106
0.569107
0.569109
0.56911
0.56911
0.569111
0.569112
0.569113
0.569115
0.569115
0.569116
0.569117
0.569118
0.569119
0.569119
0.569121
0.569122
0.569123
0.569124
0.569124
0.569125
0.569127
0.569128
0.569129
0.569129
0.56913
0.569132
0.569133
0.569134
0.569134
0.569135
0.569137
0.569138
0.569139
0.569139
0.56914
0.569141
0.569143
0.569144
0.569144
0.569145
0.569146
0.569148
0.569149
0.569149
0.56915
0.569151
0.569153
0.569154
0.569154
0.569155
0.569156
0.569158
0.569159
0.569159
0.56916
0.569162
0.569163
0.569164
0.569164
0.569165
0.569167
0.569168
0.569169
0.569169
0.569171
0.569172
0.569173
0.569174
0.569174
0.569176
0.569177
0.569178
0.56918
0.56918
0.569181
0.569182
0.569183
0.569185
0.569185
0.569186
0.569187
0.569189
0.56919
0.56919
0.569191
0.569193
0.569194
0.569195
0.569195
0.569197
0.569198
0.569199
0.569201
0.569201
0.569202
0.569203
0.569205
0.569206
0.569206
0.569207
0.569209
0.56921
0.569211
0.569211
0.569213
0.569214
0.569215
0.569217
0.569217
0.569218
0.569219
0.569221
0.569222
0.569222
0.569223
0.569225
0.569226
0.569227
0.569227
0.569229
0.56923
0.569232
0.569233
0.569233
0.569234
0.569236
0.569237
0.569239
0.569239
0.56924
0.569241
0.569243
0.569244
0.569244
0.569245
0.569247
0.569248
0.56925
0.56925
0.569251
0.569252
0.569254
0.569255
0.569255
0.569257
0.569258
0.569259
0.569261
0.569261
0.569262
0.569264
0.569265
0.569267
0.569267
0.569268
0.569269
0.569271
0.569272
0.569272
0.569274
0.569275
0.569276
0.569278
0.569278
0.569279
0.569281
0.569282
0.569284
0.569284
0.569285
0.569287
0.569288
0.569289
0.569289
0.569291
0.569292
0.569294
0.569295
0.569295
0.569297
0.569298
0.5693
0.569301
0.569301
0.569303
0.569304
0.569306
0.569307
0.569307
0.569309
0.56931
0.569311
0.569313
0.569313
0.569314
0.569316
0.569317
0.569319
0.569319
0.56932
0.569322
0.569323
0.569325
0.569325
0.569326
0.569328
0.569329
0.569331
0.569331
0.569332
0.569334
0.569335
0.569337
0.569337
0.569338
0.56934
0.569341
0.569343
0.569343
0.569344
0.569346
0.569348
0.569349
0.569349
0.569351
0.569352
0.569354
0.569355
0.569355
0.569357
0.569358
0.56936
0.569361
0.569361
0.569363
0.569364
0.569366
0.569368
0.569368
0.569369
0.569371
0.569372
0.569374
0.569374
0.569375
0.569377
0.569379
0.56938
0.56938
0.569382
0.569383
0.569385
0.569386
0.569386
0.569388
0.56939
0.569391
0.569393
0.569393
0.569394
0.569396
0.569398
0.569399
0.569399
0.569401
0.569402
0.569404
0.569405
0.569405
0.569407
0.569409
0.56941
0.569412
0.569412
0.569413
0.569415
0.569417
0.569418
0.569418
0.56942
0.569422
0.569423
0.569425
0.569425
0.569426
0.569428
0.56943
0.569431
0.569431
0.569433
0.569435
0.569436
0.569438
0.569438
0.56944
0.569441
0.569443
0.569445
0.569445
0.569446
0.569448
0.56945
0.569451
0.569451
0.569453
0.569455
0.569456
0.569458
0.569458
0.56946
0.569461
0.569463
0.569465
0.569465
0.569466
0.569468
0.56947
0.569471
0.569471
0.569473
0.569475
0.569476
0.569478
0.569478
0.56948
0.569481
0.569483
0.569485
0.569485
0.569487
0.569488
0.56949
0.569492
0.569492
0.569493
0.569495
0.569497
0.569499
0.569499
0.5695
0.569502
0.569504
0.569505
0.569505
0.569507
0.569509
0.569511
0.569512
0.569512
0.569514
0.569516
0.569518
0.569519
0.569519
0.569521
0.569523
0.569525
0.569526
0.569526
0.569528
0.56953
0.569532
0.569533
0.569533
0.569535
0.569537
0.569539
0.56954
0.56954
0.569542
0.569544
0.569546
0.569548
0.569548
0.569549
0.569551
0.569553
0.569555
0.569555
0.569556
0.569558
0.56956
0.569562
0.569562
0.569564
0.569566
0.569567
0.569569
0.569569
0.569571
0.569573
0.569575
0.569576
0.569576
0.569578
0.56958
0.569582
0.569584
0.569584
0.569586
0.569587
0.569589
0.569591
0.569591
0.569593
0.569595
0.569597
0.569598
0.569598
0.5696
0.569602
0.569604
0.569606
0.569606
0.569608
0.569609
0.569611
0.569613
0.569613
0.569615
0.569617
0.569619
0.569621
0.569621
0.569622
0.569624
0.569626
0.569628
0.569628
0.56963
0.569632
0.569634
0.569636
0.569636
0.569638
0.569639
0.569641
0.569643
0.569643
0.569645
0.569647
0.569649
0.569651
0.569651
0.569653
0.569655
0.569657
0.569659
0.569659
0.56966
0.569662
0.569664
0.569666
0.569666
0.569668
0.56967
0.569672
0.569674
0.569674
0.569676
0.569678
0.56968
0.569682
0.569682
0.569684
0.569686
0.569687
0.569689
0.569689
0.569691
0.569693
0.569695
0.569697
0.569697
0.569699
0.569701
0.569703
0.569705
0.569705
0.569707
0.569709
0.569711
0.569713
0.569713
0.569715
0.569717
0.569719
0.569721
0.569721
0.569723
0.569725
0.569727
0.569729
0.569729
0.569731
0.569733
0.569735
0.569737
0.569737
0.569739
0.569741
0.569743
0.569745
0.569745
0.569747
0.569749
0.569751
0.569753
0.569753
0.569755
0.569757
0.569759
0.569761
0.569761
0.569763
0.569765
0.569767
0.569769
0.569769
0.569771
0.569774
0.569776
0.569778
0.569778
0.56978
0.569782
0.569784
0.569786
0.569786
0.569788
0.56979
0.569792
0.569794
0.569794
0.569796
0.569798
0.5698
0.569803
0.569803
0.569805
0.569807
0.569809
0.569811
0.569811
0.569813
0.569815
0.569817
0.569819
0.569819
0.569821
0.569823
0.569826
0.569828
0.569828
0.56983
0.569832
0.569834
0.569836
0.569836
0.569838
0.56984
0.569843
0.569845
0.569845
0.569847
0.569849
0.569851
0.569853
0.569853
0.569855
0.569858
0.56986
0.569862
0.569862
0.569864
0.569866
0.569868
0.569871
0.569871
0.569873
0.569875
0.569877
0.569879
0.569879
0.569881
0.569884
0.569886
0.569888
0.569888
0.56989
0.569892
0.569894
0.569897
0.569897
0.569899
0.569901
0.569903
0.569905
0.569905
0.569908
0.56991
0.569912
0.569914
0.569914
0.569916
0.569919
0.569921
0.569923
0.569923
0.569925
0.569928
0.56993
0.569932
0.569932
0.569934
0.569937
0.569939
0.569941
0.569941
0.569943
0.569946
0.569948
0.56995
0.56995
0.569952
0.569955
0.569957
0.569959
0.569959
0.569961
0.569964
0.569966
0.569968
0.569968
0.56997
0.569973
0.569975
0.569977
0.569977
0.56998
0.569982
0.569984
0.569986
0.569986
0.569989
0.569991
0.569993
0.569996
0.569996
0.569998
0.57
0.570003
0.570005
0.570005
0.570007
0.57001
0.570012
0.570014
0.570014
0.570017
0.570019
0.570021
0.570024
0.570024
0.570026
0.570028
0.570031
0.570033
0.570033
0.570035
0.570038
0.57004
0.570042
0.570042
0.570045
0.570047
0.570049
0.570052
0.570052
0.570054
0.570057
0.570059
0.570061
0.570061
0.570064
0.570066
0.570068
0.570071
0.570071
0.570073
0.570076
0.570078
0.57008
0.57008
0.570083
0.570085
0.570088
0.57009
0.57009
0.570093
0.570095
0.570097
0.5701
0.5701
0.570102
0.570105
0.570107
0.570109
0.570109
0.570112
0.570114
0.570117
0.570119
0.570119
0.570122
0.570124
0.570127
0.570129
0.570129
0.570131
0.570134
0.570136
0.570139
0.570139
0.570141
0.570144
0.570146
0.570149
0.570149
0.570151
0.570154
0.570156
0.570159
0.570159
0.570161
0.570164
0.570166
0.570169
0.570169
0.570171
0.570174
0.570176
0.570179
0.570179
0.570181
0.570184
0.570186
0.570189
0.570189
0.570191
0.570194
0.570196
0.570199
0.570199
0.570201
0.570204
0.570207
0.570209
0.570209
0.570212
0.570214
0.570217
0.570219
0.570219
0.570222
0.570224
0.570227
0.57023
0.57023
0.570232
0.570235
0.570237
0.57024
0.57024
0.570242
0.570245
0.570248
0.57025
0.57025
0.570253
0.570255
0.570258
0.570261
0.570261
0.570263
0.570266
0.570268
0.570271
0.570271
0.570274
0.570276
0.570279
0.570281
0.570281
0.570284
0.570287
0.570289
0.570292
0.570292
0.570295
0.570297
0.5703
0.570303
0.570303
0.570305
0.570308
0.570311
0.570313
0.570313
0.570316
0.570319
0.570321
0.570324
0.570324
0.570327
0.570329
0.570332
0.570335
0.570335
0.570337
0.57034
0.570343
0.570345
0.570345
0.570348
0.570351
0.570353
0.570356
0.570356
0.570359
0.570362
0.570364
0.570367
0.570367
0.57037
0.570372
0.570375
0.570378
0.570378
0.570381
0.570383
0.570386
0.570389
0.570389
0.570392
0.570394
0.570397
0.5704
0.5704
0.570403
0.570405
0.570408
0.570411
0.570411
0.570414
0.570417
0.570419
0.570422
0.570422
0.570425
0.570428
0.57043
0.570433
0.570433
0.570436
0.570439
0.570442
0.570444
0.570444
0.570447
0.57045
0.570453
0.570456
0.570456
0.570458
0.570461
0.570464
0.570467
0.570467
0.57047
0.570473
0.570475
0.570478
0.570478
0.570481
0.570484
0.570487
0.57049
0.57049
0.570493
0.570495
0.570498
0.570501
0.570501
0.570504
0.570507
0.57051
0.570513
0.570513
0.570515
0.570518
0.570521
0.570524
0.570524
0.570527
0.57053
0.570533
0.570536
0.570536
0.570539
0.570542
0.570544
0.570547
0.570547
0.57055
0.570553
0.570556
0.570559
0.570559
0.570562
0.570565
0.570568
0.570571
0.570571
0.570574
0.570577
0.57058
0.570583
0.570583
0.570586
0.570589
0.570591
0.570594
0.570594
0.570597
0.5706
0.570603
0.570606
0.570606
0.570609
0.570612
0.570615
0.570618
0.570618
0.570621
0.570624
0.570627
0.57063
0.57063
0.570633
0.570636
0.570639
0.570642
0.570642
0.570645
0.570648
0.570651
0.570654
0.570654
0.570658
0.570661
0.570664
0.570667
0.570667
0.57067
0.570673
0.570676
0.570679
0.570679
0.570682
0.570685
0.570688
0.570691
0.570691
0.570694
0.570697
0.5707
0.570703
0.570703
0.570707
0.57071
0.570713
0.570716
0.570716
0.570719
0.570722
0.570725
0.570728
0.570728
0.570731
0.570734
0.570738
0.570741
0.570741
0.570744
0.570747
0.57075
0.570753
0.570753
0.570756
0.570759
0.570763
0.570766
0.570766
0.570769
0.570772
0.570775
0.570778
0.570778
0.570782
0.570785
0.570788
0.570791
0.570791
0.570794
0.570798
0.570801
0.570804
0.570804
0.570807
0.57081
0.570814
0.570817
0.570817
0.57082
0.570823
0.570826
0.57083
0.57083
0.570833
0.570836
0.570839
0.570842
0.570842
0.570846
0.570849
0.570852
0.570855
0.570855
0.570859
0.570862
0.570865
0.570868
0.570868
0.570872
0.570875
0.570878
0.570882
0.570882
0.570885
0.570888
0.570891
0.570895
0.570895
0.570898
0.570901
0.570905
0.570908
0.570908
0.570911
0.570915
0.570918
0.570921
0.570921
0.570924
0.570928
0.570931
0.570934
0.570934
0.570938
0.570941
0.570944
0.570948
0.570948
0.570951
0.570955
0.570958
0.570961
0.570961
0.570965
0.570968
0.570971
0.570975
0.570975
0.570978
0.570982
0.570985
0.570988
0.570988
0.570992
0.570995
0.570999
0.571002
0.571002
0.571005
0.571009
0.571012
0.571016
0.571016
0.571019
0.571022
0.571026
0.571029
0.571029
0.571033
0.571036
0.57104
0.571043
0.571043
0.571047
0.57105
0.571053
0.571057
0.571057
0.57106
0.571064
0.571067
0.571071
0.571071
0.571074
0.571078
0.571081
0.571085
0.571085
0.571088
0.571092
0.571095
0.571099
0.571099
0.571102
0.571106
0.571109
0.571113
0.571113
0.571116
0.57112
0.571123
0.571127
0.571127
0.571131
0.571134
0.571138
0.571141
0.571141
0.571145
0.571148
0.571152
0.571155
0.571155
0.571159
0.571163
0.571166
0.57117
0.57117
0.571173
0.571177
0.571181
0.571184
0.571184
0.571188
0.571191
0.571195
0.571199
0.571199
0.571202
0.571206
0.571209
0.571213
0.571213
0.571217
0.57122
0.571224
0.571228
0.571228
0.571231
0.571235
0.571239
0.571242
0.571242
0.571246
0.57125
0.571253
0.571257
0.571257
0.571261
0.571264
0.571268
0.571272
0.571272
0.571275
0.571279
0.571283
0.571287
0.571287
0.57129
0.571294
0.571298
0.571301
0.571301
0.571305
0.571309
0.571313
0.571316
0.571316
0.57132
0.571324
0.571328
0.571331
0.571331
0.571335
0.571339
0.571343
0.571346
0.571346
0.57135
0.571354
0.571358
0.571362
0.571362
0.571365
0.571369
0.571373
0.571377
0.571377
0.571381
0.571384
0.571388
0.571392
0.571392
0.571396
0.5714
0.571404
0.571407
0.571407
0.571411
0.571415
0.571419
0.571423
0.571423
0.571427
0.571431
0.571434
0.571438
0.571438
0.571442
0.571446
0.57145
0.571454
0.571454
0.571458
0.571462
0.571465
0.571469
0.571469
0.571473
0.571477
0.571481
0.571485
0.571485
0.571489
0.571493
0.571497
0.571501
0.571501
0.571505
0.571509
0.571513
0.571517
0.571517
0.571521
0.571525
0.571529
0.571533
0.571533
0.571536
0.57154
0.571544
0.571548
0.571548
0.571552
0.571556
0.57156
0.571564
0.571564
0.571568
0.571572
0.571576
0.571581
0.571581
0.571585
0.571589
0.571593
0.571597
0.571597
0.571601
0.571605
0.571609
0.571613
0.571613
0.571617
0.571621
0.571625
0.571629
0.571629
0.571633
0.571637
0.571641
0.571646
0.571646
0.57165
0.571654
0.571658
0.571662
0.571662
0.571666
0.57167
0.571674
0.571678
0.571678
0.571683
0.571687
0.571691
0.571695
0.571695
0.571699
0.571703
0.571708
0.571712
0.571712
0.571716
0.57172
0.571724
0.571728
0.571728
0.571733
0.571737
0.571741
0.571745
0.571745
0.571749
0.571754
0.571758
0.571762
0.571762
0.571766
0.57177
0.571775
0.571779
0.571779
0.571783
0.571787
0.571792
0.571796
0.571796
0.5718
0.571804
0.571809
0.571813
0.571813
0.571817
0.571822
0.571826
0.57183
0.57183
0.571834
0.571839
0.571843
0.571847
0.571847
0.571852
0.571856
0.57186
0.571865
0.571865
0.571869
0.571873
0.571878
0.571882
0.571882
0.571886
0.571891
0.571895
0.571899
0.571899
0.571904
0.571908
0.571913
0.571917
0.571917
0.571921
0.571926
0.57193
0.571935
0.571935
0.571939
0.571943
0.571948
0.571952
0.571952
0.571957
0.571961
0.571966
0.57197
0.57197
0.571974
0.571979
0.571983
0.571988
0.571988
0.571992
0.571997
0.572001
0.572006
0.572006
0.57201
0.572015
0.572019
0.572024
0.572024
0.572028
0.572033
0.572037
0.572042
0.572042
0.572046
0.572051
0.572055
0.57206
0.57206
0.572064
0.572069
0.572074
0.572078
0.572078
0.572083
0.572087
0.572092
0.572096
0.572096
0.572101
0.572106
0.57211
0.572115
0.572115
0.572119
0.572124
0.572129
0.572133
0.572133
0.572138
0.572142
0.572147
0.572152
0.572152
0.572156
0.572161
0.572166
0.57217
0.57217
0.572175
0.57218
0.572184
0.572189
0.572189
0.572194
0.572198
0.572203
0.572208
0.572208
0.572213
0.572217
0.572222
0.572227
0.572227
0.572231
0.572236
0.572241
0.572246
0.572246
0.57225
0.572255
0.57226
0.572265
0.572265
0.572269
0.572274
0.572279
0.572284
0.572284
0.572288
0.572293
0.572298
0.572303
0.572303
0.572308
0.572313
0.572317
0.572322
0.572322
0.572327
0.572332
0.572337
0.572341
0.572341
0.572346
0.572351
0.572356
0.572361
0.572361
0.572366
0.572371
0.572376
0.57238
0.57238
0.572385
0.57239
0.572395
0.5724
0.5724
0.572405
0.57241
0.572415
0.57242
0.57242
0.572425
0.57243
0.572435
0.57244
0.57244
0.572444
0.572449
0.572454
0.572459
0.572459
0.572464
0.572469
0.572474
0.572479
0.572479
0.572484
0.572489
0.572494
0.572499
0.572499
0.572504
0.572509
0.572514
0.572519
0.572519
0.572525
0.57253
0.572535
0.57254
0.57254
0.572545
0.57255
0.572555
0.57256
0.57256
0.572565
0.57257
0.572575
0.57258
0.57258
0.572585
0.572591
0.572596
0.572601
0.572601
0.572606
0.572611
0.572616
0.572621
0.572621
0.572627
0.572632
0.572637
0.572642
0.572642
0.572647
0.572652
0.572658
0.572663
0.572663
0.572668
0.572673
0.572678
0.572684
0.572684
0.572689
0.572694
0.572699
0.572704
0.572704
0.57271
0.572715
0.57272
0.572726
0.572726
0.572731
0.572736
0.572741
0.572747
0.572747
0.572752
0.572757
0.572762
0.572768
0.572768
0.572773
0.572778
0.572784
0.572789
0.572789
0.572794
0.5728
0.572805
0.57281
0.57281
0.572816
0.572821
0.572827
0.572832
0.572832
0.572837
0.572843
0.572848
0.572854
0.572854
0.572859
0.572864
0.57287
0.572875
0.572875
0.572881
0.572886
0.572891
0.572897
0.572897
0.572902
0.572908
0.572913
0.572919
0.572919
0.572924
0.57293
0.572935
0.572941
0.572941
0.572946
0.572952
0.572957
0.572963
0.572963
0.572968
0.572974
0.572979
0.572985
0.572985
0.57299
0.572996
0.573002
0.573007
0.573007
0.573013
0.573018
0.573024
0.573029
0.573029
0.573035
0.573041
0.573046
0.573052
0.573052
0.573058
0.573063
0.573069
0.573074
0.573074
0.57308
0.573086
0.573091
0.573097
0.573097
0.573103
0.573108
0.573114
0.57312
0.57312
0.573125
0.573131
0.573137
0.573143
0.573143
0.573148
0.573154
0.57316
0.573166
0.573166
0.573171
0.573177
0.573183
0.573189
0.573189
0.573194
0.5732
0.573206
0.573212
0.573212
0.573218
0.573223
0.573229
0.573235
0.573235
0.573241
0.573247
0.573252
0.573258
0.573258
0.573264
0.57327
0.573276
0.573282
0.573282
0.573288
0.573294
0.573299
0.573305
0.573305
0.573311
0.573317
0.573323
0.573329
0.573329
0.573335
0.573341
0.573347
0.573353
0.573353
0.573359
0.573365
0.573371
0.573377
0.573377
0.573383
0.573389
0.573395
0.573401
0.573401
0.573407
0.573413
0.573419
0.573425
0.573425
0.573431
0.573437
0.573443
0.573449
0.573449
0.573455
0.573461
0.573467
0.573473
0.573473
0.573479
0.573485
0.573491
0.573498
0.573498
0.573504
0.57351
0.573516
0.573522
0.573522
0.573528
0.573534
0.57354
0.573547
0.573547
0.573553
0.573559
0.573565
0.573571
0.573571
0.573578
0.573584
0.57359
0.573596
0.573596
0.573602
0.573609
0.573615
0.573621
0.573621
0.573627
0.573634
0.57364
0.573646
0.573646
0.573652
0.573659
0.573665
0.573671
0.573671
0.573678
0.573684
0.57369
0.573697
0.573697
0.573703
0.573709
0.573716
0.573722
0.573722
0.573728
0.573735
0.573741
0.573748
0.573748
0.573754
0.57376
0.573767
0.573773
0.573773
0.57378
0.573786
0.573792
0.573799
0.573799
0.573805
0.573812
0.573818
0.573825
0.573825
0.573831
0.573838
0.573844
0.573851
0.573851
0.573857
0.573864
0.57387
0.573877
0.573877
0.573883
0.57389
0.573896
0.573903
0.573903
0.57391
0.573916
0.573923
0.573929
0.573929
0.573936
0.573942
0.573949
0.573956
0.573956
0.573962
0.573969
0.573976
0.573982
0.573982
0.573989
0.573996
0.574002
0.574009
0.574009
0.574016
0.574022
0.574029
0.574036
0.574036
0.574042
0.574049
0.574056
0.574063
0.574063
0.574069
0.574076
0.574083
0.57409
0.57409
0.574096
0.574103
0.57411
0.574117
0.574117
0.574124
0.57413
0.574137
0.574144
0.574144
0.574151
0.574158
0.574165
0.574171
0.574171
0.574178
0.574185
0.574192
0.574199
0.574199
0.574206
0.574213
0.57422
0.574227
0.574227
0.574234
0.574241
0.574247
0.574254
0.574254
0.574261
0.574268
0.574275
0.574282
0.574282
0.574289
0.574296
0.574303
0.57431
0.57431
0.574317
0.574324
0.574331
0.574338
0.574338
0.574346
0.574353
0.57436
0.574367
0.574367
0.574374
0.574381
0.574388
0.574395
0.574395
0.574402
0.574409
0.574417
0.574424
0.574424
0.574431
0.574438
0.574445
0.574452
0.574452
0.57446
0.574467
0.574474
0.574481
0.574481
0.574488
0.574496
0.574503
0.57451
0.57451
0.574517
0.574525
0.574532
0.574539
0.574539
0.574546
0.574554
0.574561
0.574568
0.574568
0.574576
0.574583
0.57459
0.574598
0.574598
0.574605
0.574612
0.57462
0.574627
0.574627
0.574634
0.574642
0.574649
0.574657
0.574657
0.574664
0.574672
0.574679
0.574686
0.574686
0.574694
0.574701
0.574709
0.574716
0.574716
0.574724
0.574731
0.574739
0.574746
0.574746
0.574754
0.574761
0.574769
0.574776
0.574776
0.574784
0.574791
0.574799
0.574807
0.574807
0.574814
0.574822
0.574829
0.574837
0.574837
0.574845
0.574852
0.57486
0.574868
0.574868
0.574875
0.574883
0.574891
0.574898
0.574898
0.574906
0.574914
0.574921
0.574929
0.574929
0.574937
0.574945
0.574952
0.57496
0.57496
0.574968
0.574976
0.574983
0.574991
0.574991
0.574999
0.575007
0.575015
0.575022
0.575022
0.57503
0.575038
0.575046
0.575054
0.575054
0.575062
0.57507
0.575077
0.575085
0.575085
0.575093
0.575101
0.575109
0.575117
0.575117
0.575125
0.575133
0.575141
0.575149
0.575149
0.575157
0.575165
0.575173
0.575181
0.575181
0.575189
0.575197
0.575205
0.575213
0.575213
0.575221
0.575229
0.575237
0.575245
0.575245
0.575253
0.575261
0.57527
0.575278
0.575278
0.575286
0.575294
0.575302
0.57531
0.57531
0.575318
0.575327
0.575335
0.575343
0.575343
0.575351
0.575359
0.575368
0.575376
0.575376
0.575384
0.575392
0.575401
0.575409
0.575409
0.575417
0.575425
0.575434
0.575442
0.575442
0.57545
0.575459
0.575467
0.575475
0.575475
0.575484
0.575492
0.575501
0.575509
0.575509
0.575517
0.575526
0.575534
0.575543
0.575543
0.575551
0.575559
0.575568
0.575576
0.575576
0.575585
0.575593
0.575602
0.57561
0.57561
0.575619
0.575627
0.575636
0.575644
0.575644
0.575653
0.575662
0.57567
0.575679
0.575679
0.575687
0.575696
0.575704
0.575713
0.575713
0.575722
0.57573
0.575739
0.575748
0.575748
0.575756
0.575765
0.575774
0.575782
0.575782
0.575791
0.5758
0.575809
0.575817
0.575817
0.575826
0.575835
0.575844
0.575852
0.575852
0.575861
0.57587
0.575879
0.575888
0.575888
0.575897
0.575905
0.575914
0.575923
0.575923
0.575932
0.575941
0.57595
0.575959
0.575959
0.575968
0.575977
0.575985
0.575994
0.575994
0.576003
0.576012
0.576021
0.57603
0.57603
0.576039
0.576048
0.576057
0.576066
0.576066
0.576075
0.576085
0.576094
0.576103
0.576103
0.576112
0.576121
0.57613
0.576139
0.576139
0.576148
0.576157
0.576166
0.576176
0.576176
0.576185
0.576194
0.576203
0.576212
0.576212
0.576222
0.576231
0.57624
0.576249
0.576249
0.576259
0.576268
0.576277
0.576286
0.576286
0.576296
0.576305
0.576314
0.576324
0.576324
0.576333
0.576342
0.576352
0.576361
0.576361
0.576371
0.57638
0.576389
0.576399
0.576399
0.576408
0.576418
0.576427
0.576437
0.576437
0.576446
0.576456
0.576465
0.576475
0.576475
0.576484
0.576494
0.576503
0.576513
0.576513
0.576522
0.576532
0.576542
0.576551
0.576551
0.576561
0.57657
0.57658
0.57659
0.57659
0.576599
0.576609
0.576619
0.576628
0.576628
0.576638
0.576648
0.576658
0.576667
0.576667
0.576677
0.576687
0.576697
0.576706
0.576706
0.576716
0.576726
0.576736
0.576746
0.576746
0.576756
0.576765
0.576775
0.576785
0.576785
0.576795
0.576805
0.576815
0.576825
0.576825
0.576835
0.576845
0.576855
0.576865
0.576865
0.576875
0.576885
0.576895
0.576905
0.576905
0.576915
0.576925
0.576935
0.576945
0.576945
0.576955
0.576965
0.576975
0.576985
0.576985
0.576995
0.577006
0.577016
0.577026
0.577026
0.577036
0.577046
0.577057
0.577067
0.577067
0.577077
0.577087
0.577097
0.577108
0.577108
0.577118
0.577128
0.577139
0.577149
0.577149
0.577159
0.57717
0.57718
0.57719
0.57719
0.577201
0.577211
0.577222
0.577232
0.577232
0.577242
0.577253
0.577263
0.577274
0.577274
0.577284
0.577295
0.577305
0.577316
0.577316
0.577326
0.577337
0.577347
0.577358
0.577358
0.577368
0.577379
0.57739
0.5774
0.5774
0.577411
0.577422
0.577432
0.577443
0.577443
0.577454
0.577464
0.577475
0.577486
0.577486
0.577496
0.577507
0.577518
0.577529
0.577529
0.577539
0.57755
0.577561