<?xml version="1.0"?>
<VTKFile type="UnstructuredGrid" version="0.1" byte_order="LittleEndian">
<UnstructuredGrid>
<Piece NumberOfPoints="5000" NumberOfCells="4000">
<PointData Scalars="Reaction 0">
<DataArray type="Float32" Name="Reaction 0" format="ascii">
0.567366
0.567366
0.567366
0.567366
0.567366
0.567366
0.567366
0.567366
0.567366
0.567366
0.567366
0.567366
0.567366
0.567366
0.567366
0.567366
0.567366
0.567366
0.567366
0.567366
0.567366
0.567366
0.567366
0.567366
0.567366
0.567366
0.567366
0.567366
0.567366
0.567366
0.567366
0.567366
0.567366
0.567366
0.567366
0.567366
0.567366
0.567366
0.567366
0.567366
0.567366
0.567366
0.567366
0.567366
0.567366
0.567366
0.567366
0.567366
0.567366
0.567366
0.567366
0.567367
0.567367
0.567367
0.567367
0.567367
0.567367
0.567367
0.567367
0.567367
0.567367
0.567367
0.567367
0.567367
0.567367
0.567367
0.567367
0.567367
0.567367
0.567367
0.567367
0.567367
0.567367
0.567367
0.567367
0.567367
0.567368
0.567368
0.567368
0.567368
0.567368
0.567368
0.567368
0.567368
0.567368
0.567368
0.567368
0.567368
0.567368
0.567368
0.567368
0.567368
0.567368
0.567369
0.567369
0.567369
0.567369
0.567369
0.567369
0.567369
0.567369
0.567369
0.567369
0.567369
0.567369
0.567369
0.567369
0.567369
0.567369
0.56737
0.56737
0.56737
0.56737
0.56737
0.56737
0.56737
0.56737
0.56737
0.56737
0.56737
0.56737
0.56737
0.567371
0.567371
0.567371
0.567371
0.567371
0.567371
0.567371
0.567371
0.567371
0.567371
0.567371
0.567371
0.567372
0.567372
0.567372
0.567372
0.567372
0.567372
0.567372
0.567372
0.567372
0.567372
0.567372
0.567372
0.567373
0.567373
0.567373
0.567373
0.567373
0.567373
0.567373
0.567373
0.567373
0.567373
0.567374
0.567374
0.567374
0.567374
0.567374
0.567374
0.567374
0.567374
0.567374
0.567374
0.567375
0.567375
0.567375
0.567375
0.567375
0.567375
0.567375
0.567375
0.567376
0.567376
0.567376
0.567376
0.567376
0.567376
0.567376
0.567376
0.567376
0.567377
0.567377
0.567377
0.567377
0.567377
0.567377
0.567377
0.567377
0.567377
0.567378
0.567378
0.567378
0.567378
0.567378
0.567378
0.567378
0.567379
0.567379
0.567379
0.567379
0.567379
0.567379
0.567379
0.567379
0.56738
0.56738
0.56738
0.56738
0.56738
0.56738
0.56738
0.567381
0.567381
0.567381
0.567381
0.567381
0.567381
0.567381
0.567381
0.567382
0.567382
0.567382
0.567382
0.567382
0.567382
0.567383
0.567383
0.567383
0.567383
0.567383
0.567383
0.567384
0.567384
0.567384
0.567384
0.567384
0.567384
0.567384
0.567384
0.567385
0.567385
0.567385
0.567385
0.567385
0.567385
0.567386
0.567386
0.567386
0.567386
0.567386
0.567386
0.567387
0.567387
0.567387
0.567387
0.567387
0.567388
0.567388
0.567388
0.567388
0.567388
0.567388
0.567388
0.567389
0.567389
0.567389
0.567389
0.567389
0.567389
0.56739
0.56739
0.56739
0.56739
0.56739
0.567391
0.567391
0.567391
0.567391
0.567391
0.567391
0.567392
0.567392
0.567392
0.567392
0.567392
0.567393
0.567393
0.567393
0.567393
0.567393
0.567394
0.567394
0.567394
0.567394
0.567394
0.567395
0.567395
0.567395
0.567395
0.567395
0.567396
0.567396
0.567396
0.567396
0.567396
0.567397
0.567397
0.567397
0.567397
0.567397
0.567398
0.567398
0.567398
0.567398
0.567398
0.567399
0.567399
0.567399
0.567399
0.567399
0.5674
0.5674
0.5674
0.5674
0.5674
0.567401
0.567401
0.567401
0.567401
0.567401
0.567402
0.567402
0.567402
0.567402
0.567403
0.567403
0.567403
0.567403
0.567403
0.567404
0.567404
0.567404
0.567404
0.567404
0.567405
0.567405
0.567405
0.567405
0.567406
0.567406
0.567406
0.567406
0.567406
0.567407
0.567407
0.567407
0.567408
0.567408
0.567408
0.567408
0.567409
0.567409
0.567409
0.567409
0.567409
0.56741
0.56741
0.56741
0.56741
0.567411
0.567411
0.567411
0.567411
0.567412
0.567412
0.567412
0.567412
0.567412
0.567413
0.567413
0.567413
0.567414
0.567414
0.567414
0.567414
0.567415
0.567415
0.567415
0.567415
0.567416
0.567416
0.567416
0.567416
0.567417
0.567417
0.567417
0.567417
0.567417
0.567418
0.567418
0.567418
0.567419
0.567419
0.567419
0.567419
0.56742
0.56742
0.56742
0.56742
0.567421
0.567421
0.567422
0.567422
0.567422
0.567422
0.567423
0.567423
0.567423
0.567423
0.567424
0.567424
0.567424
0.567424
0.567425
0.567425
0.567425
0.567426
0.567426
0.567426
0.567426
0.567427
0.567427
0.567427
0.567427
0.567428
0.567428
0.567429
0.567429
0.567429
0.567429
0.56743
0.56743
0.56743
0.56743
0.567431
0.567431
0.567431
0.567431
0.567432
0.567432
0.567433
0.567433
0.567433
0.567433
0.567434
0.567434
0.567434
0.567434
0.567435
0.567435
0.567436
0.567436
0.567436
0.567436
0.567437
0.567437
0.567437
0.567437
0.567438
0.567438
0.567439
0.567439
0.567439
0.567439
0.56744
0.56744
0.567441
0.567441
0.567441
0.567441
0.567442
0.567442
0.567442
0.567443
0.567443
0.567443
0.567444
0.567444
0.567444
0.567445
0.567445
0.567445
0.567445
0.567446
0.567446
0.567447
0.567447
0.567447
0.567447
0.567448
0.567448
0.567449
0.567449
0.567449
0.567449
0.56745
0.56745
0.56745
0.567451
0.567451
0.567452
0.567452
0.567452
0.567452
0.567453
0.567453
0.567454
0.567454
0.567454
0.567454
0.567455
0.567455
0.567455
0.567456
0.567456
0.567457
0.567457
0.567457
0.567458
0.567458
0.567458
0.567459
0.567459
0.567459
0.56746
0.56746
0.567461
0.567461
0.567461
0.567462
0.567462
0.567462
0.567462
0.567463
0.567463
0.567464
0.567464
0.567464
0.567465
0.567465
0.567466
0.567466
0.567466
0.567467
0.567467
0.567467
0.567468
0.567468
0.567468
0.567469
0.567469
0.56747
0.56747
0.56747
0.567471
0.567471
0.567472
0.567472
0.567472
0.567473
0.567473
0.567474
0.567474
0.567474
0.567474
0.567475
0.567475
0.567475
0.567476
0.567476
0.567477
0.567477
0.567477
0.567478
0.567478
0.567479
0.567479
0.567479
0.56748
0.56748
0.567481
0.567481
0.567481
0.567482
0.567482
0.567483
0.567483
0.567483
0.567484
0.567484
0.567485
0.567485
0.567485
0.567486
0.567486
0.567487
0.567487
0.567487
0.567488
0.567488
0.567489
0.567489
0.567489
0.56749
0.56749
0.567491
0.567491
0.567491
0.567492
0.567492
0.567493
0.567493
0.567493
0.567494
0.567494
0.567495
0.567495
0.567495
0.567496
0.567496
0.567497
0.567497
0.567497
0.567498
0.567499
0.567499
0.5675
0.5675
0.5675
0.567501
0.567501
0.567502
0.567502
0.567502
0.567503
0.567503
0.567504
0.567504
0.567504
0.567505
0.567506
0.567506
0.567506
0.567507
0.567507
0.567508
0.567508
0.567508
0.567509
0.567509
0.56751
0.567511
0.567511
0.567511
0.567512
0.567512
0.567513
0.567513
0.567513
0.567514
0.567514
0.567515
0.567515
0.567516
0.567516
0.567517
0.567517
0.567517
0.567518
0.567518
0.567519
0.56752
0.56752
0.56752
0.567521
0.567521
0.567522
0.567522
0.567522
0.567523
0.567524
0.567524
0.567524
0.567525
0.567525
0.567526
0.567526
0.567526
0.567527
0.567528
0.567528
0.567529
0.567529
0.567529
0.56753
0.567531
0.567531
0.567531
0.567532
0.567532
0.567533
0.567534
0.567534
0.567534
0.567535
0.567535
0.567536
0.567536
0.567536
0.567537
0.567538
0.567538
0.567538
0.567539
0.56754
0.56754
0.567541
0.567541
0.567541
0.567542
0.567543
0.567543
0.567543
0.567544
0.567544
0.567545
0.567546
0.567546
0.567546
0.567547
0.567548
0.567548
0.567548
0.567549
0.567549
0.56755
0.567551
0.567551
0.567551
0.567552
0.567553
0.567553
0.567553
0.567554
0.567555
0.567555
0.567556
0.567556
0.567556
0.567557
0.567558
0.567558
0.567558
0.567559
0.56756
0.56756
0.567561
0.567561
0.567562
0.567562
0.567563
0.567564
0.567564
0.567564
0.567565
0.567566
0.567566
0.567566
0.567567
0.567567
0.567568
0.567569
0.567569
0.567569
0.56757
0.567571
0.567571
0.567571
0.567572
0.567573
0.567573
0.567574
0.567574
0.567575
0.567575
0.567576
0.567577
0.567577
0.567577
0.567578
0.567579
0.567579
0.567579
0.56758
0.567581
0.567582
0.567582
0.567582
0.567583
0.567584
0.567584
0.567585
0.567585
0.567586
0.567586
0.567587
0.567588
0.567588
0.567588
0.567589
0.56759
0.567591
0.567591
0.567591
0.567592
0.567593
0.567593
0.567593
0.567594
0.567595
0.567596
0.567596
0.567596
0.567597
0.567598
0.567598
0.567599
0.567599
0.5676
0.5676
0.567601
0.567602
0.567602
0.567603
0.567603
0.567604
0.567605
0.567605
0.567606
0.567606
0.567607
0.567608
0.567608
0.567608
0.567609
0.56761
0.567611
0.567611
0.567611
0.567612
0.567613
0.567614
0.567614
0.567614
0.567615
0.567616
0.567616
0.567616
0.567617
0.567618
0.567619
0.567619
0.567619
0.56762
0.567621
0.567622
0.567622
0.567622
0.567623
0.567624
0.567625
0.567625
0.567625
0.567626
0.567627
0.567628
0.567628
0.567628
0.567629
0.56763
0.567631
0.567632
0.567632
0.567632
0.567633
0.567634
0.567635
0.567635
0.567635
0.567636
0.567637
0.567638
0.567638
0.567638
0.567639
0.56764
0.567641
0.567641
0.567642
0.567642
0.567643
0.567644
0.567644
0.567645
0.567646
0.567646
0.567647
0.567647
0.567648
0.567649
0.567649
0.56765
0.56765
0.567651
0.567652
0.567653
0.567653
0.567653
0.567654
0.567655
0.567656
0.567657
0.567657
0.567657
0.567658
0.567659
0.56766
0.56766
0.567661
0.567661
0.567662
0.567663
0.567663
0.567664
0.567665
0.567665
0.567666
0.567666
0.567667
0.567668
0.567669
0.56767
0.56767
0.56767
0.567671
0.567672
0.567673
0.567673
0.567674
0.567675
0.567675
0.567676
0.567676
0.567677
0.567678
0.567679
0.56768
0.56768
0.56768
0.567681
0.567682
0.567683
0.567683
0.567684
0.567685
0.567686
0.567686
0.567686
0.567687
0.567688
0.567689
0.56769
0.56769
0.567691
0.567691
0.567692
0.567693
0.567693
0.567694
0.567695
0.567696
0.567697
0.567697
0.567697
0.567698
0.567699
0.5677
0.5677
0.567701
0.567702
0.567703
0.567704
0.567704
0.567704
0.567705
0.567706
0.567707
0.567707
0.567708
0.567709
0.56771
0.567711
0.567711
0.567711
0.567712
0.567713
0.567714
0.567714
0.567715
0.567716
0.567717
0.567718
0.567718
0.567719
0.567719
0.56772
0.567721
0.567721
0.567722
0.567723
0.567724
0.567725
0.567725
0.567726
0.567727
0.567728
0.567728
0.567728
0.567729
0.56773
0.567731
0.567732
0.567732
0.567733
0.567734
0.567735
0.567736
0.567736
0.567737
0.567738
0.567739
0.567739
0.567739
0.56774
0.567741
0.567742
0.567743
0.567743
0.567744
0.567745
0.567746
0.567747
0.567747
0.567748
0.567749
0.56775
0.567751
0.567751
0.567751
0.567752
0.567753
0.567754
0.567754
0.567755
0.567756
0.567757
0.567758
0.567758
0.567759
0.56776
0.567761
0.567762
0.567762
0.567763
0.567764
0.567765
0.567766
0.567766
0.567767
0.567768
0.567769
0.56777
0.56777
0.567771
0.567772
0.567773
0.567774
0.567774
0.567774
0.567775
0.567776
0.567777
0.567777
0.567778
0.567779
0.56778
0.567781
0.567781
0.567782
0.567783
0.567784
0.567785
0.567785
0.567786
0.567787
0.567788
0.567789
0.567789
0.56779
0.567791
0.567792
0.567793
0.567793
0.567794
0.567795
0.567796
0.567797
0.567797
0.567798
0.567799
0.5678
0.567801
0.567801
0.567802
0.567803
0.567804
0.567805
0.567805
0.567806
0.567807
0.567808
0.567809
0.567809
0.56781
0.567811
0.567812
0.567813
0.567813
0.567814
0.567815
0.567816
0.567817
0.567817
0.567818
0.567819
0.567821
0.567822
0.567822
0.567823
0.567824
0.567825
0.567826
0.567826
0.567827
0.567828
0.567829
0.56783
0.56783
0.567831
0.567832
0.567833
0.567834
0.567834
0.567835
0.567836
0.567837
0.567838
0.567838
0.567839
0.56784
0.567841
0.567842
0.567842
0.567843
0.567845
0.567846
0.567847
0.567847
0.567848
0.567849
0.56785
0.567851
0.567851
0.567852
0.567853
0.567854
0.567855
0.567855
0.567856
0.567857
0.567859
0.56786
0.56786
0.567861
0.567862
0.567863
0.567864
0.567864
0.567865
0.567866
0.567867
0.567868
0.567868
0.567869
0.56787
0.567872
0.567873
0.567873
0.567874
0.567875
0.567876
0.567877
0.567877
0.567878
0.567879
0.56788
0.567881
0.567881
0.567883
0.567884
0.567885
0.567886
0.567886
0.567887
0.567888
0.567889
0.56789
0.56789
0.567891
0.567893
0.567894
0.567895
0.567895
0.567896
0.567897
0.567898
0.567899
0.567899
0.567901
0.567902
0.567903
0.567904
0.567904
0.567905
0.567906
0.567907
0.567909
0.567909
0.56791
0.567911
0.567912
0.567913
0.567913
0.567914
0.567915
0.567917
0.567918
0.567918
0.567919
0.56792
0.567921
0.567922
0.567922
0.567923
0.567925
0.567926
0.567927
0.567927
0.567928
0.567929
0.56793
0.567932
0.567932
0.567933
0.567934
0.567935
0.567936
0.567936
0.567937
0.567939
0.56794
0.567941
0.567941
0.567942
0.567943
0.567945
0.567946
0.567946
0.567947
0.567948
0.567949
0.567951
0.567951
0.567952
0.567953
0.567954
0.567955
0.567955
0.567957
0.567958
0.567959
0.56796
0.56796
0.567961
0.567963
0.567964
0.567965
0.567965
0.567966
0.567967
0.567969
0.56797
0.56797
0.567971
0.567972
0.567973
0.567975
0.567975
0.567976
0.567977
0.567978
0.56798
0.56798
0.567981
0.567982
0.567983
0.567984
0.567984
0.567986
0.567987
0.567988
0.567989
0.567989
0.567991
0.567992
0.567993
0.567994
0.567994
0.567996
0.567997
0.567998
0.567999
0.567999
0.568001
0.568002
0.568003
0.568004
0.568004
0.568006
0.568007
0.568008
0.56801
0.56801
0.568011
0.568012
0.568013
0.568015
0.568015
0.568016
0.568017
0.568018
0.56802
0.56802
0.568021
0.568022
0.568023
0.568025
0.568025
0.568026
0.568027
0.568029
0.56803
0.56803
0.568031
0.568032
0.568034
0.568035
0.568035
0.568036
0.568038
0.568039
0.56804
0.56804
0.568042
0.568043
0.568044
0.568045
0.568045
0.568047
0.568048
0.568049
0.568051
0.568051
0.568052
0.568053
0.568055
0.568056
0.568056
0.568057
0.568059
0.56806
0.568061
0.568061
0.568063
0.568064
0.568065
0.568067
0.568067
0.568068
0.568069
0.568071
0.568072
0.568072
0.568073
0.568075
0.568076
0.568077
0.568077
0.568079
0.56808
0.568081
0.568083
0.568083
0.568084
0.568085
0.568087
0.568088
0.568088
0.568089
0.568091
0.568092
0.568093
0.568093
0.568095
0.568096
0.568098
0.568099
0.568099
0.5681
0.568102
0.568103
0.568104
0.568104
0.568106
0.568107
0.568109
0.56811
0.56811
0.568111
0.568113
0.568114
0.568115
0.568115
0.568117
0.568118
0.56812
0.568121
0.568121
0.568122
0.568124
0.568125
0.568127
0.568127
0.568128
0.568129
0.568131
0.568132
0.568132
0.568134
0.568135
0.568136
0.568138
0.568138
0.568139
0.568141
0.568142
0.568143
0.568143
0.568145
0.568146
0.568148
0.568149
0.568149
0.568151
0.568152
0.568153
0.568155
0.568155
0.568156
0.568158
0.568159
0.568161
0.568161
0.568162
0.568163
0.568165
0.568166
0.568166
0.568168
0.568169
0.568171
0.568172
0.568172
0.568174
0.568175
0.568176
0.568178
0.568178
0.568179
0.568181
0.568182
0.568184
0.568184
0.568185
0.568187
0.568188
0.56819
0.56819
0.568191
0.568193
0.568194
0.568196
0.568196
0.568197
0.568199
0.5682
0.568201
0.568201
0.568203
0.568204
0.568206
0.568207
0.568207
0.568209
0.56821
0.568212
0.568213
0.568213
0.568215
0.568216
0.568218
0.568219
0.568219
0.568221
0.568222
0.568224
0.568225
0.568225
0.568227
0.568228
0.56823
0.568231
0.568231
0.568233
0.568234
0.568236
0.568238
0.568238
0.568239
0.568241
0.568242
0.568244
0.568244
0.568245
0.568247
0.568248
0.56825
0.56825
0.568251
0.568253
0.568254
0.568256
0.568256
0.568257
0.568259
0.568261
0.568262
0.568262
0.568264
0.568265
0.568267
0.568268
0.568268
0.56827
0.568271
0.568273
0.568274
0.568274
0.568276
0.568278
0.568279
0.568281
0.568281
0.568282
0.568284
0.568286
0.568287
0.568287
0.568289
0.56829
0.568292
0.568293
0.568293
0.568295
0.568297
0.568298
0.5683
0.5683
0.568301
0.568303
0.568305
0.568306
0.568306
0.568308
0.568309
0.568311
0.568312
0.568312
0.568314
0.568316
0.568317
0.568319
0.568319
0.568321
0.568322
0.568324
0.568325
0.568325
0.568327
0.568329
0.56833
0.568332
0.568332
0.568334
0.568335
0.568337
0.568338
0.568338
0.56834
0.568342
0.568343
0.568345
0.568345
0.568347
0.568348
0.56835
0.568352
0.568352
0.568353
0.568355
0.568356
0.568358
0.568358
0.56836
0.568361
0.568363
0.568365
0.568365
0.568366
0.568368
0.56837
0.568371
0.568371
0.568373
0.568375
0.568376
0.568378
0.568378
0.56838
0.568381
0.568383
0.568385
0.568385
0.568386
0.568388
0.56839
0.568392
0.568392
0.568393
0.568395
0.568397
0.568398
0.568398
0.5684
0.568402
0.568403
0.568405
0.568405
0.568407
0.568409
0.56841
0.568412
0.568412
0.568414
0.568415
0.568417
0.568419
0.568419
0.56842
0.568422
0.568424
0.568426
0.568426
0.568427
0.568429
0.568431
0.568433
0.568433
0.568434
0.568436
0.568438
0.56844
0.56844
0.568441
0.568443
0.568445
0.568447
0.568447
0.568448
0.56845
0.568452
0.568454
0.568454
0.568455
0.568457
0.568459
0.568461
0.568461
0.568462
0.568464
0.568466
0.568468
0.568468
0.568469
0.568471
0.568473
0.568475
0.568475
0.568476
0.568478
0.56848
0.568482
0.568482
0.568484
0.568485
0.568487
0.568489
0.568489
0.568491
0.568493
0.568494
0.568496
0.568496
0.568498
0.5685
0.568502
0.568503
0.568503
0.568505
0.568507
0.568509
0.568511
0.568511
0.568512
0.568514
0.568516
0.568518
0.568518
0.56852
0.568522
0.568523
0.568525
0.568525
0.568527
0.568529
0.568531
0.568532
0.568532
0.568534
0.568536
0.568538
0.56854
0.56854
0.568542
0.568544
0.568545
0.568547
0.568547
0.568549
0.568551
0.568553
0.568555
0.568555
0.568557
0.568558
0.56856
0.568562
0.568562
0.568564
0.568566
0.568568
0.56857
0.56857
0.568572
0.568573
0.568575
0.568577
0.568577
0.568579
0.568581
0.568583
0.568585
0.568585
0.568587
0.568589
0.56859
0.568592
0.568592
0.568594
0.568596
0.568598
0.5686
0.5686
0.568602
0.568604
0.568606
0.568608
0.568608
0.56861
0.568611
0.568613
0.568615
0.568615
0.568617
0.568619
0.568621
0.568623
0.568623
0.568625
0.568627
0.568629
0.568631
0.568631
0.568633
0.568635
0.568637
0.568638
0.568638
0.56864
0.568642
0.568644
0.568646
0.568646
0.568648
0.56865
0.568652
0.568654
0.568654
0.568656
0.568658
0.56866
0.568662
0.568662
0.568664
0.568666
0.568668
0.56867
0.56867
0.568672
0.568674
0.568676
0.568678
0.568678
0.56868
0.568682
0.568684
0.568686
0.568686
0.568688
0.56869
0.568692
0.568694
0.568694
0.568696
0.568698
0.5687
0.568702
0.568702
0.568704
0.568706
0.568708
0.56871
0.56871
0.568712
0.568714
0.568716
0.568718
0.568718
0.56872
0.568722
0.568724
0.568726
0.568726
0.568728
0.56873
0.568732
0.568734
0.568734
0.568736
0.568739
0.568741
0.568743
0.568743
0.568745
0.568747
0.568749
0.568751
0.568751
0.568753
0.568755
0.568757
0.568759
0.568759
0.568761
0.568763
0.568765
0.568767
0.568767
0.56877
0.568772
0.568774
0.568776
0.568776
0.568778
0.56878
0.568782
0.568784
0.568784
0.568786
0.568788
0.56879
0.568793
0.568793
0.568795
0.568797
0.568799
0.568801
0.568801
0.568803
0.568805
0.568807
0.568809
0.568809
0.568812
0.568814
0.568816
0.568818
0.568818
0.56882
0.568822
0.568824
0.568827
0.568827
0.568829
0.568831
0.568833
0.568835
0.568835
0.568837
0.56884
0.568842
0.568844
0.568844
0.568846
0.568848
0.56885
0.568852
0.568852
0.568855
0.568857
0.568859
0.568861
0.568861
0.568863
0.568865
0.568868
0.56887
0.56887
0.568872
0.568874
0.568876
0.568879
0.568879
0.568881
0.568883
0.568885
0.568887
0.568887
0.56889
0.568892
0.568894
0.568896
0.568896
0.568899
0.568901
0.568903
0.568905
0.568905
0.568907
0.56891
0.568912
0.568914
0.568914
0.568916
0.568919
0.568921
0.568923
0.568923
0.568925
0.568927
0.56893
0.568932
0.568932
0.568934
0.568937
0.568939
0.568941
0.568941
0.568943
0.568946
0.568948
0.56895
0.56895
0.568952
0.568955
0.568957
0.568959
0.568959
0.568961
0.568964
0.568966
0.568968
0.568968
0.568971
0.568973
0.568975
0.568977
0.568977
0.56898
0.568982
0.568984
0.568987
0.568987
0.568989
0.568991
0.568994
0.568996
0.568996
0.568998
0.569001
0.569003
0.569005
0.569005
0.569008
0.56901
0.569012
0.569015
0.569015
0.569017
0.569019
0.569022
0.569024
0.569024
0.569026
0.569029
0.569031
0.569033
0.569033
0.569036
0.569038
0.56904
0.569043
0.569043
0.569045
0.569047
0.56905
0.569052
0.569052
0.569055
0.569057
0.569059
0.569062
0.569062
0.569064
0.569066
0.569069
0.569071
0.569071
0.569074
0.569076
0.569078
0.569081
0.569081
0.569083
0.569086
0.569088
0.56909
0.56909
0.569093
0.569095
0.569098
0.5691
0.5691
0.569103
0.569105
0.569107
0.56911
0.56911
0.569112
0.569115
0.569117
0.56912
0.56912
0.569122
0.569124
0.569127
0.569129
0.569129
0.569132
0.569134
0.569137
0.569139
0.569139
0.569142
0.569144
0.569147
0.569149
0.569149
0.569151
0.569154
0.569156
0.569159
0.569159
0.569161
0.569164
0.569166
0.569169
0.569169
0.569171
0.569174
0.569176
0.569179
0.569179
0.569181
0.569184
0.569186
0.569189
0.569189
0.569191
0.569194
0.569196
0.569199
0.569199
0.569202
0.569204
0.569207
0.569209
0.569209
0.569212
0.569214
0.569217
0.569219
0.569219
0.569222
0.569224
0.569227
0.569229
0.569229
0.569232
0.569235
0.569237
0.56924
0.56924
0.569242
0.569245
0.569247
0.56925
0.56925
0.569253
0.569255
0.569258
0.56926
0.56926
0.569263
0.569265
0.569268
0.569271
0.569271
0.569273
0.569276
0.569278
0.569281
0.569281
0.569284
0.569286
0.569289
0.569291
0.569291
0.569294
0.569297
0.569299
0.569302
0.569302
0.569305
0.569307
0.56931
0.569312
0.569312
0.569315
0.569318
0.56932
0.569323
0.569323
0.569326
0.569328
0.569331
0.569334
0.569334
0.569336
0.569339
0.569342
0.569344
0.569344
0.569347
0.56935
0.569352
0.569355
0.569355
0.569358
0.56936
0.569363
0.569366
0.569366
0.569368
0.569371
0.569374
0.569377
0.569377
0.569379
0.569382
0.569385
0.569387
0.569387
0.56939
0.569393
0.569395
0.569398
0.569398
0.569401
0.569404
0.569406
0.569409
0.569409
0.569412
0.569415
0.569417
0.56942
0.56942
0.569423
0.569426
0.569428
0.569431
0.569431
0.569434
0.569437
0.569439
0.569442
0.569442
0.569445
0.569448
0.569451
0.569453
0.569453
0.569456
0.569459
0.569462
0.569464
0.569464
0.569467
0.56947
0.569473
0.569476
0.569476
0.569478
0.569481
0.569484
0.569487
0.569487
0.56949
0.569493
0.569495
0.569498
0.569498
0.569501
0.569504
0.569507
0.569509
0.569509
0.569512
0.569515
0.569518
0.569521
0.569521
0.569524
0.569526
0.569529
0.569532
0.569532
0.569535
0.569538
0.569541
0.569544
0.569544
0.569547
0.569549
0.569552
0.569555
0.569555
0.569558
0.569561
0.569564
0.569567
0.569567
0.56957
0.569573
0.569575
0.569578
0.569578
0.569581
0.569584
0.569587
0.56959
0.56959
0.569593
0.569596
0.569599
0.569602
0.569602
0.569605
0.569608
0.569611
0.569613
0.569613
0.569616
0.569619
0.569622
0.569625
0.569625
0.569628
0.569631
0.569634
0.569637
0.569637
0.56964
0.569643
0.569646
0.569649
0.569649
0.569652
0.569655
0.569658
0.569661
0.569661
0.569664
0.569667
0.56967
0.569673
0.569673
0.569676
0.569679
0.569682
0.569685
0.569685
0.569688
0.569691
0.569694
0.569697
0.569697
0.5697
0.569703
0.569706
0.569709
0.569709
0.569712
0.569715
0.569718
0.569721
0.569721
0.569724
0.569727
0.569731
0.569734
0.569734
0.569737
0.56974
0.569743
0.569746
0.569746
0.569749
0.569752
0.569755
0.569758
0.569758
0.569761
0.569764
0.569768
0.569771
0.569771
0.569774
0.569777
0.56978
0.569783
0.569783
0.569786
0.569789
0.569792
0.569795
0.569795
0.569799
0.569802
0.569805
0.569808
0.569808
0.569811
0.569814
0.569818
0.569821
0.569821
0.569824
0.569827
0.56983
0.569833
0.569833
0.569836
0.56984
0.569843
0.569846
0.569846
0.569849
0.569852
0.569856
0.569859
0.569859
0.569862
0.569865
0.569868
0.569872
0.569872
0.569875
0.569878
0.569881
0.569884
0.569884
0.569888
0.569891
0.569894
0.569897
0.569897
0.569901
0.569904
0.569907
0.56991
0.56991
0.569913
0.569917
0.56992
0.569923
0.569923
0.569926
0.56993
0.569933
0.569936
0.569936
0.56994
0.569943
0.569946
0.569949
0.569949
0.569953
0.569956
0.569959
0.569963
0.569963
0.569966
0.569969
0.569972
0.569976
0.569976
0.569979
0.569982
0.569986
0.569989
0.569989
0.569992
0.569996
0.569999
0.570002
0.570002
0.570006
0.570009
0.570012
0.570016
0.570016
0.570019
0.570022
0.570026
0.570029
0.570029
0.570033
0.570036
0.570039
0.570043
0.570043
0.570046
0.570049
0.570053
0.570056
0.570056
0.57006
0.570063
0.570066
0.57007
0.57007
0.570073
0.570077
0.57008
0.570084
0.570084
0.570087
0.57009
0.570094
0.570097
0.570097
0.570101
0.570104
0.570108
0.570111
0.570111
0.570114
0.570118
0.570121
0.570125
0.570125
0.570128
0.570132
0.570135
0.570139
0.570139
0.570142
0.570146
0.570149
0.570153
0.570153
0.570156
0.57016
0.570163
0.570167
0.570167
0.57017
0.570174
0.570177
0.570181
0.570181
0.570184
0.570188
0.570191
0.570195
0.570195
0.570198
0.570202
0.570205
0.570209
0.570209
0.570213
0.570216
0.57022
0.570223
0.570223
0.570227
0.57023
0.570234
0.570238
0.570238
0.570241
0.570245
0.570248
0.570252
0.570252
0.570256
0.570259
0.570263
0.570266
0.570266
0.57027
0.570274
0.570277
0.570281
0.570281
0.570284
0.570288
0.570292
0.570295
0.570295
0.570299
0.570303
0.570306
0.57031
0.57031
0.570314
0.570317
0.570321
0.570325
0.570325
0.570328
0.570332
0.570336
0.570339
0.570339
0.570343
0.570347
0.57035
0.570354
0.570354
0.570358
0.570361
0.570365
0.570369
0.570369
0.570373
0.570376
0.57038
0.570384
0.570384
0.570387
0.570391
0.570395
0.570399
0.570399
0.570402
0.570406
0.57041
0.570414
0.570414
0.570417
0.570421
0.570425
0.570429
0.570429
0.570433
0.570436
0.57044
0.570444
0.570444
0.570448
0.570452
0.570455
0.570459
0.570459
0.570463
0.570467
0.570471
0.570474
0.570474
0.570478
0.570482
0.570486
0.57049
0.57049
0.570494
0.570497
0.570501
0.570505
0.570505
0.570509
0.570513
0.570517
0.570521
0.570521
0.570524
0.570528
0.570532
0.570536
0.570536
0.57054
0.570544
0.570548
0.570552
0.570552
0.570556
0.57056
0.570563
0.570567
0.570567
0.570571
0.570575
0.570579
0.570583
0.570583
0.570587
0.570591
0.570595
0.570599
0.570599
0.570603
0.570607
0.570611
0.570615
0.570615
0.570619
0.570623
0.570627
0.570631
0.570631
0.570635
0.570639
0.570643
0.570647
0.570647
0.570651
0.570655
0.570659
0.570663
0.570663
0.570667
0.570671
0.570675
0.570679
0.570679
0.570683
0.570687
0.570691
0.570695
0.570695
0.570699
0.570703
0.570707
0.570711
0.570711
0.570715
0.570719
0.570723
0.570728
0.570728
0.570732
0.570736
0.57074
0.570744
0.570744
0.570748
0.570752
0.570756
0.57076
0.57076
0.570765
0.570769
0.570773
0.570777
0.570777
0.570781
0.570785
0.570789
0.570794
0.570794
0.570798
0.570802
0.570806
0.57081
0.57081
0.570814
0.570819
0.570823
0.570827
0.570827
0.570831
0.570835
0.57084
0.570844
0.570844
0.570848
0.570852
0.570856
0.570861
0.570861
0.570865
0.570869
0.570873
0.570878
0.570878
0.570882
0.570886
0.57089
0.570895
0.570895
0.570899
0.570903
0.570907
0.570912
0.570912
0.570916
0.57092
0.570925
0.570929
0.570929
0.570933
0.570938
0.570942
0.570946
0.570946
0.57095
0.570955
0.570959
0.570963
0.570963
0.570968
0.570972
0.570976
0.570981
0.570981
0.570985
0.57099
0.570994
0.570998
0.570998
0.571003
0.571007
0.571011
0.571016
0.571016
0.57102
0.571025
0.571029
0.571033
0.571033
0.571038
0.571042
0.571047
0.571051
0.571051
0.571056
0.57106
0.571064
0.571069
0.571069
0.571073
0.571078
0.571082
0.571087
0.571087
0.571091
0.571096
0.5711
0.571105
0.571105
0.571109
0.571114
0.571118
0.571123
0.571123
0.571127
0.571132
0.571136
0.571141
0.571141
0.571145
0.57115
0.571154
0.571159
0.571159
0.571163
0.571168
0.571172
0.571177
0.571177
0.571182
0.571186
0.571191
0.571195
0.571195
0.5712
0.571204
0.571209
0.571214
0.571214
0.571218
0.571223
0.571227
0.571232
0.571232
0.571237
0.571241
0.571246
0.571251
0.571251
0.571255
0.57126
0.571265
0.571269
0.571269
0.571274
0.571279
0.571283
0.571288
0.571288
0.571293
0.571297
0.571302
0.571307
0.571307
0.571311
0.571316
0.571321
0.571326
0.571326
0.57133
0.571335
0.57134
0.571344
0.571344
0.571349
0.571354
0.571359
0.571363
0.571363
0.571368
0.571373
0.571378
0.571383
0.571383
0.571387
0.571392
0.571397
0.571402
0.571402
0.571406
0.571411
0.571416
0.571421
0.571421
0.571426
0.571431
0.571435
0.57144
0.57144
0.571445
0.57145
0.571455
0.57146
0.57146
0.571465
0.571469
0.571474
0.571479
0.571479
0.571484
0.571489
0.571494
0.571499
0.571499
0.571504
0.571509
0.571514
0.571518
0.571518
0.571523
0.571528
0.571533
0.571538
0.571538
0.571543
0.571548
0.571553
0.571558
0.571558
0.571563
0.571568
0.571573
0.571578
0.571578
0.571583
0.571588
0.571593
0.571598
0.571598
0.571603
0.571608
0.571613
0.571618
0.571618
0.571623
0.571628
0.571633
0.571638
0.571638
0.571643
0.571648
0.571653
0.571659
0.571659
0.571664
0.571669
0.571674
0.571679
0.571679
0.571684
0.571689
0.571694
0.571699
0.571699
0.571705
0.57171
0.571715
0.57172
0.57172
0.571725
0.57173
0.571735
0.571741
0.571741
0.571746
0.571751
0.571756
0.571761
0.571761
0.571766
0.571772
0.571777
0.571782
0.571782
0.571787
0.571793
0.571798
0.571803
0.571803
0.571808
0.571813
0.571819
0.571824
0.571824
0.571829
0.571834
0.57184
0.571845
0.571845
0.57185
0.571856
0.571861
0.571866
0.571866
0.571872
0.571877
0.571882
0.571888
0.571888
0.571893
0.571898
0.571904
0.571909
0.571909
0.571914
0.57192
0.571925
0.57193
0.57193
0.571936
0.571941
0.571946
0.571952
0.571952
0.571957
0.571963
0.571968
0.571974
0.571974
0.571979
0.571984
0.57199
0.571995
0.571995
0.572001
0.572006
0.572012
0.572017
0.572017
0.572023
0.572028
0.572033
0.572039
0.572039
0.572045
0.57205
0.572056
0.572061
0.572061
0.572067
0.572072
0.572078
0.572083
0.572083
0.572089
0.572094
0.5721
0.572105
0.572105
0.572111
0.572117
0.572122
0.572128
0.572128
0.572133
0.572139
0.572144
0.57215
0.57215
0.572156
0.572161
0.572167
0.572173
0.572173
0.572178
0.572184
0.57219
0.572195
0.572195
0.572201
0.572207
0.572212
0.572218
0.572218
0.572224
0.572229
0.572235
0.572241
0.572241
0.572246
0.572252
0.572258
0.572264
0.572264
0.572269
0.572275
0.572281
0.572287
0.572287
0.572292
0.572298
0.572304
0.57231
0.57231
0.572316
0.572321
0.572327
0.572333
0.572333
0.572339
0.572345
0.572351
0.572356
0.572356
0.572362
0.572368
0.572374
0.57238
0.57238
0.572386
0.572392
0.572397
0.572403
0.572403
0.572409
0.572415
0.572421
0.572427
0.572427
0.572433
0.572439
0.572445
0.572451
0.572451
0.572457
0.572463
0.572469
0.572475
0.572475
0.572481
0.572487
0.572493
0.572499
0.572499
0.572505
0.572511
0.572517
0.572523
0.572523
0.572529
0.572535
0.572541
0.572547
0.572547
0.572553
0.572559
0.572565
0.572571
0.572571
0.572577
0.572583
0.572589
0.572595
0.572595
0.572602
0.572608
0.572614
0.57262
0.57262
0.572626
0.572632
0.572638
0.572645
0.572645
0.572651
0.572657
0.572663
0.572669
0.572669
0.572675
0.572682
0.572688
0.572694
0.572694
0.5727
0.572707
0.572713
0.572719
0.572719
0.572725
0.572732
0.572738
0.572744
0.572744
0.57275
0.572757
0.572763
0.572769
0.572769
0.572776
0.572782
0.572788
0.572795
0.572795
0.572801
0.572807
0.572814
0.57282
0.57282
0.572826
0.572833
0.572839
0.572845
0.572845
0.572852
0.572858
0.572865
0.572871
0.572871
0.572878
0.572884
0.57289
0.572897
0.572897
0.572903
0.57291
0.572916
0.572923
0.572923
0.572929
0.572936
0.572942
0.572949
0.572949
0.572955
0.572962
0.572968
0.572975
0.572975
0.572981
0.572988
0.572994
0.573001
0.573001
0.573008
0.573014
0.573021
0.573027
0.573027
0.573034
0.573041
0.573047
0.573054
0.573054
0.57306
0.573067
0.573074
0.57308
0.57308
0.573087
0.573094
0.5731
0.573107
0.573107
0.573114
0.57312
0.573127
0.573134
0.573134
0.573141
0.573147
0.573154
0.573161
0.573161
0.573168
0.573174