<?xml version="1.0"?>
<VTKFile type="UnstructuredGrid" version="0.1" byte_order="LittleEndian">
<UnstructuredGrid>
<Piece NumberOfPoints="5000" NumberOfCells="4000">
<PointData Scalars="Reaction 0">
<DataArray type="Float32" Name="Reaction 0" format="ascii">
0.566729
0.566729
0.566729
0.566729
0.566729
0.566729
0.566729
0.566729
0.566729
0.566729
0.566729
0.566729
0.566729
0.566729
0.566729
0.566729
0.566729
0.566729
0.566729
0.566729
0.566729
0.566729
0.566729
0.566729
0.566729
0.566729
0.566729
0.566729
0.566729
0.566729
0.566729
0.566729
0.566729
0.566729
0.566729
0.566729
0.566729
0.566729
0.566729
0.566729
0.566729
0.566729
0.566729
0.566729
0.566729
0.566729
0.566729
0.566729
0.566729
0.566729
0.566729
0.566729
0.566729
0.566729
0.566729
0.566729
0.566729
0.566729
0.56673
0.56673
0.56673
0.56673
0.56673
0.56673
0.56673
0.56673
0.56673
0.56673
0.56673
0.56673
0.56673
0.56673
0.56673
0.56673
0.56673
0.56673
0.56673
0.56673
0.56673
0.56673
0.56673
0.56673
0.56673
0.56673
0.566731
0.566731
0.566731
0.566731
0.566731
0.566731
0.566731
0.566731
0.566731
0.566731
0.566731
0.566731
0.566731
0.566731
0.566731
0.566731
0.566731
0.566731
0.566731
0.566731
0.566732
0.566732
0.566732
0.566732
0.566732
0.566732
0.566732
0.566732
0.566732
0.566732
0.566732
0.566732
0.566732
0.566732
0.566732
0.566732
0.566732
0.566732
0.566733
0.566733
0.566733
0.566733
0.566733
0.566733
0.566733
0.566733
0.566733
0.566733
0.566733
0.566733
0.566733
0.566733
0.566733
0.566734
0.566734
0.566734
0.566734
0.566734
0.566734
0.566734
0.566734
0.566734
0.566734
0.566734
0.566734
0.566735
0.566735
0.566735
0.566735
0.566735
0.566735
0.566735
0.566735
0.566735
0.566735
0.566735
0.566735
0.566735
0.566736
0.566736
0.566736
0.566736
0.566736
0.566736
0.566736
0.566736
0.566736
0.566736
0.566736
0.566737
0.566737
0.566737
0.566737
0.566737
0.566737
0.566737
0.566737
0.566737
0.566737
0.566737
0.566738
0.566738
0.566738
0.566738
0.566738
0.566738
0.566738
0.566738
0.566738
0.566738
0.566739
0.566739
0.566739
0.566739
0.566739
0.566739
0.566739
0.566739
0.566739
0.56674
0.56674
0.56674
0.56674
0.56674
0.56674
0.56674
0.56674
0.56674
0.56674
0.566741
0.566741
0.566741
0.566741
0.566741
0.566741
0.566741
0.566741
0.566741
0.566742
0.566742
0.566742
0.566742
0.566742
0.566742
0.566742
0.566743
0.566743
0.566743
0.566743
0.566743
0.566743
0.566743
0.566743
0.566743
0.566744
0.566744
0.566744
0.566744
0.566744
0.566744
0.566744
0.566744
0.566745
0.566745
0.566745
0.566745
0.566745
0.566745
0.566745
0.566746
0.566746
0.566746
0.566746
0.566746
0.566746
0.566746
0.566746
0.566747
0.566747
0.566747
0.566747
0.566747
0.566747
0.566747
0.566748
0.566748
0.566748
0.566748
0.566748
0.566748
0.566749
0.566749
0.566749
0.566749
0.566749
0.566749
0.566749
0.566749
0.56675
0.56675
0.56675
0.56675
0.56675
0.56675
0.566751
0.566751
0.566751
0.566751
0.566751
0.566751
0.566752
0.566752
0.566752
0.566752
0.566752
0.566752
0.566752
0.566753
0.566753
0.566753
0.566753
0.566753
0.566753
0.566754
0.566754
0.566754
0.566754
0.566754
0.566754
0.566755
0.566755
0.566755
0.566755
0.566755
0.566755
0.566756
0.566756
0.566756
0.566756
0.566756
0.566756
0.566756
0.566757
0.566757
0.566757
0.566757
0.566757
0.566758
0.566758
0.566758
0.566758
0.566758
0.566758
0.566759
0.566759
0.566759
0.566759
0.566759
0.56676
0.56676
0.56676
0.56676
0.56676
0.56676
0.566761
0.566761
0.566761
0.566761
0.566761
0.566762
0.566762
0.566762
0.566762
0.566762
0.566763
0.566763
0.566763
0.566763
0.566763
0.566764
0.566764
0.566764
0.566764
0.566764
0.566764
0.566765
0.566765
0.566765
0.566765
0.566765
0.566766
0.566766
0.566766
0.566766
0.566766
0.566767
0.566767
0.566767
0.566767
0.566767
0.566768
0.566768
0.566768
0.566768
0.566768
0.566769
0.566769
0.566769
0.566769
0.56677
0.56677
0.56677
0.56677
0.56677
0.566771
0.566771
0.566771
0.566771
0.566771
0.566772
0.566772
0.566772
0.566772
0.566772
0.566773
0.566773
0.566773
0.566773
0.566774
0.566774
0.566774
0.566774
0.566774
0.566775
0.566775
0.566775
0.566775
0.566775
0.566776
0.566776
0.566776
0.566776
0.566777
0.566777
0.566777
0.566777
0.566777
0.566778
0.566778
0.566778
0.566779
0.566779
0.566779
0.566779
0.56678
0.56678
0.56678
0.56678
0.56678
0.566781
0.566781
0.566781
0.566781
0.566782
0.566782
0.566782
0.566782
0.566782
0.566783
0.566783
0.566783
0.566783
0.566784
0.566784
0.566784
0.566785
0.566785
0.566785
0.566785
0.566786
0.566786
0.566786
0.566786
0.566786
0.566787
0.566787
0.566787
0.566787
0.566788
0.566788
0.566788
0.566788
0.566789
0.566789
0.566789
0.56679
0.56679
0.56679
0.56679
0.566791
0.566791
0.566791
0.566791
0.566792
0.566792
0.566792
0.566792
0.566793
0.566793
0.566793
0.566794
0.566794
0.566794
0.566794
0.566795
0.566795
0.566795
0.566795
0.566796
0.566796
0.566796
0.566796
0.566797
0.566797
0.566797
0.566798
0.566798
0.566798
0.566798
0.566799
0.566799
0.566799
0.566799
0.5668
0.5668
0.5668
0.5668
0.566801
0.566801
0.566801
0.566802
0.566802
0.566802
0.566802
0.566803
0.566803
0.566803
0.566803
0.566804
0.566804
0.566804
0.566804
0.566805
0.566805
0.566806
0.566806
0.566806
0.566806
0.566807
0.566807
0.566807
0.566807
0.566808
0.566808
0.566809
0.566809
0.566809
0.566809
0.56681
0.56681
0.56681
0.56681
0.566811
0.566811
0.566811
0.566812
0.566812
0.566812
0.566813
0.566813
0.566813
0.566813
0.566814
0.566814
0.566815
0.566815
0.566815
0.566815
0.566816
0.566816
0.566816
0.566816
0.566817
0.566817
0.566818
0.566818
0.566818
0.566818
0.566819
0.566819
0.56682
0.56682
0.56682
0.56682
0.566821
0.566821
0.566821
0.566822
0.566822
0.566822
0.566823
0.566823
0.566823
0.566824
0.566824
0.566824
0.566824
0.566825
0.566825
0.566826
0.566826
0.566826
0.566826
0.566827
0.566827
0.566828
0.566828
0.566828
0.566828
0.566829
0.566829
0.566829
0.56683
0.56683
0.56683
0.566831
0.566831
0.566831
0.566832
0.566832
0.566833
0.566833
0.566833
0.566833
0.566834
0.566834
0.566834
0.566835
0.566835
0.566836
0.566836
0.566836
0.566836
0.566837
0.566837
0.566838
0.566838
0.566838
0.566839
0.566839
0.566839
0.566839
0.56684
0.56684
0.566841
0.566841
0.566841
0.566842
0.566842
0.566843
0.566843
0.566843
0.566843
0.566844
0.566844
0.566845
0.566845
0.566845
0.566846
0.566846
0.566847
0.566847
0.566847
0.566847
0.566848
0.566848
0.566848
0.566849
0.566849
0.56685
0.56685
0.56685
0.566851
0.566851
0.566852
0.566852
0.566852
0.566852
0.566853
0.566853
0.566854
0.566854
0.566854
0.566855
0.566855
0.566856
0.566856
0.566856
0.566857
0.566857
0.566858
0.566858
0.566858
0.566859
0.566859
0.566859
0.566859
0.56686
0.56686
0.566861
0.566861
0.566861
0.566862
0.566862
0.566863
0.566863
0.566863
0.566864
0.566864
0.566865
0.566865
0.566865
0.566866
0.566866
0.566867
0.566867
0.566867
0.566868
0.566868
0.566869
0.566869
0.566869
0.56687
0.56687
0.566871
0.566871
0.566871
0.566872
0.566872
0.566873
0.566873
0.566873
0.566874
0.566874
0.566875
0.566875
0.566875
0.566876
0.566876
0.566877
0.566877
0.566877
0.566878
0.566878
0.566879
0.566879
0.566879
0.56688
0.56688
0.566881
0.566881
0.566881
0.566882
0.566882
0.566883
0.566883
0.566883
0.566884
0.566884
0.566885
0.566885
0.566885
0.566886
0.566886
0.566887
0.566888
0.566888
0.566888
0.566889
0.566889
0.56689
0.56689
0.56689
0.566891
0.566891
0.566892
0.566892
0.566892
0.566893
0.566893
0.566894
0.566894
0.566894
0.566895
0.566896
0.566896
0.566896
0.566897
0.566897
0.566898
0.566898
0.566898
0.566899
0.566899
0.5669
0.5669
0.5669
0.566901
0.566901
0.566902
0.566903
0.566903
0.566903
0.566904
0.566904
0.566905
0.566905
0.566905
0.566906
0.566906
0.566907
0.566907
0.566908
0.566908
0.566909
0.566909
0.566909
0.56691
0.56691
0.566911
0.566912
0.566912
0.566912
0.566913
0.566913
0.566914
0.566914
0.566914
0.566915
0.566916
0.566916
0.566916
0.566917
0.566917
0.566918
0.566918
0.566918
0.566919
0.56692
0.56692
0.566921
0.566921
0.566921
0.566922
0.566923
0.566923
0.566923
0.566924
0.566924
0.566925
0.566925
0.566925
0.566926
0.566927
0.566927
0.566928
0.566928
0.566928
0.566929
0.56693
0.56693
0.56693
0.566931
0.566931
0.566932
0.566933
0.566933
0.566933
0.566934
0.566934
0.566935
0.566935
0.566936
0.566936
0.566937
0.566937
0.566937
0.566938
0.566939
0.566939
0.56694
0.56694
0.56694
0.566941
0.566942
0.566942
0.566942
0.566943
0.566944
0.566944
0.566945
0.566945
0.566945
0.566946
0.566947
0.566947
0.566947
0.566948
0.566949
0.566949
0.56695
0.56695
0.56695
0.566951
0.566952
0.566952
0.566952
0.566953
0.566954
0.566954
0.566955
0.566955
0.566956
0.566956
0.566957
0.566957
0.566957
0.566958
0.566959
0.566959
0.56696
0.56696
0.566961
0.566961
0.566962
0.566963
0.566963
0.566963
0.566964
0.566965
0.566965
0.566965
0.566966
0.566966
0.566967
0.566968
0.566968
0.566968
0.566969
0.56697
0.56697
0.56697
0.566971
0.566972
0.566972
0.566973
0.566973
0.566974
0.566974
0.566975
0.566976
0.566976
0.566976
0.566977
0.566978
0.566978
0.566978
0.566979
0.56698
0.56698
0.566981
0.566981
0.566982
0.566982
0.566983
0.566984
0.566984
0.566984
0.566985
0.566986
0.566987
0.566987
0.566987
0.566988
0.566989
0.566989
0.566989
0.56699
0.566991
0.566991
0.566992
0.566992
0.566993
0.566993
0.566994
0.566995
0.566995
0.566995
0.566996
0.566997
0.566998
0.566998
0.566998
0.566999
0.567
0.567
0.567
0.567001
0.567002
0.567002
0.567003
0.567003
0.567004
0.567005
0.567005
0.567006
0.567006
0.567007
0.567007
0.567008
0.567009
0.567009
0.56701
0.56701
0.567011
0.567012
0.567012
0.567012
0.567013
0.567014
0.567015
0.567015
0.567015
0.567016
0.567017
0.567018
0.567018
0.567018
0.567019
0.56702
0.56702
0.56702
0.567021
0.567022
0.567023
0.567023
0.567023
0.567024
0.567025
0.567026
0.567026
0.567026
0.567027
0.567028
0.567029
0.567029
0.567029
0.56703
0.567031
0.567032
0.567032
0.567032
0.567033
0.567034
0.567035
0.567035
0.567035
0.567036
0.567037
0.567037
0.567038
0.567038
0.567039
0.56704
0.567041
0.567041
0.567041
0.567042
0.567043
0.567044
0.567044
0.567044
0.567045
0.567046
0.567047
0.567047
0.567047
0.567048
0.567049
0.56705
0.567051
0.567051
0.567051
0.567052
0.567053
0.567054
0.567054
0.567054
0.567055
0.567056
0.567057
0.567057
0.567058
0.567058
0.567059
0.56706
0.56706
0.567061
0.567061
0.567062
0.567063
0.567063
0.567064
0.567065
0.567065
0.567066
0.567066
0.567067
0.567068
0.567069
0.567069
0.567069
0.56707
0.567071
0.567072
0.567072
0.567072
0.567073
0.567074
0.567075
0.567076
0.567076
0.567076
0.567077
0.567078
0.567079
0.567079
0.56708
0.567081
0.567081
0.567082
0.567082
0.567083
0.567084
0.567085
0.567085
0.567085
0.567086
0.567087
0.567088
0.567089
0.567089
0.56709
0.56709
0.567091
0.567092
0.567092
0.567093
0.567094
0.567095
0.567095
0.567095
0.567096
0.567097
0.567098
0.567099
0.567099
0.5671
0.5671
0.567101
0.567102
0.567102
0.567103
0.567104
0.567105
0.567105
0.567105
0.567106
0.567107
0.567108
0.567109
0.567109
0.56711
0.56711
0.567111
0.567112
0.567112
0.567113
0.567114
0.567115
0.567116
0.567116
0.567116
0.567117
0.567118
0.567119
0.567119
0.56712
0.567121
0.567122
0.567122
0.567122
0.567123
0.567124
0.567125
0.567126
0.567126
0.567127
0.567128
0.567129
0.567129
0.567129
0.56713
0.567131
0.567132
0.567133
0.567133
0.567134
0.567135
0.567136
0.567136
0.567136
0.567137
0.567138
0.567139
0.56714
0.56714
0.567141
0.567142
0.567143
0.567144
0.567144
0.567144
0.567145
0.567146
0.567147
0.567147
0.567148
0.567149
0.56715
0.567151
0.567151
0.567152
0.567152
0.567153
0.567154
0.567154
0.567155
0.567156
0.567157
0.567158
0.567158
0.567159
0.56716
0.567161
0.567162
0.567162
0.567163
0.567163
0.567164
0.567165
0.567165
0.567166
0.567167
0.567168
0.567169
0.567169
0.56717
0.567171
0.567172
0.567173
0.567173
0.567174
0.567175
0.567175
0.567176
0.567176
0.567177
0.567178
0.567179
0.56718
0.56718
0.567181
0.567182
0.567183
0.567184
0.567184
0.567185
0.567186
0.567187
0.567188
0.567188
0.567188
0.567189
0.56719
0.567191
0.567191
0.567192
0.567193
0.567194
0.567195
0.567195
0.567196
0.567197
0.567198
0.567199
0.567199
0.5672
0.567201
0.567202
0.567203
0.567203
0.567204
0.567205
0.567206
0.567207
0.567207
0.567208
0.567209
0.56721
0.567211
0.567211
0.567212
0.567213
0.567214
0.567215
0.567215
0.567215
0.567216
0.567217
0.567218
0.567218
0.567219
0.56722
0.567221
0.567222
0.567222
0.567223
0.567224
0.567225
0.567226
0.567226
0.567227
0.567228
0.567229
0.56723
0.56723
0.567231
0.567232
0.567233
0.567234
0.567234
0.567235
0.567236
0.567237
0.567238
0.567238
0.567239
0.56724
0.567241
0.567242
0.567242
0.567243
0.567244
0.567245
0.567246
0.567246
0.567247
0.567248
0.567249
0.56725
0.56725
0.567251
0.567252
0.567253
0.567254
0.567254
0.567255
0.567257
0.567258
0.567259
0.567259
0.56726
0.567261
0.567262
0.567263
0.567263
0.567264
0.567265
0.567266
0.567267
0.567267
0.567268
0.567269
0.56727
0.567271
0.567271
0.567272
0.567273
0.567274
0.567275
0.567275
0.567276
0.567277
0.567278
0.567279
0.567279
0.56728
0.567281
0.567283
0.567284
0.567284
0.567285
0.567286
0.567287
0.567288
0.567288
0.567289
0.56729
0.567291
0.567292
0.567292
0.567293
0.567294
0.567295
0.567296
0.567296
0.567297
0.567298
0.5673
0.567301
0.567301
0.567302
0.567303
0.567304
0.567305
0.567305
0.567306
0.567307
0.567308
0.567309
0.567309
0.56731
0.567311
0.567313
0.567314
0.567314
0.567315
0.567316
0.567317
0.567318
0.567318
0.567319
0.56732
0.567321
0.567322
0.567322
0.567324
0.567325
0.567326
0.567327
0.567327
0.567328
0.567329
0.56733
0.567331
0.567331
0.567332
0.567333
0.567335
0.567336
0.567336
0.567337
0.567338
0.567339
0.56734
0.56734
0.567341
0.567342
0.567343
0.567345
0.567345
0.567346
0.567347
0.567348
0.567349
0.567349
0.56735
0.567351
0.567353
0.567354
0.567354
0.567355
0.567356
0.567357
0.567358
0.567358
0.567359
0.567361
0.567362
0.567363
0.567363
0.567364
0.567365
0.567366
0.567367
0.567367
0.567369
0.56737
0.567371
0.567372
0.567372
0.567373
0.567374
0.567375
0.567377
0.567377
0.567378
0.567379
0.56738
0.567381
0.567381
0.567382
0.567384
0.567385
0.567386
0.567386
0.567387
0.567388
0.567389
0.567391
0.567391
0.567392
0.567393
0.567394
0.567395
0.567395
0.567397
0.567398
0.567399
0.5674
0.5674
0.567401
0.567402
0.567404
0.567405
0.567405
0.567406
0.567407
0.567408
0.56741
0.56741
0.567411
0.567412
0.567413
0.567414
0.567414
0.567416
0.567417
0.567418
0.567419
0.567419
0.56742
0.567422
0.567423
0.567424
0.567424
0.567425
0.567426
0.567428
0.567429
0.567429
0.56743
0.567431
0.567433
0.567434
0.567434
0.567435
0.567436
0.567437
0.567439
0.567439
0.56744
0.567441
0.567442
0.567444
0.567444
0.567445
0.567446
0.567447
0.567449
0.567449
0.56745
0.567451
0.567452
0.567453
0.567453
0.567455
0.567456
0.567457
0.567458
0.567458
0.56746
0.567461
0.567462
0.567463
0.567463
0.567465
0.567466
0.567467
0.567468
0.567468
0.56747
0.567471
0.567472
0.567474
0.567474
0.567475
0.567476
0.567477
0.567479
0.567479
0.56748
0.567481
0.567482
0.567484
0.567484
0.567485
0.567486
0.567488
0.567489
0.567489
0.56749
0.567491
0.567493
0.567494
0.567494
0.567495
0.567496
0.567498
0.567499
0.567499
0.5675
0.567502
0.567503
0.567504
0.567504
0.567506
0.567507
0.567508
0.567509
0.567509
0.567511
0.567512
0.567513
0.567515
0.567515
0.567516
0.567517
0.567519
0.56752
0.56752
0.567521
0.567523
0.567524
0.567525
0.567525
0.567527
0.567528
0.567529
0.56753
0.56753
0.567532
0.567533
0.567534
0.567536
0.567536
0.567537
0.567538
0.56754
0.567541
0.567541
0.567542
0.567544
0.567545
0.567546
0.567546
0.567548
0.567549
0.56755
0.567552
0.567552
0.567553
0.567555
0.567556
0.567557
0.567557
0.567559
0.56756
0.567561
0.567563
0.567563
0.567564
0.567565
0.567567
0.567568
0.567568
0.567569
0.567571
0.567572
0.567574
0.567574
0.567575
0.567576
0.567578
0.567579
0.567579
0.56758
0.567582
0.567583
0.567584
0.567584
0.567586
0.567587
0.567589
0.56759
0.56759
0.567591
0.567593
0.567594
0.567596
0.567596
0.567597
0.567598
0.5676
0.567601
0.567601
0.567603
0.567604
0.567605
0.567607
0.567607
0.567608
0.56761
0.567611
0.567612
0.567612
0.567614
0.567615
0.567617
0.567618
0.567618
0.567619
0.567621
0.567622
0.567624
0.567624
0.567625
0.567627
0.567628
0.567629
0.567629
0.567631
0.567632
0.567634
0.567635
0.567635
0.567637
0.567638
0.567639
0.567641
0.567641
0.567642
0.567644
0.567645
0.567647
0.567647
0.567648
0.56765
0.567651
0.567652
0.567652
0.567654
0.567655
0.567657
0.567658
0.567658
0.56766
0.567661
0.567663
0.567664
0.567664
0.567666
0.567667
0.567668
0.56767
0.56767
0.567671
0.567673
0.567674
0.567676
0.567676
0.567677
0.567679
0.56768
0.567682
0.567682
0.567683
0.567685
0.567686
0.567688
0.567688
0.567689
0.567691
0.567692
0.567694
0.567694
0.567695
0.567697
0.567698
0.5677
0.5677
0.567701
0.567703
0.567704
0.567706
0.567706
0.567707
0.567709
0.56771
0.567712
0.567712
0.567713
0.567715
0.567716
0.567718
0.567718
0.567719
0.567721
0.567722
0.567724
0.567724
0.567725
0.567727
0.567728
0.56773
0.56773
0.567731
0.567733
0.567735
0.567736
0.567736
0.567738
0.567739
0.567741
0.567742
0.567742
0.567744
0.567745
0.567747
0.567748
0.567748
0.56775
0.567751
0.567753
0.567755
0.567755
0.567756
0.567758
0.567759
0.567761
0.567761
0.567762
0.567764
0.567765
0.567767
0.567767
0.567769
0.56777
0.567772
0.567773
0.567773
0.567775
0.567776
0.567778
0.56778
0.56778
0.567781
0.567783
0.567784
0.567786
0.567786
0.567788
0.567789
0.567791
0.567792
0.567792
0.567794
0.567795
0.567797
0.567799
0.567799
0.5678
0.567802
0.567803
0.567805
0.567805
0.567807
0.567808
0.56781
0.567812
0.567812
0.567813
0.567815
0.567816
0.567818
0.567818
0.56782
0.567821
0.567823
0.567824
0.567824
0.567826
0.567828
0.567829
0.567831
0.567831
0.567833
0.567834
0.567836
0.567837
0.567837
0.567839
0.567841
0.567842
0.567844
0.567844
0.567846
0.567847
0.567849
0.567851
0.567851
0.567852
0.567854
0.567856
0.567857
0.567857
0.567859
0.567861
0.567862
0.567864
0.567864
0.567866
0.567867
0.567869
0.567871
0.567871
0.567872
0.567874
0.567876
0.567877
0.567877
0.567879
0.567881
0.567882
0.567884
0.567884
0.567886
0.567887
0.567889
0.567891
0.567891
0.567892
0.567894
0.567896
0.567897
0.567897
0.567899
0.567901
0.567903
0.567904
0.567904
0.567906
0.567908
0.567909
0.567911
0.567911
0.567913
0.567915
0.567916
0.567918
0.567918
0.56792
0.567921
0.567923
0.567925
0.567925
0.567927
0.567928
0.56793
0.567932
0.567932
0.567933
0.567935
0.567937
0.567939
0.567939
0.56794
0.567942
0.567944
0.567946
0.567946
0.567947
0.567949
0.567951
0.567953
0.567953
0.567954
0.567956
0.567958
0.56796
0.56796
0.567961
0.567963
0.567965
0.567967
0.567967
0.567968
0.56797
0.567972
0.567974
0.567974
0.567976
0.567977
0.567979
0.567981
0.567981
0.567983
0.567984
0.567986
0.567988
0.567988
0.56799
0.567992
0.567993
0.567995
0.567995
0.567997
0.567999
0.568001
0.568002
0.568002
0.568004
0.568006
0.568008
0.56801
0.56801
0.568011
0.568013
0.568015
0.568017
0.568017
0.568019
0.56802
0.568022
0.568024
0.568024
0.568026
0.568028
0.56803
0.568031
0.568031
0.568033
0.568035
0.568037
0.568039
0.568039
0.568041
0.568042
0.568044
0.568046
0.568046
0.568048
0.56805
0.568052
0.568054
0.568054
0.568055
0.568057
0.568059
0.568061
0.568061
0.568063
0.568065
0.568066
0.568068
0.568068
0.56807
0.568072
0.568074
0.568076
0.568076
0.568078
0.56808
0.568081
0.568083
0.568083
0.568085
0.568087
0.568089
0.568091
0.568091
0.568093
0.568095
0.568097
0.568098
0.568098
0.5681
0.568102
0.568104
0.568106
0.568106
0.568108
0.56811
0.568112
0.568114
0.568114
0.568116
0.568117
0.568119
0.568121
0.568121
0.568123
0.568125
0.568127
0.568129
0.568129
0.568131
0.568133
0.568135
0.568137
0.568137
0.568139
0.568141
0.568143
0.568144
0.568144
0.568146
0.568148
0.56815
0.568152
0.568152
0.568154
0.568156
0.568158
0.56816
0.56816
0.568162
0.568164
0.568166
0.568168
0.568168
0.56817
0.568172
0.568174
0.568176
0.568176
0.568178
0.56818
0.568182
0.568184
0.568184
0.568186
0.568188
0.56819
0.568192
0.568192
0.568194
0.568196
0.568198
0.5682
0.5682
0.568202
0.568204
0.568205
0.568207
0.568207
0.568209
0.568211
0.568213
0.568216
0.568216
0.568218
0.56822
0.568222
0.568224
0.568224
0.568226
0.568228
0.56823
0.568232
0.568232
0.568234
0.568236
0.568238
0.56824
0.56824
0.568242
0.568244
0.568246
0.568248
0.568248
0.56825
0.568252
0.568254
0.568256
0.568256
0.568258
0.56826
0.568262
0.568264
0.568264
0.568266
0.568268
0.568271
0.568273
0.568273
0.568275
0.568277
0.568279
0.568281
0.568281
0.568283
0.568285
0.568287
0.568289
0.568289
0.568291
0.568293
0.568295
0.568298
0.568298
0.5683
0.568302
0.568304
0.568306
0.568306
0.568308
0.56831
0.568312
0.568314
0.568314
0.568316
0.568319
0.568321
0.568323
0.568323
0.568325
0.568327
0.568329
0.568331
0.568331
0.568333
0.568335
0.568338
0.56834
0.56834
0.568342
0.568344
0.568346
0.568348
0.568348
0.56835
0.568353
0.568355
0.568357
0.568357
0.568359
0.568361
0.568363
0.568365
0.568365
0.568368
0.56837
0.568372
0.568374
0.568374
0.568376
0.568378
0.568381
0.568383
0.568383
0.568385
0.568387
0.568389
0.568391
0.568391
0.568394
0.568396
0.568398
0.5684
0.5684
0.568402
0.568405
0.568407
0.568409
0.568409
0.568411
0.568413
0.568416
0.568418
0.568418
0.56842
0.568422
0.568424
0.568427
0.568427
0.568429
0.568431
0.568433
0.568436
0.568436
0.568438
0.56844
0.568442
0.568444
0.568444
0.568447
0.568449
0.568451
0.568453
0.568453
0.568456
0.568458
0.56846
0.568462
0.568462
0.568465
0.568467
0.568469
0.568471
0.568471
0.568474
0.568476
0.568478
0.56848
0.56848
0.568483
0.568485
0.568487
0.56849
0.56849
0.568492
0.568494
0.568496
0.568499
0.568499
0.568501
0.568503
0.568506
0.568508
0.568508
0.56851
0.568512
0.568515
0.568517
0.568517
0.568519
0.568522
0.568524
0.568526
0.568526
0.568529
0.568531
0.568533
0.568536
0.568536
0.568538
0.56854
0.568543
0.568545
0.568545
0.568547
0.56855
0.568552
0.568554
0.568554
0.568556
0.568559
0.568561
0.568564
0.568564
0.568566
0.568568
0.568571
0.568573
0.568573
0.568575
0.568578
0.56858
0.568582
0.568582
0.568585
0.568587
0.56859
0.568592
0.568592
0.568594
0.568597
0.568599
0.568601
0.568601
0.568604
0.568606
0.568609
0.568611
0.568611
0.568613
0.568616
0.568618
0.568621
0.568621
0.568623
0.568625
0.568628
0.56863
0.56863
0.568633
0.568635
0.568638
0.56864
0.56864
0.568642
0.568645
0.568647
0.56865
0.56865
0.568652
0.568655
0.568657
0.568659
0.568659
0.568662
0.568664
0.568667
0.568669
0.568669
0.568672
0.568674
0.568677
0.568679
0.568679
0.568681
0.568684
0.568686
0.568689
0.568689
0.568691
0.568694
0.568696
0.568699
0.568699
0.568701
0.568704
0.568706
0.568709
0.568709
0.568711
0.568714
0.568716
0.568719
0.568719
0.568721
0.568724
0.568726
0.568729
0.568729
0.568731
0.568734
0.568736
0.568739
0.568739
0.568741
0.568744
0.568746
0.568749
0.568749
0.568751
0.568754
0.568757
0.568759
0.568759
0.568762
0.568764
0.568767
0.568769
0.568769
0.568772
0.568774
0.568777
0.568779
0.568779
0.568782
0.568785
0.568787
0.56879
0.56879
0.568792
0.568795
0.568797
0.5688
0.5688
0.568803
0.568805
0.568808
0.56881
0.56881
0.568813
0.568816
0.568818
0.568821
0.568821
0.568823
0.568826
0.568829
0.568831
0.568831
0.568834
0.568836
0.568839
0.568842
0.568842
0.568844
0.568847
0.56885
0.568852
0.568852
0.568855
0.568857
0.56886
0.568863
0.568863
0.568865
0.568868
0.568871
0.568873
0.568873
0.568876
0.568879
0.568881
0.568884
0.568884
0.568887
0.568889
0.568892
0.568895
0.568895
0.568897
0.5689
0.568903
0.568905
0.568905
0.568908
0.568911
0.568913
0.568916
0.568916
0.568919
0.568921
0.568924
0.568927
0.568927
0.56893
0.568932
0.568935
0.568938
0.568938
0.56894
0.568943
0.568946
0.568949
0.568949
0.568951
0.568954
0.568957
0.568959
0.568959
0.568962
0.568965
0.568968
0.56897
0.56897
0.568973
0.568976
0.568979
0.568981
0.568981
0.568984
0.568987
0.56899
0.568992
0.568992
0.568995
0.568998
0.569001
0.569004
0.569004
0.569006
0.569009
0.569012
0.569015
0.569015
0.569018
0.56902
0.569023
0.569026
0.569026
0.569029
0.569032
0.569034
0.569037
0.569037
0.56904
0.569043
0.569046
0.569048
0.569048
0.569051
0.569054
0.569057
0.56906
0.56906
0.569063
0.569065
0.569068
0.569071
0.569071
0.569074
0.569077
0.56908
0.569083
0.569083
0.569085
0.569088
0.569091
0.569094
0.569094
0.569097
0.5691
0.569103
0.569105
0.569105
0.569108
0.569111
0.569114
0.569117
0.569117
0.56912
0.569123
0.569126
0.569129
0.569129
0.569132
0.569134
0.569137
0.56914
0.56914
0.569143
0.569146
0.569149
0.569152
0.569152
0.569155
0.569158
0.569161
0.569164
0.569164
0.569167
0.56917
0.569173
0.569175
0.569175
0.569178
0.569181
0.569184
0.569187
0.569187
0.56919
0.569193
0.569196
0.569199
0.569199
0.569202
0.569205
0.569208
0.569211
0.569211
0.569214
0.569217
0.56922
0.569223
0.569223
0.569226
0.569229
0.569232
0.569235
0.569235
0.569238
0.569241
0.569244
0.569247
0.569247
0.56925
0.569253
0.569256
0.569259
0.569259
0.569262
0.569265
0.569268
0.569271
0.569271
0.569274
0.569277
0.569281
0.569284
0.569284
0.569287
0.56929
0.569293
0.569296
0.569296
0.569299
0.569302
0.569305
0.569308
0.569308
0.569311
0.569314
0.569317
0.569321
0.569321
0.569324
0.569327
0.56933
0.569333
0.569333
0.569336
0.569339
0.569342
0.569345
0.569345
0.569348
0.569352
0.569355
0.569358
0.569358
0.569361
0.569364
0.569367
0.56937
0.56937
0.569374
0.569377
0.56938
0.569383
0.569383
0.569386
0.569389
0.569393
0.569396
0.569396
0.569399
0.569402
0.569405
0.569408
0.569408
0.569412
0.569415
0.569418
0.569421
0.569421
0.569424
0.569428
0.569431
0.569434
0.569434
0.569437
0.56944
0.569444
0.569447
0.569447
0.56945
0.569453
0.569456
0.56946
0.56946
0.569463
0.569466
0.569469
0.569473
0.569473
0.569476
0.569479
0.569482
0.569486
0.569486
0.569489
0.569492
0.569495
0.569499
0.569499
0.569502
0.569505
0.569509
0.569512
0.569512
0.569515
0.569518
0.569522
0.569525
0.569525
0.569528
0.569532
0.569535
0.569538
0.569538
0.569542
0.569545
0.569548
0.569552
0.569552
0.569555
0.569558
0.569562
0.569565
0.569565
0.569568
0.569572
0.569575
0.569578
0.569578
0.569582
0.569585
0.569588
0.569592
0.569592
0.569595
0.569598
0.569602
0.569605
0.569605
0.569609
0.569612
0.569615
0.569619
0.569619
0.569622
0.569626
0.569629
0.569632
0.569632
0.569636
0.569639
0.569643
0.569646
0.569646
0.569649
0.569653
0.569656
0.56966
0.56966
0.569663
0.569667
0.56967
0.569673
0.569673
0.569677
0.56968
0.569684
0.569687
0.569687
0.569691
0.569694
0.569698
0.569701
0.569701
0.569705
0.569708
0.569712
0.569715
0.569715
0.569719
0.569722
0.569726
0.569729
0.569729
0.569733
0.569736
0.56974
0.569743
0.569743
0.569747
0.56975
0.569754
0.569757
0.569757
0.569761
0.569764
0.569768
0.569771
0.569771
0.569775
0.569778
0.569782
0.569786
0.569786
0.569789
0.569793
0.569796
0.5698
0.5698
0.569803
0.569807
0.569811
0.569814
0.569814
0.569818
0.569821
0.569825
0.569829
0.569829
0.569832
0.569836
0.569839
0.569843
0.569843
0.569847
0.56985
0.569854
0.569858
0.569858
0.569861
0.569865
0.569868
0.569872
0.569872
0.569876
0.569879
0.569883
0.569887
0.569887
0.56989
0.569894
0.569898
0.569901
0.569901
0.569905
0.569909
0.569912
0.569916
0.569916
0.56992
0.569924
0.569927
0.569931
0.569931
0.569935
0.569938
0.569942
0.569946
0.569946
0.56995
0.569953
0.569957
0.569961
0.569961
0.569965
0.569968
0.569972
0.569976
0.569976
0.56998
0.569983
0.569987
0.569991
0.569991
0.569995
0.569998
0.570002
0.570006
0.570006
0.57001
0.570014
0.570017
0.570021
0.570021
0.570025
0.570029
0.570033
0.570036
0.570036
0.57004
0.570044
0.570048
0.570052
0.570052
0.570055
0.570059
0.570063
0.570067
0.570067
0.570071
0.570075
0.570079
0.570082
0.570082
0.570086
0.57009
0.570094
0.570098
0.570098
0.570102
0.570106
0.57011
0.570113
0.570113
0.570117
0.570121
0.570125
0.570129
0.570129
0.570133
0.570137
0.570141
0.570145
0.570145
0.570149
0.570153
0.570157
0.570161
0.570161
0.570165
0.570168
0.570172
0.570176
0.570176
0.57018
0.570184
0.570188
0.570192
0.570192
0.570196
0.5702
0.570204
0.570208
0.570208
0.570212
0.570216
0.57022
0.570224
0.570224
0.570228
0.570232
0.570236
0.57024
0.57024
0.570244
0.570248
0.570252
0.570256
0.570256
0.57026
0.570265
0.570269
0.570273
0.570273
0.570277
0.570281
0.570285
0.570289
0.570289
0.570293
0.570297
0.570301
0.570305
0.570305
0.570309
0.570313
0.570318
0.570322
0.570322
0.570326
0.57033
0.570334
0.570338
0.570338
0.570342
0.570346
0.570351
0.570355
0.570355
0.570359
0.570363
0.570367
0.570371
0.570371
0.570376
0.57038
0.570384
0.570388
0.570388
0.570392
0.570396
0.570401
0.570405
0.570405
0.570409
0.570413
0.570417
0.570422
0.570422
0.570426
0.57043
0.570434
0.570439
0.570439
0.570443
0.570447
0.570451
0.570456
0.570456
0.57046
0.570464
0.570468
0.570473
0.570473
0.570477
0.570481
0.570485
0.57049
0.57049
0.570494
0.570498
0.570503
0.570507
0.570507
0.570511
0.570516
0.57052
0.570524
0.570524
0.570528
0.570533
0.570537
0.570541
0.570541
0.570546
0.57055
0.570555
0.570559
0.570559
0.570563
0.570568
0.570572
0.570576
0.570576
0.570581
0.570585
0.57059
0.570594
0.570594
0.570598
0.570603
0.570607
0.570612
0.570612
0.570616
0.57062
0.570625
0.570629
0.570629
0.570634
0.570638
0.570643
0.570647
0.570647
0.570652
0.570656
0.57066
0.570665
0.570665
0.570669
0.570674
0.570678
0.570683
0.570683
0.570687
0.570692
0.570696
0.570701
0.570701
0.570705
0.57071
0.570714
0.570719
0.570719
0.570723
0.570728
0.570733
0.570737
0.570737
0.570742
0.570746
0.570751
0.570755
0.570755
0.57076
0.570764
0.570769
0.570774
0.570774
0.570778
0.570783
0.570787
0.570792
0.570792
0.570797
0.570801
0.570806
0.57081
0.57081
0.570815
0.57082
0.570824
0.570829
0.570829
0.570834
0.570838
0.570843
0.570848
0.570848
0.570852
0.570857
0.570862
0.570866
0.570866
0.570871
0.570876
0.57088
0.570885
0.570885
0.57089
0.570895
0.570899
0.570904
0.570904
0.570909
0.570913
0.570918
0.570923
0.570923
0.570928
0.570932
0.570937
0.570942
0.570942
0.570947
0.570952
0.570956
0.570961
0.570961
0.570966
0.570971
0.570975
0.57098
0.57098
0.570985
0.57099
0.570995
0.571
0.571
0.571004
0.571009
0.571014
0.571019
0.571019
0.571024
0.571029
0.571034
0.571038
0.571038
0.571043
0.571048
0.571053
0.571058
0.571058
0.571063
0.571068
0.571073
0.571077
0.571077
0.571082
0.571087
0.571092
0.571097
0.571097
0.571102
0.571107
0.571112
0.571117
0.571117
0.571122
0.571127
0.571132
0.571137
0.571137
0.571142
0.571147
0.571152
0.571157
0.571157
0.571162
0.571167
0.571172
0.571177
0.571177
0.571182
0.571187
0.571192
0.571197
0.571197
0.571202
0.571207
0.571212
0.571217
0.571217
0.571222
0.571227
0.571232
0.571237
0.571237
0.571243
0.571248
0.571253
0.571258
0.571258
0.571263
0.571268
0.571273
0.571278
0.571278
0.571283