<?xml version="1.0"?>
<VTKFile type="UnstructuredGrid" version="0.1" byte_order="LittleEndian">
<UnstructuredGrid>
<Piece NumberOfPoints="5000" NumberOfCells="4000">
<PointData Scalars="Reaction 0">
<DataArray type="Float32" Name="Reaction 0" format="ascii">
0.573031
0.573031
0.573031
0.573031
0.573031
0.573031
0.573031
0.573031
0.573031
0.573031
0.573031
0.573031
0.573031
0.573031
0.573031
0.573031
0.573031
0.573031
0.573031
0.573031
0.573031
0.573031
0.573031
0.573031
0.573031
0.573031
0.573032
0.573032
0.573032
0.573032
0.573032
0.573032
0.573032
0.573032
0.573032
0.573032
0.573032
0.573032
0.573032
0.573032
0.573032
0.573033
0.573033
0.573033
0.573033
0.573033
0.573033
0.573033
0.573033
0.573033
0.573033
0.573034
0.573034
0.573034
0.573034
0.573034
0.573034
0.573034
0.573034
0.573035
0.573035
0.573035
0.573035
0.573035
0.573035
0.573035
0.573035
0.573036
0.573036
0.573036
0.573036
0.573036
0.573036
0.573036
0.573037
0.573037
0.573037
0.573037
0.573037
0.573037
0.573037
0.573038
0.573038
0.573038
0.573038
0.573038
0.573038
0.573039
0.573039
0.573039
0.573039
0.573039
0.57304
0.57304
0.57304
0.57304
0.57304
0.573041
0.573041
0.573041
0.573041
0.573041
0.573042
0.573042
0.573042
0.573042
0.573042
0.573043
0.573043
0.573043
0.573043
0.573044
0.573044
0.573044
0.573044
0.573044
0.573045
0.573045
0.573045
0.573046
0.573046
0.573046
0.573046
0.573047
0.573047
0.573047
0.573047
0.573048
0.573048
0.573048
0.573048
0.573049
0.573049
0.573049
0.57305
0.57305
0.57305
0.57305
0.573051
0.573051
0.573051
0.573051
0.573052
0.573052
0.573052
0.573052
0.573053
0.573053
0.573054
0.573054
0.573054
0.573054
0.573055
0.573055
0.573056
0.573056
0.573056
0.573056
0.573057
0.573057
0.573057
0.573058
0.573058
0.573058
0.573059
0.573059
0.573059
0.57306
0.57306
0.573061
0.573061
0.573061
0.573061
0.573062
0.573062
0.573062
0.573063
0.573063
0.573064
0.573064
0.573064
0.573065
0.573065
0.573066
0.573066
0.573066
0.573067
0.573067
0.573068
0.573068
0.573068
0.573069
0.573069
0.57307
0.57307
0.57307
0.573071
0.573071
0.573072
0.573072
0.573072
0.573073
0.573073
0.573074
0.573074
0.573074
0.573075
0.573075
0.573076
0.573076
0.573076
0.573077
0.573077
0.573078
0.573078
0.573078
0.573079
0.57308
0.57308
0.573081
0.573081
0.573081
0.573082
0.573082
0.573083
0.573083
0.573084
0.573084
0.573085
0.573085
0.573085
0.573086
0.573087
0.573087
0.573088
0.573088
0.573088
0.573089
0.57309
0.57309
0.57309
0.573091
0.573091
0.573092
0.573093
0.573093
0.573093
0.573094
0.573095
0.573095
0.573095
0.573096
0.573097
0.573097
0.573098
0.573098
0.573099
0.573099
0.5731
0.573101
0.573101
0.573101
0.573102
0.573103
0.573103
0.573103
0.573104
0.573105
0.573105
0.573106
0.573106
0.573107
0.573108
0.573108
0.573109
0.573109
0.57311
0.57311
0.573111
0.573112
0.573112
0.573113
0.573113
0.573114
0.573115
0.573115
0.573115
0.573116
0.573117
0.573118
0.573118
0.573118
0.573119
0.57312
0.573121
0.573121
0.573122
0.573122
0.573123
0.573124
0.573124
0.573125
0.573125
0.573126
0.573127
0.573127
0.573128
0.573129
0.573129
0.57313
0.57313
0.573131
0.573132
0.573133
0.573133
0.573133
0.573134
0.573135
0.573136
0.573137
0.573137
0.573138
0.573138
0.573139
0.57314
0.57314
0.573141
0.573142
0.573143
0.573143
0.573143
0.573144
0.573145
0.573146
0.573147
0.573147
0.573148
0.573149
0.57315
0.57315
0.57315
0.573151
0.573152
0.573153
0.573154
0.573154
0.573155
0.573156
0.573157
0.573158
0.573158
0.573159
0.573159
0.57316
0.573161
0.573161
0.573162
0.573163
0.573164
0.573165
0.573165
0.573166
0.573167
0.573168
0.573169
0.573169
0.57317
0.573171
0.573172
0.573173
0.573173
0.573174
0.573175
0.573176
0.573176
0.573176
0.573177
0.573178
0.573179
0.57318
0.57318
0.573181
0.573182
0.573183
0.573184
0.573184
0.573185
0.573186
0.573187
0.573188
0.573188
0.573189
0.57319
0.573191
0.573193
0.573193
0.573194
0.573195
0.573196
0.573197
0.573197
0.573198
0.573199
0.5732
0.573201
0.573201
0.573202
0.573203
0.573204
0.573205
0.573205
0.573206
0.573207
0.573208
0.573209
0.573209
0.573211
0.573212
0.573213
0.573214
0.573214
0.573215
0.573216
0.573217
0.573218
0.573218
0.573219
0.573221
0.573222
0.573223
0.573223
0.573224
0.573225
0.573226
0.573227
0.573227
0.573228
0.57323
0.573231
0.573232
0.573232
0.573233
0.573234
0.573235
0.573237
0.573237
0.573238
0.573239
0.57324
0.573241
0.573241
0.573242
0.573244
0.573245
0.573246
0.573246
0.573247
0.573248
0.57325
0.573251
0.573251
0.573252
0.573253
0.573254
0.573256
0.573256
0.573257
0.573258
0.573259
0.573261
0.573261
0.573262
0.573263
0.573264
0.573266
0.573266
0.573267
0.573268
0.573269
0.573271
0.573271
0.573272
0.573273
0.573274
0.573276
0.573276
0.573277
0.573278
0.57328
0.573281
0.573281
0.573282
0.573283
0.573285
0.573286
0.573286
0.573287
0.573289
0.57329
0.573291
0.573291
0.573293
0.573294
0.573295
0.573297
0.573297
0.573298
0.573299
0.573301
0.573302
0.573302
0.573303
0.573305
0.573306
0.573307
0.573307
0.573309
0.57331
0.573311
0.573313
0.573313
0.573314
0.573315
0.573317
0.573318
0.573318
0.57332
0.573321
0.573322
0.573324
0.573324
0.573325
0.573327
0.573328
0.573329
0.573329
0.573331
0.573332
0.573334
0.573335
0.573335
0.573337
0.573338
0.573339
0.573341
0.573341
0.573342
0.573344
0.573345
0.573347
0.573347
0.573348
0.57335
0.573351
0.573353
0.573353
0.573354
0.573356
0.573357
0.573359
0.573359
0.57336
0.573362
0.573363
0.573365
0.573365
0.573366
0.573368
0.573369
0.573371
0.573371
0.573372
0.573374
0.573375
0.573377
0.573377
0.573378
0.57338
0.573381
0.573383
0.573383
0.573384
0.573386
0.573387
0.573389
0.573389
0.573391
0.573392
0.573394
0.573395
0.573395
0.573397
0.573398
0.5734
0.573402
0.573402
0.573403
0.573405
0.573406
0.573408
0.573408
0.57341
0.573411
0.573413
0.573414
0.573414
0.573416
0.573418
0.573419
0.573421
0.573421
0.573422
0.573424
0.573426
0.573427
0.573427
0.573429
0.573431
0.573432
0.573434
0.573434
0.573436
0.573437
0.573439
0.573441
0.573441
0.573442
0.573444
0.573446
0.573447
0.573447
0.573449
0.573451
0.573452
0.573454
0.573454
0.573456
0.573457
0.573459
0.573461
0.573461
0.573463
0.573464
0.573466
0.573468
0.573468
0.57347
0.573471
0.573473
0.573475
0.573475
0.573477
0.573478
0.57348
0.573482
0.573482
0.573484
0.573485
0.573487
0.573489
0.573489
0.573491
0.573492
0.573494
0.573496
0.573496
0.573498
0.5735
0.573501
0.573503
0.573503
0.573505
0.573507
0.573509
0.57351
0.57351
0.573512
0.573514
0.573516
0.573518
0.573518
0.57352
0.573521
0.573523
0.573525
0.573525
0.573527
0.573529
0.573531
0.573532
0.573532
0.573534
0.573536
0.573538
0.57354
0.57354
0.573542
0.573544
0.573546
0.573547
0.573547
0.573549
0.573551
0.573553
0.573555
0.573555
0.573557
0.573559
0.573561
0.573563
0.573563
0.573565
0.573567
0.573568
0.57357
0.57357
0.573572
0.573574
0.573576
0.573578
0.573578
0.57358
0.573582
0.573584
0.573586
0.573586
0.573588
0.57359
0.573592
0.573594
0.573594
0.573596
0.573598
0.5736
0.573602
0.573602
0.573604
0.573606
0.573608
0.57361
0.57361
0.573612
0.573614
0.573616
0.573618
0.573618
0.57362
0.573622
0.573624
0.573626
0.573626
0.573628
0.57363
0.573632
0.573634
0.573634
0.573636
0.573638
0.573641
0.573643
0.573643
0.573645
0.573647
0.573649
0.573651
0.573651
0.573653
0.573655
0.573657
0.573659
0.573659
0.573661
0.573664
0.573666
0.573668
0.573668
0.57367
0.573672
0.573674
0.573676
0.573676
0.573678
0.57368
0.573683
0.573685
0.573685
0.573687
0.573689
0.573691
0.573693
0.573693
0.573696
0.573698
0.5737
0.573702
0.573702
0.573704
0.573706
0.573709
0.573711
0.573711
0.573713
0.573715
0.573717
0.57372
0.57372
0.573722
0.573724
0.573726
0.573728
0.573728
0.573731
0.573733
0.573735
0.573737
0.573737
0.57374
0.573742
0.573744
0.573746
0.573746
0.573749
0.573751
0.573753
0.573756
0.573756
0.573758
0.57376
0.573762
0.573765
0.573765
0.573767
0.573769
0.573772
0.573774
0.573774
0.573776
0.573778
0.573781
0.573783
0.573783
0.573785
0.573788
0.57379
0.573792
0.573792
0.573795
0.573797
0.573799
0.573802
0.573802
0.573804
0.573806
0.573809
0.573811
0.573811
0.573814
0.573816
0.573818
0.573821
0.573821
0.573823
0.573825
0.573828
0.57383
0.57383
0.573833
0.573835
0.573837
0.57384
0.57384
0.573842
0.573845
0.573847
0.573849
0.573849
0.573852
0.573854
0.573857
0.573859
0.573859
0.573862
0.573864
0.573867
0.573869
0.573869
0.573872
0.573874
0.573876
0.573879
0.573879
0.573881
0.573884
0.573886
0.573889
0.573889
0.573891
0.573894
0.573896
0.573899
0.573899
0.573902
0.573904
0.573907
0.573909
0.573909
0.573912
0.573914
0.573917
0.573919
0.573919
0.573922
0.573924
0.573927
0.573929
0.573929
0.573932
0.573935
0.573937
0.57394
0.57394
0.573942
0.573945
0.573947
0.57395
0.57395
0.573953
0.573955
0.573958
0.57396
0.57396
0.573963
0.573966
0.573968
0.573971
0.573971
0.573973
0.573976
0.573979
0.573981
0.573981
0.573984
0.573987
0.573989
0.573992
0.573992
0.573995
0.573997
0.574
0.574003
0.574003
0.574005
0.574008
0.574011
0.574013
0.574013
0.574016
0.574019
0.574022
0.574024
0.574024
0.574027
0.57403
0.574032
0.574035
0.574035
0.574038
0.574041
0.574043
0.574046
0.574046
0.574049
0.574052
0.574054
0.574057
0.574057
0.57406
0.574063
0.574065
0.574068
0.574068
0.574071
0.574074
0.574077
0.574079
0.574079
0.574082
0.574085
0.574088
0.57409
0.57409
0.574093
0.574096
0.574099
0.574102
0.574102
0.574105
0.574107
0.57411
0.574113
0.574113
0.574116
0.574119
0.574122
0.574124
0.574124
0.574127
0.57413
0.574133
0.574136
0.574136
0.574139
0.574142
0.574145
0.574147
0.574147
0.57415
0.574153
0.574156
0.574159
0.574159
0.574162
0.574165
0.574168
0.574171
0.574171
0.574174
0.574177
0.57418
0.574183
0.574183
0.574186
0.574189
0.574192
0.574194
0.574194
0.574197
0.5742
0.574203
0.574206
0.574206
0.574209
0.574212
0.574215
0.574218
0.574218
0.574221
0.574224
0.574227
0.57423
0.57423
0.574233
0.574236
0.574239
0.574242
0.574242
0.574245
0.574249
0.574252
0.574255
0.574255
0.574258
0.574261
0.574264
0.574267
0.574267
0.57427
0.574273
0.574276
0.574279
0.574279
0.574282
0.574285
0.574288
0.574292
0.574292
0.574295
0.574298
0.574301
0.574304
0.574304
0.574307
0.57431
0.574313
0.574317
0.574317
0.57432
0.574323
0.574326
0.574329
0.574329
0.574332
0.574336
0.574339
0.574342
0.574342
0.574345
0.574348
0.574351
0.574355
0.574355
0.574358
0.574361
0.574364
0.574367
0.574367
0.574371
0.574374
0.574377
0.57438
0.57438
0.574384
0.574387
0.57439
0.574393
0.574393
0.574397
0.5744
0.574403
0.574406
0.574406
0.57441
0.574413
0.574416
0.574419
0.574419
0.574423
0.574426
0.574429
0.574433
0.574433
0.574436
0.574439
0.574443
0.574446
0.574446
0.574449
0.574453
0.574456
0.574459
0.574459
0.574463
0.574466
0.574469
0.574473
0.574473
0.574476
0.574479
0.574483
0.574486
0.574486
0.57449
0.574493
0.574496
0.5745
0.5745
0.574503
0.574507
0.57451
0.574513
0.574513
0.574517
0.57452
0.574524
0.574527
0.574527
0.57453
0.574534
0.574537
0.574541
0.574541
0.574544
0.574548
0.574551
0.574555
0.574555
0.574558
0.574562
0.574565
0.574569
0.574569
0.574572
0.574576
0.574579
0.574583
0.574583
0.574586
0.57459
0.574593
0.574597
0.574597
0.5746
0.574604
0.574607
0.574611
0.574611
0.574614
0.574618
0.574622
0.574625
0.574625
0.574629
0.574632
0.574636
0.574639
0.574639
0.574643
0.574647
0.57465
0.574654
0.574654
0.574657
0.574661
0.574665
0.574668
0.574668
0.574672
0.574676
0.574679
0.574683
0.574683
0.574686
0.57469
0.574694
0.574697
0.574697
0.574701
0.574705
0.574708
0.574712
0.574712
0.574716
0.574719
0.574723
0.574727
0.574727
0.574731
0.574734
0.574738
0.574742
0.574742
0.574746
0.574749
0.574753
0.574757
0.574757
0.57476
0.574764
0.574768
0.574772
0.574772
0.574776
0.574779
0.574783
0.574787
0.574787
0.574791
0.574794
0.574798
0.574802
0.574802
0.574806
0.57481
0.574814
0.574817
0.574817
0.574821
0.574825
0.574829
0.574833
0.574833
0.574837
0.57484
0.574844
0.574848
0.574848
0.574852
0.574856
0.57486
0.574864
0.574864
0.574867
0.574871
0.574875
0.574879
0.574879
0.574883
0.574887
0.574891
0.574895
0.574895
0.574899
0.574903
0.574907
0.574911
0.574911
0.574914
0.574918
0.574922
0.574926
0.574926
0.57493
0.574934
0.574938
0.574942
0.574942
0.574946
0.57495
0.574954
0.574958
0.574958
0.574962
0.574966
0.57497
0.574974
0.574974
0.574978
0.574982
0.574986
0.57499
0.57499
0.574995
0.574999
0.575003
0.575007
0.575007
0.575011
0.575015
0.575019
0.575023
0.575023
0.575027
0.575031
0.575035
0.575039
0.575039
0.575044
0.575048
0.575052
0.575056
0.575056
0.57506
0.575064
0.575068
0.575072
0.575072
0.575077
0.575081
0.575085
0.575089
0.575089
0.575093
0.575098
0.575102
0.575106
0.575106
0.57511
0.575114
0.575119
0.575123
0.575123
0.575127
0.575131
0.575135
0.57514
0.57514
0.575144
0.575148
0.575152
0.575157
0.575157
0.575161
0.575165
0.575169
0.575174
0.575174
0.575178
0.575182
0.575187
0.575191
0.575191
0.575195
0.575199
0.575204
0.575208
0.575208
0.575212
0.575217
0.575221
0.575225
0.575225
0.57523
0.575234
0.575239
0.575243
0.575243
0.575247
0.575252
0.575256
0.57526
0.57526
0.575265
0.575269
0.575274
0.575278
0.575278
0.575282
0.575287
0.575291
0.575296
0.575296
0.5753
0.575305
0.575309
0.575313
0.575313
0.575318
0.575322
0.575327
0.575331
0.575331
0.575336
0.57534
0.575345
0.575349
0.575349
0.575354
0.575358
0.575363
0.575367
0.575367
0.575372
0.575376
0.575381
0.575385
0.575385
0.57539
0.575395
0.575399
0.575404
0.575404
0.575408
0.575413
0.575417
0.575422
0.575422
0.575427
0.575431
0.575436
0.57544
0.57544
0.575445
0.57545
0.575454
0.575459
0.575459
0.575464
0.575468
0.575473
0.575478
0.575478
0.575482
0.575487
0.575492
0.575496
0.575496
0.575501
0.575506
0.57551
0.575515
0.575515
0.57552
0.575524
0.575529
0.575534
0.575534
0.575539
0.575543
0.575548
0.575553
0.575553
0.575558
0.575562
0.575567
0.575572
0.575572
0.575577
0.575581
0.575586
0.575591
0.575591
0.575596
0.575601
0.575605
0.57561
0.57561
0.575615
0.57562
0.575625
0.57563
0.57563
0.575634
0.575639
0.575644
0.575649
0.575649
0.575654
0.575659
0.575664
0.575668
0.575668
0.575673
0.575678
0.575683
0.575688
0.575688
0.575693
0.575698
0.575703
0.575708
0.575708
0.575713
0.575718
0.575723
0.575728
0.575728
0.575733
0.575738
0.575743
0.575748
0.575748
0.575753
0.575758
0.575763
0.575768
0.575768
0.575773
0.575778
0.575783
0.575788
0.575788
0.575793
0.575798
0.575803
0.575808
0.575808
0.575813
0.575818
0.575823
0.575828
0.575828
0.575833
0.575838
0.575843
0.575848
0.575848
0.575854
0.575859
0.575864
0.575869
0.575869
0.575874
0.575879
0.575884
0.57589
0.57589
0.575895
0.5759
0.575905
0.57591
0.57591
0.575915
0.575921
0.575926
0.575931
0.575931
0.575936
0.575941
0.575947
0.575952
0.575952
0.575957
0.575962
0.575968
0.575973
0.575973
0.575978
0.575983
0.575989
0.575994
0.575994
0.575999
0.576004
0.57601
0.576015
0.576015
0.57602
0.576026
0.576031
0.576036
0.576036
0.576042
0.576047
0.576052
0.576058
0.576058
0.576063
0.576068
0.576074
0.576079
0.576079
0.576085
0.57609
0.576095
0.576101
0.576101
0.576106
0.576112
0.576117
0.576123
0.576123
0.576128
0.576133
0.576139
0.576144
0.576144
0.57615
0.576155
0.576161
0.576166
0.576166
0.576172
0.576177
0.576183
0.576188
0.576188
0.576194
0.576199
0.576205
0.57621
0.57621
0.576216
0.576221
0.576227
0.576232
0.576232
0.576238
0.576244
0.576249
0.576255
0.576255
0.57626
0.576266
0.576272
0.576277
0.576277
0.576283
0.576288
0.576294
0.5763
0.5763
0.576305
0.576311
0.576317
0.576322
0.576322
0.576328
0.576334
0.576339
0.576345
0.576345
0.576351
0.576356
0.576362
0.576368
0.576368
0.576374
0.576379
0.576385
0.576391
0.576391
0.576397
0.576402
0.576408
0.576414
0.576414
0.57642
0.576426
0.576431
0.576437
0.576437
0.576443
0.576449
0.576455
0.57646
0.57646
0.576466
0.576472
0.576478
0.576484
0.576484
0.57649
0.576495
0.576501
0.576507
0.576507
0.576513
0.576519
0.576525
0.576531
0.576531
0.576537
0.576543
0.576549
0.576554
0.576554
0.57656
0.576566
0.576572
0.576578
0.576578
0.576584
0.57659
0.576596
0.576602
0.576602
0.576608
0.576614
0.57662
0.576626
0.576626
0.576632
0.576638
0.576644
0.576651
0.576651
0.576657
0.576663
0.576669
0.576675
0.576675
0.576681
0.576687
0.576693
0.576699
0.576699
0.576705
0.576711
0.576717
0.576724
0.576724
0.57673
0.576736
0.576742
0.576748
0.576748
0.576754
0.576761
0.576767
0.576773
0.576773
0.576779
0.576785
0.576792
0.576798
0.576798
0.576804
0.57681
0.576817
0.576823
0.576823
0.576829
0.576835
0.576842
0.576848
0.576848
0.576854
0.57686
0.576867
0.576873
0.576873
0.576879
0.576886
0.576892
0.576898
0.576898
0.576905
0.576911
0.576917
0.576924
0.576924
0.57693
0.576936
0.576943
0.576949
0.576949
0.576956
0.576962
0.576968
0.576975
0.576975
0.576981
0.576988
0.576994
0.577001
0.577001
0.577007
0.577014
0.57702
0.577027
0.577027
0.577033
0.57704
0.577046
0.577053
0.577053
0.577059
0.577066
0.577072
0.577079
0.577079
0.577085
0.577092
0.577098
0.577105
0.577105
0.577111
0.577118
0.577125
0.577131
0.577131
0.577138
0.577145
0.577151
0.577158
0.577158
0.577164
0.577171
0.577178
0.577184
0.577184
0.577191
0.577198
0.577204
0.577211
0.577211
0.577218
0.577225
0.577231
0.577238
0.577238
0.577245
0.577251
0.577258
0.577265
0.577265
0.577272
0.577278
0.577285
0.577292
0.577292
0.577299
0.577306
0.577312
0.577319
0.577319
0.577326
0.577333
0.57734
0.577347
0.577347
0.577354
0.57736
0.577367
0.577374
0.577374
0.577381
0.577388
0.577395
0.577402
0.577402
0.577409
0.577416
0.577423
0.577429
0.577429
0.577436
0.577443
0.57745
0.577457
0.577457
0.577464
0.577471
0.577478
0.577485
0.577485
0.577492
0.577499
0.577506
0.577513
0.577513
0.57752
0.577528
0.577535
0.577542
0.577542
0.577549
0.577556
0.577563
0.57757
0.57757
0.577577
0.577584
0.577591
0.577599
0.577599
0.577606
0.577613
0.57762
0.577627
0.577627
0.577634
0.577642
0.577649
0.577656
0.577656
0.577663
0.57767
0.577678
0.577685
0.577685
0.577692
0.577699
0.577707
0.577714
0.577714
0.577721
0.577728
0.577736
0.577743
0.577743
0.57775
0.577758
0.577765
0.577772
0.577772
0.57778
0.577787
0.577794
0.577802
0.577802
0.577809
0.577817
0.577824
0.577831
0.577831
0.577839
0.577846
0.577854
0.577861
0.577861
0.577868
0.577876
0.577883
0.577891
0.577891
0.577898
0.577906
0.577913
0.577921
0.577921
0.577928
0.577936
0.577943
0.577951
0.577951
0.577958
0.577966
0.577974
0.577981
0.577981
0.577989
0.577996
0.578004
0.578011
0.578011
0.578019
0.578027
0.578034
0.578042
0.578042
0.57805
0.578057
0.578065
0.578073
0.578073
0.57808
0.578088
0.578096
0.578103
0.578103
0.578111
0.578119
0.578127
0.578134
0.578134
0.578142
0.57815
0.578158
0.578165
0.578165
0.578173
0.578181
0.578189
0.578197
0.578197
0.578204
0.578212
0.57822
0.578228
0.578228
0.578236
0.578244
0.578252
0.578259
0.578259
0.578267
0.578275
0.578283
0.578291
0.578291
0.578299
0.578307
0.578315
0.578323
0.578323
0.578331
0.578339
0.578347
0.578355
0.578355
0.578363
0.578371
0.578379
0.578387
0.578387
0.578395
0.578403
0.578411
0.578419
0.578419
0.578427
0.578435
0.578443
0.578451
0.578451
0.57846
0.578468
0.578476
0.578484
0.578484
0.578492
0.5785
0.578508
0.578517
0.578517
0.578525
0.578533
0.578541
0.578549
0.578549
0.578558
0.578566
0.578574
0.578582
0.578582
0.578591
0.578599
0.578607
0.578615
0.578615
0.578624
0.578632
0.57864
0.578649
0.578649
0.578657
0.578665
0.578674
0.578682
0.578682
0.57869
0.578699
0.578707
0.578716
0.578716
0.578724
0.578732
0.578741
0.578749
0.578749
0.578758
0.578766
0.578775
0.578783
0.578783
0.578792
0.5788
0.578809
0.578817
0.578817
0.578826
0.578834
0.578843
0.578851
0.578851
0.57886
0.578868
0.578877
0.578886
0.578886
0.578894
0.578903
0.578911
0.57892
0.57892
0.578929
0.578937
0.578946
0.578955
0.578955
0.578963
0.578972
0.578981
0.57899
0.57899
0.578998
0.579007
0.579016
0.579024
0.579024
0.579033
0.579042
0.579051
0.57906
0.57906
0.579068
0.579077
0.579086
0.579095
0.579095
0.579104
0.579112
0.579121
0.57913
0.57913
0.579139
0.579148
0.579157
0.579166
0.579166
0.579175
0.579184
0.579193
0.579202
0.579202
0.57921
0.579219
0.579228
0.579237
0.579237
0.579246
0.579255
0.579264
0.579273
0.579273
0.579282
0.579292
0.579301
0.57931
0.57931
0.579319
0.579328
0.579337
0.579346
0.579346
0.579355
0.579364
0.579373
0.579383
0.579383
0.579392
0.579401
0.57941
0.579419
0.579419
0.579429
0.579438
0.579447
0.579456
0.579456
0.579465
0.579475
0.579484
0.579493
0.579493
0.579502
0.579512
0.579521
0.57953
0.57953
0.57954
0.579549
0.579558
0.579568
0.579568
0.579577
0.579587
0.579596
0.579605
0.579605
0.579615
0.579624
0.579634
0.579643
0.579643
0.579653
0.579662
0.579671
0.579681
0.579681
0.57969
0.5797
0.579709
0.579719
0.579719
0.579729
0.579738
0.579748
0.579757
0.579757
0.579767
0.579776
0.579786
0.579796
0.579796
0.579805
0.579815
0.579825
0.579834
0.579834
0.579844
0.579854
0.579863
0.579873
0.579873
0.579883
0.579892
0.579902
0.579912
0.579912
0.579922
0.579931
0.579941
0.579951
0.579951
0.579961
0.579971
0.57998
0.57999
0.57999
0.58
0.58001
0.58002
0.58003
0.58003
0.580039
0.580049
0.580059
0.580069
0.580069
0.580079
0.580089
0.580099
0.580109
0.580109
0.580119
0.580129
0.580139
0.580149
0.580149
0.580159
0.580169
0.580179
0.580189
0.580189
0.580199
0.580209
0.580219
0.580229
0.580229
0.58024
0.58025
0.58026
0.58027
0.58027
0.58028
0.58029
0.580301
0.580311
0.580311
0.580321
0.580331
0.580341
0.580352
0.580352
0.580362
0.580372
0.580382
0.580393
0.580393
0.580403
0.580413
0.580424
0.580434
0.580434
0.580444
0.580455
0.580465
0.580475
0.580475
0.580486
0.580496
0.580507
0.580517
0.580517
0.580527
0.580538
0.580548
0.580559
0.580559
0.580569
0.58058
0.58059
0.580601
0.580601
0.580611
0.580622
0.580632
0.580643
0.580643
0.580654
0.580664
0.580675
0.580685
0.580685
0.580696
0.580707
0.580717
0.580728
0.580728
0.580739
0.580749
0.58076
0.580771
0.580771
0.580781
0.580792
0.580803
0.580814
0.580814
0.580824
0.580835
0.580846
0.580857
0.580857
0.580868
0.580878
0.580889
0.5809
0.5809
0.580911
0.580922
0.580933
0.580944
0.580944
0.580955
0.580966
0.580976
0.580987
0.580987
0.580998
0.581009
0.58102
0.581031
0.581031
0.581042
0.581053
0.581064
0.581076
0.581076
0.581087
0.581098
0.581109
0.58112
0.58112
0.581131
0.581142
0.581153
0.581164
0.581164
0.581176
0.581187
0.581198
0.581209
0.581209
0.58122
0.581232
0.581243
0.581254
0.581254
0.581265
0.581277
0.581288
0.581299
0.581299
0.58131
0.581322
0.581333
0.581344
0.581344
0.581356
0.581367
0.581379
0.58139
0.58139
0.581401
0.581413
0.581424
0.581436
0.581436
0.581447
0.581459
0.58147
0.581482
0.581482
0.581493
0.581505
0.581516
0.581528
0.581528
0.581539
0.581551
0.581563
0.581574
0.581574
0.581586
0.581598
0.581609
0.581621
0.581621
0.581632
0.581644
0.581656
0.581668
0.581668
0.581679
0.581691
0.581703
0.581715
0.581715
0.581726
0.581738
0.58175
0.581762
0.581762
0.581774
0.581785
0.581797
0.581809
0.581809
0.581821
0.581833
0.581845
0.581857
0.581857
0.581869
0.581881
0.581893
0.581905
0.581905
0.581917
0.581929
0.581941
0.581953
0.581953
0.581965
0.581977
0.581989
0.582001
0.582001
0.582013
0.582025
0.582037
0.58205
0.58205
0.582062
0.582074
0.582086
0.582098
0.582098
0.58211
0.582123
0.582135
0.582147
0.582147
0.582159
0.582172
0.582184
0.582196
0.582196
0.582209
0.582221
0.582233
0.582246
0.582246
0.582258
0.58227
0.582283
0.582295
0.582295
0.582308
0.58232
0.582333
0.582345
0.582345
0.582358
0.58237
0.582383
0.582395
0.582395
0.582408
0.58242
0.582433
0.582445
0.582445
0.582458
0.582471
0.582483
0.582496
0.582496
0.582509
0.582521
0.582534
0.582547
0.582547
0.582559
0.582572
0.582585
0.582598
0.582598
0.58261
0.582623
0.582636
0.582649
0.582649
0.582662
0.582674
0.582687
0.5827
0.5827
0.582713
0.582726
0.582739
0.582752
0.582752
0.582765
0.582778
0.582791
0.582804
0.582804
0.582817
0.58283
0.582843
0.582856
0.582856
0.582869
0.582882
0.582895
0.582908
0.582908
0.582921
0.582934
0.582948
0.582961
0.582961
0.582974
0.582987
0.583
0.583014
0.583014
0.583027
0.58304
0.583053
0.583067
0.583067
0.58308
0.583093
0.583107
0.58312
0.58312
0.583133
0.583147
0.58316
0.583174
0.583174
0.583187
0.5832
0.583214
0.583227
0.583227
0.583241
0.583254
0.583268
0.583281
0.583281
0.583295
0.583308
0.583322
0.583336
0.583336
0.583349
0.583363
0.583377
0.58339
0.58339
0.583404
0.583418
0.583431
0.583445
0.583445
0.583459
0.583472
0.583486
0.5835
0.5835
0.583514
0.583528
0.583541
0.583555
0.583555
0.583569
0.583583
0.583597
0.583611
0.583611
0.583625
0.583639
0.583653
0.583666
0.583666
0.58368
0.583694
0.583708
0.583722
0.583722
0.583737
0.583751
0.583765
0.583779
0.583779
0.583793
0.583807
0.583821
0.583835
0.583835
0.583849
0.583864
0.583878
0.583892
0.583892
0.583906
0.583921
0.583935
0.583949
0.583949
0.583963
0.583978
0.583992
0.584006
0.584006
0.584021
0.584035
0.584049
0.584064
0.584064
0.584078
0.584093
0.584107
0.584122
0.584122
0.584136
0.584151
0.584165
0.58418
0.58418
0.584194
0.584209
0.584224
0.584238
0.584238
0.584253
0.584267
0.584282
0.584297
0.584297
0.584311
0.584326
0.584341
0.584356
0.584356
0.58437
0.584385
0.5844
0.584415
0.584415
0.58443
0.584444
0.584459
0.584474
0.584474
0.584489
0.584504
0.584519
0.584534
0.584534
0.584549
0.584564
0.584579
0.584594
0.584594
0.584609
0.584624
0.584639
0.584654
0.584654
0.584669
0.584684
0.584699
0.584714
0.584714
0.58473
0.584745
0.58476
0.584775
0.584775
0.58479
0.584806
0.584821
0.584836
0.584836
0.584851
0.584867
0.584882
0.584897
0.584897
0.584913
0.584928
0.584944
0.584959
0.584959
0.584974
0.58499
0.585005
0.585021
0.585021
0.585036
0.585052
0.585067
0.585083
0.585083
0.585099
0.585114
0.58513
0.585145
0.585145
0.585161
0.585177
0.585192
0.585208
0.585208
0.585224
0.58524
0.585255
0.585271
0.585271
0.585287
0.585303
0.585319
0.585334
0.585334
0.58535
0.585366
0.585382
0.585398
0.585398
0.585414
0.58543
0.585446
0.585462
0.585462
0.585478
0.585494
0.58551
0.585526
0.585526
0.585542
0.585558
0.585574
0.58559
0.58559
0.585607
0.585623
0.585639
0.585655
0.585655
0.585671
0.585688
0.585704
0.58572
0.58572
0.585736
0.585753
0.585769
0.585785
0.585785
0.585802
0.585818
0.585835
0.585851
0.585851
0.585867
0.585884
0.5859
0.585917
0.585917
0.585933
0.58595
0.585967
0.585983
0.585983
0.586
0.586016
0.586033
0.58605
0.58605
0.586066
0.586083
0.5861
0.586116
0.586116
0.586133
0.58615
0.586167
0.586184
0.586184
0.5862
0.586217
0.586234
0.586251
0.586251
0.586268
0.586285
0.586302
0.586319
0.586319
0.586336
0.586353
0.58637
0.586387
0.586387
0.586404
0.586421
0.586438
0.586455
0.586455
0.586472
0.586489
0.586507
0.586524
0.586524
0.586541
0.586558
0.586575
0.586593
0.586593
0.58661
0.586627
0.586645
0.586662
0.586662
0.586679
0.586697
0.586714
0.586731
0.586731
0.586749
0.586766
0.586784
0.586801
0.586801
0.586819
0.586836
0.586854
0.586872
0.586872
0.586889
0.586907
0.586924
0.586942
0.586942
0.58696
0.586978
0.586995
0.587013
0.587013
0.587031
0.587049
0.587066
0.587084
0.587084
0.587102
0.58712
0.587138
0.587156
0.587156
0.587174
0.587192
0.58721
0.587228
0.587228
0.587246
0.587264
0.587282
0.5873
0.5873
0.587318
0.587336
0.587354
0.587372
0.587372
0.58739
0.587408
0.587427
0.587445
0.587445
0.587463
0.587481
0.5875
0.587518
0.587518
0.587536
0.587555
0.587573
0.587592
0.587592
0.58761
0.587628
0.587647
0.587665
0.587665
0.587684
0.587702
0.587721
0.587739
0.587739
0.587758
0.587777
0.587795
0.587814
0.587814
0.587833
0.587851
0.58787
0.587889
0.587889
0.587908
0.587926
0.587945
0.587964
0.587964
0.587983
0.588002
0.58802
0.588039
0.588039
0.588058
0.588077
0.588096
0.588115
0.588115
0.588134
0.588153
0.588172
0.588191
0.588191
0.58821
0.58823
0.588249
0.588268
0.588268
0.588287
0.588306
0.588326
0.588345
0.588345
0.588364
0.588383
0.588403
0.588422
0.588422
0.588441
0.588461
0.58848
0.5885
0.5885
0.588519
0.588538
0.588558
0.588578
0.588578
0.588597
0.588617
0.588636
0.588656
0.588656
0.588675
0.588695
0.588715
0.588734
0.588734
0.588754
0.588774
0.588794
0.588813
0.588813
0.588833
0.588853
0.588873
0.588893
0.588893
0.588913
0.588933
0.588952
0.588972
0.588972
0.588992
0.589012
0.589032
0.589053
0.589053
0.589073
0.589093
0.589113
0.589133
0.589133
0.589153
0.589173
0.589194
0.589214
0.589214
0.589234
0.589254
0.589275
0.589295
0.589295
0.589315
0.589336
0.589356
0.589376
0.589376
0.589397
0.589417
0.589438
0.589458
0.589458
0.589479
0.589499
0.58952
0.589541
0.589541
0.589561
0.589582
0.589603
0.589623
0.589623
0.589644
0.589665
0.589686
0.589706
0.589706
0.589727
0.589748
0.589769
0.58979
0.58979
0.589811
0.589832
0.589852
0.589873
0.589873
0.589894
0.589915
0.589937
0.589958
0.589958
0.589979
0.59
0.590021
0.590042
0.590042
0.590063
0.590085
0.590106
0.590127
0.590127
0.590148
0.59017
0.590191
0.590212
0.590212
0.590234
0.590255
0.590277
0.590298
0.590298
0.59032
0.590341
0.590363
0.590384
0.590384
0.590406
0.590427
0.590449
0.590471
0.590471
0.590492
0.590514
0.590536
0.590557
0.590557
0.590579
0.590601
0.590623
0.590645
0.590645
0.590667
0.590689
0.59071
0.590732
0.590732
0.590754
0.590776
0.590798
0.59082
0.59082
0.590843
0.590865
0.590887
0.590909
0.590909
0.590931
0.590953
0.590976
0.590998
0.590998
0.59102
0.591042
0.591065
0.591087
0.591087
0.591109
0.591132
0.591154
0.591177
0.591177
0.591199
0.591222
0.591244
0.591267
0.591267
0.591289
0.591312
0.591335
0.591357
0.591357
0.59138
0.591403
0.591425
0.591448
0.591448
0.591471
0.591494
0.591517
0.591539
0.591539
0.591562
0.591585
0.591608
0.591631
0.591631
0.591654
0.591677
0.5917
0.591723
0.591723
0.591746
0.591769
0.591793
0.591816
0.591816
0.591839
0.591862
0.591885
0.591909
0.591909
0.591932
0.591955
0.591979
0.592002
0.592002
0.592025
0.592049
0.592072
0.592096
0.592096
0.592119
0.592143
0.592167
0.59219
0.59219
0.592214
0.592237
0.592261
0.592285
0.592285
0.592308
0.592332
0.592356
0.59238
0.59238
0.592404
0.592428
0.592451
0.592475
0.592475
0.592499
0.592523
0.592547
0.592571
0.592571
0.592595
0.592619
0.592644
0.592668
0.592668
0.592692
0.592716
0.59274
0.592764
0.592764
0.592789
0.592813
0.592837
0.592862
0.592862
0.592886
0.59291
0.592935
0.592959
0.592959
0.592984
0.593008
0.593033
0.593057
0.593057
0.593082
0.593107
0.593131
0.593156
0.593156
0.593181
0.593205
0.59323
0.593255
0.593255
0.59328
0.593305
0.59333
0.593355
0.593355
0.593379
0.593404
0.593429
0.593454
0.593454
0.593479
0.593505
0.59353
0.593555
0.593555
0.59358
0.593605
0.59363
0.593656
0.593656
0.593681
0.593706
0.593731
0.593757
0.593757
0.593782
0.593808
0.593833
0.593859
0.593859
0.593884
0.59391
0.593935
0.593961
0.593961
0.593986
0.594012
0.594038
0.594063
0.594063
0.594089
0.594115
0.594141
0.594166
0.594166
0.594192
0.594218
0.594244
0.59427
0.59427