<?xml version="1.0"?>
<VTKFile type="UnstructuredGrid" version="0.1" byte_order="LittleEndian">
<UnstructuredGrid>
<Piece NumberOfPoints="5000" NumberOfCells="4000">
<PointData Scalars="Reaction 0">
<DataArray type="Float32" Name="Reaction 0" format="ascii">
0.567466
0.567466
0.567466
0.567466
0.567466
0.567466
0.567466
0.567466
0.567466
0.567466
0.567466
0.567466
0.567466
0.567466
0.567466
0.567466
0.567466
0.567466
0.567466
0.567466
0.567466
0.567466
0.567466
0.567466
0.567466
0.567466
0.567466
0.567466
0.567466
0.567466
0.567466
0.567466
0.567466
0.567466
0.567466
0.567466
0.567466
0.567466
0.567466
0.567466
0.567466
0.567466
0.567467
0.567467
0.567467
0.567467
0.567467
0.567467
0.567467
0.567467
0.567467
0.567467
0.567467
0.567467
0.567467
0.567467
0.567467
0.567467
0.567467
0.567467
0.567467
0.567467
0.567467
0.567467
0.567467
0.567467
0.567467
0.567467
0.567467
0.567468
0.567468
0.567468
0.567468
0.567468
0.567468
0.567468
0.567468
0.567468
0.567468
0.567468
0.567468
0.567468
0.567468
0.567468
0.567468
0.567468
0.567468
0.567468
0.567469
0.567469
0.567469
0.567469
0.567469
0.567469
0.567469
0.567469
0.567469
0.567469
0.567469
0.567469
0.567469
0.567469
0.567469
0.56747
0.56747
0.56747
0.56747
0.56747
0.56747
0.56747
0.56747
0.56747
0.56747
0.56747
0.56747
0.56747
0.56747
0.567471
0.567471
0.567471
0.567471
0.567471
0.567471
0.567471
0.567471
0.567471
0.567471
0.567471
0.567471
0.567472
0.567472
0.567472
0.567472
0.567472
0.567472
0.567472
0.567472
0.567472
0.567472
0.567472
0.567472
0.567473
0.567473
0.567473
0.567473
0.567473
0.567473
0.567473
0.567473
0.567473
0.567473
0.567474
0.567474
0.567474
0.567474
0.567474
0.567474
0.567474
0.567474
0.567474
0.567474
0.567475
0.567475
0.567475
0.567475
0.567475
0.567475
0.567475
0.567475
0.567476
0.567476
0.567476
0.567476
0.567476
0.567476
0.567476
0.567476
0.567476
0.567477
0.567477
0.567477
0.567477
0.567477
0.567477
0.567477
0.567477
0.567477
0.567478
0.567478
0.567478
0.567478
0.567478
0.567478
0.567478
0.567479
0.567479
0.567479
0.567479
0.567479
0.567479
0.567479
0.567479
0.56748
0.56748
0.56748
0.56748
0.56748
0.56748
0.56748
0.567481
0.567481
0.567481
0.567481
0.567481
0.567481
0.567481
0.567481
0.567482
0.567482
0.567482
0.567482
0.567482
0.567482
0.567483
0.567483
0.567483
0.567483
0.567483
0.567483
0.567484
0.567484
0.567484
0.567484
0.567484
0.567484
0.567484
0.567484
0.567485
0.567485
0.567485
0.567485
0.567485
0.567485
0.567486
0.567486
0.567486
0.567486
0.567486
0.567487
0.567487
0.567487
0.567487
0.567487
0.567487
0.567488
0.567488
0.567488
0.567488
0.567488
0.567488
0.567488
0.567489
0.567489
0.567489
0.567489
0.567489
0.56749
0.56749
0.56749
0.56749
0.56749
0.56749
0.567491
0.567491
0.567491
0.567491
0.567491
0.567492
0.567492
0.567492
0.567492
0.567492
0.567493
0.567493
0.567493
0.567493
0.567493
0.567493
0.567494
0.567494
0.567494
0.567494
0.567494
0.567495
0.567495
0.567495
0.567495
0.567495
0.567496
0.567496
0.567496
0.567496
0.567496
0.567497
0.567497
0.567497
0.567497
0.567497
0.567498
0.567498
0.567498
0.567498
0.567498
0.567499
0.567499
0.567499
0.567499
0.5675
0.5675
0.5675
0.5675
0.5675
0.567501
0.567501
0.567501
0.567501
0.567501
0.567502
0.567502
0.567502
0.567502
0.567503
0.567503
0.567503
0.567503
0.567503
0.567504
0.567504
0.567504
0.567504
0.567504
0.567505
0.567505
0.567505
0.567506
0.567506
0.567506
0.567506
0.567507
0.567507
0.567507
0.567507
0.567507
0.567508
0.567508
0.567508
0.567508
0.567509
0.567509
0.567509
0.567509
0.567509
0.56751
0.56751
0.56751
0.56751
0.567511
0.567511
0.567511
0.567512
0.567512
0.567512
0.567512
0.567513
0.567513
0.567513
0.567513
0.567514
0.567514
0.567514
0.567514
0.567514
0.567515
0.567515
0.567515
0.567515
0.567516
0.567516
0.567516
0.567517
0.567517
0.567517
0.567517
0.567518
0.567518
0.567518
0.567518
0.567519
0.567519
0.567519
0.567519
0.56752
0.56752
0.56752
0.567521
0.567521
0.567521
0.567521
0.567522
0.567522
0.567522
0.567522
0.567523
0.567523
0.567523
0.567523
0.567524
0.567524
0.567525
0.567525
0.567525
0.567525
0.567526
0.567526
0.567526
0.567526
0.567527
0.567527
0.567527
0.567528
0.567528
0.567528
0.567528
0.567529
0.567529
0.567529
0.56753
0.56753
0.56753
0.567531
0.567531
0.567531
0.567531
0.567532
0.567532
0.567532
0.567533
0.567533
0.567533
0.567534
0.567534
0.567534
0.567534
0.567535
0.567535
0.567535
0.567536
0.567536
0.567536
0.567537
0.567537
0.567537
0.567538
0.567538
0.567538
0.567538
0.567539
0.567539
0.56754
0.56754
0.56754
0.56754
0.567541
0.567541
0.567541
0.567541
0.567542
0.567542
0.567543
0.567543
0.567543
0.567544
0.567544
0.567544
0.567545
0.567545
0.567545
0.567546
0.567546
0.567546
0.567546
0.567547
0.567547
0.567548
0.567548
0.567548
0.567548
0.567549
0.567549
0.56755
0.56755
0.56755
0.567551
0.567551
0.567551
0.567551
0.567552
0.567552
0.567553
0.567553
0.567553
0.567554
0.567554
0.567554
0.567555
0.567555
0.567555
0.567556
0.567556
0.567557
0.567557
0.567557
0.567557
0.567558
0.567558
0.567558
0.567559
0.567559
0.56756
0.56756
0.56756
0.567561
0.567561
0.567562
0.567562
0.567562
0.567562
0.567563
0.567563
0.567564
0.567564
0.567564
0.567565
0.567565
0.567566
0.567566
0.567566
0.567567
0.567567
0.567568
0.567568
0.567568
0.567568
0.567569
0.567569
0.567569
0.56757
0.56757
0.567571
0.567571
0.567571
0.567572
0.567572
0.567573
0.567573
0.567573
0.567574
0.567574
0.567575
0.567575
0.567575
0.567576
0.567576
0.567577
0.567577
0.567577
0.567578
0.567578
0.567579
0.567579
0.567579
0.56758
0.56758
0.567581
0.567581
0.567581
0.567582
0.567582
0.567583
0.567583
0.567583
0.567584
0.567584
0.567585
0.567585
0.567585
0.567586
0.567586
0.567587
0.567587
0.567587
0.567588
0.567588
0.567589
0.567589
0.567589
0.56759
0.56759
0.567591
0.567591
0.567591
0.567592
0.567592
0.567593
0.567593
0.567593
0.567594
0.567594
0.567595
0.567595
0.567595
0.567596
0.567596
0.567597
0.567598
0.567598
0.567598
0.567599
0.567599
0.5676
0.5676
0.5676
0.567601
0.567601
0.567602
0.567602
0.567602
0.567603
0.567603
0.567604
0.567604
0.567605
0.567605
0.567606
0.567606
0.567606
0.567607
0.567607
0.567608
0.567608
0.567608
0.567609
0.56761
0.56761
0.567611
0.567611
0.567611
0.567612
0.567612
0.567613
0.567613
0.567614
0.567614
0.567615
0.567615
0.567615
0.567616
0.567616
0.567617
0.567618
0.567618
0.567618
0.567619
0.567619
0.56762
0.56762
0.56762
0.567621
0.567622
0.567622
0.567622
0.567623
0.567623
0.567624
0.567625
0.567625
0.567625
0.567626
0.567626
0.567627
0.567627
0.567627
0.567628
0.567629
0.567629
0.567629
0.56763
0.56763
0.567631
0.567632
0.567632
0.567632
0.567633
0.567633
0.567634
0.567634
0.567635
0.567635
0.567636
0.567636
0.567636
0.567637
0.567638
0.567638
0.567639
0.567639
0.56764
0.56764
0.567641
0.567641
0.567641
0.567642
0.567643
0.567643
0.567644
0.567644
0.567645
0.567645
0.567646
0.567646
0.567646
0.567647
0.567648
0.567648
0.567649
0.567649
0.56765
0.56765
0.567651
0.567652
0.567652
0.567652
0.567653
0.567653
0.567654
0.567654
0.567655
0.567655
0.567656
0.567657
0.567657
0.567657
0.567658
0.567659
0.567659
0.567659
0.56766
0.567661
0.567661
0.567662
0.567662
0.567663
0.567663
0.567664
0.567665
0.567665
0.567665
0.567666
0.567667
0.567667
0.567667
0.567668
0.567669
0.567669
0.56767
0.56767
0.567671
0.567671
0.567672
0.567673
0.567673
0.567673
0.567674
0.567675
0.567675
0.567675
0.567676
0.567677
0.567677
0.567678
0.567678
0.567679
0.567679
0.56768
0.567681
0.567681
0.567681
0.567682
0.567683
0.567684
0.567684
0.567684
0.567685
0.567686
0.567686
0.567686
0.567687
0.567688
0.567688
0.567689
0.567689
0.56769
0.567691
0.567691
0.567692
0.567692
0.567693
0.567693
0.567694
0.567695
0.567695
0.567696
0.567696
0.567697
0.567698
0.567698
0.567699
0.567699
0.5677
0.567701
0.567701
0.567701
0.567702
0.567703
0.567704
0.567704
0.567704
0.567705
0.567706
0.567707
0.567707
0.567707
0.567708
0.567709
0.567709
0.567709
0.56771
0.567711
0.567712
0.567712
0.567712
0.567713
0.567714
0.567715
0.567715
0.567715
0.567716
0.567717
0.567718
0.567718
0.567718
0.567719
0.56772
0.567721
0.567721
0.567721
0.567722
0.567723
0.567724
0.567724
0.567724
0.567725
0.567726
0.567727
0.567728
0.567728
0.567728
0.567729
0.56773
0.567731
0.567731
0.567731
0.567732
0.567733
0.567734
0.567734
0.567735
0.567735
0.567736
0.567737
0.567737
0.567738
0.567738
0.567739
0.56774
0.56774
0.567741
0.567742
0.567742
0.567743
0.567743
0.567744
0.567745
0.567746
0.567746
0.567746
0.567747
0.567748
0.567749
0.56775
0.56775
0.56775
0.567751
0.567752
0.567753
0.567753
0.567754
0.567754
0.567755
0.567756
0.567756
0.567757
0.567758
0.567759
0.567759
0.567759
0.56776
0.567761
0.567762
0.567763
0.567763
0.567763
0.567764
0.567765
0.567766
0.567766
0.567767
0.567768
0.567768
0.567769
0.567769
0.56777
0.567771
0.567772
0.567773
0.567773
0.567773
0.567774
0.567775
0.567776
0.567776
0.567777
0.567778
0.567778
0.567779
0.567779
0.56778
0.567781
0.567782
0.567783
0.567783
0.567784
0.567784
0.567785
0.567786
0.567786
0.567787
0.567788
0.567789
0.56779
0.56779
0.567791
0.567791
0.567792
0.567793
0.567793
0.567794
0.567795
0.567796
0.567797
0.567797
0.567797
0.567798
0.567799
0.5678
0.5678
0.567801
0.567802
0.567803
0.567804
0.567804
0.567805
0.567805
0.567806
0.567807
0.567807
0.567808
0.567809
0.56781
0.567811
0.567811
0.567812
0.567812
0.567813
0.567814
0.567814
0.567815
0.567816
0.567817
0.567818
0.567818
0.567819
0.56782
0.567821
0.567822
0.567822
0.567822
0.567823
0.567824
0.567825
0.567825
0.567826
0.567827
0.567828
0.567829
0.567829
0.56783
0.567831
0.567832
0.567833
0.567833
0.567834
0.567834
0.567835
0.567836
0.567836
0.567837
0.567838
0.567839
0.56784
0.56784
0.567841
0.567842
0.567843
0.567844
0.567844
0.567845
0.567846
0.567847
0.567848
0.567848
0.567849
0.567849
0.56785
0.567851
0.567851
0.567852
0.567853
0.567854
0.567855
0.567855
0.567856
0.567857
0.567858
0.567859
0.567859
0.56786
0.567861
0.567862
0.567863
0.567863
0.567864
0.567865
0.567866
0.567867
0.567867
0.567868
0.567869
0.56787
0.567871
0.567871
0.567872
0.567873
0.567874
0.567875
0.567875
0.567876
0.567877
0.567878
0.567879
0.567879
0.56788
0.567881
0.567882
0.567883
0.567883
0.567884
0.567885
0.567886
0.567887
0.567887
0.567888
0.567889
0.56789
0.567891
0.567891
0.567892
0.567893
0.567894
0.567895
0.567895
0.567896
0.567897
0.567898
0.567899
0.567899
0.5679
0.567901
0.567902
0.567903
0.567903
0.567904
0.567905
0.567906
0.567907
0.567907
0.567908
0.567909
0.56791
0.567911
0.567911
0.567912
0.567913
0.567914
0.567915
0.567915
0.567916
0.567917
0.567918
0.567919
0.567919
0.56792
0.567921
0.567922
0.567923
0.567923
0.567924
0.567925
0.567927
0.567928
0.567928
0.567929
0.56793
0.567931
0.567932
0.567932
0.567933
0.567934
0.567935
0.567936
0.567936
0.567937
0.567938
0.567939
0.56794
0.56794
0.567941
0.567942
0.567944
0.567945
0.567945
0.567946
0.567947
0.567948
0.567949
0.567949
0.56795
0.567951
0.567952
0.567953
0.567953
0.567954
0.567955
0.567956
0.567958
0.567958
0.567959
0.56796
0.567961
0.567962
0.567962
0.567963
0.567964
0.567965
0.567966
0.567966
0.567968
0.567969
0.56797
0.567971
0.567971
0.567972
0.567973
0.567974
0.567975
0.567975
0.567976
0.567978
0.567979
0.56798
0.56798
0.567981
0.567982
0.567983
0.567984
0.567984
0.567985
0.567987
0.567988
0.567989
0.567989
0.56799
0.567991
0.567992
0.567993
0.567993
0.567994
0.567996
0.567997
0.567998
0.567998
0.567999
0.568
0.568001
0.568002
0.568002
0.568004
0.568005
0.568006
0.568007
0.568007
0.568008
0.568009
0.568011
0.568012
0.568012
0.568013
0.568014
0.568015
0.568016
0.568016
0.568018
0.568019
0.56802
0.568021
0.568021
0.568022
0.568023
0.568025
0.568026
0.568026
0.568027
0.568028
0.568029
0.568031
0.568031
0.568032
0.568033
0.568034
0.568035
0.568035
0.568036
0.568038
0.568039
0.56804
0.56804
0.568041
0.568042
0.568044
0.568045
0.568045
0.568046
0.568047
0.568048
0.56805
0.56805
0.568051
0.568052
0.568053
0.568054
0.568054
0.568056
0.568057
0.568058
0.568059
0.568059
0.568061
0.568062
0.568063
0.568064
0.568064
0.568066
0.568067
0.568068
0.568069
0.568069
0.56807
0.568072
0.568073
0.568074
0.568074
0.568075
0.568077
0.568078
0.568079
0.568079
0.56808
0.568082
0.568083
0.568084
0.568084
0.568085
0.568087
0.568088
0.568089
0.568089
0.56809
0.568092
0.568093
0.568094
0.568094
0.568095
0.568097
0.568098
0.568099
0.568099
0.5681
0.568102
0.568103
0.568104
0.568104
0.568106
0.568107
0.568108
0.568109
0.568109
0.568111
0.568112
0.568113
0.568115
0.568115
0.568116
0.568117
0.568118
0.56812
0.56812
0.568121
0.568122
0.568124
0.568125
0.568125
0.568126
0.568127
0.568129
0.56813
0.56813
0.568131
0.568133
0.568134
0.568135
0.568135
0.568137
0.568138
0.568139
0.568141
0.568141
0.568142
0.568143
0.568144
0.568146
0.568146
0.568147
0.568148
0.56815
0.568151
0.568151
0.568152
0.568154
0.568155
0.568156
0.568156
0.568158
0.568159
0.56816
0.568162
0.568162
0.568163
0.568165
0.568166
0.568167
0.568167
0.568169
0.56817
0.568171
0.568173
0.568173
0.568174
0.568175
0.568177
0.568178
0.568178
0.568179
0.568181
0.568182
0.568184
0.568184
0.568185
0.568186
0.568188
0.568189
0.568189
0.56819
0.568192
0.568193
0.568194
0.568194
0.568196
0.568197
0.568199
0.5682
0.5682
0.568201
0.568203
0.568204
0.568206
0.568206
0.568207
0.568208
0.56821
0.568211
0.568211
0.568213
0.568214
0.568215
0.568217
0.568217
0.568218
0.56822
0.568221
0.568222
0.568222
0.568224
0.568225
0.568227
0.568228
0.568228
0.568229
0.568231
0.568232
0.568234
0.568234
0.568235
0.568237
0.568238
0.568239
0.568239
0.568241
0.568242
0.568244
0.568245
0.568245
0.568247
0.568248
0.568249
0.568251
0.568251
0.568252
0.568254
0.568255
0.568257
0.568257
0.568258
0.56826
0.568261
0.568263
0.568263
0.568264
0.568266
0.568267
0.568268
0.568268
0.56827
0.568271
0.568273
0.568274
0.568274
0.568276
0.568277
0.568279
0.56828
0.56828
0.568282
0.568283
0.568285
0.568286
0.568286
0.568288
0.568289
0.568291
0.568292
0.568292
0.568293
0.568295
0.568296
0.568298
0.568298
0.568299
0.568301
0.568302
0.568304
0.568304
0.568306
0.568307
0.568309
0.56831
0.56831
0.568312
0.568313
0.568315
0.568316
0.568316
0.568318
0.568319
0.568321
0.568322
0.568322
0.568324
0.568325
0.568327
0.568328
0.568328
0.56833
0.568331
0.568333
0.568334
0.568334
0.568336
0.568338
0.568339
0.568341
0.568341
0.568342
0.568344
0.568345
0.568347
0.568347
0.568348
0.56835
0.568351
0.568353
0.568353
0.568355
0.568356
0.568358
0.568359
0.568359
0.568361
0.568362
0.568364
0.568366
0.568366
0.568367
0.568369
0.56837
0.568372
0.568372
0.568373
0.568375
0.568377
0.568378
0.568378
0.56838
0.568381
0.568383
0.568385
0.568385
0.568386
0.568388
0.568389
0.568391
0.568391
0.568392
0.568394
0.568396
0.568397
0.568397
0.568399
0.568401
0.568402
0.568404
0.568404
0.568405
0.568407
0.568409
0.56841
0.56841
0.568412
0.568413
0.568415
0.568417
0.568417
0.568418
0.56842
0.568422
0.568423
0.568423
0.568425
0.568427
0.568428
0.56843
0.56843
0.568431
0.568433
0.568435
0.568436
0.568436
0.568438
0.56844
0.568441
0.568443
0.568443
0.568445
0.568446
0.568448
0.56845
0.56845
0.568451
0.568453
0.568455
0.568456
0.568456
0.568458
0.56846
0.568461
0.568463
0.568463
0.568465
0.568466
0.568468
0.56847
0.56847
0.568471
0.568473
0.568475
0.568477
0.568477
0.568478
0.56848
0.568482
0.568483
0.568483
0.568485
0.568487
0.568488
0.56849
0.56849
0.568492
0.568494
0.568495
0.568497
0.568497
0.568499
0.5685
0.568502
0.568504
0.568504
0.568506
0.568507
0.568509
0.568511
0.568511
0.568512
0.568514
0.568516
0.568518
0.568518
0.568519
0.568521
0.568523
0.568525
0.568525
0.568526
0.568528
0.56853
0.568532
0.568532
0.568533
0.568535
0.568537
0.568539
0.568539
0.56854
0.568542
0.568544
0.568546
0.568546
0.568548
0.568549
0.568551
0.568553
0.568553
0.568555
0.568556
0.568558
0.56856
0.56856
0.568562
0.568563
0.568565
0.568567
0.568567
0.568569
0.568571
0.568572
0.568574
0.568574
0.568576
0.568578
0.56858
0.568582
0.568582
0.568583
0.568585
0.568587
0.568589
0.568589
0.568591
0.568592
0.568594
0.568596
0.568596
0.568598
0.5686
0.568601
0.568603
0.568603
0.568605
0.568607
0.568609
0.568611
0.568611
0.568612
0.568614
0.568616
0.568618
0.568618
0.56862
0.568622
0.568624
0.568625
0.568625
0.568627
0.568629
0.568631
0.568633
0.568633
0.568635
0.568637
0.568638
0.56864
0.56864
0.568642
0.568644
0.568646
0.568648
0.568648
0.56865
0.568652
0.568653
0.568655
0.568655
0.568657
0.568659
0.568661
0.568663
0.568663
0.568665
0.568667
0.568668
0.56867
0.56867
0.568672
0.568674
0.568676
0.568678
0.568678
0.56868
0.568682
0.568684
0.568686
0.568686
0.568688
0.56869
0.568691
0.568693
0.568693
0.568695
0.568697
0.568699
0.568701
0.568701
0.568703
0.568705
0.568707
0.568709
0.568709
0.568711
0.568713
0.568715
0.568717
0.568717
0.568719
0.56872
0.568722
0.568724
0.568724
0.568726
0.568728
0.56873
0.568732
0.568732
0.568734
0.568736
0.568738
0.56874
0.56874
0.568742
0.568744
0.568746
0.568748
0.568748
0.56875
0.568752
0.568754
0.568756
0.568756
0.568758
0.56876
0.568762
0.568764
0.568764
0.568766
0.568768
0.56877
0.568772
0.568772
0.568774
0.568776
0.568778
0.56878
0.56878
0.568782
0.568784
0.568786
0.568788
0.568788
0.56879
0.568792
0.568794
0.568796
0.568796
0.568798
0.5688
0.568802
0.568804
0.568804
0.568806
0.568808
0.56881
0.568813
0.568813
0.568815
0.568817
0.568819
0.568821
0.568821
0.568823
0.568825
0.568827
0.568829
0.568829
0.568831
0.568833
0.568835
0.568837
0.568837
0.568839
0.568841
0.568843
0.568846
0.568846
0.568848
0.56885
0.568852
0.568854
0.568854
0.568856
0.568858
0.56886
0.568862
0.568862
0.568864
0.568867
0.568869
0.568871
0.568871
0.568873
0.568875
0.568877
0.568879
0.568879
0.568881
0.568883
0.568886
0.568888
0.568888
0.56889
0.568892
0.568894
0.568896
0.568896
0.568898
0.5689
0.568903
0.568905
0.568905
0.568907
0.568909
0.568911
0.568913
0.568913
0.568916
0.568918
0.56892
0.568922
0.568922
0.568924
0.568926
0.568928
0.568931
0.568931
0.568933
0.568935
0.568937
0.568939
0.568939
0.568942
0.568944
0.568946
0.568948
0.568948
0.56895
0.568952
0.568955
0.568957
0.568957
0.568959
0.568961
0.568963
0.568966
0.568966
0.568968
0.56897
0.568972
0.568975
0.568975
0.568977
0.568979
0.568981
0.568983
0.568983
0.568986
0.568988
0.56899
0.568992
0.568992
0.568995
0.568997
0.568999
0.569001
0.569001
0.569003
0.569006
0.569008
0.56901
0.56901
0.569012
0.569015
0.569017
0.569019
0.569019
0.569022
0.569024
0.569026
0.569028
0.569028
0.569031
0.569033
0.569035
0.569038
0.569038
0.56904
0.569042
0.569044
0.569047
0.569047
0.569049
0.569051
0.569054
0.569056
0.569056
0.569058
0.56906
0.569063
0.569065
0.569065
0.569067
0.56907
0.569072
0.569074
0.569074
0.569077
0.569079
0.569081
0.569084
0.569084
0.569086
0.569088
0.569091
0.569093
0.569093
0.569095
0.569098
0.5691
0.569102
0.569102
0.569105
0.569107
0.569109
0.569112
0.569112
0.569114
0.569116
0.569119
0.569121
0.569121
0.569123
0.569126
0.569128
0.569131
0.569131
0.569133
0.569135
0.569138
0.56914
0.56914
0.569143
0.569145
0.569147
0.56915
0.56915
0.569152
0.569155
0.569157
0.569159
0.569159
0.569162
0.569164
0.569167
0.569169
0.569169
0.569171
0.569174
0.569176
0.569179
0.569179
0.569181
0.569183
0.569186
0.569188
0.569188
0.569191
0.569193
0.569196
0.569198
0.569198
0.569201
0.569203
0.569205
0.569208
0.569208
0.56921
0.569213
0.569215
0.569218
0.569218
0.56922
0.569223
0.569225
0.569228
0.569228
0.56923
0.569233
0.569235
0.569238
0.569238
0.56924
0.569243
0.569245
0.569248
0.569248
0.56925
0.569253
0.569255
0.569258
0.569258
0.56926
0.569263
0.569265
0.569268
0.569268
0.56927
0.569273
0.569275
0.569278
0.569278
0.56928
0.569283
0.569285
0.569288
0.569288
0.56929
0.569293
0.569295
0.569298
0.569298
0.569301
0.569303
0.569306
0.569308
0.569308
0.569311
0.569313
0.569316
0.569318
0.569318
0.569321
0.569324
0.569326
0.569329
0.569329
0.569331
0.569334
0.569337
0.569339
0.569339
0.569342
0.569344
0.569347
0.569349
0.569349
0.569352
0.569355
0.569357
0.56936
0.56936
0.569363
0.569365
0.569368
0.56937
0.56937
0.569373
0.569376
0.569378
0.569381
0.569381
0.569383
0.569386
0.569389
0.569391
0.569391
0.569394
0.569397
0.569399
0.569402
0.569402
0.569405
0.569407
0.56941
0.569413
0.569413
0.569415
0.569418
0.569421
0.569423
0.569423
0.569426
0.569429
0.569431
0.569434
0.569434
0.569437
0.569439
0.569442
0.569445
0.569445
0.569448
0.56945
0.569453
0.569456
0.569456
0.569458
0.569461
0.569464
0.569467
0.569467
0.569469
0.569472
0.569475
0.569477
0.569477
0.56948
0.569483
0.569486
0.569488
0.569488
0.569491
0.569494
0.569497
0.569499
0.569499
0.569502
0.569505
0.569508
0.56951
0.56951
0.569513
0.569516
0.569519
0.569521
0.569521
0.569524
0.569527
0.56953
0.569533
0.569533
0.569535
0.569538
0.569541
0.569544
0.569544
0.569547
0.569549
0.569552
0.569555
0.569555
0.569558
0.569561
0.569563
0.569566
0.569566
0.569569
0.569572
0.569575
0.569578
0.569578
0.56958
0.569583
0.569586
0.569589
0.569589
0.569592
0.569595
0.569597
0.5696
0.5696
0.569603
0.569606
0.569609
0.569612
0.569612
0.569615
0.569617
0.56962
0.569623
0.569623
0.569626
0.569629
0.569632
0.569635
0.569635
0.569638
0.569641
0.569643
0.569646
0.569646
0.569649
0.569652
0.569655
0.569658
0.569658
0.569661
0.569664
0.569667
0.56967
0.56967
0.569673
0.569676
0.569678
0.569681
0.569681
0.569684
0.569687
0.56969
0.569693
0.569693
0.569696
0.569699
0.569702
0.569705
0.569705
0.569708
0.569711
0.569714
0.569717
0.569717
0.56972
0.569723
0.569726
0.569729
0.569729
0.569732
0.569735
0.569738
0.569741
0.569741
0.569744
0.569747
0.56975
0.569753
0.569753
0.569756
0.569759
0.569762
0.569765
0.569765
0.569768
0.569771
0.569774
0.569777
0.569777
0.56978
0.569783
0.569786
0.569789
0.569789
0.569792
0.569795
0.569798
0.569801
0.569801
0.569804
0.569808
0.569811
0.569814
0.569814
0.569817
0.56982
0.569823
0.569826
0.569826
0.569829
0.569832
0.569835
0.569838
0.569838
0.569841
0.569845
0.569848
0.569851
0.569851
0.569854
0.569857
0.56986
0.569863
0.569863
0.569866
0.56987
0.569873
0.569876
0.569876
0.569879
0.569882
0.569885
0.569888
0.569888
0.569892
0.569895
0.569898
0.569901
0.569901
0.569904
0.569907
0.56991
0.569914
0.569914
0.569917
0.56992
0.569923
0.569926
0.569926
0.56993
0.569933
0.569936
0.569939
0.569939
0.569942
0.569946
0.569949
0.569952
0.569952
0.569955
0.569958
0.569962
0.569965
0.569965
0.569968
0.569971
0.569975
0.569978
0.569978
0.569981
0.569984
0.569988
0.569991
0.569991
0.569994
0.569997
0.570001
0.570004
0.570004
0.570007
0.57001
0.570014
0.570017
0.570017
0.57002
0.570024
0.570027
0.57003
0.57003
0.570033
0.570037
0.57004
0.570043
0.570043
0.570047
0.57005
0.570053
0.570057
0.570057
0.57006
0.570063
0.570067
0.57007
0.57007
0.570073
0.570077
0.57008
0.570083
0.570083
0.570087
0.57009
0.570093
0.570097
0.570097
0.5701
0.570103
0.570107
0.57011
0.57011
0.570114
0.570117
0.57012
0.570124
0.570124
0.570127
0.570131
0.570134
0.570137
0.570137
0.570141
0.570144
0.570148
0.570151
0.570151
0.570154
0.570158
0.570161
0.570165
0.570165
0.570168
0.570172
0.570175
0.570178
0.570178
0.570182
0.570185
0.570189
0.570192
0.570192
0.570196
0.570199
0.570203
0.570206
0.570206
0.57021
0.570213
0.570217
0.57022
0.57022
0.570224
0.570227
0.570231
0.570234
0.570234
0.570238
0.570241
0.570245
0.570248
0.570248
0.570252
0.570255
0.570259
0.570262
0.570262
0.570266
0.570269
0.570273
0.570276
0.570276
0.57028
0.570284
0.570287
0.570291
0.570291
0.570294
0.570298
0.570301
0.570305
0.570305
0.570309
0.570312
0.570316
0.570319
0.570319
0.570323
0.570326
0.57033
0.570334
0.570334
0.570337
0.570341
0.570345
0.570348
0.570348
0.570352
0.570355
0.570359
0.570363
0.570363
0.570366
0.57037
0.570374
0.570377
0.570377
0.570381
0.570385
0.570388
0.570392
0.570392
0.570396
0.570399
0.570403
0.570407
0.570407
0.57041
0.570414
0.570418
0.570421
0.570421
0.570425
0.570429
0.570432
0.570436
0.570436
0.57044
0.570444
0.570447
0.570451
0.570451
0.570455
0.570459
0.570462
0.570466
0.570466
0.57047
0.570474
0.570477
0.570481
0.570481
0.570485
0.570489
0.570492
0.570496
0.570496
0.5705
0.570504
0.570507
0.570511
0.570511
0.570515
0.570519
0.570523
0.570526
0.570526
0.57053
0.570534
0.570538
0.570542
0.570542
0.570546
0.570549
0.570553
0.570557
0.570557
0.570561
0.570565
0.570569
0.570572
0.570572
0.570576
0.57058
0.570584
0.570588
0.570588
0.570592
0.570596
0.5706
0.570603
0.570603
0.570607
0.570611
0.570615
0.570619
0.570619
0.570623
0.570627
0.570631
0.570635
0.570635
0.570639
0.570642
0.570646
0.57065
0.57065
0.570654
0.570658
0.570662
0.570666
0.570666
0.57067
0.570674
0.570678
0.570682
0.570682
0.570686
0.57069
0.570694
0.570698
0.570698
0.570702
0.570706
0.57071
0.570714
0.570714
0.570718
0.570722
0.570726
0.57073
0.57073
0.570734
0.570738
0.570742
0.570746
0.570746
0.57075
0.570754
0.570758
0.570762
0.570762
0.570766
0.57077
0.570774
0.570778
0.570778
0.570783
0.570787
0.570791
0.570795
0.570795
0.570799
0.570803
0.570807
0.570811
0.570811
0.570815
0.570819
0.570823
0.570828
0.570828
0.570832
0.570836
0.57084
0.570844
0.570844
0.570848
0.570852
0.570857
0.570861
0.570861
0.570865
0.570869
0.570873
0.570877
0.570877
0.570882
0.570886
0.57089
0.570894
0.570894
0.570898
0.570903
0.570907
0.570911
0.570911
0.570915
0.570919
0.570924
0.570928
0.570928
0.570932
0.570936
0.57094
0.570945
0.570945
0.570949
0.570953
0.570957
0.570962
0.570962
0.570966
0.57097
0.570975
0.570979
0.570979
0.570983
0.570987
0.570992
0.570996
0.570996
0.571
0.571005
0.571009
0.571013
0.571013
0.571018
0.571022
0.571026
0.571031
0.571031
0.571035
0.571039
0.571044
0.571048
0.571048
0.571052
0.571057
0.571061
0.571065
0.571065
0.57107
0.571074
0.571079
0.571083
0.571083
0.571087
0.571092
0.571096
0.571101
0.571101
0.571105
0.571109
0.571114
0.571118
0.571118
0.571123
0.571127
0.571131
0.571136
0.571136
0.57114
0.571145
0.571149
0.571154
0.571154
0.571158
0.571163
0.571167
0.571172
0.571172
0.571176
0.571181
0.571185
0.57119
0.57119
0.571194
0.571199
0.571203
0.571208
0.571208
0.571212
0.571217
0.571221
0.571226
0.571226
0.57123
0.571235
0.571239
0.571244
0.571244
0.571249
0.571253
0.571258
0.571262
0.571262
0.571267
0.571271
0.571276
0.571281
0.571281
0.571285
0.57129
0.571294
0.571299
0.571299
0.571304
0.571308
0.571313
0.571318
0.571318
0.571322
0.571327
0.571332
0.571336
0.571336
0.571341
0.571346
0.57135
0.571355
0.571355
0.57136
0.571364
0.571369
0.571374
0.571374
0.571378
0.571383
0.571388
0.571393
0.571393
0.571397
0.571402
0.571407
0.571411
0.571411
0.571416
0.571421
0.571426
0.57143
0.57143
0.571435
0.57144
0.571445
0.57145
0.57145
0.571454
0.571459
0.571464
0.571469
0.571469
0.571474
0.571478
0.571483
0.571488
0.571488
0.571493
0.571498
0.571502
0.571507
0.571507
0.571512
0.571517
0.571522
0.571527
0.571527
0.571532
0.571536
0.571541
0.571546
0.571546
0.571551
0.571556
0.571561
0.571566
0.571566
0.571571
0.571576
0.571581
0.571585
0.571585
0.57159
0.571595
0.5716
0.571605
0.571605
0.57161
0.571615
0.57162
0.571625
0.571625
0.57163
0.571635
0.57164
0.571645
0.571645
0.57165
0.571655
0.57166
0.571665
0.571665
0.57167
0.571675
0.57168
0.571685
0.571685
0.57169
0.571695
0.5717
0.571705
0.571705
0.57171
0.571715
0.57172
0.571726
0.571726
0.571731
0.571736
0.571741
0.571746
0.571746
0.571751
0.571756
0.571761
0.571766
0.571766
0.571771
0.571777
0.571782
0.571787
0.571787
0.571792
0.571797
0.571802
0.571807
0.571807
0.571813
0.571818
0.571823
0.571828
0.571828
0.571833
0.571839
0.571844
0.571849
0.571849
0.571854
0.571859
0.571865
0.57187
0.57187
0.571875
0.57188
0.571886
0.571891
0.571891
0.571896
0.571901
0.571907
0.571912
0.571912
0.571917
0.571923
0.571928
0.571933
0.571933
0.571938
0.571944
0.571949
0.571954
0.571954
0.57196
0.571965
0.57197
0.571976
0.571976
0.571981
0.571986
0.571992
0.571997
0.571997
0.572003
0.572008
0.572013
0.572019
0.572019
0.572024
0.57203
0.572035
0.57204
0.57204
0.572046
0.572051
0.572057
0.572062
0.572062
0.572068
0.572073
0.572078
0.572084
0.572084
0.572089
0.572095
0.5721
0.572106
0.572106
0.572111
0.572117
0.572122
0.572128
0.572128
0.572133
0.572139
0.572144
0.57215
0.57215
0.572156
0.572161
0.572167
0.572172
0.572172
0.572178
0.572183
0.572189
0.572195
0.572195
0.5722
0.572206
0.572211
0.572217
0.572217
0.572223
0.572228
0.572234
0.572239
0.572239
0.572245
0.572251
0.572256
0.572262
0.572262
0.572268
0.572273
0.572279
0.572285
0.572285
0.57229
0.572296
0.572302
0.572308
0.572308
0.572313
0.572319
0.572325
0.572331
0.572331
0.572336
0.572342
0.572348
0.572354
0.572354
0.572359
0.572365
0.572371
0.572377
0.572377
0.572382
0.572388
0.572394
0.5724
0.5724
0.572406
0.572411
0.572417
0.572423
0.572423
0.572429
0.572435
0.572441
0.572447
0.572447
0.572452
0.572458
0.572464
0.57247
0.57247
0.572476
0.572482
0.572488
0.572494
0.572494
0.5725
0.572506
0.572512
0.572517
0.572517
0.572523
0.572529
0.572535
0.572541
0.572541
0.572547
0.572553
0.572559
0.572565
0.572565
0.572571
0.572577
0.572583
0.572589
0.572589
0.572595
0.572601
0.572607
0.572613
0.572613
0.57262
0.572626
0.572632
0.572638
0.572638
0.572644
0.57265
0.572656
0.572662
0.572662
0.572668
0.572674
0.57268
0.572687
0.572687
0.572693
0.572699
0.572705
0.572711
0.572711
0.572717
0.572724
0.57273
0.572736
0.572736
0.572742
0.572748
0.572755
0.572761
0.572761
0.572767
0.572773
0.572779
0.572786
0.572786
0.572792
0.572798
0.572804
0.572811
0.572811
0.572817
0.572823
0.57283
0.572836
0.572836
0.572842
0.572849
0.572855
0.572861
0.572861
0.572868
0.572874
0.57288
0.572887
0.572887
0.572893
0.572899
0.572906
0.572912
0.572912
0.572918
0.572925
0.572931
0.572938
0.572938
0.572944
0.572951
0.572957
0.572963
0.572963
0.57297
0.572976
0.572983
0.572989
0.572989
0.572996
0.573002
0.573009
0.573015
0.573015
0.573022
0.573028
0.573035
0.573041
0.573041
0.573048
0.573054
0.573061
0.573068
0.573068
0.573074
0.573081
0.573087
0.573094
0.573094
0.5731
0.573107
0.573114
0.57312
0.57312
0.573127
0.573134
0.57314
0.573147
0.573147
0.573154
0.57316
0.573167
0.573174
0.573174
0.57318
0.573187
0.573194
0.5732
0.5732
0.573207
0.573214
0.57322
0.573227
0.573227
0.573234
0.573241
0.573248
0.573254
0.573254
0.573261
0.573268
0.573275
0.573281
0.573281
0.573288
0.573295
0.573302
0.573309
0.573309
0.573316
0.573322
0.573329
0.573336
0.573336
0.573343
0.57335
0.573357
0.573364
0.573364
0.573371
0.573378
0.573384
0.573391
0.573391
0.573398
0.573405
0.573412
0.573419
0.573419
0.573426
0.573433
0.57344
0.573447
0.573447
0.573454
0.573461
0.573468
0.573475
0.573475
0.573482
0.573489
0.573496
0.573503
0.573503
0.57351