<?xml version="1.0"?>
<VTKFile type="UnstructuredGrid" version="0.1" byte_order="LittleEndian">
<UnstructuredGrid>
<Piece NumberOfPoints="5000" NumberOfCells="4000">
<PointData Scalars="Reaction 0">
<DataArray type="Float32" Name="Reaction 0" format="ascii">
0.735138
0.735138
0.735138
0.735138
0.735139
0.735139
0.735139
0.735139
0.735139
0.735139
0.735139
0.735139
0.735139
0.73514
0.73514
0.73514
0.73514
0.73514
0.735141
0.735141
0.735141
0.735141
0.735142
0.735142
0.735142
0.735142
0.735143
0.735143
0.735144
0.735144
0.735144
0.735145
0.735145
0.735146
0.735146
0.735146
0.735147
0.735148
0.735148
0.735149
0.735149
0.735149
0.73515
0.735151
0.735152
0.735152
0.735152
0.735153
0.735154
0.735155
0.735155
0.735156
0.735156
0.735157
0.735158
0.735158
0.735159
0.73516
0.735161
0.735162
0.735162
0.735163
0.735164
0.735165
0.735166
0.735166
0.735167
0.735168
0.735169
0.73517
0.73517
0.735171
0.735173
0.735174
0.735175
0.735175
0.735176
0.735178
0.735179
0.73518
0.73518
0.735181
0.735183
0.735184
0.735185
0.735185
0.735187
0.735188
0.73519
0.735191
0.735191
0.735193
0.735194
0.735196
0.735197
0.735197
0.735199
0.7352
0.735202
0.735204
0.735204
0.735205
0.735207
0.735209
0.73521
0.73521
0.735212
0.735214
0.735215
0.735217
0.735217
0.735219
0.735221
0.735223
0.735225
0.735225
0.735226
0.735228
0.73523
0.735232
0.735232
0.735234
0.735236
0.735238
0.73524
0.73524
0.735242
0.735244
0.735246
0.735248
0.735248
0.735251
0.735253
0.735255
0.735257
0.735257
0.735259
0.735262
0.735264
0.735266
0.735266
0.735268
0.735271
0.735273
0.735275
0.735275
0.735278
0.73528
0.735283
0.735285
0.735285
0.735287
0.73529
0.735292
0.735295
0.735295
0.735297
0.7353
0.735303
0.735305
0.735305
0.735308
0.73531
0.735313
0.735316
0.735316
0.735318
0.735321
0.735324
0.735327
0.735327
0.735329
0.735332
0.735335
0.735338
0.735338
0.735341
0.735344
0.735346
0.735349
0.735349
0.735352
0.735355
0.735358
0.735361
0.735361
0.735364
0.735367
0.73537
0.735373
0.735373
0.735376
0.73538
0.735383
0.735386
0.735386
0.735389
0.735392
0.735395
0.735399
0.735399
0.735402
0.735405
0.735408
0.735412
0.735412
0.735415
0.735418
0.735422
0.735425
0.735425
0.735429
0.735432
0.735436
0.735439
0.735439
0.735443
0.735446
0.73545
0.735453
0.735453
0.735457
0.73546
0.735464
0.735468
0.735468
0.735471
0.735475
0.735479
0.735483
0.735483
0.735486
0.73549
0.735494
0.735498
0.735498
0.735502
0.735505
0.735509
0.735513
0.735513
0.735517
0.735521
0.735525
0.735529
0.735529
0.735533
0.735537
0.735541
0.735545
0.735545
0.735549
0.735553
0.735557
0.735562
0.735562
0.735566
0.73557
0.735574
0.735578
0.735578
0.735582
0.735587
0.735591
0.735595
0.735595
0.7356
0.735604
0.735608
0.735613
0.735613
0.735617
0.735622
0.735626
0.73563
0.73563
0.735635
0.735639
0.735644
0.735648
0.735648
0.735653
0.735658
0.735662
0.735667
0.735667
0.735671
0.735676
0.735681
0.735686
0.735686
0.73569
0.735695
0.7357
0.735705
0.735705
0.735709
0.735714
0.735719
0.735724
0.735724
0.735729
0.735734
0.735739
0.735744
0.735744
0.735748
0.735753
0.735758
0.735763
0.735763
0.735769
0.735774
0.735779
0.735784
0.735784
0.735789
0.735794
0.735799
0.735804
0.735804
0.73581
0.735815
0.73582
0.735825
0.735825
0.735831
0.735836
0.735841
0.735847
0.735847
0.735852
0.735857
0.735863
0.735868
0.735868
0.735874
0.735879
0.735885
0.73589
0.73589
0.735896
0.735901
0.735907
0.735912
0.735912
0.735918
0.735923
0.735929
0.735935
0.735935
0.73594
0.735946
0.735952
0.735958
0.735958
0.735963
0.735969
0.735975
0.735981
0.735981
0.735987
0.735992
0.735998
0.736004
0.736004
0.73601
0.736016
0.736022
0.736028
0.736028
0.736034
0.73604
0.736046
0.736052
0.736052
0.736058
0.736064
0.73607
0.736077
0.736077
0.736083
0.736089
0.736095
0.736101
0.736101
0.736108
0.736114
0.73612
0.736126
0.736126
0.736133
0.736139
0.736145
0.736152
0.736152
0.736158
0.736165
0.736171
0.736177
0.736177
0.736184
0.73619
0.736197
0.736204
0.736204
0.73621
0.736217
0.736223
0.73623
0.73623
0.736237
0.736243
0.73625
0.736257
0.736257
0.736263
0.73627
0.736277
0.736284
0.736284
0.736291
0.736297
0.736304
0.736311
0.736311
0.736318
0.736325
0.736332
0.736339
0.736339
0.736346
0.736353
0.73636
0.736367
0.736367
0.736374
0.736381
0.736388
0.736395
0.736395
0.736402
0.73641
0.736417
0.736424
0.736424
0.736431
0.736438
0.736446
0.736453
0.736453
0.73646
0.736467
0.736475
0.736482
0.736482
0.73649
0.736497
0.736504
0.736512
0.736512
0.736519
0.736527
0.736534
0.736542
0.736542
0.736549
0.736557
0.736564
0.736572
0.736572
0.736579
0.736587
0.736595
0.736602
0.736602
0.73661
0.736618
0.736626
0.736633
0.736633
0.736641
0.736649
0.736657
0.736664
0.736664
0.736672
0.73668
0.736688
0.736696
0.736696
0.736704
0.736712
0.73672
0.736728
0.736728
0.736736
0.736744
0.736752
0.73676
0.73676
0.736768
0.736776
0.736784
0.736792
0.736792
0.7368
0.736808
0.736817
0.736825
0.736825
0.736833
0.736841
0.73685
0.736858
0.736858
0.736866
0.736874
0.736883
0.736891
0.736891
0.7369
0.736908
0.736916
0.736925
0.736925
0.736933
0.736942
0.73695
0.736959
0.736959
0.736967
0.736976
0.736985
0.736993
0.736993
0.737002
0.73701
0.737019
0.737028
0.737028
0.737037
0.737045
0.737054
0.737063
0.737063
0.737072
0.737081
0.737089
0.737098
0.737098
0.737107
0.737116
0.737125
0.737134
0.737134
0.737143
0.737152
0.737161
0.73717
0.73717
0.737179
0.737188
0.737197
0.737206
0.737206
0.737215
0.737224
0.737233
0.737243
0.737243
0.737252
0.737261
0.73727
0.73728
0.73728
0.737289
0.737298
0.737307
0.737317
0.737317
0.737326
0.737335
0.737345
0.737354
0.737354
0.737364
0.737373
0.737382
0.737392
0.737392
0.737401
0.737411
0.73742
0.73743
0.73743
0.73744
0.737449
0.737459
0.737468
0.737468
0.737478
0.737488
0.737497
0.737507
0.737507
0.737517
0.737527
0.737536
0.737546
0.737546
0.737556
0.737566
0.737576
0.737585
0.737585
0.737595
0.737605
0.737615
0.737625
0.737625
0.737635
0.737645
0.737655
0.737665
0.737665
0.737675
0.737685
0.737695
0.737705
0.737705
0.737715
0.737725
0.737736
0.737746
0.737746
0.737756
0.737766
0.737777
0.737787
0.737787
0.737797
0.737807
0.737818
0.737828
0.737828
0.737838
0.737849
0.737859
0.73787
0.73787
0.73788
0.737891
0.737901
0.737912
0.737912
0.737922
0.737933
0.737943
0.737954
0.737954
0.737964
0.737975
0.737986
0.737996
0.737996
0.738007
0.738018
0.738028
0.738039
0.738039
0.73805
0.738061
0.738071
0.738082
0.738082
0.738093
0.738104
0.738115
0.738126
0.738126
0.738137
0.738147
0.738158
0.738169
0.738169
0.73818
0.738191
0.738202
0.738213
0.738213
0.738224
0.738235
0.738247
0.738258
0.738258
0.738269
0.73828
0.738291
0.738302
0.738302
0.738313
0.738325
0.738336
0.738347
0.738347
0.738358
0.73837
0.738381
0.738392
0.738392
0.738404
0.738415
0.738426
0.738438
0.738438
0.738449
0.738461
0.738472
0.738484
0.738484
0.738495
0.738507
0.738518
0.73853
0.73853
0.738541
0.738553
0.738565
0.738576
0.738576
0.738588
0.7386
0.738611
0.738623
0.738623
0.738635
0.738647
0.738659
0.73867
0.73867
0.738682
0.738694
0.738706
0.738718
0.738718
0.73873
0.738742
0.738754
0.738766
0.738766
0.738778
0.73879
0.738802
0.738814
0.738814
0.738826
0.738838
0.73885
0.738862
0.738862
0.738874
0.738886
0.738898
0.738911
0.738911
0.738923
0.738935
0.738947
0.738959
0.738959
0.738972
0.738984
0.738996
0.739009
0.739009
0.739021
0.739033
0.739046
0.739058
0.739058
0.739071
0.739083
0.739096
0.739108
0.739108
0.739121
0.739133
0.739146
0.739158
0.739158
0.739171
0.739183
0.739196
0.739209
0.739209
0.739221
0.739234
0.739247
0.739259
0.739259
0.739272
0.739285
0.739297
0.73931
0.73931
0.739323
0.739336
0.739349
0.739362
0.739362
0.739375
0.739387
0.7394
0.739413
0.739413
0.739426
0.739439
0.739452
0.739465
0.739465
0.739478
0.739492
0.739505
0.739518
0.739518
0.739531
0.739544
0.739557
0.73957
0.73957
0.739584
0.739597
0.73961
0.739623
0.739623
0.739637
0.73965
0.739663
0.739676
0.739676
0.73969
0.739703
0.739717
0.73973
0.73973
0.739743
0.739757
0.73977
0.739784
0.739784
0.739797
0.739811
0.739824
0.739838
0.739838
0.739851
0.739865
0.739878
0.739892
0.739892
0.739906
0.739919
0.739933
0.739947
0.739947
0.73996
0.739974
0.739988
0.740002
0.740002
0.740015
0.740029
0.740043
0.740057
0.740057
0.740071
0.740085
0.740099
0.740112
0.740112
0.740126
0.74014
0.740154
0.740168
0.740168
0.740182
0.740196
0.740211
0.740225
0.740225
0.740239
0.740253
0.740267
0.740281
0.740281
0.740295
0.740309
0.740324
0.740338
0.740338
0.740352
0.740366
0.740381
0.740395
0.740395
0.740409
0.740424
0.740438
0.740452
0.740452
0.740467
0.740481
0.740496
0.74051
0.74051
0.740525
0.740539
0.740554
0.740568
0.740568
0.740583
0.740597
0.740612
0.740626
0.740626
0.740641
0.740655
0.74067
0.740685
0.740685
0.740699
0.740714
0.740729
0.740744
0.740744
0.740758
0.740773
0.740788
0.740803
0.740803
0.740817
0.740832
0.740847
0.740862
0.740862
0.740877
0.740892
0.740907
0.740922
0.740922
0.740937
0.740952
0.740967
0.740982
0.740982
0.740997
0.741012
0.741027
0.741042
0.741042
0.741057
0.741073
0.741088
0.741103
0.741103
0.741118
0.741133
0.741149
0.741164
0.741164
0.741179
0.741194
0.74121
0.741225
0.741225
0.74124
0.741256
0.741271
0.741287
0.741287
0.741302
0.741317
0.741333
0.741348
0.741348
0.741364
0.741379
0.741395
0.74141
0.74141
0.741426
0.741442
0.741457
0.741473
0.741473
0.741488
0.741504
0.74152
0.741535
0.741535
0.741551
0.741567
0.741583
0.741598
0.741598
0.741614
0.74163
0.741646
0.741662
0.741662
0.741677
0.741693
0.741709
0.741725
0.741725
0.741741
0.741757
0.741773
0.741789
0.741789
0.741805
0.741821
0.741837
0.741853
0.741853
0.741869
0.741885
0.741901
0.741918
0.741918
0.741934
0.74195
0.741966
0.741982
0.741982
0.741999
0.742015
0.742031
0.742047
0.742047
0.742064
0.74208
0.742096
0.742113
0.742113
0.742129
0.742145
0.742162
0.742178
0.742178
0.742195
0.742211
0.742227
0.742244
0.742244
0.74226
0.742277
0.742293
0.74231
0.74231
0.742327
0.742343
0.74236
0.742376
0.742376
0.742393
0.74241
0.742426
0.742443
0.742443
0.74246
0.742477
0.742493
0.74251
0.74251
0.742527
0.742544
0.742561
0.742577
0.742577
0.742594
0.742611
0.742628
0.742645
0.742645
0.742662
0.742679
0.742696
0.742713
0.742713
0.74273
0.742747
0.742764
0.742781
0.742781
0.742798
0.742815
0.742832
0.74285
0.74285
0.742867
0.742884
0.742901
0.742918
0.742918
0.742935
0.742953
0.74297
0.742987
0.742987
0.743005
0.743022
0.743039
0.743056
0.743056
0.743074
0.743091
0.743109
0.743126
0.743126
0.743143
0.743161
0.743178
0.743196
0.743196
0.743213
0.743231
0.743248
0.743266
0.743266
0.743284
0.743301
0.743319
0.743336
0.743336
0.743354
0.743372
0.743389
0.743407
0.743407
0.743425
0.743443
0.74346
0.743478
0.743478
0.743496
0.743514
0.743532
0.743549
0.743549
0.743567
0.743585
0.743603
0.743621
0.743621
0.743639
0.743657
0.743675
0.743693
0.743693
0.743711
0.743729
0.743747
0.743765
0.743765
0.743783
0.743801
0.743819
0.743837
0.743837
0.743855
0.743873
0.743892
0.74391
0.74391
0.743928
0.743946
0.743964
0.743983
0.743983
0.744001
0.744019
0.744038
0.744056
0.744056
0.744074
0.744093
0.744111
0.744129
0.744129
0.744148
0.744166
0.744185
0.744203
0.744203
0.744222
0.74424
0.744259
0.744277
0.744277
0.744296
0.744315
0.744333
0.744352
0.744352
0.74437
0.744389
0.744408
0.744426
0.744426
0.744445
0.744464
0.744482
0.744501
0.744501
0.74452
0.744539
0.744558
0.744576
0.744576
0.744595
0.744614
0.744633
0.744652
0.744652
0.744671
0.74469
0.744708
0.744727
0.744727
0.744746
0.744765
0.744784
0.744803
0.744803
0.744822
0.744841
0.744861
0.74488
0.74488
0.744899
0.744918
0.744937
0.744956
0.744956
0.744975
0.744995
0.745014
0.745033
0.745033
0.745052
0.745072
0.745091
0.74511
0.74511
0.745129
0.745149
0.745168
0.745188
0.745188
0.745207
0.745226
0.745246
0.745265
0.745265
0.745285
0.745304
0.745324
0.745343
0.745343
0.745363
0.745382
0.745402
0.745421
0.745421
0.745441
0.74546
0.74548
0.7455
0.7455
0.745519
0.745539
0.745559
0.745578
0.745578
0.745598
0.745618
0.745637
0.745657
0.745657
0.745677
0.745697
0.745717
0.745737
0.745737
0.745756
0.745776
0.745796
0.745816
0.745816
0.745836
0.745856
0.745876
0.745896
0.745896
0.745916
0.745936
0.745956
0.745976
0.745976
0.745996
0.746016
0.746036
0.746056
0.746056
0.746076
0.746097
0.746117
0.746137
0.746137
0.746157
0.746177
0.746197
0.746218
0.746218
0.746238
0.746258
0.746279
0.746299
0.746299
0.746319
0.746339
0.74636
0.74638
0.74638
0.746401
0.746421
0.746441
0.746462
0.746462
0.746482
0.746503
0.746523
0.746544
0.746544
0.746564
0.746585
0.746606
0.746626
0.746626
0.746647
0.746667
0.746688
0.746709
0.746709
0.746729
0.74675
0.746771
0.746791
0.746791
0.746812
0.746833
0.746854
0.746874
0.746874
0.746895
0.746916
0.746937
0.746958
0.746958
0.746978
0.746999
0.74702
0.747041
0.747041
0.747062
0.747083
0.747104
0.747125
0.747125
0.747146
0.747167
0.747188
0.747209
0.747209
0.74723
0.747251
0.747272
0.747293
0.747293
0.747314
0.747335
0.747357
0.747378
0.747378
0.747399
0.74742
0.747441
0.747463
0.747463
0.747484
0.747505
0.747526
0.747548
0.747548
0.747569
0.74759
0.747612
0.747633
0.747633
0.747654
0.747676
0.747697
0.747719
0.747719
0.74774
0.747762
0.747783
0.747805
0.747805
0.747826
0.747848
0.747869
0.747891
0.747891
0.747912
0.747934
0.747955
0.747977
0.747977
0.747999
0.74802
0.748042
0.748064
0.748064
0.748085
0.748107
0.748129
0.748151
0.748151
0.748172
0.748194
0.748216
0.748238
0.748238
0.74826
0.748282
0.748303
0.748325
0.748325
0.748347
0.748369
0.748391
0.748413
0.748413
0.748435
0.748457
0.748479
0.748501
0.748501
0.748523
0.748545
0.748567
0.748589
0.748589
0.748611
0.748633
0.748655
0.748678
0.748678
0.7487
0.748722
0.748744
0.748766
0.748766
0.748788
0.748811
0.748833
0.748855
0.748855
0.748878
0.7489
0.748922
0.748944
0.748944
0.748967
0.748989
0.749012
0.749034
0.749034
0.749056
0.749079
0.749101
0.749124
0.749124
0.749146
0.749169
0.749191
0.749214
0.749214
0.749236
0.749259
0.749281
0.749304
0.749304
0.749326
0.749349
0.749372
0.749394
0.749394
0.749417
0.74944
0.749462
0.749485
0.749485
0.749508
0.749531
0.749553
0.749576
0.749576
0.749599
0.749622
0.749644
0.749667
0.749667
0.74969
0.749713
0.749736
0.749759
0.749759
0.749782
0.749805
0.749828
0.749851
0.749851
0.749874
0.749897
0.74992
0.749943
0.749943
0.749966
0.749989
0.750012
0.750035
0.750035
0.750058
0.750081
0.750104
0.750127
0.750127
0.75015
0.750174
0.750197
0.75022
0.75022
0.750243
0.750266
0.75029
0.750313
0.750313
0.750336
0.75036
0.750383
0.750406
0.750406
0.75043
0.750453
0.750476
0.7505
0.7505
0.750523
0.750547
0.75057
0.750593
0.750593
0.750617
0.75064
0.750664
0.750687
0.750687
0.750711
0.750735
0.750758
0.750782
0.750782
0.750805
0.750829
0.750852
0.750876
0.750876
0.7509
0.750923
0.750947
0.750971
0.750971
0.750994
0.751018
0.751042
0.751066
0.751066
0.751089
0.751113
0.751137
0.751161
0.751161
0.751185
0.751209
0.751232
0.751256
0.751256
0.75128
0.751304
0.751328
0.751352
0.751352
0.751376
0.7514
0.751424
0.751448
0.751448
0.751472
0.751496
0.75152
0.751544
0.751544
0.751568
0.751592
0.751616
0.751641
0.751641
0.751665
0.751689
0.751713
0.751737
0.751737
0.751761
0.751786
0.75181
0.751834
0.751834
0.751858
0.751883
0.751907
0.751931
0.751931
0.751956
0.75198
0.752004
0.752029
0.752029
0.752053
0.752077
0.752102
0.752126
0.752126
0.752151
0.752175
0.7522
0.752224
0.752224
0.752249
0.752273
0.752298
0.752322
0.752322
0.752347
0.752371
0.752396
0.75242
0.75242
0.752445
0.75247
0.752494
0.752519
0.752519
0.752544
0.752568
0.752593
0.752618
0.752618
0.752642
0.752667
0.752692
0.752717
0.752717
0.752742
0.752766
0.752791
0.752816
0.752816
0.752841
0.752866
0.752891
0.752916
0.752916
0.752941
0.752965
0.75299
0.753015
0.753015
0.75304
0.753065
0.75309
0.753115
0.753115
0.75314
0.753165
0.75319
0.753215
0.753215
0.753241
0.753266
0.753291
0.753316
0.753316
0.753341
0.753366
0.753391
0.753417
0.753417
0.753442
0.753467
0.753492
0.753517
0.753517
0.753543
0.753568
0.753593
0.753619
0.753619
0.753644
0.753669
0.753695
0.75372
0.75372
0.753745
0.753771
0.753796
0.753822
0.753822
0.753847
0.753872
0.753898
0.753923
0.753923
0.753949
0.753974
0.754
0.754025
0.754025
0.754051
0.754077
0.754102
0.754128
0.754128
0.754153
0.754179
0.754205
0.75423
0.75423
0.754256
0.754282
0.754307
0.754333
0.754333
0.754359
0.754384
0.75441
0.754436
0.754436
0.754462
0.754488
0.754513
0.754539
0.754539
0.754565
0.754591
0.754617
0.754643
0.754643
0.754669
0.754694
0.75472
0.754746
0.754746
0.754772
0.754798
0.754824
0.75485
0.75485
0.754876
0.754902
0.754928
0.754954
0.754954
0.75498
0.755006
0.755032
0.755059
0.755059
0.755085
0.755111
0.755137
0.755163
0.755163
0.755189
0.755216
0.755242
0.755268
0.755268
0.755294
0.75532
0.755347
0.755373
0.755373
0.755399
0.755426
0.755452
0.755478
0.755478
0.755504
0.755531
0.755557
0.755584
0.755584
0.75561
0.755636
0.755663
0.755689
0.755689
0.755716
0.755742
0.755769
0.755795
0.755795
0.755822
0.755848
0.755875
0.755901
0.755901
0.755928
0.755954
0.755981
0.756008
0.756008
0.756034
0.756061
0.756088
0.756114
0.756114
0.756141
0.756168
0.756194
0.756221
0.756221
0.756248
0.756274
0.756301
0.756328
0.756328
0.756355
0.756382
0.756408
0.756435
0.756435
0.756462
0.756489
0.756516
0.756543
0.756543
0.756569
0.756596
0.756623
0.75665
0.75665
0.756677
0.756704
0.756731
0.756758
0.756758
0.756785
0.756812
0.756839
0.756866
0.756866
0.756893
0.75692
0.756947
0.756974
0.756974
0.757002
0.757029
0.757056
0.757083
0.757083
0.75711
0.757137
0.757165
0.757192
0.757192
0.757219
0.757246
0.757273
0.757301
0.757301
0.757328
0.757355
0.757383
0.75741
0.75741
0.757437
0.757465
0.757492
0.757519
0.757519
0.757547
0.757574
0.757601
0.757629
0.757629
0.757656
0.757684
0.757711
0.757739
0.757739
0.757766
0.757794
0.757821
0.757849
0.757849
0.757876
0.757904
0.757931
0.757959
0.757959
0.757986
0.758014
0.758042
0.758069
0.758069
0.758097
0.758125
0.758152
0.75818
0.75818
0.758208
0.758235
0.758263
0.758291
0.758291
0.758318
0.758346
0.758374
0.758402
0.758402
0.75843
0.758457
0.758485
0.758513
0.758513
0.758541
0.758569
0.758597
0.758625
0.758625
0.758652
0.75868
0.758708
0.758736
0.758736
0.758764
0.758792
0.75882
0.758848
0.758848
0.758876
0.758904
0.758932
0.75896
0.75896
0.758988
0.759016
0.759044
0.759073
0.759073
0.759101
0.759129
0.759157
0.759185
0.759185
0.759213
0.759241
0.75927
0.759298
0.759298
0.759326
0.759354
0.759382
0.759411
0.759411
0.759439
0.759467
0.759496
0.759524
0.759524
0.759552
0.75958
0.759609
0.759637
0.759637
0.759666
0.759694
0.759722
0.759751
0.759751
0.759779
0.759808
0.759836
0.759864
0.759864
0.759893
0.759921
0.75995
0.759978
0.759978
0.760007
0.760035
0.760064
0.760092
0.760092
0.760121
0.76015
0.760178
0.760207
0.760207
0.760235
0.760264
0.760293
0.760321
0.760321
0.76035
0.760379
0.760407
0.760436
0.760436
0.760465
0.760494
0.760522
0.760551
0.760551
0.76058
0.760609
0.760637
0.760666
0.760666
0.760695
0.760724
0.760753
0.760782
0.760782
0.76081
0.760839
0.760868
0.760897
0.760897
0.760926
0.760955
0.760984
0.761013
0.761013
0.761042
0.761071
0.7611
0.761129
0.761129
0.761158
0.761187
0.761216
0.761245
0.761245
0.761274
0.761303
0.761332
0.761361
0.761361
0.76139
0.761419
0.761449
0.761478
0.761478
0.761507
0.761536
0.761565
0.761594
0.761594
0.761624
0.761653
0.761682
0.761711
0.761711
0.761741
0.76177
0.761799
0.761828
0.761828
0.761858
0.761887
0.761916
0.761946
0.761946
0.761975
0.762004
0.762034
0.762063
0.762063
0.762093
0.762122
0.762151
0.762181
0.762181
0.76221
0.76224
0.762269
0.762299
0.762299
0.762328
0.762358
0.762387
0.762417
0.762417
0.762446
0.762476
0.762506
0.762535
0.762535
0.762565
0.762594
0.762624
0.762654
0.762654
0.762683
0.762713
0.762742
0.762772
0.762772
0.762802
0.762832
0.762861
0.762891
0.762891
0.762921
0.76295
0.76298
0.76301
0.76301
0.76304
0.76307
0.763099
0.763129
0.763129
0.763159
0.763189
0.763219
0.763249
0.763249
0.763278
0.763308
0.763338
0.763368
0.763368
0.763398
0.763428
0.763458
0.763488
0.763488
0.763518
0.763548
0.763578
0.763608
0.763608
0.763638
0.763668
0.763698
0.763728
0.763728
0.763758
0.763788
0.763818
0.763848
0.763848
0.763878
0.763908
0.763939
0.763969
0.763969
0.763999
0.764029
0.764059
0.764089
0.764089
0.76412
0.76415
0.76418
0.76421
0.76421
0.764241
0.764271
0.764301
0.764331
0.764331
0.764362
0.764392
0.764422
0.764453
0.764453
0.764483
0.764513
0.764544
0.764574
0.764574
0.764604
0.764635
0.764665
0.764696
0.764696
0.764726
0.764756
0.764787
0.764817
0.764817
0.764848
0.764878
0.764909
0.764939
0.764939
0.76497
0.765
0.765031
0.765061
0.765061
0.765092
0.765122
0.765153
0.765184
0.765184
0.765214
0.765245
0.765275
0.765306
0.765306
0.765337
0.765367
0.765398
0.765429
0.765429
0.765459
0.76549
0.765521
0.765552
0.765552
0.765582
0.765613
0.765644
0.765675
0.765675
0.765705
0.765736
0.765767
0.765798
0.765798
0.765829
0.765859
0.76589
0.765921
0.765921
0.765952
0.765983
0.766014
0.766045
0.766045
0.766076
0.766107
0.766137
0.766168
0.766168
0.766199
0.76623
0.766261
0.766292
0.766292
0.766323
0.766354
0.766385
0.766416
0.766416
0.766447
0.766478
0.766509
0.766541
0.766541
0.766572
0.766603
0.766634
0.766665
0.766665
0.766696
0.766727
0.766758
0.766789
0.766789
0.766821
0.766852
0.766883
0.766914
0.766914
0.766945
0.766977
0.767008
0.767039
0.767039
0.76707
0.767102
0.767133
0.767164
0.767164
0.767195
0.767227
0.767258
0.767289
0.767289
0.767321
0.767352
0.767383
0.767415
0.767415
0.767446
0.767478
0.767509
0.76754
0.76754
0.767572
0.767603
0.767635
0.767666
0.767666
0.767698
0.767729
0.767761
0.767792
0.767792
0.767824
0.767855
0.767887
0.767918
0.767918
0.76795
0.767981
0.768013
0.768044
0.768044
0.768076
0.768108
0.768139
0.768171
0.768171
0.768202
0.768234
0.768266
0.768297
0.768297
0.768329
0.768361
0.768392
0.768424
0.768424
0.768456
0.768487
0.768519
0.768551
0.768551
0.768583
0.768614
0.768646
0.768678
0.768678
0.76871
0.768742
0.768773
0.768805
0.768805
0.768837
0.768869
0.768901
0.768933
0.768933
0.768964
0.768996
0.769028
0.76906
0.76906
0.769092
0.769124
0.769156
0.769188
0.769188
0.76922
0.769252
0.769284
0.769316
0.769316
0.769348
0.76938
0.769412
0.769444
0.769444
0.769476
0.769508
0.76954
0.769572
0.769572
0.769604
0.769636
0.769668
0.7697
0.7697
0.769732
0.769764
0.769797
0.769829
0.769829
0.769861
0.769893
0.769925
0.769957
0.769957
0.76999
0.770022
0.770054
0.770086
0.770086
0.770118
0.770151
0.770183
0.770215
0.770215
0.770247
0.77028
0.770312
0.770344
0.770344
0.770376
0.770409
0.770441
0.770473
0.770473
0.770506
0.770538
0.770571
0.770603
0.770603
0.770635
0.770668
0.7707
0.770732
0.770732
0.770765
0.770797
0.77083
0.770862
0.770862
0.770895
0.770927
0.77096
0.770992
0.770992
0.771025
0.771057
0.77109
0.771122
0.771122
0.771155
0.771187
0.77122
0.771252
0.771252
0.771285
0.771317
0.77135
0.771383
0.771383
0.771415
0.771448
0.77148
0.771513
0.771513
0.771546
0.771578
0.771611
0.771644
0.771644
0.771676
0.771709
0.771742
0.771774
0.771774
0.771807
0.77184
0.771873
0.771905
0.771905
0.771938
0.771971
0.772004
0.772036
0.772036
0.772069
0.772102
0.772135
0.772168
0.772168
0.7722
0.772233
0.772266
0.772299
0.772299
0.772332
0.772365
0.772398
0.77243
0.77243
0.772463
0.772496
0.772529
0.772562
0.772562
0.772595
0.772628
0.772661
0.772694
0.772694
0.772727
0.77276
0.772793
0.772826
0.772826
0.772859
0.772892
0.772925
0.772958
0.772958
0.772991
0.773024
0.773057
0.77309
0.77309
0.773123
0.773156
0.773189
0.773222
0.773222
0.773256
0.773289
0.773322
0.773355
0.773355
0.773388
0.773421
0.773454
0.773488
0.773488
0.773521
0.773554
0.773587
0.77362
0.77362
0.773654
0.773687
0.77372
0.773753
0.773753
0.773787
0.77382
0.773853
0.773886
0.773886
0.77392
0.773953
0.773986
0.77402
0.77402
0.774053
0.774086
0.77412
0.774153
0.774153
0.774186
0.77422
0.774253
0.774286
0.774286
0.77432
0.774353
0.774387
0.77442
0.77442
0.774453
0.774487
0.77452
0.774554
0.774554
0.774587
0.774621
0.774654
0.774688
0.774688
0.774721
0.774755
0.774788
0.774822
0.774822
0.774855
0.774889
0.774922
0.774956
0.774956
0.774989
0.775023
0.775056
0.77509
0.77509
0.775124
0.775157
0.775191
0.775224
0.775224
0.775258
0.775292
0.775325
0.775359
0.775359
0.775393
0.775426
0.77546
0.775494
0.775494
0.775527
0.775561
0.775595
0.775628
0.775628
0.775662
0.775696
0.77573
0.775763
0.775763
0.775797
0.775831
0.775865
0.775899
0.775899
0.775932
0.775966
0.776
0.776034
0.776034
0.776068
0.776101
0.776135
0.776169
0.776169
0.776203
0.776237
0.776271
0.776304
0.776304
0.776338
0.776372
0.776406
0.77644
0.77644
0.776474
0.776508
0.776542
0.776576
0.776576
0.77661
0.776644
0.776678
0.776712
0.776712
0.776746
0.77678
0.776814
0.776848
0.776848
0.776882
0.776916
0.77695
0.776984
0.776984
0.777018
0.777052
0.777086
0.77712
0.77712
0.777154
0.777188
0.777222
0.777256
0.777256
0.77729
0.777324
0.777358
0.777393
0.777393
0.777427
0.777461
0.777495
0.777529
0.777529
0.777563
0.777598
0.777632
0.777666
0.777666
0.7777
0.777734
0.777768
0.777803
0.777803
0.777837
0.777871
0.777905
0.77794
0.77794
0.777974
0.778008
0.778042
0.778077
0.778077
0.778111
0.778145
0.77818
0.778214
0.778214
0.778248
0.778283
0.778317
0.778351
0.778351
0.778386
0.77842
0.778454
0.778489
0.778489
0.778523
0.778557
0.778592
0.778626
0.778626
0.778661
0.778695
0.778729
0.778764
0.778764
0.778798
0.778833
0.778867
0.778902
0.778902
0.778936
0.77897
0.779005
0.779039
0.779039
0.779074
0.779108
0.779143
0.779177
0.779177
0.779212
0.779246
0.779281
0.779316
0.779316
0.77935
0.779385
0.779419
0.779454
0.779454
0.779488
0.779523
0.779558
0.779592
0.779592
0.779627
0.779661
0.779696
0.779731
0.779731
0.779765
0.7798
0.779834
0.779869
0.779869
0.779904
0.779938
0.779973
0.780008
0.780008
0.780042
0.780077
0.780112
0.780147
0.780147
0.780181
0.780216
0.780251
0.780285
0.780285
0.78032
0.780355
0.78039
0.780425
0.780425
0.780459
0.780494
0.780529
0.780564
0.780564
0.780598
0.780633
0.780668
0.780703
0.780703
0.780738
0.780772
0.780807
0.780842
0.780842
0.780877
0.780912
0.780947
0.780982
0.780982
0.781017
0.781051
0.781086
0.781121
0.781121
0.781156
0.781191
0.781226
0.781261
0.781261
0.781296
0.781331
0.781366
0.781401
0.781401
0.781436
0.781471
0.781505
0.78154
0.78154
0.781575
0.78161
0.781645
0.78168
0.78168
0.781715
0.78175
0.781785
0.781821
0.781821
0.781856
0.781891
0.781926
0.781961
0.781961
0.781996
0.782031
0.782066
0.782101
0.782101
0.782136
0.782171
0.782206
0.782241
0.782241
0.782276
0.782312
0.782347
0.782382
0.782382
0.782417
0.782452
0.782487
0.782522
0.782522
0.782558
0.782593
0.782628
0.782663
0.782663
0.782698
0.782733
0.782769
0.782804
0.782804
0.782839
0.782874
0.78291
0.782945
0.782945
0.78298
0.783015
0.783051
0.783086
0.783086
0.783121
0.783156
0.783192
0.783227
0.783227
0.783262
0.783297
0.783333
0.783368
0.783368
0.783403
0.783439
0.783474
0.783509
0.783509
0.783545
0.78358
0.783615
0.783651
0.783651
0.783686
0.783721
0.783757
0.783792
0.783792
0.783828
0.783863
0.783898
0.783934
0.783934
0.783969
0.784005
0.78404
0.784075
0.784075
0.784111
0.784146
0.784182
0.784217
0.784217
0.784253
0.784288
0.784324
0.784359
0.784359
0.784394
0.78443
0.784465
0.784501
0.784501
0.784536
0.784572
0.784607
0.784643
0.784643
0.784678
0.784714
0.78475
0.784785
0.784785
0.784821
0.784856
0.784892
0.784927
0.784927
0.784963
0.784998
0.785034
0.78507
0.78507
0.785105
0.785141
0.785176
0.785212
0.785212
0.785248
0.785283
0.785319
0.785354
0.785354
0.78539
0.785426
0.785461
0.785497
0.785497
0.785533
0.785568
0.785604
0.78564
0.78564
0.785675
0.785711
0.785747
0.785782
0.785782
0.785818
0.785854
0.78589
0.785925
0.785925
0.785961
0.785997
0.786033
0.786068
0.786068
0.786104
0.78614
0.786176
0.786211
0.786211
0.786247
0.786283
0.786319
0.786354
0.786354
0.78639
0.786426
0.786462
0.786498
0.786498
0.786533
0.786569
0.786605
0.786641
0.786641
0.786677
0.786712
0.786748
0.786784
0.786784
0.78682
0.786856
0.786892
0.786928
0.786928
0.786963
0.786999
0.787035
0.787071
0.787071
0.787107
0.787143
0.787179
0.787215
0.787215
0.787251
0.787287
0.787322
0.787358
0.787358
0.787394
0.78743
0.787466
0.787502
0.787502
0.787538
0.787574
0.78761
0.787646
0.787646
0.787682
0.787718
0.787754
0.78779
0.78779
0.787826
0.787862
0.787898
0.787934
0.787934
0.78797
0.788006
0.788042
0.788078
0.788078
0.788114
0.78815
0.788186
0.788222
0.788222
0.788258
0.788294
0.78833
0.788366
0.788366
0.788402
0.788439
0.788475
0.788511
0.788511
0.788547
0.788583
0.788619
0.788655
0.788655
0.788691
0.788727
0.788763
0.7888
0.7888
0.788836
0.788872
0.788908
0.788944
0.788944
0.78898
0.789016
0.789053
0.789089
0.789089
0.789125
0.789161
0.789197
0.789233
0.789233
0.78927
0.789306
0.789342
0.789378
0.789378
0.789414
0.789451
0.789487
0.789523
0.789523
0.789559
0.789595
0.789632
0.789668
0.789668
0.789704
0.78974
0.789777
0.789813
0.789813
0.789849
0.789885
0.789922
0.789958
0.789958
0.789994
0.790031
0.790067
0.790103
0.790103
0.790139
0.790176
0.790212
0.790248
0.790248
0.790285
0.790321
0.790357
0.790394
0.790394
0.79043
0.790466
0.790503
0.790539
0.790539
0.790575
0.790612
0.790648
0.790684
0.790684
0.790721
0.790757
0.790793
0.79083
0.79083
0.790866
0.790903
0.790939
0.790975
0.790975
0.791012
0.791048
0.791085
0.791121
0.791121
0.791157
0.791194
0.79123
0.791267
0.791267
0.791303
0.791339
0.791376
0.791412
0.791412
0.791449
0.791485
0.791522
0.791558
0.791558
0.791595
0.791631
0.791668
0.791704
0.791704
0.79174
0.791777
0.791813
0.79185
0.79185
0.791886
0.791923
0.791959
0.791996
0.791996
0.792032
0.792069
0.792106
0.792142
0.792142
0.792179
0.792215
0.792252
0.792288
0.792288
0.792325
0.792361
0.792398
0.792434
0.792434
0.792471
0.792507
0.792544
0.792581
0.792581
0.792617
0.792654
0.79269
0.792727
0.792727
0.792764
0.7928
0.792837
0.792873
0.792873
0.79291
0.792947
0.792983
0.79302
0.79302
0.793056
0.793093
0.79313
0.793166
0.793166
0.793203
0.79324
0.793276
0.793313
0.793313
0.793349
0.793386
0.793423
0.793459
0.793459
0.793496
0.793533
0.793569
0.793606
0.793606
0.793643
0.793679
0.793716
0.793753
0.793753
0.79379
0.793826
0.793863
0.7939
0.7939
0.793936
0.793973
0.79401
0.794047
0.794047
0.794083
0.79412
0.794157
0.794193
0.794193
0.79423
0.794267
0.794304
0.79434
0.79434
0.794377
0.794414
0.794451
0.794487
0.794487
0.794524
0.794561
0.794598
0.794634
0.794634
0.794671
0.794708
0.794745
0.794782
0.794782
0.794818
0.794855
0.794892
0.794929
0.794929
0.794966
0.795002
0.795039
0.795076
0.795076
0.795113
0.79515
0.795187
0.795223
0.795223
0.79526
0.795297
0.795334
0.795371
0.795371
0.795408