<?xml version="1.0"?>
<VTKFile type="UnstructuredGrid" version="0.1" byte_order="LittleEndian">
<UnstructuredGrid>
<Piece NumberOfPoints="5000" NumberOfCells="4000">
<PointData Scalars="Reaction 0">
<DataArray type="Float32" Name="Reaction 0" format="ascii">
0.568486
0.568486
0.568486
0.568486
0.568486
0.568486
0.568486
0.568486
0.568486
0.568486
0.568486
0.568486
0.568486
0.568486
0.568486
0.568486
0.568486
0.568486
0.568486
0.568486
0.568486
0.568486
0.568486
0.568486
0.568486
0.568486
0.568487
0.568487
0.568487
0.568487
0.568487
0.568487
0.568487
0.568487
0.568487
0.568487
0.568487
0.568487
0.568487
0.568487
0.568487
0.568487
0.568487
0.568487
0.568487
0.568487
0.568487
0.568487
0.568487
0.568487
0.568487
0.568487
0.568487
0.568487
0.568488
0.568488
0.568488
0.568488
0.568488
0.568488
0.568488
0.568488
0.568488
0.568488
0.568488
0.568488
0.568488
0.568488
0.568488
0.568488
0.568488
0.568488
0.568489
0.568489
0.568489
0.568489
0.568489
0.568489
0.568489
0.568489
0.568489
0.568489
0.568489
0.568489
0.568489
0.568489
0.568489
0.56849
0.56849
0.56849
0.56849
0.56849
0.56849
0.56849
0.56849
0.56849
0.56849
0.56849
0.568491
0.568491
0.568491
0.568491
0.568491
0.568491
0.568491
0.568491
0.568491
0.568491
0.568491
0.568492
0.568492
0.568492
0.568492
0.568492
0.568492
0.568492
0.568492
0.568492
0.568492
0.568493
0.568493
0.568493
0.568493
0.568493
0.568493
0.568493
0.568493
0.568493
0.568494
0.568494
0.568494
0.568494
0.568494
0.568494
0.568494
0.568494
0.568494
0.568495
0.568495
0.568495
0.568495
0.568495
0.568495
0.568495
0.568495
0.568495
0.568496
0.568496
0.568496
0.568496
0.568496
0.568496
0.568496
0.568497
0.568497
0.568497
0.568497
0.568497
0.568497
0.568497
0.568497
0.568498
0.568498
0.568498
0.568498
0.568498
0.568498
0.568499
0.568499
0.568499
0.568499
0.568499
0.568499
0.5685
0.5685
0.5685
0.5685
0.5685
0.5685
0.5685
0.5685
0.568501
0.568501
0.568501
0.568501
0.568501
0.568502
0.568502
0.568502
0.568502
0.568502
0.568502
0.568503
0.568503
0.568503
0.568503
0.568503
0.568503
0.568504
0.568504
0.568504
0.568504
0.568504
0.568505
0.568505
0.568505
0.568505
0.568505
0.568505
0.568506
0.568506
0.568506
0.568506
0.568506
0.568507
0.568507
0.568507
0.568507
0.568507
0.568508
0.568508
0.568508
0.568508
0.568508
0.568509
0.568509
0.568509
0.568509
0.568509
0.56851
0.56851
0.56851
0.56851
0.56851
0.568511
0.568511
0.568511
0.568511
0.568511
0.568512
0.568512
0.568512
0.568512
0.568512
0.568513
0.568513
0.568513
0.568513
0.568514
0.568514
0.568514
0.568514
0.568514
0.568515
0.568515
0.568515
0.568515
0.568515
0.568516
0.568516
0.568516
0.568516
0.568517
0.568517
0.568517
0.568517
0.568518
0.568518
0.568518
0.568518
0.568518
0.568519
0.568519
0.568519
0.56852
0.56852
0.56852
0.56852
0.568521
0.568521
0.568521
0.568521
0.568521
0.568522
0.568522
0.568522
0.568522
0.568523
0.568523
0.568523
0.568523
0.568524
0.568524
0.568524
0.568525
0.568525
0.568525
0.568525
0.568526
0.568526
0.568526
0.568526
0.568527
0.568527
0.568527
0.568527
0.568528
0.568528
0.568528
0.568529
0.568529
0.568529
0.568529
0.56853
0.56853
0.56853
0.56853
0.568531
0.568531
0.568531
0.568531
0.568532
0.568532
0.568533
0.568533
0.568533
0.568533
0.568534
0.568534
0.568534
0.568534
0.568535
0.568535
0.568535
0.568536
0.568536
0.568536
0.568537
0.568537
0.568537
0.568537
0.568538
0.568538
0.568538
0.568539
0.568539
0.568539
0.56854
0.56854
0.56854
0.56854
0.568541
0.568541
0.568542
0.568542
0.568542
0.568542
0.568543
0.568543
0.568544
0.568544
0.568544
0.568544
0.568545
0.568545
0.568545
0.568546
0.568546
0.568546
0.568547
0.568547
0.568547
0.568548
0.568548
0.568548
0.568548
0.568549
0.568549
0.56855
0.56855
0.56855
0.568551
0.568551
0.568551
0.568552
0.568552
0.568552
0.568553
0.568553
0.568554
0.568554
0.568554
0.568554
0.568555
0.568555
0.568555
0.568556
0.568556
0.568557
0.568557
0.568557
0.568558
0.568558
0.568558
0.568559
0.568559
0.568559
0.56856
0.56856
0.568561
0.568561
0.568561
0.568562
0.568562
0.568563
0.568563
0.568563
0.568563
0.568564
0.568564
0.568564
0.568565
0.568565
0.568566
0.568566
0.568566
0.568567
0.568567
0.568568
0.568568
0.568568
0.568569
0.568569
0.56857
0.56857
0.56857
0.568571
0.568571
0.568572
0.568572
0.568572
0.568573
0.568573
0.568574
0.568574
0.568574
0.568575
0.568575
0.568576
0.568576
0.568576
0.568577
0.568577
0.568578
0.568578
0.568578
0.568579
0.568579
0.56858
0.56858
0.56858
0.568581
0.568581
0.568582
0.568582
0.568582
0.568583
0.568583
0.568584
0.568584
0.568584
0.568585
0.568585
0.568586
0.568586
0.568586
0.568587
0.568588
0.568588
0.568589
0.568589
0.568589
0.56859
0.56859
0.568591
0.568591
0.568591
0.568592
0.568592
0.568593
0.568593
0.568594
0.568594
0.568595
0.568595
0.568595
0.568596
0.568596
0.568597
0.568597
0.568597
0.568598
0.568599
0.568599
0.5686
0.5686
0.5686
0.568601
0.568601
0.568602
0.568602
0.568603
0.568603
0.568604
0.568604
0.568604
0.568605
0.568605
0.568606
0.568607
0.568607
0.568607
0.568608
0.568608
0.568609
0.568609
0.568609
0.56861
0.568611
0.568611
0.568611
0.568612
0.568612
0.568613
0.568614
0.568614
0.568614
0.568615
0.568616
0.568616
0.568616
0.568617
0.568617
0.568618
0.568619
0.568619
0.568619
0.56862
0.56862
0.568621
0.568621
0.568622
0.568622
0.568623
0.568624
0.568624
0.568624
0.568625
0.568625
0.568626
0.568626
0.568627
0.568627
0.568628
0.568629
0.568629
0.568629
0.56863
0.568631
0.568631
0.568631
0.568632
0.568632
0.568633
0.568634
0.568634
0.568634
0.568635
0.568636
0.568636
0.568636
0.568637
0.568638
0.568638
0.568639
0.568639
0.56864
0.56864
0.568641
0.568642
0.568642
0.568642
0.568643
0.568644
0.568644
0.568644
0.568645
0.568646
0.568646
0.568647
0.568647
0.568648
0.568648
0.568649
0.56865
0.56865
0.56865
0.568651
0.568652
0.568653
0.568653
0.568653
0.568654
0.568655
0.568655
0.568655
0.568656
0.568657
0.568657
0.568658
0.568658
0.568659
0.56866
0.56866
0.568661
0.568661
0.568662
0.568662
0.568663
0.568664
0.568664
0.568664
0.568665
0.568666
0.568667
0.568667
0.568667
0.568668
0.568669
0.56867
0.56867
0.56867
0.568671
0.568672
0.568673
0.568673
0.568673
0.568674
0.568675
0.568675
0.568675
0.568676
0.568677
0.568678
0.568678
0.568678
0.568679
0.56868
0.568681
0.568681
0.568681
0.568682
0.568683
0.568684
0.568685
0.568685
0.568685
0.568686
0.568687
0.568688
0.568688
0.568688
0.568689
0.56869
0.568691
0.568691
0.568691
0.568692
0.568693
0.568694
0.568694
0.568695
0.568695
0.568696
0.568697
0.568697
0.568698
0.568698
0.568699
0.5687
0.5687
0.568701
0.568702
0.568702
0.568703
0.568703
0.568704
0.568705
0.568706
0.568706
0.568706
0.568707
0.568708
0.568709
0.56871
0.56871
0.56871
0.568711
0.568712
0.568713
0.568713
0.568714
0.568714
0.568715
0.568716
0.568716
0.568717
0.568718
0.568719
0.568719
0.568719
0.56872
0.568721
0.568722
0.568723
0.568723
0.568723
0.568724
0.568725
0.568726
0.568726
0.568727
0.568728
0.568729
0.568729
0.568729
0.56873
0.568731
0.568732
0.568733
0.568733
0.568734
0.568735
0.568735
0.568736
0.568736
0.568737
0.568738
0.568739
0.56874
0.56874
0.568741
0.568741
0.568742
0.568743
0.568743
0.568744
0.568745
0.568746
0.568747
0.568747
0.568748
0.568748
0.568749
0.56875
0.56875
0.568751
0.568752
0.568753
0.568754
0.568754
0.568755
0.568756
0.568756
0.568757
0.568757
0.568758
0.568759
0.56876
0.568761
0.568761
0.568762
0.568763
0.568764
0.568765
0.568765
0.568765
0.568766
0.568767
0.568768
0.568768
0.568769
0.56877
0.568771
0.568772
0.568772
0.568773
0.568774
0.568775
0.568775
0.568775
0.568776
0.568777
0.568778
0.568779
0.568779
0.56878
0.568781
0.568782
0.568783
0.568783
0.568784
0.568785
0.568786
0.568787
0.568787
0.568788
0.568789
0.56879
0.568791
0.568791
0.568792
0.568793
0.568793
0.568794
0.568794
0.568795
0.568796
0.568797
0.568798
0.568798
0.568799
0.5688
0.568801
0.568802
0.568802
0.568803
0.568804
0.568805
0.568806
0.568806
0.568807
0.568808
0.568809
0.56881
0.56881
0.568811
0.568812
0.568813
0.568814
0.568814
0.568815
0.568816
0.568817
0.568818
0.568818
0.568819
0.56882
0.568821
0.568822
0.568822
0.568823
0.568824
0.568825
0.568826
0.568826
0.568827
0.568828
0.568829
0.56883
0.56883
0.568831
0.568832
0.568833
0.568834
0.568834
0.568835
0.568836
0.568837
0.568838
0.568838
0.568839
0.56884
0.568841
0.568842
0.568842
0.568843
0.568845
0.568846
0.568847
0.568847
0.568848
0.568849
0.56885
0.568851
0.568851
0.568852
0.568853
0.568854
0.568855
0.568855
0.568856
0.568857
0.568858
0.568859
0.568859
0.56886
0.568861
0.568863
0.568864
0.568864
0.568865
0.568866
0.568867
0.568868
0.568868
0.568869
0.56887
0.568871
0.568872
0.568872
0.568873
0.568874
0.568875
0.568877
0.568877
0.568878
0.568879
0.56888
0.568881
0.568881
0.568882
0.568883
0.568884
0.568885
0.568885
0.568886
0.568888
0.568889
0.56889
0.56889
0.568891
0.568892
0.568893
0.568894
0.568894
0.568895
0.568896
0.568898
0.568899
0.568899
0.5689
0.568901
0.568902
0.568903
0.568903
0.568904
0.568906
0.568907
0.568908
0.568908
0.568909
0.56891
0.568911
0.568912
0.568912
0.568914
0.568915
0.568916
0.568917
0.568917
0.568918
0.568919
0.568921
0.568922
0.568922
0.568923
0.568924
0.568925
0.568926
0.568926
0.568928
0.568929
0.56893
0.568931
0.568931
0.568932
0.568933
0.568935
0.568936
0.568936
0.568937
0.568938
0.568939
0.56894
0.56894
0.568942
0.568943
0.568944
0.568945
0.568945
0.568946
0.568948
0.568949
0.56895
0.56895
0.568951
0.568952
0.568954
0.568955
0.568955
0.568956
0.568957
0.568958
0.56896
0.56896
0.568961
0.568962
0.568963
0.568965
0.568965
0.568966
0.568967
0.568968
0.568969
0.568969
0.568971
0.568972
0.568973
0.568974
0.568974
0.568976
0.568977
0.568978
0.568979
0.568979
0.568981
0.568982
0.568983
0.568984
0.568984
0.568986
0.568987
0.568988
0.568989
0.568989
0.568991
0.568992
0.568993
0.568994
0.568994
0.568996
0.568997
0.568998
0.569
0.569
0.569001
0.569002
0.569003
0.569005
0.569005
0.569006
0.569007
0.569008
0.56901
0.56901
0.569011
0.569012
0.569014
0.569015
0.569015
0.569016
0.569018
0.569019
0.56902
0.56902
0.569021
0.569023
0.569024
0.569025
0.569025
0.569027
0.569028
0.569029
0.569031
0.569031
0.569032
0.569033
0.569035
0.569036
0.569036
0.569037
0.569039
0.56904
0.569041
0.569041
0.569043
0.569044
0.569045
0.569047
0.569047
0.569048
0.569049
0.569051
0.569052
0.569052
0.569053
0.569055
0.569056
0.569057
0.569057
0.569059
0.56906
0.569061
0.569063
0.569063
0.569064
0.569066
0.569067
0.569068
0.569068
0.56907
0.569071
0.569072
0.569074
0.569074
0.569075
0.569076
0.569078
0.569079
0.569079
0.569081
0.569082
0.569083
0.569085
0.569085
0.569086
0.569088
0.569089
0.56909
0.56909
0.569092
0.569093
0.569095
0.569096
0.569096
0.569097
0.569099
0.5691
0.569102
0.569102
0.569103
0.569105
0.569106
0.569107
0.569107
0.569109
0.56911
0.569112
0.569113
0.569113
0.569114
0.569116
0.569117
0.569119
0.569119
0.56912
0.569122
0.569123
0.569125
0.569125
0.569126
0.569127
0.569129
0.56913
0.56913
0.569132
0.569133
0.569135
0.569136
0.569136
0.569138
0.569139
0.56914
0.569142
0.569142
0.569143
0.569145
0.569146
0.569148
0.569148
0.569149
0.569151
0.569152
0.569154
0.569154
0.569155
0.569157
0.569158
0.56916
0.56916
0.569161
0.569163
0.569164
0.569166
0.569166
0.569167
0.569169
0.56917
0.569172
0.569172
0.569173
0.569175
0.569176
0.569178
0.569178
0.569179
0.569181
0.569182
0.569184
0.569184
0.569185
0.569187
0.569188
0.56919
0.56919
0.569191
0.569193
0.569194
0.569196
0.569196
0.569198
0.569199
0.569201
0.569202
0.569202
0.569204
0.569205
0.569207
0.569208
0.569208
0.56921
0.569211
0.569213
0.569215
0.569215
0.569216
0.569218
0.569219
0.569221
0.569221
0.569222
0.569224
0.569226
0.569227
0.569227
0.569229
0.56923
0.569232
0.569233
0.569233
0.569235
0.569237
0.569238
0.56924
0.56924
0.569241
0.569243
0.569245
0.569246
0.569246
0.569248
0.569249
0.569251
0.569253
0.569253
0.569254
0.569256
0.569257
0.569259
0.569259
0.569261
0.569262
0.569264
0.569265
0.569265
0.569267
0.569269
0.56927
0.569272
0.569272
0.569274
0.569275
0.569277
0.569279
0.569279
0.56928
0.569282
0.569284
0.569285
0.569285
0.569287
0.569289
0.56929
0.569292
0.569292
0.569293
0.569295
0.569297
0.569298
0.569298
0.5693
0.569302
0.569303
0.569305
0.569305
0.569307
0.569308
0.56931
0.569312
0.569312
0.569314
0.569315
0.569317
0.569319
0.569319
0.56932
0.569322
0.569324
0.569325
0.569325
0.569327
0.569329
0.56933
0.569332
0.569332
0.569334
0.569336
0.569337
0.569339
0.569339
0.569341
0.569342
0.569344
0.569346
0.569346
0.569348
0.569349
0.569351
0.569353
0.569353
0.569355
0.569356
0.569358
0.56936
0.56936
0.569361
0.569363
0.569365
0.569367
0.569367
0.569368
0.56937
0.569372
0.569374
0.569374
0.569375
0.569377
0.569379
0.569381
0.569381
0.569383
0.569384
0.569386
0.569388
0.569388
0.56939
0.569391
0.569393
0.569395
0.569395
0.569397
0.569398
0.5694
0.569402
0.569402
0.569404
0.569406
0.569407
0.569409
0.569409
0.569411
0.569413
0.569415
0.569417
0.569417
0.569418
0.56942
0.569422
0.569424
0.569424
0.569426
0.569427
0.569429
0.569431
0.569431
0.569433
0.569435
0.569437
0.569438
0.569438
0.56944
0.569442
0.569444
0.569446
0.569446
0.569448
0.569449
0.569451
0.569453
0.569453
0.569455
0.569457
0.569459
0.56946
0.56946
0.569462
0.569464
0.569466
0.569468
0.569468
0.56947
0.569472
0.569474
0.569475
0.569475
0.569477
0.569479
0.569481
0.569483
0.569483
0.569485
0.569487
0.569489
0.569491
0.569491
0.569492
0.569494
0.569496
0.569498
0.569498
0.5695
0.569502
0.569504
0.569506
0.569506
0.569508
0.56951
0.569512
0.569513
0.569513
0.569515
0.569517
0.569519
0.569521
0.569521
0.569523
0.569525
0.569527
0.569529
0.569529
0.569531
0.569533
0.569535
0.569537
0.569537
0.569539
0.569541
0.569543
0.569545
0.569545
0.569546
0.569548
0.56955
0.569552
0.569552
0.569554
0.569556
0.569558
0.56956
0.56956
0.569562
0.569564
0.569566
0.569568
0.569568
0.56957
0.569572
0.569574
0.569576
0.569576
0.569578
0.56958
0.569582
0.569584
0.569584
0.569586
0.569588
0.56959
0.569592
0.569592
0.569594
0.569596
0.569598
0.5696
0.5696
0.569602
0.569604
0.569606
0.569608
0.569608
0.56961
0.569612
0.569615
0.569617
0.569617
0.569619
0.569621
0.569623
0.569625
0.569625
0.569627
0.569629
0.569631
0.569633
0.569633
0.569635
0.569637
0.569639
0.569641
0.569641
0.569643
0.569645
0.569647
0.56965
0.56965
0.569652
0.569654
0.569656
0.569658
0.569658
0.56966
0.569662
0.569664
0.569666
0.569666
0.569668
0.56967
0.569673
0.569675
0.569675
0.569677
0.569679
0.569681
0.569683
0.569683
0.569685
0.569687
0.56969
0.569692
0.569692
0.569694
0.569696
0.569698
0.5697
0.5697
0.569702
0.569704
0.569707
0.569709
0.569709
0.569711
0.569713
0.569715
0.569717
0.569717
0.569719
0.569722
0.569724
0.569726
0.569726
0.569728
0.56973
0.569732
0.569735
0.569735
0.569737
0.569739
0.569741
0.569743
0.569743
0.569746
0.569748
0.56975
0.569752
0.569752
0.569754
0.569757
0.569759
0.569761
0.569761
0.569763
0.569765
0.569768
0.56977
0.56977
0.569772
0.569774
0.569776
0.569779
0.569779
0.569781
0.569783
0.569785
0.569788
0.569788
0.56979
0.569792
0.569794
0.569797
0.569797
0.569799
0.569801
0.569803
0.569806
0.569806
0.569808
0.56981
0.569812
0.569815
0.569815
0.569817
0.569819
0.569821
0.569824
0.569824
0.569826
0.569828
0.569831
0.569833
0.569833
0.569835
0.569837
0.56984
0.569842
0.569842
0.569844
0.569847
0.569849
0.569851
0.569851
0.569854
0.569856
0.569858
0.56986
0.56986
0.569863
0.569865
0.569867
0.56987
0.56987
0.569872
0.569874
0.569877
0.569879
0.569879
0.569881
0.569884
0.569886
0.569888
0.569888
0.569891
0.569893
0.569896
0.569898
0.569898
0.5699
0.569903
0.569905
0.569907
0.569907
0.56991
0.569912
0.569915
0.569917
0.569917
0.569919
0.569922
0.569924
0.569926
0.569926
0.569929
0.569931
0.569934
0.569936
0.569936
0.569938
0.569941
0.569943
0.569946
0.569946
0.569948
0.56995
0.569953
0.569955
0.569955
0.569958
0.56996
0.569963
0.569965
0.569965
0.569967
0.56997
0.569972
0.569975
0.569975
0.569977
0.56998
0.569982
0.569985
0.569985
0.569987
0.56999
0.569992
0.569994
0.569994
0.569997
0.569999
0.570002
0.570004
0.570004
0.570007
0.570009
0.570012
0.570014
0.570014
0.570017
0.570019
0.570022
0.570024
0.570024
0.570027
0.570029
0.570032
0.570034
0.570034
0.570037
0.570039
0.570042
0.570044
0.570044
0.570047
0.570049
0.570052
0.570054
0.570054
0.570057
0.570059
0.570062
0.570065
0.570065
0.570067
0.57007
0.570072
0.570075
0.570075
0.570077
0.57008
0.570082
0.570085
0.570085
0.570088
0.57009
0.570093
0.570095
0.570095
0.570098
0.5701
0.570103
0.570106
0.570106
0.570108
0.570111
0.570113
0.570116
0.570116
0.570119
0.570121
0.570124
0.570126
0.570126
0.570129
0.570132
0.570134
0.570137
0.570137
0.570139
0.570142
0.570145
0.570147
0.570147
0.57015
0.570153
0.570155
0.570158
0.570158
0.570161
0.570163
0.570166
0.570168
0.570168
0.570171
0.570174
0.570176
0.570179
0.570179
0.570182
0.570184
0.570187
0.57019
0.57019
0.570193
0.570195
0.570198
0.570201
0.570201
0.570203
0.570206
0.570209
0.570211
0.570211
0.570214
0.570217
0.57022
0.570222
0.570222
0.570225
0.570228
0.57023
0.570233
0.570233
0.570236
0.570239
0.570241
0.570244
0.570244
0.570247
0.570249
0.570252
0.570255
0.570255
0.570258
0.57026
0.570263
0.570266
0.570266
0.570269
0.570272
0.570274
0.570277
0.570277
0.57028
0.570283
0.570285
0.570288
0.570288
0.570291
0.570294
0.570297
0.570299
0.570299
0.570302
0.570305
0.570308
0.570311
0.570311
0.570313
0.570316
0.570319
0.570322
0.570322
0.570325
0.570327
0.57033
0.570333
0.570333
0.570336
0.570339
0.570342
0.570345
0.570345
0.570347
0.57035
0.570353
0.570356
0.570356
0.570359
0.570362
0.570365
0.570367
0.570367
0.57037
0.570373
0.570376
0.570379
0.570379
0.570382
0.570385
0.570388
0.57039
0.57039
0.570393
0.570396
0.570399
0.570402
0.570402
0.570405
0.570408
0.570411
0.570414
0.570414
0.570417
0.57042
0.570423
0.570425
0.570425
0.570428
0.570431
0.570434
0.570437
0.570437
0.57044
0.570443
0.570446
0.570449
0.570449
0.570452
0.570455
0.570458
0.570461
0.570461
0.570464
0.570467
0.57047
0.570473
0.570473
0.570476
0.570479
0.570482
0.570485
0.570485
0.570488
0.570491
0.570494
0.570497
0.570497
0.5705
0.570503
0.570506
0.570509
0.570509
0.570512
0.570515
0.570518
0.570521
0.570521
0.570524
0.570527
0.57053
0.570533
0.570533
0.570536
0.570539
0.570542
0.570545
0.570545
0.570548
0.570551
0.570555
0.570558
0.570558
0.570561
0.570564
0.570567
0.57057
0.57057
0.570573
0.570576
0.570579
0.570582
0.570582
0.570585
0.570589
0.570592
0.570595
0.570595
0.570598
0.570601
0.570604
0.570607
0.570607
0.57061
0.570614
0.570617
0.57062
0.57062
0.570623
0.570626
0.570629
0.570632
0.570632
0.570636
0.570639
0.570642
0.570645
0.570645
0.570648
0.570651
0.570655
0.570658
0.570658
0.570661
0.570664
0.570667
0.570671
0.570671
0.570674
0.570677
0.57068
0.570683
0.570683
0.570687
0.57069
0.570693
0.570696
0.570696
0.570699
0.570703
0.570706
0.570709
0.570709
0.570712
0.570716
0.570719
0.570722
0.570722
0.570725
0.570729
0.570732
0.570735
0.570735
0.570738
0.570742
0.570745
0.570748
0.570748
0.570752
0.570755
0.570758
0.570761
0.570761
0.570765
0.570768
0.570771
0.570775
0.570775
0.570778
0.570781
0.570785
0.570788
0.570788
0.570791
0.570794
0.570798
0.570801
0.570801
0.570804
0.570808
0.570811
0.570814
0.570814
0.570818
0.570821
0.570825
0.570828
0.570828
0.570831
0.570835
0.570838
0.570841
0.570841
0.570845
0.570848
0.570852
0.570855
0.570855
0.570858
0.570862
0.570865
0.570869
0.570869
0.570872
0.570875
0.570879
0.570882
0.570882
0.570886
0.570889
0.570892
0.570896
0.570896
0.570899
0.570903
0.570906
0.57091
0.57091
0.570913
0.570917
0.57092
0.570924
0.570924
0.570927
0.570931
0.570934
0.570937
0.570937
0.570941
0.570944
0.570948
0.570951
0.570951
0.570955
0.570958
0.570962
0.570965
0.570965
0.570969
0.570972
0.570976
0.570979
0.570979
0.570983
0.570987
0.57099
0.570994
0.570994
0.570997
0.571001
0.571004
0.571008
0.571008
0.571011
0.571015
0.571019
0.571022
0.571022
0.571026
0.571029
0.571033
0.571036
0.571036
0.57104
0.571044
0.571047
0.571051
0.571051
0.571054
0.571058
0.571062
0.571065
0.571065
0.571069
0.571072
0.571076
0.57108
0.57108
0.571083
0.571087
0.571091
0.571094
0.571094
0.571098
0.571102
0.571105
0.571109
0.571109
0.571113
0.571116
0.57112
0.571124
0.571124
0.571127
0.571131
0.571135
0.571138
0.571138
0.571142
0.571146
0.571149
0.571153
0.571153
0.571157
0.571161
0.571164
0.571168
0.571168
0.571172
0.571175
0.571179
0.571183
0.571183
0.571187
0.57119
0.571194
0.571198
0.571198
0.571202
0.571206
0.571209
0.571213
0.571213
0.571217
0.571221
0.571224
0.571228
0.571228
0.571232
0.571236
0.57124
0.571243
0.571243
0.571247
0.571251
0.571255
0.571259
0.571259
0.571262
0.571266
0.57127
0.571274
0.571274
0.571278
0.571282
0.571286
0.571289
0.571289
0.571293
0.571297
0.571301
0.571305
0.571305
0.571309
0.571313
0.571316
0.57132
0.57132
0.571324
0.571328
0.571332
0.571336
0.571336
0.57134
0.571344
0.571348
0.571352
0.571352
0.571355
0.571359
0.571363
0.571367
0.571367
0.571371
0.571375
0.571379
0.571383
0.571383
0.571387
0.571391
0.571395
0.571399
0.571399
0.571403
0.571407
0.571411
0.571415
0.571415
0.571419
0.571423
0.571427
0.571431
0.571431
0.571435
0.571439
0.571443
0.571447
0.571447
0.571451
0.571455
0.571459
0.571463
0.571463
0.571467
0.571471
0.571475
0.571479
0.571479
0.571483
0.571487
0.571491
0.571496
0.571496
0.5715
0.571504
0.571508
0.571512
0.571512
0.571516
0.57152
0.571524
0.571528
0.571528
0.571532
0.571536
0.571541
0.571545
0.571545
0.571549
0.571553
0.571557
0.571561
0.571561
0.571565
0.57157
0.571574
0.571578
0.571578
0.571582
0.571586
0.57159
0.571595
0.571595
0.571599
0.571603
0.571607
0.571611
0.571611
0.571616
0.57162
0.571624
0.571628
0.571628
0.571632
0.571637
0.571641
0.571645
0.571645
0.571649
0.571654
0.571658
0.571662
0.571662
0.571666
0.571671
0.571675
0.571679
0.571679
0.571683
0.571688
0.571692
0.571696
0.571696
0.571701
0.571705
0.571709
0.571713
0.571713
0.571718
0.571722
0.571726
0.571731
0.571731
0.571735
0.571739
0.571744
0.571748
0.571748
0.571752
0.571757
0.571761
0.571766
0.571766
0.57177
0.571774
0.571779
0.571783
0.571783
0.571787
0.571792
0.571796
0.571801
0.571801
0.571805
0.571809
0.571814
0.571818
0.571818
0.571823
0.571827
0.571832
0.571836
0.571836
0.57184
0.571845
0.571849
0.571854
0.571854
0.571858
0.571863
0.571867
0.571872
0.571872
0.571876
0.571881
0.571885
0.57189
0.57189
0.571894
0.571899
0.571903
0.571908
0.571908
0.571912
0.571917
0.571921
0.571926
0.571926
0.57193
0.571935
0.571939
0.571944
0.571944
0.571948
0.571953
0.571958
0.571962
0.571962
0.571967
0.571971
0.571976
0.57198
0.57198
0.571985
0.57199
0.571994
0.571999
0.571999
0.572004
0.572008
0.572013
0.572017
0.572017
0.572022
0.572027
0.572031
0.572036
0.572036
0.572041
0.572045
0.57205
0.572055
0.572055
0.572059
0.572064
0.572069
0.572073
0.572073
0.572078
0.572083
0.572087
0.572092
0.572092
0.572097
0.572102
0.572106
0.572111
0.572111
0.572116
0.572121
0.572125
0.57213
0.57213
0.572135
0.57214
0.572144
0.572149
0.572149
0.572154
0.572159
0.572164
0.572168
0.572168
0.572173
0.572178
0.572183
0.572188
0.572188
0.572192
0.572197
0.572202
0.572207
0.572207
0.572212
0.572217
0.572221
0.572226
0.572226
0.572231
0.572236
0.572241
0.572246
0.572246
0.572251
0.572256
0.57226
0.572265
0.572265
0.57227
0.572275
0.57228
0.572285
0.572285
0.57229
0.572295
0.5723
0.572305
0.572305
0.57231
0.572315
0.57232
0.572325
0.572325
0.57233
0.572335
0.572339
0.572344
0.572344
0.572349
0.572354
0.572359
0.572364
0.572364
0.572369
0.572374
0.57238
0.572385
0.572385
0.57239
0.572395
0.5724
0.572405
0.572405
0.57241
0.572415
0.57242
0.572425
0.572425
0.57243
0.572435
0.57244
0.572445
0.572445
0.57245
0.572456
0.572461
0.572466
0.572466
0.572471
0.572476
0.572481
0.572486
0.572486
0.572491
0.572497
0.572502
0.572507
0.572507
0.572512
0.572517
0.572522
0.572528
0.572528
0.572533
0.572538
0.572543
0.572548
0.572548
0.572554
0.572559
0.572564
0.572569
0.572569
0.572575
0.57258
0.572585
0.57259
0.57259
0.572595
0.572601
0.572606
0.572611
0.572611
0.572617
0.572622
0.572627
0.572632
0.572632
0.572638
0.572643
0.572648
0.572654
0.572654
0.572659
0.572664
0.57267
0.572675
0.572675
0.57268
0.572686
0.572691
0.572697
0.572697
0.572702
0.572707
0.572713
0.572718
0.572718
0.572723
0.572729
0.572734
0.57274
0.57274
0.572745
0.572751
0.572756
0.572761
0.572761
0.572767
0.572772
0.572778
0.572783
0.572783
0.572789
0.572794
0.5728
0.572805
0.572805
0.572811
0.572816
0.572822
0.572827
0.572827
0.572833
0.572838
0.572844
0.572849
0.572849
0.572855
0.57286
0.572866
0.572871
0.572871
0.572877
0.572883
0.572888
0.572894
0.572894
0.572899
0.572905
0.572911
0.572916
0.572916
0.572922
0.572927
0.572933
0.572939
0.572939
0.572944
0.57295
0.572956
0.572961
0.572961
0.572967
0.572973
0.572978
0.572984
0.572984
0.57299
0.572995
0.573001
0.573007
0.573007
0.573012
0.573018
0.573024
0.57303
0.57303
0.573035
0.573041
0.573047
0.573053
0.573053
0.573058
0.573064
0.57307
0.573076
0.573076
0.573081
0.573087
0.573093
0.573099
0.573099
0.573105
0.573111
0.573116
0.573122
0.573122
0.573128
0.573134
0.57314
0.573146
0.573146
0.573151
0.573157
0.573163
0.573169
0.573169
0.573175
0.573181
0.573187
0.573193
0.573193
0.573199
0.573205
0.57321
0.573216
0.573216
0.573222
0.573228
0.573234
0.57324
0.57324
0.573246
0.573252
0.573258
0.573264
0.573264
0.57327
0.573276
0.573282
0.573288
0.573288
0.573294
0.5733
0.573306
0.573312
0.573312
0.573318
0.573324
0.573331
0.573337
0.573337
0.573343
0.573349
0.573355
0.573361
0.573361
0.573367
0.573373
0.573379
0.573385
0.573385
0.573391
0.573398
0.573404
0.57341
0.57341
0.573416
0.573422
0.573428
0.573435
0.573435
0.573441
0.573447
0.573453
0.573459
0.573459
0.573466
0.573472
0.573478
0.573484
0.573484
0.573491
0.573497
0.573503
0.573509
0.573509
0.573516
0.573522
0.573528
0.573534
0.573534
0.573541
0.573547
0.573553
0.57356
0.57356
0.573566
0.573572
0.573579
0.573585
0.573585
0.573591
0.573598
0.573604
0.57361
0.57361
0.573617
0.573623
0.57363
0.573636
0.573636
0.573642
0.573649
0.573655
0.573662
0.573662
0.573668
0.573675
0.573681
0.573688
0.573688
0.573694
0.573701
0.573707
0.573713
0.573713
0.57372
0.573726
0.573733
0.573739
0.573739
0.573746
0.573753
0.573759
0.573766
0.573766
0.573772
0.573779
0.573785
0.573792
0.573792
0.573799
0.573805
0.573812
0.573818
0.573818
0.573825
0.573832
0.573838
0.573845
0.573845
0.573851
0.573858
0.573865
0.573871
0.573871
0.573878
0.573885
0.573891
0.573898
0.573898
0.573905
0.573912
0.573918
0.573925
0.573925
0.573932
0.573939
0.573945
0.573952
0.573952
0.573959
0.573966
0.573972
0.573979
0.573979
0.573986
0.573993
0.574
0.574006
0.574006
0.574013
0.57402
0.574027
0.574034
0.574034
0.574041
0.574047
0.574054
0.574061
0.574061
0.574068
0.574075
0.574082
0.574089
0.574089
0.574096
0.574103
0.57411
0.574117
0.574117
0.574123
0.57413
0.574137
0.574144
0.574144
0.574151
0.574158
0.574165
0.574172
0.574172
0.574179
0.574186
0.574193
0.5742
0.5742
0.574208
0.574215
0.574222
0.574229
0.574229
0.574236
0.574243
0.57425
0.574257
0.574257
0.574264
0.574271
0.574278
0.574286
0.574286
0.574293
0.5743
0.574307
0.574314
0.574314
0.574321
0.574329
0.574336
0.574343
0.574343
0.57435
0.574357
0.574365
0.574372
0.574372
0.574379
0.574386
0.574394
0.574401
0.574401
0.574408
0.574415
0.574423
0.57443
0.57443
0.574437
0.574445
0.574452
0.574459
0.574459
0.574467
0.574474
0.574481
0.574489
0.574489
0.574496
0.574503
0.574511
0.574518
0.574518
0.574526
0.574533
0.57454
0.574548
0.574548
0.574555
0.574563
0.57457
0.574578
0.574578
0.574585
0.574593
0.5746
0.574608
0.574608
0.574615
0.574623
0.57463
0.574638
0.574638
0.574645
0.574653
0.57466
0.574668
0.574668
0.574676
0.574683
0.574691
0.574698
0.574698
0.574706
0.574714
0.574721
0.574729
0.574729
0.574736
0.574744
0.574752
0.574759
0.574759
0.574767
0.574775
0.574783
0.57479
0.57479
0.574798
0.574806
0.574813
0.574821
0.574821
0.574829
0.574837
0.574844
0.574852
0.574852
0.57486
0.574868
0.574876
0.574883
0.574883
0.574891
0.574899
0.574907
0.574915
0.574915
0.574923
0.574931
0.574938
0.574946
0.574946
0.574954
0.574962
0.57497
0.574978
0.574978
0.574986
0.574994
0.575002
0.57501
0.57501
0.575018
0.575026
0.575034
0.575042
0.575042
0.57505
0.575058
0.575066
0.575074
0.575074
0.575082
0.57509
0.575098
0.575106
0.575106
0.575114
0.575122
0.57513
0.575138
0.575138
0.575146
0.575155
0.575163
0.575171
0.575171
0.575179
0.575187
0.575195
0.575204
0.575204
0.575212
0.57522
0.575228
0.575236
0.575236
0.575245
0.575253
0.575261
0.575269
0.575269
0.575278
0.575286
0.575294
0.575303
0.575303
0.575311
0.575319
0.575327
0.575336
0.575336
0.575344
0.575353
0.575361
0.575369
0.575369
0.575378
0.575386
0.575395
0.575403
0.575403
0.575411
0.57542
0.575428
0.575437
0.575437
0.575445
0.575454
0.575462
0.575471
0.575471
0.575479
0.575488
0.575496
0.575505
0.575505
0.575513
0.575522
0.57553
0.575539
0.575539
0.575548
0.575556
0.575565
0.575573
0.575573
0.575582
0.575591
0.575599
0.575608
0.575608
0.575617
0.575625
0.575634
0.575643
0.575643
0.575651
0.57566
0.575669
0.575677
0.575677
0.575686
0.575695
0.575704
0.575713
0.575713
0.575721
0.57573
0.575739
0.575748
0.575748
0.575757
0.575765
0.575774
0.575783
0.575783
0.575792
0.575801
0.57581
0.575819
0.575819
0.575828
0.575837
0.575845
0.575854
0.575854
0.575863
0.575872
0.575881
0.57589
0.57589
0.575899
0.575908
0.575917
0.575926
0.575926
0.575935
0.575944
0.575953
0.575963
0.575963
0.575972
0.575981
0.57599
0.575999
0.575999
0.576008
0.576017
0.576026
0.576035
0.576035
0.576045
0.576054
0.576063
0.576072
0.576072
0.576081
0.576091
0.5761
0.576109
0.576109
0.576118
0.576128
0.576137
0.576146
0.576146
0.576156
0.576165
0.576174
0.576183
0.576183
0.576193
0.576202
0.576212
0.576221
0.576221
0.57623
0.57624
0.576249
0.576259
0.576259
0.576268
0.576277
0.576287
0.576296
0.576296
0.576306
0.576315
0.576325
0.576334
0.576334
0.576344
0.576353
0.576363
0.576372
0.576372
0.576382
0.576392
0.576401
0.576411
0.576411
0.57642
0.57643
0.57644
0.576449
0.576449
0.576459
0.576469
0.576478
0.576488
0.576488
0.576498
0.576507
0.576517
0.576527
0.576527
0.576537
0.576546
0.576556
0.576566
0.576566
0.576576
0.576586
0.576595
0.576605
0.576605
0.576615
0.576625
0.576635
0.576645
0.576645
0.576655
0.576664
0.576674
0.576684
0.576684
0.576694
0.576704
0.576714
0.576724
0.576724
0.576734
0.576744
0.576754
0.576764
0.576764
0.576774
0.576784
0.576794
0.576804
0.576804
0.576814
0.576824
0.576835
0.576845
0.576845
0.576855
0.576865
0.576875
0.576885
0.576885
0.576895
0.576906
0.576916
0.576926