<?xml version="1.0"?>
<VTKFile type="UnstructuredGrid" version="0.1" byte_order="LittleEndian">
<UnstructuredGrid>
<Piece NumberOfPoints="5000" NumberOfCells="4000">
<PointData Scalars="Reaction 0">
<DataArray type="Float32" Name="Reaction 0" format="ascii">
0.410872
0.410872
0.410872
0.410872
0.410873
0.410873
0.410873
0.410873
0.410873
0.410873
0.410873
0.410874
0.410874
0.410874
0.410874
0.410874
0.410875
0.410875
0.410876
0.410876
0.410876
0.410877
0.410877
0.410878
0.410878
0.410878
0.410879
0.410879
0.41088
0.410881
0.410881
0.410882
0.410882
0.410883
0.410884
0.410884
0.410885
0.410886
0.410887
0.410887
0.410887
0.410888
0.410889
0.41089
0.410892
0.410892
0.410893
0.410894
0.410895
0.410896
0.410896
0.410897
0.410898
0.4109
0.410901
0.410901
0.410902
0.410904
0.410905
0.410906
0.410906
0.410908
0.410909
0.410911
0.410912
0.410912
0.410914
0.410916
0.410917
0.410919
0.410919
0.41092
0.410922
0.410924
0.410926
0.410926
0.410927
0.410929
0.410931
0.410933
0.410933
0.410935
0.410937
0.410939
0.410941
0.410941
0.410943
0.410945
0.410947
0.410949
0.410949
0.410951
0.410953
0.410956
0.410958
0.410958
0.41096
0.410962
0.410965
0.410967
0.410967
0.41097
0.410972
0.410974
0.410977
0.410977
0.410979
0.410982
0.410984
0.410987
0.410987
0.41099
0.410992
0.410995
0.410998
0.410998
0.411
0.411003
0.411006
0.411009
0.411009
0.411012
0.411015
0.411018
0.41102
0.41102
0.411023
0.411026
0.411029
0.411033
0.411033
0.411036
0.411039
0.411042
0.411045
0.411045
0.411048
0.411052
0.411055
0.411058
0.411058
0.411061
0.411065
0.411068
0.411072
0.411072
0.411075
0.411079
0.411082
0.411086
0.411086
0.411089
0.411093
0.411096
0.4111
0.4111
0.411104
0.411108
0.411111
0.411115
0.411115
0.411119
0.411123
0.411127
0.41113
0.41113
0.411134
0.411138
0.411142
0.411146
0.411146
0.41115
0.411154
0.411159
0.411163
0.411163
0.411167
0.411171
0.411175
0.41118
0.41118
0.411184
0.411188
0.411192
0.411197
0.411197
0.411201
0.411206
0.41121
0.411215
0.411215
0.411219
0.411224
0.411228
0.411233
0.411233
0.411237
0.411242
0.411247
0.411252
0.411252
0.411256
0.411261
0.411266
0.411271
0.411271
0.411276
0.411281
0.411285
0.41129
0.41129
0.411295
0.4113
0.411306
0.411311
0.411311
0.411316
0.411321
0.411326
0.411331
0.411331
0.411336
0.411342
0.411347
0.411352
0.411352
0.411358
0.411363
0.411368
0.411374
0.411374
0.411379
0.411385
0.41139
0.411396
0.411396
0.411402
0.411407
0.411413
0.411418
0.411418
0.411424
0.41143
0.411436
0.411441
0.411441
0.411447
0.411453
0.411459
0.411465
0.411465
0.411471
0.411477
0.411483
0.411489
0.411489
0.411495
0.411501
0.411507
0.411513
0.411513
0.41152
0.411526
0.411532
0.411538
0.411538
0.411545
0.411551
0.411557
0.411564
0.411564
0.41157
0.411576
0.411583
0.411589
0.411589
0.411596
0.411603
0.411609
0.411616
0.411616
0.411622
0.411629
0.411636
0.411643
0.411643
0.411649
0.411656
0.411663
0.41167
0.41167
0.411677
0.411684
0.411691
0.411698
0.411698
0.411705
0.411712
0.411719
0.411726
0.411726
0.411733
0.41174
0.411747
0.411754
0.411754
0.411762
0.411769
0.411776
0.411784
0.411784
0.411791
0.411798
0.411806
0.411813
0.411813
0.411821
0.411828
0.411836
0.411843
0.411843
0.411851
0.411859
0.411866
0.411874
0.411874
0.411882
0.411889
0.411897
0.411905
0.411905
0.411913
0.411921
0.411929
0.411937
0.411937
0.411945
0.411953
0.411961
0.411969
0.411969
0.411977
0.411985
0.411993
0.412001
0.412001
0.412009
0.412018
0.412026
0.412034
0.412034
0.412042
0.412051
0.412059
0.412067
0.412067
0.412076
0.412084
0.412093
0.412101
0.412101
0.41211
0.412119
0.412127
0.412136
0.412136
0.412144
0.412153
0.412162
0.412171
0.412171
0.412179
0.412188
0.412197
0.412206
0.412206
0.412215
0.412224
0.412233
0.412242
0.412242
0.412251
0.41226
0.412269
0.412278
0.412278
0.412287
0.412296
0.412306
0.412315
0.412315
0.412324
0.412333
0.412343
0.412352
0.412352
0.412361
0.412371
0.41238
0.41239
0.41239
0.412399
0.412409
0.412418
0.412428
0.412428
0.412438
0.412447
0.412457
0.412467
0.412467
0.412476
0.412486
0.412496
0.412506
0.412506
0.412516
0.412526
0.412535
0.412545
0.412545
0.412555
0.412565
0.412575
0.412586
0.412586
0.412596
0.412606
0.412616
0.412626
0.412626
0.412636
0.412647
0.412657
0.412667
0.412667
0.412677
0.412688
0.412698
0.412709
0.412709
0.412719
0.41273
0.41274
0.412751
0.412751
0.412761
0.412772
0.412782
0.412793
0.412793
0.412804
0.412815
0.412825
0.412836
0.412836
0.412847
0.412858
0.412869
0.412879
0.412879
0.41289
0.412901
0.412912
0.412923
0.412923
0.412934
0.412945
0.412957
0.412968
0.412968
0.412979
0.41299
0.413001
0.413013
0.413013
0.413024
0.413035
0.413046
0.413058
0.413058
0.413069
0.413081
0.413092
0.413104
0.413104
0.413115
0.413127
0.413138
0.41315
0.41315
0.413162
0.413173
0.413185
0.413197
0.413197
0.413208
0.41322
0.413232
0.413244
0.413244
0.413256
0.413268
0.41328
0.413292
0.413292
0.413304
0.413316
0.413328
0.41334
0.41334
0.413352
0.413364
0.413376
0.413388
0.413388
0.413401
0.413413
0.413425
0.413438
0.413438
0.41345
0.413462
0.413475
0.413487
0.413487
0.4135
0.413512
0.413525
0.413537
0.413537
0.41355
0.413562
0.413575
0.413588
0.413588
0.4136
0.413613
0.413626
0.413639
0.413639
0.413652
0.413664
0.413677
0.41369
0.41369
0.413703
0.413716
0.413729
0.413742
0.413742
0.413755
0.413768
0.413782
0.413795
0.413795
0.413808
0.413821
0.413834
0.413848
0.413848
0.413861
0.413874
0.413888
0.413901
0.413901
0.413914
0.413928
0.413941
0.413955
0.413955
0.413969
0.413982
0.413996
0.414009
0.414009
0.414023
0.414037
0.41405
0.414064
0.414064
0.414078
0.414092
0.414106
0.414119
0.414119
0.414133
0.414147
0.414161
0.414175
0.414175
0.414189
0.414203
0.414217
0.414232
0.414232
0.414246
0.41426
0.414274
0.414288
0.414288
0.414303
0.414317
0.414331
0.414345
0.414345
0.41436
0.414374
0.414389
0.414403
0.414403
0.414418
0.414432
0.414447
0.414461
0.414461
0.414476
0.414491
0.414505
0.41452
0.41452
0.414535
0.414549
0.414564
0.414579
0.414579
0.414594
0.414609
0.414624
0.414639
0.414639
0.414654
0.414669
0.414684
0.414699
0.414699
0.414714
0.414729
0.414744
0.414759
0.414759
0.414775
0.41479
0.414805
0.41482
0.41482
0.414836
0.414851
0.414866
0.414882
0.414882
0.414897
0.414913
0.414928
0.414944
0.414944
0.414959
0.414975
0.414991
0.415006
0.415006
0.415022
0.415038
0.415053
0.415069
0.415069
0.415085
0.415101
0.415117
0.415133
0.415133
0.415149
0.415165
0.415181
0.415197
0.415197
0.415213
0.415229
0.415245
0.415261
0.415261
0.415277
0.415293
0.41531
0.415326
0.415326
0.415342
0.415358
0.415375
0.415391
0.415391
0.415408
0.415424
0.41544
0.415457
0.415457
0.415473
0.41549
0.415507
0.415523
0.415523
0.41554
0.415556
0.415573
0.41559
0.41559
0.415607
0.415623
0.41564
0.415657
0.415657
0.415674
0.415691
0.415708
0.415725
0.415725
0.415742
0.415759
0.415776
0.415793
0.415793
0.41581
0.415827
0.415845
0.415862
0.415862
0.415879
0.415896
0.415914
0.415931
0.415931
0.415948
0.415966
0.415983
0.416
0.416
0.416018
0.416035
0.416053
0.416071
0.416071
0.416088
0.416106
0.416123
0.416141
0.416141
0.416159
0.416177
0.416194
0.416212
0.416212
0.41623
0.416248
0.416266
0.416284
0.416284
0.416302
0.41632
0.416338
0.416356
0.416356
0.416374
0.416392
0.41641
0.416428
0.416428
0.416446
0.416465
0.416483
0.416501
0.416501
0.416519
0.416538
0.416556
0.416575
0.416575
0.416593
0.416612
0.41663
0.416649
0.416649
0.416667
0.416686
0.416704
0.416723
0.416723
0.416742
0.41676
0.416779
0.416798
0.416798
0.416817
0.416835
0.416854
0.416873
0.416873
0.416892
0.416911
0.41693
0.416949
0.416949
0.416968
0.416987
0.417006
0.417025
0.417025
0.417044
0.417064
0.417083
0.417102
0.417102
0.417121
0.417141
0.41716
0.417179
0.417179
0.417199
0.417218
0.417238
0.417257
0.417257
0.417277
0.417296
0.417316
0.417335
0.417335
0.417355
0.417375
0.417394
0.417414
0.417414
0.417434
0.417454
0.417473
0.417493
0.417493
0.417513
0.417533
0.417553
0.417573
0.417573
0.417593
0.417613
0.417633
0.417653
0.417653
0.417673
0.417693
0.417713
0.417734
0.417734
0.417754
0.417774
0.417794
0.417815
0.417815
0.417835
0.417855
0.417876
0.417896
0.417896
0.417917
0.417937
0.417958
0.417978
0.417978
0.417999
0.41802
0.41804
0.418061
0.418061
0.418082
0.418102
0.418123
0.418144
0.418144
0.418165
0.418186
0.418206
0.418227
0.418227
0.418248
0.418269
0.41829
0.418311
0.418311
0.418332
0.418354
0.418375
0.418396
0.418396
0.418417
0.418438
0.418459
0.418481
0.418481
0.418502
0.418523
0.418545
0.418566
0.418566
0.418588
0.418609
0.418631
0.418652
0.418652
0.418674
0.418695
0.418717
0.418738
0.418738
0.41876
0.418782
0.418803
0.418825
0.418825
0.418847
0.418869
0.418891
0.418913
0.418913
0.418934
0.418956
0.418978
0.419
0.419
0.419022
0.419044
0.419067
0.419089
0.419089
0.419111
0.419133
0.419155
0.419177
0.419177
0.4192
0.419222
0.419244
0.419267
0.419267
0.419289
0.419311
0.419334
0.419356
0.419356
0.419379
0.419401
0.419424
0.419447
0.419447
0.419469
0.419492
0.419515
0.419537
0.419537
0.41956
0.419583
0.419606
0.419628
0.419628
0.419651
0.419674
0.419697
0.41972
0.41972
0.419743
0.419766
0.419789
0.419812
0.419812
0.419835
0.419858
0.419882
0.419905
0.419905
0.419928
0.419951
0.419975
0.419998
0.419998
0.420021
0.420045
0.420068
0.420092
0.420092
0.420115
0.420138
0.420162
0.420186
0.420186
0.420209
0.420233
0.420256
0.42028
0.42028
0.420304
0.420328
0.420351
0.420375
0.420375
0.420399
0.420423
0.420447
0.420471
0.420471
0.420495
0.420519
0.420543
0.420567
0.420567
0.420591
0.420615
0.420639
0.420663
0.420663
0.420687
0.420711
0.420736
0.42076
0.42076
0.420784
0.420809
0.420833
0.420857
0.420857
0.420882
0.420906
0.420931
0.420955
0.420955
0.42098
0.421004
0.421029
0.421054
0.421054
0.421078
0.421103
0.421128
0.421152
0.421152
0.421177
0.421202
0.421227
0.421252
0.421252
0.421277
0.421302
0.421327
0.421352
0.421352
0.421377
0.421402
0.421427
0.421452
0.421452
0.421477
0.421502
0.421528
0.421553
0.421553
0.421578
0.421603
0.421629
0.421654
0.421654
0.421679
0.421705
0.42173
0.421756
0.421756
0.421781
0.421807
0.421832
0.421858
0.421858
0.421884
0.421909
0.421935
0.421961
0.421961
0.421986
0.422012
0.422038
0.422064
0.422064
0.42209
0.422116
0.422142
0.422168
0.422168
0.422194
0.42222
0.422246
0.422272
0.422272
0.422298
0.422324
0.42235
0.422376
0.422376
0.422403
0.422429
0.422455
0.422482
0.422482
0.422508
0.422534
0.422561
0.422587
0.422587
0.422614
0.42264
0.422667
0.422693
0.422693
0.42272
0.422746
0.422773
0.4228
0.4228
0.422826
0.422853
0.42288
0.422907
0.422907
0.422934
0.422961
0.422987
0.423014
0.423014
0.423041
0.423068
0.423095
0.423122
0.423122
0.423149
0.423177
0.423204
0.423231
0.423231
0.423258
0.423285
0.423313
0.42334
0.42334
0.423367
0.423395
0.423422
0.423449
0.423449
0.423477
0.423504
0.423532
0.423559
0.423559
0.423587
0.423614
0.423642
0.42367
0.42367
0.423697
0.423725
0.423753
0.423781
0.423781
0.423808
0.423836
0.423864
0.423892
0.423892
0.42392
0.423948
0.423976
0.424004
0.424004
0.424032
0.42406
0.424088
0.424116
0.424116
0.424144
0.424173
0.424201
0.424229
0.424229
0.424257
0.424286
0.424314
0.424342
0.424342
0.424371
0.424399
0.424428
0.424456
0.424456
0.424485
0.424513
0.424542
0.424571
0.424571
0.424599
0.424628
0.424657
0.424685
0.424685
0.424714
0.424743
0.424772
0.424801
0.424801
0.42483
0.424858
0.424887
0.424916
0.424916
0.424945
0.424974
0.425004
0.425033
0.425033
0.425062
0.425091
0.42512
0.425149
0.425149
0.425179
0.425208
0.425237
0.425267
0.425267
0.425296
0.425325
0.425355
0.425384
0.425384
0.425414
0.425443
0.425473
0.425502
0.425502
0.425532
0.425562
0.425591
0.425621
0.425621
0.425651
0.425681
0.42571
0.42574
0.42574
0.42577
0.4258
0.42583
0.42586
0.42586
0.42589
0.42592
0.42595
0.42598
0.42598
0.42601
0.42604
0.42607
0.426101
0.426101
0.426131
0.426161
0.426191
0.426222
0.426222
0.426252
0.426282
0.426313
0.426343
0.426343
0.426374
0.426404
0.426435
0.426465
0.426465
0.426496
0.426527
0.426557
0.426588
0.426588
0.426619
0.426649
0.42668
0.426711
0.426711
0.426742
0.426773
0.426804
0.426834
0.426834
0.426865
0.426896
0.426927
0.426958
0.426958
0.42699
0.427021
0.427052
0.427083
0.427083
0.427114
0.427145
0.427177
0.427208
0.427208
0.427239
0.427271
0.427302
0.427333
0.427333
0.427365
0.427396
0.427428
0.427459
0.427459
0.427491
0.427523
0.427554
0.427586
0.427586
0.427617
0.427649
0.427681
0.427713
0.427713
0.427745
0.427776
0.427808
0.42784
0.42784
0.427872
0.427904
0.427936
0.427968
0.427968
0.428
0.428032
0.428064
0.428096
0.428096
0.428129
0.428161
0.428193
0.428225
0.428225
0.428258
0.42829
0.428322
0.428355
0.428355
0.428387
0.428419
0.428452
0.428484
0.428484
0.428517
0.42855
0.428582
0.428615
0.428615
0.428647
0.42868
0.428713
0.428746
0.428746
0.428778
0.428811
0.428844
0.428877
0.428877
0.42891
0.428943
0.428976
0.429009
0.429009
0.429042
0.429075
0.429108
0.429141
0.429141
0.429174
0.429207
0.429241
0.429274
0.429274
0.429307
0.42934
0.429374
0.429407
0.429407
0.42944
0.429474
0.429507
0.429541
0.429541
0.429574
0.429608
0.429641
0.429675
0.429675
0.429709
0.429742
0.429776
0.42981
0.42981
0.429843
0.429877
0.429911
0.429945
0.429945
0.429979
0.430013
0.430047
0.430081
0.430081
0.430115
0.430149
0.430183
0.430217
0.430217
0.430251
0.430285
0.430319
0.430353
0.430353
0.430388
0.430422
0.430456
0.430491
0.430491
0.430525
0.430559
0.430594
0.430628
0.430628
0.430663
0.430697
0.430732
0.430766
0.430766
0.430801
0.430836
0.43087
0.430905
0.430905
0.43094
0.430975
0.431009
0.431044
0.431044
0.431079
0.431114
0.431149
0.431184
0.431184
0.431219
0.431254
0.431289
0.431324
0.431324
0.431359
0.431394
0.431429
0.431464
0.431464
0.4315
0.431535
0.43157
0.431606
0.431606
0.431641
0.431676
0.431712
0.431747
0.431747
0.431783
0.431818
0.431854
0.431889
0.431889
0.431925
0.43196
0.431996
0.432032
0.432032
0.432067
0.432103
0.432139
0.432175
0.432175
0.432211
0.432246
0.432282
0.432318
0.432318
0.432354
0.43239
0.432426
0.432462
0.432462
0.432498
0.432535
0.432571
0.432607
0.432607
0.432643
0.432679
0.432716
0.432752
0.432752
0.432788
0.432825
0.432861
0.432897
0.432897
0.432934
0.43297
0.433007
0.433043
0.433043
0.43308
0.433117
0.433153
0.43319
0.43319
0.433226
0.433263
0.4333
0.433337
0.433337
0.433374
0.43341
0.433447
0.433484
0.433484
0.433521
0.433558
0.433595
0.433632
0.433632
0.433669
0.433706
0.433743
0.433781
0.433781
0.433818
0.433855
0.433892
0.43393
0.43393
0.433967
0.434004
0.434042
0.434079
0.434079
0.434116
0.434154
0.434191
0.434229
0.434229
0.434266
0.434304
0.434342
0.434379
0.434379
0.434417
0.434455
0.434492
0.43453
0.43453
0.434568
0.434606
0.434644
0.434682
0.434682
0.43472
0.434757
0.434795
0.434833
0.434833
0.434872
0.43491
0.434948
0.434986
0.434986
0.435024
0.435062
0.4351
0.435139
0.435139
0.435177
0.435215
0.435254
0.435292
0.435292
0.435331
0.435369
0.435407
0.435446
0.435446
0.435484
0.435523
0.435562
0.4356
0.4356
0.435639
0.435678
0.435716
0.435755
0.435755
0.435794
0.435833
0.435872
0.43591
0.43591
0.435949
0.435988
0.436027
0.436066
0.436066
0.436105
0.436144
0.436184
0.436223
0.436223
0.436262
0.436301
0.43634
0.436379
0.436379
0.436419
0.436458
0.436497
0.436537
0.436537
0.436576
0.436616
0.436655
0.436695
0.436695
0.436734
0.436774
0.436813
0.436853
0.436853
0.436893
0.436932
0.436972
0.437012
0.437012
0.437051
0.437091
0.437131
0.437171
0.437171
0.437211
0.437251
0.437291
0.437331
0.437331
0.437371
0.437411
0.437451
0.437491
0.437491
0.437531
0.437571
0.437612
0.437652
0.437652
0.437692
0.437732
0.437773
0.437813
0.437813
0.437853
0.437894
0.437934
0.437975
0.437975
0.438015
0.438056
0.438096
0.438137
0.438137
0.438178
0.438218
0.438259
0.4383
0.4383
0.438341
0.438381
0.438422
0.438463
0.438463
0.438504
0.438545
0.438586
0.438627
0.438627
0.438668
0.438709
0.43875
0.438791
0.438791
0.438832
0.438873
0.438915
0.438956
0.438956
0.438997
0.439038
0.43908
0.439121
0.439121
0.439162
0.439204
0.439245
0.439287
0.439287
0.439328
0.43937
0.439411
0.439453
0.439453
0.439495
0.439536
0.439578
0.43962
0.43962
0.439662
0.439703
0.439745
0.439787
0.439787
0.439829
0.439871
0.439913
0.439955
0.439955
0.439997
0.440039
0.440081
0.440123
0.440123
0.440165
0.440207
0.440249
0.440292
0.440292
0.440334
0.440376
0.440419
0.440461
0.440461
0.440503
0.440546
0.440588
0.440631
0.440631
0.440673
0.440716
0.440758
0.440801
0.440801
0.440843
0.440886
0.440929
0.440972
0.440972
0.441014
0.441057
0.4411
0.441143
0.441143
0.441186
0.441229
0.441271
0.441314
0.441314
0.441357
0.4414
0.441444
0.441487
0.441487
0.44153
0.441573
0.441616
0.441659
0.441659
0.441703
0.441746
0.441789
0.441833
0.441833
0.441876
0.441919
0.441963
0.442006
0.442006
0.44205
0.442093
0.442137
0.44218
0.44218
0.442224
0.442268
0.442311
0.442355
0.442355
0.442399
0.442443
0.442487
0.44253
0.44253
0.442574
0.442618
0.442662
0.442706
0.442706
0.44275
0.442794
0.442838
0.442882
0.442882
0.442926
0.442971
0.443015
0.443059
0.443059
0.443103
0.443148
0.443192
0.443236
0.443236
0.443281
0.443325
0.443369
0.443414
0.443414
0.443458
0.443503
0.443547
0.443592
0.443592
0.443637
0.443681
0.443726
0.443771
0.443771
0.443816
0.44386
0.443905
0.44395
0.44395
0.443995
0.44404
0.444085
0.44413
0.44413
0.444175
0.44422
0.444265
0.44431
0.44431
0.444355
0.4444
0.444445
0.444491
0.444491
0.444536
0.444581
0.444626
0.444672
0.444672
0.444717
0.444763
0.444808
0.444854
0.444854
0.444899
0.444945
0.44499
0.445036
0.445036
0.445081
0.445127
0.445173
0.445218
0.445218
0.445264
0.44531
0.445356
0.445402
0.445402
0.445448
0.445493
0.445539
0.445585
0.445585
0.445631
0.445677
0.445724
0.44577
0.44577
0.445816
0.445862
0.445908
0.445954
0.445954
0.446001
0.446047
0.446093
0.44614
0.44614
0.446186
0.446232
0.446279
0.446325
0.446325
0.446372
0.446418
0.446465
0.446512
0.446512
0.446558
0.446605
0.446652
0.446698
0.446698
0.446745
0.446792
0.446839
0.446886
0.446886
0.446932
0.446979
0.447026
0.447073
0.447073
0.44712
0.447167
0.447214
0.447262
0.447262
0.447309
0.447356
0.447403
0.44745
0.44745
0.447498
0.447545
0.447592
0.44764
0.44764
0.447687
0.447734
0.447782
0.447829
0.447829
0.447877
0.447924
0.447972
0.44802
0.44802
0.448067
0.448115
0.448163
0.44821
0.44821
0.448258
0.448306
0.448354
0.448402
0.448402
0.44845
0.448498
0.448545
0.448593
0.448593
0.448642
0.44869
0.448738
0.448786
0.448786
0.448834
0.448882
0.44893
0.448979
0.448979
0.449027
0.449075
0.449124
0.449172
0.449172
0.44922
0.449269
0.449317
0.449366
0.449366
0.449414
0.449463
0.449511
0.44956
0.44956
0.449609
0.449657
0.449706
0.449755
0.449755
0.449804
0.449852
0.449901
0.44995
0.44995
0.449999
0.450048
0.450097
0.450146
0.450146
0.450195
0.450244
0.450293
0.450342
0.450342
0.450392
0.450441
0.45049
0.450539
0.450539
0.450589
0.450638
0.450687
0.450737
0.450737
0.450786
0.450835
0.450885
0.450934
0.450934
0.450984
0.451034
0.451083
0.451133
0.451133
0.451183
0.451232
0.451282
0.451332
0.451332
0.451382
0.451431
0.451481
0.451531
0.451531
0.451581
0.451631
0.451681
0.451731
0.451731
0.451781
0.451831
0.451881
0.451931
0.451931
0.451982
0.452032
0.452082
0.452132
0.452132
0.452183
0.452233
0.452283
0.452334
0.452334
0.452384
0.452435
0.452485
0.452536
0.452536
0.452586
0.452637
0.452688
0.452738
0.452738
0.452789
0.45284
0.45289
0.452941
0.452941
0.452992
0.453043
0.453094
0.453145
0.453145
0.453196
0.453247
0.453298
0.453349
0.453349
0.4534
0.453451
0.453502
0.453553
0.453553
0.453604
0.453656
0.453707
0.453758
0.453758
0.453809
0.453861
0.453912
0.453964
0.453964
0.454015
0.454067
0.454118
0.45417
0.45417
0.454221
0.454273
0.454325
0.454376
0.454376
0.454428
0.45448
0.454531
0.454583
0.454583
0.454635
0.454687
0.454739
0.454791
0.454791
0.454843
0.454895
0.454947
0.454999
0.454999
0.455051
0.455103
0.455155
0.455208
0.455208
0.45526
0.455312
0.455364
0.455417
0.455417
0.455469
0.455521
0.455574
0.455626
0.455626
0.455679
0.455731
0.455784
0.455836
0.455836
0.455889
0.455942
0.455994
0.456047
0.456047
0.4561
0.456153
0.456205
0.456258
0.456258
0.456311
0.456364
0.456417
0.45647
0.45647
0.456523
0.456576
0.456629
0.456682
0.456682
0.456735
0.456788
0.456841
0.456895
0.456895
0.456948
0.457001
0.457055
0.457108
0.457108
0.457161
0.457215
0.457268
0.457322
0.457322
0.457375
0.457429
0.457482
0.457536
0.457536
0.45759
0.457643
0.457697
0.457751
0.457751
0.457804
0.457858
0.457912
0.457966
0.457966
0.45802
0.458074
0.458128
0.458182
0.458182
0.458236
0.45829
0.458344
0.458398
0.458398
0.458452
0.458506
0.458561
0.458615
0.458615
0.458669
0.458723
0.458778
0.458832
0.458832
0.458887
0.458941
0.458996
0.45905
0.45905
0.459105
0.459159
0.459214
0.459268
0.459268
0.459323
0.459378
0.459433
0.459487
0.459487
0.459542
0.459597
0.459652
0.459707
0.459707
0.459762
0.459817
0.459872
0.459927
0.459927
0.459982
0.460037
0.460092
0.460147
0.460147
0.460202
0.460257
0.460313
0.460368
0.460368
0.460423
0.460479
0.460534
0.460589
0.460589
0.460645
0.4607
0.460756
0.460811
0.460811
0.460867
0.460923
0.460978
0.461034
0.461034
0.46109
0.461145
0.461201
0.461257
0.461257
0.461313
0.461369
0.461425
0.461481
0.461481
0.461537
0.461593
0.461649
0.461705
0.461705
0.461761
0.461817
0.461873
0.461929
0.461929
0.461985
0.462042
0.462098
0.462154
0.462154
0.462211
0.462267
0.462324
0.46238
0.46238
0.462437
0.462493
0.46255
0.462606
0.462606
0.462663
0.462719
0.462776
0.462833
0.462833
0.46289
0.462946
0.463003
0.46306
0.46306
0.463117
0.463174
0.463231
0.463288
0.463288
0.463345
0.463402
0.463459
0.463516
0.463516
0.463573
0.46363
0.463688
0.463745
0.463745
0.463802
0.463859
0.463917
0.463974
0.463974
0.464031
0.464089
0.464146
0.464204
0.464204
0.464261
0.464319
0.464377
0.464434
0.464434
0.464492
0.46455
0.464607
0.464665
0.464665
0.464723
0.464781
0.464839
0.464896
0.464896
0.464954
0.465012
0.46507
0.465128
0.465128
0.465186
0.465244
0.465303
0.465361
0.465361
0.465419
0.465477
0.465535
0.465594
0.465594
0.465652
0.46571
0.465769
0.465827
0.465827
0.465886
0.465944
0.466003
0.466061
0.466061
0.46612
0.466178
0.466237
0.466296
0.466296
0.466354
0.466413
0.466472
0.466531
0.466531
0.46659
0.466648
0.466707
0.466766
0.466766
0.466825
0.466884
0.466943
0.467002
0.467002
0.467061
0.467121
0.46718
0.467239
0.467239
0.467298
0.467358
0.467417
0.467476
0.467476
0.467536
0.467595
0.467654
0.467714
0.467714
0.467773
0.467833
0.467892
0.467952
0.467952
0.468012
0.468071
0.468131
0.468191
0.468191
0.468251
0.46831
0.46837
0.46843
0.46843
0.46849
0.46855
0.46861
0.46867
0.46867
0.46873
0.46879
0.46885
0.46891
0.46891
0.46897
0.46903
0.469091
0.469151
0.469151
0.469211
0.469272
0.469332
0.469392
0.469392
0.469453
0.469513
0.469574
0.469634
0.469634
0.469695
0.469755
0.469816
0.469877
0.469877
0.469937
0.469998
0.470059
0.47012
0.47012
0.47018
0.470241
0.470302
0.470363
0.470363
0.470424
0.470485
0.470546
0.470607
0.470607
0.470668
0.470729
0.470791
0.470852
0.470852
0.470913
0.470974
0.471035
0.471097
0.471097
0.471158
0.47122
0.471281
0.471342
0.471342
0.471404
0.471465
0.471527
0.471589
0.471589
0.47165
0.471712
0.471773
0.471835
0.471835
0.471897
0.471959
0.472021
0.472082
0.472082
0.472144
0.472206
0.472268
0.47233
0.47233
0.472392
0.472454
0.472516
0.472578
0.472578
0.472641
0.472703
0.472765
0.472827
0.472827
0.47289
0.472952
0.473014
0.473077
0.473077
0.473139
0.473201
0.473264
0.473326
0.473326
0.473389
0.473452
0.473514
0.473577
0.473577
0.47364
0.473702
0.473765
0.473828
0.473828
0.473891
0.473953
0.474016
0.474079
0.474079
0.474142
0.474205
0.474268
0.474331
0.474331
0.474394
0.474457
0.474521
0.474584
0.474584
0.474647
0.47471
0.474774
0.474837
0.474837
0.4749
0.474964
0.475027
0.47509
0.47509
0.475154
0.475217
0.475281
0.475345
0.475345
0.475408
0.475472
0.475536
0.475599
0.475599
0.475663
0.475727
0.475791
0.475855
0.475855
0.475918
0.475982
0.476046
0.47611
0.47611
0.476174
0.476238
0.476302
0.476367
0.476367
0.476431
0.476495
0.476559
0.476623
0.476623
0.476688
0.476752
0.476816
0.476881
0.476881
0.476945
0.47701
0.477074
0.477139
0.477139
0.477203
0.477268
0.477332
0.477397
0.477397
0.477462
0.477527
0.477591
0.477656
0.477656
0.477721
0.477786
0.477851
0.477916
0.477916
0.477981
0.478046
0.478111
0.478176
0.478176
0.478241
0.478306
0.478371
0.478436
0.478436
0.478502
0.478567
0.478632
0.478697
0.478697
0.478763
0.478828
0.478894
0.478959
0.478959
0.479025
0.47909
0.479156
0.479221
0.479221
0.479287
0.479353
0.479418
0.479484
0.479484
0.47955
0.479616
0.479682
0.479747
0.479747
0.479813
0.479879
0.479945
0.480011
0.480011
0.480077
0.480143
0.48021
0.480276
0.480276
0.480342
0.480408
0.480474
0.480541
0.480541
0.480607
0.480673
0.48074
0.480806
0.480806
0.480873
0.480939
0.481006
0.481072
0.481072
0.481139
0.481205
0.481272
0.481339
0.481339
0.481405
0.481472
0.481539
0.481606
0.481606
0.481673
0.48174
0.481806
0.481873
0.481873
0.48194
0.482007
0.482075
0.482142
0.482142
0.482209
0.482276
0.482343
0.48241
0.48241
0.482478
0.482545
0.482612
0.48268
0.48268
0.482747
0.482815
0.482882
0.48295
0.48295
0.483017
0.483085
0.483152
0.48322
0.48322
0.483288
0.483355
0.483423
0.483491
0.483491
0.483559
0.483626
0.483694
0.483762
0.483762
0.48383
0.483898
0.483966
0.484034
0.484034
0.484102
0.484171
0.484239
0.484307
0.484307
0.484375
0.484443
0.484512
0.48458
0.48458
0.484648
0.484717
0.484785
0.484854
0.484854
0.484922
0.484991
0.485059
0.485128
0.485128
0.485196
0.485265
0.485334
0.485403
0.485403
0.485471
0.48554
0.485609
0.485678
0.485678
0.485747
0.485816
0.485885
0.485954
0.485954
0.486023
0.486092
0.486161
0.48623
0.48623
0.486299
0.486369
0.486438
0.486507
0.486507
0.486576
0.486646
0.486715
0.486785
0.486785
0.486854
0.486924
0.486993
0.487063
0.487063
0.487132
0.487202
0.487272
0.487341
0.487341
0.487411
0.487481
0.487551
0.487621
0.487621
0.48769
0.48776
0.48783
0.4879
0.4879
0.48797
0.48804
0.48811
0.488181
0.488181
0.488251
0.488321
0.488391
0.488461
0.488461
0.488532
0.488602
0.488672
0.488743
0.488743
0.488813
0.488884
0.488954
0.489025
0.489025
0.489095
0.489166
0.489236
0.489307
0.489307
0.489378
0.489449
0.489519
0.48959
0.48959
0.489661
0.489732
0.489803
0.489874
0.489874
0.489945
0.490016
0.490087
0.490158
0.490158
0.490229
0.4903
0.490371
0.490443
0.490443
0.490514
0.490585
0.490657
0.490728
0.490728
0.490799
0.490871
0.490942
0.491014
0.491014
0.491085
0.491157
0.491228
0.4913
0.4913
0.491372
0.491443
0.491515
0.491587
0.491587
0.491659
0.491731
0.491803
0.491875
0.491875
0.491946
0.492018
0.49209
0.492163
0.492163
0.492235
0.492307
0.492379
0.492451
0.492451
0.492523
0.492596
0.492668
0.49274
0.49274
0.492813
0.492885
0.492958
0.49303
0.49303
0.493103
0.493175
0.493248
0.49332
0.49332
0.493393
0.493466
0.493538
0.493611
0.493611
0.493684
0.493757
0.49383
0.493903
0.493903
0.493976
0.494049
0.494122
0.494195
0.494195
0.494268
0.494341
0.494414
0.494487
0.494487
0.49456
0.494634
0.494707
0.49478
0.49478
0.494854
0.494927
0.495
0.495074
0.495074
0.495147
0.495221
0.495294
0.495368
0.495368
0.495442
0.495515
0.495589
0.495663
0.495663
0.495737
0.49581
0.495884
0.495958
0.495958
0.496032
0.496106
0.49618
0.496254
0.496254
0.496328
0.496402
0.496476
0.496551
0.496551
0.496625
0.496699
0.496773
0.496848
0.496848
0.496922
0.496996
0.497071
0.497145
0.497145
0.49722
0.497294
0.497369
0.497443
0.497443
0.497518
0.497593
0.497667
0.497742
0.497742
0.497817
0.497892
0.497967
0.498041
0.498041
0.498116
0.498191
0.498266
0.498341
0.498341
0.498416
0.498491
0.498567
0.498642
0.498642
0.498717
0.498792
0.498867
0.498943
0.498943
0.499018
0.499093
0.499169
0.499244
0.499244
0.49932
0.499395
0.499471
0.499546
0.499546
0.499622
0.499698
0.499773
0.499849
0.499849
0.499925
0.500001
0.500077
0.500152
0.500152
0.500228
0.500304
0.50038
0.500456
0.500456
0.500532
0.500608
0.500685
0.500761
0.500761
0.500837
0.500913
0.500989
0.501066
0.501066
0.501142
0.501218
0.501295
0.501371
0.501371
0.501448
0.501524
0.501601
0.501677
0.501677
0.501754
0.501831
0.501907
0.501984
0.501984
0.502061
0.502138
0.502215
0.502291
0.502291
0.502368
0.502445
0.502522
0.502599
0.502599
0.502676
0.502753
0.502831
0.502908
0.502908
0.502985
0.503062
0.503139
0.503217
0.503217
0.503294
0.503371
0.503449
0.503526
0.503526
0.503604
0.503681
0.503759
0.503836
0.503836
0.503914
0.503992
0.504069
0.504147
0.504147
0.504225
0.504303
0.504381
0.504458
0.504458
0.504536
0.504614
0.504692
0.50477
0.50477
0.504848
0.504927
0.505005
0.505083
0.505083
0.505161
0.505239
0.505318
0.505396
0.505396
0.505474
0.505553
0.505631
0.505709
0.505709
0.505788
0.505866
0.505945
0.506024
0.506024
0.506102
0.506181
0.50626
0.506338
0.506338
0.506417
0.506496
0.506575
0.506654
0.506654
0.506733
0.506812
0.506891
0.50697
0.50697
0.507049
0.507128
0.507207
0.507286
0.507286
0.507365
0.507445
0.507524
0.507603
0.507603
0.507683
0.507762
0.507842
0.507921
0.507921
0.508001
0.50808
0.50816
0.508239
0.508239
0.508319
0.508399
0.508478
0.508558
0.508558
0.508638
0.508718
0.508798
0.508878
0.508878
0.508957
0.509037
0.509117
0.509198
0.509198
0.509278
0.509358
0.509438
0.509518
0.509518
0.509598
0.509679
0.509759
0.509839
0.509839
0.50992
0.51
0.510081
0.510161
0.510161
0.510242
0.510322
0.510403
0.510483
0.510483
0.510564
0.510645
0.510726
0.510806
0.510806
0.510887
0.510968
0.511049
0.51113
0.51113
0.511211
0.511292
0.511373
0.511454
0.511454
0.511535
0.511616
0.511697
0.511779
0.511779
0.51186
0.511941
0.512023
0.512104
0.512104
0.512185
0.512267
0.512348
0.51243
0.51243
0.512511
0.512593
0.512675
0.512756
0.512756
0.512838
0.51292
0.513001
0.513083
0.513083
0.513165
0.513247
0.513329
0.513411
0.513411
0.513493
0.513575
0.513657
0.513739
0.513739
0.513821
0.513903
0.513986
0.514068
0.514068
0.51415
0.514233
0.514315
0.514397
0.514397
0.51448
0.514562
0.514645
0.514727
0.514727
0.51481
0.514893
0.514975
0.515058
0.515058
0.515141
0.515223
0.515306
0.515389
0.515389
0.515472
0.515555
0.515638
0.515721
0.515721
0.515804
0.515887
0.51597
0.516053
0.516053
0.516137
0.51622
0.516303
0.516386
0.516386
0.51647
0.516553
0.516636
0.51672
0.51672
0.516803
0.516887
0.51697
0.517054
0.517054
0.517138
0.517221
0.517305
0.517389
0.517389
0.517473
0.517556
0.51764
0.517724
0.517724
0.517808
0.517892
0.517976
0.51806
0.51806
0.518144
0.518228
0.518312
0.518397
0.518397
0.518481
0.518565
0.518649
0.518734
0.518734
0.518818
0.518903
0.518987
0.519072
0.519072
0.519156
0.519241
0.519325
0.51941
0.51941
0.519495
0.519579
0.519664
0.519749
0.519749
0.519834
0.519919
0.520003
0.520088
0.520088
0.520173
0.520258
0.520343
0.520429
0.520429
0.520514
0.520599