<?xml version="1.0"?>
<VTKFile type="UnstructuredGrid" version="0.1" byte_order="LittleEndian">
<UnstructuredGrid>
<Piece NumberOfPoints="5000" NumberOfCells="4000">
<PointData Scalars="Reaction 0">
<DataArray type="Float32" Name="Reaction 0" format="ascii">
0.433125
0.433125
0.433125
0.433125
0.433125
0.433125
0.433125
0.433125
0.433125
0.433126
0.433126
0.433126
0.433126
0.433126
0.433127
0.433127
0.433127
0.433128
0.433128
0.433129
0.433129
0.433129
0.43313
0.43313
0.433131
0.433131
0.433131
0.433132
0.433133
0.433133
0.433133
0.433134
0.433135
0.433136
0.433137
0.433137
0.433138
0.433138
0.433139
0.43314
0.43314
0.433141
0.433142
0.433144
0.433145
0.433145
0.433146
0.433147
0.433148
0.433149
0.433149
0.433151
0.433152
0.433153
0.433155
0.433155
0.433156
0.433157
0.433159
0.43316
0.43316
0.433162
0.433163
0.433165
0.433166
0.433166
0.433168
0.43317
0.433171
0.433173
0.433173
0.433175
0.433177
0.433178
0.43318
0.43318
0.433182
0.433184
0.433186
0.433188
0.433188
0.43319
0.433192
0.433194
0.433196
0.433196
0.433198
0.4332
0.433203
0.433205
0.433205
0.433207
0.433209
0.433212
0.433214
0.433214
0.433216
0.433219
0.433221
0.433224
0.433224
0.433226
0.433229
0.433231
0.433234
0.433234
0.433237
0.433239
0.433242
0.433245
0.433245
0.433247
0.43325
0.433253
0.433256
0.433256
0.433259
0.433261
0.433264
0.433267
0.433267
0.43327
0.433273
0.433276
0.43328
0.43328
0.433283
0.433286
0.433289
0.433292
0.433292
0.433295
0.433299
0.433302
0.433305
0.433305
0.433309
0.433312
0.433316
0.433319
0.433319
0.433322
0.433326
0.43333
0.433333
0.433333
0.433337
0.43334
0.433344
0.433348
0.433348
0.433351
0.433355
0.433359
0.433363
0.433363
0.433367
0.433371
0.433375
0.433378
0.433378
0.433382
0.433386
0.433391
0.433395
0.433395
0.433399
0.433403
0.433407
0.433411
0.433411
0.433415
0.43342
0.433424
0.433428
0.433428
0.433433
0.433437
0.433442
0.433446
0.433446
0.43345
0.433455
0.433459
0.433464
0.433464
0.433469
0.433473
0.433478
0.433483
0.433483
0.433487
0.433492
0.433497
0.433502
0.433502
0.433507
0.433511
0.433516
0.433521
0.433521
0.433526
0.433531
0.433536
0.433541
0.433541
0.433547
0.433552
0.433557
0.433562
0.433562
0.433567
0.433573
0.433578
0.433583
0.433583
0.433588
0.433594
0.433599
0.433605
0.433605
0.43361
0.433616
0.433621
0.433627
0.433627
0.433632
0.433638
0.433644
0.433649
0.433649
0.433655
0.433661
0.433667
0.433672
0.433672
0.433678
0.433684
0.43369
0.433696
0.433696
0.433702
0.433708
0.433714
0.43372
0.43372
0.433726
0.433732
0.433738
0.433745
0.433745
0.433751
0.433757
0.433763
0.43377
0.43377
0.433776
0.433782
0.433789
0.433795
0.433795
0.433802
0.433808
0.433815
0.433821
0.433821
0.433828
0.433835
0.433841
0.433848
0.433848
0.433855
0.433861
0.433868
0.433875
0.433875
0.433882
0.433889
0.433895
0.433902
0.433902
0.433909
0.433916
0.433923
0.43393
0.43393
0.433938
0.433945
0.433952
0.433959
0.433959
0.433966
0.433973
0.433981
0.433988
0.433988
0.433995
0.434003
0.43401
0.434018
0.434018
0.434025
0.434033
0.43404
0.434048
0.434048
0.434055
0.434063
0.43407
0.434078
0.434078
0.434086
0.434094
0.434101
0.434109
0.434109
0.434117
0.434125
0.434133
0.434141
0.434141
0.434149
0.434157
0.434165
0.434173
0.434173
0.434181
0.434189
0.434197
0.434205
0.434205
0.434213
0.434222
0.43423
0.434238
0.434238
0.434247
0.434255
0.434263
0.434272
0.434272
0.43428
0.434289
0.434297
0.434306
0.434306
0.434314
0.434323
0.434332
0.43434
0.43434
0.434349
0.434358
0.434366
0.434375
0.434375
0.434384
0.434393
0.434402
0.434411
0.434411
0.43442
0.434429
0.434438
0.434447
0.434447
0.434456
0.434465
0.434474
0.434483
0.434483
0.434492
0.434502
0.434511
0.43452
0.43452
0.43453
0.434539
0.434548
0.434558
0.434558
0.434567
0.434577
0.434586
0.434596
0.434596
0.434605
0.434615
0.434624
0.434634
0.434634
0.434644
0.434654
0.434663
0.434673
0.434673
0.434683
0.434693
0.434703
0.434713
0.434713
0.434723
0.434733
0.434743
0.434753
0.434753
0.434763
0.434773
0.434783
0.434793
0.434793
0.434803
0.434814
0.434824
0.434834
0.434834
0.434844
0.434855
0.434865
0.434876
0.434876
0.434886
0.434896
0.434907
0.434918
0.434918
0.434928
0.434939
0.434949
0.43496
0.43496
0.434971
0.434981
0.434992
0.435003
0.435003
0.435014
0.435025
0.435035
0.435046
0.435046
0.435057
0.435068
0.435079
0.43509
0.43509
0.435101
0.435113
0.435124
0.435135
0.435135
0.435146
0.435157
0.435169
0.43518
0.43518
0.435191
0.435202
0.435214
0.435225
0.435225
0.435237
0.435248
0.43526
0.435271
0.435271
0.435283
0.435294
0.435306
0.435318
0.435318
0.435329
0.435341
0.435353
0.435365
0.435365
0.435376
0.435388
0.4354
0.435412
0.435412
0.435424
0.435436
0.435448
0.43546
0.43546
0.435472
0.435484
0.435496
0.435508
0.435508
0.435521
0.435533
0.435545
0.435557
0.435557
0.43557
0.435582
0.435594
0.435607
0.435607
0.435619
0.435632
0.435644
0.435657
0.435657
0.435669
0.435682
0.435695
0.435707
0.435707
0.43572
0.435733
0.435745
0.435758
0.435758
0.435771
0.435784
0.435797
0.43581
0.43581
0.435823
0.435836
0.435849
0.435862
0.435862
0.435875
0.435888
0.435901
0.435914
0.435914
0.435927
0.435941
0.435954
0.435967
0.435967
0.43598
0.435994
0.436007
0.43602
0.43602
0.436034
0.436047
0.436061
0.436074
0.436074
0.436088
0.436102
0.436115
0.436129
0.436129
0.436143
0.436156
0.43617
0.436184
0.436184
0.436198
0.436211
0.436225
0.436239
0.436239
0.436253
0.436267
0.436281
0.436295
0.436295
0.436309
0.436323
0.436338
0.436352
0.436352
0.436366
0.43638
0.436394
0.436409
0.436409
0.436423
0.436437
0.436452
0.436466
0.436466
0.436481
0.436495
0.436509
0.436524
0.436524
0.436539
0.436553
0.436568
0.436582
0.436582
0.436597
0.436612
0.436627
0.436641
0.436641
0.436656
0.436671
0.436686
0.436701
0.436701
0.436716
0.436731
0.436746
0.436761
0.436761
0.436776
0.436791
0.436806
0.436821
0.436821
0.436836
0.436852
0.436867
0.436882
0.436882
0.436898
0.436913
0.436928
0.436944
0.436944
0.436959
0.436975
0.43699
0.437006
0.437006
0.437021
0.437037
0.437052
0.437068
0.437068
0.437084
0.437099
0.437115
0.437131
0.437131
0.437147
0.437163
0.437179
0.437194
0.437194
0.43721
0.437226
0.437242
0.437258
0.437258
0.437275
0.437291
0.437307
0.437323
0.437323
0.437339
0.437355
0.437372
0.437388
0.437388
0.437404
0.437421
0.437437
0.437453
0.437453
0.43747
0.437486
0.437503
0.437519
0.437519
0.437536
0.437552
0.437569
0.437586
0.437586
0.437602
0.437619
0.437636
0.437653
0.437653
0.43767
0.437686
0.437703
0.43772
0.43772
0.437737
0.437754
0.437771
0.437788
0.437788
0.437805
0.437822
0.437839
0.437857
0.437857
0.437874
0.437891
0.437908
0.437926
0.437926
0.437943
0.43796
0.437978
0.437995
0.437995
0.438013
0.43803
0.438048
0.438065
0.438065
0.438083
0.4381
0.438118
0.438136
0.438136
0.438153
0.438171
0.438189
0.438207
0.438207
0.438224
0.438242
0.43826
0.438278
0.438278
0.438296
0.438314
0.438332
0.43835
0.43835
0.438368
0.438386
0.438404
0.438423
0.438423
0.438441
0.438459
0.438477
0.438496
0.438496
0.438514
0.438532
0.438551
0.438569
0.438569
0.438587
0.438606
0.438624
0.438643
0.438643
0.438662
0.43868
0.438699
0.438718
0.438718
0.438736
0.438755
0.438774
0.438793
0.438793
0.438811
0.43883
0.438849
0.438868
0.438868
0.438887
0.438906
0.438925
0.438944
0.438944
0.438963
0.438982
0.439001
0.439021
0.439021
0.43904
0.439059
0.439078
0.439098
0.439098
0.439117
0.439136
0.439156
0.439175
0.439175
0.439195
0.439214
0.439234
0.439253
0.439253
0.439273
0.439292
0.439312
0.439332
0.439332
0.439351
0.439371
0.439391
0.439411
0.439411
0.439431
0.43945
0.43947
0.43949
0.43949
0.43951
0.43953
0.43955
0.43957
0.43957
0.43959
0.439611
0.439631
0.439651
0.439651
0.439671
0.439691
0.439712
0.439732
0.439732
0.439752
0.439773
0.439793
0.439814
0.439814
0.439834
0.439855
0.439875
0.439896
0.439896
0.439916
0.439937
0.439957
0.439978
0.439978
0.439999
0.44002
0.44004
0.440061
0.440061
0.440082
0.440103
0.440124
0.440145
0.440145
0.440166
0.440187
0.440208
0.440229
0.440229
0.44025
0.440271
0.440292
0.440314
0.440314
0.440335
0.440356
0.440377
0.440399
0.440399
0.44042
0.440441
0.440463
0.440484
0.440484
0.440506
0.440527
0.440549
0.44057
0.44057
0.440592
0.440614
0.440635
0.440657
0.440657
0.440679
0.4407
0.440722
0.440744
0.440744
0.440766
0.440788
0.44081
0.440832
0.440832
0.440854
0.440876
0.440898
0.44092
0.44092
0.440942
0.440964
0.440986
0.441009
0.441009
0.441031
0.441053
0.441075
0.441098
0.441098
0.44112
0.441142
0.441165
0.441187
0.441187
0.44121
0.441232
0.441255
0.441277
0.441277
0.4413
0.441323
0.441345
0.441368
0.441368
0.441391
0.441414
0.441436
0.441459
0.441459
0.441482
0.441505
0.441528
0.441551
0.441551
0.441574
0.441597
0.44162
0.441643
0.441643
0.441666
0.441689
0.441713
0.441736
0.441736
0.441759
0.441782
0.441806
0.441829
0.441829
0.441852
0.441876
0.441899
0.441923
0.441923
0.441946
0.44197
0.441993
0.442017
0.442017
0.442041
0.442064
0.442088
0.442112
0.442112
0.442136
0.442159
0.442183
0.442207
0.442207
0.442231
0.442255
0.442279
0.442303
0.442303
0.442327
0.442351
0.442375
0.442399
0.442399
0.442423
0.442447
0.442472
0.442496
0.442496
0.44252
0.442544
0.442569
0.442593
0.442593
0.442617
0.442642
0.442666
0.442691
0.442691
0.442715
0.44274
0.442764
0.442789
0.442789
0.442814
0.442838
0.442863
0.442888
0.442888
0.442913
0.442938
0.442962
0.442987
0.442987
0.443012
0.443037
0.443062
0.443087
0.443087
0.443112
0.443137
0.443162
0.443187
0.443187
0.443213
0.443238
0.443263
0.443288
0.443288
0.443313
0.443339
0.443364
0.44339
0.44339
0.443415
0.44344
0.443466
0.443491
0.443491
0.443517
0.443543
0.443568
0.443594
0.443594
0.443619
0.443645
0.443671
0.443697
0.443697
0.443722
0.443748
0.443774
0.4438
0.4438
0.443826
0.443852
0.443878
0.443904
0.443904
0.44393
0.443956
0.443982
0.444008
0.444008
0.444035
0.444061
0.444087
0.444113
0.444113
0.44414
0.444166
0.444192
0.444219
0.444219
0.444245
0.444272
0.444298
0.444325
0.444325
0.444351
0.444378
0.444404
0.444431
0.444431
0.444458
0.444484
0.444511
0.444538
0.444538
0.444565
0.444592
0.444619
0.444645
0.444645
0.444672
0.444699
0.444726
0.444753
0.444753
0.444781
0.444808
0.444835
0.444862
0.444862
0.444889
0.444916
0.444944
0.444971
0.444971
0.444998
0.445026
0.445053
0.445081
0.445081
0.445108
0.445135
0.445163
0.445191
0.445191
0.445218
0.445246
0.445273
0.445301
0.445301
0.445329
0.445357
0.445384
0.445412
0.445412
0.44544
0.445468
0.445496
0.445524
0.445524
0.445552
0.44558
0.445608
0.445636
0.445636
0.445664
0.445692
0.44572
0.445748
0.445748
0.445777
0.445805
0.445833
0.445862
0.445862
0.44589
0.445918
0.445947
0.445975
0.445975
0.446004
0.446032
0.446061
0.446089
0.446089
0.446118
0.446147
0.446175
0.446204
0.446204
0.446233
0.446261
0.44629
0.446319
0.446319
0.446348
0.446377
0.446406
0.446435
0.446435
0.446464
0.446493
0.446522
0.446551
0.446551
0.44658
0.446609
0.446638
0.446668
0.446668
0.446697
0.446726
0.446756
0.446785
0.446785
0.446814
0.446844
0.446873
0.446903
0.446903
0.446932
0.446962
0.446991
0.447021
0.447021
0.447051
0.44708
0.44711
0.44714
0.44714
0.447169
0.447199
0.447229
0.447259
0.447259
0.447289
0.447319
0.447349
0.447379
0.447379
0.447409
0.447439
0.447469
0.447499
0.447499
0.447529
0.447559
0.44759
0.44762
0.44762
0.44765
0.44768
0.447711
0.447741
0.447741
0.447772
0.447802
0.447833
0.447863
0.447863
0.447894
0.447924
0.447955
0.447985
0.447985
0.448016
0.448047
0.448078
0.448108
0.448108
0.448139
0.44817
0.448201
0.448232
0.448232
0.448263
0.448294
0.448325
0.448356
0.448356
0.448387
0.448418
0.448449
0.44848
0.44848
0.448511
0.448543
0.448574
0.448605
0.448605
0.448636
0.448668
0.448699
0.448731
0.448731
0.448762
0.448793
0.448825
0.448857
0.448857
0.448888
0.44892
0.448951
0.448983
0.448983
0.449015
0.449047
0.449078
0.44911
0.44911
0.449142
0.449174
0.449206
0.449238
0.449238
0.44927
0.449302
0.449334
0.449366
0.449366
0.449398
0.44943
0.449462
0.449494
0.449494
0.449527
0.449559
0.449591
0.449623
0.449623
0.449656
0.449688
0.449721
0.449753
0.449753
0.449785
0.449818
0.449851
0.449883
0.449883
0.449916
0.449948
0.449981
0.450014
0.450014
0.450047
0.450079
0.450112
0.450145
0.450145
0.450178
0.450211
0.450244
0.450277
0.450277
0.45031
0.450343
0.450376
0.450409
0.450409
0.450442
0.450475
0.450508
0.450542
0.450542
0.450575
0.450608
0.450642
0.450675
0.450675
0.450708
0.450742
0.450775
0.450809
0.450809
0.450842
0.450876
0.450909
0.450943
0.450943
0.450977
0.45101
0.451044
0.451078
0.451078
0.451112
0.451145
0.451179
0.451213
0.451213
0.451247
0.451281
0.451315
0.451349
0.451349
0.451383
0.451417
0.451451
0.451485
0.451485
0.45152
0.451554
0.451588
0.451622
0.451622
0.451657
0.451691
0.451725
0.45176
0.45176
0.451794
0.451829
0.451863
0.451898
0.451898
0.451932
0.451967
0.452002
0.452036
0.452036
0.452071
0.452106
0.45214
0.452175
0.452175
0.45221
0.452245
0.45228
0.452315
0.452315
0.45235
0.452385
0.45242
0.452455
0.452455
0.45249
0.452525
0.45256
0.452595
0.452595
0.452631
0.452666
0.452701
0.452736
0.452736
0.452772
0.452807
0.452843
0.452878
0.452878
0.452913
0.452949
0.452985
0.45302
0.45302
0.453056
0.453091
0.453127
0.453163
0.453163
0.453199
0.453234
0.45327
0.453306
0.453306
0.453342
0.453378
0.453414
0.45345
0.45345
0.453486
0.453522
0.453558
0.453594
0.453594
0.45363
0.453666
0.453702
0.453739
0.453739
0.453775
0.453811
0.453848
0.453884
0.453884
0.45392
0.453957
0.453993
0.45403
0.45403
0.454066
0.454103
0.454139
0.454176
0.454176
0.454213
0.454249
0.454286
0.454323
0.454323
0.45436
0.454397
0.454433
0.45447
0.45447
0.454507
0.454544
0.454581
0.454618
0.454618
0.454655
0.454692
0.45473
0.454767
0.454767
0.454804
0.454841
0.454878
0.454916
0.454916
0.454953
0.45499
0.455028
0.455065
0.455065
0.455103
0.45514
0.455178
0.455215
0.455215
0.455253
0.45529
0.455328
0.455366
0.455366
0.455403
0.455441
0.455479
0.455517
0.455517
0.455555
0.455592
0.45563
0.455668
0.455668
0.455706
0.455744
0.455782
0.45582
0.45582
0.455859
0.455897
0.455935
0.455973
0.455973
0.456011
0.45605
0.456088
0.456126
0.456126
0.456165
0.456203
0.456242
0.45628
0.45628
0.456319
0.456357
0.456396
0.456434
0.456434
0.456473
0.456512
0.45655
0.456589
0.456589
0.456628
0.456667
0.456705
0.456744
0.456744
0.456783
0.456822
0.456861
0.4569
0.4569
0.456939
0.456978
0.457017
0.457057
0.457057
0.457096
0.457135
0.457174
0.457213
0.457213
0.457253
0.457292
0.457331
0.457371
0.457371
0.45741
0.45745
0.457489
0.457529
0.457529
0.457568
0.457608
0.457648
0.457687
0.457687
0.457727
0.457767
0.457806
0.457846
0.457846
0.457886
0.457926
0.457966
0.458006
0.458006
0.458046
0.458086
0.458126
0.458166
0.458166
0.458206
0.458246
0.458286
0.458326
0.458326
0.458367
0.458407
0.458447
0.458488
0.458488
0.458528
0.458568
0.458609
0.458649
0.458649
0.45869
0.45873
0.458771
0.458811
0.458811
0.458852
0.458893
0.458933
0.458974
0.458974
0.459015
0.459056
0.459097
0.459137
0.459137
0.459178
0.459219
0.45926
0.459301
0.459301
0.459342
0.459383
0.459424
0.459466
0.459466
0.459507
0.459548
0.459589
0.45963
0.45963
0.459672
0.459713
0.459754
0.459796
0.459796
0.459837
0.459879
0.45992
0.459962
0.459962
0.460003
0.460045
0.460087
0.460128
0.460128
0.46017
0.460212
0.460253
0.460295
0.460295
0.460337
0.460379
0.460421
0.460463
0.460463
0.460505
0.460547
0.460589
0.460631
0.460631
0.460673
0.460715
0.460757
0.4608
0.4608
0.460842
0.460884
0.460926
0.460969
0.460969
0.461011
0.461053
0.461096
0.461138
0.461138
0.461181
0.461223
0.461266
0.461309
0.461309
0.461351
0.461394
0.461437
0.461479
0.461479
0.461522
0.461565
0.461608
0.461651
0.461651
0.461694
0.461736
0.461779
0.461822
0.461822
0.461866
0.461909
0.461952
0.461995
0.461995
0.462038
0.462081
0.462124
0.462168
0.462168
0.462211
0.462254
0.462298
0.462341
0.462341
0.462385
0.462428
0.462472
0.462515
0.462515
0.462559
0.462602
0.462646
0.46269
0.46269
0.462733
0.462777
0.462821
0.462865
0.462865
0.462909
0.462952
0.462996
0.46304
0.46304
0.463084
0.463128
0.463172
0.463216
0.463216
0.463261
0.463305
0.463349
0.463393
0.463393
0.463437
0.463482
0.463526
0.46357
0.46357
0.463615
0.463659
0.463704
0.463748
0.463748
0.463793
0.463837
0.463882
0.463926
0.463926
0.463971
0.464016
0.464061
0.464105
0.464105
0.46415
0.464195
0.46424
0.464285
0.464285
0.46433
0.464375
0.46442
0.464465
0.464465
0.46451
0.464555
0.4646
0.464645
0.464645
0.46469
0.464735
0.464781
0.464826
0.464826
0.464871
0.464917
0.464962
0.465008
0.465008
0.465053
0.465099
0.465144
0.46519
0.46519
0.465235
0.465281
0.465327
0.465372
0.465372
0.465418
0.465464
0.46551
0.465556
0.465556
0.465601
0.465647
0.465693
0.465739
0.465739
0.465785
0.465831
0.465877
0.465924
0.465924
0.46597
0.466016
0.466062
0.466108
0.466108
0.466155
0.466201
0.466247
0.466294
0.466294
0.46634
0.466387
0.466433
0.46648
0.46648
0.466526
0.466573
0.466619
0.466666
0.466666
0.466713
0.466759
0.466806
0.466853
0.466853
0.4669
0.466947
0.466994
0.467041
0.467041
0.467088
0.467135
0.467182
0.467229
0.467229
0.467276
0.467323
0.46737
0.467417
0.467417
0.467464
0.467512
0.467559
0.467606
0.467606
0.467654
0.467701
0.467749
0.467796
0.467796
0.467844
0.467891
0.467939
0.467986
0.467986
0.468034
0.468082
0.468129
0.468177
0.468177
0.468225
0.468273
0.468321
0.468369
0.468369
0.468417
0.468464
0.468512
0.468561
0.468561
0.468609
0.468657
0.468705
0.468753
0.468753
0.468801
0.468849
0.468898
0.468946
0.468946
0.468994
0.469043
0.469091
0.46914
0.46914
0.469188
0.469237
0.469285
0.469334
0.469334
0.469382
0.469431
0.46948
0.469528
0.469528
0.469577
0.469626
0.469675
0.469724
0.469724
0.469772
0.469821
0.46987
0.469919
0.469919
0.469968
0.470017
0.470066
0.470116
0.470116
0.470165
0.470214
0.470263
0.470312
0.470312
0.470362
0.470411
0.47046
0.47051
0.47051
0.470559
0.470609
0.470658
0.470708
0.470708
0.470757
0.470807
0.470857
0.470906
0.470906
0.470956
0.471006
0.471056
0.471105
0.471105
0.471155
0.471205
0.471255
0.471305
0.471305
0.471355
0.471405
0.471455
0.471505
0.471505
0.471555
0.471605
0.471656
0.471706
0.471706
0.471756
0.471806
0.471857
0.471907
0.471907
0.471958
0.472008
0.472059
0.472109
0.472109
0.47216
0.47221
0.472261
0.472311
0.472311
0.472362
0.472413
0.472464
0.472514
0.472514
0.472565
0.472616
0.472667
0.472718
0.472718
0.472769
0.47282
0.472871
0.472922
0.472922
0.472973
0.473024
0.473075
0.473127
0.473127
0.473178
0.473229
0.47328
0.473332
0.473332
0.473383
0.473434
0.473486
0.473537
0.473537
0.473589
0.47364
0.473692
0.473744
0.473744
0.473795
0.473847
0.473899
0.473951
0.473951
0.474002
0.474054
0.474106
0.474158
0.474158
0.47421
0.474262
0.474314
0.474366
0.474366
0.474418
0.47447
0.474522
0.474574
0.474574
0.474627
0.474679
0.474731
0.474783
0.474783
0.474836
0.474888
0.474941
0.474993
0.474993
0.475046
0.475098
0.475151
0.475203
0.475203
0.475256
0.475309
0.475361
0.475414
0.475414
0.475467
0.47552
0.475572
0.475625
0.475625
0.475678
0.475731
0.475784
0.475837
0.475837
0.47589
0.475943
0.475996
0.47605
0.47605
0.476103
0.476156
0.476209
0.476263
0.476263
0.476316
0.476369
0.476423
0.476476
0.476476
0.47653
0.476583
0.476637
0.47669
0.47669
0.476744
0.476798
0.476851
0.476905
0.476905
0.476959
0.477013
0.477066
0.47712
0.47712
0.477174
0.477228
0.477282
0.477336
0.477336
0.47739
0.477444
0.477498
0.477552
0.477552
0.477607
0.477661
0.477715
0.477769
0.477769
0.477824
0.477878
0.477932
0.477987
0.477987
0.478041
0.478096
0.47815
0.478205
0.478205
0.478259
0.478314
0.478369
0.478423
0.478423
0.478478
0.478533
0.478588
0.478643
0.478643
0.478698
0.478752
0.478807
0.478862
0.478862
0.478917
0.478972
0.479028
0.479083
0.479083
0.479138
0.479193
0.479248
0.479304
0.479304
0.479359
0.479414
0.47947
0.479525
0.479525
0.479581
0.479636
0.479692
0.479747
0.479747
0.479803
0.479858
0.479914
0.47997
0.47997
0.480025
0.480081
0.480137
0.480193
0.480193
0.480249
0.480305
0.480361
0.480417
0.480417
0.480473
0.480529
0.480585
0.480641
0.480641
0.480697
0.480753
0.480809
0.480866
0.480866
0.480922
0.480978
0.481035
0.481091
0.481091
0.481148
0.481204
0.481261
0.481317
0.481317
0.481374
0.48143
0.481487
0.481544
0.481544
0.4816
0.481657
0.481714
0.481771
0.481771
0.481828
0.481885
0.481942
0.481999
0.481999
0.482056
0.482113
0.48217
0.482227
0.482227
0.482284
0.482341
0.482398
0.482456
0.482456
0.482513
0.48257
0.482628
0.482685
0.482685
0.482743
0.4828
0.482858
0.482915
0.482915
0.482973
0.48303
0.483088
0.483146
0.483146
0.483203
0.483261
0.483319
0.483377
0.483377
0.483435
0.483493
0.483551
0.483609
0.483609
0.483667
0.483725
0.483783
0.483841
0.483841
0.483899
0.483957
0.484016
0.484074
0.484074
0.484132
0.48419
0.484249
0.484307
0.484307
0.484366
0.484424
0.484483
0.484541
0.484541
0.4846
0.484659
0.484717
0.484776
0.484776
0.484835
0.484893
0.484952
0.485011
0.485011
0.48507
0.485129
0.485188
0.485247
0.485247
0.485306
0.485365
0.485424
0.485483
0.485483
0.485542
0.485602
0.485661
0.48572
0.48572
0.485779
0.485839
0.485898
0.485958
0.485958
0.486017
0.486077
0.486136
0.486196
0.486196
0.486255
0.486315
0.486375
0.486434
0.486434
0.486494
0.486554
0.486614
0.486674
0.486674
0.486733
0.486793
0.486853
0.486913
0.486913
0.486973
0.487033
0.487094
0.487154
0.487154
0.487214
0.487274
0.487334
0.487395
0.487395
0.487455
0.487515
0.487576
0.487636
0.487636
0.487697
0.487757
0.487818
0.487878
0.487878
0.487939
0.488
0.48806
0.488121
0.488121
0.488182
0.488243
0.488304
0.488364
0.488364
0.488425
0.488486
0.488547
0.488608
0.488608
0.488669
0.48873
0.488792
0.488853
0.488853
0.488914
0.488975
0.489036
0.489098
0.489098
0.489159
0.489221
0.489282
0.489343
0.489343
0.489405
0.489466
0.489528
0.48959
0.48959
0.489651
0.489713
0.489775
0.489836
0.489836
0.489898
0.48996
0.490022
0.490084
0.490084
0.490146
0.490208
0.49027
0.490332
0.490332
0.490394
0.490456
0.490518
0.49058
0.49058
0.490643
0.490705
0.490767
0.49083
0.49083
0.490892
0.490954
0.491017
0.491079
0.491079
0.491142
0.491204
0.491267
0.49133
0.49133
0.491392
0.491455
0.491518
0.491581
0.491581
0.491643
0.491706
0.491769
0.491832
0.491832
0.491895
0.491958
0.492021
0.492084
0.492084
0.492147
0.49221
0.492274
0.492337
0.492337
0.4924
0.492463
0.492527
0.49259
0.49259
0.492654
0.492717
0.49278
0.492844
0.492844
0.492908
0.492971
0.493035
0.493098
0.493098
0.493162
0.493226
0.49329
0.493353
0.493353
0.493417
0.493481
0.493545
0.493609
0.493609
0.493673
0.493737
0.493801
0.493865
0.493865
0.49393
0.493994
0.494058
0.494122
0.494122
0.494187
0.494251
0.494315
0.49438
0.49438
0.494444
0.494509
0.494573
0.494638
0.494638
0.494702
0.494767
0.494832
0.494896
0.494896
0.494961
0.495026
0.495091
0.495156
0.495156
0.49522
0.495285
0.49535
0.495415
0.495415
0.49548
0.495545
0.495611
0.495676
0.495676
0.495741
0.495806
0.495871
0.495937
0.495937
0.496002
0.496067
0.496133
0.496198
0.496198
0.496264
0.496329
0.496395
0.496461
0.496461
0.496526
0.496592
0.496658
0.496723
0.496723
0.496789
0.496855
0.496921
0.496987
0.496987
0.497053
0.497119
0.497185
0.497251
0.497251
0.497317
0.497383
0.497449
0.497515
0.497515
0.497582
0.497648
0.497714
0.497781
0.497781
0.497847
0.497913
0.49798
0.498046
0.498046
0.498113
0.498179
0.498246
0.498313
0.498313
0.498379
0.498446
0.498513
0.49858
0.49858
0.498647
0.498713
0.49878
0.498847
0.498847
0.498914
0.498981
0.499048
0.499116
0.499116
0.499183
0.49925
0.499317
0.499384
0.499384
0.499452
0.499519
0.499586
0.499654
0.499654
0.499721
0.499789
0.499856
0.499924
0.499924
0.499991
0.500059
0.500127
0.500194
0.500194
0.500262
0.50033
0.500398
0.500466
0.500466
0.500534
0.500602
0.500669
0.500738
0.500738
0.500806
0.500874
0.500942
0.50101
0.50101
0.501078
0.501146
0.501215
0.501283
0.501283
0.501351
0.50142
0.501488
0.501557
0.501557
0.501625
0.501694
0.501762
0.501831
0.501831
0.5019
0.501968
0.502037
0.502106
0.502106
0.502175
0.502244
0.502312
0.502381
0.502381
0.50245
0.502519
0.502588
0.502657
0.502657
0.502727
0.502796
0.502865
0.502934
0.502934
0.503003
0.503073
0.503142
0.503211
0.503211
0.503281
0.50335
0.50342
0.503489
0.503489
0.503559
0.503629
0.503698
0.503768
0.503768
0.503838
0.503907
0.503977
0.504047
0.504047
0.504117
0.504187
0.504257
0.504327
0.504327
0.504397
0.504467
0.504537
0.504607
0.504607
0.504677
0.504748
0.504818
0.504888
0.504888
0.504959
0.505029
0.505099
0.50517
0.50517
0.50524
0.505311
0.505382
0.505452
0.505452
0.505523
0.505594
0.505664
0.505735
0.505735
0.505806
0.505877
0.505948
0.506018
0.506018
0.506089
0.50616
0.506231
0.506303
0.506303
0.506374
0.506445
0.506516
0.506587
0.506587
0.506659
0.50673
0.506801
0.506873
0.506873
0.506944
0.507015
0.507087
0.507159
0.507159
0.50723
0.507302
0.507373
0.507445
0.507445
0.507517
0.507589
0.50766
0.507732
0.507732
0.507804
0.507876
0.507948
0.50802
0.50802
0.508092
0.508164
0.508236
0.508309
0.508309
0.508381
0.508453
0.508525
0.508598
0.508598
0.50867
0.508742
0.508815
0.508887
0.508887
0.50896
0.509032
0.509105
0.509178
0.509178
0.50925
0.509323
0.509396
0.509468
0.509468
0.509541
0.509614
0.509687
0.50976
0.50976
0.509833
0.509906
0.509979
0.510052
0.510052
0.510125
0.510199
0.510272
0.510345
0.510345
0.510418
0.510492
0.510565
0.510638
0.510638
0.510712
0.510785
0.510859
0.510932
0.510932
0.511006
0.51108
0.511153
0.511227
0.511227
0.511301
0.511375
0.511449
0.511522
0.511522
0.511596
0.51167
0.511744
0.511818
0.511818
0.511892
0.511967
0.512041
0.512115
0.512115
0.512189
0.512263
0.512338
0.512412
0.512412
0.512487
0.512561
0.512635
0.51271
0.51271
0.512785
0.512859
0.512934
0.513008
0.513008
0.513083
0.513158
0.513233
0.513308
0.513308
0.513382
0.513457
0.513532
0.513607
0.513607
0.513682
0.513757
0.513832
0.513908
0.513908
0.513983
0.514058
0.514133
0.514209
0.514209
0.514284
0.514359
0.514435
0.51451
0.51451
0.514586
0.514661
0.514737
0.514813
0.514813
0.514888
0.514964
0.51504
0.515115
0.515115
0.515191
0.515267
0.515343
0.515419
0.515419
0.515495
0.515571
0.515647
0.515723
0.515723
0.515799
0.515875
0.515952
0.516028
0.516028
0.516104
0.516181
0.516257
0.516333
0.516333
0.51641
0.516486
0.516563
0.516639
0.516639
0.516716
0.516793
0.516869
0.516946
0.516946
0.517023
0.5171
0.517177
0.517254
0.517254
0.517331
0.517407
0.517485
0.517562
0.517562
0.517639
0.517716
0.517793
0.51787
0.51787
0.517947
0.518025
0.518102
0.51818
0.51818
0.518257
0.518334
0.518412
0.518489
0.518489
0.518567
0.518645
0.518722
0.5188
0.5188
0.518878
0.518956
0.519033
0.519111
0.519111
0.519189
0.519267
0.519345
0.519423
0.519423
0.519501
0.519579
0.519657
0.519736
0.519736
0.519814
0.519892
0.51997
0.520049
0.520049
0.520127
0.520206
0.520284
0.520363
0.520363
0.520441
0.52052
0.520598
0.520677
0.520677
0.520756
0.520835
0.520913
0.520992
0.520992
0.521071
0.52115
0.521229
0.521308
0.521308
0.521387
0.521466
0.521545
0.521624
0.521624
0.521704
0.521783
0.521862
0.521941
0.521941
0.522021
0.5221
0.52218
0.522259
0.522259
0.522339
0.522418
0.522498
0.522577
0.522577
0.522657
0.522737
0.522817
0.522897
0.522897
0.522976
0.523056
0.523136
0.523216
0.523216
0.523296
0.523376
0.523456
0.523536
0.523536
0.523617
0.523697
0.523777
0.523857
0.523857
0.523938
0.524018
0.524099
0.524179
0.524179
0.52426
0.52434
0.524421
0.524501
0.524501
0.524582
0.524663
0.524744
0.524824
0.524824
0.524905
0.524986
0.525067
0.525148
0.525148
0.525229
0.52531
0.525391
0.525472
0.525472
0.525553
0.525635
0.525716
0.525797
0.525797
0.525878
0.52596
0.526041
0.526123
0.526123
0.526204
0.526286
0.526367
0.526449
0.526449
0.526531
0.526612
0.526694
0.526776
0.526776
0.526858
0.52694
0.527021
0.527103
0.527103
0.527185
0.527267
0.52735
0.527432
0.527432
0.527514
0.527596
0.527678
0.527761
0.527761
0.527843
0.527925
0.528008
0.52809
0.52809
0.528173
0.528255
0.528338
0.52842
0.52842
0.528503
0.528586
0.528668
0.528751
0.528751
0.528834
0.528917
0.529
0.529083
0.529083
0.529166
0.529249
0.529332
0.529415
0.529415
0.529498
0.529581
0.529665
0.529748
0.529748
0.529831
0.529915
0.529998
0.530081
0.530081
0.530165
0.530248
0.530332
0.530416
0.530416
0.530499
0.530583
0.530667
0.530751
0.530751
0.530834
0.530918
0.531002
0.531086
0.531086
0.53117
0.531254
0.531338
0.531422
0.531422
0.531507
0.531591
0.531675
0.531759
0.531759
0.531844
0.531928
0.532012
0.532097
0.532097
0.532181
0.532266
0.53235
0.532435
0.532435
0.53252
0.532605
0.532689
0.532774
0.532774
0.532859
0.532944
0.533029
0.533114
0.533114
0.533199
0.533284
0.533369
0.533454
0.533454
0.533539
0.533624
0.53371
0.533795
0.533795
0.53388
0.533966
0.534051
0.534137
0.534137
0.534222
0.534308
0.534393
0.534479
0.534479
0.534565
0.53465
0.534736
0.534822
0.534822
0.534908
0.534994
0.53508
0.535166
0.535166
0.535252
0.535338
0.535424
0.53551
0.53551
0.535596
0.535682
0.535769
0.535855
0.535855
0.535941
0.536028
0.536114
0.536201
0.536201
0.536287
0.536374
0.53646
0.536547
0.536547
0.536634
0.536721
0.536807
0.536894
0.536894
0.536981
0.537068
0.537155
0.537242
0.537242
0.537329
0.537416
0.537503
0.53759
0.53759
0.537678
0.537765
0.537852
0.53794
0.53794
0.538027
0.538114
0.538202
0.538289
0.538289
0.538377
0.538465
0.538552
0.53864
0.53864
0.538728
0.538816
0.538903
0.538991
0.538991
0.539079
0.539167
0.539255
0.539343
0.539343
0.539431
0.539519
0.539608
0.539696
0.539696
0.539784
0.539872
0.539961
0.540049
0.540049
0.540137
0.540226
0.540314
0.540403
0.540403
0.540492
0.54058
0.540669
0.540758
0.540758
0.540846
0.540935
0.541024
0.541113
0.541113
0.541202
0.541291
0.54138
0.541469
0.541469
0.541558
0.541647
0.541737
0.541826
0.541826
0.541915
0.542005
0.542094
0.542183
0.542183
0.542273
0.542362
0.542452
0.542542
0.542542
0.542631
0.542721
0.542811
0.5429
0.5429
0.54299
0.54308
0.54317
0.54326
0.54326
0.54335
0.54344
0.54353
0.54362
0.54362
0.54371
0.543801
0.543891
0.543981
0.543981
0.544072
0.544162
0.544252
0.544343
0.544343
0.544433
0.544524
0.544615
0.544705
0.544705
0.544796
0.544887
0.544977
0.545068
0.545068
0.545159
0.54525
0.545341
0.545432
0.545432
0.545523
0.545614
0.545705
0.545797
0.545797
0.545888
0.545979
0.54607
0.546162
0.546162
0.546253
0.546345
0.546436
0.546528
0.546528
0.546619
0.546711
0.546803
0.546894
0.546894
0.546986
0.547078
0.54717
0.547262
0.547262
0.547353
0.547445
0.547538
0.54763
0.54763
0.547722
0.547814
0.547906
0.547998
0.547998
0.548091
0.548183
0.548275
0.548368
0.548368
0.54846
0.548553
0.548645
0.548738
0.548738
0.548831
0.548923
0.549016
0.549109
0.549109
0.549202
0.549295
0.549387
0.54948
0.54948
0.549573
0.549666
0.54976
0.549853
0.549853
0.549946
0.550039
0.550132
0.550226
0.550226
0.550319
0.550412
0.550506
0.550599
0.550599
0.550693