<?xml version="1.0"?>
<VTKFile type="UnstructuredGrid" version="0.1" byte_order="LittleEndian">
<UnstructuredGrid>
<Piece NumberOfPoints="5000" NumberOfCells="4000">
<PointData Scalars="Reaction 0">
<DataArray type="Float32" Name="Reaction 0" format="ascii">
0.56937
0.56937
0.56937
0.56937
0.56937
0.56937
0.56937
0.56937
0.56937
0.56937
0.56937
0.56937
0.56937
0.56937
0.56937
0.56937
0.56937
0.56937
0.56937
0.56937
0.56937
0.56937
0.56937
0.56937
0.56937
0.56937
0.56937
0.56937
0.56937
0.56937
0.56937
0.56937
0.56937
0.56937
0.56937
0.56937
0.56937
0.56937
0.56937
0.569371
0.569371
0.569371
0.569371
0.569371
0.569371
0.569371
0.569371
0.569371
0.569371
0.569371
0.569371
0.569371
0.569371
0.569371
0.569371
0.569371
0.569371
0.569371
0.569372
0.569372
0.569372
0.569372
0.569372
0.569372
0.569372
0.569372
0.569372
0.569372
0.569372
0.569372
0.569372
0.569372
0.569373
0.569373
0.569373
0.569373
0.569373
0.569373
0.569373
0.569373
0.569373
0.569373
0.569373
0.569373
0.569374
0.569374
0.569374
0.569374
0.569374
0.569374
0.569374
0.569374
0.569374
0.569374
0.569375
0.569375
0.569375
0.569375
0.569375
0.569375
0.569375
0.569375
0.569375
0.569376
0.569376
0.569376
0.569376
0.569376
0.569376
0.569376
0.569376
0.569376
0.569377
0.569377
0.569377
0.569377
0.569377
0.569377
0.569377
0.569378
0.569378
0.569378
0.569378
0.569378
0.569378
0.569378
0.569378
0.569379
0.569379
0.569379
0.569379
0.569379
0.569379
0.569379
0.56938
0.56938
0.56938
0.56938
0.56938
0.56938
0.56938
0.569381
0.569381
0.569381
0.569381
0.569381
0.569381
0.569382
0.569382
0.569382
0.569382
0.569382
0.569382
0.569383
0.569383
0.569383
0.569383
0.569383
0.569383
0.569384
0.569384
0.569384
0.569384
0.569384
0.569385
0.569385
0.569385
0.569385
0.569385
0.569385
0.569385
0.569386
0.569386
0.569386
0.569386
0.569386
0.569387
0.569387
0.569387
0.569387
0.569387
0.569388
0.569388
0.569388
0.569388
0.569388
0.569389
0.569389
0.569389
0.569389
0.569389
0.56939
0.56939
0.56939
0.56939
0.56939
0.569391
0.569391
0.569391
0.569391
0.569391
0.569392
0.569392
0.569392
0.569393
0.569393
0.569393
0.569393
0.569393
0.569394
0.569394
0.569394
0.569394
0.569395
0.569395
0.569395
0.569395
0.569395
0.569396
0.569396
0.569396
0.569396
0.569397
0.569397
0.569397
0.569397
0.569398
0.569398
0.569398
0.569398
0.569398
0.569399
0.569399
0.569399
0.5694
0.5694
0.5694
0.5694
0.569401
0.569401
0.569401
0.569401
0.569402
0.569402
0.569402
0.569402
0.569403
0.569403
0.569403
0.569404
0.569404
0.569404
0.569404
0.569405
0.569405
0.569405
0.569405
0.569406
0.569406
0.569407
0.569407
0.569407
0.569407
0.569408
0.569408
0.569408
0.569408
0.569409
0.569409
0.569409
0.569409
0.56941
0.56941
0.569411
0.569411
0.569411
0.569411
0.569412
0.569412
0.569412
0.569412
0.569413
0.569413
0.569414
0.569414
0.569414
0.569414
0.569415
0.569415
0.569416
0.569416
0.569416
0.569416
0.569417
0.569417
0.569417
0.569418
0.569418
0.569418
0.569419
0.569419
0.569419
0.56942
0.56942
0.56942
0.56942
0.569421
0.569421
0.569422
0.569422
0.569422
0.569423
0.569423
0.569423
0.569424
0.569424
0.569424
0.569425
0.569425
0.569426
0.569426
0.569426
0.569426
0.569427
0.569427
0.569427
0.569428
0.569428
0.569429
0.569429
0.569429
0.56943
0.56943
0.569431
0.569431
0.569431
0.569431
0.569432
0.569432
0.569433
0.569433
0.569433
0.569434
0.569434
0.569435
0.569435
0.569435
0.569436
0.569436
0.569437
0.569437
0.569437
0.569438
0.569438
0.569439
0.569439
0.569439
0.56944
0.56944
0.569441
0.569441
0.569441
0.569442
0.569442
0.569443
0.569443
0.569443
0.569444
0.569444
0.569445
0.569445
0.569445
0.569446
0.569446
0.569447
0.569447
0.569447
0.569448
0.569448
0.569449
0.569449
0.569449
0.56945
0.56945
0.569451
0.569451
0.569451
0.569452
0.569452
0.569453
0.569453
0.569453
0.569454
0.569455
0.569455
0.569455
0.569456
0.569456
0.569457
0.569457
0.569457
0.569458
0.569458
0.569459
0.569459
0.569459
0.56946
0.569461
0.569461
0.569462
0.569462
0.569462
0.569463
0.569463
0.569464
0.569464
0.569465
0.569465
0.569466
0.569466
0.569466
0.569467
0.569467
0.569468
0.569469
0.569469
0.569469
0.56947
0.56947
0.569471
0.569471
0.569472
0.569472
0.569473
0.569473
0.569473
0.569474
0.569475
0.569475
0.569476
0.569476
0.569476
0.569477
0.569478
0.569478
0.569478
0.569479
0.56948
0.56948
0.569481
0.569481
0.569481
0.569482
0.569483
0.569483
0.569483
0.569484
0.569485
0.569485
0.569486
0.569486
0.569486
0.569487
0.569488
0.569488
0.569488
0.569489
0.56949
0.56949
0.569491
0.569491
0.569492
0.569492
0.569493
0.569494
0.569494
0.569494
0.569495
0.569496
0.569496
0.569496
0.569497
0.569498
0.569498
0.569499
0.569499
0.5695
0.5695
0.569501
0.569502
0.569502
0.569502
0.569503
0.569504
0.569504
0.569504
0.569505
0.569506
0.569506
0.569507
0.569507
0.569508
0.569509
0.569509
0.56951
0.56951
0.569511
0.569511
0.569512
0.569513
0.569513
0.569513
0.569514
0.569515
0.569516
0.569516
0.569516
0.569517
0.569518
0.569518
0.569518
0.569519
0.56952
0.569521
0.569521
0.569521
0.569522
0.569523
0.569524
0.569524
0.569524
0.569525
0.569526
0.569526
0.569527
0.569527
0.569528
0.569529
0.56953
0.56953
0.56953
0.569531
0.569532
0.569533
0.569533
0.569533
0.569534
0.569535
0.569536
0.569536
0.569536
0.569537
0.569538
0.569539
0.569539
0.569539
0.56954
0.569541
0.569542
0.569543
0.569543
0.569543
0.569544
0.569545
0.569546
0.569546
0.569547
0.569547
0.569548
0.569549
0.569549
0.56955
0.569551
0.569551
0.569552
0.569552
0.569553
0.569554
0.569555
0.569555
0.569555
0.569556
0.569557
0.569558
0.569559
0.569559
0.569559
0.56956
0.569561
0.569562
0.569562
0.569563
0.569564
0.569564
0.569565
0.569565
0.569566
0.569567
0.569568
0.569569
0.569569
0.569569
0.56957
0.569571
0.569572
0.569572
0.569573
0.569574
0.569575
0.569575
0.569575
0.569576
0.569577
0.569578
0.569579
0.569579
0.56958
0.569581
0.569581
0.569582
0.569582
0.569583
0.569584
0.569585
0.569586
0.569586
0.569587
0.569587
0.569588
0.569589
0.569589
0.56959
0.569591
0.569592
0.569593
0.569593
0.569594
0.569595
0.569596
0.569596
0.569596
0.569597
0.569598
0.569599
0.5696
0.5696
0.569601
0.569602
0.569603
0.569604
0.569604
0.569605
0.569606
0.569607
0.569607
0.569607
0.569608
0.569609
0.56961
0.569611
0.569611
0.569612
0.569613
0.569614
0.569615
0.569615
0.569616
0.569617
0.569618
0.569619
0.569619
0.56962
0.569621
0.569622
0.569623
0.569623
0.569623
0.569624
0.569625
0.569626
0.569626
0.569627
0.569628
0.569629
0.56963
0.56963
0.569631
0.569632
0.569633
0.569634
0.569634
0.569635
0.569636
0.569637
0.569638
0.569638
0.569639
0.56964
0.569641
0.569642
0.569642
0.569643
0.569644
0.569645
0.569646
0.569646
0.569647
0.569648
0.569649
0.56965
0.56965
0.569651
0.569652
0.569653
0.569654
0.569654
0.569655
0.569656
0.569657
0.569658
0.569658
0.569659
0.56966
0.569661
0.569662
0.569662
0.569663
0.569664
0.569665
0.569666
0.569666
0.569667
0.569668
0.569669
0.569671
0.569671
0.569672
0.569673
0.569674
0.569675
0.569675
0.569676
0.569677
0.569678
0.569679
0.569679
0.56968
0.569681
0.569682
0.569683
0.569683
0.569684
0.569685
0.569687
0.569688
0.569688
0.569689
0.56969
0.569691
0.569692
0.569692
0.569693
0.569694
0.569695
0.569696
0.569696
0.569697
0.569698
0.5697
0.569701
0.569701
0.569702
0.569703
0.569704
0.569705
0.569705
0.569706
0.569707
0.569708
0.56971
0.56971
0.569711
0.569712
0.569713
0.569714
0.569714
0.569715
0.569716
0.569717
0.569719
0.569719
0.56972
0.569721
0.569722
0.569723
0.569723
0.569724
0.569725
0.569727
0.569728
0.569728
0.569729
0.56973
0.569731
0.569732
0.569732
0.569733
0.569735
0.569736
0.569737
0.569737
0.569738
0.569739
0.56974
0.569742
0.569742
0.569743
0.569744
0.569745
0.569746
0.569746
0.569748
0.569749
0.56975
0.569751
0.569751
0.569752
0.569754
0.569755
0.569756
0.569756
0.569757
0.569758
0.56976
0.569761
0.569761
0.569762
0.569763
0.569764
0.569766
0.569766
0.569767
0.569768
0.569769
0.569771
0.569771
0.569772
0.569773
0.569774
0.569775
0.569775
0.569777
0.569778
0.569779
0.56978
0.56978
0.569782
0.569783
0.569784
0.569785
0.569785
0.569787
0.569788
0.569789
0.56979
0.56979
0.569792
0.569793
0.569794
0.569795
0.569795
0.569797
0.569798
0.569799
0.5698
0.5698
0.569802
0.569803
0.569804
0.569805
0.569805
0.569807
0.569808
0.569809
0.569811
0.569811
0.569812
0.569813
0.569815
0.569816
0.569816
0.569817
0.569818
0.56982
0.569821
0.569821
0.569822
0.569824
0.569825
0.569826
0.569826
0.569828
0.569829
0.56983
0.569832
0.569832
0.569833
0.569834
0.569836
0.569837
0.569837
0.569838
0.56984
0.569841
0.569842
0.569842
0.569844
0.569845
0.569846
0.569848
0.569848
0.569849
0.56985
0.569852
0.569853
0.569853
0.569854
0.569856
0.569857
0.569858
0.569858
0.56986
0.569861
0.569863
0.569864
0.569864
0.569865
0.569867
0.569868
0.569869
0.569869
0.569871
0.569872
0.569874
0.569875
0.569875
0.569876
0.569878
0.569879
0.569881
0.569881
0.569882
0.569883
0.569885
0.569886
0.569886
0.569888
0.569889
0.56989
0.569892
0.569892
0.569893
0.569895
0.569896
0.569898
0.569898
0.569899
0.5699
0.569902
0.569903
0.569903
0.569905
0.569906
0.569908
0.569909
0.569909
0.56991
0.569912
0.569913
0.569915
0.569915
0.569916
0.569918
0.569919
0.569921
0.569921
0.569922
0.569924
0.569925
0.569926
0.569926
0.569928
0.569929
0.569931
0.569932
0.569932
0.569934
0.569935
0.569937
0.569938
0.569938
0.56994
0.569941
0.569943
0.569944
0.569944
0.569946
0.569947
0.569949
0.56995
0.56995
0.569952
0.569953
0.569955
0.569956
0.569956
0.569958
0.569959
0.569961
0.569962
0.569962
0.569964
0.569965
0.569967
0.569968
0.569968
0.56997
0.569972
0.569973
0.569975
0.569975
0.569976
0.569978
0.569979
0.569981
0.569981
0.569982
0.569984
0.569985
0.569987
0.569987
0.569989
0.56999
0.569992
0.569993
0.569993
0.569995
0.569996
0.569998
0.57
0.57
0.570001
0.570003
0.570004
0.570006
0.570006
0.570007
0.570009
0.570011
0.570012
0.570012
0.570014
0.570015
0.570017
0.570019
0.570019
0.57002
0.570022
0.570023
0.570025
0.570025
0.570027
0.570028
0.57003
0.570031
0.570031
0.570033
0.570035
0.570036
0.570038
0.570038
0.57004
0.570041
0.570043
0.570044
0.570044
0.570046
0.570048
0.570049
0.570051
0.570051
0.570053
0.570054
0.570056
0.570058
0.570058
0.570059
0.570061
0.570063
0.570064
0.570064
0.570066
0.570068
0.570069
0.570071
0.570071
0.570073
0.570074
0.570076
0.570078
0.570078
0.570079
0.570081
0.570083
0.570084
0.570084
0.570086
0.570088
0.57009
0.570091
0.570091
0.570093
0.570095
0.570096
0.570098
0.570098
0.5701
0.570101
0.570103
0.570105
0.570105
0.570107
0.570108
0.57011
0.570112
0.570112
0.570114
0.570115
0.570117
0.570119
0.570119
0.570121
0.570122
0.570124
0.570126
0.570126
0.570128
0.570129
0.570131
0.570133
0.570133
0.570135
0.570136
0.570138
0.57014
0.57014
0.570142
0.570143
0.570145
0.570147
0.570147
0.570149
0.570151
0.570152
0.570154
0.570154
0.570156
0.570158
0.570159
0.570161
0.570161
0.570163
0.570165
0.570167
0.570168
0.570168
0.57017
0.570172
0.570174
0.570176
0.570176
0.570177
0.570179
0.570181
0.570183
0.570183
0.570185
0.570187
0.570188
0.57019
0.57019
0.570192
0.570194
0.570196
0.570198
0.570198
0.5702
0.570201
0.570203
0.570205
0.570205
0.570207
0.570209
0.570211
0.570213
0.570213
0.570214
0.570216
0.570218
0.57022
0.57022
0.570222
0.570224
0.570226
0.570228
0.570228
0.570229
0.570231
0.570233
0.570235
0.570235
0.570237
0.570239
0.570241
0.570243
0.570243
0.570245
0.570246
0.570248
0.57025
0.57025
0.570252
0.570254
0.570256
0.570258
0.570258
0.57026
0.570262
0.570264
0.570266
0.570266
0.570268
0.57027
0.570272
0.570273
0.570273
0.570275
0.570277
0.570279
0.570281
0.570281
0.570283
0.570285
0.570287
0.570289
0.570289
0.570291
0.570293
0.570295
0.570297
0.570297
0.570299
0.570301
0.570303
0.570305
0.570305
0.570307
0.570309
0.570311
0.570313
0.570313
0.570315
0.570317
0.570319
0.570321
0.570321
0.570323
0.570325
0.570327
0.570329
0.570329
0.570331
0.570333
0.570335
0.570337
0.570337
0.570339
0.570341
0.570343
0.570345
0.570345
0.570347
0.570349
0.570351
0.570353
0.570353
0.570355
0.570357
0.570359
0.570361
0.570361
0.570364
0.570366
0.570368
0.57037
0.57037
0.570372
0.570374
0.570376
0.570378
0.570378
0.57038
0.570382
0.570384
0.570386
0.570386
0.570388
0.570391
0.570393
0.570395
0.570395
0.570397
0.570399
0.570401
0.570403
0.570403
0.570405
0.570407
0.570409
0.570412
0.570412
0.570414
0.570416
0.570418
0.57042
0.57042
0.570422
0.570424
0.570426
0.570429
0.570429
0.570431
0.570433
0.570435
0.570437
0.570437
0.570439
0.570442
0.570444
0.570446
0.570446
0.570448
0.57045
0.570452
0.570455
0.570455
0.570457
0.570459
0.570461
0.570463
0.570463
0.570465
0.570468
0.57047
0.570472
0.570472
0.570474
0.570476
0.570479
0.570481
0.570481
0.570483
0.570485
0.570487
0.57049
0.57049
0.570492
0.570494
0.570496
0.570498
0.570498
0.570501
0.570503
0.570505
0.570507
0.570507
0.57051
0.570512
0.570514
0.570516
0.570516
0.570519
0.570521
0.570523
0.570525
0.570525
0.570528
0.57053
0.570532
0.570534
0.570534
0.570537
0.570539
0.570541
0.570544
0.570544
0.570546
0.570548
0.57055
0.570553
0.570553
0.570555
0.570557
0.57056
0.570562
0.570562
0.570564
0.570566
0.570569
0.570571
0.570571
0.570573
0.570576
0.570578
0.57058
0.57058
0.570583
0.570585
0.570587
0.57059
0.57059
0.570592
0.570594
0.570597
0.570599
0.570599
0.570601
0.570604
0.570606
0.570608
0.570608
0.570611
0.570613
0.570616
0.570618
0.570618
0.57062
0.570623
0.570625
0.570627
0.570627
0.57063
0.570632
0.570635
0.570637
0.570637
0.570639
0.570642
0.570644
0.570647
0.570647
0.570649
0.570651
0.570654
0.570656
0.570656
0.570659
0.570661
0.570663
0.570666
0.570666
0.570668
0.570671
0.570673
0.570676
0.570676
0.570678
0.57068
0.570683
0.570685
0.570685
0.570688
0.57069
0.570693
0.570695
0.570695
0.570698
0.5707
0.570703
0.570705
0.570705
0.570708
0.57071
0.570713
0.570715
0.570715
0.570718
0.57072
0.570723
0.570725
0.570725
0.570727
0.57073
0.570732
0.570735
0.570735
0.570737
0.57074
0.570743
0.570745
0.570745
0.570748
0.57075
0.570753
0.570755
0.570755
0.570758
0.57076
0.570763
0.570765
0.570765
0.570768
0.57077
0.570773
0.570776
0.570776
0.570778
0.570781
0.570783
0.570786
0.570786
0.570788
0.570791
0.570794
0.570796
0.570796
0.570799
0.570801
0.570804
0.570806
0.570806
0.570809
0.570812
0.570814
0.570817
0.570817
0.570819
0.570822
0.570825
0.570827
0.570827
0.57083
0.570832
0.570835
0.570838
0.570838
0.57084
0.570843
0.570846
0.570848
0.570848
0.570851
0.570854
0.570856
0.570859
0.570859
0.570862
0.570864
0.570867
0.57087
0.57087
0.570872
0.570875
0.570878
0.57088
0.57088
0.570883
0.570886
0.570888
0.570891
0.570891
0.570894
0.570896
0.570899
0.570902
0.570902
0.570904
0.570907
0.57091
0.570913
0.570913
0.570915
0.570918
0.570921
0.570923
0.570923
0.570926
0.570929
0.570932
0.570934
0.570934
0.570937
0.57094
0.570943
0.570945
0.570945
0.570948
0.570951
0.570954
0.570956
0.570956
0.570959
0.570962
0.570965
0.570968
0.570968
0.57097
0.570973
0.570976
0.570979
0.570979
0.570981
0.570984
0.570987
0.57099
0.57099
0.570993
0.570995
0.570998
0.571001
0.571001
0.571004
0.571007
0.571009
0.571012
0.571012
0.571015
0.571018
0.571021
0.571024
0.571024
0.571027
0.571029
0.571032
0.571035
0.571035
0.571038
0.571041
0.571044
0.571047
0.571047
0.571049
0.571052
0.571055
0.571058
0.571058
0.571061
0.571064
0.571067
0.57107
0.57107
0.571073
0.571075
0.571078
0.571081
0.571081
0.571084
0.571087
0.57109
0.571093
0.571093
0.571096
0.571099
0.571102
0.571105
0.571105
0.571107
0.57111
0.571113
0.571116
0.571116
0.571119
0.571122
0.571125
0.571128
0.571128
0.571131
0.571134
0.571137
0.57114
0.57114
0.571143
0.571146
0.571149
0.571152
0.571152
0.571155
0.571158
0.571161
0.571164
0.571164
0.571167
0.57117
0.571173
0.571176
0.571176
0.571179
0.571182
0.571185
0.571188
0.571188
0.571191
0.571194
0.571197
0.5712
0.5712
0.571203
0.571206
0.571209
0.571212
0.571212
0.571215
0.571219
0.571222
0.571225
0.571225
0.571228
0.571231
0.571234
0.571237
0.571237
0.57124
0.571243
0.571246
0.571249
0.571249
0.571252
0.571256
0.571259
0.571262
0.571262
0.571265
0.571268
0.571271
0.571274
0.571274
0.571277
0.57128
0.571284
0.571287
0.571287
0.57129
0.571293
0.571296
0.571299
0.571299
0.571302
0.571306
0.571309
0.571312
0.571312
0.571315
0.571318
0.571322
0.571325
0.571325
0.571328
0.571331
0.571334
0.571338
0.571338
0.571341
0.571344
0.571347
0.57135
0.57135
0.571354
0.571357
0.57136
0.571363
0.571363
0.571366
0.57137
0.571373
0.571376
0.571376
0.571379
0.571383
0.571386
0.571389
0.571389
0.571392
0.571396
0.571399
0.571402
0.571402
0.571405
0.571409
0.571412
0.571415
0.571415
0.571419
0.571422
0.571425
0.571428
0.571428
0.571432
0.571435
0.571438
0.571442
0.571442
0.571445
0.571448
0.571452
0.571455
0.571455
0.571458
0.571462
0.571465
0.571468
0.571468
0.571472
0.571475
0.571478
0.571482
0.571482
0.571485
0.571488
0.571492
0.571495
0.571495
0.571498
0.571502
0.571505
0.571509
0.571509
0.571512
0.571515
0.571519
0.571522
0.571522
0.571526
0.571529
0.571532
0.571536
0.571536
0.571539
0.571543
0.571546
0.57155
0.57155
0.571553
0.571556
0.57156
0.571563
0.571563
0.571567
0.57157
0.571574
0.571577
0.571577
0.571581
0.571584
0.571588
0.571591
0.571591
0.571594
0.571598
0.571601
0.571605
0.571605
0.571608
0.571612
0.571615
0.571619
0.571619
0.571623
0.571626
0.57163
0.571633
0.571633
0.571637
0.57164
0.571644
0.571647
0.571647
0.571651
0.571654
0.571658
0.571661
0.571661
0.571665
0.571668
0.571672
0.571676
0.571676
0.571679
0.571683
0.571686
0.57169
0.57169
0.571694
0.571697
0.571701
0.571704
0.571704
0.571708
0.571712
0.571715
0.571719
0.571719
0.571722
0.571726
0.57173
0.571733
0.571733
0.571737
0.571741
0.571744
0.571748
0.571748
0.571752
0.571755
0.571759
0.571762
0.571762
0.571766
0.57177
0.571773
0.571777
0.571777
0.571781
0.571785
0.571788
0.571792
0.571792
0.571796
0.571799
0.571803
0.571807
0.571807
0.571811
0.571814
0.571818
0.571822
0.571822
0.571825
0.571829
0.571833
0.571837
0.571837
0.57184
0.571844
0.571848
0.571852
0.571852
0.571855
0.571859
0.571863
0.571867
0.571867
0.571871
0.571874
0.571878
0.571882
0.571882
0.571886
0.57189
0.571893
0.571897
0.571897
0.571901
0.571905
0.571909
0.571913
0.571913
0.571916
0.57192
0.571924
0.571928
0.571928
0.571932
0.571936
0.571939
0.571943
0.571943
0.571947
0.571951
0.571955
0.571959
0.571959
0.571963
0.571967
0.57197
0.571974
0.571974
0.571978
0.571982
0.571986
0.57199
0.57199
0.571994
0.571998
0.572002
0.572006
0.572006
0.57201
0.572014
0.572018
0.572022
0.572022
0.572025
0.572029
0.572033
0.572037
0.572037
0.572041
0.572045
0.572049
0.572053
0.572053
0.572057
0.572061
0.572065
0.572069
0.572069
0.572073
0.572077
0.572081
0.572085
0.572085
0.572089
0.572093
0.572097
0.572101
0.572101
0.572105
0.572109
0.572114
0.572118
0.572118
0.572122
0.572126
0.57213
0.572134
0.572134
0.572138
0.572142
0.572146
0.57215
0.57215
0.572154
0.572158
0.572162
0.572167
0.572167
0.572171
0.572175
0.572179
0.572183
0.572183
0.572187
0.572191
0.572195
0.5722
0.5722
0.572204
0.572208
0.572212
0.572216
0.572216
0.57222
0.572225
0.572229
0.572233
0.572233
0.572237
0.572241
0.572246
0.57225
0.57225
0.572254
0.572258
0.572262
0.572267
0.572267
0.572271
0.572275
0.572279
0.572283
0.572283
0.572288
0.572292
0.572296
0.5723
0.5723
0.572305
0.572309
0.572313
0.572318
0.572318
0.572322
0.572326
0.57233
0.572335
0.572335
0.572339
0.572343
0.572348
0.572352
0.572352
0.572356
0.572361
0.572365
0.572369
0.572369
0.572374
0.572378
0.572382
0.572387
0.572387
0.572391
0.572395
0.5724
0.572404
0.572404
0.572408
0.572413
0.572417
0.572422
0.572422
0.572426
0.57243
0.572435
0.572439
0.572439
0.572444
0.572448
0.572452
0.572457
0.572457
0.572461
0.572466
0.57247
0.572475
0.572475
0.572479
0.572483
0.572488
0.572492
0.572492
0.572497
0.572501
0.572506
0.57251
0.57251
0.572515
0.572519
0.572524
0.572528
0.572528
0.572533
0.572537
0.572542
0.572546
0.572546
0.572551
0.572555
0.57256
0.572565
0.572565
0.572569
0.572574
0.572578
0.572583
0.572583
0.572587
0.572592
0.572596
0.572601
0.572601
0.572606
0.57261
0.572615
0.572619
0.572619
0.572624
0.572629
0.572633
0.572638
0.572638
0.572643
0.572647
0.572652
0.572656
0.572656
0.572661
0.572666
0.57267
0.572675
0.572675
0.57268
0.572684
0.572689
0.572694
0.572694
0.572698
0.572703
0.572708
0.572713
0.572713
0.572717
0.572722
0.572727
0.572731
0.572731
0.572736
0.572741
0.572746
0.57275
0.57275
0.572755
0.57276
0.572765
0.572769
0.572769
0.572774
0.572779
0.572784
0.572789
0.572789
0.572793
0.572798
0.572803
0.572808
0.572808
0.572813
0.572817
0.572822
0.572827
0.572827
0.572832
0.572837
0.572842
0.572846
0.572846
0.572851
0.572856
0.572861
0.572866
0.572866
0.572871
0.572876
0.572881
0.572885
0.572885
0.57289
0.572895
0.5729
0.572905
0.572905
0.57291
0.572915
0.57292
0.572925
0.572925
0.57293
0.572935
0.57294
0.572945
0.572945
0.572949
0.572954
0.572959
0.572964
0.572964
0.572969
0.572974
0.572979
0.572984
0.572984
0.572989
0.572994
0.572999
0.573004
0.573004
0.57301
0.573015
0.57302
0.573025
0.573025
0.57303
0.573035
0.57304
0.573045
0.573045
0.57305
0.573055
0.57306
0.573065
0.573065
0.57307
0.573075
0.57308
0.573086
0.573086
0.573091
0.573096
0.573101
0.573106
0.573106
0.573111
0.573116
0.573122
0.573127
0.573127
0.573132
0.573137
0.573142
0.573147
0.573147
0.573153
0.573158
0.573163
0.573168
0.573168
0.573173
0.573179
0.573184
0.573189
0.573189
0.573194
0.5732
0.573205
0.57321
0.57321
0.573215
0.573221
0.573226
0.573231
0.573231
0.573236
0.573242
0.573247
0.573252
0.573252
0.573258
0.573263
0.573268
0.573273
0.573273
0.573279
0.573284
0.573289
0.573295
0.573295
0.5733
0.573305
0.573311
0.573316
0.573316
0.573322
0.573327
0.573332
0.573338
0.573338
0.573343
0.573349
0.573354
0.573359
0.573359
0.573365
0.57337
0.573376
0.573381
0.573381
0.573387
0.573392
0.573397
0.573403
0.573403
0.573408
0.573414
0.573419
0.573425
0.573425
0.57343
0.573436
0.573441
0.573447
0.573447
0.573452
0.573458
0.573463
0.573469
0.573469
0.573474
0.57348
0.573486
0.573491
0.573491
0.573497
0.573502
0.573508
0.573513
0.573513
0.573519
0.573525
0.57353
0.573536
0.573536
0.573541
0.573547
0.573553
0.573558
0.573558
0.573564
0.57357
0.573575
0.573581
0.573581
0.573586
0.573592
0.573598
0.573604
0.573604
0.573609
0.573615
0.573621
0.573626
0.573626
0.573632
0.573638
0.573643
0.573649
0.573649
0.573655
0.573661
0.573666
0.573672
0.573672
0.573678
0.573684
0.573689
0.573695
0.573695
0.573701
0.573707
0.573713
0.573718
0.573718
0.573724
0.57373
0.573736
0.573742
0.573742
0.573748
0.573753
0.573759
0.573765
0.573765
0.573771
0.573777
0.573783
0.573789
0.573789
0.573795
0.5738
0.573806
0.573812
0.573812
0.573818
0.573824
0.57383
0.573836
0.573836
0.573842
0.573848
0.573854
0.57386
0.57386
0.573866
0.573872
0.573878
0.573884
0.573884
0.57389
0.573896
0.573902
0.573908
0.573908
0.573914
0.57392
0.573926
0.573932
0.573932
0.573938
0.573944
0.57395
0.573956
0.573956
0.573962
0.573968
0.573974
0.57398
0.57398
0.573987
0.573993
0.573999
0.574005
0.574005
0.574011
0.574017
0.574023
0.574029
0.574029
0.574036
0.574042
0.574048
0.574054
0.574054
0.57406
0.574067
0.574073
0.574079
0.574079
0.574085
0.574091
0.574098
0.574104
0.574104
0.57411
0.574116
0.574123
0.574129
0.574129
0.574135
0.574141
0.574148
0.574154
0.574154
0.57416
0.574167
0.574173
0.574179
0.574179
0.574185
0.574192
0.574198
0.574205
0.574205
0.574211
0.574217
0.574224
0.57423
0.57423
0.574236
0.574243
0.574249
0.574256
0.574256
0.574262
0.574268
0.574275
0.574281
0.574281
0.574288
0.574294
0.574301
0.574307
0.574307
0.574313
0.57432
0.574326
0.574333
0.574333
0.574339
0.574346
0.574352
0.574359
0.574359
0.574365
0.574372
0.574379
0.574385
0.574385
0.574392
0.574398
0.574405
0.574411
0.574411
0.574418
0.574424
0.574431
0.574438
0.574438
0.574444
0.574451
0.574458
0.574464
0.574464
0.574471
0.574477
0.574484
0.574491
0.574491
0.574498
0.574504
0.574511
0.574518
0.574518
0.574524
0.574531
0.574538
0.574544
0.574544
0.574551
0.574558
0.574565
0.574571
0.574571
0.574578
0.574585
0.574592
0.574598
0.574598
0.574605
0.574612
0.574619
0.574626
0.574626
0.574633
0.574639
0.574646
0.574653
0.574653
0.57466
0.574667
0.574674
0.57468
0.57468
0.574687
0.574694
0.574701
0.574708
0.574708
0.574715
0.574722
0.574729
0.574736
0.574736
0.574743
0.57475
0.574757
0.574764
0.574764
0.574771
0.574778
0.574785
0.574792
0.574792
0.574799
0.574806
0.574813
0.57482
0.57482
0.574827
0.574834
0.574841
0.574848
0.574848
0.574855
0.574862
0.574869
0.574876
0.574876
0.574883
0.57489
0.574897
0.574905
0.574905
0.574912
0.574919
0.574926
0.574933
0.574933
0.57494
0.574948
0.574955
0.574962
0.574962
0.574969
0.574976
0.574984
0.574991
0.574991
0.574998
0.575005
0.575012
0.57502
0.57502
0.575027
0.575034
0.575042
0.575049
0.575049
0.575056
0.575063
0.575071
0.575078
0.575078
0.575085
0.575093
0.5751
0.575107
0.575107
0.575115
0.575122
0.57513
0.575137
0.575137
0.575144
0.575152
0.575159
0.575167
0.575167
0.575174
0.575181
0.575189
0.575196
0.575196
0.575204
0.575211
0.575219
0.575226
0.575226
0.575234
0.575241
0.575249
0.575256
0.575256
0.575264
0.575271
0.575279
0.575286
0.575286
0.575294
0.575302
0.575309
0.575317
0.575317
0.575324
0.575332
0.57534
0.575347
0.575347
0.575355
0.575363
0.57537
0.575378
0.575378
0.575385
0.575393
0.575401
0.575409
0.575409
0.575416
0.575424
0.575432
0.575439
0.575439
0.575447
0.575455
0.575463
0.57547
0.57547
0.575478
0.575486
0.575494
0.575502
0.575502
0.575509
0.575517
0.575525
0.575533
0.575533
0.575541
0.575549
0.575556
0.575564
0.575564
0.575572
0.57558
0.575588
0.575596
0.575596
0.575604
0.575612
0.57562
0.575628
0.575628
0.575636
0.575644
0.575651
0.575659
0.575659
0.575667
0.575675
0.575683
0.575691
0.575691
0.575699
0.575708
0.575716
0.575724
0.575724
0.575732
0.57574
0.575748
0.575756
0.575756
0.575764
0.575772
0.57578
0.575788
0.575788
0.575797
0.575805
0.575813
0.575821
0.575821
0.575829
0.575837
0.575846
0.575854
0.575854
0.575862
0.57587
0.575878
0.575887
0.575887
0.575895
0.575903
0.575911
0.57592
0.57592
0.575928
0.575936
0.575945
0.575953
0.575953
0.575961
0.57597
0.575978
0.575986
0.575986
0.575995
0.576003
0.576011
0.57602
0.57602
0.576028
0.576037
0.576045
0.576053
0.576053
0.576062
0.57607
0.576079
0.576087
0.576087
0.576096
0.576104
0.576113
0.576121
0.576121
0.57613
0.576138
0.576147
0.576155
0.576155
0.576164
0.576172
0.576181
0.57619
0.57619
0.576198
0.576207
0.576215
0.576224
0.576224
0.576233
0.576241
0.57625
0.576259
0.576259
0.576267
0.576276
0.576285
0.576293
0.576293
0.576302
0.576311
0.57632
0.576328
0.576328
0.576337
0.576346
0.576355
0.576363
0.576363
0.576372
0.576381
0.57639
0.576399
0.576399
0.576407
0.576416
0.576425
0.576434
0.576434
0.576443
0.576452
0.576461
0.57647
0.57647
0.576478
0.576487
0.576496
0.576505
0.576505
0.576514
0.576523
0.576532
0.576541
0.576541
0.57655
0.576559
0.576568
0.576577
0.576577
0.576586
0.576595
0.576604
0.576613
0.576613
0.576623
0.576632
0.576641
0.57665
0.57665
0.576659
0.576668
0.576677
0.576686
0.576686
0.576696
0.576705
0.576714
0.576723
0.576723
0.576732
0.576742
0.576751
0.57676
0.57676
0.576769
0.576779
0.576788
0.576797
0.576797
0.576806
0.576816
0.576825
0.576834
0.576834
0.576844
0.576853
0.576862
0.576872
0.576872
0.576881
0.576891
0.5769
0.576909
0.576909
0.576919
0.576928
0.576938
0.576947
0.576947
0.576957
0.576966
0.576976
0.576985
0.576985
0.576995
0.577004
0.577014
0.577023
0.577023
0.577033
0.577042
0.577052
0.577062
0.577062
0.577071
0.577081
0.57709
0.5771
0.5771
0.57711
0.577119
0.577129
0.577139
0.577139
0.577148
0.577158
0.577168
0.577178
0.577178
0.577187
0.577197
0.577207
0.577217
0.577217
0.577226
0.577236
0.577246
0.577256
0.577256
0.577266
0.577275
0.577285
0.577295
0.577295
0.577305
0.577315
0.577325
0.577335
0.577335
0.577345
0.577355
0.577365
0.577375
0.577375
0.577385
0.577394
0.577404
0.577414
0.577414
0.577425
0.577435
0.577445
0.577455
0.577455
0.577465
0.577475
0.577485
0.577495
0.577495
0.577505
0.577515
0.577525
0.577535
0.577535
0.577546
0.577556
0.577566
0.577576
0.577576
0.577586
0.577597
0.577607
0.577617
0.577617
0.577627
0.577638
0.577648
0.577658
0.577658
0.577668
0.577679
0.577689
0.577699
0.577699
0.57771
0.57772
0.577731
0.577741
0.577741
0.577751
0.577762
0.577772
0.577783
0.577783
0.577793
0.577803
0.577814
0.577824
0.577824
0.577835
0.577845
0.577856
0.577866
0.577866
0.577877
0.577888
0.577898
0.577909
0.577909
0.577919
0.57793
0.577941
0.577951
0.577951
0.577962
0.577973
0.577983
0.577994
0.577994
0.578005
0.578015
0.578026
0.578037
0.578037
0.578048
0.578058
0.578069
0.57808
0.57808
0.578091
0.578101
0.578112
0.578123
0.578123
0.578134
0.578145
0.578156
0.578167
0.578167
0.578178
0.578188
0.578199
0.57821
0.57821
0.578221
0.578232
0.578243
0.578254
0.578254
0.578265
0.578276
0.578287
0.578298
0.578298
0.578309
0.57832
0.578331
0.578343
0.578343
0.578354
0.578365
0.578376
0.578387
0.578387
0.578398
0.578409
0.578421
0.578432
0.578432
0.578443
0.578454
0.578466
0.578477
0.578477
0.578488
0.578499
0.578511
0.578522
0.578522
0.578533
0.578545
0.578556
0.578567
0.578567
0.578579
0.57859
0.578601
0.578613
0.578613
0.578624
0.578636
0.578647
0.578659
0.578659
0.57867
0.578682
0.578693
0.578705
0.578705
0.578716
0.578728
0.578739
0.578751
0.578751
0.578763
0.578774
0.578786
0.578797
0.578797
0.578809
0.578821
0.578832
0.578844
0.578844
0.578856
0.578868
0.578879
0.578891
0.578891
0.578903
0.578915
0.578926
0.578938
0.578938
0.57895
0.578962
0.578974
0.578986
0.578986
0.578997
0.579009
0.579021
0.579033
0.579033
0.579045
0.579057
0.579069
0.579081
0.579081
0.579093
0.579105
0.579117
0.579129
0.579129
0.579141
0.579153
0.579165
0.579177
0.579177
0.579189
0.579202
0.579214
0.579226
0.579226
0.579238
0.57925
0.579262
0.579275
0.579275
0.579287
0.579299
0.579311
0.579324
0.579324
0.579336
0.579348
0.579361
0.579373
0.579373
0.579385
0.579398
0.57941
0.579422
0.579422
0.579435
0.579447
0.57946
0.579472
0.579472
0.579484
0.579497
0.579509
0.579522
0.579522
0.579534
0.579547
0.57956
0.579572
0.579572
0.579585
0.579597
0.57961
0.579623
0.579623
0.579635
0.579648
0.579661
0.579673
0.579673
0.579686
0.579699
0.579711
0.579724
0.579724
0.579737
0.57975
0.579762
0.579775
0.579775
0.579788
0.579801
0.579814
0.579827
0.579827
0.57984
0.579853
0.579865
0.579878
0.579878
0.579891
0.579904
0.579917
0.57993
0.57993
0.579943
0.579956
0.579969
0.579982
0.579982
0.579996
0.580009
0.580022
0.580035
0.580035
0.580048
0.580061
0.580074
0.580088
0.580088
0.580101
0.580114
0.580127
0.58014
0.58014
0.580154