<?xml version="1.0"?>
<VTKFile type="UnstructuredGrid" version="0.1" byte_order="LittleEndian">
<UnstructuredGrid>
<Piece NumberOfPoints="5000" NumberOfCells="4000">
<PointData Scalars="Reaction 0">
<DataArray type="Float32" Name="Reaction 0" format="ascii">
0.571548
0.571548
0.571548
0.571548
0.571548
0.571548
0.571548
0.571548
0.571548
0.571548
0.571548
0.571548
0.571548
0.571548
0.571549
0.571549
0.571549
0.571549
0.571549
0.571549
0.571549
0.571549
0.571549
0.571549
0.571549
0.571549
0.571549
0.571549
0.571549
0.571549
0.571549
0.571549
0.571549
0.571549
0.571549
0.571549
0.571549
0.57155
0.57155
0.57155
0.57155
0.57155
0.57155
0.57155
0.57155
0.57155
0.57155
0.57155
0.57155
0.57155
0.57155
0.571551
0.571551
0.571551
0.571551
0.571551
0.571551
0.571551
0.571551
0.571551
0.571551
0.571551
0.571552
0.571552
0.571552
0.571552
0.571552
0.571552
0.571552
0.571552
0.571552
0.571553
0.571553
0.571553
0.571553
0.571553
0.571553
0.571553
0.571553
0.571554
0.571554
0.571554
0.571554
0.571554
0.571554
0.571554
0.571554
0.571555
0.571555
0.571555
0.571555
0.571555
0.571555
0.571556
0.571556
0.571556
0.571556
0.571556
0.571556
0.571557
0.571557
0.571557
0.571557
0.571557
0.571557
0.571557
0.571558
0.571558
0.571558
0.571558
0.571558
0.571559
0.571559
0.571559
0.571559
0.571559
0.57156
0.57156
0.57156
0.57156
0.57156
0.57156
0.571561
0.571561
0.571561
0.571561
0.571562
0.571562
0.571562
0.571562
0.571562
0.571563
0.571563
0.571563
0.571563
0.571563
0.571564
0.571564
0.571564
0.571565
0.571565
0.571565
0.571565
0.571565
0.571566
0.571566
0.571566
0.571566
0.571567
0.571567
0.571567
0.571567
0.571568
0.571568
0.571568
0.571568
0.571569
0.571569
0.571569
0.571569
0.571569
0.57157
0.57157
0.57157
0.571571
0.571571
0.571571
0.571572
0.571572
0.571572
0.571572
0.571573
0.571573
0.571573
0.571574
0.571574
0.571574
0.571574
0.571575
0.571575
0.571575
0.571575
0.571576
0.571576
0.571577
0.571577
0.571577
0.571577
0.571578
0.571578
0.571578
0.571579
0.571579
0.571579
0.57158
0.57158
0.57158
0.571581
0.571581
0.571581
0.571581
0.571582
0.571582
0.571583
0.571583
0.571583
0.571583
0.571584
0.571584
0.571585
0.571585
0.571585
0.571586
0.571586
0.571587
0.571587
0.571587
0.571587
0.571588
0.571588
0.571588
0.571589
0.571589
0.57159
0.57159
0.57159
0.571591
0.571591
0.571592
0.571592
0.571592
0.571593
0.571593
0.571594
0.571594
0.571594
0.571595
0.571595
0.571595
0.571596
0.571596
0.571596
0.571597
0.571598
0.571598
0.571598
0.571599
0.571599
0.5716
0.5716
0.5716
0.571601
0.571601
0.571602
0.571602
0.571602
0.571603
0.571603
0.571604
0.571604
0.571604
0.571605
0.571605
0.571606
0.571606
0.571606
0.571607
0.571608
0.571608
0.571609
0.571609
0.571609
0.57161
0.57161
0.571611
0.571611
0.571612
0.571612
0.571613
0.571613
0.571613
0.571614
0.571614
0.571615
0.571616
0.571616
0.571616
0.571617
0.571617
0.571618
0.571618
0.571619
0.571619
0.57162
0.57162
0.57162
0.571621
0.571622
0.571622
0.571623
0.571623
0.571624
0.571624
0.571625
0.571625
0.571625
0.571626
0.571627
0.571627
0.571628
0.571628
0.571629
0.571629
0.57163
0.571631
0.571631
0.571631
0.571632
0.571633
0.571633
0.571633
0.571634
0.571635
0.571635
0.571636
0.571636
0.571637
0.571637
0.571638
0.571639
0.571639
0.571639
0.57164
0.571641
0.571641
0.571641
0.571642
0.571643
0.571644
0.571644
0.571644
0.571645
0.571646
0.571646
0.571647
0.571647
0.571648
0.571649
0.571649
0.57165
0.57165
0.571651
0.571652
0.571652
0.571653
0.571653
0.571654
0.571654
0.571655
0.571656
0.571656
0.571657
0.571657
0.571658
0.571659
0.571659
0.57166
0.571661
0.571661
0.571662
0.571662
0.571663
0.571664
0.571664
0.571665
0.571665
0.571666
0.571667
0.571668
0.571668
0.571668
0.571669
0.57167
0.571671
0.571672
0.571672
0.571672
0.571673
0.571674
0.571675
0.571675
0.571676
0.571676
0.571677
0.571678
0.571678
0.571679
0.57168
0.571681
0.571681
0.571681
0.571682
0.571683
0.571684
0.571685
0.571685
0.571686
0.571686
0.571687
0.571688
0.571688
0.571689
0.57169
0.571691
0.571692
0.571692
0.571693
0.571693
0.571694
0.571695
0.571695
0.571696
0.571697
0.571698
0.571699
0.571699
0.5717
0.571701
0.571701
0.571702
0.571702
0.571703
0.571704
0.571705
0.571706
0.571706
0.571707
0.571708
0.571709
0.57171
0.57171
0.571711
0.571711
0.571712
0.571713
0.571713
0.571714
0.571715
0.571716
0.571717
0.571717
0.571718
0.571719
0.57172
0.571721
0.571721
0.571722
0.571723
0.571724
0.571725
0.571725
0.571726
0.571727
0.571728
0.571729
0.571729
0.57173
0.571731
0.571732
0.571733
0.571733
0.571734
0.571735
0.571736
0.571737
0.571737
0.571738
0.571739
0.57174
0.571741
0.571741
0.571742
0.571743
0.571744
0.571745
0.571745
0.571746
0.571747
0.571748
0.571749
0.571749
0.57175
0.571751
0.571752
0.571753
0.571753
0.571754
0.571755
0.571756
0.571757
0.571757
0.571758
0.571759
0.57176
0.571761
0.571761
0.571763
0.571764
0.571765
0.571766
0.571766
0.571767
0.571768
0.571769
0.57177
0.57177
0.571771
0.571772
0.571773
0.571774
0.571774
0.571776
0.571777
0.571778
0.571779
0.571779
0.57178
0.571781
0.571782
0.571783
0.571783
0.571784
0.571786
0.571787
0.571788
0.571788
0.571789
0.57179
0.571791
0.571792
0.571792
0.571794
0.571795
0.571796
0.571797
0.571797
0.571798
0.571799
0.571801
0.571802
0.571802
0.571803
0.571804
0.571805
0.571806
0.571806
0.571808
0.571809
0.57181
0.571811
0.571811
0.571812
0.571814
0.571815
0.571816
0.571816
0.571817
0.571818
0.57182
0.571821
0.571821
0.571822
0.571823
0.571824
0.571826
0.571826
0.571827
0.571828
0.571829
0.571831
0.571831
0.571832
0.571833
0.571834
0.571836
0.571836
0.571837
0.571838
0.571839
0.571841
0.571841
0.571842
0.571843
0.571844
0.571846
0.571846
0.571847
0.571848
0.571849
0.571851
0.571851
0.571852
0.571853
0.571855
0.571856
0.571856
0.571857
0.571858
0.57186
0.571861
0.571861
0.571862
0.571864
0.571865
0.571866
0.571866
0.571868
0.571869
0.57187
0.571872
0.571872
0.571873
0.571874
0.571876
0.571877
0.571877
0.571878
0.57188
0.571881
0.571882
0.571882
0.571884
0.571885
0.571886
0.571888
0.571888
0.571889
0.57189
0.571892
0.571893
0.571893
0.571895
0.571896
0.571897
0.571899
0.571899
0.5719
0.571901
0.571903
0.571904
0.571904
0.571906
0.571907
0.571909
0.57191
0.57191
0.571911
0.571913
0.571914
0.571916
0.571916
0.571917
0.571918
0.57192
0.571921
0.571921
0.571923
0.571924
0.571926
0.571927
0.571927
0.571929
0.57193
0.571931
0.571933
0.571933
0.571934
0.571936
0.571937
0.571939
0.571939
0.57194
0.571942
0.571943
0.571945
0.571945
0.571946
0.571948
0.571949
0.571951
0.571951
0.571952
0.571954
0.571955
0.571957
0.571957
0.571958
0.57196
0.571961
0.571963
0.571963
0.571964
0.571966
0.571967
0.571969
0.571969
0.57197
0.571972
0.571973
0.571975
0.571975
0.571976
0.571978
0.571979
0.571981
0.571981
0.571982
0.571984
0.571986
0.571987
0.571987
0.571989
0.57199
0.571992
0.571993
0.571993
0.571995
0.571997
0.571998
0.572
0.572
0.572001
0.572003
0.572005
0.572006
0.572006
0.572008
0.572009
0.572011
0.572013
0.572013
0.572014
0.572016
0.572017
0.572019
0.572019
0.572021
0.572022
0.572024
0.572026
0.572026
0.572027
0.572029
0.57203
0.572032
0.572032
0.572034
0.572035
0.572037
0.572039
0.572039
0.57204
0.572042
0.572044
0.572045
0.572045
0.572047
0.572049
0.57205
0.572052
0.572052
0.572054
0.572055
0.572057
0.572059
0.572059
0.572061
0.572062
0.572064
0.572066
0.572066
0.572067
0.572069
0.572071
0.572073
0.572073
0.572074
0.572076
0.572078
0.572079
0.572079
0.572081
0.572083
0.572085
0.572086
0.572086
0.572088
0.57209
0.572092
0.572093
0.572093
0.572095
0.572097
0.572099
0.5721
0.5721
0.572102
0.572104
0.572106
0.572107
0.572107
0.572109
0.572111
0.572113
0.572115
0.572115
0.572116
0.572118
0.57212
0.572122
0.572122
0.572124
0.572126
0.572127
0.572129
0.572129
0.572131
0.572133
0.572135
0.572136
0.572136
0.572138
0.57214
0.572142
0.572144
0.572144
0.572146
0.572148
0.572149
0.572151
0.572151
0.572153
0.572155
0.572157
0.572159
0.572159
0.572161
0.572162
0.572164
0.572166
0.572166
0.572168
0.57217
0.572172
0.572174
0.572174
0.572176
0.572178
0.572179
0.572181
0.572181
0.572183
0.572185
0.572187
0.572189
0.572189
0.572191
0.572193
0.572195
0.572197
0.572197
0.572199
0.5722
0.572202
0.572204
0.572204
0.572206
0.572208
0.57221
0.572212
0.572212
0.572214
0.572216
0.572218
0.57222
0.57222
0.572222
0.572224
0.572226
0.572228
0.572228
0.57223
0.572232
0.572234
0.572236
0.572236
0.572238
0.57224
0.572242
0.572244
0.572244
0.572246
0.572248
0.57225
0.572252
0.572252
0.572254
0.572256
0.572258
0.57226
0.57226
0.572262
0.572264
0.572266
0.572268
0.572268
0.57227
0.572272
0.572275
0.572277
0.572277
0.572279
0.572281
0.572283
0.572285
0.572285
0.572287
0.572289
0.572291
0.572293
0.572293
0.572295
0.572297
0.572299
0.572302
0.572302
0.572304
0.572306
0.572308
0.57231
0.57231
0.572312
0.572314
0.572316
0.572318
0.572318
0.572321
0.572323
0.572325
0.572327
0.572327
0.572329
0.572331
0.572333
0.572336
0.572336
0.572338
0.57234
0.572342
0.572344
0.572344
0.572346
0.572349
0.572351
0.572353
0.572353
0.572355
0.572357
0.57236
0.572362
0.572362
0.572364
0.572366
0.572368
0.572371
0.572371
0.572373
0.572375
0.572377
0.572379
0.572379
0.572382
0.572384
0.572386
0.572388
0.572388
0.572391
0.572393
0.572395
0.572397
0.572397
0.572399
0.572402
0.572404
0.572406
0.572406
0.572409
0.572411
0.572413
0.572415
0.572415
0.572418
0.57242
0.572422
0.572424
0.572424
0.572427
0.572429
0.572431
0.572434
0.572434
0.572436
0.572438
0.572441
0.572443
0.572443
0.572445
0.572447
0.57245
0.572452
0.572452
0.572454
0.572457
0.572459
0.572462
0.572462
0.572464
0.572466
0.572469
0.572471
0.572471
0.572473
0.572476
0.572478
0.57248
0.57248
0.572483
0.572485
0.572488
0.57249
0.57249
0.572492
0.572495
0.572497
0.5725
0.5725
0.572502
0.572504
0.572507
0.572509
0.572509
0.572512
0.572514
0.572516
0.572519
0.572519
0.572521
0.572524
0.572526
0.572529
0.572529
0.572531
0.572533
0.572536
0.572538
0.572538
0.572541
0.572543
0.572546
0.572548
0.572548
0.572551
0.572553
0.572556
0.572558
0.572558
0.572561
0.572563
0.572566
0.572568
0.572568
0.572571
0.572573
0.572576
0.572578
0.572578
0.572581
0.572583
0.572586
0.572588
0.572588
0.572591
0.572593
0.572596
0.572598
0.572598
0.572601
0.572603
0.572606
0.572609
0.572609
0.572611
0.572614
0.572616
0.572619
0.572619
0.572621
0.572624
0.572626
0.572629
0.572629
0.572632
0.572634
0.572637
0.572639
0.572639
0.572642
0.572645
0.572647
0.57265
0.57265
0.572652
0.572655
0.572658
0.57266
0.57266
0.572663
0.572666
0.572668
0.572671
0.572671
0.572673
0.572676
0.572679
0.572681
0.572681
0.572684
0.572687
0.572689
0.572692
0.572692
0.572695
0.572697
0.5727
0.572703
0.572703
0.572706
0.572708
0.572711
0.572714
0.572714
0.572716
0.572719
0.572722
0.572724
0.572724
0.572727
0.57273
0.572733
0.572735
0.572735
0.572738
0.572741
0.572744
0.572746
0.572746
0.572749
0.572752
0.572755
0.572757
0.572757
0.57276
0.572763
0.572766
0.572768
0.572768
0.572771
0.572774
0.572777
0.572779
0.572779
0.572782
0.572785
0.572788
0.572791
0.572791
0.572793
0.572796
0.572799
0.572802
0.572802
0.572805
0.572808
0.57281
0.572813
0.572813
0.572816
0.572819
0.572822
0.572825
0.572825
0.572828
0.57283
0.572833
0.572836
0.572836
0.572839
0.572842
0.572845
0.572848
0.572848
0.572851
0.572853
0.572856
0.572859
0.572859
0.572862
0.572865
0.572868
0.572871
0.572871
0.572874
0.572877
0.57288
0.572882
0.572882
0.572885
0.572888
0.572891
0.572894
0.572894
0.572897
0.5729
0.572903
0.572906
0.572906
0.572909
0.572912
0.572915
0.572918
0.572918
0.572921
0.572924
0.572927
0.57293
0.57293
0.572933
0.572936
0.572939
0.572942
0.572942
0.572945
0.572948
0.572951
0.572954
0.572954
0.572957
0.57296
0.572963
0.572966
0.572966
0.572969
0.572972
0.572975
0.572978
0.572978
0.572981
0.572984
0.572987
0.57299
0.57299
0.572994
0.572997
0.573
0.573003
0.573003
0.573006
0.573009
0.573012
0.573015
0.573015
0.573018
0.573021
0.573024
0.573028
0.573028
0.573031
0.573034
0.573037
0.57304
0.57304
0.573043
0.573046
0.57305
0.573053
0.573053
0.573056
0.573059
0.573062
0.573065
0.573065
0.573069
0.573072
0.573075
0.573078
0.573078
0.573081
0.573084
0.573088
0.573091
0.573091
0.573094
0.573097
0.5731
0.573104
0.573104
0.573107
0.57311
0.573113
0.573117
0.573117
0.57312
0.573123
0.573126
0.573129
0.573129
0.573133
0.573136
0.573139
0.573142
0.573142
0.573146
0.573149
0.573152
0.573156
0.573156
0.573159
0.573162
0.573165
0.573169
0.573169
0.573172
0.573175
0.573179
0.573182
0.573182
0.573185
0.573189
0.573192
0.573195
0.573195
0.573199
0.573202
0.573205
0.573209
0.573209
0.573212
0.573215
0.573219
0.573222
0.573222
0.573225
0.573229
0.573232
0.573236
0.573236
0.573239
0.573242
0.573246
0.573249
0.573249
0.573253
0.573256
0.573259
0.573263
0.573263
0.573266
0.57327
0.573273
0.573276
0.573276
0.57328
0.573283
0.573287
0.57329
0.57329
0.573294
0.573297
0.573301
0.573304
0.573304
0.573308
0.573311
0.573315
0.573318
0.573318
0.573322
0.573325
0.573329
0.573332
0.573332
0.573336
0.573339
0.573343
0.573346
0.573346
0.57335
0.573353
0.573357
0.57336
0.57336
0.573364
0.573367
0.573371
0.573374
0.573374
0.573378
0.573381
0.573385
0.573389
0.573389
0.573392
0.573396
0.573399
0.573403
0.573403
0.573406
0.57341
0.573414
0.573417
0.573417
0.573421
0.573425
0.573428
0.573432
0.573432
0.573435
0.573439
0.573443
0.573446
0.573446
0.57345
0.573454
0.573457
0.573461
0.573461
0.573465
0.573468
0.573472
0.573476
0.573476
0.573479
0.573483
0.573487
0.57349
0.57349
0.573494
0.573498
0.573502
0.573505
0.573505
0.573509
0.573513
0.573516
0.57352
0.57352
0.573524
0.573528
0.573531
0.573535
0.573535
0.573539
0.573543
0.573546
0.57355
0.57355
0.573554
0.573558
0.573561
0.573565
0.573565
0.573569
0.573573
0.573577
0.57358
0.57358
0.573584
0.573588
0.573592
0.573596
0.573596
0.5736
0.573603
0.573607
0.573611
0.573611
0.573615
0.573619
0.573623
0.573627
0.573627
0.57363
0.573634
0.573638
0.573642
0.573642
0.573646
0.57365
0.573654
0.573658
0.573658
0.573661
0.573665
0.573669
0.573673
0.573673
0.573677
0.573681
0.573685
0.573689
0.573689
0.573693
0.573697
0.573701
0.573705
0.573705
0.573709
0.573713
0.573717
0.573721
0.573721
0.573725
0.573729
0.573733
0.573737
0.573737
0.573741
0.573745
0.573749
0.573753
0.573753
0.573757
0.573761
0.573765
0.573769
0.573769
0.573773
0.573777
0.573781
0.573785
0.573785
0.573789
0.573793
0.573797
0.573801
0.573801
0.573805
0.573809
0.573813
0.573817
0.573817
0.573821
0.573826
0.57383
0.573834
0.573834
0.573838
0.573842
0.573846
0.57385
0.57385
0.573854
0.573859
0.573863
0.573867
0.573867
0.573871
0.573875
0.573879
0.573884
0.573884
0.573888
0.573892
0.573896
0.5739
0.5739
0.573904
0.573909
0.573913
0.573917
0.573917
0.573921
0.573925
0.57393
0.573934
0.573934
0.573938
0.573942
0.573947
0.573951
0.573951
0.573955
0.573959
0.573964
0.573968
0.573968
0.573972
0.573976
0.573981
0.573985
0.573985
0.573989
0.573994
0.573998
0.574002
0.574002
0.574007
0.574011
0.574015
0.57402
0.57402
0.574024
0.574028
0.574033
0.574037
0.574037
0.574041
0.574046
0.57405
0.574054
0.574054
0.574059
0.574063
0.574067
0.574072
0.574072
0.574076
0.574081
0.574085
0.574089
0.574089
0.574094
0.574098
0.574103
0.574107
0.574107
0.574112
0.574116
0.574121
0.574125
0.574125
0.574129
0.574134
0.574138
0.574143
0.574143
0.574147
0.574152
0.574156
0.574161
0.574161
0.574165
0.57417
0.574174
0.574179
0.574179
0.574183
0.574188
0.574192
0.574197
0.574197
0.574201
0.574206
0.574211
0.574215
0.574215
0.57422
0.574224
0.574229
0.574233
0.574233
0.574238
0.574243
0.574247
0.574252
0.574252
0.574256
0.574261
0.574266
0.57427
0.57427
0.574275
0.57428
0.574284
0.574289
0.574289
0.574293
0.574298
0.574303
0.574307
0.574307
0.574312
0.574317
0.574321
0.574326
0.574326
0.574331
0.574335
0.57434
0.574345
0.574345
0.57435
0.574354
0.574359
0.574364
0.574364
0.574368
0.574373
0.574378
0.574383
0.574383
0.574388
0.574392
0.574397
0.574402
0.574402
0.574407
0.574411
0.574416
0.574421
0.574421
0.574426
0.574431
0.574435
0.57444
0.57444
0.574445
0.57445
0.574455
0.57446
0.57446
0.574464
0.574469
0.574474
0.574479
0.574479
0.574484
0.574489
0.574494
0.574498
0.574498
0.574503
0.574508
0.574513
0.574518
0.574518
0.574523
0.574528
0.574533
0.574538
0.574538
0.574543
0.574548
0.574553
0.574558
0.574558
0.574563
0.574567
0.574572
0.574577
0.574577
0.574582
0.574587
0.574592
0.574597
0.574597
0.574602
0.574607
0.574612
0.574617
0.574617
0.574622
0.574627
0.574633
0.574638
0.574638
0.574643
0.574648
0.574653
0.574658
0.574658
0.574663
0.574668
0.574673
0.574678
0.574678
0.574683
0.574688
0.574693
0.574699
0.574699
0.574704
0.574709
0.574714
0.574719
0.574719
0.574724
0.574729
0.574735
0.57474
0.57474
0.574745
0.57475
0.574755
0.57476
0.57476
0.574766
0.574771
0.574776
0.574781
0.574781
0.574786
0.574792
0.574797
0.574802
0.574802
0.574807
0.574813
0.574818
0.574823
0.574823
0.574828
0.574834
0.574839
0.574844
0.574844
0.57485
0.574855
0.57486
0.574865
0.574865
0.574871
0.574876
0.574881
0.574887
0.574887
0.574892
0.574897
0.574903
0.574908
0.574908
0.574913
0.574919
0.574924
0.57493
0.57493
0.574935
0.57494
0.574946
0.574951
0.574951
0.574956
0.574962
0.574967
0.574973
0.574973
0.574978
0.574984
0.574989
0.574995
0.574995
0.575
0.575006
0.575011
0.575016
0.575016
0.575022
0.575027
0.575033
0.575038
0.575038
0.575044
0.575049
0.575055
0.57506
0.57506
0.575066
0.575072
0.575077
0.575083
0.575083
0.575088
0.575094
0.575099
0.575105
0.575105
0.57511
0.575116
0.575122
0.575127
0.575127
0.575133
0.575139
0.575144
0.57515
0.57515
0.575155
0.575161
0.575167
0.575172
0.575172
0.575178
0.575184
0.575189
0.575195
0.575195
0.575201
0.575206
0.575212
0.575218
0.575218
0.575224
0.575229
0.575235
0.575241
0.575241
0.575246
0.575252
0.575258
0.575264
0.575264
0.575269
0.575275
0.575281
0.575287
0.575287
0.575293
0.575298
0.575304
0.57531
0.57531
0.575316
0.575322
0.575328
0.575333
0.575333
0.575339
0.575345
0.575351
0.575357
0.575357
0.575363
0.575368
0.575374
0.57538
0.57538
0.575386
0.575392
0.575398
0.575404
0.575404
0.57541
0.575416
0.575422
0.575428
0.575428
0.575434
0.57544
0.575445
0.575451
0.575451
0.575457
0.575463
0.575469
0.575475
0.575475
0.575481
0.575487
0.575493
0.575499
0.575499
0.575506
0.575512
0.575518
0.575524
0.575524
0.57553
0.575536
0.575542
0.575548
0.575548
0.575554
0.57556
0.575566
0.575572
0.575572
0.575578
0.575585
0.575591
0.575597
0.575597
0.575603
0.575609
0.575615
0.575621
0.575621
0.575628
0.575634
0.57564
0.575646
0.575646
0.575652
0.575659
0.575665
0.575671
0.575671
0.575677
0.575683
0.57569
0.575696
0.575696
0.575702
0.575708
0.575715
0.575721
0.575721
0.575727
0.575733
0.57574
0.575746
0.575746
0.575752
0.575759
0.575765
0.575771
0.575771
0.575778
0.575784
0.57579
0.575797
0.575797
0.575803
0.57581
0.575816
0.575822
0.575822
0.575829
0.575835
0.575842
0.575848
0.575848
0.575854
0.575861
0.575867
0.575874
0.575874
0.57588
0.575887
0.575893
0.575899
0.575899
0.575906
0.575912
0.575919
0.575925
0.575925
0.575932
0.575939
0.575945
0.575952
0.575952
0.575958
0.575965
0.575971
0.575978
0.575978
0.575984
0.575991
0.575998
0.576004
0.576004
0.576011
0.576017
0.576024
0.576031
0.576031
0.576037
0.576044
0.57605
0.576057
0.576057
0.576064
0.57607
0.576077
0.576084
0.576084
0.57609
0.576097
0.576104
0.576111
0.576111
0.576117
0.576124
0.576131
0.576138
0.576138
0.576144
0.576151
0.576158
0.576165
0.576165
0.576171
0.576178
0.576185
0.576192
0.576192
0.576199
0.576205
0.576212
0.576219
0.576219
0.576226
0.576233
0.57624
0.576246
0.576246
0.576253
0.57626
0.576267
0.576274
0.576274
0.576281
0.576288
0.576295
0.576302
0.576302
0.576309
0.576316
0.576323
0.576329
0.576329
0.576336
0.576343
0.57635
0.576357
0.576357
0.576364
0.576371
0.576378
0.576385
0.576385
0.576392
0.576399
0.576406
0.576414
0.576414
0.576421
0.576428
0.576435
0.576442
0.576442
0.576449
0.576456
0.576463
0.57647
0.57647
0.576477
0.576485
0.576492
0.576499
0.576499
0.576506
0.576513
0.57652
0.576527
0.576527
0.576535
0.576542
0.576549
0.576556
0.576556
0.576563
0.576571
0.576578
0.576585
0.576585
0.576592
0.5766
0.576607
0.576614
0.576614
0.576622
0.576629
0.576636
0.576643
0.576643
0.576651
0.576658
0.576665
0.576673
0.576673
0.57668
0.576688
0.576695
0.576702
0.576702
0.57671
0.576717
0.576724
0.576732
0.576732
0.576739
0.576747
0.576754
0.576762
0.576762
0.576769
0.576776
0.576784
0.576791
0.576791
0.576799
0.576806
0.576814
0.576821
0.576821
0.576829
0.576836
0.576844
0.576852
0.576852
0.576859
0.576867
0.576874
0.576882
0.576882
0.576889
0.576897
0.576905
0.576912
0.576912
0.57692
0.576927
0.576935
0.576943
0.576943
0.57695
0.576958
0.576966
0.576973
0.576973
0.576981
0.576989
0.576997
0.577004
0.577004
0.577012
0.57702
0.577027
0.577035
0.577035
0.577043
0.577051
0.577058
0.577066
0.577066
0.577074
0.577082
0.57709
0.577097
0.577097
0.577105
0.577113
0.577121
0.577129
0.577129
0.577137
0.577145
0.577152
0.57716
0.57716
0.577168
0.577176
0.577184
0.577192
0.577192
0.5772
0.577208
0.577216
0.577224
0.577224
0.577232
0.57724
0.577248
0.577256
0.577256
0.577264
0.577272
0.57728
0.577288
0.577288
0.577296
0.577304
0.577312
0.57732
0.57732
0.577328
0.577336
0.577344
0.577352
0.577352
0.577361
0.577369
0.577377
0.577385
0.577385
0.577393
0.577401
0.577409
0.577418
0.577418
0.577426
0.577434
0.577442
0.57745
0.57745
0.577459
0.577467
0.577475
0.577483
0.577483
0.577492
0.5775
0.577508
0.577516
0.577516
0.577525
0.577533
0.577541
0.57755
0.57755
0.577558
0.577566
0.577575
0.577583
0.577583
0.577592
0.5776
0.577608
0.577617
0.577617
0.577625
0.577633
0.577642
0.57765
0.57765
0.577659
0.577667
0.577676
0.577684
0.577684
0.577693
0.577701
0.57771
0.577718
0.577718
0.577727
0.577735
0.577744
0.577752
0.577752
0.577761
0.57777
0.577778
0.577787
0.577787
0.577795
0.577804
0.577813
0.577821
0.577821
0.57783
0.577838
0.577847
0.577856
0.577856
0.577865
0.577873
0.577882
0.577891
0.577891
0.577899
0.577908
0.577917
0.577926
0.577926
0.577934
0.577943
0.577952
0.577961
0.577961
0.577969
0.577978
0.577987
0.577996
0.577996
0.578005
0.578014
0.578022
0.578031
0.578031
0.57804
0.578049
0.578058
0.578067
0.578067
0.578076
0.578085
0.578094
0.578103
0.578103
0.578112
0.578121
0.57813
0.578139
0.578139
0.578148
0.578157
0.578166
0.578175
0.578175
0.578184
0.578193
0.578202
0.578211
0.578211
0.57822
0.578229
0.578238
0.578247
0.578247
0.578256
0.578266
0.578275
0.578284
0.578284
0.578293
0.578302
0.578311
0.578321
0.578321
0.57833
0.578339
0.578348
0.578357
0.578357
0.578367
0.578376
0.578385
0.578394
0.578394
0.578404
0.578413
0.578422
0.578432
0.578432
0.578441
0.57845
0.57846
0.578469
0.578469
0.578478
0.578488
0.578497
0.578507
0.578507
0.578516
0.578526
0.578535
0.578544
0.578544
0.578554
0.578563
0.578573
0.578582
0.578582
0.578592
0.578601
0.578611
0.57862
0.57862
0.57863
0.578639
0.578649
0.578659
0.578659
0.578668
0.578678
0.578687
0.578697
0.578697
0.578707
0.578716
0.578726
0.578736
0.578736
0.578745
0.578755
0.578765
0.578774
0.578774
0.578784
0.578794
0.578804
0.578813
0.578813
0.578823
0.578833
0.578843
0.578852
0.578852
0.578862
0.578872
0.578882
0.578892
0.578892
0.578902
0.578911
0.578921
0.578931
0.578931
0.578941
0.578951
0.578961
0.578971
0.578971
0.578981
0.578991
0.579001
0.579011
0.579011
0.579021
0.579031
0.579041
0.579051
0.579051
0.579061
0.579071
0.579081
0.579091
0.579091
0.579101
0.579111
0.579121
0.579131
0.579131
0.579141
0.579152
0.579162
0.579172
0.579172
0.579182
0.579192
0.579202
0.579213
0.579213
0.579223
0.579233
0.579243
0.579254
0.579254
0.579264
0.579274
0.579284
0.579295
0.579295
0.579305
0.579315
0.579326
0.579336
0.579336
0.579346
0.579357
0.579367
0.579377
0.579377
0.579388
0.579398
0.579409
0.579419
0.579419
0.57943
0.57944
0.579451
0.579461
0.579461
0.579471
0.579482
0.579493
0.579503
0.579503
0.579514
0.579524
0.579535
0.579545
0.579545
0.579556
0.579567
0.579577
0.579588
0.579588
0.579598
0.579609
0.57962
0.57963
0.57963
0.579641
0.579652
0.579663
0.579673
0.579673
0.579684
0.579695
0.579705
0.579716
0.579716
0.579727
0.579738
0.579749
0.57976
0.57976
0.57977
0.579781
0.579792
0.579803
0.579803
0.579814
0.579825
0.579836
0.579847
0.579847
0.579857
0.579868
0.579879
0.57989
0.57989
0.579901
0.579912
0.579923
0.579934
0.579934
0.579945
0.579956
0.579968
0.579979
0.579979
0.57999
0.580001
0.580012
0.580023
0.580023
0.580034
0.580045
0.580056
0.580068
0.580068
0.580079
0.58009
0.580101
0.580112
0.580112
0.580124
0.580135
0.580146
0.580158
0.580158
0.580169
0.58018
0.580191
0.580203
0.580203
0.580214
0.580225
0.580237
0.580248
0.580248
0.58026
0.580271
0.580282
0.580294
0.580294
0.580305
0.580317
0.580328
0.58034
0.58034
0.580351
0.580363
0.580374
0.580386
0.580386
0.580397
0.580409
0.580421
0.580432
0.580432
0.580444
0.580455
0.580467
0.580479
0.580479
0.58049
0.580502
0.580514
0.580525
0.580525
0.580537
0.580549
0.58056
0.580572
0.580572
0.580584
0.580596
0.580608
0.580619
0.580619
0.580631
0.580643
0.580655
0.580667
0.580667
0.580679
0.580691
0.580702
0.580714
0.580714
0.580726
0.580738
0.58075
0.580762
0.580762
0.580774
0.580786
0.580798
0.58081
0.58081
0.580822
0.580834
0.580846
0.580858
0.580858
0.58087
0.580883
0.580895
0.580907
0.580907
0.580919
0.580931
0.580943
0.580955
0.580955
0.580968
0.58098
0.580992
0.581004
0.581004
0.581017
0.581029
0.581041
0.581053
0.581053
0.581066
0.581078
0.58109
0.581103
0.581103
0.581115
0.581128
0.58114
0.581152
0.581152
0.581165
0.581177
0.58119
0.581202
0.581202
0.581215
0.581227
0.58124
0.581252
0.581252
0.581265
0.581277
0.58129
0.581303
0.581303
0.581315
0.581328
0.58134
0.581353
0.581353
0.581366
0.581378
0.581391
0.581404
0.581404
0.581416
0.581429
0.581442
0.581455
0.581455
0.581467
0.58148
0.581493
0.581506
0.581506
0.581519
0.581532
0.581544
0.581557
0.581557
0.58157
0.581583
0.581596
0.581609
0.581609
0.581622
0.581635
0.581648
0.581661
0.581661
0.581674
0.581687
0.5817
0.581713
0.581713
0.581726
0.581739
0.581752
0.581765
0.581765
0.581779
0.581792
0.581805
0.581818
0.581818
0.581831
0.581845
0.581858
0.581871
0.581871
0.581884
0.581898
0.581911
0.581924
0.581924
0.581937
0.581951
0.581964
0.581977
0.581977
0.581991
0.582004
0.582018
0.582031
0.582031
0.582044
0.582058
0.582071
0.582085
0.582085
0.582098
0.582112
0.582125
0.582139
0.582139
0.582153
0.582166
0.58218
0.582193
0.582193
0.582207
0.582221
0.582234
0.582248
0.582248
0.582262
0.582275
0.582289
0.582303
0.582303
0.582317
0.58233
0.582344
0.582358
0.582358
0.582372
0.582386
0.582399
0.582413
0.582413
0.582427
0.582441
0.582455
0.582469
0.582469
0.582483
0.582497
0.582511
0.582525
0.582525
0.582539
0.582553
0.582567
0.582581
0.582581
0.582595
0.582609
0.582623
0.582637
0.582637
0.582652
0.582666
0.58268
0.582694
0.582694
0.582708
0.582722
0.582737
0.582751
0.582751
0.582765
0.58278
0.582794
0.582808
0.582808
0.582823
0.582837
0.582851
0.582866
0.582866
0.58288
0.582894
0.582909
0.582923
0.582923
0.582938
0.582952
0.582967
0.582981
0.582981
0.582996
0.58301
0.583025
0.58304
0.58304
0.583054
0.583069
0.583083
0.583098
0.583098
0.583113
0.583128
0.583142
0.583157
0.583157
0.583172
0.583186
0.583201
0.583216
0.583216
0.583231
0.583246
0.58326
0.583275
0.583275
0.58329
0.583305
0.58332
0.583335
0.583335
0.58335
0.583365
0.58338
0.583395
0.583395
0.58341
0.583425
0.58344
0.583455
0.583455
0.58347
0.583485
0.5835
0.583516
0.583516
0.583531
0.583546
0.583561
0.583576
0.583576
0.583592
0.583607
0.583622
0.583637
0.583637
0.583653
0.583668
0.583683
0.583699
0.583699
0.583714
0.583729
0.583745
0.58376
0.58376
0.583776
0.583791
0.583807
0.583822
0.583822
0.583838
0.583853
0.583869
0.583884
0.583884
0.5839
0.583915
0.583931
0.583947
0.583947
0.583962
0.583978
0.583994
0.58401
0.58401
0.584025
0.584041
0.584057
0.584073
0.584073
0.584088
0.584104
0.58412
0.584136
0.584136
0.584152
0.584168
0.584184
0.5842
0.5842
0.584216
0.584231
0.584247
0.584263
0.584263
0.58428
0.584296
0.584312
0.584328
0.584328
0.584344
0.58436
0.584376
0.584392
0.584392
0.584408
0.584425
0.584441
0.584457
0.584457
0.584473
0.58449
0.584506
0.584522
0.584522
0.584539
0.584555
0.584571
0.584588
0.584588
0.584604
0.58462
0.584637
0.584653
0.584653
0.58467
0.584686
0.584703
0.584719
0.584719
0.584736
0.584753
0.584769
0.584786
0.584786
0.584802
0.584819
0.584836
0.584853
0.584853
0.584869
0.584886
0.584903
0.584919
0.584919
0.584936
0.584953
0.58497
0.584987
0.584987
0.585004
0.585021
0.585037
0.585054
0.585054
0.585071
0.585088
0.585105
0.585122
0.585122
0.585139
0.585156
0.585174
0.585191
0.585191
0.585208
0.585225
0.585242
0.585259
0.585259
0.585276
0.585294
0.585311
0.585328
0.585328
0.585345
0.585363
0.58538
0.585397
0.585397
0.585415
0.585432
0.585449
0.585467
0.585467
0.585484
0.585502
0.585519
0.585537
0.585537
0.585554
0.585572
0.585589
0.585607
0.585607
0.585624
0.585642
0.58566
0.585677
0.585677
0.585695
0.585713
0.585731
0.585748
0.585748
0.585766
0.585784
0.585802
0.585819
0.585819
0.585837
0.585855
0.585873
0.585891
0.585891
0.585909
0.585927
0.585945
0.585963
0.585963
0.585981
0.585999
0.586017
0.586035
0.586035
0.586053
0.586071
0.586089
0.586108
0.586108
0.586126
0.586144
0.586162
0.58618
0.58618
0.586199
0.586217
0.586235
0.586254
0.586254
0.586272
0.58629
0.586309
0.586327
0.586327
0.586346
0.586364
0.586383
0.586401
0.586401
0.58642
0.586438
0.586457
0.586475
0.586475
0.586494
0.586513
0.586531
0.58655
0.58655
0.586569
0.586587
0.586606
0.586625
0.586625
0.586644
0.586663
0.586681
0.5867
0.5867
0.586719
0.586738
0.586757
0.586776
0.586776
0.586795
0.586814
0.586833
0.586852
0.586852
0.586871
0.58689
0.586909
0.586928
0.586928
0.586947
0.586967
0.586986
0.587005
0.587005
0.587024
0.587044
0.587063
0.587082
0.587082
0.587101
0.587121
0.58714
0.58716
0.58716
0.587179
0.587198
0.587218
0.587237
0.587237
0.587257
0.587276
0.587296
0.587316
0.587316
0.587335
0.587355
0.587374
0.587394
0.587394
0.587414
0.587434
0.587453
0.587473
0.587473
0.587493
0.587513
0.587533
0.587552
0.587552
0.587572
0.587592
0.587612
0.587632
0.587632
0.587652
0.587672
0.587692
0.587712
0.587712
0.587732
0.587752
0.587772
0.587793
0.587793
0.587813
0.587833
0.587853
0.587873
0.587873
0.587894
0.587914
0.587934
0.587955
0.587955
0.587975
0.587995
0.588016
0.588036
0.588036
0.588057
0.588077
0.588098
0.588118
0.588118
0.588139
0.588159
0.58818
0.5882
0.5882
0.588221
0.588242
0.588262
0.588283
0.588283
0.588304
0.588325
0.588345
0.588366
0.588366
0.588387
0.588408
0.588429
0.58845
0.58845
0.588471
0.588492
0.588513