<?xml version="1.0"?>
<VTKFile type="UnstructuredGrid" version="0.1" byte_order="LittleEndian">
<UnstructuredGrid>
<Piece NumberOfPoints="5000" NumberOfCells="4000">
<PointData Scalars="Reaction 0">
<DataArray type="Float32" Name="Reaction 0" format="ascii">
0.57091
0.57091
0.57091
0.57091
0.57091
0.57091
0.57091
0.57091
0.57091
0.57091
0.57091
0.57091
0.57091
0.57091
0.57091
0.57091
0.57091
0.57091
0.57091
0.57091
0.57091
0.57091
0.57091
0.57091
0.57091
0.57091
0.57091
0.57091
0.57091
0.57091
0.57091
0.57091
0.570911
0.570911
0.570911
0.570911
0.570911
0.570911
0.570911
0.570911
0.570911
0.570911
0.570911
0.570911
0.570911
0.570911
0.570911
0.570911
0.570912
0.570912
0.570912
0.570912
0.570912
0.570912
0.570912
0.570912
0.570912
0.570912
0.570912
0.570912
0.570912
0.570913
0.570913
0.570913
0.570913
0.570913
0.570913
0.570913
0.570913
0.570913
0.570913
0.570914
0.570914
0.570914
0.570914
0.570914
0.570914
0.570914
0.570914
0.570914
0.570914
0.570915
0.570915
0.570915
0.570915
0.570915
0.570915
0.570915
0.570916
0.570916
0.570916
0.570916
0.570916
0.570916
0.570916
0.570916
0.570917
0.570917
0.570917
0.570917
0.570917
0.570917
0.570918
0.570918
0.570918
0.570918
0.570918
0.570918
0.570919
0.570919
0.570919
0.570919
0.570919
0.570919
0.57092
0.57092
0.57092
0.57092
0.57092
0.57092
0.57092
0.570921
0.570921
0.570921
0.570921
0.570921
0.570922
0.570922
0.570922
0.570922
0.570922
0.570923
0.570923
0.570923
0.570923
0.570923
0.570924
0.570924
0.570924
0.570924
0.570924
0.570925
0.570925
0.570925
0.570925
0.570925
0.570926
0.570926
0.570926
0.570926
0.570926
0.570927
0.570927
0.570927
0.570928
0.570928
0.570928
0.570928
0.570928
0.570929
0.570929
0.570929
0.570929
0.57093
0.57093
0.57093
0.57093
0.570931
0.570931
0.570931
0.570931
0.570931
0.570932
0.570932
0.570932
0.570932
0.570933
0.570933
0.570933
0.570934
0.570934
0.570934
0.570934
0.570935
0.570935
0.570935
0.570935
0.570936
0.570936
0.570937
0.570937
0.570937
0.570937
0.570938
0.570938
0.570938
0.570938
0.570939
0.570939
0.570939
0.570939
0.57094
0.57094
0.570941
0.570941
0.570941
0.570941
0.570942
0.570942
0.570942
0.570942
0.570943
0.570943
0.570944
0.570944
0.570944
0.570944
0.570945
0.570945
0.570946
0.570946
0.570946
0.570946
0.570947
0.570947
0.570947
0.570948
0.570948
0.570949
0.570949
0.570949
0.570949
0.57095
0.57095
0.570951
0.570951
0.570951
0.570952
0.570952
0.570952
0.570952
0.570953
0.570953
0.570954
0.570954
0.570954
0.570955
0.570955
0.570956
0.570956
0.570956
0.570957
0.570957
0.570958
0.570958
0.570958
0.570958
0.570959
0.570959
0.57096
0.57096
0.57096
0.570961
0.570961
0.570962
0.570962
0.570962
0.570963
0.570963
0.570964
0.570964
0.570964
0.570965
0.570965
0.570966
0.570966
0.570966
0.570967
0.570967
0.570968
0.570968
0.570969
0.570969
0.57097
0.57097
0.57097
0.570971
0.570971
0.570972
0.570972
0.570972
0.570973
0.570973
0.570974
0.570974
0.570974
0.570975
0.570976
0.570976
0.570977
0.570977
0.570977
0.570978
0.570978
0.570979
0.570979
0.570979
0.57098
0.570981
0.570981
0.570981
0.570982
0.570982
0.570983
0.570984
0.570984
0.570984
0.570985
0.570985
0.570986
0.570986
0.570986
0.570987
0.570988
0.570988
0.570988
0.570989
0.57099
0.57099
0.570991
0.570991
0.570991
0.570992
0.570993
0.570993
0.570993
0.570994
0.570995
0.570995
0.570996
0.570996
0.570996
0.570997
0.570998
0.570998
0.570998
0.570999
0.571
0.571
0.571001
0.571001
0.571002
0.571002
0.571003
0.571004
0.571004
0.571004
0.571005
0.571006
0.571006
0.571006
0.571007
0.571008
0.571008
0.571009
0.571009
0.57101
0.57101
0.571011
0.571012
0.571012
0.571012
0.571013
0.571014
0.571015
0.571015
0.571015
0.571016
0.571017
0.571017
0.571017
0.571018
0.571019
0.571019
0.57102
0.57102
0.571021
0.571022
0.571022
0.571023
0.571023
0.571024
0.571025
0.571025
0.571026
0.571026
0.571027
0.571027
0.571028
0.571029
0.571029
0.57103
0.57103
0.571031
0.571032
0.571032
0.571033
0.571034
0.571034
0.571035
0.571035
0.571036
0.571037
0.571037
0.571038
0.571038
0.571039
0.57104
0.571041
0.571041
0.571041
0.571042
0.571043
0.571044
0.571045
0.571045
0.571045
0.571046
0.571047
0.571048
0.571048
0.571049
0.571049
0.57105
0.571051
0.571051
0.571052
0.571053
0.571054
0.571054
0.571054
0.571055
0.571056
0.571057
0.571058
0.571058
0.571059
0.571059
0.57106
0.571061
0.571061
0.571062
0.571063
0.571064
0.571064
0.571064
0.571065
0.571066
0.571067
0.571068
0.571068
0.571069
0.57107
0.571071
0.571071
0.571071
0.571072
0.571073
0.571074
0.571075
0.571075
0.571076
0.571077
0.571078
0.571079
0.571079
0.571079
0.57108
0.571081
0.571082
0.571082
0.571083
0.571084
0.571085
0.571086
0.571086
0.571087
0.571088
0.571089
0.571089
0.571089
0.57109
0.571091
0.571092
0.571093
0.571093
0.571094
0.571095
0.571096
0.571097
0.571097
0.571098
0.571099
0.5711
0.571101
0.571101
0.571102
0.571103
0.571104
0.571105
0.571105
0.571106
0.571107
0.571108
0.571108
0.571108
0.571109
0.57111
0.571111
0.571112
0.571112
0.571113
0.571114
0.571115
0.571116
0.571116
0.571117
0.571118
0.571119
0.57112
0.57112
0.571121
0.571122
0.571123
0.571124
0.571124
0.571125
0.571126
0.571127
0.571129
0.571129
0.57113
0.571131
0.571132
0.571133
0.571133
0.571134
0.571135
0.571136
0.571137
0.571137
0.571138
0.571139
0.57114
0.571141
0.571141
0.571142
0.571143
0.571144
0.571145
0.571145
0.571146
0.571147
0.571149
0.57115
0.57115
0.571151
0.571152
0.571153
0.571154
0.571154
0.571155
0.571156
0.571157
0.571158
0.571158
0.571159
0.571161
0.571162
0.571163
0.571163
0.571164
0.571165
0.571166
0.571167
0.571167
0.571168
0.571169
0.571171
0.571172
0.571172
0.571173
0.571174
0.571175
0.571176
0.571176
0.571177
0.571178
0.57118
0.571181
0.571181
0.571182
0.571183
0.571184
0.571185
0.571185
0.571187
0.571188
0.571189
0.57119
0.57119
0.571191
0.571192
0.571194
0.571195
0.571195
0.571196
0.571197
0.571198
0.571199
0.571199
0.571201
0.571202
0.571203
0.571204
0.571204
0.571205
0.571207
0.571208
0.571209
0.571209
0.57121
0.571211
0.571213
0.571214
0.571214
0.571215
0.571216
0.571218
0.571219
0.571219
0.57122
0.571221
0.571223
0.571224
0.571224
0.571225
0.571226
0.571228
0.571229
0.571229
0.57123
0.571231
0.571233
0.571234
0.571234
0.571235
0.571236
0.571238
0.571239
0.571239
0.57124
0.571241
0.571243
0.571244
0.571244
0.571245
0.571247
0.571248
0.571249
0.571249
0.57125
0.571252
0.571253
0.571254
0.571254
0.571256
0.571257
0.571258
0.57126
0.57126
0.571261
0.571262
0.571264
0.571265
0.571265
0.571266
0.571268
0.571269
0.57127
0.57127
0.571272
0.571273
0.571274
0.571276
0.571276
0.571277
0.571278
0.57128
0.571281
0.571281
0.571282
0.571284
0.571285
0.571286
0.571286
0.571288
0.571289
0.57129
0.571292
0.571292
0.571293
0.571295
0.571296
0.571297
0.571297
0.571299
0.5713
0.571302
0.571303
0.571303
0.571304
0.571306
0.571307
0.571309
0.571309
0.57131
0.571311
0.571313
0.571314
0.571314
0.571316
0.571317
0.571319
0.57132
0.57132
0.571321
0.571323
0.571324
0.571326
0.571326
0.571327
0.571329
0.57133
0.571332
0.571332
0.571333
0.571334
0.571336
0.571337
0.571337
0.571339
0.57134
0.571342
0.571343
0.571343
0.571345
0.571346
0.571348
0.571349
0.571349
0.571351
0.571352
0.571354
0.571355
0.571355
0.571357
0.571358
0.57136
0.571361
0.571361
0.571363
0.571364
0.571366
0.571367
0.571367
0.571369
0.57137
0.571372
0.571373
0.571373
0.571375
0.571376
0.571378
0.571379
0.571379
0.571381
0.571383
0.571384
0.571386
0.571386
0.571387
0.571389
0.57139
0.571392
0.571392
0.571393
0.571395
0.571396
0.571398
0.571398
0.5714
0.571401
0.571403
0.571404
0.571404
0.571406
0.571408
0.571409
0.571411
0.571411
0.571412
0.571414
0.571416
0.571417
0.571417
0.571419
0.57142
0.571422
0.571424
0.571424
0.571425
0.571427
0.571429
0.57143
0.57143
0.571432
0.571433
0.571435
0.571437
0.571437
0.571438
0.57144
0.571442
0.571443
0.571443
0.571445
0.571447
0.571448
0.57145
0.57145
0.571452
0.571453
0.571455
0.571457
0.571457
0.571458
0.57146
0.571462
0.571463
0.571463
0.571465
0.571467
0.571468
0.57147
0.57147
0.571472
0.571473
0.571475
0.571477
0.571477
0.571479
0.57148
0.571482
0.571484
0.571484
0.571485
0.571487
0.571489
0.571491
0.571491
0.571492
0.571494
0.571496
0.571497
0.571497
0.571499
0.571501
0.571503
0.571504
0.571504
0.571506
0.571508
0.57151
0.571512
0.571512
0.571513
0.571515
0.571517
0.571519
0.571519
0.57152
0.571522
0.571524
0.571526
0.571526
0.571528
0.571529
0.571531
0.571533
0.571533
0.571535
0.571537
0.571538
0.57154
0.57154
0.571542
0.571544
0.571546
0.571547
0.571547
0.571549
0.571551
0.571553
0.571555
0.571555
0.571557
0.571558
0.57156
0.571562
0.571562
0.571564
0.571566
0.571568
0.57157
0.57157
0.571571
0.571573
0.571575
0.571577
0.571577
0.571579
0.571581
0.571583
0.571584
0.571584
0.571586
0.571588
0.57159
0.571592
0.571592
0.571594
0.571596
0.571598
0.5716
0.5716
0.571601
0.571603
0.571605
0.571607
0.571607
0.571609
0.571611
0.571613
0.571615
0.571615
0.571617
0.571619
0.571621
0.571623
0.571623
0.571625
0.571627
0.571629
0.57163
0.57163
0.571632
0.571634
0.571636
0.571638
0.571638
0.57164
0.571642
0.571644
0.571646
0.571646
0.571648
0.57165
0.571652
0.571654
0.571654
0.571656
0.571658
0.57166
0.571662
0.571662
0.571664
0.571666
0.571668
0.57167
0.57167
0.571672
0.571674
0.571676
0.571678
0.571678
0.57168
0.571682
0.571684
0.571686
0.571686
0.571688
0.57169
0.571692
0.571694
0.571694
0.571696
0.571699
0.571701
0.571703
0.571703
0.571705
0.571707
0.571709
0.571711
0.571711
0.571713
0.571715
0.571717
0.571719
0.571719
0.571721
0.571723
0.571726
0.571728
0.571728
0.57173
0.571732
0.571734
0.571736
0.571736
0.571738
0.57174
0.571742
0.571745
0.571745
0.571747
0.571749
0.571751
0.571753
0.571753
0.571755
0.571757
0.57176
0.571762
0.571762
0.571764
0.571766
0.571768
0.57177
0.57177
0.571772
0.571775
0.571777
0.571779
0.571779
0.571781
0.571783
0.571785
0.571788
0.571788
0.57179
0.571792
0.571794
0.571796
0.571796
0.571799
0.571801
0.571803
0.571805
0.571805
0.571807
0.57181
0.571812
0.571814
0.571814
0.571816
0.571818
0.571821
0.571823
0.571823
0.571825
0.571827
0.57183
0.571832
0.571832
0.571834
0.571836
0.571839
0.571841
0.571841
0.571843
0.571846
0.571848
0.57185
0.57185
0.571852
0.571855
0.571857
0.571859
0.571859
0.571861
0.571864
0.571866
0.571868
0.571868
0.571871
0.571873
0.571875
0.571878
0.571878
0.57188
0.571882
0.571884
0.571887
0.571887
0.571889
0.571891
0.571894
0.571896
0.571896
0.571898
0.571901
0.571903
0.571905
0.571905
0.571908
0.57191
0.571913
0.571915
0.571915
0.571917
0.57192
0.571922
0.571924
0.571924
0.571927
0.571929
0.571932
0.571934
0.571934
0.571936
0.571939
0.571941
0.571944
0.571944
0.571946
0.571948
0.571951
0.571953
0.571953
0.571956
0.571958
0.57196
0.571963
0.571963
0.571965
0.571968
0.57197
0.571973
0.571973
0.571975
0.571978
0.57198
0.571982
0.571982
0.571985
0.571987
0.57199
0.571992
0.571992
0.571995
0.571997
0.572
0.572002
0.572002
0.572005
0.572007
0.57201
0.572012
0.572012
0.572015
0.572017
0.57202
0.572022
0.572022
0.572025
0.572027
0.57203
0.572032
0.572032
0.572035
0.572037
0.57204
0.572042
0.572042
0.572045
0.572047
0.57205
0.572053
0.572053
0.572055
0.572058
0.57206
0.572063
0.572063
0.572065
0.572068
0.57207
0.572073
0.572073
0.572076
0.572078
0.572081
0.572083
0.572083
0.572086
0.572089
0.572091
0.572094
0.572094
0.572096
0.572099
0.572102
0.572104
0.572104
0.572107
0.572109
0.572112
0.572115
0.572115
0.572117
0.57212
0.572123
0.572125
0.572125
0.572128
0.57213
0.572133
0.572136
0.572136
0.572138
0.572141
0.572144
0.572146
0.572146
0.572149
0.572152
0.572155
0.572157
0.572157
0.57216
0.572163
0.572165
0.572168
0.572168
0.572171
0.572173
0.572176
0.572179
0.572179
0.572182
0.572184
0.572187
0.57219
0.57219
0.572193
0.572195
0.572198
0.572201
0.572201
0.572203
0.572206
0.572209
0.572212
0.572212
0.572214
0.572217
0.57222
0.572223
0.572223
0.572226
0.572228
0.572231
0.572234
0.572234
0.572237
0.572239
0.572242
0.572245
0.572245
0.572248
0.572251
0.572253
0.572256
0.572256
0.572259
0.572262
0.572265
0.572268
0.572268
0.57227
0.572273
0.572276
0.572279
0.572279
0.572282
0.572285
0.572288
0.57229
0.57229
0.572293
0.572296
0.572299
0.572302
0.572302
0.572305
0.572308
0.57231
0.572313
0.572313
0.572316
0.572319
0.572322
0.572325
0.572325
0.572328
0.572331
0.572334
0.572337
0.572337
0.572339
0.572342
0.572345
0.572348
0.572348
0.572351
0.572354
0.572357
0.57236
0.57236
0.572363
0.572366
0.572369
0.572372
0.572372
0.572375
0.572378
0.572381
0.572384
0.572384
0.572387
0.57239
0.572393
0.572396
0.572396
0.572399
0.572402
0.572405
0.572408
0.572408
0.572411
0.572414
0.572417
0.57242
0.57242
0.572423
0.572426
0.572429
0.572432
0.572432
0.572435
0.572438
0.572441
0.572444
0.572444
0.572447
0.57245
0.572453
0.572456
0.572456
0.572459
0.572462
0.572465
0.572469
0.572469
0.572472
0.572475
0.572478
0.572481
0.572481
0.572484
0.572487
0.57249
0.572493
0.572493
0.572497
0.5725
0.572503
0.572506
0.572506
0.572509
0.572512
0.572515
0.572518
0.572518
0.572522
0.572525
0.572528
0.572531
0.572531
0.572534
0.572537
0.572541
0.572544
0.572544
0.572547
0.57255
0.572553
0.572556
0.572556
0.57256
0.572563
0.572566
0.572569
0.572569
0.572572
0.572576
0.572579
0.572582
0.572582
0.572585
0.572589
0.572592
0.572595
0.572595
0.572598
0.572602
0.572605
0.572608
0.572608
0.572611
0.572615
0.572618
0.572621
0.572621
0.572624
0.572628
0.572631
0.572634
0.572634
0.572638
0.572641
0.572644
0.572647
0.572647
0.572651
0.572654
0.572657
0.572661
0.572661
0.572664
0.572667
0.572671
0.572674
0.572674
0.572677
0.572681
0.572684
0.572687
0.572687
0.572691
0.572694
0.572697
0.572701
0.572701
0.572704
0.572707
0.572711
0.572714
0.572714
0.572718
0.572721
0.572724
0.572728
0.572728
0.572731
0.572735
0.572738
0.572741
0.572741
0.572745
0.572748
0.572752
0.572755
0.572755
0.572759
0.572762
0.572766
0.572769
0.572769
0.572772
0.572776
0.572779
0.572783
0.572783
0.572786
0.57279
0.572793
0.572797
0.572797
0.5728
0.572804
0.572807
0.572811
0.572811
0.572814
0.572818
0.572821
0.572825
0.572825
0.572828
0.572832
0.572835
0.572839
0.572839
0.572842
0.572846
0.572849
0.572853
0.572853
0.572857
0.57286
0.572864
0.572867
0.572867
0.572871
0.572874
0.572878
0.572882
0.572882
0.572885
0.572889
0.572892
0.572896
0.572896
0.572899
0.572903
0.572907
0.57291
0.57291
0.572914
0.572917
0.572921
0.572925
0.572925
0.572928
0.572932
0.572936
0.572939
0.572939
0.572943
0.572947
0.57295
0.572954
0.572954
0.572958
0.572961
0.572965
0.572969
0.572969
0.572972
0.572976
0.57298
0.572984
0.572984
0.572987
0.572991
0.572995
0.572998
0.572998
0.573002
0.573006
0.57301
0.573013
0.573013
0.573017
0.573021
0.573025
0.573028
0.573028
0.573032
0.573036
0.57304
0.573043
0.573043
0.573047
0.573051
0.573055
0.573058
0.573058
0.573062
0.573066
0.57307
0.573074
0.573074
0.573078
0.573081
0.573085
0.573089
0.573089
0.573093
0.573097
0.573101
0.573104
0.573104
0.573108
0.573112
0.573116
0.57312
0.57312
0.573124
0.573128
0.573131
0.573135
0.573135
0.573139
0.573143
0.573147
0.573151
0.573151
0.573155
0.573159
0.573163
0.573166
0.573166
0.57317
0.573174
0.573178
0.573182
0.573182
0.573186
0.57319
0.573194
0.573198
0.573198
0.573202
0.573206
0.57321
0.573214
0.573214
0.573218
0.573222
0.573226
0.57323
0.57323
0.573234
0.573238
0.573242
0.573246
0.573246
0.57325
0.573254
0.573258
0.573262
0.573262
0.573266
0.57327
0.573274
0.573278
0.573278
0.573282
0.573286
0.57329
0.573294
0.573294
0.573298
0.573302
0.573306
0.573311
0.573311
0.573315
0.573319
0.573323
0.573327
0.573327
0.573331
0.573335
0.573339
0.573343
0.573343
0.573348
0.573352
0.573356
0.57336
0.57336
0.573364
0.573368
0.573372
0.573377
0.573377
0.573381
0.573385
0.573389
0.573393
0.573393
0.573397
0.573402
0.573406
0.57341
0.57341
0.573414
0.573418
0.573423
0.573427
0.573427
0.573431
0.573435
0.57344
0.573444
0.573444
0.573448
0.573452
0.573457
0.573461
0.573461
0.573465
0.573469
0.573474
0.573478
0.573478
0.573482
0.573487
0.573491
0.573495
0.573495
0.573499
0.573504
0.573508
0.573512
0.573512
0.573517
0.573521
0.573525
0.57353
0.57353
0.573534
0.573538
0.573543
0.573547
0.573547
0.573551
0.573556
0.57356
0.573565
0.573565
0.573569
0.573573
0.573578
0.573582
0.573582
0.573587
0.573591
0.573595
0.5736
0.5736
0.573604
0.573609
0.573613
0.573617
0.573617
0.573622
0.573626
0.573631
0.573635
0.573635
0.57364
0.573644
0.573649
0.573653
0.573653
0.573658
0.573662
0.573667
0.573671
0.573671
0.573676
0.57368
0.573685
0.573689
0.573689
0.573694
0.573698
0.573703
0.573707
0.573707
0.573712
0.573716
0.573721
0.573726
0.573726
0.57373
0.573735
0.573739
0.573744
0.573744
0.573748
0.573753
0.573758
0.573762
0.573762
0.573767
0.573771
0.573776
0.573781
0.573781
0.573785
0.57379
0.573795
0.573799
0.573799
0.573804
0.573808
0.573813
0.573818
0.573818
0.573822
0.573827
0.573832
0.573837
0.573837
0.573841
0.573846
0.573851
0.573855
0.573855
0.57386
0.573865
0.57387
0.573874
0.573874
0.573879
0.573884
0.573888
0.573893
0.573893
0.573898
0.573903
0.573908
0.573912
0.573912
0.573917
0.573922
0.573927
0.573931
0.573931
0.573936
0.573941
0.573946
0.573951
0.573951
0.573955
0.57396
0.573965
0.57397
0.57397
0.573975
0.57398
0.573985
0.573989
0.573989
0.573994
0.573999
0.574004
0.574009
0.574009
0.574014
0.574019
0.574024
0.574028
0.574028
0.574033
0.574038
0.574043
0.574048
0.574048
0.574053
0.574058
0.574063
0.574068
0.574068
0.574073
0.574078
0.574083
0.574088
0.574088
0.574093
0.574098
0.574103
0.574108
0.574108
0.574113
0.574118
0.574123
0.574128
0.574128
0.574133
0.574138
0.574143
0.574148
0.574148
0.574153
0.574158
0.574163
0.574168
0.574168
0.574173
0.574178
0.574183
0.574188
0.574188
0.574193
0.574199
0.574204
0.574209
0.574209
0.574214
0.574219
0.574224
0.574229
0.574229
0.574234
0.57424
0.574245
0.57425
0.57425
0.574255
0.57426
0.574265
0.574271
0.574271
0.574276
0.574281
0.574286
0.574291
0.574291
0.574297
0.574302
0.574307
0.574312
0.574312
0.574317
0.574323
0.574328
0.574333
0.574333
0.574338
0.574344
0.574349
0.574354
0.574354
0.574359
0.574365
0.57437
0.574375
0.574375
0.574381
0.574386
0.574391
0.574397
0.574397
0.574402
0.574407
0.574413
0.574418
0.574418
0.574423
0.574429
0.574434
0.574439
0.574439
0.574445
0.57445
0.574455
0.574461
0.574461
0.574466
0.574472
0.574477
0.574482
0.574482
0.574488
0.574493
0.574499
0.574504
0.574504
0.57451
0.574515
0.574521
0.574526
0.574526
0.574531
0.574537
0.574542
0.574548
0.574548
0.574553
0.574559
0.574564
0.57457
0.57457
0.574576
0.574581
0.574587
0.574592
0.574592
0.574598
0.574603
0.574609
0.574614
0.574614
0.57462
0.574625
0.574631
0.574637
0.574637
0.574642
0.574648
0.574653
0.574659
0.574659
0.574665
0.57467
0.574676
0.574682
0.574682
0.574687
0.574693
0.574699
0.574704
0.574704
0.57471
0.574716
0.574721
0.574727
0.574727
0.574733
0.574738
0.574744
0.57475
0.57475
0.574755
0.574761
0.574767
0.574773
0.574773
0.574778
0.574784
0.57479
0.574796
0.574796
0.574801
0.574807
0.574813
0.574819
0.574819
0.574825
0.57483
0.574836
0.574842
0.574842
0.574848
0.574854
0.57486
0.574865
0.574865
0.574871
0.574877
0.574883
0.574889
0.574889
0.574895
0.574901
0.574906
0.574912
0.574912
0.574918
0.574924
0.57493
0.574936
0.574936
0.574942
0.574948
0.574954
0.57496
0.57496
0.574966
0.574972
0.574978
0.574984
0.574984
0.57499
0.574996
0.575002
0.575008
0.575008
0.575014
0.57502
0.575026
0.575032
0.575032
0.575038
0.575044
0.57505
0.575056
0.575056
0.575062
0.575068
0.575074
0.57508
0.57508
0.575086
0.575092
0.575098
0.575105
0.575105
0.575111
0.575117
0.575123
0.575129
0.575129
0.575135
0.575141
0.575148
0.575154
0.575154
0.57516
0.575166
0.575172
0.575179
0.575179
0.575185
0.575191
0.575197
0.575203
0.575203
0.57521
0.575216
0.575222
0.575228
0.575228
0.575235
0.575241
0.575247
0.575253
0.575253
0.57526
0.575266
0.575272
0.575279
0.575279
0.575285
0.575291
0.575298
0.575304
0.575304
0.57531
0.575317
0.575323
0.575329
0.575329
0.575336
0.575342
0.575348
0.575355
0.575355
0.575361
0.575368
0.575374
0.57538
0.57538
0.575387
0.575393
0.5754
0.575406
0.575406
0.575413
0.575419
0.575426
0.575432
0.575432
0.575439
0.575445
0.575452
0.575458
0.575458
0.575465
0.575471
0.575478
0.575484
0.575484
0.575491
0.575497
0.575504
0.57551
0.57551
0.575517
0.575524
0.57553
0.575537
0.575537
0.575543
0.57555
0.575557
0.575563
0.575563
0.57557
0.575576
0.575583
0.57559
0.57559
0.575596
0.575603
0.57561
0.575616
0.575616
0.575623
0.57563
0.575637
0.575643
0.575643
0.57565
0.575657
0.575663
0.57567
0.57567
0.575677
0.575684
0.57569
0.575697
0.575697
0.575704
0.575711
0.575718
0.575724
0.575724
0.575731
0.575738
0.575745
0.575752
0.575752
0.575759
0.575765
0.575772
0.575779
0.575779
0.575786
0.575793
0.5758
0.575807
0.575807
0.575814
0.57582
0.575827
0.575834
0.575834
0.575841
0.575848
0.575855
0.575862
0.575862
0.575869
0.575876
0.575883
0.57589
0.57589
0.575897
0.575904
0.575911
0.575918
0.575918
0.575925
0.575932
0.575939
0.575946
0.575946
0.575953
0.57596
0.575967
0.575975
0.575975
0.575982
0.575989
0.575996
0.576003
0.576003
0.57601
0.576017
0.576024
0.576031
0.576031
0.576039
0.576046
0.576053
0.57606
0.57606
0.576067
0.576075
0.576082
0.576089
0.576089
0.576096
0.576103
0.576111
0.576118
0.576118
0.576125
0.576132
0.57614
0.576147
0.576147
0.576154
0.576162
0.576169
0.576176
0.576176
0.576183
0.576191
0.576198
0.576205
0.576205
0.576213
0.57622
0.576228
0.576235
0.576235
0.576242
0.57625
0.576257
0.576265
0.576265
0.576272
0.576279
0.576287
0.576294
0.576294
0.576302
0.576309
0.576317
0.576324
0.576324
0.576332
0.576339
0.576347
0.576354
0.576354
0.576362
0.576369
0.576377
0.576384
0.576384
0.576392
0.576399
0.576407
0.576415
0.576415
0.576422
0.57643
0.576437
0.576445
0.576445
0.576453
0.57646
0.576468
0.576475
0.576475
0.576483
0.576491
0.576498
0.576506
0.576506
0.576514
0.576521
0.576529
0.576537
0.576537
0.576545
0.576552
0.57656
0.576568
0.576568
0.576576
0.576583
0.576591
0.576599
0.576599
0.576607
0.576615
0.576622
0.57663
0.57663
0.576638
0.576646
0.576654
0.576662
0.576662
0.576669
0.576677
0.576685
0.576693
0.576693
0.576701
0.576709
0.576717
0.576725
0.576725
0.576733
0.576741
0.576749
0.576756
0.576756
0.576764
0.576772
0.57678
0.576788
0.576788
0.576796
0.576804
0.576812
0.576821
0.576821
0.576829
0.576837
0.576845
0.576853
0.576853
0.576861
0.576869
0.576877
0.576885
0.576885
0.576893
0.576901
0.576909
0.576918
0.576918
0.576926
0.576934
0.576942
0.57695
0.57695
0.576958
0.576967
0.576975
0.576983
0.576983
0.576991
0.577
0.577008
0.577016
0.577016
0.577024
0.577033
0.577041
0.577049
0.577049
0.577057
0.577066
0.577074
0.577082
0.577082
0.577091
0.577099
0.577107
0.577116
0.577116
0.577124
0.577133
0.577141
0.577149
0.577149
0.577158
0.577166
0.577175
0.577183
0.577183
0.577192
0.5772
0.577208
0.577217
0.577217
0.577225
0.577234
0.577242
0.577251
0.577251
0.577259
0.577268
0.577277
0.577285
0.577285
0.577294
0.577302
0.577311
0.577319
0.577319
0.577328
0.577337
0.577345
0.577354
0.577354
0.577363
0.577371
0.57738
0.577389
0.577389
0.577397
0.577406
0.577415
0.577423
0.577423
0.577432
0.577441
0.57745
0.577458
0.577458
0.577467
0.577476
0.577485
0.577493
0.577493
0.577502
0.577511
0.57752
0.577529
0.577529
0.577538
0.577546
0.577555
0.577564
0.577564
0.577573
0.577582
0.577591
0.5776
0.5776
0.577609
0.577618
0.577626
0.577635
0.577635
0.577644
0.577653
0.577662
0.577671
0.577671
0.57768
0.577689
0.577698
0.577707
0.577707
0.577716
0.577726
0.577735
0.577744
0.577744
0.577753
0.577762
0.577771
0.57778
0.57778
0.577789
0.577798
0.577807
0.577817
0.577817
0.577826
0.577835
0.577844
0.577853
0.577853
0.577863
0.577872
0.577881
0.57789
0.57789
0.5779
0.577909
0.577918
0.577927
0.577927
0.577937
0.577946
0.577955
0.577965
0.577965
0.577974
0.577983
0.577993
0.578002
0.578002
0.578011
0.578021
0.57803
0.57804
0.57804
0.578049
0.578058
0.578068
0.578077
0.578077
0.578087
0.578096
0.578106
0.578115
0.578115
0.578125
0.578134
0.578144
0.578153
0.578153
0.578163
0.578172
0.578182
0.578192
0.578192
0.578201
0.578211
0.57822
0.57823
0.57823
0.57824
0.578249
0.578259
0.578269
0.578269
0.578278
0.578288
0.578298
0.578307
0.578307
0.578317
0.578327
0.578337
0.578346
0.578346
0.578356
0.578366
0.578376
0.578386
0.578386
0.578395
0.578405
0.578415
0.578425
0.578425
0.578435
0.578445
0.578455
0.578464
0.578464
0.578474
0.578484
0.578494
0.578504
0.578504
0.578514
0.578524
0.578534
0.578544
0.578544
0.578554
0.578564
0.578574
0.578584
0.578584
0.578594
0.578604
0.578614
0.578624
0.578624
0.578634
0.578644
0.578655
0.578665
0.578665
0.578675
0.578685
0.578695
0.578705
0.578705
0.578715
0.578726
0.578736
0.578746
0.578746
0.578756
0.578767
0.578777
0.578787
0.578787
0.578797
0.578808
0.578818
0.578828
0.578828
0.578839
0.578849
0.578859
0.57887
0.57887
0.57888
0.57889
0.578901
0.578911
0.578911
0.578922
0.578932
0.578942
0.578953
0.578953
0.578963
0.578974
0.578984
0.578995
0.578995
0.579005
0.579016
0.579026
0.579037
0.579037
0.579047
0.579058
0.579069
0.579079
0.579079
0.57909
0.5791
0.579111
0.579122
0.579122
0.579132
0.579143
0.579154
0.579164
0.579164
0.579175
0.579186
0.579197
0.579207
0.579207
0.579218
0.579229
0.57924
0.57925
0.57925
0.579261
0.579272
0.579283
0.579294
0.579294
0.579305
0.579315
0.579326
0.579337
0.579337
0.579348
0.579359
0.57937
0.579381
0.579381
0.579392
0.579403
0.579414
0.579425
0.579425
0.579436
0.579447
0.579458
0.579469
0.579469
0.57948
0.579491
0.579502
0.579513
0.579513
0.579524
0.579535
0.579546
0.579558
0.579558
0.579569
0.57958
0.579591
0.579602
0.579602
0.579614
0.579625
0.579636
0.579647
0.579647
0.579659
0.57967
0.579681
0.579692
0.579692
0.579704
0.579715
0.579726
0.579738
0.579738
0.579749
0.57976
0.579772
0.579783
0.579783
0.579795
0.579806
0.579818
0.579829
0.579829
0.57984
0.579852
0.579863
0.579875
0.579875
0.579886
0.579898
0.57991
0.579921
0.579921
0.579933
0.579944
0.579956
0.579968
0.579968
0.579979
0.579991
0.580002
0.580014
0.580014
0.580026
0.580037
0.580049
0.580061
0.580061
0.580073
0.580084
0.580096
0.580108
0.580108
0.58012
0.580132
0.580143
0.580155
0.580155
0.580167
0.580179
0.580191
0.580203
0.580203
0.580215
0.580226
0.580238
0.58025
0.58025
0.580262
0.580274
0.580286
0.580298
0.580298
0.58031
0.580322
0.580334
0.580346
0.580346
0.580359
0.580371
0.580383
0.580395
0.580395
0.580407
0.580419
0.580431
0.580443
0.580443
0.580456
0.580468
0.58048
0.580492
0.580492
0.580504
0.580517
0.580529
0.580541
0.580541
0.580554
0.580566
0.580578
0.58059
0.58059
0.580603
0.580615
0.580628
0.58064
0.58064
0.580652
0.580665
0.580677
0.58069
0.58069
0.580702
0.580715
0.580727
0.58074
0.58074
0.580752
0.580765
0.580777
0.58079
0.58079
0.580802
0.580815
0.580828
0.58084
0.58084
0.580853
0.580866
0.580878
0.580891
0.580891
0.580904
0.580916
0.580929
0.580942
0.580942
0.580955
0.580967
0.58098
0.580993
0.580993
0.581006
0.581019
0.581031
0.581044
0.581044
0.581057
0.58107
0.581083
0.581096
0.581096
0.581109
0.581122
0.581135
0.581148
0.581148
0.581161
0.581174
0.581187
0.5812
0.5812
0.581213
0.581226
0.581239
0.581252
0.581252
0.581265
0.581278
0.581292
0.581305
0.581305
0.581318
0.581331
0.581344
0.581358
0.581358
0.581371
0.581384
0.581397
0.581411
0.581411
0.581424
0.581437
0.581451
0.581464
0.581464
0.581477
0.581491
0.581504
0.581518
0.581518
0.581531
0.581544
0.581558
0.581571
0.581571
0.581585
0.581598
0.581612
0.581625
0.581625
0.581639
0.581653
0.581666
0.58168
0.58168
0.581693
0.581707
0.581721
0.581734
0.581734
0.581748
0.581762
0.581775
0.581789
0.581789
0.581803
0.581817
0.58183
0.581844
0.581844
0.581858
0.581872
0.581886
0.5819
0.5819
0.581913
0.581927
0.581941
0.581955
0.581955
0.581969
0.581983
0.581997
0.582011
0.582011
0.582025
0.582039
0.582053
0.582067
0.582067
0.582081
0.582095
0.582109
0.582124
0.582124
0.582138
0.582152
0.582166
0.58218
0.58218
0.582194
0.582209
0.582223
0.582237
0.582237
0.582251
0.582266
0.58228
0.582294
0.582294
0.582309
0.582323
0.582337
0.582352
0.582352
0.582366
0.582381
0.582395
0.58241
0.58241
0.582424
0.582439
0.582453
0.582468
0.582468
0.582482
0.582497
0.582511
0.582526
0.582526
0.58254
0.582555
0.58257
0.582584
0.582584
0.582599
0.582614
0.582629
0.582643
0.582643
0.582658
0.582673
0.582688
0.582702
0.582702
0.582717
0.582732
0.582747
0.582762
0.582762
0.582777
0.582792
0.582806
0.582821
0.582821
0.582836
0.582851
0.582866
0.582881
0.582881
0.582896
0.582911
0.582927
0.582942
0.582942
0.582957
0.582972
0.582987
0.583002
0.583002
0.583017
0.583033
0.583048
0.583063
0.583063
0.583078
0.583093
0.583109
0.583124
0.583124
0.583139
0.583155
0.58317
0.583185
0.583185
0.583201
0.583216
0.583232
0.583247
0.583247
0.583263
0.583278
0.583294
0.583309
0.583309
0.583325
0.58334
0.583356
0.583371
0.583371
0.583387
0.583403
0.583418
0.583434
0.583434
0.58345
0.583465
0.583481
0.583497
0.583497
0.583513
0.583528
0.583544
0.58356
0.58356
0.583576
0.583592
0.583607
0.583623
0.583623
0.583639
0.583655
0.583671
0.583687
0.583687
0.583703
0.583719
0.583735
0.583751
0.583751
0.583767
0.583783
0.583799
0.583815
0.583815
0.583832
0.583848
0.583864
0.58388
0.58388
0.583896
0.583913
0.583929
0.583945
0.583945
0.583961
0.583978
0.583994
0.58401
0.58401
0.584027
0.584043
0.58406
0.584076
0.584076
0.584092
0.584109
0.584125
0.584142
0.584142
0.584158
0.584175
0.584191
0.584208
0.584208
0.584225
0.584241
0.584258
0.584275
0.584275
0.584291
0.584308
0.584325
0.584341
0.584341
0.584358
0.584375
0.584392
0.584409
0.584409
0.584425
0.584442
0.584459
0.584476
0.584476
0.584493
0.58451
0.584527
0.584544
0.584544
0.584561
0.584578
0.584595
0.584612
0.584612
0.584629
0.584646
0.584663
0.58468
0.58468
0.584698
0.584715
0.584732
0.584749
0.584749
0.584766
0.584784
0.584801
0.584818
0.584818
0.584836
0.584853
0.58487
0.584888
0.584888
0.584905
0.584923
0.58494
0.584958
0.584958
0.584975
0.584993
0.58501
0.585028
0.585028
0.585045
0.585063
0.58508
0.585098
0.585098
0.585116
0.585133
0.585151
0.585169
0.585169
0.585187
0.585204
0.585222
0.58524
0.58524
0.585258
0.585276
0.585293
0.585311
0.585311
0.585329
0.585347
0.585365
0.585383
0.585383
0.585401
0.585419
0.585437
0.585455
0.585455
0.585473
0.585491
0.58551
0.585528
0.585528
0.585546
0.585564
0.585582
0.585601
0.585601
0.585619
0.585637
0.585655
0.585674
0.585674
0.585692
0.58571
0.585729
0.585747
0.585747
0.585766
0.585784
0.585803
0.585821
0.585821
0.58584
0.585858
0.585877
0.585895
0.585895
0.585914
0.585933
0.585951
0.58597
0.58597
0.585989
0.586007
0.586026
0.586045
0.586045
0.586064
0.586082
0.586101