<?xml version="1.0"?>
<VTKFile type="UnstructuredGrid" version="0.1" byte_order="LittleEndian">
<UnstructuredGrid>
<Piece NumberOfPoints="5000" NumberOfCells="4000">
<PointData Scalars="Reaction 0">
<DataArray type="Float32" Name="Reaction 0" format="ascii">
0.57237
0.57237
0.57237
0.57237
0.57237
0.57237
0.57237
0.57237
0.57237
0.57237
0.57237
0.57237
0.57237
0.57237
0.57237
0.57237
0.572371
0.572371
0.572371
0.572371
0.572371
0.572371
0.572371
0.572371
0.572371
0.572371
0.572371
0.572371
0.572371
0.572371
0.572371
0.572371
0.572371
0.572371
0.572371
0.572371
0.572371
0.572372
0.572372
0.572372
0.572372
0.572372
0.572372
0.572372
0.572372
0.572372
0.572372
0.572372
0.572372
0.572373
0.572373
0.572373
0.572373
0.572373
0.572373
0.572373
0.572373
0.572373
0.572373
0.572374
0.572374
0.572374
0.572374
0.572374
0.572374
0.572374
0.572374
0.572375
0.572375
0.572375
0.572375
0.572375
0.572375
0.572375
0.572376
0.572376
0.572376
0.572376
0.572376
0.572376
0.572376
0.572376
0.572377
0.572377
0.572377
0.572377
0.572377
0.572377
0.572378
0.572378
0.572378
0.572378
0.572378
0.572378
0.572379
0.572379
0.572379
0.572379
0.572379
0.57238
0.57238
0.57238
0.57238
0.57238
0.572381
0.572381
0.572381
0.572381
0.572381
0.572382
0.572382
0.572382
0.572382
0.572382
0.572383
0.572383
0.572383
0.572383
0.572383
0.572384
0.572384
0.572384
0.572384
0.572385
0.572385
0.572385
0.572385
0.572386
0.572386
0.572386
0.572386
0.572386
0.572387
0.572387
0.572387
0.572387
0.572388
0.572388
0.572388
0.572389
0.572389
0.572389
0.572389
0.57239
0.57239
0.57239
0.57239
0.572391
0.572391
0.572391
0.572391
0.572392
0.572392
0.572392
0.572393
0.572393
0.572393
0.572394
0.572394
0.572394
0.572394
0.572395
0.572395
0.572395
0.572396
0.572396
0.572396
0.572397
0.572397
0.572397
0.572397
0.572398
0.572398
0.572399
0.572399
0.572399
0.572399
0.5724
0.5724
0.572401
0.572401
0.572401
0.572402
0.572402
0.572402
0.572402
0.572403
0.572403
0.572404
0.572404
0.572404
0.572405
0.572405
0.572405
0.572406
0.572406
0.572406
0.572407
0.572407
0.572408
0.572408
0.572408
0.572409
0.572409
0.57241
0.57241
0.57241
0.572411
0.572411
0.572412
0.572412
0.572412
0.572413
0.572413
0.572414
0.572414
0.572414
0.572415
0.572415
0.572416
0.572416
0.572416
0.572417
0.572417
0.572418
0.572418
0.572418
0.572419
0.572419
0.57242
0.57242
0.57242
0.572421
0.572422
0.572422
0.572422
0.572423
0.572423
0.572424
0.572424
0.572424
0.572425
0.572426
0.572426
0.572427
0.572427
0.572427
0.572428
0.572428
0.572429
0.572429
0.57243
0.57243
0.572431
0.572431
0.572431
0.572432
0.572433
0.572433
0.572434
0.572434
0.572434
0.572435
0.572436
0.572436
0.572436
0.572437
0.572438
0.572438
0.572439
0.572439
0.572439
0.57244
0.572441
0.572441
0.572441
0.572442
0.572443
0.572443
0.572444
0.572444
0.572445
0.572445
0.572446
0.572447
0.572447
0.572447
0.572448
0.572449
0.572449
0.572449
0.57245
0.572451
0.572451
0.572452
0.572452
0.572453
0.572454
0.572454
0.572455
0.572455
0.572456
0.572456
0.572457
0.572458
0.572458
0.572459
0.572459
0.57246
0.572461
0.572461
0.572461
0.572462
0.572463
0.572464
0.572464
0.572464
0.572465
0.572466
0.572467
0.572467
0.572467
0.572468
0.572469
0.57247
0.57247
0.572471
0.572471
0.572472
0.572473
0.572473
0.572474
0.572474
0.572475
0.572476
0.572476
0.572477
0.572478
0.572478
0.572479
0.572479
0.57248
0.572481
0.572482
0.572482
0.572482
0.572483
0.572484
0.572485
0.572486
0.572486
0.572487
0.572487
0.572488
0.572489
0.572489
0.57249
0.572491
0.572492
0.572493
0.572493
0.572493
0.572494
0.572495
0.572496
0.572496
0.572497
0.572498
0.572499
0.572499
0.572499
0.5725
0.572501
0.572502
0.572503
0.572503
0.572504
0.572505
0.572506
0.572507
0.572507
0.572507
0.572508
0.572509
0.57251
0.57251
0.572511
0.572512
0.572513
0.572514
0.572514
0.572515
0.572516
0.572517
0.572518
0.572518
0.572519
0.572519
0.57252
0.572521
0.572521
0.572522
0.572523
0.572524
0.572525
0.572525
0.572526
0.572527
0.572528
0.572529
0.572529
0.57253
0.572531
0.572532
0.572533
0.572533
0.572534
0.572535
0.572536
0.572537
0.572537
0.572538
0.572539
0.57254
0.572541
0.572541
0.572542
0.572543
0.572544
0.572545
0.572545
0.572546
0.572547
0.572548
0.572549
0.572549
0.57255
0.572551
0.572552
0.572553
0.572553
0.572555
0.572556
0.572557
0.572558
0.572558
0.572559
0.57256
0.572561
0.572562
0.572562
0.572563
0.572564
0.572565
0.572566
0.572566
0.572567
0.572569
0.57257
0.572571
0.572571
0.572572
0.572573
0.572574
0.572575
0.572575
0.572576
0.572577
0.572578
0.57258
0.57258
0.572581
0.572582
0.572583
0.572584
0.572584
0.572585
0.572586
0.572588
0.572589
0.572589
0.57259
0.572591
0.572592
0.572593
0.572593
0.572595
0.572596
0.572597
0.572598
0.572598
0.572599
0.5726
0.572602
0.572603
0.572603
0.572604
0.572605
0.572606
0.572608
0.572608
0.572609
0.57261
0.572611
0.572612
0.572612
0.572614
0.572615
0.572616
0.572617
0.572617
0.572618
0.57262
0.572621
0.572622
0.572622
0.572623
0.572625
0.572626
0.572627
0.572627
0.572628
0.57263
0.572631
0.572632
0.572632
0.572633
0.572635
0.572636
0.572637
0.572637
0.572638
0.57264
0.572641
0.572642
0.572642
0.572644
0.572645
0.572646
0.572648
0.572648
0.572649
0.57265
0.572651
0.572653
0.572653
0.572654
0.572655
0.572657
0.572658
0.572658
0.572659
0.572661
0.572662
0.572663
0.572663
0.572665
0.572666
0.572667
0.572669
0.572669
0.57267
0.572672
0.572673
0.572674
0.572674
0.572676
0.572677
0.572678
0.57268
0.57268
0.572681
0.572683
0.572684
0.572685
0.572685
0.572687
0.572688
0.57269
0.572691
0.572691
0.572692
0.572694
0.572695
0.572697
0.572697
0.572698
0.572699
0.572701
0.572702
0.572702
0.572704
0.572705
0.572707
0.572708
0.572708
0.572709
0.572711
0.572712
0.572714
0.572714
0.572715
0.572717
0.572718
0.57272
0.57272
0.572721
0.572723
0.572724
0.572726
0.572726
0.572727
0.572729
0.57273
0.572731
0.572731
0.572733
0.572734
0.572736
0.572737
0.572737
0.572739
0.572741
0.572742
0.572744
0.572744
0.572745
0.572747
0.572748
0.57275
0.57275
0.572751
0.572753
0.572754
0.572756
0.572756
0.572757
0.572759
0.57276
0.572762
0.572762
0.572764
0.572765
0.572767
0.572768
0.572768
0.57277
0.572772
0.572773
0.572775
0.572775
0.572776
0.572778
0.572779
0.572781
0.572781
0.572783
0.572784
0.572786
0.572788
0.572788
0.572789
0.572791
0.572792
0.572794
0.572794
0.572796
0.572797
0.572799
0.572801
0.572801
0.572802
0.572804
0.572806
0.572807
0.572807
0.572809
0.57281
0.572812
0.572814
0.572814
0.572815
0.572817
0.572819
0.572821
0.572821
0.572822
0.572824
0.572826
0.572827
0.572827
0.572829
0.572831
0.572832
0.572834
0.572834
0.572836
0.572837
0.572839
0.572841
0.572841
0.572843
0.572844
0.572846
0.572848
0.572848
0.57285
0.572851
0.572853
0.572855
0.572855
0.572857
0.572858
0.57286
0.572862
0.572862
0.572864
0.572865
0.572867
0.572869
0.572869
0.572871
0.572872
0.572874
0.572876
0.572876
0.572878
0.57288
0.572881
0.572883
0.572883
0.572885
0.572887
0.572889
0.57289
0.57289
0.572892
0.572894
0.572896
0.572898
0.572898
0.5729
0.572901
0.572903
0.572905
0.572905
0.572907
0.572909
0.572911
0.572913
0.572913
0.572914
0.572916
0.572918
0.57292
0.57292
0.572922
0.572924
0.572926
0.572928
0.572928
0.572929
0.572931
0.572933
0.572935
0.572935
0.572937
0.572939
0.572941
0.572943
0.572943
0.572945
0.572947
0.572948
0.57295
0.57295
0.572952
0.572954
0.572956
0.572958
0.572958
0.57296
0.572962
0.572964
0.572966
0.572966
0.572968
0.57297
0.572972
0.572974
0.572974
0.572976
0.572978
0.57298
0.572982
0.572982
0.572984
0.572986
0.572988
0.57299
0.57299
0.572992
0.572994
0.572996
0.572998
0.572998
0.573
0.573002
0.573004
0.573006
0.573006
0.573008
0.57301
0.573012
0.573014
0.573014
0.573016
0.573018
0.57302
0.573022
0.573022
0.573024
0.573026
0.573028
0.57303
0.57303
0.573032
0.573034
0.573037
0.573039
0.573039
0.573041
0.573043
0.573045
0.573047
0.573047
0.573049
0.573051
0.573053
0.573055
0.573055
0.573058
0.57306
0.573062
0.573064
0.573064
0.573066
0.573068
0.57307
0.573072
0.573072
0.573075
0.573077
0.573079
0.573081
0.573081
0.573083
0.573085
0.573087
0.57309
0.57309
0.573092
0.573094
0.573096
0.573098
0.573098
0.573101
0.573103
0.573105
0.573107
0.573107
0.573109
0.573111
0.573114
0.573116
0.573116
0.573118
0.57312
0.573123
0.573125
0.573125
0.573127
0.573129
0.573131
0.573134
0.573134
0.573136
0.573138
0.573141
0.573143
0.573143
0.573145
0.573147
0.57315
0.573152
0.573152
0.573154
0.573156
0.573159
0.573161
0.573161
0.573163
0.573166
0.573168
0.57317
0.57317
0.573172
0.573175
0.573177
0.573179
0.573179
0.573182
0.573184
0.573186
0.573189
0.573189
0.573191
0.573193
0.573196
0.573198
0.573198
0.5732
0.573203
0.573205
0.573207
0.573207
0.57321
0.573212
0.573215
0.573217
0.573217
0.573219
0.573222
0.573224
0.573226
0.573226
0.573229
0.573231
0.573234
0.573236
0.573236
0.573238
0.573241
0.573243
0.573246
0.573246
0.573248
0.57325
0.573253
0.573255
0.573255
0.573258
0.57326
0.573263
0.573265
0.573265
0.573268
0.57327
0.573273
0.573275
0.573275
0.573277
0.57328
0.573282
0.573285
0.573285
0.573287
0.57329
0.573292
0.573295
0.573295
0.573297
0.5733
0.573302
0.573305
0.573305
0.573307
0.57331
0.573312
0.573315
0.573315
0.573318
0.57332
0.573323
0.573325
0.573325
0.573328
0.57333
0.573333
0.573335
0.573335
0.573338
0.57334
0.573343
0.573346
0.573346
0.573348
0.573351
0.573353
0.573356
0.573356
0.573358
0.573361
0.573364
0.573366
0.573366
0.573369
0.573371
0.573374
0.573377
0.573377
0.573379
0.573382
0.573385
0.573387
0.573387
0.57339
0.573392
0.573395
0.573398
0.573398
0.5734
0.573403
0.573406
0.573408
0.573408
0.573411
0.573414
0.573416
0.573419
0.573419
0.573422
0.573425
0.573427
0.57343
0.57343
0.573433
0.573435
0.573438
0.573441
0.573441
0.573444
0.573446
0.573449
0.573452
0.573452
0.573454
0.573457
0.57346
0.573463
0.573463
0.573465
0.573468
0.573471
0.573474
0.573474
0.573476
0.573479
0.573482
0.573485
0.573485
0.573487
0.57349
0.573493
0.573496
0.573496
0.573499
0.573501
0.573504
0.573507
0.573507
0.57351
0.573513
0.573515
0.573518
0.573518
0.573521
0.573524
0.573527
0.57353
0.57353
0.573533
0.573535
0.573538
0.573541
0.573541
0.573544
0.573547
0.57355
0.573553
0.573553
0.573555
0.573558
0.573561
0.573564
0.573564
0.573567
0.57357
0.573573
0.573576
0.573576
0.573579
0.573582
0.573584
0.573587
0.573587
0.57359
0.573593
0.573596
0.573599
0.573599
0.573602
0.573605
0.573608
0.573611
0.573611
0.573614
0.573617
0.57362
0.573623
0.573623
0.573626
0.573629
0.573632
0.573635
0.573635
0.573638
0.573641
0.573644
0.573647
0.573647
0.57365
0.573653
0.573656
0.573659
0.573659
0.573662
0.573665
0.573668
0.573671
0.573671
0.573674
0.573677
0.57368
0.573683
0.573683
0.573686
0.573689
0.573692
0.573695
0.573695
0.573699
0.573702
0.573705
0.573708
0.573708
0.573711
0.573714
0.573717
0.57372
0.57372
0.573723
0.573726
0.57373
0.573733
0.573733
0.573736
0.573739
0.573742
0.573745
0.573745
0.573748
0.573751
0.573755
0.573758
0.573758
0.573761
0.573764
0.573767
0.57377
0.57377
0.573774
0.573777
0.57378
0.573783
0.573783
0.573786
0.57379
0.573793
0.573796
0.573796
0.573799
0.573802
0.573806
0.573809
0.573809
0.573812
0.573815
0.573819
0.573822
0.573822
0.573825
0.573828
0.573832
0.573835
0.573835
0.573838
0.573841
0.573845
0.573848
0.573848
0.573851
0.573855
0.573858
0.573861
0.573861
0.573864
0.573868
0.573871
0.573874
0.573874
0.573878
0.573881
0.573884
0.573888
0.573888
0.573891
0.573894
0.573898
0.573901
0.573901
0.573904
0.573908
0.573911
0.573914
0.573914
0.573918
0.573921
0.573925
0.573928
0.573928
0.573931
0.573935
0.573938
0.573942
0.573942
0.573945
0.573948
0.573952
0.573955
0.573955
0.573959
0.573962
0.573966
0.573969
0.573969
0.573973
0.573976
0.573979
0.573983
0.573983
0.573986
0.57399
0.573993
0.573997
0.573997
0.574
0.574004
0.574007
0.574011
0.574011
0.574014
0.574018
0.574021
0.574025
0.574025
0.574028
0.574032
0.574035
0.574039
0.574039
0.574042
0.574046
0.574049
0.574053
0.574053
0.574056
0.57406
0.574064
0.574067
0.574067
0.574071
0.574074
0.574078
0.574082
0.574082
0.574085
0.574089
0.574092
0.574096
0.574096
0.5741
0.574103
0.574107
0.57411
0.57411
0.574114
0.574118
0.574121
0.574125
0.574125
0.574129
0.574132
0.574136
0.57414
0.57414
0.574143
0.574147
0.574151
0.574154
0.574154
0.574158
0.574162
0.574165
0.574169
0.574169
0.574173
0.574176
0.57418
0.574184
0.574184
0.574188
0.574191
0.574195
0.574199
0.574199
0.574202
0.574206
0.57421
0.574214
0.574214
0.574218
0.574221
0.574225
0.574229
0.574229
0.574233
0.574236
0.57424
0.574244
0.574244
0.574248
0.574252
0.574255
0.574259
0.574259
0.574263
0.574267
0.574271
0.574275
0.574275
0.574278
0.574282
0.574286
0.57429
0.57429
0.574294
0.574298
0.574302
0.574305
0.574305
0.574309
0.574313
0.574317
0.574321
0.574321
0.574325
0.574329
0.574333
0.574336
0.574336
0.57434
0.574344
0.574348
0.574352
0.574352
0.574356
0.57436
0.574364
0.574368
0.574368
0.574372
0.574376
0.57438
0.574384
0.574384
0.574388
0.574392
0.574396
0.5744
0.5744
0.574404
0.574408
0.574412
0.574416
0.574416
0.57442
0.574424
0.574428
0.574432
0.574432
0.574436
0.57444
0.574444
0.574448
0.574448
0.574452
0.574456
0.57446
0.574464
0.574464
0.574468
0.574472
0.574477
0.574481
0.574481
0.574485
0.574489
0.574493
0.574497
0.574497
0.574501
0.574505
0.574509
0.574514
0.574514
0.574518
0.574522
0.574526
0.57453
0.57453
0.574534
0.574538
0.574543
0.574547
0.574547
0.574551
0.574555
0.574559
0.574564
0.574564
0.574568
0.574572
0.574576
0.57458
0.57458
0.574585
0.574589
0.574593
0.574597
0.574597
0.574601
0.574606
0.57461
0.574614
0.574614
0.574618
0.574623
0.574627
0.574631
0.574631
0.574636
0.57464
0.574644
0.574648
0.574648
0.574653
0.574657
0.574661
0.574666
0.574666
0.57467
0.574674
0.574679
0.574683
0.574683
0.574687
0.574692
0.574696
0.5747
0.5747
0.574705
0.574709
0.574714
0.574718
0.574718
0.574722
0.574727
0.574731
0.574736
0.574736
0.57474
0.574744
0.574749
0.574753
0.574753
0.574758
0.574762
0.574766
0.574771
0.574771
0.574775
0.57478
0.574784
0.574789
0.574789
0.574793
0.574798
0.574802
0.574807
0.574807
0.574811
0.574816
0.57482
0.574825
0.574825
0.574829
0.574834
0.574838
0.574843
0.574843
0.574847
0.574852
0.574856
0.574861
0.574861
0.574866
0.57487
0.574875
0.574879
0.574879
0.574884
0.574888
0.574893
0.574898
0.574898
0.574902
0.574907
0.574911
0.574916
0.574916
0.574921
0.574925
0.57493
0.574934
0.574934
0.574939
0.574944
0.574948
0.574953
0.574953
0.574958
0.574962
0.574967
0.574972
0.574972
0.574977
0.574981
0.574986
0.574991
0.574991
0.574995
0.575
0.575005
0.57501
0.57501
0.575014
0.575019
0.575024
0.575029
0.575029
0.575033
0.575038
0.575043
0.575048
0.575048
0.575052
0.575057
0.575062
0.575067
0.575067
0.575072
0.575076
0.575081
0.575086
0.575086
0.575091
0.575096
0.5751
0.575105
0.575105
0.57511
0.575115
0.57512
0.575125
0.575125
0.57513
0.575135
0.575139
0.575144
0.575144
0.575149
0.575154
0.575159
0.575164
0.575164
0.575169
0.575174
0.575179
0.575184
0.575184
0.575189
0.575194
0.575199
0.575204
0.575204
0.575208
0.575213
0.575218
0.575223
0.575223
0.575228
0.575233
0.575238
0.575243
0.575243
0.575248
0.575253
0.575258
0.575263
0.575263
0.575268
0.575274
0.575279
0.575284
0.575284
0.575289
0.575294
0.575299
0.575304
0.575304
0.575309
0.575314
0.575319
0.575324
0.575324
0.575329
0.575335
0.57534
0.575345
0.575345
0.57535
0.575355
0.57536
0.575365
0.575365
0.575371
0.575376
0.575381
0.575386
0.575386
0.575391
0.575396
0.575402
0.575407
0.575407
0.575412
0.575417
0.575422
0.575428
0.575428
0.575433
0.575438
0.575443
0.575449
0.575449
0.575454
0.575459
0.575464
0.57547
0.57547
0.575475
0.57548
0.575486
0.575491
0.575491
0.575496
0.575501
0.575507
0.575512
0.575512
0.575517
0.575523
0.575528
0.575533
0.575533
0.575539
0.575544
0.575549
0.575555
0.575555
0.57556
0.575566
0.575571
0.575576
0.575576
0.575582
0.575587
0.575593
0.575598
0.575598
0.575604
0.575609
0.575614
0.57562
0.57562
0.575625
0.575631
0.575636
0.575642
0.575642
0.575647
0.575653
0.575658
0.575664
0.575664
0.575669
0.575675
0.57568
0.575686
0.575686
0.575691
0.575697
0.575702
0.575708
0.575708
0.575713
0.575719
0.575725
0.57573
0.57573
0.575736
0.575741
0.575747
0.575752
0.575752
0.575758
0.575764
0.575769
0.575775
0.575775
0.575781
0.575786
0.575792
0.575798
0.575798
0.575803
0.575809
0.575815
0.57582
0.57582
0.575826
0.575832
0.575837
0.575843
0.575843
0.575849
0.575854
0.57586
0.575866
0.575866
0.575872
0.575877
0.575883
0.575889
0.575889
0.575895
0.5759
0.575906
0.575912
0.575912
0.575918
0.575924
0.575929
0.575935
0.575935
0.575941
0.575947
0.575953
0.575959
0.575959
0.575964
0.57597
0.575976
0.575982
0.575982
0.575988
0.575994
0.576
0.576005
0.576005
0.576011
0.576017
0.576023
0.576029
0.576029
0.576035
0.576041
0.576047
0.576053
0.576053
0.576059
0.576065
0.576071
0.576077
0.576077
0.576083
0.576089
0.576095
0.576101
0.576101
0.576107
0.576113
0.576119
0.576125
0.576125
0.576131
0.576137
0.576143
0.576149
0.576149
0.576155
0.576161
0.576167
0.576173
0.576173
0.576179
0.576185
0.576192
0.576198
0.576198
0.576204
0.57621
0.576216
0.576222
0.576222
0.576228
0.576234
0.576241
0.576247
0.576247
0.576253
0.576259
0.576265
0.576272
0.576272
0.576278
0.576284
0.57629
0.576296
0.576296
0.576303
0.576309
0.576315
0.576321
0.576321
0.576328
0.576334
0.57634
0.576346
0.576346
0.576353
0.576359
0.576365
0.576372
0.576372
0.576378
0.576384
0.576391
0.576397
0.576397
0.576403
0.57641
0.576416
0.576422
0.576422
0.576429
0.576435
0.576442
0.576448
0.576448
0.576454
0.576461
0.576467
0.576474
0.576474
0.57648
0.576487
0.576493
0.576499
0.576499
0.576506
0.576512
0.576519
0.576525
0.576525
0.576532
0.576538
0.576545
0.576551
0.576551
0.576558
0.576564
0.576571
0.576577
0.576577
0.576584
0.576591
0.576597
0.576604
0.576604
0.57661
0.576617
0.576623
0.57663
0.57663
0.576637
0.576643
0.57665
0.576657
0.576657
0.576663
0.57667
0.576677
0.576683
0.576683
0.57669
0.576697
0.576703
0.57671
0.57671
0.576717
0.576723
0.57673
0.576737
0.576737
0.576744
0.57675
0.576757
0.576764
0.576764
0.576771
0.576777
0.576784
0.576791
0.576791
0.576798
0.576804
0.576811
0.576818
0.576818
0.576825
0.576832
0.576839
0.576846
0.576846
0.576852
0.576859
0.576866
0.576873
0.576873
0.57688
0.576887
0.576894
0.576901
0.576901
0.576907
0.576914
0.576921
0.576928
0.576928
0.576935
0.576942
0.576949
0.576956
0.576956
0.576963
0.57697
0.576977
0.576984
0.576984
0.576991
0.576998
0.577005
0.577012
0.577012
0.577019
0.577026
0.577033
0.57704
0.57704
0.577048
0.577055
0.577062
0.577069
0.577069
0.577076
0.577083
0.57709
0.577097
0.577097
0.577104
0.577112
0.577119
0.577126
0.577126
0.577133
0.57714
0.577147
0.577155
0.577155
0.577162
0.577169
0.577176
0.577184
0.577184
0.577191
0.577198
0.577205
0.577213
0.577213
0.57722
0.577227
0.577234
0.577242
0.577242
0.577249
0.577256
0.577264
0.577271
0.577271
0.577278
0.577286
0.577293
0.5773
0.5773
0.577308
0.577315
0.577322
0.57733
0.57733
0.577337
0.577345
0.577352
0.57736
0.57736
0.577367
0.577374
0.577382
0.577389
0.577389
0.577397
0.577404
0.577412
0.577419
0.577419
0.577427
0.577434
0.577442
0.577449
0.577449
0.577457
0.577464
0.577472
0.57748
0.57748
0.577487
0.577495
0.577502
0.57751
0.57751
0.577518
0.577525
0.577533
0.57754
0.57754
0.577548
0.577556
0.577563
0.577571
0.577571
0.577579
0.577586
0.577594
0.577602
0.577602
0.57761
0.577617
0.577625
0.577633
0.577633
0.57764
0.577648
0.577656
0.577664
0.577664
0.577672
0.577679
0.577687
0.577695
0.577695
0.577703
0.577711
0.577718
0.577726
0.577726
0.577734
0.577742
0.57775
0.577758
0.577758
0.577766
0.577774
0.577781
0.577789
0.577789
0.577797
0.577805
0.577813
0.577821
0.577821
0.577829
0.577837
0.577845
0.577853
0.577853
0.577861
0.577869
0.577877
0.577885
0.577885
0.577893
0.577901
0.577909
0.577917
0.577917
0.577925
0.577933
0.577941
0.57795
0.57795
0.577958
0.577966
0.577974
0.577982
0.577982
0.57799
0.577998
0.578006
0.578015
0.578015
0.578023
0.578031
0.578039
0.578047
0.578047
0.578056
0.578064
0.578072
0.57808
0.57808
0.578088
0.578097
0.578105
0.578113
0.578113
0.578122
0.57813
0.578138
0.578147
0.578147
0.578155
0.578163
0.578172
0.57818
0.57818
0.578188
0.578197
0.578205
0.578213
0.578213
0.578222
0.57823
0.578239
0.578247
0.578247
0.578255
0.578264
0.578272
0.578281
0.578281
0.578289
0.578298
0.578306
0.578315
0.578315
0.578323
0.578332
0.57834
0.578349
0.578349
0.578358
0.578366
0.578375
0.578383
0.578383
0.578392
0.5784
0.578409
0.578418
0.578418
0.578426
0.578435
0.578444
0.578452
0.578452
0.578461
0.57847
0.578478
0.578487
0.578487
0.578496
0.578504
0.578513
0.578522
0.578522
0.578531
0.578539
0.578548
0.578557
0.578557
0.578566
0.578575
0.578583
0.578592
0.578592
0.578601
0.57861
0.578619
0.578627
0.578627
0.578636
0.578645
0.578654
0.578663
0.578663
0.578672
0.578681
0.57869
0.578699
0.578699
0.578708
0.578717
0.578726
0.578735
0.578735
0.578744
0.578753
0.578762
0.578771
0.578771
0.57878
0.578789
0.578798
0.578807
0.578807
0.578816
0.578825
0.578834
0.578843
0.578843
0.578852
0.578861
0.57887
0.57888
0.57888
0.578889
0.578898
0.578907
0.578916
0.578916
0.578925
0.578935
0.578944
0.578953
0.578953
0.578962
0.578972
0.578981
0.57899
0.57899
0.578999
0.579009
0.579018
0.579027
0.579027
0.579037
0.579046
0.579055
0.579065
0.579065
0.579074
0.579083
0.579093
0.579102
0.579102
0.579111
0.579121
0.57913
0.57914
0.57914
0.579149
0.579159
0.579168
0.579178
0.579178
0.579187
0.579197
0.579206
0.579216
0.579216
0.579225
0.579235
0.579244
0.579254
0.579254
0.579263
0.579273
0.579282
0.579292
0.579292
0.579302
0.579311
0.579321
0.579331
0.579331
0.57934
0.57935
0.57936
0.579369
0.579369
0.579379
0.579389
0.579398
0.579408
0.579408
0.579418
0.579428
0.579437
0.579447
0.579447
0.579457
0.579467
0.579477
0.579486
0.579486
0.579496
0.579506
0.579516
0.579526
0.579526
0.579536
0.579546
0.579555
0.579565
0.579565
0.579575
0.579585
0.579595
0.579605
0.579605
0.579615
0.579625
0.579635
0.579645
0.579645
0.579655
0.579665
0.579675
0.579685
0.579685
0.579695
0.579705
0.579715
0.579725
0.579725
0.579736
0.579746
0.579756
0.579766
0.579766
0.579776
0.579786
0.579796
0.579807
0.579807
0.579817
0.579827
0.579837
0.579847
0.579847
0.579858
0.579868
0.579878
0.579889
0.579889
0.579899
0.579909
0.579919
0.57993
0.57993
0.57994
0.57995
0.579961
0.579971
0.579971
0.579981
0.579992
0.580002
0.580013
0.580013
0.580023
0.580034
0.580044
0.580054
0.580054
0.580065
0.580075
0.580086
0.580096
0.580096
0.580107
0.580118
0.580128
0.580139
0.580139
0.580149
0.58016
0.58017
0.580181
0.580181
0.580192
0.580202
0.580213
0.580223
0.580223
0.580234
0.580245
0.580255
0.580266
0.580266
0.580277
0.580288
0.580298
0.580309
0.580309
0.58032
0.580331
0.580341
0.580352
0.580352
0.580363
0.580374
0.580385
0.580396
0.580396
0.580406
0.580417
0.580428
0.580439
0.580439
0.58045
0.580461
0.580472
0.580483
0.580483
0.580494
0.580505
0.580516
0.580527
0.580527
0.580538
0.580549
0.58056
0.580571
0.580571
0.580582
0.580593
0.580604
0.580615
0.580615
0.580626
0.580637
0.580648
0.58066
0.58066
0.580671
0.580682
0.580693
0.580704
0.580704
0.580715
0.580727
0.580738
0.580749
0.580749
0.58076
0.580772
0.580783
0.580794
0.580794
0.580806
0.580817
0.580828
0.58084
0.58084
0.580851
0.580862
0.580874
0.580885
0.580885
0.580896
0.580908
0.580919
0.580931
0.580931
0.580942
0.580954
0.580965
0.580977
0.580977
0.580988
0.581
0.581011
0.581023
0.581023
0.581034
0.581046
0.581058
0.581069
0.581069
0.581081
0.581092
0.581104
0.581116
0.581116
0.581127
0.581139
0.581151
0.581163
0.581163
0.581174
0.581186
0.581198
0.58121
0.58121
0.581221
0.581233
0.581245
0.581257
0.581257
0.581269
0.58128
0.581292
0.581304
0.581304
0.581316
0.581328
0.58134
0.581352
0.581352
0.581364
0.581376
0.581388
0.5814
0.5814
0.581412
0.581424
0.581436
0.581448
0.581448
0.58146
0.581472
0.581484
0.581496
0.581496
0.581508
0.58152
0.581532
0.581544
0.581544
0.581557
0.581569
0.581581
0.581593
0.581593
0.581605
0.581618
0.58163
0.581642
0.581642
0.581654
0.581667
0.581679
0.581691
0.581691
0.581704
0.581716
0.581728
0.581741
0.581741
0.581753
0.581765
0.581778
0.58179
0.58179
0.581803
0.581815
0.581828
0.58184
0.58184
0.581853
0.581865
0.581878
0.58189
0.58189
0.581903
0.581915
0.581928
0.58194
0.58194
0.581953
0.581966
0.581978
0.581991
0.581991
0.582004
0.582016
0.582029
0.582042
0.582042
0.582054
0.582067
0.58208
0.582093
0.582093
0.582105
0.582118
0.582131
0.582144
0.582144
0.582157
0.582169
0.582182
0.582195
0.582195
0.582208
0.582221
0.582234
0.582247
0.582247
0.58226
0.582273
0.582286
0.582299
0.582299
0.582312
0.582325
0.582338
0.582351
0.582351
0.582364
0.582377
0.58239
0.582403
0.582403
0.582416
0.58243
0.582443
0.582456
0.582456
0.582469
0.582482
0.582496
0.582509
0.582509
0.582522
0.582535
0.582549
0.582562
0.582562
0.582575
0.582589
0.582602
0.582615
0.582615
0.582629
0.582642
0.582655
0.582669
0.582669
0.582682
0.582696
0.582709
0.582723
0.582723
0.582736
0.58275
0.582763
0.582777
0.582777
0.58279
0.582804
0.582817
0.582831
0.582831
0.582845
0.582858
0.582872
0.582886
0.582886
0.582899
0.582913
0.582927
0.58294
0.58294
0.582954
0.582968
0.582982
0.582996
0.582996
0.583009
0.583023
0.583037
0.583051
0.583051
0.583065
0.583079
0.583092
0.583106
0.583106
0.58312
0.583134
0.583148
0.583162
0.583162
0.583176
0.58319
0.583204
0.583218
0.583218
0.583232
0.583246
0.583261
0.583275
0.583275
0.583289
0.583303
0.583317
0.583331
0.583331
0.583345
0.58336
0.583374
0.583388
0.583388
0.583402
0.583417
0.583431
0.583445
0.583445
0.583459
0.583474
0.583488
0.583503
0.583503
0.583517
0.583531
0.583546
0.58356
0.58356
0.583575
0.583589
0.583604
0.583618
0.583618
0.583633
0.583647
0.583662
0.583676
0.583676
0.583691
0.583705
0.58372
0.583735
0.583735
0.583749
0.583764
0.583779
0.583793
0.583793
0.583808
0.583823
0.583838
0.583852
0.583852
0.583867
0.583882
0.583897
0.583912
0.583912
0.583926
0.583941
0.583956
0.583971
0.583971
0.583986
0.584001
0.584016
0.584031
0.584031
0.584046
0.584061
0.584076
0.584091
0.584091
0.584106
0.584121
0.584136
0.584151
0.584151
0.584166
0.584182
0.584197
0.584212
0.584212
0.584227
0.584242
0.584257
0.584273
0.584273
0.584288
0.584303
0.584319
0.584334
0.584334
0.584349
0.584365
0.58438
0.584395
0.584395
0.584411
0.584426
0.584442
0.584457
0.584457
0.584473
0.584488
0.584504
0.584519
0.584519
0.584535
0.58455
0.584566
0.584581
0.584581
0.584597
0.584613
0.584628
0.584644
0.584644
0.58466
0.584675
0.584691
0.584707
0.584707
0.584723
0.584738
0.584754
0.58477
0.58477
0.584786
0.584802
0.584817
0.584833
0.584833
0.584849
0.584865
0.584881
0.584897
0.584897
0.584913
0.584929
0.584945
0.584961
0.584961
0.584977
0.584993
0.585009
0.585025
0.585025
0.585042
0.585058
0.585074
0.58509
0.58509
0.585106
0.585122
0.585139
0.585155
0.585155
0.585171
0.585187
0.585204
0.58522
0.58522
0.585236
0.585253
0.585269
0.585286
0.585286
0.585302
0.585318
0.585335
0.585351
0.585351
0.585368
0.585384
0.585401
0.585418
0.585418
0.585434
0.585451
0.585467
0.585484
0.585484
0.585501
0.585517
0.585534
0.585551
0.585551
0.585567
0.585584
0.585601
0.585618
0.585618
0.585634
0.585651
0.585668
0.585685
0.585685
0.585702
0.585719
0.585736
0.585753
0.585753
0.58577
0.585787
0.585804
0.585821
0.585821
0.585838
0.585855
0.585872
0.585889
0.585889
0.585906
0.585923
0.58594
0.585957
0.585957
0.585975
0.585992
0.586009
0.586026
0.586026
0.586044
0.586061
0.586078
0.586096
0.586096
0.586113
0.58613
0.586148
0.586165
0.586165
0.586182
0.5862
0.586217
0.586235
0.586235
0.586252
0.58627
0.586288
0.586305
0.586305
0.586323
0.58634
0.586358
0.586376
0.586376
0.586393
0.586411
0.586429
0.586446
0.586446
0.586464
0.586482
0.5865
0.586518
0.586518
0.586535
0.586553
0.586571
0.586589
0.586589
0.586607
0.586625
0.586643
0.586661
0.586661
0.586679
0.586697
0.586715
0.586733
0.586733
0.586751
0.586769
0.586787
0.586805
0.586805
0.586824
0.586842
0.58686
0.586878
0.586878
0.586896
0.586915
0.586933
0.586951
0.586951
0.58697
0.586988
0.587006
0.587025
0.587025
0.587043
0.587062
0.58708
0.587099
0.587099
0.587117
0.587136
0.587154
0.587173
0.587173
0.587191
0.58721
0.587229
0.587247
0.587247
0.587266
0.587285
0.587303
0.587322
0.587322
0.587341
0.58736
0.587378
0.587397
0.587397
0.587416
0.587435
0.587454
0.587473
0.587473
0.587492
0.587511
0.58753
0.587549
0.587549
0.587568
0.587587
0.587606
0.587625
0.587625
0.587644
0.587663
0.587682
0.587701
0.587701
0.587721
0.58774
0.587759
0.587778
0.587778
0.587798
0.587817
0.587836
0.587856
0.587856
0.587875
0.587894
0.587914
0.587933
0.587933
0.587953
0.587972
0.587992
0.588011
0.588011
0.588031
0.58805
0.58807
0.58809
0.58809
0.588109
0.588129
0.588149
0.588168
0.588168
0.588188
0.588208
0.588227
0.588247
0.588247
0.588267
0.588287
0.588307
0.588327
0.588327
0.588347
0.588367
0.588387
0.588407
0.588407
0.588427
0.588447
0.588467
0.588487
0.588487
0.588507
0.588527
0.588547
0.588567
0.588567
0.588587
0.588608
0.588628
0.588648
0.588648
0.588668
0.588689
0.588709
0.588729
0.588729
0.58875
0.58877
0.588791
0.588811
0.588811
0.588832
0.588852
0.588873
0.588893
0.588893
0.588914
0.588934
0.588955
0.588976
0.588976
0.588996
0.589017
0.589038
0.589058
0.589058
0.589079
0.5891
0.589121
0.589142
0.589142
0.589162
0.589183
0.589204
0.589225
0.589225
0.589246
0.589267
0.589288
0.589309
0.589309
0.58933
0.589351
0.589372
0.589393
0.589393
0.589414
0.589436
0.589457
0.589478
0.589478
0.589499
0.589521
0.589542
0.589563
0.589563
0.589585
0.589606
0.589627
0.589649
0.589649
0.58967
0.589692
0.589713
0.589735
0.589735
0.589756
0.589778
0.589799
0.589821
0.589821
0.589843
0.589864
0.589886
0.589908
0.589908
0.589929
0.589951
0.589973
0.589995
0.589995
0.590016
0.590038
0.59006
0.590082
0.590082
0.590104
0.590126
0.590148
0.59017
0.59017
0.590192
0.590214
0.590236
0.590258
0.590258
0.59028
0.590303
0.590325
0.590347
0.590347
0.590369
0.590392
0.590414
0.590436
0.590436
0.590458
0.590481
0.590503
0.590526
0.590526
0.590548
0.590571
0.590593
0.590616
0.590616
0.590638
0.590661
0.590683
0.590706
0.590706
0.590729
0.590751
0.590774
0.590797
0.590797
0.590819
0.590842
0.590865
0.590888
0.590888
0.590911
0.590934
0.590957
0.59098
0.59098
0.591003
0.591025
0.591049
0.591072
0.591072
0.591095
0.591118
0.591141
0.591164
0.591164
0.591187
0.59121
0.591234
0.591257
0.591257
0.59128
0.591304
0.591327
0.59135
0.59135
0.591374
0.591397
0.59142
0.591444
0.591444
0.591467
0.591491
0.591515
0.591538
0.591538
0.591562
0.591585
0.591609
0.591633
0.591633
0.591656
0.59168
0.591704
0.591728
0.591728