<?xml version="1.0"?>
<VTKFile type="UnstructuredGrid" version="0.1" byte_order="LittleEndian">
<UnstructuredGrid>
<Piece NumberOfPoints="5000" NumberOfCells="4000">
<PointData Scalars="Reaction 0">
<DataArray type="Float32" Name="Reaction 0" format="ascii">
0.61424
0.61424
0.61424
0.61424
0.61424
0.61424
0.61424
0.61424
0.614241
0.614241
0.614241
0.614241
0.614241
0.614241
0.614241
0.614241
0.614241
0.614242
0.614242
0.614242
0.614242
0.614242
0.614243
0.614243
0.614243
0.614243
0.614244
0.614244
0.614244
0.614245
0.614245
0.614245
0.614246
0.614246
0.614247
0.614247
0.614247
0.614248
0.614248
0.614249
0.614249
0.614249
0.61425
0.61425
0.614251
0.614251
0.614251
0.614252
0.614253
0.614253
0.614253
0.614254
0.614255
0.614255
0.614256
0.614256
0.614257
0.614258
0.614258
0.614259
0.614259
0.61426
0.614261
0.614262
0.614263
0.614263
0.614263
0.614264
0.614265
0.614266
0.614266
0.614267
0.614268
0.614269
0.61427
0.61427
0.614271
0.614272
0.614273
0.614274
0.614274
0.614275
0.614276
0.614277
0.614278
0.614278
0.61428
0.614281
0.614282
0.614283
0.614283
0.614284
0.614285
0.614287
0.614288
0.614288
0.614289
0.614291
0.614292
0.614293
0.614293
0.614294
0.614296
0.614297
0.614299
0.614299
0.6143
0.614301
0.614303
0.614304
0.614304
0.614306
0.614307
0.614309
0.61431
0.61431
0.614312
0.614313
0.614315
0.614317
0.614317
0.614318
0.61432
0.614321
0.614323
0.614323
0.614325
0.614326
0.614328
0.61433
0.61433
0.614332
0.614333
0.614335
0.614337
0.614337
0.614339
0.61434
0.614342
0.614344
0.614344
0.614346
0.614348
0.61435
0.614352
0.614352
0.614354
0.614356
0.614358
0.61436
0.61436
0.614362
0.614364
0.614366
0.614368
0.614368
0.61437
0.614372
0.614374
0.614376
0.614376
0.614378
0.61438
0.614382
0.614385
0.614385
0.614387
0.614389
0.614391
0.614393
0.614393
0.614396
0.614398
0.6144
0.614403
0.614403
0.614405
0.614407
0.61441
0.614412
0.614412
0.614414
0.614417
0.614419
0.614422
0.614422
0.614424
0.614427
0.614429
0.614432
0.614432
0.614434
0.614437
0.614439
0.614442
0.614442
0.614444
0.614447
0.61445
0.614452
0.614452
0.614455
0.614458
0.61446
0.614463
0.614463
0.614466
0.614469
0.614471
0.614474
0.614474
0.614477
0.61448
0.614483
0.614485
0.614485
0.614488
0.614491
0.614494
0.614497
0.614497
0.6145
0.614503
0.614506
0.614509
0.614509
0.614512
0.614515
0.614518
0.614521
0.614521
0.614524
0.614527
0.61453
0.614533
0.614533
0.614536
0.61454
0.614543
0.614546
0.614546
0.614549
0.614552
0.614556
0.614559
0.614559
0.614562
0.614565
0.614569
0.614572
0.614572
0.614575
0.614579
0.614582
0.614585
0.614585
0.614589
0.614592
0.614596
0.614599
0.614599
0.614603
0.614606
0.61461
0.614613
0.614613
0.614617
0.61462
0.614624
0.614627
0.614627
0.614631
0.614635
0.614638
0.614642
0.614642
0.614646
0.614649
0.614653
0.614657
0.614657
0.61466
0.614664
0.614668
0.614672
0.614672
0.614676
0.614679
0.614683
0.614687
0.614687
0.614691
0.614695
0.614699
0.614703
0.614703
0.614707
0.61471
0.614714
0.614718
0.614718
0.614722
0.614726
0.61473
0.614735
0.614735
0.614739
0.614743
0.614747
0.614751
0.614751
0.614755
0.614759
0.614763
0.614768
0.614768
0.614772
0.614776
0.61478
0.614784
0.614784
0.614789
0.614793
0.614797
0.614802
0.614802
0.614806
0.61481
0.614815
0.614819
0.614819
0.614824
0.614828
0.614832
0.614837
0.614837
0.614841
0.614846
0.61485
0.614855
0.614855
0.614859
0.614864
0.614869
0.614873
0.614873
0.614878
0.614882
0.614887
0.614892
0.614892
0.614896
0.614901
0.614906
0.61491
0.61491
0.614915
0.61492
0.614925
0.614929
0.614929
0.614934
0.614939
0.614944
0.614949
0.614949
0.614954
0.614959
0.614963
0.614968
0.614968
0.614973
0.614978
0.614983
0.614988
0.614988
0.614993
0.614998
0.615003
0.615008
0.615008
0.615013
0.615019
0.615024
0.615029
0.615029
0.615034
0.615039
0.615044
0.615049
0.615049
0.615055
0.61506
0.615065
0.61507
0.61507
0.615076
0.615081
0.615086
0.615092
0.615092
0.615097
0.615102
0.615108
0.615113
0.615113
0.615118
0.615124
0.615129
0.615135
0.615135
0.61514
0.615146
0.615151
0.615157
0.615157
0.615162
0.615168
0.615174
0.615179
0.615179
0.615185
0.615191
0.615196
0.615202
0.615202
0.615208
0.615213
0.615219
0.615225
0.615225
0.615231
0.615236
0.615242
0.615248
0.615248
0.615254
0.61526
0.615265
0.615271
0.615271
0.615277
0.615283
0.615289
0.615295
0.615295
0.615301
0.615307
0.615313
0.615319
0.615319
0.615325
0.615331
0.615337
0.615343
0.615343
0.615349
0.615355
0.615362
0.615368
0.615368
0.615374
0.61538
0.615386
0.615392
0.615392
0.615399
0.615405
0.615411
0.615417
0.615417
0.615424
0.61543
0.615436
0.615443
0.615443
0.615449
0.615456
0.615462
0.615468
0.615468
0.615475
0.615481
0.615488
0.615494
0.615494
0.615501
0.615507
0.615514
0.61552
0.61552
0.615527
0.615533
0.61554
0.615547
0.615547
0.615553
0.61556
0.615567
0.615573
0.615573
0.61558
0.615587
0.615594
0.6156
0.6156
0.615607
0.615614
0.615621
0.615627
0.615627
0.615634
0.615641
0.615648
0.615655
0.615655
0.615662
0.615669
0.615676
0.615683
0.615683
0.61569
0.615697
0.615704
0.615711
0.615711
0.615718
0.615725
0.615732
0.615739
0.615739
0.615746
0.615753
0.61576
0.615768
0.615768
0.615775
0.615782
0.615789
0.615797
0.615797
0.615804
0.615811
0.615818
0.615826
0.615826
0.615833
0.61584
0.615848
0.615855
0.615855
0.615863
0.61587
0.615877
0.615885
0.615885
0.615892
0.6159
0.615907
0.615915
0.615915
0.615922
0.61593
0.615938
0.615945
0.615945
0.615953
0.61596
0.615968
0.615976
0.615976
0.615983
0.615991
0.615999
0.616006
0.616006
0.616014
0.616022
0.61603
0.616038
0.616038
0.616045
0.616053
0.616061
0.616069
0.616069
0.616077
0.616085
0.616093
0.616101
0.616101
0.616109
0.616116
0.616124
0.616132
0.616132
0.61614
0.616148
0.616157
0.616165
0.616165
0.616173
0.616181
0.616189
0.616197
0.616197
0.616205
0.616213
0.616222
0.61623
0.61623
0.616238
0.616246
0.616254
0.616263
0.616263
0.616271
0.616279
0.616288
0.616296
0.616296
0.616304
0.616313
0.616321
0.61633
0.61633
0.616338
0.616346
0.616355
0.616363
0.616363
0.616372
0.61638
0.616389
0.616397
0.616397
0.616406
0.616415
0.616423
0.616432
0.616432
0.616441
0.616449
0.616458
0.616467
0.616467
0.616475
0.616484
0.616493
0.616502
0.616502
0.61651
0.616519
0.616528
0.616537
0.616537
0.616546
0.616555
0.616564
0.616573
0.616573
0.616581
0.61659
0.616599
0.616608
0.616608
0.616617
0.616626
0.616635
0.616644
0.616644
0.616654
0.616663
0.616672
0.616681
0.616681
0.61669
0.616699
0.616708
0.616717
0.616717
0.616727
0.616736
0.616745
0.616754
0.616754
0.616764
0.616773
0.616782
0.616792
0.616792
0.616801
0.61681
0.61682
0.616829
0.616829
0.616839
0.616848
0.616857
0.616867
0.616867
0.616876
0.616886
0.616895
0.616905
0.616905
0.616914
0.616924
0.616934
0.616943
0.616943
0.616953
0.616962
0.616972
0.616982
0.616982
0.616991
0.617001
0.617011
0.617021
0.617021
0.61703
0.61704
0.61705
0.61706
0.61706
0.61707
0.61708
0.617089
0.617099
0.617099
0.617109
0.617119
0.617129
0.617139
0.617139
0.617149
0.617159
0.617169
0.617179
0.617179
0.617189
0.617199
0.617209
0.61722
0.61722
0.61723
0.61724
0.61725
0.61726
0.61726
0.61727
0.617281
0.617291
0.617301
0.617301
0.617311
0.617322
0.617332
0.617342
0.617342
0.617353
0.617363
0.617373
0.617384
0.617384
0.617394
0.617405
0.617415
0.617425
0.617425
0.617436
0.617446
0.617457
0.617467
0.617467
0.617478
0.617489
0.617499
0.61751
0.61751
0.61752
0.617531
0.617542
0.617552
0.617552
0.617563
0.617574
0.617584
0.617595
0.617595
0.617606
0.617617
0.617628
0.617638
0.617638
0.617649
0.61766
0.617671
0.617682
0.617682
0.617693
0.617704
0.617715
0.617725
0.617725
0.617736
0.617747
0.617758
0.61777
0.61777
0.617781
0.617792
0.617803
0.617814
0.617814
0.617825
0.617836
0.617847
0.617859
0.617859
0.61787
0.617881
0.617892
0.617903
0.617903
0.617915
0.617926
0.617937
0.617949
0.617949
0.61796
0.617971
0.617983
0.617994
0.617994
0.618006
0.618017
0.618028
0.61804
0.61804
0.618051
0.618063
0.618074
0.618086
0.618086
0.618098
0.618109
0.618121
0.618132
0.618132
0.618144
0.618156
0.618167
0.618179
0.618179
0.618191
0.618202
0.618214
0.618226
0.618226
0.618238
0.618249
0.618261
0.618273
0.618273
0.618285
0.618297
0.618309
0.61832
0.61832
0.618332
0.618344
0.618356
0.618368
0.618368
0.61838
0.618392
0.618404
0.618416
0.618416
0.618428
0.61844
0.618453
0.618465
0.618465
0.618477
0.618489
0.618501
0.618513
0.618513
0.618526
0.618538
0.61855
0.618562
0.618562
0.618575
0.618587
0.618599
0.618612
0.618612
0.618624
0.618636
0.618649
0.618661
0.618661
0.618674
0.618686
0.618699
0.618711
0.618711
0.618724
0.618736
0.618749
0.618761
0.618761
0.618774
0.618786
0.618799
0.618812
0.618812
0.618824
0.618837
0.61885
0.618862
0.618862
0.618875
0.618888
0.6189
0.618913
0.618913
0.618926
0.618939
0.618952
0.618965
0.618965
0.618977
0.61899
0.619003
0.619016
0.619016
0.619029
0.619042
0.619055
0.619068
0.619068
0.619081
0.619094
0.619107
0.61912
0.61912
0.619133
0.619146
0.619159
0.619173
0.619173
0.619186
0.619199
0.619212
0.619225
0.619225
0.619239
0.619252
0.619265
0.619279
0.619279
0.619292
0.619305
0.619319
0.619332
0.619332
0.619345
0.619359
0.619372
0.619386
0.619386
0.619399
0.619413
0.619426
0.61944
0.61944
0.619453
0.619467
0.61948
0.619494
0.619494
0.619507
0.619521
0.619535
0.619548
0.619548
0.619562
0.619576
0.619589
0.619603
0.619603
0.619617
0.619631
0.619644
0.619658
0.619658
0.619672
0.619686
0.6197
0.619714
0.619714
0.619728
0.619741
0.619755
0.619769
0.619769
0.619783
0.619797
0.619811
0.619825
0.619825
0.61984
0.619854
0.619868
0.619882
0.619882
0.619896
0.61991
0.619924
0.619939
0.619939
0.619953
0.619967
0.619981
0.619995
0.619995
0.62001
0.620024
0.620038
0.620053
0.620053
0.620067
0.620081
0.620096
0.62011
0.62011
0.620125
0.620139
0.620154
0.620168
0.620168
0.620183
0.620197
0.620212
0.620226
0.620226
0.620241
0.620255
0.62027
0.620285
0.620285
0.620299
0.620314
0.620329
0.620343
0.620343
0.620358
0.620373
0.620388
0.620402
0.620402
0.620417
0.620432
0.620447
0.620462
0.620462
0.620477
0.620491
0.620506
0.620521
0.620521
0.620536
0.620551
0.620566
0.620581
0.620581
0.620596
0.620611
0.620627
0.620642
0.620642
0.620657
0.620672
0.620687
0.620702
0.620702
0.620717
0.620733
0.620748
0.620763
0.620763
0.620778
0.620794
0.620809
0.620824
0.620824
0.62084
0.620855
0.62087
0.620886
0.620886
0.620901
0.620917
0.620932
0.620948
0.620948
0.620963
0.620979
0.620994
0.62101
0.62101
0.621025
0.621041
0.621056
0.621072
0.621072
0.621088
0.621103
0.621119
0.621135
0.621135
0.62115
0.621166
0.621182
0.621198
0.621198
0.621213
0.621229
0.621245
0.621261
0.621261
0.621277
0.621293
0.621309
0.621325
0.621325
0.621341
0.621357
0.621373
0.621389
0.621389
0.621405
0.621421
0.621437
0.621453
0.621453
0.621469
0.621485
0.621501
0.621517
0.621517
0.621533
0.62155
0.621566
0.621582
0.621582
0.621598
0.621615
0.621631
0.621647
0.621647
0.621664
0.62168
0.621696
0.621713
0.621713
0.621729
0.621746
0.621762
0.621778
0.621778
0.621795
0.621811
0.621828
0.621844
0.621844
0.621861
0.621878
0.621894
0.621911
0.621911
0.621928
0.621944
0.621961
0.621978
0.621978
0.621994
0.622011
0.622028
0.622045
0.622045
0.622061
0.622078
0.622095
0.622112
0.622112
0.622129
0.622146
0.622163
0.62218
0.62218
0.622197
0.622214
0.622231
0.622248
0.622248
0.622265
0.622282
0.622299
0.622316
0.622316
0.622333
0.62235
0.622367
0.622384
0.622384
0.622402
0.622419
0.622436
0.622453
0.622453
0.62247
0.622488
0.622505
0.622522
0.622522
0.62254
0.622557
0.622574
0.622592
0.622592
0.622609
0.622627
0.622644
0.622662
0.622662
0.622679
0.622697
0.622714
0.622732
0.622732
0.622749
0.622767
0.622785
0.622802
0.622802
0.62282
0.622838
0.622855
0.622873
0.622873
0.622891
0.622909
0.622926
0.622944
0.622944
0.622962
0.62298
0.622998
0.623016
0.623016
0.623033
0.623051
0.623069
0.623087
0.623087
0.623105
0.623123
0.623141
0.623159
0.623159
0.623177
0.623195
0.623213
0.623232
0.623232
0.62325
0.623268
0.623286
0.623304
0.623304
0.623322
0.623341
0.623359
0.623377
0.623377
0.623395
0.623414
0.623432
0.62345
0.62345
0.623469
0.623487
0.623506
0.623524
0.623524
0.623543
0.623561
0.62358
0.623598
0.623598
0.623617
0.623635
0.623654
0.623672
0.623672
0.623691
0.62371
0.623728
0.623747
0.623747
0.623766
0.623784
0.623803
0.623822
0.623822
0.62384
0.623859
0.623878
0.623897
0.623897
0.623916
0.623935
0.623953
0.623972
0.623972
0.623991
0.62401
0.624029
0.624048
0.624048
0.624067
0.624086
0.624105
0.624124
0.624124
0.624143
0.624163
0.624182
0.624201
0.624201
0.62422
0.624239
0.624258
0.624278
0.624278
0.624297
0.624316
0.624336
0.624355
0.624355
0.624374
0.624394
0.624413
0.624432
0.624432
0.624452
0.624471
0.624491
0.62451
0.62451
0.62453
0.624549
0.624569
0.624588
0.624588
0.624608
0.624627
0.624647
0.624666
0.624666
0.624686
0.624706
0.624725
0.624745
0.624745
0.624765
0.624785
0.624804
0.624824
0.624824
0.624844
0.624864
0.624884
0.624904
0.624904
0.624924
0.624944
0.624963
0.624983
0.624983
0.625003
0.625023
0.625043
0.625063
0.625063
0.625084
0.625104
0.625124
0.625144
0.625144
0.625164
0.625184
0.625204
0.625224
0.625224
0.625245
0.625265
0.625285
0.625305
0.625305
0.625326
0.625346
0.625366
0.625387
0.625387
0.625407
0.625428
0.625448
0.625468
0.625468
0.625489
0.625509
0.62553
0.62555
0.62555
0.625571
0.625592
0.625612
0.625633
0.625633
0.625653
0.625674
0.625695
0.625715
0.625715
0.625736
0.625757
0.625778
0.625798
0.625798
0.625819
0.62584
0.625861
0.625882
0.625882
0.625903
0.625923
0.625944
0.625965
0.625965
0.625986
0.626007
0.626028
0.626049
0.626049
0.62607
0.626091
0.626112
0.626133
0.626133
0.626155
0.626176
0.626197
0.626218
0.626218
0.626239
0.62626
0.626282
0.626303
0.626303
0.626324
0.626346
0.626367
0.626388
0.626388
0.62641
0.626431
0.626453
0.626474
0.626474
0.626495
0.626517
0.626538
0.62656
0.62656
0.626581
0.626603
0.626625
0.626646
0.626646
0.626668
0.626689
0.626711
0.626733
0.626733
0.626754
0.626776
0.626798
0.62682
0.62682
0.626841
0.626863
0.626885
0.626907
0.626907
0.626929
0.626951
0.626973
0.626994
0.626994
0.627016
0.627038
0.62706
0.627082
0.627082
0.627104
0.627127
0.627149
0.627171
0.627171
0.627193
0.627215
0.627237
0.627259
0.627259
0.627282
0.627304
0.627326
0.627348
0.627348
0.627371
0.627393
0.627415
0.627438
0.627438
0.62746
0.627482
0.627505
0.627527
0.627527
0.62755
0.627572
0.627594
0.627617
0.627617
0.627639
0.627662
0.627685
0.627707
0.627707
0.62773
0.627752
0.627775
0.627798
0.627798
0.627821
0.627843
0.627866
0.627889
0.627889
0.627912
0.627934
0.627957
0.62798
0.62798
0.628003
0.628026
0.628049
0.628072
0.628072
0.628095
0.628118
0.628141
0.628164
0.628164
0.628187
0.62821
0.628233
0.628256
0.628256
0.628279
0.628302
0.628325
0.628349
0.628349
0.628372
0.628395
0.628418
0.628441
0.628441
0.628465
0.628488
0.628511
0.628535
0.628535
0.628558
0.628582
0.628605
0.628628
0.628628
0.628652
0.628675
0.628699
0.628722
0.628722
0.628746
0.62877
0.628793
0.628817
0.628817
0.62884
0.628864
0.628888
0.628911
0.628911
0.628935
0.628959
0.628983
0.629006
0.629006
0.62903
0.629054
0.629078
0.629102
0.629102
0.629126
0.62915
0.629173
0.629197
0.629197
0.629221
0.629245
0.629269
0.629293
0.629293
0.629317
0.629342
0.629366
0.62939
0.62939
0.629414
0.629438
0.629462
0.629487
0.629487
0.629511
0.629535
0.629559
0.629584
0.629584
0.629608
0.629632
0.629657
0.629681
0.629681
0.629705
0.62973
0.629754
0.629779
0.629779
0.629803
0.629828
0.629852
0.629877
0.629877
0.629901
0.629926
0.629951
0.629975
0.629975
0.63
0.630025
0.630049
0.630074
0.630074
0.630099
0.630123
0.630148
0.630173
0.630173
0.630198
0.630223
0.630248
0.630273
0.630273
0.630297
0.630322
0.630347
0.630372
0.630372
0.630397
0.630422
0.630447
0.630473
0.630473
0.630498
0.630523
0.630548
0.630573
0.630573
0.630598
0.630623
0.630649
0.630674
0.630674
0.630699
0.630724
0.63075
0.630775
0.630775
0.6308
0.630826
0.630851
0.630876
0.630876
0.630902
0.630927
0.630953
0.630978
0.630978
0.631004
0.631029
0.631055
0.631081
0.631081
0.631106
0.631132
0.631158
0.631183
0.631183
0.631209
0.631235
0.63126
0.631286
0.631286
0.631312
0.631338
0.631364
0.631389
0.631389
0.631415
0.631441
0.631467
0.631493
0.631493
0.631519
0.631545
0.631571
0.631597
0.631597
0.631623
0.631649
0.631675
0.631701
0.631701
0.631727
0.631754
0.63178
0.631806
0.631806
0.631832
0.631858
0.631885
0.631911
0.631911
0.631937
0.631964
0.63199
0.632016
0.632016
0.632043
0.632069
0.632096
0.632122
0.632122
0.632148
0.632175
0.632202
0.632228
0.632228
0.632255
0.632281
0.632308
0.632334
0.632334
0.632361
0.632388
0.632415
0.632441
0.632441
0.632468
0.632495
0.632522
0.632548
0.632548
0.632575
0.632602
0.632629
0.632656
0.632656
0.632683
0.63271
0.632737
0.632764
0.632764
0.632791
0.632818
0.632845
0.632872
0.632872
0.632899
0.632926
0.632953
0.63298
0.63298
0.633008
0.633035
0.633062
0.633089
0.633089
0.633116
0.633144
0.633171
0.633198
0.633198
0.633226
0.633253
0.633281
0.633308
0.633308
0.633336
0.633363
0.633391
0.633418
0.633418
0.633446
0.633473
0.633501
0.633528
0.633528
0.633556
0.633584
0.633611
0.633639
0.633639
0.633667
0.633694
0.633722
0.63375
0.63375
0.633778
0.633806
0.633833
0.633861
0.633861
0.633889
0.633917
0.633945
0.633973
0.633973
0.634001
0.634029
0.634057
0.634085
0.634085
0.634113
0.634141
0.634169
0.634198
0.634198
0.634226
0.634254
0.634282
0.63431
0.63431
0.634339
0.634367
0.634395
0.634423
0.634423
0.634452
0.63448
0.634509
0.634537
0.634537
0.634565
0.634594
0.634622
0.634651
0.634651
0.634679
0.634708
0.634736
0.634765
0.634765
0.634794
0.634822
0.634851
0.63488
0.63488
0.634908
0.634937
0.634966
0.634995
0.634995
0.635023
0.635052
0.635081
0.63511
0.63511
0.635139
0.635168
0.635196
0.635225
0.635225
0.635254
0.635283
0.635312
0.635341
0.635341
0.63537
0.6354
0.635429
0.635458
0.635458
0.635487
0.635516
0.635545
0.635574
0.635574
0.635604
0.635633
0.635662
0.635692
0.635692
0.635721
0.63575
0.63578
0.635809
0.635809
0.635838
0.635868
0.635897
0.635927
0.635927
0.635956
0.635986
0.636015
0.636045
0.636045
0.636075
0.636104
0.636134
0.636163
0.636163
0.636193
0.636223
0.636253
0.636282
0.636282
0.636312
0.636342
0.636372
0.636402
0.636402
0.636431
0.636461
0.636491
0.636521
0.636521
0.636551
0.636581
0.636611
0.636641
0.636641
0.636671
0.636701
0.636731
0.636761
0.636761
0.636792
0.636822
0.636852
0.636882
0.636882
0.636912
0.636943
0.636973
0.637003
0.637003
0.637033
0.637064
0.637094
0.637125
0.637125
0.637155
0.637185
0.637216
0.637246
0.637246
0.637277
0.637307
0.637338
0.637369
0.637369
0.637399
0.63743
0.63746
0.637491
0.637491
0.637522
0.637552
0.637583
0.637614
0.637614
0.637645
0.637675
0.637706
0.637737
0.637737
0.637768
0.637799
0.63783
0.637861
0.637861
0.637892
0.637923
0.637954
0.637985
0.637985
0.638016
0.638047
0.638078
0.638109
0.638109
0.63814
0.638171
0.638202
0.638234
0.638234
0.638265
0.638296
0.638327
0.638359
0.638359
0.63839
0.638421
0.638453
0.638484
0.638484
0.638515
0.638547
0.638578
0.63861
0.63861
0.638641
0.638673
0.638704
0.638736
0.638736
0.638767
0.638799
0.638831
0.638862
0.638862
0.638894
0.638926
0.638958
0.638989
0.638989
0.639021
0.639053
0.639085
0.639117
0.639117
0.639148
0.63918
0.639212
0.639244
0.639244
0.639276
0.639308
0.63934
0.639372
0.639372
0.639404
0.639436
0.639468
0.6395
0.6395
0.639532
0.639565
0.639597
0.639629
0.639629
0.639661
0.639694
0.639726
0.639758
0.639758
0.63979
0.639823
0.639855
0.639888
0.639888
0.63992
0.639952
0.639985
0.640017
0.640017
0.64005
0.640082
0.640115
0.640147
0.640147
0.64018
0.640213
0.640245
0.640278
0.640278
0.640311
0.640343
0.640376
0.640409
0.640409
0.640442
0.640474
0.640507
0.64054
0.64054
0.640573
0.640606
0.640639
0.640672
0.640672
0.640705
0.640738
0.640771
0.640804
0.640804
0.640837
0.64087
0.640903
0.640936
0.640936
0.640969
0.641002
0.641036
0.641069
0.641069
0.641102
0.641135
0.641169
0.641202
0.641202
0.641235
0.641269
0.641302
0.641335
0.641335
0.641369
0.641402
0.641436
0.641469
0.641469
0.641503
0.641536
0.64157
0.641603
0.641603
0.641637
0.641671
0.641704
0.641738
0.641738
0.641772
0.641805
0.641839
0.641873
0.641873
0.641907
0.64194
0.641974
0.642008
0.642008
0.642042
0.642076
0.64211
0.642144
0.642144
0.642178
0.642212
0.642246
0.64228
0.64228
0.642314
0.642348
0.642382
0.642416
0.642416
0.64245
0.642485
0.642519
0.642553
0.642553
0.642587
0.642622
0.642656
0.64269
0.64269
0.642725
0.642759
0.642793
0.642828
0.642828
0.642862
0.642897
0.642931
0.642966
0.642966
0.643
0.643035
0.643069
0.643104
0.643104
0.643138
0.643173
0.643208
0.643242
0.643242
0.643277
0.643312
0.643347
0.643381
0.643381
0.643416
0.643451
0.643486
0.643521
0.643521
0.643556
0.643591
0.643626
0.643661
0.643661
0.643696
0.643731
0.643766
0.643801
0.643801
0.643836
0.643871
0.643906
0.643941
0.643941
0.643976
0.644011
0.644047
0.644082
0.644082
0.644117
0.644152
0.644188
0.644223
0.644223
0.644258
0.644294
0.644329
0.644365
0.644365
0.6444
0.644436
0.644471
0.644507
0.644507
0.644542
0.644578
0.644613
0.644649
0.644649
0.644685
0.64472
0.644756
0.644792
0.644792
0.644827
0.644863
0.644899
0.644935
0.644935
0.64497
0.645006
0.645042
0.645078
0.645078
0.645114
0.64515
0.645186
0.645222
0.645222
0.645258
0.645294
0.64533
0.645366
0.645366
0.645402
0.645438
0.645474
0.645511
0.645511
0.645547
0.645583
0.645619
0.645655
0.645655
0.645692
0.645728
0.645764
0.645801
0.645801
0.645837
0.645873
0.64591
0.645946
0.645946
0.645983
0.646019
0.646056
0.646092
0.646092
0.646129
0.646165
0.646202
0.646239
0.646239
0.646275
0.646312
0.646349
0.646385
0.646385
0.646422
0.646459
0.646496
0.646533
0.646533
0.646569
0.646606
0.646643
0.64668
0.64668
0.646717
0.646754
0.646791
0.646828
0.646828
0.646865
0.646902
0.646939
0.646976
0.646976
0.647013
0.64705
0.647087
0.647125
0.647125
0.647162
0.647199
0.647236
0.647274
0.647274
0.647311
0.647348
0.647386
0.647423
0.647423
0.64746
0.647498
0.647535
0.647573
0.647573
0.64761
0.647648
0.647685
0.647723
0.647723
0.64776
0.647798
0.647835
0.647873
0.647873
0.647911
0.647948
0.647986
0.648024
0.648024
0.648062
0.648099
0.648137
0.648175
0.648175
0.648213
0.648251
0.648289
0.648327
0.648327
0.648365
0.648403
0.64844
0.648479
0.648479
0.648517
0.648555
0.648593
0.648631
0.648631
0.648669
0.648707
0.648745
0.648783
0.648783
0.648822
0.64886
0.648898
0.648936
0.648936
0.648975
0.649013
0.649051
0.64909
0.64909
0.649128
0.649167
0.649205
0.649244
0.649244
0.649282
0.649321
0.649359
0.649398
0.649398
0.649436
0.649475
0.649513
0.649552
0.649552
0.649591
0.64963
0.649668
0.649707
0.649707
0.649746
0.649785
0.649823
0.649862
0.649862
0.649901
0.64994
0.649979
0.650018
0.650018
0.650057
0.650096
0.650135
0.650174
0.650174
0.650213
0.650252
0.650291
0.65033
0.65033
0.650369
0.650408
0.650447
0.650487
0.650487
0.650526
0.650565
0.650604
0.650644
0.650644
0.650683
0.650722
0.650762
0.650801
0.650801
0.650841
0.65088
0.650919
0.650959
0.650959
0.650998
0.651038
0.651077
0.651117
0.651117
0.651157
0.651196
0.651236
0.651276
0.651276
0.651315
0.651355
0.651395
0.651434
0.651434
0.651474
0.651514
0.651554
0.651594
0.651594
0.651634
0.651673
0.651713
0.651753
0.651753
0.651793
0.651833
0.651873
0.651913
0.651913
0.651953
0.651993
0.652033
0.652074
0.652074
0.652114
0.652154
0.652194
0.652234
0.652234
0.652274
0.652315
0.652355
0.652395
0.652395
0.652436
0.652476
0.652516
0.652557
0.652557
0.652597
0.652638
0.652678
0.652718
0.652718
0.652759
0.6528
0.65284
0.652881
0.652881
0.652921
0.652962
0.653002
0.653043
0.653043
0.653084
0.653125
0.653165
0.653206
0.653206
0.653247
0.653288
0.653328
0.653369
0.653369
0.65341
0.653451
0.653492
0.653533
0.653533
0.653574
0.653615
0.653656
0.653697
0.653697
0.653738
0.653779
0.65382
0.653861
0.653861
0.653902
0.653943
0.653985
0.654026
0.654026
0.654067
0.654108
0.65415
0.654191
0.654191
0.654232
0.654273
0.654315
0.654356
0.654356
0.654398
0.654439
0.654481
0.654522
0.654522
0.654564
0.654605
0.654647
0.654688
0.654688
0.65473
0.654771
0.654813
0.654855
0.654855
0.654896
0.654938
0.65498
0.655021
0.655021
0.655063
0.655105
0.655147
0.655189
0.655189
0.65523
0.655272
0.655314
0.655356
0.655356
0.655398
0.65544
0.655482
0.655524
0.655524
0.655566
0.655608
0.65565
0.655692
0.655692
0.655734
0.655777
0.655819
0.655861
0.655861
0.655903
0.655945
0.655988
0.65603
0.65603
0.656072
0.656115
0.656157
0.656199
0.656199
0.656242
0.656284
0.656327
0.656369
0.656369
0.656411
0.656454
0.656497
0.656539
0.656539
0.656582
0.656624
0.656667
0.656709
0.656709
0.656752
0.656795
0.656838
0.65688
0.65688
0.656923
0.656966
0.657009
0.657051
0.657051
0.657094
0.657137
0.65718
0.657223
0.657223
0.657266
0.657309
0.657352
0.657395
0.657395
0.657438
0.657481
0.657524
0.657567
0.657567
0.65761
0.657653
0.657696
0.657739
0.657739
0.657783
0.657826
0.657869
0.657912
0.657912
0.657956
0.657999
0.658042
0.658085
0.658085
0.658129
0.658172
0.658216
0.658259
0.658259
0.658302
0.658346
0.658389
0.658433
0.658433
0.658477
0.65852
0.658564
0.658607
0.658607
0.658651
0.658695
0.658738
0.658782
0.658782
0.658826
0.658869
0.658913
0.658957
0.658957
0.659001
0.659045
0.659088
0.659132
0.659132
0.659176
0.65922
0.659264
0.659308
0.659308
0.659352
0.659396
0.65944
0.659484
0.659484
0.659528
0.659572
0.659616
0.65966
0.65966
0.659704
0.659749
0.659793
0.659837
0.659837
0.659881
0.659926
0.65997
0.660014
0.660014
0.660058
0.660103
0.660147
0.660192
0.660192
0.660236
0.66028
0.660325
0.660369
0.660369
0.660414
0.660458
0.660503
0.660547
0.660547
0.660592
0.660637
0.660681
0.660726
0.660726
0.66077
0.660815
0.66086
0.660905
0.660905
0.660949
0.660994
0.661039
0.661084
0.661084
0.661129
0.661173
0.661218
0.661263
0.661263
0.661308
0.661353
0.661398
0.661443
0.661443
0.661488
0.661533
0.661578
0.661623
0.661623
0.661668
0.661713
0.661759
0.661804
0.661804
0.661849
0.661894
0.661939
0.661985
0.661985
0.66203
0.662075
0.66212
0.662166
0.662166
0.662211
0.662256
0.662302
0.662347
0.662347
0.662393
0.662438
0.662484
0.662529
0.662529
0.662575
0.66262
0.662666
0.662711
0.662711
0.662757
0.662803
0.662848
0.662894
0.662894
0.662939
0.662985
0.663031
0.663077
0.663077
0.663122
0.663168
0.663214
0.66326
0.66326
0.663306
0.663352
0.663397
0.663443
0.663443
0.663489
0.663535
0.663581
0.663627
0.663627
0.663673
0.663719
0.663765
0.663811
0.663811
0.663858
0.663904
0.66395
0.663996
0.663996
0.664042
0.664088
0.664135
0.664181
0.664181
0.664227
0.664273
0.66432
0.664366
0.664366
0.664412
0.664459
0.664505
0.664552
0.664552
0.664598
0.664644
0.664691
0.664737
0.664737
0.664784
0.664831
0.664877
0.664924
0.664924
0.66497
0.665017
0.665064
0.66511
0.66511
0.665157
0.665204
0.66525
0.665297
0.665297
0.665344
0.665391
0.665437
0.665484
0.665484
0.665531
0.665578
0.665625
0.665672
0.665672
0.665719
0.665766
0.665813
0.665859
0.665859
0.665907
0.665954
0.666001
0.666048
0.666048
0.666095
0.666142
0.666189
0.666236
0.666236
0.666283
0.66633
0.666378
0.666425
0.666425
0.666472
0.666519
0.666567
0.666614
0.666614
0.666661
0.666709
0.666756
0.666803
0.666803
0.666851
0.666898
0.666946
0.666993
0.666993
0.667041
0.667088
0.667136
0.667183
0.667183
0.667231
0.667278
0.667326
0.667374
0.667374
0.667421
0.667469
0.667517
0.667564
0.667564
0.667612
0.66766
0.667708
0.667755
0.667755
0.667803
0.667851
0.667899
0.667947
0.667947
0.667995
0.668043
0.66809
0.668138
0.668138
0.668186
0.668234
0.668282
0.66833
0.66833
0.668378
0.668427
0.668475
0.668523
0.668523
0.668571
0.668619
0.668667
0.668715
0.668715
0.668764
0.668812
0.66886
0.668908
0.668908
0.668957
0.669005
0.669053
0.669101
0.669101
0.66915
0.669198
0.669247
0.669295
0.669295
0.669343
0.669392
0.66944
0.669489
0.669489
0.669537
0.669586
0.669634
0.669683
0.669683
0.669732
0.66978
0.669829
0.669877
0.669877
0.669926
0.669975
0.670024
0.670072
0.670072
0.670121
0.67017
0.670219
0.670267
0.670267
0.670316
0.670365
0.670414
0.670463
0.670463
0.670512
0.670561
0.670609
0.670658
0.670658
0.670707
0.670756
0.670805
0.670854
0.670854
0.670903
0.670952
0.671002
0.671051
0.671051
0.6711
0.671149
0.671198
0.671247
0.671247
0.671296
0.671346
0.671395
0.671444
0.671444
0.671493
0.671543
0.671592
0.671641
0.671641
0.671691
0.67174
0.671789
0.671839
0.671839
0.671888
0.671938
0.671987
0.672037
0.672037
0.672086
0.672136
0.672185
0.672235
0.672235
0.672284
0.672334
0.672383
0.672433
0.672433
0.672483
0.672532
0.672582
0.672632
0.672632
0.672682
0.672731
0.672781
0.672831
0.672831
0.672881
0.67293
0.67298
0.67303
0.67303
0.67308
0.67313
0.67318
0.67323
0.67323
0.67328
0.673329
0.673379
0.673429
0.673429
0.673479
0.673529
0.67358
0.67363
0.67363
0.67368
0.67373
0.67378
0.67383
0.67383
0.67388
0.67393
0.67398
0.674031
0.674031
0.674081
0.674131
0.674181
0.674232
0.674232
0.674282
0.674332
0.674383
0.674433
0.674433
0.674483
0.674534
0.674584
0.674635
0.674635
0.674685
0.674735
0.674786
0.674836
0.674836
0.674887
0.674937
0.674988
0.675039
0.675039
0.675089
0.67514
0.67519
0.675241
0.675241
0.675292
0.675342
0.675393
0.675444
0.675444
0.675494
0.675545
0.675596
0.675647
0.675647
0.675697
0.675748
0.675799
0.67585
0.67585
0.675901
0.675952
0.676002
0.676053
0.676053
0.676104
0.676155
0.676206
0.676257
0.676257
0.676308
0.676359
0.67641
0.676461
0.676461
0.676512
0.676563
0.676615
0.676666
0.676666
0.676717
0.676768
0.676819
0.67687
0.67687
0.676921
0.676973
0.677024
0.677075
0.677075
0.677126
0.677178
0.677229
0.67728
0.67728
0.677332
0.677383
0.677434
0.677486
0.677486
0.677537
0.677589
0.67764
0.677691
0.677691
0.677743
0.677794
0.677846
0.677897
0.677897
0.677949
0.678001
0.678052
0.678104
0.678104
0.678155
0.678207
0.678259
0.67831
0.67831
0.678362
0.678414
0.678465
0.678517
0.678517
0.678569
0.67862
0.678672
0.678724
0.678724
0.678776
0.678828
0.678879
0.678931
0.678931
0.678983
0.679035
0.679087
0.679139
0.679139
0.679191
0.679243
0.679295
0.679347
0.679347
0.679399
0.679451
0.679503
0.679555
0.679555
0.679607
0.679659
0.679711
0.679763
0.679763
0.679815
0.679867
0.679919
0.679972
0.679972
0.680024
0.680076
0.680128
0.68018
0.68018
0.680233
0.680285
0.680337
0.68039
0.68039
0.680442
0.680494
0.680547
0.680599
0.680599
0.680651
0.680704
0.680756
0.680808
0.680808
0.680861
0.680913
0.680966
0.681018
0.681018
0.681071
0.681123
0.681176
0.681228
0.681228
0.681281
0.681334
0.681386
0.681439
0.681439
0.681491
0.681544
0.681597
0.681649
0.681649
0.681702
0.681755
0.681807
0.68186
0.68186
0.681913
0.681966
0.682018
0.682071
0.682071
0.682124
0.682177
0.68223
0.682283
0.682283
0.682335
0.682388
0.682441
0.682494
0.682494
0.682547
0.6826