<?xml version="1.0"?>
<VTKFile type="UnstructuredGrid" version="0.1" byte_order="LittleEndian">
<UnstructuredGrid>
<Piece NumberOfPoints="5000" NumberOfCells="4000">
<PointData Scalars="Reaction 0">
<DataArray type="Float32" Name="Reaction 0" format="ascii">
0.569605
0.569605
0.569605
0.569605
0.569605
0.569605
0.569605
0.569605
0.569605
0.569605
0.569605
0.569605
0.569605
0.569605
0.569605
0.569605
0.569605
0.569605
0.569605
0.569605
0.569605
0.569605
0.569605
0.569605
0.569605
0.569605
0.569605
0.569605
0.569605
0.569605
0.569605
0.569605
0.569605
0.569605
0.569605
0.569605
0.569606
0.569606
0.569606
0.569606
0.569606
0.569606
0.569606
0.569606
0.569606
0.569606
0.569606
0.569606
0.569606
0.569606
0.569606
0.569606
0.569606
0.569606
0.569606
0.569606
0.569607
0.569607
0.569607
0.569607
0.569607
0.569607
0.569607
0.569607
0.569607
0.569607
0.569607
0.569607
0.569607
0.569608
0.569608
0.569608
0.569608
0.569608
0.569608
0.569608
0.569608
0.569608
0.569608
0.569608
0.569608
0.569609
0.569609
0.569609
0.569609
0.569609
0.569609
0.569609
0.569609
0.569609
0.569609
0.56961
0.56961
0.56961
0.56961
0.56961
0.56961
0.56961
0.56961
0.56961
0.56961
0.569611
0.569611
0.569611
0.569611
0.569611
0.569611
0.569611
0.569612
0.569612
0.569612
0.569612
0.569612
0.569612
0.569612
0.569612
0.569612
0.569613
0.569613
0.569613
0.569613
0.569613
0.569613
0.569614
0.569614
0.569614
0.569614
0.569614
0.569614
0.569614
0.569614
0.569615
0.569615
0.569615
0.569615
0.569615
0.569615
0.569616
0.569616
0.569616
0.569616
0.569616
0.569616
0.569617
0.569617
0.569617
0.569617
0.569617
0.569617
0.569618
0.569618
0.569618
0.569618
0.569618
0.569619
0.569619
0.569619
0.569619
0.569619
0.569619
0.569619
0.56962
0.56962
0.56962
0.56962
0.56962
0.569621
0.569621
0.569621
0.569621
0.569621
0.569622
0.569622
0.569622
0.569622
0.569622
0.569623
0.569623
0.569623
0.569623
0.569623
0.569624
0.569624
0.569624
0.569624
0.569624
0.569625
0.569625
0.569625
0.569625
0.569625
0.569626
0.569626
0.569626
0.569627
0.569627
0.569627
0.569627
0.569627
0.569628
0.569628
0.569628
0.569628
0.569629
0.569629
0.569629
0.569629
0.569629
0.56963
0.56963
0.56963
0.56963
0.569631
0.569631
0.569631
0.569631
0.569632
0.569632
0.569632
0.569632
0.569632
0.569633
0.569633
0.569633
0.569634
0.569634
0.569634
0.569634
0.569635
0.569635
0.569635
0.569635
0.569636
0.569636
0.569636
0.569636
0.569637
0.569637
0.569637
0.569638
0.569638
0.569638
0.569639
0.569639
0.569639
0.569639
0.56964
0.56964
0.56964
0.569641
0.569641
0.569641
0.569641
0.569642
0.569642
0.569642
0.569642
0.569643
0.569643
0.569644
0.569644
0.569644
0.569644
0.569645
0.569645
0.569645
0.569645
0.569646
0.569646
0.569647
0.569647
0.569647
0.569647
0.569648
0.569648
0.569648
0.569649
0.569649
0.569649
0.56965
0.56965
0.56965
0.569651
0.569651
0.569651
0.569651
0.569652
0.569652
0.569653
0.569653
0.569653
0.569654
0.569654
0.569654
0.569655
0.569655
0.569655
0.569656
0.569656
0.569656
0.569656
0.569657
0.569657
0.569658
0.569658
0.569658
0.569659
0.569659
0.56966
0.56966
0.56966
0.56966
0.569661
0.569661
0.569662
0.569662
0.569662
0.569663
0.569663
0.569664
0.569664
0.569664
0.569665
0.569665
0.569666
0.569666
0.569666
0.569666
0.569667
0.569667
0.569667
0.569668
0.569668
0.569669
0.569669
0.569669
0.56967
0.56967
0.569671
0.569671
0.569671
0.569672
0.569672
0.569673
0.569673
0.569673
0.569674
0.569674
0.569675
0.569675
0.569675
0.569676
0.569676
0.569677
0.569677
0.569677
0.569678
0.569678
0.569679
0.569679
0.569679
0.56968
0.56968
0.569681
0.569681
0.569681
0.569682
0.569683
0.569683
0.569684
0.569684
0.569684
0.569685
0.569685
0.569686
0.569686
0.569686
0.569687
0.569687
0.569688
0.569688
0.569689
0.569689
0.56969
0.56969
0.56969
0.569691
0.569691
0.569692
0.569692
0.569692
0.569693
0.569694
0.569694
0.569695
0.569695
0.569695
0.569696
0.569696
0.569697
0.569697
0.569698
0.569698
0.569699
0.569699
0.569699
0.5697
0.5697
0.569701
0.569702
0.569702
0.569702
0.569703
0.569703
0.569704
0.569704
0.569705
0.569705
0.569706
0.569707
0.569707
0.569707
0.569708
0.569708
0.569709
0.569709
0.56971
0.56971
0.569711
0.569711
0.569711
0.569712
0.569713
0.569713
0.569714
0.569714
0.569715
0.569715
0.569716
0.569717
0.569717
0.569717
0.569718
0.569719
0.569719
0.569719
0.56972
0.56972
0.569721
0.569722
0.569722
0.569722
0.569723
0.569724
0.569724
0.569724
0.569725
0.569726
0.569726
0.569727
0.569727
0.569728
0.569728
0.569729
0.56973
0.56973
0.56973
0.569731
0.569732
0.569733
0.569733
0.569733
0.569734
0.569735
0.569735
0.569735
0.569736
0.569737
0.569737
0.569738
0.569738
0.569739
0.569739
0.56974
0.569741
0.569741
0.569742
0.569742
0.569743
0.569744
0.569744
0.569744
0.569745
0.569746
0.569747
0.569747
0.569747
0.569748
0.569749
0.56975
0.56975
0.56975
0.569751
0.569752
0.569752
0.569752
0.569753
0.569754
0.569755
0.569755
0.569755
0.569756
0.569757
0.569758
0.569758
0.569758
0.569759
0.56976
0.569761
0.569761
0.569761
0.569762
0.569763
0.569764
0.569764
0.569764
0.569765
0.569766
0.569767
0.569768
0.569768
0.569768
0.569769
0.56977
0.569771
0.569771
0.569771
0.569772
0.569773
0.569774
0.569774
0.569775
0.569775
0.569776
0.569777
0.569777
0.569778
0.569779
0.56978
0.56978
0.56978
0.569781
0.569782
0.569783
0.569784
0.569784
0.569784
0.569785
0.569786
0.569787
0.569787
0.569788
0.569789
0.569789
0.56979
0.56979
0.569791
0.569792
0.569793
0.569794
0.569794
0.569794
0.569795
0.569796
0.569797
0.569797
0.569798
0.569799
0.569799
0.5698
0.5698
0.569801
0.569802
0.569803
0.569804
0.569804
0.569805
0.569805
0.569806
0.569807
0.569807
0.569808
0.569809
0.56981
0.569811
0.569811
0.569812
0.569812
0.569813
0.569814
0.569814
0.569815
0.569816
0.569817
0.569818
0.569818
0.569819
0.56982
0.56982
0.569821
0.569821
0.569822
0.569823
0.569824
0.569825
0.569825
0.569826
0.569827
0.569828
0.569829
0.569829
0.56983
0.56983
0.569831
0.569832
0.569832
0.569833
0.569834
0.569835
0.569836
0.569836
0.569837
0.569838
0.569839
0.56984
0.56984
0.569841
0.569842
0.569843
0.569844
0.569844
0.569845
0.569846
0.569846
0.569847
0.569847
0.569848
0.569849
0.56985
0.569851
0.569851
0.569852
0.569853
0.569854
0.569855
0.569855
0.569856
0.569857
0.569858
0.569859
0.569859
0.56986
0.569861
0.569862
0.569863
0.569863
0.569864
0.569865
0.569866
0.569867
0.569867
0.569868
0.569869
0.56987
0.569871
0.569871
0.569872
0.569873
0.569874
0.569875
0.569875
0.569876
0.569877
0.569878
0.569879
0.569879
0.56988
0.569881
0.569882
0.569883
0.569883
0.569884
0.569885
0.569886
0.569887
0.569887
0.569888
0.569889
0.569891
0.569892
0.569892
0.569893
0.569894
0.569895
0.569896
0.569896
0.569897
0.569898
0.569899
0.5699
0.5699
0.569901
0.569902
0.569903
0.569904
0.569904
0.569905
0.569906
0.569907
0.569909
0.569909
0.56991
0.569911
0.569912
0.569913
0.569913
0.569914
0.569915
0.569916
0.569917
0.569917
0.569918
0.569919
0.569921
0.569922
0.569922
0.569923
0.569924
0.569925
0.569926
0.569926
0.569927
0.569928
0.569929
0.569931
0.569931
0.569932
0.569933
0.569934
0.569935
0.569935
0.569936
0.569937
0.569939
0.56994
0.56994
0.569941
0.569942
0.569943
0.569944
0.569944
0.569945
0.569947
0.569948
0.569949
0.569949
0.56995
0.569951
0.569952
0.569953
0.569953
0.569955
0.569956
0.569957
0.569958
0.569958
0.569959
0.56996
0.569962
0.569963
0.569963
0.569964
0.569965
0.569966
0.569968
0.569968
0.569969
0.56997
0.569971
0.569972
0.569972
0.569973
0.569975
0.569976
0.569977
0.569977
0.569978
0.569979
0.569981
0.569982
0.569982
0.569983
0.569984
0.569986
0.569987
0.569987
0.569988
0.569989
0.56999
0.569992
0.569992
0.569993
0.569994
0.569995
0.569997
0.569997
0.569998
0.569999
0.57
0.570002
0.570002
0.570003
0.570004
0.570005
0.570007
0.570007
0.570008
0.570009
0.57001
0.570012
0.570012
0.570013
0.570014
0.570015
0.570017
0.570017
0.570018
0.570019
0.570021
0.570022
0.570022
0.570023
0.570024
0.570026
0.570027
0.570027
0.570028
0.57003
0.570031
0.570032
0.570032
0.570033
0.570035
0.570036
0.570037
0.570037
0.570039
0.57004
0.570041
0.570043
0.570043
0.570044
0.570045
0.570047
0.570048
0.570048
0.570049
0.570051
0.570052
0.570053
0.570053
0.570055
0.570056
0.570057
0.570059
0.570059
0.57006
0.570061
0.570063
0.570064
0.570064
0.570065
0.570067
0.570068
0.570069
0.570069
0.570071
0.570072
0.570073
0.570075
0.570075
0.570076
0.570078
0.570079
0.57008
0.57008
0.570082
0.570083
0.570084
0.570086
0.570086
0.570087
0.570089
0.57009
0.570091
0.570091
0.570093
0.570094
0.570096
0.570097
0.570097
0.570098
0.5701
0.570101
0.570103
0.570103
0.570104
0.570106
0.570107
0.570108
0.570108
0.57011
0.570111
0.570113
0.570114
0.570114
0.570115
0.570117
0.570118
0.57012
0.57012
0.570121
0.570123
0.570124
0.570126
0.570126
0.570127
0.570128
0.57013
0.570131
0.570131
0.570133
0.570134
0.570136
0.570137
0.570137
0.570139
0.57014
0.570142
0.570143
0.570143
0.570145
0.570146
0.570147
0.570149
0.570149
0.57015
0.570152
0.570153
0.570155
0.570155
0.570156
0.570158
0.570159
0.570161
0.570161
0.570162
0.570164
0.570165
0.570167
0.570167
0.570169
0.57017
0.570172
0.570173
0.570173
0.570175
0.570176
0.570178
0.570179
0.570179
0.570181
0.570182
0.570184
0.570185
0.570185
0.570187
0.570188
0.57019
0.570191
0.570191
0.570193
0.570195
0.570196
0.570198
0.570198
0.570199
0.570201
0.570202
0.570204
0.570204
0.570205
0.570207
0.570209
0.57021
0.57021
0.570212
0.570213
0.570215
0.570216
0.570216
0.570218
0.57022
0.570221
0.570223
0.570223
0.570224
0.570226
0.570228
0.570229
0.570229
0.570231
0.570232
0.570234
0.570236
0.570236
0.570237
0.570239
0.570241
0.570242
0.570242
0.570244
0.570245
0.570247
0.570249
0.570249
0.57025
0.570252
0.570254
0.570255
0.570255
0.570257
0.570259
0.57026
0.570262
0.570262
0.570264
0.570265
0.570267
0.570268
0.570268
0.57027
0.570272
0.570273
0.570275
0.570275
0.570277
0.570278
0.57028
0.570282
0.570282
0.570283
0.570285
0.570287
0.570289
0.570289
0.57029
0.570292
0.570294
0.570295
0.570295
0.570297
0.570299
0.5703
0.570302
0.570302
0.570304
0.570306
0.570307
0.570309
0.570309
0.570311
0.570312
0.570314
0.570316
0.570316
0.570318
0.570319
0.570321
0.570323
0.570323
0.570325
0.570326
0.570328
0.57033
0.57033
0.570332
0.570333
0.570335
0.570337
0.570337
0.570339
0.57034
0.570342
0.570344
0.570344
0.570346
0.570347
0.570349
0.570351
0.570351
0.570353
0.570354
0.570356
0.570358
0.570358
0.57036
0.570362
0.570363
0.570365
0.570365
0.570367
0.570369
0.570371
0.570372
0.570372
0.570374
0.570376
0.570378
0.57038
0.57038
0.570381
0.570383
0.570385
0.570387
0.570387
0.570389
0.570391
0.570392
0.570394
0.570394
0.570396
0.570398
0.5704
0.570402
0.570402
0.570404
0.570405
0.570407
0.570409
0.570409
0.570411
0.570413
0.570415
0.570417
0.570417
0.570418
0.57042
0.570422
0.570424
0.570424
0.570426
0.570428
0.57043
0.570432
0.570432
0.570433
0.570435
0.570437
0.570439
0.570439
0.570441
0.570443
0.570445
0.570447
0.570447
0.570449
0.57045
0.570452
0.570454
0.570454
0.570456
0.570458
0.57046
0.570462
0.570462
0.570464
0.570466
0.570468
0.57047
0.57047
0.570472
0.570474
0.570476
0.570477
0.570477
0.570479
0.570481
0.570483
0.570485
0.570485
0.570487
0.570489
0.570491
0.570493
0.570493
0.570495
0.570497
0.570499
0.570501
0.570501
0.570503
0.570505
0.570507
0.570509
0.570509
0.570511
0.570513
0.570515
0.570517
0.570517
0.570519
0.570521
0.570523
0.570525
0.570525
0.570527
0.570529
0.570531
0.570533
0.570533
0.570535
0.570537
0.570539
0.570541
0.570541
0.570543
0.570545
0.570547
0.570549
0.570549
0.570551
0.570553
0.570555
0.570557
0.570557
0.57056
0.570562
0.570564
0.570566
0.570566
0.570568
0.57057
0.570572
0.570574
0.570574
0.570576
0.570578
0.57058
0.570582
0.570582
0.570584
0.570586
0.570589
0.570591
0.570591
0.570593
0.570595
0.570597
0.570599
0.570599
0.570601
0.570603
0.570605
0.570607
0.570607
0.57061
0.570612
0.570614
0.570616
0.570616
0.570618
0.57062
0.570622
0.570624
0.570624
0.570627
0.570629
0.570631
0.570633
0.570633
0.570635
0.570637
0.570639
0.570642
0.570642
0.570644
0.570646
0.570648
0.57065
0.57065
0.570652
0.570655
0.570657
0.570659
0.570659
0.570661
0.570663
0.570666
0.570668
0.570668
0.57067
0.570672
0.570674
0.570677
0.570677
0.570679
0.570681
0.570683
0.570685
0.570685
0.570688
0.57069
0.570692
0.570694
0.570694
0.570696
0.570699
0.570701
0.570703
0.570703
0.570705
0.570708
0.57071
0.570712
0.570712
0.570714
0.570717
0.570719
0.570721
0.570721
0.570723
0.570726
0.570728
0.57073
0.57073
0.570732
0.570735
0.570737
0.570739
0.570739
0.570742
0.570744
0.570746
0.570748
0.570748
0.570751
0.570753
0.570755
0.570758
0.570758
0.57076
0.570762
0.570765
0.570767
0.570767
0.570769
0.570772
0.570774
0.570776
0.570776
0.570779
0.570781
0.570783
0.570785
0.570785
0.570788
0.57079
0.570792
0.570795
0.570795
0.570797
0.5708
0.570802
0.570804
0.570804
0.570807
0.570809
0.570811
0.570814
0.570814
0.570816
0.570819
0.570821
0.570823
0.570823
0.570826
0.570828
0.57083
0.570833
0.570833
0.570835
0.570838
0.57084
0.570842
0.570842
0.570845
0.570847
0.57085
0.570852
0.570852
0.570855
0.570857
0.570859
0.570862
0.570862
0.570864
0.570867
0.570869
0.570872
0.570872
0.570874
0.570876
0.570879
0.570881
0.570881
0.570884
0.570886
0.570889
0.570891
0.570891
0.570894
0.570896
0.570899
0.570901
0.570901
0.570904
0.570906
0.570909
0.570911
0.570911
0.570914
0.570916
0.570919
0.570921
0.570921
0.570924
0.570926
0.570929
0.570931
0.570931
0.570934
0.570936
0.570939
0.570941
0.570941
0.570944
0.570946
0.570949
0.570951
0.570951
0.570954
0.570956
0.570959
0.570961
0.570961
0.570964
0.570966
0.570969
0.570972
0.570972
0.570974
0.570977
0.570979
0.570982
0.570982
0.570984
0.570987
0.57099
0.570992
0.570992
0.570995
0.570997
0.571
0.571003
0.571003
0.571005
0.571008
0.57101
0.571013
0.571013
0.571016
0.571018
0.571021
0.571024
0.571024
0.571026
0.571029
0.571031
0.571034
0.571034
0.571037
0.571039
0.571042
0.571045
0.571045
0.571047
0.57105
0.571053
0.571055
0.571055
0.571058
0.571061
0.571063
0.571066
0.571066
0.571069
0.571071
0.571074
0.571077
0.571077
0.571079
0.571082
0.571085
0.571087
0.571087
0.57109
0.571093
0.571096
0.571098
0.571098
0.571101
0.571104
0.571106
0.571109
0.571109
0.571112
0.571115
0.571117
0.57112
0.57112
0.571123
0.571126
0.571128
0.571131
0.571131
0.571134
0.571137
0.571139
0.571142
0.571142
0.571145
0.571148
0.57115
0.571153
0.571153
0.571156
0.571159
0.571161
0.571164
0.571164
0.571167
0.57117
0.571173
0.571175
0.571175
0.571178
0.571181
0.571184
0.571187
0.571187
0.57119
0.571192
0.571195
0.571198
0.571198
0.571201
0.571204
0.571207
0.571209
0.571209
0.571212
0.571215
0.571218
0.571221
0.571221
0.571224
0.571226
0.571229
0.571232
0.571232
0.571235
0.571238
0.571241
0.571244
0.571244
0.571246
0.571249
0.571252
0.571255
0.571255
0.571258
0.571261
0.571264
0.571267
0.571267
0.57127
0.571273
0.571276
0.571278
0.571278
0.571281
0.571284
0.571287
0.57129
0.57129
0.571293
0.571296
0.571299
0.571302
0.571302
0.571305
0.571308
0.571311
0.571314
0.571314
0.571317
0.57132
0.571323
0.571326
0.571326
0.571329
0.571332
0.571335
0.571338
0.571338
0.571341
0.571344
0.571347
0.57135
0.57135
0.571353
0.571356
0.571359
0.571362
0.571362
0.571365
0.571368
0.571371
0.571374
0.571374
0.571377
0.57138
0.571383
0.571386
0.571386
0.571389
0.571392
0.571395
0.571398
0.571398
0.571401
0.571404
0.571407
0.57141
0.57141
0.571413
0.571417
0.57142
0.571423
0.571423
0.571426
0.571429
0.571432
0.571435
0.571435
0.571438
0.571441
0.571444
0.571447
0.571447
0.571451
0.571454
0.571457
0.57146
0.57146
0.571463
0.571466
0.571469
0.571473
0.571473
0.571476
0.571479
0.571482
0.571485
0.571485
0.571488
0.571491
0.571495
0.571498
0.571498
0.571501
0.571504
0.571507
0.571511
0.571511
0.571514
0.571517
0.57152
0.571523
0.571523
0.571526
0.57153
0.571533
0.571536
0.571536
0.571539
0.571543
0.571546
0.571549
0.571549
0.571552
0.571555
0.571559
0.571562
0.571562
0.571565
0.571568
0.571572
0.571575
0.571575
0.571578
0.571582
0.571585
0.571588
0.571588
0.571591
0.571595
0.571598
0.571601
0.571601
0.571604
0.571608
0.571611
0.571614
0.571614
0.571618
0.571621
0.571624
0.571628
0.571628
0.571631
0.571634
0.571638
0.571641
0.571641
0.571644
0.571648
0.571651
0.571654
0.571654
0.571658
0.571661
0.571664
0.571668
0.571668
0.571671
0.571674
0.571678
0.571681
0.571681
0.571685
0.571688
0.571691
0.571695
0.571695
0.571698
0.571702
0.571705
0.571708
0.571708
0.571712
0.571715
0.571719
0.571722
0.571722
0.571725
0.571729
0.571732
0.571736
0.571736
0.571739
0.571743
0.571746
0.57175
0.57175
0.571753
0.571756
0.57176
0.571763
0.571763
0.571767
0.57177
0.571774
0.571777
0.571777
0.571781
0.571784
0.571788
0.571791
0.571791
0.571795
0.571798
0.571802
0.571805
0.571805
0.571809
0.571812
0.571816
0.571819
0.571819
0.571823
0.571827
0.57183
0.571834
0.571834
0.571837
0.571841
0.571844
0.571848
0.571848
0.571851
0.571855
0.571859
0.571862
0.571862
0.571866
0.571869
0.571873
0.571877
0.571877
0.57188
0.571884
0.571887
0.571891
0.571891
0.571895
0.571898
0.571902
0.571905
0.571905
0.571909
0.571913
0.571916
0.57192
0.57192
0.571924
0.571927
0.571931
0.571935
0.571935
0.571938
0.571942
0.571946
0.571949
0.571949
0.571953
0.571957
0.57196
0.571964
0.571964
0.571968
0.571971
0.571975
0.571979
0.571979
0.571983
0.571986
0.57199
0.571994
0.571994
0.571997
0.572001
0.572005
0.572009
0.572009
0.572012
0.572016
0.57202
0.572024
0.572024
0.572027
0.572031
0.572035
0.572039
0.572039
0.572043
0.572046
0.57205
0.572054
0.572054
0.572058
0.572062
0.572065
0.572069
0.572069
0.572073
0.572077
0.572081
0.572084
0.572084
0.572088
0.572092
0.572096
0.5721
0.5721
0.572104
0.572107
0.572111
0.572115
0.572115
0.572119
0.572123
0.572127
0.572131
0.572131
0.572135
0.572138
0.572142
0.572146
0.572146
0.57215
0.572154
0.572158
0.572162
0.572162
0.572166
0.57217
0.572174
0.572178
0.572178
0.572181
0.572185
0.572189
0.572193
0.572193
0.572197
0.572201
0.572205
0.572209
0.572209
0.572213
0.572217
0.572221
0.572225
0.572225
0.572229
0.572233
0.572237
0.572241
0.572241
0.572245
0.572249
0.572253
0.572257
0.572257
0.572261
0.572265
0.572269
0.572273
0.572273
0.572277
0.572281
0.572285
0.572289
0.572289
0.572293
0.572297
0.572302
0.572306
0.572306
0.57231
0.572314
0.572318
0.572322
0.572322
0.572326
0.57233
0.572334
0.572338
0.572338
0.572342
0.572347
0.572351
0.572355
0.572355
0.572359
0.572363
0.572367
0.572371
0.572371
0.572375
0.57238
0.572384
0.572388
0.572388
0.572392
0.572396
0.572401
0.572405
0.572405
0.572409
0.572413
0.572417
0.572421
0.572421
0.572426
0.57243
0.572434
0.572438
0.572438
0.572442
0.572447
0.572451
0.572455
0.572455
0.572459
0.572464
0.572468
0.572472
0.572472
0.572476
0.572481
0.572485
0.572489
0.572489
0.572494
0.572498
0.572502
0.572506
0.572506
0.572511
0.572515
0.572519
0.572524
0.572524
0.572528
0.572532
0.572537
0.572541
0.572541
0.572545
0.57255
0.572554
0.572558
0.572558
0.572563
0.572567
0.572571
0.572576
0.572576
0.57258
0.572584
0.572589
0.572593
0.572593
0.572598
0.572602
0.572606
0.572611
0.572611
0.572615
0.57262
0.572624
0.572629
0.572629
0.572633
0.572637
0.572642
0.572646
0.572646
0.572651
0.572655
0.57266
0.572664
0.572664
0.572669
0.572673
0.572677
0.572682
0.572682
0.572686
0.572691
0.572695
0.5727
0.5727
0.572704
0.572709
0.572714
0.572718
0.572718
0.572723
0.572727
0.572732
0.572736
0.572736
0.572741
0.572745
0.57275
0.572754
0.572754
0.572759
0.572764
0.572768
0.572773
0.572773
0.572777
0.572782
0.572786
0.572791
0.572791
0.572796
0.5728
0.572805
0.57281
0.57281
0.572814
0.572819
0.572823
0.572828
0.572828
0.572833
0.572837
0.572842
0.572847
0.572847
0.572851
0.572856
0.572861
0.572865
0.572865
0.57287
0.572875
0.57288
0.572884
0.572884
0.572889
0.572894
0.572898
0.572903
0.572903
0.572908
0.572913
0.572917
0.572922
0.572922
0.572927
0.572932
0.572936
0.572941
0.572941
0.572946
0.572951
0.572956
0.57296
0.57296
0.572965
0.57297
0.572975
0.57298
0.57298
0.572984
0.572989
0.572994
0.572999
0.572999
0.573004
0.573008
0.573013
0.573018
0.573018
0.573023
0.573028
0.573033
0.573038
0.573038
0.573043
0.573047
0.573052
0.573057
0.573057
0.573062
0.573067
0.573072
0.573077
0.573077
0.573082
0.573087
0.573092
0.573097
0.573097
0.573102
0.573106
0.573111
0.573116
0.573116
0.573121
0.573126
0.573131
0.573136
0.573136
0.573141
0.573146
0.573151
0.573156
0.573156
0.573161
0.573166
0.573171
0.573176
0.573176
0.573181
0.573186
0.573191
0.573197
0.573197
0.573202
0.573207
0.573212
0.573217
0.573217
0.573222
0.573227
0.573232
0.573237
0.573237
0.573242
0.573247
0.573252
0.573258
0.573258
0.573263
0.573268
0.573273
0.573278
0.573278
0.573283
0.573288
0.573294
0.573299
0.573299
0.573304
0.573309
0.573314
0.573319
0.573319
0.573325
0.57333
0.573335
0.57334
0.57334
0.573345
0.573351
0.573356
0.573361
0.573361
0.573366
0.573372
0.573377
0.573382
0.573382
0.573387
0.573393
0.573398
0.573403
0.573403
0.573408
0.573414
0.573419
0.573424
0.573424
0.57343
0.573435
0.57344
0.573446
0.573446
0.573451
0.573456
0.573462
0.573467
0.573467
0.573472
0.573478
0.573483
0.573488
0.573488
0.573494
0.573499
0.573504
0.57351
0.57351
0.573515
0.573521
0.573526
0.573532
0.573532
0.573537
0.573542
0.573548
0.573553
0.573553
0.573559
0.573564
0.57357
0.573575
0.573575
0.573581
0.573586
0.573592
0.573597
0.573597
0.573602
0.573608
0.573613
0.573619
0.573619
0.573625
0.57363
0.573636
0.573641
0.573641
0.573647
0.573652
0.573658
0.573663
0.573663
0.573669
0.573674
0.57368
0.573686
0.573686
0.573691
0.573697
0.573702
0.573708
0.573708
0.573714
0.573719
0.573725
0.573731
0.573731
0.573736
0.573742
0.573747
0.573753
0.573753
0.573759
0.573764
0.57377
0.573776
0.573776
0.573782
0.573787
0.573793
0.573799
0.573799
0.573804
0.57381
0.573816
0.573822
0.573822
0.573827
0.573833
0.573839
0.573845
0.573845
0.57385
0.573856
0.573862
0.573868
0.573868
0.573874
0.573879
0.573885
0.573891
0.573891
0.573897
0.573903
0.573908
0.573914
0.573914
0.57392
0.573926
0.573932
0.573938
0.573938
0.573944
0.573949
0.573955
0.573961
0.573961
0.573967
0.573973
0.573979
0.573985
0.573985
0.573991
0.573997
0.574003
0.574009
0.574009
0.574015
0.57402
0.574026
0.574032
0.574032
0.574038
0.574044
0.57405
0.574056
0.574056
0.574062
0.574068
0.574074
0.57408
0.57408
0.574086
0.574093
0.574099
0.574105
0.574105
0.574111
0.574117
0.574123
0.574129
0.574129
0.574135
0.574141
0.574147
0.574153
0.574153
0.574159
0.574165
0.574172
0.574178
0.574178
0.574184
0.57419
0.574196
0.574202
0.574202
0.574208
0.574215
0.574221
0.574227
0.574227
0.574233
0.574239
0.574246
0.574252
0.574252
0.574258
0.574264
0.57427
0.574277
0.574277
0.574283
0.574289
0.574295
0.574302
0.574302
0.574308
0.574314
0.574321
0.574327
0.574327
0.574333
0.57434
0.574346
0.574352
0.574352
0.574358
0.574365
0.574371
0.574378
0.574378
0.574384
0.57439
0.574397
0.574403
0.574403
0.574409
0.574416
0.574422
0.574429
0.574429
0.574435
0.574441
0.574448
0.574454
0.574454
0.574461
0.574467
0.574474
0.57448
0.57448
0.574487
0.574493
0.5745
0.574506
0.574506
0.574513
0.574519
0.574526
0.574532
0.574532
0.574539
0.574545
0.574552
0.574558
0.574558
0.574565
0.574571
0.574578
0.574585
0.574585
0.574591
0.574598
0.574604
0.574611
0.574611
0.574618
0.574624
0.574631
0.574637
0.574637
0.574644
0.574651
0.574657
0.574664
0.574664
0.574671
0.574677
0.574684
0.574691
0.574691
0.574698
0.574704
0.574711
0.574718
0.574718
0.574724
0.574731
0.574738
0.574745
0.574745
0.574752
0.574758
0.574765
0.574772
0.574772
0.574779
0.574785
0.574792
0.574799
0.574799
0.574806
0.574813
0.57482
0.574826
0.574826
0.574833
0.57484
0.574847
0.574854
0.574854
0.574861
0.574868
0.574875
0.574882
0.574882
0.574889
0.574895
0.574902
0.574909
0.574909
0.574916
0.574923
0.57493
0.574937
0.574937
0.574944
0.574951
0.574958
0.574965
0.574965
0.574972
0.574979
0.574986
0.574993
0.574993
0.575
0.575007
0.575014
0.575021
0.575021
0.575029
0.575036
0.575043
0.57505
0.57505
0.575057
0.575064
0.575071
0.575078
0.575078
0.575085
0.575093
0.5751
0.575107
0.575107
0.575114
0.575121
0.575128
0.575136
0.575136
0.575143
0.57515
0.575157
0.575165
0.575165
0.575172
0.575179
0.575186
0.575194
0.575194
0.575201
0.575208
0.575215
0.575223
0.575223
0.57523
0.575237
0.575245
0.575252
0.575252
0.575259
0.575267
0.575274
0.575281
0.575281
0.575289
0.575296
0.575304
0.575311
0.575311
0.575318
0.575326
0.575333
0.575341
0.575341
0.575348
0.575355
0.575363
0.57537
0.57537
0.575378
0.575385
0.575393
0.5754
0.5754
0.575408
0.575415
0.575423
0.57543
0.57543
0.575438
0.575445
0.575453
0.575461
0.575461
0.575468
0.575476
0.575483
0.575491
0.575491
0.575499
0.575506
0.575514
0.575521
0.575521
0.575529
0.575537
0.575544
0.575552
0.575552
0.57556
0.575567
0.575575
0.575583
0.575583
0.57559
0.575598
0.575606
0.575614
0.575614
0.575621
0.575629
0.575637
0.575645
0.575645
0.575652
0.57566
0.575668
0.575676
0.575676
0.575684
0.575691
0.575699
0.575707
0.575707
0.575715
0.575723
0.575731
0.575739
0.575739
0.575747
0.575754
0.575762
0.57577
0.57577
0.575778
0.575786
0.575794
0.575802
0.575802
0.57581
0.575818
0.575826
0.575834
0.575834
0.575842
0.57585
0.575858
0.575866
0.575866
0.575874
0.575882
0.57589
0.575898
0.575898
0.575906
0.575914
0.575922
0.57593
0.57593
0.575939
0.575947
0.575955
0.575963
0.575963
0.575971
0.575979
0.575987
0.575995
0.575995
0.576004
0.576012
0.57602
0.576028
0.576028
0.576036
0.576045
0.576053
0.576061
0.576061
0.576069
0.576078
0.576086
0.576094
0.576094
0.576103
0.576111
0.576119
0.576127
0.576127
0.576136
0.576144
0.576152
0.576161
0.576161
0.576169
0.576178
0.576186
0.576194
0.576194
0.576203
0.576211
0.57622
0.576228
0.576228
0.576236
0.576245
0.576253
0.576262
0.576262
0.57627
0.576279
0.576287
0.576296
0.576296
0.576304
0.576313
0.576321
0.57633
0.57633
0.576339
0.576347
0.576356
0.576364
0.576364
0.576373
0.576382
0.57639
0.576399
0.576399
0.576407
0.576416
0.576425
0.576433
0.576433
0.576442
0.576451
0.576459
0.576468
0.576468
0.576477
0.576486
0.576494
0.576503
0.576503
0.576512
0.576521
0.576529
0.576538
0.576538
0.576547
0.576556
0.576565
0.576573
0.576573
0.576582
0.576591
0.5766
0.576609
0.576609
0.576618
0.576627
0.576636
0.576644
0.576644
0.576653
0.576662
0.576671
0.57668
0.57668
0.576689
0.576698
0.576707
0.576716
0.576716
0.576725
0.576734
0.576743
0.576752
0.576752
0.576761
0.57677
0.576779
0.576788
0.576788
0.576797
0.576807
0.576816
0.576825
0.576825
0.576834
0.576843
0.576852
0.576861
0.576861
0.576871
0.57688
0.576889
0.576898
0.576898
0.576907
0.576917
0.576926
0.576935
0.576935
0.576944
0.576954
0.576963
0.576972
0.576972
0.576981
0.576991
0.577
0.577009
0.577009
0.577019
0.577028
0.577037
0.577047
0.577047
0.577056
0.577066
0.577075
0.577084
0.577084
0.577094
0.577103
0.577113
0.577122
0.577122
0.577132
0.577141
0.577151
0.57716
0.57716
0.57717
0.577179
0.577189
0.577198
0.577198
0.577208
0.577217
0.577227
0.577237
0.577237
0.577246
0.577256
0.577265
0.577275
0.577275
0.577285
0.577294
0.577304
0.577314
0.577314
0.577323
0.577333
0.577343
0.577353
0.577353
0.577362
0.577372
0.577382
0.577392
0.577392
0.577401
0.577411
0.577421
0.577431
0.577431
0.577441
0.577451
0.57746
0.57747
0.57747
0.57748
0.57749
0.5775
0.57751
0.57751
0.57752
0.57753
0.57754
0.57755
0.57755
0.57756
0.57757
0.57758
0.57759
0.57759
0.5776
0.57761
0.57762
0.57763
0.57763
0.57764
0.57765
0.57766
0.57767
0.57767
0.57768
0.57769
0.5777
0.57771
0.57771
0.577721
0.577731
0.577741
0.577751
0.577751
0.577761
0.577772
0.577782
0.577792
0.577792
0.577802
0.577813
0.577823
0.577833
0.577833
0.577843
0.577854
0.577864
0.577874
0.577874
0.577885
0.577895
0.577905
0.577916
0.577916
0.577926
0.577937
0.577947
0.577958
0.577958
0.577968
0.577978
0.577989
0.577999
0.577999
0.57801
0.57802
0.578031
0.578041
0.578041
0.578052
0.578063
0.578073
0.578084
0.578084
0.578094
0.578105
0.578116
0.578126
0.578126
0.578137
0.578147
0.578158
0.578169
0.578169
0.578179
0.57819
0.578201
0.578212
0.578212
0.578222
0.578233
0.578244
0.578255
0.578255
0.578265
0.578276
0.578287
0.578298
0.578298
0.578309
0.57832
0.578331
0.578341
0.578341
0.578352
0.578363
0.578374
0.578385
0.578385
0.578396
0.578407
0.578418
0.578429
0.578429
0.57844
0.578451
0.578462
0.578473
0.578473
0.578484
0.578495
0.578506
0.578517
0.578517
0.578528
0.57854
0.578551
0.578562
0.578562
0.578573
0.578584
0.578595
0.578606
0.578606
0.578618
0.578629
0.57864
0.578651
0.578651
0.578663
0.578674
0.578685
0.578697
0.578697
0.578708
0.578719
0.578731
0.578742
0.578742
0.578753
0.578765
0.578776
0.578787
0.578787
0.578799
0.57881
0.578822
0.578833
0.578833
0.578845
0.578856
0.578868
0.578879
0.578879
0.578891
0.578902
0.578914
0.578925
0.578925
0.578937
0.578949
0.57896
0.578972
0.578972
0.578983
0.578995
0.579007
0.579018
0.579018
0.57903
0.579042
0.579054
0.579065
0.579065
0.579077
0.579089
0.579101
0.579112
0.579112
0.579124
0.579136
0.579148
0.57916
0.57916
0.579172
0.579183
0.579195
0.579207
0.579207
0.579219
0.579231
0.579243
0.579255
0.579255
0.579267
0.579279
0.579291
0.579303
0.579303
0.579315
0.579327
0.579339
0.579351
0.579351
0.579363
0.579376
0.579388
0.5794
0.5794
0.579412
0.579424
0.579436
0.579448
0.579448
0.579461
0.579473
0.579485
0.579497
0.579497
0.57951
0.579522
0.579534
0.579547
0.579547
0.579559
0.579571
0.579584
0.579596
0.579596
0.579608
0.579621
0.579633
0.579646
0.579646
0.579658
0.57967
0.579683
0.579695
0.579695
0.579708
0.57972
0.579733
0.579746
0.579746
0.579758
0.579771
0.579783
0.579796
0.579796
0.579809
0.579821
0.579834
0.579846
0.579846
0.579859
0.579872
0.579885
0.579897
0.579897
0.57991
0.579923
0.579936
0.579948
0.579948
0.579961
0.579974
0.579987
0.58
0.58
0.580013
0.580025
0.580038
0.580051
0.580051
0.580064
0.580077
0.58009
0.580103
0.580103
0.580116
0.580129
0.580142
0.580155
0.580155
0.580168
0.580181
0.580194
0.580208
0.580208
0.580221
0.580234
0.580247
0.58026
0.58026
0.580273
0.580286
0.5803
0.580313
0.580313
0.580326
0.580339
0.580353
0.580366
0.580366
0.580379
0.580393
0.580406
0.580419
0.580419
0.580433
0.580446
0.58046
0.580473
0.580473
0.580486
0.5805
0.580513
0.580527
0.580527
0.58054
0.580554
0.580567
0.580581
0.580581
0.580595
0.580608
0.580622
0.580635
0.580635
0.580649
0.580663
0.580676
0.58069
0.58069
0.580704
0.580717
0.580731
0.580745
0.580745
0.580759
0.580772
0.580786
0.5808
0.5808
0.580814
0.580828
0.580842
0.580856
0.580856
0.580869
0.580883
0.580897
0.580911
0.580911
0.580925
0.580939
0.580953
0.580967
0.580967
0.580981
0.580995
0.581009
0.581023