<?xml version="1.0"?>
<VTKFile type="UnstructuredGrid" version="0.1" byte_order="LittleEndian">
<UnstructuredGrid>
<Piece NumberOfPoints="5000" NumberOfCells="4000">
<PointData Scalars="Reaction 0">
<DataArray type="Float32" Name="Reaction 0" format="ascii">
0.568382
0.568382
0.568382
0.568382
0.568382
0.568382
0.568382
0.568382
0.568382
0.568382
0.568382
0.568382
0.568382
0.568382
0.568382
0.568382
0.568382
0.568382
0.568382
0.568382
0.568382
0.568382
0.568382
0.568382
0.568382
0.568382
0.568382
0.568382
0.568382
0.568382
0.568382
0.568382
0.568382
0.568382
0.568382
0.568382
0.568382
0.568382
0.568382
0.568382
0.568382
0.568382
0.568382
0.568383
0.568383
0.568383
0.568383
0.568383
0.568383
0.568383
0.568383
0.568383
0.568383
0.568383
0.568383
0.568383
0.568383
0.568383
0.568383
0.568383
0.568383
0.568383
0.568383
0.568383
0.568383
0.568383
0.568384
0.568384
0.568384
0.568384
0.568384
0.568384
0.568384
0.568384
0.568384
0.568384
0.568384
0.568384
0.568384
0.568384
0.568384
0.568385
0.568385
0.568385
0.568385
0.568385
0.568385
0.568385
0.568385
0.568385
0.568385
0.568385
0.568385
0.568385
0.568386
0.568386
0.568386
0.568386
0.568386
0.568386
0.568386
0.568386
0.568386
0.568386
0.568386
0.568386
0.568387
0.568387
0.568387
0.568387
0.568387
0.568387
0.568387
0.568387
0.568387
0.568387
0.568387
0.568388
0.568388
0.568388
0.568388
0.568388
0.568388
0.568388
0.568388
0.568388
0.568389
0.568389
0.568389
0.568389
0.568389
0.568389
0.568389
0.568389
0.568389
0.568389
0.56839
0.56839
0.56839
0.56839
0.56839
0.56839
0.56839
0.568391
0.568391
0.568391
0.568391
0.568391
0.568391
0.568391
0.568391
0.568391
0.568392
0.568392
0.568392
0.568392
0.568392
0.568392
0.568392
0.568393
0.568393
0.568393
0.568393
0.568393
0.568393
0.568393
0.568394
0.568394
0.568394
0.568394
0.568394
0.568394
0.568394
0.568395
0.568395
0.568395
0.568395
0.568395
0.568395
0.568396
0.568396
0.568396
0.568396
0.568396
0.568396
0.568396
0.568397
0.568397
0.568397
0.568397
0.568397
0.568397
0.568398
0.568398
0.568398
0.568398
0.568398
0.568398
0.568399
0.568399
0.568399
0.568399
0.568399
0.568399
0.5684
0.5684
0.5684
0.5684
0.5684
0.568401
0.568401
0.568401
0.568401
0.568401
0.568401
0.568401
0.568402
0.568402
0.568402
0.568402
0.568402
0.568403
0.568403
0.568403
0.568403
0.568403
0.568404
0.568404
0.568404
0.568404
0.568404
0.568405
0.568405
0.568405
0.568405
0.568405
0.568406
0.568406
0.568406
0.568406
0.568406
0.568407
0.568407
0.568407
0.568407
0.568407
0.568408
0.568408
0.568408
0.568409
0.568409
0.568409
0.568409
0.568409
0.56841
0.56841
0.56841
0.56841
0.56841
0.568411
0.568411
0.568411
0.568411
0.568412
0.568412
0.568412
0.568412
0.568412
0.568413
0.568413
0.568413
0.568413
0.568414
0.568414
0.568414
0.568414
0.568414
0.568415
0.568415
0.568415
0.568415
0.568416
0.568416
0.568416
0.568417
0.568417
0.568417
0.568417
0.568418
0.568418
0.568418
0.568418
0.568418
0.568419
0.568419
0.568419
0.568419
0.56842
0.56842
0.56842
0.56842
0.568421
0.568421
0.568421
0.568422
0.568422
0.568422
0.568422
0.568423
0.568423
0.568423
0.568423
0.568424
0.568424
0.568424
0.568424
0.568425
0.568425
0.568425
0.568426
0.568426
0.568426
0.568426
0.568427
0.568427
0.568427
0.568427
0.568428
0.568428
0.568429
0.568429
0.568429
0.568429
0.56843
0.56843
0.56843
0.56843
0.568431
0.568431
0.568431
0.568431
0.568432
0.568432
0.568433
0.568433
0.568433
0.568433
0.568434
0.568434
0.568434
0.568434
0.568435
0.568435
0.568436
0.568436
0.568436
0.568436
0.568437
0.568437
0.568438
0.568438
0.568438
0.568438
0.568439
0.568439
0.568439
0.568439
0.56844
0.56844
0.568441
0.568441
0.568441
0.568441
0.568442
0.568442
0.568442
0.568443
0.568443
0.568444
0.568444
0.568444
0.568444
0.568445
0.568445
0.568446
0.568446
0.568446
0.568446
0.568447
0.568447
0.568447
0.568448
0.568448
0.568449
0.568449
0.568449
0.568449
0.56845
0.56845
0.568451
0.568451
0.568451
0.568452
0.568452
0.568452
0.568452
0.568453
0.568453
0.568454
0.568454
0.568454
0.568455
0.568455
0.568456
0.568456
0.568456
0.568456
0.568457
0.568457
0.568458
0.568458
0.568458
0.568459
0.568459
0.56846
0.56846
0.56846
0.568461
0.568461
0.568462
0.568462
0.568462
0.568462
0.568463
0.568463
0.568463
0.568464
0.568464
0.568465
0.568465
0.568465
0.568466
0.568466
0.568467
0.568467
0.568467
0.568468
0.568468
0.568469
0.568469
0.568469
0.56847
0.56847
0.568471
0.568471
0.568471
0.568472
0.568472
0.568473
0.568473
0.568473
0.568474
0.568474
0.568475
0.568475
0.568475
0.568476
0.568476
0.568477
0.568477
0.568477
0.568478
0.568478
0.568479
0.568479
0.568479
0.56848
0.56848
0.568481
0.568481
0.568481
0.568482
0.568482
0.568483
0.568483
0.568483
0.568484
0.568485
0.568485
0.568486
0.568486
0.568486
0.568487
0.568487
0.568488
0.568488
0.568488
0.568489
0.568489
0.56849
0.56849
0.56849
0.568491
0.568492
0.568492
0.568492
0.568493
0.568493
0.568494
0.568494
0.568494
0.568495
0.568495
0.568496
0.568497
0.568497
0.568497
0.568498
0.568498
0.568499
0.568499
0.568499
0.5685
0.568501
0.568501
0.568501
0.568502
0.568502
0.568503
0.568503
0.568503
0.568504
0.568505
0.568505
0.568506
0.568506
0.568506
0.568507
0.568508
0.568508
0.568508
0.568509
0.568509
0.56851
0.568511
0.568511
0.568511
0.568512
0.568512
0.568513
0.568513
0.568514
0.568514
0.568515
0.568515
0.568515
0.568516
0.568517
0.568517
0.568518
0.568518
0.568518
0.568519
0.56852
0.56852
0.56852
0.568521
0.568522
0.568522
0.568523
0.568523
0.568523
0.568524
0.568525
0.568525
0.568525
0.568526
0.568527
0.568527
0.568528
0.568528
0.568528
0.568529
0.56853
0.56853
0.56853
0.568531
0.568532
0.568532
0.568533
0.568533
0.568534
0.568534
0.568535
0.568536
0.568536
0.568536
0.568537
0.568538
0.568538
0.568538
0.568539
0.56854
0.56854
0.568541
0.568541
0.568542
0.568542
0.568543
0.568544
0.568544
0.568544
0.568545
0.568546
0.568546
0.568546
0.568547
0.568548
0.568548
0.568549
0.568549
0.56855
0.56855
0.568551
0.568552
0.568552
0.568552
0.568553
0.568554
0.568555
0.568555
0.568555
0.568556
0.568557
0.568557
0.568557
0.568558
0.568559
0.568559
0.56856
0.56856
0.568561
0.568562
0.568562
0.568563
0.568563
0.568564
0.568564
0.568565
0.568566
0.568566
0.568567
0.568567
0.568568
0.568569
0.568569
0.56857
0.56857
0.568571
0.568572
0.568572
0.568572
0.568573
0.568574
0.568575
0.568575
0.568575
0.568576
0.568577
0.568578
0.568578
0.568578
0.568579
0.56858
0.568581
0.568581
0.568581
0.568582
0.568583
0.568584
0.568584
0.568584
0.568585
0.568586
0.568587
0.568587
0.568587
0.568588
0.568589
0.56859
0.56859
0.568591
0.568591
0.568592
0.568593
0.568593
0.568594
0.568594
0.568595
0.568596
0.568596
0.568597
0.568597
0.568598
0.568599
0.568599
0.5686
0.568601
0.568601
0.568602
0.568602
0.568603
0.568604
0.568605
0.568605
0.568605
0.568606
0.568607
0.568608
0.568609
0.568609
0.568609
0.56861
0.568611
0.568612
0.568612
0.568613
0.568613
0.568614
0.568615
0.568615
0.568616
0.568617
0.568618
0.568618
0.568618
0.568619
0.56862
0.568621
0.568622
0.568622
0.568623
0.568623
0.568624
0.568625
0.568625
0.568626
0.568627
0.568628
0.568628
0.568628
0.568629
0.56863
0.568631
0.568632
0.568632
0.568633
0.568633
0.568634
0.568635
0.568635
0.568636
0.568637
0.568638
0.568639
0.568639
0.568639
0.56864
0.568641
0.568642
0.568642
0.568643
0.568644
0.568645
0.568646
0.568646
0.568646
0.568647
0.568648
0.568649
0.568649
0.56865
0.568651
0.568652
0.568653
0.568653
0.568653
0.568654
0.568655
0.568656
0.568656
0.568657
0.568658
0.568659
0.56866
0.56866
0.568661
0.568661
0.568662
0.568663
0.568663
0.568664
0.568665
0.568666
0.568667
0.568667
0.568668
0.568669
0.56867
0.568671
0.568671
0.568671
0.568672
0.568673
0.568674
0.568674
0.568675
0.568676
0.568677
0.568678
0.568678
0.568679
0.56868
0.568681
0.568682
0.568682
0.568683
0.568684
0.568684
0.568685
0.568685
0.568686
0.568687
0.568688
0.568689
0.568689
0.56869
0.568691
0.568692
0.568693
0.568693
0.568694
0.568695
0.568696
0.568697
0.568697
0.568698
0.568699
0.5687
0.568701
0.568701
0.568702
0.568703
0.568704
0.568705
0.568705
0.568706
0.568706
0.568707
0.568708
0.568708
0.568709
0.56871
0.568711
0.568712
0.568712
0.568713
0.568714
0.568715
0.568716
0.568716
0.568717
0.568718
0.568719
0.56872
0.56872
0.568721
0.568722
0.568723
0.568724
0.568724
0.568725
0.568726
0.568727
0.568728
0.568728
0.568729
0.56873
0.568731
0.568732
0.568732
0.568733
0.568734
0.568735
0.568736
0.568736
0.568738
0.568739
0.56874
0.568741
0.568741
0.568742
0.568743
0.568744
0.568745
0.568745
0.568746
0.568747
0.568748
0.568749
0.568749
0.56875
0.568751
0.568752
0.568753
0.568753
0.568754
0.568755
0.568756
0.568757
0.568757
0.568758
0.568759
0.56876
0.568762
0.568762
0.568763
0.568764
0.568765
0.568766
0.568766
0.568767
0.568768
0.568769
0.56877
0.56877
0.568771
0.568772
0.568773
0.568774
0.568774
0.568775
0.568777
0.568778
0.568779
0.568779
0.56878
0.568781
0.568782
0.568783
0.568783
0.568784
0.568785
0.568786
0.568788
0.568788
0.568789
0.56879
0.568791
0.568792
0.568792
0.568793
0.568794
0.568795
0.568796
0.568796
0.568798
0.568799
0.5688
0.568801
0.568801
0.568802
0.568803
0.568804
0.568805
0.568805
0.568807
0.568808
0.568809
0.56881
0.56881
0.568811
0.568812
0.568813
0.568815
0.568815
0.568816
0.568817
0.568818
0.568819
0.568819
0.56882
0.568821
0.568823
0.568824
0.568824
0.568825
0.568826
0.568827
0.568828
0.568828
0.568829
0.568831
0.568832
0.568833
0.568833
0.568834
0.568835
0.568836
0.568838
0.568838
0.568839
0.56884
0.568841
0.568842
0.568842
0.568844
0.568845
0.568846
0.568847
0.568847
0.568848
0.56885
0.568851
0.568852
0.568852
0.568853
0.568854
0.568856
0.568857
0.568857
0.568858
0.568859
0.56886
0.568862
0.568862
0.568863
0.568864
0.568865
0.568866
0.568866
0.568868
0.568869
0.56887
0.568871
0.568871
0.568873
0.568874
0.568875
0.568876
0.568876
0.568877
0.568879
0.56888
0.568881
0.568881
0.568882
0.568884
0.568885
0.568886
0.568886
0.568887
0.568889
0.56889
0.568891
0.568891
0.568892
0.568894
0.568895
0.568896
0.568896
0.568897
0.568899
0.5689
0.568901
0.568901
0.568902
0.568904
0.568905
0.568906
0.568906
0.568908
0.568909
0.56891
0.568911
0.568911
0.568913
0.568914
0.568915
0.568917
0.568917
0.568918
0.568919
0.56892
0.568922
0.568922
0.568923
0.568924
0.568926
0.568927
0.568927
0.568928
0.56893
0.568931
0.568932
0.568932
0.568933
0.568935
0.568936
0.568937
0.568937
0.568939
0.56894
0.568941
0.568943
0.568943
0.568944
0.568945
0.568947
0.568948
0.568948
0.568949
0.568951
0.568952
0.568953
0.568953
0.568955
0.568956
0.568957
0.568959
0.568959
0.56896
0.568961
0.568963
0.568964
0.568964
0.568965
0.568967
0.568968
0.56897
0.56897
0.568971
0.568972
0.568974
0.568975
0.568975
0.568976
0.568978
0.568979
0.56898
0.56898
0.568982
0.568983
0.568985
0.568986
0.568986
0.568987
0.568989
0.56899
0.568992
0.568992
0.568993
0.568994
0.568996
0.568997
0.568997
0.568999
0.569
0.569001
0.569003
0.569003
0.569004
0.569005
0.569007
0.569008
0.569008
0.56901
0.569011
0.569013
0.569014
0.569014
0.569015
0.569017
0.569018
0.56902
0.56902
0.569021
0.569022
0.569024
0.569025
0.569025
0.569027
0.569028
0.56903
0.569031
0.569031
0.569033
0.569034
0.569035
0.569037
0.569037
0.569038
0.56904
0.569041
0.569043
0.569043
0.569044
0.569046
0.569047
0.569049
0.569049
0.56905
0.569052
0.569053
0.569054
0.569054
0.569056
0.569057
0.569059
0.56906
0.56906
0.569062
0.569063
0.569065
0.569066
0.569066
0.569068
0.569069
0.569071
0.569072
0.569072
0.569074
0.569075
0.569077
0.569078
0.569078
0.56908
0.569081
0.569083
0.569084
0.569084
0.569086
0.569087
0.569089
0.56909
0.56909
0.569092
0.569093
0.569095
0.569096
0.569096
0.569098
0.569099
0.569101
0.569103
0.569103
0.569104
0.569106
0.569107
0.569109
0.569109
0.56911
0.569112
0.569113
0.569115
0.569115
0.569116
0.569118
0.569119
0.569121
0.569121
0.569123
0.569124
0.569126
0.569127
0.569127
0.569129
0.56913
0.569132
0.569133
0.569133
0.569135
0.569137
0.569138
0.56914
0.56914
0.569141
0.569143
0.569145
0.569146
0.569146
0.569148
0.569149
0.569151
0.569153
0.569153
0.569154
0.569156
0.569157
0.569159
0.569159
0.569161
0.569162
0.569164
0.569165
0.569165
0.569167
0.569169
0.56917
0.569172
0.569172
0.569173
0.569175
0.569177
0.569178
0.569178
0.56918
0.569182
0.569183
0.569185
0.569185
0.569186
0.569188
0.56919
0.569191
0.569191
0.569193
0.569195
0.569196
0.569198
0.569198
0.5692
0.569201
0.569203
0.569205
0.569205
0.569206
0.569208
0.56921
0.569211
0.569211
0.569213
0.569215
0.569216
0.569218
0.569218
0.56922
0.569221
0.569223
0.569225
0.569225
0.569226
0.569228
0.56923
0.569231
0.569231
0.569233
0.569235
0.569236
0.569238
0.569238
0.56924
0.569242
0.569243
0.569245
0.569245
0.569247
0.569248
0.56925
0.569252
0.569252
0.569254
0.569255
0.569257
0.569259
0.569259
0.56926
0.569262
0.569264
0.569266
0.569266
0.569267
0.569269
0.569271
0.569273
0.569273
0.569274
0.569276
0.569278
0.56928
0.56928
0.569281
0.569283
0.569285
0.569287
0.569287
0.569288
0.56929
0.569292
0.569294
0.569294
0.569295
0.569297
0.569299
0.569301
0.569301
0.569302
0.569304
0.569306
0.569308
0.569308
0.56931
0.569311
0.569313
0.569315
0.569315
0.569317
0.569319
0.56932
0.569322
0.569322
0.569324
0.569326
0.569328
0.569329
0.569329
0.569331
0.569333
0.569335
0.569337
0.569337
0.569338
0.56934
0.569342
0.569344
0.569344
0.569346
0.569348
0.569349
0.569351
0.569351
0.569353
0.569355
0.569357
0.569359
0.569359
0.56936
0.569362
0.569364
0.569366
0.569366
0.569368
0.56937
0.569372
0.569373
0.569373
0.569375
0.569377
0.569379
0.569381
0.569381
0.569383
0.569385
0.569386
0.569388
0.569388
0.56939
0.569392
0.569394
0.569396
0.569396
0.569398
0.5694
0.569401
0.569403
0.569403
0.569405
0.569407
0.569409
0.569411
0.569411
0.569413
0.569415
0.569417
0.569419
0.569419
0.569421
0.569422
0.569424
0.569426
0.569426
0.569428
0.56943
0.569432
0.569434
0.569434
0.569436
0.569438
0.56944
0.569442
0.569442
0.569444
0.569446
0.569448
0.56945
0.56945
0.569451
0.569453
0.569455
0.569457
0.569457
0.569459
0.569461
0.569463
0.569465
0.569465
0.569467
0.569469
0.569471
0.569473
0.569473
0.569475
0.569477
0.569479
0.569481
0.569481
0.569483
0.569485
0.569487
0.569489
0.569489
0.569491
0.569493
0.569495
0.569497
0.569497
0.569499
0.569501
0.569503
0.569505
0.569505
0.569507
0.569509
0.569511
0.569513
0.569513
0.569515
0.569517
0.569519
0.569521
0.569521
0.569523
0.569525
0.569527
0.569529
0.569529
0.569531
0.569533
0.569535
0.569537
0.569537
0.569539
0.569542
0.569544
0.569546
0.569546
0.569548
0.56955
0.569552
0.569554
0.569554
0.569556
0.569558
0.56956
0.569562
0.569562
0.569564
0.569566
0.569568
0.569571
0.569571
0.569573
0.569575
0.569577
0.569579
0.569579
0.569581
0.569583
0.569585
0.569587
0.569587
0.569589
0.569592
0.569594
0.569596
0.569596
0.569598
0.5696
0.569602
0.569604
0.569604
0.569606
0.569608
0.569611
0.569613
0.569613
0.569615
0.569617
0.569619
0.569621
0.569621
0.569623
0.569626
0.569628
0.56963
0.56963
0.569632
0.569634
0.569636
0.569639
0.569639
0.569641
0.569643
0.569645
0.569647
0.569647
0.569649
0.569652
0.569654
0.569656
0.569656
0.569658
0.56966
0.569662
0.569665
0.569665
0.569667
0.569669
0.569671
0.569673
0.569673
0.569676
0.569678
0.56968
0.569682
0.569682
0.569684
0.569687
0.569689
0.569691
0.569691
0.569693
0.569696
0.569698
0.5697
0.5697
0.569702
0.569705
0.569707
0.569709
0.569709
0.569711
0.569714
0.569716
0.569718
0.569718
0.56972
0.569722
0.569725
0.569727
0.569727
0.569729
0.569732
0.569734
0.569736
0.569736
0.569738
0.569741
0.569743
0.569745
0.569745
0.569747
0.56975
0.569752
0.569754
0.569754
0.569757
0.569759
0.569761
0.569764
0.569764
0.569766
0.569768
0.56977
0.569773
0.569773
0.569775
0.569777
0.56978
0.569782
0.569782
0.569784
0.569787
0.569789
0.569791
0.569791
0.569794
0.569796
0.569798
0.569801
0.569801
0.569803
0.569805
0.569808
0.56981
0.56981
0.569812
0.569815
0.569817
0.569819
0.569819
0.569822
0.569824
0.569827
0.569829
0.569829
0.569831
0.569834
0.569836
0.569839
0.569839
0.569841
0.569843
0.569846
0.569848
0.569848
0.56985
0.569853
0.569855
0.569858
0.569858
0.56986
0.569862
0.569865
0.569867
0.569867
0.56987
0.569872
0.569875
0.569877
0.569877
0.569879
0.569882
0.569884
0.569887
0.569887
0.569889
0.569892
0.569894
0.569896
0.569896
0.569899
0.569901
0.569904
0.569906
0.569906
0.569909
0.569911
0.569914
0.569916
0.569916
0.569919
0.569921
0.569924
0.569926
0.569926
0.569929
0.569931
0.569934
0.569936
0.569936
0.569938
0.569941
0.569943
0.569946
0.569946
0.569948
0.569951
0.569953
0.569956
0.569956
0.569958
0.569961
0.569964
0.569966
0.569966
0.569969
0.569971
0.569974
0.569976
0.569976
0.569979
0.569981
0.569984
0.569986
0.569986
0.569989
0.569991
0.569994
0.569997
0.569997
0.569999
0.570002
0.570004
0.570007
0.570007
0.570009
0.570012
0.570015
0.570017
0.570017
0.57002
0.570022
0.570025
0.570027
0.570027
0.57003
0.570033
0.570035
0.570038
0.570038
0.57004
0.570043
0.570046
0.570048
0.570048
0.570051
0.570054
0.570056
0.570059
0.570059
0.570061
0.570064
0.570067
0.570069
0.570069
0.570072
0.570075
0.570077
0.57008
0.57008
0.570082
0.570085
0.570088
0.57009
0.57009
0.570093
0.570096
0.570098
0.570101
0.570101
0.570104
0.570106
0.570109
0.570112
0.570112
0.570114
0.570117
0.57012
0.570123
0.570123
0.570125
0.570128
0.570131
0.570133
0.570133
0.570136
0.570139
0.570141
0.570144
0.570144
0.570147
0.57015
0.570152
0.570155
0.570155
0.570158
0.570161
0.570163
0.570166
0.570166
0.570169
0.570171
0.570174
0.570177
0.570177
0.57018
0.570182
0.570185
0.570188
0.570188
0.570191
0.570194
0.570196
0.570199
0.570199
0.570202
0.570205
0.570207
0.57021
0.57021
0.570213
0.570216
0.570219
0.570221
0.570221
0.570224
0.570227
0.57023
0.570233
0.570233
0.570235
0.570238
0.570241
0.570244
0.570244
0.570247
0.57025
0.570252
0.570255
0.570255
0.570258
0.570261
0.570264
0.570267
0.570267
0.570269
0.570272
0.570275
0.570278
0.570278
0.570281
0.570284
0.570287
0.570289
0.570289
0.570292
0.570295
0.570298
0.570301
0.570301
0.570304
0.570307
0.57031
0.570313
0.570313
0.570315
0.570318
0.570321
0.570324
0.570324
0.570327
0.57033
0.570333
0.570336
0.570336
0.570339
0.570342
0.570345
0.570348
0.570348
0.57035
0.570353
0.570356
0.570359
0.570359
0.570362
0.570365
0.570368
0.570371
0.570371
0.570374
0.570377
0.57038
0.570383
0.570383
0.570386
0.570389
0.570392
0.570395
0.570395
0.570398
0.570401
0.570404
0.570407
0.570407
0.57041
0.570413
0.570416
0.570419
0.570419
0.570422
0.570425
0.570428
0.570431
0.570431
0.570434
0.570437
0.57044
0.570443
0.570443
0.570446
0.570449
0.570452
0.570455
0.570455
0.570458
0.570461
0.570464
0.570467
0.570467
0.57047
0.570474
0.570477
0.57048
0.57048
0.570483
0.570486
0.570489
0.570492
0.570492
0.570495
0.570498
0.570501
0.570504
0.570504
0.570508
0.570511
0.570514
0.570517
0.570517
0.57052
0.570523
0.570526
0.570529
0.570529
0.570532
0.570536
0.570539
0.570542
0.570542
0.570545
0.570548
0.570551
0.570554
0.570554
0.570558
0.570561
0.570564
0.570567
0.570567
0.57057
0.570573
0.570577
0.57058
0.57058
0.570583
0.570586
0.570589
0.570593
0.570593
0.570596
0.570599
0.570602
0.570605
0.570605
0.570609
0.570612
0.570615
0.570618
0.570618
0.570621
0.570625
0.570628
0.570631
0.570631
0.570634
0.570638
0.570641
0.570644
0.570644
0.570647
0.570651
0.570654
0.570657
0.570657
0.57066
0.570664
0.570667
0.57067
0.57067
0.570674
0.570677
0.57068
0.570683
0.570683
0.570687
0.57069
0.570693
0.570697
0.570697
0.5707
0.570703
0.570707
0.57071
0.57071
0.570713
0.570716
0.57072
0.570723
0.570723
0.570726
0.57073
0.570733
0.570736
0.570736
0.57074
0.570743
0.570747
0.57075
0.57075
0.570753
0.570757
0.57076
0.570763
0.570763
0.570767
0.57077
0.570774
0.570777
0.570777
0.57078
0.570784
0.570787
0.570791
0.570791
0.570794
0.570797
0.570801
0.570804
0.570804
0.570808
0.570811
0.570814
0.570818
0.570818
0.570821
0.570825
0.570828
0.570832
0.570832
0.570835
0.570839
0.570842
0.570846
0.570846
0.570849
0.570852
0.570856
0.570859
0.570859
0.570863
0.570866
0.57087
0.570873
0.570873
0.570877
0.57088
0.570884
0.570887
0.570887
0.570891
0.570894
0.570898
0.570901
0.570901
0.570905
0.570908
0.570912
0.570916
0.570916
0.570919
0.570923
0.570926
0.57093
0.57093
0.570933
0.570937
0.57094
0.570944
0.570944
0.570948
0.570951
0.570955
0.570958
0.570958
0.570962
0.570965
0.570969
0.570973
0.570973
0.570976
0.57098
0.570983
0.570987
0.570987
0.570991
0.570994
0.570998
0.571002
0.571002
0.571005
0.571009
0.571012
0.571016
0.571016
0.57102
0.571023
0.571027
0.571031
0.571031
0.571034
0.571038
0.571042
0.571045
0.571045
0.571049
0.571053
0.571056
0.57106
0.57106
0.571064
0.571067
0.571071
0.571075
0.571075
0.571079
0.571082
0.571086
0.57109
0.57109
0.571094
0.571097
0.571101
0.571105
0.571105
0.571108
0.571112
0.571116
0.57112
0.57112
0.571123
0.571127
0.571131
0.571135
0.571135
0.571139
0.571142
0.571146
0.57115
0.57115
0.571154
0.571157
0.571161
0.571165
0.571165
0.571169
0.571173
0.571176
0.57118
0.57118
0.571184
0.571188
0.571192
0.571196
0.571196
0.571199
0.571203
0.571207
0.571211
0.571211
0.571215
0.571219
0.571223
0.571226
0.571226
0.57123
0.571234
0.571238
0.571242
0.571242
0.571246
0.57125
0.571254
0.571257
0.571257
0.571261
0.571265
0.571269
0.571273
0.571273
0.571277
0.571281
0.571285
0.571289
0.571289
0.571293
0.571297
0.571301
0.571305
0.571305
0.571309
0.571313
0.571316
0.57132
0.57132
0.571324
0.571328
0.571332
0.571336
0.571336
0.57134
0.571344
0.571348
0.571352
0.571352
0.571356
0.57136
0.571364
0.571368
0.571368
0.571372
0.571376
0.57138
0.571385
0.571385
0.571389
0.571393
0.571397
0.571401
0.571401
0.571405
0.571409
0.571413
0.571417
0.571417
0.571421
0.571425
0.571429
0.571433
0.571433
0.571437
0.571441
0.571446
0.57145
0.57145
0.571454
0.571458
0.571462
0.571466
0.571466
0.57147
0.571474
0.571479
0.571483
0.571483
0.571487
0.571491
0.571495
0.571499
0.571499
0.571503
0.571508
0.571512
0.571516
0.571516
0.57152
0.571524
0.571528
0.571533
0.571533
0.571537
0.571541
0.571545
0.571549
0.571549
0.571554
0.571558
0.571562
0.571566
0.571566
0.571571
0.571575
0.571579
0.571583
0.571583
0.571588
0.571592
0.571596
0.5716
0.5716
0.571605
0.571609
0.571613
0.571617
0.571617
0.571622
0.571626
0.57163
0.571635
0.571635
0.571639
0.571643
0.571648
0.571652
0.571652
0.571656
0.571661
0.571665
0.571669
0.571669
0.571674
0.571678
0.571682
0.571687
0.571687
0.571691
0.571695
0.5717
0.571704
0.571704
0.571708
0.571713
0.571717
0.571722
0.571722
0.571726
0.57173
0.571735
0.571739
0.571739
0.571744
0.571748
0.571753
0.571757
0.571757
0.571761
0.571766
0.57177
0.571775
0.571775
0.571779
0.571784
0.571788
0.571793
0.571793
0.571797
0.571801
0.571806
0.57181
0.57181
0.571815
0.571819
0.571824
0.571829
0.571829
0.571833
0.571838
0.571842
0.571847
0.571847
0.571851
0.571856
0.57186
0.571865
0.571865
0.571869
0.571874
0.571878
0.571883
0.571883
0.571888
0.571892
0.571897
0.571901
0.571901
0.571906
0.57191
0.571915
0.57192
0.57192
0.571924
0.571929
0.571934
0.571938
0.571938
0.571943
0.571947
0.571952
0.571957
0.571957
0.571961
0.571966
0.571971
0.571975
0.571975
0.57198
0.571985
0.571989
0.571994
0.571994
0.571999
0.572003
0.572008
0.572013
0.572013
0.572018
0.572022
0.572027
0.572032
0.572032
0.572037
0.572041
0.572046
0.572051
0.572051
0.572055
0.57206
0.572065
0.57207
0.57207
0.572075
0.572079
0.572084
0.572089
0.572089
0.572094
0.572098
0.572103
0.572108
0.572108
0.572113
0.572118
0.572123
0.572127
0.572127
0.572132
0.572137
0.572142
0.572147
0.572147
0.572152
0.572156
0.572161
0.572166
0.572166
0.572171
0.572176
0.572181
0.572186
0.572186
0.572191
0.572196
0.5722
0.572205
0.572205
0.57221
0.572215
0.57222
0.572225
0.572225
0.57223
0.572235
0.57224
0.572245
0.572245
0.57225
0.572255
0.57226
0.572265
0.572265
0.57227
0.572275
0.57228
0.572285
0.572285
0.57229
0.572295
0.5723
0.572305
0.572305
0.57231
0.572315
0.57232
0.572325
0.572325
0.57233
0.572335
0.57234
0.572345
0.572345
0.57235
0.572355
0.57236
0.572365
0.572365
0.572371
0.572376
0.572381
0.572386
0.572386
0.572391
0.572396
0.572401
0.572406
0.572406
0.572411
0.572417
0.572422
0.572427
0.572427
0.572432
0.572437
0.572442
0.572448
0.572448
0.572453
0.572458
0.572463
0.572468
0.572468
0.572474
0.572479
0.572484
0.572489
0.572489
0.572494
0.5725
0.572505
0.57251
0.57251
0.572515
0.572521
0.572526
0.572531
0.572531
0.572536
0.572542
0.572547
0.572552
0.572552
0.572558
0.572563
0.572568
0.572574
0.572574
0.572579
0.572584
0.572589
0.572595
0.572595
0.5726
0.572606
0.572611
0.572616
0.572616
0.572622
0.572627
0.572632
0.572638
0.572638
0.572643
0.572649
0.572654
0.572659
0.572659
0.572665
0.57267
0.572676
0.572681
0.572681
0.572686
0.572692
0.572697
0.572703
0.572703
0.572708
0.572714
0.572719
0.572725
0.572725
0.57273
0.572736
0.572741
0.572747
0.572747
0.572752
0.572758
0.572763
0.572769
0.572769
0.572774
0.57278
0.572785
0.572791
0.572791
0.572796
0.572802
0.572808
0.572813
0.572813
0.572819
0.572824
0.57283
0.572836
0.572836
0.572841
0.572847
0.572852
0.572858
0.572858
0.572864
0.572869
0.572875
0.572881
0.572881
0.572886
0.572892
0.572898
0.572903
0.572903
0.572909
0.572915
0.57292
0.572926
0.572926
0.572932
0.572937
0.572943
0.572949
0.572949
0.572955
0.57296
0.572966
0.572972
0.572972
0.572978
0.572983
0.572989
0.572995
0.572995
0.573001
0.573006
0.573012
0.573018
0.573018
0.573024
0.57303
0.573035
0.573041
0.573041
0.573047
0.573053
0.573059
0.573065
0.573065
0.57307
0.573076
0.573082
0.573088
0.573088
0.573094
0.5731
0.573106
0.573112
0.573112
0.573118
0.573123
0.573129
0.573135
0.573135
0.573141
0.573147
0.573153
0.573159
0.573159
0.573165
0.573171
0.573177
0.573183
0.573183
0.573189
0.573195
0.573201
0.573207
0.573207
0.573213
0.573219
0.573225
0.573231
0.573231
0.573237
0.573243
0.573249
0.573255
0.573255
0.573261
0.573267
0.573274
0.57328
0.57328
0.573286
0.573292
0.573298
0.573304
0.573304
0.57331
0.573316
0.573322
0.573329
0.573329
0.573335
0.573341
0.573347
0.573353
0.573353
0.573359
0.573366
0.573372
0.573378
0.573378
0.573384
0.57339
0.573397
0.573403
0.573403
0.573409
0.573415
0.573422
0.573428
0.573428
0.573434
0.57344
0.573447
0.573453
0.573453
0.573459
0.573465
0.573472
0.573478
0.573478
0.573484
0.573491
0.573497
0.573503
0.573503
0.57351
0.573516
0.573522
0.573529
0.573529
0.573535
0.573542
0.573548
0.573554
0.573554
0.573561
0.573567
0.573574
0.57358
0.57358
0.573586
0.573593
0.573599
0.573606
0.573606
0.573612
0.573619
0.573625
0.573632
0.573632
0.573638
0.573645
0.573651
0.573658
0.573658
0.573664
0.573671
0.573677
0.573684
0.573684
0.57369
0.573697
0.573703
0.57371
0.57371
0.573717
0.573723
0.57373
0.573736
0.573736
0.573743
0.57375
0.573756
0.573763
0.573763
0.573769
0.573776
0.573783
0.573789
0.573789
0.573796
0.573803
0.573809
0.573816
0.573816
0.573823
0.573829
0.573836
0.573843
0.573843
0.57385
0.573856
0.573863
0.57387
0.57387
0.573877
0.573883
0.57389
0.573897
0.573897
0.573904
0.573911
0.573917
0.573924
0.573924
0.573931
0.573938
0.573945
0.573951
0.573951
0.573958
0.573965
0.573972
0.573979
0.573979
0.573986
0.573993
0.574
0.574006
0.574006
0.574013
0.57402
0.574027
0.574034
0.574034
0.574041
0.574048
0.574055
0.574062
0.574062
0.574069
0.574076
0.574083
0.57409
0.57409
0.574097
0.574104
0.574111
0.574118
0.574118
0.574125
0.574132
0.574139
0.574146
0.574146
0.574153
0.57416
0.574167
0.574174
0.574174
0.574182
0.574189
0.574196
0.574203
0.574203
0.57421
0.574217
0.574224
0.574231
0.574231
0.574239
0.574246
0.574253
0.57426
0.57426
0.574267
0.574275
0.574282
0.574289
0.574289
0.574296
0.574303
0.574311
0.574318
0.574318
0.574325
0.574333
0.57434
0.574347
0.574347
0.574354
0.574362
0.574369
0.574376
0.574376
0.574384
0.574391
0.574398
0.574406
0.574406
0.574413
0.57442
0.574428
0.574435
0.574435
0.574443
0.57445
0.574457
0.574465
0.574465
0.574472
0.57448
0.574487
0.574495
0.574495
0.574502
0.57451
0.574517
0.574525
0.574525
0.574532
0.57454
0.574547
0.574555
0.574555
0.574562
0.57457
0.574577
0.574585
0.574585
0.574592
0.5746
0.574607
0.574615
0.574615
0.574623
0.57463
0.574638
0.574646
0.574646
0.574653
0.574661
0.574668
0.574676
0.574676
0.574684
0.574691
0.574699
0.574707
0.574707
0.574715
0.574722
0.57473
0.574738
0.574738
0.574745
0.574753
0.574761
0.574769
0.574769
0.574777
0.574784
0.574792
0.5748
0.5748
0.574808
0.574816
0.574823
0.574831
0.574831
0.574839
0.574847
0.574855
0.574863
0.574863
0.574871
0.574878
0.574886
0.574894
0.574894
0.574902
0.57491
0.574918
0.574926
0.574926
0.574934
0.574942
0.57495
0.574958
0.574958
0.574966
0.574974
0.574982
0.57499
0.57499
0.574998
0.575006
0.575014
0.575022
0.575022
0.57503
0.575038
0.575046
0.575055
0.575055
0.575063
0.575071
0.575079
0.575087
0.575087
0.575095
0.575103
0.575112
0.57512
0.57512
0.575128
0.575136
0.575144
0.575152
0.575152
0.575161
0.575169
0.575177
0.575185
0.575185
0.575194
0.575202
0.57521
0.575219
0.575219
0.575227
0.575235
0.575243
0.575252
0.575252
0.57526
0.575268
0.575277
0.575285
0.575285
0.575294
0.575302
0.57531
0.575319
0.575319
0.575327
0.575336
0.575344
0.575353
0.575353
0.575361
0.575369
0.575378
0.575386
0.575386
0.575395
0.575403
0.575412
0.57542
0.57542
0.575429
0.575438
0.575446
0.575455
0.575455
0.575463
0.575472
0.57548
0.575489
0.575489
0.575498
0.575506
0.575515
0.575524
0.575524
0.575532
0.575541
0.57555
0.575558
0.575558
0.575567
0.575576
0.575584
0.575593
0.575593
0.575602
0.575611
0.575619
0.575628
0.575628
0.575637
0.575646
0.575654
0.575663
0.575663
0.575672
0.575681
0.57569
0.575699
0.575699
0.575707
0.575716
0.575725
0.575734
0.575734
0.575743
0.575752
0.575761
0.57577
0.57577
0.575779
0.575788
0.575797
0.575806
0.575806
0.575815
0.575824
0.575833
0.575842
0.575842
0.575851
0.57586
0.575869
0.575878
0.575878
0.575887
0.575896
0.575905
0.575914
0.575914
0.575923
0.575932
0.575942
0.575951
0.575951
0.57596
0.575969
0.575978
0.575987
0.575987
0.575997
0.576006
0.576015
0.576024
0.576024
0.576033
0.576043
0.576052
0.576061
0.576061
0.576071
0.57608
0.576089
0.576099
0.576099
0.576108
0.576117
0.576127
0.576136
0.576136
0.576145
0.576155
0.576164
0.576173
0.576173
0.576183
0.576192
0.576202
0.576211
0.576211
0.576221
0.57623
0.57624
0.576249
0.576249
0.576259
0.576268
0.576278
0.576287
0.576287
0.576297
0.576306
0.576316
0.576326
0.576326
0.576335
0.576345
0.576354
0.576364
0.576364
0.576374
0.576383
0.576393
0.576403
0.576403
0.576412
0.576422
0.576432
0.576442
0.576442
0.576451
0.576461
0.576471
0.576481
0.576481
0.57649
0.5765
0.57651
0.57652
0.57652
0.57653
0.57654
0.576549
0.576559
0.576559