<?xml version="1.0"?>
<VTKFile type="UnstructuredGrid" version="0.1" byte_order="LittleEndian">
<UnstructuredGrid>
<Piece NumberOfPoints="5000" NumberOfCells="4000">
<PointData Scalars="Reaction 0">
<DataArray type="Float32" Name="Reaction 0" format="ascii">
0.84122
0.84122
0.84122
0.84122
0.84122
0.84122
0.84122
0.84122
0.84122
0.84122
0.84122
0.84122
0.84122
0.84122
0.84122
0.84122
0.841221
0.841221
0.841221
0.841221
0.841221
0.841221
0.841222
0.841222
0.841222
0.841222
0.841222
0.841223
0.841223
0.841223
0.841223
0.841224
0.841224
0.841224
0.841225
0.841225
0.841225
0.841225
0.841226
0.841226
0.841226
0.841227
0.841227
0.841227
0.841228
0.841228
0.841228
0.841229
0.841229
0.84123
0.84123
0.84123
0.841231
0.841231
0.841232
0.841232
0.841233
0.841233
0.841234
0.841234
0.841234
0.841235
0.841236
0.841236
0.841237
0.841237
0.841238
0.841238
0.841239
0.84124
0.84124
0.84124
0.841241
0.841242
0.841243
0.841243
0.841244
0.841244
0.841245
0.841246
0.841246
0.841247
0.841248
0.841248
0.841249
0.841249
0.84125
0.841251
0.841252
0.841253
0.841253
0.841254
0.841255
0.841256
0.841257
0.841257
0.841258
0.841259
0.84126
0.841261
0.841261
0.841262
0.841263
0.841264
0.841265
0.841265
0.841266
0.841267
0.841268
0.841269
0.841269
0.841271
0.841272
0.841273
0.841274
0.841274
0.841275
0.841277
0.841278
0.841279
0.841279
0.84128
0.841281
0.841283
0.841284
0.841284
0.841285
0.841287
0.841288
0.841289
0.841289
0.841291
0.841292
0.841293
0.841295
0.841295
0.841296
0.841298
0.841299
0.8413
0.8413
0.841302
0.841303
0.841305
0.841306
0.841306
0.841308
0.841309
0.841311
0.841312
0.841312
0.841314
0.841315
0.841317
0.841319
0.841319
0.84132
0.841322
0.841323
0.841325
0.841325
0.841327
0.841328
0.84133
0.841332
0.841332
0.841334
0.841335
0.841337
0.841339
0.841339
0.84134
0.841342
0.841344
0.841346
0.841346
0.841348
0.841349
0.841351
0.841353
0.841353
0.841355
0.841357
0.841359
0.841361
0.841361
0.841362
0.841364
0.841366
0.841368
0.841368
0.84137
0.841372
0.841374
0.841376
0.841376
0.841378
0.84138
0.841382
0.841384
0.841384
0.841386
0.841388
0.84139
0.841393
0.841393
0.841395
0.841397
0.841399
0.841401
0.841401
0.841403
0.841405
0.841408
0.84141
0.84141
0.841412
0.841414
0.841417
0.841419
0.841419
0.841421
0.841423
0.841426
0.841428
0.841428
0.84143
0.841433
0.841435
0.841437
0.841437
0.84144
0.841442
0.841445
0.841447
0.841447
0.841449
0.841452
0.841454
0.841457
0.841457
0.841459
0.841462
0.841464
0.841467
0.841467
0.841469
0.841472
0.841474
0.841477
0.841477
0.84148
0.841482
0.841485
0.841487
0.841487
0.84149
0.841493
0.841495
0.841498
0.841498
0.841501
0.841503
0.841506
0.841509
0.841509
0.841512
0.841514
0.841517
0.84152
0.84152
0.841523
0.841526
0.841528
0.841531
0.841531
0.841534
0.841537
0.84154
0.841543
0.841543
0.841545
0.841548
0.841551
0.841554
0.841554
0.841557
0.84156
0.841563
0.841566
0.841566
0.841569
0.841572
0.841575
0.841578
0.841578
0.841581
0.841584
0.841587
0.84159
0.84159
0.841593
0.841597
0.8416
0.841603
0.841603
0.841606
0.841609
0.841612
0.841615
0.841615
0.841619
0.841622
0.841625
0.841628
0.841628
0.841632
0.841635
0.841638
0.841641
0.841641
0.841645
0.841648
0.841651
0.841655
0.841655
0.841658
0.841661
0.841665
0.841668
0.841668
0.841671
0.841675
0.841678
0.841682
0.841682
0.841685
0.841689
0.841692
0.841695
0.841695
0.841699
0.841702
0.841706
0.84171
0.84171
0.841713
0.841717
0.84172
0.841724
0.841724
0.841727
0.841731
0.841735
0.841738
0.841738
0.841742
0.841746
0.841749
0.841753
0.841753
0.841757
0.84176
0.841764
0.841768
0.841768
0.841771
0.841775
0.841779
0.841783
0.841783
0.841787
0.84179
0.841794
0.841798
0.841798
0.841802
0.841806
0.84181
0.841813
0.841813
0.841817
0.841821
0.841825
0.841829
0.841829
0.841833
0.841837
0.841841
0.841845
0.841845
0.841849
0.841853
0.841857
0.841861
0.841861
0.841865
0.841869
0.841873
0.841877
0.841877
0.841881
0.841885
0.84189
0.841894
0.841894
0.841898
0.841902
0.841906
0.84191
0.84191
0.841915
0.841919
0.841923
0.841927
0.841927
0.841932
0.841936
0.84194
0.841944
0.841944
0.841949
0.841953
0.841957
0.841962
0.841962
0.841966
0.841971
0.841975
0.841979
0.841979
0.841984
0.841988
0.841993
0.841997
0.841997
0.842002
0.842006
0.842011
0.842015
0.842015
0.84202
0.842024
0.842029
0.842033
0.842033
0.842038
0.842042
0.842047
0.842051
0.842051
0.842056
0.842061
0.842065
0.84207
0.84207
0.842075
0.842079
0.842084
0.842089
0.842089
0.842093
0.842098
0.842103
0.842108
0.842108
0.842112
0.842117
0.842122
0.842127
0.842127
0.842132
0.842136
0.842141
0.842146
0.842146
0.842151
0.842156
0.842161
0.842165
0.842165
0.84217
0.842175
0.84218
0.842185
0.842185
0.84219
0.842195
0.8422
0.842205
0.842205
0.84221
0.842215
0.84222
0.842225
0.842225
0.84223
0.842235
0.84224
0.842245
0.842245
0.84225
0.842256
0.842261
0.842266
0.842266
0.842271
0.842276
0.842281
0.842286
0.842286
0.842292
0.842297
0.842302
0.842307
0.842307
0.842312
0.842318
0.842323
0.842328
0.842328
0.842334
0.842339
0.842344
0.842349
0.842349
0.842355
0.84236
0.842366
0.842371
0.842371
0.842376
0.842382
0.842387
0.842393
0.842393
0.842398
0.842404
0.842409
0.842415
0.842415
0.84242
0.842426
0.842431
0.842437
0.842437
0.842442
0.842448
0.842453
0.842459
0.842459
0.842465
0.84247
0.842476
0.842482
0.842482
0.842487
0.842493
0.842499
0.842504
0.842504
0.84251
0.842516
0.842522
0.842527
0.842527
0.842533
0.842539
0.842545
0.84255
0.84255
0.842556
0.842562
0.842568
0.842574
0.842574
0.842579
0.842585
0.842591
0.842597
0.842597
0.842603
0.842609
0.842615
0.842621
0.842621
0.842627
0.842633
0.842639
0.842645
0.842645
0.842651
0.842657
0.842663
0.842669
0.842669
0.842675
0.842681
0.842687
0.842693
0.842693
0.842699
0.842705
0.842711
0.842717
0.842717
0.842723
0.842729
0.842736
0.842742
0.842742
0.842748
0.842754
0.84276
0.842767
0.842767
0.842773
0.842779
0.842785
0.842792
0.842792
0.842798
0.842804
0.84281
0.842817
0.842817
0.842823
0.842829
0.842836
0.842842
0.842842
0.842848
0.842855
0.842861
0.842868
0.842868
0.842874
0.842881
0.842887
0.842894
0.842894
0.8429
0.842907
0.842913
0.84292
0.84292
0.842926
0.842933
0.842939
0.842946
0.842946
0.842952
0.842959
0.842966
0.842972
0.842972
0.842979
0.842986
0.842992
0.842999
0.842999
0.843006
0.843012
0.843019
0.843026
0.843026
0.843032
0.843039
0.843046
0.843053
0.843053
0.84306
0.843066
0.843073
0.84308
0.84308
0.843087
0.843094
0.8431
0.843107
0.843107
0.843114
0.843121
0.843128
0.843135
0.843135
0.843142
0.843149
0.843156
0.843163
0.843163
0.843169
0.843176
0.843183
0.84319
0.84319
0.843197
0.843204
0.843211
0.843218
0.843218
0.843226
0.843233
0.84324
0.843247
0.843247
0.843254
0.843261
0.843268
0.843275
0.843275
0.843282
0.843289
0.843297
0.843304
0.843304
0.843311
0.843318
0.843325
0.843333
0.843333
0.84334
0.843347
0.843354
0.843362
0.843362
0.843369
0.843376
0.843384
0.843391
0.843391
0.843398
0.843406
0.843413
0.843421
0.843421
0.843428
0.843435
0.843443
0.84345
0.84345
0.843458
0.843465
0.843473
0.84348
0.84348
0.843488
0.843495
0.843503
0.84351
0.84351
0.843518
0.843525
0.843533
0.843541
0.843541
0.843548
0.843556
0.843563
0.843571
0.843571
0.843579
0.843586
0.843594
0.843602
0.843602
0.843609
0.843617
0.843625
0.843632
0.843632
0.84364
0.843648
0.843656
0.843663
0.843663
0.843671
0.843679
0.843687
0.843694
0.843694
0.843702
0.84371
0.843718
0.843726
0.843726
0.843734
0.843741
0.843749
0.843757
0.843757
0.843765
0.843773
0.843781
0.843789
0.843789
0.843797
0.843805
0.843813
0.843821
0.843821
0.843829
0.843837
0.843845
0.843853
0.843853
0.843861
0.843869
0.843877
0.843885
0.843885
0.843893
0.843902
0.84391
0.843918
0.843918
0.843926
0.843934
0.843942
0.843951
0.843951
0.843959
0.843967
0.843975
0.843983
0.843983
0.843992
0.844
0.844008
0.844017
0.844017
0.844025
0.844033
0.844042
0.84405
0.84405
0.844058
0.844067
0.844075
0.844083
0.844083
0.844092
0.8441
0.844108
0.844117
0.844117
0.844125
0.844134
0.844142
0.844151
0.844151
0.844159
0.844168
0.844176
0.844185
0.844185
0.844193
0.844202
0.84421
0.844219
0.844219
0.844227
0.844236
0.844244
0.844253
0.844253
0.844262
0.84427
0.844279
0.844287
0.844287
0.844296
0.844305
0.844313
0.844322
0.844322
0.844331
0.84434
0.844348
0.844357
0.844357
0.844366
0.844375
0.844383
0.844392
0.844392
0.844401
0.84441
0.844419
0.844428
0.844428
0.844436
0.844445
0.844454
0.844463
0.844463
0.844472
0.844481
0.84449
0.844499
0.844499
0.844508
0.844517
0.844526
0.844535
0.844535
0.844544
0.844553
0.844562
0.844571
0.844571
0.84458
0.844589
0.844598
0.844607
0.844607
0.844616
0.844625
0.844634
0.844643
0.844643
0.844652
0.844661
0.844671
0.84468
0.84468
0.844689
0.844698
0.844707
0.844716
0.844716
0.844726
0.844735
0.844744
0.844753
0.844753
0.844762
0.844772
0.844781
0.84479
0.84479
0.8448
0.844809
0.844818
0.844828
0.844828
0.844837
0.844846
0.844856
0.844865
0.844865
0.844874
0.844884
0.844893
0.844903
0.844903
0.844912
0.844922
0.844931
0.844941
0.844941
0.84495
0.84496
0.844969
0.844979
0.844979
0.844988
0.844998
0.845007
0.845017
0.845017
0.845026
0.845036
0.845046
0.845055
0.845055
0.845065
0.845075
0.845084
0.845094
0.845094
0.845103
0.845113
0.845123
0.845133
0.845133
0.845142
0.845152
0.845162
0.845171
0.845171
0.845181
0.845191
0.845201
0.84521
0.84521
0.84522
0.84523
0.84524
0.84525
0.84525
0.845259
0.845269
0.845279
0.845289
0.845289
0.845299
0.845309
0.845319
0.845329
0.845329
0.845339
0.845349
0.845359
0.845368
0.845368
0.845378
0.845388
0.845398
0.845409
0.845409
0.845419
0.845429
0.845439
0.845449
0.845449
0.845459
0.845469
0.845479
0.845489
0.845489
0.845499
0.845509
0.845519
0.84553
0.84553
0.84554
0.84555
0.84556
0.84557
0.84557
0.845581
0.845591
0.845601
0.845611
0.845611
0.845621
0.845632
0.845642
0.845652
0.845652
0.845662
0.845673
0.845683
0.845693
0.845693
0.845704
0.845714
0.845724
0.845735
0.845735
0.845745
0.845755
0.845766
0.845776
0.845776
0.845787
0.845797
0.845807
0.845818
0.845818
0.845828
0.845839
0.845849
0.84586
0.84586
0.84587
0.845881
0.845891
0.845902
0.845902
0.845913
0.845923
0.845934
0.845944
0.845944
0.845955
0.845965
0.845976
0.845987
0.845987
0.845997
0.846008
0.846019
0.846029
0.846029
0.84604
0.846051
0.846061
0.846072
0.846072
0.846083
0.846094
0.846104
0.846115
0.846115
0.846126
0.846137
0.846147
0.846158
0.846158
0.846169
0.84618
0.846191
0.846201
0.846201
0.846212
0.846223
0.846234
0.846245
0.846245
0.846256
0.846267
0.846278
0.846288
0.846288
0.846299
0.84631
0.846321
0.846332
0.846332
0.846343
0.846354
0.846365
0.846376
0.846376
0.846387
0.846398
0.846409
0.846421
0.846421
0.846432
0.846443
0.846454
0.846465
0.846465
0.846476
0.846487
0.846498
0.846509
0.846509
0.846521
0.846532
0.846543
0.846554
0.846554
0.846565
0.846577
0.846588
0.846599
0.846599
0.84661
0.846621
0.846633
0.846644
0.846644
0.846655
0.846666
0.846678
0.846689
0.846689
0.8467
0.846712
0.846723
0.846734
0.846734
0.846746
0.846757
0.846768
0.84678
0.84678
0.846791
0.846803
0.846814
0.846826
0.846826
0.846837
0.846848
0.84686
0.846871
0.846871
0.846883
0.846894
0.846906
0.846917
0.846917
0.846929
0.846941
0.846952
0.846964
0.846964
0.846975
0.846987
0.846998
0.84701
0.84701
0.847022
0.847033
0.847045
0.847057
0.847057
0.847068
0.84708
0.847092
0.847103
0.847103
0.847115
0.847127
0.847138
0.84715
0.84715
0.847162
0.847174
0.847185
0.847197
0.847197
0.847209
0.847221
0.847232
0.847244
0.847244
0.847256
0.847268
0.84728
0.847292
0.847292
0.847303
0.847315
0.847327
0.847339
0.847339
0.847351
0.847363
0.847375
0.847387
0.847387
0.847399
0.847411
0.847423
0.847435
0.847435
0.847447
0.847459
0.847471
0.847483
0.847483
0.847495
0.847507
0.847519
0.847531
0.847531
0.847543
0.847555
0.847567
0.847579
0.847579
0.847591
0.847604
0.847616
0.847628
0.847628
0.84764
0.847652
0.847664
0.847676
0.847676
0.847689
0.847701
0.847713
0.847725
0.847725
0.847737
0.84775
0.847762
0.847774
0.847774
0.847786
0.847799
0.847811
0.847823
0.847823
0.847836
0.847848
0.84786
0.847873
0.847873
0.847885
0.847897
0.84791
0.847922
0.847922
0.847935
0.847947
0.84796
0.847972
0.847972
0.847984
0.847997
0.848009
0.848022
0.848022
0.848034
0.848047
0.848059
0.848072
0.848072
0.848084
0.848097
0.848109
0.848122
0.848122
0.848134
0.848147
0.848159
0.848172
0.848172
0.848185
0.848197
0.84821
0.848222
0.848222
0.848235
0.848248
0.84826
0.848273
0.848273
0.848286
0.848298
0.848311
0.848324
0.848324
0.848337
0.848349
0.848362
0.848375
0.848375
0.848388
0.8484
0.848413
0.848426
0.848426
0.848439
0.848452
0.848464
0.848477
0.848477
0.84849
0.848503
0.848516
0.848529
0.848529
0.848541
0.848554
0.848567
0.84858
0.84858
0.848593
0.848606
0.848619
0.848632
0.848632
0.848645
0.848658
0.848671
0.848684
0.848684
0.848697
0.84871
0.848723
0.848736
0.848736
0.848749
0.848762
0.848775
0.848788
0.848788
0.848801
0.848814
0.848827
0.84884
0.84884
0.848853
0.848867
0.84888
0.848893
0.848893
0.848906
0.848919
0.848932
0.848945
0.848945
0.848959
0.848972
0.848985
0.848998
0.848998
0.849012
0.849025
0.849038
0.849051
0.849051
0.849065
0.849078
0.849091
0.849104
0.849104
0.849118
0.849131
0.849144
0.849158
0.849158
0.849171
0.849184
0.849198
0.849211
0.849211
0.849224
0.849238
0.849251
0.849265
0.849265
0.849278
0.849291
0.849305
0.849318
0.849318
0.849332
0.849345
0.849359
0.849372
0.849372
0.849386
0.849399
0.849413
0.849426
0.849426
0.84944
0.849453
0.849467
0.849481
0.849481
0.849494
0.849508
0.849521
0.849535
0.849535
0.849548
0.849562
0.849576
0.849589
0.849589
0.849603
0.849617
0.84963
0.849644
0.849644
0.849658
0.849671
0.849685
0.849699
0.849699
0.849712
0.849726
0.84974
0.849754
0.849754
0.849767
0.849781
0.849795
0.849809
0.849809
0.849823
0.849836
0.84985
0.849864
0.849864
0.849878
0.849892
0.849906
0.84992
0.84992
0.849933
0.849947
0.849961
0.849975
0.849975
0.849989
0.850003
0.850017
0.850031
0.850031
0.850045
0.850059
0.850073
0.850087
0.850087
0.850101
0.850115
0.850129
0.850143
0.850143
0.850157
0.850171
0.850185
0.850199
0.850199
0.850213
0.850227
0.850241
0.850255
0.850255
0.850269
0.850283
0.850297
0.850312
0.850312
0.850326
0.85034
0.850354
0.850368
0.850368
0.850382
0.850397
0.850411
0.850425
0.850425
0.850439
0.850453
0.850468
0.850482
0.850482
0.850496
0.85051
0.850525
0.850539
0.850539
0.850553
0.850567
0.850582
0.850596
0.850596
0.85061
0.850625
0.850639
0.850653
0.850653
0.850668
0.850682
0.850696
0.850711
0.850711
0.850725
0.85074
0.850754
0.850768
0.850768
0.850783
0.850797
0.850812
0.850826
0.850826
0.850841
0.850855
0.85087
0.850884
0.850884
0.850899
0.850913
0.850928
0.850942
0.850942
0.850957
0.850971
0.850986
0.851
0.851
0.851015
0.851029
0.851044
0.851059
0.851059
0.851073
0.851088
0.851103
0.851117
0.851117
0.851132
0.851146
0.851161
0.851176
0.851176
0.85119
0.851205
0.85122
0.851235
0.851235
0.851249
0.851264
0.851279
0.851293
0.851293
0.851308
0.851323
0.851338
0.851353
0.851353
0.851367
0.851382
0.851397
0.851412
0.851412
0.851427
0.851441
0.851456
0.851471
0.851471
0.851486
0.851501
0.851516
0.851531
0.851531
0.851545
0.85156
0.851575
0.85159
0.85159
0.851605
0.85162
0.851635
0.85165
0.85165
0.851665
0.85168
0.851695
0.85171
0.85171
0.851725
0.85174
0.851755
0.85177
0.85177
0.851785
0.8518
0.851815
0.85183
0.85183
0.851845
0.85186
0.851875
0.85189
0.85189
0.851905
0.851921
0.851936
0.851951
0.851951
0.851966
0.851981
0.851996
0.852011
0.852011
0.852027
0.852042
0.852057
0.852072
0.852072
0.852087
0.852103
0.852118
0.852133
0.852133
0.852148
0.852163
0.852179
0.852194
0.852194
0.852209
0.852225
0.85224
0.852255
0.852255
0.85227
0.852286
0.852301
0.852316
0.852316
0.852332
0.852347
0.852363
0.852378
0.852378
0.852393
0.852409
0.852424
0.852439
0.852439
0.852455
0.85247
0.852486
0.852501
0.852501
0.852517
0.852532
0.852547
0.852563
0.852563
0.852578
0.852594
0.852609
0.852625
0.852625
0.85264
0.852656
0.852671
0.852687
0.852687
0.852703
0.852718
0.852734
0.852749
0.852749
0.852765
0.85278
0.852796
0.852812
0.852812
0.852827
0.852843
0.852858
0.852874
0.852874
0.85289
0.852905
0.852921
0.852937
0.852937
0.852952
0.852968
0.852984
0.852999
0.852999
0.853015
0.853031
0.853047
0.853062
0.853062
0.853078
0.853094
0.85311
0.853125
0.853125
0.853141
0.853157
0.853173
0.853189
0.853189
0.853204
0.85322
0.853236
0.853252
0.853252
0.853268
0.853284
0.853299
0.853315
0.853315
0.853331
0.853347
0.853363
0.853379
0.853379
0.853395
0.853411
0.853427
0.853442
0.853442
0.853458
0.853474
0.85349
0.853506
0.853506
0.853522
0.853538
0.853554
0.85357
0.85357
0.853586
0.853602
0.853618
0.853634
0.853634
0.85365
0.853666
0.853682
0.853699
0.853699
0.853715
0.853731
0.853747
0.853763
0.853763
0.853779
0.853795
0.853811
0.853827
0.853827
0.853843
0.85386
0.853876
0.853892
0.853892
0.853908
0.853924
0.85394
0.853957
0.853957
0.853973
0.853989
0.854005
0.854021
0.854021
0.854038
0.854054
0.85407
0.854086
0.854086
0.854103
0.854119
0.854135
0.854152
0.854152
0.854168
0.854184
0.8542
0.854217
0.854217
0.854233
0.854249
0.854266
0.854282
0.854282
0.854298
0.854315
0.854331
0.854348
0.854348
0.854364
0.85438
0.854397
0.854413
0.854413
0.85443
0.854446
0.854462
0.854479
0.854479
0.854495
0.854512
0.854528
0.854545
0.854545
0.854561
0.854578
0.854594
0.854611
0.854611
0.854627
0.854644
0.85466
0.854677
0.854677
0.854693
0.85471
0.854726
0.854743
0.854743
0.85476
0.854776
0.854793
0.854809
0.854809
0.854826
0.854843
0.854859
0.854876
0.854876
0.854892
0.854909
0.854926
0.854942
0.854942
0.854959
0.854976
0.854992
0.855009
0.855009
0.855026
0.855043
0.855059
0.855076
0.855076
0.855093
0.855109
0.855126
0.855143
0.855143
0.85516
0.855176
0.855193
0.85521
0.85521
0.855227
0.855244
0.85526
0.855277
0.855277
0.855294
0.855311
0.855328
0.855345
0.855345
0.855361
0.855378
0.855395
0.855412
0.855412
0.855429
0.855446
0.855463
0.85548
0.85548
0.855496
0.855513
0.85553
0.855547
0.855547
0.855564
0.855581
0.855598
0.855615
0.855615
0.855632
0.855649
0.855666
0.855683
0.855683
0.8557
0.855717
0.855734
0.855751
0.855751
0.855768
0.855785
0.855802
0.855819
0.855819
0.855836
0.855853
0.85587
0.855887
0.855887
0.855905
0.855922
0.855939
0.855956
0.855956
0.855973
0.85599
0.856007
0.856024
0.856024
0.856041
0.856059
0.856076
0.856093
0.856093
0.85611
0.856127
0.856145
0.856162
0.856162
0.856179
0.856196
0.856213
0.856231
0.856231
0.856248
0.856265
0.856282
0.8563
0.8563
0.856317
0.856334
0.856351
0.856369
0.856369
0.856386
0.856403
0.856421
0.856438
0.856438
0.856455
0.856472
0.85649
0.856507
0.856507
0.856525
0.856542
0.856559
0.856577
0.856577
0.856594
0.856611
0.856629
0.856646
0.856646
0.856664
0.856681
0.856698
0.856716
0.856716
0.856733
0.856751
0.856768
0.856786
0.856786
0.856803
0.85682
0.856838
0.856855
0.856855
0.856873
0.85689
0.856908
0.856925
0.856925
0.856943
0.85696
0.856978
0.856996
0.856996
0.857013
0.857031
0.857048
0.857066
0.857066
0.857083
0.857101
0.857119
0.857136
0.857136
0.857154
0.857171
0.857189
0.857207
0.857207
0.857224
0.857242
0.857259
0.857277
0.857277
0.857295
0.857312
0.85733
0.857348
0.857348
0.857365
0.857383
0.857401
0.857419
0.857419
0.857436
0.857454
0.857472
0.857489
0.857489
0.857507
0.857525
0.857543
0.85756
0.85756
0.857578
0.857596
0.857614
0.857632
0.857632
0.857649
0.857667
0.857685
0.857703
0.857703
0.857721
0.857738
0.857756
0.857774
0.857774
0.857792
0.85781
0.857828
0.857846
0.857846
0.857863
0.857881
0.857899
0.857917
0.857917
0.857935
0.857953
0.857971
0.857989
0.857989
0.858007
0.858025
0.858042
0.85806
0.85806
0.858078
0.858096
0.858114
0.858132
0.858132
0.85815
0.858168
0.858186
0.858204
0.858204
0.858222
0.85824
0.858258
0.858276
0.858276
0.858294
0.858312
0.85833
0.858349
0.858349
0.858367
0.858385
0.858403
0.858421
0.858421
0.858439
0.858457
0.858475
0.858493
0.858493
0.858511
0.858529
0.858548
0.858566
0.858566
0.858584
0.858602
0.85862
0.858638
0.858638
0.858656
0.858675
0.858693
0.858711
0.858711
0.858729
0.858747
0.858766
0.858784
0.858784
0.858802
0.85882
0.858838
0.858857
0.858857
0.858875
0.858893
0.858911
0.85893
0.85893
0.858948
0.858966
0.858985
0.859003
0.859003
0.859021
0.859039
0.859058
0.859076
0.859076
0.859094
0.859113
0.859131
0.859149
0.859149
0.859168
0.859186
0.859204
0.859223
0.859223
0.859241
0.859259
0.859278
0.859296
0.859296
0.859315
0.859333
0.859351
0.85937
0.85937
0.859388
0.859407
0.859425
0.859444
0.859444
0.859462
0.85948
0.859499
0.859517
0.859517
0.859536
0.859554
0.859573
0.859591
0.859591
0.85961
0.859628
0.859647
0.859665
0.859665
0.859684
0.859702
0.859721
0.859739
0.859739
0.859758
0.859777
0.859795
0.859814
0.859814
0.859832
0.859851
0.859869
0.859888
0.859888
0.859907
0.859925
0.859944
0.859962
0.859962
0.859981
0.86
0.860018
0.860037
0.860037
0.860056
0.860074
0.860093
0.860111
0.860111
0.86013
0.860149
0.860167
0.860186
0.860186
0.860205
0.860224
0.860242
0.860261
0.860261
0.86028
0.860298
0.860317
0.860336
0.860336
0.860355
0.860373
0.860392
0.860411
0.860411
0.86043
0.860448
0.860467
0.860486
0.860486
0.860505
0.860523
0.860542
0.860561
0.860561
0.86058
0.860599
0.860618
0.860636
0.860636
0.860655
0.860674
0.860693
0.860712
0.860712
0.860731
0.860749
0.860768
0.860787
0.860787
0.860806
0.860825
0.860844
0.860863
0.860863
0.860882
0.860901
0.860919
0.860938
0.860938
0.860957
0.860976
0.860995
0.861014
0.861014
0.861033
0.861052
0.861071
0.86109
0.86109
0.861109
0.861128
0.861147
0.861166
0.861166
0.861185
0.861204
0.861223
0.861242
0.861242
0.861261
0.86128
0.861299
0.861318
0.861318
0.861337
0.861356
0.861375
0.861394
0.861394
0.861413
0.861432
0.861451
0.86147
0.86147
0.86149
0.861509
0.861528
0.861547
0.861547
0.861566
0.861585
0.861604
0.861623
0.861623
0.861642
0.861662
0.861681
0.8617
0.8617
0.861719
0.861738
0.861757
0.861776
0.861776
0.861796
0.861815
0.861834
0.861853
0.861853
0.861872
0.861892
0.861911
0.86193
0.86193
0.861949
0.861968
0.861988
0.862007
0.862007
0.862026
0.862045
0.862065
0.862084
0.862084
0.862103
0.862122
0.862142
0.862161
0.862161
0.86218
0.8622
0.862219
0.862238
0.862238
0.862257
0.862277
0.862296
0.862315
0.862315
0.862335
0.862354
0.862373
0.862393
0.862393
0.862412
0.862431
0.862451
0.86247
0.86247
0.86249
0.862509
0.862528
0.862548
0.862548
0.862567
0.862587
0.862606
0.862625
0.862625
0.862645
0.862664
0.862684
0.862703
0.862703
0.862722
0.862742
0.862761
0.862781
0.862781
0.8628
0.86282
0.862839
0.862859
0.862859
0.862878
0.862898
0.862917
0.862937
0.862937
0.862956
0.862976
0.862995
0.863015
0.863015
0.863034
0.863054
0.863073
0.863093
0.863093
0.863112
0.863132
0.863151
0.863171
0.863171
0.86319
0.86321
0.86323
0.863249
0.863249
0.863269
0.863288
0.863308
0.863327
0.863327
0.863347
0.863367
0.863386
0.863406
0.863406
0.863426
0.863445
0.863465
0.863484
0.863484
0.863504
0.863524
0.863543
0.863563
0.863563
0.863583
0.863602
0.863622
0.863642
0.863642
0.863661
0.863681
0.863701
0.86372
0.86372
0.86374
0.86376
0.86378
0.863799
0.863799
0.863819
0.863839
0.863858
0.863878
0.863878
0.863898
0.863918
0.863937
0.863957
0.863957
0.863977
0.863997
0.864016
0.864036
0.864036
0.864056
0.864076
0.864096
0.864115
0.864115
0.864135
0.864155
0.864175
0.864195
0.864195
0.864214
0.864234
0.864254
0.864274
0.864274
0.864294
0.864314
0.864333
0.864353
0.864353
0.864373
0.864393
0.864413
0.864433
0.864433
0.864453
0.864472
0.864492
0.864512
0.864512
0.864532
0.864552
0.864572
0.864592
0.864592
0.864612
0.864632
0.864652
0.864672
0.864672
0.864691
0.864711
0.864731
0.864751
0.864751
0.864771
0.864791
0.864811
0.864831
0.864831
0.864851
0.864871
0.864891
0.864911
0.864911
0.864931
0.864951
0.864971
0.864991
0.864991
0.865011
0.865031
0.865051
0.865071
0.865071
0.865091
0.865111
0.865131
0.865151
0.865151
0.865171
0.865191
0.865211
0.865231
0.865231
0.865251
0.865271
0.865292
0.865312
0.865312
0.865332
0.865352
0.865372
0.865392
0.865392
0.865412
0.865432
0.865452
0.865472
0.865472
0.865493
0.865513
0.865533
0.865553
0.865553
0.865573
0.865593
0.865613
0.865633
0.865633
0.865654
0.865674
0.865694
0.865714
0.865714
0.865734
0.865754
0.865775
0.865795
0.865795
0.865815
0.865835
0.865855
0.865876
0.865876
0.865896
0.865916
0.865936
0.865956
0.865956
0.865977
0.865997
0.866017
0.866037
0.866037
0.866058
0.866078
0.866098
0.866118
0.866118
0.866139
0.866159
0.866179
0.866199
0.866199
0.86622
0.86624
0.86626
0.86628
0.86628
0.866301
0.866321
0.866341
0.866362
0.866362
0.866382
0.866402
0.866423
0.866443
0.866443
0.866463
0.866484
0.866504
0.866524
0.866524
0.866545
0.866565
0.866585
0.866606
0.866606
0.866626
0.866646
0.866667
0.866687
0.866687
0.866707
0.866728
0.866748
0.866769
0.866769
0.866789
0.866809
0.86683
0.86685
0.86685
0.866871
0.866891
0.866911
0.866932
0.866932
0.866952
0.866973
0.866993
0.867014
0.867014
0.867034
0.867054
0.867075
0.867095
0.867095
0.867116
0.867136
0.867157
0.867177
0.867177
0.867198
0.867218
0.867239
0.867259
0.867259
0.86728
0.8673
0.867321
0.867341
0.867341
0.867362
0.867382
0.867403
0.867423
0.867423
0.867444
0.867464
0.867485
0.867505
0.867505
0.867526
0.867546
0.867567
0.867587
0.867587
0.867608
0.867629
0.867649
0.86767
0.86767
0.86769
0.867711
0.867731
0.867752
0.867752
0.867773
0.867793
0.867814
0.867834
0.867834
0.867855
0.867876
0.867896
0.867917
0.867917
0.867937
0.867958
0.867979
0.867999
0.867999
0.86802
0.868041
0.868061
0.868082
0.868082
0.868102
0.868123
0.868144
0.868164
0.868164
0.868185
0.868206
0.868226
0.868247
0.868247
0.868268
0.868288
0.868309
0.86833
0.86833
0.86835
0.868371
0.868392
0.868413
0.868413
0.868433
0.868454
0.868475
0.868495
0.868495
0.868516
0.868537
0.868558
0.868578
0.868578
0.868599
0.86862
0.868641
0.868661
0.868661
0.868682
0.868703
0.868724
0.868744
0.868744
0.868765
0.868786
0.868807
0.868827
0.868827
0.868848
0.868869
0.86889
0.86891
0.86891
0.868931
0.868952
0.868973
0.868994
0.868994
0.869014
0.869035
0.869056
0.869077
0.869077
0.869098
0.869119
0.869139
0.86916
0.86916
0.869181
0.869202
0.869223
0.869244
0.869244
0.869264
0.869285
0.869306
0.869327
0.869327
0.869348
0.869369
0.86939
0.86941
0.86941
0.869431
0.869452
0.869473
0.869494
0.869494
0.869515
0.869536
0.869557
0.869578
0.869578
0.869598
0.869619
0.86964
0.869661
0.869661
0.869682
0.869703
0.869724
0.869745
0.869745
0.869766
0.869787
0.869808
0.869829
0.869829
0.86985
0.869871
0.869891
0.869912
0.869912
0.869933
0.869954
0.869975
0.869996
0.869996
0.870017
0.870038
0.870059
0.87008
0.87008
0.870101
0.870122
0.870143
0.870164
0.870164
0.870185
0.870206
0.870227
0.870248
0.870248
0.870269
0.87029
0.870311
0.870332
0.870332
0.870353
0.870374
0.870395
0.870416
0.870416
0.870437
0.870458
0.870479
0.8705
0.8705
0.870522
0.870543
0.870564
0.870585
0.870585
0.870606
0.870627
0.870648
0.870669
0.870669
0.87069
0.870711
0.870732
0.870753
0.870753
0.870774
0.870795
0.870817
0.870838
0.870838
0.870859
0.87088
0.870901
0.870922
0.870922
0.870943
0.870964
0.870985
0.871006
0.871006
0.871028
0.871049
0.87107
0.871091
0.871091
0.871112
0.871133
0.871154
0.871176
0.871176
0.871197
0.871218
0.871239
0.87126
0.87126
0.871281
0.871302
0.871324
0.871345
0.871345
0.871366
0.871387
0.871408
0.871429
0.871429
0.871451
0.871472
0.871493
0.871514
0.871514
0.871535
0.871557
0.871578
0.871599
0.871599
0.87162
0.871641
0.871663
0.871684
0.871684
0.871705
0.871726
0.871748
0.871769
0.871769
0.87179
0.871811
0.871832
0.871854
0.871854
0.871875
0.871896
0.871917
0.871939
0.871939
0.87196
0.871981
0.872002
0.872024
0.872024
0.872045
0.872066
0.872087
0.872109
0.872109
0.87213
0.872151
0.872173
0.872194
0.872194
0.872215
0.872236
0.872258
0.872279
0.872279
0.8723
0.872322
0.872343
0.872364
0.872364
0.872386
0.872407
0.872428
0.872449
0.872449
0.872471
0.872492
0.872513
0.872535
0.872535
0.872556
0.872577
0.872599
0.87262
0.87262
0.872641
0.872663
0.872684
0.872705
0.872705
0.872727
0.872748
0.87277
0.872791
0.872791
0.872812
0.872834
0.872855
0.872876
0.872876
0.872898
0.872919
0.87294
0.872962
0.872962
0.872983
0.873005
0.873026
0.873047
0.873047
0.873069
0.87309
0.873112
0.873133
0.873133
0.873154
0.873176
0.873197
0.873219
0.873219
0.87324
0.873261
0.873283
0.873304
0.873304
0.873326
0.873347
0.873369
0.87339
0.87339
0.873411
0.873433
0.873454
0.873476
0.873476
0.873497
0.873519
0.87354
0.873562
0.873562
0.873583
0.873604
0.873626
0.873647
0.873647
0.873669
0.87369
0.873712
0.873733
0.873733
0.873755
0.873776
0.873798
0.873819
0.873819
0.873841
0.873862
0.873884
0.873905
0.873905
0.873927
0.873948
0.87397
0.873991
0.873991
0.874013
0.874034
0.874056
0.874077
0.874077
0.874099
0.87412
0.874142
0.874163
0.874163
0.874185
0.874206
0.874228
0.874249
0.874249
0.874271
0.874292
0.874314
0.874335
0.874335
0.874357
0.874378
0.8744
0.874422
0.874422
0.874443
0.874465
0.874486
0.874508
0.874508
0.874529
0.874551
0.874572
0.874594
0.874594
0.874616
0.874637
0.874659
0.87468
0.87468
0.874702
0.874723
0.874745
0.874767
0.874767
0.874788
0.87481
0.874831
0.874853
0.874853
0.874874
0.874896
0.874918
0.874939
0.874939
0.874961
0.874982
0.875004
0.875026
0.875026
0.875047
0.875069
0.875091
0.875112
0.875112
0.875134
0.875155
0.875177
0.875199
0.875199
0.87522
0.875242
0.875263
0.875285
0.875285
0.875307
0.875328
0.87535
0.875372
0.875372
0.875393
0.875415
0.875437
0.875458
0.875458
0.87548
0.875502
0.875523
0.875545
0.875545
0.875567
0.875588
0.87561
0.875632
0.875632
0.875653
0.875675
0.875697
0.875718
0.875718
0.87574
0.875762
0.875783
0.875805
0.875805
0.875827
0.875848
0.87587
0.875892
0.875892
0.875913
0.875935
0.875957
0.875978
0.875978
0.876
0.876022
0.876044
0.876065
0.876065
0.876087
0.876109
0.87613
0.876152
0.876152
0.876174
0.876196
0.876217
0.876239
0.876239
0.876261
0.876282
0.876304
0.876326
0.876326
0.876348
0.876369
0.876391
0.876413
0.876413
0.876435
0.876456
0.876478
0.8765
0.8765
0.876522
0.876543
0.876565
0.876587
0.876587
0.876609
0.87663
0.876652
0.876674
0.876674
0.876696
0.876717
0.876739
0.876761
0.876761
0.876783
0.876804
0.876826
0.876848
0.876848
0.87687
0.876892
0.876913
0.876935
0.876935
0.876957
0.876979
0.877
0.877022
0.877022
0.877044
0.877066
0.877088
0.877109
0.877109
0.877131
0.877153
0.877175
0.877197
0.877197
0.877218
0.87724
0.877262
0.877284
0.877284
0.877306
0.877327
0.877349
0.877371
0.877371
0.877393
0.877415
0.877437
0.877458
0.877458
0.87748
0.877502
0.877524
0.877546
0.877546
0.877567
0.877589
0.877611
0.877633
0.877633
0.877655
0.877677
0.877698
0.87772
0.87772
0.877742
0.877764
0.877786
0.877808
0.877808
0.87783
0.877851
0.877873
0.877895
0.877895
0.877917
0.877939