<?xml version="1.0"?>
<VTKFile type="UnstructuredGrid" version="0.1" byte_order="LittleEndian">
<UnstructuredGrid>
<Piece NumberOfPoints="5000" NumberOfCells="4000">
<PointData Scalars="Reaction 0">
<DataArray type="Float32" Name="Reaction 0" format="ascii">
0.924074
0.924074
0.924074
0.924074
0.924074
0.924074
0.924074
0.924074
0.924074
0.924074
0.924074
0.924074
0.924074
0.924074
0.924074
0.924074
0.924074
0.924074
0.924074
0.924074
0.924074
0.924073
0.924073
0.924073
0.924073
0.924073
0.924073
0.924073
0.924073
0.924073
0.924073
0.924073
0.924073
0.924073
0.924073
0.924073
0.924073
0.924073
0.924073
0.924073
0.924073
0.924073
0.924073
0.924073
0.924073
0.924073
0.924073
0.924073
0.924073
0.924073
0.924073
0.924073
0.924073
0.924073
0.924073
0.924073
0.924073
0.924073
0.924073
0.924073
0.924073
0.924073
0.924073
0.924073
0.924073
0.924073
0.924072
0.924072
0.924072
0.924072
0.924072
0.924072
0.924072
0.924072
0.924072
0.924072
0.924072
0.924072
0.924072
0.924072
0.924072
0.924072
0.924072
0.924072
0.924072
0.924072
0.924072
0.924072
0.924072
0.924072
0.924072
0.924071
0.924071
0.924071
0.924071
0.924071
0.924071
0.924071
0.924071
0.924071
0.924071
0.924071
0.924071
0.924071
0.924071
0.924071
0.924071
0.924071
0.924071
0.924071
0.924071
0.92407
0.92407
0.92407
0.92407
0.92407
0.92407
0.92407
0.92407
0.92407
0.92407
0.92407
0.92407
0.92407
0.92407
0.92407
0.92407
0.924069
0.924069
0.924069
0.924069
0.924069
0.924069
0.924069
0.924069
0.924069
0.924069
0.924069
0.924069
0.924069
0.924069
0.924069
0.924068
0.924068
0.924068
0.924068
0.924068
0.924068
0.924068
0.924068
0.924068
0.924068
0.924068
0.924068
0.924068
0.924068
0.924067
0.924067
0.924067
0.924067
0.924067
0.924067
0.924067
0.924067
0.924067
0.924067
0.924067
0.924066
0.924066
0.924066
0.924066
0.924066
0.924066
0.924066
0.924066
0.924066
0.924066
0.924066
0.924065
0.924065
0.924065
0.924065
0.924065
0.924065
0.924065
0.924065
0.924065
0.924065
0.924065
0.924064
0.924064
0.924064
0.924064
0.924064
0.924064
0.924064
0.924064
0.924064
0.924064
0.924063
0.924063
0.924063
0.924063
0.924063
0.924063
0.924063
0.924063
0.924063
0.924063
0.924062
0.924062
0.924062
0.924062
0.924062
0.924062
0.924062
0.924062
0.924062
0.924061
0.924061
0.924061
0.924061
0.924061
0.924061
0.924061
0.924061
0.924061
0.92406
0.92406
0.92406
0.92406
0.92406
0.92406
0.92406
0.92406
0.92406
0.924059
0.924059
0.924059
0.924059
0.924059
0.924059
0.924059
0.924059
0.924058
0.924058
0.924058
0.924058
0.924058
0.924058
0.924058
0.924058
0.924057
0.924057
0.924057
0.924057
0.924057
0.924057
0.924057
0.924056
0.924056
0.924056
0.924056
0.924056
0.924056
0.924056
0.924056
0.924055
0.924055
0.924055
0.924055
0.924055
0.924055
0.924055
0.924054
0.924054
0.924054
0.924054
0.924054
0.924054
0.924054
0.924054
0.924053
0.924053
0.924053
0.924053
0.924053
0.924053
0.924052
0.924052
0.924052
0.924052
0.924052
0.924052
0.924052
0.924052
0.924051
0.924051
0.924051
0.924051
0.924051
0.924051
0.92405
0.92405
0.92405
0.92405
0.92405
0.92405
0.924049
0.924049
0.924049
0.924049
0.924049
0.924049
0.924048
0.924048
0.924048
0.924048
0.924048
0.924048
0.924048
0.924047
0.924047
0.924047
0.924047
0.924047
0.924047
0.924046
0.924046
0.924046
0.924046
0.924046
0.924046
0.924045
0.924045
0.924045
0.924045
0.924045
0.924044
0.924044
0.924044
0.924044
0.924044
0.924044
0.924043
0.924043
0.924043
0.924043
0.924043
0.924043
0.924043
0.924042
0.924042
0.924042
0.924042
0.924042
0.924041
0.924041
0.924041
0.924041
0.924041
0.92404
0.92404
0.92404
0.92404
0.92404
0.92404
0.924039
0.924039
0.924039
0.924039
0.924039
0.924038
0.924038
0.924038
0.924038
0.924038
0.924037
0.924037
0.924037
0.924037
0.924037
0.924036
0.924036
0.924036
0.924036
0.924036
0.924035
0.924035
0.924035
0.924035
0.924035
0.924035
0.924034
0.924034
0.924034
0.924034
0.924033
0.924033
0.924033
0.924033
0.924033
0.924032
0.924032
0.924032
0.924032
0.924032
0.924031
0.924031
0.924031
0.924031
0.924031
0.92403
0.92403
0.92403
0.92403
0.92403
0.924029
0.924029
0.924029
0.924029
0.924029
0.924028
0.924028
0.924028
0.924028
0.924027
0.924027
0.924027
0.924027
0.924027
0.924026
0.924026
0.924026
0.924026
0.924026
0.924025
0.924025
0.924025
0.924024
0.924024
0.924024
0.924024
0.924024
0.924023
0.924023
0.924023
0.924023
0.924022
0.924022
0.924022
0.924022
0.924022
0.924021
0.924021
0.924021
0.924021
0.92402
0.92402
0.92402
0.92402
0.92402
0.924019
0.924019
0.924019
0.924019
0.924018
0.924018
0.924018
0.924018
0.924018
0.924017
0.924017
0.924017
0.924016
0.924016
0.924016
0.924016
0.924015
0.924015
0.924015
0.924015
0.924015
0.924014
0.924014
0.924014
0.924014
0.924013
0.924013
0.924013
0.924013
0.924012
0.924012
0.924012
0.924011
0.924011
0.924011
0.924011
0.92401
0.92401
0.92401
0.92401
0.92401
0.924009
0.924009
0.924009
0.924009
0.924008
0.924008
0.924008
0.924008
0.924007
0.924007
0.924007
0.924006
0.924006
0.924006
0.924006
0.924005
0.924005
0.924005
0.924005
0.924004
0.924004
0.924004
0.924004
0.924003
0.924003
0.924003
0.924002
0.924002
0.924002
0.924002
0.924001
0.924001
0.924001
0.924001
0.924
0.924
0.924
0.924
0.923999
0.923999
0.923999
0.923998
0.923998
0.923998
0.923998
0.923997
0.923997
0.923997
0.923997
0.923996
0.923996
0.923995
0.923995
0.923995
0.923995
0.923994
0.923994
0.923994
0.923994
0.923993
0.923993
0.923993
0.923993
0.923992
0.923992
0.923992
0.923991
0.923991
0.923991
0.92399
0.92399
0.92399
0.92399
0.923989
0.923989
0.923989
0.923988
0.923988
0.923988
0.923988
0.923987
0.923987
0.923987
0.923986
0.923986
0.923986
0.923985
0.923985
0.923985
0.923985
0.923984
0.923984
0.923984
0.923983
0.923983
0.923983
0.923982
0.923982
0.923982
0.923981
0.923981
0.923981
0.923981
0.92398
0.92398
0.923979
0.923979
0.923979
0.923979
0.923978
0.923978
0.923977
0.923977
0.923977
0.923977
0.923976
0.923976
0.923976
0.923975
0.923975
0.923975
0.923974
0.923974
0.923974
0.923973
0.923973
0.923973
0.923973
0.923972
0.923972
0.923971
0.923971
0.923971
0.923971
0.92397
0.92397
0.923969
0.923969
0.923969
0.923969
0.923968
0.923968
0.923968
0.923967
0.923967
0.923966
0.923966
0.923966
0.923966
0.923965
0.923965
0.923964
0.923964
0.923964
0.923963
0.923963
0.923963
0.923963
0.923962
0.923962
0.923961
0.923961
0.923961
0.92396
0.92396
0.92396
0.923959
0.923959
0.923959
0.923958
0.923958
0.923957
0.923957
0.923957
0.923957
0.923956
0.923956
0.923956
0.923955
0.923955
0.923954
0.923954
0.923954
0.923953
0.923953
0.923952
0.923952
0.923952
0.923952
0.923951
0.923951
0.92395
0.92395
0.92395
0.923949
0.923949
0.923948
0.923948
0.923948
0.923947
0.923947
0.923947
0.923947
0.923946
0.923946
0.923945
0.923945
0.923945
0.923944
0.923944
0.923943
0.923943
0.923943
0.923942
0.923942
0.923941
0.923941
0.923941
0.92394
0.92394
0.923939
0.923939
0.923939
0.923938
0.923938
0.923938
0.923937
0.923937
0.923937
0.923936
0.923936
0.923935
0.923935
0.923935
0.923934
0.923934
0.923933
0.923933
0.923933
0.923932
0.923932
0.923931
0.923931
0.923931
0.92393
0.92393
0.923929
0.923929
0.923929
0.923928
0.923928
0.923927
0.923927
0.923927
0.923926
0.923926
0.923925
0.923925
0.923925
0.923924
0.923924
0.923923
0.923923
0.923923
0.923922
0.923922
0.923921
0.923921
0.923921
0.92392
0.92392
0.923919
0.923919
0.923919
0.923918
0.923918
0.923917
0.923917
0.923917
0.923916
0.923916
0.923915
0.923915
0.923915
0.923914
0.923914
0.923913
0.923913
0.923912
0.923912
0.923911
0.923911
0.923911
0.92391
0.92391
0.923909
0.923909
0.923909
0.923908
0.923908
0.923907
0.923907
0.923907
0.923906
0.923906
0.923905
0.923905
0.923905
0.923904
0.923903
0.923903
0.923902
0.923902
0.923902
0.923901
0.923901
0.9239
0.9239
0.9239
0.923899
0.923899
0.923898
0.923898
0.923898
0.923897
0.923896
0.923896
0.923896
0.923895
0.923895
0.923894
0.923894
0.923894
0.923893
0.923893
0.923892
0.923892
0.923892
0.923891
0.92389
0.92389
0.923889
0.923889
0.923889
0.923888
0.923888
0.923887
0.923887
0.923887
0.923886
0.923885
0.923885
0.923885
0.923884
0.923884
0.923883
0.923883
0.923883
0.923882
0.923881
0.923881
0.92388
0.92388
0.92388
0.923879
0.923879
0.923878
0.923878
0.923877
0.923877
0.923876
0.923876
0.923876
0.923875
0.923875
0.923874
0.923873
0.923873
0.923873
0.923872
0.923872
0.923871
0.923871
0.92387
0.92387
0.923869
0.923869
0.923869
0.923868
0.923868
0.923867
0.923866
0.923866
0.923866
0.923865
0.923865
0.923864
0.923864
0.923863
0.923863
0.923862
0.923862
0.923862
0.923861
0.92386
0.92386
0.923859
0.923859
0.923859
0.923858
0.923857
0.923857
0.923857
0.923856
0.923856
0.923855
0.923854
0.923854
0.923854
0.923853
0.923853
0.923852
0.923852
0.923851
0.923851
0.92385
0.92385
0.92385
0.923849
0.923848
0.923848
0.923847
0.923847
0.923847
0.923846
0.923845
0.923845
0.923845
0.923844
0.923843
0.923843
0.923842
0.923842
0.923842
0.923841
0.92384
0.92384
0.92384
0.923839
0.923838
0.923838
0.923837
0.923837
0.923837
0.923836
0.923835
0.923835
0.923835
0.923834
0.923833
0.923833
0.923832
0.923832
0.923832
0.923831
0.92383
0.92383
0.92383
0.923829
0.923828
0.923828
0.923827
0.923827
0.923826
0.923826
0.923825
0.923824
0.923824
0.923824
0.923823
0.923823
0.923822
0.923822
0.923821
0.923821
0.92382
0.923819
0.923819
0.923819
0.923818
0.923817
0.923817
0.923817
0.923816
0.923815
0.923815
0.923814
0.923814
0.923813
0.923813
0.923812
0.923811
0.923811
0.923811
0.92381
0.923809
0.923809
0.923809
0.923808
0.923807
0.923807
0.923806
0.923806
0.923805
0.923805
0.923804
0.923803
0.923803
0.923803
0.923802
0.923801
0.923801
0.923801
0.9238
0.923799
0.923799
0.923798
0.923798
0.923797
0.923797
0.923796
0.923795
0.923795
0.923795
0.923794
0.923793
0.923793
0.923793
0.923792
0.923791
0.923791
0.92379
0.92379
0.923789
0.923789
0.923788
0.923787
0.923787
0.923786
0.923786
0.923785
0.923784
0.923784
0.923784
0.923783
0.923782
0.923782
0.923782
0.923781
0.92378
0.92378
0.923779
0.923779
0.923778
0.923777
0.923777
0.923776
0.923776
0.923775
0.923775
0.923774
0.923773
0.923773
0.923772
0.923772
0.923771
0.92377
0.92377
0.92377
0.923769
0.923768
0.923768
0.923768
0.923767
0.923766
0.923765
0.923765
0.923765
0.923764
0.923763
0.923763
0.923762
0.923762
0.923761
0.92376
0.92376
0.923759
0.923759
0.923758
0.923757
0.923757
0.923756
0.923756
0.923755
0.923755
0.923754
0.923753
0.923753
0.923752
0.923752
0.923751
0.92375
0.92375
0.923749
0.923749
0.923748
0.923747
0.923747
0.923747
0.923746
0.923745
0.923744
0.923744
0.923744
0.923743
0.923742
0.923741
0.923741
0.923741
0.92374
0.923739
0.923738
0.923738
0.923738
0.923737
0.923736
0.923735
0.923735
0.923735
0.923734
0.923733
0.923732
0.923732
0.923732
0.923731
0.92373
0.923729
0.923729
0.923729
0.923728
0.923727
0.923726
0.923726
0.923726
0.923725
0.923724
0.923723
0.923723
0.923723
0.923722
0.923721
0.92372
0.92372
0.92372
0.923719
0.923718
0.923717
0.923717
0.923716
0.923716
0.923715
0.923714
0.923714
0.923713
0.923713
0.923712
0.923711
0.923711
0.92371
0.92371
0.923709
0.923708
0.923708
0.923707
0.923706
0.923706
0.923705
0.923705
0.923704
0.923703
0.923703
0.923702
0.923702
0.923701
0.9237
0.923699
0.923699
0.923699
0.923698
0.923697
0.923696
0.923695
0.923695
0.923695
0.923694
0.923693
0.923692
0.923692
0.923692
0.923691
0.92369
0.923689
0.923689
0.923688
0.923688
0.923687
0.923686
0.923686
0.923685
0.923684
0.923684
0.923683
0.923683
0.923682
0.923681
0.92368
0.92368
0.92368
0.923679
0.923678
0.923677
0.923676
0.923676
0.923675
0.923675
0.923674
0.923673
0.923673
0.923672
0.923671
0.923671
0.92367
0.92367
0.923669
0.923668
0.923667
0.923667
0.923667
0.923666
0.923665
0.923664
0.923663
0.923663
0.923662
0.923662
0.923661
0.92366
0.92366
0.923659
0.923658
0.923658
0.923657
0.923657
0.923656
0.923655
0.923654
0.923653
0.923653
0.923653
0.923652
0.923651
0.92365
0.92365
0.923649
0.923648
0.923648
0.923647
0.923647
0.923646
0.923645
0.923644
0.923643
0.923643
0.923642
0.923642
0.923641
0.92364
0.92364
0.923639
0.923638
0.923637
0.923637
0.923637
0.923636
0.923635
0.923634
0.923633
0.923633
0.923632
0.923631
0.923631
0.92363
0.92363
0.923629
0.923628
0.923627
0.923626
0.923626
0.923626
0.923625
0.923624
0.923623
0.923623
0.923622
0.923621
0.92362
0.92362
0.92362
0.923619
0.923618
0.923617
0.923616
0.923616
0.923615
0.923614
0.923613
0.923613
0.923613
0.923612
0.923611
0.92361
0.923609
0.923609
0.923608
0.923607
0.923606
0.923606
0.923606
0.923605
0.923604
0.923603
0.923602
0.923602
0.923601
0.9236
0.923599
0.923599
0.923599
0.923598
0.923597
0.923596
0.923595
0.923595
0.923594
0.923593
0.923592
0.923591
0.923591
0.923591
0.92359
0.923589
0.923588
0.923588
0.923587
0.923586
0.923585
0.923584
0.923584
0.923583
0.923583
0.923582
0.923581
0.923581
0.92358
0.923579
0.923578
0.923577
0.923577
0.923576
0.923575
0.923574
0.923573
0.923573
0.923573
0.923572
0.923571
0.92357
0.92357
0.923569
0.923568
0.923567
0.923566
0.923566
0.923565
0.923564
0.923563
0.923562
0.923562
0.923561
0.923561
0.92356
0.923559
0.923559
0.923558
0.923557
0.923556
0.923555
0.923555
0.923554
0.923553
0.923552
0.923551
0.923551
0.92355
0.923549
0.923548
0.923547
0.923547
0.923546
0.923545
0.923544
0.923543
0.923543
0.923543
0.923542
0.923541
0.92354
0.92354
0.923539
0.923538
0.923537
0.923536
0.923536
0.923535
0.923534
0.923533
0.923532
0.923532
0.923531
0.92353
0.923529
0.923528
0.923528
0.923527
0.923526
0.923525
0.923524
0.923524
0.923524
0.923523
0.923522
0.923521
0.923521
0.92352
0.923519
0.923518
0.923517
0.923517
0.923516
0.923515
0.923514
0.923513
0.923513
0.923512
0.923511
0.92351
0.923509
0.923509
0.923508
0.923507
0.923506
0.923505
0.923505
0.923504
0.923503
0.923502
0.923501
0.923501
0.9235
0.923499
0.923498
0.923497
0.923497
0.923496
0.923495
0.923494
0.923493
0.923493
0.923492
0.923491
0.92349
0.923489
0.923489
0.923488
0.923487
0.923486
0.923485
0.923485
0.923484
0.923483
0.923482
0.923481
0.923481
0.92348
0.923479
0.923478
0.923477
0.923477
0.923476
0.923475
0.923474
0.923473
0.923473
0.923472
0.923471
0.92347
0.923469
0.923469
0.923467
0.923466
0.923465
0.923464
0.923464
0.923463
0.923462
0.923461
0.92346
0.92346
0.923459
0.923458
0.923457
0.923456
0.923456
0.923455
0.923454
0.923453
0.923452
0.923452
0.923451
0.92345
0.923449
0.923448
0.923448
0.923447
0.923446
0.923445
0.923444
0.923444
0.923443
0.923442
0.92344
0.923439
0.923439
0.923438
0.923437
0.923436
0.923435
0.923435
0.923434
0.923433
0.923432
0.923431
0.923431
0.92343
0.923429
0.923428
0.923427
0.923427
0.923426
0.923425
0.923424
0.923423
0.923423
0.923421
0.92342
0.923419
0.923418
0.923418
0.923417
0.923416
0.923415
0.923414
0.923414
0.923413
0.923412
0.923411
0.92341
0.92341
0.923409
0.923408
0.923406
0.923405
0.923405
0.923404
0.923403
0.923402
0.923401
0.923401
0.9234
0.923399
0.923398
0.923397
0.923397
0.923396
0.923395
0.923394
0.923392
0.923392
0.923391
0.92339
0.923389
0.923388
0.923388
0.923387
0.923386
0.923385
0.923384
0.923384
0.923383
0.923382
0.92338
0.923379
0.923379
0.923378
0.923377
0.923376
0.923375
0.923375
0.923374
0.923373
0.923372
0.923371
0.923371
0.923369
0.923368
0.923367
0.923366
0.923366
0.923365
0.923364
0.923363
0.923362
0.923362
0.923361
0.92336
0.923358
0.923357
0.923357
0.923356
0.923355
0.923354
0.923353
0.923353
0.923352
0.923351
0.923349
0.923348
0.923348
0.923347
0.923346
0.923345
0.923344
0.923344
0.923343
0.923342
0.923341
0.923339
0.923339
0.923338
0.923337
0.923336
0.923335
0.923335
0.923334
0.923333
0.923331
0.92333
0.92333
0.923329
0.923328
0.923327
0.923326
0.923326
0.923325
0.923324
0.923322
0.923321
0.923321
0.92332
0.923319
0.923318
0.923317
0.923317
0.923316
0.923314
0.923313
0.923312
0.923312
0.923311
0.92331
0.923309
0.923308
0.923308
0.923306
0.923305
0.923304
0.923303
0.923303
0.923302
0.923301
0.9233
0.923298
0.923298
0.923297
0.923296
0.923295
0.923294
0.923294
0.923293
0.923291
0.92329
0.923289
0.923289
0.923288
0.923287
0.923286
0.923284
0.923284
0.923283
0.923282
0.923281
0.92328
0.92328
0.923279
0.923277
0.923276
0.923275
0.923275
0.923274
0.923273
0.923272
0.92327
0.92327
0.923269
0.923268
0.923267
0.923266
0.923266
0.923265
0.923263
0.923262
0.923261
0.923261
0.92326
0.923259
0.923257
0.923256
0.923256
0.923255
0.923254
0.923253
0.923252
0.923252
0.92325
0.923249
0.923248
0.923247
0.923247
0.923246
0.923244
0.923243
0.923242
0.923242
0.923241
0.92324
0.923238
0.923237
0.923237
0.923236
0.923235
0.923234
0.923232
0.923232
0.923231
0.92323
0.923229
0.923228
0.923228
0.923226
0.923225
0.923224
0.923223
0.923223
0.923222
0.92322
0.923219
0.923218
0.923218
0.923217
0.923216
0.923214
0.923213
0.923213
0.923212
0.923211
0.92321
0.923208
0.923208
0.923207
0.923206
0.923205
0.923203
0.923203
0.923202
0.923201
0.9232
0.923199
0.923199
0.923197
0.923196
0.923195
0.923194
0.923194
0.923192
0.923191
0.92319
0.923189
0.923189
0.923188
0.923186
0.923185
0.923184
0.923184
0.923183
0.923181
0.92318
0.923179
0.923179
0.923178
0.923176
0.923175
0.923174
0.923174
0.923173
0.923171
0.92317
0.923169
0.923169
0.923168
0.923167
0.923165
0.923164
0.923164
0.923163
0.923162
0.92316
0.923159
0.923159
0.923158
0.923157
0.923155
0.923154
0.923154
0.923153
0.923151
0.92315
0.923149
0.923149
0.923148
0.923146
0.923145
0.923144
0.923144
0.923143
0.923141
0.92314
0.923139
0.923139
0.923138
0.923136
0.923135
0.923134
0.923134
0.923132
0.923131
0.92313
0.923129
0.923129
0.923127
0.923126
0.923125
0.923123
0.923123
0.923122
0.923121
0.923119
0.923118
0.923118
0.923117
0.923115
0.923114
0.923113
0.923113
0.923112
0.92311
0.923109
0.923108
0.923108
0.923106
0.923105
0.923104
0.923102
0.923102
0.923101
0.9231
0.923098
0.923097
0.923097
0.923096
0.923095
0.923093
0.923092
0.923092
0.923091
0.923089
0.923088
0.923087
0.923087
0.923086
0.923084
0.923083
0.923082
0.923082
0.92308
0.923079
0.923078
0.923076
0.923076
0.923075
0.923074
0.923072
0.923071
0.923071
0.92307
0.923068
0.923067
0.923066
0.923066
0.923064
0.923063
0.923062
0.92306
0.92306
0.923059
0.923058
0.923056
0.923055
0.923055
0.923054
0.923052
0.923051
0.92305
0.92305
0.923048
0.923047
0.923045
0.923044
0.923044
0.923043
0.923041
0.92304
0.923039
0.923039
0.923037
0.923036
0.923035
0.923033
0.923033
0.923032
0.92303
0.923029
0.923028
0.923028
0.923026
0.923025
0.923024
0.923022
0.923022
0.923021
0.923019
0.923018
0.923017
0.923017
0.923015
0.923014
0.923013
0.923011
0.923011
0.92301
0.923008
0.923007
0.923006
0.923006
0.923004
0.923003
0.923001
0.923
0.923
0.922999
0.922997
0.922996
0.922995
0.922995
0.922993
0.922992
0.92299
0.922989
0.922989
0.922988
0.922986
0.922985
0.922983
0.922983
0.922982
0.922981
0.922979
0.922978
0.922978
0.922976
0.922975
0.922974
0.922972
0.922972
0.922971
0.922969
0.922968
0.922967
0.922967
0.922965
0.922964
0.922962
0.922961
0.922961
0.922959
0.922958
0.922957
0.922955
0.922955
0.922954
0.922952
0.922951
0.92295
0.92295
0.922948
0.922947
0.922945
0.922944
0.922944
0.922942
0.922941
0.92294
0.922938
0.922938
0.922937
0.922935
0.922934
0.922932
0.922932
0.922931
0.92293
0.922928
0.922927
0.922927
0.922925
0.922924
0.922922
0.922921
0.922921
0.92292
0.922918
0.922917
0.922915
0.922915
0.922914
0.922912
0.922911
0.922909
0.922909
0.922908
0.922907
0.922905
0.922904
0.922904
0.922902
0.922901
0.922899
0.922898
0.922898
0.922896
0.922895
0.922894
0.922892
0.922892
0.922891
0.922889
0.922888
0.922886
0.922886
0.922885
0.922883
0.922882
0.92288
0.92288
0.922879
0.922878
0.922876
0.922875
0.922875
0.922873
0.922872
0.92287
0.922869
0.922869
0.922867
0.922866
0.922864
0.922863
0.922863
0.922861
0.92286
0.922858
0.922857
0.922857
0.922856
0.922854
0.922853
0.922851
0.922851
0.92285
0.922848
0.922847
0.922845
0.922845
0.922844
0.922842
0.922841
0.922839
0.922839
0.922838
0.922836
0.922835
0.922833
0.922833
0.922832
0.92283
0.922829
0.922827
0.922827
0.922826
0.922824
0.922823
0.922821
0.922821
0.92282
0.922818
0.922817
0.922815
0.922815
0.922814
0.922812
0.922811
0.922809
0.922809
0.922808
0.922806
0.922805
0.922803
0.922803
0.922802
0.9228
0.922799
0.922797
0.922797
0.922796
0.922794
0.922793
0.922791
0.922791
0.92279
0.922788
0.922787
0.922785
0.922785
0.922784
0.922782
0.922781
0.922779
0.922779
0.922778
0.922776
0.922775
0.922773
0.922773
0.922772
0.92277
0.922769
0.922767
0.922767
0.922766
0.922764
0.922763
0.922761
0.922761
0.92276
0.922758
0.922757
0.922755
0.922755
0.922753
0.922752
0.92275
0.922749
0.922749
0.922747
0.922746
0.922744
0.922743
0.922743
0.922741
0.92274
0.922738
0.922737
0.922737
0.922735
0.922734
0.922732
0.92273
0.92273
0.922729
0.922727
0.922726
0.922724
0.922724
0.922723
0.922721
0.92272
0.922718
0.922718
0.922716
0.922715
0.922713
0.922712
0.922712
0.92271
0.922709
0.922707
0.922706
0.922706
0.922704
0.922702
0.922701
0.922699
0.922699
0.922698
0.922696
0.922695
0.922693
0.922693
0.922691
0.92269
0.922688
0.922687
0.922687
0.922685
0.922683
0.922682
0.92268
0.92268
0.922679
0.922677
0.922675
0.922674
0.922674
0.922672
0.922671
0.922669
0.922667
0.922667
0.922666
0.922664
0.922662
0.922661
0.922661
0.922659
0.922658
0.922656
0.922654
0.922654
0.922653
0.922651
0.92265
0.922648
0.922648
0.922646
0.922645
0.922643
0.922642
0.922642
0.92264
0.922638
0.922637
0.922635
0.922635
0.922634
0.922632
0.92263
0.922629
0.922629
0.922627
0.922626
0.922624
0.922622
0.922622
0.922621
0.922619
0.922618
0.922616
0.922616
0.922614
0.922613
0.922611
0.922609
0.922609
0.922608
0.922606
0.922605
0.922603
0.922603
0.922601
0.9226
0.922598
0.922596
0.922596
0.922595
0.922593
0.922591
0.92259
0.92259
0.922588
0.922586
0.922585
0.922583
0.922583
0.922581
0.92258
0.922578
0.922576
0.922576
0.922575
0.922573
0.922571
0.92257
0.92257
0.922568
0.922566
0.922565
0.922563
0.922563
0.922561
0.92256
0.922558
0.922556
0.922556
0.922555
0.922553
0.922551
0.92255
0.92255
0.922548
0.922546
0.922545
0.922543
0.922543
0.922541
0.922539
0.922538
0.922536
0.922536
0.922534
0.922533
0.922531
0.922529
0.922529
0.922528
0.922526
0.922524
0.922523
0.922523
0.922521
0.922519
0.922517
0.922516
0.922516
0.922514
0.922512
0.922511
0.922509
0.922509
0.922507
0.922506
0.922504
0.922502
0.922502
0.9225
0.922499
0.922497
0.922495
0.922495
0.922494
0.922492
0.92249
0.922488
0.922488
0.922487
0.922485
0.922483
0.922482
0.922482
0.92248
0.922478
0.922476
0.922475
0.922475
0.922473
0.922471
0.92247
0.922468
0.922468
0.922466
0.922464
0.922463
0.922461
0.922461
0.922459
0.922458
0.922456
0.922454
0.922454
0.922452
0.922451
0.922449
0.922447
0.922447
0.922445
0.922444
0.922442
0.92244
0.92244
0.922438
0.922437
0.922435
0.922433
0.922433
0.922432
0.92243
0.922428
0.922426
0.922426
0.922425
0.922423
0.922421
0.922419
0.922419
0.922418
0.922416
0.922414
0.922412
0.922412
0.922411
0.922409
0.922407
0.922405
0.922405
0.922404
0.922402
0.9224
0.922398
0.922398
0.922397
0.922395
0.922393
0.922391
0.922391
0.92239
0.922388
0.922386
0.922384
0.922384
0.922382
0.922381
0.922379
0.922377
0.922377
0.922375
0.922374
0.922372
0.92237
0.92237
0.922368
0.922367
0.922365
0.922363
0.922363
0.922361
0.922359
0.922358
0.922356
0.922356
0.922354
0.922352
0.922351
0.922349
0.922349
0.922347
0.922345
0.922343
0.922342
0.922342
0.92234
0.922338
0.922336
0.922335
0.922335
0.922333
0.922331
0.922329
0.922327
0.922327
0.922326
0.922324
0.922322
0.92232
0.92232
0.922318
0.922317
0.922315
0.922313
0.922313
0.922311
0.922309
0.922308
0.922306
0.922306
0.922304
0.922302
0.9223
0.922299
0.922299
0.922297
0.922295
0.922293
0.922291
0.922291
0.92229
0.922288
0.922286
0.922284
0.922284
0.922282
0.922281
0.922279
0.922277
0.922277
0.922275
0.922273
0.922271
0.92227
0.92227
0.922268
0.922266
0.922264
0.922262
0.922262
0.922261
0.922259
0.922257
0.922255
0.922255
0.922253
0.922251
0.922249
0.922248
0.922248
0.922246
0.922244
0.922242
0.92224
0.92224
0.922238
0.922236
0.922235
0.922233
0.922233
0.922231
0.922229
0.922227
0.922225
0.922225
0.922223
0.922222
0.92222
0.922218
0.922218
0.922216
0.922214
0.922212
0.92221
0.92221
0.922208
0.922206
0.922205
0.922203
0.922203
0.922201
0.922199
0.922197
0.922195
0.922195
0.922193
0.922191
0.92219
0.922188
0.922188
0.922186
0.922184
0.922182
0.92218
0.92218
0.922178
0.922177
0.922175
0.922173
0.922173
0.922171
0.922169
0.922167
0.922165
0.922165
0.922163
0.922162
0.92216
0.922158
0.922158
0.922156
0.922154
0.922152
0.92215
0.92215
0.922148
0.922146
0.922145
0.922143
0.922143
0.922141
0.922139
0.922137
0.922135
0.922135
0.922133
0.922131
0.922129
0.922127
0.922127
0.922125
0.922123
0.922122
0.92212
0.92212
0.922118
0.922116
0.922114
0.922112
0.922112
0.92211
0.922108
0.922106
0.922104
0.922104
0.922102
0.9221
0.922098
0.922096
0.922096
0.922094
0.922092
0.922091
0.922089
0.922089
0.922087
0.922085
0.922083
0.922081
0.922081
0.922079
0.922077
0.922075
0.922073
0.922073
0.922071
0.922069
0.922067
0.922065
0.922065
0.922063
0.922061
0.922059
0.922057
0.922057
0.922055
0.922053
0.922051
0.922049
0.922049
0.922047
0.922046
0.922044
0.922042
0.922042
0.92204
0.922038
0.922036
0.922034
0.922034
0.922032
0.92203
0.922028
0.922026
0.922026
0.922024
0.922022
0.92202
0.922018
0.922018
0.922016
0.922014
0.922012
0.92201
0.92201
0.922008
0.922006
0.922004
0.922002
0.922002
0.922
0.921998
0.921996
0.921994
0.921994
0.921992
0.92199
0.921988
0.921986
0.921986
0.921984
0.921982
0.92198
0.921978
0.921978
0.921976
0.921974
0.921972
0.92197
0.92197
0.921968
0.921966
0.921964
0.921962
0.921962
0.92196
0.921958
0.921956
0.921954
0.921954
0.921952
0.92195
0.921948
0.921946
0.921946
0.921944
0.921942
0.92194
0.921938
0.921938
0.921936
0.921934
0.921932
0.92193
0.92193
0.921928
0.921926
0.921924
0.921922
0.921922
0.92192
0.921918
0.921916
0.921914
0.921914
0.921912
0.92191
0.921908
0.921906
0.921906
0.921904
0.921902
0.9219
0.921898
0.921898
0.921896
0.921894
0.921892
0.921889
0.921889
0.921887
0.921885
0.921883
0.921881
0.921881
0.921879
0.921877
0.921875
0.921873
0.921873
0.921871
0.921869
0.921867
0.921865
0.921865
0.921863
0.921861
0.921859
0.921857
0.921857
0.921855
0.921853
0.921851
0.921849
0.921849
0.921847
0.921845
0.921842
0.92184
0.92184
0.921838
0.921836
0.921834
0.921832
0.921832
0.92183
0.921828
0.921826
0.921824
0.921824
0.921822
0.92182
0.921818
0.921816
0.921816
0.921814
0.921811
0.921809
0.921807
0.921807
0.921805
0.921803
0.921801
0.921799
0.921799
0.921797
0.921795
0.921793
0.921791
0.921791
0.921788
0.921786
0.921784
0.921782
0.921782
0.92178
0.921778
0.921776
0.921774
0.921774
0.921772
0.921769
0.921767
0.921765
0.921765
0.921763
0.921761
0.921759
0.921757
0.921757
0.921755
0.921752
0.92175
0.921748
0.921748
0.921746
0.921744
0.921742
0.92174
0.92174
0.921737
0.921735
0.921733
0.921731
0.921731
0.921729
0.921727
0.921725
0.921723
0.921723
0.921721
0.921718
0.921716
0.921714
0.921714
0.921712
0.92171
0.921708
0.921706
0.921706
0.921704
0.921702
0.921699
0.921697
0.921697
0.921695
0.921693
0.921691
0.921689
0.921689
0.921687
0.921684
0.921682
0.92168
0.92168
0.921678
0.921676
0.921674
0.921672
0.921672
0.921669
0.921667
0.921665
0.921663
0.921663
0.921661
0.921659
0.921656
0.921654
0.921654
0.921652
0.92165
0.921648
0.921646
0.921646
0.921643
0.921641
0.921639
0.921637
0.921637
0.921635
0.921632
0.92163
0.921628
0.921628
0.921626
0.921624
0.921621
0.921619
0.921619
0.921617
0.921615
0.921613
0.92161
0.92161
0.921608
0.921606
0.921604
0.921602
0.921602
0.921599
0.921597
0.921595
0.921593
0.921593
0.921591
0.921588
0.921586
0.921584
0.921584
0.921582
0.92158
0.921577
0.921575
0.921575
0.921573
0.921571
0.921569
0.921566
0.921566
0.921564
0.921562
0.92156
0.921557
0.921557
0.921555
0.921553
0.921551
0.921549
0.921549
0.921546
0.921544
0.921542
0.92154
0.92154
0.921537
0.921535
0.921533
0.921531
0.921531
0.921528
0.921526
0.921524
0.921522
0.921522
0.92152
0.921517
0.921515
0.921513
0.921513
0.921511
0.921508
0.921506
0.921504
0.921504
0.921502
0.921499
0.921497
0.921495
0.921495
0.921493
0.92149
0.921488
0.921486
0.921486
0.921484
0.921481
0.921479
0.921477
0.921477
0.921475
0.921472
0.92147
0.921468
0.921468
0.921466
0.921463
0.921461
0.921459
0.921459
0.921457
0.921454
0.921452
0.92145
0.92145
0.921448
0.921445
0.921443
0.921441
0.921441
0.921438
0.921436
0.921434
0.921432
0.921432
0.921429
0.921427
0.921425
0.921423
0.921423
0.92142
0.921418
0.921416
0.921414
0.921414
0.921411
0.921409
0.921407
0.921404
0.921404
0.921402
0.9214
0.921398
0.921395
0.921395
0.921393
0.921391
0.921388
0.921386
0.921386
0.921384
0.921382
0.921379
0.921377
0.921377
0.921375
0.921372
0.92137
0.921368
0.921368
0.921365
0.921363
0.921361
0.921359
0.921359
0.921356
0.921354
0.921352
0.921349
0.921349
0.921347
0.921345
0.921342
0.92134
0.92134
0.921338
0.921335
0.921333
0.921331
0.921331
0.921328
0.921326
0.921324
0.921321
0.921321
0.921319
0.921317
0.921314
0.921312
0.921312
0.92131
0.921307
0.921305
0.921302
0.921302
0.9213
0.921298
0.921295
0.921293
0.921293
0.921291
0.921288
0.921286
0.921283
0.921283
0.921281
0.921279
0.921276
0.921274
0.921274
0.921272
0.921269
0.921267
0.921265
0.921265
0.921262
0.92126
0.921257
0.921255
0.921255
0.921253
0.92125
0.921248
0.921246
0.921246
0.921243
0.921241
0.921239
0.921236
0.921236
0.921234
0.921232
0.921229
0.921227
0.921227
0.921225
0.921222
0.92122
0.921218
0.921218
0.921215
0.921213
0.92121
0.921208
0.921208
0.921206
0.921203
0.921201
0.921198
0.921198
0.921196
0.921194
0.921191
0.921189
0.921189
0.921187
0.921184
0.921182
0.921179
0.921179
0.921177
0.921174
0.921172
0.92117
0.92117
0.921167
0.921165
0.921162
0.92116
0.92116
0.921158
0.921155
0.921153
0.92115
0.92115
0.921148
0.921145
0.921143
0.921141
0.921141
0.921138
0.921136
0.921133
0.921131
0.921131
0.921128
0.921126
0.921124
0.921121
0.921121
0.921119
0.921116
0.921114
0.921111
0.921111
0.921109
0.921106
0.921104
0.921102
0.921102
0.921099
0.921097
0.921094
0.921092
0.921092
0.921089
0.921087
0.921084
0.921082
0.921082
0.921079
0.921077
0.921075
0.921072
0.921072
0.92107
0.921067
0.921065
0.921062
0.921062
0.92106
0.921057
0.921055
0.921052
0.921052
0.92105
0.921047
0.921045
0.921043
0.921043
0.92104
0.921038
0.921035
0.921033
0.921033
0.92103
0.921028
0.921025
0.921023
0.921023
0.92102
0.921018
0.921015
0.921013
0.921013
0.92101
0.921008
0.921005
0.921003
0.921003
0.921
0.920998
0.920995
0.920993
0.920993
0.920991
0.920988
0.920986
0.920983
0.920983
0.920981
0.920978
0.920976
0.920973
0.920973
0.920971
0.920968
0.920966
0.920963
0.920963
0.920961
0.920958
0.920956
0.920953
0.920953
0.920951
0.920948
0.920946
0.920943
0.920943