<?xml version="1.0"?>
<VTKFile type="UnstructuredGrid" version="0.1" byte_order="LittleEndian">
<UnstructuredGrid>
<Piece NumberOfPoints="5000" NumberOfCells="4000">
<PointData Scalars="Reaction 0">
<DataArray type="Float32" Name="Reaction 0" format="ascii">
0.997402
0.997402
0.997402
0.997402
0.997402
0.997402
0.997402
0.997402
0.997402
0.997402
0.997402
0.997402
0.997402
0.997402
0.997402
0.997402
0.997402
0.997402
0.997402
0.997402
0.997402
0.997402
0.997402
0.997402
0.997402
0.997402
0.997402
0.997402
0.997402
0.997402
0.997402
0.997402
0.997402
0.997402
0.997402
0.997402
0.997401
0.997401
0.997401
0.997401
0.997401
0.997401
0.997401
0.997401
0.997401
0.997401
0.997401
0.997401
0.997401
0.997401
0.997401
0.997401
0.997401
0.997401
0.997401
0.997401
0.997401
0.997401
0.997401
0.997401
0.997401
0.997401
0.997401
0.997401
0.9974
0.9974
0.9974
0.9974
0.9974
0.9974
0.9974
0.9974
0.9974
0.9974
0.9974
0.9974
0.9974
0.9974
0.9974
0.9974
0.9974
0.9974
0.9974
0.9974
0.997399
0.997399
0.997399
0.997399
0.997399
0.997399
0.997399
0.997399
0.997399
0.997399
0.997399
0.997399
0.997399
0.997399
0.997399
0.997398
0.997398
0.997398
0.997398
0.997398
0.997398
0.997398
0.997398
0.997398
0.997398
0.997398
0.997398
0.997398
0.997398
0.997397
0.997397
0.997397
0.997397
0.997397
0.997397
0.997397
0.997397
0.997397
0.997397
0.997397
0.997397
0.997397
0.997396
0.997396
0.997396
0.997396
0.997396
0.997396
0.997396
0.997396
0.997396
0.997396
0.997396
0.997395
0.997395
0.997395
0.997395
0.997395
0.997395
0.997395
0.997395
0.997395
0.997395
0.997394
0.997394
0.997394
0.997394
0.997394
0.997394
0.997394
0.997394
0.997394
0.997394
0.997393
0.997393
0.997393
0.997393
0.997393
0.997393
0.997393
0.997393
0.997393
0.997392
0.997392
0.997392
0.997392
0.997392
0.997392
0.997392
0.997392
0.997391
0.997391
0.997391
0.997391
0.997391
0.997391
0.997391
0.997391
0.99739
0.99739
0.99739
0.99739
0.99739
0.99739
0.99739
0.997389
0.997389
0.997389
0.997389
0.997389
0.997389
0.997389
0.997389
0.997388
0.997388
0.997388
0.997388
0.997388
0.997388
0.997388
0.997387
0.997387
0.997387
0.997387
0.997387
0.997387
0.997387
0.997387
0.997386
0.997386
0.997386
0.997386
0.997386
0.997386
0.997385
0.997385
0.997385
0.997385
0.997385
0.997385
0.997384
0.997384
0.997384
0.997384
0.997384
0.997384
0.997384
0.997383
0.997383
0.997383
0.997383
0.997383
0.997383
0.997382
0.997382
0.997382
0.997382
0.997382
0.997382
0.997381
0.997381
0.997381
0.997381
0.997381
0.997381
0.99738
0.99738
0.99738
0.99738
0.99738
0.997379
0.997379
0.997379
0.997379
0.997379
0.997379
0.997379
0.997378
0.997378
0.997378
0.997378
0.997378
0.997377
0.997377
0.997377
0.997377
0.997377
0.997377
0.997376
0.997376
0.997376
0.997376
0.997376
0.997375
0.997375
0.997375
0.997375
0.997375
0.997374
0.997374
0.997374
0.997374
0.997374
0.997373
0.997373
0.997373
0.997373
0.997373
0.997372
0.997372
0.997372
0.997372
0.997372
0.997371
0.997371
0.997371
0.997371
0.997371
0.99737
0.99737
0.99737
0.99737
0.99737
0.997369
0.997369
0.997369
0.997369
0.997368
0.997368
0.997368
0.997368
0.997368
0.997367
0.997367
0.997367
0.997367
0.997367
0.997366
0.997366
0.997366
0.997365
0.997365
0.997365
0.997365
0.997365
0.997364
0.997364
0.997364
0.997364
0.997363
0.997363
0.997363
0.997363
0.997363
0.997362
0.997362
0.997362
0.997362
0.997361
0.997361
0.997361
0.997361
0.997361
0.99736
0.99736
0.99736
0.99736
0.997359
0.997359
0.997359
0.997358
0.997358
0.997358
0.997358
0.997357
0.997357
0.997357
0.997357
0.997357
0.997356
0.997356
0.997356
0.997356
0.997355
0.997355
0.997355
0.997355
0.997354
0.997354
0.997354
0.997353
0.997353
0.997353
0.997353
0.997352
0.997352
0.997352
0.997352
0.997351
0.997351
0.997351
0.997351
0.99735
0.99735
0.99735
0.997349
0.997349
0.997349
0.997349
0.997348
0.997348
0.997348
0.997348
0.997347
0.997347
0.997347
0.997347
0.997346
0.997346
0.997346
0.997345
0.997345
0.997345
0.997345
0.997344
0.997344
0.997344
0.997344
0.997343
0.997343
0.997342
0.997342
0.997342
0.997342
0.997341
0.997341
0.997341
0.997341
0.99734
0.99734
0.99734
0.99734
0.997339
0.997339
0.997338
0.997338
0.997338
0.997338
0.997337
0.997337
0.997337
0.997337
0.997336
0.997336
0.997335
0.997335
0.997335
0.997335
0.997334
0.997334
0.997334
0.997334
0.997333
0.997333
0.997332
0.997332
0.997332
0.997332
0.997331
0.997331
0.99733
0.99733
0.99733
0.99733
0.997329
0.997329
0.997329
0.997328
0.997328
0.997328
0.997327
0.997327
0.997327
0.997326
0.997326
0.997326
0.997326
0.997325
0.997325
0.997324
0.997324
0.997324
0.997324
0.997323
0.997323
0.997322
0.997322
0.997322
0.997322
0.997321
0.997321
0.997321
0.99732
0.99732
0.997319
0.997319
0.997319
0.997319
0.997318
0.997318
0.997317
0.997317
0.997317
0.997316
0.997316
0.997316
0.997316
0.997315
0.997315
0.997314
0.997314
0.997314
0.997313
0.997313
0.997313
0.997312
0.997312
0.997312
0.997311
0.997311
0.99731
0.99731
0.99731
0.997309
0.997309
0.997309
0.997309
0.997308
0.997308
0.997307
0.997307
0.997307
0.997306
0.997306
0.997305
0.997305
0.997305
0.997304
0.997304
0.997304
0.997303
0.997303
0.997303
0.997302
0.997302
0.997301
0.997301
0.997301
0.9973
0.9973
0.997299
0.997299
0.997299
0.997298
0.997298
0.997297
0.997297
0.997297
0.997296
0.997296
0.997296
0.997296
0.997295
0.997295
0.997294
0.997294
0.997294
0.997293
0.997293
0.997292
0.997292
0.997292
0.997291
0.997291
0.99729
0.99729
0.99729
0.997289
0.997289
0.997288
0.997288
0.997288
0.997287
0.997287
0.997286
0.997286
0.997286
0.997285
0.997285
0.997284
0.997284
0.997284
0.997283
0.997283
0.997282
0.997282
0.997282
0.997281
0.997281
0.99728
0.99728
0.99728
0.997279
0.997279
0.997278
0.997277
0.997277
0.997277
0.997276
0.997276
0.997275
0.997275
0.997275
0.997274
0.997274
0.997273
0.997273
0.997273
0.997272
0.997272
0.997271
0.997271
0.997271
0.99727
0.997269
0.997269
0.997269
0.997268
0.997268
0.997267
0.997267
0.997267
0.997266
0.997266
0.997265
0.997265
0.997265
0.997264
0.997263
0.997263
0.997262
0.997262
0.997262
0.997261
0.997261
0.99726
0.99726
0.99726
0.997259
0.997259
0.997258
0.997258
0.997257
0.997257
0.997256
0.997256
0.997256
0.997255
0.997255
0.997254
0.997254
0.997254
0.997253
0.997252
0.997252
0.997251
0.997251
0.997251
0.99725
0.99725
0.997249
0.997249
0.997248
0.997248
0.997247
0.997247
0.997247
0.997246
0.997246
0.997245
0.997244
0.997244
0.997244
0.997243
0.997243
0.997242
0.997242
0.997241
0.997241
0.99724
0.99724
0.99724
0.997239
0.997238
0.997238
0.997237
0.997237
0.997237
0.997236
0.997235
0.997235
0.997235
0.997234
0.997234
0.997233
0.997232
0.997232
0.997232
0.997231
0.997231
0.99723
0.99723
0.997229
0.997229
0.997228
0.997228
0.997228
0.997227
0.997226
0.997226
0.997225
0.997225
0.997224
0.997224
0.997223
0.997223
0.997223
0.997222
0.997221
0.997221
0.99722
0.99722
0.997219
0.997219
0.997218
0.997218
0.997218
0.997217
0.997216
0.997216
0.997215
0.997215
0.997214
0.997214
0.997213
0.997212
0.997212
0.997212
0.997211
0.997211
0.99721
0.99721
0.997209
0.997209
0.997208
0.997207
0.997207
0.997207
0.997206
0.997205
0.997205
0.997205
0.997204
0.997203
0.997203
0.997202
0.997202
0.997201
0.997201
0.9972
0.997199
0.997199
0.997199
0.997198
0.997197
0.997197
0.997197
0.997196
0.997195
0.997195
0.997194
0.997194
0.997193
0.997193
0.997192
0.997191
0.997191
0.997191
0.99719
0.997189
0.997189
0.997189
0.997188
0.997187
0.997187
0.997186
0.997186
0.997185
0.997185
0.997184
0.997183
0.997183
0.997182
0.997182
0.997181
0.99718
0.99718
0.99718
0.997179
0.997178
0.997178
0.997178
0.997177
0.997176
0.997175
0.997175
0.997175
0.997174
0.997173
0.997173
0.997172
0.997172
0.997171
0.997171
0.99717
0.997169
0.997169
0.997168
0.997168
0.997167
0.997166
0.997166
0.997166
0.997165
0.997164
0.997163
0.997163
0.997163
0.997162
0.997161
0.99716
0.99716
0.99716
0.997159
0.997158
0.997158
0.997158
0.997157
0.997156
0.997155
0.997155
0.997155
0.997154
0.997153
0.997152
0.997152
0.997152
0.997151
0.99715
0.997149
0.997149
0.997149
0.997148
0.997147
0.997147
0.997146
0.997146
0.997145
0.997144
0.997144
0.997143
0.997143
0.997142
0.997141
0.997141
0.99714
0.99714
0.997139
0.997138
0.997137
0.997137
0.997137
0.997136
0.997135
0.997134
0.997134
0.997134
0.997133
0.997132
0.997131
0.997131
0.997131
0.99713
0.997129
0.997128
0.997128
0.997128
0.997127
0.997126
0.997125
0.997124
0.997124
0.997124
0.997123
0.997122
0.997121
0.997121
0.997121
0.99712
0.997119
0.997118
0.997118
0.997117
0.997117
0.997116
0.997115
0.997115
0.997114
0.997113
0.997113
0.997112
0.997112
0.997111
0.99711
0.997109
0.997109
0.997109
0.997108
0.997107
0.997106
0.997105
0.997105
0.997105
0.997104
0.997103
0.997102
0.997102
0.997101
0.997101
0.9971
0.997099
0.997099
0.997098
0.997097
0.997097
0.997096
0.997096
0.997095
0.997094
0.997093
0.997092
0.997092
0.997092
0.997091
0.99709
0.997089
0.997089
0.997088
0.997087
0.997087
0.997086
0.997086
0.997085
0.997084
0.997083
0.997083
0.997083
0.997082
0.997081
0.99708
0.997079
0.997079
0.997078
0.997077
0.997077
0.997076
0.997076
0.997075
0.997074
0.997073
0.997072
0.997072
0.997072
0.997071
0.99707
0.997069
0.997069
0.997068
0.997067
0.997066
0.997066
0.997066
0.997065
0.997064
0.997063
0.997062
0.997062
0.997061
0.99706
0.99706
0.997059
0.997059
0.997058
0.997057
0.997056
0.997055
0.997055
0.997054
0.997054
0.997053
0.997052
0.997052
0.997051
0.99705
0.997049
0.997048
0.997048
0.997047
0.997047
0.997046
0.997045
0.997045
0.997044
0.997043
0.997042
0.997041
0.997041
0.99704
0.997039
0.997039
0.997038
0.997038
0.997037
0.997036
0.997035
0.997034
0.997034
0.997033
0.997032
0.997031
0.99703
0.99703
0.99703
0.997029
0.997028
0.997027
0.997027
0.997026
0.997025
0.997024
0.997023
0.997023
0.997022
0.997021
0.997021
0.99702
0.99702
0.997019
0.997018
0.997017
0.997016
0.997016
0.997015
0.997014
0.997013
0.997012
0.997012
0.997011
0.99701
0.99701
0.997009
0.997009
0.997008
0.997007
0.997006
0.997005
0.997005
0.997004
0.997003
0.997002
0.997001
0.997001
0.997
0.996999
0.996998
0.996997
0.996997
0.996996
0.996996
0.996995
0.996994
0.996994
0.996993
0.996992
0.996991
0.99699
0.99699
0.996989
0.996988
0.996987
0.996986
0.996986
0.996985
0.996984
0.996983
0.996982
0.996982
0.996981
0.99698
0.996979
0.996978
0.996978
0.996977
0.996976
0.996976
0.996975
0.996975
0.996974
0.996973
0.996972
0.996971
0.996971
0.99697
0.996969
0.996968
0.996967
0.996967
0.996966
0.996965
0.996964
0.996963
0.996963
0.996962
0.996961
0.99696
0.996959
0.996959
0.996958
0.996957
0.996956
0.996955
0.996955
0.996954
0.996953
0.996952
0.996951
0.996951
0.99695
0.996949
0.996948
0.996947
0.996947
0.996946
0.996945
0.996944
0.996943
0.996943
0.996942
0.996941
0.99694
0.996939
0.996939
0.996938
0.996937
0.996936
0.996935
0.996935
0.996934
0.996933
0.996932
0.996931
0.996931
0.99693
0.996929
0.996928
0.996927
0.996927
0.996926
0.996925
0.996924
0.996923
0.996923
0.996922
0.996921
0.99692
0.996919
0.996919
0.996918
0.996917
0.996916
0.996915
0.996915
0.996914
0.996913
0.996912
0.996911
0.996911
0.99691
0.996908
0.996907
0.996906
0.996906
0.996905
0.996904
0.996903
0.996902
0.996902
0.996901
0.9969
0.996899
0.996898
0.996898
0.996897
0.996896
0.996895
0.996894
0.996894
0.996893
0.996892
0.996891
0.99689
0.99689
0.996889
0.996888
0.996886
0.996885
0.996885
0.996884
0.996883
0.996882
0.996881
0.996881
0.99688
0.996879
0.996878
0.996877
0.996877
0.996876
0.996875
0.996874
0.996873
0.996873
0.996872
0.99687
0.996869
0.996868
0.996868
0.996867
0.996866
0.996865
0.996864
0.996864
0.996863
0.996862
0.996861
0.99686
0.99686
0.996859
0.996857
0.996856
0.996855
0.996855
0.996854
0.996853
0.996852
0.996851
0.996851
0.99685
0.996849
0.996848
0.996846
0.996846
0.996845
0.996844
0.996843
0.996842
0.996842
0.996841
0.99684
0.996839
0.996838
0.996838
0.996837
0.996835
0.996834
0.996833
0.996833
0.996832
0.996831
0.99683
0.996829
0.996829
0.996828
0.996827
0.996825
0.996824
0.996824
0.996823
0.996822
0.996821
0.99682
0.99682
0.996819
0.996818
0.996816
0.996815
0.996815
0.996814
0.996813
0.996812
0.996811
0.996811
0.99681
0.996808
0.996807
0.996806
0.996806
0.996805
0.996804
0.996803
0.996802
0.996802
0.9968
0.996799
0.996798
0.996797
0.996797
0.996796
0.996795
0.996794
0.996792
0.996792
0.996791
0.99679
0.996789
0.996788
0.996788
0.996787
0.996785
0.996784
0.996783
0.996783
0.996782
0.996781
0.99678
0.996778
0.996778
0.996777
0.996776
0.996775
0.996774
0.996774
0.996773
0.996771
0.99677
0.996769
0.996769
0.996768
0.996767
0.996766
0.996764
0.996764
0.996763
0.996762
0.996761
0.99676
0.99676
0.996758
0.996757
0.996756
0.996755
0.996755
0.996754
0.996753
0.996751
0.99675
0.99675
0.996749
0.996748
0.996747
0.996745
0.996745
0.996744
0.996743
0.996742
0.996741
0.996741
0.996739
0.996738
0.996737
0.996736
0.996736
0.996734
0.996733
0.996732
0.996731
0.996731
0.99673
0.996728
0.996727
0.996726
0.996726
0.996725
0.996723
0.996722
0.996721
0.996721
0.99672
0.996718
0.996717
0.996716
0.996716
0.996715
0.996714
0.996712
0.996711
0.996711
0.99671
0.996709
0.996707
0.996706
0.996706
0.996705
0.996704
0.996702
0.996701
0.996701
0.9967
0.996699
0.996697
0.996696
0.996696
0.996695
0.996694
0.996692
0.996691
0.996691
0.99669
0.996689
0.996687
0.996686
0.996686
0.996685
0.996684
0.996682
0.996681
0.996681
0.99668
0.996679
0.996678
0.996676
0.996676
0.996675
0.996674
0.996672
0.996671
0.996671
0.99667
0.996669
0.996667
0.996666
0.996666
0.996665
0.996664
0.996662
0.996661
0.996661
0.99666
0.996659
0.996657
0.996656
0.996656
0.996655
0.996654
0.996652
0.996651
0.996651
0.99665
0.996648
0.996647
0.996646
0.996646
0.996645
0.996643
0.996642
0.996641
0.996641
0.996639
0.996638
0.996637
0.996636
0.996636
0.996634
0.996633
0.996632
0.99663
0.99663
0.996629
0.996628
0.996626
0.996625
0.996625
0.996624
0.996622
0.996621
0.99662
0.99662
0.996619
0.996617
0.996616
0.996615
0.996615
0.996613
0.996612
0.996611
0.996609
0.996609
0.996608
0.996607
0.996605
0.996604
0.996604
0.996603
0.996601
0.9966
0.996599
0.996599
0.996597
0.996596
0.996595
0.996593
0.996593
0.996592
0.996591
0.996589
0.996588
0.996588
0.996587
0.996585
0.996584
0.996583
0.996583
0.996581
0.99658
0.996579
0.996577
0.996577
0.996576
0.996575
0.996573
0.996572
0.996572
0.996571
0.996569
0.996568
0.996567
0.996567
0.996565
0.996564
0.996562
0.996561
0.996561
0.99656
0.996558
0.996557
0.996556
0.996556
0.996554
0.996553
0.996552
0.99655
0.99655
0.996549
0.996547
0.996546
0.996545
0.996545
0.996543
0.996542
0.996541
0.996539
0.996539
0.996538
0.996536
0.996535
0.996534
0.996534
0.996532
0.996531
0.996529
0.996528
0.996528
0.996527
0.996525
0.996524
0.996523
0.996523
0.996521
0.99652
0.996518
0.996517
0.996517
0.996516
0.996514
0.996513
0.996511
0.996511
0.99651
0.996509
0.996507
0.996506
0.996506
0.996504
0.996503
0.996502
0.9965
0.9965
0.996499
0.996497
0.996496
0.996494
0.996494
0.996493
0.996492
0.99649
0.996489
0.996489
0.996487
0.996486
0.996485
0.996483
0.996483
0.996482
0.99648
0.996479
0.996477
0.996477
0.996476
0.996475
0.996473
0.996472
0.996472
0.99647
0.996469
0.996467
0.996466
0.996466
0.996465
0.996463
0.996462
0.99646
0.99646
0.996459
0.996457
0.996456
0.996454
0.996454
0.996453
0.996452
0.99645
0.996449
0.996449
0.996447
0.996446
0.996444
0.996443
0.996443
0.996441
0.99644
0.996438
0.996437
0.996437
0.996436
0.996434
0.996433
0.996431
0.996431
0.99643
0.996428
0.996427
0.996425
0.996425
0.996424
0.996422
0.996421
0.996419
0.996419
0.996418
0.996417
0.996415
0.996414
0.996414
0.996412
0.996411
0.996409
0.996408
0.996408
0.996406
0.996405
0.996403
0.996402
0.996402
0.9964
0.996399
0.996397
0.996396
0.996396
0.996394
0.996393
0.996391
0.99639
0.99639
0.996388
0.996387
0.996385
0.996384
0.996384
0.996382
0.996381
0.996379
0.996378
0.996378
0.996376
0.996375
0.996373
0.996372
0.996372
0.99637
0.996369
0.996367
0.996366
0.996366
0.996364
0.996363
0.996361
0.99636
0.99636
0.996358
0.996357
0.996355
0.996354
0.996354
0.996352
0.996351
0.996349
0.996348
0.996348
0.996346
0.996344
0.996343
0.996341
0.996341
0.99634
0.996338
0.996337
0.996335
0.996335
0.996334
0.996332
0.996331
0.996329
0.996329
0.996328
0.996326
0.996325
0.996323
0.996323
0.996321
0.99632
0.996318
0.996317
0.996317
0.996315
0.996314
0.996312
0.996311
0.996311
0.996309
0.996308
0.996306
0.996304
0.996304
0.996303
0.996301
0.9963
0.996298
0.996298
0.996297
0.996295
0.996294
0.996292
0.996292
0.99629
0.996289
0.996287
0.996286
0.996286
0.996284
0.996283
0.996281
0.996279
0.996279
0.996278
0.996276
0.996275
0.996273
0.996273
0.996272
0.99627
0.996268
0.996267
0.996267
0.996265
0.996264
0.996262
0.99626
0.99626
0.996259
0.996257
0.996256
0.996254
0.996254
0.996252
0.996251
0.996249
0.996248
0.996248
0.996246
0.996245
0.996243
0.996241
0.996241
0.99624
0.996238
0.996237
0.996235
0.996235
0.996233
0.996232
0.99623
0.996228
0.996228
0.996227
0.996225
0.996224
0.996222
0.996222
0.99622
0.996219
0.996217
0.996216
0.996216
0.996214
0.996212
0.996211
0.996209
0.996209
0.996207
0.996206
0.996204
0.996203
0.996203
0.996201
0.996199
0.996198
0.996196
0.996196
0.996194
0.996193
0.996191
0.996189
0.996189
0.996188
0.996186
0.996184
0.996183
0.996183
0.996181
0.99618
0.996178
0.996176
0.996176
0.996175
0.996173
0.996171
0.99617
0.99617
0.996168
0.996166
0.996165
0.996163
0.996163
0.996161
0.99616
0.996158
0.996156
0.996156
0.996155
0.996153
0.996151
0.99615
0.99615
0.996148
0.996146
0.996144
0.996143
0.996143
0.996141
0.996139
0.996138
0.996136
0.996136
0.996134
0.996133
0.996131
0.996129
0.996129
0.996128
0.996126
0.996124
0.996123
0.996123
0.996121
0.996119
0.996118
0.996116
0.996116
0.996114
0.996112
0.996111
0.996109
0.996109
0.996107
0.996106
0.996104
0.996102
0.996102
0.996101
0.996099
0.996097
0.996096
0.996096
0.996094
0.996092
0.996091
0.996089
0.996089
0.996087
0.996086
0.996084
0.996082
0.996082
0.99608
0.996079
0.996077
0.996075
0.996075
0.996074
0.996072
0.99607
0.996069
0.996069
0.996067
0.996065
0.996063
0.996062
0.996062
0.99606
0.996058
0.996056
0.996055
0.996055
0.996053
0.996051
0.99605
0.996048
0.996048
0.996046
0.996044
0.996043
0.996041
0.996041
0.996039
0.996037
0.996036
0.996034
0.996034
0.996032
0.99603
0.996029
0.996027
0.996027
0.996025
0.996023
0.996022
0.99602
0.99602
0.996018
0.996016
0.996015
0.996013
0.996013
0.996011
0.996009
0.996008
0.996006
0.996006
0.996004
0.996002
0.996001
0.995999
0.995999
0.995997
0.995995
0.995994
0.995992
0.995992
0.99599
0.995988
0.995986
0.995985
0.995985
0.995983
0.995981
0.995979
0.995978
0.995978
0.995976
0.995974
0.995972
0.99597
0.99597
0.995969
0.995967
0.995965
0.995963
0.995963
0.995961
0.99596
0.995958
0.995956
0.995956
0.995954
0.995953
0.995951
0.995949
0.995949
0.995947
0.995945
0.995944
0.995942
0.995942
0.99594
0.995938
0.995936
0.995935
0.995935
0.995933
0.995931
0.995929
0.995927
0.995927
0.995925
0.995924
0.995922
0.99592
0.99592
0.995918
0.995916
0.995915
0.995913
0.995913
0.995911
0.995909
0.995907
0.995905
0.995905
0.995904
0.995902
0.9959
0.995898
0.995898
0.995896
0.995894
0.995893
0.995891
0.995891
0.995889
0.995887
0.995885
0.995883
0.995883
0.995882
0.99588
0.995878
0.995876
0.995876
0.995874
0.995872
0.995871
0.995869
0.995869
0.995867
0.995865
0.995863
0.995861
0.995861
0.995859
0.995858
0.995856
0.995854
0.995854
0.995852
0.99585
0.995848
0.995846
0.995846
0.995845
0.995843
0.995841
0.995839
0.995839
0.995837
0.995835
0.995833
0.995832
0.995832
0.99583
0.995828
0.995826
0.995824
0.995824
0.995822
0.99582
0.995818
0.995817
0.995817
0.995815
0.995813
0.995811
0.995809
0.995809
0.995807
0.995805
0.995803
0.995801
0.995801
0.9958
0.995798
0.995796
0.995794
0.995794
0.995792
0.99579
0.995788
0.995786
0.995786
0.995784
0.995782
0.995781
0.995779
0.995779
0.995777
0.995775
0.995773
0.995771
0.995771
0.995769
0.995767
0.995765
0.995763
0.995763
0.995762
0.99576
0.995758
0.995756
0.995756
0.995754
0.995752
0.99575
0.995748
0.995748
0.995746
0.995744
0.995742
0.99574
0.99574
0.995739
0.995737
0.995735
0.995733
0.995733
0.995731
0.995729
0.995727
0.995725
0.995725
0.995723
0.995721
0.995719
0.995717
0.995717
0.995715
0.995713
0.995711
0.995709
0.995709
0.995708
0.995706
0.995704
0.995702
0.995702
0.9957
0.995698
0.995696
0.995694
0.995694
0.995692
0.99569
0.995688
0.995686
0.995686
0.995684
0.995682
0.99568
0.995678
0.995678
0.995676
0.995674
0.995672
0.99567
0.99567
0.995668
0.995666
0.995664
0.995663
0.995663
0.995661
0.995659
0.995657
0.995655
0.995655
0.995653
0.995651
0.995649
0.995647
0.995647
0.995645
0.995643
0.995641
0.995639
0.995639
0.995637
0.995635
0.995633
0.995631
0.995631
0.995629
0.995627
0.995625
0.995623
0.995623
0.995621
0.995619
0.995617
0.995615
0.995615
0.995613
0.995611
0.995609
0.995607
0.995607
0.995605
0.995603
0.995601
0.995599
0.995599
0.995597
0.995595
0.995593
0.99559
0.99559
0.995588
0.995586
0.995584
0.995582
0.995582
0.99558
0.995578
0.995576
0.995574
0.995574
0.995572
0.99557
0.995568
0.995566
0.995566
0.995564
0.995562
0.99556
0.995558
0.995558
0.995556
0.995554
0.995552
0.99555
0.99555
0.995548
0.995546
0.995544
0.995542
0.995542
0.995539
0.995537
0.995535
0.995533
0.995533
0.995531
0.995529
0.995527
0.995525
0.995525
0.995523
0.995521
0.995519
0.995517
0.995517
0.995515
0.995513
0.995511
0.995509
0.995509
0.995507
0.995505
0.995503
0.995501
0.995501
0.995499
0.995497
0.995495
0.995493
0.995493
0.995491
0.995488
0.995486
0.995484
0.995484
0.995482
0.99548
0.995478
0.995476
0.995476
0.995474
0.995472
0.99547
0.995468
0.995468
0.995466
0.995464
0.995462
0.995459
0.995459
0.995457
0.995455
0.995453
0.995451
0.995451
0.995449
0.995447
0.995445
0.995443
0.995443
0.995441
0.995439
0.995436
0.995434
0.995434
0.995432
0.99543
0.995428
0.995426
0.995426
0.995424
0.995422
0.99542
0.995418
0.995418
0.995415
0.995413
0.995411
0.995409
0.995409
0.995407
0.995405
0.995403
0.995401
0.995401
0.995398
0.995396
0.995394
0.995392
0.995392
0.99539
0.995388
0.995386
0.995384
0.995384
0.995381
0.995379
0.995377
0.995375
0.995375
0.995373
0.995371
0.995369
0.995366
0.995366
0.995364
0.995362
0.99536
0.995358
0.995358
0.995356
0.995354
0.995351
0.995349
0.995349
0.995347
0.995345
0.995343
0.995341
0.995341
0.995339
0.995336
0.995334
0.995332
0.995332
0.99533
0.995328
0.995326
0.995323
0.995323
0.995321
0.995319
0.995317
0.995315
0.995315
0.995313
0.99531
0.995308
0.995306
0.995306
0.995304
0.995302
0.9953
0.995297
0.995297
0.995295
0.995293
0.995291
0.995289
0.995289
0.995287
0.995284
0.995282
0.99528
0.99528
0.995278
0.995276
0.995273
0.995271
0.995271
0.995269
0.995267
0.995265
0.995262
0.995262
0.99526
0.995258
0.995256
0.995254
0.995254
0.995251
0.995249
0.995247
0.995245
0.995245
0.995243
0.99524
0.995238
0.995236
0.995236
0.995234
0.995232
0.995229
0.995227
0.995227
0.995225
0.995223
0.995221
0.995218
0.995218
0.995216
0.995214
0.995212
0.995209
0.995209
0.995207
0.995205
0.995203
0.995201
0.995201
0.995198
0.995196
0.995194
0.995192
0.995192
0.995189
0.995187
0.995185
0.995183
0.995183
0.99518
0.995178
0.995176
0.995174
0.995174
0.995171
0.995169
0.995167
0.995165
0.995165
0.995162
0.99516
0.995158
0.995156
0.995156
0.995153
0.995151
0.995149
0.995147
0.995147
0.995144
0.995142
0.99514
0.995138
0.995138
0.995135
0.995133
0.995131
0.995129
0.995129
0.995126
0.995124
0.995122
0.99512
0.99512
0.995117
0.995115
0.995113
0.99511
0.99511
0.995108
0.995106
0.995104
0.995101
0.995101
0.995099
0.995097
0.995095
0.995092
0.995092
0.99509
0.995088
0.995085
0.995083
0.995083
0.995081
0.995078
0.995076
0.995074
0.995074
0.995072
0.995069
0.995067
0.995065
0.995065
0.995062
0.99506
0.995058
0.995055
0.995055
0.995053
0.995051
0.995048
0.995046
0.995046
0.995044
0.995042
0.995039
0.995037
0.995037
0.995035
0.995032
0.99503
0.995028
0.995028
0.995025
0.995023
0.995021
0.995018
0.995018
0.995016
0.995013
0.995011
0.995009
0.995009
0.995006
0.995004
0.995002
0.994999
0.994999
0.994997
0.994995
0.994992
0.99499
0.99499
0.994988
0.994985
0.994983
0.994981
0.994981
0.994978
0.994976
0.994973
0.994971
0.994971
0.994969
0.994966
0.994964
0.994962
0.994962
0.994959
0.994957
0.994955
0.994952
0.994952
0.99495
0.994948
0.994945
0.994943
0.994943
0.994941
0.994938
0.994936
0.994934
0.994934
0.994931
0.994929
0.994927
0.994924
0.994924
0.994922
0.99492
0.994917
0.994915
0.994915
0.994913
0.99491
0.994908
0.994906
0.994906
0.994903
0.994901
0.994898
0.994896
0.994896
0.994894
0.994891
0.994889
0.994887
0.994887
0.994884
0.994882
0.994879
0.994877
0.994877
0.994875
0.994872
0.99487
0.994867
0.994867
0.994865
0.994863
0.99486
0.994858
0.994858
0.994855
0.994853
0.994851
0.994848
0.994848
0.994846
0.994843
0.994841
0.994839
0.994839
0.994836
0.994834
0.994831
0.994829
0.994829
0.994827
0.994824
0.994822
0.994819
0.994819
0.994817
0.994814
0.994812
0.99481
0.99481
0.994807
0.994805
0.994802
0.9948
0.9948
0.994797
0.994795
0.994793
0.99479
0.99479
0.994788
0.994785
0.994783
0.99478
0.99478
0.994778
0.994775
0.994773
0.994771
0.994771
0.994768
0.994766
0.994763
0.994761
0.994761
0.994758
0.994756
0.994753
0.994751
0.994751
0.994748
0.994746
0.994744
0.994741
0.994741
0.994739
0.994736
0.994734
0.994731
0.994731
0.994729
0.994726
0.994724
0.994721
0.994721
0.994719
0.994716
0.994714
0.994712
0.994712
0.994709
0.994707
0.994704
0.994702
0.994702
0.994699
0.994697
0.994694
0.994692
0.994692
0.994689
0.994687
0.994684
0.994682
0.994682
0.994679
0.994677
0.994674
0.994672
0.994672
0.994669
0.994667
0.994664
0.994662
0.994662
0.994659
0.994657
0.994654
0.994652
0.994652
0.994649
0.994647
0.994644
0.994642
0.994642
0.994639
0.994637
0.994634
0.994632
0.994632
0.994629
0.994627
0.994624
0.994622
0.994622
0.994619
0.994617
0.994614
0.994612
0.994612
0.994609
0.994607
0.994604
0.994601
0.994601
0.994599
0.994596
0.994594
0.994591
0.994591
0.994589
0.994586
0.994584
0.994581
0.994581
0.994579
0.994576
0.994574
0.994571
0.994571
0.994569
0.994566
0.994563
0.994561
0.994561
0.994558
0.994556
0.994553
0.994551
0.994551
0.994548
0.994546
0.994543
0.99454
0.99454
0.994538
0.994535
0.994533
0.99453
0.99453
0.994528
0.994525
0.994523
0.99452
0.99452
0.994517
0.994515
0.994512
0.99451
0.99451
0.994507
0.994505
0.994502
0.994499
0.994499
0.994497
0.994494
0.994492
0.994489
0.994489
0.994486
0.994484
0.994481
0.994479
0.994479
0.994476
0.994473
0.994471
0.994468
0.994468
0.994466
0.994463
0.99446
0.994458
0.994458
0.994455
0.994453
0.99445
0.994447
0.994447
0.994445
0.994442
0.994439
0.994437
0.994437
0.994434
0.994432
0.994429
0.994426
0.994426
0.994424
0.994421
0.994418
0.994416
0.994416
0.994413
0.99441
0.994408
0.994405
0.994405
0.994403
0.9944
0.994397
0.994395
0.994395
0.994392
0.994389
0.994387
0.994384
0.994384
0.994382
0.994379
0.994376
0.994374
0.994374
0.994371
0.994369
0.994366
0.994363
0.994363
0.994361
0.994358
0.994356
0.994353
0.994353
0.99435
0.994348
0.994345
0.994342
0.994342
0.99434
0.994337
0.994335
0.994332
0.994332
0.994329
0.994327
0.994324
0.994321
0.994321
0.994319
0.994316
0.994313
0.994311
0.994311
0.994308
0.994305
0.994303
0.9943
0.9943
0.994297
0.994295
0.994292
0.994289
0.994289
0.994287
0.994284
0.994281
0.994279
0.994279
0.994276
0.994273
0.994271
0.994268
0.994268
0.994265
0.994263
0.99426
0.994257
0.994257
0.994255
0.994252
0.994249
0.994247
0.994247
0.994244
0.994241
0.994239
0.994236
0.994236
0.994233
0.99423
0.994228
0.994225
0.994225
0.994222
0.99422
0.994217
0.994214
0.994214
0.994212
0.994209
0.994206
0.994203
0.994203
0.994201
0.994198
0.994195
0.994193
0.994193
0.99419
0.994187
0.994184
0.994182
0.994182
0.994179
0.994176
0.994174
0.994171
0.994171
0.994168
0.994165
0.994163
0.99416
0.99416
0.994157
0.994154
0.994152
0.994149
0.994149
0.994146
0.994143
0.994141
0.994138
0.994138
0.994135
0.994133
0.99413
0.994127
0.994127
0.994124
0.994122
0.994119
0.994116
0.994116
0.994113
0.994111
0.994108
0.994105
0.994105
0.994102
0.9941
0.994097
0.994094
0.994094
0.994091
0.994088
0.994086
0.994083
0.994083
0.99408
0.994077
0.994075
0.994072
0.994072
0.994069
0.994066
0.994064
0.994061
0.994061
0.994058
0.994055
0.994052
0.99405
0.99405
0.994047
0.994044
0.994041
0.994039
0.994039
0.994036
0.994033
0.99403
0.994027
0.994027
0.994025
0.994022
0.994019
0.994016
0.994016
0.994013
0.994011
0.994008
0.994005
0.994005
0.994002
0.993999
0.993997
0.993994
0.993994
0.993991
0.993988
0.993985
0.993983
0.993983
0.99398
0.993977
0.993974
0.993971
0.993971
0.993969
0.993966
0.993963
0.99396
0.99396
0.993957
0.993954
0.993952
0.993949
0.993949
0.993946
0.993943
0.99394
0.993937
0.993937
0.993935
0.993932
0.993929
0.993926
0.993926
0.993923
0.99392
0.993918
0.993915
0.993915
0.993912
0.993909
0.993906
0.993903
0.993903
0.9939
0.993897
0.993895
0.993892
0.993892
0.993889
0.993886
0.993883
0.99388
0.99388
0.993877
0.993874
0.993872
0.993869
0.993869
0.993866
0.993863
0.99386
0.993857
0.993857
0.993854
0.993851
0.993849
0.993846
0.993846
0.993843
0.99384
0.993837
0.993834
0.993834
0.993831
0.993828
0.993825
0.993823
0.993823
0.99382
0.993817
0.993814
0.993811
0.993811
0.993808
0.993805
0.993803
0.9938
0.9938
0.993797
0.993794
0.993791
0.993788
0.993788
0.993785
0.993782
0.99378
0.993777
0.993777
0.993774
0.993771
0.993768
0.993765
0.993765
0.993762
0.993759
0.993757
0.993754
0.993754
0.993751
0.993748
0.993745
0.993742
0.993742
0.993739
0.993736
0.993733
0.993731
0.993731
0.993728
0.993725
0.993722
0.993719
0.993719
0.993716
0.993713
0.99371
0.993707
0.993707
0.993704
0.993701
0.993699
0.993696
0.993696
0.993693
0.99369
0.993687
0.993684
0.993684
0.993681
0.993678
0.993675
0.993672
0.993672
0.993669
0.993666
0.993663
0.99366
0.99366
0.993657
0.993654
0.993652
0.993649
0.993649
0.993646
0.993643
0.99364
0.993637
0.993637
0.993634
0.993631
0.993628
0.993625
0.993625
0.993622
0.993619
0.993616
0.993613
0.993613
0.99361
0.993607
0.993604
0.993601
0.993601
0.993598
0.993595
0.993592
0.993589
0.993589
0.993586
0.993583
0.99358
0.993577
0.993577
0.993574
0.993571
0.993568
0.993565
0.993565
0.993562
0.993559
0.993556
0.993553
0.993553
0.99355
0.993547
0.993544
0.993541
0.993541
0.993538
0.993535
0.993532
0.993529
0.993529
0.993526
0.993523
0.99352
0.993517
0.993517
0.993514
0.993511
0.993508
0.993505
0.993505
0.993502
0.993499
0.993496
0.993493
0.993493
0.99349
0.993487
0.993484
0.993481
0.993481
0.993478
0.993475
0.993472
0.993469
0.993469
0.993466
0.993463
0.99346
0.993457
0.993457
0.993454
0.993451
0.993448
0.993445
0.993445
0.993442
0.993439
0.993436
0.993433