<?xml version="1.0"?>
<VTKFile type="UnstructuredGrid" version="0.1" byte_order="LittleEndian">
<UnstructuredGrid>
<Piece NumberOfPoints="5000" NumberOfCells="4000">
<PointData Scalars="Reaction 0">
<DataArray type="Float32" Name="Reaction 0" format="ascii">
1.00129
1.00129
1.00129
1.00129
1.00129
1.00129
1.00129
1.00129
1.00129
1.00129
1.00129
1.00129
1.00129
1.00129
1.00129
1.00129
1.00129
1.00129
1.00129
1.00129
1.00129
1.00129
1.00129
1.00129
1.00129
1.00129
1.00129
1.00129
1.00129
1.00129
1.00129
1.00129
1.00129
1.00129
1.00129
1.00129
1.00129
1.00129
1.00129
1.00129
1.00129
1.00129
1.00129
1.00129
1.00129
1.00129
1.00129
1.00129
1.00129
1.00129
1.00129
1.00129
1.00129
1.00129
1.00129
1.00129
1.00129
1.00129
1.00129
1.00129
1.00129
1.00129
1.00129
1.00129
1.00129
1.00129
1.00129
1.00129
1.00129
1.00129
1.00129
1.00129
1.00129
1.00129
1.00129
1.00129
1.00129
1.00129
1.00129
1.00129
1.00129
1.00129
1.00129
1.00129
1.00129
1.00129
1.00129
1.00129
1.00129
1.00129
1.00129
1.00129
1.00129
1.00129
1.00129
1.00129
1.00129
1.00129
1.00129
1.00129
1.00129
1.00129
1.00129
1.00129
1.00129
1.00129
1.00129
1.00129
1.00129
1.00129
1.00129
1.00129
1.00129
1.00129
1.00129
1.00129
1.00129
1.00129
1.00129
1.00129
1.00129
1.00129
1.00129
1.00129
1.00129
1.00129
1.00129
1.00129
1.00129
1.00129
1.00129
1.00129
1.00129
1.00129
1.00129
1.00129
1.00129
1.00129
1.00129
1.00129
1.00129
1.00129
1.00129
1.00129
1.00129
1.00129
1.00129
1.00129
1.00129
1.00128
1.00128
1.00128
1.00128
1.00128
1.00128
1.00128
1.00128
1.00128
1.00128
1.00128
1.00128
1.00128
1.00128
1.00128
1.00128
1.00128
1.00128
1.00128
1.00128
1.00128
1.00128
1.00128
1.00128
1.00128
1.00128
1.00128
1.00128
1.00128
1.00128
1.00128
1.00128
1.00128
1.00128
1.00128
1.00128
1.00128
1.00128
1.00128
1.00128
1.00128
1.00128
1.00128
1.00128
1.00128
1.00128
1.00128
1.00128
1.00128
1.00128
1.00128
1.00128
1.00128
1.00128
1.00128
1.00128
1.00128
1.00128
1.00128
1.00128
1.00128
1.00128
1.00128
1.00128
1.00128
1.00128
1.00128
1.00128
1.00128
1.00128
1.00128
1.00128
1.00128
1.00128
1.00128
1.00128
1.00128
1.00128
1.00128
1.00127
1.00127
1.00127
1.00127
1.00127
1.00127
1.00127
1.00127
1.00127
1.00127
1.00127
1.00127
1.00127
1.00127
1.00127
1.00127
1.00127
1.00127
1.00127
1.00127
1.00127
1.00127
1.00127
1.00127
1.00127
1.00127
1.00127
1.00127
1.00127
1.00127
1.00127
1.00127
1.00127
1.00127
1.00127
1.00127
1.00127
1.00127
1.00127
1.00127
1.00127
1.00127
1.00127
1.00127
1.00127
1.00127
1.00127
1.00127
1.00127
1.00127
1.00127
1.00127
1.00127
1.00127
1.00127
1.00127
1.00127
1.00127
1.00126
1.00126
1.00126
1.00126
1.00126
1.00126
1.00126
1.00126
1.00126
1.00126
1.00126
1.00126
1.00126
1.00126
1.00126
1.00126
1.00126
1.00126
1.00126
1.00126
1.00126
1.00126
1.00126
1.00126
1.00126
1.00126
1.00126
1.00126
1.00126
1.00126
1.00126
1.00126
1.00126
1.00126
1.00126
1.00126
1.00126
1.00126
1.00126
1.00126
1.00126
1.00126
1.00126
1.00126
1.00126
1.00126
1.00126
1.00125
1.00125
1.00125
1.00125
1.00125
1.00125
1.00125
1.00125
1.00125
1.00125
1.00125
1.00125
1.00125
1.00125
1.00125
1.00125
1.00125
1.00125
1.00125
1.00125
1.00125
1.00125
1.00125
1.00125
1.00125
1.00125
1.00125
1.00125
1.00125
1.00125
1.00125
1.00125
1.00125
1.00125
1.00125
1.00125
1.00125
1.00125
1.00125
1.00125
1.00125
1.00124
1.00124
1.00124
1.00124
1.00124
1.00124
1.00124
1.00124
1.00124
1.00124
1.00124
1.00124
1.00124
1.00124
1.00124
1.00124
1.00124
1.00124
1.00124
1.00124
1.00124
1.00124
1.00124
1.00124
1.00124
1.00124
1.00124
1.00124
1.00124
1.00124
1.00124
1.00124
1.00124
1.00124
1.00124
1.00124
1.00124
1.00124
1.00123
1.00123
1.00123
1.00123
1.00123
1.00123
1.00123
1.00123
1.00123
1.00123
1.00123
1.00123
1.00123
1.00123
1.00123
1.00123
1.00123
1.00123
1.00123
1.00123
1.00123
1.00123
1.00123
1.00123
1.00123
1.00123
1.00123
1.00123
1.00123
1.00123
1.00123
1.00123
1.00123
1.00123
1.00123
1.00122
1.00122
1.00122
1.00122
1.00122
1.00122
1.00122
1.00122
1.00122
1.00122
1.00122
1.00122
1.00122
1.00122
1.00122
1.00122
1.00122
1.00122
1.00122
1.00122
1.00122
1.00122
1.00122
1.00122
1.00122
1.00122
1.00122
1.00122
1.00122
1.00122
1.00122
1.00121
1.00121
1.00121
1.00121
1.00121
1.00121
1.00121
1.00121
1.00121
1.00121
1.00121
1.00121
1.00121
1.00121
1.00121
1.00121
1.00121
1.00121
1.00121
1.00121
1.00121
1.00121
1.00121
1.00121
1.00121
1.00121
1.00121
1.00121
1.00121
1.00121
1.0012
1.0012
1.0012
1.0012
1.0012
1.0012
1.0012
1.0012
1.0012
1.0012
1.0012
1.0012
1.0012
1.0012
1.0012
1.0012
1.0012
1.0012
1.0012
1.0012
1.0012
1.0012
1.0012
1.0012
1.0012
1.0012
1.0012
1.0012
1.0012
1.00119
1.00119
1.00119
1.00119
1.00119
1.00119
1.00119
1.00119
1.00119
1.00119
1.00119
1.00119
1.00119
1.00119
1.00119
1.00119
1.00119
1.00119
1.00119
1.00119
1.00119
1.00119
1.00119
1.00119
1.00119
1.00119
1.00118
1.00118
1.00118
1.00118
1.00118
1.00118
1.00118
1.00118
1.00118
1.00118
1.00118
1.00118
1.00118
1.00118
1.00118
1.00118
1.00118
1.00118
1.00118
1.00118
1.00118
1.00118
1.00118
1.00118
1.00118
1.00117
1.00117
1.00117
1.00117
1.00117
1.00117
1.00117
1.00117
1.00117
1.00117
1.00117
1.00117
1.00117
1.00117
1.00117
1.00117
1.00117
1.00117
1.00117
1.00117
1.00117
1.00117
1.00117
1.00117
1.00117
1.00116
1.00116
1.00116
1.00116
1.00116
1.00116
1.00116
1.00116
1.00116
1.00116
1.00116
1.00116
1.00116
1.00116
1.00116
1.00116
1.00116
1.00116
1.00116
1.00116
1.00116
1.00116
1.00116
1.00115
1.00115
1.00115
1.00115
1.00115
1.00115
1.00115
1.00115
1.00115
1.00115
1.00115
1.00115
1.00115
1.00115
1.00115
1.00115
1.00115
1.00115
1.00115
1.00115
1.00115
1.00115
1.00115
1.00114
1.00114
1.00114
1.00114
1.00114
1.00114
1.00114
1.00114
1.00114
1.00114
1.00114
1.00114
1.00114
1.00114
1.00114
1.00114
1.00114
1.00114
1.00114
1.00114
1.00114
1.00114
1.00113
1.00113
1.00113
1.00113
1.00113
1.00113
1.00113
1.00113
1.00113
1.00113
1.00113
1.00113
1.00113
1.00113
1.00113
1.00113
1.00113
1.00113
1.00113
1.00113
1.00113
1.00112
1.00112
1.00112
1.00112
1.00112
1.00112
1.00112
1.00112
1.00112
1.00112
1.00112
1.00112
1.00112
1.00112
1.00112
1.00112
1.00112
1.00112
1.00112
1.00112
1.00112
1.00111
1.00111
1.00111
1.00111
1.00111
1.00111
1.00111
1.00111
1.00111
1.00111
1.00111
1.00111
1.00111
1.00111
1.00111
1.00111
1.00111
1.00111
1.00111
1.00111
1.0011
1.0011
1.0011
1.0011
1.0011
1.0011
1.0011
1.0011
1.0011
1.0011
1.0011
1.0011
1.0011
1.0011
1.0011
1.0011
1.0011
1.0011
1.0011
1.0011
1.00109
1.00109
1.00109
1.00109
1.00109
1.00109
1.00109
1.00109
1.00109
1.00109
1.00109
1.00109
1.00109
1.00109
1.00109
1.00109
1.00109
1.00109
1.00109
1.00108
1.00108
1.00108
1.00108
1.00108
1.00108
1.00108
1.00108
1.00108
1.00108
1.00108
1.00108
1.00108
1.00108
1.00108
1.00108
1.00108
1.00108
1.00108
1.00107
1.00107
1.00107
1.00107
1.00107
1.00107
1.00107
1.00107
1.00107
1.00107
1.00107
1.00107
1.00107
1.00107
1.00107
1.00107
1.00107
1.00106
1.00106
1.00106
1.00106
1.00106
1.00106
1.00106
1.00106
1.00106
1.00106
1.00106
1.00106
1.00106
1.00106
1.00106
1.00106
1.00106
1.00106
1.00105
1.00105
1.00105
1.00105
1.00105
1.00105
1.00105
1.00105
1.00105
1.00105
1.00105
1.00105
1.00105
1.00105
1.00105
1.00105
1.00105
1.00104
1.00104
1.00104
1.00104
1.00104
1.00104
1.00104
1.00104
1.00104
1.00104
1.00104
1.00104
1.00104
1.00104
1.00104
1.00104
1.00104
1.00104
1.00103
1.00103
1.00103
1.00103
1.00103
1.00103
1.00103
1.00103
1.00103
1.00103
1.00103
1.00103
1.00103
1.00103
1.00103
1.00103
1.00102
1.00102
1.00102
1.00102
1.00102
1.00102
1.00102
1.00102
1.00102
1.00102
1.00102
1.00102
1.00102
1.00102
1.00102
1.00102
1.00101
1.00101
1.00101
1.00101
1.00101
1.00101
1.00101
1.00101
1.00101
1.00101
1.00101
1.00101
1.00101
1.00101
1.00101
1.00101
1.001
1.001
1.001
1.001
1.001
1.001
1.001
1.001
1.001
1.001
1.001
1.001
1.001
1.001
1.001
1.001
1.001
1.00099
1.00099
1.00099
1.00099
1.00099
1.00099
1.00099
1.00099
1.00099
1.00099
1.00099
1.00099
1.00099
1.00099
1.00099
1.00098
1.00098
1.00098
1.00098
1.00098
1.00098
1.00098
1.00098
1.00098
1.00098
1.00098
1.00098
1.00098
1.00098
1.00098
1.00097
1.00097
1.00097
1.00097
1.00097
1.00097
1.00097
1.00097
1.00097
1.00097
1.00097
1.00097
1.00097
1.00097
1.00097
1.00096
1.00096
1.00096
1.00096
1.00096
1.00096
1.00096
1.00096
1.00096
1.00096
1.00096
1.00096
1.00096
1.00096
1.00096
1.00095
1.00095
1.00095
1.00095
1.00095
1.00095
1.00095
1.00095
1.00095
1.00095
1.00095
1.00095
1.00095
1.00095
1.00095
1.00094
1.00094
1.00094
1.00094
1.00094
1.00094
1.00094
1.00094
1.00094
1.00094
1.00094
1.00094
1.00094
1.00093
1.00093
1.00093
1.00093
1.00093
1.00093
1.00093
1.00093
1.00093
1.00093
1.00093
1.00093
1.00093
1.00093
1.00093
1.00092
1.00092
1.00092
1.00092
1.00092
1.00092
1.00092
1.00092
1.00092
1.00092
1.00092
1.00092
1.00092
1.00092
1.00091
1.00091
1.00091
1.00091
1.00091
1.00091
1.00091
1.00091
1.00091
1.00091
1.00091
1.00091
1.00091
1.00091
1.0009
1.0009
1.0009
1.0009
1.0009
1.0009
1.0009
1.0009
1.0009
1.0009
1.0009
1.0009
1.0009
1.0009
1.00089
1.00089
1.00089
1.00089
1.00089
1.00089
1.00089
1.00089
1.00089
1.00089
1.00089
1.00089
1.00089
1.00088
1.00088
1.00088
1.00088
1.00088
1.00088
1.00088
1.00088
1.00088
1.00088
1.00088
1.00088
1.00088
1.00087
1.00087
1.00087
1.00087
1.00087
1.00087
1.00087
1.00087
1.00087
1.00087
1.00087
1.00087
1.00087
1.00087
1.00086
1.00086
1.00086
1.00086
1.00086
1.00086
1.00086
1.00086
1.00086
1.00086
1.00086
1.00086
1.00085
1.00085
1.00085
1.00085
1.00085
1.00085
1.00085
1.00085
1.00085
1.00085
1.00085
1.00085
1.00085
1.00085
1.00084
1.00084
1.00084
1.00084
1.00084
1.00084
1.00084
1.00084
1.00084
1.00084
1.00084
1.00084
1.00083
1.00083
1.00083
1.00083
1.00083
1.00083
1.00083
1.00083
1.00083
1.00083
1.00083
1.00083
1.00083
1.00082
1.00082
1.00082
1.00082
1.00082
1.00082
1.00082
1.00082
1.00082
1.00082
1.00082
1.00082
1.00081
1.00081
1.00081
1.00081
1.00081
1.00081
1.00081
1.00081
1.00081
1.00081
1.00081
1.00081
1.00081
1.0008
1.0008
1.0008
1.0008
1.0008
1.0008
1.0008
1.0008
1.0008
1.0008
1.0008
1.00079
1.00079
1.00079
1.00079
1.00079
1.00079
1.00079
1.00079
1.00079
1.00079
1.00079
1.00079
1.00079
1.00078
1.00078
1.00078
1.00078
1.00078
1.00078
1.00078
1.00078
1.00078
1.00078
1.00078
1.00078
1.00077
1.00077
1.00077
1.00077
1.00077
1.00077
1.00077
1.00077
1.00077
1.00077
1.00077
1.00076
1.00076
1.00076
1.00076
1.00076
1.00076
1.00076
1.00076
1.00076
1.00076
1.00076
1.00076
1.00075
1.00075
1.00075
1.00075
1.00075
1.00075
1.00075
1.00075
1.00075
1.00075
1.00075
1.00075
1.00074
1.00074
1.00074
1.00074
1.00074
1.00074
1.00074
1.00074
1.00074
1.00074
1.00074
1.00073
1.00073
1.00073
1.00073
1.00073
1.00073
1.00073
1.00073
1.00073
1.00073
1.00073
1.00073
1.00072
1.00072
1.00072
1.00072
1.00072
1.00072
1.00072
1.00072
1.00072
1.00072
1.00072
1.00071
1.00071
1.00071
1.00071
1.00071
1.00071
1.00071
1.00071
1.00071
1.00071
1.00071
1.0007
1.0007
1.0007
1.0007
1.0007
1.0007
1.0007
1.0007
1.0007
1.0007
1.0007
1.00069
1.00069
1.00069
1.00069
1.00069
1.00069
1.00069
1.00069
1.00069
1.00069
1.00069
1.00069
1.00068
1.00068
1.00068
1.00068
1.00068
1.00068
1.00068
1.00068
1.00068
1.00068
1.00067
1.00067
1.00067
1.00067
1.00067
1.00067
1.00067
1.00067
1.00067
1.00067
1.00067
1.00066
1.00066
1.00066
1.00066
1.00066
1.00066
1.00066
1.00066
1.00066
1.00066
1.00066
1.00065
1.00065
1.00065
1.00065
1.00065
1.00065
1.00065
1.00065
1.00065
1.00065
1.00064
1.00064
1.00064
1.00064
1.00064
1.00064
1.00064
1.00064
1.00064
1.00064
1.00064
1.00063
1.00063
1.00063
1.00063
1.00063
1.00063
1.00063
1.00063
1.00063
1.00063
1.00062
1.00062
1.00062
1.00062
1.00062
1.00062
1.00062
1.00062
1.00062
1.00062
1.00061
1.00061
1.00061
1.00061
1.00061
1.00061
1.00061
1.00061
1.00061
1.00061
1.0006
1.0006
1.0006
1.0006
1.0006
1.0006
1.0006
1.0006
1.0006
1.0006
1.0006
1.0006
1.00059
1.00059
1.00059
1.00059
1.00059
1.00059
1.00059
1.00059
1.00059
1.00059
1.00058
1.00058
1.00058
1.00058
1.00058
1.00058
1.00058
1.00058
1.00058
1.00058
1.00057
1.00057
1.00057
1.00057
1.00057
1.00057
1.00057
1.00057
1.00057
1.00057
1.00056
1.00056
1.00056
1.00056
1.00056
1.00056
1.00056
1.00056
1.00056
1.00056
1.00055
1.00055
1.00055
1.00055
1.00055
1.00055
1.00055
1.00055
1.00055
1.00055
1.00054
1.00054
1.00054
1.00054
1.00054
1.00054
1.00054
1.00054
1.00054
1.00054
1.00053
1.00053
1.00053
1.00053
1.00053
1.00053
1.00053
1.00053
1.00053
1.00053
1.00052
1.00052
1.00052
1.00052
1.00052
1.00052
1.00052
1.00052
1.00051
1.00051
1.00051
1.00051
1.00051
1.00051
1.00051
1.00051
1.00051
1.00051
1.0005
1.0005
1.0005
1.0005
1.0005
1.0005
1.0005
1.0005
1.0005
1.0005
1.00049
1.00049
1.00049
1.00049
1.00049
1.00049
1.00049
1.00049
1.00049
1.00048
1.00048
1.00048
1.00048
1.00048
1.00048
1.00048
1.00048
1.00048
1.00048
1.00047
1.00047
1.00047
1.00047
1.00047
1.00047
1.00047
1.00047
1.00047
1.00046
1.00046
1.00046
1.00046
1.00046
1.00046
1.00046
1.00046
1.00046
1.00046
1.00045
1.00045
1.00045
1.00045
1.00045
1.00045
1.00045
1.00045
1.00045
1.00044
1.00044
1.00044
1.00044
1.00044
1.00044
1.00044
1.00044
1.00044
1.00044
1.00043
1.00043
1.00043
1.00043
1.00043
1.00043
1.00043
1.00043
1.00042
1.00042
1.00042
1.00042
1.00042
1.00042
1.00042
1.00042
1.00042
1.00041
1.00041
1.00041
1.00041
1.00041
1.00041
1.00041
1.00041
1.00041
1.00041
1.0004
1.0004
1.0004
1.0004
1.0004
1.0004
1.0004
1.0004
1.0004
1.00039
1.00039
1.00039
1.00039
1.00039
1.00039
1.00039
1.00039
1.00039
1.00038
1.00038
1.00038
1.00038
1.00038
1.00038
1.00038
1.00038
1.00037
1.00037
1.00037
1.00037
1.00037
1.00037
1.00037
1.00037
1.00037
1.00036
1.00036
1.00036
1.00036
1.00036
1.00036
1.00036
1.00036
1.00036
1.00035
1.00035
1.00035
1.00035
1.00035
1.00035
1.00035
1.00035
1.00035
1.00034
1.00034
1.00034
1.00034
1.00034
1.00034
1.00034
1.00034
1.00033
1.00033
1.00033
1.00033
1.00033
1.00033
1.00033
1.00033
1.00033
1.00032
1.00032
1.00032
1.00032
1.00032
1.00032
1.00032
1.00032
1.00032
1.00031
1.00031
1.00031
1.00031
1.00031
1.00031
1.00031
1.00031
1.00031
1.0003
1.0003
1.0003
1.0003
1.0003
1.0003
1.0003
1.0003
1.00029
1.00029
1.00029
1.00029
1.00029
1.00029
1.00029
1.00029
1.00029
1.00028
1.00028
1.00028
1.00028
1.00028
1.00028
1.00028
1.00028
1.00027
1.00027
1.00027
1.00027
1.00027
1.00027
1.00027
1.00027
1.00026
1.00026
1.00026
1.00026
1.00026
1.00026
1.00026
1.00026
1.00026
1.00025
1.00025
1.00025
1.00025
1.00025
1.00025
1.00025
1.00025
1.00024
1.00024
1.00024
1.00024
1.00024
1.00024
1.00024
1.00024
1.00023
1.00023
1.00023
1.00023
1.00023
1.00023
1.00023
1.00023
1.00023
1.00022
1.00022
1.00022
1.00022
1.00022
1.00022
1.00022
1.00022
1.00021
1.00021
1.00021
1.00021
1.00021
1.00021
1.00021
1.00021
1.0002
1.0002
1.0002
1.0002
1.0002
1.0002
1.0002
1.0002
1.00019
1.00019
1.00019
1.00019
1.00019
1.00019
1.00019
1.00019
1.00019
1.00018
1.00018
1.00018
1.00018
1.00018
1.00018
1.00018
1.00017
1.00017
1.00017
1.00017
1.00017
1.00017
1.00017
1.00017
1.00017
1.00016
1.00016
1.00016
1.00016
1.00016
1.00016
1.00016
1.00015
1.00015
1.00015
1.00015
1.00015
1.00015
1.00015
1.00015
1.00014
1.00014
1.00014
1.00014
1.00014
1.00014
1.00014
1.00014
1.00014
1.00013
1.00013
1.00013
1.00013
1.00013
1.00013
1.00013
1.00012
1.00012
1.00012
1.00012
1.00012
1.00012
1.00012
1.00012
1.00011
1.00011
1.00011
1.00011
1.00011
1.00011
1.00011
1.0001
1.0001
1.0001
1.0001
1.0001
1.0001
1.0001
1.0001
1.0001
1.00009
1.00009
1.00009
1.00009
1.00009
1.00009
1.00009
1.00008
1.00008
1.00008
1.00008
1.00008
1.00008
1.00008
1.00008
1.00007
1.00007
1.00007
1.00007
1.00007
1.00007
1.00007
1.00006
1.00006
1.00006
1.00006
1.00006
1.00006
1.00006
1.00006
1.00005
1.00005
1.00005
1.00005
1.00005
1.00005
1.00005
1.00004
1.00004
1.00004
1.00004
1.00004
1.00004
1.00004
1.00004
1.00003
1.00003
1.00003
1.00003
1.00003
1.00003
1.00003
1.00002
1.00002
1.00002
1.00002
1.00002
1.00002
1.00002
1.00002
1.00001
1.00001
1.00001
1.00001
1.00001
1.00001
1.00001
1
1
1
1
1
0.999998
0.999998
0.999997
0.999995
0.999993
0.999992
0.999992
0.99999
0.999988
0.999987
0.999985
0.999985
0.999983
0.999982
0.99998
0.999978
0.999978
0.999976
0.999975
0.999973
0.999971
0.999971
0.99997
0.999968
0.999966
0.999965
0.999965
0.999963
0.999961
0.99996
0.999958
0.999958
0.999956
0.999954
0.999953
0.999951
0.999951
0.999949
0.999948
0.999946
0.999944
0.999944
0.999943
0.999941
0.999939
0.999937
0.999937
0.999936
0.999934
0.999932
0.99993
0.99993
0.999929
0.999927
0.999925
0.999924
0.999924
0.999922
0.99992
0.999918
0.999917
0.999917
0.999915
0.999913
0.999912
0.99991
0.99991
0.999908
0.999906
0.999905
0.999903
0.999903
0.999901
0.999899
0.999898
0.999896
0.999896
0.999894
0.999892
0.999891
0.999889
0.999889
0.999887
0.999885
0.999884
0.999882
0.999882
0.99988
0.999878
0.999877
0.999875
0.999875
0.999873
0.999871
0.99987
0.999868
0.999868
0.999866
0.999864
0.999863
0.999861
0.999861
0.999859
0.999857
0.999855
0.999854
0.999854
0.999852
0.99985
0.999848
0.999847
0.999847
0.999845
0.999843
0.999841
0.99984
0.99984
0.999838
0.999836
0.999834
0.999832
0.999832
0.999831
0.999829
0.999827
0.999825
0.999825
0.999823
0.999822
0.99982
0.999818
0.999818
0.999816
0.999814
0.999813
0.999811
0.999811
0.999809
0.999807
0.999806
0.999804
0.999804
0.999802
0.9998
0.999798
0.999796
0.999796
0.999795
0.999793
0.999791
0.999789
0.999789
0.999787
0.999786
0.999784
0.999782
0.999782
0.99978
0.999778
0.999777
0.999775
0.999775
0.999773
0.999771
0.999769
0.999767
0.999767
0.999766
0.999764
0.999762
0.99976
0.99976
0.999758
0.999757
0.999755
0.999753
0.999753
0.999751
0.999749
0.999747
0.999746
0.999746
0.999744
0.999742
0.99974
0.999738
0.999738
0.999736
0.999734
0.999733
0.999731
0.999731
0.999729
0.999727
0.999725
0.999723
0.999723
0.999722
0.99972
0.999718
0.999716
0.999716
0.999714
0.999712
0.99971
0.999709
0.999709
0.999707
0.999705
0.999703
0.999701
0.999701
0.999699
0.999697
0.999696
0.999694
0.999694
0.999692
0.99969
0.999688
0.999686
0.999686
0.999684
0.999682
0.999681
0.999679
0.999679
0.999677
0.999675
0.999673
0.999671
0.999671
0.999669
0.999667
0.999666
0.999664
0.999664
0.999662
0.99966
0.999658
0.999656
0.999656
0.999654
0.999652
0.99965
0.999649
0.999649
0.999647
0.999645
0.999643
0.999641
0.999641
0.999639
0.999637
0.999635
0.999633
0.999633
0.999632
0.99963
0.999628
0.999626
0.999626
0.999624
0.999622
0.99962
0.999618
0.999618
0.999616
0.999614
0.999612
0.999611
0.999611
0.999609
0.999607
0.999605
0.999603
0.999603
0.999601
0.999599
0.999597
0.999595
0.999595
0.999593
0.999591
0.999589
0.999587
0.999587
0.999585
0.999584
0.999582
0.99958
0.99958
0.999578
0.999576
0.999574
0.999572
0.999572
0.99957
0.999568
0.999566
0.999564
0.999564
0.999562
0.99956
0.999558
0.999556
0.999556
0.999554
0.999552
0.99955
0.999549
0.999549
0.999547
0.999545
0.999543
0.999541
0.999541
0.999539
0.999537
0.999535
0.999533
0.999533
0.999531
0.999529
0.999527
0.999525
0.999525
0.999523
0.999521
0.999519
0.999517
0.999517
0.999515
0.999513
0.999511
0.999509
0.999509
0.999507
0.999505
0.999503
0.999501
0.999501
0.999499
0.999497
0.999495
0.999493
0.999493
0.999491
0.999489
0.999487
0.999485
0.999485
0.999483
0.999481
0.999479
0.999477
0.999477
0.999475
0.999473
0.999471
0.999469
0.999469
0.999467
0.999465
0.999463
0.999461
0.999461
0.999459
0.999457
0.999455
0.999453
0.999453
0.999451
0.999449
0.999447
0.999445
0.999445
0.999443
0.999441
0.999439
0.999437
0.999437
0.999435
0.999433
0.999431
0.999429
0.999429
0.999427
0.999425
0.999423
0.999421
0.999421
0.999419
0.999417
0.999415
0.999413
0.999413
0.999411
0.999409
0.999407
0.999405
0.999405
0.999403
0.999401
0.999399
0.999397
0.999397
0.999395
0.999393
0.999391
0.999389
0.999389
0.999387
0.999385
0.999383
0.999381
0.999381
0.999379
0.999377
0.999374
0.999372
0.999372
0.99937
0.999368
0.999366
0.999364
0.999364
0.999362
0.99936
0.999358
0.999356
0.999356
0.999354
0.999352
0.99935
0.999348
0.999348
0.999346
0.999344
0.999342
0.999339
0.999339
0.999337
0.999335
0.999333
0.999331
0.999331
0.999329
0.999327
0.999325
0.999323
0.999323
0.999321
0.999319
0.999317
0.999315
0.999315
0.999312
0.99931
0.999308
0.999306
0.999306
0.999304
0.999302
0.9993
0.999298
0.999298
0.999296
0.999294
0.999292
0.999289
0.999289
0.999287
0.999285
0.999283
0.999281
0.999281
0.999279
0.999277
0.999275
0.999273
0.999273
0.999271
0.999268
0.999266
0.999264
0.999264
0.999262
0.99926
0.999258
0.999256
0.999256
0.999254
0.999251
0.999249
0.999247
0.999247
0.999245
0.999243
0.999241
0.999239
0.999239
0.999237
0.999235
0.999232
0.99923
0.99923
0.999228
0.999226
0.999224
0.999222
0.999222
0.99922
0.999217
0.999215
0.999213
0.999213
0.999211
0.999209
0.999207
0.999205
0.999205
0.999202
0.9992
0.999198
0.999196
0.999196
0.999194
0.999192
0.99919
0.999187
0.999187
0.999185
0.999183
0.999181
0.999179
0.999179
0.999177
0.999175
0.999172
0.99917
0.99917
0.999168
0.999166
0.999164
0.999162
0.999162
0.999159
0.999157
0.999155
0.999153
0.999153
0.999151
0.999149
0.999146
0.999144
0.999144
0.999142
0.99914
0.999138
0.999136
0.999136
0.999133
0.999131
0.999129
0.999127
0.999127
0.999125
0.999122
0.99912
0.999118
0.999118
0.999116
0.999114
0.999111
0.999109
0.999109
0.999107
0.999105
0.999103
0.999101
0.999101
0.999098
0.999096
0.999094
0.999092
0.999092
0.99909
0.999087
0.999085
0.999083
0.999083
0.999081
0.999078
0.999076
0.999074
0.999074
0.999072
0.99907
0.999067
0.999065
0.999065
0.999063
0.999061
0.999059
0.999056
0.999056
0.999054
0.999052
0.99905
0.999047
0.999047
0.999045
0.999043
0.999041
0.999039
0.999039
0.999036
0.999034
0.999032
0.99903
0.99903
0.999027
0.999025
0.999023
0.999021
0.999021
0.999018
0.999016
0.999014
0.999012
0.999012
0.999009
0.999007
0.999005
0.999003
0.999003
0.999
0.998998
0.998996
0.998994
0.998994
0.998991
0.998989
0.998987
0.998985
0.998985
0.998982
0.99898
0.998978
0.998975
0.998975
0.998973
0.998971
0.998969
0.998966
0.998966
0.998964
0.998962
0.998959
0.998957
0.998957
0.998955
0.998953
0.99895
0.998948
0.998948
0.998946
0.998943
0.998941
0.998939
0.998939
0.998937
0.998934
0.998932
0.99893
0.99893
0.998927
0.998925
0.998923
0.99892
0.99892
0.998918
0.998916
0.998914
0.998911
0.998911
0.998909
0.998907
0.998904
0.998902
0.998902
0.9989
0.998898
0.998895
0.998893
0.998893
0.998891
0.998888
0.998886
0.998884
0.998884
0.998882
0.998879
0.998877
0.998875
0.998875
0.998872
0.99887
0.998868
0.998865
0.998865
0.998863
0.998861
0.998859
0.998856
0.998856
0.998854
0.998852
0.998849
0.998847
0.998847
0.998845
0.998842
0.99884
0.998838
0.998838
0.998835
0.998833
0.998831
0.998829
0.998829
0.998826
0.998824
0.998822
0.998819
0.998819
0.998817
0.998815
0.998812
0.99881
0.99881
0.998808
0.998805
0.998803
0.998801
0.998801
0.998798
0.998796
0.998793
0.998791
0.998791
0.998789
0.998786
0.998784
0.998782
0.998782
0.998779
0.998777
0.998775
0.998772
0.998772
0.99877
0.998768
0.998765
0.998763
0.998763
0.99876
0.998758
0.998756
0.998753
0.998753
0.998751
0.998749
0.998746
0.998744
0.998744
0.998741
0.998739
0.998737
0.998734
0.998734
0.998732
0.99873
0.998727
0.998725
0.998725
0.998722
0.99872
0.998718
0.998715
0.998715
0.998713
0.99871
0.998708
0.998706
0.998706
0.998703
0.998701
0.998698
0.998696
0.998696
0.998694
0.998691
0.998689
0.998686
0.998686
0.998684
0.998682
0.998679
0.998677
0.998677
0.998674
0.998672
0.99867
0.998667
0.998667
0.998665
0.998662
0.99866
0.998658
0.998658
0.998655
0.998653
0.99865
0.998648
0.998648
0.998645
0.998643
0.998641
0.998638
0.998638
0.998636
0.998633
0.998631
0.998628
0.998628
0.998626
0.998624
0.998621
0.998619
0.998619
0.998616
0.998614
0.998611
0.998609
0.998609
0.998607
0.998604
0.998602
0.998599
0.998599
0.998597
0.998594
0.998592
0.998589
0.998589
0.998587
0.998585
0.998582
0.99858
0.99858
0.998577
0.998575
0.998572
0.99857
0.99857
0.998567
0.998565
0.998562
0.99856
0.99856
0.998557
0.998555
0.998553
0.99855
0.99855
0.998548
0.998545
0.998543
0.99854
0.99854
0.998538
0.998535
0.998533
0.99853
0.99853
0.998528
0.998525
0.998523
0.99852
0.99852
0.998518
0.998515
0.998513
0.99851
0.99851
0.998508
0.998505
0.998503
0.9985
0.9985
0.998498
0.998495
0.998493
0.99849
0.99849
0.998488
0.998485
0.998483
0.99848
0.99848
0.998478
0.998475
0.998473
0.99847
0.99847
0.998468
0.998465
0.998463
0.99846
0.99846
0.998458
0.998455
0.998453
0.99845
0.99845
0.998448
0.998445
0.998443
0.99844
0.99844
0.998438
0.998435
0.998433
0.99843
0.99843
0.998427
0.998425
0.998422
0.99842
0.99842
0.998417
0.998415
0.998412
0.99841
0.99841
0.998407
0.998405
0.998402
0.998399
0.998399
0.998397
0.998394
0.998392
0.998389
0.998389
0.998387
0.998384
0.998381
0.998379
0.998379
0.998376
0.998374
0.998371
0.998369
0.998369
0.998366
0.998363
0.998361
0.998358
0.998358
0.998356
0.998353
0.998351
0.998348
0.998348
0.998346
0.998343
0.99834
0.998338
0.998338
0.998335
0.998333
0.99833
0.998328
0.998328
0.998325
0.998323
0.99832
0.998317
0.998317
0.998315
0.998312
0.99831
0.998307
0.998307
0.998305
0.998302
0.9983
0.998297
0.998297
0.998294
0.998292
0.998289
0.998287
0.998287
0.998284
0.998282
0.998279
0.998276
0.998276
0.998274
0.998271
0.998269
0.998266
0.998266
0.998264
0.998261
0.998258
0.998256
0.998256
0.998253
0.998251
0.998248
0.998245
0.998245
0.998243
0.99824
0.998238
0.998235
0.998235
0.998232
0.99823
0.998227
0.998225
0.998225
0.998222
0.998219
0.998217
0.998214
0.998214
0.998211
0.998209
0.998206
0.998204
0.998204
0.998201
0.998198
0.998196
0.998193
0.998193
0.99819
0.998188
0.998185
0.998183
0.998183
0.99818
0.998177
0.998175
0.998172
0.998172
0.998169
0.998167
0.998164
0.998161
0.998161
0.998159
0.998156
0.998153
0.998151
0.998151
0.998148
0.998145
0.998143
0.99814
0.99814
0.998138
0.998135
0.998132
0.99813
0.99813
0.998127
0.998124
0.998122
0.998119
0.998119
0.998116
0.998114
0.998111
0.998108
0.998108
0.998106
0.998103
0.9981
0.998098
0.998098
0.998095
0.998092
0.998089
0.998087
0.998087
0.998084
0.998081
0.998079
0.998076
0.998076
0.998073
0.998071
0.998068
0.998065
0.998065
0.998063
0.99806
0.998057
0.998055
0.998055
0.998052
0.998049
0.998046
0.998044
0.998044
0.998041
0.998038
0.998036
0.998033
0.998033
0.99803
0.998028
0.998025
0.998022
0.998022
0.998019
0.998017
0.998014
0.998011
0.998011
0.998009
0.998006
0.998003
0.998
0.998
0.997998
0.997995
0.997992
0.99799
0.99799
0.997987
0.997984
0.997981
0.997979
0.997979
0.997976
0.997973
0.997971
0.997968
0.997968
0.997965
0.997962
0.99796
0.997957
0.997957
0.997954
0.997951
0.997949
0.997946
0.997946
0.997943
0.99794
0.997938
0.997935
0.997935
0.997932
0.997929
0.997927
0.997924
0.997924
0.997921
0.997918
0.997916
0.997913
0.997913
0.99791
0.997907
0.997905
0.997902
0.997902
0.997899
0.997896
0.997893
0.997891
0.997891
0.997888
0.997885
0.997882
0.99788
0.99788
0.997877
0.997874
0.997871
0.997868
0.997868
0.997866
0.997863
0.99786
0.997857
0.997857
0.997854
0.997852
0.997849
0.997846
0.997846
0.997843
0.99784
0.997838
0.997835
0.997835
0.997832
0.997829
0.997826
0.997823
0.997823
0.997821
0.997818
0.997815
0.997812
0.997812
0.997809
0.997807
0.997804
0.997801
0.997801
0.997798
0.997795
0.997793
0.99779
0.99779
0.997787
0.997784
0.997781
0.997779
0.997779
0.997776
0.997773
0.99777
0.997767
0.997767
0.997765
0.997762
0.997759
0.997756
0.997756
0.997753
0.997751
0.997748
0.997745
0.997745
0.997742
0.997739
0.997737
0.997734
0.997734
0.997731
0.997728
0.997725
0.997723
0.997723
0.99772
0.997717
0.997714
0.997711
0.997711
0.997708
0.997706
0.997703
0.9977
0.9977
0.997697
0.997694
0.997691
0.997689
0.997689
0.997686
0.997683
0.99768
0.997677
0.997677
0.997674
0.997672
0.997669
0.997666
0.997666
0.997663
0.99766
0.997657
0.997654
0.997654
0.997652
0.997649
0.997646
0.997643
0.997643
0.99764
0.997637
0.997634
0.997632
0.997632
0.997629
0.997626
0.997623
0.99762
0.99762
0.997617
0.997614
0.997611
0.997608
0.997608
0.997606
0.997603
0.9976
0.997597
0.997597
0.997594
0.997591
0.997588
0.997585
0.997585
0.997582
0.99758
0.997577
0.997574
0.997574
0.997571
0.997568
0.997565
0.997562
0.997562
0.997559
0.997556
0.997553
0.997551
0.997551
0.997548
0.997545
0.997542
0.997539
0.997539
0.997536
0.997533
0.99753
0.997527
0.997527
0.997524
0.997521
0.997519
0.997516
0.997516
0.997513
0.99751
0.997507
0.997504
0.997504
0.997501
0.997498
0.997495
0.997492
0.997492
0.997489
0.997486
0.997483
0.99748
0.99748
0.997478
0.997475
0.997472
0.997469
0.997469
0.997466
0.997463
0.99746
0.997457
0.997457
0.997454
0.997451
0.997448
0.997445
0.997445
0.997442
0.997439
0.997436
0.997433
0.997433
0.99743
0.997427
0.997424
0.997421
0.997421
0.997419
0.997416
0.997413
0.99741
0.99741
0.997407
0.997404
0.997401
0.997398
0.997398
0.997395
0.997392
0.997389
0.997386
0.997386
0.997383
0.99738
0.997377
0.997374
0.997374
0.997371
0.997368
0.997365
0.997362
0.997362
0.997359
0.997356
0.997353
0.99735
0.99735
0.997347
0.997344
0.997341
0.997338
0.997338
0.997335
0.997332
0.997329
0.997326
0.997326
0.997323
0.99732
0.997317
0.997314
0.997314
0.997311
0.997308
0.997305
0.997302
0.997302
0.997299
0.997296
0.997292
0.997289
0.997289
0.997286
0.997283
0.99728
0.997277
0.997277
0.997274
0.997271
0.997268
0.997265
0.997265
0.997262
0.997259
0.997256
0.997253
0.997253
0.99725
0.997247
0.997244
0.997241
0.997241
0.997238
0.997235
0.997232
0.997229
0.997229
0.997226
0.997223
0.99722
0.997217
0.997217
0.997214
0.997211
0.997208
0.997205
0.997205
0.997202
0.997198
0.997195
0.997192
0.997192
0.997189
0.997186
0.997183
0.99718
0.99718
0.997177
0.997174
0.997171
0.997168
0.997168
0.997165
0.997162
0.997159
0.997156
0.997156
0.997153
0.99715
0.997147
0.997144
0.997144
0.997141
0.997138
0.997135
0.997132
0.997132
0.997129
0.997125
0.997122
0.997119
0.997119
0.997116
0.997113
0.99711
0.997107
0.997107
0.997104
0.997101
0.997098
0.997095
0.997095
0.997092
0.997089
0.997085
0.997082
0.997082
0.997079
0.997076
0.997073
0.99707
0.99707
0.997067
0.997064
0.997061
0.997058
0.997058
0.997054
0.997051
0.997048
0.997045
0.997045
0.997042
0.997039
0.997036
0.997033
0.997033
0.99703
0.997026
0.997023
0.99702
0.99702
0.997017
0.997014
0.997011
0.997008
0.997008
0.997005
0.997001
0.996998
0.996995
0.996995
0.996992
0.996989
0.996986
0.996983
0.996983
0.99698
0.996976
0.996973
0.99697
0.99697
0.996967
0.996964
0.996961
0.996958
0.996958
0.996954
0.996951
0.996948
0.996945
0.996945
0.996942
0.996939
0.996936
0.996932
0.996932
0.996929
0.996926
0.996923
0.99692
0.99692
0.996917
0.996913
0.99691
0.996907
0.996907
0.996904
0.996901
0.996898
0.996894
0.996894
0.996891
0.996888
0.996885
0.996882
0.996882
0.996879
0.996875
0.996872
0.996869