<?xml version="1.0"?>
<VTKFile type="UnstructuredGrid" version="0.1" byte_order="LittleEndian">
<UnstructuredGrid>
<Piece NumberOfPoints="5000" NumberOfCells="4000">
<PointData Scalars="Reaction 0">
<DataArray type="Float32" Name="Reaction 0" format="ascii">
0.13568
0.13568
0.13568
0.13568
0.13568
0.13568
0.13568
0.13568
0.13568
0.135681
0.135681
0.135681
0.135681
0.135681
0.135682
0.135682
0.135682
0.135682
0.135683
0.135683
0.135683
0.135684
0.135684
0.135685
0.135685
0.135685
0.135686
0.135687
0.135687
0.135688
0.135688
0.135689
0.135689
0.13569
0.135691
0.135691
0.135692
0.135692
0.135693
0.135694
0.135694
0.135695
0.135696
0.135697
0.135698
0.135698
0.135699
0.1357
0.135701
0.135702
0.135702
0.135703
0.135704
0.135706
0.135707
0.135707
0.135708
0.135709
0.135711
0.135712
0.135712
0.135713
0.135715
0.135716
0.135718
0.135718
0.135719
0.135721
0.135722
0.135724
0.135724
0.135725
0.135727
0.135729
0.13573
0.13573
0.135732
0.135734
0.135735
0.135737
0.135737
0.135739
0.135741
0.135743
0.135745
0.135745
0.135747
0.135748
0.13575
0.135752
0.135752
0.135755
0.135757
0.135759
0.135761
0.135761
0.135763
0.135765
0.135767
0.13577
0.13577
0.135772
0.135774
0.135776
0.135779
0.135779
0.135781
0.135784
0.135786
0.135788
0.135788
0.135791
0.135793
0.135796
0.135799
0.135799
0.135801
0.135804
0.135806
0.135809
0.135809
0.135812
0.135815
0.135817
0.13582
0.13582
0.135823
0.135826
0.135829
0.135832
0.135832
0.135834
0.135837
0.13584
0.135843
0.135843
0.135846
0.13585
0.135853
0.135856
0.135856
0.135859
0.135862
0.135865
0.135869
0.135869
0.135872
0.135875
0.135878
0.135882
0.135882
0.135885
0.135889
0.135892
0.135896
0.135896
0.135899
0.135903
0.135906
0.13591
0.13591
0.135913
0.135917
0.135921
0.135924
0.135924
0.135928
0.135932
0.135936
0.135939
0.135939
0.135943
0.135947
0.135951
0.135955
0.135955
0.135959
0.135963
0.135967
0.135971
0.135971
0.135975
0.135979
0.135983
0.135987
0.135987
0.135991
0.135996
0.136
0.136004
0.136004
0.136008
0.136013
0.136017
0.136021
0.136021
0.136026
0.13603
0.136035
0.136039
0.136039
0.136044
0.136048
0.136053
0.136057
0.136057
0.136062
0.136067
0.136071
0.136076
0.136076
0.136081
0.136085
0.13609
0.136095
0.136095
0.1361
0.136105
0.13611
0.136115
0.136115
0.13612
0.136125
0.13613
0.136135
0.136135
0.13614
0.136145
0.13615
0.136155
0.136155
0.13616
0.136166
0.136171
0.136176
0.136176
0.136181
0.136187
0.136192
0.136197
0.136197
0.136203
0.136208
0.136214
0.136219
0.136219
0.136225
0.13623
0.136236
0.136241
0.136241
0.136247
0.136253
0.136258
0.136264
0.136264
0.13627
0.136276
0.136282
0.136287
0.136287
0.136293
0.136299
0.136305
0.136311
0.136311
0.136317
0.136323
0.136329
0.136335
0.136335
0.136341
0.136347
0.136353
0.13636
0.13636
0.136366
0.136372
0.136378
0.136385
0.136385
0.136391
0.136397
0.136404
0.13641
0.13641
0.136416
0.136423
0.136429
0.136436
0.136436
0.136442
0.136449
0.136456
0.136462
0.136462
0.136469
0.136476
0.136482
0.136489
0.136489
0.136496
0.136503
0.136509
0.136516
0.136516
0.136523
0.13653
0.136537
0.136544
0.136544
0.136551
0.136558
0.136565
0.136572
0.136572
0.136579
0.136586
0.136593
0.136601
0.136601
0.136608
0.136615
0.136622
0.13663
0.13663
0.136637
0.136644
0.136652
0.136659
0.136659
0.136667
0.136674
0.136682
0.136689
0.136689
0.136697
0.136704
0.136712
0.13672
0.13672
0.136727
0.136735
0.136743
0.13675
0.13675
0.136758
0.136766
0.136774
0.136782
0.136782
0.13679
0.136798
0.136806
0.136814
0.136814
0.136822
0.13683
0.136838
0.136846
0.136846
0.136854
0.136862
0.13687
0.136878
0.136878
0.136887
0.136895
0.136903
0.136912
0.136912
0.13692
0.136928
0.136937
0.136945
0.136945
0.136954
0.136962
0.136971
0.136979
0.136979
0.136988
0.136996
0.137005
0.137014
0.137014
0.137022
0.137031
0.13704
0.137049
0.137049
0.137057
0.137066
0.137075
0.137084
0.137084
0.137093
0.137102
0.137111
0.13712
0.13712
0.137129
0.137138
0.137147
0.137156
0.137156
0.137165
0.137175
0.137184
0.137193
0.137193
0.137202
0.137212
0.137221
0.13723
0.13723
0.13724
0.137249
0.137258
0.137268
0.137268
0.137277
0.137287
0.137297
0.137306
0.137306
0.137316
0.137325
0.137335
0.137345
0.137345
0.137354
0.137364
0.137374
0.137384
0.137384
0.137394
0.137403
0.137413
0.137423
0.137423
0.137433
0.137443
0.137453
0.137463
0.137463
0.137473
0.137483
0.137494
0.137504
0.137504
0.137514
0.137524
0.137534
0.137545
0.137545
0.137555
0.137565
0.137576
0.137586
0.137586
0.137596
0.137607
0.137617
0.137628
0.137628
0.137638
0.137649
0.137659
0.13767
0.13767
0.137681
0.137691
0.137702
0.137713
0.137713
0.137723
0.137734
0.137745
0.137756
0.137756
0.137767
0.137778
0.137789
0.1378
0.1378
0.137811
0.137822
0.137833
0.137844
0.137844
0.137855
0.137866
0.137877
0.137888
0.137888
0.137899
0.137911
0.137922
0.137933
0.137933
0.137945
0.137956
0.137967
0.137979
0.137979
0.13799
0.138002
0.138013
0.138025
0.138025
0.138036
0.138048
0.138059
0.138071
0.138071
0.138083
0.138094
0.138106
0.138118
0.138118
0.13813
0.138141
0.138153
0.138165
0.138165
0.138177
0.138189
0.138201
0.138213
0.138213
0.138225
0.138237
0.138249
0.138261
0.138261
0.138273
0.138286
0.138298
0.13831
0.13831
0.138322
0.138334
0.138347
0.138359
0.138359
0.138371
0.138384
0.138396
0.138409
0.138409
0.138421
0.138434
0.138446
0.138459
0.138459
0.138471
0.138484
0.138497
0.138509
0.138509
0.138522
0.138535
0.138548
0.13856
0.13856
0.138573
0.138586
0.138599
0.138612
0.138612
0.138625
0.138638
0.138651
0.138664
0.138664
0.138677
0.13869
0.138703
0.138716
0.138716
0.138729
0.138742
0.138756
0.138769
0.138769
0.138782
0.138796
0.138809
0.138822
0.138822
0.138836
0.138849
0.138863
0.138876
0.138876
0.13889
0.138903
0.138917
0.13893
0.13893
0.138944
0.138958
0.138971
0.138985
0.138985
0.138999
0.139013
0.139026
0.13904
0.13904
0.139054
0.139068
0.139082
0.139096
0.139096
0.13911
0.139124
0.139138
0.139152
0.139152
0.139166
0.13918
0.139194
0.139209
0.139209
0.139223
0.139237
0.139251
0.139266
0.139266
0.13928
0.139294
0.139309
0.139323
0.139323
0.139338
0.139352
0.139367
0.139381
0.139381
0.139396
0.13941
0.139425
0.139439
0.139439
0.139454
0.139469
0.139484
0.139498
0.139498
0.139513
0.139528
0.139543
0.139558
0.139558
0.139573
0.139588
0.139603
0.139618
0.139618
0.139633
0.139648
0.139663
0.139678
0.139678
0.139693
0.139708
0.139723
0.139739
0.139739
0.139754
0.139769
0.139785
0.1398
0.1398
0.139815
0.139831
0.139846
0.139862
0.139862
0.139877
0.139893
0.139908
0.139924
0.139924
0.139939
0.139955
0.139971
0.139986
0.139986
0.140002
0.140018
0.140034
0.14005
0.14005
0.140065
0.140081
0.140097
0.140113
0.140113
0.140129
0.140145
0.140161
0.140177
0.140177
0.140193
0.140209
0.140225
0.140242
0.140242
0.140258
0.140274
0.14029
0.140307
0.140307
0.140323
0.140339
0.140356
0.140372
0.140372
0.140389
0.140405
0.140421
0.140438
0.140438
0.140455
0.140471
0.140488
0.140504
0.140504
0.140521
0.140538
0.140555
0.140571
0.140571
0.140588
0.140605
0.140622
0.140639
0.140639
0.140656
0.140672
0.140689
0.140706
0.140706
0.140723
0.140741
0.140758
0.140775
0.140775
0.140792
0.140809
0.140826
0.140843
0.140843
0.140861
0.140878
0.140895
0.140913
0.140913
0.14093
0.140947
0.140965
0.140982
0.140982
0.141
0.141017
0.141035
0.141053
0.141053
0.14107
0.141088
0.141106
0.141123
0.141123
0.141141
0.141159
0.141177
0.141194
0.141194
0.141212
0.14123
0.141248
0.141266
0.141266
0.141284
0.141302
0.14132
0.141338
0.141338
0.141356
0.141374
0.141392
0.141411
0.141411
0.141429
0.141447
0.141465
0.141484
0.141484
0.141502
0.14152
0.141539
0.141557
0.141557
0.141576
0.141594
0.141613
0.141631
0.141631
0.14165
0.141668
0.141687
0.141706
0.141706
0.141724
0.141743
0.141762
0.14178
0.14178
0.141799
0.141818
0.141837
0.141856
0.141856
0.141875
0.141894
0.141913
0.141932
0.141932
0.141951
0.14197
0.141989
0.142008
0.142008
0.142027
0.142046
0.142066
0.142085
0.142085
0.142104
0.142123
0.142143
0.142162
0.142162
0.142182
0.142201
0.14222
0.14224
0.14224
0.14226
0.142279
0.142299
0.142318
0.142318
0.142338
0.142358
0.142377
0.142397
0.142397
0.142417
0.142437
0.142456
0.142476
0.142476
0.142496
0.142516
0.142536
0.142556
0.142556
0.142576
0.142596
0.142616
0.142636
0.142636
0.142656
0.142676
0.142697
0.142717
0.142717
0.142737
0.142757
0.142778
0.142798
0.142798
0.142818
0.142839
0.142859
0.14288
0.14288
0.1429
0.142921
0.142941
0.142962
0.142962
0.142982
0.143003
0.143024
0.143044
0.143044
0.143065
0.143086
0.143107
0.143127
0.143127
0.143148
0.143169
0.14319
0.143211
0.143211
0.143232
0.143253
0.143274
0.143295
0.143295
0.143316
0.143337
0.143358
0.143379
0.143379
0.143401
0.143422
0.143443
0.143464
0.143464
0.143486
0.143507
0.143529
0.14355
0.14355
0.143571
0.143593
0.143614
0.143636
0.143636
0.143657
0.143679
0.143701
0.143722
0.143722
0.143744
0.143766
0.143788
0.143809
0.143809
0.143831
0.143853
0.143875
0.143897
0.143897
0.143919
0.143941
0.143963
0.143985
0.143985
0.144007
0.144029
0.144051
0.144073
0.144073
0.144095
0.144117
0.14414
0.144162
0.144162
0.144184
0.144207
0.144229
0.144251
0.144251
0.144274
0.144296
0.144319
0.144341
0.144341
0.144364
0.144386
0.144409
0.144432
0.144432
0.144454
0.144477
0.1445
0.144522
0.144522
0.144545
0.144568
0.144591
0.144614
0.144614
0.144637
0.14466
0.144682
0.144705
0.144705
0.144728
0.144752
0.144775
0.144798
0.144798
0.144821
0.144844
0.144867
0.144891
0.144891
0.144914
0.144937
0.14496
0.144984
0.144984
0.145007
0.145031
0.145054
0.145078
0.145078
0.145101
0.145125
0.145148
0.145172
0.145172
0.145196
0.145219
0.145243
0.145267
0.145267
0.14529
0.145314
0.145338
0.145362
0.145362
0.145386
0.14541
0.145434
0.145458
0.145458
0.145482
0.145506
0.14553
0.145554
0.145554
0.145578
0.145602
0.145626
0.145651
0.145651
0.145675
0.145699
0.145723
0.145748
0.145748
0.145772
0.145797
0.145821
0.145845
0.145845
0.14587
0.145894
0.145919
0.145944
0.145944
0.145968
0.145993
0.146018
0.146042
0.146042
0.146067
0.146092
0.146117
0.146142
0.146142
0.146166
0.146191
0.146216
0.146241
0.146241
0.146266
0.146291
0.146316
0.146341
0.146341
0.146367
0.146392
0.146417
0.146442
0.146442
0.146467
0.146493
0.146518
0.146543
0.146543
0.146569
0.146594
0.146619
0.146645
0.146645
0.14667
0.146696
0.146721
0.146747
0.146747
0.146773
0.146798
0.146824
0.14685
0.14685
0.146875
0.146901
0.146927
0.146953
0.146953
0.146979
0.147005
0.147031
0.147057
0.147057
0.147083
0.147109
0.147135
0.147161
0.147161
0.147187
0.147213
0.147239
0.147265
0.147265
0.147292
0.147318
0.147344
0.14737
0.14737
0.147397
0.147423
0.14745
0.147476
0.147476
0.147503
0.147529
0.147556
0.147582
0.147582
0.147609
0.147636
0.147662
0.147689
0.147689
0.147716
0.147742
0.147769
0.147796
0.147796
0.147823
0.14785
0.147877
0.147904
0.147904
0.147931
0.147958
0.147985
0.148012
0.148012
0.148039
0.148066
0.148093
0.148121
0.148121
0.148148
0.148175
0.148202
0.14823
0.14823
0.148257
0.148284
0.148312
0.148339
0.148339
0.148367
0.148394
0.148422
0.14845
0.14845
0.148477
0.148505
0.148532
0.14856
0.14856
0.148588
0.148616
0.148644
0.148671
0.148671
0.148699
0.148727
0.148755
0.148783
0.148783
0.148811
0.148839
0.148867
0.148895
0.148895
0.148923
0.148952
0.14898
0.149008
0.149008
0.149036
0.149064
0.149093
0.149121
0.149121
0.14915
0.149178
0.149206
0.149235
0.149235
0.149263
0.149292
0.14932
0.149349
0.149349
0.149378
0.149406
0.149435
0.149464
0.149464
0.149493
0.149521
0.14955
0.149579
0.149579
0.149608
0.149637
0.149666
0.149695
0.149695
0.149724
0.149753
0.149782
0.149811
0.149811
0.14984
0.149869
0.149898
0.149928
0.149928
0.149957
0.149986
0.150016
0.150045
0.150045
0.150074
0.150104
0.150133
0.150163
0.150163
0.150192
0.150222
0.150251
0.150281
0.150281
0.150311
0.15034
0.15037
0.1504
0.1504
0.15043
0.150459
0.150489
0.150519
0.150519
0.150549
0.150579
0.150609
0.150639
0.150639
0.150669
0.150699
0.150729
0.150759
0.150759
0.150789
0.15082
0.15085
0.15088
0.15088
0.15091
0.150941
0.150971
0.151001
0.151001
0.151032
0.151062
0.151093
0.151123
0.151123
0.151154
0.151184
0.151215
0.151246
0.151246
0.151276
0.151307
0.151338
0.151369
0.151369
0.151399
0.15143
0.151461
0.151492
0.151492
0.151523
0.151554
0.151585
0.151616
0.151616
0.151647
0.151678
0.151709
0.15174
0.15174
0.151772
0.151803
0.151834
0.151865
0.151865
0.151897
0.151928
0.151959
0.151991
0.151991
0.152022
0.152054
0.152085
0.152117
0.152117
0.152148
0.15218
0.152212
0.152243
0.152243
0.152275
0.152307
0.152339
0.15237
0.15237
0.152402
0.152434
0.152466
0.152498
0.152498
0.15253
0.152562
0.152594
0.152626
0.152626
0.152658
0.15269
0.152722
0.152755
0.152755
0.152787
0.152819
0.152851
0.152884
0.152884
0.152916
0.152948
0.152981
0.153013
0.153013
0.153046
0.153078
0.153111
0.153143
0.153143
0.153176
0.153209
0.153241
0.153274
0.153274
0.153307
0.15334
0.153372
0.153405
0.153405
0.153438
0.153471
0.153504
0.153537
0.153537
0.15357
0.153603
0.153636
0.153669
0.153669
0.153702
0.153736
0.153769
0.153802
0.153802
0.153835
0.153869
0.153902
0.153935
0.153935
0.153969
0.154002
0.154036
0.154069
0.154069
0.154103
0.154136
0.15417
0.154203
0.154203
0.154237
0.154271
0.154305
0.154338
0.154338
0.154372
0.154406
0.15444
0.154474
0.154474
0.154508
0.154542
0.154576
0.15461
0.15461
0.154644
0.154678
0.154712
0.154746
0.154746
0.15478
0.154814
0.154849
0.154883
0.154883
0.154917
0.154952
0.154986
0.15502
0.15502
0.155055
0.155089
0.155124
0.155159
0.155159
0.155193
0.155228
0.155262
0.155297
0.155297
0.155332
0.155367
0.155401
0.155436
0.155436
0.155471
0.155506
0.155541
0.155576
0.155576
0.155611
0.155646
0.155681
0.155716
0.155716
0.155751
0.155786
0.155821
0.155857
0.155857
0.155892
0.155927
0.155962
0.155998
0.155998
0.156033
0.156069
0.156104
0.156139
0.156139
0.156175
0.156211
0.156246
0.156282
0.156282
0.156317
0.156353
0.156389
0.156425
0.156425
0.15646
0.156496
0.156532
0.156568
0.156568
0.156604
0.15664
0.156676
0.156712
0.156712
0.156748
0.156784
0.15682
0.156856
0.156856
0.156892
0.156928
0.156965
0.157001
0.157001
0.157037
0.157074
0.15711
0.157146
0.157146
0.157183
0.157219
0.157256
0.157292
0.157292
0.157329
0.157366
0.157402
0.157439
0.157439
0.157476
0.157512
0.157549
0.157586
0.157586
0.157623
0.15766
0.157697
0.157734
0.157734
0.157771
0.157808
0.157845
0.157882
0.157882
0.157919
0.157956
0.157993
0.158031
0.158031
0.158068
0.158105
0.158142
0.15818
0.15818
0.158217
0.158255
0.158292
0.158329
0.158329
0.158367
0.158405
0.158442
0.15848
0.15848
0.158517
0.158555
0.158593
0.158631
0.158631
0.158668
0.158706
0.158744
0.158782
0.158782
0.15882
0.158858
0.158896
0.158934
0.158934
0.158972
0.15901
0.159048
0.159086
0.159086
0.159125
0.159163
0.159201
0.159239
0.159239
0.159278
0.159316
0.159354
0.159393
0.159393
0.159431
0.15947
0.159508
0.159547
0.159547
0.159586
0.159624
0.159663
0.159702
0.159702
0.15974
0.159779
0.159818
0.159857
0.159857
0.159896
0.159935
0.159974
0.160013
0.160013
0.160052
0.160091
0.16013
0.160169
0.160169
0.160208
0.160247
0.160286
0.160326
0.160326
0.160365
0.160404
0.160444
0.160483
0.160483
0.160522
0.160562
0.160601
0.160641
0.160641
0.16068
0.16072
0.16076
0.160799
0.160799
0.160839
0.160879
0.160918
0.160958
0.160958
0.160998
0.161038
0.161078
0.161118
0.161118
0.161158
0.161198
0.161238
0.161278
0.161278
0.161318
0.161358
0.161398
0.161439
0.161439
0.161479
0.161519
0.161559
0.1616
0.1616
0.16164
0.161681
0.161721
0.161761
0.161761
0.161802
0.161843
0.161883
0.161924
0.161924
0.161964
0.162005
0.162046
0.162087
0.162087
0.162127
0.162168
0.162209
0.16225
0.16225
0.162291
0.162332
0.162373
0.162414
0.162414
0.162455
0.162496
0.162537
0.162578
0.162578
0.16262
0.162661
0.162702
0.162743
0.162743
0.162785
0.162826
0.162868
0.162909
0.162909
0.162951
0.162992
0.163034
0.163075
0.163075
0.163117
0.163158
0.1632
0.163242
0.163242
0.163284
0.163325
0.163367
0.163409
0.163409
0.163451
0.163493
0.163535
0.163577
0.163577
0.163619
0.163661
0.163703
0.163745
0.163745
0.163788
0.16383
0.163872
0.163914
0.163914
0.163957
0.163999
0.164041
0.164084
0.164084
0.164126
0.164169
0.164211
0.164254
0.164254
0.164296
0.164339
0.164382
0.164424
0.164424
0.164467
0.16451
0.164553
0.164596
0.164596
0.164638
0.164681
0.164724
0.164767
0.164767
0.16481
0.164853
0.164896
0.16494
0.16494
0.164983
0.165026
0.165069
0.165112
0.165112
0.165156
0.165199
0.165242
0.165286
0.165286
0.165329
0.165373
0.165416
0.16546
0.16546
0.165503
0.165547
0.165591
0.165634
0.165634
0.165678
0.165722
0.165765
0.165809
0.165809
0.165853
0.165897
0.165941
0.165985
0.165985
0.166029
0.166073
0.166117
0.166161
0.166161
0.166205
0.166249
0.166294
0.166338
0.166338
0.166382
0.166426
0.166471
0.166515
0.166515
0.16656
0.166604
0.166649
0.166693
0.166693
0.166738
0.166782
0.166827
0.166872
0.166872
0.166916
0.166961
0.167006
0.167051
0.167051
0.167095
0.16714
0.167185
0.16723
0.16723
0.167275
0.16732
0.167365
0.16741
0.16741
0.167455
0.167501
0.167546
0.167591
0.167591
0.167636
0.167682
0.167727
0.167772
0.167772
0.167818
0.167863
0.167909
0.167954
0.167954
0.168
0.168045
0.168091
0.168137
0.168137
0.168182
0.168228
0.168274
0.16832
0.16832
0.168365
0.168411
0.168457
0.168503
0.168503
0.168549
0.168595
0.168641
0.168687
0.168687
0.168733
0.16878
0.168826
0.168872
0.168872
0.168918
0.168965
0.169011
0.169057
0.169057
0.169104
0.16915
0.169197
0.169243
0.169243
0.16929
0.169336
0.169383
0.16943
0.16943
0.169476
0.169523
0.16957
0.169617
0.169617
0.169663
0.16971
0.169757
0.169804
0.169804
0.169851
0.169898
0.169945
0.169992
0.169992
0.170039
0.170087
0.170134
0.170181
0.170181
0.170228
0.170276
0.170323
0.17037
0.17037
0.170418
0.170465
0.170513
0.17056
0.17056
0.170608
0.170655
0.170703
0.170751
0.170751
0.170798
0.170846
0.170894
0.170942
0.170942
0.170989
0.171037
0.171085
0.171133
0.171133
0.171181
0.171229
0.171277
0.171325
0.171325
0.171373
0.171422
0.17147
0.171518
0.171518
0.171566
0.171615
0.171663
0.171711
0.171711
0.17176
0.171808
0.171857
0.171905
0.171905
0.171954
0.172002
0.172051
0.1721
0.1721
0.172148
0.172197
0.172246
0.172295
0.172295
0.172344
0.172393
0.172441
0.17249
0.17249
0.172539
0.172588
0.172638
0.172687
0.172687
0.172736
0.172785
0.172834
0.172883
0.172883
0.172933
0.172982
0.173031
0.173081
0.173081
0.17313
0.17318
0.173229
0.173279
0.173279
0.173328
0.173378
0.173428
0.173477
0.173477
0.173527
0.173577
0.173627
0.173676
0.173676
0.173726
0.173776
0.173826
0.173876
0.173876
0.173926
0.173976
0.174026
0.174076
0.174076
0.174127
0.174177
0.174227
0.174277
0.174277
0.174328
0.174378
0.174428
0.174479
0.174479
0.174529
0.17458
0.17463
0.174681
0.174681
0.174731
0.174782
0.174833
0.174884
0.174884
0.174934
0.174985
0.175036
0.175087
0.175087
0.175138
0.175189
0.17524
0.175291
0.175291
0.175342
0.175393
0.175444
0.175495
0.175495
0.175546
0.175597
0.175649
0.1757
0.1757
0.175751
0.175803
0.175854
0.175905
0.175905
0.175957
0.176009
0.17606
0.176112
0.176112
0.176163
0.176215
0.176267
0.176318
0.176318
0.17637
0.176422
0.176474
0.176526
0.176526
0.176578
0.17663
0.176682
0.176734
0.176734
0.176786
0.176838
0.17689
0.176942
0.176942
0.176994
0.177047
0.177099
0.177151
0.177151
0.177204
0.177256
0.177309
0.177361
0.177361
0.177414
0.177466
0.177519
0.177571
0.177571
0.177624
0.177677
0.177729
0.177782
0.177782
0.177835
0.177888
0.177941
0.177994
0.177994
0.178047
0.1781
0.178153
0.178206
0.178206
0.178259
0.178312
0.178365
0.178418
0.178418
0.178472
0.178525
0.178578
0.178632
0.178632
0.178685
0.178739
0.178792
0.178846
0.178846
0.178899
0.178953
0.179006
0.17906
0.17906
0.179114
0.179167
0.179221
0.179275
0.179275
0.179329
0.179383
0.179437
0.179491
0.179491
0.179545
0.179599
0.179653
0.179707
0.179707
0.179761
0.179815
0.17987
0.179924
0.179924
0.179978
0.180032
0.180087
0.180141
0.180141
0.180196
0.18025
0.180305
0.180359
0.180359
0.180414
0.180469
0.180523
0.180578
0.180578
0.180633
0.180687
0.180742
0.180797
0.180797
0.180852
0.180907
0.180962
0.181017
0.181017
0.181072
0.181127
0.181182
0.181237
0.181237
0.181293
0.181348
0.181403
0.181459
0.181459
0.181514
0.181569
0.181625
0.18168
0.18168
0.181736
0.181791
0.181847
0.181902
0.181902
0.181958
0.182014
0.182069
0.182125
0.182125
0.182181
0.182237
0.182293
0.182349
0.182349
0.182405
0.182461
0.182517
0.182573
0.182573
0.182629
0.182685
0.182741
0.182797
0.182797
0.182854
0.18291
0.182966
0.183023
0.183023
0.183079
0.183136
0.183192
0.183249
0.183249
0.183305
0.183362
0.183418
0.183475
0.183475
0.183532
0.183589
0.183645
0.183702
0.183702
0.183759
0.183816
0.183873
0.18393
0.18393
0.183987
0.184044
0.184101
0.184158
0.184158
0.184215
0.184272
0.18433
0.184387
0.184387
0.184444
0.184502
0.184559
0.184617
0.184617
0.184674
0.184732
0.184789
0.184847
0.184847
0.184904
0.184962
0.18502
0.185077
0.185077
0.185135
0.185193
0.185251
0.185309
0.185309
0.185367
0.185425
0.185483
0.185541
0.185541
0.185599
0.185657
0.185715
0.185773
0.185773
0.185831
0.18589
0.185948
0.186006
0.186006
0.186065
0.186123
0.186182
0.18624
0.18624
0.186299
0.186357
0.186416
0.186475
0.186475
0.186533
0.186592
0.186651
0.18671
0.18671
0.186768
0.186827
0.186886
0.186945
0.186945
0.187004
0.187063
0.187122
0.187181
0.187181
0.187241
0.1873
0.187359
0.187418
0.187418
0.187478
0.187537
0.187596
0.187656
0.187656
0.187715
0.187775
0.187834
0.187894
0.187894
0.187953
0.188013
0.188073
0.188132
0.188132
0.188192
0.188252
0.188312
0.188372
0.188372
0.188432
0.188492
0.188552
0.188612
0.188612
0.188672
0.188732
0.188792
0.188852
0.188852
0.188912
0.188973
0.189033
0.189093
0.189093
0.189154
0.189214
0.189275
0.189335
0.189335
0.189396
0.189456
0.189517
0.189577
0.189577
0.189638
0.189699
0.18976
0.18982
0.18982
0.189881
0.189942
0.190003
0.190064
0.190064
0.190125
0.190186
0.190247
0.190308
0.190308
0.19037
0.190431
0.190492
0.190553
0.190553
0.190615
0.190676
0.190737
0.190799
0.190799
0.19086
0.190922
0.190983
0.191045
0.191045
0.191106
0.191168
0.19123
0.191291
0.191291
0.191353
0.191415
0.191477
0.191539
0.191539
0.191601
0.191663
0.191725
0.191787
0.191787
0.191849
0.191911
0.191973
0.192035
0.192035
0.192098
0.19216
0.192222
0.192285
0.192285
0.192347
0.192409
0.192472
0.192534
0.192534
0.192597
0.19266
0.192722
0.192785
0.192785
0.192848
0.19291
0.192973
0.193036
0.193036
0.193099
0.193162
0.193225
0.193288
0.193288
0.193351
0.193414
0.193477
0.19354
0.19354
0.193603
0.193666
0.19373
0.193793
0.193793
0.193856
0.19392
0.193983
0.194046
0.194046
0.19411
0.194174
0.194237
0.194301
0.194301
0.194364
0.194428
0.194492
0.194556
0.194556
0.194619
0.194683
0.194747
0.194811
0.194811
0.194875
0.194939
0.195003
0.195067
0.195067
0.195131
0.195195
0.19526
0.195324
0.195324
0.195388
0.195452
0.195517
0.195581
0.195581
0.195646
0.19571
0.195775
0.195839
0.195839
0.195904
0.195968
0.196033
0.196098
0.196098
0.196162
0.196227
0.196292
0.196357
0.196357
0.196422
0.196487
0.196552
0.196617
0.196617
0.196682
0.196747
0.196812
0.196877
0.196877
0.196942
0.197008
0.197073
0.197138
0.197138
0.197204
0.197269
0.197335
0.1974
0.1974
0.197466
0.197531
0.197597
0.197662
0.197662
0.197728
0.197794
0.19786
0.197925
0.197925
0.197991
0.198057
0.198123
0.198189
0.198189
0.198255
0.198321
0.198387
0.198453
0.198453
0.19852
0.198586
0.198652
0.198718
0.198718
0.198785
0.198851
0.198917
0.198984
0.198984
0.19905
0.199117
0.199183
0.19925
0.19925
0.199317
0.199383
0.19945
0.199517
0.199517
0.199584
0.19965
0.199717
0.199784
0.199784
0.199851
0.199918
0.199985
0.200052
0.200052
0.20012
0.200187
0.200254
0.200321
0.200321
0.200388
0.200456
0.200523
0.20059
0.20059
0.200658
0.200725
0.200793
0.20086
0.20086
0.200928
0.200996
0.201063
0.201131
0.201131
0.201199
0.201267
0.201334
0.201402
0.201402
0.20147
0.201538
0.201606
0.201674
0.201674
0.201742
0.20181
0.201879
0.201947
0.201947
0.202015
0.202083
0.202152
0.20222
0.20222
0.202288
0.202357
0.202425
0.202494
0.202494
0.202562
0.202631
0.2027
0.202768
0.202768
0.202837
0.202906
0.202974
0.203043
0.203043
0.203112
0.203181
0.20325
0.203319
0.203319
0.203388
0.203457
0.203526
0.203595
0.203595
0.203665
0.203734
0.203803
0.203872
0.203872
0.203942
0.204011
0.204081
0.20415
0.20415
0.20422
0.204289
0.204359
0.204428
0.204428
0.204498
0.204568
0.204638
0.204707
0.204707
0.204777
0.204847
0.204917
0.204987
0.204987
0.205057
0.205127
0.205197
0.205267
0.205267
0.205337
0.205408
0.205478
0.205548
0.205548
0.205618
0.205689
0.205759
0.20583
0.20583
0.2059
0.205971
0.206041
0.206112
0.206112
0.206182
0.206253
0.206324
0.206394
0.206394
0.206465
0.206536
0.206607
0.206678
0.206678
0.206749
0.20682
0.206891
0.206962
0.206962
0.207033
0.207104
0.207176
0.207247
0.207247
0.207318
0.207389
0.207461
0.207532
0.207532
0.207604
0.207675
0.207747
0.207818
0.207818
0.20789
0.207961
0.208033
0.208105
0.208105
0.208177
0.208248
0.20832
0.208392
0.208392
0.208464
0.208536
0.208608
0.20868
0.20868
0.208752
0.208824
0.208897
0.208969
0.208969
0.209041
0.209113
0.209186
0.209258
0.209258
0.20933
0.209403
0.209475
0.209548
0.209548
0.209621
0.209693
0.209766
0.209838
0.209838
0.209911
0.209984
0.210057
0.21013
0.21013
0.210203
0.210276
0.210349
0.210422
0.210422
0.210495
0.210568
0.210641
0.210714
0.210714
0.210787
0.210861
0.210934
0.211007
0.211007
0.211081
0.211154
0.211228
0.211301
0.211301
0.211375
0.211448
0.211522
0.211596
0.211596
0.211669
0.211743
0.211817
0.211891
0.211891
0.211964
0.212038
0.212112
0.212186
0.212186
0.21226
0.212334
0.212409
0.212483
0.212483
0.212557
0.212631
0.212706
0.21278
0.21278
0.212854
0.212929
0.213003
0.213078
0.213078
0.213152
0.213227
0.213301
0.213376
0.213376
0.213451
0.213525
0.2136
0.213675
0.213675
0.21375
0.213825
0.2139
0.213975
0.213975
0.21405
0.214125
0.2142
0.214275
0.214275
0.21435
0.214425
0.214501
0.214576
0.214576
0.214651
0.214727
0.214802
0.214878
0.214878
0.214953
0.215029
0.215104
0.21518
0.21518
0.215256
0.215331
0.215407
0.215483
0.215483
0.215559
0.215635
0.21571
0.215786
0.215786
0.215862
0.215938
0.216015
0.216091
0.216091
0.216167
0.216243
0.216319
0.216396
0.216396
0.216472
0.216548
0.216625
0.216701
0.216701
0.216778
0.216854
0.216931
0.217007
0.217007
0.217084
0.217161
0.217238
0.217314
0.217314
0.217391
0.217468
0.217545
0.217622
0.217622
0.217699
0.217776
0.217853
0.21793
0.21793
0.218007
0.218084
0.218162
0.218239
0.218239
0.218316
0.218394
0.218471
0.218548
0.218548
0.218626
0.218703
0.218781
0.218859
0.218859
0.218936
0.219014
0.219092
0.219169
0.219169
0.219247
0.219325
0.219403
0.219481
0.219481
0.219559
0.219637
0.219715
0.219793
0.219793
0.219871
0.219949
0.220028
0.220106
0.220106
0.220184
0.220263
0.220341
0.220419
0.220419
0.220498
0.220576
0.220655
0.220734
0.220734
0.220812
0.220891
0.22097
0.221048
0.221048
0.221127
0.221206
0.221285
0.221364
0.221364
0.221443
0.221522
0.221601
0.22168
0.22168
0.221759
0.221838
0.221917
0.221997
0.221997
0.222076
0.222155
0.222235
0.222314
0.222314
0.222394
0.222473
0.222553
0.222632
0.222632
0.222712
0.222792
0.222871
0.222951
0.222951
0.223031
0.223111
0.22319
0.22327
0.22327
0.22335
0.22343
0.22351
0.223591
0.223591
0.223671
0.223751
0.223831
0.223911
0.223911
0.223992
0.224072
0.224152
0.224233
0.224233
0.224313
0.224394
0.224474
0.224555
0.224555
0.224635
0.224716
0.224797
0.224877
0.224877
0.224958
0.225039
0.22512
0.225201
0.225201
0.225282
0.225363
0.225444
0.225525
0.225525
0.225606
0.225687
0.225768
0.22585
0.22585
0.225931
0.226012
0.226094
0.226175
0.226175
0.226257
0.226338
0.22642
0.226501
0.226501
0.226583
0.226664
0.226746
0.226828
0.226828
0.22691
0.226992
0.227073
0.227155
0.227155
0.227237
0.227319
0.227401
0.227483
0.227483
0.227566
0.227648
0.22773
0.227812
0.227812
0.227894
0.227977
0.228059
0.228142
0.228142
0.228224
0.228306
0.228389
0.228472
0.228472
0.228554
0.228637
0.22872
0.228802
0.228802
0.228885
0.228968
0.229051
0.229134
0.229134
0.229217
0.2293
0.229383
0.229466
0.229466
0.229549
0.229632
0.229715
0.229799
0.229799
0.229882
0.229965
0.230049
0.230132
0.230132
0.230215
0.230299
0.230382
0.230466
0.230466
0.23055
0.230633
0.230717
0.230801
0.230801
0.230885
0.230968
0.231052
0.231136
0.231136
0.23122
0.231304
0.231388
0.231472
0.231472
0.231556
0.231641
0.231725
0.231809
0.231809
0.231893
0.231978
0.232062
0.232146
0.232146
0.232231
0.232315
0.2324
0.232485
0.232485
0.232569
0.232654
0.232739
0.232823
0.232823
0.232908
0.232993
0.233078
0.233163
0.233163
0.233248
0.233333
0.233418
0.233503
0.233503
0.233588
0.233673
0.233758
0.233844
0.233844
0.233929
0.234014
0.2341
0.234185
0.234185
0.23427
0.234356
0.234442
0.234527
0.234527
0.234613
0.234698
0.234784
0.23487
0.23487
0.234956
0.235042
0.235127
0.235213
0.235213
0.235299
0.235385
0.235471
0.235558
0.235558
0.235644
0.23573
0.235816
0.235902
0.235902
0.235989
0.236075
0.236161
0.236248
0.236248
0.236334
0.236421
0.236507
0.236594
0.236594
0.236681
0.236767
0.236854
0.236941
0.236941
0.237028
0.237114
0.237201
0.237288
0.237288
0.237375
0.237462
0.237549
0.237636
0.237636
0.237724
0.237811
0.237898
0.237985
0.237985
0.238073
0.23816
0.238247
0.238335
0.238335
0.238422
0.23851
0.238597
0.238685
0.238685
0.238773
0.23886
0.238948
0.239036
0.239036
0.239124
0.239211
0.239299
0.239387
0.239387
0.239475
0.239563
0.239651
0.23974
0.23974
0.239828
0.239916
0.240004
0.240092
0.240092
0.240181
0.240269
0.240358
0.240446
0.240446
0.240534
0.240623
0.240712
0.2408
0.2408
0.240889
0.240978
0.241066
0.241155
0.241155
0.241244
0.241333
0.241422
0.241511
0.241511
0.2416
0.241689
0.241778
0.241867
0.241867
0.241956
0.242045
0.242135
0.242224
0.242224
0.242313
0.242403
0.242492
0.242581
0.242581
0.242671
0.242761
0.24285
0.24294
0.24294
0.243029
0.243119
0.243209
0.243299
0.243299
0.243389
0.243478
0.243568
0.243658
0.243658
0.243748
0.243838
0.243929
0.244019
0.244019
0.244109
0.244199
0.244289
0.24438
0.24438
0.24447
0.24456
0.244651
0.244741
0.244741
0.244832
0.244922
0.245013
0.245104
0.245104
0.245194
0.245285
0.245376
0.245467
0.245467
0.245558
0.245648
0.245739
0.24583
0.24583
0.245921
0.246012
0.246104
0.246195
0.246195
0.246286
0.246377
0.246468
0.24656
0.24656
0.246651
0.246743
0.246834
0.246925
0.246925
0.247017
0.247109
0.2472
0.247292
0.247292
0.247384
0.247475
0.247567
0.247659
0.247659
0.247751
0.247843
0.247935
0.248027
0.248027
0.248119
0.248211
0.248303
0.248395
0.248395
0.248487
0.24858
0.248672
0.248764
0.248764
0.248857
0.248949
0.249042
0.249134
0.249134
0.249227
0.249319
0.249412
0.249505
0.249505
0.249597
0.24969
0.249783
0.249876
0.249876
0.249969