<?xml version="1.0"?>
<VTKFile type="UnstructuredGrid" version="0.1" byte_order="LittleEndian">
<UnstructuredGrid>
<Piece NumberOfPoints="5000" NumberOfCells="4000">
<PointData Scalars="Reaction 0">
<DataArray type="Float32" Name="Reaction 0" format="ascii">
0.359964
0.359964
0.359964
0.359964
0.359964
0.359964
0.359965
0.359965
0.359965
0.359965
0.359965
0.359965
0.359966
0.359966
0.359966
0.359966
0.359967
0.359967
0.359968
0.359968
0.359968
0.359969
0.359969
0.35997
0.35997
0.35997
0.359971
0.359971
0.359972
0.359973
0.359973
0.359974
0.359974
0.359975
0.359976
0.359976
0.359977
0.359978
0.359978
0.359979
0.359979
0.35998
0.359981
0.359982
0.359983
0.359983
0.359985
0.359986
0.359987
0.359988
0.359988
0.359989
0.35999
0.359992
0.359993
0.359993
0.359994
0.359996
0.359997
0.359998
0.359998
0.36
0.360001
0.360003
0.360004
0.360004
0.360006
0.360007
0.360009
0.360011
0.360011
0.360012
0.360014
0.360016
0.360018
0.360018
0.360019
0.360021
0.360023
0.360025
0.360025
0.360027
0.360029
0.360031
0.360033
0.360033
0.360035
0.360037
0.360039
0.360041
0.360041
0.360043
0.360045
0.360048
0.36005
0.36005
0.360052
0.360054
0.360057
0.360059
0.360059
0.360061
0.360064
0.360066
0.360069
0.360069
0.360071
0.360074
0.360076
0.360079
0.360079
0.360082
0.360084
0.360087
0.36009
0.36009
0.360092
0.360095
0.360098
0.360101
0.360101
0.360104
0.360106
0.360109
0.360112
0.360112
0.360115
0.360118
0.360121
0.360124
0.360124
0.360127
0.360131
0.360134
0.360137
0.360137
0.36014
0.360143
0.360147
0.36015
0.36015
0.360153
0.360157
0.36016
0.360163
0.360163
0.360167
0.36017
0.360174
0.360177
0.360177
0.360181
0.360185
0.360188
0.360192
0.360192
0.360196
0.360199
0.360203
0.360207
0.360207
0.360211
0.360214
0.360218
0.360222
0.360222
0.360226
0.36023
0.360234
0.360238
0.360238
0.360242
0.360246
0.36025
0.360254
0.360254
0.360259
0.360263
0.360267
0.360271
0.360271
0.360275
0.36028
0.360284
0.360289
0.360289
0.360293
0.360297
0.360302
0.360306
0.360306
0.360311
0.360315
0.36032
0.360325
0.360325
0.360329
0.360334
0.360338
0.360343
0.360343
0.360348
0.360353
0.360358
0.360362
0.360362
0.360367
0.360372
0.360377
0.360382
0.360382
0.360387
0.360392
0.360397
0.360402
0.360402
0.360407
0.360412
0.360418
0.360423
0.360423
0.360428
0.360433
0.360439
0.360444
0.360444
0.360449
0.360455
0.36046
0.360465
0.360465
0.360471
0.360476
0.360482
0.360487
0.360487
0.360493
0.360499
0.360504
0.36051
0.36051
0.360516
0.360521
0.360527
0.360533
0.360533
0.360539
0.360545
0.36055
0.360556
0.360556
0.360562
0.360568
0.360574
0.36058
0.36058
0.360586
0.360592
0.360599
0.360605
0.360605
0.360611
0.360617
0.360623
0.36063
0.36063
0.360636
0.360642
0.360648
0.360655
0.360655
0.360661
0.360668
0.360674
0.360681
0.360681
0.360687
0.360694
0.3607
0.360707
0.360707
0.360714
0.36072
0.360727
0.360734
0.360734
0.36074
0.360747
0.360754
0.360761
0.360761
0.360768
0.360775
0.360782
0.360789
0.360789
0.360796
0.360803
0.36081
0.360817
0.360817
0.360824
0.360831
0.360838
0.360845
0.360845
0.360853
0.36086
0.360867
0.360875
0.360875
0.360882
0.360889
0.360897
0.360904
0.360904
0.360912
0.360919
0.360927
0.360934
0.360934
0.360942
0.36095
0.360957
0.360965
0.360965
0.360973
0.36098
0.360988
0.360996
0.360996
0.361004
0.361012
0.361019
0.361027
0.361027
0.361035
0.361043
0.361051
0.361059
0.361059
0.361067
0.361075
0.361084
0.361092
0.361092
0.3611
0.361108
0.361116
0.361125
0.361125
0.361133
0.361141
0.36115
0.361158
0.361158
0.361166
0.361175
0.361183
0.361192
0.361192
0.3612
0.361209
0.361218
0.361226
0.361226
0.361235
0.361244
0.361252
0.361261
0.361261
0.36127
0.361279
0.361287
0.361296
0.361296
0.361305
0.361314
0.361323
0.361332
0.361332
0.361341
0.36135
0.361359
0.361368
0.361368
0.361377
0.361387
0.361396
0.361405
0.361405
0.361414
0.361423
0.361433
0.361442
0.361442
0.361452
0.361461
0.36147
0.36148
0.36148
0.361489
0.361499
0.361508
0.361518
0.361518
0.361527
0.361537
0.361547
0.361556
0.361556
0.361566
0.361576
0.361586
0.361596
0.361596
0.361605
0.361615
0.361625
0.361635
0.361635
0.361645
0.361655
0.361665
0.361675
0.361675
0.361685
0.361695
0.361705
0.361716
0.361716
0.361726
0.361736
0.361746
0.361756
0.361756
0.361767
0.361777
0.361788
0.361798
0.361798
0.361808
0.361819
0.361829
0.36184
0.36184
0.36185
0.361861
0.361872
0.361882
0.361882
0.361893
0.361904
0.361914
0.361925
0.361925
0.361936
0.361947
0.361957
0.361968
0.361968
0.361979
0.36199
0.362001
0.362012
0.362012
0.362023
0.362034
0.362045
0.362056
0.362056
0.362068
0.362079
0.36209
0.362101
0.362101
0.362112
0.362124
0.362135
0.362146
0.362146
0.362158
0.362169
0.362181
0.362192
0.362192
0.362203
0.362215
0.362227
0.362238
0.362238
0.36225
0.362261
0.362273
0.362285
0.362285
0.362296
0.362308
0.36232
0.362332
0.362332
0.362344
0.362356
0.362367
0.362379
0.362379
0.362391
0.362403
0.362415
0.362427
0.362427
0.36244
0.362452
0.362464
0.362476
0.362476
0.362488
0.3625
0.362513
0.362525
0.362525
0.362537
0.36255
0.362562
0.362574
0.362574
0.362587
0.362599
0.362612
0.362624
0.362624
0.362637
0.362649
0.362662
0.362675
0.362675
0.362687
0.3627
0.362713
0.362726
0.362726
0.362738
0.362751
0.362764
0.362777
0.362777
0.36279
0.362803
0.362816
0.362829
0.362829
0.362842
0.362855
0.362868
0.362881
0.362881
0.362894
0.362907
0.362921
0.362934
0.362934
0.362947
0.36296
0.362974
0.362987
0.362987
0.363
0.363014
0.363027
0.363041
0.363041
0.363054
0.363068
0.363081
0.363095
0.363095
0.363109
0.363122
0.363136
0.36315
0.36315
0.363163
0.363177
0.363191
0.363205
0.363205
0.363219
0.363232
0.363246
0.36326
0.36326
0.363274
0.363288
0.363302
0.363316
0.363316
0.36333
0.363345
0.363359
0.363373
0.363373
0.363387
0.363401
0.363416
0.36343
0.36343
0.363444
0.363459
0.363473
0.363487
0.363487
0.363502
0.363516
0.363531
0.363545
0.363545
0.36356
0.363575
0.363589
0.363604
0.363604
0.363618
0.363633
0.363648
0.363663
0.363663
0.363677
0.363692
0.363707
0.363722
0.363722
0.363737
0.363752
0.363767
0.363782
0.363782
0.363797
0.363812
0.363827
0.363842
0.363842
0.363857
0.363873
0.363888
0.363903
0.363903
0.363918
0.363934
0.363949
0.363964
0.363964
0.36398
0.363995
0.36401
0.364026
0.364026
0.364041
0.364057
0.364073
0.364088
0.364088
0.364104
0.364119
0.364135
0.364151
0.364151
0.364167
0.364182
0.364198
0.364214
0.364214
0.36423
0.364246
0.364262
0.364278
0.364278
0.364294
0.36431
0.364326
0.364342
0.364342
0.364358
0.364374
0.36439
0.364406
0.364406
0.364422
0.364439
0.364455
0.364471
0.364471
0.364488
0.364504
0.36452
0.364537
0.364537
0.364553
0.36457
0.364586
0.364603
0.364603
0.364619
0.364636
0.364652
0.364669
0.364669
0.364686
0.364703
0.364719
0.364736
0.364736
0.364753
0.36477
0.364787
0.364803
0.364803
0.36482
0.364837
0.364854
0.364871
0.364871
0.364888
0.364905
0.364922
0.36494
0.36494
0.364957
0.364974
0.364991
0.365008
0.365008
0.365026
0.365043
0.36506
0.365078
0.365078
0.365095
0.365112
0.36513
0.365147
0.365147
0.365165
0.365182
0.3652
0.365218
0.365218
0.365235
0.365253
0.365271
0.365288
0.365288
0.365306
0.365324
0.365342
0.365359
0.365359
0.365377
0.365395
0.365413
0.365431
0.365431
0.365449
0.365467
0.365485
0.365503
0.365503
0.365521
0.365539
0.365558
0.365576
0.365576
0.365594
0.365612
0.36563
0.365649
0.365649
0.365667
0.365685
0.365704
0.365722
0.365722
0.365741
0.365759
0.365778
0.365796
0.365796
0.365815
0.365833
0.365852
0.365871
0.365871
0.365889
0.365908
0.365927
0.365946
0.365946
0.365964
0.365983
0.366002
0.366021
0.366021
0.36604
0.366059
0.366078
0.366097
0.366097
0.366116
0.366135
0.366154
0.366173
0.366173
0.366192
0.366211
0.366231
0.36625
0.36625
0.366269
0.366289
0.366308
0.366327
0.366327
0.366347
0.366366
0.366385
0.366405
0.366405
0.366424
0.366444
0.366464
0.366483
0.366483
0.366503
0.366522
0.366542
0.366562
0.366562
0.366582
0.366601
0.366621
0.366641
0.366641
0.366661
0.366681
0.366701
0.366721
0.366721
0.366741
0.366761
0.366781
0.366801
0.366801
0.366821
0.366841
0.366861
0.366881
0.366881
0.366901
0.366922
0.366942
0.366962
0.366962
0.366983
0.367003
0.367023
0.367044
0.367044
0.367064
0.367085
0.367105
0.367126
0.367126
0.367146
0.367167
0.367188
0.367208
0.367208
0.367229
0.36725
0.36727
0.367291
0.367291
0.367312
0.367333
0.367354
0.367374
0.367374
0.367395
0.367416
0.367437
0.367458
0.367458
0.367479
0.3675
0.367521
0.367543
0.367543
0.367564
0.367585
0.367606
0.367627
0.367627
0.367649
0.36767
0.367691
0.367713
0.367713
0.367734
0.367755
0.367777
0.367798
0.367798
0.36782
0.367841
0.367863
0.367885
0.367885
0.367906
0.367928
0.36795
0.367971
0.367971
0.367993
0.368015
0.368037
0.368058
0.368058
0.36808
0.368102
0.368124
0.368146
0.368146
0.368168
0.36819
0.368212
0.368234
0.368234
0.368256
0.368278
0.3683
0.368323
0.368323
0.368345
0.368367
0.368389
0.368412
0.368412
0.368434
0.368456
0.368479
0.368501
0.368501
0.368524
0.368546
0.368568
0.368591
0.368591
0.368614
0.368636
0.368659
0.368681
0.368681
0.368704
0.368727
0.36875
0.368772
0.368772
0.368795
0.368818
0.368841
0.368864
0.368864
0.368887
0.36891
0.368933
0.368956
0.368956
0.368979
0.369002
0.369025
0.369048
0.369048
0.369071
0.369094
0.369117
0.369141
0.369141
0.369164
0.369187
0.36921
0.369234
0.369234
0.369257
0.369281
0.369304
0.369327
0.369327
0.369351
0.369375
0.369398
0.369422
0.369422
0.369445
0.369469
0.369493
0.369516
0.369516
0.36954
0.369564
0.369588
0.369611
0.369611
0.369635
0.369659
0.369683
0.369707
0.369707
0.369731
0.369755
0.369779
0.369803
0.369803
0.369827
0.369851
0.369875
0.3699
0.3699
0.369924
0.369948
0.369972
0.369997
0.369997
0.370021
0.370045
0.37007
0.370094
0.370094
0.370118
0.370143
0.370167
0.370192
0.370192
0.370216
0.370241
0.370266
0.37029
0.37029
0.370315
0.37034
0.370364
0.370389
0.370389
0.370414
0.370439
0.370464
0.370488
0.370488
0.370513
0.370538
0.370563
0.370588
0.370588
0.370613
0.370638
0.370663
0.370688
0.370688
0.370714
0.370739
0.370764
0.370789
0.370789
0.370814
0.37084
0.370865
0.37089
0.37089
0.370916
0.370941
0.370967
0.370992
0.370992
0.371018
0.371043
0.371069
0.371094
0.371094
0.37112
0.371145
0.371171
0.371197
0.371197
0.371223
0.371248
0.371274
0.3713
0.3713
0.371326
0.371352
0.371377
0.371403
0.371403
0.371429
0.371455
0.371481
0.371507
0.371507
0.371533
0.37156
0.371586
0.371612
0.371612
0.371638
0.371664
0.371691
0.371717
0.371717
0.371743
0.371769
0.371796
0.371822
0.371822
0.371849
0.371875
0.371902
0.371928
0.371928
0.371955
0.371981
0.372008
0.372034
0.372034
0.372061
0.372088
0.372114
0.372141
0.372141
0.372168
0.372195
0.372222
0.372248
0.372248
0.372275
0.372302
0.372329
0.372356
0.372356
0.372383
0.37241
0.372437
0.372464
0.372464
0.372492
0.372519
0.372546
0.372573
0.372573
0.3726
0.372628
0.372655
0.372682
0.372682
0.37271
0.372737
0.372764
0.372792
0.372792
0.372819
0.372847
0.372874
0.372902
0.372902
0.37293
0.372957
0.372985
0.373012
0.373012
0.37304
0.373068
0.373096
0.373123
0.373123
0.373151
0.373179
0.373207
0.373235
0.373235
0.373263
0.373291
0.373319
0.373347
0.373347
0.373375
0.373403
0.373431
0.373459
0.373459
0.373487
0.373516
0.373544
0.373572
0.373572
0.3736
0.373629
0.373657
0.373686
0.373686
0.373714
0.373742
0.373771
0.373799
0.373799
0.373828
0.373856
0.373885
0.373914
0.373914
0.373942
0.373971
0.374
0.374028
0.374028
0.374057
0.374086
0.374115
0.374144
0.374144
0.374172
0.374201
0.37423
0.374259
0.374259
0.374288
0.374317
0.374346
0.374375
0.374375
0.374404
0.374434
0.374463
0.374492
0.374492
0.374521
0.37455
0.37458
0.374609
0.374609
0.374638
0.374668
0.374697
0.374727
0.374727
0.374756
0.374786
0.374815
0.374845
0.374845
0.374874
0.374904
0.374933
0.374963
0.374963
0.374993
0.375022
0.375052
0.375082
0.375082
0.375112
0.375142
0.375172
0.375201
0.375201
0.375231
0.375261
0.375291
0.375321
0.375321
0.375351
0.375381
0.375411
0.375442
0.375442
0.375472
0.375502
0.375532
0.375562
0.375562
0.375593
0.375623
0.375653
0.375684
0.375684
0.375714
0.375744
0.375775
0.375805
0.375805
0.375836
0.375866
0.375897
0.375928
0.375928
0.375958
0.375989
0.37602
0.37605
0.37605
0.376081
0.376112
0.376143
0.376173
0.376173
0.376204
0.376235
0.376266
0.376297
0.376297
0.376328
0.376359
0.37639
0.376421
0.376421
0.376452
0.376483
0.376514
0.376546
0.376546
0.376577
0.376608
0.376639
0.376671
0.376671
0.376702
0.376733
0.376765
0.376796
0.376796
0.376827
0.376859
0.37689
0.376922
0.376922
0.376954
0.376985
0.377017
0.377048
0.377048
0.37708
0.377112
0.377143
0.377175
0.377175
0.377207
0.377239
0.377271
0.377302
0.377302
0.377334
0.377366
0.377398
0.37743
0.37743
0.377462
0.377494
0.377526
0.377559
0.377559
0.377591
0.377623
0.377655
0.377687
0.377687
0.377719
0.377752
0.377784
0.377816
0.377816
0.377849
0.377881
0.377914
0.377946
0.377946
0.377979
0.378011
0.378044
0.378076
0.378076
0.378109
0.378141
0.378174
0.378207
0.378207
0.378239
0.378272
0.378305
0.378338
0.378338
0.378371
0.378403
0.378436
0.378469
0.378469
0.378502
0.378535
0.378568
0.378601
0.378601
0.378634
0.378667
0.3787
0.378734
0.378734
0.378767
0.3788
0.378833
0.378867
0.378867
0.3789
0.378933
0.378966
0.379
0.379
0.379033
0.379067
0.3791
0.379134
0.379134
0.379167
0.379201
0.379234
0.379268
0.379268
0.379302
0.379335
0.379369
0.379403
0.379403
0.379436
0.37947
0.379504
0.379538
0.379538
0.379572
0.379606
0.37964
0.379674
0.379674
0.379708
0.379742
0.379776
0.37981
0.37981
0.379844
0.379878
0.379912
0.379946
0.379946
0.379981
0.380015
0.380049
0.380083
0.380083
0.380118
0.380152
0.380186
0.380221
0.380221
0.380255
0.38029
0.380324
0.380359
0.380359
0.380393
0.380428
0.380463
0.380497
0.380497
0.380532
0.380567
0.380601
0.380636
0.380636
0.380671
0.380706
0.380741
0.380776
0.380776
0.380811
0.380845
0.38088
0.380915
0.380915
0.380951
0.380986
0.381021
0.381056
0.381056
0.381091
0.381126
0.381161
0.381197
0.381197
0.381232
0.381267
0.381302
0.381338
0.381338
0.381373
0.381409
0.381444
0.381479
0.381479
0.381515
0.38155
0.381586
0.381622
0.381622
0.381657
0.381693
0.381729
0.381764
0.381764
0.3818
0.381836
0.381872
0.381907
0.381907
0.381943
0.381979
0.382015
0.382051
0.382051
0.382087
0.382123
0.382159
0.382195
0.382195
0.382231
0.382267
0.382303
0.382339
0.382339
0.382376
0.382412
0.382448
0.382484
0.382484
0.382521
0.382557
0.382593
0.38263
0.38263
0.382666
0.382703
0.382739
0.382776
0.382776
0.382812
0.382849
0.382885
0.382922
0.382922
0.382959
0.382995
0.383032
0.383069
0.383069
0.383105
0.383142
0.383179
0.383216
0.383216
0.383253
0.38329
0.383327
0.383364
0.383364
0.383401
0.383438
0.383475
0.383512
0.383512
0.383549
0.383586
0.383623
0.38366
0.38366
0.383698
0.383735
0.383772
0.38381
0.38381
0.383847
0.383884
0.383922
0.383959
0.383959
0.383997
0.384034
0.384072
0.384109
0.384109
0.384147
0.384184
0.384222
0.38426
0.38426
0.384297
0.384335
0.384373
0.384411
0.384411
0.384448
0.384486
0.384524
0.384562
0.384562
0.3846
0.384638
0.384676
0.384714
0.384714
0.384752
0.38479
0.384828
0.384866
0.384866
0.384904
0.384942
0.384981
0.385019
0.385019
0.385057
0.385095
0.385134
0.385172
0.385172
0.385211
0.385249
0.385287
0.385326
0.385326
0.385364
0.385403
0.385441
0.38548
0.38548
0.385519
0.385557
0.385596
0.385635
0.385635
0.385673
0.385712
0.385751
0.38579
0.38579
0.385829
0.385867
0.385906
0.385945
0.385945
0.385984
0.386023
0.386062
0.386101
0.386101
0.38614
0.386179
0.386219
0.386258
0.386258
0.386297
0.386336
0.386375
0.386415
0.386415
0.386454
0.386493
0.386533
0.386572
0.386572
0.386612
0.386651
0.38669
0.38673
0.38673
0.38677
0.386809
0.386849
0.386888
0.386888
0.386928
0.386968
0.387007
0.387047
0.387047
0.387087
0.387127
0.387166
0.387206
0.387206
0.387246
0.387286
0.387326
0.387366
0.387366
0.387406
0.387446
0.387486
0.387526
0.387526
0.387566
0.387606
0.387647
0.387687
0.387687
0.387727
0.387767
0.387808
0.387848
0.387848
0.387888
0.387929
0.387969
0.388009
0.388009
0.38805
0.38809
0.388131
0.388171
0.388171
0.388212
0.388253
0.388293
0.388334
0.388334
0.388375
0.388415
0.388456
0.388497
0.388497
0.388538
0.388578
0.388619
0.38866
0.38866
0.388701
0.388742
0.388783
0.388824
0.388824
0.388865
0.388906
0.388947
0.388988
0.388988
0.38903
0.389071
0.389112
0.389153
0.389153
0.389194
0.389236
0.389277
0.389318
0.389318
0.38936
0.389401
0.389443
0.389484
0.389484
0.389526
0.389567
0.389609
0.38965
0.38965
0.389692
0.389733
0.389775
0.389817
0.389817
0.389858
0.3899
0.389942
0.389984
0.389984
0.390026
0.390068
0.390109
0.390151
0.390151
0.390193
0.390235
0.390277
0.390319
0.390319
0.390361
0.390404
0.390446
0.390488
0.390488
0.39053
0.390572
0.390614
0.390657
0.390657
0.390699
0.390741
0.390784
0.390826
0.390826
0.390868
0.390911
0.390953
0.390996
0.390996
0.391038
0.391081
0.391124
0.391166
0.391166
0.391209
0.391251
0.391294
0.391337
0.391337
0.39138
0.391422
0.391465
0.391508
0.391508
0.391551
0.391594
0.391637
0.39168
0.39168
0.391723
0.391766
0.391809
0.391852
0.391852
0.391895
0.391938
0.391981
0.392024
0.392024
0.392068
0.392111
0.392154
0.392197
0.392197
0.392241
0.392284
0.392327
0.392371
0.392371
0.392414
0.392458
0.392501
0.392545
0.392545
0.392588
0.392632
0.392676
0.392719
0.392719
0.392763
0.392807
0.39285
0.392894
0.392894
0.392938
0.392982
0.393026
0.393069
0.393069
0.393113
0.393157
0.393201
0.393245
0.393245
0.393289
0.393333
0.393377
0.393421
0.393421
0.393466
0.39351
0.393554
0.393598
0.393598
0.393642
0.393687
0.393731
0.393775
0.393775
0.39382
0.393864
0.393908
0.393953
0.393953
0.393997
0.394042
0.394086
0.394131
0.394131
0.394176
0.39422
0.394265
0.39431
0.39431
0.394354
0.394399
0.394444
0.394488
0.394488
0.394533
0.394578
0.394623
0.394668
0.394668
0.394713
0.394758
0.394803
0.394848
0.394848
0.394893
0.394938
0.394983
0.395028
0.395028
0.395073
0.395119
0.395164
0.395209
0.395209
0.395254
0.3953
0.395345
0.39539
0.39539
0.395436
0.395481
0.395527
0.395572
0.395572
0.395618
0.395663
0.395709
0.395754
0.395754
0.3958
0.395845
0.395891
0.395937
0.395937
0.395983
0.396028
0.396074
0.39612
0.39612
0.396166
0.396212
0.396258
0.396304
0.396304
0.396349
0.396395
0.396441
0.396488
0.396488
0.396534
0.39658
0.396626
0.396672
0.396672
0.396718
0.396764
0.396811
0.396857
0.396857
0.396903
0.39695
0.396996
0.397042
0.397042
0.397089
0.397135
0.397182
0.397228
0.397228
0.397275
0.397321
0.397368
0.397414
0.397414
0.397461
0.397508
0.397554
0.397601
0.397601
0.397648
0.397695
0.397742
0.397788
0.397788
0.397835
0.397882
0.397929
0.397976
0.397976
0.398023
0.39807
0.398117
0.398164
0.398164
0.398211
0.398258
0.398306
0.398353
0.398353
0.3984
0.398447
0.398495
0.398542
0.398542
0.398589
0.398637
0.398684
0.398731
0.398731
0.398779
0.398826
0.398874
0.398921
0.398921
0.398969
0.399016
0.399064
0.399112
0.399112
0.399159
0.399207
0.399255
0.399303
0.399303
0.39935
0.399398
0.399446
0.399494
0.399494
0.399542
0.39959
0.399638
0.399686
0.399686
0.399734
0.399782
0.39983
0.399878
0.399878
0.399926
0.399974
0.400022
0.400071
0.400071
0.400119
0.400167
0.400215
0.400264
0.400264
0.400312
0.400361
0.400409
0.400457
0.400457
0.400506
0.400554
0.400603
0.400651
0.400651
0.4007
0.400749
0.400797
0.400846
0.400846
0.400895
0.400943
0.400992
0.401041
0.401041
0.40109
0.401139
0.401187
0.401236
0.401236
0.401285
0.401334
0.401383
0.401432
0.401432
0.401481
0.40153
0.401579
0.401629
0.401629
0.401678
0.401727
0.401776
0.401825
0.401825
0.401875
0.401924
0.401973
0.402023
0.402023
0.402072
0.402121
0.402171
0.40222
0.40222
0.40227
0.402319
0.402369
0.402418
0.402418
0.402468
0.402518
0.402567
0.402617
0.402617
0.402667
0.402717
0.402766
0.402816
0.402816
0.402866
0.402916
0.402966
0.403016
0.403016
0.403066
0.403116
0.403166
0.403216
0.403216
0.403266
0.403316
0.403366
0.403416
0.403416
0.403466
0.403516
0.403567
0.403617
0.403617
0.403667
0.403718
0.403768
0.403818
0.403818
0.403869
0.403919
0.40397
0.40402
0.40402
0.404071
0.404121
0.404172
0.404222
0.404222
0.404273
0.404324
0.404374
0.404425
0.404425
0.404476
0.404527
0.404577
0.404628
0.404628
0.404679
0.40473
0.404781
0.404832
0.404832
0.404883
0.404934
0.404985
0.405036
0.405036
0.405087
0.405138
0.405189
0.40524
0.40524
0.405292
0.405343
0.405394
0.405445
0.405445
0.405497
0.405548
0.405599
0.405651
0.405651
0.405702
0.405754
0.405805
0.405857
0.405857
0.405908
0.40596
0.406011
0.406063
0.406063
0.406115
0.406166
0.406218
0.40627
0.40627
0.406322
0.406373
0.406425
0.406477
0.406477
0.406529
0.406581
0.406633
0.406685
0.406685
0.406737
0.406789
0.406841
0.406893
0.406893
0.406945
0.406997
0.407049
0.407102
0.407102
0.407154
0.407206
0.407258
0.407311
0.407311
0.407363
0.407415
0.407468
0.40752
0.40752
0.407573
0.407625
0.407678
0.40773
0.40773
0.407783
0.407835
0.407888
0.407941
0.407941
0.407993
0.408046
0.408099
0.408151
0.408151
0.408204
0.408257
0.40831
0.408363
0.408363
0.408416
0.408469
0.408522
0.408575
0.408575
0.408628
0.408681
0.408734
0.408787
0.408787
0.40884
0.408893
0.408946
0.408999
0.408999
0.409053
0.409106
0.409159
0.409213
0.409213
0.409266
0.409319
0.409373
0.409426
0.409426
0.40948
0.409533
0.409587
0.40964
0.40964
0.409694
0.409747
0.409801
0.409855
0.409855
0.409908
0.409962
0.410016
0.41007
0.41007
0.410124
0.410177
0.410231
0.410285
0.410285
0.410339
0.410393
0.410447
0.410501
0.410501
0.410555
0.410609
0.410663
0.410717
0.410717
0.410771
0.410826
0.41088
0.410934
0.410934
0.410988
0.411043
0.411097
0.411151
0.411151
0.411206
0.41126
0.411315
0.411369
0.411369
0.411423
0.411478
0.411533
0.411587
0.411587
0.411642
0.411696
0.411751
0.411806
0.411806
0.41186
0.411915
0.41197
0.412025
0.412025
0.41208
0.412134
0.412189
0.412244
0.412244
0.412299
0.412354
0.412409
0.412464
0.412464
0.412519
0.412574
0.412629
0.412685
0.412685
0.41274
0.412795
0.41285
0.412905
0.412905
0.412961
0.413016
0.413071
0.413127
0.413127
0.413182
0.413238
0.413293
0.413348
0.413348
0.413404
0.413459
0.413515
0.413571
0.413571
0.413626
0.413682
0.413738
0.413793
0.413793
0.413849
0.413905
0.413961
0.414016
0.414016
0.414072
0.414128
0.414184
0.41424
0.41424
0.414296
0.414352
0.414408
0.414464
0.414464
0.41452
0.414576
0.414632
0.414688
0.414688
0.414745
0.414801
0.414857
0.414913
0.414913
0.41497
0.415026
0.415082
0.415139
0.415139
0.415195
0.415252
0.415308
0.415365
0.415365
0.415421
0.415478
0.415534
0.415591
0.415591
0.415647
0.415704
0.415761
0.415818
0.415818
0.415874
0.415931
0.415988
0.416045
0.416045
0.416102
0.416158
0.416215
0.416272
0.416272
0.416329
0.416386
0.416443
0.4165
0.4165
0.416558
0.416615
0.416672
0.416729
0.416729
0.416786
0.416843
0.416901
0.416958
0.416958
0.417015
0.417073
0.41713
0.417187
0.417187
0.417245
0.417302
0.41736
0.417417
0.417417
0.417475
0.417532
0.41759
0.417648
0.417648
0.417705
0.417763
0.417821
0.417878
0.417878
0.417936
0.417994
0.418052
0.41811
0.41811
0.418168
0.418225
0.418283
0.418341
0.418341
0.418399
0.418457
0.418515
0.418573
0.418573
0.418632
0.41869
0.418748
0.418806
0.418806
0.418864
0.418923
0.418981
0.419039
0.419039
0.419097
0.419156
0.419214
0.419273
0.419273
0.419331
0.41939
0.419448
0.419507
0.419507
0.419565
0.419624
0.419682
0.419741
0.419741
0.4198
0.419858
0.419917
0.419976
0.419976
0.420035
0.420093
0.420152
0.420211
0.420211
0.42027
0.420329
0.420388
0.420447
0.420447
0.420506
0.420565
0.420624
0.420683
0.420683
0.420742
0.420801
0.420861
0.42092
0.42092
0.420979
0.421038
0.421097
0.421157
0.421157
0.421216
0.421276
0.421335
0.421394
0.421394
0.421454
0.421513
0.421573
0.421632
0.421632
0.421692
0.421752
0.421811
0.421871
0.421871
0.421931
0.42199
0.42205
0.42211
0.42211
0.42217
0.422229
0.422289
0.422349
0.422349
0.422409
0.422469
0.422529
0.422589
0.422589
0.422649
0.422709
0.422769
0.422829
0.422829
0.422889
0.422949
0.42301
0.42307
0.42307
0.42313
0.42319
0.423251
0.423311
0.423311
0.423371
0.423432
0.423492
0.423553
0.423553
0.423613
0.423674
0.423734
0.423795
0.423795
0.423855
0.423916
0.423977
0.424037
0.424037
0.424098
0.424159
0.424219
0.42428
0.42428
0.424341
0.424402
0.424463
0.424524
0.424524
0.424585
0.424645
0.424706
0.424767
0.424767
0.424829
0.42489
0.424951
0.425012
0.425012
0.425073
0.425134
0.425195
0.425257
0.425257
0.425318
0.425379
0.42544
0.425502
0.425502
0.425563
0.425625
0.425686
0.425747
0.425747
0.425809
0.42587
0.425932
0.425994
0.425994
0.426055
0.426117
0.426178
0.42624
0.42624
0.426302
0.426364
0.426425
0.426487
0.426487
0.426549
0.426611
0.426673
0.426735
0.426735
0.426797
0.426859
0.426921
0.426983
0.426983
0.427045
0.427107
0.427169
0.427231
0.427231
0.427293
0.427355
0.427417
0.42748
0.42748
0.427542
0.427604
0.427667
0.427729
0.427729
0.427791
0.427854
0.427916
0.427979
0.427979
0.428041
0.428104
0.428166
0.428229
0.428229
0.428291
0.428354
0.428417
0.428479
0.428479
0.428542
0.428605
0.428668
0.428731
0.428731
0.428793
0.428856
0.428919
0.428982
0.428982
0.429045
0.429108
0.429171
0.429234
0.429234
0.429297
0.42936
0.429423
0.429486
0.429486
0.42955
0.429613
0.429676
0.429739
0.429739
0.429803
0.429866
0.429929
0.429993
0.429993
0.430056
0.430119
0.430183
0.430246
0.430246
0.43031
0.430373
0.430437
0.430501
0.430501
0.430564
0.430628
0.430692
0.430755
0.430755
0.430819
0.430883
0.430947
0.43101
0.43101
0.431074
0.431138
0.431202
0.431266
0.431266
0.43133
0.431394
0.431458
0.431522
0.431522
0.431586
0.43165
0.431714
0.431778
0.431778
0.431843
0.431907
0.431971
0.432035
0.432035
0.4321
0.432164
0.432228
0.432293
0.432293
0.432357
0.432422
0.432486
0.432551
0.432551
0.432615
0.43268
0.432744
0.432809
0.432809
0.432873
0.432938
0.433003
0.433068
0.433068
0.433132
0.433197
0.433262
0.433327
0.433327
0.433392
0.433456
0.433521
0.433586
0.433586
0.433651
0.433716
0.433781
0.433846
0.433846
0.433911
0.433977
0.434042
0.434107
0.434107
0.434172
0.434237
0.434303
0.434368
0.434368
0.434433
0.434498
0.434564
0.434629
0.434629
0.434695
0.43476
0.434826
0.434891
0.434891
0.434957
0.435022
0.435088
0.435153
0.435153
0.435219
0.435285
0.43535
0.435416
0.435416
0.435482
0.435548
0.435614
0.435679
0.435679
0.435745
0.435811
0.435877
0.435943
0.435943
0.436009
0.436075
0.436141
0.436207
0.436207
0.436273
0.436339
0.436406
0.436472
0.436472
0.436538
0.436604
0.43667
0.436737
0.436737
0.436803
0.436869
0.436936
0.437002
0.437002
0.437069
0.437135
0.437202
0.437268
0.437268
0.437335
0.437401
0.437468
0.437534
0.437534
0.437601
0.437668
0.437734
0.437801
0.437801
0.437868
0.437935
0.438002
0.438068
0.438068
0.438135
0.438202
0.438269
0.438336
0.438336
0.438403
0.43847
0.438537
0.438604
0.438604
0.438671
0.438739
0.438806
0.438873
0.438873
0.43894
0.439007
0.439075
0.439142
0.439142
0.439209
0.439277
0.439344
0.439412
0.439412
0.439479
0.439546
0.439614
0.439681
0.439681
0.439749
0.439817
0.439884
0.439952
0.439952
0.44002
0.440087
0.440155
0.440223
0.440223
0.44029
0.440358
0.440426
0.440494
0.440494
0.440562
0.44063
0.440698
0.440766
0.440766
0.440834
0.440902
0.44097
0.441038
0.441038
0.441106
0.441174
0.441242
0.441311
0.441311
0.441379
0.441447
0.441515
0.441584
0.441584
0.441652
0.44172
0.441789
0.441857
0.441857
0.441926
0.441994
0.442063
0.442131
0.442131
0.4422
0.442268
0.442337
0.442406
0.442406
0.442474
0.442543
0.442612
0.442681
0.442681
0.442749
0.442818
0.442887
0.442956
0.442956
0.443025
0.443094
0.443163
0.443232
0.443232
0.443301
0.44337
0.443439
0.443508
0.443508
0.443577
0.443646
0.443715
0.443785
0.443785
0.443854
0.443923
0.443992
0.444062
0.444062
0.444131
0.444201
0.44427
0.444339
0.444339
0.444409
0.444478
0.444548
0.444617
0.444617
0.444687
0.444757
0.444826
0.444896
0.444896
0.444966
0.445035
0.445105
0.445175
0.445175
0.445245
0.445315
0.445384
0.445454
0.445454
0.445524
0.445594
0.445664
0.445734
0.445734
0.445804
0.445874
0.445944
0.446014
0.446014
0.446085
0.446155
0.446225
0.446295
0.446295
0.446365
0.446436
0.446506
0.446576
0.446576
0.446647
0.446717
0.446788
0.446858
0.446858
0.446928
0.446999
0.447069
0.44714
0.44714
0.447211
0.447281
0.447352
0.447423
0.447423
0.447493
0.447564
0.447635
0.447706
0.447706
0.447776
0.447847
0.447918
0.447989
0.447989
0.44806
0.448131
0.448202
0.448273
0.448273
0.448344
0.448415
0.448486
0.448557
0.448557
0.448628
0.4487
0.448771
0.448842
0.448842
0.448913
0.448985
0.449056
0.449127
0.449127
0.449199
0.44927
0.449341
0.449413
0.449413
0.449484
0.449556
0.449627
0.449699
0.449699
0.449771
0.449842
0.449914
0.449986
0.449986
0.450057
0.450129
0.450201
0.450273
0.450273
0.450345
0.450416
0.450488
0.45056
0.45056
0.450632
0.450704
0.450776
0.450848
0.450848
0.45092
0.450992
0.451064
0.451136
0.451136
0.451209
0.451281
0.451353
0.451425
0.451425
0.451498
0.45157
0.451642
0.451715
0.451715
0.451787
0.451859
0.451932
0.452004
0.452004
0.452077
0.452149
0.452222
0.452295
0.452295
0.452367
0.45244
0.452512
0.452585
0.452585
0.452658
0.452731
0.452803
0.452876
0.452876
0.452949
0.453022
0.453095
0.453168
0.453168
0.453241
0.453314
0.453387
0.45346
0.45346
0.453533
0.453606
0.453679
0.453752
0.453752
0.453825
0.453899
0.453972
0.454045
0.454045
0.454118
0.454192
0.454265
0.454338
0.454338
0.454412
0.454485
0.454559
0.454632
0.454632
0.454706
0.454779
0.454853
0.454926
0.454926
0.455
0.455074
0.455147
0.455221
0.455221
0.455295
0.455369
0.455442
0.455516
0.455516
0.45559
0.455664
0.455738
0.455812
0.455812
0.455886
0.45596
0.456034
0.456108
0.456108
0.456182
0.456256
0.45633
0.456404
0.456404
0.456479
0.456553
0.456627
0.456701
0.456701
0.456776
0.45685
0.456924
0.456999
0.456999
0.457073
0.457148
0.457222
0.457297
0.457297
0.457371
0.457446
0.45752
0.457595
0.457595
0.457669
0.457744
0.457819
0.457894
0.457894
0.457968
0.458043
0.458118
0.458193
0.458193
0.458268
0.458343
0.458417
0.458492
0.458492
0.458567
0.458642
0.458717
0.458793
0.458793
0.458868
0.458943
0.459018
0.459093
0.459093
0.459168
0.459244
0.459319
0.459394
0.459394
0.459469
0.459545
0.45962
0.459696
0.459696
0.459771
0.459846
0.459922
0.459997
0.459997
0.460073
0.460149
0.460224
0.4603
0.4603
0.460375
0.460451
0.460527
0.460603
0.460603
0.460678
0.460754
0.46083
0.460906
0.460906
0.460982
0.461058
0.461134
0.46121
0.46121
0.461286
0.461362
0.461438
0.461514
0.461514
0.46159
0.461666
0.461742
0.461818
0.461818
0.461894
0.461971
0.462047
0.462123
0.462123
0.4622
0.462276
0.462352
0.462429
0.462429
0.462505
0.462582
0.462658
0.462735
0.462735
0.462811
0.462888
0.462965
0.463041
0.463041
0.463118
0.463195
0.463271
0.463348
0.463348
0.463425
0.463502
0.463579
0.463655
0.463655
0.463732
0.463809
0.463886
0.463963
0.463963
0.46404
0.464117
0.464194