<?xml version="1.0"?>
<VTKFile type="UnstructuredGrid" version="0.1" byte_order="LittleEndian">
<UnstructuredGrid>
<Piece NumberOfPoints="5000" NumberOfCells="4000">
<PointData Scalars="Reaction 0">
<DataArray type="Float32" Name="Reaction 0" format="ascii">
0.571239
0.571239
0.571239
0.571239
0.571239
0.571239
0.571239
0.571239
0.571239
0.571239
0.571239
0.571239
0.571239
0.571239
0.571239
0.571239
0.571239
0.571239
0.57124
0.57124
0.57124
0.57124
0.57124
0.57124
0.57124
0.57124
0.57124
0.57124
0.57124
0.57124
0.57124
0.57124
0.57124
0.57124
0.57124
0.57124
0.57124
0.571241
0.571241
0.571241
0.571241
0.571241
0.571241
0.571241
0.571241
0.571241
0.571241
0.571241
0.571242
0.571242
0.571242
0.571242
0.571242
0.571242
0.571242
0.571242
0.571242
0.571242
0.571243
0.571243
0.571243
0.571243
0.571243
0.571243
0.571243
0.571243
0.571244
0.571244
0.571244
0.571244
0.571244
0.571244
0.571244
0.571245
0.571245
0.571245
0.571245
0.571245
0.571245
0.571246
0.571246
0.571246
0.571246
0.571246
0.571246
0.571246
0.571247
0.571247
0.571247
0.571247
0.571247
0.571248
0.571248
0.571248
0.571248
0.571248
0.571248
0.571249
0.571249
0.571249
0.571249
0.571249
0.57125
0.57125
0.57125
0.57125
0.571251
0.571251
0.571251
0.571251
0.571251
0.571252
0.571252
0.571252
0.571252
0.571252
0.571253
0.571253
0.571253
0.571254
0.571254
0.571254
0.571254
0.571255
0.571255
0.571255
0.571255
0.571256
0.571256
0.571256
0.571256
0.571257
0.571257
0.571257
0.571258
0.571258
0.571258
0.571258
0.571259
0.571259
0.571259
0.571259
0.57126
0.57126
0.57126
0.57126
0.571261
0.571261
0.571261
0.571262
0.571262
0.571262
0.571263
0.571263
0.571263
0.571263
0.571264
0.571264
0.571265
0.571265
0.571265
0.571265
0.571266
0.571266
0.571267
0.571267
0.571267
0.571267
0.571268
0.571268
0.571268
0.571269
0.571269
0.57127
0.57127
0.57127
0.57127
0.571271
0.571271
0.571272
0.571272
0.571272
0.571273
0.571273
0.571274
0.571274
0.571274
0.571275
0.571275
0.571276
0.571276
0.571276
0.571277
0.571277
0.571278
0.571278
0.571278
0.571279
0.571279
0.57128
0.57128
0.57128
0.571281
0.571281
0.571282
0.571282
0.571282
0.571283
0.571283
0.571284
0.571284
0.571284
0.571285
0.571285
0.571286
0.571286
0.571286
0.571287
0.571287
0.571288
0.571288
0.571289
0.571289
0.57129
0.57129
0.57129
0.571291
0.571291
0.571292
0.571293
0.571293
0.571293
0.571294
0.571294
0.571295
0.571295
0.571296
0.571296
0.571297
0.571297
0.571297
0.571298
0.571299
0.571299
0.5713
0.5713
0.5713
0.571301
0.571302
0.571302
0.571302
0.571303
0.571304
0.571304
0.571305
0.571305
0.571305
0.571306
0.571307
0.571307
0.571307
0.571308
0.571309
0.571309
0.57131
0.57131
0.571311
0.571311
0.571312
0.571313
0.571313
0.571314
0.571314
0.571315
0.571316
0.571316
0.571316
0.571317
0.571318
0.571318
0.571318
0.571319
0.57132
0.571321
0.571321
0.571321
0.571322
0.571323
0.571323
0.571324
0.571324
0.571325
0.571326
0.571326
0.571327
0.571327
0.571328
0.571329
0.571329
0.57133
0.57133
0.571331
0.571332
0.571333
0.571333
0.571333
0.571334
0.571335
0.571336
0.571336
0.571336
0.571337
0.571338
0.571339
0.57134
0.57134
0.57134
0.571341
0.571342
0.571343
0.571343
0.571344
0.571344
0.571345
0.571346
0.571346
0.571347
0.571348
0.571349
0.571349
0.571349
0.57135
0.571351
0.571352
0.571353
0.571353
0.571354
0.571355
0.571355
0.571356
0.571356
0.571357
0.571358
0.571359
0.57136
0.57136
0.571361
0.571362
0.571362
0.571363
0.571363
0.571364
0.571365
0.571366
0.571367
0.571367
0.571368
0.571369
0.57137
0.571371
0.571371
0.571371
0.571372
0.571373
0.571374
0.571374
0.571375
0.571376
0.571377
0.571378
0.571378
0.571379
0.57138
0.571381
0.571382
0.571382
0.571383
0.571384
0.571385
0.571386
0.571386
0.571387
0.571388
0.571389
0.57139
0.57139
0.571391
0.571392
0.571393
0.571394
0.571394
0.571395
0.571396
0.571397
0.571398
0.571398
0.571399
0.5714
0.571401
0.571402
0.571402
0.571403
0.571404
0.571405
0.571406
0.571406
0.571407
0.571408
0.571409
0.57141
0.57141
0.571411
0.571412
0.571413
0.571414
0.571414
0.571415
0.571416
0.571417
0.571418
0.571418
0.57142
0.571421
0.571422
0.571423
0.571423
0.571424
0.571425
0.571426
0.571427
0.571427
0.571428
0.571429
0.571431
0.571432
0.571432
0.571433
0.571434
0.571435
0.571436
0.571436
0.571437
0.571438
0.57144
0.571441
0.571441
0.571442
0.571443
0.571444
0.571445
0.571445
0.571446
0.571448
0.571449
0.57145
0.57145
0.571451
0.571452
0.571454
0.571455
0.571455
0.571456
0.571457
0.571458
0.571459
0.571459
0.571461
0.571462
0.571463
0.571464
0.571464
0.571466
0.571467
0.571468
0.571469
0.571469
0.57147
0.571472
0.571473
0.571474
0.571474
0.571475
0.571477
0.571478
0.571479
0.571479
0.57148
0.571482
0.571483
0.571484
0.571484
0.571485
0.571487
0.571488
0.571489
0.571489
0.571491
0.571492
0.571493
0.571494
0.571494
0.571496
0.571497
0.571498
0.5715
0.5715
0.571501
0.571502
0.571504
0.571505
0.571505
0.571506
0.571507
0.571509
0.57151
0.57151
0.571511
0.571513
0.571514
0.571516
0.571516
0.571517
0.571518
0.57152
0.571521
0.571521
0.571522
0.571524
0.571525
0.571526
0.571526
0.571528
0.571529
0.571531
0.571532
0.571532
0.571533
0.571535
0.571536
0.571538
0.571538
0.571539
0.57154
0.571542
0.571543
0.571543
0.571545
0.571546
0.571547
0.571549
0.571549
0.57155
0.571552
0.571553
0.571555
0.571555
0.571556
0.571558
0.571559
0.57156
0.57156
0.571562
0.571563
0.571565
0.571566
0.571566
0.571568
0.571569
0.571571
0.571572
0.571572
0.571574
0.571575
0.571577
0.571578
0.571578
0.57158
0.571581
0.571583
0.571584
0.571584
0.571586
0.571587
0.571589
0.57159
0.57159
0.571592
0.571593
0.571595
0.571597
0.571597
0.571598
0.5716
0.571601
0.571603
0.571603
0.571604
0.571606
0.571607
0.571609
0.571609
0.571611
0.571612
0.571614
0.571615
0.571615
0.571617
0.571619
0.57162
0.571622
0.571622
0.571623
0.571625
0.571627
0.571628
0.571628
0.57163
0.571631
0.571633
0.571635
0.571635
0.571636
0.571638
0.57164
0.571641
0.571641
0.571643
0.571644
0.571646
0.571648
0.571648
0.571649
0.571651
0.571653
0.571654
0.571654
0.571656
0.571658
0.571659
0.571661
0.571661
0.571663
0.571665
0.571666
0.571668
0.571668
0.57167
0.571671
0.571673
0.571675
0.571675
0.571676
0.571678
0.57168
0.571682
0.571682
0.571683
0.571685
0.571687
0.571689
0.571689
0.57169
0.571692
0.571694
0.571696
0.571696
0.571697
0.571699
0.571701
0.571703
0.571703
0.571704
0.571706
0.571708
0.57171
0.57171
0.571712
0.571713
0.571715
0.571717
0.571717
0.571719
0.571721
0.571722
0.571724
0.571724
0.571726
0.571728
0.57173
0.571732
0.571732
0.571733
0.571735
0.571737
0.571739
0.571739
0.571741
0.571743
0.571744
0.571746
0.571746
0.571748
0.57175
0.571752
0.571754
0.571754
0.571756
0.571758
0.571759
0.571761
0.571761
0.571763
0.571765
0.571767
0.571769
0.571769
0.571771
0.571773
0.571775
0.571777
0.571777
0.571779
0.57178
0.571782
0.571784
0.571784
0.571786
0.571788
0.57179
0.571792
0.571792
0.571794
0.571796
0.571798
0.5718
0.5718
0.571802
0.571804
0.571806
0.571808
0.571808
0.57181
0.571812
0.571814
0.571816
0.571816
0.571818
0.57182
0.571822
0.571824
0.571824
0.571826
0.571828
0.57183
0.571832
0.571832
0.571834
0.571836
0.571838
0.57184
0.57184
0.571842
0.571844
0.571846
0.571848
0.571848
0.57185
0.571852
0.571854
0.571857
0.571857
0.571859
0.571861
0.571863
0.571865
0.571865
0.571867
0.571869
0.571871
0.571873
0.571873
0.571875
0.571877
0.571879
0.571882
0.571882
0.571884
0.571886
0.571888
0.57189
0.57189
0.571892
0.571894
0.571896
0.571899
0.571899
0.571901
0.571903
0.571905
0.571907
0.571907
0.571909
0.571912
0.571914
0.571916
0.571916
0.571918
0.57192
0.571923
0.571925
0.571925
0.571927
0.571929
0.571931
0.571934
0.571934
0.571936
0.571938
0.57194
0.571943
0.571943
0.571945
0.571947
0.571949
0.571951
0.571951
0.571954
0.571956
0.571958
0.57196
0.57196
0.571963
0.571965
0.571967
0.57197
0.57197
0.571972
0.571974
0.571976
0.571979
0.571979
0.571981
0.571983
0.571986
0.571988
0.571988
0.57199
0.571993
0.571995
0.571997
0.571997
0.571999
0.572002
0.572004
0.572006
0.572006
0.572009
0.572011
0.572014
0.572016
0.572016
0.572018
0.572021
0.572023
0.572025
0.572025
0.572028
0.57203
0.572032
0.572035
0.572035
0.572037
0.57204
0.572042
0.572044
0.572044
0.572047
0.572049
0.572052
0.572054
0.572054
0.572056
0.572059
0.572061
0.572064
0.572064
0.572066
0.572069
0.572071
0.572074
0.572074
0.572076
0.572078
0.572081
0.572083
0.572083
0.572086
0.572088
0.572091
0.572093
0.572093
0.572096
0.572098
0.572101
0.572103
0.572103
0.572106
0.572108
0.572111
0.572113
0.572113
0.572116
0.572118
0.572121
0.572123
0.572123
0.572126
0.572128
0.572131
0.572134
0.572134
0.572136
0.572139
0.572141
0.572144
0.572144
0.572146
0.572149
0.572152
0.572154
0.572154
0.572157
0.572159
0.572162
0.572164
0.572164
0.572167
0.57217
0.572172
0.572175
0.572175
0.572178
0.57218
0.572183
0.572185
0.572185
0.572188
0.572191
0.572193
0.572196
0.572196
0.572199
0.572201
0.572204
0.572207
0.572207
0.572209
0.572212
0.572215
0.572217
0.572217
0.57222
0.572223
0.572225
0.572228
0.572228
0.572231
0.572234
0.572236
0.572239
0.572239
0.572242
0.572244
0.572247
0.57225
0.57225
0.572253
0.572255
0.572258
0.572261
0.572261
0.572264
0.572266
0.572269
0.572272
0.572272
0.572275
0.572277
0.57228
0.572283
0.572283
0.572286
0.572289
0.572291
0.572294
0.572294
0.572297
0.5723
0.572303
0.572305
0.572305
0.572308
0.572311
0.572314
0.572317
0.572317
0.57232
0.572322
0.572325
0.572328
0.572328
0.572331
0.572334
0.572337
0.57234
0.57234
0.572342
0.572345
0.572348
0.572351
0.572351
0.572354
0.572357
0.57236
0.572363
0.572363
0.572366
0.572369
0.572371
0.572374
0.572374
0.572377
0.57238
0.572383
0.572386
0.572386
0.572389
0.572392
0.572395
0.572398
0.572398
0.572401
0.572404
0.572407
0.57241
0.57241
0.572413
0.572416
0.572419
0.572422
0.572422
0.572425
0.572428
0.572431
0.572434
0.572434
0.572437
0.57244
0.572443
0.572446
0.572446
0.572449
0.572452
0.572455
0.572458
0.572458
0.572461
0.572464
0.572467
0.57247
0.57247
0.572473
0.572476
0.572479
0.572482
0.572482
0.572486
0.572489
0.572492
0.572495
0.572495
0.572498
0.572501
0.572504
0.572507
0.572507
0.572511
0.572514
0.572517
0.57252
0.57252
0.572523
0.572526
0.572529
0.572533
0.572533
0.572536
0.572539
0.572542
0.572545
0.572545
0.572549
0.572552
0.572555
0.572558
0.572558
0.572561
0.572564
0.572568
0.572571
0.572571
0.572574
0.572577
0.572581
0.572584
0.572584
0.572587
0.57259
0.572594
0.572597
0.572597
0.5726
0.572603
0.572607
0.57261
0.57261
0.572613
0.572616
0.57262
0.572623
0.572623
0.572626
0.57263
0.572633
0.572636
0.572636
0.57264
0.572643
0.572646
0.572649
0.572649
0.572653
0.572656
0.572659
0.572663
0.572663
0.572666
0.57267
0.572673
0.572676
0.572676
0.57268
0.572683
0.572686
0.57269
0.57269
0.572693
0.572697
0.5727
0.572703
0.572703
0.572707
0.57271
0.572714
0.572717
0.572717
0.57272
0.572724
0.572727
0.572731
0.572731
0.572734
0.572738
0.572741
0.572745
0.572745
0.572748
0.572752
0.572755
0.572758
0.572758
0.572762
0.572765
0.572769
0.572772
0.572772
0.572776
0.572779
0.572783
0.572787
0.572787
0.57279
0.572794
0.572797
0.572801
0.572801
0.572804
0.572808
0.572811
0.572815
0.572815
0.572818
0.572822
0.572826
0.572829
0.572829
0.572833
0.572836
0.57284
0.572844
0.572844
0.572847
0.572851
0.572854
0.572858
0.572858
0.572862
0.572865
0.572869
0.572872
0.572872
0.572876
0.57288
0.572883
0.572887
0.572887
0.572891
0.572894
0.572898
0.572902
0.572902
0.572905
0.572909
0.572913
0.572917
0.572917
0.57292
0.572924
0.572928
0.572931
0.572931
0.572935
0.572939
0.572943
0.572946
0.572946
0.57295
0.572954
0.572958
0.572961
0.572961
0.572965
0.572969
0.572973
0.572976
0.572976
0.57298
0.572984
0.572988
0.572992
0.572992
0.572995
0.572999
0.573003
0.573007
0.573007
0.573011
0.573014
0.573018
0.573022
0.573022
0.573026
0.57303
0.573034
0.573037
0.573037
0.573041
0.573045
0.573049
0.573053
0.573053
0.573057
0.573061
0.573064
0.573068
0.573068
0.573072
0.573076
0.57308
0.573084
0.573084
0.573088
0.573092
0.573096
0.5731
0.5731
0.573104
0.573108
0.573112
0.573116
0.573116
0.57312
0.573124
0.573128
0.573132
0.573132
0.573136
0.57314
0.573144
0.573148
0.573148
0.573152
0.573156
0.57316
0.573164
0.573164
0.573168
0.573172
0.573176
0.57318
0.57318
0.573184
0.573188
0.573192
0.573197
0.573197
0.573201
0.573205
0.573209
0.573213
0.573213
0.573217
0.573221
0.573225
0.573229
0.573229
0.573233
0.573238
0.573242
0.573246
0.573246
0.57325
0.573254
0.573258
0.573263
0.573263
0.573267
0.573271
0.573275
0.573279
0.573279
0.573283
0.573288
0.573292
0.573296
0.573296
0.5733
0.573304
0.573309
0.573313
0.573313
0.573317
0.573321
0.573326
0.57333
0.57333
0.573334
0.573338
0.573343
0.573347
0.573347
0.573351
0.573356
0.57336
0.573364
0.573364
0.573368
0.573373
0.573377
0.573381
0.573381
0.573386
0.57339
0.573394
0.573399
0.573399
0.573403
0.573407
0.573412
0.573416
0.573416
0.57342
0.573425
0.573429
0.573434
0.573434
0.573438
0.573442
0.573447
0.573451
0.573451
0.573456
0.57346
0.573464
0.573469
0.573469
0.573473
0.573478
0.573482
0.573487
0.573487
0.573491
0.573496
0.5735
0.573505
0.573505
0.573509
0.573514
0.573518
0.573523
0.573523
0.573527
0.573532
0.573536
0.573541
0.573541
0.573545
0.57355
0.573554
0.573559
0.573559
0.573563
0.573568
0.573572
0.573577
0.573577
0.573582
0.573586
0.573591
0.573595
0.573595
0.5736
0.573605
0.573609
0.573614
0.573614
0.573618
0.573623
0.573628
0.573632
0.573632
0.573637
0.573642
0.573646
0.573651
0.573651
0.573656
0.57366
0.573665
0.57367
0.57367
0.573674
0.573679
0.573684
0.573688
0.573688
0.573693
0.573698
0.573702
0.573707
0.573707
0.573712
0.573717
0.573721
0.573726
0.573726
0.573731
0.573736
0.573741
0.573745
0.573745
0.57375
0.573755
0.57376
0.573765
0.573765
0.57377
0.573774
0.573779
0.573784
0.573784
0.573789
0.573794
0.573799
0.573804
0.573804
0.573808
0.573813
0.573818
0.573823
0.573823
0.573828
0.573833
0.573838
0.573843
0.573843
0.573848
0.573853
0.573857
0.573862
0.573862
0.573867
0.573872
0.573877
0.573882
0.573882
0.573887
0.573892
0.573897
0.573902
0.573902
0.573907
0.573912
0.573917
0.573922
0.573922
0.573927
0.573932
0.573937
0.573942
0.573942
0.573947
0.573952
0.573957
0.573962
0.573962
0.573968
0.573973
0.573978
0.573983
0.573983
0.573988
0.573993
0.573998
0.574003
0.574003
0.574008
0.574013
0.574019
0.574024
0.574024
0.574029
0.574034
0.574039
0.574044
0.574044
0.57405
0.574055
0.57406
0.574065
0.574065
0.57407
0.574075
0.574081
0.574086
0.574086
0.574091
0.574096
0.574102
0.574107
0.574107
0.574112
0.574117
0.574123
0.574128
0.574128
0.574133
0.574138
0.574144
0.574149
0.574149
0.574154
0.57416
0.574165
0.57417
0.57417
0.574176
0.574181
0.574186
0.574192
0.574192
0.574197
0.574202
0.574208
0.574213
0.574213
0.574218
0.574224
0.574229
0.574235
0.574235
0.57424
0.574245
0.574251
0.574256
0.574256
0.574262
0.574267
0.574273
0.574278
0.574278
0.574284
0.574289
0.574295
0.5743
0.5743
0.574305
0.574311
0.574316
0.574322
0.574322
0.574327
0.574333
0.574338
0.574344
0.574344
0.574349
0.574355
0.574361
0.574366
0.574366
0.574372
0.574377
0.574383
0.574388
0.574388
0.574394
0.574399
0.574405
0.574411
0.574411
0.574416
0.574422
0.574428
0.574433
0.574433
0.574439
0.574445
0.574451
0.574456
0.574456
0.574462
0.574468
0.574473
0.574479
0.574479
0.574485
0.574491
0.574496
0.574502
0.574502
0.574508
0.574514
0.574519
0.574525
0.574525
0.574531
0.574537
0.574542
0.574548
0.574548
0.574554
0.57456
0.574566
0.574571
0.574571
0.574577
0.574583
0.574589
0.574595
0.574595
0.574601
0.574606
0.574612
0.574618
0.574618
0.574624
0.57463
0.574636
0.574642
0.574642
0.574648
0.574654
0.57466
0.574666
0.574666
0.574671
0.574677
0.574683
0.574689
0.574689
0.574695
0.574701
0.574707
0.574713
0.574713
0.574719
0.574725
0.574731
0.574737
0.574737
0.574743
0.574749
0.574755
0.574761
0.574761
0.574768
0.574774
0.57478
0.574786
0.574786
0.574792
0.574798
0.574804
0.57481
0.57481
0.574816
0.574822
0.574829
0.574835
0.574835
0.574841
0.574847
0.574853
0.574859
0.574859
0.574866
0.574872
0.574878
0.574884
0.574884
0.57489
0.574897
0.574903
0.574909
0.574909
0.574915
0.574921
0.574928
0.574934
0.574934
0.57494
0.574947
0.574953
0.574959
0.574959
0.574965
0.574972
0.574978
0.574984
0.574984
0.574991
0.574997
0.575003
0.57501
0.57501
0.575016
0.575022
0.575029
0.575035
0.575035
0.575042
0.575048
0.575054
0.575061
0.575061
0.575067
0.575074
0.57508
0.575086
0.575086
0.575093
0.575099
0.575106
0.575112
0.575112
0.575119
0.575125
0.575132
0.575138
0.575138
0.575145
0.575151
0.575158
0.575164
0.575164
0.575171
0.575178
0.575184
0.575191
0.575191
0.575197
0.575204
0.575211
0.575217
0.575217
0.575224
0.57523
0.575237
0.575244
0.575244
0.57525
0.575257
0.575264
0.57527
0.57527
0.575277
0.575284
0.575291
0.575297
0.575297
0.575304
0.575311
0.575317
0.575324
0.575324
0.575331
0.575338
0.575344
0.575351
0.575351
0.575358
0.575365
0.575372
0.575378
0.575378
0.575385
0.575392
0.575399
0.575406
0.575406
0.575412
0.575419
0.575426
0.575433
0.575433
0.57544
0.575447
0.575454
0.575461
0.575461
0.575468
0.575474
0.575481
0.575488
0.575488
0.575495
0.575502
0.575509
0.575516
0.575516
0.575523
0.57553
0.575537
0.575544
0.575544
0.575551
0.575558
0.575565
0.575572
0.575572
0.575579
0.575586
0.575593
0.5756
0.5756
0.575608
0.575615
0.575622
0.575629
0.575629
0.575636
0.575643
0.57565
0.575657
0.575657
0.575665
0.575672
0.575679
0.575686
0.575686
0.575693
0.5757
0.575708
0.575715
0.575715
0.575722
0.575729
0.575736
0.575744
0.575744
0.575751
0.575758
0.575766
0.575773
0.575773
0.57578
0.575787
0.575795
0.575802
0.575802
0.575809
0.575817
0.575824
0.575831
0.575831
0.575839
0.575846
0.575853
0.575861
0.575861
0.575868
0.575875
0.575883
0.57589
0.57589
0.575897
0.575905
0.575912
0.57592
0.57592
0.575927
0.575935
0.575942
0.57595
0.57595
0.575957
0.575965
0.575973
0.57598
0.57598
0.575988
0.575995
0.576003
0.57601
0.57601
0.576018
0.576026
0.576033
0.576041
0.576041
0.576048
0.576056
0.576064
0.576071
0.576071
0.576079
0.576087
0.576094
0.576102
0.576102
0.57611
0.576117
0.576125
0.576133
0.576133
0.576141
0.576148
0.576156
0.576164
0.576164
0.576172
0.576179
0.576187
0.576195
0.576195
0.576203
0.576211
0.576218
0.576226
0.576226
0.576234
0.576242
0.57625
0.576258
0.576258
0.576265
0.576273
0.576281
0.576289
0.576289
0.576297
0.576305
0.576313
0.576321
0.576321
0.576329
0.576337
0.576345
0.576353
0.576353
0.576361
0.576369
0.576377
0.576385
0.576385
0.576393
0.576401
0.576409
0.576417
0.576417
0.576425
0.576433
0.576441
0.576449
0.576449
0.576457
0.576465
0.576474
0.576482
0.576482
0.57649
0.576498
0.576506
0.576514
0.576514
0.576522
0.576531
0.576539
0.576547
0.576547
0.576555
0.576564
0.576572
0.57658
0.57658
0.576588
0.576597
0.576605
0.576613
0.576613
0.576621
0.57663
0.576638
0.576646
0.576646
0.576655
0.576663
0.576671
0.57668
0.57668
0.576688
0.576696
0.576705
0.576713
0.576713
0.576721
0.57673
0.576738
0.576747
0.576747
0.576755
0.576764
0.576772
0.576781
0.576781
0.576789
0.576798
0.576806
0.576815
0.576815
0.576824
0.576832
0.576841
0.576849
0.576849
0.576858
0.576867
0.576875
0.576884
0.576884
0.576892
0.576901
0.57691
0.576918
0.576918
0.576927
0.576936
0.576944
0.576953
0.576953
0.576962
0.576971
0.576979
0.576988
0.576988
0.576997
0.577006
0.577014
0.577023
0.577023
0.577032
0.577041
0.57705
0.577058
0.577058
0.577067
0.577076
0.577085
0.577094
0.577094
0.577103
0.577112
0.57712
0.577129
0.577129
0.577138
0.577147
0.577156
0.577165
0.577165
0.577174
0.577183
0.577192
0.577201
0.577201
0.57721
0.577219
0.577228
0.577237
0.577237
0.577246
0.577255
0.577264
0.577273
0.577273
0.577283
0.577292
0.577301
0.57731
0.57731
0.577319
0.577328
0.577337
0.577347
0.577347
0.577356
0.577365
0.577374
0.577383
0.577383
0.577393
0.577402
0.577411
0.57742
0.57742
0.57743
0.577439
0.577448
0.577457
0.577457
0.577467
0.577476
0.577485
0.577495
0.577495
0.577504
0.577513
0.577523
0.577532
0.577532
0.577542
0.577551
0.57756
0.57757
0.57757
0.577579
0.577588
0.577598
0.577607
0.577607
0.577617
0.577626
0.577636
0.577645
0.577645
0.577655
0.577665
0.577674
0.577684
0.577684
0.577694
0.577703
0.577713
0.577722
0.577722
0.577732
0.577742
0.577751
0.577761
0.577761
0.577771
0.577781
0.57779
0.5778
0.5778
0.57781
0.57782
0.577829
0.577839
0.577839
0.577849
0.577859
0.577868
0.577878
0.577878
0.577888
0.577898
0.577908
0.577918
0.577918
0.577928
0.577937
0.577947
0.577957
0.577957
0.577967
0.577977
0.577987
0.577997
0.577997
0.578007
0.578017
0.578027
0.578037
0.578037
0.578047
0.578057
0.578067
0.578077
0.578077
0.578087
0.578097
0.578107
0.578117
0.578117
0.578127
0.578138
0.578148
0.578158
0.578158
0.578168
0.578178
0.578188
0.578199
0.578199
0.578209
0.578219
0.578229
0.578239
0.578239
0.57825
0.57826
0.57827
0.578281
0.578281
0.578291
0.578301
0.578312
0.578322
0.578322
0.578332
0.578343
0.578353
0.578363
0.578363
0.578374
0.578384
0.578395
0.578405
0.578405
0.578415
0.578426
0.578436
0.578447
0.578447
0.578457
0.578468
0.578478
0.578489
0.578489
0.578499
0.57851
0.57852
0.578531
0.578531
0.578541
0.578552
0.578563
0.578573
0.578573
0.578584
0.578595
0.578605
0.578616
0.578616
0.578627
0.578638
0.578648
0.578659
0.578659
0.57867
0.578681
0.578692
0.578703
0.578703
0.578713
0.578724
0.578735
0.578746
0.578746
0.578757
0.578768
0.578779
0.57879
0.57879
0.578801
0.578811
0.578822
0.578833
0.578833
0.578844
0.578855
0.578866
0.578877
0.578877
0.578888
0.578899
0.57891
0.578922
0.578922
0.578933
0.578944
0.578955
0.578966
0.578966
0.578977
0.578988
0.578999
0.579011
0.579011
0.579022
0.579033
0.579044
0.579055
0.579055
0.579067
0.579078
0.579089
0.5791
0.5791
0.579112
0.579123
0.579134
0.579146
0.579146
0.579157
0.579168
0.57918
0.579191
0.579191
0.579203
0.579214
0.579225
0.579237
0.579237
0.579248
0.57926
0.579271
0.579283
0.579283
0.579294
0.579306
0.579317
0.579329
0.579329
0.579341
0.579352
0.579364
0.579375
0.579375
0.579387
0.579399
0.57941
0.579422
0.579422
0.579433
0.579445
0.579457
0.579468
0.579468
0.57948
0.579492
0.579504
0.579515
0.579515
0.579527
0.579539
0.579551
0.579562
0.579562
0.579574
0.579586
0.579598
0.57961
0.57961
0.579622
0.579634
0.579646
0.579658
0.579658
0.57967
0.579682
0.579694
0.579706
0.579706
0.579718
0.57973
0.579742
0.579754
0.579754
0.579766
0.579779
0.579791
0.579803
0.579803
0.579815
0.579827
0.579839
0.579852
0.579852
0.579864
0.579876
0.579888
0.5799
0.5799
0.579913
0.579925
0.579937
0.57995
0.57995
0.579962
0.579974
0.579987
0.579999
0.579999
0.580011
0.580024
0.580036
0.580049
0.580049
0.580061
0.580074
0.580086
0.580098
0.580098
0.580111
0.580123
0.580136
0.580149
0.580149
0.580161
0.580174
0.580186
0.580199
0.580199
0.580212
0.580224
0.580237
0.580249
0.580249
0.580262
0.580275
0.580288
0.5803
0.5803
0.580313
0.580326
0.580339
0.580351
0.580351
0.580364
0.580377
0.58039
0.580403
0.580403
0.580416
0.580428
0.580441
0.580454
0.580454
0.580467
0.58048
0.580493
0.580506
0.580506
0.580519
0.580532
0.580545
0.580558
0.580558
0.580571
0.580584
0.580597
0.58061
0.58061
0.580623
0.580636
0.580649
0.580662
0.580662
0.580676
0.580689
0.580702
0.580715
0.580715
0.580729
0.580742
0.580755
0.580769
0.580769
0.580782
0.580795
0.580809
0.580822
0.580822
0.580836
0.580849
0.580862
0.580876
0.580876
0.580889
0.580903
0.580916
0.58093
0.58093
0.580943
0.580957
0.58097
0.580984
0.580984
0.580998
0.581011
0.581025
0.581038
0.581038
0.581052
0.581066
0.581079
0.581093
0.581093
0.581107
0.58112
0.581134
0.581148
0.581148
0.581162
0.581176
0.581189
0.581203
0.581203
0.581217
0.581231
0.581245
0.581259
0.581259
0.581273
0.581286
0.5813
0.581314
0.581314
0.581328
0.581342
0.581356
0.58137
0.58137
0.581384
0.581398
0.581413
0.581427
0.581427
0.581441
0.581455
0.581469
0.581483
0.581483
0.581497
0.581512
0.581526
0.58154
0.58154
0.581554
0.581568
0.581583
0.581597
0.581597
0.581611
0.581626
0.58164
0.581654
0.581654
0.581669
0.581683
0.581697
0.581712
0.581712
0.581726
0.58174
0.581755
0.581769
0.581769
0.581784
0.581798
0.581813
0.581828
0.581828
0.581842
0.581857
0.581872
0.581886
0.581886
0.581901
0.581916
0.581931
0.581945
0.581945
0.58196
0.581975
0.58199
0.582005
0.582005
0.582019
0.582034
0.582049
0.582064
0.582064
0.582079
0.582094
0.582109
0.582124
0.582124
0.582139
0.582154
0.582169
0.582184
0.582184
0.582199
0.582214
0.582229
0.582244
0.582244
0.582259
0.582274
0.582289
0.582304
0.582304
0.58232
0.582335
0.58235
0.582365
0.582365
0.582381
0.582396
0.582411
0.582426
0.582426
0.582442
0.582457
0.582472
0.582488
0.582488
0.582503
0.582519
0.582534
0.58255
0.58255
0.582565
0.582581
0.582596
0.582612
0.582612
0.582627
0.582643
0.582658
0.582674
0.582674
0.582689
0.582705
0.582721
0.582736
0.582736
0.582752
0.582768
0.582784
0.582799
0.582799
0.582815
0.582831
0.582847
0.582862
0.582862
0.582878
0.582894
0.58291
0.582926
0.582926
0.582941
0.582957
0.582973
0.582989
0.582989
0.583005
0.583021
0.583037
0.583054
0.583054
0.58307
0.583086
0.583102
0.583118
0.583118
0.583135
0.583151
0.583167
0.583183
0.583183
0.5832
0.583216
0.583232
0.583249
0.583249
0.583265
0.583281
0.583298
0.583314
0.583314
0.583331
0.583347
0.583363
0.58338
0.58338
0.583396
0.583413
0.583429
0.583446
0.583446
0.583463
0.583479
0.583496
0.583512
0.583512
0.583529
0.583546
0.583562
0.583579
0.583579
0.583596
0.583613
0.583629
0.583646
0.583646
0.583663
0.58368
0.583697
0.583714
0.583714
0.58373
0.583747
0.583764
0.583781
0.583781
0.583798
0.583815
0.583832
0.583849
0.583849
0.583866
0.583883
0.583901
0.583918
0.583918
0.583935
0.583952
0.583969
0.583986
0.583986
0.584003
0.584021
0.584038
0.584055
0.584055
0.584073
0.58409
0.584107
0.584124
0.584124
0.584142
0.584159
0.584177
0.584194
0.584194
0.584211
0.584229
0.584246
0.584264
0.584264
0.584281
0.584299
0.584317
0.584334
0.584334
0.584352
0.58437
0.584387
0.584405
0.584405
0.584423
0.584441
0.584459
0.584477
0.584477
0.584494
0.584512
0.58453
0.584548
0.584548
0.584566
0.584584
0.584602
0.58462
0.58462
0.584638
0.584656
0.584674
0.584692
0.584692
0.58471
0.584728
0.584747
0.584765
0.584765
0.584783
0.584801
0.584819
0.584838
0.584838
0.584856
0.584874
0.584893
0.584911
0.584911
0.584929
0.584948
0.584966
0.584984
0.584984
0.585003
0.585021
0.58504
0.585058
0.585058
0.585077
0.585095
0.585114
0.585133
0.585133
0.585151
0.58517
0.585189
0.585207
0.585207
0.585226
0.585245
0.585263
0.585282
0.585282
0.585301
0.58532
0.585339
0.585358
0.585358
0.585376
0.585395
0.585414
0.585433
0.585433
0.585452
0.585471
0.58549
0.585509
0.585509
0.585528
0.585547
0.585566
0.585585
0.585585
0.585604
0.585624
0.585643
0.585662
0.585662
0.585681
0.585701
0.58572
0.58574
0.58574
0.585759
0.585778
0.585798
0.585817
0.585817
0.585837
0.585856
0.585876
0.585896
0.585896
0.585915
0.585935
0.585955
0.585974
0.585974
0.585994
0.586014
0.586033
0.586053
0.586053
0.586073
0.586093
0.586112
0.586132
0.586132
0.586152
0.586172
0.586192
0.586212
0.586212
0.586232
0.586252
0.586272
0.586292
0.586292
0.586312
0.586332
0.586352
0.586372
0.586372
0.586392
0.586412
0.586433
0.586453
0.586453
0.586473
0.586493
0.586514
0.586534
0.586534
0.586554
0.586575
0.586595
0.586615
0.586615
0.586636
0.586656
0.586677
0.586697
0.586697
0.586718
0.586738
0.586759
0.58678
0.58678
0.5868
0.586821
0.586841
0.586862
0.586862
0.586883
0.586903
0.586924
0.586945
0.586945
0.586966
0.586987
0.587007
0.587028
0.587028
0.587049
0.58707
0.587091
0.587112
0.587112
0.587133
0.587154
0.587175
0.587197
0.587197
0.587218
0.587239
0.58726
0.587282
0.587282
0.587303
0.587324
0.587346
0.587367
0.587367
0.587388
0.58741
0.587431
0.587453
0.587453
0.587474
0.587496
0.587517
0.587539
0.587539
0.58756
0.587582
0.587604
0.587625
0.587625
0.587647
0.587669
0.587691
0.587712
0.587712
0.587734
0.587756
0.587778
0.5878
0.5878
0.587821
0.587843
0.587865
0.587887
0.587887
0.587909
0.587931
0.587953
0.587975
0.587975
0.587998
0.58802
0.588042
0.588064
0.588064
0.588086
0.588108
0.588131
0.588153
0.588153
0.588175
0.588198
0.58822
0.588242
0.588242
0.588265
0.588287
0.58831
0.588332
0.588332
0.588355
0.588377
0.5884
0.588422
0.588422
0.588445
0.588467
0.58849
0.588513
0.588513
0.588535
0.588558
0.588581
0.588604
0.588604
0.588626
0.588649
0.588672
0.588695
0.588695
0.588718
0.588741
0.588765
0.588788
0.588788
0.588811
0.588834
0.588857
0.58888
0.58888
0.588904
0.588927
0.58895
0.588974
0.588974
0.588997
0.58902
0.589044
0.589067
0.589067
0.589091
0.589114
0.589138
0.589161
0.589161
0.589185
0.589208
0.589232
0.589256
0.589256
0.589279
0.589303
0.589327
0.58935
0.58935
0.589374
0.589398
0.589422
0.589446
0.589446
0.58947
0.589494
0.589517
0.589541
0.589541
0.589565
0.58959
0.589614
0.589638
0.589638
0.589662
0.589686
0.58971
0.589734
0.589734
0.589759
0.589783
0.589807
0.589831
0.589831
0.589856
0.58988
0.589904
0.589929
0.589929
0.589953
0.589978
0.590002
0.590027
0.590027
0.590051
0.590076
0.5901
0.590125
0.590125
0.59015
0.590174
0.590199
0.590224
0.590224
0.590249
0.590274
0.590298
0.590323
0.590323
0.590349
0.590374
0.590399
0.590424
0.590424
0.590449
0.590474
0.590499
0.590525
0.590525
0.59055
0.590575
0.5906
0.590626
0.590626
0.590651
0.590676
0.590702
0.590727
0.590727
0.590753
0.590778
0.590804
0.590829
0.590829
0.590855
0.590881
0.590906
0.590932
0.590932
0.590958
0.590983
0.591009
0.591035
0.591035
0.591061
0.591087
0.591112
0.591138
0.591138
0.591164
0.59119
0.591216
0.591242
0.591242
0.591268
0.591295
0.591321
0.591347
0.591347
0.591373
0.591399
0.591425
0.591452
0.591452
0.591478
0.591504
0.591531
0.591557
0.591557
0.591583
0.59161
0.591636
0.591663
0.591663
0.591689
0.591716
0.591742
0.591769
0.591769
0.591796
0.591822
0.591849
0.591876
0.591876
0.591903
0.591929
0.591956
0.591983
0.591983
0.59201
0.592037
0.592064
0.592092
0.592092
0.592119
0.592146
0.592173
0.592201
0.592201
0.592228
0.592255
0.592282
0.59231
0.59231
0.592337
0.592365
0.592392
0.59242
0.59242
0.592447
0.592475
0.592502
0.59253
0.59253
0.592558
0.592585
0.592613
0.592641
0.592641
0.592668
0.592696
0.592724
0.592752
0.592752
0.59278
0.592808
0.592836
0.592864
0.592864
0.592892
0.59292
0.592948
0.592976
0.592976
0.593004
0.593032
0.593061
0.593089
0.593089
0.593117
0.593145
0.593174
0.593202
0.593202
0.59323
0.593259
0.593287
0.593316
0.593316
0.593344
0.593373
0.593402
0.59343
0.59343
0.593459
0.593487
0.593516
0.593545
0.593545
0.593574
0.593602
0.593631
0.59366
0.59366
0.593689
0.593718
0.593747
0.593776
0.593776
0.593805
0.593835
0.593864
0.593893
0.593893
0.593922
0.593952
0.593981
0.594011
0.594011
0.59404