<?xml version="1.0"?>
<VTKFile type="UnstructuredGrid" version="0.1" byte_order="LittleEndian">
<UnstructuredGrid>
<Piece NumberOfPoints="5000" NumberOfCells="4000">
<PointData Scalars="Reaction 0">
<DataArray type="Float32" Name="Reaction 0" format="ascii">
0.565338
0.565338
0.565338
0.565338
0.565338
0.565338
0.565338
0.565338
0.565338
0.565338
0.565338
0.565338
0.565338
0.565338
0.565338
0.565338
0.565338
0.565338
0.565338
0.565338
0.565338
0.565338
0.565338
0.565337
0.565337
0.565337
0.565337
0.565337
0.565337
0.565337
0.565337
0.565337
0.565337
0.565337
0.565336
0.565336
0.565336
0.565336
0.565336
0.565336
0.565336
0.565336
0.565336
0.565335
0.565335
0.565335
0.565335
0.565335
0.565335
0.565334
0.565334
0.565334
0.565334
0.565334
0.565334
0.565334
0.565333
0.565333
0.565333
0.565333
0.565333
0.565333
0.565332
0.565332
0.565332
0.565332
0.565332
0.565331
0.565331
0.565331
0.565331
0.565331
0.56533
0.56533
0.56533
0.56533
0.565329
0.565329
0.565329
0.565328
0.565328
0.565328
0.565328
0.565328
0.565327
0.565327
0.565327
0.565327
0.565326
0.565326
0.565326
0.565326
0.565325
0.565325
0.565324
0.565324
0.565324
0.565324
0.565323
0.565323
0.565323
0.565323
0.565322
0.565322
0.565321
0.565321
0.565321
0.565321
0.56532
0.56532
0.56532
0.565319
0.565319
0.565319
0.565318
0.565318
0.565318
0.565317
0.565317
0.565316
0.565316
0.565316
0.565315
0.565315
0.565314
0.565314
0.565314
0.565314
0.565313
0.565313
0.565313
0.565312
0.565312
0.565311
0.565311
0.565311
0.56531
0.56531
0.565309
0.565309
0.565309
0.565308
0.565307
0.565307
0.565306
0.565306
0.565306
0.565305
0.565305
0.565304
0.565304
0.565304
0.565303
0.565302
0.565302
0.565302
0.565301
0.565301
0.5653
0.5653
0.5653
0.565299
0.565298
0.565298
0.565297
0.565297
0.565297
0.565296
0.565295
0.565295
0.565295
0.565294
0.565293
0.565293
0.565292
0.565292
0.565292
0.565291
0.56529
0.56529
0.56529
0.565289
0.565288
0.565288
0.565287
0.565287
0.565286
0.565286
0.565285
0.565284
0.565284
0.565283
0.565283
0.565282
0.565281
0.565281
0.565281
0.56528
0.565279
0.565278
0.565278
0.565278
0.565277
0.565276
0.565276
0.565276
0.565275
0.565274
0.565273
0.565273
0.565273
0.565272
0.565271
0.56527
0.565269
0.565269
0.565269
0.565268
0.565267
0.565266
0.565266
0.565266
0.565265
0.565264
0.565263
0.565263
0.565262
0.565262
0.565261
0.56526
0.56526
0.565259
0.565258
0.565257
0.565257
0.565257
0.565256
0.565255
0.565254
0.565253
0.565253
0.565252
0.565252
0.565251
0.56525
0.56525
0.565249
0.565248
0.565247
0.565246
0.565246
0.565245
0.565245
0.565244
0.565243
0.565243
0.565242
0.565241
0.56524
0.565239
0.565239
0.565238
0.565237
0.565237
0.565236
0.565236
0.565235
0.565234
0.565233
0.565232
0.565232
0.565231
0.56523
0.565229
0.565228
0.565228
0.565227
0.565226
0.565225
0.565224
0.565224
0.565223
0.565222
0.565221
0.56522
0.56522
0.565219
0.565219
0.565218
0.565217
0.565217
0.565216
0.565215
0.565214
0.565213
0.565213
0.565212
0.565211
0.56521
0.565209
0.565209
0.565208
0.565207
0.565206
0.565205
0.565205
0.565204
0.565202
0.565201
0.5652
0.5652
0.565199
0.565198
0.565197
0.565196
0.565196
0.565195
0.565194
0.565193
0.565192
0.565192
0.565191
0.56519
0.565189
0.565188
0.565188
0.565187
0.565186
0.565185
0.565184
0.565184
0.565182
0.565181
0.56518
0.565179
0.565179
0.565178
0.565177
0.565176
0.565175
0.565175
0.565174
0.565173
0.565172
0.56517
0.56517
0.565169
0.565168
0.565167
0.565166
0.565166
0.565165
0.565164
0.565163
0.565161
0.565161
0.56516
0.565159
0.565158
0.565157
0.565157
0.565156
0.565155
0.565153
0.565152
0.565152
0.565151
0.56515
0.565149
0.565148
0.565148
0.565147
0.565146
0.565145
0.565144
0.565144
0.565143
0.565143
0.565142
0.565141
0.565141
0.56514
0.565139
0.565139
0.565138
0.565138
0.565137
0.565136
0.565135
0.565135
0.565135
0.565134
0.565133
0.565132
0.565131
0.565131
0.565131
0.56513
0.565129
0.565128
0.565128
0.565127
0.565127
0.565126
0.565125
0.565125
0.565124
0.565123
0.565123
0.565122
0.565122
0.565121
0.56512
0.565119
0.565118
0.565118
0.565118
0.565117
0.565116
0.565115
0.565115
0.565114
0.565114
0.565113
0.565112
0.565112
0.565111
0.56511
0.565109
0.565109
0.565109
0.565108
0.565107
0.565106
0.565105
0.565105
0.565104
0.565104
0.565103
0.565102
0.565102
0.565101
0.5651
0.565099
0.565099
0.565099
0.565098
0.565097
0.565096
0.565095
0.565095
0.565094
0.565094
0.565093
0.565092
0.565092
0.565091
0.56509
0.565089
0.565088
0.565088
0.565088
0.565087
0.565086
0.565085
0.565085
0.565084
0.565083
0.565083
0.565082
0.565082
0.565081
0.56508
0.565079
0.565078
0.565078
0.565077
0.565077
0.565076
0.565075
0.565075
0.565074
0.565073
0.565072
0.565071
0.565071
0.565071
0.56507
0.565069
0.565068
0.565068
0.565067
0.565066
0.565065
0.565065
0.565065
0.565064
0.565063
0.565062
0.565061
0.565061
0.56506
0.565059
0.565058
0.565058
0.565058
0.565057
0.565056
0.565055
0.565054
0.565054
0.565053
0.565052
0.565051
0.565051
0.565051
0.56505
0.565049
0.565048
0.565047
0.565047
0.565046
0.565045
0.565044
0.565044
0.565044
0.565043
0.565042
0.565041
0.56504
0.56504
0.565039
0.565038
0.565037
0.565036
0.565036
0.565036
0.565035
0.565034
0.565033
0.565033
0.565032
0.565031
0.56503
0.565029
0.565029
0.565028
0.565028
0.565027
0.565026
0.565026
0.565025
0.565024
0.565023
0.565022
0.565022
0.565021
0.56502
0.565019
0.565019
0.565019
0.565018
0.565017
0.565016
0.565015
0.565015
0.565014
0.565013
0.565012
0.565011
0.565011
0.56501
0.565009
0.565009
0.565008
0.565008
0.565007
0.565006
0.565005
0.565004
0.565004
0.565003
0.565002
0.565001
0.565
0.565
0.564999
0.564998
0.564998
0.564997
0.564997
0.564996
0.564995
0.564994
0.564993
0.564993
0.564992
0.564991
0.56499
0.564989
0.564989
0.564988
0.564987
0.564986
0.564986
0.564986
0.564985
0.564984
0.564983
0.564982
0.564982
0.564981
0.56498
0.564979
0.564978
0.564978
0.564977
0.564976
0.564975
0.564974
0.564974
0.564973
0.564972
0.564972
0.564971
0.564971
0.56497
0.564969
0.564968
0.564967
0.564967
0.564966
0.564965
0.564964
0.564963
0.564963
0.564962
0.564961
0.56496
0.564959
0.564959
0.564958
0.564957
0.564956
0.564955
0.564955
0.564954
0.564953
0.564952
0.564952
0.564952
0.564951
0.56495
0.564949
0.564948
0.564948
0.564947
0.564946
0.564945
0.564944
0.564944
0.564943
0.564942
0.564941
0.56494
0.56494
0.564939
0.564938
0.564937
0.564936
0.564936
0.564935
0.564934
0.564933
0.564932
0.564932
0.564931
0.56493
0.564929
0.564928
0.564928
0.564927
0.564926
0.564925
0.564924
0.564924
0.564923
0.564922
0.564921
0.56492
0.56492
0.564919
0.564918
0.564917
0.564916
0.564916
0.564915
0.564914
0.564913
0.564912
0.564912
0.564911
0.56491
0.564909
0.564908
0.564908
0.564907
0.564906
0.564905
0.564904
0.564904
0.564903
0.564902
0.564901
0.5649
0.5649
0.564899
0.564898
0.564897
0.564896
0.564896
0.564895
0.564894
0.564893
0.564892
0.564892
0.564891
0.56489
0.564889
0.564888
0.564888
0.564887
0.564886
0.564885
0.564884
0.564884
0.564883
0.564882
0.564881
0.56488
0.56488
0.564879
0.564878
0.564877
0.564876
0.564876
0.564875
0.564873
0.564872
0.564871
0.564871
0.56487
0.564869
0.564868
0.564867
0.564867
0.564866
0.564865
0.564864
0.564863
0.564863
0.564862
0.564861
0.56486
0.564859
0.564859
0.564858
0.564857
0.564855
0.564854
0.564854
0.564853
0.564852
0.564851
0.56485
0.56485
0.564849
0.564848
0.564847
0.564846
0.564846
0.564845
0.564844
0.564843
0.564841
0.564841
0.56484
0.564839
0.564838
0.564837
0.564837
0.564836
0.564835
0.564834
0.564833
0.564833
0.564832
0.564831
0.56483
0.564829
0.564829
0.564828
0.564827
0.564826
0.564825
0.564825
0.564824
0.564824
0.564823
0.564822
0.564822
0.564821
0.56482
0.564819
0.564818
0.564818
0.564817
0.564816
0.564815
0.564815
0.564815
0.564814
0.564813
0.564812
0.564811
0.564811
0.56481
0.564809
0.564808
0.564807
0.564807
0.564806
0.564805
0.564804
0.564804
0.564804
0.564803
0.564802
0.564801
0.5648
0.5648
0.564799
0.564798
0.564797
0.564796
0.564796
0.564795
0.564794
0.564793
0.564792
0.564792
0.564791
0.564791
0.56479
0.564789
0.564789
0.564788
0.564787
0.564786
0.564785
0.564785
0.564784
0.564783
0.564782
0.564781
0.564781
0.56478
0.564779
0.564778
0.564777
0.564777
0.564776
0.564775
0.564774
0.564774
0.564774
0.564773
0.564772
0.564771
0.56477
0.56477
0.564769
0.564768
0.564767
0.564766
0.564766
0.564765
0.564764
0.564763
0.564762
0.564762
0.564761
0.56476
0.564759
0.564758
0.564758
0.564757
0.564756
0.564755
0.564754
0.564754
0.564753
0.564752
0.564751
0.56475
0.56475
0.564749
0.564748
0.564747
0.564746
0.564746
0.564745
0.564744
0.564743
0.564742
0.564742
0.564741
0.56474
0.564739
0.564738
0.564738
0.564737
0.564736
0.564735
0.564734
0.564734
0.564733
0.564732
0.564731
0.56473
0.56473
0.564729
0.564728
0.564727
0.564726
0.564726
0.564725
0.564724
0.564723
0.564722
0.564722
0.564721
0.56472
0.564719
0.564718
0.564718
0.564717
0.564716
0.564715
0.564714
0.564714
0.564713
0.564712
0.564711
0.56471
0.56471
0.564709
0.564708
0.564707
0.564706
0.564706
0.564705
0.564704
0.564703
0.564702
0.564702
0.564701
0.5647
0.564699
0.564698
0.564698
0.564697
0.564696
0.564695
0.564694
0.564694
0.564693
0.564692
0.564691
0.56469
0.56469
0.564689
0.564687
0.564686
0.564685
0.564685
0.564684
0.564683
0.564682
0.564681
0.564681
0.56468
0.564679
0.564678
0.564677
0.564677
0.564676
0.564675
0.564674
0.564673
0.564673
0.564672
0.564671
0.56467
0.564668
0.564668
0.564667
0.564666
0.564665
0.564664
0.564664
0.564663
0.564662
0.564661
0.56466
0.56466
0.564659
0.564658
0.564657
0.564656
0.564656
0.564654
0.564653
0.564652
0.564651
0.564651
0.56465
0.564649
0.564648
0.564647
0.564647
0.564646
0.564645
0.564644
0.564643
0.564643
0.564641
0.56464
0.564639
0.564638
0.564638
0.564637
0.564636
0.564635
0.564634
0.564634
0.564633
0.564632
0.56463
0.564629
0.564629
0.564628
0.564627
0.564626
0.564625
0.564625
0.564624
0.564623
0.564622
0.56462
0.56462
0.564619
0.564618
0.564617
0.564616
0.564616
0.564615
0.564614
0.564613
0.564611
0.564611
0.56461
0.564609
0.564608
0.564607
0.564607
0.564606
0.564605
0.564604
0.564603
0.564603
0.564601
0.5646
0.564599
0.564598
0.564598
0.564597
0.564596
0.564595
0.564594
0.564594
0.564593
0.564591
0.56459
0.564589
0.564589
0.564588
0.564587
0.564586
0.564585
0.564585
0.564583
0.564582
0.564581
0.56458
0.56458
0.564579
0.564578
0.564577
0.564576
0.564576
0.564574
0.564573
0.564572
0.564571
0.564571
0.56457
0.564569
0.564568
0.564566
0.564566
0.564565
0.564564
0.564563
0.564562
0.564562
0.564561
0.564559
0.564558
0.564557
0.564557
0.564556
0.564555
0.564554
0.564553
0.564553
0.564551
0.56455
0.564549
0.564548
0.564548
0.564547
0.564546
0.564544
0.564543
0.564543
0.564542
0.564541
0.56454
0.564539
0.564539
0.564537
0.564536
0.564535
0.564534
0.564534
0.564533
0.564532
0.56453
0.564529
0.564529
0.564528
0.564527
0.564526
0.564524
0.564524
0.564523
0.564522
0.564521
0.56452
0.56452
0.564519
0.564517
0.564516
0.564515
0.564515
0.564514
0.564513
0.564511
0.56451
0.56451
0.564509
0.564508
0.564507
0.564505
0.564505
0.564504
0.564503
0.564502
0.564501
0.564501
0.564499
0.564498
0.564497
0.564496
0.564496
0.564495
0.564493
0.564492
0.564491
0.564491
0.56449
0.564489
0.564487
0.564486
0.564486
0.564485
0.564484
0.564483
0.564481
0.564481
0.56448
0.564479
0.564478
0.564477
0.564477
0.564475
0.564474
0.564473
0.564472
0.564472
0.564471
0.564469
0.564468
0.564467
0.564467
0.564466
0.564464
0.564463
0.564462
0.564462
0.564461
0.56446
0.564458
0.564457
0.564457
0.564456
0.564455
0.564453
0.564452
0.564452
0.564451
0.56445
0.564449
0.564447
0.564447
0.564446
0.564445
0.564444
0.564442
0.564442
0.564441
0.56444
0.564439
0.564437
0.564437
0.564436
0.564435
0.564434
0.564433
0.564433
0.564431
0.56443
0.564429
0.564428
0.564428
0.564426
0.564425
0.564424
0.564423
0.564423
0.564421
0.56442
0.564419
0.564418
0.564418
0.564416
0.564415
0.564414
0.564413
0.564413
0.564411
0.56441
0.564409
0.564408
0.564408
0.564406
0.564405
0.564404
0.564403
0.564403
0.564401
0.5644
0.564399
0.564398
0.564398
0.564396
0.564395
0.564394
0.564393
0.564393
0.564391
0.56439
0.564389
0.564387
0.564387
0.564386
0.564385
0.564384
0.564382
0.564382
0.564381
0.56438
0.564379
0.564377
0.564377
0.564376
0.564375
0.564373
0.564372
0.564372
0.564371
0.56437
0.564368
0.564367
0.564367
0.564366
0.564365
0.564363
0.564362
0.564362
0.564361
0.564359
0.564358
0.564357
0.564357
0.564356
0.564354
0.564353
0.564352
0.564352
0.56435
0.564349
0.564348
0.564347
0.564347
0.564345
0.564344
0.564343
0.564341
0.564341
0.56434
0.564339
0.564338
0.564336
0.564336
0.564335
0.564334
0.564332
0.564331
0.564331
0.56433
0.564329
0.564327
0.564326
0.564326
0.564325
0.564323
0.564322
0.564321
0.564321
0.56432
0.564318
0.564317
0.564316
0.564316
0.564314
0.564313
0.564312
0.564311
0.564311
0.564309
0.564308
0.564307
0.564305
0.564305
0.564304
0.564303
0.564301
0.5643
0.5643
0.564299
0.564298
0.564296
0.564295
0.564295
0.564294
0.564292
0.564291
0.56429
0.56429
0.564289
0.564287
0.564286
0.564285
0.564285
0.564283
0.564282
0.564281
0.564279
0.564279
0.564278
0.564277
0.564276
0.564274
0.564274
0.564273
0.564272
0.56427
0.564269
0.564269
0.564268
0.564266
0.564265
0.564264
0.564264
0.564263
0.564261
0.56426
0.564259
0.564259
0.564257
0.564256
0.564255
0.564253
0.564253
0.564252
0.564251
0.56425
0.564248
0.564248
0.564247
0.564246
0.564244
0.564243
0.564243
0.564242
0.56424
0.564239
0.564238
0.564238
0.564237
0.564235
0.564234
0.564233
0.564233
0.564231
0.56423
0.564229
0.564227
0.564227
0.564226
0.564225
0.564223
0.564222
0.564222
0.564221
0.564219
0.564218
0.564217
0.564217
0.564216
0.564214
0.564213
0.564212
0.564212
0.56421
0.564209
0.564208
0.564206
0.564206
0.564205
0.564204
0.564203
0.564201
0.564201
0.5642
0.564199
0.564197
0.564196
0.564196
0.564195
0.564193
0.564192
0.564191
0.564191
0.564189
0.564188
0.564187
0.564185
0.564185
0.564184
0.564183
0.564182
0.56418
0.56418
0.564179
0.564178
0.564176
0.564175
0.564175
0.564174
0.564172
0.564171
0.56417
0.56417
0.564168
0.564167
0.564166
0.564164
0.564164
0.564163
0.564162
0.564161
0.564159
0.564159
0.564158
0.564157
0.564155
0.564154
0.564154
0.564153
0.564151
0.56415
0.564149
0.564149
0.564147
0.564146
0.564145
0.564144
0.564144
0.564142
0.564141
0.56414
0.564138
0.564138
0.564137
0.564136
0.564134
0.564133
0.564133
0.564132
0.56413
0.564129
0.564128
0.564128
0.564126
0.564125
0.564124
0.564123
0.564123
0.564121
0.56412
0.564119
0.564117
0.564117
0.564116
0.564115
0.564113
0.564112
0.564112
0.564111
0.564109
0.564108
0.564107
0.564107
0.564106
0.564104
0.564103
0.564102
0.564102
0.5641
0.564099
0.564098
0.564096
0.564096
0.564095
0.564094
0.564092
0.564091
0.564091
0.56409
0.564089
0.564087
0.564086
0.564086
0.564085
0.564083
0.564082
0.564081
0.564081
0.564079
0.564078
0.564077
0.564075
0.564075
0.564074
0.564073
0.564072
0.56407
0.56407
0.564069
0.564068
0.564066
0.564065
0.564065
0.564064
0.564062
0.564061
0.56406
0.56406
0.564059
0.564057
0.564056
0.564055
0.564055
0.564053
0.564052
0.564051
0.564049
0.564049
0.564048
0.564047
0.564045
0.564044
0.564044
0.564043
0.564042
0.56404
0.564039
0.564039
0.564038
0.564036
0.564035
0.564034
0.564034
0.564033
0.564031
0.56403
0.564029
0.564029
0.564027
0.564026
0.564025
0.564024
0.564024
0.564022
0.564021
0.56402
0.564018
0.564018
0.564017
0.564016
0.564014
0.564013
0.564013
0.564012
0.564011
0.564009
0.564008
0.564008
0.564007
0.564005
0.564004
0.564003
0.564003
0.564002
0.564
0.563999
0.563998
0.563998
0.563996
0.563995
0.563994
0.563992
0.563992
0.563991
0.56399
0.563989
0.563987
0.563987
0.563986
0.563985
0.563983
0.563982
0.563982
0.563981
0.56398
0.563978
0.563977
0.563977
0.563976
0.563974
0.563973
0.563972
0.563972
0.563971
0.563969
0.563968
0.563967
0.563967
0.563966
0.563964
0.563963
0.563962
0.563962
0.56396
0.563959
0.563958
0.563957
0.563957
0.563955
0.563954
0.563953
0.563951
0.563951
0.56395
0.563949
0.563948
0.563946
0.563946
0.563945
0.563944
0.563943
0.563941
0.563941
0.56394
0.563939
0.563937
0.563936
0.563936
0.563935
0.563934
0.563932
0.563931
0.563931
0.56393
0.563929
0.563927
0.563926
0.563926
0.563925
0.563923
0.563922
0.563921
0.563921
0.56392
0.563918
0.563917
0.563916
0.563916
0.563915
0.563913
0.563912
0.563911
0.563911
0.563909
0.563908
0.563907
0.563906
0.563906
0.563904
0.563903
0.563902
0.563901
0.563901
0.563899
0.563898
0.563897
0.563896
0.563896
0.563894
0.563893
0.563892
0.563891
0.563891
0.563889
0.563888
0.563887
0.563885
0.563885
0.563884
0.563883
0.563882
0.563881
0.563881
0.563879
0.563878
0.563877
0.563876
0.563876
0.563874
0.563873
0.563872
0.563871
0.563871
0.563869
0.563868
0.563867
0.563866
0.563866
0.563864
0.563863
0.563862
0.563861
0.563861
0.563859
0.563858
0.563857
0.563856
0.563856
0.563854
0.563853
0.563852
0.563851
0.563851
0.563849
0.563848
0.563847
0.563846
0.563846
0.563844
0.563843
0.563842
0.563841
0.563841
0.563839
0.563838
0.563837
0.563836
0.563836
0.563834
0.563833
0.563832
0.563831
0.563831
0.56383
0.563828
0.563827
0.563826
0.563826
0.563825
0.563823
0.563822
0.563821
0.563821
0.56382
0.563818
0.563817
0.563816
0.563816
0.563815
0.563814
0.563812
0.563811
0.563811
0.56381
0.563809
0.563807
0.563806
0.563806
0.563805
0.563804
0.563802
0.563801
0.563801
0.5638
0.563799
0.563798
0.563796
0.563796
0.563795
0.563794
0.563793
0.563791
0.563791
0.56379
0.563789
0.563788
0.563787
0.563787
0.563785
0.563784
0.563783
0.563782
0.563782
0.563781
0.563779
0.563778
0.563777
0.563777
0.563776
0.563774
0.563773
0.563772
0.563772
0.563771
0.56377
0.563768
0.563767
0.563767
0.563766
0.563765
0.563764
0.563762
0.563762
0.563761
0.56376
0.563759
0.563758
0.563758
0.563756
0.563755
0.563754
0.563753
0.563753
0.563752
0.56375
0.563749
0.563748
0.563748
0.563747
0.563746
0.563744
0.563743
0.563743
0.563742
0.563741
0.56374
0.563738
0.563738
0.563737
0.563736
0.563735
0.563734
0.563734
0.563732
0.563731
0.56373
0.563729
0.563729
0.563728
0.563727
0.563725
0.563724
0.563724
0.563723
0.563722
0.563721
0.563719
0.563719
0.563718
0.563717
0.563716
0.563715
0.563715
0.563714
0.563712
0.563711
0.56371
0.56371
0.563709
0.563708
0.563706
0.563705
0.563705
0.563704
0.563703
0.563702
0.563701
0.563701
0.563699
0.563698
0.563697
0.563696
0.563696
0.563695
0.563694
0.563692
0.563691
0.563691
0.56369
0.563689
0.563688
0.563687
0.563687
0.563685
0.563684
0.563683
0.563682
0.563682
0.563681
0.56368
0.563678
0.563677
0.563677
0.563676
0.563675
0.563674
0.563673
0.563673
0.563671
0.56367
0.563669
0.563668
0.563668
0.563667
0.563666
0.563665
0.563663
0.563663
0.563662
0.563661
0.56366
0.563659
0.563659
0.563658
0.563656
0.563655
0.563654
0.563654
0.563653
0.563652
0.563651
0.56365
0.56365
0.563648
0.563647
0.563646
0.563645
0.563645
0.563644
0.563643
0.563642
0.56364
0.56364
0.563639
0.563638
0.563637
0.563636
0.563636
0.563635
0.563634
0.563632
0.563631
0.563631
0.56363
0.563629
0.563628
0.563627
0.563627
0.563626
0.563625
0.563623
0.563622
0.563622
0.563621
0.56362
0.563619
0.563618
0.563618
0.563617
0.563616
0.563614
0.563613
0.563613
0.563612
0.563611
0.56361
0.563609
0.563609
0.563608
0.563607
0.563606
0.563604
0.563604
0.563603
0.563602
0.563601
0.5636
0.5636
0.563599
0.563598
0.563597
0.563595
0.563595
0.563594
0.563593
0.563592
0.563591
0.563591
0.56359
0.563589
0.563588
0.563587
0.563587
0.563586
0.563584
0.563583
0.563582
0.563582
0.563581
0.56358
0.563579
0.563578
0.563578
0.563577
0.563576
0.563574
0.563573
0.563573
0.563572
0.563571
0.56357
0.563569
0.563569
0.563568
0.563567
0.563566
0.563565
0.563565
0.563564
0.563562
0.563561
0.56356
0.56356
0.563559
0.563558
0.563557
0.563556
0.563556
0.563555
0.563554
0.563553
0.563552
0.563552
0.563551
0.563549
0.563548
0.563547
0.563547
0.563546
0.563545
0.563544
0.563543
0.563543
0.563542
0.563541
0.56354
0.563539
0.563539
0.563538
0.563537
0.563535
0.563534
0.563534
0.563533
0.563532
0.563531
0.56353
0.56353
0.563529
0.563528
0.563527
0.563526
0.563526
0.563525
0.563524
0.563523
0.563522
0.563522
0.56352
0.563519
0.563518
0.563517
0.563517
0.563516
0.563515
0.563514
0.563513
0.563513
0.563512
0.563511
0.56351
0.563509
0.563509
0.563508
0.563507
0.563506
0.563505
0.563505
0.563504
0.563503
0.563502
0.563501
0.563501
0.563499
0.563498
0.563497
0.563496
0.563496
0.563495
0.563494
0.563493
0.563492
0.563492
0.563491
0.56349
0.563489
0.563488
0.563488
0.563487
0.563486
0.563485
0.563484
0.563484
0.563483
0.563482
0.563481
0.56348
0.56348
0.563479
0.563478
0.563477
0.563476
0.563476
0.563475
0.563474
0.563473
0.563472
0.563472
0.563471
0.56347
0.563468
0.563467
0.563467
0.563466
0.563465
0.563464
0.563463
0.563463
0.563462
0.563461
0.56346
0.563459
0.563459
0.563458
0.563457
0.563456
0.563455
0.563455
0.563454
0.563453
0.563452
0.563451
0.563451
0.56345
0.563449
0.563448
0.563447
0.563447
0.563446
0.563445
0.563444
0.563443
0.563443
0.563442
0.563441
0.56344
0.563439
0.563439
0.563438
0.563437
0.563436
0.563435
0.563435
0.563434
0.563433
0.563432
0.563431
0.563431
0.56343
0.563429
0.563428
0.563427
0.563427
0.563426
0.563425
0.563424
0.563423
0.563423
0.563422
0.563421
0.56342
0.563419
0.563419
0.563418
0.563417
0.563416
0.563415
0.563415
0.563414
0.563413
0.563413
0.563412
0.563412
0.563411
0.56341
0.563409
0.563408
0.563408
0.563407
0.563406
0.563405
0.563404
0.563404
0.563403
0.563402
0.563401
0.5634
0.5634
0.563399
0.563398
0.563397
0.563396
0.563396
0.563395
0.563394
0.563393
0.563392
0.563392
0.563391
0.56339
0.563389
0.563388
0.563388
0.563387
0.563386
0.563385
0.563385
0.563385
0.563384
0.563383
0.563382
0.563381
0.563381
0.56338
0.563379
0.563378
0.563377
0.563377
0.563376
0.563375
0.563374
0.563373
0.563373
0.563372
0.563371
0.56337
0.563369
0.563369
0.563368
0.563367
0.563367
0.563366
0.563366
0.563365
0.563364
0.563363
0.563362
0.563362
0.563361
0.56336
0.563359
0.563358
0.563358
0.563357
0.563356
0.563355
0.563354
0.563354
0.563353
0.563353
0.563352
0.563351
0.563351
0.56335
0.563349
0.563348
0.563347
0.563347
0.563346
0.563345
0.563344
0.563343
0.563343
0.563342
0.563341
0.563341
0.56334
0.56334
0.563339
0.563338
0.563337
0.563336
0.563336
0.563335
0.563334
0.563333
0.563332
0.563332
0.563332
0.563331
0.56333
0.563329
0.563329
0.563328
0.563327
0.563326
0.563325
0.563325
0.563324
0.563323
0.563322
0.563322
0.563322
0.563321
0.56332
0.563319
0.563318
0.563318
0.563317
0.563316
0.563315
0.563314
0.563314
0.563314
0.563313
0.563312
0.563311
0.563311
0.56331
0.563309
0.563308
0.563307
0.563307
0.563306
0.563306
0.563305
0.563304
0.563304
0.563303
0.563302
0.563301
0.5633
0.5633
0.563299
0.563299
0.563298
0.563297
0.563297
0.563296
0.563295
0.563294
0.563293
0.563293
0.563292
0.563292
0.563291
0.56329
0.56329
0.563289
0.563288
0.563287
0.563286
0.563286
0.563286
0.563285
0.563284
0.563283
0.563283
0.563282
0.563281
0.56328
0.56328
0.56328
0.563279
0.563278
0.563277
0.563276
0.563276
0.563275
0.563274
0.563274
0.563273
0.563273
0.563272
0.563271
0.56327
0.563269
0.563269
0.563268
0.563268
0.563267
0.563266
0.563266
0.563265
0.563264
0.563263
0.563262
0.563262
0.563262
0.563261
0.56326
0.563259
0.563259
0.563258
0.563258
0.563257
0.563256
0.563256
0.563255
0.563254
0.563253
0.563253
0.563253
0.563252
0.563251
0.56325
0.563249
0.563249
0.563248
0.563248
0.563247
0.563246
0.563246
0.563245
0.563244
0.563243
0.563243
0.563243
0.563242
0.563241
0.56324
0.563239
0.563239
0.563239
0.563238
0.563237
0.563236
0.563236
0.563235
0.563235
0.563234
0.563233
0.563233
0.563232
0.563231
0.56323
0.56323
0.56323
0.563229
0.563228
0.563227
0.563226
0.563226
0.563226
0.563225
0.563224
0.563223
0.563223
0.563222
0.563222
0.563221
0.56322
0.56322
0.563219
0.563219
0.563218
0.563217
0.563217
0.563216
0.563215
0.563215
0.563214
0.563214
0.563213
0.563212
0.563211
0.563211
0.563211
0.56321
0.563209
0.563208
0.563207
0.563207
0.563207
0.563206
0.563205
0.563204
0.563204
0.563204
0.563203
0.563202
0.563201
0.563201
0.5632
0.5632
0.563199
0.563198
0.563198
0.563197
0.563197
0.563196
0.563195
0.563195
0.563194
0.563194
0.563193
0.563192
0.563192
0.563191
0.563191
0.56319
0.563189
0.563189
0.563188
0.563188
0.563187
0.563186
0.563186
0.563185
0.563184
0.563184
0.563183
0.563183
0.563182
0.563181
0.563181
0.56318
0.56318
0.563179
0.563178
0.563178
0.563177
0.563177
0.563176
0.563175
0.563175
0.563174
0.563174
0.563173
0.563173
0.563172
0.563171
0.563171
0.56317
0.56317
0.563169
0.563168
0.563168
0.563167
0.563167
0.563166
0.563165
0.563165
0.563164
0.563164
0.563163
0.563162
0.563162
0.563162
0.563161
0.56316
0.563159
0.563159
0.563159
0.563158
0.563157
0.563156
0.563156
0.563156
0.563155
0.563154
0.563154
0.563154
0.563153
0.563152
0.563151
0.563151
0.563151
0.56315
0.563149
0.563149
0.563148
0.563148
0.563147
0.563146
0.563146
0.563145
0.563145
0.563144
0.563144
0.563143
0.563142
0.563142
0.563141
0.563141
0.56314
0.563139
0.563139
0.563139
0.563138
0.563137
0.563137
0.563137
0.563136
0.563135
0.563134
0.563134
0.563134
0.563133
0.563132
0.563132
0.563131
0.563131
0.56313
0.56313
0.563129
0.563128
0.563128
0.563128
0.563127
0.563126
0.563126
0.563126
0.563125
0.563124
0.563124
0.563123
0.563123
0.563122
0.563121
0.563121
0.56312
0.56312
0.563119
0.563119
0.563118
0.563117
0.563117
0.563117
0.563116
0.563115
0.563115
0.563115
0.563114
0.563113
0.563113
0.563112
0.563112
0.563111
0.563111
0.56311
0.563109
0.563109
0.563109
0.563108
0.563107
0.563107
0.563107
0.563106
0.563105
0.563105
0.563104
0.563104
0.563103
0.563103
0.563102
0.563102
0.563102
0.563101
0.5631
0.5631
0.563099
0.563099
0.563098
0.563098
0.563097
0.563096
0.563096
0.563096
0.563095
0.563094
0.563094
0.563094
0.563093
0.563092
0.563092
0.563091
0.563091
0.563091
0.56309
0.563089
0.563089
0.563089
0.563088
0.563087
0.563087
0.563086
0.563086
0.563085
0.563085
0.563084
0.563084
0.563084
0.563083
0.563082
0.563082
0.563081
0.563081
0.563081
0.56308
0.563079
0.563079
0.563079
0.563078
0.563077
0.563077
0.563076
0.563076
0.563076
0.563075
0.563074
0.563074
0.563074
0.563073
0.563072
0.563072
0.563071
0.563071
0.563071
0.56307
0.563069
0.563069
0.563069
0.563068
0.563068
0.563067
0.563066
0.563066
0.563066
0.563065
0.563065
0.563064
0.563064
0.563063
0.563063
0.563062
0.563062
0.563062
0.563061
0.56306
0.56306
0.563059
0.563059
0.563059
0.563058
0.563057
0.563057
0.563057
0.563056
0.563056
0.563055
0.563055
0.563055
0.563054
0.563053
0.563053
0.563052
0.563052
0.563052
0.563051
0.56305
0.56305
0.56305
0.563049
0.563049
0.563048
0.563048
0.563048
0.563047
0.563046
0.563046
0.563045
0.563045
0.563045
0.563044
0.563043
0.563043
0.563043
0.563042
0.563042
0.563041
0.563041
0.563041
0.56304
0.56304
0.563039
0.563038
0.563038
0.563038
0.563037
0.563037
0.563036
0.563036
0.563036
0.563035
0.563035
0.563034
0.563034
0.563033
0.563033
0.563032
0.563032
0.563032
0.563031
0.563031
0.56303
0.56303
0.56303
0.563029
0.563029
0.563028
0.563027
0.563027
0.563027
0.563026
0.563026
0.563025
0.563025
0.563025
0.563024
0.563024
0.563023
0.563023
0.563023
0.563022
0.563022
0.563021
0.563021
0.56302
0.56302
0.563019
0.563019
0.563019
0.563018
0.563018
0.563017
0.563017
0.563017
0.563016
0.563016
0.563015
0.563015
0.563015
0.563014
0.563014
0.563013
0.563013
0.563013
0.563012
0.563012
0.563011
0.563011
0.563011
0.56301
0.563009
0.563009
0.563008
0.563008
0.563008
0.563007
0.563007
0.563006
0.563006
0.563006
0.563005
0.563005
0.563004
0.563004
0.563004
0.563003
0.563003
0.563002
0.563002
0.563002
0.563001
0.563001
0.563
0.563
0.563
0.562999
0.562999
0.562998
0.562998
0.562998
0.562997
0.562997
0.562996
0.562996
0.562996
0.562995
0.562995
0.562994
0.562994
0.562994
0.562993
0.562993
0.562993
0.562993
0.562992
0.562992
0.562991
0.562991
0.562991
0.56299
0.56299
0.562989
0.562989
0.562989
0.562988
0.562988
0.562987
0.562987
0.562987
0.562986
0.562986
0.562985
0.562985
0.562985
0.562984
0.562984
0.562983
0.562983
0.562983
0.562983
0.562982
0.562982
0.562981
0.562981
0.562981
0.56298
0.56298
0.562979
0.562979
0.562979
0.562978
0.562978
0.562977
0.562977
0.562977
0.562977
0.562976
0.562976
0.562976
0.562975
0.562975
0.562974
0.562974
0.562974
0.562973
0.562973
0.562972
0.562972
0.562972
0.562971
0.562971
0.562971
0.56297
0.56297
0.56297
0.562969
0.562969
0.562968
0.562968
0.562968
0.562968
0.562967
0.562967
0.562967
0.562966
0.562966
0.562965
0.562965
0.562965
0.562965
0.562964
0.562964
0.562963
0.562963
0.562963
0.562962
0.562962
0.562962
0.562962
0.562961
0.562961
0.56296
0.56296
0.56296
0.562959
0.562959
0.562959
0.562958
0.562958
0.562958
0.562957
0.562957
0.562957
0.562957
0.562956
0.562956
0.562955
0.562955
0.562955
0.562954
0.562954
0.562954
0.562953
0.562953
0.562953
0.562952
0.562952
0.562952
0.562952
0.562951
0.562951
0.56295
0.56295
0.56295
0.56295
0.562949
0.562949
0.562948
0.562948
0.562948
0.562948
0.562947
0.562947
0.562947
0.562946
0.562946
0.562946
0.562945
0.562945
0.562945
0.562944
0.562944
0.562944
0.562944
0.562943
0.562943
0.562942
0.562942
0.562942
0.562942
0.562941
0.562941
0.562941
0.562941
0.56294
0.56294
0.562939
0.562939
0.562939
0.562939
0.562938
0.562938
0.562938
0.562938
0.562937
0.562937
0.562936
0.562936
0.562936
0.562936
0.562935
0.562935
0.562935
0.562935
0.562934
0.562934
0.562933
0.562933
0.562933
0.562933
0.562932
0.562932
0.562932
0.562932
0.562931
0.562931
0.562931
0.56293
0.56293
0.56293
0.56293
0.562929
0.562929
0.562929
0.562928
0.562928
0.562928
0.562927
0.562927
0.562927
0.562927
0.562926
0.562926
0.562926
0.562926
0.562925
0.562925
0.562925
0.562925
0.562924
0.562924
0.562924
0.562923
0.562923
0.562923
0.562923
0.562922
0.562922
0.562922
0.562922
0.562921
0.562921
0.562921
0.562921
0.56292
0.56292
0.562919
0.562919
0.562919
0.562919
0.562919
0.562918
0.562918
0.562918
0.562918
0.562917
0.562917
0.562917
0.562917
0.562916
0.562916
0.562916
0.562915
0.562915
0.562915
0.562915
0.562914
0.562914
0.562914
0.562914
0.562913
0.562913
0.562913
0.562913
0.562912
0.562912
0.562912
0.562912
0.562912
0.562911
0.562911
0.562911
0.56291
0.56291
0.56291
0.56291
0.562909
0.562909
0.562909
0.562909
0.562909
0.562908
0.562908
0.562908
0.562908
0.562907
0.562907
0.562907
0.562907
0.562906
0.562906
0.562906
0.562906
0.562906
0.562905
0.562905
0.562905
0.562904
0.562904
0.562904
0.562904
0.562904
0.562903
0.562903
0.562903
0.562903
0.562902
0.562902
0.562902
0.562902
0.562901
0.562901
0.562901
0.562901
0.562901
0.5629
0.5629
0.5629
0.5629
0.562899
0.562899
0.562899
0.562899
0.562899
0.562898
0.562898