<?xml version="1.0"?>
<VTKFile type="UnstructuredGrid" version="0.1" byte_order="LittleEndian">
<UnstructuredGrid>
<Piece NumberOfPoints="5000" NumberOfCells="4000">
<PointData Scalars="Reaction 0">
<DataArray type="Float32" Name="Reaction 0" format="ascii">
0.563379
0.563379
0.563379
0.563379
0.563379
0.563379
0.563379
0.563379
0.563379
0.563379
0.563379
0.563379
0.563379
0.563379
0.563379
0.563379
0.563379
0.563379
0.563379
0.563379
0.563379
0.563379
0.563379
0.563379
0.563379
0.563379
0.563379
0.563379
0.563379
0.563379
0.563379
0.563379
0.563379
0.563379
0.563379
0.563379
0.563379
0.563379
0.563379
0.563379
0.563379
0.563379
0.563379
0.563379
0.563379
0.563379
0.563379
0.563379
0.563379
0.563379
0.563379
0.563379
0.563379
0.563379
0.56338
0.56338
0.56338
0.56338
0.56338
0.56338
0.56338
0.56338
0.56338
0.56338
0.56338
0.56338
0.56338
0.56338
0.56338
0.56338
0.56338
0.56338
0.56338
0.56338
0.56338
0.56338
0.56338
0.56338
0.56338
0.56338
0.56338
0.56338
0.56338
0.56338
0.56338
0.56338
0.56338
0.56338
0.56338
0.56338
0.56338
0.56338
0.56338
0.56338
0.56338
0.56338
0.56338
0.56338
0.56338
0.56338
0.56338
0.56338
0.56338
0.56338
0.56338
0.56338
0.56338
0.56338
0.56338
0.56338
0.56338
0.56338
0.56338
0.56338
0.56338
0.56338
0.56338
0.56338
0.56338
0.56338
0.56338
0.56338
0.56338
0.56338
0.56338
0.56338
0.56338
0.56338
0.56338
0.56338
0.56338
0.56338
0.56338
0.56338
0.56338
0.56338
0.56338
0.56338
0.56338
0.563381
0.563381
0.563381
0.563381
0.563381
0.563381
0.563381
0.563381
0.563381
0.563381
0.563381
0.563381
0.563381
0.563381
0.563381
0.563381
0.563381
0.563381
0.563381
0.563381
0.563381
0.563381
0.563381
0.563381
0.563381
0.563381
0.563381
0.563381
0.563381
0.563381
0.563381
0.563381
0.563381
0.563381
0.563381
0.563381
0.563381
0.563381
0.563381
0.563381
0.563381
0.563381
0.563381
0.563381
0.563381
0.563381
0.563381
0.563381
0.563381
0.563381
0.563382
0.563382
0.563382
0.563382
0.563382
0.563382
0.563382
0.563382
0.563382
0.563382
0.563382
0.563382
0.563382
0.563382
0.563382
0.563382
0.563382
0.563382
0.563382
0.563382
0.563382
0.563382
0.563382
0.563382
0.563382
0.563382
0.563382
0.563382
0.563382
0.563382
0.563382
0.563382
0.563382
0.563382
0.563382
0.563382
0.563382
0.563382
0.563382
0.563383
0.563383
0.563383
0.563383
0.563383
0.563383
0.563383
0.563383
0.563383
0.563383
0.563383
0.563383
0.563383
0.563383
0.563383
0.563383
0.563383
0.563383
0.563383
0.563383
0.563383
0.563383
0.563383
0.563383
0.563383
0.563383
0.563383
0.563383
0.563383
0.563383
0.563383
0.563383
0.563383
0.563383
0.563384
0.563384
0.563384
0.563384
0.563384
0.563384
0.563384
0.563384
0.563384
0.563384
0.563384
0.563384
0.563384
0.563384
0.563384
0.563384
0.563384
0.563384
0.563384
0.563384
0.563384
0.563384
0.563384
0.563384
0.563384
0.563384
0.563384
0.563384
0.563384
0.563384
0.563385
0.563385
0.563385
0.563385
0.563385
0.563385
0.563385
0.563385
0.563385
0.563385
0.563385
0.563385
0.563385
0.563385
0.563385
0.563385
0.563385
0.563385
0.563385
0.563385
0.563385
0.563385
0.563385
0.563385
0.563385
0.563385
0.563386
0.563386
0.563386
0.563386
0.563386
0.563386
0.563386
0.563386
0.563386
0.563386
0.563386
0.563386
0.563386
0.563386
0.563386
0.563386
0.563386
0.563386
0.563386
0.563386
0.563386
0.563386
0.563386
0.563386
0.563386
0.563387
0.563387
0.563387
0.563387
0.563387
0.563387
0.563387
0.563387
0.563387
0.563387
0.563387
0.563387
0.563387
0.563387
0.563387
0.563387
0.563387
0.563387
0.563387
0.563387
0.563387
0.563387
0.563387
0.563387
0.563388
0.563388
0.563388
0.563388
0.563388
0.563388
0.563388
0.563388
0.563388
0.563388
0.563388
0.563388
0.563388
0.563388
0.563388
0.563388
0.563388
0.563388
0.563388
0.563388
0.563388
0.563389
0.563389
0.563389
0.563389
0.563389
0.563389
0.563389
0.563389
0.563389
0.563389
0.563389
0.563389
0.563389
0.563389
0.563389
0.563389
0.563389
0.563389
0.563389
0.563389
0.56339
0.56339
0.56339
0.56339
0.56339
0.56339
0.56339
0.56339
0.56339
0.56339
0.56339
0.56339
0.56339
0.56339
0.56339
0.56339
0.56339
0.56339
0.56339
0.56339
0.563391
0.563391
0.563391
0.563391
0.563391
0.563391
0.563391
0.563391
0.563391
0.563391
0.563391
0.563391
0.563391
0.563391
0.563391
0.563391
0.563391
0.563391
0.563391
0.563392
0.563392
0.563392
0.563392
0.563392
0.563392
0.563392
0.563392
0.563392
0.563392
0.563392
0.563392
0.563392
0.563392
0.563392
0.563392
0.563392
0.563393
0.563393
0.563393
0.563393
0.563393
0.563393
0.563393
0.563393
0.563393
0.563393
0.563393
0.563393
0.563393
0.563393
0.563393
0.563393
0.563393
0.563393
0.563394
0.563394
0.563394
0.563394
0.563394
0.563394
0.563394
0.563394
0.563394
0.563394
0.563394
0.563394
0.563394
0.563394
0.563394
0.563394
0.563395
0.563395
0.563395
0.563395
0.563395
0.563395
0.563395
0.563395
0.563395
0.563395
0.563395
0.563395
0.563395
0.563395
0.563395
0.563395
0.563396
0.563396
0.563396
0.563396
0.563396
0.563396
0.563396
0.563396
0.563396
0.563396
0.563396
0.563396
0.563396
0.563396
0.563396
0.563397
0.563397
0.563397
0.563397
0.563397
0.563397
0.563397
0.563397
0.563397
0.563397
0.563397
0.563397
0.563397
0.563397
0.563397
0.563398
0.563398
0.563398
0.563398
0.563398
0.563398
0.563398
0.563398
0.563398
0.563398
0.563398
0.563398
0.563398
0.563398
0.563398
0.563399
0.563399
0.563399
0.563399
0.563399
0.563399
0.563399
0.563399
0.563399
0.563399
0.563399
0.563399
0.563399
0.563399
0.563399
0.5634
0.5634
0.5634
0.5634
0.5634
0.5634
0.5634
0.5634
0.5634
0.5634
0.5634
0.5634
0.5634
0.5634
0.563401
0.563401
0.563401
0.563401
0.563401
0.563401
0.563401
0.563401
0.563401
0.563401
0.563401
0.563401
0.563401
0.563401
0.563402
0.563402
0.563402
0.563402
0.563402
0.563402
0.563402
0.563402
0.563402
0.563402
0.563402
0.563402
0.563403
0.563403
0.563403
0.563403
0.563403
0.563403
0.563403
0.563403
0.563403
0.563403
0.563403
0.563403
0.563403
0.563403
0.563404
0.563404
0.563404
0.563404
0.563404
0.563404
0.563404
0.563404
0.563404
0.563404
0.563404
0.563404
0.563404
0.563405
0.563405
0.563405
0.563405
0.563405
0.563405
0.563405
0.563405
0.563405
0.563405
0.563405
0.563405
0.563406
0.563406
0.563406
0.563406
0.563406
0.563406
0.563406
0.563406
0.563406
0.563406
0.563406
0.563406
0.563406
0.563407
0.563407
0.563407
0.563407
0.563407
0.563407
0.563407
0.563407
0.563407
0.563407
0.563407
0.563408
0.563408
0.563408
0.563408
0.563408
0.563408
0.563408
0.563408
0.563408
0.563408
0.563408
0.563408
0.563409
0.563409
0.563409
0.563409
0.563409
0.563409
0.563409
0.563409
0.563409
0.563409
0.563409
0.563409
0.56341
0.56341
0.56341
0.56341
0.56341
0.56341
0.56341
0.56341
0.56341
0.56341
0.56341
0.563411
0.563411
0.563411
0.563411
0.563411
0.563411
0.563411
0.563411
0.563411
0.563411
0.563411
0.563412
0.563412
0.563412
0.563412
0.563412
0.563412
0.563412
0.563412
0.563412
0.563412
0.563412
0.563413
0.563413
0.563413
0.563413
0.563413
0.563413
0.563413
0.563413
0.563413
0.563413
0.563413
0.563413
0.563414
0.563414
0.563414
0.563414
0.563414
0.563414
0.563414
0.563414
0.563414
0.563414
0.563415
0.563415
0.563415
0.563415
0.563415
0.563415
0.563415
0.563415
0.563415
0.563415
0.563415
0.563416
0.563416
0.563416
0.563416
0.563416
0.563416
0.563416
0.563416
0.563416
0.563416
0.563417
0.563417
0.563417
0.563417
0.563417
0.563417
0.563417
0.563417
0.563417
0.563417
0.563418
0.563418
0.563418
0.563418
0.563418
0.563418
0.563418
0.563418
0.563418
0.563418
0.563418
0.563419
0.563419
0.563419
0.563419
0.563419
0.563419
0.563419
0.563419
0.563419
0.56342
0.56342
0.56342
0.56342
0.56342
0.56342
0.56342
0.56342
0.56342
0.56342
0.563421
0.563421
0.563421
0.563421
0.563421
0.563421
0.563421
0.563421
0.563421
0.563421
0.563422
0.563422
0.563422
0.563422
0.563422
0.563422
0.563422
0.563422
0.563422
0.563422
0.563423
0.563423
0.563423
0.563423
0.563423
0.563423
0.563423
0.563423
0.563423
0.563424
0.563424
0.563424
0.563424
0.563424
0.563424
0.563424
0.563424
0.563424
0.563424
0.563425
0.563425
0.563425
0.563425
0.563425
0.563425
0.563425
0.563425
0.563426
0.563426
0.563426
0.563426
0.563426
0.563426
0.563426
0.563426
0.563426
0.563426
0.563427
0.563427
0.563427
0.563427
0.563427
0.563427
0.563427
0.563427
0.563427
0.563428
0.563428
0.563428
0.563428
0.563428
0.563428
0.563428
0.563428
0.563428
0.563429
0.563429
0.563429
0.563429
0.563429
0.563429
0.563429
0.563429
0.563429
0.56343
0.56343
0.56343
0.56343
0.56343
0.56343
0.56343
0.56343
0.563431
0.563431
0.563431
0.563431
0.563431
0.563431
0.563431
0.563431
0.563431
0.563432
0.563432
0.563432
0.563432
0.563432
0.563432
0.563432
0.563432
0.563432
0.563433
0.563433
0.563433
0.563433
0.563433
0.563433
0.563433
0.563433
0.563433
0.563434
0.563434
0.563434
0.563434
0.563434
0.563434
0.563434
0.563434
0.563435
0.563435
0.563435
0.563435
0.563435
0.563435
0.563435
0.563435
0.563436
0.563436
0.563436
0.563436
0.563436
0.563436
0.563436
0.563436
0.563436
0.563437
0.563437
0.563437
0.563437
0.563437
0.563437
0.563437
0.563437
0.563438
0.563438
0.563438
0.563438
0.563438
0.563438
0.563438
0.563438
0.563439
0.563439
0.563439
0.563439
0.563439
0.563439
0.563439
0.563439
0.563439
0.56344
0.56344
0.56344
0.56344
0.56344
0.56344
0.56344
0.563441
0.563441
0.563441
0.563441
0.563441
0.563441
0.563441
0.563441
0.563442
0.563442
0.563442
0.563442
0.563442
0.563442
0.563442
0.563442
0.563443
0.563443
0.563443
0.563443
0.563443
0.563443
0.563443
0.563443
0.563444
0.563444
0.563444
0.563444
0.563444
0.563444
0.563444
0.563445
0.563445
0.563445
0.563445
0.563445
0.563445
0.563445
0.563445
0.563446
0.563446
0.563446
0.563446
0.563446
0.563446
0.563446
0.563447
0.563447
0.563447
0.563447
0.563447
0.563447
0.563447
0.563447
0.563447
0.563448
0.563448
0.563448
0.563448
0.563448
0.563448
0.563448
0.563448
0.563449
0.563449
0.563449
0.563449
0.563449
0.563449
0.563449
0.56345
0.56345
0.56345
0.56345
0.56345
0.56345
0.56345
0.56345
0.563451
0.563451
0.563451
0.563451
0.563451
0.563451
0.563452
0.563452
0.563452
0.563452
0.563452
0.563452
0.563452
0.563453
0.563453
0.563453
0.563453
0.563453
0.563453
0.563453
0.563453
0.563454
0.563454
0.563454
0.563454
0.563454
0.563454
0.563454
0.563455
0.563455
0.563455
0.563455
0.563455
0.563455
0.563455
0.563456
0.563456
0.563456
0.563456
0.563456
0.563456
0.563456
0.563457
0.563457
0.563457
0.563457
0.563457
0.563457
0.563457
0.563457
0.563458
0.563458
0.563458
0.563458
0.563458
0.563458
0.563459
0.563459
0.563459
0.563459
0.563459
0.563459
0.563459
0.56346
0.56346
0.56346
0.56346
0.56346
0.56346
0.56346
0.563461
0.563461
0.563461
0.563461
0.563461
0.563461
0.563461
0.563462
0.563462
0.563462
0.563462
0.563462
0.563462
0.563463
0.563463
0.563463
0.563463
0.563463
0.563463
0.563463
0.563463
0.563464
0.563464
0.563464
0.563464
0.563464
0.563464
0.563465
0.563465
0.563465
0.563465
0.563465
0.563465
0.563465
0.563465
0.563466
0.563466
0.563466
0.563466
0.563466
0.563466
0.563467
0.563467
0.563467
0.563467
0.563467
0.563467
0.563468
0.563468
0.563468
0.563468
0.563468
0.563468
0.563469
0.563469
0.563469
0.563469
0.563469
0.563469
0.563469
0.563469
0.56347
0.56347
0.56347
0.56347
0.56347
0.56347
0.563471
0.563471
0.563471
0.563471
0.563471
0.563471
0.563472
0.563472
0.563472
0.563472
0.563472
0.563472
0.563472
0.563473
0.563473
0.563473
0.563473
0.563473
0.563473
0.563474
0.563474
0.563474
0.563474
0.563474
0.563474
0.563475
0.563475
0.563475
0.563475
0.563475
0.563475
0.563476
0.563476
0.563476
0.563476
0.563476
0.563476
0.563476
0.563477
0.563477
0.563477
0.563477
0.563477
0.563477
0.563478
0.563478
0.563478
0.563478
0.563478
0.563478
0.563479
0.563479
0.563479
0.563479
0.563479
0.563479
0.56348
0.56348
0.56348
0.56348
0.56348
0.56348
0.56348
0.563481
0.563481
0.563481
0.563481
0.563481
0.563481
0.563482
0.563482
0.563482
0.563482
0.563482
0.563482
0.563482
0.563483
0.563483
0.563483
0.563483
0.563483
0.563484
0.563484
0.563484
0.563484
0.563484
0.563484
0.563484
0.563485
0.563485
0.563485
0.563485
0.563485
0.563486
0.563486
0.563486
0.563486
0.563486
0.563486
0.563487
0.563487
0.563487
0.563487
0.563487
0.563487
0.563488
0.563488
0.563488
0.563488
0.563488
0.563488
0.563489
0.563489
0.563489
0.563489
0.563489
0.56349
0.56349
0.56349
0.56349
0.56349
0.56349
0.56349
0.563491
0.563491
0.563491
0.563491
0.563491
0.563491
0.563492
0.563492
0.563492
0.563492
0.563492
0.563493
0.563493
0.563493
0.563493
0.563493
0.563493
0.563494
0.563494
0.563494
0.563494
0.563494
0.563494
0.563495
0.563495
0.563495
0.563495
0.563495
0.563496
0.563496
0.563496
0.563496
0.563496
0.563496
0.563496
0.563497
0.563497
0.563497
0.563497
0.563497
0.563498
0.563498
0.563498
0.563498
0.563498
0.563498
0.563499
0.563499
0.563499
0.563499
0.563499
0.5635
0.5635
0.5635
0.5635
0.5635
0.5635
0.563501
0.563501
0.563501
0.563501
0.563501
0.563502
0.563502
0.563502
0.563502
0.563502
0.563502
0.563503
0.563503
0.563503
0.563503
0.563503
0.563504
0.563504
0.563504
0.563504
0.563504
0.563505
0.563505
0.563505
0.563505
0.563505
0.563505
0.563505
0.563506
0.563506
0.563506
0.563506
0.563506
0.563507
0.563507
0.563507
0.563507
0.563507
0.563508
0.563508
0.563508
0.563508
0.563508
0.563508
0.563509
0.563509
0.563509
0.563509
0.563509
0.56351
0.56351
0.56351
0.56351
0.56351
0.563511
0.563511
0.563511
0.563511
0.563511
0.563511
0.563512
0.563512
0.563512
0.563512
0.563512
0.563513
0.563513
0.563513
0.563513
0.563513
0.563514
0.563514
0.563514
0.563514
0.563514
0.563515
0.563515
0.563515
0.563515
0.563515
0.563515
0.563516
0.563516
0.563516
0.563516
0.563516
0.563517
0.563517
0.563517
0.563517
0.563517
0.563518
0.563518
0.563518
0.563518
0.563518
0.563519
0.563519
0.563519
0.563519
0.563519
0.56352
0.56352
0.56352
0.56352
0.56352
0.563521
0.563521
0.563521
0.563521
0.563521
0.563522
0.563522
0.563522
0.563522
0.563522
0.563523
0.563523
0.563523
0.563523
0.563523
0.563524
0.563524
0.563524
0.563524
0.563524
0.563525
0.563525
0.563525
0.563525
0.563525
0.563526
0.563526
0.563526
0.563526
0.563526
0.563527
0.563527
0.563527
0.563527
0.563527
0.563528
0.563528
0.563528
0.563528
0.563528
0.563529
0.563529
0.563529
0.563529
0.563529
0.56353
0.56353
0.56353
0.56353
0.56353
0.563531
0.563531
0.563531
0.563531
0.563531
0.563532
0.563532
0.563532
0.563532
0.563532
0.563533
0.563533
0.563533
0.563533
0.563533
0.563534
0.563534
0.563534
0.563534
0.563534
0.563535
0.563535
0.563535
0.563535
0.563535
0.563536
0.563536
0.563536
0.563536
0.563536
0.563537
0.563537
0.563537
0.563537
0.563537
0.563538
0.563538
0.563538
0.563538
0.563538
0.563539
0.563539
0.563539
0.563539
0.56354
0.56354
0.56354
0.56354
0.56354
0.563541
0.563541
0.563541
0.563541
0.563541
0.563542
0.563542
0.563542
0.563542
0.563542
0.563543
0.563543
0.563543
0.563543
0.563543
0.563544
0.563544
0.563544
0.563544
0.563545
0.563545
0.563545
0.563545
0.563545
0.563546
0.563546
0.563546
0.563546
0.563546
0.563547
0.563547
0.563547
0.563547
0.563547
0.563548
0.563548
0.563548
0.563548
0.563549
0.563549
0.563549
0.563549
0.563549
0.56355
0.56355
0.56355
0.56355
0.56355
0.563551
0.563551
0.563551
0.563552
0.563552
0.563552
0.563552
0.563552
0.563553
0.563553
0.563553
0.563553
0.563553
0.563554
0.563554
0.563554
0.563554
0.563555
0.563555
0.563555
0.563555
0.563555
0.563556
0.563556
0.563556
0.563556
0.563556
0.563557
0.563557
0.563557
0.563557
0.563558
0.563558
0.563558
0.563558
0.563558
0.563559
0.563559
0.563559
0.563559
0.56356
0.56356
0.56356
0.56356
0.56356
0.563561
0.563561
0.563561
0.563561
0.563561
0.563562
0.563562
0.563562
0.563563
0.563563
0.563563
0.563563
0.563563
0.563564
0.563564
0.563564
0.563564
0.563565
0.563565
0.563565
0.563565
0.563565
0.563566
0.563566
0.563566
0.563566
0.563567
0.563567
0.563567
0.563567
0.563567
0.563568
0.563568
0.563568
0.563568
0.563569
0.563569
0.563569
0.563569
0.563569
0.56357
0.56357
0.56357
0.563571
0.563571
0.563571
0.563571
0.563571
0.563572
0.563572
0.563572
0.563572
0.563573
0.563573
0.563573
0.563573
0.563573
0.563574
0.563574
0.563574
0.563574
0.563575
0.563575
0.563575
0.563575
0.563576
0.563576
0.563576
0.563576
0.563576
0.563577
0.563577
0.563577
0.563578
0.563578
0.563578
0.563578
0.563578
0.563579
0.563579
0.563579
0.563579
0.56358
0.56358
0.56358
0.56358
0.563581
0.563581
0.563581
0.563581
0.563581
0.563582
0.563582
0.563582
0.563582
0.563583
0.563583
0.563583
0.563583
0.563583
0.563584
0.563584
0.563584
0.563585
0.563585
0.563585
0.563585
0.563586
0.563586
0.563586
0.563586
0.563587
0.563587
0.563587
0.563587
0.563587
0.563588
0.563588
0.563588
0.563588
0.563589
0.563589
0.563589
0.56359
0.56359
0.56359
0.56359
0.56359
0.563591
0.563591
0.563591
0.563591
0.563592
0.563592
0.563592
0.563592
0.563593
0.563593
0.563593
0.563593
0.563594
0.563594
0.563594
0.563594
0.563594
0.563595
0.563595
0.563595
0.563596
0.563596
0.563596
0.563596
0.563597
0.563597
0.563597
0.563597
0.563598
0.563598
0.563598
0.563598
0.563599
0.563599
0.563599
0.563599
0.563599
0.5636
0.5636
0.5636
0.563601
0.563601
0.563601
0.563601
0.563602
0.563602
0.563602
0.563602
0.563603
0.563603
0.563603
0.563603
0.563604
0.563604
0.563604
0.563604
0.563604
0.563605
0.563605
0.563605
0.563606
0.563606
0.563606
0.563606
0.563607
0.563607
0.563607
0.563607
0.563608
0.563608
0.563608
0.563608
0.563609
0.563609
0.563609
0.56361
0.56361
0.56361
0.56361
0.563611
0.563611
0.563611
0.563611
0.563612
0.563612
0.563612
0.563612
0.563612
0.563613
0.563613
0.563613
0.563613
0.563614
0.563614
0.563614
0.563615
0.563615
0.563615
0.563615
0.563616
0.563616
0.563616
0.563616
0.563617
0.563617
0.563617
0.563617
0.563618
0.563618
0.563618
0.563619
0.563619
0.563619
0.563619
0.56362
0.56362
0.56362
0.56362
0.563621
0.563621
0.563621
0.563621
0.563622
0.563622
0.563622
0.563623
0.563623
0.563623
0.563623
0.563624
0.563624
0.563624
0.563624
0.563625
0.563625
0.563625
0.563625
0.563626
0.563626
0.563626
0.563627
0.563627
0.563627
0.563627
0.563628
0.563628
0.563628
0.563628
0.563629
0.563629
0.563629
0.563629
0.56363
0.56363
0.56363
0.563631
0.563631
0.563631
0.563631
0.563632
0.563632
0.563632
0.563632
0.563633
0.563633
0.563633
0.563633
0.563634
0.563634
0.563634
0.563635
0.563635
0.563635
0.563635
0.563636
0.563636
0.563636
0.563636
0.563637
0.563637
0.563637
0.563637
0.563638
0.563638
0.563639
0.563639
0.563639
0.563639
0.56364
0.56364
0.56364
0.56364
0.563641
0.563641
0.563641
0.563642
0.563642
0.563642
0.563642
0.563643
0.563643
0.563643
0.563643
0.563644
0.563644
0.563644
0.563644
0.563645
0.563645
0.563645
0.563646
0.563646
0.563646
0.563647
0.563647
0.563647
0.563647
0.563648
0.563648
0.563648
0.563649
0.563649
0.563649
0.563649
0.56365
0.56365
0.56365
0.56365
0.563651
0.563651
0.563651
0.563651
0.563652
0.563652
0.563653
0.563653
0.563653
0.563653
0.563654
0.563654
0.563654
0.563654
0.563655
0.563655
0.563655
0.563656
0.563656
0.563656
0.563656
0.563657
0.563657
0.563657
0.563658
0.563658
0.563658
0.563659
0.563659
0.563659
0.563659
0.56366
0.56366
0.56366
0.56366
0.563661
0.563661
0.563662
0.563662
0.563662
0.563662
0.563663
0.563663
0.563663
0.563663
0.563664
0.563664
0.563664
0.563664
0.563665
0.563665
0.563666
0.563666
0.563666
0.563666
0.563667
0.563667
0.563667
0.563667
0.563668
0.563668
0.563668
0.563669
0.563669
0.563669
0.56367
0.56367
0.56367
0.56367
0.563671
0.563671
0.563671
0.563672
0.563672
0.563672
0.563673
0.563673
0.563673
0.563673
0.563674
0.563674
0.563674
0.563675
0.563675
0.563675
0.563675
0.563676
0.563676
0.563676
0.563677
0.563677
0.563677
0.563678
0.563678
0.563678
0.563678
0.563679
0.563679
0.563679
0.56368
0.56368
0.56368
0.563681
0.563681
0.563681
0.563682
0.563682
0.563682
0.563682
0.563683
0.563683
0.563683
0.563684
0.563684
0.563684
0.563685
0.563685
0.563685
0.563685
0.563686
0.563686
0.563686
0.563687
0.563687
0.563687
0.563688
0.563688
0.563688
0.563688
0.563689
0.563689
0.56369
0.56369
0.56369
0.56369
0.563691
0.563691
0.563691
0.563691
0.563692
0.563692
0.563692
0.563693
0.563693
0.563693
0.563694
0.563694
0.563695
0.563695
0.563695
0.563695
0.563696
0.563696
0.563696
0.563696
0.563697
0.563697
0.563698
0.563698
0.563698
0.563698
0.563699
0.563699
0.563699
0.5637
0.5637
0.5637
0.563701
0.563701
0.563701
0.563702
0.563702
0.563702
0.563702
0.563703
0.563703
0.563704
0.563704
0.563704
0.563704
0.563705
0.563705
0.563706
0.563706
0.563706
0.563706
0.563707
0.563707
0.563707
0.563708
0.563708
0.563708
0.563709
0.563709
0.563709
0.56371
0.56371
0.56371
0.56371
0.563711
0.563711
0.563712
0.563712
0.563712
0.563712
0.563713
0.563713
0.563714
0.563714
0.563714
0.563714
0.563715
0.563715
0.563715
0.563716
0.563716
0.563716
0.563717
0.563717
0.563717
0.563718
0.563718
0.563718
0.563718
0.563719
0.563719
0.56372
0.56372
0.56372
0.56372
0.563721
0.563721
0.563722
0.563722
0.563722
0.563722
0.563723
0.563723
0.563723
0.563724
0.563724
0.563725
0.563725
0.563725
0.563725
0.563726
0.563726
0.563727
0.563727
0.563727
0.563727
0.563728
0.563728
0.563728
0.563729
0.563729
0.563729
0.56373
0.56373
0.56373
0.563731
0.563731
0.563732
0.563732
0.563732
0.563732
0.563733
0.563733
0.563733
0.563734
0.563734
0.563735
0.563735
0.563735
0.563735
0.563736
0.563736
0.563737
0.563737
0.563737
0.563737
0.563738
0.563738
0.563738
0.563739
0.563739
0.56374
0.56374
0.56374
0.56374
0.563741
0.563741
0.563742
0.563742
0.563742
0.563743
0.563743
0.563743
0.563743
0.563744
0.563744
0.563745
0.563745
0.563745
0.563746
0.563746
0.563746
0.563747
0.563747
0.563747
0.563748
0.563748
0.563749
0.563749
0.563749
0.563749
0.56375
0.56375
0.56375
0.563751
0.563751
0.563752
0.563752
0.563752
0.563752
0.563753
0.563753
0.563754
0.563754
0.563754
0.563755
0.563755
0.563755
0.563755
0.563756
0.563756
0.563757
0.563757
0.563757
0.563758
0.563758
0.563759
0.563759
0.563759
0.563759
0.56376
0.56376
0.563761
0.563761
0.563761
0.563762
0.563762
0.563762
0.563762
0.563763
0.563763
0.563764
0.563764
0.563764
0.563765
0.563765
0.563766
0.563766
0.563766
0.563766
0.563767
0.563767
0.563768
0.563768
0.563768
0.563769
0.563769
0.563769
0.563769
0.56377
0.56377
0.563771
0.563771
0.563771
0.563772
0.563772
0.563773
0.563773
0.563773
0.563774
0.563774
0.563774
0.563775
0.563775
0.563775
0.563776
0.563776
0.563777
0.563777
0.563777
0.563778
0.563778
0.563779
0.563779
0.563779
0.563779
0.56378
0.56378
0.56378
0.563781
0.563781
0.563782
0.563782
0.563782
0.563783
0.563783
0.563784
0.563784
0.563784
0.563784
0.563785
0.563785
0.563786
0.563786
0.563786
0.563787
0.563787
0.563788
0.563788
0.563788
0.563789
0.563789
0.56379
0.56379
0.56379
0.56379
0.563791
0.563791
0.563791
0.563792
0.563792
0.563793
0.563793
0.563793
0.563794
0.563794
0.563795
0.563795
0.563795
0.563796
0.563796
0.563796
0.563797
0.563797
0.563797
0.563798
0.563798
0.563799
0.563799
0.563799
0.5638
0.5638
0.563801
0.563801
0.563801
0.563802
0.563802
0.563803
0.563803
0.563803
0.563804
0.563804
0.563804
0.563804
0.563805
0.563805
0.563806
0.563806
0.563806
0.563807
0.563807
0.563808
0.563808
0.563808
0.563809
0.563809
0.56381
0.56381
0.56381
0.563811
0.563811
0.563812
0.563812
0.563812
0.563813
0.563813
0.563814
0.563814
0.563814
0.563814
0.563815
0.563815
0.563816
0.563816
0.563816
0.563817
0.563817
0.563818
0.563818
0.563818
0.563819
0.563819
0.56382
0.56382
0.56382
0.563821
0.563821
0.563822
0.563822
0.563822
0.563823
0.563823
0.563824
0.563824
0.563824
0.563825
0.563825
0.563826
0.563826
0.563826
0.563827
0.563827
0.563828
0.563828
0.563828
0.563829
0.563829
0.56383
0.56383
0.56383
0.563831
0.563831
0.563832
0.563832
0.563832
0.563833
0.563833
0.563834
0.563834
0.563834
0.563835
0.563835
0.563836
0.563836
0.563836
0.563837
0.563837
0.563838
0.563838
0.563838
0.563838
0.563839
0.563839
0.563839
0.56384
0.56384
0.563841
0.563841
0.563841
0.563842
0.563843
0.563843
0.563844
0.563844
0.563844
0.563845
0.563845
0.563845
0.563845
0.563846
0.563846
0.563847
0.563847
0.563847
0.563848
0.563848
0.563849
0.563849
0.563849
0.56385
0.563851
0.563851
0.563852
0.563852
0.563852
0.563853
0.563853
0.563854
0.563854
0.563854
0.563855
0.563855
0.563856
0.563856
0.563856
0.563857
0.563857
0.563858
0.563858
0.563858
0.563859
0.563859
0.56386
0.56386
0.56386
0.563861
0.563861
0.563862
0.563862
0.563862
0.563863
0.563863
0.563864
0.563864
0.563864
0.563865
0.563865
0.563866
0.563866
0.563867
0.563867
0.563868
0.563868
0.563868
0.563869
0.563869
0.56387
0.56387
0.56387
0.563871
0.563871
0.563872
0.563872
0.563872
0.563873
0.563873
0.563874
0.563874
0.563874
0.563875
0.563875
0.563876
0.563876
0.563876
0.563877
0.563878
0.563878
0.563879
0.563879
0.563879
0.56388
0.56388
0.563881
0.563881
0.563881
0.563882
0.563882
0.563883
0.563883
0.563883
0.563884
0.563884
0.563885
0.563885
0.563886
0.563886
0.563887
0.563887
0.563887
0.563888
0.563888
0.563889
0.563889
0.563889
0.56389
0.56389
0.563891
0.563891
0.563891
0.563892
0.563892
0.563893
0.563894
0.563894
0.563894
0.563895
0.563895
0.563896
0.563896
0.563896
0.563897
0.563897
0.563898
0.563898
0.563898
0.563899
0.5639
0.5639
0.5639
0.563901
0.563901
0.563902
0.563902
0.563902
0.563903
0.563903
0.563904
0.563905
0.563905
0.563905
0.563906
0.563906
0.563907
0.563907
0.563907
0.563908
0.563908
0.563909
0.563909
0.563909
0.56391
0.563911
0.563911
0.563911
0.563912
0.563912
0.563913
0.563913
0.563913
0.563914
0.563914
0.563915
0.563916
0.563916
0.563916
0.563917
0.563917
0.563918
0.563918
0.563918
0.563919
0.563919
0.56392
0.56392
0.563921
0.563921
0.563922
0.563922
0.563922
0.563923
0.563923
0.563924
0.563925
0.563925
0.563925
0.563926
0.563926
0.563927
0.563927
0.563927
0.563928
0.563929
0.563929
0.563929
0.56393
0.56393
0.563931
0.563931
0.563931
0.563932
0.563932
0.563933
0.563934
0.563934
0.563934
0.563935
0.563935
0.563936
0.563936
0.563937
0.563937
0.563938
0.563938
0.563938
0.563939
0.563939
0.56394
0.563941
0.563941
0.563941
0.563942
0.563942
0.563943
0.563943
0.563943
0.563944
0.563945
0.563945
0.563945
0.563946
0.563946
0.563947
0.563947
0.563947
0.563948
0.563949
0.563949
0.56395
0.56395
0.56395
0.563951
0.563952
0.563952
0.563952
0.563953
0.563953
0.563954
0.563955
0.563955
0.563955
0.563956
0.563956
0.563957
0.563957
0.563957
0.563958
0.563959
0.563959
0.563959
0.56396
0.56396
0.563961
0.563962
0.563962
0.563962
0.563963
0.563963
0.563964
0.563964
0.563965
0.563965
0.563966
0.563966
0.563966
0.563967
0.563968
0.563968
0.563969
0.563969
0.563969
0.56397
0.563971
0.563971
0.563971
0.563972
0.563972
0.563973
0.563973
0.563973
0.563974
0.563975
0.563975
0.563976
0.563976
0.563976
0.563977
0.563978
0.563978
0.563978
0.563979
0.56398
0.56398
0.563981
0.563981
0.563981
0.563982
0.563983
0.563983
0.563983
0.563984
0.563984
0.563985
0.563986
0.563986
0.563986
0.563987
0.563988
0.563988
0.563988
0.563989
0.563989
0.56399
0.563991
0.563991
0.563991
0.563992
0.563992
0.563993
0.563993
0.563994
0.563994
0.563995
0.563996
0.563996
0.563996
0.563997
0.563997
0.563998
0.563998
0.563999
0.563999
0.564
0.564
0.564
0.564001
0.564002
0.564002
0.564003
0.564003
0.564004
0.564004
0.564005
0.564005
0.564005
0.564006
0.564007
0.564007
0.564008
0.564008
0.564009
0.564009
0.56401
0.564011
0.564011
0.564011
0.564012
0.564012
0.564013
0.564013
0.564014
0.564014
0.564015
0.564016
0.564016
0.564016
0.564017
0.564017
0.564018
0.564018
0.564019
0.564019
0.56402
0.56402
0.56402
0.564021
0.564022
0.564023
0.564023
0.564023
0.564024
0.564024
0.564025
0.564026
0.564026
0.564026
0.564027
0.564028
0.564028
0.564028
0.564029
0.56403
0.56403
0.564031
0.564031
0.564032
0.564032
0.564033
0.564034
0.564034
0.564034
0.564035
0.564035
0.564036
0.564036
0.564037
0.564037
0.564038
0.564039
0.564039
0.564039
0.56404
0.564041
0.564041
0.564041
0.564042
0.564043
0.564043
0.564044
0.564044
0.564045
0.564045
0.564046
0.564047
0.564047
0.564047
0.564048
0.564049
0.564049
0.564049
0.56405
0.564051
0.564051
0.564052
0.564052
0.564053
0.564053
0.564054
0.564055
0.564055
0.564055
0.564056
0.564057
0.564057
0.564057
0.564058
0.564059
0.564059
0.56406
0.56406
0.564061
0.564061
0.564062
0.564062
0.564062
0.564063
0.564064
0.564064
0.564065
0.564065
0.564066
0.564066
0.564067
0.564068
0.564068
0.564069
0.564069
0.56407
0.564071
0.564071
0.564071
0.564072
0.564073
0.564073
0.564073
0.564074
0.564075
0.564075
0.564076
0.564076
0.564077
0.564077
0.564078
0.564079
0.564079
0.564079
0.56408
0.564081
0.564081
0.564081
0.564082
0.564083
0.564084
0.564084
0.564084
0.564085
0.564086
0.564086
0.564087
0.564087
0.564088
0.564088
0.564089
0.56409
0.56409
0.56409
0.564091
0.564092
0.564093
0.564093
0.564093
0.564094
0.564095
0.564095
0.564095
0.564096
0.564097
0.564097
0.564098
0.564098
0.564099
0.564099
0.5641
0.564101
0.564101
0.564102
0.564102
0.564103
0.564104
0.564104
0.564104
0.564105
0.564106
0.564106
0.564106
0.564107
0.564108
0.564109
0.564109
0.564109
0.56411
0.564111
0.564111
0.564112
0.564112
0.564113
0.564113
0.564114
0.564115
0.564115
0.564116
0.564116
0.564117
0.564118
0.564118
0.564119
0.564119
0.56412
0.564121
0.564121
0.564121
0.564122
0.564123
0.564124
0.564124
0.564124
0.564125
0.564126
0.564126
0.564126
0.564127
0.564128
0.564129
0.564129
0.564129
0.56413
0.564131
0.564131
0.564132
0.564132
0.564133
0.564134
0.564134
0.564135
0.564135
0.564136
0.564137
0.564137
0.564138
0.564138
0.564139
0.564139
0.56414
0.564141
0.564141
0.564142
0.564142
0.564143
0.564144
0.564144
0.564145
0.564145
0.564146
0.564147
0.564147
0.564147
0.564148
0.564149
0.56415
0.56415
0.56415
0.564151
0.564152
0.564153
0.564153
0.564153
0.564154
0.564155
0.564156
0.564156
0.564156
0.564157
0.564158
0.564158
0.564158
0.564159
0.56416
0.564161
0.564161
0.564161
0.564162
0.564163
0.564164
0.564165
0.564165
0.564165
0.564166
0.564167
0.564168
0.564168
0.564168
0.564169
0.56417
0.564171
0.564171
0.564171
0.564172
0.564173
0.564174
0.564174
0.564174
0.564175
0.564176
0.564177
0.564177
0.564177
0.564178
0.564179
0.56418
0.56418
0.56418
0.564181
0.564182
0.564183
0.564183
0.564183
0.564184
0.564185
0.564186
0.564186
0.564186
0.564187
0.564188
0.564189
0.564189
0.56419
0.56419
0.564191
0.564192
0.564192
0.564193
0.564193
0.564194
0.564195
0.564195
0.564196
0.564196
0.564197
0.564198
0.564198
0.564199
0.5642
0.5642
0.564201
0.564201
0.564202
0.564203
0.564203
0.564204
0.564204
0.564205
0.564206
0.564206
0.564207
0.564207
0.564208
0.564209
0.564209
0.56421
0.56421
0.564211
0.564212
0.564213
0.564214
0.564214
0.564214
0.564215
0.564216
0.564217
0.564217
0.564218
0.564218
0.564219
0.56422
0.56422
0.564221