<?xml version="1.0"?>
<VTKFile type="UnstructuredGrid" version="0.1" byte_order="LittleEndian">
<UnstructuredGrid>
<Piece NumberOfPoints="5000" NumberOfCells="4000">
<PointData Scalars="Reaction 0">
<DataArray type="Float32" Name="Reaction 0" format="ascii">
0.352348
0.352348
0.352348
0.352348
0.352348
0.352348
0.352348
0.352348
0.352348
0.352349
0.352349
0.352349
0.352349
0.352349
0.35235
0.35235
0.35235
0.352351
0.352351
0.352351
0.352351
0.352352
0.352352
0.352353
0.352354
0.352354
0.352354
0.352355
0.352356
0.352356
0.352356
0.352357
0.352358
0.352359
0.352359
0.352359
0.35236
0.352361
0.352362
0.352363
0.352363
0.352364
0.352365
0.352366
0.352367
0.352367
0.352368
0.352369
0.35237
0.352372
0.352372
0.352373
0.352374
0.352375
0.352377
0.352377
0.352378
0.352379
0.352381
0.352382
0.352382
0.352384
0.352385
0.352386
0.352388
0.352388
0.35239
0.352391
0.352393
0.352394
0.352394
0.352396
0.352398
0.3524
0.352401
0.352401
0.352403
0.352405
0.352407
0.352409
0.352409
0.352411
0.352413
0.352415
0.352417
0.352417
0.352419
0.352421
0.352423
0.352425
0.352425
0.352427
0.352429
0.352432
0.352434
0.352434
0.352436
0.352439
0.352441
0.352443
0.352443
0.352446
0.352448
0.352451
0.352453
0.352453
0.352456
0.352458
0.352461
0.352463
0.352463
0.352466
0.352469
0.352471
0.352474
0.352474
0.352477
0.35248
0.352483
0.352485
0.352485
0.352488
0.352491
0.352494
0.352497
0.352497
0.3525
0.352503
0.352506
0.352509
0.352509
0.352512
0.352516
0.352519
0.352522
0.352522
0.352525
0.352528
0.352532
0.352535
0.352535
0.352538
0.352542
0.352545
0.352549
0.352549
0.352552
0.352556
0.352559
0.352563
0.352563
0.352566
0.35257
0.352574
0.352577
0.352577
0.352581
0.352585
0.352589
0.352593
0.352593
0.352596
0.3526
0.352604
0.352608
0.352608
0.352612
0.352616
0.35262
0.352624
0.352624
0.352628
0.352632
0.352636
0.352641
0.352641
0.352645
0.352649
0.352653
0.352658
0.352658
0.352662
0.352666
0.352671
0.352675
0.352675
0.352679
0.352684
0.352688
0.352693
0.352693
0.352698
0.352702
0.352707
0.352711
0.352711
0.352716
0.352721
0.352725
0.35273
0.35273
0.352735
0.35274
0.352745
0.35275
0.35275
0.352755
0.35276
0.352764
0.352769
0.352769
0.352775
0.35278
0.352785
0.35279
0.35279
0.352795
0.3528
0.352805
0.352811
0.352811
0.352816
0.352821
0.352827
0.352832
0.352832
0.352837
0.352843
0.352848
0.352854
0.352854
0.352859
0.352865
0.35287
0.352876
0.352876
0.352882
0.352887
0.352893
0.352899
0.352899
0.352904
0.35291
0.352916
0.352922
0.352922
0.352928
0.352934
0.35294
0.352945
0.352945
0.352951
0.352957
0.352964
0.35297
0.35297
0.352976
0.352982
0.352988
0.352994
0.352994
0.353
0.353007
0.353013
0.353019
0.353019
0.353026
0.353032
0.353039
0.353045
0.353045
0.353051
0.353058
0.353064
0.353071
0.353071
0.353078
0.353084
0.353091
0.353098
0.353098
0.353104
0.353111
0.353118
0.353125
0.353125
0.353131
0.353138
0.353145
0.353152
0.353152
0.353159
0.353166
0.353173
0.35318
0.35318
0.353187
0.353194
0.353201
0.353208
0.353208
0.353216
0.353223
0.35323
0.353237
0.353237
0.353245
0.353252
0.353259
0.353267
0.353267
0.353274
0.353282
0.353289
0.353297
0.353297
0.353304
0.353312
0.353319
0.353327
0.353327
0.353335
0.353342
0.35335
0.353358
0.353358
0.353366
0.353374
0.353381
0.353389
0.353389
0.353397
0.353405
0.353413
0.353421
0.353421
0.353429
0.353437
0.353445
0.353453
0.353453
0.353461
0.35347
0.353478
0.353486
0.353486
0.353494
0.353503
0.353511
0.353519
0.353519
0.353528
0.353536
0.353545
0.353553
0.353553
0.353561
0.35357
0.353579
0.353587
0.353587
0.353596
0.353604
0.353613
0.353622
0.353622
0.353631
0.353639
0.353648
0.353657
0.353657
0.353666
0.353675
0.353684
0.353693
0.353693
0.353702
0.353711
0.35372
0.353729
0.353729
0.353738
0.353747
0.353756
0.353765
0.353765
0.353774
0.353784
0.353793
0.353802
0.353802
0.353812
0.353821
0.35383
0.35384
0.35384
0.353849
0.353859
0.353868
0.353878
0.353878
0.353887
0.353897
0.353907
0.353916
0.353916
0.353926
0.353936
0.353945
0.353955
0.353955
0.353965
0.353975
0.353985
0.353995
0.353995
0.354005
0.354015
0.354025
0.354035
0.354035
0.354045
0.354055
0.354065
0.354075
0.354075
0.354085
0.354095
0.354106
0.354116
0.354116
0.354126
0.354136
0.354147
0.354157
0.354157
0.354168
0.354178
0.354189
0.354199
0.354199
0.35421
0.35422
0.354231
0.354241
0.354241
0.354252
0.354263
0.354273
0.354284
0.354284
0.354295
0.354306
0.354316
0.354327
0.354327
0.354338
0.354349
0.35436
0.354371
0.354371
0.354382
0.354393
0.354404
0.354415
0.354415
0.354426
0.354438
0.354449
0.35446
0.35446
0.354471
0.354482
0.354494
0.354505
0.354505
0.354517
0.354528
0.354539
0.354551
0.354551
0.354562
0.354574
0.354585
0.354597
0.354597
0.354608
0.35462
0.354632
0.354643
0.354643
0.354655
0.354667
0.354679
0.354691
0.354691
0.354702
0.354714
0.354726
0.354738
0.354738
0.35475
0.354762
0.354774
0.354786
0.354786
0.354798
0.35481
0.354822
0.354835
0.354835
0.354847
0.354859
0.354871
0.354884
0.354884
0.354896
0.354908
0.354921
0.354933
0.354933
0.354945
0.354958
0.35497
0.354983
0.354983
0.354996
0.355008
0.355021
0.355033
0.355033
0.355046
0.355059
0.355071
0.355084
0.355084
0.355097
0.35511
0.355123
0.355136
0.355136
0.355149
0.355161
0.355174
0.355187
0.355187
0.3552
0.355214
0.355227
0.35524
0.35524
0.355253
0.355266
0.355279
0.355293
0.355293
0.355306
0.355319
0.355332
0.355346
0.355346
0.355359
0.355373
0.355386
0.3554
0.3554
0.355413
0.355427
0.35544
0.355454
0.355454
0.355467
0.355481
0.355495
0.355508
0.355508
0.355522
0.355536
0.35555
0.355564
0.355564
0.355578
0.355591
0.355605
0.355619
0.355619
0.355633
0.355647
0.355661
0.355675
0.355675
0.35569
0.355704
0.355718
0.355732
0.355732
0.355746
0.35576
0.355775
0.355789
0.355789
0.355803
0.355818
0.355832
0.355847
0.355847
0.355861
0.355876
0.35589
0.355905
0.355905
0.355919
0.355934
0.355949
0.355963
0.355963
0.355978
0.355993
0.356007
0.356022
0.356022
0.356037
0.356052
0.356067
0.356082
0.356082
0.356097
0.356112
0.356127
0.356142
0.356142
0.356157
0.356172
0.356187
0.356202
0.356202
0.356217
0.356232
0.356248
0.356263
0.356263
0.356278
0.356293
0.356309
0.356324
0.356324
0.35634
0.356355
0.356371
0.356386
0.356386
0.356402
0.356417
0.356433
0.356448
0.356448
0.356464
0.35648
0.356495
0.356511
0.356511
0.356527
0.356543
0.356559
0.356574
0.356574
0.35659
0.356606
0.356622
0.356638
0.356638
0.356654
0.35667
0.356686
0.356702
0.356702
0.356718
0.356735
0.356751
0.356767
0.356767
0.356783
0.3568
0.356816
0.356832
0.356832
0.356849
0.356865
0.356881
0.356898
0.356898
0.356914
0.356931
0.356947
0.356964
0.356964
0.356981
0.356997
0.357014
0.357031
0.357031
0.357047
0.357064
0.357081
0.357098
0.357098
0.357114
0.357131
0.357148
0.357165
0.357165
0.357182
0.357199
0.357216
0.357233
0.357233
0.35725
0.357267
0.357284
0.357302
0.357302
0.357319
0.357336
0.357353
0.357371
0.357371
0.357388
0.357405
0.357423
0.35744
0.35744
0.357457
0.357475
0.357492
0.35751
0.35751
0.357528
0.357545
0.357563
0.35758
0.35758
0.357598
0.357616
0.357633
0.357651
0.357651
0.357669
0.357687
0.357705
0.357723
0.357723
0.35774
0.357758
0.357776
0.357794
0.357794
0.357812
0.35783
0.357849
0.357867
0.357867
0.357885
0.357903
0.357921
0.357939
0.357939
0.357958
0.357976
0.357994
0.358013
0.358013
0.358031
0.358049
0.358068
0.358086
0.358086
0.358105
0.358123
0.358142
0.358161
0.358161
0.358179
0.358198
0.358217
0.358235
0.358235
0.358254
0.358273
0.358292
0.35831
0.35831
0.358329
0.358348
0.358367
0.358386
0.358386
0.358405
0.358424
0.358443
0.358462
0.358462
0.358481
0.3585
0.358519
0.358539
0.358539
0.358558
0.358577
0.358596
0.358616
0.358616
0.358635
0.358654
0.358674
0.358693
0.358693
0.358713
0.358732
0.358752
0.358771
0.358771
0.358791
0.35881
0.35883
0.35885
0.35885
0.358869
0.358889
0.358909
0.358929
0.358929
0.358948
0.358968
0.358988
0.359008
0.359008
0.359028
0.359048
0.359068
0.359088
0.359088
0.359108
0.359128
0.359148
0.359168
0.359168
0.359188
0.359209
0.359229
0.359249
0.359249
0.359269
0.35929
0.35931
0.35933
0.35933
0.359351
0.359371
0.359392
0.359412
0.359412
0.359433
0.359453
0.359474
0.359494
0.359494
0.359515
0.359536
0.359556
0.359577
0.359577
0.359598
0.359619
0.35964
0.35966
0.35966
0.359681
0.359702
0.359723
0.359744
0.359744
0.359765
0.359786
0.359807
0.359828
0.359828
0.359849
0.35987
0.359892
0.359913
0.359913
0.359934
0.359955
0.359977
0.359998
0.359998
0.360019
0.360041
0.360062
0.360083
0.360083
0.360105
0.360126
0.360148
0.36017
0.36017
0.360191
0.360213
0.360234
0.360256
0.360256
0.360278
0.360299
0.360321
0.360343
0.360343
0.360365
0.360387
0.360409
0.36043
0.36043
0.360452
0.360474
0.360496
0.360518
0.360518
0.36054
0.360563
0.360585
0.360607
0.360607
0.360629
0.360651
0.360673
0.360696
0.360696
0.360718
0.36074
0.360763
0.360785
0.360785
0.360807
0.36083
0.360852
0.360875
0.360875
0.360897
0.36092
0.360943
0.360965
0.360965
0.360988
0.361011
0.361033
0.361056
0.361056
0.361079
0.361102
0.361124
0.361147
0.361147
0.36117
0.361193
0.361216
0.361239
0.361239
0.361262
0.361285
0.361308
0.361331
0.361331
0.361354
0.361377
0.361401
0.361424
0.361424
0.361447
0.36147
0.361494
0.361517
0.361517
0.36154
0.361564
0.361587
0.361611
0.361611
0.361634
0.361657
0.361681
0.361705
0.361705
0.361728
0.361752
0.361775
0.361799
0.361799
0.361823
0.361847
0.36187
0.361894
0.361894
0.361918
0.361942
0.361966
0.36199
0.36199
0.362014
0.362038
0.362062
0.362086
0.362086
0.36211
0.362134
0.362158
0.362182
0.362182
0.362206
0.36223
0.362255
0.362279
0.362279
0.362303
0.362328
0.362352
0.362376
0.362376
0.362401
0.362425
0.36245
0.362474
0.362474
0.362499
0.362523
0.362548
0.362573
0.362573
0.362597
0.362622
0.362647
0.362671
0.362671
0.362696
0.362721
0.362746
0.362771
0.362771
0.362796
0.36282
0.362845
0.36287
0.36287
0.362895
0.36292
0.362946
0.362971
0.362971
0.362996
0.363021
0.363046
0.363071
0.363071
0.363097
0.363122
0.363147
0.363172
0.363172
0.363198
0.363223
0.363249
0.363274
0.363274
0.3633
0.363325
0.363351
0.363376
0.363376
0.363402
0.363427
0.363453
0.363479
0.363479
0.363505
0.36353
0.363556
0.363582
0.363582
0.363608
0.363634
0.363659
0.363685
0.363685
0.363711
0.363737
0.363763
0.363789
0.363789
0.363815
0.363842
0.363868
0.363894
0.363894
0.36392
0.363946
0.363972
0.363999
0.363999
0.364025
0.364051
0.364078
0.364104
0.364104
0.364131
0.364157
0.364183
0.36421
0.36421
0.364237
0.364263
0.36429
0.364316
0.364316
0.364343
0.36437
0.364396
0.364423
0.364423
0.36445
0.364477
0.364504
0.36453
0.36453
0.364557
0.364584
0.364611
0.364638
0.364638
0.364665
0.364692
0.364719
0.364746
0.364746
0.364774
0.364801
0.364828
0.364855
0.364855
0.364882
0.36491
0.364937
0.364964
0.364964
0.364992
0.365019
0.365046
0.365074
0.365074
0.365101
0.365129
0.365156
0.365184
0.365184
0.365212
0.365239
0.365267
0.365295
0.365295
0.365322
0.36535
0.365378
0.365406
0.365406
0.365434
0.365461
0.365489
0.365517
0.365517
0.365545
0.365573
0.365601
0.365629
0.365629
0.365657
0.365685
0.365713
0.365742
0.365742
0.36577
0.365798
0.365826
0.365855
0.365855
0.365883
0.365911
0.36594
0.365968
0.365968
0.365996
0.366025
0.366053
0.366082
0.366082
0.36611
0.366139
0.366168
0.366196
0.366196
0.366225
0.366254
0.366282
0.366311
0.366311
0.36634
0.366369
0.366397
0.366426
0.366426
0.366455
0.366484
0.366513
0.366542
0.366542
0.366571
0.3666
0.366629
0.366658
0.366658
0.366687
0.366717
0.366746
0.366775
0.366775
0.366804
0.366833
0.366863
0.366892
0.366892
0.366921
0.366951
0.36698
0.36701
0.36701
0.367039
0.367069
0.367098
0.367128
0.367128
0.367157
0.367187
0.367217
0.367246
0.367246
0.367276
0.367306
0.367336
0.367365
0.367365
0.367395
0.367425
0.367455
0.367485
0.367485
0.367515
0.367545
0.367575
0.367605
0.367605
0.367635
0.367665
0.367695
0.367725
0.367725
0.367755
0.367786
0.367816
0.367846
0.367846
0.367877
0.367907
0.367937
0.367968
0.367968
0.367998
0.368028
0.368059
0.368089
0.368089
0.36812
0.368151
0.368181
0.368212
0.368212
0.368242
0.368273
0.368304
0.368335
0.368335
0.368365
0.368396
0.368427
0.368458
0.368458
0.368489
0.36852
0.368551
0.368581
0.368581
0.368612
0.368644
0.368675
0.368706
0.368706
0.368737
0.368768
0.368799
0.36883
0.36883
0.368862
0.368893
0.368924
0.368955
0.368955
0.368987
0.369018
0.36905
0.369081
0.369081
0.369113
0.369144
0.369176
0.369207
0.369207
0.369239
0.36927
0.369302
0.369334
0.369334
0.369365
0.369397
0.369429
0.369461
0.369461
0.369492
0.369524
0.369556
0.369588
0.369588
0.36962
0.369652
0.369684
0.369716
0.369716
0.369748
0.36978
0.369812
0.369844
0.369844
0.369877
0.369909
0.369941
0.369973
0.369973
0.370006
0.370038
0.37007
0.370103
0.370103
0.370135
0.370167
0.3702
0.370232
0.370232
0.370265
0.370297
0.37033
0.370363
0.370363
0.370395
0.370428
0.370461
0.370493
0.370493
0.370526
0.370559
0.370592
0.370625
0.370625
0.370657
0.37069
0.370723
0.370756
0.370756
0.370789
0.370822
0.370855
0.370888
0.370888
0.370922
0.370955
0.370988
0.371021
0.371021
0.371054
0.371087
0.371121
0.371154
0.371154
0.371187
0.371221
0.371254
0.371288
0.371288
0.371321
0.371355
0.371388
0.371422
0.371422
0.371455
0.371489
0.371522
0.371556
0.371556
0.37159
0.371623
0.371657
0.371691
0.371691
0.371725
0.371759
0.371793
0.371826
0.371826
0.37186
0.371894
0.371928
0.371962
0.371962
0.371996
0.37203
0.372064
0.372099
0.372099
0.372133
0.372167
0.372201
0.372235
0.372235
0.37227
0.372304
0.372338
0.372373
0.372373
0.372407
0.372441
0.372476
0.37251
0.37251
0.372545
0.372579
0.372614
0.372649
0.372649
0.372683
0.372718
0.372753
0.372787
0.372787
0.372822
0.372857
0.372892
0.372926
0.372926
0.372961
0.372996
0.373031
0.373066
0.373066
0.373101
0.373136
0.373171
0.373206
0.373206
0.373241
0.373276
0.373311
0.373347
0.373347
0.373382
0.373417
0.373452
0.373488
0.373488
0.373523
0.373558
0.373594
0.373629
0.373629
0.373664
0.3737
0.373735
0.373771
0.373771
0.373806
0.373842
0.373878
0.373913
0.373913
0.373949
0.373985
0.37402
0.374056
0.374056
0.374092
0.374128
0.374164
0.3742
0.3742
0.374235
0.374271
0.374307
0.374343
0.374343
0.374379
0.374415
0.374451
0.374488
0.374488
0.374524
0.37456
0.374596
0.374632
0.374632
0.374668
0.374705
0.374741
0.374777
0.374777
0.374814
0.37485
0.374887
0.374923
0.374923
0.37496
0.374996
0.375033
0.375069
0.375069
0.375106
0.375142
0.375179
0.375216
0.375216
0.375252
0.375289
0.375326
0.375363
0.375363
0.3754
0.375436
0.375473
0.37551
0.37551
0.375547
0.375584
0.375621
0.375658
0.375658
0.375695
0.375732
0.37577
0.375807
0.375807
0.375844
0.375881
0.375918
0.375956
0.375956
0.375993
0.37603
0.376068
0.376105
0.376105
0.376142
0.37618
0.376217
0.376255
0.376255
0.376292
0.37633
0.376367
0.376405
0.376405
0.376443
0.37648
0.376518
0.376556
0.376556
0.376593
0.376631
0.376669
0.376707
0.376707
0.376745
0.376783
0.376821
0.376859
0.376859
0.376897
0.376935
0.376973
0.377011
0.377011
0.377049
0.377087
0.377125
0.377163
0.377163
0.377202
0.37724
0.377278
0.377316
0.377316
0.377355
0.377393
0.377432
0.37747
0.37747
0.377508
0.377547
0.377585
0.377624
0.377624
0.377663
0.377701
0.37774
0.377778
0.377778
0.377817
0.377856
0.377895
0.377933
0.377933
0.377972
0.378011
0.37805
0.378089
0.378089
0.378128
0.378167
0.378206
0.378245
0.378245
0.378284
0.378323
0.378362
0.378401
0.378401
0.37844
0.378479
0.378518
0.378558
0.378558
0.378597
0.378636
0.378675
0.378715
0.378715
0.378754
0.378794
0.378833
0.378872
0.378872
0.378912
0.378952
0.378991
0.379031
0.379031
0.37907
0.37911
0.37915
0.379189
0.379189
0.379229
0.379269
0.379309
0.379348
0.379348
0.379388
0.379428
0.379468
0.379508
0.379508
0.379548
0.379588
0.379628
0.379668
0.379668
0.379708
0.379748
0.379788
0.379828
0.379828
0.379869
0.379909
0.379949
0.379989
0.379989
0.38003
0.38007
0.38011
0.380151
0.380151
0.380191
0.380232
0.380272
0.380312
0.380312
0.380353
0.380394
0.380434
0.380475
0.380475
0.380515
0.380556
0.380597
0.380638
0.380638
0.380678
0.380719
0.38076
0.380801
0.380801
0.380842
0.380883
0.380924
0.380965
0.380965
0.381005
0.381047
0.381088
0.381129
0.381129
0.38117
0.381211
0.381252
0.381293
0.381293
0.381334
0.381376
0.381417
0.381458
0.381458
0.3815
0.381541
0.381582
0.381624
0.381624
0.381665
0.381707
0.381748
0.38179
0.38179
0.381831
0.381873
0.381915
0.381956
0.381956
0.381998
0.38204
0.382081
0.382123
0.382123
0.382165
0.382207
0.382249
0.382291
0.382291
0.382333
0.382374
0.382416
0.382458
0.382458
0.382501
0.382543
0.382585
0.382627
0.382627
0.382669
0.382711
0.382753
0.382796
0.382796
0.382838
0.38288
0.382922
0.382965
0.382965
0.383007
0.38305
0.383092
0.383134
0.383134
0.383177
0.383219
0.383262
0.383305
0.383305
0.383347
0.38339
0.383432
0.383475
0.383475
0.383518
0.383561
0.383603
0.383646
0.383646
0.383689
0.383732
0.383775
0.383818
0.383818
0.383861
0.383904
0.383947
0.38399
0.38399
0.384033
0.384076
0.384119
0.384162
0.384162
0.384205
0.384249
0.384292
0.384335
0.384335
0.384378
0.384422
0.384465
0.384508
0.384508
0.384552
0.384595
0.384639
0.384682
0.384682
0.384726
0.384769
0.384813
0.384857
0.384857
0.3849
0.384944
0.384988
0.385031
0.385031
0.385075
0.385119
0.385163
0.385206
0.385206
0.38525
0.385294
0.385338
0.385382
0.385382
0.385426
0.38547
0.385514
0.385558
0.385558
0.385602
0.385646
0.385691
0.385735
0.385735
0.385779
0.385823
0.385868
0.385912
0.385912
0.385956
0.386
0.386045
0.386089
0.386089
0.386134
0.386178
0.386223
0.386267
0.386267
0.386312
0.386356
0.386401
0.386446
0.386446
0.38649
0.386535
0.38658
0.386624
0.386624
0.386669
0.386714
0.386759
0.386804
0.386804
0.386849
0.386894
0.386939
0.386984
0.386984
0.387029
0.387074
0.387119
0.387164
0.387164
0.387209
0.387254
0.387299
0.387345
0.387345
0.38739
0.387435
0.38748
0.387526
0.387526
0.387571
0.387616
0.387662
0.387707
0.387707
0.387753
0.387798
0.387844
0.387889
0.387889
0.387935
0.387981
0.388026
0.388072
0.388072
0.388118
0.388163
0.388209
0.388255
0.388255
0.388301
0.388347
0.388392
0.388438
0.388438
0.388484
0.38853
0.388576
0.388622
0.388622
0.388668
0.388714
0.38876
0.388807
0.388807
0.388853
0.388899
0.388945
0.388991
0.388991
0.389038
0.389084
0.38913
0.389177
0.389177
0.389223
0.389269
0.389316
0.389362
0.389362
0.389409
0.389455
0.389502
0.389549
0.389549
0.389595
0.389642
0.389688
0.389735
0.389735
0.389782
0.389829
0.389875
0.389922
0.389922
0.389969
0.390016
0.390063
0.39011
0.39011
0.390157
0.390204
0.390251
0.390298
0.390298
0.390345
0.390392
0.390439
0.390486
0.390486
0.390533
0.390581
0.390628
0.390675
0.390675
0.390722
0.39077
0.390817
0.390865
0.390865
0.390912
0.390959
0.391007
0.391054
0.391054
0.391102
0.391149
0.391197
0.391245
0.391245
0.391292
0.39134
0.391388
0.391435
0.391435
0.391483
0.391531
0.391579
0.391627
0.391627
0.391674
0.391722
0.39177
0.391818
0.391818
0.391866
0.391914
0.391962
0.39201
0.39201
0.392058
0.392107
0.392155
0.392203
0.392203
0.392251
0.392299
0.392348
0.392396
0.392396
0.392444
0.392493
0.392541
0.392589
0.392589
0.392638
0.392686
0.392735
0.392783
0.392783
0.392832
0.392881
0.392929
0.392978
0.392978
0.393026
0.393075
0.393124
0.393173
0.393173
0.393221
0.39327
0.393319
0.393368
0.393368
0.393417
0.393466
0.393515
0.393564
0.393564
0.393613
0.393662
0.393711
0.39376
0.39376
0.393809
0.393858
0.393907
0.393956
0.393956
0.394006
0.394055
0.394104
0.394154
0.394154
0.394203
0.394252
0.394302
0.394351
0.394351
0.394401
0.39445
0.3945
0.394549
0.394549
0.394599
0.394648
0.394698
0.394748
0.394748
0.394797
0.394847
0.394897
0.394947
0.394947
0.394996
0.395046
0.395096
0.395146
0.395146
0.395196
0.395246
0.395296
0.395346
0.395346
0.395396
0.395446
0.395496
0.395546
0.395546
0.395596
0.395646
0.395697
0.395747
0.395747
0.395797
0.395847
0.395898
0.395948
0.395948
0.395998
0.396049
0.396099
0.39615
0.39615
0.3962
0.396251
0.396301
0.396352
0.396352
0.396402
0.396453
0.396504
0.396554
0.396554
0.396605
0.396656
0.396707
0.396757
0.396757
0.396808
0.396859
0.39691
0.396961
0.396961
0.397012
0.397063
0.397114
0.397165
0.397165
0.397216
0.397267
0.397318
0.397369
0.397369
0.39742
0.397471
0.397523
0.397574
0.397574
0.397625
0.397677
0.397728
0.397779
0.397779
0.397831
0.397882
0.397933
0.397985
0.397985
0.398036
0.398088
0.39814
0.398191
0.398191
0.398243
0.398294
0.398346
0.398398
0.398398
0.39845
0.398501
0.398553
0.398605
0.398605
0.398657
0.398709
0.39876
0.398812
0.398812
0.398864
0.398916
0.398968
0.39902
0.39902
0.399072
0.399125
0.399177
0.399229
0.399229
0.399281
0.399333
0.399385
0.399438
0.399438
0.39949
0.399542
0.399595
0.399647
0.399647
0.399699
0.399752
0.399804
0.399857
0.399857
0.399909
0.399962
0.400015
0.400067
0.400067
0.40012
0.400172
0.400225
0.400278
0.400278
0.400331
0.400383
0.400436
0.400489
0.400489
0.400542
0.400595
0.400648
0.400701
0.400701
0.400754
0.400807
0.40086
0.400913
0.400913
0.400966
0.401019
0.401072
0.401125
0.401125
0.401178
0.401232
0.401285
0.401338
0.401338
0.401391
0.401445
0.401498
0.401552
0.401552
0.401605
0.401658
0.401712
0.401765
0.401765
0.401819
0.401872
0.401926
0.40198
0.40198
0.402033
0.402087
0.402141
0.402194
0.402194
0.402248
0.402302
0.402356
0.40241
0.40241
0.402464
0.402517
0.402571
0.402625
0.402625
0.402679
0.402733
0.402787
0.402841
0.402841
0.402896
0.40295
0.403004
0.403058
0.403058
0.403112
0.403166
0.403221
0.403275
0.403275
0.403329
0.403384
0.403438
0.403493
0.403493
0.403547
0.403601
0.403656
0.40371
0.40371
0.403765
0.40382
0.403874
0.403929
0.403929
0.403983
0.404038
0.404093
0.404148
0.404148
0.404202
0.404257
0.404312
0.404367
0.404367
0.404422
0.404477
0.404532
0.404587
0.404587
0.404642
0.404697
0.404752
0.404807
0.404807
0.404862
0.404917
0.404972
0.405027
0.405027
0.405083
0.405138
0.405193
0.405248
0.405248
0.405304
0.405359
0.405415
0.40547
0.40547
0.405525
0.405581
0.405636
0.405692
0.405692
0.405747
0.405803
0.405859
0.405914
0.405914
0.40597
0.406026
0.406081
0.406137
0.406137
0.406193
0.406249
0.406305
0.40636
0.40636
0.406416
0.406472
0.406528
0.406584
0.406584
0.40664
0.406696
0.406752
0.406808
0.406808
0.406865
0.406921
0.406977
0.407033
0.407033
0.407089
0.407146
0.407202
0.407258
0.407258
0.407315
0.407371
0.407427
0.407484
0.407484
0.40754
0.407597
0.407653
0.40771
0.40771
0.407766
0.407823
0.40788
0.407936
0.407936
0.407993
0.40805
0.408106
0.408163
0.408163
0.40822
0.408277
0.408334
0.40839
0.40839
0.408447
0.408504
0.408561
0.408618
0.408618
0.408675
0.408732
0.408789
0.408846
0.408846
0.408904
0.408961
0.409018
0.409075
0.409075
0.409132
0.40919
0.409247
0.409304
0.409304
0.409362
0.409419
0.409476
0.409534
0.409534
0.409591
0.409649
0.409706
0.409764
0.409764
0.409822
0.409879
0.409937
0.409994
0.409994
0.410052
0.41011
0.410168
0.410225
0.410225
0.410283
0.410341
0.410399
0.410457
0.410457
0.410515
0.410573
0.410631
0.410689
0.410689
0.410747
0.410805
0.410863
0.410921
0.410921
0.410979
0.411037
0.411095
0.411154
0.411154
0.411212
0.41127
0.411328
0.411387
0.411387
0.411445
0.411503
0.411562
0.41162
0.41162
0.411679
0.411737
0.411796
0.411854
0.411854
0.411913
0.411972
0.41203
0.412089
0.412089
0.412148
0.412206
0.412265
0.412324
0.412324
0.412383
0.412441
0.4125
0.412559
0.412559
0.412618
0.412677
0.412736
0.412795
0.412795
0.412854
0.412913
0.412972
0.413031
0.413031
0.413091
0.41315
0.413209
0.413268
0.413268
0.413327
0.413387
0.413446
0.413505
0.413505
0.413565
0.413624
0.413683
0.413743
0.413743
0.413802
0.413862
0.413921
0.413981
0.413981
0.414041
0.4141
0.41416
0.41422
0.41422
0.414279
0.414339
0.414399
0.414459
0.414459
0.414518
0.414578
0.414638
0.414698
0.414698
0.414758
0.414818
0.414878
0.414938
0.414938
0.414998
0.415058
0.415118
0.415178
0.415178
0.415238
0.415298
0.415359
0.415419
0.415419
0.415479
0.415539
0.4156
0.41566
0.41566
0.41572
0.415781
0.415841
0.415902
0.415902
0.415962
0.416023
0.416083
0.416144
0.416144
0.416204
0.416265
0.416326
0.416386
0.416386
0.416447
0.416508
0.416568
0.416629
0.416629
0.41669
0.416751
0.416812
0.416873
0.416873
0.416934
0.416995
0.417056
0.417117
0.417117
0.417178
0.417239
0.4173
0.417361
0.417361
0.417422
0.417483
0.417544
0.417606
0.417606
0.417667
0.417728
0.41779
0.417851
0.417851
0.417912
0.417974
0.418035
0.418096
0.418096
0.418158
0.418219
0.418281
0.418343
0.418343
0.418404
0.418466
0.418527
0.418589
0.418589
0.418651
0.418713
0.418774
0.418836
0.418836
0.418898
0.41896
0.419022
0.419084
0.419084
0.419145
0.419207
0.419269
0.419331
0.419331
0.419393
0.419456
0.419518
0.41958
0.41958
0.419642
0.419704
0.419766
0.419828
0.419828
0.419891
0.419953
0.420015
0.420078
0.420078
0.42014
0.420202
0.420265
0.420327
0.420327
0.42039
0.420452
0.420515
0.420577
0.420577
0.42064
0.420703
0.420765
0.420828
0.420828
0.420891
0.420953
0.421016
0.421079
0.421079
0.421142
0.421205
0.421267
0.42133
0.42133
0.421393
0.421456
0.421519
0.421582
0.421582
0.421645
0.421708
0.421771
0.421835
0.421835
0.421898
0.421961
0.422024
0.422087
0.422087
0.422151
0.422214
0.422277
0.42234
0.42234
0.422404
0.422467
0.422531
0.422594
0.422594
0.422658
0.422721
0.422785
0.422848
0.422848
0.422912
0.422975
0.423039
0.423103
0.423103
0.423166
0.42323
0.423294
0.423358
0.423358
0.423422
0.423485
0.423549
0.423613
0.423613
0.423677
0.423741
0.423805
0.423869
0.423869
0.423933
0.423997
0.424061
0.424125
0.424125
0.424189
0.424254
0.424318
0.424382
0.424382
0.424446
0.424511
0.424575
0.424639
0.424639
0.424704
0.424768
0.424832
0.424897
0.424897
0.424961
0.425026
0.42509
0.425155
0.425155
0.425219
0.425284
0.425349
0.425413
0.425413
0.425478
0.425543
0.425608
0.425672
0.425672
0.425737
0.425802
0.425867
0.425932
0.425932
0.425997
0.426062
0.426127
0.426192
0.426192
0.426257
0.426322
0.426387
0.426452
0.426452
0.426517
0.426582
0.426647
0.426713
0.426713
0.426778
0.426843
0.426908
0.426974
0.426974
0.427039
0.427104
0.42717
0.427235
0.427235
0.427301
0.427366
0.427432
0.427497
0.427497
0.427563
0.427629
0.427694
0.42776
0.42776
0.427826
0.427891
0.427957
0.428023
0.428023
0.428089
0.428154
0.42822
0.428286
0.428286
0.428352
0.428418
0.428484
0.42855
0.42855
0.428616
0.428682
0.428748
0.428814
0.428814
0.42888
0.428947
0.429013
0.429079
0.429079
0.429145
0.429211
0.429278
0.429344
0.429344
0.42941
0.429477
0.429543
0.42961
0.42961
0.429676
0.429743
0.429809
0.429876
0.429876
0.429942
0.430009
0.430076
0.430142
0.430142
0.430209
0.430276
0.430342
0.430409
0.430409
0.430476
0.430543
0.43061
0.430676
0.430676
0.430743
0.43081
0.430877
0.430944
0.430944
0.431011
0.431078
0.431145
0.431212
0.431212
0.43128
0.431347
0.431414
0.431481
0.431481
0.431548
0.431616
0.431683
0.43175
0.43175
0.431818
0.431885
0.431952
0.43202
0.43202
0.432087
0.432155
0.432222
0.43229
0.43229
0.432357
0.432425
0.432493
0.43256
0.43256
0.432628
0.432696
0.432763
0.432831
0.432831
0.432899
0.432967
0.433035
0.433102
0.433102
0.43317
0.433238
0.433306
0.433374
0.433374
0.433442
0.43351
0.433578
0.433646
0.433646
0.433714
0.433783
0.433851
0.433919
0.433919
0.433987
0.434055
0.434124
0.434192
0.434192
0.43426
0.434329
0.434397
0.434466
0.434466
0.434534
0.434602
0.434671
0.43474
0.43474
0.434808
0.434877
0.434945
0.435014
0.435014
0.435083
0.435151
0.43522
0.435289
0.435289
0.435358
0.435426
0.435495
0.435564
0.435564
0.435633
0.435702
0.435771
0.43584
0.43584
0.435909
0.435978
0.436047
0.436116
0.436116
0.436185
0.436254
0.436323
0.436393
0.436393
0.436462
0.436531
0.4366
0.43667
0.43667
0.436739
0.436808
0.436878
0.436947
0.436947
0.437016
0.437086
0.437155
0.437225
0.437225
0.437294
0.437364
0.437434
0.437503
0.437503
0.437573
0.437643
0.437712
0.437782
0.437782
0.437852
0.437922
0.437991
0.438061
0.438061
0.438131
0.438201
0.438271
0.438341
0.438341
0.438411
0.438481
0.438551
0.438621
0.438621
0.438691
0.438761
0.438831
0.438902
0.438902
0.438972
0.439042
0.439112
0.439183
0.439183
0.439253
0.439323
0.439394
0.439464
0.439464
0.439535
0.439605
0.439675
0.439746
0.439746
0.439816
0.439887
0.439958
0.440028
0.440028
0.440099
0.44017
0.44024
0.440311
0.440311
0.440382
0.440453
0.440523
0.440594
0.440594
0.440665
0.440736
0.440807
0.440878
0.440878
0.440949
0.44102
0.441091
0.441162
0.441162
0.441233
0.441304
0.441375
0.441446
0.441446
0.441518
0.441589
0.44166
0.441731
0.441731
0.441803
0.441874
0.441945
0.442017
0.442017
0.442088
0.44216
0.442231
0.442303
0.442303
0.442374
0.442446
0.442517
0.442589
0.442589
0.44266
0.442732
0.442804
0.442876
0.442876
0.442947
0.443019
0.443091
0.443163
0.443163
0.443235
0.443306
0.443378
0.44345
0.44345
0.443522
0.443594
0.443666
0.443738
0.443738
0.44381
0.443882
0.443955
0.444027
0.444027
0.444099
0.444171
0.444243
0.444316
0.444316
0.444388
0.44446
0.444533
0.444605
0.444605
0.444677
0.44475
0.444822
0.444895
0.444895
0.444967
0.44504
0.445112
0.445185
0.445185
0.445258
0.44533
0.445403
0.445476
0.445476
0.445548
0.445621
0.445694
0.445767
0.445767
0.44584
0.445912
0.445985
0.446058
0.446058
0.446131
0.446204
0.446277
0.44635
0.44635
0.446423
0.446496
0.446569
0.446643
0.446643
0.446716
0.446789
0.446862
0.446935
0.446935
0.447009
0.447082
0.447155
0.447229
0.447229
0.447302
0.447375
0.447449
0.447522
0.447522
0.447596
0.447669
0.447743
0.447817
0.447817
0.44789
0.447964
0.448037
0.448111
0.448111
0.448185
0.448259
0.448332
0.448406
0.448406
0.44848
0.448554
0.448628
0.448702
0.448702
0.448776
0.44885
0.448924
0.448998
0.448998
0.449072
0.449146
0.44922
0.449294
0.449294
0.449368
0.449442
0.449516
0.449591
0.449591
0.449665
0.449739
0.449814
0.449888
0.449888
0.449962
0.450037
0.450111
0.450186
0.450186
0.45026
0.450335
0.450409
0.450484
0.450484
0.450558
0.450633
0.450708
0.450782
0.450782
0.450857
0.450932
0.451006
0.451081
0.451081
0.451156
0.451231
0.451306
0.451381
0.451381
0.451456
0.45153
0.451605
0.45168
0.45168
0.451756
0.451831
0.451906
0.451981
0.451981
0.452056
0.452131
0.452206
0.452281
0.452281
0.452357
0.452432
0.452507
0.452583
0.452583
0.452658
0.452733
0.452809
0.452884
0.452884
0.45296
0.453035
0.453111
0.453186
0.453186
0.453262
0.453337
0.453413
0.453489
0.453489
0.453564
0.45364
0.453716
0.453792
0.453792
0.453867
0.453943
0.454019
0.454095
0.454095
0.454171
0.454247
0.454323
0.454399
0.454399
0.454475
0.454551
0.454627
0.454703
0.454703
0.454779
0.454855
0.454932
0.455008
0.455008
0.455084
0.45516
0.455237
0.455313
0.455313
0.455389
0.455466
0.455542
0.455618
0.455618
0.455695
0.455771
0.455848
0.455924
0.455924
0.456001
0.456078
0.456154
0.456231
0.456231
0.456307
0.456384
0.456461
0.456538
0.456538
0.456614
0.456691
0.456768
0.456845
0.456845
0.456922
0.456999
0.457076