<?xml version="1.0"?>
<VTKFile type="UnstructuredGrid" version="0.1" byte_order="LittleEndian">
<UnstructuredGrid>
<Piece NumberOfPoints="5000" NumberOfCells="4000">
<PointData Scalars="Reaction 0">
<DataArray type="Float32" Name="Reaction 0" format="ascii">
0.569902
0.569902
0.569902
0.569902
0.569902
0.569902
0.569902
0.569902
0.569902
0.569902
0.569902
0.569902
0.569902
0.569902
0.569902
0.569902
0.569902
0.569902
0.569902
0.569902
0.569902
0.569902
0.569902
0.569903
0.569903
0.569903
0.569903
0.569903
0.569903
0.569903
0.569903
0.569903
0.569903
0.569903
0.569903
0.569903
0.569903
0.569903
0.569903
0.569903
0.569903
0.569903
0.569904
0.569904
0.569904
0.569904
0.569904
0.569904
0.569904
0.569904
0.569904
0.569904
0.569904
0.569904
0.569905
0.569905
0.569905
0.569905
0.569905
0.569905
0.569905
0.569905
0.569905
0.569905
0.569905
0.569905
0.569906
0.569906
0.569906
0.569906
0.569906
0.569906
0.569906
0.569906
0.569907
0.569907
0.569907
0.569907
0.569907
0.569907
0.569907
0.569907
0.569908
0.569908
0.569908
0.569908
0.569908
0.569908
0.569908
0.569909
0.569909
0.569909
0.569909
0.569909
0.569909
0.569909
0.569909
0.56991
0.56991
0.56991
0.56991
0.56991
0.56991
0.569911
0.569911
0.569911
0.569911
0.569911
0.569912
0.569912
0.569912
0.569912
0.569912
0.569912
0.569913
0.569913
0.569913
0.569913
0.569913
0.569914
0.569914
0.569914
0.569914
0.569914
0.569915
0.569915
0.569915
0.569915
0.569915
0.569916
0.569916
0.569916
0.569916
0.569916
0.569917
0.569917
0.569917
0.569917
0.569917
0.569918
0.569918
0.569918
0.569918
0.569919
0.569919
0.569919
0.569919
0.569919
0.56992
0.56992
0.56992
0.56992
0.569921
0.569921
0.569921
0.569921
0.569922
0.569922
0.569922
0.569923
0.569923
0.569923
0.569923
0.569924
0.569924
0.569924
0.569924
0.569925
0.569925
0.569925
0.569925
0.569926
0.569926
0.569926
0.569927
0.569927
0.569927
0.569927
0.569928
0.569928
0.569928
0.569928
0.569929
0.569929
0.569929
0.569929
0.56993
0.56993
0.569931
0.569931
0.569931
0.569931
0.569932
0.569932
0.569932
0.569932
0.569933
0.569933
0.569934
0.569934
0.569934
0.569934
0.569935
0.569935
0.569936
0.569936
0.569936
0.569937
0.569937
0.569937
0.569937
0.569938
0.569938
0.569939
0.569939
0.569939
0.569939
0.56994
0.56994
0.569941
0.569941
0.569941
0.569942
0.569942
0.569943
0.569943
0.569943
0.569944
0.569944
0.569944
0.569944
0.569945
0.569945
0.569946
0.569946
0.569946
0.569947
0.569947
0.569948
0.569948
0.569948
0.569949
0.569949
0.56995
0.56995
0.56995
0.569951
0.569951
0.569952
0.569952
0.569952
0.569953
0.569953
0.569954
0.569954
0.569954
0.569955
0.569955
0.569956
0.569956
0.569956
0.569957
0.569957
0.569958
0.569958
0.569958
0.569959
0.569959
0.56996
0.56996
0.56996
0.569961
0.569962
0.569962
0.569963
0.569963
0.569963
0.569964
0.569964
0.569965
0.569965
0.569965
0.569966
0.569967
0.569967
0.569967
0.569968
0.569968
0.569969
0.56997
0.56997
0.56997
0.569971
0.569971
0.569972
0.569972
0.569972
0.569973
0.569974
0.569974
0.569974
0.569975
0.569975
0.569976
0.569977
0.569977
0.569977
0.569978
0.569979
0.569979
0.569979
0.56998
0.56998
0.569981
0.569982
0.569982
0.569982
0.569983
0.569984
0.569984
0.569984
0.569985
0.569986
0.569986
0.569987
0.569987
0.569988
0.569988
0.569989
0.569989
0.569989
0.56999
0.569991
0.569992
0.569992
0.569992
0.569993
0.569994
0.569994
0.569995
0.569995
0.569996
0.569996
0.569997
0.569998
0.569998
0.569998
0.569999
0.57
0.57
0.57
0.570001
0.570002
0.570003
0.570003
0.570003
0.570004
0.570005
0.570005
0.570006
0.570006
0.570007
0.570008
0.570008
0.570009
0.570009
0.57001
0.570011
0.570011
0.570012
0.570012
0.570013
0.570014
0.570014
0.570015
0.570015
0.570016
0.570017
0.570017
0.570018
0.570018
0.570019
0.57002
0.570021
0.570021
0.570021
0.570022
0.570023
0.570024
0.570024
0.570024
0.570025
0.570026
0.570027
0.570028
0.570028
0.570028
0.570029
0.57003
0.570031
0.570031
0.570032
0.570032
0.570033
0.570034
0.570034
0.570035
0.570036
0.570037
0.570037
0.570037
0.570038
0.570039
0.57004
0.570041
0.570041
0.570042
0.570042
0.570043
0.570044
0.570044
0.570045
0.570046
0.570047
0.570048
0.570048
0.570049
0.570049
0.57005
0.570051
0.570051
0.570052
0.570053
0.570054
0.570055
0.570055
0.570056
0.570056
0.570057
0.570058
0.570058
0.570059
0.57006
0.570061
0.570062
0.570062
0.570063
0.570064
0.570065
0.570065
0.570065
0.570066
0.570067
0.570068
0.570069
0.570069
0.57007
0.570071
0.570072
0.570073
0.570073
0.570074
0.570075
0.570076
0.570077
0.570077
0.570078
0.570079
0.57008
0.57008
0.57008
0.570081
0.570082
0.570083
0.570084
0.570084
0.570085
0.570086
0.570087
0.570088
0.570088
0.570089
0.57009
0.570091
0.570092
0.570092
0.570093
0.570094
0.570095
0.570096
0.570096
0.570097
0.570098
0.570099
0.5701
0.5701
0.570101
0.570102
0.570103
0.570104
0.570104
0.570105
0.570106
0.570107
0.570108
0.570108
0.570109
0.570111
0.570112
0.570113
0.570113
0.570114
0.570115
0.570116
0.570117
0.570117
0.570118
0.570119
0.57012
0.570121
0.570121
0.570122
0.570123
0.570124
0.570125
0.570125
0.570126
0.570128
0.570129
0.57013
0.57013
0.570131
0.570132
0.570133
0.570134
0.570134
0.570135
0.570136
0.570137
0.570139
0.570139
0.57014
0.570141
0.570142
0.570143
0.570143
0.570144
0.570145
0.570146
0.570148
0.570148
0.570149
0.57015
0.570151
0.570152
0.570152
0.570153
0.570154
0.570156
0.570157
0.570157
0.570158
0.570159
0.57016
0.570161
0.570161
0.570162
0.570164
0.570165
0.570166
0.570166
0.570167
0.570168
0.57017
0.570171
0.570171
0.570172
0.570173
0.570174
0.570176
0.570176
0.570177
0.570178
0.570179
0.57018
0.57018
0.570182
0.570183
0.570184
0.570185
0.570185
0.570186
0.570188
0.570189
0.57019
0.57019
0.570191
0.570193
0.570194
0.570195
0.570195
0.570196
0.570198
0.570199
0.5702
0.5702
0.570201
0.570203
0.570204
0.570205
0.570205
0.570206
0.570208
0.570209
0.57021
0.57021
0.570212
0.570213
0.570214
0.570215
0.570215
0.570217
0.570218
0.570219
0.570221
0.570221
0.570222
0.570223
0.570224
0.570226
0.570226
0.570227
0.570228
0.57023
0.570231
0.570231
0.570232
0.570234
0.570235
0.570236
0.570236
0.570238
0.570239
0.57024
0.570242
0.570242
0.570243
0.570244
0.570246
0.570247
0.570247
0.570249
0.57025
0.570251
0.570253
0.570253
0.570254
0.570255
0.570257
0.570258
0.570258
0.570259
0.570261
0.570262
0.570264
0.570264
0.570265
0.570266
0.570268
0.570269
0.570269
0.570271
0.570272
0.570273
0.570275
0.570275
0.570276
0.570278
0.570279
0.570281
0.570281
0.570282
0.570283
0.570285
0.570286
0.570286
0.570288
0.570289
0.570291
0.570292
0.570292
0.570294
0.570295
0.570296
0.570298
0.570298
0.570299
0.570301
0.570302
0.570304
0.570304
0.570305
0.570307
0.570308
0.57031
0.57031
0.570311
0.570313
0.570314
0.570316
0.570316
0.570317
0.570319
0.57032
0.570322
0.570322
0.570323
0.570325
0.570326
0.570328
0.570328
0.570329
0.570331
0.570332
0.570334
0.570334
0.570335
0.570337
0.570338
0.57034
0.57034
0.570342
0.570343
0.570345
0.570346
0.570346
0.570348
0.570349
0.570351
0.570352
0.570352
0.570354
0.570356
0.570357
0.570359
0.570359
0.57036
0.570362
0.570364
0.570365
0.570365
0.570367
0.570368
0.57037
0.570371
0.570371
0.570373
0.570375
0.570376
0.570378
0.570378
0.57038
0.570381
0.570383
0.570384
0.570384
0.570386
0.570388
0.570389
0.570391
0.570391
0.570393
0.570394
0.570396
0.570398
0.570398
0.570399
0.570401
0.570402
0.570404
0.570404
0.570406
0.570407
0.570409
0.570411
0.570411
0.570412
0.570414
0.570416
0.570417
0.570417
0.570419
0.570421
0.570422
0.570424
0.570424
0.570426
0.570428
0.570429
0.570431
0.570431
0.570433
0.570434
0.570436
0.570438
0.570438
0.57044
0.570441
0.570443
0.570445
0.570445
0.570447
0.570448
0.57045
0.570452
0.570452
0.570454
0.570455
0.570457
0.570459
0.570459
0.570461
0.570462
0.570464
0.570466
0.570466
0.570468
0.57047
0.570471
0.570473
0.570473
0.570475
0.570477
0.570479
0.57048
0.57048
0.570482
0.570484
0.570486
0.570488
0.570488
0.570489
0.570491
0.570493
0.570495
0.570495
0.570497
0.570498
0.5705
0.570502
0.570502
0.570504
0.570506
0.570508
0.57051
0.57051
0.570511
0.570513
0.570515
0.570517
0.570517
0.570519
0.570521
0.570523
0.570524
0.570524
0.570526
0.570528
0.57053
0.570532
0.570532
0.570534
0.570536
0.570538
0.57054
0.57054
0.570541
0.570543
0.570545
0.570547
0.570547
0.570549
0.570551
0.570553
0.570555
0.570555
0.570557
0.570559
0.570561
0.570563
0.570563
0.570564
0.570566
0.570568
0.57057
0.57057
0.570572
0.570574
0.570576
0.570578
0.570578
0.57058
0.570582
0.570584
0.570586
0.570586
0.570588
0.57059
0.570592
0.570594
0.570594
0.570596
0.570598
0.5706
0.570602
0.570602
0.570604
0.570606
0.570608
0.57061
0.57061
0.570612
0.570614
0.570616
0.570618
0.570618
0.57062
0.570622
0.570624
0.570626
0.570626
0.570628
0.57063
0.570632
0.570634
0.570634
0.570636
0.570638
0.570641
0.570643
0.570643
0.570645
0.570647
0.570649
0.570651
0.570651
0.570653
0.570655
0.570657
0.570659
0.570659
0.570661
0.570663
0.570666
0.570668
0.570668
0.57067
0.570672
0.570674
0.570676
0.570676
0.570678
0.57068
0.570683
0.570685
0.570685
0.570687
0.570689
0.570691
0.570693
0.570693
0.570695
0.570698
0.5707
0.570702
0.570702
0.570704
0.570706
0.570708
0.57071
0.57071
0.570713
0.570715
0.570717
0.570719
0.570719
0.570721
0.570724
0.570726
0.570728
0.570728
0.57073
0.570732
0.570735
0.570737
0.570737
0.570739
0.570741
0.570743
0.570746
0.570746
0.570748
0.57075
0.570752
0.570755
0.570755
0.570757
0.570759
0.570761
0.570764
0.570764
0.570766
0.570768
0.57077
0.570773
0.570773
0.570775
0.570777
0.57078
0.570782
0.570782
0.570784
0.570786
0.570789
0.570791
0.570791
0.570793
0.570796
0.570798
0.5708
0.5708
0.570802
0.570805
0.570807
0.570809
0.570809
0.570812
0.570814
0.570816
0.570819
0.570819
0.570821
0.570823
0.570826
0.570828
0.570828
0.57083
0.570833
0.570835
0.570838
0.570838
0.57084
0.570842
0.570845
0.570847
0.570847
0.570849
0.570852
0.570854
0.570856
0.570856
0.570859
0.570861
0.570864
0.570866
0.570866
0.570868
0.570871
0.570873
0.570876
0.570876
0.570878
0.570881
0.570883
0.570885
0.570885
0.570888
0.57089
0.570893
0.570895
0.570895
0.570898
0.5709
0.570903
0.570905
0.570905
0.570908
0.57091
0.570913
0.570915
0.570915
0.570918
0.57092
0.570923
0.570925
0.570925
0.570928
0.57093
0.570933
0.570935
0.570935
0.570938
0.57094
0.570943
0.570945
0.570945
0.570948
0.57095
0.570953
0.570955
0.570955
0.570958
0.57096
0.570963
0.570965
0.570965
0.570968
0.570971
0.570973
0.570976
0.570976
0.570978
0.570981
0.570983
0.570986
0.570986
0.570989
0.570991
0.570994
0.570996
0.570996
0.570999
0.571002
0.571004
0.571007
0.571007
0.571009
0.571012
0.571015
0.571017
0.571017
0.57102
0.571023
0.571025
0.571028
0.571028
0.57103
0.571033
0.571036
0.571038
0.571038
0.571041
0.571044
0.571046
0.571049
0.571049
0.571052
0.571054
0.571057
0.57106
0.57106
0.571062
0.571065
0.571068
0.571071
0.571071
0.571073
0.571076
0.571079
0.571081
0.571081
0.571084
0.571087
0.57109
0.571092
0.571092
0.571095
0.571098
0.5711
0.571103
0.571103
0.571106
0.571109
0.571111
0.571114
0.571114
0.571117
0.57112
0.571123
0.571125
0.571125
0.571128
0.571131
0.571134
0.571136
0.571136
0.571139
0.571142
0.571145
0.571148
0.571148
0.57115
0.571153
0.571156
0.571159
0.571159
0.571162
0.571165
0.571167
0.57117
0.57117
0.571173
0.571176
0.571179
0.571182
0.571182
0.571185
0.571187
0.57119
0.571193
0.571193
0.571196
0.571199
0.571202
0.571205
0.571205
0.571208
0.57121
0.571213
0.571216
0.571216
0.571219
0.571222
0.571225
0.571228
0.571228
0.571231
0.571234
0.571237
0.57124
0.57124
0.571242
0.571245
0.571248
0.571251
0.571251
0.571254
0.571257
0.57126
0.571263
0.571263
0.571266
0.571269
0.571272
0.571275
0.571275
0.571278
0.571281
0.571284
0.571287
0.571287
0.57129
0.571293
0.571296
0.571299
0.571299
0.571302
0.571305
0.571308
0.571311
0.571311
0.571314
0.571317
0.57132
0.571323
0.571323
0.571326
0.571329
0.571332
0.571335
0.571335
0.571338
0.571341
0.571344
0.571347
0.571347
0.571351
0.571354
0.571357
0.57136
0.57136
0.571363
0.571366
0.571369
0.571372
0.571372
0.571376
0.571379
0.571382
0.571385
0.571385
0.571388
0.571391
0.571394
0.571398
0.571398
0.571401
0.571404
0.571407
0.57141
0.57141
0.571413
0.571417
0.57142
0.571423
0.571423
0.571426
0.571429
0.571432
0.571436
0.571436
0.571439
0.571442
0.571445
0.571448
0.571448
0.571452
0.571455
0.571458
0.571461
0.571461
0.571465
0.571468
0.571471
0.571474
0.571474
0.571478
0.571481
0.571484
0.571487
0.571487
0.571491
0.571494
0.571497
0.5715
0.5715
0.571504
0.571507
0.57151
0.571514
0.571514
0.571517
0.57152
0.571523
0.571527
0.571527
0.57153
0.571533
0.571537
0.57154
0.57154
0.571543
0.571547
0.57155
0.571553
0.571553
0.571557
0.57156
0.571564
0.571567
0.571567
0.57157
0.571574
0.571577
0.57158
0.57158
0.571584
0.571587
0.571591
0.571594
0.571594
0.571597
0.571601
0.571604
0.571608
0.571608
0.571611
0.571614
0.571618
0.571621
0.571621
0.571625
0.571628
0.571632
0.571635
0.571635
0.571639
0.571642
0.571646
0.571649
0.571649
0.571652
0.571656
0.571659
0.571663
0.571663
0.571666
0.57167
0.571673
0.571677
0.571677
0.57168
0.571684
0.571687
0.571691
0.571691
0.571695
0.571698
0.571702
0.571705
0.571705
0.571709
0.571712
0.571716
0.571719
0.571719
0.571723
0.571726
0.57173
0.571734
0.571734
0.571737
0.571741
0.571744
0.571748
0.571748
0.571752
0.571755
0.571759
0.571762
0.571762
0.571766
0.57177
0.571773
0.571777
0.571777
0.571781
0.571784
0.571788
0.571792
0.571792
0.571795
0.571799
0.571802
0.571806
0.571806
0.57181
0.571813
0.571817
0.571821
0.571821
0.571824
0.571828
0.571832
0.571835
0.571835
0.571839
0.571843
0.571847
0.57185
0.57185
0.571854
0.571858
0.571862
0.571865
0.571865
0.571869
0.571873
0.571877
0.571881
0.571881
0.571884
0.571888
0.571892
0.571896
0.571896
0.5719
0.571903
0.571907
0.571911
0.571911
0.571915
0.571919
0.571922
0.571926
0.571926
0.57193
0.571934
0.571938
0.571942
0.571942
0.571945
0.571949
0.571953
0.571957
0.571957
0.571961
0.571965
0.571969
0.571972
0.571972
0.571976
0.57198
0.571984
0.571988
0.571988
0.571992
0.571996
0.572
0.572004
0.572004
0.572008
0.572012
0.572016
0.572019
0.572019
0.572023
0.572027
0.572031
0.572035
0.572035
0.572039
0.572043
0.572047
0.572051
0.572051
0.572055
0.572059
0.572063
0.572067
0.572067
0.572071
0.572075
0.572079
0.572083
0.572083
0.572087
0.572091
0.572095
0.572099
0.572099
0.572103
0.572107
0.572111
0.572116
0.572116
0.57212
0.572124
0.572128
0.572132
0.572132
0.572136
0.57214
0.572144
0.572148
0.572148
0.572152
0.572156
0.572161
0.572165
0.572165
0.572169
0.572173
0.572177
0.572181
0.572181
0.572185
0.572189
0.572194
0.572198
0.572198
0.572202
0.572206
0.57221
0.572215
0.572215
0.572219
0.572223
0.572227
0.572231
0.572231
0.572235
0.57224
0.572244
0.572248
0.572248
0.572252
0.572257
0.572261
0.572265
0.572265
0.572269
0.572274
0.572278
0.572282
0.572282
0.572286
0.572291
0.572295
0.572299
0.572299
0.572304
0.572308
0.572312
0.572316
0.572316
0.572321
0.572325
0.572329
0.572334
0.572334
0.572338
0.572342
0.572347
0.572351
0.572351
0.572355
0.57236
0.572364
0.572368
0.572368
0.572373
0.572377
0.572381
0.572386
0.572386
0.57239
0.572395
0.572399
0.572403
0.572403
0.572408
0.572412
0.572417
0.572421
0.572421
0.572426
0.57243
0.572435
0.572439
0.572439
0.572444
0.572448
0.572453
0.572457
0.572457
0.572462
0.572466
0.572471
0.572475
0.572475
0.57248
0.572484
0.572489
0.572493
0.572493
0.572498
0.572502
0.572507
0.572511
0.572511
0.572516
0.572521
0.572525
0.57253
0.57253
0.572534
0.572539
0.572543
0.572548
0.572548
0.572553
0.572557
0.572562
0.572566
0.572566
0.572571
0.572576
0.57258
0.572585
0.572585
0.57259
0.572594
0.572599
0.572604
0.572604
0.572608
0.572613
0.572618
0.572622
0.572622
0.572627
0.572632
0.572636
0.572641
0.572641
0.572646
0.57265
0.572655
0.57266
0.57266
0.572665
0.572669
0.572674
0.572679
0.572679
0.572684
0.572688
0.572693
0.572698
0.572698
0.572703
0.572708
0.572712
0.572717
0.572717
0.572722
0.572727
0.572732
0.572736
0.572736
0.572741
0.572746
0.572751
0.572756
0.572756
0.572761
0.572765
0.57277
0.572775
0.572775
0.57278
0.572785
0.57279
0.572795
0.572795
0.5728
0.572804
0.572809
0.572814
0.572814
0.572819
0.572824
0.572829
0.572834
0.572834
0.572839
0.572844
0.572849
0.572854
0.572854
0.572859
0.572864
0.572869
0.572874
0.572874
0.572879
0.572884
0.572889
0.572894
0.572894
0.572899
0.572904
0.572909
0.572914
0.572914
0.572919
0.572924
0.572929
0.572934
0.572934
0.572939
0.572944
0.572949
0.572954
0.572954
0.572959
0.572964
0.572969
0.572974
0.572974
0.57298
0.572985
0.57299
0.572995
0.572995
0.573
0.573005
0.573011
0.573016
0.573016
0.573021
0.573026
0.573031
0.573037
0.573037
0.573042
0.573047
0.573052
0.573057
0.573057
0.573063
0.573068
0.573073
0.573078
0.573078
0.573084
0.573089
0.573094
0.573099
0.573099
0.573105
0.57311
0.573115
0.57312
0.57312
0.573126
0.573131
0.573136
0.573142
0.573142
0.573147
0.573152
0.573158
0.573163
0.573163
0.573168
0.573174
0.573179
0.573184
0.573184
0.57319
0.573195
0.5732
0.573206
0.573206
0.573211
0.573217
0.573222
0.573227
0.573227
0.573233
0.573238
0.573244
0.573249
0.573249
0.573255
0.57326
0.573266
0.573271
0.573271
0.573276
0.573282
0.573287
0.573293
0.573293
0.573298
0.573304
0.573309
0.573315
0.573315
0.573321
0.573326
0.573332
0.573337
0.573337
0.573343
0.573348
0.573354
0.573359
0.573359
0.573365
0.573371
0.573376
0.573382
0.573382
0.573387
0.573393
0.573399
0.573404
0.573404
0.57341
0.573415
0.573421
0.573427
0.573427
0.573432
0.573438
0.573444
0.573449
0.573449
0.573455
0.573461
0.573467
0.573472
0.573472
0.573478
0.573484
0.573489
0.573495
0.573495
0.573501
0.573507
0.573512
0.573518
0.573518
0.573524
0.57353
0.573535
0.573541
0.573541
0.573547
0.573553
0.573558
0.573564
0.573564
0.57357
0.573576
0.573582
0.573587
0.573587
0.573593
0.573599
0.573605
0.573611
0.573611
0.573617
0.573623
0.573629
0.573635
0.573635
0.573641
0.573647
0.573653
0.573659
0.573659
0.573664
0.57367
0.573676
0.573682
0.573682
0.573688
0.573694
0.5737
0.573706
0.573706
0.573712
0.573718
0.573724
0.57373
0.57373
0.573736
0.573742
0.573748
0.573754
0.573754
0.573761
0.573767
0.573773
0.573779
0.573779
0.573785
0.573791
0.573797
0.573803
0.573803
0.573809
0.573815
0.573821
0.573828
0.573828
0.573834
0.57384
0.573846
0.573852
0.573852
0.573858
0.573865
0.573871
0.573877
0.573877
0.573883
0.573889
0.573896
0.573902
0.573902
0.573908
0.573914
0.573921
0.573927
0.573927
0.573933
0.573939
0.573946
0.573952
0.573952
0.573958
0.573964
0.573971
0.573977
0.573977
0.573983
0.57399
0.573996
0.574002
0.574002
0.574009
0.574015
0.574021
0.574028
0.574028
0.574034
0.574041
0.574047
0.574053
0.574053
0.57406
0.574066
0.574073
0.574079
0.574079
0.574086
0.574092
0.574098
0.574105
0.574105
0.574111
0.574118
0.574124
0.574131
0.574131
0.574137
0.574144
0.57415
0.574157
0.574157
0.574163
0.57417
0.574176
0.574183
0.574183
0.574189
0.574196
0.574202
0.574209
0.574209
0.574216
0.574222
0.574229
0.574235
0.574235
0.574242
0.574249
0.574255
0.574262
0.574262
0.574269
0.574275
0.574282
0.574289
0.574289
0.574296
0.574302
0.574309
0.574316
0.574316
0.574323
0.574329
0.574336
0.574343
0.574343
0.57435
0.574356
0.574363
0.57437
0.57437
0.574377
0.574384
0.57439
0.574397
0.574397
0.574404
0.574411
0.574418
0.574425
0.574425
0.574431
0.574438
0.574445
0.574452
0.574452
0.574459
0.574466
0.574473
0.57448
0.57448
0.574487
0.574493
0.5745
0.574507
0.574507
0.574514
0.574521
0.574528
0.574535
0.574535
0.574542
0.574549
0.574556
0.574563
0.574563
0.57457
0.574577
0.574584
0.574591
0.574591
0.574598
0.574605
0.574613
0.57462
0.57462
0.574627
0.574634
0.574641
0.574648
0.574648
0.574655
0.574662
0.574669
0.574677
0.574677
0.574684
0.574691
0.574698
0.574705
0.574705
0.574712
0.57472
0.574727
0.574734
0.574734
0.574741
0.574749
0.574756
0.574763
0.574763
0.57477
0.574778
0.574785
0.574792
0.574792
0.574799
0.574807
0.574814
0.574821
0.574821
0.574829
0.574836
0.574843
0.574851
0.574851
0.574858
0.574865
0.574873
0.57488
0.57488
0.574887
0.574895
0.574902
0.574909
0.574909
0.574917
0.574924
0.574932
0.574939
0.574939
0.574947
0.574954
0.574962
0.574969
0.574969
0.574977
0.574984
0.574992
0.575
0.575
0.575007
0.575015
0.575022
0.57503
0.57503
0.575038
0.575045
0.575053
0.57506
0.57506
0.575068
0.575076
0.575083
0.575091
0.575091
0.575099
0.575106
0.575114
0.575122
0.575122
0.575129
0.575137
0.575145
0.575152
0.575152
0.57516
0.575168
0.575176
0.575183
0.575183
0.575191
0.575199
0.575207
0.575215
0.575215
0.575222
0.57523
0.575238
0.575246
0.575246
0.575254
0.575261
0.575269
0.575277
0.575277
0.575285
0.575293
0.575301
0.575309
0.575309
0.575317
0.575325
0.575333
0.575341
0.575341
0.575348
0.575356
0.575364
0.575372
0.575372
0.57538
0.575388
0.575396
0.575404
0.575404
0.575412
0.57542
0.575429
0.575437
0.575437
0.575445
0.575453
0.575461
0.575469
0.575469
0.575477
0.575485
0.575493
0.575501
0.575501
0.57551
0.575518
0.575526
0.575534
0.575534
0.575542
0.57555
0.575559
0.575567
0.575567
0.575575
0.575583
0.575591
0.5756
0.5756
0.575608
0.575616
0.575624
0.575633
0.575633
0.575641
0.575649
0.575657
0.575666
0.575666
0.575674
0.575682
0.575691
0.575699
0.575699
0.575708
0.575716
0.575725
0.575733
0.575733
0.575742
0.57575
0.575758
0.575767
0.575767
0.575775
0.575784
0.575792
0.575801
0.575801
0.575809
0.575818
0.575827
0.575835
0.575835
0.575844
0.575852
0.575861
0.575869
0.575869
0.575878
0.575887
0.575895
0.575904
0.575904
0.575912
0.575921
0.57593
0.575938
0.575938
0.575947
0.575956
0.575964
0.575973
0.575973
0.575982
0.575991
0.575999
0.576008
0.576008
0.576017
0.576026
0.576034
0.576043
0.576043
0.576052
0.576061
0.57607
0.576078
0.576078
0.576087
0.576096
0.576105
0.576114
0.576114
0.576123
0.576132
0.576141
0.57615
0.57615
0.576158
0.576167
0.576176
0.576185
0.576185
0.576194
0.576203
0.576212
0.576221
0.576221
0.57623
0.576239
0.576248
0.576257
0.576257
0.576266
0.576276
0.576285
0.576294
0.576294
0.576303
0.576312
0.576321
0.57633
0.57633
0.576339
0.576348
0.576358
0.576367
0.576367
0.576376
0.576385
0.576394
0.576403
0.576403
0.576413
0.576422
0.576431
0.57644
0.57644
0.576449
0.576459
0.576468
0.576477
0.576477
0.576487
0.576496
0.576506
0.576515
0.576515
0.576524
0.576534
0.576543
0.576553
0.576553
0.576562
0.576572
0.576581
0.576591
0.576591
0.5766
0.576609
0.576619
0.576629
0.576629
0.576638
0.576648
0.576657
0.576667
0.576667
0.576676
0.576686
0.576695
0.576705
0.576705
0.576715
0.576724
0.576734
0.576743
0.576743
0.576753
0.576763
0.576772
0.576782
0.576782
0.576792
0.576802
0.576811
0.576821
0.576821
0.576831
0.57684
0.57685
0.57686
0.57686
0.57687
0.57688
0.576889
0.576899
0.576899
0.576909
0.576919
0.576929
0.576939
0.576939
0.576949
0.576958
0.576968
0.576978
0.576978
0.576988
0.576998
0.577008
0.577018
0.577018
0.577028
0.577038
0.577048
0.577058
0.577058
0.577068
0.577078
0.577088
0.577098
0.577098
0.577108
0.577118
0.577129
0.577139
0.577139
0.577149
0.577159
0.577169
0.577179
0.577179
0.577189
0.577199
0.57721
0.57722
0.57722
0.57723
0.57724
0.57725
0.577261
0.577261
0.577271
0.577281
0.577291
0.577302
0.577302
0.577312
0.577322
0.577333
0.577343
0.577343
0.577354
0.577364
0.577375
0.577385
0.577385
0.577396
0.577406
0.577416
0.577427
0.577427
0.577437
0.577448
0.577459
0.577469
0.577469
0.57748
0.57749
0.577501
0.577511
0.577511
0.577522
0.577533
0.577543
0.577554
0.577554
0.577564
0.577575
0.577586
0.577596
0.577596
0.577607
0.577618
0.577629
0.577639
0.577639
0.57765
0.577661
0.577672
0.577682
0.577682
0.577693
0.577704
0.577715
0.577726
0.577726
0.577736
0.577747
0.577758
0.577769
0.577769
0.57778
0.577791
0.577802
0.577813
0.577813
0.577824
0.577835
0.577846
0.577857
0.577857
0.577868
0.577879
0.57789
0.577901
0.577901
0.577912
0.577923
0.577934
0.577945
0.577945
0.577956
0.577967
0.577978
0.57799
0.57799
0.578001
0.578012
0.578023
0.578034
0.578034
0.578045
0.578057
0.578068
0.578079
0.578079
0.57809
0.578102
0.578113
0.578124
0.578124
0.578135
0.578147
0.578158
0.578169
0.578169
0.578181
0.578192
0.578204
0.578215
0.578215
0.578227
0.578238
0.57825
0.578261
0.578261
0.578273
0.578284
0.578296
0.578307
0.578307
0.578319
0.578331
0.578342
0.578354
0.578354
0.578366
0.578377
0.578389
0.5784
0.5784
0.578412
0.578424
0.578436
0.578447
0.578447
0.578459
0.578471
0.578483
0.578494
0.578494
0.578506
0.578518
0.57853
0.578542
0.578542
0.578553
0.578565
0.578577
0.578589
0.578589
0.578601
0.578613
0.578625
0.578637
0.578637
0.578649
0.578661
0.578673
0.578685
0.578685
0.578697
0.578709
0.578721
0.578733
0.578733
0.578745
0.578757
0.578769
0.578781
0.578781
0.578794
0.578806
0.578818
0.57883
0.57883
0.578842
0.578855
0.578867
0.578879
0.578879
0.578891
0.578904
0.578916
0.578928
0.578928
0.57894
0.578953
0.578965
0.578977
0.578977
0.57899
0.579002
0.579015
0.579027
0.579027
0.579039
0.579052
0.579064
0.579077
0.579077
0.579089
0.579102
0.579114
0.579127
0.579127
0.579139
0.579152
0.579164
0.579177
0.579177
0.57919
0.579202
0.579215
0.579228
0.579228
0.579241
0.579253
0.579266
0.579279
0.579279
0.579292
0.579305
0.579317
0.57933
0.57933
0.579343
0.579356
0.579369
0.579382
0.579382
0.579395
0.579408
0.57942
0.579433
0.579433
0.579446
0.579459
0.579472
0.579485
0.579485
0.579498
0.579511
0.579524
0.579537
0.579537
0.579551
0.579564
0.579577
0.57959
0.57959
0.579603
0.579616
0.579629
0.579643
0.579643
0.579656
0.579669
0.579682
0.579696
0.579696
0.579709
0.579722
0.579735
0.579749
0.579749
0.579762
0.579775
0.579789
0.579802
0.579802
0.579816
0.579829
0.579843
0.579856
0.579856
0.579869
0.579883
0.579896
0.57991
0.57991
0.579923
0.579937
0.579951
0.579964
0.579964
0.579978
0.579991
0.580005
0.580019
0.580019
0.580032
0.580046
0.580059
0.580073
0.580073
0.580087
0.580101
0.580114
0.580128
0.580128
0.580142
0.580156
0.58017
0.580183
0.580183
0.580197
0.580211
0.580225
0.580239
0.580239
0.580253
0.580267
0.580281
0.580295
0.580295
0.58031
0.580324
0.580338
0.580352
0.580352
0.580366
0.58038
0.580394
0.580408
0.580408
0.580423
0.580437
0.580451
0.580465
0.580465
0.580479
0.580494
0.580508
0.580522
0.580522
0.580537
0.580551
0.580565
0.58058
0.58058
0.580594
0.580608
0.580623
0.580637
0.580637
0.580652
0.580666
0.580681
0.580695
0.580695
0.58071
0.580724
0.580739
0.580753
0.580753
0.580768
0.580783
0.580797
0.580812
0.580812
0.580827
0.580841
0.580856
0.580871
0.580871
0.580885
0.5809
0.580915
0.58093
0.58093
0.580945
0.580959
0.580974
0.580989
0.580989
0.581004
0.581019
0.581034
0.581049
0.581049
0.581064
0.581078
0.581093
0.581108
0.581108
0.581123
0.581138
0.581153
0.581168
0.581168
0.581184
0.581199
0.581214
0.581229
0.581229
0.581244
0.581259
0.581275
0.58129
0.58129
0.581305
0.581321
0.581336
0.581351
0.581351
0.581367
0.581382
0.581398
0.581413
0.581413
0.581429
0.581444
0.58146
0.581475
0.581475
0.581491
0.581506
0.581522
0.581537
0.581537
0.581553
0.581568
0.581584
0.5816
0.5816
0.581615
0.581631
0.581647
0.581662
0.581662
0.581678
0.581694
0.58171
0.581726
0.581726
0.581741
0.581757
0.581773
0.581789
0.581789
0.581805
0.581821
0.581837
0.581853
0.581853
0.581869
0.581885
0.581901
0.581917
0.581917
0.581933
0.581949
0.581965
0.581981
0.581981
0.581997
0.582013
0.582029
0.582046
0.582046
0.582062
0.582078
0.582094
0.582111
0.582111
0.582127
0.582143
0.582159
0.582176
0.582176
0.582192
0.582208
0.582225
0.582241
0.582241
0.582258
0.582274
0.582291
0.582307
0.582307
0.582323
0.58234
0.582357
0.582373
0.582373
0.58239
0.582407
0.582423
0.58244
0.58244
0.582457
0.582474
0.58249
0.582507
0.582507
0.582524
0.582541
0.582558
0.582575
0.582575
0.582592
0.582609
0.582626
0.582643
0.582643
0.58266
0.582677
0.582694
0.582711
0.582711
0.582728
0.582745
0.582762
0.582779
0.582779
0.582796
0.582813
0.582831
0.582848
0.582848
0.582865
0.582882
0.5829
0.582917
0.582917
0.582934
0.582952
0.582969
0.582986
0.582986
0.583004
0.583021
0.583039
0.583056
0.583056
0.583074
0.583091
0.583109
0.583126
0.583126
0.583144
0.583161
0.583179
0.583197
0.583197
0.583214
0.583232
0.58325
0.583267
0.583267
0.583285
0.583303
0.583321
0.583338
0.583338
0.583356
0.583374
0.583392
0.58341
0.58341
0.583428
0.583446
0.583464
0.583481
0.583481
0.583499
0.583517
0.583535
0.583553
0.583553
0.583572
0.58359
0.583608
0.583626
0.583626
0.583645
0.583663
0.583681
0.5837
0.5837
0.583718
0.583736
0.583755
0.583773
0.583773
0.583792
0.58381
0.583828
0.583847
0.583847
0.583866
0.583884
0.583903
0.583921
0.583921
0.58394
0.583958
0.583977
0.583996
0.583996
0.584014
0.584033
0.584052
0.584071
0.584071
0.584089
0.584108
0.584127
0.584146
0.584146
0.584165
0.584184
0.584203
0.584222
0.584222
0.584241
0.58426
0.584279
0.584298
0.584298
0.584317
0.584336
0.584355
0.584374
0.584374
0.584393
0.584412
0.584432
0.584451
0.584451
0.58447
0.584489
0.584509
0.584528
0.584528
0.584547
0.584567
0.584586
0.584605
0.584605
0.584625
0.584644
0.584664
0.584683
0.584683
0.584703
0.584722
0.584742
0.584761
0.584761
0.584781
0.5848
0.58482
0.58484
0.58484
0.58486
0.584879
0.584899
0.584919
0.584919
0.584939
0.584959
0.584979
0.584999
0.584999
0.585019
0.585039
0.585059
0.585079
0.585079
0.585099
0.585119
0.58514
0.58516
0.58516
0.58518
0.5852
0.58522
0.585241
0.585241
0.585261
0.585281
0.585302
0.585322
0.585322
0.585342
0.585363
0.585383
0.585404
0.585404
0.585424
0.585445
0.585465
0.585486
0.585486
0.585506
0.585527
0.585547
0.585568
0.585568
0.585589
0.585609
0.58563
0.585651
0.585651
0.585672
0.585693
0.585713
0.585734
0.585734
0.585755
0.585776
0.585797
0.585818
0.585818
0.585839
0.58586
0.585881
0.585902
0.585902
0.585923
0.585944
0.585965
0.585986
0.585986
0.586007
0.586029
0.58605
0.586071
0.586071
0.586092
0.586114
0.586135
0.586156
0.586156
0.586178
0.586199
0.586221
0.586242
0.586242
0.586264
0.586285
0.586307
0.586329
0.586329
0.58635
0.586372
0.586394
0.586416
0.586416
0.586437
0.586459
0.586481
0.586503
0.586503
0.586525
0.586547
0.586569
0.586591
0.586591
0.586613
0.586635
0.586657
0.586679
0.586679
0.586701
0.586723
0.586745
0.586768
0.586768
0.58679
0.586812
0.586834
0.586857
0.586857
0.586879
0.586901
0.586924
0.586946
0.586946
0.586968
0.586991
0.587013
0.587036
0.587036
0.587058
0.587081
0.587104
0.587126
0.587126
0.587149
0.587172
0.587194
0.587217
0.587217
0.58724
0.587263
0.587285
0.587308
0.587308
0.587331
0.587354
0.587377
0.5874
0.5874
0.587423
0.587446
0.587469
0.587492
0.587492
0.587515
0.587538
0.587561
0.587584
0.587584
0.587607
0.587631
0.587654
0.587677
0.587677
0.587701
0.587724
0.587747
0.587771
0.587771
0.587795
0.587818
0.587842
0.587865