<?xml version="1.0"?>
<VTKFile type="UnstructuredGrid" version="0.1" byte_order="LittleEndian">
<UnstructuredGrid>
<Piece NumberOfPoints="5000" NumberOfCells="4000">
<PointData Scalars="Reaction 0">
<DataArray type="Float32" Name="Reaction 0" format="ascii">
0.566804
0.566804
0.566804
0.566804
0.566804
0.566804
0.566804
0.566804
0.566804
0.566804
0.566804
0.566804
0.566804
0.566804
0.566804
0.566804
0.566804
0.566804
0.566804
0.566804
0.566804
0.566804
0.566804
0.566804
0.566804
0.566804
0.566804
0.566804
0.566804
0.566804
0.566804
0.566804
0.566804
0.566804
0.566804
0.566804
0.566804
0.566804
0.566805
0.566805
0.566805
0.566805
0.566805
0.566805
0.566805
0.566805
0.566805
0.566805
0.566805
0.566805
0.566805
0.566805
0.566805
0.566805
0.566805
0.566805
0.566805
0.566805
0.566805
0.566805
0.566805
0.566805
0.566805
0.566805
0.566805
0.566805
0.566806
0.566806
0.566806
0.566806
0.566806
0.566806
0.566806
0.566806
0.566806
0.566806
0.566806
0.566806
0.566806
0.566806
0.566806
0.566806
0.566806
0.566807
0.566807
0.566807
0.566807
0.566807
0.566807
0.566807
0.566807
0.566807
0.566807
0.566807
0.566807
0.566807
0.566807
0.566807
0.566808
0.566808
0.566808
0.566808
0.566808
0.566808
0.566808
0.566808
0.566808
0.566808
0.566808
0.566808
0.566808
0.566808
0.566809
0.566809
0.566809
0.566809
0.566809
0.566809
0.566809
0.566809
0.566809
0.566809
0.566809
0.56681
0.56681
0.56681
0.56681
0.56681
0.56681
0.56681
0.56681
0.56681
0.56681
0.56681
0.566811
0.566811
0.566811
0.566811
0.566811
0.566811
0.566811
0.566811
0.566811
0.566811
0.566812
0.566812
0.566812
0.566812
0.566812
0.566812
0.566812
0.566812
0.566812
0.566813
0.566813
0.566813
0.566813
0.566813
0.566813
0.566813
0.566813
0.566813
0.566814
0.566814
0.566814
0.566814
0.566814
0.566814
0.566814
0.566814
0.566814
0.566815
0.566815
0.566815
0.566815
0.566815
0.566815
0.566815
0.566816
0.566816
0.566816
0.566816
0.566816
0.566816
0.566816
0.566816
0.566817
0.566817
0.566817
0.566817
0.566817
0.566817
0.566817
0.566818
0.566818
0.566818
0.566818
0.566818
0.566818
0.566819
0.566819
0.566819
0.566819
0.566819
0.566819
0.566819
0.566819
0.56682
0.56682
0.56682
0.56682
0.56682
0.56682
0.566821
0.566821
0.566821
0.566821
0.566821
0.566821
0.566822
0.566822
0.566822
0.566822
0.566822
0.566822
0.566822
0.566823
0.566823
0.566823
0.566823
0.566823
0.566823
0.566824
0.566824
0.566824
0.566824
0.566824
0.566825
0.566825
0.566825
0.566825
0.566825
0.566825
0.566826
0.566826
0.566826
0.566826
0.566826
0.566827
0.566827
0.566827
0.566827
0.566827
0.566827
0.566828
0.566828
0.566828
0.566828
0.566828
0.566829
0.566829
0.566829
0.566829
0.566829
0.56683
0.56683
0.56683
0.56683
0.56683
0.566831
0.566831
0.566831
0.566831
0.566831
0.566832
0.566832
0.566832
0.566832
0.566832
0.566833
0.566833
0.566833
0.566833
0.566833
0.566834
0.566834
0.566834
0.566834
0.566834
0.566835
0.566835
0.566835
0.566835
0.566836
0.566836
0.566836
0.566836
0.566836
0.566837
0.566837
0.566837
0.566837
0.566837
0.566838
0.566838
0.566838
0.566838
0.566839
0.566839
0.566839
0.566839
0.566839
0.56684
0.56684
0.56684
0.56684
0.566841
0.566841
0.566841
0.566841
0.566841
0.566842
0.566842
0.566842
0.566843
0.566843
0.566843
0.566843
0.566844
0.566844
0.566844
0.566844
0.566844
0.566845
0.566845
0.566845
0.566845
0.566846
0.566846
0.566846
0.566846
0.566847
0.566847
0.566847
0.566848
0.566848
0.566848
0.566848
0.566848
0.566849
0.566849
0.566849
0.566849
0.56685
0.56685
0.56685
0.56685
0.566851
0.566851
0.566851
0.566851
0.566852
0.566852
0.566852
0.566853
0.566853
0.566853
0.566853
0.566854
0.566854
0.566854
0.566854
0.566855
0.566855
0.566855
0.566855
0.566856
0.566856
0.566856
0.566857
0.566857
0.566857
0.566858
0.566858
0.566858
0.566858
0.566859
0.566859
0.566859
0.56686
0.56686
0.56686
0.56686
0.566861
0.566861
0.566861
0.566862
0.566862
0.566862
0.566863
0.566863
0.566863
0.566863
0.566864
0.566864
0.566864
0.566865
0.566865
0.566865
0.566866
0.566866
0.566866
0.566866
0.566867
0.566867
0.566867
0.566868
0.566868
0.566868
0.566869
0.566869
0.566869
0.566869
0.56687
0.56687
0.56687
0.566871
0.566871
0.566871
0.566872
0.566872
0.566872
0.566873
0.566873
0.566873
0.566873
0.566874
0.566874
0.566875
0.566875
0.566875
0.566875
0.566876
0.566876
0.566877
0.566877
0.566877
0.566878
0.566878
0.566878
0.566878
0.566879
0.566879
0.56688
0.56688
0.56688
0.56688
0.566881
0.566881
0.566882
0.566882
0.566882
0.566883
0.566883
0.566883
0.566883
0.566884
0.566884
0.566885
0.566885
0.566885
0.566886
0.566886
0.566887
0.566887
0.566887
0.566887
0.566888
0.566888
0.566889
0.566889
0.566889
0.56689
0.56689
0.566891
0.566891
0.566891
0.566891
0.566892
0.566892
0.566892
0.566893
0.566893
0.566894
0.566894
0.566894
0.566895
0.566895
0.566896
0.566896
0.566896
0.566896
0.566897
0.566897
0.566898
0.566898
0.566898
0.566899
0.566899
0.5669
0.5669
0.5669
0.566901
0.566901
0.566902
0.566902
0.566902
0.566903
0.566903
0.566904
0.566904
0.566904
0.566905
0.566905
0.566906
0.566906
0.566906
0.566907
0.566907
0.566908
0.566908
0.566908
0.566909
0.566909
0.56691
0.56691
0.56691
0.566911
0.566911
0.566912
0.566912
0.566912
0.566913
0.566913
0.566914
0.566914
0.566914
0.566915
0.566915
0.566916
0.566916
0.566916
0.566917
0.566917
0.566918
0.566918
0.566918
0.566919
0.566919
0.56692
0.56692
0.56692
0.566921
0.566921
0.566922
0.566922
0.566922
0.566923
0.566923
0.566924
0.566924
0.566925
0.566925
0.566926
0.566926
0.566926
0.566927
0.566927
0.566928
0.566928
0.566928
0.566929
0.566929
0.56693
0.56693
0.56693
0.566931
0.566932
0.566932
0.566933
0.566933
0.566933
0.566934
0.566934
0.566935
0.566935
0.566935
0.566936
0.566937
0.566937
0.566937
0.566938
0.566938
0.566939
0.566939
0.566939
0.56694
0.566941
0.566941
0.566942
0.566942
0.566942
0.566943
0.566943
0.566944
0.566944
0.566945
0.566945
0.566946
0.566946
0.566946
0.566947
0.566948
0.566948
0.566949
0.566949
0.566949
0.56695
0.56695
0.566951
0.566951
0.566952
0.566952
0.566953
0.566953
0.566953
0.566954
0.566955
0.566955
0.566956
0.566956
0.566956
0.566957
0.566958
0.566958
0.566958
0.566959
0.56696
0.56696
0.566961
0.566961
0.566961
0.566962
0.566963
0.566963
0.566963
0.566964
0.566964
0.566965
0.566966
0.566966
0.566966
0.566967
0.566968
0.566968
0.566968
0.566969
0.566969
0.56697
0.566971
0.566971
0.566971
0.566972
0.566973
0.566973
0.566973
0.566974
0.566975
0.566975
0.566976
0.566976
0.566976
0.566977
0.566978
0.566978
0.566978
0.566979
0.56698
0.56698
0.566981
0.566981
0.566982
0.566982
0.566983
0.566984
0.566984
0.566984
0.566985
0.566986
0.566986
0.566986
0.566987
0.566988
0.566988
0.566989
0.566989
0.56699
0.56699
0.566991
0.566992
0.566992
0.566992
0.566993
0.566994
0.566994
0.566994
0.566995
0.566996
0.566996
0.566997
0.566997
0.566998
0.566999
0.566999
0.567
0.567
0.567001
0.567001
0.567002
0.567003
0.567003
0.567003
0.567004
0.567005
0.567005
0.567005
0.567006
0.567007
0.567008
0.567008
0.567008
0.567009
0.56701
0.56701
0.567011
0.567011
0.567012
0.567013
0.567013
0.567014
0.567014
0.567015
0.567015
0.567016
0.567017
0.567017
0.567018
0.567018
0.567019
0.56702
0.56702
0.56702
0.567021
0.567022
0.567023
0.567023
0.567023
0.567024
0.567025
0.567026
0.567026
0.567026
0.567027
0.567028
0.567029
0.567029
0.567029
0.56703
0.567031
0.567032
0.567032
0.567032
0.567033
0.567034
0.567035
0.567035
0.567035
0.567036
0.567037
0.567038
0.567038
0.567038
0.567039
0.56704
0.567041
0.567041
0.567041
0.567042
0.567043
0.567044
0.567044
0.567044
0.567045
0.567046
0.567047
0.567047
0.567048
0.567048
0.567049
0.56705
0.56705
0.567051
0.567052
0.567052
0.567053
0.567053
0.567054
0.567055
0.567055
0.567056
0.567056
0.567057
0.567058
0.567059
0.567059
0.567059
0.56706
0.567061
0.567062
0.567063
0.567063
0.567063
0.567064
0.567065
0.567066
0.567066
0.567067
0.567067
0.567068
0.567069
0.567069
0.56707
0.567071
0.567072
0.567072
0.567072
0.567073
0.567074
0.567075
0.567076
0.567076
0.567076
0.567077
0.567078
0.567079
0.567079
0.56708
0.567081
0.567081
0.567082
0.567082
0.567083
0.567084
0.567085
0.567086
0.567086
0.567086
0.567087
0.567088
0.567089
0.567089
0.56709
0.567091
0.567092
0.567092
0.567092
0.567093
0.567094
0.567095
0.567096
0.567096
0.567097
0.567098
0.567098
0.567099
0.567099
0.5671
0.567101
0.567102
0.567103
0.567103
0.567104
0.567104
0.567105
0.567106
0.567106
0.567107
0.567108
0.567109
0.56711
0.56711
0.567111
0.567112
0.567112
0.567113
0.567113
0.567114
0.567115
0.567116
0.567117
0.567117
0.567118
0.567119
0.56712
0.56712
0.56712
0.567121
0.567122
0.567123
0.567124
0.567124
0.567125
0.567126
0.567127
0.567128
0.567128
0.567129
0.567129
0.56713
0.567131
0.567131
0.567132
0.567133
0.567134
0.567135
0.567135
0.567136
0.567137
0.567138
0.567139
0.567139
0.56714
0.56714
0.567141
0.567142
0.567142
0.567143
0.567144
0.567145
0.567146
0.567146
0.567147
0.567148
0.567149
0.56715
0.56715
0.567151
0.567152
0.567153
0.567154
0.567154
0.567155
0.567156
0.567156
0.567157
0.567157
0.567158
0.567159
0.56716
0.567161
0.567161
0.567162
0.567163
0.567164
0.567165
0.567165
0.567166
0.567167
0.567168
0.567169
0.567169
0.56717
0.567171
0.567172
0.567173
0.567173
0.567174
0.567175
0.567176
0.567177
0.567177
0.567178
0.567179
0.56718
0.567181
0.567181
0.567182
0.567183
0.567184
0.567185
0.567185
0.567186
0.567187
0.567188
0.567189
0.567189
0.56719
0.567191
0.567192
0.567193
0.567193
0.567194
0.567195
0.567196
0.567197
0.567197
0.567198
0.567199
0.5672
0.567201
0.567201
0.567202
0.567203
0.567204
0.567205
0.567205
0.567206
0.567207
0.567208
0.567209
0.567209
0.56721
0.567211
0.567212
0.567213
0.567213
0.567214
0.567215
0.567216
0.567217
0.567217
0.567218
0.567219
0.56722
0.567221
0.567221
0.567223
0.567224
0.567225
0.567226
0.567226
0.567227
0.567228
0.567229
0.56723
0.56723
0.567231
0.567232
0.567233
0.567234
0.567234
0.567235
0.567236
0.567237
0.567238
0.567238
0.567239
0.56724
0.567242
0.567243
0.567243
0.567244
0.567245
0.567246
0.567247
0.567247
0.567248
0.567249
0.56725
0.567251
0.567251
0.567253
0.567254
0.567255
0.567256
0.567256
0.567257
0.567258
0.567259
0.56726
0.56726
0.567261
0.567262
0.567264
0.567265
0.567265
0.567266
0.567267
0.567268
0.567269
0.567269
0.56727
0.567271
0.567272
0.567274
0.567274
0.567275
0.567276
0.567277
0.567278
0.567278
0.567279
0.56728
0.567281
0.567283
0.567283
0.567284
0.567285
0.567286
0.567287
0.567287
0.567288
0.567289
0.567291
0.567292
0.567292
0.567293
0.567294
0.567295
0.567296
0.567296
0.567297
0.567299
0.5673
0.567301
0.567301
0.567302
0.567303
0.567304
0.567306
0.567306
0.567307
0.567308
0.567309
0.56731
0.56731
0.567311
0.567313
0.567314
0.567315
0.567315
0.567316
0.567317
0.567318
0.56732
0.56732
0.567321
0.567322
0.567323
0.567324
0.567324
0.567326
0.567327
0.567328
0.567329
0.567329
0.56733
0.567332
0.567333
0.567334
0.567334
0.567335
0.567336
0.567338
0.567339
0.567339
0.56734
0.567341
0.567342
0.567344
0.567344
0.567345
0.567346
0.567347
0.567349
0.567349
0.56735
0.567351
0.567352
0.567353
0.567353
0.567355
0.567356
0.567357
0.567358
0.567358
0.56736
0.567361
0.567362
0.567363
0.567363
0.567365
0.567366
0.567367
0.567368
0.567368
0.56737
0.567371
0.567372
0.567373
0.567373
0.567375
0.567376
0.567377
0.567378
0.567378
0.56738
0.567381
0.567382
0.567383
0.567383
0.567385
0.567386
0.567387
0.567388
0.567388
0.56739
0.567391
0.567392
0.567394
0.567394
0.567395
0.567396
0.567397
0.567399
0.567399
0.5674
0.567401
0.567403
0.567404
0.567404
0.567405
0.567407
0.567408
0.567409
0.567409
0.56741
0.567412
0.567413
0.567414
0.567414
0.567416
0.567417
0.567418
0.56742
0.56742
0.567421
0.567422
0.567424
0.567425
0.567425
0.567426
0.567427
0.567429
0.56743
0.56743
0.567431
0.567433
0.567434
0.567435
0.567435
0.567437
0.567438
0.567439
0.567441
0.567441
0.567442
0.567443
0.567445
0.567446
0.567446
0.567447
0.567449
0.56745
0.567451
0.567451
0.567453
0.567454
0.567456
0.567457
0.567457
0.567458
0.56746
0.567461
0.567462
0.567462
0.567464
0.567465
0.567467
0.567468
0.567468
0.567469
0.567471
0.567472
0.567474
0.567474
0.567475
0.567476
0.567478
0.567479
0.567479
0.56748
0.567482
0.567483
0.567485
0.567485
0.567486
0.567487
0.567489
0.56749
0.56749
0.567492
0.567493
0.567494
0.567496
0.567496
0.567497
0.567499
0.5675
0.567502
0.567502
0.567503
0.567504
0.567506
0.567507
0.567507
0.567509
0.56751
0.567512
0.567513
0.567513
0.567514
0.567516
0.567517
0.567519
0.567519
0.56752
0.567522
0.567523
0.567524
0.567524
0.567526
0.567527
0.567529
0.56753
0.56753
0.567532
0.567533
0.567535
0.567536
0.567536
0.567538
0.567539
0.56754
0.567542
0.567542
0.567543
0.567545
0.567546
0.567548
0.567548
0.567549
0.567551
0.567552
0.567554
0.567554
0.567555
0.567557
0.567558
0.56756
0.56756
0.567561
0.567563
0.567564
0.567566
0.567566
0.567567
0.567569
0.56757
0.567572
0.567572
0.567573
0.567575
0.567576
0.567578
0.567578
0.567579
0.567581
0.567582
0.567584
0.567584
0.567585
0.567587
0.567588
0.56759
0.56759
0.567591
0.567593
0.567594
0.567596
0.567596
0.567598
0.567599
0.567601
0.567602
0.567602
0.567604
0.567605
0.567607
0.567608
0.567608
0.56761
0.567611
0.567613
0.567615
0.567615
0.567616
0.567618
0.567619
0.567621
0.567621
0.567622
0.567624
0.567625
0.567627
0.567627
0.567629
0.56763
0.567632
0.567633
0.567633
0.567635
0.567637
0.567638
0.56764
0.56764
0.567641
0.567643
0.567644
0.567646
0.567646
0.567648
0.567649
0.567651
0.567652
0.567652
0.567654
0.567656
0.567657
0.567659
0.567659
0.56766
0.567662
0.567664
0.567665
0.567665
0.567667
0.567668
0.56767
0.567672
0.567672
0.567673
0.567675
0.567677
0.567678
0.567678
0.56768
0.567682
0.567683
0.567685
0.567685
0.567686
0.567688
0.56769
0.567691
0.567691
0.567693
0.567695
0.567696
0.567698
0.567698
0.5677
0.567701
0.567703
0.567705
0.567705
0.567706
0.567708
0.56771
0.567711
0.567711
0.567713
0.567715
0.567716
0.567718
0.567718
0.56772
0.567721
0.567723
0.567725
0.567725
0.567726
0.567728
0.56773
0.567732
0.567732
0.567733
0.567735
0.567737
0.567738
0.567738
0.56774
0.567742
0.567743
0.567745
0.567745
0.567747
0.567749
0.56775
0.567752
0.567752
0.567754
0.567756
0.567757
0.567759
0.567759
0.567761
0.567762
0.567764
0.567766
0.567766
0.567768
0.567769
0.567771
0.567773
0.567773
0.567775
0.567776
0.567778
0.56778
0.56778
0.567782
0.567783
0.567785
0.567787
0.567787
0.567789
0.56779
0.567792
0.567794
0.567794
0.567796
0.567797
0.567799
0.567801
0.567801
0.567803
0.567805
0.567806
0.567808
0.567808
0.56781
0.567812
0.567814
0.567815
0.567815
0.567817
0.567819
0.567821
0.567822
0.567822
0.567824
0.567826
0.567828
0.56783
0.56783
0.567832
0.567833
0.567835
0.567837
0.567837
0.567839
0.567841
0.567842
0.567844
0.567844
0.567846
0.567848
0.56785
0.567852
0.567852
0.567853
0.567855
0.567857
0.567859
0.567859
0.567861
0.567863
0.567864
0.567866
0.567866
0.567868
0.56787
0.567872
0.567874
0.567874
0.567876
0.567877
0.567879
0.567881
0.567881
0.567883
0.567885
0.567887
0.567889
0.567889
0.567891
0.567892
0.567894
0.567896
0.567896
0.567898
0.5679
0.567902
0.567904
0.567904
0.567905
0.567907
0.567909
0.567911
0.567911
0.567913
0.567915
0.567917
0.567919
0.567919
0.567921
0.567923
0.567925
0.567927
0.567927
0.567929
0.567931
0.567932
0.567934
0.567934
0.567936
0.567938
0.56794
0.567942
0.567942
0.567944
0.567946
0.567948
0.56795
0.56795
0.567952
0.567954
0.567956
0.567958
0.567958
0.56796
0.567962
0.567964
0.567966
0.567966
0.567968
0.56797
0.567971
0.567973
0.567973
0.567975
0.567977
0.567979
0.567981
0.567981
0.567983
0.567985
0.567987
0.567989
0.567989
0.567991
0.567993
0.567995
0.567997
0.567997
0.567999
0.568001
0.568003
0.568005
0.568005
0.568007
0.568009
0.568011
0.568013
0.568013
0.568015
0.568017
0.568019
0.568021
0.568021
0.568024
0.568026
0.568028
0.56803
0.56803
0.568032
0.568034
0.568036
0.568038
0.568038
0.56804
0.568042
0.568044
0.568046
0.568046
0.568048
0.56805
0.568052
0.568054
0.568054
0.568056
0.568058
0.56806
0.568063
0.568063
0.568065
0.568067
0.568069
0.568071
0.568071
0.568073
0.568075
0.568077
0.568079
0.568079
0.568081
0.568083
0.568086
0.568088
0.568088
0.56809
0.568092
0.568094
0.568096
0.568096
0.568098
0.5681
0.568102
0.568105
0.568105
0.568107
0.568109
0.568111
0.568113
0.568113
0.568115
0.568117
0.568119
0.568122
0.568122
0.568124
0.568126
0.568128
0.56813
0.56813
0.568132
0.568134
0.568137
0.568139
0.568139
0.568141
0.568143
0.568145
0.568147
0.568147
0.568149
0.568152
0.568154
0.568156
0.568156
0.568158
0.56816
0.568163
0.568165
0.568165
0.568167
0.568169
0.568171
0.568174
0.568174
0.568176
0.568178
0.56818
0.568182
0.568182
0.568185
0.568187
0.568189
0.568191
0.568191
0.568194
0.568196
0.568198
0.5682
0.5682
0.568202
0.568205
0.568207
0.568209
0.568209
0.568211
0.568214
0.568216
0.568218
0.568218
0.56822
0.568223
0.568225
0.568227
0.568227
0.568229
0.568232
0.568234
0.568236
0.568236
0.568239
0.568241
0.568243
0.568245
0.568245
0.568248
0.56825
0.568252
0.568254
0.568254
0.568257
0.568259
0.568261
0.568264
0.568264
0.568266
0.568268
0.568271
0.568273
0.568273
0.568275
0.568278
0.56828
0.568282
0.568282
0.568284
0.568287
0.568289
0.568291
0.568291
0.568294
0.568296
0.568298
0.568301
0.568301
0.568303
0.568306
0.568308
0.56831
0.56831
0.568313
0.568315
0.568317
0.56832
0.56832
0.568322
0.568324
0.568327
0.568329
0.568329
0.568331
0.568334
0.568336
0.568339
0.568339
0.568341
0.568343
0.568346
0.568348
0.568348
0.568351
0.568353
0.568355
0.568358
0.568358
0.56836
0.568363
0.568365
0.568367
0.568367
0.56837
0.568372
0.568375
0.568377
0.568377
0.56838
0.568382
0.568384
0.568387
0.568387
0.568389
0.568392
0.568394
0.568396
0.568396
0.568399
0.568401
0.568404
0.568406
0.568406
0.568409
0.568411
0.568414
0.568416
0.568416
0.568419
0.568421
0.568424
0.568426
0.568426
0.568429
0.568431
0.568434
0.568436
0.568436
0.568439
0.568441
0.568444
0.568446
0.568446
0.568449
0.568451
0.568454
0.568456
0.568456
0.568459
0.568461
0.568464
0.568466
0.568466
0.568469
0.568471
0.568474
0.568476
0.568476
0.568479
0.568481
0.568484
0.568487
0.568487
0.568489
0.568492
0.568494
0.568497
0.568497
0.568499
0.568502
0.568504
0.568507
0.568507
0.56851
0.568512
0.568515
0.568517
0.568517
0.56852
0.568522
0.568525
0.568528
0.568528
0.56853
0.568533
0.568535
0.568538
0.568538
0.568541
0.568543
0.568546
0.568549
0.568549
0.568551
0.568554
0.568556
0.568559
0.568559
0.568562
0.568564
0.568567
0.56857
0.56857
0.568572
0.568575
0.568577
0.56858
0.56858
0.568583
0.568585
0.568588
0.568591
0.568591
0.568593
0.568596
0.568599
0.568601
0.568601
0.568604
0.568607
0.568609
0.568612
0.568612
0.568615
0.568618
0.56862
0.568623
0.568623
0.568626
0.568628
0.568631
0.568634
0.568634
0.568636
0.568639
0.568642
0.568645
0.568645
0.568647
0.56865
0.568653
0.568655
0.568655
0.568658
0.568661
0.568664
0.568666
0.568666
0.568669
0.568672
0.568675
0.568677
0.568677
0.56868
0.568683
0.568685
0.568688
0.568688
0.568691
0.568694
0.568697
0.568699
0.568699
0.568702
0.568705
0.568708
0.568711
0.568711
0.568714
0.568716
0.568719
0.568722
0.568722
0.568725
0.568728
0.56873
0.568733
0.568733
0.568736
0.568739
0.568742
0.568745
0.568745
0.568747
0.56875
0.568753
0.568756
0.568756
0.568759
0.568762
0.568764
0.568767
0.568767
0.56877
0.568773
0.568776
0.568779
0.568779
0.568782
0.568785
0.568787
0.56879
0.56879
0.568793
0.568796
0.568799
0.568802
0.568802
0.568805
0.568808
0.568811
0.568813
0.568813
0.568816
0.568819
0.568822
0.568825
0.568825
0.568828
0.568831
0.568834
0.568837
0.568837
0.56884
0.568843
0.568846
0.568849
0.568849
0.568852
0.568855
0.568857
0.56886
0.56886
0.568863
0.568866
0.568869
0.568872
0.568872
0.568875
0.568878
0.568881
0.568884
0.568884
0.568887
0.56889
0.568893
0.568896
0.568896
0.568899
0.568902
0.568905
0.568908
0.568908
0.568911
0.568914
0.568917
0.56892
0.56892
0.568923
0.568926
0.568929
0.568932
0.568932
0.568935
0.568938
0.568942
0.568945
0.568945
0.568948
0.568951
0.568954
0.568957
0.568957
0.56896
0.568963
0.568966
0.568969
0.568969
0.568972
0.568975
0.568978
0.568981
0.568981
0.568984
0.568987
0.568991
0.568994
0.568994
0.568997
0.569
0.569003
0.569006
0.569006
0.569009
0.569013
0.569016
0.569019
0.569019
0.569022
0.569025
0.569028
0.569031
0.569031
0.569035
0.569038
0.569041
0.569044
0.569044
0.569047
0.56905
0.569054
0.569057
0.569057
0.56906
0.569063
0.569066
0.56907
0.56907
0.569073
0.569076
0.569079
0.569082
0.569082
0.569086
0.569089
0.569092
0.569095
0.569095
0.569098
0.569102
0.569105
0.569108
0.569108
0.569111
0.569115
0.569118
0.569121
0.569121
0.569124
0.569128
0.569131
0.569134
0.569134
0.569137
0.569141
0.569144
0.569147
0.569147
0.56915
0.569154
0.569157
0.56916
0.56916
0.569164
0.569167
0.56917
0.569173
0.569173
0.569177
0.56918
0.569183
0.569187
0.569187
0.56919
0.569193
0.569197
0.5692
0.5692
0.569203
0.569207
0.56921
0.569213
0.569213
0.569217
0.56922
0.569223
0.569227
0.569227
0.56923
0.569234
0.569237
0.56924
0.56924
0.569244
0.569247
0.56925
0.569254
0.569254
0.569257
0.569261
0.569264
0.569267
0.569267
0.569271
0.569274
0.569277
0.569281
0.569281
0.569284
0.569288
0.569291
0.569295
0.569295
0.569298
0.569302
0.569305
0.569309
0.569309
0.569312
0.569316
0.569319
0.569323
0.569323
0.569326
0.56933
0.569333
0.569336
0.569336
0.56934
0.569343
0.569347
0.56935
0.56935
0.569354
0.569358
0.569361
0.569365
0.569365
0.569368
0.569372
0.569375
0.569379
0.569379
0.569382
0.569386
0.569389
0.569393
0.569393
0.569396
0.5694
0.569403
0.569407
0.569407
0.569411
0.569414
0.569418
0.569421
0.569421
0.569425
0.569429
0.569432
0.569436
0.569436
0.569439
0.569443
0.569447
0.56945
0.56945
0.569454
0.569457
0.569461
0.569465
0.569465
0.569468
0.569472
0.569476
0.569479
0.569479
0.569483
0.569486
0.56949
0.569494
0.569494
0.569497
0.569501
0.569505
0.569508
0.569508
0.569512
0.569516
0.56952
0.569523
0.569523
0.569527
0.569531
0.569534
0.569538
0.569538
0.569542
0.569545
0.569549
0.569553
0.569553
0.569557
0.56956
0.569564
0.569568
0.569568
0.569572
0.569575
0.569579
0.569583
0.569583
0.569586
0.56959
0.569594
0.569598
0.569598
0.569601
0.569605
0.569609
0.569613
0.569613
0.569617
0.569621
0.569624
0.569628
0.569628
0.569632
0.569636
0.56964
0.569644
0.569644
0.569647
0.569651
0.569655
0.569659
0.569659
0.569663
0.569667
0.569671
0.569674
0.569674
0.569678
0.569682
0.569686
0.56969
0.56969
0.569694
0.569698
0.569702
0.569706
0.569706
0.569709
0.569713
0.569717
0.569721
0.569721
0.569725
0.569729
0.569733
0.569737
0.569737
0.569741
0.569745
0.569749
0.569753
0.569753
0.569757
0.569761
0.569765
0.569768
0.569768
0.569772
0.569776
0.56978
0.569784
0.569784
0.569788
0.569792
0.569796
0.5698
0.5698
0.569804
0.569808
0.569812
0.569816
0.569816
0.56982
0.569825
0.569829
0.569833
0.569833
0.569837
0.569841
0.569845
0.569849
0.569849
0.569853
0.569857
0.569861
0.569865
0.569865
0.569869
0.569873
0.569877
0.569881
0.569881
0.569886
0.56989
0.569894
0.569898
0.569898
0.569902
0.569906
0.56991
0.569914
0.569914
0.569918
0.569922
0.569927
0.569931
0.569931
0.569935
0.569939
0.569943
0.569947
0.569947
0.569951
0.569956
0.56996
0.569964
0.569964
0.569968
0.569973
0.569977
0.569981
0.569981
0.569985
0.56999
0.569994
0.569998
0.569998
0.570002
0.570006
0.570011
0.570015
0.570015
0.570019
0.570023
0.570028
0.570032
0.570032
0.570036
0.570041
0.570045
0.570049
0.570049
0.570053
0.570058
0.570062
0.570066
0.570066
0.570071
0.570075
0.570079
0.570084
0.570084
0.570088
0.570092
0.570097
0.570101
0.570101
0.570105
0.57011
0.570114
0.570118
0.570118
0.570123
0.570127
0.570132
0.570136
0.570136
0.57014
0.570145
0.570149
0.570153
0.570153
0.570158
0.570162
0.570167
0.570171
0.570171
0.570176
0.57018
0.570184
0.570189
0.570189
0.570193
0.570198
0.570202
0.570207
0.570207
0.570211
0.570216
0.57022
0.570225
0.570225
0.570229
0.570234
0.570238
0.570243
0.570243
0.570247
0.570252
0.570256
0.570261
0.570261
0.570265
0.57027
0.570274
0.570279
0.570279
0.570283
0.570288
0.570292
0.570297
0.570297
0.570301
0.570306
0.57031
0.570315
0.570315
0.57032
0.570324
0.570329
0.570334
0.570334
0.570338
0.570343
0.570348
0.570352
0.570352
0.570357
0.570362
0.570366
0.570371
0.570371
0.570376
0.57038
0.570385
0.57039
0.57039
0.570394
0.570399
0.570404
0.570408
0.570408
0.570413
0.570418
0.570422
0.570427
0.570427
0.570432
0.570437
0.570441
0.570446
0.570446
0.570451
0.570456
0.57046
0.570465
0.570465
0.57047
0.570475
0.570479
0.570484
0.570484
0.570489
0.570494
0.570499
0.570503
0.570503
0.570508
0.570513
0.570518
0.570523
0.570523
0.570528
0.570532
0.570537
0.570542
0.570542
0.570547
0.570552
0.570557
0.570562
0.570562
0.570566
0.570571
0.570576
0.570581
0.570581
0.570586
0.570591
0.570596
0.570601
0.570601
0.570606
0.570611
0.570615
0.57062
0.57062
0.570625
0.57063
0.570635
0.57064
0.57064
0.570645
0.57065
0.570655
0.57066
0.57066
0.570665
0.57067
0.570675
0.57068
0.57068
0.570685
0.57069
0.570695
0.5707
0.5707
0.570705
0.57071
0.570715
0.57072
0.57072
0.570725
0.57073
0.570736
0.570741
0.570741
0.570746
0.570751
0.570756
0.570761
0.570761
0.570766
0.570771
0.570776
0.570782
0.570782
0.570787
0.570792
0.570797
0.570802
0.570802
0.570807
0.570812
0.570818
0.570823
0.570823
0.570828
0.570833
0.570838
0.570844
0.570844
0.570849
0.570854
0.570859
0.570864
0.570864
0.57087
0.570875
0.57088
0.570885
0.570885
0.570891
0.570896
0.570901
0.570906
0.570906
0.570912
0.570917
0.570922
0.570928
0.570928
0.570933
0.570938
0.570944
0.570949
0.570949
0.570954
0.57096
0.570965
0.57097
0.57097
0.570976
0.570981
0.570986
0.570992
0.570992
0.570997
0.571002
0.571008
0.571013
0.571013
0.571019
0.571024
0.571029
0.571035
0.571035
0.57104
0.571046
0.571051
0.571056
0.571056
0.571062
0.571067
0.571073
0.571078
0.571078
0.571084
0.571089
0.571095
0.5711
0.5711
0.571106
0.571111
0.571117
0.571122
0.571122
0.571128
0.571134
0.571139
0.571145
0.571145
0.57115
0.571156
0.571161
0.571167
0.571167
0.571173
0.571178
0.571184
0.571189
0.571189
0.571195
0.571201
0.571206
0.571212
0.571212
0.571218
0.571223
0.571229
0.571235
0.571235
0.57124
0.571246
0.571252
0.571257
0.571257
0.571263
0.571269
0.571274
0.57128
0.57128
0.571286
0.571291
0.571297
0.571303
0.571303
0.571309
0.571314
0.57132
0.571326
0.571326
0.571332
0.571338
0.571343
0.571349
0.571349
0.571355
0.571361
0.571367
0.571372
0.571372
0.571378
0.571384
0.57139
0.571396
0.571396
0.571402
0.571407
0.571413
0.571419
0.571419
0.571425
0.571431
0.571437
0.571443
0.571443
0.571449
0.571454
0.57146
0.571466
0.571466
0.571472
0.571478
0.571484
0.57149
0.57149
0.571496
0.571502
0.571508
0.571514
0.571514
0.57152
0.571526
0.571532
0.571538
0.571538
0.571544
0.57155
0.571556
0.571562
0.571562
0.571568
0.571574
0.571581
0.571587
0.571587
0.571593
0.571599
0.571605
0.571611
0.571611
0.571617
0.571623
0.571629
0.571636
0.571636
0.571642
0.571648
0.571654
0.57166
0.57166
0.571666
0.571673
0.571679
0.571685
0.571685
0.571691
0.571697
0.571704
0.57171
0.57171
0.571716
0.571722
0.571729
0.571735
0.571735
0.571741
0.571747
0.571754
0.57176
0.57176
0.571766
0.571772
0.571779
0.571785
0.571785
0.571791
0.571798
0.571804
0.57181
0.57181
0.571817
0.571823
0.57183
0.571836
0.571836
0.571842
0.571849
0.571855
0.571861
0.571861
0.571868
0.571874
0.571881
0.571887
0.571887
0.571894
0.5719
0.571906
0.571913
0.571913
0.571919
0.571926
0.571932
0.571939
0.571939
0.571945
0.571952
0.571958
0.571965
0.571965
0.571971
0.571978
0.571984
0.571991
0.571991
0.571998
0.572004
0.572011
0.572018
0.572018
0.572024
0.572031
0.572037
0.572044
0.572044
0.572051
0.572057
0.572064
0.572071
0.572071
0.572077
0.572084
0.572091
0.572097
0.572097
0.572104
0.572111
0.572118
0.572124
0.572124
0.572131
0.572138
0.572145
0.572151
0.572151
0.572158
0.572165
0.572172
0.572178
0.572178
0.572185
0.572192
0.572199
0.572206
0.572206
0.572213
0.572219
0.572226
0.572233
0.572233
0.57224
0.572247
0.572254
0.572261
0.572261
0.572268
0.572274
0.572281
0.572288
0.572288
0.572295
0.572302
0.572309
0.572316
0.572316
0.572323
0.57233
0.572337
0.572344
0.572344
0.572351
0.572358
0.572365
0.572372
0.572372
0.572379
0.572386
0.572393
0.5724
0.5724
0.572407
0.572414
0.572421
0.572428
0.572428
0.572435
0.572442
0.57245
0.572457
0.572457
0.572464
0.572471
0.572478
0.572486
0.572486
0.572493
0.5725
0.572507
0.572514
0.572514
0.572522
0.572529
0.572536
0.572543
0.572543
0.572551
0.572558
0.572565
0.572573
0.572573
0.57258
0.572587
0.572594
0.572602
0.572602
0.572609
0.572616
0.572624
0.572631
0.572631
0.572638
0.572646
0.572653
0.572661
0.572661
0.572668
0.572675
0.572683
0.57269
0.57269
0.572698
0.572705
0.572713
0.57272
0.57272
0.572728
0.572735
0.572743
0.57275
0.57275
0.572758
0.572765
0.572773
0.57278
0.57278
0.572788
0.572795
0.572803
0.57281
0.57281
0.572818
0.572825
0.572833
0.572841
0.572841
0.572848
0.572856
0.572863
0.572871
0.572871
0.572879
0.572886
0.572894
0.572902
0.572902
0.572909
0.572917
0.572925
0.572932
0.572932
0.57294
0.572948
0.572956
0.572963
0.572963
0.572971
0.572979
0.572987
0.572995
0.572995
0.573003
0.57301
0.573018
0.573026
0.573026
0.573034
0.573042
0.57305
0.573058
0.573058
0.573066
0.573074
0.573081
0.573089
0.573089
0.573097
0.573105
0.573113
0.573121
0.573121
0.573129
0.573137
0.573145
0.573153
0.573153
0.573161
0.573169
0.573177
0.573185
0.573185
0.573193
0.573201
0.573209
0.573218
0.573218
0.573226
0.573234
0.573242
0.57325
0.57325
0.573258
0.573266
0.573274
0.573283
0.573283
0.573291
0.573299
0.573307
0.573315
0.573315
0.573324
0.573332
0.57334
0.573348
0.573348
0.573357
0.573365
0.573373
0.573381
0.573381
0.57339
0.573398
0.573406
0.573414
0.573414
0.573423
0.573431
0.573439
0.573448
0.573448
0.573456
0.573464
0.573473
0.573481
0.573481
0.57349
0.573498
0.573507
0.573515
0.573515
0.573524
0.573532
0.573541
0.573549
0.573549
0.573558
0.573566
0.573575
0.573584
0.573584
0.573592
0.573601
0.573609
0.573618
0.573618
0.573627
0.573635
0.573644
0.573652
0.573652
0.573661
0.57367
0.573678
0.573687
0.573687
0.573696
0.573704
0.573713
0.573722
0.573722
0.573731
0.573739
0.573748
0.573757
0.573757
0.573766
0.573775
0.573783
0.573792
0.573792
0.573801
0.57381
0.573819
0.573828
0.573828
0.573836
0.573845
0.573854
0.573863
0.573863
0.573872
0.573881
0.57389
0.573899
0.573899
0.573908
0.573917
0.573926
0.573935
0.573935
0.573944
0.573953
0.573962
0.573971
0.573971
0.57398
0.573989
0.573998
0.574007
0.574007
0.574016
0.574025
0.574034
0.574043
0.574043
0.574052
0.574061
0.574071
0.57408
0.57408
0.574089
0.574098
0.574108
0.574117
0.574117