<?xml version="1.0"?>
<VTKFile type="UnstructuredGrid" version="0.1" byte_order="LittleEndian">
<UnstructuredGrid>
<Piece NumberOfPoints="5000" NumberOfCells="4000">
<PointData Scalars="Reaction 0">
<DataArray type="Float32" Name="Reaction 0" format="ascii">
0.56579
0.56579
0.56579
0.56579
0.56579
0.56579
0.56579
0.56579
0.56579
0.56579
0.56579
0.56579
0.56579
0.56579
0.56579
0.56579
0.56579
0.56579
0.56579
0.56579
0.56579
0.56579
0.56579
0.56579
0.56579
0.56579
0.56579
0.56579
0.56579
0.56579
0.56579
0.56579
0.56579
0.56579
0.56579
0.56579
0.56579
0.56579
0.56579
0.56579
0.56579
0.56579
0.56579
0.56579
0.56579
0.56579
0.56579
0.56579
0.56579
0.56579
0.56579
0.56579
0.56579
0.56579
0.56579
0.56579
0.56579
0.56579
0.56579
0.565791
0.565791
0.565791
0.565791
0.565791
0.565791
0.565791
0.565791
0.565791
0.565791
0.565791
0.565791
0.565791
0.565791
0.565791
0.565791
0.565791
0.565791
0.565791
0.565791
0.565791
0.565791
0.565791
0.565791
0.565791
0.565791
0.565791
0.565791
0.565792
0.565792
0.565792
0.565792
0.565792
0.565792
0.565792
0.565792
0.565792
0.565792
0.565792
0.565792
0.565792
0.565792
0.565792
0.565792
0.565792
0.565792
0.565792
0.565792
0.565793
0.565793
0.565793
0.565793
0.565793
0.565793
0.565793
0.565793
0.565793
0.565793
0.565793
0.565793
0.565793
0.565793
0.565793
0.565793
0.565793
0.565794
0.565794
0.565794
0.565794
0.565794
0.565794
0.565794
0.565794
0.565794
0.565794
0.565794
0.565794
0.565794
0.565794
0.565794
0.565795
0.565795
0.565795
0.565795
0.565795
0.565795
0.565795
0.565795
0.565795
0.565795
0.565795
0.565795
0.565795
0.565795
0.565796
0.565796
0.565796
0.565796
0.565796
0.565796
0.565796
0.565796
0.565796
0.565796
0.565796
0.565796
0.565796
0.565797
0.565797
0.565797
0.565797
0.565797
0.565797
0.565797
0.565797
0.565797
0.565797
0.565797
0.565798
0.565798
0.565798
0.565798
0.565798
0.565798
0.565798
0.565798
0.565798
0.565798
0.565798
0.565799
0.565799
0.565799
0.565799
0.565799
0.565799
0.565799
0.565799
0.565799
0.565799
0.5658
0.5658
0.5658
0.5658
0.5658
0.5658
0.5658
0.5658
0.5658
0.5658
0.565801
0.565801
0.565801
0.565801
0.565801
0.565801
0.565801
0.565801
0.565801
0.565802
0.565802
0.565802
0.565802
0.565802
0.565802
0.565802
0.565802
0.565802
0.565803
0.565803
0.565803
0.565803
0.565803
0.565803
0.565803
0.565803
0.565804
0.565804
0.565804
0.565804
0.565804
0.565804
0.565804
0.565804
0.565804
0.565805
0.565805
0.565805
0.565805
0.565805
0.565805
0.565805
0.565805
0.565806
0.565806
0.565806
0.565806
0.565806
0.565806
0.565806
0.565807
0.565807
0.565807
0.565807
0.565807
0.565807
0.565807
0.565807
0.565808
0.565808
0.565808
0.565808
0.565808
0.565808
0.565808
0.565809
0.565809
0.565809
0.565809
0.565809
0.565809
0.565809
0.565809
0.56581
0.56581
0.56581
0.56581
0.56581
0.56581
0.565811
0.565811
0.565811
0.565811
0.565811
0.565811
0.565811
0.565812
0.565812
0.565812
0.565812
0.565812
0.565812
0.565812
0.565813
0.565813
0.565813
0.565813
0.565813
0.565813
0.565814
0.565814
0.565814
0.565814
0.565814
0.565814
0.565815
0.565815
0.565815
0.565815
0.565815
0.565815
0.565816
0.565816
0.565816
0.565816
0.565816
0.565816
0.565816
0.565817
0.565817
0.565817
0.565817
0.565817
0.565817
0.565818
0.565818
0.565818
0.565818
0.565818
0.565818
0.565819
0.565819
0.565819
0.565819
0.565819
0.56582
0.56582
0.56582
0.56582
0.56582
0.56582
0.565821
0.565821
0.565821
0.565821
0.565821
0.565822
0.565822
0.565822
0.565822
0.565822
0.565822
0.565822
0.565823
0.565823
0.565823
0.565823
0.565823
0.565824
0.565824
0.565824
0.565824
0.565824
0.565825
0.565825
0.565825
0.565825
0.565825
0.565825
0.565826
0.565826
0.565826
0.565826
0.565826
0.565827
0.565827
0.565827
0.565827
0.565827
0.565828
0.565828
0.565828
0.565828
0.565828
0.565829
0.565829
0.565829
0.565829
0.565829
0.56583
0.56583
0.56583
0.56583
0.56583
0.565831
0.565831
0.565831
0.565831
0.565832
0.565832
0.565832
0.565832
0.565832
0.565833
0.565833
0.565833
0.565833
0.565833
0.565834
0.565834
0.565834
0.565834
0.565834
0.565835
0.565835
0.565835
0.565836
0.565836
0.565836
0.565836
0.565836
0.565837
0.565837
0.565837
0.565837
0.565837
0.565838
0.565838
0.565838
0.565838
0.565839
0.565839
0.565839
0.565839
0.565839
0.56584
0.56584
0.56584
0.56584
0.565841
0.565841
0.565841
0.565841
0.565841
0.565842
0.565842
0.565842
0.565842
0.565843
0.565843
0.565843
0.565843
0.565843
0.565844
0.565844
0.565844
0.565845
0.565845
0.565845
0.565845
0.565846
0.565846
0.565846
0.565846
0.565846
0.565847
0.565847
0.565847
0.565847
0.565848
0.565848
0.565848
0.565848
0.565849
0.565849
0.565849
0.56585
0.56585
0.56585
0.56585
0.56585
0.565851
0.565851
0.565851
0.565851
0.565852
0.565852
0.565852
0.565852
0.565853
0.565853
0.565853
0.565853
0.565854
0.565854
0.565854
0.565855
0.565855
0.565855
0.565855
0.565856
0.565856
0.565856
0.565856
0.565857
0.565857
0.565857
0.565857
0.565858
0.565858
0.565858
0.565859
0.565859
0.565859
0.565859
0.56586
0.56586
0.56586
0.56586
0.565861
0.565861
0.565861
0.565861
0.565862
0.565862
0.565862
0.565863
0.565863
0.565863
0.565863
0.565864
0.565864
0.565864
0.565864
0.565865
0.565865
0.565865
0.565865
0.565866
0.565866
0.565866
0.565867
0.565867
0.565867
0.565868
0.565868
0.565868
0.565868
0.565869
0.565869
0.565869
0.56587
0.56587
0.56587
0.56587
0.565871
0.565871
0.565871
0.565872
0.565872
0.565872
0.565873
0.565873
0.565873
0.565873
0.565874
0.565874
0.565874
0.565874
0.565875
0.565875
0.565876
0.565876
0.565876
0.565876
0.565877
0.565877
0.565877
0.565877
0.565878
0.565878
0.565879
0.565879
0.565879
0.565879
0.56588
0.56588
0.56588
0.565881
0.565881
0.565881
0.565882
0.565882
0.565882
0.565883
0.565883
0.565883
0.565883
0.565884
0.565884
0.565884
0.565885
0.565885
0.565885
0.565886
0.565886
0.565886
0.565886
0.565887
0.565887
0.565888
0.565888
0.565888
0.565888
0.565889
0.565889
0.56589
0.56589
0.56589
0.56589
0.565891
0.565891
0.565891
0.565892
0.565892
0.565893
0.565893
0.565893
0.565893
0.565894
0.565894
0.565895
0.565895
0.565895
0.565895
0.565896
0.565896
0.565896
0.565897
0.565897
0.565898
0.565898
0.565898
0.565898
0.565899
0.565899
0.5659
0.5659
0.5659
0.565901
0.565901
0.565901
0.565901
0.565902
0.565902
0.565903
0.565903
0.565903
0.565904
0.565904
0.565904
0.565905
0.565905
0.565905
0.565906
0.565906
0.565907
0.565907
0.565907
0.565908
0.565908
0.565908
0.565908
0.565909
0.565909
0.56591
0.56591
0.56591
0.565911
0.565911
0.565912
0.565912
0.565912
0.565912
0.565913
0.565913
0.565914
0.565914
0.565914
0.565915
0.565915
0.565916
0.565916
0.565916
0.565917
0.565917
0.565917
0.565917
0.565918
0.565918
0.565919
0.565919
0.565919
0.56592
0.56592
0.565921
0.565921
0.565921
0.565922
0.565922
0.565923
0.565923
0.565923
0.565924
0.565924
0.565924
0.565925
0.565925
0.565925
0.565926
0.565926
0.565927
0.565927
0.565927
0.565928
0.565928
0.565929
0.565929
0.565929
0.56593
0.56593
0.565931
0.565931
0.565931
0.565932
0.565932
0.565933
0.565933
0.565933
0.565934
0.565934
0.565935
0.565935
0.565935
0.565936
0.565936
0.565937
0.565937
0.565937
0.565938
0.565938
0.565939
0.565939
0.565939
0.56594
0.56594
0.565941
0.565941
0.565941
0.565942
0.565942
0.565943
0.565943
0.565943
0.565944
0.565944
0.565945
0.565945
0.565945
0.565946
0.565946
0.565947
0.565947
0.565947
0.565948
0.565948
0.565949
0.565949
0.565949
0.56595
0.56595
0.565951
0.565951
0.565951
0.565952
0.565952
0.565953
0.565953
0.565953
0.565954
0.565954
0.565955
0.565955
0.565956
0.565956
0.565957
0.565957
0.565957
0.565958
0.565958
0.565959
0.565959
0.565959
0.56596
0.56596
0.565961
0.565962
0.565962
0.565962
0.565963
0.565963
0.565964
0.565964
0.565964
0.565965
0.565965
0.565966
0.565966
0.565966
0.565967
0.565968
0.565968
0.565968
0.565969
0.565969
0.56597
0.56597
0.56597
0.565971
0.565971
0.565972
0.565973
0.565973
0.565973
0.565974
0.565974
0.565975
0.565975
0.565975
0.565976
0.565976
0.565977
0.565977
0.565978
0.565978
0.565979
0.565979
0.565979
0.56598
0.56598
0.565981
0.565982
0.565982
0.565982
0.565983
0.565983
0.565984
0.565984
0.565985
0.565985
0.565986
0.565986
0.565986
0.565987
0.565987
0.565988
0.565989
0.565989
0.565989
0.56599
0.56599
0.565991
0.565991
0.565992
0.565992
0.565993
0.565993
0.565993
0.565994
0.565994
0.565995
0.565996
0.565996
0.565996
0.565997
0.565997
0.565998
0.565998
0.565999
0.565999
0.566
0.566
0.566
0.566001
0.566002
0.566002
0.566003
0.566003
0.566003
0.566004
0.566005
0.566005
0.566005
0.566006
0.566007
0.566007
0.566008
0.566008
0.566008
0.566009
0.56601
0.56601
0.56601
0.566011
0.566011
0.566012
0.566013
0.566013
0.566013
0.566014
0.566015
0.566015
0.566015
0.566016
0.566016
0.566017
0.566018
0.566018
0.566018
0.566019
0.56602
0.56602
0.56602
0.566021
0.566022
0.566022
0.566023
0.566023
0.566023
0.566024
0.566025
0.566025
0.566025
0.566026
0.566027
0.566027
0.566028
0.566028
0.566029
0.566029
0.56603
0.566031
0.566031
0.566031
0.566032
0.566033
0.566033
0.566033
0.566034
0.566034
0.566035
0.566036
0.566036
0.566036
0.566037
0.566038
0.566038
0.566038
0.566039
0.56604
0.56604
0.566041
0.566041
0.566042
0.566042
0.566043
0.566044
0.566044
0.566044
0.566045
0.566046
0.566046
0.566046
0.566047
0.566048
0.566048
0.566049
0.566049
0.56605
0.56605
0.566051
0.566052
0.566052
0.566053
0.566053
0.566054
0.566055
0.566055
0.566055
0.566056
0.566057
0.566057
0.566057
0.566058
0.566059
0.566059
0.56606
0.56606
0.566061
0.566061
0.566062
0.566063
0.566063
0.566064
0.566064
0.566065
0.566066
0.566066
0.566066
0.566067
0.566068
0.566068
0.566068
0.566069
0.56607
0.566071
0.566071
0.566071
0.566072
0.566073
0.566073
0.566074
0.566074
0.566075
0.566076
0.566076
0.566077
0.566077
0.566078
0.566078
0.566079
0.56608
0.56608
0.566081
0.566081
0.566082
0.566083
0.566083
0.566083
0.566084
0.566085
0.566086
0.566086
0.566086
0.566087
0.566088
0.566088
0.566088
0.566089
0.56609
0.566091
0.566091
0.566091
0.566092
0.566093
0.566094
0.566094
0.566094
0.566095
0.566096
0.566097
0.566097
0.566097
0.566098
0.566099
0.5661
0.5661
0.5661
0.566101
0.566102
0.566103
0.566103
0.566103
0.566104
0.566105
0.566106
0.566106
0.566106
0.566107
0.566108
0.566109
0.566109
0.566109
0.56611
0.566111
0.566112
0.566113
0.566113
0.566113
0.566114
0.566115
0.566116
0.566116
0.566116
0.566117
0.566118
0.566119
0.566119
0.566119
0.56612
0.566121
0.566122
0.566122
0.566123
0.566123
0.566124
0.566125
0.566125
0.566126
0.566126
0.566127
0.566128
0.566128
0.566129
0.56613
0.56613
0.566131
0.566131
0.566132
0.566133
0.566134
0.566134
0.566134
0.566135
0.566136
0.566137
0.566138
0.566138
0.566138
0.566139
0.56614
0.566141
0.566141
0.566142
0.566142
0.566143
0.566144
0.566144
0.566145
0.566146
0.566146
0.566147
0.566147
0.566148
0.566149
0.56615
0.56615
0.56615
0.566151
0.566152
0.566153
0.566154
0.566154
0.566155
0.566155
0.566156
0.566157
0.566157
0.566158
0.566159
0.56616
0.56616
0.56616
0.566161
0.566162
0.566163
0.566164
0.566164
0.566164
0.566165
0.566166
0.566167
0.566167
0.566168
0.566169
0.56617
0.56617
0.56617
0.566171
0.566172
0.566173
0.566174
0.566174
0.566175
0.566175
0.566176
0.566177
0.566177
0.566178
0.566179
0.56618
0.566181
0.566181
0.566181
0.566182
0.566183
0.566184
0.566184
0.566185
0.566186
0.566187
0.566187
0.566187
0.566188
0.566189
0.56619
0.566191
0.566191
0.566192
0.566193
0.566193
0.566194
0.566194
0.566195
0.566196
0.566197
0.566198
0.566198
0.566199
0.5662
0.5662
0.566201
0.566201
0.566202
0.566203
0.566204
0.566205
0.566205
0.566206
0.566207
0.566208
0.566208
0.566208
0.566209
0.56621
0.566211
0.566212
0.566212
0.566213
0.566214
0.566215
0.566216
0.566216
0.566216
0.566217
0.566218
0.566219
0.566219
0.56622
0.566221
0.566222
0.566223
0.566223
0.566224
0.566225
0.566225
0.566226
0.566226
0.566227
0.566228
0.566229
0.56623
0.56623
0.566231
0.566232
0.566233
0.566234
0.566234
0.566234
0.566235
0.566236
0.566237
0.566237
0.566238
0.566239
0.56624
0.566241
0.566241
0.566242
0.566243
0.566244
0.566245
0.566245
0.566246
0.566247
0.566248
0.566249
0.566249
0.56625
0.56625
0.566251
0.566252
0.566252
0.566253
0.566254
0.566255
0.566256
0.566256
0.566257
0.566258
0.566259
0.56626
0.56626
0.566261
0.566262
0.566263
0.566264
0.566264
0.566265
0.566266
0.566267
0.566268
0.566268
0.566269
0.56627
0.56627
0.566271
0.566271
0.566272
0.566273
0.566274
0.566275
0.566275
0.566276
0.566277
0.566278
0.566279
0.566279
0.56628
0.566281
0.566282
0.566283
0.566283
0.566284
0.566285
0.566286
0.566287
0.566287
0.566288
0.566289
0.56629
0.566291
0.566291
0.566292
0.566293
0.566294
0.566295
0.566295
0.566296
0.566297
0.566298
0.566299
0.566299
0.5663
0.566301
0.566302
0.566303
0.566303
0.566304
0.566305
0.566306
0.566307
0.566307
0.566308
0.566309
0.56631
0.566311
0.566311
0.566312
0.566313
0.566314
0.566315
0.566315
0.566316
0.566317
0.566318
0.566319
0.566319
0.56632
0.566321
0.566322
0.566323
0.566323
0.566324
0.566325
0.566326
0.566327
0.566327
0.566328
0.566329
0.56633
0.566331
0.566331
0.566333
0.566334
0.566335
0.566336
0.566336
0.566337
0.566338
0.566339
0.56634
0.56634
0.566341
0.566342
0.566343
0.566344
0.566344
0.566345
0.566346
0.566347
0.566348
0.566348
0.566349
0.56635
0.566351
0.566352
0.566352
0.566354
0.566355
0.566356
0.566357
0.566357
0.566358
0.566359
0.56636
0.566361
0.566361
0.566362
0.566363
0.566364
0.566365
0.566365
0.566366
0.566367
0.566368
0.56637
0.56637
0.566371
0.566372
0.566373
0.566374
0.566374
0.566375
0.566376
0.566377
0.566378
0.566378
0.566379
0.56638
0.566381
0.566382
0.566382
0.566384
0.566385
0.566386
0.566387
0.566387
0.566388
0.566389
0.56639
0.566391
0.566391
0.566393
0.566394
0.566395
0.566396
0.566396
0.566397
0.566398
0.566399
0.5664
0.5664
0.566401
0.566403
0.566404
0.566405
0.566405
0.566406
0.566407
0.566408
0.566409
0.566409
0.56641
0.566412
0.566413
0.566414
0.566414
0.566415
0.566416
0.566417
0.566418
0.566418
0.566419
0.566421
0.566422
0.566423
0.566423
0.566424
0.566425
0.566426
0.566427
0.566427
0.566429
0.56643
0.566431
0.566432
0.566432
0.566433
0.566434
0.566436
0.566437
0.566437
0.566438
0.566439
0.56644
0.566441
0.566441
0.566442
0.566444
0.566445
0.566446
0.566446
0.566447
0.566448
0.566449
0.566451
0.566451
0.566452
0.566453
0.566454
0.566455
0.566455
0.566457
0.566458
0.566459
0.56646
0.56646
0.566461
0.566462
0.566464
0.566465
0.566465
0.566466
0.566467
0.566468
0.56647
0.56647
0.566471
0.566472
0.566473
0.566474
0.566474
0.566476
0.566477
0.566478
0.566479
0.566479
0.56648
0.566482
0.566483
0.566484
0.566484
0.566485
0.566486
0.566488
0.566489
0.566489
0.56649
0.566491
0.566492
0.566494
0.566494
0.566495
0.566496
0.566497
0.566499
0.566499
0.5665
0.566501
0.566502
0.566504
0.566504
0.566505
0.566506
0.566507
0.566508
0.566508
0.56651
0.566511
0.566512
0.566513
0.566513
0.566515
0.566516
0.566517
0.566518
0.566518
0.56652
0.566521
0.566522
0.566523
0.566523
0.566525
0.566526
0.566527
0.566528
0.566528
0.56653
0.566531
0.566532
0.566533
0.566533
0.566535
0.566536
0.566537
0.566538
0.566538
0.56654
0.566541
0.566542
0.566543
0.566543
0.566545
0.566546
0.566547
0.566549
0.566549
0.56655
0.566551
0.566553
0.566554
0.566554
0.566555
0.566556
0.566558
0.566559
0.566559
0.56656
0.566562
0.566563
0.566564
0.566564
0.566565
0.566567
0.566568
0.566569
0.566569
0.566571
0.566572
0.566573
0.566575
0.566575
0.566576
0.566577
0.566579
0.56658
0.56658
0.566581
0.566582
0.566584
0.566585
0.566585
0.566586
0.566588
0.566589
0.56659
0.56659
0.566592
0.566593
0.566594
0.566596
0.566596
0.566597
0.566598
0.5666
0.566601
0.566601
0.566602
0.566604
0.566605
0.566606
0.566606
0.566608
0.566609
0.56661
0.566612
0.566612
0.566613
0.566614
0.566616
0.566617
0.566617
0.566619
0.56662
0.566621
0.566623
0.566623
0.566624
0.566625
0.566627
0.566628
0.566628
0.566629
0.566631
0.566632
0.566634
0.566634
0.566635
0.566636
0.566638
0.566639
0.566639
0.56664
0.566642
0.566643
0.566645
0.566645
0.566646
0.566647
0.566649
0.56665
0.56665
0.566651
0.566653
0.566654
0.566656
0.566656
0.566657
0.566658
0.56666
0.566661
0.566661
0.566663
0.566664
0.566665
0.566667
0.566667
0.566668
0.56667
0.566671
0.566673
0.566673
0.566674
0.566675
0.566677
0.566678
0.566678
0.56668
0.566681
0.566682
0.566684
0.566684
0.566685
0.566687
0.566688
0.56669
0.56669
0.566691
0.566692
0.566694
0.566695
0.566695
0.566697
0.566698
0.566699
0.566701
0.566701
0.566702
0.566704
0.566705
0.566707
0.566707
0.566708
0.56671
0.566711
0.566713
0.566713
0.566714
0.566716
0.566717
0.566719
0.566719
0.56672
0.566721
0.566723
0.566724
0.566724
0.566726
0.566727
0.566729
0.56673
0.56673
0.566732
0.566733
0.566735
0.566736
0.566736
0.566738
0.566739
0.566741
0.566742
0.566742
0.566744
0.566745
0.566747
0.566748
0.566748
0.56675
0.566751
0.566753
0.566754
0.566754
0.566756
0.566757
0.566759
0.56676
0.56676
0.566762
0.566763
0.566765
0.566766
0.566766
0.566768
0.566769
0.566771
0.566772
0.566772
0.566774
0.566775
0.566777
0.566778
0.566778
0.56678
0.566781
0.566783
0.566784
0.566784
0.566786
0.566787
0.566789
0.566791
0.566791
0.566792
0.566794
0.566795
0.566797
0.566797
0.566798
0.5668
0.566801
0.566803
0.566803
0.566804
0.566806
0.566808
0.566809
0.566809
0.566811
0.566812
0.566814
0.566815
0.566815
0.566817
0.566818
0.56682
0.566822
0.566822
0.566823
0.566825
0.566826
0.566828
0.566828
0.56683
0.566831
0.566833
0.566834
0.566834
0.566836
0.566837
0.566839
0.566841
0.566841
0.566842
0.566844
0.566845
0.566847
0.566847
0.566849
0.56685
0.566852
0.566853
0.566853
0.566855
0.566857
0.566858
0.56686
0.56686
0.566861
0.566863
0.566865
0.566866
0.566866
0.566868
0.566869
0.566871
0.566873
0.566873
0.566874
0.566876
0.566877
0.566879
0.566879
0.566881
0.566882
0.566884
0.566886
0.566886
0.566887
0.566889
0.566891
0.566892
0.566892
0.566894
0.566896
0.566897
0.566899
0.566899
0.566901
0.566902
0.566904
0.566906
0.566906
0.566907
0.566909
0.566911
0.566912
0.566912
0.566914
0.566916
0.566917
0.566919
0.566919
0.566921
0.566922
0.566924
0.566926
0.566926
0.566927
0.566929
0.566931
0.566932
0.566932
0.566934
0.566936
0.566937
0.566939
0.566939
0.566941
0.566942
0.566944
0.566946
0.566946
0.566948
0.566949
0.566951
0.566953
0.566953
0.566954
0.566956
0.566958
0.56696
0.56696
0.566961
0.566963
0.566965
0.566966
0.566966
0.566968
0.56697
0.566972
0.566973
0.566973
0.566975
0.566977
0.566979
0.56698
0.56698
0.566982
0.566984
0.566985
0.566987
0.566987
0.566989
0.566991
0.566992
0.566994
0.566994
0.566996
0.566998
0.566999
0.567001
0.567001
0.567003
0.567005
0.567006
0.567008
0.567008
0.56701
0.567012
0.567014
0.567015
0.567015
0.567017
0.567019
0.567021
0.567022
0.567022
0.567024
0.567026
0.567028
0.56703
0.56703
0.567031
0.567033
0.567035
0.567037
0.567037
0.567038
0.56704
0.567042
0.567044
0.567044
0.567046
0.567047
0.567049
0.567051
0.567051
0.567053
0.567055
0.567056
0.567058
0.567058
0.56706
0.567062
0.567064
0.567066
0.567066
0.567067
0.567069
0.567071
0.567073
0.567073
0.567075
0.567077
0.567078
0.56708
0.56708
0.567082
0.567084
0.567086
0.567088
0.567088
0.56709
0.567091
0.567093
0.567095
0.567095
0.567097
0.567099
0.567101
0.567103
0.567103
0.567104
0.567106
0.567108
0.56711
0.56711
0.567112
0.567114
0.567116
0.567118
0.567118
0.567119
0.567121
0.567123
0.567125
0.567125
0.567127
0.567129
0.567131
0.567133
0.567133
0.567135
0.567136
0.567138
0.56714
0.56714
0.567142
0.567144
0.567146
0.567148
0.567148
0.56715
0.567152
0.567154
0.567155
0.567155
0.567157
0.567159
0.567161
0.567163
0.567163
0.567165
0.567167
0.567169
0.567171
0.567171
0.567173
0.567175
0.567177
0.567179
0.567179
0.567181
0.567183
0.567184
0.567186
0.567186
0.567188
0.56719
0.567192
0.567194
0.567194
0.567196
0.567198
0.5672
0.567202
0.567202
0.567204
0.567206
0.567208
0.56721
0.56721
0.567212
0.567214
0.567216
0.567218
0.567218
0.56722
0.567222
0.567224
0.567226
0.567226
0.567228
0.56723
0.567232
0.567234
0.567234
0.567236
0.567238
0.56724
0.567242
0.567242
0.567244
0.567246
0.567248
0.56725
0.56725
0.567252
0.567254
0.567256
0.567258
0.567258
0.56726
0.567262
0.567264
0.567266
0.567266
0.567268
0.56727
0.567272
0.567274
0.567274
0.567276
0.567278
0.56728
0.567282
0.567282
0.567284
0.567286
0.567289
0.567291
0.567291
0.567293
0.567295
0.567297
0.567299
0.567299
0.567301
0.567303
0.567305
0.567307
0.567307
0.567309
0.567311
0.567313
0.567315
0.567315
0.567317
0.56732
0.567322
0.567324
0.567324
0.567326
0.567328
0.56733
0.567332
0.567332
0.567334
0.567336
0.567338
0.567341
0.567341
0.567343
0.567345
0.567347
0.567349
0.567349
0.567351
0.567353
0.567355
0.567357
0.567357
0.56736
0.567362
0.567364
0.567366
0.567366
0.567368
0.56737
0.567372
0.567375
0.567375
0.567377
0.567379
0.567381
0.567383
0.567383
0.567385
0.567387
0.56739
0.567392
0.567392
0.567394
0.567396
0.567398
0.5674
0.5674
0.567403
0.567405
0.567407
0.567409
0.567409
0.567411
0.567413
0.567416
0.567418
0.567418
0.56742
0.567422
0.567424
0.567427
0.567427
0.567429
0.567431
0.567433
0.567435
0.567435
0.567437
0.56744
0.567442
0.567444
0.567444
0.567446
0.567449
0.567451
0.567453
0.567453
0.567455
0.567458
0.56746
0.567462
0.567462
0.567464
0.567467
0.567469
0.567471
0.567471
0.567473
0.567476
0.567478
0.56748
0.56748
0.567482
0.567485
0.567487
0.567489
0.567489
0.567491
0.567494
0.567496
0.567498
0.567498
0.5675
0.567503
0.567505
0.567507
0.567507
0.56751
0.567512
0.567514
0.567516
0.567516
0.567519
0.567521
0.567523
0.567526
0.567526
0.567528
0.56753
0.567532
0.567535
0.567535
0.567537
0.567539
0.567542
0.567544
0.567544
0.567546
0.567549
0.567551
0.567553
0.567553
0.567556
0.567558
0.56756
0.567563
0.567563
0.567565
0.567567
0.56757
0.567572
0.567572
0.567574
0.567577
0.567579
0.567581
0.567581
0.567584
0.567586
0.567589
0.567591
0.567591
0.567593
0.567596
0.567598
0.5676
0.5676
0.567603
0.567605
0.567608
0.56761
0.56761
0.567612
0.567615
0.567617
0.567619
0.567619
0.567622
0.567624
0.567627
0.567629
0.567629
0.567631
0.567634
0.567636
0.567639
0.567639
0.567641
0.567643
0.567646
0.567648
0.567648
0.567651
0.567653
0.567655
0.567658
0.567658
0.56766
0.567663
0.567665
0.567668
0.567668
0.56767
0.567673
0.567675
0.567678
0.567678
0.56768
0.567683
0.567685
0.567688
0.567688
0.56769
0.567693
0.567695
0.567697
0.567697
0.5677
0.567702
0.567705
0.567707
0.567707
0.56771
0.567712
0.567715
0.567717
0.567717
0.56772
0.567722
0.567725
0.567727
0.567727
0.56773
0.567732
0.567735
0.567737
0.567737
0.56774
0.567743
0.567745
0.567748
0.567748
0.56775
0.567753
0.567755
0.567758
0.567758
0.56776
0.567763
0.567765
0.567768
0.567768
0.56777
0.567773
0.567776
0.567778
0.567778
0.567781
0.567783
0.567786
0.567788
0.567788
0.567791
0.567794
0.567796
0.567799
0.567799
0.567801
0.567804
0.567806
0.567809
0.567809
0.567812
0.567814
0.567817
0.567819
0.567819
0.567822
0.567825
0.567827
0.56783
0.56783
0.567833
0.567835
0.567838
0.56784
0.56784
0.567843
0.567846
0.567848
0.567851
0.567851
0.567853
0.567856
0.567859
0.567861
0.567861
0.567864
0.567867
0.567869
0.567872
0.567872
0.567875
0.567877
0.56788
0.567883
0.567883
0.567885
0.567888
0.567891
0.567893
0.567893
0.567896
0.567899
0.567902
0.567904
0.567904
0.567907
0.56791
0.567912
0.567915
0.567915
0.567918
0.56792
0.567923
0.567926
0.567926
0.567929
0.567931
0.567934
0.567937
0.567937
0.56794
0.567942
0.567945
0.567948
0.567948
0.56795
0.567953
0.567956
0.567959
0.567959
0.567961
0.567964
0.567967
0.56797
0.56797
0.567973
0.567975
0.567978
0.567981
0.567981
0.567984
0.567986
0.567989
0.567992
0.567992
0.567995
0.567998
0.568
0.568003
0.568003
0.568006
0.568009
0.568012
0.568014
0.568014
0.568017
0.56802
0.568023
0.568026
0.568026
0.568028
0.568031
0.568034
0.568037
0.568037
0.56804
0.568043
0.568045
0.568048
0.568048
0.568051
0.568054
0.568057
0.56806
0.56806
0.568063
0.568065
0.568068
0.568071
0.568071
0.568074
0.568077
0.56808
0.568082
0.568082
0.568085
0.568088
0.568091
0.568094
0.568094
0.568097
0.5681
0.568103
0.568106
0.568106
0.568108
0.568111
0.568114
0.568117
0.568117
0.56812
0.568123
0.568126
0.568129
0.568129
0.568132
0.568135
0.568138
0.568141
0.568141
0.568144
0.568147
0.56815
0.568153
0.568153
0.568156
0.568159
0.568162
0.568165
0.568165
0.568168
0.56817
0.568173
0.568176
0.568176
0.568179
0.568182
0.568185
0.568188
0.568188
0.568191
0.568194
0.568197
0.5682
0.5682
0.568203
0.568206
0.568209
0.568212
0.568212
0.568215
0.568219
0.568222
0.568225
0.568225
0.568228
0.568231
0.568234
0.568237
0.568237
0.56824
0.568243
0.568246
0.568249
0.568249
0.568252
0.568255
0.568258
0.568261
0.568261
0.568264
0.568267
0.56827
0.568273
0.568273
0.568277
0.56828
0.568283
0.568286
0.568286
0.568289
0.568292
0.568295
0.568298
0.568298
0.568301
0.568304
0.568308
0.568311
0.568311
0.568314
0.568317
0.56832
0.568323
0.568323
0.568326
0.568329
0.568332
0.568336
0.568336
0.568339
0.568342
0.568345
0.568348
0.568348
0.568351
0.568355
0.568358
0.568361
0.568361
0.568364
0.568367
0.568371
0.568374
0.568374
0.568377
0.56838
0.568383
0.568387
0.568387
0.56839
0.568393
0.568396
0.5684
0.5684
0.568403
0.568406
0.568409
0.568412
0.568412
0.568416
0.568419
0.568422
0.568425
0.568425
0.568429
0.568432
0.568435
0.568438
0.568438
0.568442
0.568445
0.568448
0.568452
0.568452
0.568455
0.568458
0.568461
0.568465
0.568465
0.568468
0.568471
0.568475
0.568478
0.568478
0.568481
0.568484
0.568488
0.568491
0.568491
0.568494
0.568498
0.568501
0.568504
0.568504
0.568508
0.568511
0.568514
0.568518
0.568518
0.568521
0.568524
0.568528
0.568531
0.568531
0.568535
0.568538
0.568541
0.568545
0.568545
0.568548
0.568551
0.568555
0.568558
0.568558
0.568561
0.568565
0.568568
0.568572
0.568572
0.568575
0.568578
0.568582
0.568585
0.568585
0.568588
0.568592
0.568595
0.568599
0.568599
0.568602
0.568606
0.568609
0.568613
0.568613
0.568616
0.56862
0.568623
0.568627
0.568627
0.56863
0.568634
0.568637
0.568641
0.568641
0.568644
0.568648
0.568651
0.568655
0.568655
0.568658
0.568662
0.568665
0.568669
0.568669
0.568672
0.568676
0.568679
0.568683
0.568683
0.568686
0.56869
0.568693
0.568697
0.568697
0.5687
0.568704
0.568707
0.568711
0.568711
0.568715
0.568718
0.568722
0.568725
0.568725
0.568729
0.568732
0.568736
0.56874
0.56874
0.568743
0.568747
0.56875
0.568754
0.568754
0.568758
0.568761
0.568765
0.568768
0.568768
0.568772
0.568776
0.568779
0.568783
0.568783
0.568787
0.56879
0.568794
0.568797
0.568797
0.568801
0.568805
0.568808
0.568812
0.568812
0.568816
0.568819
0.568823
0.568827
0.568827
0.56883
0.568834
0.568838
0.568841
0.568841
0.568845
0.568849
0.568852
0.568856
0.568856
0.56886
0.568864
0.568867
0.568871
0.568871
0.568875
0.568879
0.568882
0.568886
0.568886
0.56889
0.568894
0.568898
0.568901
0.568901
0.568905
0.568909
0.568913
0.568916
0.568916
0.56892
0.568924
0.568928
0.568932
0.568932
0.568935
0.568939
0.568943
0.568947
0.568947
0.568951
0.568954
0.568958
0.568962
0.568962
0.568966
0.56897
0.568974
0.568977
0.568977
0.568981
0.568985
0.568989
0.568993
0.568993
0.568997
0.569001
0.569005
0.569008
0.569008
0.569012
0.569016
0.56902
0.569024
0.569024
0.569028
0.569032
0.569036
0.56904
0.56904
0.569044
0.569047
0.569051
0.569055
0.569055
0.569059
0.569063
0.569067
0.569071
0.569071
0.569075
0.569079
0.569083
0.569087
0.569087
0.569091
0.569095
0.569099
0.569103
0.569103
0.569107
0.569111
0.569115
0.569119
0.569119
0.569123
0.569127
0.569131
0.569135
0.569135
0.569139
0.569143
0.569147
0.569151
0.569151
0.569155
0.569159
0.569163
0.569167
0.569167
0.569171
0.569175
0.569179
0.569184
0.569184
0.569188
0.569192
0.569196
0.5692
0.5692
0.569204
0.569208
0.569212
0.569216
0.569216
0.56922
0.569225
0.569229
0.569233
0.569233
0.569237
0.569241
0.569245
0.569249
0.569249
0.569254
0.569258
0.569262
0.569266
0.569266
0.56927
0.569274
0.569279
0.569283
0.569283
0.569287
0.569291
0.569295
0.5693
0.5693
0.569304
0.569308
0.569312
0.569317
0.569317
0.569321
0.569325
0.569329
0.569333
0.569333
0.569338
0.569342
0.569346
0.56935
0.56935
0.569355
0.569359
0.569363
0.569368
0.569368
0.569372
0.569376
0.56938
0.569385
0.569385
0.569389
0.569393
0.569398
0.569402
0.569402
0.569406
0.56941
0.569415
0.569419
0.569419
0.569423
0.569428
0.569432
0.569437
0.569437
0.569441
0.569445
0.56945
0.569454
0.569454
0.569459
0.569463
0.569467
0.569472
0.569472
0.569476
0.569481
0.569485
0.56949
0.56949
0.569494
0.569498
0.569503
0.569507
0.569507
0.569512
0.569516
0.569521
0.569525
0.569525
0.56953
0.569534
0.569539
0.569543
0.569543
0.569548
0.569552
0.569557
0.569561
0.569561
0.569566
0.56957
0.569575
0.569579
0.569579
0.569584
0.569588
0.569593
0.569597
0.569597
0.569602
0.569606
0.569611
0.569615
0.569615
0.56962
0.569625
0.569629
0.569634
0.569634
0.569638
0.569643
0.569648
0.569652
0.569652
0.569657
0.569661
0.569666
0.569671
0.569671
0.569675
0.56968
0.569685
0.569689
0.569689
0.569694
0.569698
0.569703
0.569708
0.569708
0.569712
0.569717
0.569722
0.569726
0.569726
0.569731
0.569736
0.56974
0.569745
0.569745
0.56975
0.569755
0.569759
0.569764
0.569764
0.569769
0.569774
0.569779
0.569783
0.569783
0.569788
0.569793
0.569798
0.569802
0.569802
0.569807
0.569812
0.569817
0.569822
0.569822
0.569826
0.569831
0.569836
0.569841
0.569841
0.569846
0.569851
0.569855
0.56986
0.56986
0.569865
0.56987
0.569875
0.56988
0.56988
0.569885
0.56989
0.569894
0.569899
0.569899
0.569904
0.569909
0.569914
0.569919
0.569919
0.569924
0.569929
0.569934
0.569939
0.569939
0.569944
0.569949
0.569954
0.569958
0.569958
0.569963
0.569968
0.569973
0.569978
0.569978
0.569983
0.569988
0.569993
0.569998
0.569998
0.570003
0.570008
0.570013
0.570018
0.570018
0.570023
0.570028
0.570033
0.570038
0.570038
0.570043
0.570048
0.570053
0.570059
0.570059
0.570064
0.570069
0.570074
0.570079
0.570079
0.570084
0.570089
0.570095
0.5701
0.5701
0.570105
0.57011
0.570115
0.57012
0.57012
0.570126
0.570131
0.570136
0.570141
0.570141
0.570146
0.570151
0.570157
0.570162
0.570162
0.570167
0.570172
0.570178
0.570183
0.570183
0.570188
0.570193
0.570198
0.570204
0.570204
0.570209
0.570214
0.570219
0.570225
0.570225
0.57023
0.570235
0.570241
0.570246
0.570246
0.570251
0.570257
0.570262
0.570267
0.570267
0.570273
0.570278
0.570283
0.570289
0.570289
0.570294
0.570299
0.570305
0.57031
0.57031
0.570315
0.570321
0.570326
0.570332
0.570332
0.570337
0.570342
0.570348
0.570353
0.570353
0.570359
0.570364
0.570369
0.570375
0.570375
0.57038
0.570386
0.570391
0.570396
0.570396
0.570402
0.570408
0.570413
0.570419
0.570419
0.570424
0.57043
0.570435
0.570441
0.570441
0.570446
0.570452
0.570458
0.570463
0.570463
0.570469
0.570474