<?xml version="1.0"?>
<VTKFile type="UnstructuredGrid" version="0.1" byte_order="LittleEndian">
<UnstructuredGrid>
<Piece NumberOfPoints="5000" NumberOfCells="4000">
<PointData Scalars="Reaction 0">
<DataArray type="Float32" Name="Reaction 0" format="ascii">
0.569114
0.569114
0.569114
0.569114
0.569114
0.569114
0.569114
0.569114
0.569114
0.569114
0.569114
0.569114
0.569114
0.569114
0.569114
0.569114
0.569114
0.569114
0.569114
0.569114
0.569114
0.569114
0.569114
0.569114
0.569114
0.569114
0.569114
0.569114
0.569114
0.569114
0.569114
0.569114
0.569114
0.569114
0.569114
0.569114
0.569115
0.569115
0.569115
0.569115
0.569115
0.569115
0.569115
0.569115
0.569115
0.569115
0.569115
0.569115
0.569115
0.569115
0.569115
0.569115
0.569115
0.569116
0.569116
0.569116
0.569116
0.569116
0.569116
0.569116
0.569116
0.569116
0.569116
0.569116
0.569116
0.569116
0.569117
0.569117
0.569117
0.569117
0.569117
0.569117
0.569117
0.569117
0.569117
0.569117
0.569118
0.569118
0.569118
0.569118
0.569118
0.569118
0.569118
0.569118
0.569119
0.569119
0.569119
0.569119
0.569119
0.569119
0.569119
0.569119
0.569119
0.56912
0.56912
0.56912
0.56912
0.56912
0.56912
0.56912
0.56912
0.569121
0.569121
0.569121
0.569121
0.569121
0.569121
0.569121
0.569122
0.569122
0.569122
0.569122
0.569122
0.569122
0.569123
0.569123
0.569123
0.569123
0.569123
0.569123
0.569123
0.569124
0.569124
0.569124
0.569124
0.569124
0.569124
0.569125
0.569125
0.569125
0.569125
0.569125
0.569126
0.569126
0.569126
0.569126
0.569126
0.569126
0.569127
0.569127
0.569127
0.569127
0.569127
0.569128
0.569128
0.569128
0.569128
0.569128
0.569129
0.569129
0.569129
0.569129
0.569129
0.56913
0.56913
0.56913
0.56913
0.56913
0.569131
0.569131
0.569131
0.569131
0.569132
0.569132
0.569132
0.569132
0.569132
0.569133
0.569133
0.569133
0.569133
0.569134
0.569134
0.569134
0.569134
0.569134
0.569135
0.569135
0.569135
0.569136
0.569136
0.569136
0.569136
0.569137
0.569137
0.569137
0.569137
0.569138
0.569138
0.569138
0.569138
0.569139
0.569139
0.569139
0.569139
0.569139
0.56914
0.56914
0.56914
0.569141
0.569141
0.569141
0.569142
0.569142
0.569142
0.569142
0.569143
0.569143
0.569143
0.569144
0.569144
0.569144
0.569144
0.569145
0.569145
0.569145
0.569145
0.569146
0.569146
0.569147
0.569147
0.569147
0.569147
0.569148
0.569148
0.569148
0.569148
0.569149
0.569149
0.56915
0.56915
0.56915
0.56915
0.569151
0.569151
0.569151
0.569152
0.569152
0.569152
0.569153
0.569153
0.569153
0.569154
0.569154
0.569155
0.569155
0.569155
0.569155
0.569156
0.569156
0.569156
0.569157
0.569157
0.569157
0.569158
0.569158
0.569158
0.569159
0.569159
0.56916
0.56916
0.56916
0.569161
0.569161
0.569161
0.569161
0.569162
0.569162
0.569163
0.569163
0.569163
0.569164
0.569164
0.569165
0.569165
0.569165
0.569166
0.569166
0.569167
0.569167
0.569167
0.569168
0.569168
0.569169
0.569169
0.569169
0.569169
0.56917
0.56917
0.569171
0.569171
0.569171
0.569172
0.569172
0.569173
0.569173
0.569173
0.569174
0.569175
0.569175
0.569175
0.569176
0.569176
0.569177
0.569177
0.569177
0.569178
0.569178
0.569179
0.569179
0.569179
0.56918
0.56918
0.569181
0.569181
0.569181
0.569182
0.569182
0.569183
0.569184
0.569184
0.569184
0.569185
0.569185
0.569186
0.569186
0.569186
0.569187
0.569187
0.569188
0.569188
0.569189
0.569189
0.56919
0.56919
0.56919
0.569191
0.569191
0.569192
0.569193
0.569193
0.569193
0.569194
0.569194
0.569195
0.569195
0.569196
0.569196
0.569197
0.569197
0.569197
0.569198
0.569199
0.569199
0.5692
0.5692
0.5692
0.569201
0.569202
0.569202
0.569202
0.569203
0.569203
0.569204
0.569205
0.569205
0.569205
0.569206
0.569207
0.569207
0.569207
0.569208
0.569208
0.569209
0.56921
0.56921
0.56921
0.569211
0.569212
0.569212
0.569212
0.569213
0.569214
0.569214
0.569215
0.569215
0.569216
0.569216
0.569217
0.569218
0.569218
0.569218
0.569219
0.56922
0.56922
0.56922
0.569221
0.569222
0.569222
0.569223
0.569223
0.569224
0.569225
0.569225
0.569226
0.569226
0.569227
0.569227
0.569228
0.569229
0.569229
0.569229
0.56923
0.569231
0.569232
0.569232
0.569232
0.569233
0.569234
0.569235
0.569235
0.569235
0.569236
0.569237
0.569237
0.569237
0.569238
0.569239
0.56924
0.56924
0.56924
0.569241
0.569242
0.569243
0.569243
0.569243
0.569244
0.569245
0.569246
0.569246
0.569246
0.569247
0.569248
0.569249
0.569249
0.569249
0.56925
0.569251
0.569252
0.569253
0.569253
0.569253
0.569254
0.569255
0.569256
0.569256
0.569257
0.569257
0.569258
0.569259
0.569259
0.56926
0.569261
0.569261
0.569262
0.569262
0.569263
0.569264
0.569265
0.569265
0.569265
0.569266
0.569267
0.569268
0.569269
0.569269
0.569269
0.56927
0.569271
0.569272
0.569272
0.569273
0.569274
0.569275
0.569275
0.569275
0.569276
0.569277
0.569278
0.569279
0.569279
0.56928
0.56928
0.569281
0.569282
0.569282
0.569283
0.569284
0.569285
0.569286
0.569286
0.569287
0.569287
0.569288
0.569289
0.569289
0.56929
0.569291
0.569292
0.569293
0.569293
0.569294
0.569294
0.569295
0.569296
0.569296
0.569297
0.569298
0.569299
0.5693
0.5693
0.569301
0.569302
0.569303
0.569304
0.569304
0.569304
0.569305
0.569306
0.569307
0.569307
0.569308
0.569309
0.56931
0.569311
0.569311
0.569312
0.569313
0.569314
0.569315
0.569315
0.569316
0.569317
0.569318
0.569319
0.569319
0.569319
0.56932
0.569321
0.569322
0.569322
0.569323
0.569324
0.569325
0.569326
0.569326
0.569327
0.569328
0.569329
0.56933
0.56933
0.569331
0.569332
0.569333
0.569334
0.569334
0.569335
0.569336
0.569337
0.569338
0.569338
0.569339
0.56934
0.569341
0.569342
0.569342
0.569343
0.569344
0.569345
0.569346
0.569346
0.569347
0.569348
0.569349
0.56935
0.56935
0.569351
0.569352
0.569353
0.569354
0.569354
0.569355
0.569356
0.569358
0.569359
0.569359
0.56936
0.569361
0.569362
0.569363
0.569363
0.569364
0.569365
0.569366
0.569367
0.569367
0.569368
0.569369
0.56937
0.569371
0.569371
0.569372
0.569374
0.569375
0.569376
0.569376
0.569377
0.569378
0.569379
0.56938
0.56938
0.569381
0.569382
0.569383
0.569384
0.569384
0.569386
0.569387
0.569388
0.569389
0.569389
0.56939
0.569391
0.569392
0.569393
0.569393
0.569394
0.569396
0.569397
0.569398
0.569398
0.569399
0.5694
0.569401
0.569402
0.569402
0.569404
0.569405
0.569406
0.569407
0.569407
0.569408
0.569409
0.569411
0.569412
0.569412
0.569413
0.569414
0.569415
0.569416
0.569416
0.569418
0.569419
0.56942
0.569421
0.569421
0.569422
0.569423
0.569425
0.569426
0.569426
0.569427
0.569428
0.569429
0.569431
0.569431
0.569432
0.569433
0.569434
0.569435
0.569435
0.569437
0.569438
0.569439
0.56944
0.56944
0.569442
0.569443
0.569444
0.569445
0.569445
0.569446
0.569448
0.569449
0.56945
0.56945
0.569451
0.569453
0.569454
0.569455
0.569455
0.569456
0.569458
0.569459
0.56946
0.56946
0.569461
0.569463
0.569464
0.569465
0.569465
0.569467
0.569468
0.569469
0.56947
0.56947
0.569472
0.569473
0.569474
0.569476
0.569476
0.569477
0.569478
0.569479
0.569481
0.569481
0.569482
0.569483
0.569485
0.569486
0.569486
0.569487
0.569489
0.56949
0.569491
0.569491
0.569493
0.569494
0.569495
0.569497
0.569497
0.569498
0.569499
0.569501
0.569502
0.569502
0.569503
0.569505
0.569506
0.569507
0.569507
0.569509
0.56951
0.569511
0.569513
0.569513
0.569514
0.569515
0.569517
0.569518
0.569518
0.56952
0.569521
0.569522
0.569524
0.569524
0.569525
0.569526
0.569528
0.569529
0.569529
0.569531
0.569532
0.569533
0.569535
0.569535
0.569536
0.569538
0.569539
0.56954
0.56954
0.569542
0.569543
0.569545
0.569546
0.569546
0.569547
0.569549
0.56955
0.569552
0.569552
0.569553
0.569555
0.569556
0.569557
0.569557
0.569559
0.56956
0.569562
0.569563
0.569563
0.569565
0.569566
0.569568
0.569569
0.569569
0.569571
0.569572
0.569574
0.569575
0.569575
0.569577
0.569578
0.569579
0.569581
0.569581
0.569582
0.569584
0.569585
0.569587
0.569587
0.569588
0.56959
0.569591
0.569593
0.569593
0.569594
0.569596
0.569597
0.569599
0.569599
0.569601
0.569602
0.569604
0.569605
0.569605
0.569607
0.569608
0.56961
0.569611
0.569611
0.569613
0.569614
0.569616
0.569617
0.569617
0.569619
0.56962
0.569622
0.569624
0.569624
0.569625
0.569627
0.569628
0.56963
0.56963
0.569631
0.569633
0.569635
0.569636
0.569636
0.569638
0.569639
0.569641
0.569642
0.569642
0.569644
0.569646
0.569647
0.569649
0.569649
0.56965
0.569652
0.569654
0.569655
0.569655
0.569657
0.569659
0.56966
0.569662
0.569662
0.569663
0.569665
0.569667
0.569668
0.569668
0.56967
0.569672
0.569673
0.569675
0.569675
0.569676
0.569678
0.56968
0.569681
0.569681
0.569683
0.569685
0.569686
0.569688
0.569688
0.56969
0.569691
0.569693
0.569695
0.569695
0.569696
0.569698
0.5697
0.569701
0.569701
0.569703
0.569705
0.569707
0.569708
0.569708
0.56971
0.569712
0.569713
0.569715
0.569715
0.569717
0.569719
0.56972
0.569722
0.569722
0.569724
0.569725
0.569727
0.569729
0.569729
0.569731
0.569732
0.569734
0.569736
0.569736
0.569738
0.569739
0.569741
0.569743
0.569743
0.569745
0.569746
0.569748
0.56975
0.56975
0.569752
0.569753
0.569755
0.569757
0.569757
0.569759
0.56976
0.569762
0.569764
0.569764
0.569766
0.569768
0.569769
0.569771
0.569771
0.569773
0.569775
0.569777
0.569778
0.569778
0.56978
0.569782
0.569784
0.569786
0.569786
0.569788
0.569789
0.569791
0.569793
0.569793
0.569795
0.569797
0.569799
0.5698
0.5698
0.569802
0.569804
0.569806
0.569808
0.569808
0.56981
0.569811
0.569813
0.569815
0.569815
0.569817
0.569819
0.569821
0.569823
0.569823
0.569825
0.569826
0.569828
0.56983
0.56983
0.569832
0.569834
0.569836
0.569838
0.569838
0.56984
0.569842
0.569844
0.569845
0.569845
0.569847
0.569849
0.569851
0.569853
0.569853
0.569855
0.569857
0.569859
0.569861
0.569861
0.569863
0.569865
0.569867
0.569869
0.569869
0.569871
0.569872
0.569874
0.569876
0.569876
0.569878
0.56988
0.569882
0.569884
0.569884
0.569886
0.569888
0.56989
0.569892
0.569892
0.569894
0.569896
0.569898
0.5699
0.5699
0.569902
0.569904
0.569906
0.569908
0.569908
0.56991
0.569912
0.569914
0.569916
0.569916
0.569918
0.56992
0.569922
0.569924
0.569924
0.569926
0.569928
0.56993
0.569932
0.569932
0.569934
0.569936
0.569938
0.56994
0.56994
0.569942
0.569945
0.569947
0.569949
0.569949
0.569951
0.569953
0.569955
0.569957
0.569957
0.569959
0.569961
0.569963
0.569965
0.569965
0.569968
0.56997
0.569972
0.569974
0.569974
0.569976
0.569978
0.56998
0.569982
0.569982
0.569984
0.569987
0.569989
0.569991
0.569991
0.569993
0.569995
0.569997
0.569999
0.569999
0.570001
0.570004
0.570006
0.570008
0.570008
0.57001
0.570012
0.570014
0.570016
0.570016
0.570019
0.570021
0.570023
0.570025
0.570025
0.570027
0.57003
0.570032
0.570034
0.570034
0.570036
0.570038
0.57004
0.570043
0.570043
0.570045
0.570047
0.570049
0.570051
0.570051
0.570054
0.570056
0.570058
0.57006
0.57006
0.570063
0.570065
0.570067
0.570069
0.570069
0.570072
0.570074
0.570076
0.570078
0.570078
0.570081
0.570083
0.570085
0.570087
0.570087
0.57009
0.570092
0.570094
0.570096
0.570096
0.570099
0.570101
0.570103
0.570105
0.570105
0.570108
0.57011
0.570112
0.570115
0.570115
0.570117
0.570119
0.570122
0.570124
0.570124
0.570126
0.570129
0.570131
0.570133
0.570133
0.570136
0.570138
0.57014
0.570143
0.570143
0.570145
0.570147
0.57015
0.570152
0.570152
0.570154
0.570157
0.570159
0.570161
0.570161
0.570164
0.570166
0.570168
0.570171
0.570171
0.570173
0.570176
0.570178
0.57018
0.57018
0.570183
0.570185
0.570188
0.57019
0.57019
0.570192
0.570195
0.570197
0.5702
0.5702
0.570202
0.570204
0.570207
0.570209
0.570209
0.570212
0.570214
0.570217
0.570219
0.570219
0.570221
0.570224
0.570226
0.570229
0.570229
0.570231
0.570234
0.570236
0.570239
0.570239
0.570241
0.570244
0.570246
0.570249
0.570249
0.570251
0.570254
0.570256
0.570259
0.570259
0.570261
0.570264
0.570266
0.570269
0.570269
0.570271
0.570274
0.570276
0.570279
0.570279
0.570281
0.570284
0.570286
0.570289
0.570289
0.570291
0.570294
0.570296
0.570299
0.570299
0.570301
0.570304
0.570307
0.570309
0.570309
0.570312
0.570314
0.570317
0.570319
0.570319
0.570322
0.570324
0.570327
0.57033
0.57033
0.570332
0.570335
0.570337
0.57034
0.57034
0.570343
0.570345
0.570348
0.57035
0.57035
0.570353
0.570356
0.570358
0.570361
0.570361
0.570364
0.570366
0.570369
0.570372
0.570372
0.570374
0.570377
0.57038
0.570382
0.570382
0.570385
0.570388
0.57039
0.570393
0.570393
0.570396
0.570398
0.570401
0.570404
0.570404
0.570406
0.570409
0.570412
0.570415
0.570415
0.570417
0.57042
0.570423
0.570425
0.570425
0.570428
0.570431
0.570434
0.570436
0.570436
0.570439
0.570442
0.570444
0.570447
0.570447
0.57045
0.570453
0.570455
0.570458
0.570458
0.570461
0.570464
0.570467
0.570469
0.570469
0.570472
0.570475
0.570478
0.57048
0.57048
0.570483
0.570486
0.570489
0.570492
0.570492
0.570494
0.570497
0.5705
0.570503
0.570503
0.570506
0.570509
0.570511
0.570514
0.570514
0.570517
0.57052
0.570523
0.570526
0.570526
0.570528
0.570531
0.570534
0.570537
0.570537
0.57054
0.570543
0.570546
0.570548
0.570548
0.570551
0.570554
0.570557
0.57056
0.57056
0.570563
0.570566
0.570569
0.570572
0.570572
0.570574
0.570577
0.57058
0.570583
0.570583
0.570586
0.570589
0.570592
0.570595
0.570595
0.570598
0.570601
0.570604
0.570607
0.570607
0.57061
0.570613
0.570616
0.570619
0.570619
0.570622
0.570624
0.570627
0.57063
0.57063
0.570633
0.570636
0.570639
0.570642
0.570642
0.570645
0.570648
0.570651
0.570654
0.570654
0.570657
0.57066
0.570663
0.570666
0.570666
0.57067
0.570673
0.570676
0.570679
0.570679
0.570682
0.570685
0.570688
0.570691
0.570691
0.570694
0.570697
0.5707
0.570703
0.570703
0.570706
0.570709
0.570712
0.570715
0.570715
0.570718
0.570722
0.570725
0.570728
0.570728
0.570731
0.570734
0.570737
0.57074
0.57074
0.570743
0.570746
0.570749
0.570753
0.570753
0.570756
0.570759
0.570762
0.570765
0.570765
0.570768
0.570771
0.570775
0.570778
0.570778
0.570781
0.570784
0.570787
0.570791
0.570791
0.570794
0.570797
0.5708
0.570803
0.570803
0.570807
0.57081
0.570813
0.570816
0.570816
0.570819
0.570823
0.570826
0.570829
0.570829
0.570832
0.570836
0.570839
0.570842
0.570842
0.570845
0.570849
0.570852
0.570855
0.570855
0.570858
0.570862
0.570865
0.570868
0.570868
0.570872
0.570875
0.570878
0.570881
0.570881
0.570885
0.570888
0.570891
0.570895
0.570895
0.570898
0.570901
0.570905
0.570908
0.570908
0.570911
0.570915
0.570918
0.570921
0.570921
0.570925
0.570928
0.570931
0.570935
0.570935
0.570938
0.570941
0.570945
0.570948
0.570948
0.570952
0.570955
0.570958
0.570962
0.570962
0.570965
0.570969
0.570972
0.570975
0.570975
0.570979
0.570982
0.570986
0.570989
0.570989
0.570992
0.570996
0.570999
0.571003
0.571003
0.571006
0.57101
0.571013
0.571017
0.571017
0.57102
0.571024
0.571027
0.57103
0.57103
0.571034
0.571037
0.571041
0.571044
0.571044
0.571048
0.571051
0.571055
0.571058
0.571058
0.571062
0.571065
0.571069
0.571073
0.571073
0.571076
0.57108
0.571083
0.571087
0.571087
0.57109
0.571094
0.571097
0.571101
0.571101
0.571105
0.571108
0.571112
0.571115
0.571115
0.571119
0.571122
0.571126
0.57113
0.57113
0.571133
0.571137
0.57114
0.571144
0.571144
0.571148
0.571151
0.571155
0.571159
0.571159
0.571162
0.571166
0.571169
0.571173
0.571173
0.571177
0.57118
0.571184
0.571188
0.571188
0.571191
0.571195
0.571199
0.571202
0.571202
0.571206
0.57121
0.571213
0.571217
0.571217
0.571221
0.571224
0.571228
0.571232
0.571232
0.571236
0.571239
0.571243
0.571247
0.571247
0.571251
0.571255
0.571258
0.571262
0.571262
0.571266
0.57127
0.571273
0.571277
0.571277
0.571281
0.571285
0.571289
0.571292
0.571292
0.571296
0.5713
0.571304
0.571308
0.571308
0.571311
0.571315
0.571319
0.571323
0.571323
0.571327
0.571331
0.571335
0.571338
0.571338
0.571342
0.571346
0.57135
0.571354
0.571354
0.571358
0.571362
0.571365
0.571369
0.571369
0.571373
0.571377
0.571381
0.571385
0.571385
0.571389
0.571393
0.571397
0.571401
0.571401
0.571405
0.571409
0.571412
0.571416
0.571416
0.57142
0.571424
0.571428
0.571432
0.571432
0.571436
0.57144
0.571444
0.571448
0.571448
0.571452
0.571456
0.57146
0.571464
0.571464
0.571468
0.571472
0.571476
0.57148
0.57148
0.571484
0.571488
0.571492
0.571496
0.571496
0.5715
0.571504
0.571509
0.571513
0.571513
0.571517
0.571521
0.571525
0.571529
0.571529
0.571533
0.571537
0.571541
0.571545
0.571545
0.571549
0.571554
0.571558
0.571562
0.571562
0.571566
0.57157
0.571574
0.571578
0.571578
0.571582
0.571587
0.571591
0.571595
0.571595
0.571599
0.571603
0.571607
0.571612
0.571612
0.571616
0.57162
0.571624
0.571628
0.571628
0.571633
0.571637
0.571641
0.571645
0.571645
0.571649
0.571654
0.571658
0.571662
0.571662
0.571666
0.571671
0.571675
0.571679
0.571679
0.571683
0.571687
0.571692
0.571696
0.571696
0.5717
0.571705
0.571709
0.571713
0.571713
0.571718
0.571722
0.571726
0.571731
0.571731
0.571735
0.571739
0.571744
0.571748
0.571748
0.571752
0.571757
0.571761
0.571766
0.571766
0.57177
0.571774
0.571779
0.571783
0.571783
0.571787
0.571792
0.571796
0.571801
0.571801
0.571805
0.57181
0.571814
0.571818
0.571818
0.571823
0.571827
0.571832
0.571836
0.571836
0.571841
0.571845
0.57185
0.571854
0.571854
0.571858
0.571863
0.571867
0.571872
0.571872
0.571876
0.571881
0.571885
0.57189
0.57189
0.571894
0.571899
0.571904
0.571908
0.571908
0.571913
0.571917
0.571922
0.571926
0.571926
0.571931
0.571935
0.57194
0.571945
0.571945
0.571949
0.571954
0.571958
0.571963
0.571963
0.571968
0.571972
0.571977
0.571981
0.571981
0.571986
0.571991
0.571995
0.572
0.572
0.572005
0.572009
0.572014
0.572019
0.572019
0.572023
0.572028
0.572033
0.572037
0.572037
0.572042
0.572047
0.572051
0.572056
0.572056
0.572061
0.572066
0.57207
0.572075
0.572075
0.57208
0.572085
0.572089
0.572094
0.572094
0.572099
0.572104
0.572108
0.572113
0.572113
0.572118
0.572123
0.572127
0.572132
0.572132
0.572137
0.572142
0.572147
0.572152
0.572152
0.572156
0.572161
0.572166
0.572171
0.572171
0.572176
0.57218
0.572185
0.57219
0.57219
0.572195
0.5722
0.572205
0.57221
0.57221
0.572214
0.572219
0.572224
0.572229
0.572229
0.572234
0.572239
0.572244
0.572249
0.572249
0.572254
0.572259
0.572264
0.572269
0.572269
0.572274
0.572279
0.572284
0.572289
0.572289
0.572294
0.572299
0.572304
0.572309
0.572309
0.572314
0.572319
0.572324
0.572329
0.572329
0.572334
0.572339
0.572344
0.572349
0.572349
0.572354
0.57236
0.572365
0.57237
0.57237
0.572375
0.57238
0.572385
0.57239
0.57239
0.572395
0.5724
0.572405
0.572411
0.572411
0.572416
0.572421
0.572426
0.572431
0.572431
0.572436
0.572442
0.572447
0.572452
0.572452
0.572457
0.572462
0.572467
0.572473
0.572473
0.572478
0.572483
0.572488
0.572494
0.572494
0.572499
0.572504
0.572509
0.572515
0.572515
0.57252
0.572525
0.57253
0.572536
0.572536
0.572541
0.572546
0.572552
0.572557
0.572557
0.572562
0.572567
0.572573
0.572578
0.572578
0.572583
0.572589
0.572594
0.5726
0.5726
0.572605
0.57261
0.572616
0.572621
0.572621
0.572626
0.572632
0.572637
0.572643
0.572643
0.572648
0.572653
0.572659
0.572664
0.572664
0.57267
0.572675
0.572681
0.572686
0.572686
0.572691
0.572697
0.572702
0.572708
0.572708
0.572713
0.572719
0.572724
0.57273
0.57273
0.572735
0.572741
0.572746
0.572752
0.572752
0.572757
0.572763
0.572768
0.572774
0.572774
0.572779
0.572785
0.572791
0.572796
0.572796
0.572802
0.572808
0.572813
0.572819
0.572819
0.572825
0.57283
0.572836
0.572842
0.572842
0.572847
0.572853
0.572859
0.572864
0.572864
0.57287
0.572876
0.572881
0.572887
0.572887
0.572893
0.572898
0.572904
0.57291
0.57291
0.572916
0.572921
0.572927
0.572933
0.572933
0.572939
0.572944
0.57295
0.572956
0.572956
0.572962
0.572967
0.572973
0.572979
0.572979
0.572985
0.572991
0.572997
0.573002
0.573002
0.573008
0.573014
0.57302
0.573026
0.573026
0.573032
0.573038
0.573043
0.573049
0.573049
0.573055
0.573061
0.573067
0.573073
0.573073
0.573079
0.573085
0.573091
0.573097
0.573097
0.573103
0.573109
0.573115
0.573121
0.573121
0.573127
0.573133
0.573139
0.573145
0.573145
0.573151
0.573157
0.573163
0.573169
0.573169
0.573175
0.573181
0.573187
0.573193
0.573193
0.573199
0.573205
0.573211
0.573217
0.573217
0.573223
0.573229
0.573235
0.573242
0.573242
0.573248
0.573254
0.57326
0.573266
0.573266
0.573272
0.573278
0.573284
0.573291
0.573291
0.573297
0.573303
0.573309
0.573315
0.573315
0.573321
0.573328
0.573334
0.57334
0.57334
0.573346
0.573352
0.573359
0.573365
0.573365
0.573371
0.573378
0.573384
0.57339
0.57339
0.573397
0.573403
0.573409
0.573416
0.573416
0.573422
0.573428
0.573435
0.573441
0.573441
0.573448
0.573454
0.57346
0.573467
0.573467
0.573473
0.57348
0.573486
0.573492
0.573492
0.573499
0.573505
0.573512
0.573518
0.573518
0.573525
0.573531
0.573537
0.573544
0.573544
0.57355
0.573557
0.573563
0.57357
0.57357
0.573576
0.573583
0.57359
0.573596
0.573596
0.573603
0.573609
0.573616
0.573622
0.573622
0.573629
0.573635
0.573642
0.573649
0.573649
0.573655
0.573662
0.573669
0.573675
0.573675
0.573682
0.573688
0.573695
0.573702
0.573702
0.573708
0.573715
0.573722
0.573729
0.573729
0.573735
0.573742
0.573749
0.573755
0.573755
0.573762
0.573769
0.573776
0.573782
0.573782
0.573789
0.573796
0.573803
0.57381
0.57381
0.573816
0.573823
0.57383
0.573837
0.573837
0.573844
0.57385
0.573857
0.573864
0.573864
0.573871
0.573878
0.573885
0.573892
0.573892
0.573898
0.573905
0.573912
0.573919
0.573919
0.573926
0.573933
0.57394
0.573947
0.573947
0.573954
0.573961
0.573968
0.573975
0.573975
0.573982
0.573989
0.573996
0.574003
0.574003
0.57401
0.574017
0.574024
0.574031
0.574031
0.574038
0.574045
0.574052
0.57406
0.57406
0.574067
0.574074
0.574081
0.574088
0.574088
0.574095
0.574102
0.574109
0.574117
0.574117
0.574124
0.574131
0.574138
0.574145
0.574145
0.574153
0.57416
0.574167
0.574174
0.574174
0.574182
0.574189
0.574196
0.574203
0.574203
0.574211
0.574218
0.574225
0.574232
0.574232
0.57424
0.574247
0.574254
0.574262
0.574262
0.574269
0.574276
0.574284
0.574291
0.574291
0.574299
0.574306
0.574313
0.574321
0.574321
0.574328
0.574336
0.574343
0.57435
0.57435
0.574358
0.574365
0.574373
0.57438
0.57438
0.574388
0.574395
0.574403
0.57441
0.57441
0.574418
0.574425
0.574433
0.57444
0.57444
0.574448
0.574456
0.574463
0.574471
0.574471
0.574478
0.574486
0.574494
0.574501
0.574501
0.574509
0.574516
0.574524
0.574532
0.574532
0.574539
0.574547
0.574555
0.574562
0.574562
0.57457
0.574578
0.574585
0.574593
0.574593
0.574601
0.574608
0.574616
0.574624
0.574624
0.574632
0.574639
0.574647
0.574655
0.574655
0.574663
0.574671
0.574679
0.574687
0.574687
0.574695
0.574702
0.57471
0.574718
0.574718
0.574726
0.574734
0.574742
0.57475
0.57475
0.574758
0.574766
0.574774
0.574782
0.574782
0.57479
0.574798
0.574806
0.574814
0.574814
0.574822
0.57483
0.574838
0.574846
0.574846
0.574854
0.574862
0.57487
0.574878
0.574878
0.574886
0.574894
0.574902
0.57491
0.57491
0.574919
0.574927
0.574935
0.574943
0.574943
0.574951
0.574959
0.574968
0.574976
0.574976
0.574984
0.574992
0.575
0.575009
0.575009
0.575017
0.575025
0.575033
0.575042
0.575042
0.57505
0.575058
0.575067
0.575075
0.575075
0.575083
0.575092
0.5751
0.575108
0.575108
0.575117
0.575125
0.575133
0.575142
0.575142
0.57515
0.575159
0.575167
0.575175
0.575175
0.575184
0.575192
0.575201
0.575209
0.575209
0.575218
0.575226
0.575235
0.575243
0.575243
0.575252
0.57526
0.575269
0.575277
0.575277
0.575286
0.575294
0.575303
0.575311
0.575311
0.57532
0.575328
0.575337
0.575346
0.575346
0.575354
0.575363
0.575372
0.575381
0.575381
0.575389
0.575398
0.575407
0.575416
0.575416
0.575424
0.575433
0.575442
0.575451
0.575451
0.57546
0.575468
0.575477
0.575486
0.575486
0.575495
0.575504
0.575513
0.575521
0.575521
0.57553
0.575539
0.575548
0.575557
0.575557
0.575566
0.575575
0.575584
0.575593
0.575593
0.575602
0.575611
0.57562
0.575629
0.575629
0.575638
0.575647
0.575656
0.575665
0.575665
0.575674
0.575683
0.575692
0.575701
0.575701
0.57571
0.575719
0.575728
0.575737
0.575737
0.575746
0.575756
0.575765
0.575774
0.575774
0.575783
0.575792
0.575801
0.575811
0.575811
0.57582
0.575829
0.575838
0.575848
0.575848
0.575857
0.575866
0.575875
0.575885
0.575885
0.575894
0.575903
0.575913
0.575922
0.575922
0.575931
0.575941
0.57595
0.575959
0.575959
0.575969
0.575978
0.575988
0.575997
0.575997
0.576006
0.576016
0.576025
0.576035
0.576035
0.576044
0.576054
0.576063
0.576073
0.576073
0.576082
0.576092
0.576101
0.576111
0.576111
0.57612
0.57613
0.57614
0.576149
0.576149
0.576159
0.576169
0.576179
0.576188
0.576188
0.576198
0.576208
0.576217
0.576227
0.576227
0.576237
0.576247
0.576256
0.576266
0.576266
0.576276
0.576286
0.576296
0.576305
0.576305
0.576315
0.576325
0.576335
0.576345
0.576345
0.576355
0.576365
0.576374
0.576384
0.576384
0.576394
0.576404
0.576414
0.576424
0.576424
0.576434
0.576444
0.576454
0.576464
0.576464
0.576474
0.576484
0.576494
0.576504
0.576504
0.576514
0.576524
0.576535
0.576545
0.576545
0.576555
0.576565
0.576575
0.576585
0.576585
0.576595
0.576606
0.576616
0.576626
0.576626
0.576636
0.576646
0.576657
0.576667
0.576667
0.576677
0.576687
0.576698
0.576708
0.576708
0.576718
0.576729
0.576739
0.576749
0.576749
0.57676
0.57677
0.57678
0.576791
0.576791
0.576801
0.576812
0.576822
0.576832
0.576832
0.576843
0.576853
0.576864
0.576874
0.576874
0.576885
0.576895
0.576906
0.576916
0.576916
0.576927
0.576938
0.576948
0.576959
0.576959
0.57697
0.57698
0.576991
0.577002
0.577002
0.577013
0.577023
0.577034
0.577045
0.577045
0.577056
0.577066
0.577077
0.577088
0.577088
0.577099
0.57711
0.57712
0.577131
0.577131
0.577142
0.577153
0.577164
0.577175
0.577175
0.577186
0.577196
0.577207
0.577218
0.577218
0.577229
0.57724
0.577251
0.577262
0.577262
0.577273
0.577284
0.577295
0.577306
0.577306
0.577317
0.577329
0.57734
0.577351
0.577351
0.577362
0.577373
0.577384
0.577395
0.577395
0.577407
0.577418
0.577429
0.57744
0.57744
0.577451
0.577463
0.577474
0.577485
0.577485
0.577496
0.577508
0.577519
0.57753
0.57753
0.577542
0.577553
0.577564
0.577576
0.577576
0.577587
0.577598
0.57761
0.577621
0.577621
0.577633
0.577644
0.577656
0.577667
0.577667
0.577678
0.57769
0.577701
0.577713
0.577713
0.577725
0.577736
0.577748
0.577759
0.577759
0.577771
0.577783
0.577795
0.577806
0.577806
0.577818
0.57783
0.577841
0.577853
0.577853
0.577865
0.577877
0.577889
0.5779
0.5779
0.577912
0.577924
0.577936
0.577948
0.577948
0.57796
0.577972
0.577984
0.577995
0.577995
0.578007
0.578019
0.578031
0.578043
0.578043
0.578055
0.578067
0.578079
0.578091
0.578091
0.578103
0.578115
0.578127
0.57814
0.57814
0.578152
0.578164
0.578176
0.578188
0.578188
0.5782
0.578212
0.578225
0.578237
0.578237
0.578249
0.578261
0.578274
0.578286
0.578286
0.578298
0.57831
0.578323
0.578335
0.578335
0.578347
0.57836
0.578372
0.578385
0.578385
0.578397
0.578409
0.578422
0.578434
0.578434
0.578447
0.578459
0.578472
0.578484
0.578484
0.578497
0.578509
0.578522
0.578534
0.578534
0.578547
0.578559
0.578572
0.578585
0.578585
0.578597
0.57861
0.578623
0.578635
0.578635
0.578648
0.578661
0.578674
0.578686
0.578686
0.578699
0.578712
0.578725
0.578738
0.578738
0.578751
0.578764
0.578777
0.57879
0.57879
0.578803
0.578816
0.578829
0.578842
0.578842
0.578855
0.578868
0.578881
0.578894
0.578894
0.578907
0.57892
0.578933
0.578946
0.578946
0.578959
0.578972
0.578986
0.578999
0.578999
0.579012
0.579025
0.579038
0.579052
0.579052
0.579065
0.579078
0.579091
0.579105
0.579105
0.579118
0.579131
0.579145
0.579158
0.579158
0.579172
0.579185
0.579198
0.579212
0.579212
0.579225
0.579239
0.579252
0.579266
0.579266
0.579279
0.579293
0.579306
0.57932
0.57932
0.579334
0.579347
0.579361
0.579374
0.579374
0.579388
0.579402
0.579415
0.579429
0.579429
0.579443
0.579456
0.57947
0.579484
0.579484
0.579498
0.579511
0.579525
0.579539
0.579539
0.579553
0.579567
0.579581
0.579595
0.579595
0.579609
0.579623
0.579637
0.579651
0.579651
0.579665
0.579679
0.579693
0.579707
0.579707
0.579721
0.579735
0.57975
0.579764
0.579764
0.579778
0.579792
0.579806
0.579821
0.579821
0.579835
0.579849
0.579863
0.579878
0.579878
0.579892
0.579906
0.579921
0.579935
0.579935
0.579949
0.579964
0.579978
0.579993
0.579993
0.580007
0.580022
0.580036
0.580051
0.580051
0.580065
0.58008
0.580094
0.580109
0.580109
0.580123
0.580138
0.580153
0.580167
0.580167
0.580182
0.580197
0.580212
0.580226
0.580226
0.580241
0.580256
0.580271
0.580285
0.580285
0.5803
0.580315
0.58033
0.580345
0.580345
0.58036
0.580375
0.580389
0.580404
0.580404
0.580419
0.580434
0.580449
0.580464
0.580464
0.580479
0.580494
0.580509
0.580524
0.580524
0.580539
0.580555
0.58057
0.580585
0.580585
0.5806
0.580615
0.580631
0.580646
0.580646
0.580661
0.580677
0.580692
0.580707
0.580707
0.580723
0.580738
0.580754
0.580769
0.580769
0.580785
0.5808
0.580816
0.580831
0.580831
0.580847
0.580862
0.580878
0.580894
0.580894
0.580909
0.580925
0.580941
0.580956
0.580956
0.580972
0.580988
0.581003
0.581019
0.581019
0.581035
0.581051
0.581067
0.581082
0.581082
0.581098
0.581114
0.58113
0.581146
0.581146
0.581162
0.581178
0.581194
0.58121
0.58121
0.581226
0.581242
0.581258
0.581274
0.581274
0.58129
0.581306
0.581322
0.581338
0.581338
0.581355
0.581371
0.581387
0.581403
0.581403
0.58142
0.581436
0.581452
0.581468
0.581468
0.581485
0.581501
0.581517
0.581534
0.581534
0.58155
0.581567
0.581583
0.581599
0.581599
0.581616
0.581632
0.581649
0.581665
0.581665
0.581682
0.581699
0.581715
0.581732
0.581732
0.581749
0.581766
0.581782
0.581799
0.581799
0.581816
0.581833
0.58185
0.581867
0.581867
0.581884
0.5819
0.581917
0.581934
0.581934
0.581951
0.581968
0.581985
0.582002
0.582002
0.582019
0.582037
0.582054
0.582071
0.582071
0.582088
0.582105
0.582122
0.582139
0.582139
0.582157
0.582174
0.582191
0.582208
0.582208
0.582226
0.582243
0.58226
0.582278
0.582278
0.582295
0.582313
0.58233
0.582348
0.582348
0.582365
0.582383
0.5824
0.582418
0.582418
0.582435
0.582453
0.58247
0.582488
0.582488
0.582506
0.582523
0.582541
0.582559
0.582559
0.582576
0.582594
0.582612
0.58263
0.58263
0.582648
0.582665
0.582683
0.582701
0.582701
0.582719
0.582737
0.582755
0.582773
0.582773
0.582791
0.582809
0.582827
0.582845
0.582845
0.582863
0.582881
0.5829
0.582918
0.582918
0.582936
0.582955
0.582973
0.582991
0.582991
0.58301
0.583028
0.583046
0.583065
0.583065
0.583083
0.583102
0.58312
0.583139
0.583139
0.583157
0.583176
0.583194
0.583213
0.583213
0.583232
0.58325
0.583269
0.583288
0.583288
0.583306
0.583325
0.583344
0.583363
0.583363
0.583382
0.5834
0.583419
0.583438
0.583438
0.583457
0.583476
0.583495
0.583514
0.583514
0.583533
0.583552
0.583571
0.58359
0.58359
0.583609
0.583628
0.583647
0.583666
0.583666
0.583686
0.583705
0.583724
0.583743
0.583743
0.583763
0.583782
0.583801
0.583821
0.583821
0.58384
0.583859
0.583879
0.583898
0.583898
0.583918
0.583937
0.583957
0.583976
0.583976
0.583996
0.584015
0.584035
0.584055
0.584055
0.584074
0.584094
0.584114
0.584134
0.584134
0.584154
0.584174
0.584193
0.584213